/*--------------------------------*- C++ -*----------------------------------*\
  =========                 |
  \\      /  F ield         | OpenFOAM: The Open Source CFD Toolbox
   \\    /   O peration     | Website:  https://openfoam.org
    \\  /    A nd           | Version:  8
     \\/     M anipulation  |
\*---------------------------------------------------------------------------*/
FoamFile
{
    version     2.0;
    format      ascii;
    class       volScalarField;
    location    "400";
    object      T;
}
// * * * * * * * * * * * * * * * * * * * * * * * * * * * * * * * * * * * * * //

dimensions      [0 0 0 1 0 0 0];

internalField   nonuniform List<scalar> 
1200
(
303.143
303.135
303.127
303.119
303.111
303.103
303.075
302.727
301.643
300.74
300.246
299.946
299.769
299.503
299.058
298.375
297.659
296.728
295.74
294.814
294.121
293.652
293.395
293.31
293.772
294.567
295.287
295.828
296.219
296.547
296.797
296.937
296.95
296.957
297.107
297.399
297.715
297.983
298.183
298.339
298.474
298.593
298.695
298.781
298.854
298.919
298.976
299.032
299.093
299.133
299.178
299.28
299.437
299.583
299.639
299.716
299.915
299.99
299.995
299.998
303.15
303.15
303.149
303.148
303.147
303.144
302.845
301.083
297.298
294.247
293.873
293.899
293.764
293.502
293.279
293.215
293.193
293.175
293.147
293.14
293.155
293.178
293.353
293.923
295.208
296.534
297.506
298.051
298.469
298.847
299.057
299.038
299.016
299.161
299.449
299.669
299.77
299.822
299.859
299.886
299.904
299.917
299.927
299.934
299.938
299.942
299.943
299.943
299.943
299.945
299.948
299.95
299.95
299.95
299.949
299.947
299.988
300.003
300.002
300.001
303.15
303.15
303.15
303.15
303.15
303.135
300.322
295.428
294.258
293.578
293.529
293.678
293.687
293.501
293.261
293.148
293.145
293.195
293.164
293.213
293.511
294.404
296.728
298.687
299.203
299.346
299.417
299.466
299.507
299.549
299.594
299.64
299.688
299.729
299.757
299.778
299.796
299.813
299.829
299.843
299.856
299.867
299.878
299.889
299.899
299.909
299.919
299.928
299.937
299.946
299.953
299.96
299.965
299.969
299.972
299.977
299.991
299.993
299.994
300
303.15
303.15
303.15
303.15
303.15
303.143
301.696
296.67
294.153
293.508
293.506
293.805
293.978
293.75
293.366
293.157
293.16
293.257
293.682
295.122
297.055
298.146
298.996
299.387
299.491
299.528
299.548
299.561
299.577
299.596
299.619
299.644
299.668
299.691
299.711
299.729
299.746
299.763
299.78
299.796
299.81
299.824
299.837
299.851
299.865
299.879
299.893
299.907
299.921
299.933
299.944
299.954
299.963
299.969
299.975
299.98
299.988
299.991
299.997
300
303.15
303.15
303.15
303.15
303.15
303.148
302.511
299.384
296.024
294.414
294.024
294.062
294.422
294.422
293.74
293.23
293.172
293.2
293.317
293.703
294.481
295.561
297.119
298.308
298.761
299.05
299.367
299.538
299.581
299.608
299.623
299.634
299.648
299.663
299.678
299.691
299.704
299.72
299.736
299.751
299.765
299.778
299.792
299.806
299.821
299.838
299.855
299.873
299.891
299.908
299.926
299.941
299.951
299.959
299.966
299.971
299.972
299.968
299.984
299.997
303.15
303.15
303.15
303.15
303.15
303.149
302.933
301.332
298.588
296.693
295.851
295.555
295.548
295.604
295.549
294.776
293.753
293.277
293.18
293.246
293.413
293.71
294.406
296.409
297.533
297.739
297.901
298.108
298.013
297.925
298.368
299.033
299.544
299.657
299.665
299.675
299.676
299.685
299.697
299.708
299.718
299.729
299.741
299.752
299.764
299.779
299.799
299.825
299.85
299.861
299.889
299.926
299.943
299.95
299.956
299.959
299.951
299.873
299.605
299.664
303.15
303.15
303.15
303.15
303.15
303.15
303.085
302.446
300.842
299.384
298.56
298.213
298.119
298.141
298.155
297.819
297.206
296.587
295.74
294.667
294.012
293.829
293.87
294.404
295.692
296.413
296.724
296.878
296.704
296.267
296.137
296.388
296.95
297.582
298.014
298.196
298.528
299.002
299.407
299.498
299.561
299.613
299.648
299.671
299.686
299.697
299.708
299.722
299.746
299.767
299.782
299.819
299.883
299.923
299.943
299.948
299.935
299.881
299.805
299.768
303.15
303.15
303.15
303.15
303.15
303.15
303.133
302.926
302.25
301.477
300.94
300.657
300.503
300.496
300.438
299.975
299.501
299.143
298.625
297.857
297.308
297.058
296.822
296.419
296.064
295.915
295.938
296.001
295.92
295.655
295.398
295.269
295.316
295.501
295.695
295.848
296.128
296.618
297.195
297.726
298.233
298.683
298.957
299.121
299.229
299.304
299.359
299.4
299.437
299.469
299.5
299.551
299.637
299.745
299.84
299.896
299.908
299.895
299.88
299.865
303.15
303.15
303.149
303.149
303.149
303.149
303.145
303.092
302.882
302.595
302.374
302.26
302.234
302.23
302.136
301.862
301.593
301.359
301.047
300.632
300.349
300.202
300.038
299.746
299.342
298.83
298.188
297.521
296.936
296.45
296.068
295.776
295.56
295.421
295.338
295.288
295.294
295.401
295.602
295.884
296.26
296.668
297.041
297.354
297.609
297.81
297.969
298.1
298.204
298.279
298.355
298.481
298.66
298.912
299.209
299.455
299.573
299.607
299.617
299.621
303.143
303.135
303.127
303.119
303.113
303.108
303.105
303.097
303.06
303
302.948
302.918
302.905
302.898
302.874
302.79
302.686
302.589
302.486
302.377
302.292
302.229
302.168
302.072
301.914
301.674
301.367
301.011
300.605
300.202
299.867
299.611
299.409
299.233
299.057
298.843
298.534
298.143
297.797
297.533
297.344
297.237
297.191
297.184
297.197
297.215
297.232
297.243
297.246
297.239
297.238
297.268
297.348
297.52
297.805
298.116
298.299
298.359
298.369
298.367
303.143
303.135
303.127
303.119
303.111
303.103
303.079
302.744
301.669
300.781
300.283
299.964
299.778
299.503
299.059
298.385
297.679
296.791
295.793
294.86
294.156
293.674
293.408
293.318
293.755
294.533
295.251
295.794
296.193
296.524
296.847
297.028
297.051
297.002
297.067
297.288
297.59
297.889
298.123
298.302
298.448
298.57
298.667
298.739
298.795
298.854
298.911
298.968
299.032
299.083
299.137
299.217
299.374
299.558
299.63
299.698
299.893
299.989
299.995
299.998
303.15
303.15
303.149
303.148
303.146
303.143
302.917
301.151
297.382
294.276
293.88
293.911
293.768
293.503
293.28
293.217
293.195
293.181
293.149
293.141
293.156
293.181
293.37
293.951
295.218
296.534
297.534
298.064
298.508
298.883
299.036
299.06
299.074
299.189
299.432
299.654
299.764
299.82
299.86
299.886
299.905
299.918
299.927
299.933
299.935
299.932
299.928
299.924
299.923
299.924
299.932
299.943
299.949
299.948
299.947
299.942
299.983
300.003
300.003
300.001
303.15
303.15
303.15
303.15
303.15
303.139
300.506
295.529
294.291
293.591
293.534
293.684
293.681
293.497
293.259
293.147
293.145
293.192
293.167
293.215
293.525
294.474
296.844
298.734
299.224
299.365
299.432
299.478
299.517
299.556
299.594
299.653
299.698
299.736
299.763
299.782
299.801
299.818
299.833
299.847
299.86
299.871
299.882
299.893
299.903
299.912
299.922
299.931
299.939
299.947
299.954
299.961
299.966
299.97
299.973
299.977
299.991
299.995
299.995
300
303.15
303.15
303.15
303.15
303.15
303.145
301.806
296.796
294.196
293.52
293.506
293.807
293.975
293.745
293.362
293.156
293.159
293.251
293.66
295.069
297.014
298.119
298.956
299.373
299.491
299.535
299.555
299.567
299.582
299.602
299.625
299.651
299.675
299.697
299.717
299.735
299.752
299.77
299.786
299.802
299.816
299.83
299.844
299.857
299.871
299.885
299.899
299.913
299.925
299.937
299.948
299.957
299.965
299.971
299.976
299.982
299.989
299.993
299.997
300
303.15
303.15
303.15
303.15
303.15
303.148
302.565
299.488
296.091
294.441
294.033
294.064
294.429
294.42
293.732
293.225
293.169
293.197
293.31
293.678
294.429
295.49
297.057
298.268
298.722
299.005
299.338
299.529
299.578
299.608
299.627
299.64
299.654
299.669
299.684
299.698
299.712
299.727
299.743
299.758
299.772
299.786
299.8
299.814
299.83
299.846
299.863
299.881
299.898
299.915
299.931
299.945
299.955
299.962
299.969
299.974
299.976
299.973
299.974
299.998
303.15
303.15
303.15
303.15
303.15
303.149
302.953
301.399
298.651
296.723
295.852
295.539
295.534
295.613
295.543
294.75
293.731
293.268
293.179
293.243
293.404
293.693
294.379
296.379
297.504
297.706
297.858
298.052
297.939
297.819
298.259
298.949
299.517
299.662
299.671
299.68
299.684
299.692
299.704
299.716
299.726
299.737
299.749
299.761
299.774
299.789
299.81
299.835
299.859
299.871
299.897
299.931
299.947
299.954
299.959
299.963
299.959
299.894
299.639
299.683
303.15
303.15
303.15
303.15
303.15
303.15
303.088
302.476
300.884
299.402
298.541
298.168
298.06
298.068
298.063
297.697
297.105
296.53
295.701
294.638
293.995
293.824
293.87
294.399
295.693
296.405
296.706
296.843
296.645
296.183
296.035
296.271
296.822
297.455
297.869
298.054
298.411
298.901
299.431
299.544
299.59
299.631
299.662
299.683
299.697
299.708
299.72
299.734
299.759
299.781
299.795
299.828
299.886
299.92
299.946
299.953
299.944
299.895
299.817
299.778
303.15
303.15
303.15
303.15
303.15
303.15
303.132
302.927
302.262
301.479
300.909
300.592
300.452
300.518
300.448
299.977
299.542
299.178
298.638
297.849
297.306
297.064
296.823
296.406
296.041
295.895
295.922
295.98
295.886
295.609
295.347
295.21
295.24
295.4
295.569
295.711
295.989
296.467
297.063
297.634
298.173
298.666
298.989
299.168
299.273
299.341
299.39
299.427
299.462
299.493
299.521
299.567
299.65
299.742
299.835
299.896
299.913
299.903
299.888
299.873
303.15
303.15
303.149
303.149
303.149
303.149
303.145
303.091
302.878
302.588
302.367
302.26
302.245
302.242
302.14
301.877
301.638
301.408
301.086
300.656
300.372
300.227
300.054
299.75
299.339
298.817
298.151
297.471
296.886
296.408
296.034
295.748
295.534
295.39
295.298
295.24
295.235
295.324
295.518
295.814
296.206
296.627
297.009
297.331
297.591
297.798
297.962
298.098
298.203
298.275
298.35
298.479
298.656
298.902
299.199
299.447
299.571
299.609
299.619
299.622
303.143
303.135
303.127
303.119
303.113
303.108
303.105
303.097
303.059
302.998
302.947
302.919
302.909
302.904
302.88
302.803
302.713
302.622
302.513
302.385
302.294
302.229
302.163
302.055
301.886
301.653
301.372
301.041
300.668
300.31
300.026
299.83
299.692
299.553
299.371
299.098
298.694
298.216
297.807
297.508
297.31
297.206
297.167
297.166
297.18
297.198
297.211
297.217
297.213
297.201
297.197
297.227
297.312
297.495
297.791
298.104
298.29
298.348
298.355
298.349
)
;

boundaryField
{
    wall
    {
        type            zeroGradient;
    }
    inlet
    {
        type            fixedValue;
        value           uniform 303.15;
    }
    outlet
    {
        type            inletOutlet;
        inletValue      uniform 300;
        value           nonuniform List<scalar> 
20
(
300
300
300
300
300
299.671
299.765
299.862
299.617
298.355
300
300
300
300
300
299.711
299.776
299.87
299.618
298.338
)
;
    }
    heatWall
    {
        type            fixedGradient;
        gradient        uniform -500;
    }
}


// ************************************************************************* //
