/*--------------------------------*- C++ -*----------------------------------*\
  =========                 |
  \\      /  F ield         | OpenFOAM: The Open Source CFD Toolbox
   \\    /   O peration     | Website:  https://openfoam.org
    \\  /    A nd           | Version:  8
     \\/     M anipulation  |
\*---------------------------------------------------------------------------*/
FoamFile
{
    version     2.0;
    format      ascii;
    class       volScalarField;
    location    "100";
    object      epsilon;
}
// * * * * * * * * * * * * * * * * * * * * * * * * * * * * * * * * * * * * * //

dimensions      [0 2 -3 0 0 0 0];

internalField   nonuniform List<scalar> 
8400
(
0.273721
0.270822
0.267943
0.265063
0.262166
0.259239
0.256271
0.253256
0.25019
0.247074
0.243909
0.240701
0.237452
0.234168
0.230855
0.227514
0.224151
0.22077
0.217373
0.213961
0.210539
0.207106
0.203665
0.200216
0.19676
0.193299
0.189833
0.186364
0.182894
0.179422
0.175951
0.172484
0.169022
0.165569
0.162129
0.158703
0.155297
0.151914
0.148559
0.145237
0.141954
0.138717
0.135532
0.132408
0.129355
0.126386
0.123516
0.120769
0.118171
0.115759
0.0132977
0.0133315
0.0133642
0.0133956
0.0134256
0.0134542
0.0134814
0.0135073
0.0135318
0.0135549
0.0135768
0.0135975
0.0136173
0.013636
0.0136541
0.0136717
0.0136888
0.0137057
0.0137225
0.0137394
0.0137565
0.0137741
0.0137924
0.0138114
0.0138313
0.0138522
0.0138742
0.0138973
0.0139218
0.0139474
0.0139742
0.0140023
0.0140316
0.014062
0.0140934
0.0141256
0.0141586
0.0141922
0.0142262
0.0142603
0.0142945
0.0143285
0.014362
0.014395
0.0144274
0.0144589
0.0144894
0.014519
0.0145476
0.0145752
0.0128449
0.0128515
0.0128552
0.0128568
0.012857
0.0128566
0.0128562
0.0128559
0.0128558
0.0128562
0.0128568
0.0128575
0.0128584
0.0128592
0.01286
0.0128605
0.0128608
0.012861
0.0128611
0.0128612
0.0128615
0.0128623
0.0128635
0.0128654
0.0128683
0.0128724
0.0128781
0.0128854
0.0128947
0.0129062
0.0129201
0.0129366
0.012956
0.0129784
0.0130038
0.0130325
0.0130646
0.0130999
0.0131385
0.0131804
0.0132252
0.0132728
0.0133228
0.0133747
0.0134278
0.0134811
0.0135334
0.0135829
0.0136274
0.0136638
0.0182826
0.0182706
0.018251
0.0182266
0.0181998
0.0181721
0.0181448
0.0181186
0.0180937
0.0180705
0.0180486
0.018028
0.0180084
0.0179894
0.017971
0.017953
0.0179354
0.0179182
0.0179014
0.0178852
0.0178699
0.0178561
0.0178439
0.0178338
0.0178263
0.0178217
0.0178208
0.0178239
0.0178315
0.0178441
0.0178622
0.0178863
0.0179167
0.0179538
0.0179979
0.0180493
0.018108
0.0181742
0.0182477
0.0183285
0.0184161
0.01851
0.0186096
0.0187139
0.0188215
0.0189303
0.0190381
0.0191417
0.0192368
0.0193181
0.0266013
0.0266344
0.0266558
0.0266685
0.0266755
0.0266792
0.0266813
0.0266831
0.0266852
0.0266877
0.0266905
0.0266933
0.0266958
0.0266981
0.0266993
0.0266994
0.0266984
0.0266965
0.0266941
0.0266913
0.0266888
0.0266869
0.0266862
0.0266877
0.0266921
0.0267001
0.0267126
0.0267307
0.0267552
0.0267869
0.0268268
0.0268756
0.0269341
0.0270029
0.0270827
0.0271739
0.0272767
0.0273914
0.027518
0.0276563
0.0278059
0.0279662
0.0281361
0.0283141
0.0284986
0.0286867
0.0288751
0.0290594
0.0292344
0.0293933
0.0349406
0.0351582
0.0353579
0.0355424
0.0357143
0.0358763
0.03603
0.0361769
0.0363184
0.0364544
0.0365854
0.0367121
0.0368333
0.0369494
0.0370602
0.0371659
0.0372661
0.0373613
0.0374523
0.037539
0.0376221
0.0377026
0.0377812
0.0378588
0.0379365
0.0380155
0.038097
0.038182
0.0382719
0.0383681
0.0384716
0.0385836
0.0387051
0.0388373
0.038981
0.0391368
0.0393054
0.0394871
0.0396822
0.0398907
0.0401124
0.0403464
0.0405919
0.0408476
0.0411117
0.0413814
0.0416539
0.0419255
0.0421912
0.0424451
0.0391892
0.0397479
0.0402887
0.0408077
0.0413039
0.0417777
0.0422305
0.0426639
0.04308
0.0434801
0.043865
0.0442358
0.0445935
0.0449385
0.0452706
0.045591
0.0458997
0.0461974
0.0464843
0.0467607
0.047027
0.0472844
0.0475334
0.0477743
0.0480084
0.048237
0.048461
0.0486813
0.0488994
0.0491167
0.0493342
0.0495529
0.0497741
0.049999
0.0502286
0.0504633
0.0507042
0.0509521
0.0512074
0.0514701
0.0517403
0.0520177
0.0523023
0.0525934
0.05289
0.053191
0.0534945
0.0537996
0.0541039
0.0544051
0.0362872
0.0372316
0.0381741
0.0390971
0.0399909
0.0408516
0.0416783
0.0424727
0.0432366
0.0439728
0.0446843
0.0453724
0.0460395
0.0466863
0.0473143
0.0479236
0.0485143
0.0490867
0.0496418
0.0501789
0.050698
0.051199
0.0516819
0.0521471
0.0525954
0.0530266
0.053441
0.0538393
0.0542226
0.0545915
0.0549463
0.0552878
0.0556173
0.0559357
0.0562431
0.0565401
0.0568282
0.0571079
0.0573793
0.0576427
0.0578994
0.0581497
0.0583936
0.0586319
0.0588658
0.0590948
0.0593206
0.0595445
0.0597679
0.0599935
0.0270262
0.0281011
0.0292105
0.0303237
0.0314231
0.0324998
0.0335501
0.0345746
0.0355751
0.036554
0.0375138
0.0384563
0.0393834
0.0402958
0.0411932
0.0420764
0.0429437
0.0437932
0.0446237
0.0454331
0.0462195
0.046981
0.0477155
0.0484214
0.0490972
0.0497415
0.0503532
0.0509322
0.051478
0.0519901
0.0524683
0.0529139
0.0533274
0.0537084
0.0540576
0.0543765
0.0546658
0.0549256
0.0551566
0.0553605
0.0555381
0.05569
0.0558186
0.0559248
0.0560114
0.0560787
0.0561307
0.0561717
0.0562031
0.05623
0.0168642
0.0175668
0.0183322
0.0191331
0.0199532
0.0207836
0.0216206
0.0224635
0.0233135
0.0241729
0.0250436
0.0259275
0.0268257
0.0277389
0.0286665
0.0296074
0.0305589
0.0315182
0.0324822
0.033446
0.0344041
0.0353517
0.0362833
0.0371932
0.0380757
0.0389256
0.0397382
0.0405094
0.0412351
0.0419124
0.0425397
0.0431155
0.0436383
0.0441077
0.0445245
0.0448893
0.0452023
0.045465
0.045679
0.0458463
0.0459693
0.0460496
0.046089
0.0460918
0.0460595
0.0459962
0.0459038
0.0457872
0.0456499
0.0454953
0.0115006
0.0115924
0.0117431
0.0119427
0.0121816
0.0124521
0.0127501
0.0130736
0.0134224
0.0137974
0.0141998
0.0146316
0.0150948
0.0155911
0.0161225
0.0166905
0.0172955
0.0179371
0.018615
0.019328
0.0200731
0.020847
0.0216458
0.0224643
0.0232966
0.0241363
0.0249764
0.0258097
0.0266287
0.0274268
0.0281972
0.028933
0.0296287
0.0302797
0.0308817
0.0314307
0.0319244
0.0323613
0.032741
0.0330632
0.0333288
0.0335403
0.0336988
0.0338077
0.0338686
0.0338853
0.0338609
0.0337961
0.0336925
0.0335535
0.0113512
0.011057
0.0108103
0.0106136
0.0104634
0.010352
0.0102709
0.010214
0.0101764
0.0101559
0.0101508
0.0101606
0.0101848
0.010224
0.0102791
0.0103519
0.0104441
0.0105569
0.0106924
0.0108527
0.011039
0.0112532
0.0114969
0.0117709
0.0120757
0.012411
0.0127765
0.0131713
0.0135938
0.0140415
0.0145117
0.0150013
0.0155069
0.0160242
0.0165487
0.0170756
0.0176
0.0181179
0.0186257
0.0191187
0.0195962
0.0200545
0.0204935
0.0209118
0.0213095
0.0216846
0.0220364
0.0223612
0.0226557
0.022912
0.0126325
0.0123725
0.0121291
0.0118974
0.0116832
0.0114966
0.0113351
0.0111939
0.0110727
0.0109629
0.0108621
0.0107672
0.0106772
0.0105914
0.0105073
0.0104237
0.0103401
0.010255
0.0101689
0.010083
0.00999583
0.00990767
0.00982061
0.00973537
0.00965137
0.0095689
0.00949033
0.00941772
0.00935075
0.00928918
0.00923476
0.00918964
0.00915503
0.00913168
0.0091207
0.0091239
0.00914162
0.00917563
0.00922681
0.00929607
0.00938564
0.00949832
0.00963439
0.00979999
0.0100002
0.0102397
0.0105213
0.0108473
0.0112217
0.0116401
0.0130598
0.0129275
0.0128008
0.0126778
0.0125574
0.0124387
0.0123234
0.012212
0.0121043
0.012001
0.0119023
0.0118081
0.0117183
0.0116326
0.0115506
0.0114716
0.0113953
0.0113212
0.0112483
0.0111762
0.0111044
0.0110327
0.0109612
0.0108896
0.0108172
0.0107436
0.0106696
0.0105955
0.0105209
0.0104451
0.010369
0.0102933
0.010217
0.0101403
0.0100643
0.00998871
0.00991249
0.00983821
0.00976493
0.00969336
0.00962237
0.00955244
0.00948377
0.00941894
0.00935352
0.00929095
0.00922925
0.00916539
0.00910053
0.00902826
0.0131085
0.0130378
0.0129673
0.012897
0.0128264
0.0127563
0.0126867
0.0126183
0.0125505
0.0124833
0.0124172
0.0123518
0.0122872
0.0122237
0.0121612
0.0120995
0.0120384
0.0119778
0.0119177
0.0118579
0.0117982
0.0117386
0.0116792
0.0116198
0.0115602
0.0115004
0.0114407
0.0113808
0.0113208
0.0112606
0.0112004
0.0111401
0.0110796
0.011019
0.0109583
0.0108974
0.0108369
0.0107763
0.010716
0.010656
0.0105963
0.0105372
0.0104782
0.01042
0.010362
0.0103038
0.0102456
0.0101863
0.010125
0.0100596
0.0131275
0.013081
0.0130345
0.0129882
0.0129419
0.0128958
0.0128497
0.0128035
0.0127574
0.0127114
0.0126656
0.0126197
0.0125739
0.0125283
0.0124826
0.0124368
0.0123912
0.0123455
0.0122998
0.0122541
0.0122083
0.0121624
0.0121164
0.0120702
0.0120239
0.0119774
0.0119309
0.0118842
0.0118373
0.0117904
0.0117433
0.0116961
0.0116488
0.0116014
0.0115541
0.0115066
0.0114592
0.0114118
0.0113645
0.0113171
0.0112698
0.0112225
0.0111754
0.0111283
0.0110812
0.0110343
0.0109866
0.0109382
0.0108882
0.0108358
0.013142
0.0131109
0.0130794
0.0130473
0.0130147
0.0129817
0.0129485
0.012915
0.0128811
0.012847
0.0128127
0.0127782
0.0127436
0.0127089
0.0126741
0.0126391
0.012604
0.0125689
0.0125336
0.0124983
0.0124628
0.0124273
0.0123918
0.0123561
0.0123203
0.0122846
0.0122488
0.0122129
0.012177
0.0121411
0.0121052
0.0120693
0.0120333
0.0119972
0.0119612
0.0119252
0.0118892
0.0118532
0.0118172
0.0117813
0.0117453
0.0117094
0.0116734
0.0116374
0.0116013
0.0115646
0.0115276
0.0114893
0.0114493
0.0114065
0.0131444
0.0131171
0.01309
0.0130633
0.013037
0.0130108
0.0129849
0.0129591
0.0129335
0.0129081
0.0128829
0.012858
0.0128332
0.0128085
0.0127842
0.01276
0.012736
0.0127123
0.0126888
0.0126654
0.0126422
0.0126192
0.0125963
0.0125735
0.0125508
0.0125282
0.0125057
0.0124832
0.0124607
0.0124383
0.0124158
0.0123933
0.0123708
0.0123482
0.0123256
0.012303
0.0122802
0.0122573
0.0122343
0.0122112
0.012188
0.0121646
0.0121408
0.0121167
0.012092
0.0120664
0.0120396
0.012011
0.0119798
0.0119475
0.0131557
0.0131459
0.0131365
0.0131283
0.0131211
0.0131146
0.0131086
0.0131031
0.0130981
0.0130937
0.01309
0.0130872
0.0130852
0.0130841
0.013084
0.0130848
0.0130865
0.013089
0.0130923
0.0130962
0.0131008
0.0131057
0.0131111
0.0131166
0.0131223
0.0131279
0.0131334
0.0131387
0.0131437
0.0131484
0.0131526
0.0131561
0.0131592
0.0131615
0.0131633
0.0131643
0.0131646
0.0131641
0.0131628
0.0131604
0.0131566
0.0131511
0.0131428
0.0131301
0.0131101
0.0130865
0.0130625
0.0130382
0.0130136
0.0129866
0.0136826
0.0142293
0.0147961
0.0153832
0.0159916
0.0166223
0.0172759
0.0179532
0.018655
0.0193821
0.0201354
0.0209157
0.0217239
0.022561
0.0234278
0.0243254
0.0252549
0.0262171
0.0272132
0.0282443
0.0293116
0.0304161
0.0315591
0.0327418
0.0339655
0.0352316
0.0365413
0.037896
0.0392973
0.0407464
0.0422448
0.0437943
0.0453965
0.0470527
0.0487648
0.0505345
0.0523636
0.0542539
0.0562071
0.0582257
0.0603111
0.0624654
0.0646909
0.0669897
0.0693643
0.071802
0.074284
0.0767847
0.0792518
0.0815812
1.14672
1.10489
1.06577
1.02911
0.99459
0.961949
0.930922
0.901393
0.873265
0.846452
0.820878
0.79647
0.773163
0.750896
0.729611
0.709254
0.689775
0.671125
0.653261
0.636139
0.619721
0.60397
0.588855
0.574344
0.560411
0.54703
0.534174
0.521819
0.50994
0.498514
0.487518
0.47693
0.46673
0.456902
0.44743
0.4383
0.4295
0.421018
0.412845
0.40494
0.397268
0.389813
0.382557
0.375479
0.368558
0.361765
0.355063
0.348392
0.341643
0.334609
1.12227
1.04696
0.978246
0.915341
0.857744
0.804973
0.756622
0.712236
0.671415
0.633803
0.599087
0.566987
0.537257
0.509676
0.484051
0.460204
0.437981
0.417239
0.397855
0.379714
0.362716
0.346772
0.331802
0.317731
0.304495
0.29203
0.28028
0.26919
0.258712
0.248799
0.23941
0.230507
0.222056
0.214026
0.206388
0.199115
0.192182
0.185566
0.179243
0.173215
0.167473
0.162
0.156778
0.151791
0.147024
0.142463
0.138094
0.133907
0.129888
0.12602
1.12216
1.04661
0.977449
0.914174
0.856206
0.803031
0.754178
0.70922
0.667778
0.629515
0.594129
0.561354
0.530954
0.502715
0.476448
0.451982
0.429164
0.407857
0.387936
0.369289
0.351817
0.33543
0.320046
0.305592
0.292
0.279208
0.267158
0.255796
0.245073
0.234943
0.225365
0.216299
0.207713
0.199575
0.191859
0.184539
0.177592
0.170996
0.164729
0.158772
0.153106
0.147714
0.14258
0.13769
0.13303
0.128588
0.12435
0.120305
0.116445
0.112772
1.12217
1.04714
0.978571
0.915813
0.858266
0.805402
0.756758
0.711924
0.670537
0.632275
0.596851
0.564008
0.533517
0.505173
0.478791
0.454203
0.43126
0.409826
0.389779
0.371007
0.353414
0.336908
0.32141
0.306845
0.293148
0.280254
0.268107
0.256652
0.245841
0.235627
0.22597
0.216831
0.208176
0.199975
0.1922
0.184824
0.177824
0.171177
0.164863
0.158861
0.153152
0.14772
0.142548
0.137621
0.132928
0.128456
0.124194
0.120127
0.116243
0.112537
1.12217
1.04716
0.978558
0.915728
0.858092
0.805138
0.756415
0.711519
0.670089
0.631801
0.596367
0.563528
0.533052
0.50473
0.478375
0.45382
0.430911
0.409512
0.3895
0.370764
0.353205
0.336733
0.321267
0.306733
0.293064
0.280196
0.268072
0.256638
0.245845
0.235648
0.226006
0.216881
0.208239
0.20005
0.192284
0.184918
0.177926
0.171286
0.164977
0.15898
0.153275
0.147845
0.142673
0.137745
0.133047
0.128568
0.124297
0.120224
0.116334
0.112618
1.12217
1.0472
0.978681
0.915949
0.858421
0.805575
0.756952
0.712144
0.670787
0.632558
0.597168
0.56436
0.533903
0.50559
0.479236
0.454675
0.431754
0.410339
0.390307
0.37155
0.353967
0.33747
0.321979
0.30742
0.293724
0.28083
0.268679
0.257218
0.246399
0.236175
0.226508
0.217358
0.208693
0.20048
0.192693
0.185306
0.178293
0.171633
0.165305
0.159287
0.153562
0.148113
0.142922
0.137975
0.133258
0.128757
0.124464
0.120366
0.116453
0.112712
1.12217
1.04721
0.978707
0.915988
0.858459
0.805604
0.756963
0.712131
0.670748
0.632492
0.597076
0.564245
0.533767
0.505438
0.47907
0.454498
0.43157
0.410151
0.390117
0.37136
0.353781
0.337289
0.321804
0.30725
0.293561
0.280673
0.268529
0.257074
0.246261
0.236044
0.226383
0.21724
0.208582
0.200376
0.192596
0.185214
0.178207
0.171552
0.165227
0.159213
0.153491
0.148042
0.142851
0.137903
0.133186
0.128685
0.124388
0.120285
0.116366
0.112618
1.12217
1.04722
0.978728
0.916027
0.85852
0.805687
0.75707
0.712262
0.670902
0.632667
0.597271
0.564456
0.533993
0.505676
0.479318
0.454752
0.431829
0.410412
0.39038
0.371623
0.354043
0.337549
0.32206
0.307503
0.293808
0.280913
0.26876
0.257297
0.246474
0.236248
0.226578
0.217426
0.208759
0.200544
0.192755
0.185363
0.178346
0.171681
0.165345
0.15932
0.153586
0.148125
0.142921
0.13796
0.133228
0.128713
0.124402
0.120284
0.116348
0.112584
1.12217
1.04722
0.978738
0.916044
0.858544
0.805717
0.757101
0.712292
0.670928
0.632687
0.597282
0.564458
0.533984
0.505656
0.479287
0.454711
0.431778
0.410354
0.390316
0.371554
0.35397
0.337474
0.321984
0.307425
0.293729
0.280833
0.268679
0.257215
0.246392
0.236166
0.226497
0.217347
0.208681
0.200468
0.192679
0.185288
0.178272
0.171606
0.165269
0.159242
0.153506
0.148042
0.142836
0.137871
0.133135
0.128615
0.124299
0.120174
0.116231
0.112459
1.12217
1.04722
0.978743
0.916055
0.858561
0.805739
0.757129
0.712325
0.670964
0.632727
0.597325
0.564503
0.534031
0.505703
0.479334
0.454759
0.431827
0.410403
0.390366
0.371606
0.354023
0.337528
0.322039
0.30748
0.293782
0.280884
0.268728
0.257261
0.246435
0.236207
0.226535
0.217383
0.208714
0.200498
0.192706
0.185312
0.17829
0.171619
0.165276
0.159243
0.153499
0.148028
0.142814
0.137841
0.133096
0.128567
0.124241
0.120106
0.116152
0.112368
1.12217
1.04722
0.978745
0.916059
0.858567
0.805747
0.75714
0.712337
0.670976
0.632738
0.597335
0.56451
0.534034
0.505703
0.479331
0.454752
0.431818
0.410393
0.390355
0.371595
0.354013
0.337518
0.322029
0.307469
0.29377
0.28087
0.268712
0.257243
0.246416
0.236187
0.226514
0.21736
0.20869
0.200473
0.192679
0.185282
0.178258
0.171583
0.165236
0.159198
0.153449
0.147972
0.142751
0.137772
0.13302
0.128483
0.124149
0.120006
0.116043
0.112249
1.12217
1.04722
0.978743
0.916056
0.858564
0.805743
0.757133
0.712327
0.670963
0.63272
0.59731
0.564478
0.533995
0.505656
0.479277
0.454693
0.431754
0.410325
0.390286
0.371525
0.353942
0.337447
0.321957
0.307397
0.293697
0.280796
0.268637
0.257167
0.24634
0.23611
0.226438
0.217284
0.208616
0.200399
0.192606
0.185209
0.178183
0.171507
0.165159
0.159118
0.153366
0.147886
0.142661
0.137678
0.132921
0.12838
0.12404
0.119891
0.115921
0.112119
1.12217
1.04722
0.978737
0.916047
0.858551
0.80573
0.757122
0.712319
0.670959
0.63272
0.597315
0.564488
0.53401
0.505676
0.479302
0.454723
0.431789
0.410367
0.390332
0.371576
0.353997
0.337505
0.322016
0.307456
0.293755
0.280851
0.268689
0.257216
0.246384
0.236151
0.226475
0.217318
0.208645
0.200424
0.192626
0.185224
0.178194
0.171511
0.165156
0.159108
0.153348
0.147859
0.142625
0.137632
0.132867
0.128315
0.123965
0.119805
0.115823
0.112008
1.12217
1.04721
0.978719
0.916014
0.858502
0.805661
0.757032
0.712207
0.670824
0.632561
0.597134
0.564285
0.533788
0.505438
0.479051
0.454462
0.431522
0.410095
0.39006
0.371304
0.353728
0.337238
0.321753
0.307196
0.293499
0.280599
0.268441
0.256972
0.246146
0.235918
0.226248
0.217098
0.208432
0.200218
0.192427
0.185031
0.178006
0.171328
0.164977
0.158931
0.153174
0.147687
0.142454
0.137463
0.132697
0.128145
0.123794
0.119631
0.115645
0.111826
1.12217
1.0472
0.978695
0.915981
0.858472
0.805645
0.757036
0.712235
0.670878
0.63264
0.597235
0.564407
0.533926
0.50559
0.479213
0.454633
0.431698
0.410275
0.390241
0.371485
0.353906
0.337412
0.32192
0.307354
0.293647
0.280737
0.268567
0.257087
0.246249
0.23601
0.226329
0.217169
0.208494
0.200271
0.19247
0.185064
0.178029
0.171341
0.164979
0.158923
0.153154
0.147656
0.142413
0.137409
0.132632
0.128067
0.123703
0.119527
0.115527
0.111693
1.12217
1.04716
0.978574
0.915764
0.858151
0.805218
0.756511
0.711622
0.670191
0.631893
0.596442
0.56358
0.533078
0.50473
0.478353
0.453778
0.430855
0.409449
0.389436
0.370702
0.353148
0.336678
0.321211
0.306671
0.292988
0.280101
0.267954
0.256496
0.245681
0.235465
0.225806
0.216668
0.208013
0.19981
0.192029
0.184641
0.177623
0.17095
0.164602
0.158558
0.152802
0.147314
0.142081
0.137086
0.132317
0.127759
0.123401
0.119229
0.115232
0.1114
1.12217
1.04714
0.978588
0.915852
0.858331
0.80549
0.756863
0.712037
0.670647
0.632373
0.596929
0.564062
0.533544
0.505174
0.478767
0.454161
0.431204
0.409763
0.389714
0.370946
0.353356
0.336852
0.321352
0.306778
0.293064
0.280148
0.267974
0.256491
0.245653
0.235417
0.22574
0.216585
0.207916
0.1997
0.191907
0.184508
0.17748
0.170799
0.164443
0.158393
0.152631
0.14714
0.141904
0.136908
0.132139
0.127583
0.123229
0.119064
0.115079
0.111264
1.12216
1.04661
0.977466
0.914215
0.856275
0.803125
0.75429
0.709341
0.667896
0.629619
0.594213
0.561413
0.530986
0.502721
0.476431
0.451948
0.429118
0.407806
0.387885
0.369243
0.351777
0.335395
0.320011
0.30555
0.291944
0.279133
0.26706
0.255676
0.244933
0.234788
0.225201
0.216133
0.207548
0.199414
0.191701
0.184382
0.177431
0.170828
0.164551
0.158581
0.152901
0.147495
0.142349
0.13745
0.132785
0.128344
0.124119
0.120103
0.116296
0.112702
1.12227
1.04696
0.97826
0.915382
0.857815
0.805075
0.756747
0.712374
0.671553
0.633931
0.599195
0.56707
0.537314
0.509709
0.484064
0.460206
0.437979
0.417243
0.397872
0.379752
0.36278
0.346863
0.331916
0.317865
0.304643
0.292189
0.280451
0.269378
0.258928
0.249058
0.23973
0.230906
0.222553
0.214639
0.207137
0.200021
0.193269
0.186862
0.180781
0.175011
0.169539
0.164352
0.159442
0.1548
0.150422
0.146307
0.142461
0.1389
0.135664
0.132841
1.14672
1.10489
1.06578
1.02912
0.994619
0.961989
0.930972
0.901448
0.873319
0.8465
0.820914
0.79649
0.773165
0.750879
0.729575
0.7092
0.689703
0.671038
0.653159
0.636022
0.619587
0.603817
0.588677
0.574136
0.560165
0.546738
0.53383
0.521417
0.509476
0.497984
0.486917
0.476252
0.465969
0.456048
0.44647
0.437218
0.428276
0.419629
0.411263
0.403164
0.395317
0.38771
0.380328
0.373158
0.366185
0.359394
0.352768
0.346291
0.339939
0.333688
0.107708
0.0265662
0.0116958
0.00753808
0.00609695
0.00546462
0.00509419
0.00483607
0.00462248
0.00443561
0.0042658
0.00410365
0.00395619
0.00380407
0.00367386
0.00352126
0.00343419
0.00355201
0.00724881
0.0604607
0.109315
0.0251349
0.0107194
0.00702732
0.00583053
0.00533257
0.00503143
0.00481561
0.00462679
0.00445656
0.00429792
0.0041425
0.00400077
0.00384975
0.00372321
0.00356857
0.0034871
0.00361837
0.00748168
0.0618092
0.110742
0.0239235
0.00997096
0.00668513
0.005681
0.00528148
0.00502469
0.00483478
0.00465906
0.00449738
0.00434418
0.00419105
0.00405201
0.00390017
0.0037761
0.00361844
0.00354205
0.00368582
0.00770534
0.0630546
0.112001
0.0229064
0.0094003
0.00646586
0.00561135
0.00528319
0.00505342
0.00487858
0.0047086
0.00455059
0.0043993
0.00424598
0.00410801
0.00395421
0.00383182
0.00367052
0.00359879
0.00375398
0.00791966
0.0642071
0.113138
0.0220624
0.00896661
0.00633445
0.00559548
0.00531859
0.00510396
0.00493711
0.00476876
0.00461165
0.00446014
0.00430527
0.00416758
0.00401102
0.00388973
0.00372441
0.00365687
0.00382257
0.00812494
0.0652769
0.1142
0.0213583
0.00863914
0.00626599
0.00561534
0.00537492
0.00516763
0.0050048
0.00483556
0.00467758
0.00452478
0.00436772
0.00422974
0.0040699
0.00394961
0.00378
0.0037162
0.0038916
0.00832172
0.0662713
0.115185
0.0207769
0.00839474
0.00624235
0.00565885
0.00544423
0.0052392
0.00507813
0.00490647
0.00474675
0.00459222
0.00443247
0.00429391
0.00413065
0.00401105
0.0038369
0.0037766
0.00396118
0.00851063
0.0671958
0.116113
0.0202994
0.00821616
0.00625081
0.00571805
0.00552156
0.0053159
0.00515506
0.00498016
0.00481832
0.00466168
0.00449901
0.00435977
0.00419306
0.00407382
0.00389506
0.00383814
0.00403128
0.00869251
0.0680579
0.116986
0.0199132
0.00808982
0.00628268
0.00578791
0.00560429
0.00539601
0.00523458
0.00505599
0.00489169
0.0047328
0.00456729
0.00442727
0.00425689
0.00413788
0.00395459
0.00390065
0.00410189
0.00886829
0.0688639
0.117817
0.0196054
0.00800591
0.00633186
0.00586499
0.00569059
0.00547862
0.0053159
0.00513343
0.00496665
0.00480561
0.00463714
0.00449618
0.00432208
0.00420312
0.00401536
0.00396413
0.0041732
0.00903862
0.069616
0.11861
0.0193672
0.00795647
0.00639356
0.00594729
0.00577943
0.00556293
0.00539861
0.00521256
0.00504324
0.00487995
0.0047085
0.00456649
0.00438857
0.00426945
0.0040773
0.00402858
0.00424515
0.00920383
0.0703167
0.119367
0.0191905
0.00793471
0.00646478
0.00603361
0.00586995
0.0056487
0.00548268
0.00529314
0.00512129
0.00495579
0.00478127
0.00463793
0.00445617
0.00433682
0.00414044
0.00409391
0.00431754
0.00936427
0.0709705
0.1201
0.0190648
0.00793569
0.00654316
0.00612273
0.00596155
0.00573583
0.00556814
0.00537506
0.00520067
0.00503291
0.00485519
0.00471031
0.00452485
0.00440519
0.00420469
0.00415999
0.00439039
0.00952083
0.0715827
0.12081
0.0189828
0.00795533
0.00662698
0.00621394
0.00605445
0.00582426
0.00565466
0.00545816
0.00528125
0.00511107
0.00492998
0.00478369
0.00459472
0.00447456
0.00426998
0.00422685
0.00446393
0.00967446
0.0721569
0.121504
0.0189375
0.00799024
0.00671501
0.00630691
0.00614835
0.00591385
0.00574219
0.00554244
0.00536279
0.00519013
0.00500579
0.00485817
0.00466571
0.00454487
0.00433633
0.00429457
0.00453821
0.00982563
0.0726953
0.12218
0.0189237
0.00803803
0.00680645
0.00640166
0.00624336
0.00600459
0.00583082
0.00562774
0.00544524
0.00527015
0.00508277
0.00493366
0.00473771
0.00461607
0.00440373
0.00436307
0.0046131
0.00997465
0.0732003
0.122839
0.0189383
0.00809681
0.00690084
0.00649803
0.00633947
0.00609651
0.00592047
0.00571411
0.00552875
0.00535128
0.00516083
0.00501009
0.00481074
0.0046882
0.00447208
0.00443223
0.00468865
0.0101222
0.0736761
0.123489
0.0189765
0.00816458
0.00699779
0.00659592
0.00643655
0.00618954
0.00601111
0.00580155
0.00561338
0.0054335
0.0052399
0.0050875
0.00488484
0.00476118
0.0045413
0.00450212
0.00476507
0.0102692
0.0741265
0.124129
0.0190339
0.00824027
0.00709702
0.00669501
0.00653449
0.00628367
0.00610278
0.00589011
0.00569908
0.00551674
0.00532005
0.00516595
0.00495994
0.00483495
0.00461147
0.00457294
0.00484249
0.0104162
0.0745532
0.124758
0.0191086
0.00832274
0.00719795
0.00679522
0.00663335
0.00637895
0.00619551
0.00597978
0.00578582
0.00560106
0.00540132
0.00524539
0.00503599
0.0049096
0.00468278
0.00464476
0.00492091
0.0105634
0.074958
0.125379
0.0191984
0.00841078
0.00730036
0.00689668
0.00673324
0.00647533
0.00628923
0.00607052
0.00587363
0.00568647
0.00548363
0.00532575
0.00511306
0.00498529
0.00475526
0.00471753
0.0050003
0.0107115
0.0753429
0.125993
0.0193009
0.00850359
0.00740441
0.00699945
0.00683412
0.0065728
0.00638403
0.00616237
0.00596251
0.0057729
0.00556695
0.00540715
0.00519134
0.00506213
0.00482888
0.00479123
0.00508074
0.0108608
0.0757089
0.126604
0.0194145
0.0086009
0.0075101
0.0071035
0.00693607
0.00667151
0.00647999
0.00625537
0.00605246
0.00586041
0.00565146
0.00548978
0.0052709
0.00514006
0.0049036
0.0048659
0.00516229
0.0110118
0.0760556
0.127212
0.0195377
0.00870217
0.00761726
0.00720885
0.00703926
0.00677152
0.00657706
0.0063495
0.00614356
0.00594918
0.00573731
0.00557368
0.00535168
0.00521907
0.00497947
0.00494158
0.00524491
0.01116
0.076394
0.127819
0.0196688
0.00880691
0.0077259
0.0073156
0.00714369
0.0068727
0.00667519
0.00644479
0.00623592
0.00603926
0.00582444
0.00565874
0.00543364
0.00529919
0.00505647
0.00501824
0.00532862
0.0113039
0.0767315
0.128425
0.0198065
0.00891483
0.00783603
0.00742366
0.00724912
0.00697491
0.0067744
0.00654129
0.00632952
0.00613053
0.00591274
0.00574495
0.00551679
0.0053804
0.00513459
0.00509592
0.0054136
0.0114439
0.0770731
0.129027
0.0199506
0.00902555
0.00794749
0.00753281
0.00735549
0.00707823
0.00687474
0.00663896
0.00642427
0.00622298
0.00600225
0.00583235
0.00560114
0.00546271
0.0052139
0.00517475
0.00549986
0.0115815
0.0774191
0.129628
0.0201001
0.00913863
0.00806016
0.00764307
0.00746298
0.00718278
0.00697624
0.00673784
0.00652029
0.00631672
0.00609304
0.00592093
0.00568667
0.00554618
0.0052945
0.00525487
0.0055872
0.0117178
0.0777685
0.130231
0.0202534
0.00925388
0.00817416
0.00775472
0.00757177
0.00728862
0.00707903
0.00683816
0.00661775
0.00641182
0.00618509
0.0060107
0.00577346
0.0056309
0.00537641
0.00533622
0.00567539
0.0118528
0.0781212
0.130834
0.0204101
0.00937139
0.0082897
0.00786788
0.00768192
0.0073959
0.00718338
0.00694007
0.00671665
0.00650824
0.00627843
0.00610175
0.00586157
0.00571688
0.0054596
0.0054187
0.0057643
0.0119864
0.0784781
0.131437
0.0205703
0.00949115
0.0084068
0.00798252
0.00779352
0.00750483
0.00728938
0.00704349
0.00681693
0.00660601
0.00637316
0.00619416
0.005951
0.00580408
0.00554405
0.00550233
0.0058539
0.0121191
0.07884
0.132041
0.0207335
0.00961302
0.00852541
0.00809872
0.00790674
0.00761548
0.0073969
0.00714832
0.00691861
0.00670525
0.00646934
0.0062879
0.00604175
0.00589258
0.00562983
0.00558717
0.00594429
0.0122512
0.0792076
0.132645
0.0208994
0.00973694
0.00864563
0.00821659
0.00802164
0.0077277
0.00750582
0.00725463
0.00702187
0.00680601
0.00656691
0.00638298
0.00613392
0.00598248
0.00571702
0.00567328
0.00603558
0.0123834
0.0795816
0.133248
0.0210686
0.00986298
0.00876755
0.00833622
0.00813813
0.00784143
0.00761629
0.00736261
0.00712674
0.00690822
0.00666587
0.00647953
0.00622768
0.00607391
0.00580566
0.00576076
0.00612797
0.0125165
0.079962
0.133853
0.0212411
0.0099911
0.00889124
0.00845759
0.00825623
0.00795684
0.00772853
0.00747233
0.00723313
0.00701186
0.00676641
0.0065778
0.00632315
0.0061669
0.0058958
0.00584973
0.00622168
0.0126512
0.080348
0.134461
0.0214163
0.0101213
0.00901678
0.0085808
0.00837612
0.00807414
0.00784262
0.00758372
0.00734107
0.00711717
0.00686881
0.0066779
0.00642031
0.00626149
0.00598757
0.00594034
0.00631683
0.0127871
0.0807384
0.135072
0.0215939
0.0102537
0.00914431
0.00870597
0.00849797
0.00819344
0.00795853
0.0076968
0.00745078
0.00722443
0.00697318
0.00677979
0.00651914
0.00635773
0.00608105
0.00603262
0.00641333
0.0129239
0.0811337
0.135685
0.0217748
0.0103885
0.0092739
0.00883317
0.00862184
0.00831474
0.00807629
0.00781175
0.00756248
0.00733371
0.0070794
0.00688335
0.00661964
0.00645571
0.00617625
0.00612647
0.00651104
0.0130611
0.0815358
0.136304
0.0219587
0.0105255
0.00940548
0.00896244
0.00874779
0.00843803
0.00819596
0.0079287
0.00767621
0.00744489
0.00718734
0.00698857
0.00672187
0.00655543
0.00627312
0.00622187
0.00661006
0.0131995
0.0819463
0.13693
0.0221442
0.0106644
0.00953903
0.00909382
0.00887578
0.00856329
0.00831759
0.00804767
0.00779189
0.00755787
0.00729702
0.00709555
0.00682591
0.00665693
0.0063717
0.00631898
0.00671072
0.0133402
0.082365
0.137561
0.0223299
0.0108051
0.00967462
0.00922733
0.00900574
0.00869051
0.00844124
0.00816869
0.00790953
0.00767274
0.00740859
0.00720446
0.00693186
0.0067603
0.00647216
0.00641805
0.00681333
0.0134838
0.0827897
0.138193
0.0225161
0.0109479
0.00981234
0.00936289
0.00913765
0.0088198
0.00856703
0.00829185
0.00802923
0.00778964
0.00752221
0.00731541
0.00703984
0.0068657
0.00657468
0.00651918
0.00691789
0.0136298
0.0832189
0.138825
0.0227039
0.011093
0.00995215
0.0095005
0.00927167
0.00895133
0.00869506
0.00841718
0.00815104
0.00790866
0.00763796
0.0074285
0.00714992
0.00697322
0.0066793
0.00662227
0.00702421
0.0137773
0.0836525
0.139457
0.0228939
0.0112402
0.0100941
0.00964033
0.00940799
0.0090852
0.00882529
0.00854461
0.00827492
0.00802978
0.00775584
0.00754372
0.00726214
0.00708283
0.0067859
0.00672719
0.00713212
0.0139257
0.0840916
0.140093
0.023086
0.0113896
0.0102384
0.00978261
0.00954669
0.00922128
0.00895756
0.00867405
0.00840086
0.00815301
0.00787587
0.00766107
0.00737644
0.00719447
0.00689442
0.00683393
0.0072417
0.0140754
0.084537
0.140734
0.0232804
0.0115414
0.0103852
0.00992742
0.00968767
0.00935945
0.00909184
0.00880557
0.00852896
0.00827841
0.00799805
0.00778054
0.00749285
0.00730816
0.00700494
0.00694262
0.00735311
0.0142268
0.0849892
0.14138
0.0234776
0.0116959
0.0105347
0.0100747
0.00983089
0.00949982
0.00922838
0.00893943
0.00865939
0.00840611
0.0081225
0.00790226
0.00761147
0.00742404
0.00711762
0.00705343
0.00746656
0.0143803
0.0854486
0.142033
0.0236777
0.011853
0.0106868
0.0102245
0.00997655
0.00964272
0.00936751
0.00907588
0.00879234
0.00853628
0.0082494
0.00802642
0.00773252
0.0075423
0.00723261
0.00716651
0.0075822
0.0145364
0.0859161
0.142694
0.0238803
0.0120127
0.0108416
0.010377
0.010125
0.0097885
0.00950947
0.00921512
0.00892802
0.00866914
0.00837899
0.00815324
0.00785617
0.00766307
0.00735004
0.00728198
0.00770022
0.0146954
0.086392
0.143363
0.0240853
0.0121752
0.0109993
0.0105325
0.0102765
0.00993728
0.00965439
0.00935728
0.00906659
0.00880487
0.00851142
0.00828282
0.00798249
0.00778643
0.00747003
0.0074