/*--------------------------------*- C++ -*----------------------------------*\
  =========                 |
  \\      /  F ield         | OpenFOAM: The Open Source CFD Toolbox
   \\    /   O peration     | Website:  https://openfoam.org
    \\  /    A nd           | Version:  8
     \\/     M anipulation  |
\*---------------------------------------------------------------------------*/
FoamFile
{
    version     2.0;
    format      ascii;
    class       volScalarField;
    location    "100";
    object      k;
}
// * * * * * * * * * * * * * * * * * * * * * * * * * * * * * * * * * * * * * //

dimensions      [0 2 -2 0 0 0 0];

internalField   nonuniform List<scalar> 
8400
(
0.0230047
0.022841
0.0226777
0.0225133
0.0223471
0.0221784
0.0220065
0.021831
0.0216517
0.0214686
0.0212819
0.0210917
0.0208983
0.020702
0.0205029
0.0203013
0.0200974
0.0198916
0.0196837
0.0194739
0.0192624
0.0190492
0.0188343
0.0186178
0.0183996
0.0181799
0.0179587
0.0177359
0.0175117
0.0172861
0.0170593
0.0168312
0.0166022
0.0163722
0.0161416
0.0159106
0.0156793
0.0154481
0.0152172
0.0149871
0.0147582
0.0145309
0.0143057
0.0140833
0.0138645
0.0136502
0.0134418
0.0132408
0.0130497
0.0128713
0.00303549
0.00303989
0.0030441
0.00304813
0.00305197
0.00305562
0.00305908
0.00306236
0.00306546
0.0030684
0.00307119
0.00307386
0.00307642
0.00307889
0.0030813
0.00308369
0.00308607
0.00308846
0.0030909
0.0030934
0.00309598
0.00309867
0.00310149
0.00310447
0.0031076
0.00311089
0.00311434
0.00311797
0.00312178
0.00312575
0.00312988
0.00313416
0.00313855
0.00314305
0.00314764
0.0031523
0.00315698
0.00316167
0.00316633
0.00317094
0.00317547
0.00317989
0.00318416
0.00318827
0.00319219
0.00319591
0.00319939
0.00320263
0.00320563
0.00320839
0.00297351
0.0029732
0.00297249
0.00297147
0.0029703
0.00296907
0.00296785
0.0029667
0.00296564
0.00296467
0.00296379
0.002963
0.00296225
0.00296155
0.00296088
0.00296024
0.00295964
0.00295906
0.00295855
0.00295809
0.00295774
0.00295752
0.00295745
0.00295757
0.0029579
0.00295851
0.00295945
0.00296071
0.00296234
0.0029644
0.0029669
0.00296986
0.00297332
0.0029773
0.00298181
0.00298687
0.00299249
0.00299864
0.00300531
0.00301251
0.00302018
0.00302828
0.00303672
0.00304545
0.00305434
0.00306321
0.00307186
0.00308004
0.00308737
0.00309336
0.00377128
0.00376781
0.00376333
0.00375826
0.00375289
0.00374746
0.00374213
0.00373701
0.00373214
0.00372753
0.00372318
0.00371906
0.00371514
0.00371137
0.00370775
0.00370425
0.00370087
0.00369763
0.00369454
0.00369163
0.00368894
0.00368654
0.00368449
0.00368285
0.00368169
0.00368107
0.00368106
0.00368174
0.00368319
0.00368546
0.00368862
0.00369271
0.00369779
0.00370392
0.00371113
0.00371944
0.00372885
0.00373934
0.00375091
0.00376354
0.00377714
0.00379163
0.00380691
0.0038228
0.0038391
0.00385553
0.00387173
0.00388725
0.00390151
0.00391376
0.0048459
0.00484779
0.0048483
0.00484778
0.00484661
0.00484509
0.00484342
0.00484175
0.00484016
0.00483867
0.00483728
0.00483593
0.00483462
0.0048333
0.00483192
0.00483051
0.00482903
0.00482756
0.00482609
0.00482469
0.00482344
0.00482241
0.00482166
0.0048213
0.00482147
0.00482227
0.00482379
0.00482615
0.00482948
0.00483386
0.0048394
0.00484619
0.00485433
0.0048639
0.00487496
0.00488752
0.0049016
0.00491721
0.00493437
0.004953
0.00497303
0.00499436
0.00501688
0.00504035
0.00506448
0.00508898
0.00511343
0.0051373
0.00515988
0.00518041
0.00580906
0.0058312
0.00585129
0.00586965
0.00588658
0.00590236
0.0059172
0.00593128
0.00594474
0.0059576
0.00596994
0.00598174
0.00599298
0.00600366
0.00601379
0.0060234
0.00603248
0.00604108
0.00604926
0.00605707
0.00606461
0.00607197
0.00607925
0.00608657
0.00609407
0.00610188
0.00611014
0.00611899
0.00612856
0.00613899
0.00615038
0.0061629
0.00617666
0.00619175
0.00620822
0.00622615
0.00624558
0.00626653
0.00628901
0.00631299
0.00633841
0.00636517
0.00639315
0.00642217
0.00645199
0.00648236
0.00651289
0.00654319
0.00657272
0.00660089
0.00626247
0.00632054
0.00637635
0.00642952
0.00647998
0.00652781
0.00657322
0.00661639
0.00665756
0.00669686
0.00673443
0.00677042
0.00680489
0.00683793
0.00686962
0.0069
0.00692911
0.00695705
0.00698386
0.00700959
0.00703433
0.00705813
0.00708111
0.00710339
0.00712505
0.00714624
0.00716707
0.00718769
0.00720821
0.00722875
0.00724945
0.00727045
0.00729183
0.0073137
0.00733614
0.00735922
0.007383
0.00740755
0.00743288
0.00745895
0.00748575
0.00751332
0.00754155
0.0075703
0.00759953
0.00762909
0.00765883
0.00768858
0.00771816
0.00774739
0.00593734
0.00603948
0.00614042
0.00623831
0.00633219
0.00642173
0.00650696
0.00658815
0.00666554
0.00673954
0.00681047
0.00687859
0.00694412
0.00700715
0.00706789
0.00712643
0.00718278
0.00723709
0.00728936
0.00733958
0.00738779
0.00743406
0.00747841
0.00752084
0.00756145
0.00760033
0.00763756
0.00767319
0.00770729
0.00773998
0.00777134
0.00780142
0.00783035
0.0078582
0.00788505
0.00791093
0.00793594
0.00796014
0.00798352
0.00800614
0.00802805
0.00804929
0.00806992
0.0080899
0.00810936
0.00812838
0.00814702
0.00816545
0.00818388
0.00820254
0.00486609
0.00499459
0.00512537
0.00525484
0.00538102
0.005503
0.00562055
0.00573384
0.00584323
0.00594907
0.00605174
0.00615149
0.00624863
0.00634326
0.00643544
0.00652524
0.00661255
0.00669728
0.00677934
0.00685853
0.0069347
0.00700773
0.00707746
0.00714379
0.00720664
0.00726598
0.00732176
0.00737395
0.00742261
0.00746778
0.00750946
0.00754775
0.00758277
0.00761455
0.00764316
0.00766871
0.00769131
0.00771099
0.00772779
0.00774186
0.00775339
0.00776243
0.00776906
0.00777353
0.00777602
0.00777681
0.00777613
0.00777439
0.00777203
0.00776946
0.00354482
0.00364304
0.00374855
0.00385739
0.00396727
0.00407694
0.00418596
0.00429425
0.00440195
0.0045094
0.00461681
0.00472445
0.00483235
0.00494061
0.00504909
0.00515766
0.00526607
0.0053739
0.00548075
0.00558611
0.00568945
0.00579024
0.0058879
0.00598193
0.00607186
0.00615721
0.00623759
0.00631272
0.00638237
0.00644632
0.00650447
0.00655681
0.00660333
0.00664407
0.00667912
0.00670862
0.0067327
0.00675151
0.00676525
0.0067742
0.00677854
0.0067785
0.00677438
0.00676653
0.00675524
0.00674085
0.00672375
0.00670434
0.00668297
0.00666013
0.00274471
0.00275936
0.00278329
0.00281485
0.00285247
0.0028948
0.00294108
0.00299096
0.00304424
0.00310097
0.00316117
0.00322507
0.00329278
0.00336448
0.00344024
0.00352006
0.00360387
0.00369148
0.00378262
0.0038769
0.00397382
0.00407283
0.00417325
0.00427436
0.00437536
0.00447542
0.00457372
0.00466949
0.00476193
0.00485031
0.00493398
0.00501235
0.00508493
0.00515129
0.00521113
0.00526425
0.0053105
0.0053498
0.00538232
0.0054083
0.00542784
0.00544126
0.00544898
0.00545136
0.00544872
0.00544135
0.00542975
0.00541409
0.00539463
0.00537141
0.00272153
0.00267487
0.00263517
0.00260312
0.00257849
0.00256009
0.00254679
0.00253742
0.00253146
0.00252828
0.00252762
0.00252939
0.00253351
0.00254007
0.00254925
0.00256128
0.00257627
0.00259443
0.00261608
0.00264141
0.00267055
0.0027037
0.00274098
0.00278235
0.00282768
0.00287685
0.00292969
0.00298586
0.00304496
0.0031065
0.00316999
0.00323488
0.00330055
0.00336638
0.00343171
0.00349588
0.00355839
0.00361871
0.00367644
0.00373144
0.00378334
0.00383221
0.003878
0.00392069
0.00396049
0.00399733
0.00403116
0.00406177
0.00408884
0.00411163
0.0029195
0.00288023
0.0028429
0.00280706
0.002774
0.00274418
0.00271861
0.00269583
0.00267651
0.00265887
0.00264225
0.00262702
0.00261294
0.00259918
0.00258527
0.00257165
0.00255833
0.00254485
0.00253105
0.00251692
0.00250256
0.00248821
0.00247405
0.00245989
0.00244562
0.00243156
0.00241807
0.00240522
0.00239301
0.00238149
0.00237091
0.00236174
0.00235405
0.00234776
0.00234328
0.00234075
0.00233983
0.0023409
0.00234428
0.00235036
0.0023593
0.00237085
0.00238561
0.00240437
0.00242689
0.00245442
0.00248758
0.00252547
0.00256911
0.00261698
0.00298337
0.00296351
0.00294445
0.00292576
0.00290749
0.00288942
0.00287183
0.00285476
0.00283814
0.00282212
0.00280687
0.0027922
0.00277808
0.00276467
0.00275174
0.00273919
0.00272723
0.00271565
0.00270408
0.00269253
0.00268113
0.00266984
0.00265852
0.00264711
0.00263557
0.00262388
0.00261205
0.00260016
0.00258816
0.00257592
0.00256353
0.00255121
0.00253882
0.00252633
0.00251388
0.00250139
0.0024889
0.00247639
0.00246404
0.00245198
0.00244021
0.00242853
0.00241685
0.00240538
0.00239433
0.00238337
0.00237275
0.00236182
0.00235028
0.00233779
0.00299069
0.00297997
0.00296928
0.00295868
0.00294809
0.00293754
0.00292696
0.0029165
0.00290621
0.00289594
0.00288574
0.00287572
0.00286584
0.00285606
0.00284637
0.00283681
0.00282736
0.00281797
0.00280864
0.00279934
0.00279007
0.00278082
0.00277155
0.00276227
0.00275298
0.00274364
0.00273427
0.00272488
0.00271543
0.00270592
0.00269641
0.00268686
0.00267725
0.00266762
0.00265797
0.00264831
0.0026386
0.00262885
0.00261918
0.00260954
0.00259984
0.00259018
0.00258065
0.00257118
0.00256164
0.00255208
0.00254254
0.00253284
0.00252272
0.00251184
0.00299348
0.0029865
0.00297949
0.00297252
0.00296549
0.00295851
0.00295154
0.00294455
0.00293755
0.00293055
0.00292357
0.00291659
0.00290963
0.00290267
0.00289568
0.00288869
0.00288172
0.00287472
0.00286769
0.00286067
0.00285362
0.00284654
0.00283944
0.00283232
0.00282516
0.00281797
0.00281075
0.00280351
0.00279623
0.00278892
0.00278158
0.00277422
0.00276684
0.00275941
0.00275196
0.00274451
0.00273705
0.00272957
0.00272207
0.00271461
0.00270713
0.00269963
0.00269213
0.00268463
0.00267715
0.00266961
0.00266201
0.00265425
0.00264627
0.00263785
0.00299568
0.00299098
0.00298621
0.00298138
0.00297648
0.00297151
0.00296648
0.00296141
0.00295628
0.00295111
0.00294591
0.00294067
0.0029354
0.00293012
0.00292481
0.00291947
0.00291413
0.00290877
0.00290338
0.00289798
0.00289256
0.00288711
0.00288166
0.00287619
0.00287071
0.00286521
0.00285969
0.00285417
0.00284864
0.0028431
0.00283755
0.00283198
0.0028264
0.00282082
0.00281523
0.00280963
0.00280403
0.00279844
0.00279284
0.00278721
0.0027816
0.00277597
0.00277036
0.00276474
0.00275908
0.00275335
0.00274754
0.00274155
0.00273527
0.00272856
0.00299602
0.0029919
0.00298782
0.00298378
0.00297979
0.00297583
0.0029719
0.00296799
0.00296411
0.00296026
0.00295644
0.00295266
0.00294888
0.00294514
0.00294144
0.00293775
0.0029341
0.00293048
0.00292689
0.00292333
0.00291979
0.00291628
0.00291278
0.00290931
0.00290584
0.00290239
0.00289895
0.00289551
0.00289208
0.00288864
0.00288521
0.00288177
0.00287832
0.00287487
0.00287142
0.00286795
0.00286447
0.00286097
0.00285745
0.00285392
0.00285036
0.00284677
0.00284314
0.00283945
0.00283567
0.00283174
0.00282764
0.00282325
0.00281845
0.00281348
0.00299774
0.00299626
0.00299485
0.00299362
0.00299255
0.00299158
0.00299068
0.00298986
0.00298912
0.00298847
0.00298792
0.00298751
0.00298722
0.00298707
0.00298708
0.00298722
0.0029875
0.00298792
0.00298846
0.0029891
0.00298984
0.00299065
0.00299153
0.00299244
0.00299337
0.0029943
0.00299523
0.00299612
0.00299698
0.00299778
0.0029985
0.00299916
0.00299974
0.00300021
0.00300059
0.00300087
0.00300106
0.00300113
0.00300106
0.00300086
0.00300046
0.00299978
0.00299871
0.00299698
0.0029942
0.00299084
0.00298743
0.00298397
0.00298045
0.00297656
0.00307723
0.00315867
0.003242
0.0033272
0.00341437
0.00350356
0.00359481
0.00368816
0.00378367
0.00388136
0.00398129
0.00408349
0.00418802
0.00429492
0.00440424
0.00451603
0.00463033
0.00474721
0.0048667
0.00498887
0.00511376
0.00524143
0.00537193
0.00550532
0.00564164
0.00578097
0.00592336
0.00606887
0.00621755
0.00636947
0.00652468
0.00668325
0.00684525
0.00701074
0.00717979
0.00735245
0.00752879
0.00770889
0.0078928
0.00808062
0.00827241
0.00846824
0.00866817
0.0088723
0.00908071
0.00929222
0.0095051
0.00971716
0.00992409
0.0101175
0.0589322
0.0574897
0.0561246
0.0548299
0.0535972
0.0524184
0.0512854
0.0501953
0.0491457
0.0481345
0.0471598
0.04622
0.0453136
0.0444389
0.0435948
0.0427798
0.0419927
0.0412324
0.0404976
0.0397873
0.0391002
0.0384354
0.0377919
0.0371687
0.0365652
0.0359807
0.0354146
0.0348662
0.0343348
0.0338198
0.0333205
0.0328363
0.0323665
0.0319105
0.0314678
0.0310382
0.0306211
0.0302164
0.0298238
0.0294416
0.0290685
0.0287037
0.0283466
0.0279962
0.0276514
0.0273108
0.0269725
0.0266334
0.0262881
0.0259261
0.0580914
0.0554621
0.0530079
0.0507108
0.048561
0.0465488
0.0446661
0.0429019
0.0412465
0.0396911
0.0382278
0.0368492
0.035549
0.0343213
0.0331606
0.0320622
0.0310217
0.0300348
0.0290978
0.0282072
0.0273598
0.0265527
0.0257832
0.0250491
0.0243482
0.0236788
0.0230389
0.0224267
0.0218406
0.021279
0.0207401
0.0202227
0.0197254
0.019247
0.0187862
0.0183421
0.0179136
0.0174999
0.0171
0.0167143
0.0163428
0.0159849
0.0156397
0.0153064
0.0149844
0.014673
0.0143715
0.0140789
0.0137945
0.0135171
0.0580877
0.0554496
0.052979
0.0506674
0.0485027
0.0464737
0.0445696
0.0427805
0.0410974
0.0395119
0.0380167
0.0366051
0.0352708
0.0340085
0.0328129
0.0316796
0.0306043
0.0295831
0.0286123
0.0276886
0.0268088
0.0259702
0.0251703
0.0244067
0.0236774
0.0229805
0.0223142
0.0216767
0.0210664
0.0204817
0.0199211
0.0193832
0.0188668
0.0183707
0.0178941
0.0174359
0.0169954
0.0165717
0.0161641
0.0157719
0.0153944
0.0150308
0.0146806
0.0143431
0.0140178
0.0137041
0.0134017
0.0131101
0.0128287
0.0125566
0.0580877
0.0554683
0.0530193
0.0507277
0.0485802
0.0465648
0.044671
0.042889
0.0412104
0.0396273
0.0381328
0.0367204
0.0353843
0.0341193
0.0329204
0.0317834
0.0307039
0.0296783
0.0287029
0.0277745
0.0268899
0.0260464
0.0252416
0.0244733
0.0237393
0.0230377
0.0223669
0.0217249
0.0211103
0.0205214
0.0199567
0.019415
0.0188949
0.0183953
0.0179153
0.0174539
0.0170102
0.0165834
0.0161729
0.0157779
0.0153976
0.0150314
0.0146785
0.0143384
0.0140105
0.0136943
0.0133894
0.0130955
0.0128123
0.0125386
0.0580877
0.0554685
0.0530185
0.0507242
0.0485733
0.0465544
0.0446573
0.0428727
0.0411921
0.0396076
0.0381123
0.0366996
0.0353637
0.0340993
0.0329013
0.0317654
0.0306873
0.0296631
0.0286893
0.0277623
0.0268793
0.0260374
0.025234
0.0244671
0.0237345
0.0230343
0.0223647
0.021724
0.0211104
0.0205225
0.0199588
0.0194179
0.0188987
0.0183999
0.0179206
0.0174598
0.0170168
0.0165906
0.0161806
0.0157859
0.0154059
0.0150399
0.0146872
0.0143472
0.0140192
0.0137028
0.0133975
0.0131029
0.0128188
0.0125445
0.0580876
0.0554698
0.0530226
0.0507321
0.0485855
0.0465712
0.0446785
0.0428979
0.0412208
0.0396393
0.0381465
0.0367357
0.0354013
0.0341379
0.0329407
0.0318052
0.0307273
0.0297031
0.0287289
0.0278016
0.0269179
0.0260753
0.0252712
0.0245034
0.02377
0.0230688
0.0223983
0.0217565
0.0211419
0.020553
0.0199882
0.0194463
0.018926
0.0184263
0.017946
0.0174843
0.0170403
0.0166131
0.0162021
0.0158064
0.0154254
0.0150582
0.0147043
0.014363
0.0140338
0.0137161
0.0134096
0.0131135
0.0128277
0.0125516
0.0580876
0.05547
0.0530235
0.0507334
0.0485869
0.0465723
0.044679
0.0428975
0.0412193
0.0396366
0.0381425
0.0367306
0.0353952
0.0341309
0.032933
0.031797
0.0307186
0.0296941
0.0287197
0.0277922
0.0269085
0.0260659
0.0252619
0.0244942
0.023761
0.0230601
0.0223897
0.0217482
0.0211339
0.0205452
0.0199807
0.0194391
0.0189192
0.0184198
0.0179399
0.0174785
0.0170348
0.016608
0.0161972
0.0158017
0.0154208
0.0150536
0.0146996
0.0143581
0.0140287
0.0137108
0.013404
0.0131076
0.0128213
0.0125446
0.0580875
0.0554702
0.0530242
0.050735
0.0485893
0.0465756
0.0446833
0.0429028
0.0412256
0.0396439
0.0381507
0.0367396
0.035405
0.0341415
0.0329442
0.0318088
0.0307309
0.0297068
0.0287327
0.0278054
0.0269218
0.0260792
0.0252752
0.0245075
0.023774
0.0230729
0.0224024
0.0217606
0.0211459
0.0205569
0.019992
0.0194501
0.0189298
0.01843
0.0179497
0.0174879
0.0170438
0.0166165
0.0162052
0.015809
0.0154273
0.0150594
0.0147045
0.0143621
0.0140317
0.0137127
0.0134048
0.0131075
0.01282
0.0125421
0.0580875
0.0554705
0.0530247
0.0507358
0.0485904
0.0465769
0.0446846
0.042904
0.0412266
0.0396446
0.038151
0.0367395
0.0354044
0.0341404
0.0329428
0.0318069
0.0307287
0.0297041
0.0287297
0.027802
0.0269181
0.0260752
0.025271
0.0245031
0.0237696
0.0230684
0.0223977
0.0217558
0.021141
0.0205519
0.0199871
0.0194451
0.0189249
0.0184252
0.017945
0.0174833
0.0170392
0.0166118
0.0162004
0.0158041
0.0154221
0.0150538
0.0146986
0.0143558
0.014025
0.0137056
0.0133973
0.0130994
0.0128114
0.0125328
0.0580876
0.0554707
0.0530252
0.0507365
0.0485913
0.0465779
0.0446857
0.0429053
0.0412279
0.039646
0.0381525
0.0367412
0.0354062
0.0341425
0.0329449
0.0318092
0.0307311
0.0297066
0.0287322
0.0278046
0.0269207
0.0260779
0.0252737
0.0245058
0.0237722
0.0230709
0.0224002
0.0217582
0.0211433
0.0205541
0.0199891
0.0194471
0.0189268
0.0184269
0.0179466
0.0174847
0.0170404
0.0166128
0.016201
0.0158043
0.0154218
0.0150529
0.0146971
0.0143536
0.0140221
0.0137021
0.013393
0.0130943
0.0128055
0.012526
0.0580877
0.055471
0.0530256
0.0507369
0.0485918
0.0465784
0.0446861
0.0429056
0.0412282
0.0396462
0.0381527
0.0367413
0.0354063
0.0341424
0.0329449
0.031809
0.0307308
0.0297062
0.0287317
0.027804
0.0269201
0.0260772
0.0252729
0.024505
0.0237713
0.02307
0.0223991
0.021757
0.0211421
0.0205528
0.0199877
0.0194456
0.0189252
0.0184253
0.0179449
0.0174829
0.0170384
0.0166105
0.0161984
0.0158013
0.0154184
0.0150491
0.0146927
0.0143488
0.0140167
0.0136961
0.0133864
0.013087
0.0127975
0.0125172
0.0580877
0.0554712
0.0530259
0.0507371
0.0485918
0.0465782
0.0446858
0.042905
0.0412274
0.0396452
0.0381514
0.0367398
0.0354046
0.0341404
0.0329425
0.0318064
0.0307279
0.029703
0.0287283
0.0278004
0.0269163
0.0260732
0.0252689
0.0245009
0.0237671
0.0230657
0.0223948
0.0217526
0.0211376
0.0205483
0.0199832
0.0194411
0.0189207
0.0184208
0.0179403
0.0174783
0.0170337
0.0166056
0.0161933
0.015796
0.0154129
0.0150432
0.0146866
0.0143422
0.0140098
0.0136887
0.0133785
0.0130786
0.0127885
0.0125074
0.0580878
0.0554715
0.0530261
0.0507371
0.0485915
0.0465777
0.0446852
0.0429045
0.041227
0.039645
0.0381516
0.0367403
0.0354053
0.0341415
0.0329438
0.031808
0.0307296
0.029705
0.0287305
0.0278027
0.0269188
0.0260759
0.0252716
0.0245036
0.0237699
0.0230685
0.0223975
0.0217553
0.0211401
0.0205507
0.0199855
0.0194432
0.0189225
0.0184224
0.0179416
0.0174792
0.0170342
0.0166058
0.0161931
0.0157952
0.0154116
0.0150414
0.0146841
0.0143392
0.0140061
0.0136842
0.0133732
0.0130724
0.0127813
0.0124992
0.0580879
0.0554715
0.0530257
0.0507361
0.0485897
0.046575
0.0446815
0.0428998
0.0412213
0.0396383
0.0381439
0.0367316
0.0353957
0.034131
0.0329325
0.0317959
0.0307169
0.0296918
0.0287169
0.0277888
0.0269047
0.0260617
0.0252574
0.0244895
0.0237558
0.0230545
0.0223836
0.0217415
0.0211266
0.0205373
0.0199723
0.0194301
0.0189097
0.0184097
0.0179292
0.0174669
0.0170221
0.0165938
0.0161812
0.0157835
0.0153999
0.0150298
0.0146725
0.0143275
0.0139943
0.0136723
0.013361
0.0130598
0.0127682
0.0124857
0.058088
0.0554714
0.0530252
0.0507351
0.0485887
0.0465744
0.0446816
0.0429009
0.0412235
0.0396417
0.0381484
0.0367371
0.035402
0.034138
0.03294
0.0318038
0.0307252
0.0297003
0.0287255
0.0277975
0.0269133
0.0260702
0.0252657
0.0244975
0.0237636
0.0230619
0.0223906
0.0217481
0.0211326
0.0205428
0.0199772
0.0194345
0.0189135
0.0184129
0.0179318
0.0174689
0.0170234
0.0165945
0.0161813
0.0157829
0.0153986
0.0150278
0.0146698
0.014324
0.0139899
0.0136669
0.0133546
0.0130523
0.0127595
0.0124757
0.058088
0.0554702
0.0530211
0.0507273
0.0485767
0.0465579
0.0446609
0.0428762
0.0411954
0.0396106
0.0381148
0.0367014
0.0353647
0.0340994
0.0329006
0.0317639
0.030685
0.0296601
0.0286856
0.027758
0.0268744
0.0260319
0.0252282
0.0244608
0.0237278
0.023027
0.0223566
0.0217149
0.0211003
0.0205113
0.0199466
0.0194047
0.0188845
0.0183847
0.0179042
0.0174421
0.0169974
0.0165691
0.0161565
0.0157588
0.0153751
0.0150048
0.0146472
0.0143018
0.0139679
0.0136451
0.0133329
0.0130307
0.0127378
0.0124539
0.0580881
0.0554699
0.0530218
0.0507306
0.0485835
0.0465684
0.0446748
0.042893
0.0412143
0.0396309
0.0381357
0.0367225
0.0353855
0.0341194
0.0329196
0.0317817
0.0307014
0.029675
0.0286989
0.0277697
0.0268845
0.0260404
0.0252352
0.0244663
0.0237318
0.0230296
0.0223578
0.0217148
0.0210989
0.0205087
0.0199428
0.0193998
0.0188786
0.0183779
0.0178966
0.0174337
0.0169882
0.0165593
0.0161461
0.0157478
0.0153637
0.0149931
0.0146352
0.0142895
0.0139555
0.0136327
0.0133206
0.0130187
0.0127266
0.0124438
0.0580881
0.0554512
0.0529814
0.0506703
0.0485059
0.0464773
0.0445735
0.0427847
0.0411016
0.0395159
0.0380201
0.0366076
0.0352723
0.0340089
0.0328124
0.0316782
0.0306022
0.0295802
0.0286088
0.0276844
0.026804
0.025965
0.0251647
0.0244009
0.0236713
0.022974
0.0223071
0.0216689
0.0210578
0.0204723
0.0199111
0.0193729
0.0188563
0.0183603
0.0178838
0.0174256
0.0169851
0.0165612
0.0161532
0.0157603
0.0153819
0.0150172
0.0146658
0.0143272
0.0140009
0.0136868
0.0133846
0.0130943
0.0128161
0.0125508
0.0580918
0.0554636
0.0530101
0.0507134
0.0485641
0.0465525
0.0446703
0.0429067
0.0412516
0.0396962
0.0382324
0.0368531
0.035552
0.0343234
0.033162
0.032063
0.031022
0.0300349
0.0290977
0.0282072
0.02736
0.0265535
0.025785
0.0250522
0.0243528
0.0236849
0.0230467
0.0224364
0.0218525
0.0212937
0.0207585
0.0202459
0.0197545
0.0192833
0.0188312
0.0183974
0.0179812
0.0175818
0.0171985
0.0168309
0.0164784
0.0161407
0.0158175
0.0155088
0.0152147
0.0149357
0.0146726
0.014427
0.014202
0.0140045
0.0589326
0.0574906
0.0561257
0.0548312
0.0535987
0.0524199
0.0512871
0.050197
0.0491473
0.0481357
0.0471605
0.0462201
0.045313
0.0444377
0.0435931
0.0427776
0.0419899
0.0412288
0.040493
0.0397815
0.0390931
0.0384269
0.037782
0.0371575
0.0365525
0.0359664
0.0353982
0.0348474
0.0343133
0.0337952
0.0332925
0.0328044
0.0323304
0.0318698
0.031422
0.0309864
0.0305627
0.0301501
0.0297483
0.0293565
0.0289744
0.0286014
0.028237
0.0278808
0.0275322
0.0271906
0.0268554
0.0265256
0.0262004
0.0258783
0.012319
0.00455962
0.00257459
0.00194978
0.00172797
0.0016321
0.00157179
0.00152747
0.00148761
0.00145109
0.00141649
0.00138201
0.00135025
0.00131584
0.00128684
0.00125061
0.00123172
0.00126354
0.00205935
0.00841062
0.0124207
0.00442011
0.00245957
0.0018908
0.00170131
0.00162337
0.00157125
0.00153188
0.00149461
0.00145984
0.00142641
0.00139254
0.0013615
0.00132703
0.0012987
0.00126193
0.00124435
0.0012789
0.0020996
0.00852317
0.0125118
0.0043004
0.00236953
0.00185246
0.00168912
0.00162454
0.0015775
0.00154111
0.00150504
0.00147111
0.00143819
0.00140437
0.0013737
0.00133894
0.00131112
0.00127372
0.00125733
0.00129431
0.00213767
0.00862585
0.0125947
0.00419822
0.00229965
0.00182941
0.00168689
0.00163208
0.00158795
0.00155328
0.00151759
0.00148394
0.0014511
0.00141709
0.00138662
0.00135142
0.00132403
0.00128591
0.00127056
0.00130974
0.00217376
0.00872003
0.0126702
0.0041124
0.002246
0.00181755
0.00169131
0.0016436
0.00160093
0.00156716
0.00153141
0.00149774
0.00146475
0.00143043
0.00140009
0.00136435
0.0013373
0.00129838
0.00128397
0.00132516
0.00220801
0.00880682
0.0127412
0.00404048
0.00220553
0.00181379
0.00170017
0.00165752
0.00161542
0.00158213
0.00154603
0.00151212
0.00147892
0.00144424
0.00141394
0.00137762
0.00135086
0.00131109
0.00129756
0.00134062
0.00224063
0.00888704
0.0128072
0.00398114
0.00217569
0.00181591
0.00171194
0.00167294
0.00163085
0.00159774
0.00156112
0.00152693
0.00149348
0.00145838
0.00142808
0.00139116
0.00136461
0.00132402
0.00131133
0.0013561
0.00227178
0.00896143
0.0128697
0.0039327
0.00215449
0.00182231
0.00172567
0.00168928
0.00164684
0.00161374
0.00157655
0.00154207
0.00150833
0.00147279
0.00144246
0.00140492
0.00137855
0.00133719
0.00132526
0.00137163
0.00230168
0.00903056
0.0129289
0.00389414
0.00214042
0.00183181
0.00174073
0.00170622
0.00166321
0.00163004
0.00159226
0.00155747
0.00152345
0.00148747
0.00145707
0.00141892
0.0013927
0.00135059
0.00133934
0.00138721
0.00233047
0.00909475
0.0129852
0.0038642
0.00213217
0.0018436
0.00175666
0.00172355
0.00167986
0.00164657
0.00160824
0.00157312
0.00153882
0.00150237
0.00147189
0.00143311
0.00140702
0.00136417
0.00135354
0.00140282
0.0023582
0.00915421
0.0130395
0.00384176
0.00212863
0.00185704
0.00177324
0.00174111
0.00169674
0.00166329
0.00162447
0.00158899
0.0015544
0.00151749
0.00148688
0.0014475
0.00142148
0.00137794
0.00136785
0.00141844
0.00238497
0.0092094
0.0130917
0.00382589
0.00212896
0.00187174
0.00179032
0.00175884
0.0017138
0.00168018
0.00164087
0.00160505
0.00157017
0.00153277
0.001502
0.00146204
0.0014361
0.00139189
0.00138226
0.0014341
0.00241096
0.00926092
0.0131423
0.00381541
0.00213249
0.00188741
0.00180771
0.0017767
0.00173103
0.00169723
0.00165742
0.00162127
0.00158607
0.00154817
0.00151726
0.00147677
0.00145086
0.00140602
0.00139679
0.00144982
0.00243634
0.0093092
0.0131914
0.00380964
0.00213869
0.00190378
0.00182537
0.0017947
0.00174842
0.00171439
0.00167413
0.00163762
0.00160207
0.0015637
0.00153268
0.00149169
0.00146578
0.00142033
0.00141145
0.00146562
0.00246124
0.00935452
0.013239
0.00380809
0.00214709
0.00192072
0.00184326
0.00181281
0.00176596
0.00173168
0.00169096
0.00165406
0.00161819
0.00157941
0.00154826
0.00150677
0.00148084
0.00143481
0.0014262
0.0014815
0.00248576
0.00939709
0.0132855
0.00381017
0.00215737
0.00193811
0.00186139
0.00183103
0.00178363
0.00174907
0.0017079
0.00167061
0.00163447
0.00159529
0.00156398
0.00152201
0.00149602
0.00144942
0.00144103
0.00149745
0.00250997
0.00943704
0.0133312
0.00381534
0.00216923
0.0019559
0.00187971
0.00184935
0.00180141
0.00176656
0.00172497
0.00168733
0.00165091
0.00161131
0.00157983
0.00153738
0.00151127
0.00146413
0.00145595
0.00151349
0.00253394
0.00947454
0.0133763
0.00382307
0.00218237
0.00197401
0.00189817
0.00186775
0.00181931
0.00178417
0.00174219
0.0017042
0.00166749
0.00162747
0.00159579
0.00155286
0.00152661
0.00147896
0.00147095
0.00152962
0.00255778
0.00950985
0.0134207
0.0038329
0.00219662
0.00199236
0.00191676
0.00188623
0.00183734
0.00180189
0.00175954
0.00172119
0.00168419
0.00164375
0.00161185
0.00156845
0.00154204
0.00149394
0.00148607
0.00154586
0.00258158
0.00954318
0.0134644
0.0038446
0.00221179
0.00201092
0.00193548
0.0019048
0.00185549
0.00181971
0.00177703
0.00173829
0.00170099
0.00166015
0.00162802
0.00158417
0.00155761
0.00150908
0.00150133
0.00156224
0.00260545
0.00957459
0.0135075
0.00385798
0.00222777
0.00202968
0.00195435
0.00192346
0.00187376
0.00183766
0.00179463
0.00175551
0.00171793
0.00167668
0.00164433
0.00160007
0.00157334
0.00152441
0.00151671
0.00157873
0.00262942
0.00960413
0.0135501
0.00387291
0.00224448
0.00204865
0.00197335
0.00194224
0.00189217
0.00185574
0.00181236
0.00177286
0.00173501
0.00169338
0.00166081
0.00161615
0.00158924
0.00153989
0.0015322
0.00159532
0.00265293
0.00963272
0.0135926
0.00388917
0.00226178
0.0020678
0.00199251
0.00196115
0.00191075
0.00187396
0.00183025
0.00179038
0.00175226
0.00171025
0.00167746
0.00163241
0.00160527
0.00155551
0.0015478
0.00161205
0.00267585
0.00966091
0.0136353
0.00390638
0.00227959
0.00208712
0.00201184
0.00198021
0.00192947
0.00189232
0.00184829
0.00180805
0.00176966
0.00172728
0.00169425
0.00164882
0.00162143
0.00157127
0.00156353
0.00162897
0.00269814
0.00968912
0.013678
0.00392426
0.00229784
0.0021066
0.00203132
0.00199939
0.00194834
0.00191081
0.00186647
0.00182587
0.00178721
0.00174447
0.00171119
0.00166537
0.00163772
0.00158721
0.00157945
0.0016461
0.00271991
0.00971751
0.0137204
0.00394274
0.00231649
0.00212625
0.00205094
0.0020187
0.00196733
0.00192942
0.0018848
0.00184383
0.00180492
0.00176181
0.00172828
0.0016821
0.00165419
0.00160334
0.00159555
0.00166335
0.00274124
0.0097462
0.0137624
0.00396182
0.0023355
0.00214604
0.00207069
0.00203811
0.00198645
0.00194817
0.00190328
0.00186195
0.00182278
0.00177932
0.00174554
0.001699
0.00167083
0.00161967
0.00161181
0.00168069
0.00276224
0.00977523
0.0138042
0.00398149
0.00235483
0.002166
0.0020906
0.00205765
0.00200571
0.00196706
0.00192191
0.00188024
0.00184082
0.00179702
0.00176298
0.00171608
0.00168762
0.00163617
0.00162823
0.0016981
0.00278297
0.00980453
0.0138458
0.0040017
0.00237447
0.00218613
0.00211065
0.00207733
0.00202513
0.00198612
0.00194072
0.00189871
0.00185905
0.0018149
0.00178057
0.00173331
0.00170457
0.00165283
0.00164479
0.00171555
0.00280347
0.00983406
0.0138876
0.00402236
0.0023944
0.00220643
0.00213087
0.00209718
0.00204474
0.00200536
0.00195971
0.00191737
0.00187746
0.00183293
0.0017983
0.0017507
0.00172169
0.00166966
0.00166149
0.00173305
0.00282371
0.0098639
0.0139296
0.00404335
0.00241459
0.0022269
0.00215127
0.0021172
0.00206452
0.00202478
0.00197891
0.00193623
0.00189604
0.00185112
0.00181619
0.00176828
0.00173897
0.00168666
0.00167834
0.00175061
0.00284379
0.00989423
0.0139716
0.00406459
0.00243503
0.00224755
0.00217186
0.00213742
0.00208451
0.00204439
0.00199831
0.00195525
0.00191477
0.00186948
0.00183429
0.00178605
0.00175643
0.00170385
0.00169538
0.00176828
0.00286386
0.00992512
0.0140135
0.0040861
0.00245571
0.00226841
0.00219267
0.00215783
0.0021047
0.00206422
0.00201789
0.00197445
0.00193369
0.00188806
0.00185259
0.00180404
0.0017741
0.00172127
0.00171264
0.0017861
0.00288402
0.00995654
0.0140555
0.0041079
0.00247667
0.00228949
0.0022137
0.00217845
0.00212511
0.00208426
0.00203768
0.00199387
0.00195285
0.00190688
0.00187112
0.00182225
0.00179201
0.00173894
0.00173011
0.00180407
0.00290434
0.00998841
0.0140975
0.00413004
0.00249792
0.00231079
0.00223494
0.00219929
0.00214576
0.00210453
0.0020577
0.00201353
0.00197224
0.00192592
0.00188987
0.00184071
0.00181018
0.00175683
0.00174779
0.0018222
0.00292482
0.0100206
0.0141396
0.00415258
0.00251944
0.00233233
0.00225643
0.0022204
0.00216668
0.00212505
0.00207798
0.00203343
0.00199186
0.00194518
0.00190885
0.00185941
0.00182857
0.00177492
0.00176567
0.00184051
0.00294545
0.0100532
0.0141819
0.00417546
0.00254123
0.0023541
0.00227819
0.00224178
0.00218786
0.00214582
0.00209849
0.00205355
0.00201169
0.00196467
0.00192808
0.00187834
0.00184715
0.00179323
0.00178378
0.00185901
0.00296615
0.010086
0.0142247
0.00419851
0.00256326
0.00237614
0.00230023
0.0022634
0.00220927
0.00216681
0.00211923
0.00207388
0.00203175
0.0019844
0.00194753
0.00189748
0.00186596
0.00181178
0.00180214
0.00187768
0.00298687
0.0101193
0.0142677
0.00422165
0.00258554
0.00239842
0.00232249
0.00228523
0.00223091
0.00218803
0.00214019
0.00209446
0.00205206
0.00200438
0.00196721
0.00191686
0.00188504
0.0018306
0.00182074
0.00189652
0.00300767
0.0101532
0.0143108
0.00424493
0.00260806
0.00242092
0.00234495
0.00230729
0.00225278
0.00220951
0.00216141