/*--------------------------------*- C++ -*----------------------------------*\
  =========                 |
  \\      /  F ield         | OpenFOAM: The Open Source CFD Toolbox
   \\    /   O peration     | Website:  https://openfoam.org
    \\  /    A nd           | Version:  8
     \\/     M anipulation  |
\*---------------------------------------------------------------------------*/
FoamFile
{
    version     2.0;
    format      ascii;
    class       volScalarField;
    location    "100";
    object      p_rgh;
}
// * * * * * * * * * * * * * * * * * * * * * * * * * * * * * * * * * * * * * //

dimensions      [1 -1 -2 0 0 0 0];

internalField   nonuniform List<scalar> 
8400
(
5392.46
12677
20023.7
27159.5
34076
40756.8
47197.9
53402.2
59378.7
65140.4
70699.6
76070.1
81263.4
86292.1
91165.4
95891.8
100479
104932
109260
113466
117559
121542
125419
129194
132869
136447
139926
143311
146600
149795
152900
155917
158855
161719
164517
167258
169954
172620
175271
177924
180600
183325
186130
189062
192175
195525
199193
203413
208738
215432
5220.75
12482.7
19846.6
27005.2
33938.8
40628.5
47069.8
53267.3
59231.3
64977.4
70519
75871
81046.3
86058.3
90917.2
95630.5
100206
104649
108967
113166
117251
121226
125095
128861
132525
136089
139555
142923
146192
149366
152445
155435
158341
161168
163923
166615
169254
171853
174425
176986
179549
182137
184774
187491
190322
193300
196465
199933
203950
208633
5572.8
13026.1
20511.7
27750.8
34738.4
41460.3
47916.1
54115.2
60071.8
65805.1
71332
76669
81833.4
86838.1
91693.4
96408.1
100989
105444
109775
113990
118094
122088
125976
129763
133449
137036
140524
143915
147210
150410
153519
156542
159483
162348
165144
167881
170570
173226
175861
178491
181131
183805
186535
189350
192278
195349
198595
202077
205873
209893
5314.58
12792.3
20360.3
27675.1
34712
41454.1
47904.1
54077.6
59994.8
65679.1
71153.4
76437.7
81550.9
86508.5
91322.1
96000.4
100549
104974
109279
113470
117549
121520
125384
129144
132800
136352
139803
143153
146400
149548
152599
155558
158427
161211
163917
166553
169130
171660
174154
176623
179084
181554
184051
186598
189218
191934
194775
197781
200991
204353
5741.85
13553.8
21351
28820.4
35955
42748.4
49214.5
55377.6
61267.9
66916
72349.3
77596
82677.1
87608.7
92405.6
97074.6
101624
106059
110380
114593
118699
122699
126597
130392
134083
137671
141156
144538
147817
150997
154079
157067
159965
162778
165511
168174
170778
173330
175841
178320
180781
183237
185699
188185
190707
193275
195904
198612
201420
204280
5569.47
13569
21564.9
29180.5
36393.8
43205
49643.1
55745.3
61553.1
67109.5
72449.4
77604.9
82602.2
87459.3
92192.9
96809.8
101317
105720
110017
114211
118303
122293
126178
129958
133630
137192
140643
143982
147212
150335
153354
156273
159097
161832
164484
167063
169576
172031
174437
176802
179138
181455
183763
186077
188403
190750
193122
195525
197961
200419
5952.72
14446
22783.7
30612.7
37934.4
44773.7
51183.7
57224.1
62953.2
68424.9
73685.3
78770.5
83709.8
88524.7
93229.6
97833.4
102342
106758
111078
115302
119428
123453
127371
131179
134873
138450
141908
145248
148474
151589
154598
157507
160323
163051
165698
168268
170768
173201
175572
177889
180158
182387
184585
186763
188926
191080
193225
195361
197488
199600
5935.79
14890.8
23568.6
31588.4
38969.1
45772.7
52086.3
57997.5
63588.5
68924.1
74058.6
79034.3
83879.4
88618.8
93265.4
97825.7
102305
106702
111011
115229
119351
123369
127277
131070
134742
138291
141717
145024
148214
151295
154272
157154
159947
162654
165278
167824
170289
172677
174991
177236
179417
181542
183622
185670
187688
189682
191650
193580
195463
197311
6299.39
16001.8
25115.1
33332.1
40741.5
47470.5
53657.5
59423.1
64869.5
70074.4
75097.5
79984.4
84763.5
89455.6
94074.4
98622.8
103100
107505
111829
116064
120205
124240
128163
131967
135647
139202
142633
145943
149136
152219
155198
158080
160866
163558
166158
168663
171072
173387
175613
177754
179817
181817
183766
185678
187561
189417
191243
193018
194722
196366
6563.67
17077
26582.7
34898.2
42224.5
48781.1
54763
60325.4
65587.6
70633.9
75527.4
80309
85008.6
89642
94219.2
98740.2
103201
107596
111916
116151
120291
124328
128252
132058
135740
139297
142730
146041
149232
152310
155280
158144
160905
163563
166120
168573
170925
173180
175343
177424
179431
181380
183287
185162
187013
188839
190631
192364
194005
195552
7231.92
18686
28492.9
36781.6
43924.3
50253.5
56015
61383.3
66482
71396.4
76187.9
80894.9
85542.2
90142.5
94700.7
99213.6
103674
108074
112403
116649
120801
124851
128788
132607
136301
139870
143311
146626
149816
152885
155836
158672
161396
164010
166516
168917
171216
173422
175539
177578
179548
181462
183332
185166
186969
188739
190467
192130
193692
195134
8269.04
20574.4
30285.3
38296.3
45119.1
51159
56679.8
61856
66803.8
71603.6
76309.6
80956
85563
90139.5
94685.8
99195.9
103660
108068
112408
116666
120831
124895
128846
132679
136388
139970
143423
146744
149936
153001
155942
158762
161465
164055
166535
168911
171190
173377
175480
177508
179470
181375
183233
185051
186836
188588
190306
191977
193565
195038
8558.65
21480
31107.1
38980.5
45693.9
51643.2
57089.3
62205
67105.2
71869
76549.4
81179
85775.9
90347
94891.3
99401.7
103867
108276
112615
116872
121036
125095
129042
132870
136573
140148
143592
146903
150083
153134
156059
158860
161543
164111
166571
168928
171191
173364
175458
177479
179437
181340
183195
185011
186793
188544
190264
191943
193553
195058
7329.9
20308.6
30613.6
38776.1
45662.2
51765
57344.4
62570.1
67561
72398.5
77136.4
81809.7
86437.6
91028.4
95583
100096
104559
108962
113293
117539
121691
125739
129675
133493
137187
140755
144192
147498
150674
153722
156644
159442
162122
164688
167145
169501
171762
173935
176029
178051
180010
181914
183770
185584
187363
189111
190826
192502
194121
195645
-432.698
13855.6
26074.2
35140.5
42373.1
48662.6
54361.7
59645.8
64651.9
69484.2
74209.2
78868.3
83485.4
88071.6
92629
97153
101635
106064
110428
114714
118908
123001
126984
130849
134591
138206
141692
145047
148272
151367
154336
157180
159904
162513
165011
167407
169706
171917
174046
176103
178097
180034
181921
183765
185573
187345
189078
190762
192373
193858
4741.17
15309.5
29239.3
40202.9
48403
55264.7
61393.7
66979.7
72162.4
77074.4
81811.6
86435.3
90979.6
95463
99894.9
104275
108600
112865
117060
121172
125193
129112
132922
136616
140190
143642
146971
150176
153258
156217
159055
161775
164381
166876
169266
171558
173759
175877
177919
179894
181809
183671
185485
187257
188987
190674
192305
193856
195279
196481
-26843.1
-11190.9
6243.34
19110.2
28505.3
36376.9
43503.4
50032
56060.9
61725.9
67137.9
72370.5
77466
82448.3
87335.8
92136.8
96852
101482
106025
110470
114810
119034
123138
127115
130964
134683
138272
141732
145062
148264
151338
154286
157111
159816
162407
164890
167274
169565
171772
173903
175963
177960
179894
181769
183580
185315
186949
188442
189719
190696
10011.6
13951.2
31001.6
45077.3
54173.3
61081.5
67129.3
72559.4
77491.6
82096.2
86510.7
90821.3
95073.8
99284.6
103464
107616
111735
115812
119842
123810
127700
131499
135197
138787
142265
145631
148883
152021
155045
157955
160750
163430
165998
168456
170809
173065
175231
177314
179322
181263
183141
184959
186715
188400
189995
191463
192725
193661
194037
193784
-76333.9
-47137.8
-17541
1599.02
14824.7
25553.9
34939.3
43227.9
50599.1
57286.4
63480.8
69313.7
74877.3
80225
85392.6
90410.8
95297.8
100063
104714
109249
113663
117948
122101
126122
130010
133767
137397
140901
144281
147535
150662
153663
156537
159290
161923
164445
166863
169184
171415
173560
175623
177599
179479
181245
182857
184260
185356
186002
186077
185147
1666.63
1911.89
14674.2
27344.2
36874
44840.4
52130.5
58811.1
64898
70519.3
75809.7
80862.6
85742
90487.7
95121
99658.3
104111
108481
112770
116971
121074
125070
128952
132715
136361
139889
143303
146604
149792
152865
155820
158658
161377
163980
166471
168857
171145
173339
175448
177471
179410
181257
182988
184571
185941
186992
187541
187270
185630
181598
718202
717689
717436
717340
717288
717249
717222
717203
717190
717180
717171
717164
717157
717151
717144
717137
717130
717123
717115
717109
717102
717096
717089
717083
717077
717069
717062
717054
717045
717037
717029
717021
717014
717006
716997
716987
716974
716959
716941
716920
716896
716867
716835
716799
716757
716708
716651
716582
716496
716384
716603
716889
716983
717017
717044
717064
717077
717086
717093
717098
717101
717103
717104
717103
717102
717099
717095
717091
717087
717082
717078
717074
717069
717065
717059
717054
717047
717040
717033
717025
717018
717011
717004
716997
716989
716979
716968
716953
716936
716915
716891
716864
716833
716797
716757
716710
716656
716592
716516
716426
717060
717196
717269
717275
717265
717253
717241
717228
717216
717206
717196
717187
717179
717170
717162
717153
717145
717136
717128
717121
717113
717107
717100
717093
717086
717079
717071
717062
717054
717045
717037
717030
717022
717015
717006
716996
716984
716970
716953
716932
716909
716883
716853
716819
716781
716739
716689
716633
716567
716493
717081
717107
717118
717114
717107
717103
717102
717101
717101
717100
717100
717100
717099
717098
717096
717092
717089
717085
717081
717077
717073
717070
717066
717062
717057
717052
717045
717039
717032
717025
717019
717013
717007
717001
716994
716985
716974
716961
716945
716927
716905
716881
716854
716824
716790
716752
716709
716661
716607
716547
717114
717130
717149
717164
717172
717177
717179
717180
717179
717176
717173
717170
717165
717160
717154
717148
717141
717134
717128
717121
717115
717110
717104
717098
717091
717084
717077
717069
717061
717054
717047
717040
717034
717027
717019
717010
716999
716986
716971
716953
716933
716911
716886
716859
716829
716795
716758
716717
716672
716624
717126
717132
717138
717142
717141
717139
717136
717133
717129
717126
717123
717119
717116
717112
717108
717103
717098
717093
717089
717084
717081
717077
717073
717069
717064
717059
717053
717047
717041
717035
717029
717024
717019
717014
717007
717000
716990
716979
716966
716951
716934
716915
716894
716871
716846
716818
716788
716755
716719
716682
717133
717136
717140
717144
717147
717149
717150
717151
717151
717151
717150
717148
717146
717143
717139
717134
717129
717124
717120
717115
717111
717106
717102
717097
717092
717086
717080
717074
717067
717061
717056
717050
717045
717039
717032
717024
717015
717005
716993
716979
716964
716948
716930
716911
716889
716866
716841
716815
716787
716758
717136
717137
717139
717141
717143
717143
717142
717141
717139
717137
717134
717131
717127
717123
717119
717114
717109
717104
717100
717096
717092
717088
717084
717081
717076
717071
717066
717061
717056
717051
717046
717042
717037
717032
717027
717021
717013
717005
716995
716984
716972
716960
716946
716931
716915
716897
716879
716859
716839
716818
717137
717138
717139
717141
717142
717142
717143
717142
717142
717141
717140
717138
717136
717133
717129
717126
717121
717117
717113
717110
717106
717103
717100
717096
717092
717088
717083
717078
717074
717069
717064
717060
717055
717051
717046
717040
717033
717026
717018
717009
717000
716990
716980
716969
716957
716944
716931
716917
716903
716890
717137
717137
717138
717140
717141
717141
717141
717140
717139
717138
717136
717134
717132
717128
717125
717121
717117
717113
717109
717105
717102
717099
717096
717093
717090
717086
717082
717078
717074
717070
717066
717062
717058
717054
717050
717045
717040
717034
717029
717023
717017
717010
717004
716997
716990
716982
716974
716966
716959
716953
717136
717137
717138
717139
717140
717140
717140
717140
717139
717138
717136
717134
717131
717128
717125
717121
717117
717114
717110
717107
717104
717101
717098
717096
717093
717090
717087
717084
717080
717077
717073
717070
717066
717063
717059
717056
717052
717048
717045
717041
717038
717035
717032
717029
717026
717023
717020
717018
717017
717018
717134
717135
717137
717138
717140
717140
717141
717140
717140
717139
717138
717137
717135
717133
717130
717127
717123
717120
717117
717114
717111
717109
717107
717105
717103
717101
717098
717095
717092
717088
717085
717082
717079
717076
717073
717070
717068
717066
717064
717063
717062
717061
717062
717062
717063
717065
717067
717071
717076
717083
717132
717133
717135
717138
717139
717139
717139
717138
717136
717134
717132
717129
717126
717123
717120
717116
717112
717109
717105
717102
717100
717098
717097
717096
717094
717093
717091
717089
717086
717083
717081
717078
717076
717074
717073
717071
717071
717071
717071
717072
717074
717077
717081
717085
717091
717097
717105
717115
717127
717141
717128
717130
717135
717139
717142
717144
717146
717147
717147
717147
717146
717146
717144
717142
717140
717137
717133
717130
717127
717124
717122
717120
717119
717118
717116
717115
717113
717111
717108
717105
717102
717099
717097
717095
717094
717094
717094
717095
717096
717099
717103
717107
717113
717121
717130
717141
717154
717169
717187
717208
717120
717125
717132
717136
717136
717134
717131
717128
717124
717121
717119
717116
717114
717112
717109
717106
717103
717100
717097
717095
717094
717094
717094
717094
717095
717094
717094
717093
717091
717089
717088
717086
717085
717085
717085
717087
717089
717092
717095
717100
717106
717114
717123
717135
717148
717164
717183
717205
717230
717259
717107
717123
717142
717157
717165
717170
717173
717174
717173
717171
717169
717166
717163
717159
717155
717151
717146
717141
717137
717134
717131
717130
717129
717128
717127
717126
717124
717122
717119
717117
717114
717112
717111
717110
717111
717112
717114
717118
717122
717127
717134
717143
717155
717168
717185
717205
717229
717257
717289
717325
717073
717099
717111
717106
717099
717096
717095
717095
717095
717095
717096
717096
717097
717097
717096
717095
717094
717093
717092
717091
717091
717092
717094
717095
717097
717098
717098
717097
717096
717095
717094
717094
717094
717095
717097
717100
717104
717109
717115
717123
717132
717143
717157
717174
717194
717219
717248
717283
717323
717368
717052
717187
717261
717267
717257
717246
717234
717221
717210
717200
717191
717183
717176
717169
717162
717156
717150
717144
717140
717136
717133
717132
717131
717130
717129
717128
717127
717125
717123
717121
717119
717117
717117
717118
717119
717122
717126
717130
717136
717144
717154
717166
717181
717200
717223
717251
717285
717325
717372
717427
716595
716881
716974
717009
717036
717056
717069
717079
717086
717092
717096
717099
717101
717102
717102
717101
717100
717099
717098
717098
717099
717100
717102
717103
717104
717105
717105
717105
717104
717103
717103
717103
717103
717105
717108
717112
717116
717122
717129
717138
717149
717162
717179
717200
717225
717256
717294
717339
717394
717459
718193
717681
717427
717332
717279
717241
717214
717196
717183
717174
717166
717160
717154
717149
717144
717139
717135
717130
717127
717125
717124
717123
717123
717123
717123
717123
717122
717120
717119
717117
717116
717116
717116
717117
717120
717123
717128
717133
717140
717149
717160
717174
717191
717213
717239
717272
717311
717360
717421
717499
714592
714847
714901
715101
715200
715353
715473
715612
715740
715878
716009
716148
716277
716418
716539
716685
716788
716947
717017
717189
714568
714823
714882
715090
715191
715354
715477
715624
715753
715895
716027
716168
716297
716439
716559
716706
716809
716967
717039
717211
714542
714801
714865
715081
715184
715356
715480
715633
715764
715910
716043
716186
716314
716457
716577
716724
716826
716985
717057
717228
714521
714783
714851
715073
715177
715357
715482
715640
715773
715922
716055
716200
716329
716473
716591
716739
716841
717000
717072
717242
714502
714767
714838
715066
715171
715357
715483
715646
715780
715932
716065
716212
716341
716486
716604
716752
716854
717013
717085
717253
714486
714753
714827
715059
715166
715357
715483
715651
715785
715940
716074
716222
716350
716496
716614
716764
716865
717024
717095
717263
714473
714742
714819
715053
715162
715357
715484
715655
715789
715947
716081
716231
716358
716506
716624
716774
716874
717033
717105
717272
714462
714733
714812
715049
715159
715357
715485
715659
715793
715954
716087
716239
716366
716515
716632
716783
716883
717042
717113
717279
714453
714726
714808
715046
715157
715359
715486
715663
715797
715959
716092
716246
716373
716523
716640
716791
716890
717050
717121
717286
714447
714721
714805
715045
715157
715360
715488
715667
715801
715965
716097
716252
716379
716530
716646
716798
716897
717057
717128
717293
714443
714718
714803
715044
715157
715363
715490
715671
715804
715970
716101
716258
716384
716536
716652
716805
716903
717064
717135
717299
714440
714715
714803
715044
715159
715366
715493
715676
715808
715975
716106
716264
716389
716542
716657
716811
716909
717070
717141
717305
714438
714714
714803
715045
715160
715369
715496
715680
715811
715980
716110
716269
716394
716548
716662
716817
716915
717076
717146
717310
714436
714713
714803
715047
715163
715372
715499
715684
715816
715985
716115
716275
716399
716555
716668
716823
716920
717082
717152
717315
714436
714713
714804
715048
715165
715375
715503
715689
715820
715991
716121
716282
716405
716561
716674
716829
716926
717087
717157
717320
714436
714714
714806
715051
715168
715379
715506
715694
715826
715998
716127
716289
716411
716567
716679
716835
716931
717093
717162
717326
714437
714715
714808
715053
715171
715383
715511
715700
715831
716004
716133
716295
716417
716574
716685
716842
716937
717099
717168
717332
714438
714717
714811
715056
715175
715387
715516
715706
715837
716011
716139
716301
716423
716580
716691
716848
716943
717106
717175
717338
714439
714719
714814
715059
715179
715392
715522
715712
715843
716017
716144
716308
716429
716587
716698
716856
716950
717113
717182
717345
714441
714722
714817
715063
715184
715398
715527
715718
715849
716023
716150
716315
716436
716595
716705
716863
716958
717121
717189
717353
714444
714725
714821
715068
715189
715404
715533
715724
715855
716030
716157
716322
716443
716603
716713
716871
716965
717128
717197
717360
714447
714728
714825
715073
715194
715409
715539
715731
715861
716037
716165
716330
716451
716611
716720
716879
716973
717136
717204
717368
714451
714733
714829
715077
715198
715414
715544
715736
715867
716044
716172
716338
716458
716618
716727
716887
716980
717144
717212
717376
714455
714737
714834
715082
715203
715419
715549
715742
715873
716051
716179
716346
716466
716626
716735
716895
716988
717151
717219
717383
714460
714742
714838
715086
715207
715423
715553
715747
715879
716058
716185
716353
716473
716634
716743
716903
716996
717159
717226
717391
714465
714747
714843
715091
715211
715427
715558
715752
715884
716064
716192
716360
716480
716642
716751
716911
717003
717167
717234
717398
714470
714753
714849
715096
715216
715432
715563
715758
715890
716070
716198
716367
716487
716650
716758
716919
717011
717174
717241
717406
714476
714759
714855
715102
715222
715438
715569
715764
715896
716076
716204
716374
716494
716657
716766
716926
717018
717182
717248
717413
714483
714765
714861
715108
715229
715445
715575
715771
715902
716083
716211
716381
716501
716664
716773
716933
717025
717189
717256
717421
714489
714772
714868
715115
715236
715453
715582
715778
715909
716089
716217
716387
716507
716671
716779
716940
717032
717196
717263
717428
714496
714779
714875
715123
715244
715461
715590
715785
715916
716096
716224
716394
716514
716677
716786
716947
717039
717203
717270
717435
714503
714787
714883
715131
715252
715469
715598
715793
715923
716103
716230
716400
716520
716683
716791
716953
717045
717209
717276
717441
714510
714795
714891
715140
715260
715477
715605
715801
715931
716111
716237
716407
716526
716689
716797
716958
717050
717215
717281
717447
714519
714804
714900
715149
715269
715485
715614
715809
715939
716118
716244
716413
716532
716695
716802
716964
717056
717220
717286
717452
714528
714813
714909
715158
715277
715494
715623
715818
715947
716126
716251
716420
716538
716700
716808
716969
717060
717225
717291
717457
714537
714823
714918
715167
715286
715504
715631
715826
715954
716133
716257
716426
716543
716706
716812
716974
717065
717229
717295
717461
714546
714832
714927
715176
715295
715512
715640
715834
715962
716140
716264
716432
716549
716711
716817
716978
717069
717233
717299
717465
714555
714841
714936
715185
715303
715520
715647
715841
715968
716146
716270
716438
716554
716716
716822
716983
717074
717238
717303
717470
714563
714849
714944
715193
715311
715528
715654
715848
715975
716153
716275
716443
716559
716721
716827
716988
717078
717242
717308
717475
714570
714857
714951
715200
715318
715535
715661
715855
715981
716159
716281
716449
716565
716727
716832
716993
717083
717247
717313
717480
714577
714864
714958
715207
715325
715542
715667
715861
715987
716165
716287
716455
716570
716732
716837
716998
717088
717252
717317
717484
714584
714871
714965
715214
715331
715548
715673
715867
715993
716171
716293
716460
716576
716738
716843
717003
717093
717257
717322
717489
714591
714878
714972
715221
715338
715554
715679
715873
715998
716176
716298
716466
716582
716743
716848
717008
717097
717261
717326
717493
714597
714885
714978
715227
715344
715560
715684
715878
716004
716182
716304
716472
716587
716749
716854
717013
717102
717266
717331
717498
714604
714892
714985
715234
715350
715566
715690
715883
716009
716188
716310
716478
716593
716755
716859
717019
717107
717271
717336
717503
714611
714899
714991
715240
715355
715571
715695
715889
716015
716193
716316
716484
716599
716760
716864
717024
717113
717277
717341
717509
714618
714907
714998
715247
715361
715577
715701
715895
716021
716200
716322
716490
716605
716766
716870
717030
717118
717282
717346
717514
714625
714914
715005
715254
715368
715584
715708
715902
716027
716206
716328
716496
716611
716772
716876
717035
717124
717288
717352
717520
714632
714921
715012
715260
715374
715591
715714
715909
716034
716213
716335
716502
716617
716778
716882
717041
717130
717294
717358
717526
714639
714928
715018
715267
715381
715598
715722
715916
716042
716220
716341
716509
716623
716784
716888
717048
717136
717300
717364
717532
714645
714935
715025
715275
715389
715606
715729
715924
716049
716227
716348
716516
716630
716791
716895
717055
717143
717307
717370
717539
714652
714942
715032
715282
715396
715614
715737
715932
716056
716234
716355
716523
716637
716798
716902
717062
717150
717314
717377
717546
714659
714950
715040
715290
715404
715622
715745
715939
716064
716242
716363
716530
716644
716806
716910
717070
717157
717322
717385
717554
714666
714957
715047
715298
715412
715630
715753
715947
716071
716249
716370
716538
716652
716814
716917
717077
717165
717330
717393
717563
714673
714965
715055
715306
715420
715638
715761
715955
716079
716258
716379
716546
716660
716822
716925
717086
717173
717338
717401
717571
714680
714973
715063
715314
715428
715646
715768
715963
716087
716266
716387
716554
716668
716830
716933
717094
717182
717346
717409
717579
714687
714980
715070
715322
715435
715654
715776
715971
716095
716274
716394
716562
716676
716838
716941
717102
717189
717354
717417
717587
714694
714987
715077
715329
715442
715661
715784
715979
716103
716281
716402
716569
716683
716845
716948
717109
717196
717361
717424
717594
714700
714994
715083
715335
715449
715668
715791
715986
716110
716288
716409
716576
716690
716852
716955
717116
717203
717367
717430
717600
714705
714999
715088
715341
715455
715674
715796
715992
716116
716294
716415
716583
716696
716858
716961
717122
717209
717373
717436
717606
714709
715004
715093
715346
715459
715679
715801
715997
716121
716300
716421
716588
716702
716864
716967
717127
717214
717379
717441
717612
714712
715008
715096
715350
715463
715683
715805
716001
716126
716304
716425
716593
716707
716869
716972
717132
717219
717384
717447
717618
714715
715011
715100
715353
715467
715686
715809
716005
716130
716309
716430
716598
716712
716873
716977
717137
717224
717390
717452
717624
714718
715014
715103
715356
715469
715689
715812
716008
716133
716312
716434
716602
716716
716878
716981
717142
717229
717395
717457
717629
714721
715017
715105
715359
715472
715692
715815
716012
716137
716316
716438
716606
716721
716883
716986
717147
717234
717400
717462
717634
714724
715021
715108
715362
715475
715695
715818
716015
716140
716320
716442
716611
716725
716887
716991
717152
717239
717404
717466
717638
714728
715024
715112
715366
715478
715699
715822
716018
716144
716324
716446
716615
716730
716893
716996
717157
717244
717409
717471
717643
714732
715029
715116
715370
715482
715703
715825
716022
716148
716328
716451
716620
716735
716898
717001
717162
717249
717414
717476
717649
714737
715034
715121
715375
715487
715707
715830
716027
716153
716333
716456
716625
716741
716903
717007
717168
717255
717420
717482
717655
714743
715041
715127
715381
715493
715713
715836
716033
716159
716339
716462
716631
716747
716909
717013
717174
717261
717427
717489
717663
714751
715049
715134
715389
715500
715720
715843
716040
716166
716346
716469
716638
716754
716916
717020
717181
717269
717435
717497
717670
714760
715058
715144
715398
715509
715729
715852
716048
716174
716354
716476
716645
716761
716923
717027
717189
717276
717443
717505
717679
714770
715069
715154
715409
715519
715740
715862
716058
716183
716362
716485
716653
716768
716931
717035
717197
717284
717451
717513
717687
714781
715081
715166
715420
715531
715751
715872
716068
716193
716371
716494
716661
716777
716939
717043
717205
717292
717459
717521
717695
714793
715093
715177
715432
715542
715762
715884
716079
716203
716381
716503
716670
716785
716947
717051
717213
717301
717468
717529
717703
714805
715105
715189
715444
715554
715774
715895
716090
716214
716391
716513
716679
716794
716956
717060
717221
717309
717476
717537
717712
714816
715116
715200
715455
715565
715785
715906
716101
716224
716401
716523
716689
716804
716965
717069
717230
717318
717485
717545
717720
714826
715127
715211
715467
715576
715796
715917
716111
716235
716412
716533
716699
716814
716975
717079
717240
717327
717494
717554
717729
714836
715138
715221
715477
715587
715807
715928
716122
716245
716422
716543
716709
716824
716985
717089
717250
717337
717503
717563
717739
714846
715148
715232
715488
715597
715817
715938
716132
716256
716432
716554
716720
716835
716996
717099
717260
717346
717513
717573
717748
714856
715158
715242
715498
715607
715827
715948
716142
716266
716443
716565
716730
716846
717006
717110
717270
717356
717522
717582
717758
714866
715169
715252
715508
715617
715837
715957
716151
716276
716453
716575
716741
716856
717016
717120
717280
717366
717533
717592
717768
714876
715179
715262
715518
715626
715846
715966
716160
716285
716462
716585
716751
716866
717027
717130
717291
717377
717543
717603
717779
714885
715189
715271
715526
715635
715854
715975
716169
716294
716471
716594
716760
716876
717037
717141
717301
717387
717554
717613
717790
714893
715197
715279
715534
715642
715862
715983
716178
716303
716480
716604
716770
716887
717047
717152
717312
717398
717565
717624
717801
714901
715205
715286
715542
715650
715870
715991
716186
716312
716490
716614
716780
716897
717058
717163
717323
717410
717576
717636
717813
714908
715212
715293
715549
715658
715878
716000
716195
716321
716499
716624
716791
716908
717069
717174
717334
717421
717588
717647
717824
714914
715219
715300
715557
715665
715886
716008
716204
716331
716509
716634
716801
716918
717079
717184
717345
717432
717599
717658
717835
714921
715226
715307
715564
715673
715894
716017
716213
716340
716518
716644
716810
716928
717089
717194
717355
717442
717609
717668
717846
714928
715234
715315
715572
715681
715903
716026
716222
716350
716527
716653
716820
716938
717099
717204
717365
717452
717619
717678
717857
714935
715241
715322
715580
715690
715911
716035
716230
716359
716536
716662
716829
716947
717108
717214
717375
717462
717629
717688
717867
714942
715249
715330
715588
715698
715919
716043
716239
716367
716545
716671
716837
716956
717117
717223
717384
717471
717639
717698
717876
714950
715257
715337
715596
715706
715927
716051
716247
716375
716553
716679
716845
716964
717125
717231
717393
717480
717648
717706
717886
714957
715265
715345
715604
715714
715935
716059
716254
716383
716560
716687
716853
716973
717133
717240
717401
717489
717656
717715
717894
714964
715273
715353
715611
715721
715943
716067
716262
716391
716568
716695
716861
716981
717141
717248
717409
717496
717664
717722
717902
714972
715281
715361
715619
715729
715950
716075
716269
716399
716575
716703
716868
716989
717149
717256
717417
717504
717671
717729
717909
714980
715289
715369
715627
715737
715958
716083
716277
716407
716583
716711
716876
716996
717156
717263
717423
717510
717677
717735
717915
714988
715298
715377
715636
715745
715966
716091
716285
716414
716590
716718
716883
717003
717163
717269
717429
717516
717683
717741
717921
714996
715306
715385
715644
715754
715974
716099
716292
716422
716597
716726
716890
717010
717169
717275
717435
717521
717689
717746
717927
715005
715315
715394
715653
715762
715982
716107
716299
716430
716604
716732
716896
717016
717174
717281
717440
717526
717694
717751
717932
715013
715323
715402
715661
715770
715990
716114
716307
716437
716611
716739
716902
717022
717180
717286
717445
717532
717699
717756
717938
715021
715332
715410
715668
715778
715997
716122
716314
716444
716617
716746
716908
717028
717185
717291
717451
717537
717704
717761
717943
715028
715340
715418
715676
715785
716005
716129
716321
716451
716624
716752
716914
717034
717191
717297
717456
717542
717709
717767
717948
715036
715348
715425
715684
715793
716012
716137
716328
716458
716630
716759
716919
717040
717196
717302
717461
717547
717715
717772
717954
715044
715356
715433
715692
715801
716019
716144
716335
716465
716637
716765
716925
717046
717202
717308
717466
717552
717720
717777
717959
715051
715364
715441
715700
715809
716027
716152
716342
716472
716643
716772
716931
717052
717207
717314
717472
717558
717725
717782
717964
715059
715372
715449
715707
715817
716034
716160
716349
716479
716649
716778
716937
717058
717213
717319
717477
717563
717730
717787
717970
715067
715380
715457
715715
715824
716042
716167
716356
716487
716656
716785
716944
717064
717219