/*--------------------------------*- C++ -*----------------------------------*\
  =========                 |
  \\      /  F ield         | OpenFOAM: The Open Source CFD Toolbox
   \\    /   O peration     | Website:  https://openfoam.org
    \\  /    A nd           | Version:  8
     \\/     M anipulation  |
\*---------------------------------------------------------------------------*/
FoamFile
{
    version     2.0;
    format      ascii;
    class       volScalarField;
    location    "100";
    object      T;
}
// * * * * * * * * * * * * * * * * * * * * * * * * * * * * * * * * * * * * * //

dimensions      [0 0 0 1 0 0 0];

internalField   nonuniform List<scalar> 
8400
(
293.213
293.196
293.183
293.175
293.169
293.165
293.162
293.16
293.159
293.158
293.158
293.158
293.157
293.157
293.157
293.157
293.157
293.157
293.156
293.156
293.156
293.156
293.156
293.156
293.156
293.156
293.156
293.156
293.156
293.156
293.156
293.156
293.156
293.156
293.157
293.157
293.157
293.157
293.157
293.158
293.158
293.158
293.159
293.159
293.159
293.16
293.16
293.16
293.16
293.16
293.251
293.231
293.217
293.207
293.2
293.195
293.191
293.189
293.187
293.186
293.185
293.185
293.184
293.183
293.183
293.182
293.182
293.181
293.181
293.181
293.18
293.18
293.18
293.179
293.179
293.179
293.179
293.178
293.178
293.178
293.178
293.178
293.178
293.178
293.178
293.178
293.178
293.178
293.178
293.178
293.178
293.178
293.178
293.178
293.178
293.178
293.178
293.178
293.178
293.178
293.25
293.231
293.217
293.207
293.2
293.195
293.192
293.189
293.188
293.187
293.186
293.185
293.184
293.184
293.183
293.183
293.182
293.182
293.181
293.181
293.181
293.18
293.18
293.18
293.18
293.179
293.179
293.179
293.179
293.179
293.179
293.179
293.179
293.179
293.179
293.179
293.179
293.179
293.179
293.179
293.18
293.18
293.18
293.18
293.18
293.181
293.181
293.181
293.181
293.181
293.241
293.224
293.212
293.203
293.197
293.193
293.19
293.188
293.186
293.185
293.185
293.184
293.183
293.183
293.182
293.182
293.182
293.181
293.181
293.181
293.18
293.18
293.18
293.18
293.18
293.179
293.179
293.179
293.179
293.179
293.179
293.179
293.179
293.179
293.179
293.179
293.179
293.179
293.18
293.18
293.18
293.18
293.18
293.18
293.181
293.181
293.181
293.181
293.181
293.181
293.226
293.212
293.203
293.197
293.192
293.189
293.187
293.185
293.184
293.183
293.183
293.182
293.182
293.181
293.181
293.18
293.18
293.18
293.18
293.179
293.179
293.179
293.179
293.179
293.178
293.178
293.178
293.178
293.178
293.178
293.178
293.178
293.178
293.178
293.178
293.178
293.179
293.179
293.179
293.179
293.179
293.179
293.18
293.18
293.18
293.18
293.18
293.181
293.181
293.181
293.213
293.203
293.197
293.192
293.189
293.186
293.185
293.183
293.183
293.182
293.181
293.181
293.18
293.18
293.18
293.179
293.179
293.179
293.179
293.178
293.178
293.178
293.178
293.178
293.178
293.178
293.177
293.177
293.177
293.177
293.177
293.177
293.177
293.177
293.178
293.178
293.178
293.178
293.178
293.178
293.178
293.178
293.179
293.179
293.179
293.179
293.179
293.18
293.18
293.18
293.23
293.22
293.212
293.206
293.2
293.196
293.193
293.191
293.189
293.187
293.186
293.184
293.183
293.182
293.182
293.181
293.18
293.18
293.179
293.179
293.178
293.178
293.178
293.178
293.177
293.177
293.177
293.177
293.177
293.177
293.177
293.176
293.176
293.176
293.176
293.176
293.176
293.177
293.177
293.177
293.177
293.177
293.177
293.177
293.177
293.178
293.178
293.178
293.178
293.178
293.392
293.364
293.339
293.316
293.297
293.281
293.268
293.256
293.246
293.238
293.231
293.225
293.22
293.215
293.211
293.207
293.204
293.201
293.198
293.195
293.193
293.191
293.189
293.188
293.186
293.185
293.183
293.182
293.181
293.18
293.18
293.179
293.178
293.178
293.177
293.177
293.177
293.176
293.176
293.176
293.176
293.176
293.176
293.176
293.176
293.176
293.176
293.177
293.177
293.177
294.022
293.938
293.858
293.787
293.723
293.668
293.62
293.578
293.541
293.508
293.479
293.453
293.43
293.408
293.389
293.371
293.355
293.34
293.326
293.313
293.3
293.289
293.278
293.268
293.258
293.249
293.241
293.234
293.227
293.22
293.214
293.209
293.204
293.2
293.196
293.192
293.189
293.186
293.184
293.182
293.18
293.179
293.178
293.177
293.177
293.177
293.176
293.176
293.176
293.177
295.577
295.406
295.241
295.089
294.951
294.828
294.717
294.617
294.527
294.444
294.367
294.296
294.23
294.168
294.109
294.053
294
293.949
293.9
293.853
293.808
293.764
293.722
293.682
293.643
293.606
293.57
293.535
293.502
293.471
293.441
293.413
293.386
293.361
293.338
293.316
293.296
293.277
293.261
293.246
293.233
293.221
293.211
293.203
293.196
293.19
293.186
293.183
293.181
293.18
297.905
297.71
297.517
297.335
297.168
297.014
296.872
296.739
296.613
296.494
296.379
296.268
296.16
296.054
295.951
295.848
295.747
295.647
295.548
295.45
295.353
295.256
295.16
295.064
294.969
294.875
294.782
294.689
294.597
294.506
294.416
294.327
294.24
294.153
294.069
293.986
293.905
293.827
293.751
293.679
293.609
293.544
293.483
293.427
293.377
293.332
293.294
293.262
293.236
293.216
299.636
299.551
299.464
299.379
299.299
299.221
299.147
299.074
299.003
298.931
298.859
298.785
298.71
298.633
298.553
298.471
298.386
298.298
298.207
298.113
298.016
297.917
297.814
297.708
297.599
297.487
297.372
297.253
297.131
297.005
296.876
296.743
296.605
296.463
296.316
296.164
296.007
295.844
295.676
295.501
295.321
295.136
294.947
294.754
294.561
294.369
294.18
293.998
293.827
293.668
300
299.998
299.996
299.994
299.991
299.988
299.985
299.981
299.977
299.973
299.968
299.962
299.956
299.949
299.941
299.932
299.922
299.911
299.898
299.884
299.868
299.85
299.831
299.81
299.786
299.761
299.733
299.703
299.671
299.635
299.597
299.555
299.51
299.46
299.406
299.346
299.28
299.205
299.122
299.026
298.917
298.79
298.642
298.47
298.267
298.031
297.755
297.437
297.077
296.682
300.001
300.001
300.001
300.002
300.002
300.002
300.002
300.003
300.003
300.003
300.003
300.004
300.004
300.004
300.004
300.005
300.005
300.005
300.006
300.006
300.006
300.006
300.006
300.006
300.006
300.006
300.006
300.005
300.005
300.004
300.004
300.003
300.002
300.001
299.999
299.998
299.996
299.994
299.992
299.989
299.986
299.983
299.979
299.975
299.971
299.965
299.959
299.952
299.943
299.932
300.002
300.002
300.002
300.003
300.003
300.003
300.004
300.004
300.004
300.005
300.005
300.005
300.006
300.006
300.007
300.007
300.008
300.008
300.008
300.009
300.009
300.01
300.01
300.01
300.011
300.011
300.011
300.011
300.011
300.011
300.011
300.011
300.011
300.011
300.011
300.011
300.01
300.01
300.009
300.008
300.007
300.006
300.005
300.004
300.002
300
299.998
299.995
299.992
299.988
300.002
300.003
300.003
300.004
300.004
300.005
300.005
300.006
300.007
300.007
300.008
300.008
300.009
300.01
300.01
300.011
300.011
300.012
300.012
300.013
300.013
300.014
300.014
300.014
300.015
300.015
300.015
300.015
300.016
300.016
300.016
300.016
300.016
300.016
300.016
300.016
300.016
300.016
300.016
300.016
300.016
300.016
300.016
300.016
300.015
300.015
300.014
300.013
300.012
300.01
300.008
300.01
300.011
300.011
300.012
300.013
300.013
300.014
300.015
300.015
300.016
300.016
300.017
300.017
300.018
300.018
300.019
300.019
300.019
300.02
300.02
300.021
300.021
300.021
300.022
300.022
300.022
300.022
300.023
300.023
300.023
300.023
300.023
300.024
300.024
300.024
300.024
300.024
300.025
300.025
300.025
300.026
300.026
300.026
300.027
300.027
300.028
300.028
300.028
300.028
300.002
300.003
300.003
300.003
300.004
300.004
300.005
300.006
300.007
300.008
300.009
300.01
300.011
300.012
300.013
300.014
300.015
300.016
300.017
300.019
300.02
300.021
300.022
300.023
300.024
300.025
300.026
300.027
300.028
300.029
300.03
300.031
300.032
300.033
300.034
300.035
300.036
300.036
300.037
300.038
300.039
300.04
300.041
300.042
300.043
300.043
300.044
300.045
300.046
300.046
300.022
300.026
300.029
300.032
300.035
300.038
300.041
300.043
300.046
300.048
300.051
300.053
300.056
300.058
300.06
300.062
300.064
300.066
300.068
300.07
300.071
300.073
300.075
300.076
300.077
300.079
300.08
300.081
300.083
300.084
300.085
300.086
300.087
300.088
300.088
300.089
300.09
300.091
300.092
300.093
300.093
300.094
300.095
300.096
300.097
300.097
300.098
300.099
300.1
300.1
300.001
300.002
300.002
300.001
300.001
300.001
300.001
300.001
300.001
300.001
300.001
300.001
300.001
300.001
300.001
300.001
300.001
300.001
300.001
300.001
300
300
300
300
300
300
300
299.999
299.999
299.999
299.999
299.999
299.998
299.998
299.998
299.998
299.997
299.997
299.997
299.997
299.997
299.997
299.997
299.997
299.998
299.998
299.999
300
300.001
300.002
303.147
303.143
303.139
303.135
303.131
303.127
303.123
303.12
303.116
303.112
303.109
303.105
303.102
303.098
303.095
303.092
303.088
303.085
303.082
303.079
303.075
303.072
303.069
303.066
303.063
303.06
303.057
303.054
303.051
303.048
303.045
303.043
303.04
303.037
303.034
303.032
303.029
303.026
303.023
303.021
303.018
303.016
303.013
303.011
303.009
303.006
303.004
303.002
303.001
302.999
303.15
303.15
303.15
303.15
303.15
303.149
303.149
303.149
303.149
303.149
303.148
303.148
303.148
303.147
303.147
303.147
303.146
303.146
303.146
303.145
303.145
303.144
303.144
303.143
303.143
303.142
303.142
303.141
303.141
303.141
303.14
303.14
303.139
303.139
303.138
303.138
303.137
303.137
303.136
303.136
303.135
303.135
303.135
303.134
303.134
303.133
303.133
303.133
303.132
303.132
303.15
303.15
303.15
303.15
303.15
303.15
303.15
303.15
303.15
303.15
303.15
303.15
303.15
303.15
303.15
303.15
303.15
303.15
303.15
303.15
303.15
303.15
303.15
303.15
303.15
303.15
303.15
303.15
303.15
303.149
303.149
303.149
303.149
303.149
303.149
303.149
303.149
303.149
303.149
303.149
303.149
303.149
303.149
303.149
303.149
303.149
303.149
303.149
303.149
303.148
303.15
303.15
303.15
303.15
303.15
303.15
303.15
303.15
303.15
303.15
303.15
303.15
303.15
303.15
303.15
303.15
303.15
303.15
303.15
303.15
303.15
303.15
303.15
303.15
303.15
303.15
303.15
303.15
303.15
303.15
303.15
303.15
303.15
303.15
303.15
303.15
303.15
303.15
303.15
303.15
303.15
303.15
303.15
303.15
303.15
303.15
303.15
303.15
303.15
303.15
303.15
303.15
303.15
303.15
303.15
303.15
303.15
303.15
303.15
303.15
303.15
303.15
303.15
303.15
303.15
303.15
303.15
303.15
303.15
303.15
303.15
303.15
303.15
303.15
303.15
303.15
303.15
303.15
303.15
303.15
303.15
303.15
303.15
303.15
303.15
303.15
303.15
303.15
303.15
303.15
303.15
303.15
303.15
303.15
303.15
303.15
303.15
303.15
303.15
303.15
303.15
303.15
303.15
303.15
303.15
303.15
303.15
303.15
303.15
303.15
303.15
303.15
303.15
303.15
303.15
303.15
303.15
303.15
303.15
303.15
303.15
303.15
303.15
303.15
303.15
303.15
303.15
303.15
303.15
303.15
303.15
303.15
303.15
303.15
303.15
303.15
303.15
303.15
303.15
303.15
303.15
303.15
303.15
303.15
303.15
303.15
303.15
303.15
303.15
303.15
303.15
303.15
303.15
303.15
303.15
303.15
303.15
303.15
303.15
303.15
303.15
303.15
303.15
303.15
303.15
303.15
303.15
303.15
303.15
303.15
303.15
303.15
303.15
303.15
303.15
303.15
303.15
303.15
303.15
303.15
303.15
303.15
303.15
303.15
303.15
303.15
303.15
303.15
303.15
303.15
303.15
303.15
303.15
303.15
303.15
303.15
303.15
303.15
303.15
303.15
303.15
303.15
303.15
303.15
303.15
303.15
303.15
303.15
303.15
303.15
303.15
303.15
303.15
303.15
303.15
303.15
303.15
303.15
303.15
303.15
303.15
303.15
303.15
303.15
303.15
303.15
303.15
303.15
303.15
303.15
303.15
303.15
303.15
303.15
303.15
303.15
303.15
303.15
303.15
303.15
303.15
303.15
303.15
303.15
303.15
303.15
303.15
303.15
303.15
303.15
303.15
303.15
303.15
303.15
303.15
303.15
303.15
303.15
303.15
303.15
303.15
303.15
303.15
303.15
303.15
303.15
303.15
303.15
303.15
303.15
303.15
303.15
303.15
303.15
303.15
303.15
303.15
303.15
303.15
303.15
303.15
303.15
303.15
303.15
303.15
303.15
303.15
303.15
303.15
303.15
303.15
303.15
303.15
303.15
303.15
303.15
303.15
303.15
303.15
303.15
303.15
303.15
303.15
303.15
303.15
303.15
303.15
303.15
303.15
303.15
303.15
303.15
303.15
303.15
303.15
303.15
303.15
303.15
303.15
303.15
303.15
303.15
303.15
303.15
303.15
303.15
303.15
303.15
303.15
303.15
303.15
303.15
303.15
303.15
303.15
303.15
303.15
303.15
303.15
303.15
303.15
303.15
303.15
303.15
303.15
303.15
303.15
303.15
303.15
303.15
303.15
303.15
303.15
303.15
303.15
303.15
303.15
303.15
303.15
303.15
303.15
303.15
303.15
303.15
303.15
303.15
303.15
303.15
303.15
303.15
303.15
303.15
303.15
303.15
303.15
303.15
303.15
303.15
303.15
303.15
303.15
303.15
303.15
303.15
303.15
303.15
303.15
303.15
303.15
303.15
303.15
303.15
303.15
303.15
303.15
303.15
303.15
303.15
303.15
303.15
303.15
303.15
303.15
303.15
303.15
303.15
303.15
303.15
303.15
303.15
303.15
303.15
303.15
303.15
303.15
303.15
303.15
303.15
303.15
303.15
303.15
303.15
303.15
303.15
303.15
303.15
303.15
303.15
303.15
303.15
303.15
303.15
303.15
303.15
303.15
303.15
303.15
303.15
303.15
303.15
303.15
303.15
303.15
303.15
303.15
303.15
303.15
303.15
303.15
303.15
303.15
303.15
303.15
303.15
303.15
303.15
303.15
303.15
303.15
303.15
303.15
303.15
303.15
303.15
303.15
303.15
303.15
303.15
303.15
303.15
303.15
303.15
303.15
303.15
303.15
303.15
303.15
303.15
303.15
303.15
303.15
303.15
303.15
303.15
303.15
303.15
303.15
303.15
303.15
303.15
303.15
303.15
303.15
303.15
303.15
303.15
303.15
303.15
303.15
303.15
303.15
303.15
303.15
303.15
303.15
303.15
303.15
303.15
303.15
303.15
303.15
303.15
303.15
303.15
303.15
303.15
303.15
303.15
303.15
303.15
303.15
303.15
303.15
303.15
303.15
303.15
303.15
303.15
303.15
303.15
303.15
303.15
303.15
303.15
303.15
303.15
303.15
303.15
303.15
303.15
303.15
303.15
303.15
303.15
303.15
303.15
303.15
303.15
303.15
303.15
303.15
303.15
303.15
303.15
303.15
303.15
303.15
303.15
303.15
303.15
303.15
303.15
303.15
303.15
303.15
303.15
303.15
303.15
303.15
303.15
303.15
303.15
303.15
303.15
303.15
303.15
303.15
303.15
303.15
303.15
303.15
303.15
303.15
303.15
303.15
303.15
303.15
303.15
303.15
303.15
303.15
303.15
303.15
303.15
303.15
303.15
303.15
303.15
303.15
303.15
303.15
303.15
303.15
303.15
303.15
303.15
303.15
303.15
303.15
303.15
303.15
303.15
303.15
303.15
303.15
303.15
303.15
303.15
303.15
303.15
303.15
303.15
303.15
303.15
303.15
303.15
303.15
303.15
303.15
303.15
303.15
303.15
303.15
303.15
303.15
303.15
303.15
303.15
303.15
303.15
303.15
303.15
303.15
303.15
303.15
303.15
303.15
303.15
303.15
303.15
303.15
303.15
303.15
303.15
303.15
303.15
303.15
303.15
303.15
303.15
303.15
303.15
303.15
303.15
303.15
303.15
303.15
303.15
303.15
303.15
303.15
303.15
303.15
303.15
303.15
303.15
303.15
303.15
303.15
303.15
303.15
303.15
303.15
303.15
303.15
303.15
303.15
303.15
303.15
303.15
303.15
303.15
303.15
303.15
303.15
303.15
303.15
303.15
303.15
303.149
303.15
303.15
303.15
303.15
303.15
303.15
303.15
303.15
303.15
303.15
303.15
303.15
303.15
303.15
303.15
303.15
303.15
303.15
303.15
303.15
303.15
303.15
303.15
303.15
303.15
303.15
303.15
303.149
303.149
303.149
303.149
303.149
303.149
303.149
303.149
303.149
303.149
303.149
303.149
303.149
303.149
303.148
303.148
303.148
303.148
303.148
303.148
303.147
303.147
303.146
303.15
303.15
303.15
303.15
303.15
303.149
303.149
303.149
303.149
303.149
303.148
303.148
303.148
303.147
303.147
303.147
303.146
303.146
303.146
303.145
303.145
303.144
303.144
303.143
303.143
303.142
303.142
303.141
303.141
303.14
303.14
303.139
303.139
303.138
303.138
303.137
303.136
303.136
303.135
303.134
303.134
303.133
303.132
303.131
303.13
303.129
303.128
303.127
303.126
303.124
303.147
303.143
303.139
303.135
303.131
303.127
303.123
303.12
303.116
303.112
303.109
303.105
303.102
303.098
303.095
303.092
303.088
303.085
303.082
303.079
303.075
303.072
303.069
303.066
303.063
303.06
303.057
303.054
303.051
303.048
303.045
303.042
303.04
303.037
303.034
303.031
303.029
303.026
303.023
303.021
303.018
303.015
303.013
303.01
303.007
303.005
303.002
303
302.997
302.994
293.002
293.069
293.09
293.103
293.112
293.119
293.125
293.13
293.134
293.138
293.14
293.142
293.143
293.144
293.145
293.146
293.147
293.148
293.14
293.033
292.999
293.072
293.095
293.107
293.116
293.122
293.128
293.132
293.136
293.139
293.141
293.143
293.144
293.145
293.146
293.147
293.148
293.148
293.14
293.027
292.996
293.075
293.1
293.112
293.12
293.126
293.131
293.135
293.138
293.141
293.142
293.144
293.145
293.146
293.147
293.147
293.148
293.148
293.139
293.021
292.994
293.08
293.105
293.117
293.124
293.13
293.134
293.137
293.14
293.142
293.144
293.145
293.146
293.147
293.147
293.148
293.148
293.148
293.138
293.015
292.993
293.085
293.111
293.122
293.129
293.133
293.137
293.14
293.142
293.143
293.145
293.146
293.147
293.147
293.148
293.148
293.149
293.148
293.138
293.009
292.993
293.09
293.116
293.127
293.133
293.137
293.14
293.142
293.143
293.145
293.146
293.147
293.147
293.148
293.148
293.149
293.149
293.149
293.137
293.004
292.992
293.095
293.121
293.131
293.136
293.14
293.142
293.144
293.145
293.146
293.147
293.147
293.148
293.148
293.149
293.149
293.149
293.149
293.136
292.998
292.992
293.099
293.126
293.135
293.14
293.142
293.144
293.145
293.146
293.147
293.148
293.148
293.149
293.149
293.149
293.149
293.149
293.149
293.135
292.993
292.992
293.103
293.13
293.139
293.142
293.144
293.146
293.147
293.147
293.148
293.148
293.149
293.149
293.149
293.149
293.149
293.149
293.149
293.135
292.989
292.992
293.107
293.133
293.141
293.144
293.146
293.147
293.148
293.148
293.149
293.149
293.149
293.149
293.149
293.149
293.149
293.149
293.149
293.134
292.984
292.992
293.111
293.136
293.144
293.146
293.147
293.148
293.148
293.149
293.149
293.149
293.149
293.149
293.15
293.15
293.15
293.15
293.149
293.133
292.98
292.992
293.114
293.139
293.145
293.147
293.148
293.149
293.149
293.149
293.149
293.15
293.15
293.15
293.15
293.15
293.15
293.15
293.149
293.133
292.976
292.992
293.117
293.141
293.147
293.148
293.149
293.149
293.149
293.15
293.15
293.15
293.15
293.15
293.15
293.15
293.15
293.15
293.149
293.132
292.973
292.992
293.119
293.143
293.148
293.149
293.149
293.15
293.15
293.15
293.15
293.15
293.15
293.15
293.15
293.15
293.15
293.15
293.149
293.132
292.969
292.992
293.121
293.144
293.148
293.149
293.15
293.15
293.15
293.15
293.15
293.15
293.15
293.15
293.15
293.15
293.15
293.15
293.149
293.131
292.966
292.992
293.123
293.145
293.149
293.15
293.15
293.15
293.15
293.15
293.15
293.15
293.15
293.15
293.15
293.15
293.15
293.15
293.149
293.131
292.963
292.992
293.125
293.146
293.149
293.15
293.15
293.15
293.15
293.15
293.15
293.15
293.15
293.15
293.15
293.15
293.15
293.15
293.149
293.13
292.961
292.992
293.126
293.147
293.15
293.15
293.15
293.15
293.15
293.15
293.15
293.15
293.15
293.15
293.15
293.15
293.15
293.15
293.149
293.13
292.959
292.992
293.127
293.147
293.15
293.15
293.15
293.15
293.15
293.15
293.15
293.15
293.15
293.15
293.15
293.15
293.15
293.15
293.149
293.129
292.957
292.992
293.128
293.148
293.15
293.15
293.15
293.15
293.15
293.15
293.15
293.15
293.15
293.15
293.15
293.15
293.15
293.15
293.149
293.129
292.955
292.992
293.129
293.148
293.15
293.15
293.15
293.15
293.15
293.15
293.15
293.15
293.15
293.15
293.15
293.15
293.15
293.15
293.149
293.128
292.953
292.992
293.129
293.148
293.15
293.15
293.15
293.15
293.15
293.15
293.15
293.15
293.15
293.15
293.15
293.15
293.15
293.15
293.149
293.128
292.952
292.992
293.13
293.148
293.15
293.15
293.15
293.15
293.15
293.15
293.15
293.15
293.15
293.15
293.15
293.15
293.15
293.15
293.149
293.127
292.951
292.991
293.13
293.149
293.15
293.15
293.15
293.15
293.15
293.15
293.15
293.15
293.15
293.15
293.15
293.15
293.15
293.15
293.149
293.127
292.95
292.991
293.131
293.149
293.15
293.15
293.15
293.15
293.15
293.15
293.15
293.15
293.15
293.15
293.15
293.15
293.15
293.15
293.149
293.127
292.949
292.991
293.131
293.149
293.15
293.15
293.15
293.15
293.15
293.15
293.15
293.15
293.15
293.15
293.15
293.15
293.15
293.15
293.149
293.126
292.948
292.99
293.131
293.149
293.15
293.15
293.15
293.15
293.15
293.15
293.15
293.15
293.15
293.15
293.15
293.15
293.15
293.15
293.149
293.126
292.947
292.99
293.131
293.149
293.15
293.15
293.15
293.15
293.15
293.15
293.15
293.15
293.15
293.15
293.15
293.15
293.15
293.15
293.148
293.125
292.946
292.99
293.131
293.149
293.15
293.15
293.15
293.15
293.15
293.15
293.15
293.15
293.15
293.15
293.15
293.15
293.15
293.15
293.148
293.125
292.946
292.99
293.131
293.149
293.15
293.15
293.15
293.15
293.15
293.15
293.15
293.15
293.15
293.15
293.15
293.15
293.15
293.15
293.148
293.125
292.945
292.989
293.131
293.149
293.15
293.15
293.15
293.15
293.15
293.15
293.15
293.15
293.15
293.15
293.15
293.15
293.15
293.15
293.148
293.124
292.944
292.989
293.131
293.149
293.15
293.15
293.15
293.15
293.15
293.15
293.15
293.15
293.15
293.15
293.15
293.15
293.15
293.15
293.148
293.124
292.944
292.988
293.131
293.149
293.15
293.15
293.15
293.15
293.15
293.15
293.15
293.15
293.15
293.15
293.15
293.15
293.15
293.15
293.148
293.124
292.943
292.988
293.131
293.149
293.15
293.15
293.15
293.15
293.15
293.15
293.15
293.15
293.15
293.15
293.15
293.15
293.15
293.15
293.148
293.123
292.943
292.988
293.131
293.149
293.15
293.15
293.15
293.15
293.15
293.15
293.15
293.15
293.15
293.15
293.15
293.15
293.15
293.15
293.148
293.123
292.942
292.987
293.131
293.149
293.15
293.15
293.15
293.15
293.15
293.15
293.15
293.15
293.15
293.15
293.15
293.15
293.15
293.15
293.148
293.123
292.942
292.987
293.131
293.149
293.15
293.15
293.15
293.15
293.15
293.15
293.15
293.15
293.15
293.15
293.15
293.15
293.15
293.15
293.148
293.123
292.941
292.987
293.131
293.149
293.15
293.15
293.15
293.15
293.15
293.15
293.15
293.15
293.15
293.15
293.15
293.15
293.15
293.15
293.148
293.122
292.941
292.986
293.131
293.149
293.15
293.15
293.15
293.15
293.15
293.15
293.15
293.15
293.15
293.15
293.15
293.15
293.15
293.15
293.148
293.122
292.94
292.986
293.131
293.149
293.15
293.15
293.15
293.15
293.15
293.15
293.15
293.15
293.15
293.15
293.15
293.15
293.15
293.15
293.148
293.122
292.94
292.985
293.131
293.149
293.15
293.15
293.15
293.15
293.15
293.15
293.15
293.15
293.15
293.15
293.15
293.15
293.15
293.15
293.148
293.121
292.939
292.985
293.131
293.149
293.15
293.15
293.15
293.15
293.15
293.15
293.15
293.15
293.15
293.15
293.15
293.15
293.15
293.15
293.148
293.121
292.939
292.984
293.13
293.149
293.15
293.15
293.15
293.15
293.15
293.15
293.15
293.15
293.15
293.15
293.15
293.15
293.15
293.15
293.148
293.121
292.938
292.984
293.13
293.149
293.15
293.15
293.15
293.15
293.15
293.15
293.15
293.15
293.15
293.15
293.15
293.15
293.15
293.15
293.148
293.121
292.938
292.983
293.13
293.149
293.15
293.15
293.15
293.15
293.15
293.15
293.15
293.15
293.15
293.15
293.15
293.15
293.15
293.15
293.148
293.12
292.937
292.983
293.13
293.149
293.15
293.15
293.15
293.15
293.15
293.15
293.15
293.15
293.15
293.15
293.15
293.15
293.15
293.15
293.148
293.12
292.937
292.983
293.13
293.149
293.15
293.15
293.15
293.15
293.15
293.15
293.15
293.15
293.15
293.15
293.15
293.15
293.15
293.15
293.148
293.12
292.936
292.982
293.13
293.149
293.15
293.15
293.15
293.15
293.15
293.15
293.15
293.15
293.15
293.15
293.15
293.15
293.15
293.15
293.148
293.12
292.935
292.982
293.13
293.149
293.15
293.15
293.15
293.15
293.15
293.15
293.15
293.15
293.15
293.15
293.15
293.15
293.15
293.15
293.148
293.119
292.935
292.981
293.13
293.149
293.15
293.151
293.151
293.151
293.151
293.151
293.15
293.15
293.15
293.15
293.15
293.15
293.15
293.15
293.148
293.119
292.934
292.981
293.13
293.149
293.151
293.151
293.151
293.151
293.151
293.151
293.151
293.151
293.151
293.151
293.151
293.151
293.151
293.15
293.148
293.119
292.934
292.98
293.13
293.15
293.151
293.151
293.151
293.151
293.151
293.151
293.151
293.151
293.151
293.151
293.151
293.151
293.151
293.151
293.148
293.119
292.933
292.98
293.13
293.15
293.151
293.151
293.151
293.151
293.151
293.151
293.151
293.151
293.151
293.151
293.151
293.151
293.151
293.151
293.148
293.119
292.933
292.98
293.13
293.15
293.151
293.151
293.151
293.151
293.151
293.151
293.151
293.151
293.151
293.151
293.151
293.151
293.151
293.151
293.148
293.119
292.932
292.979
293.13
293.15
293.151
293.152
293.152
293.152
293.151
293.151
293.151
293.151
293.151
293.151
293.151
293.151
293.151
293.151
293.149
293.119
292.932
292.979
293.13
293.15
293.152
293.152
293.152
293.152
293.152
293.152
293.152
293.152
293.152
293.152
293.152
293.152
293.152
293.152
293.149
293.119
292.932
292.979
293.13
293.151
293.152
293.152
293.152
293.152
293.152
293.152
293.152
293.152
293.152
293.152
293.152
293.152
293.152
293.152
293.149
293.119
292.931
292.979
293.13
293.151
293.153
293.153
293.153
293.153
293.153
293.153
293.153
293.153
293.153
293.153
293.153
293.153
293.153
293.153
293.15
293.119
292.931
292.979
293.131
293.152
293.153
293.154
293.153
293.153
293.153
293.153
293.153
293.153
293.153
293.153
293.153
293.153
293.153
293.153
293.15
293.119
292.931
292.979
293.131
293.153
293.154
293.154
293.154
293.154
293.154
293.154
293.154
293.154
293.154
293.154
293.154
293.154
293.154
293.154
293.151
293.12
292.931
292.979
293.132
293.154
293.155
293.155
293.155
293.155
293.155
293.155
293.155
293.155
293.155
293.155
293.155
293.155
293.155
293.155
293.152
293.12
292.931
292.98
293.133
293.155
293.156
293.156
293.156
293.156
293.156
293.156
293.156
293.156
293.156
293.156
293.156
293.156
293.156
293.156
293.153
293.121
292.932
292.981
293.134
293.156
293.158
293.158
293.158
293.158
293.158
293.158
293.158
293.158
293.158
293.158
293.158
293.158
293.158
293.157
293.154
293.122
292.932
292.982
293.136
293.158
293.159
293.16
293.159
293.159
293.159
293.159
293.159
293.159
293.159
293.159
293.159
293.159
293.159
293.159
293.156
293.123
292.933
292.983
293.137
293.16
293.162
293.162
293.161
293.161
293.161
293.161
293.161
293.161
293.161
293.161
293.161
293.161
293.161
293.161
293.158
293.125
292.935
292.985
293.14
293.162
293.164
293.164
293.164
293.164
293.164
293.164
293.164
293.164
293.164
293.164
293.164
293.164
293.164
293.164
293.16
293.127
292.936
292.987
293.142
293.165
293.167
293.167
293.167
293.167
293.167
293.166
293.166
293.166
293.166
293.166
293.167
293.167
293.167
293.167
293.163
293.13
292.938
292.99
293.145
293.169
293.17
293.17
293.17
293.17
293.17
293.17
293.17
293.17
293.17
293.17
293.17
293.17
293.17
293.17
293.167
293.133
292.941
292.993
293.149
293.173
293.174
293.174
293.174
293.174
293.174
293.174
293.174
293.174
293.174
293.174
293.174
293.174
293.174
293.174
293.171
293.136
292.945
292.998
293.154
293.178
293.179
293.179
293.179
293.179
293.179
293.179
293.179
293.179
293.179
293.179
293.179
293.179
293.179
293.179
293.176
293.141
292.949
293.003
293.159
293.184
293.185
293.185
293.185
293.185
293.184
293.184
293.184
293.184
293.184
293.184
293.185
293.185
293.185
293.185
293.181
293.146
292.954
293.009
293.166
293.19
293.192
293.192
293.192
293.191
293.191
293.191
293.191
293.191
293.191
293.191
293.191
293.191
293.192
293.192
293.188
293.153
292.96
293.017
293.174
293.199
293.2
293.2
293.199
293.199
293.199
293.199
293.199
293.199
293.199
293.199
293.199
293.199
293.2
293.2
293.196
293.16
292.968
293.026
293.183
293.208
293.209
293.209
293.209
293.208
293.208
293.208
293.208
293.208
293.208
293.208
293.208
293.209
293.209
293.209
293.205
293.169
292.976
293.036
293.193
293.219
293.22
293.22
293.22
293.219
293.219
293.219
293.219
293.219
293.219
293.219
293.219
293.219
293.22
293.22
293.216
293.18
292.987
293.049
293.206
293.232
293.233
293.233
293.232
293.232
293.231
293.231
293.231
293.231
293.231
293.231
293.232
293.232
293.232
293.233
293.229
293.192
292.999
293.063
293.22
293.247
293.248
293.248
293.247
293.246
293.246
293.246
293.246
293.246
293.246
293.246
293.246
293.247
293.247
293.247
293.243
293.206
293.014
293.08
293.237
293.264
293.265
293.265
293.264
293.263
293.263
293.262
293.262
293.262
293.262
293.263
293.263
293.263
293.264
293.264
293.26
293.223
293.031
293.1
293.257
293.284
293.285
293.284
293.283
293.283
293.282
293.282
293.282
293.282
293.282
293.282
293.282
293.283
293.284
293.284
293.28
293.242
293.05
293.122
293.279
293.307
293.308
293.307
293.306
293.305
293.304
293.304
293.304
293.304
293.304
293.304
293.305
293.305
293.306
293.307
293.303
293.264
293.073
293.148
293.305
293.333
293.334
293.333
293.332
293.331
293.33
293.33
293.329
293.329
293.329
293.33
293.33
293.331
293.332
293.333
293.329
293.29
293.099
293.178
293.335
293.363
293.364
293.363
293.361
293.36
293.359
293.359
293.358
293.358
293.358
293.359
293.36
293.36
293.362
293.362
293.358
293.319
293.129
293.212
293.368
293.397
293.398
293.396
293.395
293.393
293.392
293.392
293.392
293.392
293.392
293.392
293.393
293.394
293.395
293.396
293.392
293.353
293.163
293.251
293.407
293.436
293.436
293.435
293.433
293.431
293.43
293.43
293.429
293.429
293.429
293.43
293.431
293.432
293.433
293.434
293.43
293.391
293.202
293.295
293.45
293.479
293.48
293.478
293.476
293.474
293.473
293.472
293.472
293.472
293.472
293.472
293.473
293.475
293.477
293.478
293.474
293.434
293.246
293.345
293.499
293.529
293.529
293.527
293.524
293.523
293.521
293.52
293.52
293.52
293.52
293.52
293.522
293.523
293.525
293.526
293.523
293.483
293.296
293.401
293.554
293.584
293.584
293.582
293.579
293.577
293.575
293.574
293.574
293.574
293.574
293.574
293.576
293.578
293.58
293.581
293.577
293.537
293.352
293.463
293.615
293.646
293.646
293.643
293.64
293.638
293.636
293.635
293.634
293.634
293.634
293.635
293.636
293.638
293.641
293.643
293.639
293.599
293.415
293.533
293.684
293.715
293.715
293.712
293.708
293.706
293.703
293.702
293.702
293.701
293.702
293.702
293.704
293.706
293.709
293.711
293.707
293.667
293.485
293.611
293.76
293.792
293.791
293.788
293.784
293.781
293.779
293.777
293.776
293.776
293.776
293.777
293.779
293.782
293.785
293.787
293.784
293.743
293.563
293.697
293.845
293.877
293.876
293.872
293.868
293.865
293.862
293.86
293.859
293.859
293.859
293.861
293.863
293.865
293.869
293.871
293.868
293.828
293.649
293.792
293.938
293.971
293.969
293.965
293.96
293.957
293.954
293.952
293.951
293.951
293.951
293.952
293.955
293.958
293.961
293.964
293.961
293.921
293.744
293.896
294.04
294.074
294.072
294.067
294.062
294.058
294.055
294.053
294.052
294.051
294.052
294.053
294.056
294.059
294.063
294.067
294.064
294.023
293.849
294.01
294.153
294.186