/*--------------------------------*- C++ -*----------------------------------*\
  =========                 |
  \\      /  F ield         | OpenFOAM: The Open Source CFD Toolbox
   \\    /   O peration     | Website:  https://openfoam.org
    \\  /    A nd           | Version:  8
     \\/     M anipulation  |
\*---------------------------------------------------------------------------*/
FoamFile
{
    version     2.0;
    format      ascii;
    class       volScalarField;
    location    "100";
    object      alphat;
}
// * * * * * * * * * * * * * * * * * * * * * * * * * * * * * * * * * * * * * //

dimensions      [1 -1 -1 0 0 0 0];

internalField   nonuniform List<scalar> 
8400
(
0.17349
0.172878
0.172262
0.171636
0.170998
0.170345
0.169675
0.168986
0.168278
0.167551
0.166805
0.166042
0.165262
0.164466
0.163657
0.162833
0.161997
0.161148
0.160288
0.159417
0.158533
0.157639
0.156733
0.155816
0.154887
0.153948
0.152996
0.152032
0.151058
0.150072
0.149075
0.148067
0.147049
0.146021
0.144985
0.143941
0.14289
0.141833
0.140772
0.139709
0.138645
0.137584
0.136528
0.135478
0.13444
0.133419
0.132422
0.131457
0.130538
0.129679
0.0620148
0.0620353
0.062054
0.0620713
0.062087
0.0621016
0.0621153
0.0621283
0.0621404
0.0621522
0.0621638
0.0621759
0.0621888
0.062202
0.0622167
0.0622327
0.0622503
0.0622698
0.0622916
0.062316
0.0623424
0.0623714
0.062404
0.062439
0.0624762
0.0625159
0.062558
0.0626025
0.062649
0.0626969
0.0627458
0.0627955
0.0628457
0.062896
0.0629455
0.0629938
0.0630406
0.0630857
0.0631287
0.0631693
0.0632073
0.0632427
0.0632748
0.0633029
0.0633275
0.0633484
0.0633652
0.0633778
0.0633865
0.063391
0.0614264
0.0613781
0.0613269
0.0612742
0.061221
0.061169
0.0611189
0.0610715
0.0610267
0.0609845
0.0609455
0.0609081
0.0608738
0.0608422
0.0608122
0.060785
0.0607597
0.0607369
0.0607168
0.0607005
0.0606876
0.0606774
0.0606716
0.0606704
0.0606738
0.0606825
0.0606968
0.060717
0.0607432
0.0607759
0.0608152
0.060861
0.0609135
0.0609728
0.0610387
0.0611109
0.0611895
0.0612746
0.0613655
0.0614615
0.0615625
0.061668
0.0617765
0.0618868
0.0619977
0.0621072
0.0622132
0.0623125
0.0624009
0.0624735
0.0692031
0.0691075
0.0690052
0.0688986
0.0687915
0.0686862
0.0685844
0.0684866
0.0683935
0.0683045
0.0682204
0.0681411
0.0680652
0.0679933
0.067925
0.0678606
0.0677994
0.0677434
0.0676913
0.0676431
0.0676001
0.0675638
0.0675339
0.0675109
0.0674959
0.0674895
0.0674924
0.0675055
0.0675292
0.067564
0.0676101
0.0676677
0.0677376
0.0678198
0.0679138
0.0680198
0.0681381
0.0682681
0.0684083
0.0685587
0.0687191
0.0688876
0.0690623
0.0692417
0.0694238
0.0696052
0.0697817
0.0699505
0.0701052
0.0702377
0.0784779
0.078422
0.0783555
0.0782821
0.078205
0.0781275
0.0780509
0.0779762
0.077904
0.0778351
0.0777681
0.0777036
0.0776414
0.0775818
0.0775243
0.0774686
0.0774152
0.0773638
0.0773165
0.0772732
0.0772335
0.0771991
0.0771711
0.0771505
0.0771381
0.0771357
0.0771438
0.0771635
0.0771955
0.0772405
0.0772989
0.077372
0.0774602
0.0775631
0.0776813
0.0778154
0.077965
0.0781285
0.0783056
0.0784968
0.0787006
0.078915
0.0791382
0.0793684
0.0796033
0.0798391
0.0800719
0.080297
0.0805084
0.0807
0.0859496
0.0860485
0.0861318
0.0862024
0.0862629
0.0863155
0.0863621
0.0864041
0.0864413
0.086476
0.0865072
0.0865364
0.0865623
0.0865847
0.0866054
0.0866237
0.0866412
0.0866564
0.0866706
0.086685
0.0867002
0.0867171
0.0867371
0.0867613
0.0867908
0.0868269
0.0868706
0.0869234
0.0869861
0.0870594
0.0871446
0.0872427
0.0873537
0.0874781
0.0876172
0.087771
0.0879383
0.0881187
0.0883131
0.0885212
0.0887409
0.0889709
0.0892101
0.0894574
0.0897095
0.0899636
0.0902179
0.0904697
0.0907127
0.0909439
0.0891952
0.0895604
0.0899062
0.0902311
0.090535
0.0908183
0.0910824
0.09133
0.0915613
0.0917792
0.0919846
0.0921773
0.0923603
0.0925344
0.0926982
0.0928529
0.0929998
0.0931395
0.0932715
0.0933981
0.0935197
0.0936359
0.0937488
0.0938596
0.0939687
0.0940772
0.0941868
0.0942984
0.0944127
0.0945307
0.0946538
0.0947824
0.0949171
0.0950589
0.0952086
0.0953657
0.0955299
0.0957021
0.095883
0.0960714
0.0962661
0.0964666
0.096673
0.0968839
0.097098
0.097315
0.0975331
0.0977521
0.0979705
0.0981869
0.0866845
0.0873994
0.0880975
0.0887658
0.0893984
0.089993
0.0905512
0.0910751
0.0915686
0.0920334
0.0924748
0.0928937
0.0932909
0.0936682
0.0940288
0.0943724
0.0946994
0.0950104
0.0953056
0.0955867
0.0958541
0.0961079
0.0963484
0.0965762
0.0967922
0.0969977
0.0971936
0.0973799
0.0975574
0.0977275
0.097891
0.0980481
0.0981994
0.0983459
0.0984883
0.0986262
0.09876
0.0988914
0.0990202
0.0991452
0.0992666
0.0993856
0.0995023
0.0996158
0.0997281
0.0998398
0.0999524
0.100065
0.100181
0.100306
0.0782249
0.0792377
0.0802537
0.081244
0.0821946
0.0830981
0.0839564
0.08477
0.0855449
0.0862841
0.086991
0.0876681
0.0883193
0.088946
0.0895487
0.0901261
0.0906801
0.0912108
0.0917175
0.0921995
0.0926563
0.0930867
0.0934903
0.0938672
0.0942181
0.0945433
0.0948425
0.0951158
0.0953646
0.0955901
0.0957923
0.0959716
0.0961289
0.0962658
0.0963825
0.0964792
0.0965574
0.0966184
0.0966622
0.0966883
0.096698
0.0966939
0.0966771
0.0966471
0.0966076
0.0965601
0.0965087
0.0964556
0.0964043
0.0963585
0.0665757
0.067479
0.0684361
0.0694093
0.0703767
0.0713267
0.0722571
0.0731652
0.0740553
0.0749287
0.0757876
0.0766358
0.0774714
0.0782959
0.0791084
0.0799087
0.0806934
0.0814599
0.0822056
0.0829273
0.0836216
0.0842841
0.0849115
0.0855019
0.0860536
0.0865638
0.0870307
0.0874542
0.0878344
0.0881707
0.0884627
0.088711
0.0889178
0.0890839
0.0892092
0.0892961
0.089347
0.0893625
0.0893429
0.0892905
0.0892091
0.0891015
0.0889666
0.0888094
0.088633
0.0884418
0.0882351
0.0880174
0.0877982
0.0875746
0.0586401
0.05878
0.0590155
0.059331
0.0597072
0.0601309
0.0605934
0.0610856
0.0616081
0.0621579
0.0627347
0.0633375
0.0639684
0.0646265
0.0653087
0.0660131
0.0667394
0.067485
0.068245
0.069015
0.0697896
0.0705616
0.0713253
0.0720756
0.0728061
0.0735103
0.0741828
0.074819
0.0754141
0.0759636
0.0764637
0.0769127
0.0773092
0.0776509
0.0779371
0.0781695
0.0783488
0.0784752
0.0785512
0.07858
0.0785653
0.0785109
0.0784192
0.0782959
0.0781444
0.0779673
0.0777696
0.0775497
0.0773108
0.0770591
0.0584786
0.0579884
0.0575648
0.0572134
0.0569346
0.056728
0.0565746
0.0564672
0.0563969
0.0563543
0.05634
0.0563535
0.0563929
0.0564549
0.0565401
0.056648
0.0567824
0.0569467
0.0571409
0.0573639
0.0576153
0.0578955
0.0582048
0.0585425
0.0589061
0.0592918
0.0596962
0.0601157
0.0605455
0.0609799
0.0614139
0.0618425
0.0622601
0.0626626
0.0630458
0.0634053
0.0637376
0.064044
0.0643231
0.0645716
0.064796
0.0649947
0.0651725
0.0653343
0.0654833
0.0656161
0.0657357
0.0658469
0.0659464
0.0660199
0.0604488
0.0600505
0.0597006
0.059343
0.0589841
0.0586966
0.05841
0.0581865
0.0579672
0.0577799
0.0576039
0.0574467
0.0572965
0.057156
0.0570186
0.0568759
0.0567325
0.0565952
0.0564624
0.0563254
0.056179
0.0560244
0.0558682
0.0557153
0.0555614
0.0554017
0.0552381
0.055075
0.0549158
0.0547577
0.0545933
0.0544258
0.0542707
0.0541259
0.0539744
0.0538278
0.0537025
0.0535915
0.0534884
0.0533881
0.0532878
0.0532194
0.0531426
0.0530944
0.0530846
0.0530934
0.0530963
0.0531149
0.0531891
0.0532659
0.0610752
0.0608785
0.0606915
0.0605119
0.0603297
0.0601494
0.0599721
0.0598022
0.0596363
0.0594733
0.0593119
0.05916
0.0590212
0.0588839
0.058746
0.0586131
0.0584865
0.0583646
0.0582471
0.0581327
0.0580164
0.0578966
0.0577777
0.0576614
0.0575451
0.0574262
0.0573033
0.05718
0.0570607
0.0569397
0.0568091
0.0566747
0.0565459
0.0564141
0.0562743
0.0561346
0.0560019
0.0558723
0.0557396
0.0556111
0.055473
0.0553388
0.055209
0.0550775
0.0549475
0.0548234
0.0546901
0.0545684
0.0544352
0.0542877
0.061143
0.0610379
0.0609361
0.060829
0.0607238
0.0606185
0.0605131
0.0604075
0.0603046
0.0602024
0.0601004
0.0599999
0.0598998
0.0598003
0.059702
0.0596043
0.0595074
0.059412
0.0593179
0.0592242
0.0591302
0.0590361
0.0589421
0.058848
0.0587535
0.0586579
0.0585619
0.0584668
0.0583713
0.0582737
0.0581752
0.058077
0.0579774
0.0578756
0.0577732
0.0576718
0.0575715
0.0574711
0.0573712
0.0572671
0.0571652
0.0570634
0.0569597
0.0568573
0.0567545
0.0566546
0.0565504
0.056446
0.0563363
0.0562204
0.0611715
0.0611021
0.0610334
0.0609646
0.060894
0.0608244
0.0607556
0.0606865
0.060616
0.0605454
0.0604755
0.0604064
0.0603368
0.0602664
0.0601961
0.060126
0.0600558
0.0599855
0.0599151
0.0598446
0.0597737
0.0597023
0.0596306
0.0595586
0.0594862
0.0594132
0.0593401
0.0592667
0.0591928
0.0591184
0.0590438
0.0589691
0.0588931
0.0588162
0.0587393
0.0586629
0.0585864
0.0585087
0.058431
0.0583522
0.0582737
0.0581965
0.0581187
0.0580403
0.0579617
0.0578818
0.0578019
0.057721
0.057636
0.0575487
0.0611932
0.0611466
0.0610996
0.061051
0.0610028
0.060953
0.0609025
0.0608521
0.0608015
0.06075
0.0606977
0.0606453
0.0605928
0.0605396
0.060486
0.0604324
0.0603786
0.0603245
0.0602704
0.0602161
0.0601615
0.0601065
0.0600514
0.0599962
0.0599407
0.059885
0.0598292
0.0597733
0.0597172
0.059661
0.0596049
0.0595482
0.0594913
0.0594342
0.0593767
0.0593198
0.0592629
0.0592048
0.0591477
0.0590903
0.0590321
0.0589752
0.0589172
0.0588592
0.0588018
0.0587434
0.0586848
0.0586232
0.0585591
0.058491
0.0611963
0.0611549
0.0611143
0.0610735
0.0610333
0.0609937
0.0609545
0.0609153
0.060876
0.0608373
0.0607989
0.0607606
0.0607229
0.0606854
0.0606482
0.0606111
0.0605745
0.0605381
0.0605021
0.0604663
0.0604306
0.0603952
0.0603601
0.0603253
0.0602905
0.0602559
0.0602214
0.060187
0.0601526
0.0601184
0.0600841
0.0600496
0.060015
0.0599803
0.0599459
0.0599118
0.0598771
0.0598424
0.0598073
0.0597723
0.0597373
0.0597015
0.0596661
0.0596297
0.0595929
0.0595545
0.0595141
0.0594711
0.0594235
0.0593741
0.0612129
0.0611985
0.0611846
0.0611724
0.0611622
0.0611531
0.0611446
0.0611367
0.0611295
0.0611233
0.0611181
0.0611141
0.0611116
0.0611107
0.0611112
0.0611133
0.061117
0.0611223
0.061129
0.0611368
0.0611458
0.0611558
0.0611666
0.061178
0.0611897
0.0612017
0.0612138
0.0612257
0.0612374
0.0612488
0.0612598
0.0612701
0.0612796
0.0612884
0.0612964
0.0613039
0.06131
0.0613156
0.0613205
0.0613235
0.0613261
0.0613259
0.0613223
0.0613133
0.0612938
0.0612668
0.0612392
0.0612112
0.0611827
0.0611501
0.0620196
0.0628349
0.0636588
0.06449
0.0653294
0.0661772
0.0670335
0.0678985
0.0687721
0.0696544
0.0705455
0.0714454
0.0723542
0.0732719
0.0741986
0.0751345
0.0760795
0.0770338
0.0779973
0.0789702
0.0799526
0.0809446
0.0819461
0.0829572
0.0839781
0.0850088
0.0860493
0.0870997
0.0881602
0.0892307
0.090311
0.0914015
0.0925027
0.0936138
0.0947356
0.0958676
0.0970103
0.0981633
0.0993272
0.100502
0.101687
0.102883
0.10409
0.105308
0.106538
0.107772
0.109
0.11021
0.111377
0.112457
0.27115
0.267816
0.26462
0.26155
0.258593
0.255733
0.252954
0.250251
0.247621
0.245062
0.24257
0.240143
0.237778
0.235473
0.233226
0.231035
0.228899
0.226816
0.224785
0.222803
0.22087
0.218983
0.217141
0.215342
0.213587
0.211872
0.210199
0.208564
0.206969
0.205411
0.203888
0.202401
0.200947
0.199526
0.198138
0.196781
0.195457
0.194164
0.192901
0.191666
0.190451
0.189255
0.188075
0.186909
0.185753
0.184604
0.183456
0.182297
0.181109
0.179856
0.269211
0.263054
0.257171
0.251536
0.246145
0.24099
0.236065
0.231356
0.22685
0.222534
0.218396
0.214424
0.210608
0.206939
0.203409
0.20001
0.196735
0.193577
0.190531
0.187589
0.184747
0.181999
0.17934
0.176766
0.174273
0.171859
0.16952
0.167251
0.165051
0.162914
0.160838
0.158819
0.156854
0.154941
0.153078
0.151261
0.149488
0.147756
0.146062
0.144407
0.142794
0.141222
0.139688
0.138191
0.136728
0.135298
0.133899
0.132528
0.131181
0.129855
0.269202
0.263024
0.2571
0.251428
0.245997
0.240795
0.23581
0.231028
0.226439
0.22203
0.21779
0.213709
0.209779
0.205991
0.202337
0.19881
0.195405
0.192114
0.188933
0.185856
0.182877
0.179991
0.177195
0.174485
0.171857
0.169307
0.166833
0.164432
0.1621
0.159834
0.157631
0.155488
0.153403
0.151373
0.149398
0.147475
0.145603
0.14378
0.142004
0.140273
0.138585
0.13694
0.135335
0.133769
0.132242
0.130753
0.1293
0.127884
0.126504
0.125158
0.269203
0.263069
0.257199
0.251579
0.246195
0.241032
0.236078
0.231321
0.22675
0.222353
0.21812
0.214044
0.210114
0.206324
0.202666
0.199134
0.195721
0.192423
0.189232
0.186144
0.183154
0.180256
0.177447
0.174723
0.172081
0.169518
0.16703
0.164614
0.162268
0.159988
0.157772
0.155615
0.153517
0.151475
0.149488
0.147553
0.145668
0.143833
0.142044
0.1403
0.138601
0.136943
0.135325
0.133748
0.132208
0.130706
0.129241
0.127812
0.12642
0.125062
0.269203
0.263071
0.257198
0.251572
0.246179
0.241006
0.236043
0.231277
0.226698
0.222296
0.21806
0.213981
0.210051
0.206261
0.202605
0.199076
0.195668
0.192373
0.189187
0.186104
0.183118
0.180226
0.177422
0.174702
0.172065
0.169506
0.167022
0.164611
0.162268
0.159992
0.15778
0.155628
0.153534
0.151495
0.149512
0.14758
0.145698
0.143865
0.142079
0.140337
0.138639
0.136982
0.135366
0.133789
0.13225
0.130748
0.129281
0.127851
0.126455
0.125093
0.269203
0.263075
0.25721
0.251593
0.246211
0.24105
0.236099
0.231344
0.226776
0.222383
0.218155
0.214084
0.21016
0.206376
0.202725
0.1992
0.195795
0.192503
0.189318
0.186236
0.183251
0.180358
0.177553
0.174833
0.172194
0.169633
0.167147
0.164734
0.16239
0.160111
0.157897
0.155742
0.153646
0.151606
0.149619
0.147685
0.145801
0.143965
0.142175
0.140429
0.138727
0.137066
0.135445
0.133863
0.132319
0.130811
0.129339
0.127902
0.126498
0.125128
0.269203
0.263077
0.257214
0.251598
0.246215
0.241053
0.236099
0.231342
0.22677
0.222373
0.218141
0.214066
0.210139
0.206353
0.2027
0.199173
0.195766
0.192473
0.189289
0.186206
0.18322
0.180327
0.177522
0.174801
0.172162
0.169601
0.167116
0.164703
0.162359
0.160082
0.157868
0.155715
0.15362
0.151581
0.149596
0.147662
0.145779
0.143943
0.142153
0.140408
0.138706
0.137044
0.135423
0.133841
0.132296
0.130787
0.129314
0.127874
0.126467
0.125094
0.269203
0.263078
0.257217
0.251602
0.246222
0.241062
0.23611
0.231355
0.226785
0.222391
0.218162
0.21409
0.210166
0.206383
0.202733
0.199209
0.195805
0.192515
0.189332
0.186251
0.183267
0.180374
0.17757
0.17485
0.172211
0.16965
0.167164
0.164751
0.162407
0.160129
0.157915
0.155761
0.153665
0.151625
0.149639
0.147703
0.145818
0.14398
0.142188
0.14044
0.138734
0.13707
0.135446
0.13386
0.132311
0.130798
0.129319
0.127874
0.126462
0.125081
0.269204
0.263079
0.257219
0.251605
0.246225
0.241064
0.236112
0.231356
0.226786
0.22239
0.21816
0.214087
0.210162
0.206378
0.202727
0.199202
0.195797
0.192506
0.189322
0.18624
0.183255
0.180362
0.177556
0.174835
0.172196
0.169634
0.167148
0.164734
0.16239
0.160112
0.157897
0.155743
0.153647
0.151607
0.14962
0.147684
0.145798
0.143959
0.142166
0.140417
0.13871
0.137045
0.135419
0.133832
0.132281
0.130766
0.129284
0.127836
0.12642
0.125035
0.269204
0.263081
0.25722
0.251607
0.246226
0.241066
0.236114
0.231358
0.226787
0.222392
0.218163
0.21409
0.210166
0.206382
0.202732
0.199209
0.195805
0.192514
0.189331
0.18625
0.183265
0.180372
0.177567
0.174846
0.172207
0.169645
0.167159
0.164745
0.162401
0.160123
0.157908
0.155754
0.153657
0.151616
0.149628
0.147691
0.145803
0.143962
0.142167
0.140416
0.138707
0.13704
0.135412
0.133822
0.132269
0.13075
0.129265
0.127812
0.126391
0.125001
0.269204
0.263082
0.257222
0.251608
0.246227
0.241067
0.236114
0.231357
0.226786
0.222391
0.218161
0.214088
0.210164
0.206381
0.202731
0.199207
0.195803
0.192513
0.18933
0.186248
0.183264
0.180371
0.177566
0.174845
0.172205
0.169644
0.167157
0.164743
0.162399
0.16012
0.157905
0.15575
0.153653
0.151611
0.149622
0.147684
0.145794
0.143952
0.142155
0.140402
0.138691
0.137022
0.135392
0.1338
0.132244
0.130722
0.129234
0.127777
0.126352
0.124957
0.269205
0.263083
0.257223
0.251609
0.246227
0.241065
0.236112
0.231354
0.226782
0.222386
0.218156
0.214082
0.210157
0.206373
0.202723
0.199198
0.195794
0.192503
0.189319
0.186237
0.183251
0.180358
0.177552
0.174831
0.172191
0.16963
0.167143
0.164729
0.162384
0.160105
0.157889
0.155734
0.153637
0.151594
0.149604
0.147665
0.145774
0.14393
0.142132
0.140377
0.138666
0.136995
0.135364
0.13377
0.132212
0.130688
0.129197
0.127737
0.126308
0.124909
0.269205
0.263083
0.257223
0.251608
0.246226
0.241064
0.236109
0.231351
0.22678
0.222384
0.218154
0.214082
0.210158
0.206376
0.202726
0.199203
0.195799
0.192509
0.189326
0.186245
0.18326
0.180368
0.177563
0.174842
0.172203
0.169641
0.167155
0.164741
0.162396
0.160116
0.1579
0.155745
0.153646
0.151602
0.14961
0.147669
0.145777
0.143931
0.14213
0.140373
0.138659
0.136986
0.135352
0.133755
0.132194
0.130667
0.129172
0.127707
0.126273
0.124868
0.269205
0.263084
0.257222
0.251606
0.246221
0.241056
0.236098
0.231338
0.226763
0.222364
0.218131
0.214056
0.210129
0.206343
0.20269
0.199164
0.195758
0.192466
0.189281
0.186198
0.183213
0.180319
0.177514
0.174793
0.172153
0.169591
0.167104
0.16469
0.162345
0.160066
0.15785
0.155694
0.153596
0.151552
0.14956
0.147618
0.145725
0.143879
0.142078
0.140321
0.138606
0.136933
0.135298
0.133701
0.132139
0.13061
0.129113
0.127646
0.126209
0.124801
0.269206
0.263083
0.257221
0.251603
0.246218
0.241054
0.236098
0.23134
0.226768
0.222372
0.218143
0.214071
0.210147
0.206364
0.202713
0.199189
0.195784
0.192493
0.189309
0.186227
0.183242
0.180349
0.177543
0.174822
0.172181
0.169619
0.167131
0.164716
0.16237
0.160089
0.157872
0.155714
0.153613
0.151566
0.149572
0.147628
0.145731
0.143882
0.142078
0.140318
0.1386
0.136923
0.135285
0.133684
0.132118
0.130584
0.129082
0.12761
0.126167
0.124752
0.269206
0.26308
0.25721
0.251583
0.246187
0.24101
0.236042
0.231272
0.22669
0.222284
0.218046
0.213966
0.210036
0.206247
0.202592
0.199064
0.195656
0.192363
0.189178
0.186095
0.183109
0.180216
0.177411
0.174691
0.172052
0.169491
0.167005
0.164591
0.162247
0.159968
0.157752
0.155596
0.153497
0.151452
0.149458
0.147515
0.14562
0.143772
0.141969
0.140211
0.138494
0.136818
0.135181
0.13358
0.132014
0.13048
0.128978
0.127504
0.12606
0.124643
0.269206
0.263079
0.257211
0.25159
0.246203
0.241037
0.236078
0.231317
0.226741
0.222341
0.218106
0.214028
0.210097
0.206307
0.20265
0.199119
0.195708
0.192411
0.189221
0.186134
0.183143
0.180245
0.177435
0.17471
0.172066
0.1695
0.16701
0.164592
0.162243
0.159959
0.157739
0.155578
0.153474
0.151425
0.149427
0.14748
0.145581
0.14373
0.141924
0.140162
0.138443
0.136765
0.135126
0.133523
0.131955
0.130421
0.128918
0.127446
0.126004
0.124593
0.269206
0.263034
0.257113
0.25144
0.246006
0.2408
0.23581
0.231024
0.22643
0.222018
0.217775
0.213693
0.209761
0.205973
0.20232
0.198795
0.195392
0.192103
0.188924
0.185847
0.182869
0.179984
0.177187
0.174476
0.171846
0.169295
0.16682
0.164418
0.162085
0.159818
0.157614
0.15547
0.153384
0.151352
0.149374
0.147446
0.145568
0.143738
0.141955
0.140218
0.138525
0.136875
0.135267
0.133699
0.13217
0.130679
0.129228
0.127816
0.126447
0.125127
0.269214
0.263063
0.257182
0.251546
0.246152
0.240994
0.236066
0.231353
0.226843
0.222523
0.218382
0.214408
0.210591
0.206923
0.203395
0.199999
0.196728
0.193574
0.190532
0.187595
0.184757
0.182013
0.179358
0.176789
0.174302
0.171894
0.169563
0.167304
0.165115
0.162993
0.160934
0.158936
0.156995
0.155111
0.153281
0.151503
0.149776
0.148101
0.146476
0.144902
0.143378
0.141903
0.140479
0.139105
0.137783
0.136515
0.135307
0.134167
0.133112
0.132179
0.271155
0.267821
0.264623
0.261552
0.258593
0.25573
0.252949
0.250245
0.247614
0.245053
0.24256
0.240131
0.237765
0.235459
0.233212
0.231022
0.228887
0.226804
0.224772
0.222789
0.220853
0.218963
0.217117
0.215315
0.213556
0.211837
0.210159
0.20852
0.206918
0.205352
0.20382
0.202321
0.200854
0.199418
0.198011
0.196633
0.195282
0.193959
0.192662
0.19139
0.190142
0.188916
0.187711
0.186525
0.185356
0.184202
0.183062
0.181933
0.180812
0.179696
0.126482
0.0704472
0.0510092
0.0452511
0.0438808
0.0436656
0.0434616
0.0432509
0.0429375
0.0425852
0.0421998
0.0417638
0.0413603
0.040859
0.040463
0.0398798
0.0396609
0.0403467
0.0524714
0.104948
0.126688
0.0699573
0.0507628
0.0456386
0.0444948
0.0442957
0.0439995
0.0437071
0.0433161
0.0429069
0.0424804
0.0420098
0.0415877
0.0410654
0.0406673
0.0400669
0.0398645
0.0405743
0.0528512
0.105436
0.126894
0.0695443
0.0506269
0.0460484
0.0450358
0.0448113
0.0444278
0.0440734
0.0436289
0.0431827
0.0427281
0.0422366
0.0418051
0.0412658
0.0408693
0.0402549
0.0400662
0.0407981
0.0532032
0.105871
0.127137
0.0691965
0.0505677
0.0464409
0.0454906
0.0452284
0.0447739
0.0443781
0.0438966
0.0434271
0.0429576
0.042453
0.0420161
0.0414644
0.0410717
0.0404443
0.0402689
0.041022
0.0535356
0.106266
0.127373
0.0689262
0.0505592
0.0467981
0.0458718
0.0455737
0.0450667
0.044645
0.0441375
0.0436551
0.0431787
0.0426643
0.0422237
0.0416624
0.0412727
0.0406336
0.0404711
0.0412423
0.0538472
0.106622
0.127615
0.0687169
0.0505914
0.0471208
0.0461972
0.0458721
0.0453271
0.0448874
0.044364
0.0438766
0.0433943
0.0428715
0.0424303
0.0418611
0.0414737
0.0408246
0.0406739
0.0414601
0.0541408
0.106949
0.127851
0.0685647
0.0506573
0.0474146
0.0464836
0.0461397
0.0455658
0.0451182
0.0445857
0.0440937
0.0436062
0.0430773
0.0426359
0.0420579
0.0416745
0.0410185
0.0408762
0.0416763
0.0544234
0.107255
0.128074
0.0684704
0.0507482
0.0476852
0.0467462
0.0463888
0.0457949
0.0453439
0.0448036
0.0443073
0.043816
0.0432818
0.0428406
0.0422556
0.0418765
0.0412123
0.0410782
0.041894
0.0546995
0.107543
0.12829
0.0684201
0.0508605
0.0479398
0.0469933
0.046627
0.0460194
0.0455662
0.0450193
0.04452
0.044025
0.0434863
0.0430454
0.0424553
0.0420791
0.0414073
0.0412821
0.0421145
0.0549694
0.107809
0.1285
0.068414
0.0509887
0.048184
0.0472325
0.0468602
0.0462419
0.0457875
0.0452357
0.0447325
0.0442343
0.0436925
0.0432514
0.0426572
0.0422822
0.0416053
0.0414883
0.0423349
0.0552302
0.108052
0.128708
0.0684429
0.0511341
0.0484222
0.0474653
0.0470896
0.0464644
0.046008
0.0454518
0.0449454
0.044446
0.0439006
0.0434592
0.0428604
0.042487
0.0418064
0.041695
0.0425526
0.055482
0.108277
0.128914
0.0685017
0.0512918
0.0486546
0.0476937
0.0473173
0.0466865
0.0462284
0.0456687
0.04516
0.0446593
0.04411
0.0436688
0.0430661
0.0426939
0.0420086
0.0419006
0.0427683
0.0557282
0.108486
0.129118
0.0685859
0.0514585
0.0488811
0.047921
0.0475443
0.0469084
0.0464485
0.0458855
0.0453754
0.0448728
0.044321
0.0438801
0.0432729
0.0429008
0.0422103
0.042105
0.0429837
0.0559715
0.108683
0.129323
0.0686822
0.0516304
0.0491061
0.0481481
0.0477691
0.0471295
0.0466688
0.0461029
0.0455903
0.0450868
0.0445332
0.0440909
0.0434789
0.0431064
0.0424122
0.0423097
0.0432001
0.0562134
0.108869
0.129525
0.0687935
0.0518075
0.0493305
0.0483734
0.0479934
0.0473505
0.0468883
0.0463203
0.0458059
0.0453019
0.0447449
0.0443001
0.0436841
0.0433122
0.0426156
0.0425158
0.0434183
0.056456
0.109047
0.129724
0.0689114
0.0519914
0.0495541
0.0485977
0.048217
0.047571
0.0471078
0.0465382
0.0460226
0.045517
0.0449554
0.044509
0.0438911
0.04352
0.0428213
0.0427239
0.0436388
0.056701
0.109219
0.129922
0.0690348
0.0521813
0.0497767
0.0488222
0.0484398
0.0477922
0.0473283
0.0467578
0.0462401
0.0457317
0.0451665
0.0447204
0.0441014
0.0437301
0.0430297
0.0429343
0.0438615
0.0569477
0.109381
0.130111
0.0691688
0.0523765
0.0499981
0.049047
0.0486631
0.0480153
0.0475499
0.0469783
0.0464575
0.0459473
0.0453807
0.0449353
0.0443142
0.0439418
0.04324
0.0431457
0.0440844
0.0571938
0.109531
0.130298
0.0693127
0.0525742
0.0502199
0.0492726
0.0488878
0.0482394
0.0477717
0.0471987
0.0466756
0.0461653
0.0455979
0.0451517
0.0445277
0.0441542
0.043451
0.0433565
0.0443056
0.0574385
0.109668
0.130483
0.0694646
0.0527755
0.0504435
0.0494993
0.0491127
0.048463
0.0479933
0.0474194
0.0468952
0.0463851
0.045816
0.0453677
0.0447416
0.044367
0.0436617
0.0435658
0.044526
0.0576841
0.109796
0.13067
0.0696218
0.0529811
0.0506676
0.0497261
0.0493372
0.0486867
0.0482154
0.0476412
0.0471159
0.0466051
0.0460335
0.0455839
0.0449565
0.0445799
0.0438721
0.0437752
0.044748
0.0579335
0.109919
0.130856
0.0697838
0.053189
0.0508915
0.049953
0.0495622
0.0489114
0.0484383
0.0478638
0.0473368
0.0468249
0.0462514
0.0458014
0.0451727
0.0447934
0.0440839
0.0439871
0.0449735
0.0581687
0.110049
0.131044
0.0699481
0.0533981
0.0511163
0.0501813
0.0497884
0.0491372
0.0486616
0.0480866
0.0475578
0.0470453
0.0464709
0.0460205
0.0453903
0.0450089
0.0442991
0.0442027
0.0452019
0.0583811
0.110193
0.131231
0.0701143
0.0536098
0.0513429
0.0504115
0.0500154
0.0493633
0.0488854
0.0483101
0.0477797
0.0472669
0.046692
0.0462412
0.0456101
0.0452273
0.0445179
0.0444211
0.0454325
0.0585816
0.110347
0.131415
0.0702866
0.0538255
0.0515717
0.0506423
0.0502426
0.0495905
0.0491106
0.0485349
0.0480028
0.0474901
0.0469148
0.0464637
0.0458323
0.0454482
0.044739
0.0446411
0.045665
0.058778
0.110509
0.131601
0.0704662
0.0540438
0.0518011
0.0508736
0.0504715
0.0498198
0.0493376
0.0487612
0.0482278
0.0477152
0.0471393
0.0466878
0.0460561
0.0456704
0.0449612
0.0448622
0.0458944
0.0589772
0.110672
0.131791
0.0706476
0.054263
0.0520311
0.051107
0.0507029
0.0500512
0.0495663
0.0489898
0.0484551
0.0479422
0.047365
0.0469125
0.0462803
0.0458928
0.0451837
0.0450837
0.0461215
0.0591749
0.110834
0.131983
0.070828
0.0544833
0.0522632
0.0513429
0.0509361
0.0502841
0.0497972
0.0492211
0.0486844
0.0481701
0.0475909
0.0471374
0.0465047
0.0461152
0.0454063
0.0453051
0.0463456
0.0593674
0.110997
0.132175
0.0710079
0.0547059
0.052497
0.0515798
0.0511697
0.0505187
0.0500308
0.0494542
0.0489143
0.048398
0.0478175
0.0473632
0.0467297
0.0463378
0.0456294
0.0455268
0.0465677
0.0595554
0.111163
0.132367
0.0711874
0.05493
0.0527311
0.0518165
0.0514043
0.0507558
0.0502659
0.0496877
0.0491443
0.0486272
0.0480462
0.0475907
0.0469558
0.0465617
0.0458543
0.04575
0.04679
0.0597435
0.111334
0.132557
0.0713667
0.0551547
0.0529649
0.0520541
0.0516413
0.0509947
0.0505014
0.0499213
0.0493761
0.0488596
0.0482777
0.0478202
0.0471838
0.0467883
0.0460823
0.045976
0.0470141
0.0599348
0.11151
0.132745
0.071547
0.0553805
0.0532001
0.0522946
0.0518809
0.0512344
0.0507372
0.0501569
0.0496117
0.0490955
0.0485115
0.0480513
0.0474145
0.0470183
0.0463133
0.0462043
0.0472396
0.0601298
0.111688
0.132933
0.0717305
0.0556087
0.0534383
0.0525384
0.0521222
0.0514749
0.050975
0.0503962
0.0498506
0.0493333
0.0487463
0.0482845
0.0476482
0.0472509
0.0465458
0.0464335
0.047466
0.0603277
0.111867
0.133122
0.0719168
0.0558401
0.0536799
0.0527846
0.0523645
0.051717
0.0512157
0.0506385
0.050091
0.0495714
0.0489823
0.04852
0.0478841
0.0474845
0.0467786
0.0466636
0.0476937
0.0605282
0.112046
0.133313
0.0721053
0.0560749
0.0539242
0.0530321
0.052608
0.0519613
0.0514588
0.0508819
0.0503314
0.0498102
0.0492204
0.0487578
0.0481211
0.0477186
0.047012
0.0468953
0.0479235
0.0607299
0.112224
0.133503
0.072297
0.0563126
0.0541701
0.0532804
0.0528526
0.0522074
0.0517032
0.0511257
0.0505726
0.050051
0.049461
0.0489974
0.0483593
0.047954
0.0472479
0.04713
0.0481554
0.0609306
0.112403
0.133695
0.0724922
0.0565517
0.0544166
0.0535293
0.0530988
0.0524553
0.0519487
0.0513707
0.0508161
0.0502948
0.0497043
0.0492389
0.0485994
0.0481926
0.0474875
0.0473675
0.0483887
0.0611294
0.112584
0.13389
0.0726875
0.0567905
0.0546632
0.0537794
0.0533471
0.052705
0.0521961
0.0516182
0.0510625
0.0505415
0.04995
0.0494829
0.0488431
0.0484355
0.0477308
0.0476073
0.0486231
0.0613282
0.112771
0.134089
0.0728786
0.0570286
0.0549109
0.0540319
0.0535978
0.052957
0.0524456
0.0518683
0.0513118
0.0507907
0.0501981
0.0497302
0.0490908
0.0486821
0.0479766
0.047849
0.0488593
0.0615309
0.112963
0.134287
0.0730659
0.0572678
0.0551611
0.0542873
0.0538509
0.0532109
0.0526974
0.0521209
0.0515636
0.0510423
0.0504491
0.0499807
0.0493416
0.0489308
0.048224
0.0480926
0.0490982
0.0617395
0.113158
0.134482
0.0732548
0.0575103
0.0554145
0.0545452
0.0541058
0.0534668
0.0529516
0.052376
0.0518177
0.0512962
0.0507026
0.0502335
0.0495941
0.0491805
0.0484726
0.0483383
0.0493397
0.0619517
0.113354
0.134676
0.0734501
0.0577566
0.0556706
0.0548052
0.0543627
0.053725
0.0532082
0.0526335
0.0520739
0.0515521
0.0509578
0.0504877
0.0498472
0.0494308
0.0487223
0.0485859
0.0495827
0.0621642
0.11355
0.134872
0.0736511
0.0580054
0.0559289
0.0550672
0.054622
0.0539857
0.0534672
0.0528927
0.0523315
0.0518093
0.0512142
0.0507424
0.0501007
0.0496818
0.0489735
0.0488351
0.0498269
0.0623757
0.113747
0.135073
0.0738546
0.0582561
0.0561896
0.0553318
0.054884
0.0542489
0.053728
0.0531535
0.0525906
0.0520679
0.0514716
0.0509979
0.0503552
0.0499346
0.049227
0.0490867
0.0500732
0.0625884
0.113947
0.135278
0.0740588
0.058509
0.056453
0.0555994
0.0551486
0.0545143
0.0539907
0.0534161
0.0528516
0.0523284
0.0517307
0.0512554
0.0506121
0.0501905
0.0494838
0.0493417
0.050323
0.0628052
0.114151
0.135485
0.0742649
0.0587649
0.0567194
0.0558698
0.0554159
0.0547824
0.0542564
0.0536819
0.0531158
0.0525917
0.0519926
0.0515159
0.0508727
0.0504505
0.049745
0.0496007
0.0505769
0.0630269
0.114356
0.135693
0.0744734
0.0590238
0.0569887
0.0561434
0.0556868
0.0550544
0.0545261
0.0539516
0.0533837
0.0528586
0.0522581
0.0517805
0.0511379
0.0507152
0.0500104
0.0498631
0.050834
0.0632516
0.114563
0.135904
0.0746837
0.0592855
0.057261
0.0564207
0.0559619
0.0553308
0.0548001
0.0542254
0.0536556
0.0531295
0.0525279
0.0520496
0.0514076
0.0509836
0.0502788
0.0501277
0.051093
0.0634771
0.114771
0.136116
0.0748954
0.0595502
0.0575368
0.0567019
0.0562406
0.0556106
0.0550774
0.0545028
0.0539312
0.0534043
0.0528018
0.0523227
0.0516806
0.0512547
0.050549
0.0503938
0.0513533
0.0637025
0.114982
0.136329
0.0751089
0.059818
0.0578156
0.0569858
0.0565214
0.0558924
0.0553572
0.0547833
0.0542102
0.0536824
0.0530789
0.0525985
0.051956
0.0515275
0.0508208
0.0506617
0.0516151
0.0639282
0.115196
0.136543
0.0753248
0.0600885
0.0580965
0.0572707
0.056803
0.0561757
0.0556393
0.0550663
0.0544916
0.0539629
0.0533582
0.0528765
0.0522332
0.0518021
0.0510945
0.0509317
0.0518791
0.0641555
0.115415
0.136759
0.075543
0.0603605
0.0583784
0.0575562
0.0570858
0.056461
0.0559236
0.0553511
0.0547746
0.054245
0.0536393
0.0531564
0.0525124
0.0520788
0.0513706
0.0512047
0.0521461
0.0643864
0.115638
0.136977
0.0757626
0.0606335
0.0586615
0.0578434
0.0573711
0.0567488
0.0562097
0.0556371
0.0550587
0.0545285
0.0539224
0.0534386
0.0527941
0.0523581
0.0516497
0.0514813
0.0524173
0.0646233
0.115866
0.137199
0.0759833
0.0609082
0.0589472
0.0581341
0.0576599
0.0570392
0.0564973
0.0559243
0.0553443
0.0548143
0.0542083
0.0537236
0.0530785
0.0526406
0.0519328
0.0517625
0.0526935
0.0648679
0.116098
0.137424
0.0762056
0.061186