/*--------------------------------*- C++ -*----------------------------------*\
  =========                 |
  \\      /  F ield         | OpenFOAM: The Open Source CFD Toolbox
   \\    /   O peration     | Website:  https://openfoam.org
    \\  /    A nd           | Version:  8
     \\/     M anipulation  |
\*---------------------------------------------------------------------------*/
FoamFile
{
    version     2.0;
    format      ascii;
    class       volScalarField;
    location    "100";
    object      epsilon;
}
// * * * * * * * * * * * * * * * * * * * * * * * * * * * * * * * * * * * * * //

dimensions      [0 2 -3 0 0 0 0];

internalField   nonuniform List<scalar> 
8400
(
0.272645
0.269829
0.267034
0.264236
0.261421
0.258576
0.255688
0.252753
0.249767
0.24673
0.243646
0.240517
0.237348
0.234145
0.23091
0.227651
0.224368
0.221065
0.217747
0.214417
0.211075
0.207722
0.204361
0.200993
0.197618
0.194237
0.190852
0.187463
0.184072
0.180681
0.177291
0.173905
0.170524
0.167151
0.163789
0.160442
0.157113
0.153806
0.150526
0.147278
0.144068
0.140902
0.137787
0.134731
0.131745
0.128841
0.126036
0.123353
0.120819
0.118473
0.0131877
0.0132197
0.0132505
0.0132801
0.0133084
0.0133353
0.0133608
0.0133849
0.0134076
0.0134291
0.0134493
0.0134685
0.0134867
0.0135041
0.0135207
0.0135367
0.0135525
0.013568
0.0135834
0.0135991
0.0136152
0.0136317
0.0136489
0.013667
0.013686
0.0137061
0.0137275
0.0137502
0.0137742
0.0137997
0.0138267
0.0138551
0.013885
0.0139162
0.0139486
0.0139823
0.0140169
0.0140524
0.0140885
0.0141252
0.0141622
0.0141994
0.0142366
0.0142736
0.0143103
0.0143466
0.0143824
0.0144177
0.0144526
0.0144873
0.0126619
0.0126634
0.0126624
0.0126595
0.0126557
0.0126514
0.0126473
0.0126435
0.0126402
0.0126375
0.0126353
0.0126335
0.0126321
0.0126307
0.0126295
0.0126284
0.0126273
0.0126262
0.0126253
0.0126246
0.0126243
0.0126245
0.0126254
0.0126271
0.0126299
0.0126341
0.0126398
0.0126472
0.0126567
0.0126683
0.0126823
0.0126989
0.0127183
0.0127405
0.0127657
0.0127939
0.0128252
0.0128595
0.0128968
0.0129371
0.0129802
0.0130257
0.0130733
0.0131226
0.0131728
0.0132232
0.0132725
0.0133192
0.0133613
0.0133959
0.0178862
0.017861
0.0178287
0.0177921
0.0177535
0.0177146
0.0176764
0.0176397
0.0176049
0.017572
0.017541
0.0175115
0.0174837
0.0174569
0.0174309
0.0174058
0.0173814
0.0173578
0.0173351
0.0173135
0.0172933
0.0172747
0.017258
0.0172437
0.0172321
0.0172237
0.0172189
0.0172183
0.0172222
0.0172311
0.0172454
0.0172655
0.0172917
0.0173243
0.0173635
0.0174095
0.0174623
0.0175219
0.0175884
0.0176614
0.0177406
0.0178254
0.0179151
0.0180087
0.018105
0.018202
0.0182977
0.0183888
0.0184717
0.0185415
0.0259775
0.0259857
0.0259828
0.0259717
0.0259554
0.0259364
0.0259165
0.0258967
0.0258779
0.0258601
0.0258435
0.0258274
0.0258118
0.0257959
0.0257799
0.0257639
0.0257475
0.0257307
0.0257138
0.0256972
0.0256813
0.0256667
0.025654
0.0256438
0.0256369
0.025634
0.025636
0.0256436
0.0256578
0.0256793
0.025709
0.0257474
0.0257953
0.0258532
0.0259215
0.0260006
0.0260908
0.0261922
0.0263048
0.0264282
0.0265619
0.0267053
0.0268572
0.0270164
0.027181
0.0273484
0.0275153
0.0276781
0.0278311
0.0279679
0.0342057
0.0343882
0.0345529
0.0347026
0.0348403
0.0349682
0.0350888
0.0352034
0.0353129
0.0354179
0.0355188
0.0356152
0.0357079
0.0357965
0.0358798
0.0359588
0.036034
0.0361052
0.0361724
0.0362364
0.0362978
0.0363572
0.0364155
0.0364734
0.0365322
0.0365928
0.0366563
0.036724
0.0367972
0.0368769
0.0369641
0.03706
0.0371654
0.0372814
0.0374087
0.0375479
0.0376996
0.0378642
0.0380416
0.0382317
0.0384342
0.0386487
0.0388741
0.0391091
0.0393519
0.0396003
0.0398508
0.0400997
0.0403428
0.0405738
0.0385138
0.0390327
0.0395332
0.0400118
0.0404679
0.0409021
0.0413158
0.0417109
0.0420894
0.0424523
0.0428013
0.0431373
0.04346
0.0437708
0.0440706
0.0443595
0.0446377
0.0449056
0.0451637
0.0454124
0.0456523
0.0458839
0.0461082
0.0463257
0.0465375
0.0467446
0.0469481
0.0471492
0.0473489
0.0475483
0.0477485
0.0479508
0.0481563
0.048366
0.0485808
0.0488017
0.0490294
0.0492644
0.0495071
0.0497579
0.0500168
0.050284
0.0505591
0.0508413
0.0511302
0.0514239
0.051722
0.0520217
0.0523216
0.0526191
0.0357867
0.0366923
0.0375948
0.0384771
0.0393299
0.0401496
0.0409362
0.0416907
0.0424158
0.0431144
0.0437878
0.0444393
0.045071
0.0456834
0.0462771
0.0468532
0.0474126
0.0479555
0.0484816
0.0489909
0.0494836
0.0499599
0.0504198
0.0508635
0.0512913
0.0517039
0.0521016
0.0524848
0.0528542
0.0532105
0.0535545
0.0538871
0.0542091
0.0545213
0.0548245
0.0551195
0.055407
0.0556876
0.0559621
0.0562314
0.056496
0.0567566
0.0570136
0.0572681
0.0575203
0.0577709
0.0580213
0.0582734
0.0585277
0.0587865
0.0267274
0.0277691
0.0288429
0.0299191
0.0309806
0.0320184
0.0330297
0.0340153
0.0349763
0.0359164
0.0368374
0.0377416
0.0386305
0.0395053
0.0403666
0.041214
0.0420465
0.0428626
0.043661
0.04444
0.0451978
0.0459326
0.0466428
0.0473267
0.047983
0.0486106
0.0492082
0.0497753
0.0503116
0.0508169
0.0512914
0.0517356
0.0521498
0.0525346
0.0528907
0.0532189
0.0535198
0.0537945
0.0540443
0.0542703
0.0544737
0.0546557
0.0548182
0.0549631
0.055092
0.0552081
0.0553132
0.0554115
0.0555068
0.0556031
0.0167332
0.0174137
0.0181547
0.0189289
0.0197204
0.0205205
0.0213254
0.0221357
0.0229513
0.0237751
0.0246087
0.0254539
0.0263125
0.027185
0.0280709
0.028969
0.0298775
0.0307937
0.0317141
0.0326346
0.0335509
0.034458
0.0353511
0.0362248
0.037074
0.0378937
0.0386796
0.0394276
0.0401344
0.0407972
0.0414141
0.0419836
0.0425047
0.0429769
0.0434005
0.0437759
0.044104
0.0443867
0.0446255
0.044822
0.0449784
0.0450967
0.0451801
0.0452304
0.0452509
0.0452451
0.045217
0.0451687
0.0451039
0.0450267
0.0114693
0.0115523
0.0116927
0.0118806
0.0121066
0.0123628
0.0126449
0.0129513
0.0132814
0.0136358
0.0140161
0.0144236
0.0148602
0.0153279
0.0158283
0.0163623
0.0169305
0.0175329
0.0181688
0.0188369
0.0195351
0.0202608
0.0210098
0.0217777
0.022559
0.023348
0.0241384
0.0249239
0.025698
0.0264542
0.0271864
0.0278888
0.028556
0.0291835
0.0297673
0.0303044
0.0307927
0.0312313
0.031619
0.0319563
0.0322439
0.0324831
0.0326758
0.0328247
0.0329326
0.0330013
0.0330338
0.0330328
0.0329985
0.0329317
0.0113538
0.0110591
0.0108115
0.0106129
0.0104613
0.0103466
0.0102624
0.0102024
0.010161
0.0101359
0.0101253
0.0101287
0.0101455
0.0101765
0.0102229
0.0102856
0.0103657
0.0104647
0.0105841
0.0107261
0.0108924
0.0110846
0.0113037
0.0115505
0.0118253
0.0121283
0.0124592
0.0128173
0.0132012
0.0136092
0.0140389
0.0144872
0.0149509
0.0154264
0.01591
0.0163977
0.0168861
0.0173713
0.0178507
0.0183214
0.0187804
0.0192269
0.0196589
0.0200767
0.02048
0.0208694
0.0212411
0.0215947
0.0219229
0.0222228
0.0126381
0.0123775
0.0121362
0.0119014
0.0116926
0.0115042
0.011343
0.0112019
0.011081
0.0109711
0.0108691
0.0107734
0.0106827
0.0105967
0.0105132
0.0104303
0.0103469
0.0102617
0.0101749
0.0100869
0.00999878
0.00991112
0.00982444
0.00973879
0.00965409
0.00957085
0.00949043
0.00941441
0.00934406
0.00928038
0.00922429
0.00917701
0.00913995
0.00911408
0.00909999
0.00909868
0.00911083
0.00913725
0.00918046
0.00924217
0.00932472
0.00942848
0.00955845
0.00971578
0.00990382
0.010132
0.0104016
0.0107147
0.0110724
0.0114728
0.0130603
0.0129279
0.0128018
0.0126786
0.0125581
0.0124398
0.0123252
0.0122142
0.0121077
0.0120054
0.0119072
0.0118129
0.0117232
0.0116377
0.0115561
0.0114778
0.011402
0.0113278
0.0112546
0.011182
0.0111096
0.0110375
0.0109657
0.0108942
0.0108222
0.0107493
0.0106756
0.0106011
0.010526
0.0104502
0.0103738
0.010297
0.0102206
0.0101448
0.0100691
0.0099942
0.00991995
0.00984575
0.00977286
0.00970073
0.00963088
0.00956198
0.00949417
0.00942877
0.00936597
0.00930462
0.00924564
0.00918429
0.00912125
0.00905066
0.0131089
0.0130382
0.0129671
0.0128964
0.0128261
0.0127563
0.0126871
0.0126188
0.0125511
0.0124841
0.0124181
0.0123528
0.0122885
0.012225
0.0121624
0.0121006
0.0120395
0.0119789
0.0119186
0.0118585
0.0117987
0.0117391
0.0116797
0.0116203
0.0115608
0.0115012
0.0114415
0.0113816
0.0113216
0.0112614
0.0112009
0.0111404
0.01108
0.0110197
0.0109593
0.0108991
0.0108389
0.0107787
0.0107187
0.0106589
0.0105992
0.0105403
0.0104816
0.0104233
0.0103659
0.0103081
0.0102508
0.0101919
0.0101314
0.0100666
0.0131273
0.013081
0.0130345
0.0129882
0.0129421
0.0128959
0.0128497
0.0128036
0.0127576
0.0127117
0.0126658
0.01262
0.0125742
0.0125284
0.0124828
0.0124372
0.0123916
0.012346
0.0123003
0.0122546
0.0122088
0.0121629
0.012117
0.0120709
0.0120246
0.0119783
0.0119317
0.0118851
0.0118383
0.0117913
0.0117441
0.0116969
0.0116496
0.0116023
0.011555
0.0115077
0.0114602
0.0114128
0.0113653
0.0113181
0.0112709
0.0112236
0.0111766
0.0111296
0.0110826
0.0110356
0.0109882
0.0109399
0.0108903
0.0108379
0.013142
0.013111
0.0130793
0.0130471
0.0130144
0.0129815
0.0129484
0.0129148
0.0128811
0.0128471
0.0128129
0.0127784
0.0127438
0.012709
0.0126741
0.0126391
0.012604
0.0125688
0.0125334
0.012498
0.0124625
0.012427
0.0123914
0.0123557
0.0123199
0.0122842
0.0122484
0.0122125
0.0121765
0.0121406
0.0121045
0.0120685
0.0120326
0.0119966
0.0119606
0.0119247
0.0118887
0.0118527
0.0118167
0.0117807
0.011745
0.0117091
0.0116731
0.0116373
0.0116011
0.0115646
0.0115276
0.0114895
0.0114496
0.0114069
0.0131443
0.013117
0.0130901
0.0130635
0.0130371
0.0130109
0.0129849
0.0129592
0.0129336
0.0129082
0.012883
0.012858
0.0128332
0.0128087
0.0127843
0.0127602
0.0127363
0.0127125
0.012689
0.0126656
0.0126425
0.0126194
0.0125965
0.0125738
0.0125511
0.0125285
0.0125059
0.0124834
0.0124609
0.0124384
0.012416
0.0123935
0.012371
0.0123485
0.0123259
0.0123032
0.0122805
0.0122577
0.0122348
0.0122118
0.0121886
0.0121653
0.0121417
0.0121177
0.0120931
0.0120676
0.012041
0.0120125
0.0119815
0.0119492
0.0131558
0.0131459
0.0131365
0.0131283
0.013121
0.0131145
0.0131085
0.013103
0.013098
0.0130937
0.01309
0.0130872
0.0130852
0.0130841
0.0130839
0.0130847
0.0130864
0.0130889
0.0130922
0.0130962
0.0131007
0.0131057
0.0131111
0.0131167
0.0131224
0.0131281
0.0131337
0.0131391
0.0131442
0.0131489
0.0131531
0.0131569
0.0131601
0.0131626
0.0131646
0.013166
0.0131667
0.0131667
0.0131659
0.0131643
0.0131613
0.0131566
0.0131493
0.0131377
0.0131192
0.0130956
0.0130716
0.0130473
0.0130226
0.0129956
0.0136826
0.0142294
0.0147962
0.0153834
0.0159919
0.0166227
0.0172764
0.0179538
0.0186557
0.0193829
0.0201363
0.0209168
0.0217251
0.0225623
0.0234293
0.024327
0.0252566
0.026219
0.0272152
0.0282465
0.0293139
0.0304186
0.0315618
0.0327448
0.0339687
0.035235
0.0365449
0.0378999
0.0393013
0.0407507
0.0422496
0.0437994
0.0454017
0.0470584
0.0487709
0.0505409
0.0523704
0.0542612
0.056215
0.0582335
0.0603196
0.0624741
0.0647002
0.0669995
0.0693742
0.0718154
0.0743011
0.0768058
0.0792776
0.081612
1.14672
1.10488
1.06576
1.0291
0.99459
0.961961
0.930947
0.90143
0.87331
0.8465
0.820924
0.796511
0.773198
0.750923
0.729632
0.709269
0.689786
0.671134
0.653269
0.636149
0.619737
0.603994
0.588889
0.574389
0.560464
0.547087
0.534229
0.521867
0.509977
0.498537
0.487527
0.476928
0.466722
0.456895
0.447428
0.438309
0.429522
0.421054
0.412893
0.404994
0.397327
0.389875
0.382621
0.375546
0.368626
0.361834
0.35513
0.348453
0.341696
0.334657
1.12227
1.04694
0.978226
0.91533
0.857747
0.804992
0.756654
0.712274
0.671452
0.633832
0.599104
0.566989
0.537245
0.509653
0.484017
0.460165
0.437938
0.417197
0.397817
0.379684
0.362698
0.346767
0.331807
0.317744
0.304509
0.29204
0.280279
0.269176
0.258682
0.248755
0.239355
0.230447
0.221997
0.213973
0.206344
0.199082
0.19216
0.185553
0.179237
0.173214
0.167477
0.162006
0.156786
0.151799
0.147033
0.142471
0.1381
0.133905
0.129872
0.125982
1.12216
1.04659
0.977434
0.914166
0.85621
0.803049
0.754206
0.709254
0.667811
0.629542
0.594147
0.561361
0.53095
0.502701
0.476426
0.451955
0.429134
0.407826
0.387908
0.369268
0.351804
0.335426
0.320051
0.305603
0.292013
0.279219
0.267162
0.25579
0.245056
0.234915
0.225328
0.216259
0.207673
0.199538
0.191829
0.184517
0.177578
0.170988
0.164726
0.158772
0.153108
0.147718
0.142585
0.137695
0.133035
0.128593
0.124356
0.120314
0.116458
0.112779
1.12216
1.04713
0.978556
0.915804
0.858269
0.805417
0.756783
0.711954
0.670567
0.6323
0.596867
0.564015
0.533514
0.505161
0.47877
0.454177
0.43123
0.409795
0.38975
0.370984
0.353399
0.336902
0.321412
0.306853
0.293157
0.280261
0.268107
0.256644
0.245822
0.2356
0.225936
0.216794
0.208141
0.199944
0.192175
0.184806
0.177812
0.171171
0.164861
0.158861
0.153154
0.147723
0.142552
0.137626
0.132932
0.128457
0.124191
0.120121
0.116238
0.112532
1.12216
1.04714
0.978542
0.915718
0.858092
0.80515
0.756436
0.711545
0.670115
0.631824
0.596383
0.563535
0.533049
0.504718
0.478356
0.453793
0.43088
0.40948
0.38947
0.370739
0.353188
0.336724
0.321265
0.306736
0.293068
0.280198
0.268068
0.256626
0.245825
0.235622
0.225975
0.216848
0.208208
0.200023
0.192264
0.184904
0.177918
0.171283
0.164977
0.158982
0.153277
0.147848
0.142677
0.13775
0.133053
0.128574
0.124302
0.120224
0.116332
0.112614
1.12216
1.04718
0.978663
0.915937
0.858418
0.805583
0.756969
0.712167
0.670811
0.632579
0.597183
0.564367
0.533901
0.505579
0.479218
0.454649
0.431724
0.410307
0.390277
0.371524
0.353948
0.337459
0.321974
0.307419
0.293724
0.280827
0.268671
0.257204
0.246378
0.23615
0.226479
0.217329
0.208666
0.200459
0.192678
0.185296
0.178289
0.171632
0.165306
0.15929
0.153566
0.148116
0.142925
0.137979
0.133262
0.128762
0.124469
0.120369
0.116453
0.112711
1.12216
1.04719
0.978688
0.915972
0.858453
0.805608
0.756976
0.71215
0.670768
0.63251
0.597089
0.56425
0.533765
0.505427
0.479052
0.454473
0.431541
0.41012
0.390088
0.371335
0.353761
0.337275
0.321795
0.307245
0.293556
0.280666
0.268517
0.257058
0.24624
0.23602
0.226357
0.217215
0.208559
0.200359
0.192584
0.185207
0.178204
0.171552
0.16523
0.159216
0.153494
0.148046
0.142856
0.13791
0.133192
0.128691
0.124393
0.120289
0.116368
0.112619
1.12216
1.0472
0.978707
0.916009
0.85851
0.805687
0.757078
0.712275
0.670916
0.63268
0.59728
0.564459
0.53399
0.505665
0.4793
0.454728
0.431801
0.410383
0.390353
0.371599
0.354023
0.337534
0.322049
0.307493
0.293798
0.280901
0.268746
0.257279
0.246453
0.236225
0.226555
0.217404
0.20874
0.20053
0.192745
0.185359
0.178346
0.171683
0.165349
0.159324
0.153591
0.148131
0.142928
0.137968
0.133237
0.128722
0.12441
0.12029
0.116353
0.112586
1.12216
1.0472
0.978715
0.916024
0.858531
0.805711
0.757103
0.712299
0.670936
0.632694
0.597286
0.564457
0.533978
0.505643
0.479269
0.45469
0.431754
0.410329
0.390292
0.371533
0.353953
0.337459
0.321971
0.307413
0.293716
0.280818
0.268662
0.257196
0.246372
0.236145
0.226476
0.217327
0.208665
0.200456
0.192672
0.185285
0.178272
0.171608
0.165274
0.159248
0.153512
0.14805
0.142844
0.137881
0.133146
0.128626
0.124308
0.120182
0.116237
0.112463
1.12216
1.0472
0.97872
0.916033
0.858544
0.805728
0.757125
0.712324
0.670965
0.632726
0.597322
0.564496
0.53402
0.505689
0.479318
0.45474
0.431807
0.410384
0.390347
0.371589
0.354008
0.337513
0.322024
0.307464
0.293766
0.280867
0.26871
0.257242
0.246416
0.236188
0.226517
0.217366
0.208701
0.200489
0.192701
0.18531
0.178291
0.171622
0.165282
0.159249
0.153507
0.148037
0.142824
0.137853
0.133109
0.12858
0.124252
0.120116
0.116159
0.112372
1.12216
1.0472
0.978722
0.916035
0.858547
0.805732
0.757128
0.712327
0.670968
0.632728
0.597323
0.564497
0.53402
0.505688
0.479316
0.454738
0.431804
0.41038
0.390342
0.371582
0.353999
0.337503
0.322012
0.30745
0.293751
0.280851
0.268693
0.257225
0.246399
0.23617
0.226499
0.217347
0.20868
0.200466
0.192675
0.185281
0.17826
0.171587
0.165242
0.159205
0.153457
0.147982
0.142763
0.137786
0.133035
0.128498
0.124162
0.120017
0.116051
0.112254
1.12216
1.0472
0.97872
0.916032
0.85854
0.805722
0.757114
0.712309
0.670945
0.632701
0.597291
0.564459
0.533978
0.505642
0.479266
0.454684
0.431746
0.410318
0.390278
0.371514
0.353928
0.33743
0.321937
0.307374
0.293674
0.280774
0.268616
0.257149
0.246325
0.236097
0.226427
0.217276
0.208609
0.200395
0.192604
0.18521
0.178186
0.171512
0.165165
0.159126
0.153376
0.147897
0.142675
0.137693
0.132938
0.128396
0.124054
0.119902
0.115929
0.112123
1.12216
1.0472
0.978715
0.916021
0.858525
0.805704
0.757095
0.712291
0.670931
0.632692
0.597289
0.564465
0.533992
0.505664
0.479295
0.45472
0.431788
0.410365
0.390328
0.371567
0.353982
0.337484
0.321991
0.307428
0.293727
0.280826
0.268668
0.257199
0.246373
0.236143
0.226469
0.217314
0.208643
0.200424
0.192627
0.185227
0.178197
0.171516
0.165162
0.159116
0.153358
0.147871
0.14264
0.137649
0.132884
0.128332
0.123979
0.119816
0.11583
0.112012
1.12216
1.0472
0.978698
0.915988
0.858473
0.805631
0.756999
0.712172
0.670788
0.632527
0.597103
0.564261
0.533772
0.505429
0.47905
0.454465
0.431527
0.410098
0.390057
0.371294
0.353709
0.337212
0.321721
0.307162
0.293467
0.280571
0.26842
0.256958
0.246138
0.235916
0.226249
0.2171
0.208435
0.200222
0.192431
0.185035
0.178011
0.171334
0.164984
0.15894
0.153185
0.1477
0.14247
0.13748
0.132714
0.128161
0.123807
0.119641
0.115652
0.111829
1.12216
1.04719
0.978676
0.915956
0.858442
0.805611
0.756998
0.712195
0.670837
0.632602
0.597203
0.564383
0.533912
0.505585
0.479217
0.454641
0.431706
0.410279
0.390237
0.371471
0.353881
0.337378
0.321881
0.307314
0.29361
0.280707
0.268546
0.257076
0.246246
0.236013
0.226336
0.217177
0.208502
0.200278
0.192476
0.185071
0.178036
0.171349
0.164988
0.158933
0.153167
0.14767
0.142429
0.137426
0.132648
0.128082
0.123715
0.119536
0.115532
0.111695
1.12216
1.04715
0.978557
0.91574
0.85812
0.805182
0.75647
0.711579
0.670147
0.631853
0.596409
0.563558
0.533067
0.50473
0.47836
0.453789
0.430865
0.409452
0.389428
0.370682
0.353115
0.336636
0.321164
0.306624
0.292947
0.280069
0.267934
0.256489
0.245683
0.235473
0.225818
0.21668
0.208025
0.199821
0.192038
0.18465
0.177631
0.170959
0.164612
0.15857
0.152815
0.147329
0.142096
0.137102
0.132331
0.127772
0.12341
0.119236
0.115236
0.111402
1.12216
1.04714
0.978572
0.915828
0.8583
0.805453
0.75682
0.711991
0.670603
0.632334
0.596899
0.564043
0.533537
0.505177
0.478778
0.454173
0.431213
0.409762
0.389701
0.370918
0.353315
0.336802
0.321298
0.306727
0.293021
0.280117
0.267957
0.256487
0.24566
0.23543
0.225756
0.216602
0.207931
0.199713
0.191919
0.184519
0.177491
0.17081
0.164455
0.158406
0.152645
0.147154
0.141918
0.136921
0.132151
0.127593
0.123236
0.11907
0.115083
0.111267
1.12216
1.0466
0.977451
0.914191
0.856243
0.803086
0.754246
0.709294
0.667852
0.629581
0.594185
0.561397
0.530981
0.502726
0.476442
0.451959
0.429124
0.4078
0.387865
0.369208
0.351729
0.335337
0.319951
0.305494
0.291899
0.279101
0.267044
0.255673
0.244941
0.234803
0.225218
0.21615
0.207564
0.199428
0.191714
0.184394
0.177444
0.170841
0.164564
0.158595
0.152915
0.147508
0.142361
0.13746
0.132794
0.128351
0.124124
0.120107
0.116299
0.112704
1.12227
1.04695
0.978245
0.915358
0.857782
0.805033
0.756699
0.712323
0.671503
0.633887
0.599161
0.567049
0.537306
0.509713
0.484073
0.460215
0.437981
0.417232
0.397845
0.379707
0.36272
0.346792
0.331842
0.317795
0.304584
0.292146
0.280425
0.269369
0.258931
0.24907
0.239745
0.230921
0.222566
0.21465
0.207146
0.20003
0.193278
0.186871
0.180791
0.175022
0.16955
0.164363
0.159451
0.154808
0.150428
0.146311
0.142462
0.138899
0.135662
0.132839
1.14672
1.10489
1.06577
1.02911
0.994604
0.961972
0.930955
0.901435
0.873313
0.846502
0.820926
0.796513
0.773196
0.750914
0.729609
0.709229
0.689722
0.671044
0.653152
0.636005
0.619565
0.603798
0.588668
0.574143
0.560192
0.546785
0.533896
0.521497
0.509565
0.498077
0.48701
0.476344
0.466059
0.456136
0.446557
0.437305
0.428364
0.419717
0.411351
0.40325
0.395402
0.387793
0.380409
0.373238
0.366264
0.359472
0.352847
0.34637
0.34002
0.33377
0.107415
0.0269706
0.0119623
0.00768592
0.0061809
0.00551424
0.00512504
0.00485531
0.00463503
0.00444354
0.00427059
0.00410599
0.00395671
0.00380381
0.00367279
0.00352053
0.00343213
0.00354684
0.00720526
0.0601691
0.109064
0.0254659
0.0109242
0.00712969
0.00588377
0.00536065
0.00504717
0.0048242
0.00463196
0.00445917
0.00429883
0.00414206
0.00399952
0.00384848
0.00372143
0.00356745
0.00348472
0.00361342
0.00744135
0.0615433
0.110511
0.0242018
0.0101289
0.00675572
0.00571329
0.00529559
0.00503133
0.00483706
0.0046598
0.00449667
0.00434271
0.00418904
0.0040497
0.00389833
0.00377393
0.00361713
0.00353954
0.0036809
0.00766807
0.0628126
0.111803
0.0231427
0.0095221
0.00651365
0.00563004
0.00528877
0.00505459
0.00487707
0.00470682
0.00454799
0.00439629
0.00424292
0.00410507
0.00395193
0.00382939
0.00366894
0.00359609
0.00374922
0.00788578
0.0639919
0.112977
0.0222582
0.00906108
0.00636655
0.00560539
0.00531897
0.00510195
0.00493372
0.00476554
0.00460776
0.00445615
0.00430148
0.00416419
0.0040084
0.00388714
0.00372259
0.00365409
0.00381816
0.0080946
0.0650883
0.114058
0.0215224
0.0087129
0.00628707
0.00561973
0.00537238
0.00516401
0.00500048
0.00483146
0.00467287
0.00452025
0.0043635
0.00422613
0.00406709
0.00394665
0.00377787
0.00371343
0.00388765
0.00829486
0.0661075
0.115061
0.0209143
0.00845262
0.00625573
0.00565982
0.00544026
0.00523512
0.00507339
0.00490184
0.00474169
0.00458741
0.00442815
0.00429014
0.00412757
0.00400783
0.00383464
0.00377397
0.00395757
0.00848697
0.0670547
0.116005
0.0204142
0.00826155
0.00625901
0.0057171
0.00551722
0.0053116
0.00515008
0.00497534
0.00481329
0.00465702
0.00449485
0.00435594
0.00418968
0.00407048
0.00389284
0.00383553
0.00402787
0.00867154
0.0679359
0.116893
0.0200095
0.00812573
0.00628744
0.00578578
0.00559978
0.00539156
0.00522948
0.00505128
0.00488695
0.00472849
0.00456315
0.00442331
0.00425334
0.0041345
0.0039523
0.00389799
0.00409857
0.00884937
0.068757
0.117736
0.0196877
0.00803406
0.00633408
0.00586225
0.00568594
0.00547407
0.00531088
0.00512905
0.00496227
0.00480148
0.00463294
0.00449211
0.00431841
0.00419971
0.00401294
0.00396133
0.00416978
0.00902135
0.0695232
0.118542
0.019437
0.00797785
0.00639396
0.00594423
0.00577461
0.00555852
0.00539389
0.00520828
0.00503905
0.00487579
0.00470411
0.00456217
0.00438473
0.00426598
0.00407469
0.00402554
0.00424161
0.00918822
0.0702386
0.119315
0.0192468
0.00795067
0.00646387
0.00603022
0.00586521
0.00564448
0.00547823
0.00528891
0.00511709
0.00495137
0.0047766
0.00463341
0.00445222
0.00433323
0.00413755
0.00409064
0.00431406
0.00935055
0.0709063
0.120059
0.0191095
0.00794735
0.00654156
0.0061192
0.00595727
0.00573175
0.00556373
0.00537088
0.00519635
0.00502822
0.00485029
0.00470573
0.00452086
0.00440146
0.00420151
0.0041566
0.0043871
0.00950883
0.0715297
0.120778
0.0190189
0.00796374
0.006625
0.00621053
0.00605044
0.00582034
0.00565046
0.00545405
0.00527678
0.00510625
0.00492509
0.00477916
0.00459064
0.00447066
0.00426654
0.00422334
0.00446071
0.00966368
0.0721127
0.121478
0.0189676
0.00799628
0.00671284
0.00630387
0.0061447
0.00591019
0.00573831
0.00553836
0.00535831
0.00518536
0.00500104
0.00485369
0.00466153
0.00454077
0.00433261
0.00429084
0.00453493
0.00981581
0.072659
0.122163
0.0189499
0.00804203
0.0068043
0.0063989
0.00624005
0.00600126
0.00582714
0.00562374
0.00544091
0.00526556
0.00507816
0.00492926
0.00473345
0.00461178
0.00439969
0.00435912
0.00460987
0.00996593
0.0731723
0.122834
0.0189602
0.00809877
0.00689876
0.00649545
0.00633642
0.0060934
0.0059169
0.0057102
0.00552455
0.00534688
0.00515639
0.00500578
0.00480638
0.00468369
0.00446783
0.00442827
0.00468561
0.0101147
0.0736551
0.123494
0.0189941
0.00816506
0.00699578
0.00659342
0.00643374
0.00618655
0.00600766
0.00579773
0.00560928
0.00542929
0.00523565
0.00508323
0.00488035
0.00475657
0.00453707
0.00449829
0.00476218
0.0102625
0.0741097
0.124145
0.019048
0.00823938
0.00709487
0.00669269
0.00653193
0.0062808
0.00609947
0.00588637
0.00569512
0.00551274
0.00531592
0.00516168
0.00495546
0.00483049
0.00460743
0.00456918
0.00483958
0.0104099
0.0745386
0.124784
0.0191186
0.00832045
0.00719575
0.00679316
0.00663101
0.00637618
0.0061923
0.00597613
0.00578204
0.00559722
0.00539728
0.00524124
0.00503175
0.00490543
0.00467886
0.00464093
0.00491788
0.0105575
0.0749445
0.125412
0.0192038
0.00840736
0.00729832
0.00689481
0.00673105
0.00647264
0.00628614
0.00606701
0.00587004
0.00568281
0.00547983
0.00532194
0.00510918
0.00498137
0.00475134
0.00471357
0.0049972
0.010706
0.0753297
0.12603
0.0193022
0.00849946
0.00740244
0.00699759
0.006832
0.00657013
0.00638102
0.00615902
0.00595916
0.00576959
0.00556357
0.00540371
0.0051877
0.00505828
0.00482489
0.00478718
0.00507763
0.0108559
0.0756957
0.12664
0.0194122
0.00859604
0.00750793
0.00710148
0.00693386
0.00666871
0.00647697
0.00625219
0.00604944
0.0058575
0.00564841
0.00548649
0.0052673
0.00513619
0.00489955
0.00486179
0.00515923
0.0110064
0.0760457
0.127247
0.0195321
0.00869645
0.00761475
0.0072065
0.00703672
0.00676847
0.00657404
0.00634651
0.00614084
0.00594648
0.00573429
0.00557031
0.00534801
0.00521513
0.00497535
0.00493745
0.00524203
0.0111545
0.0763885
0.127851
0.01966
0.00880029
0.00772292
0.00731274
0.00714072
0.00686946
0.00667222
0.00644196
0.00623332
0.0060365
0.00582128
0.00565526
0.00542989
0.00529516
0.00505232
0.00501417
0.00532604
0.0112987
0.0767294
0.128453
0.0197948
0.00890731
0.00783251
0.00742034
0.00724593
0.00697166
0.00677153
0.00653855
0.00632689
0.00612768
0.00590951
0.00574141
0.00551298
0.00537632
0.00513047
0.00509197
0.00541131
0.0114389
0.0770724
0.129053
0.0199359
0.00901733
0.00794361
0.00752935
0.00735235
0.00707509
0.00687199
0.00663633
0.00642169
0.00622014
0.00599904
0.00582879
0.0055973
0.00545864
0.00520985
0.00517093
0.00549754
0.0115765
0.0774195
0.129651
0.0200829
0.00913015
0.00805622
0.00763973
0.00745997
0.00717979
0.0069737
0.00673541
0.00651784
0.00631397
0.00608989
0.00591739
0.00568288
0.00554218
0.00529054
0.00525114
0.00558477
0.0117122
0.0777713
0.130248
0.0202348
0.00924552
0.00817028
0.00775146
0.00756889
0.00728587
0.00707676
0.0068359
0.00661539
0.00640913
0.006182
0.00600724
0.00576979
0.00562703
0.0053726
0.00533263
0.00567293
0.0118471
0.0781279
0.130844
0.020391
0.00936326
0.0082858
0.00786465
0.00767921
0.00739341
0.00718124
0.00693784
0.00671431
0.00650558
0.00627541
0.00609842
0.0058581
0.00571324
0.00545607
0.00541542
0.00576199
0.0119815
0.078489
0.13144
0.0205514
0.00948329
0.0084029
0.00797941
0.007791
0.00750246
0.0072872
0.00704122
0.00681457
0.00660336
0.00637022
0.00619103
0.00594787
0.00580083
0.00554094
0.00549948
0.00585193
0.0121156
0.0788546
0.132036
0.0207156
0.00960556
0.00852164
0.00809576
0.00790432
0.00761307
0.00739467
0.00714606
0.00691626
0.00670261
0.00646655
0.00628513
0.00603911
0.0058898
0.00562719
0.00558481
0.00594277
0.0122495
0.0792251
0.132635
0.0208832
0.00972999
0.00864204
0.00821375
0.00801922
0.0077253
0.00750368
0.00725244
0.00701952
0.00680347
0.00656447
0.00638074
0.00613181
0.00598017
0.00571485
0.00567144
0.00603455
0.0123835
0.0796005
0.133237
0.0210537
0.00985646
0.00876409
0.00833342
0.00813577
0.00783921
0.00761434
0.0073605
0.00712447
0.00690599
0.006664
0.00647785
0.00622599
0.00607198
0.00580395
0.00575943
0.00612736
0.0125178
0.0799812
0.133841
0.0212265
0.00998491
0.00888785
0.00845485
0.00825403
0.00795487
0.00772672
0.0074703
0.00723113
0.00701015
0.00676509
0.00657649
0.00632171
0.00616532
0.00589455
0.00584884
0.00622131
0.0126527
0.0803672
0.134447
0.0214015
0.0101154
0.00901343
0.0085781
0.00837406
0.00807231
0.00784084
0.00758183
0.00733945
0.00711592
0.00686779
0.00667672
0.00641903
0.00626025
0.00598672
0.00593973
0.00631646
0.0127884
0.0807586
0.135055
0.0215792
0.010248
0.00914089
0.00870325
0.00849591
0.00819153
0.00795668
0.00769505
0.00744944
0.00722335
0.00697215
0.00677861
0.00651805
0.00635683
0.00608048
0.00603216
0.00641289
0.0129249
0.0811558
0.135667
0.0217595
0.0103827
0.0092703
0.00883032
0.00861958
0.00831256
0.00807427
0.00781002
0.00756117
0.00733253
0.00707827
0.00688225
0.00661881
0.00645512
0.00617591
0.00612618
0.00651069
0.0130625
0.0815596
0.136283
0.0219422
0.0105194
0.00940169
0.00895935
0.00874512
0.00843544
0.0081937
0.00792685
0.00767475
0.00744357
0.00718625
0.00698772
0.00672136
0.00655517
0.00627305
0.00622189
0.00660999
0.0132016
0.0819701
0.136904
0.0221265
0.0106582
0.00953508
0.00909039
0.00887262
0.00856031
0.00831511
0.00804568
0.00779031
0.00755655
0.00729613
0.00709505
0.00682576
0.00665705
0.00637201
0.00631938
0.00671091
0.0133424
0.0823876
0.137529
0.0223124
0.0107991
0.00967055
0.00922353
0.00900219
0.00868729
0.00843862
0.00816658
0.00790789
0.0076715
0.00740798
0.00720432
0.00693208
0.00676084
0.00647287
0.00641872
0.00681353
0.0134851
0.0828116
0.138157
0.0224998
0.0109421
0.00980817
0.00935886
0.00913394
0.00881649
0.00856429
0.00828959
0.00802752
0.0077885
0.00752184
0.0073156
0.0070404
0.00686662
0.00657567
0.00651995
0.00691791
0.0136298
0.083242
0.138788
0.0226894
0.0110874
0.00994802
0.00949646
0.00926795
0.00894793
0.00869213
0.00841474
0.00814928
0.00790762
0.00763783
0.00742897
0.00715079
0.00697442
0.00668043
0.00662308
0.00702408
0.0137765
0.0836786
0.139423
0.0228811
0.011235
0.0100902
0.00963643
0.00940427
0.00908166
0.00882219
0.00854211
0.00827327
0.00802897
0.00775601
0.00754449
0.00726328
0.00708427
0.00678719
0.00672816
0.00713207
0.0139252
0.0841215
0.140062
0.023075
0.011385
0.0102348
0.00977886
0.00954299
0.00921775
0.00895458
0.00867184
0.00839961
0.00815263
0.00787644
0.0076622
0.00737791
0.0071962
0.00689599
0.00683522
0.00724195
0.0140757
0.0845712
0.140706
0.0232715
0.0115374
0.0103819
0.00992385
0.00968421
0.00935634
0.00908947
0.00880407
0.00852839
0.00827865
0.00799917
0.00778215
0.00749473
0.00731027
0.00700689
0.00694435
0.00735381
0.0142284
0.0850281
0.141356
0.0234708
0.0116926
0.0105317
0.0100715
0.00982805
0.00949757
0.00922697
0.00893887
0.00865966
0.00840708
0.00812424
0.0079044
0.00761381
0.00742658
0.00712
0.00705565
0.00746777
0.0143835
0.0854927
0.142011
0.0236732
0.0118506
0.0106844
0.010222
0.00997466
0.00964156
0.00936716
0.00907628
0.00879344
0.00853797
0.00825174
0.00802904
0.00773526
0.00754523
0.00723541
0.00716922
0.00758396
0.0145413
0.0859649
0.142674
0.0238787
0.0120114
0.0108399
0.0103755
0.0101241
0.00978836
0.00951007
0.00921633
0.00892981
0.00867142
0.00838176
0.00815619
0.00785917
0.0076663
0.00735322
0.00728514
0.00770249
0.014702
0.0864447
0.143345
0.0240873
0.0121753
0.0109984
0.0105318
0.0102765
0.00993802
0.00965576
0.00935913
0.00906888
0.00880753
0.00851443
0.00828594