/*--------------------------------*- C++ -*----------------------------------*\
  =========                 |
  \\      /  F ield         | OpenFOAM: The Open Source CFD Toolbox
   \\    /   O peration     | Website:  https://openfoam.org
    \\  /    A nd           | Version:  8
     \\/     M anipulation  |
\*---------------------------------------------------------------------------*/
FoamFile
{
    version     2.0;
    format      ascii;
    class       volScalarField;
    location    "100";
    object      nut;
}
// * * * * * * * * * * * * * * * * * * * * * * * * * * * * * * * * * * * * * //

dimensions      [0 2 -1 0 0 0 0];

internalField   nonuniform List<scalar> 
8400
(
0.000173881
0.000173267
0.000172649
0.000172021
0.000171381
0.000170726
0.000170054
0.000169364
0.000168654
0.000167926
0.000167178
0.000166413
0.000165631
0.000164834
0.000164023
0.000163197
0.000162359
0.000161508
0.000160646
0.000159773
0.000158887
0.000157991
0.000157083
0.000156164
0.000155233
0.000154292
0.000153337
0.000152372
0.000151395
0.000150407
0.000149408
0.000148398
0.000147377
0.000146348
0.000145309
0.000144263
0.000143209
0.00014215
0.000141087
0.000140021
0.000138955
0.000137892
0.000136833
0.000135781
0.000134741
0.000133718
0.000132718
0.000131751
0.00013083
0.000129969
6.21551e-05
6.21752e-05
6.21937e-05
6.22109e-05
6.22265e-05
6.2241e-05
6.22546e-05
6.22676e-05
6.22798e-05
6.22916e-05
6.23032e-05
6.23153e-05
6.23281e-05
6.23414e-05
6.23562e-05
6.23721e-05
6.23898e-05
6.24093e-05
6.24311e-05
6.24556e-05
6.2482e-05
6.25111e-05
6.25437e-05
6.25789e-05
6.26161e-05
6.26559e-05
6.26981e-05
6.27427e-05
6.27893e-05
6.28373e-05
6.28863e-05
6.29362e-05
6.29865e-05
6.30368e-05
6.30865e-05
6.31349e-05
6.31818e-05
6.3227e-05
6.32701e-05
6.33108e-05
6.33489e-05
6.33843e-05
6.34165e-05
6.34447e-05
6.34693e-05
6.34902e-05
6.35071e-05
6.35198e-05
6.35284e-05
6.3533e-05
6.15653e-05
6.15165e-05
6.1465e-05
6.14119e-05
6.13585e-05
6.13063e-05
6.1256e-05
6.12085e-05
6.11636e-05
6.11213e-05
6.10821e-05
6.10447e-05
6.10102e-05
6.09785e-05
6.09485e-05
6.09212e-05
6.08958e-05
6.08729e-05
6.08528e-05
6.08364e-05
6.08235e-05
6.08133e-05
6.08075e-05
6.08062e-05
6.08097e-05
6.08184e-05
6.08328e-05
6.08529e-05
6.08793e-05
6.0912e-05
6.09514e-05
6.09973e-05
6.10499e-05
6.11093e-05
6.11754e-05
6.12478e-05
6.13266e-05
6.14118e-05
6.15029e-05
6.15991e-05
6.17004e-05
6.18061e-05
6.19148e-05
6.20254e-05
6.21366e-05
6.22464e-05
6.23526e-05
6.24521e-05
6.25406e-05
6.26135e-05
6.93593e-05
6.92633e-05
6.91604e-05
6.90534e-05
6.8946e-05
6.88403e-05
6.87382e-05
6.86402e-05
6.85469e-05
6.84576e-05
6.83733e-05
6.82938e-05
6.82178e-05
6.81456e-05
6.80772e-05
6.80126e-05
6.79513e-05
6.78951e-05
6.78429e-05
6.77946e-05
6.77515e-05
6.77151e-05
6.76852e-05
6.76621e-05
6.7647e-05
6.76406e-05
6.76436e-05
6.76567e-05
6.76804e-05
6.77154e-05
6.77615e-05
6.78193e-05
6.78893e-05
6.79717e-05
6.80658e-05
6.81721e-05
6.82907e-05
6.8421e-05
6.85615e-05
6.87122e-05
6.8873e-05
6.90419e-05
6.9217e-05
6.93968e-05
6.95793e-05
6.97611e-05
6.99381e-05
7.01072e-05
7.02622e-05
7.03951e-05
7.86548e-05
7.85984e-05
7.85316e-05
7.84579e-05
7.83805e-05
7.83027e-05
7.82259e-05
7.81509e-05
7.80786e-05
7.80095e-05
7.79423e-05
7.78777e-05
7.78153e-05
7.77556e-05
7.76979e-05
7.76421e-05
7.75886e-05
7.75371e-05
7.74897e-05
7.74463e-05
7.74065e-05
7.7372e-05
7.7344e-05
7.73232e-05
7.73109e-05
7.73084e-05
7.73166e-05
7.73363e-05
7.73684e-05
7.74135e-05
7.7472e-05
7.75453e-05
7.76336e-05
7.77368e-05
7.78552e-05
7.79897e-05
7.81396e-05
7.83034e-05
7.8481e-05
7.86726e-05
7.88769e-05
7.90917e-05
7.93154e-05
7.95461e-05
7.97816e-05
8.0018e-05
8.02513e-05
8.04768e-05
8.06888e-05
8.08807e-05
8.6143e-05
8.62419e-05
8.63252e-05
8.63958e-05
8.64564e-05
8.6509e-05
8.65556e-05
8.65977e-05
8.6635e-05
8.66697e-05
8.6701e-05
8.67302e-05
8.67563e-05
8.67787e-05
8.67994e-05
8.68177e-05
8.68353e-05
8.68504e-05
8.68647e-05
8.68792e-05
8.68944e-05
8.69113e-05
8.69313e-05
8.69556e-05
8.69852e-05
8.70213e-05
8.70651e-05
8.7118e-05
8.71809e-05
8.72544e-05
8.73398e-05
8.74381e-05
8.75493e-05
8.7674e-05
8.78134e-05
8.79676e-05
8.81353e-05
8.8316e-05
8.85109e-05
8.87195e-05
8.89397e-05
8.91701e-05
8.94099e-05
8.96577e-05
8.99105e-05
9.01651e-05
9.042e-05
9.06723e-05
9.09159e-05
9.11476e-05
8.93964e-05
8.97621e-05
9.01085e-05
9.0434e-05
9.07384e-05
9.10222e-05
9.12868e-05
9.15349e-05
9.17667e-05
9.1985e-05
9.21908e-05
9.23839e-05
9.25673e-05
9.27417e-05
9.29059e-05
9.30609e-05
9.32082e-05
9.33482e-05
9.34805e-05
9.36073e-05
9.37291e-05
9.38456e-05
9.39588e-05
9.40698e-05
9.41791e-05
9.42879e-05
9.43977e-05
9.45096e-05
9.46241e-05
9.47424e-05
9.48657e-05
9.49947e-05
9.51296e-05
9.52717e-05
9.54217e-05
9.55792e-05
9.57438e-05
9.59164e-05
9.60977e-05
9.62865e-05
9.64817e-05
9.66826e-05
9.68894e-05
9.71009e-05
9.73154e-05
9.75329e-05
9.77515e-05
9.79711e-05
9.81899e-05
9.84068e-05
8.68843e-05
8.76001e-05
8.82991e-05
8.89683e-05
8.96018e-05
9.01974e-05
9.07565e-05
9.12813e-05
9.17756e-05
9.22413e-05
9.26834e-05
9.31031e-05
9.35011e-05
9.38791e-05
9.42403e-05
9.45846e-05
9.49123e-05
9.52239e-05
9.55197e-05
9.58013e-05
9.60692e-05
9.63235e-05
9.65646e-05
9.67928e-05
9.70092e-05
9.72151e-05
9.74114e-05
9.75981e-05
9.7776e-05
9.79464e-05
9.81103e-05
9.82678e-05
9.84194e-05
9.85662e-05
9.87088e-05
9.8847e-05
9.89812e-05
9.91128e-05
9.9242e-05
9.93672e-05
9.94889e-05
9.96081e-05
9.97251e-05
9.98388e-05
9.99514e-05
0.000100063
0.000100176
0.000100289
0.000100406
0.00010053
7.84202e-05
7.94335e-05
8.045e-05
8.1441e-05
8.23923e-05
8.32966e-05
8.41557e-05
8.49702e-05
8.5746e-05
8.64861e-05
8.71939e-05
8.78719e-05
8.85239e-05
8.91515e-05
8.9755e-05
9.03333e-05
9.08881e-05
9.14196e-05
9.1927e-05
9.24098e-05
9.28673e-05
9.32984e-05
9.37026e-05
9.40801e-05
9.44315e-05
9.47572e-05
9.50568e-05
9.53305e-05
9.55797e-05
9.58055e-05
9.6008e-05
9.61875e-05
9.6345e-05
9.64821e-05
9.65989e-05
9.66957e-05
9.6774e-05
9.68352e-05
9.68789e-05
9.69051e-05
9.69147e-05
9.69106e-05
9.68937e-05
9.68636e-05
9.6824e-05
9.67764e-05
9.67249e-05
9.66717e-05
9.66202e-05
9.65743e-05
6.67733e-05
6.76757e-05
6.86322e-05
6.9605e-05
7.05722e-05
7.15222e-05
7.24527e-05
7.33611e-05
7.42515e-05
7.51254e-05
7.59848e-05
7.68335e-05
7.76697e-05
7.84948e-05
7.9308e-05
8.01089e-05
8.08943e-05
8.16615e-05
8.24078e-05
8.31301e-05
8.3825e-05
8.4488e-05
8.51158e-05
8.57066e-05
8.62586e-05
8.6769e-05
8.72361e-05
8.76598e-05
8.80399e-05
8.83762e-05
8.86681e-05
8.89162e-05
8.91228e-05
8.92886e-05
8.94136e-05
8.95001e-05
8.95505e-05
8.95656e-05
8.95455e-05
8.94926e-05
8.94106e-05
8.93024e-05
8.9167e-05
8.90091e-05
8.88322e-05
8.86404e-05
8.8433e-05
8.82148e-05
8.7995e-05
8.77709e-05
5.88555e-05
5.89925e-05
5.92253e-05
5.95387e-05
5.99133e-05
6.03356e-05
6.07971e-05
6.12885e-05
6.18104e-05
6.23597e-05
6.29362e-05
6.35388e-05
6.41696e-05
6.48278e-05
6.551e-05
6.62145e-05
6.6941e-05
6.76868e-05
6.8447e-05
6.92173e-05
6.9992e-05
7.07642e-05
7.15281e-05
7.22785e-05
7.3009e-05
7.3713e-05
7.43853e-05
7.50211e-05
7.56158e-05
7.61647e-05
7.66641e-05
7.71122e-05
7.75078e-05
7.78483e-05
7.81334e-05
7.83644e-05
7.85424e-05
7.86672e-05
7.87416e-05
7.87687e-05
7.87523e-05
7.86962e-05
7.86029e-05
7.84779e-05
7.83248e-05
7.81461e-05
7.7947e-05
7.77258e-05
7.74856e-05
7.72329e-05
5.87241e-05
5.82303e-05
5.78035e-05
5.74492e-05
5.71678e-05
5.6959e-05
5.68038e-05
5.66947e-05
5.66228e-05
5.65789e-05
5.65633e-05
5.65756e-05
5.66138e-05
5.66748e-05
5.6759e-05
5.68659e-05
5.69994e-05
5.71627e-05
5.73561e-05
5.75784e-05
5.7829e-05
5.81086e-05
5.84172e-05
5.87543e-05
5.91172e-05
5.95024e-05
5.99061e-05
6.0325e-05
6.0754e-05
6.11876e-05
6.16208e-05
6.20484e-05
6.24649e-05
6.28661e-05
6.32479e-05
6.36056e-05
6.39361e-05
6.42405e-05
6.45173e-05
6.47632e-05
6.49848e-05
6.51806e-05
6.53552e-05
6.55136e-05
6.56592e-05
6.57885e-05
6.59046e-05
6.60123e-05
6.61084e-05
6.61788e-05
6.07092e-05
6.03092e-05
5.99578e-05
5.95985e-05
5.92381e-05
5.89493e-05
5.86614e-05
5.84369e-05
5.82166e-05
5.80283e-05
5.78515e-05
5.76935e-05
5.75426e-05
5.74014e-05
5.72632e-05
5.71198e-05
5.69756e-05
5.68375e-05
5.67039e-05
5.65661e-05
5.64189e-05
5.62633e-05
5.61061e-05
5.59521e-05
5.57972e-05
5.56364e-05
5.54716e-05
5.53074e-05
5.5147e-05
5.49876e-05
5.48219e-05
5.4653e-05
5.44966e-05
5.43504e-05
5.41974e-05
5.40492e-05
5.39224e-05
5.38097e-05
5.3705e-05
5.36027e-05
5.35004e-05
5.34298e-05
5.33504e-05
5.32994e-05
5.32863e-05
5.32915e-05
5.32902e-05
5.33038e-05
5.33726e-05
5.34434e-05
6.13384e-05
6.11409e-05
6.0953e-05
6.07726e-05
6.05897e-05
6.04086e-05
6.02305e-05
6.006e-05
5.98933e-05
5.97296e-05
5.95675e-05
5.94149e-05
5.92756e-05
5.91376e-05
5.89991e-05
5.88657e-05
5.87386e-05
5.86162e-05
5.84982e-05
5.83833e-05
5.82665e-05
5.81461e-05
5.80267e-05
5.791e-05
5.77932e-05
5.76737e-05
5.75503e-05
5.74264e-05
5.73067e-05
5.71851e-05
5.70539e-05
5.69189e-05
5.67895e-05
5.66572e-05
5.65167e-05
5.63764e-05
5.62431e-05
5.6113e-05
5.59797e-05
5.58506e-05
5.57118e-05
5.5577e-05
5.54465e-05
5.53144e-05
5.51838e-05
5.5059e-05
5.4925e-05
5.48027e-05
5.46688e-05
5.45205e-05
6.14065e-05
6.13009e-05
6.11986e-05
6.10911e-05
6.09855e-05
6.08797e-05
6.07739e-05
6.06679e-05
6.05645e-05
6.04618e-05
6.03595e-05
6.02585e-05
6.0158e-05
6.00581e-05
5.99593e-05
5.98612e-05
5.97639e-05
5.96681e-05
5.95736e-05
5.94795e-05
5.93851e-05
5.92906e-05
5.91962e-05
5.91018e-05
5.90069e-05
5.89108e-05
5.88144e-05
5.87189e-05
5.86229e-05
5.8525e-05
5.8426e-05
5.83274e-05
5.82274e-05
5.81252e-05
5.80223e-05
5.79204e-05
5.78197e-05
5.77189e-05
5.76186e-05
5.7514e-05
5.74116e-05
5.73093e-05
5.72052e-05
5.71023e-05
5.69991e-05
5.68987e-05
5.67941e-05
5.66891e-05
5.65789e-05
5.64624e-05
6.14351e-05
6.13655e-05
6.12964e-05
6.12273e-05
6.11564e-05
6.10866e-05
6.10174e-05
6.09481e-05
6.08773e-05
6.08064e-05
6.07362e-05
6.06668e-05
6.0597e-05
6.05263e-05
6.04557e-05
6.03853e-05
6.03147e-05
6.02441e-05
6.01735e-05
6.01027e-05
6.00315e-05
5.99598e-05
5.98877e-05
5.98155e-05
5.97427e-05
5.96695e-05
5.95961e-05
5.95224e-05
5.94481e-05
5.93734e-05
5.92985e-05
5.92234e-05
5.91471e-05
5.90699e-05
5.89927e-05
5.89159e-05
5.88391e-05
5.87611e-05
5.8683e-05
5.86039e-05
5.8525e-05
5.84475e-05
5.83694e-05
5.82907e-05
5.82117e-05
5.81314e-05
5.80512e-05
5.79699e-05
5.78846e-05
5.77969e-05
6.1457e-05
6.14102e-05
6.1363e-05
6.13142e-05
6.12658e-05
6.12159e-05
6.11652e-05
6.11146e-05
6.10637e-05
6.10121e-05
6.09595e-05
6.09069e-05
6.08542e-05
6.08008e-05
6.0747e-05
6.06931e-05
6.06391e-05
6.05847e-05
6.05304e-05
6.0476e-05
6.0421e-05
6.03658e-05
6.03105e-05
6.02551e-05
6.01994e-05
6.01434e-05
6.00874e-05
6.00312e-05
5.99749e-05
5.99184e-05
5.98621e-05
5.98052e-05
5.9748e-05
5.96907e-05
5.96329e-05
5.95758e-05
5.95187e-05
5.94603e-05
5.9403e-05
5.93453e-05
5.92869e-05
5.92297e-05
5.91715e-05
5.91133e-05
5.90556e-05
5.8997e-05
5.89381e-05
5.88763e-05
5.88119e-05
5.87435e-05
6.146e-05
6.14185e-05
6.13777e-05
6.13367e-05
6.12963e-05
6.12566e-05
6.12173e-05
6.11779e-05
6.11384e-05
6.10995e-05
6.1061e-05
6.10226e-05
6.09847e-05
6.09471e-05
6.09097e-05
6.08725e-05
6.08357e-05
6.07993e-05
6.07631e-05
6.07271e-05
6.06913e-05
6.06558e-05
6.06206e-05
6.05856e-05
6.05507e-05
6.05159e-05
6.04814e-05
6.04468e-05
6.04123e-05
6.03779e-05
6.03435e-05
6.03089e-05
6.02741e-05
6.02394e-05
6.02048e-05
6.01705e-05
6.01358e-05
6.01009e-05
6.00656e-05
6.00305e-05
5.99954e-05
5.99594e-05
5.99239e-05
5.98873e-05
5.98504e-05
5.98118e-05
5.97713e-05
5.97282e-05
5.96803e-05
5.96307e-05
6.14771e-05
6.14626e-05
6.14487e-05
6.14366e-05
6.14264e-05
6.14173e-05
6.14088e-05
6.14009e-05
6.13937e-05
6.13875e-05
6.13824e-05
6.13784e-05
6.13759e-05
6.1375e-05
6.13756e-05
6.13777e-05
6.13815e-05
6.13869e-05
6.13936e-05
6.14015e-05
6.14106e-05
6.14206e-05
6.14315e-05
6.1443e-05
6.14548e-05
6.14669e-05
6.1479e-05
6.1491e-05
6.15028e-05
6.15143e-05
6.15253e-05
6.15357e-05
6.15452e-05
6.1554e-05
6.15622e-05
6.15697e-05
6.15758e-05
6.15815e-05
6.15864e-05
6.15894e-05
6.1592e-05
6.15918e-05
6.15883e-05
6.15793e-05
6.15597e-05
6.15326e-05
6.15048e-05
6.14768e-05
6.14481e-05
6.14154e-05
6.22869e-05
6.31057e-05
6.39331e-05
6.47679e-05
6.56109e-05
6.64624e-05
6.73223e-05
6.8191e-05
6.90684e-05
6.99545e-05
7.08495e-05
7.17533e-05
7.26659e-05
7.35876e-05
7.45183e-05
7.54582e-05
7.64074e-05
7.73657e-05
7.83334e-05
7.93105e-05
8.02971e-05
8.12933e-05
8.22991e-05
8.33147e-05
8.434e-05
8.53751e-05
8.642e-05
8.74749e-05
8.854e-05
8.96151e-05
9.07002e-05
9.17953e-05
9.29012e-05
9.40171e-05
9.51437e-05
9.62806e-05
9.74282e-05
9.85862e-05
9.97551e-05
0.000100935
0.000102125
0.000103326
0.000104539
0.000105762
0.000106997
0.000108236
0.00010947
0.000110685
0.000111857
0.000112941
0.000272578
0.000269226
0.000266013
0.000262927
0.000259954
0.000257079
0.000254284
0.000251567
0.000248924
0.000246351
0.000243846
0.000241406
0.000239028
0.000236711
0.000234452
0.00023225
0.000230102
0.000228008
0.000225966
0.000223974
0.00022203
0.000220133
0.000218281
0.000216473
0.000214708
0.000212984
0.000211302
0.000209659
0.000208055
0.000206488
0.000204958
0.000203462
0.000202001
0.000200573
0.000199177
0.000197813
0.000196481
0.000195181
0.000193912
0.000192671
0.000191449
0.000190246
0.00018906
0.000187888
0.000186726
0.000185571
0.000184416
0.000183251
0.000182057
0.000180798
0.000270629
0.000264439
0.000258525
0.000252861
0.000247442
0.000242259
0.000237308
0.000232575
0.000228045
0.000223706
0.000219546
0.000215553
0.000211717
0.000208029
0.00020448
0.000201063
0.000197771
0.000194597
0.000191534
0.000188577
0.00018572
0.000182957
0.000180284
0.000177696
0.000175191
0.000172764
0.000170412
0.000168132
0.00016592
0.000163772
0.000161684
0.000159655
0.00015768
0.000155757
0.000153883
0.000152057
0.000150275
0.000148534
0.000146831
0.000145167
0.000143546
0.000141965
0.000140423
0.000138918
0.000137448
0.00013601
0.000134604
0.000133225
0.000131872
0.000130538
0.00027062
0.000264409
0.000258454
0.000252753
0.000247293
0.000242063
0.000237052
0.000232245
0.000227631
0.000223199
0.000218937
0.000214835
0.000210884
0.000207075
0.000203402
0.000199857
0.000196434
0.000193126
0.000189928
0.000186835
0.00018384
0.000180939
0.000178129
0.000175404
0.000172762
0.000170199
0.000167712
0.000165298
0.000162954
0.000160676
0.000158461
0.000156307
0.000154211
0.000152171
0.000150185
0.000148252
0.00014637
0.000144537
0.000142752
0.000141012
0.000139315
0.000137661
0.000136048
0.000134474
0.000132939
0.000131441
0.000129981
0.000128558
0.00012717
0.000125817
0.00027062
0.000264455
0.000258553
0.000252904
0.000247491
0.000242302
0.000237322
0.00023254
0.000227944
0.000223524
0.000219269
0.000215171
0.000211221
0.000207411
0.000203733
0.000200183
0.000196752
0.000193436
0.000190229
0.000187124
0.000184118
0.000181205
0.000178382
0.000175644
0.000172988
0.000170411
0.00016791
0.000165481
0.000163123
0.000160831
0.000158602
0.000156435
0.000154326
0.000152273
0.000150275
0.00014833
0.000146435
0.00014459
0.000142792
0.000141039
0.00013933
0.000137664
0.000136038
0.000134452
0.000132905
0.000131395
0.000129922
0.000128486
0.000127086
0.00012572
0.00027062
0.000264456
0.000258553
0.000252897
0.000247475
0.000242276
0.000237286
0.000232495
0.000227892
0.000223467
0.000219208
0.000215108
0.000211157
0.000207348
0.000203673
0.000200125
0.000196698
0.000193386
0.000190184
0.000187084
0.000184083
0.000181175
0.000178356
0.000175622
0.000172971
0.000170398
0.000167902
0.000165478
0.000163123
0.000160835
0.000158611
0.000156447
0.000154342
0.000152293
0.000150299
0.000148357
0.000146466
0.000144623
0.000142827
0.000141077
0.000139369
0.000137704
0.000136079
0.000134493
0.000132946
0.000131436
0.000129962
0.000128524
0.000127121
0.000125752
0.000270621
0.00026446
0.000258565
0.000252918
0.000247508
0.00024232
0.000237342
0.000232563
0.00022797
0.000223554
0.000219304
0.000215211
0.000211267
0.000207463
0.000203793
0.000200249
0.000196826
0.000193517
0.000190316
0.000187217
0.000184216
0.000181308
0.000178488
0.000175754
0.000173101
0.000170526
0.000168028
0.000165601
0.000163245
0.000160955
0.000158728
0.000156562
0.000154455
0.000152404
0.000150407
0.000148463
0.000146569
0.000144723
0.000142923
0.000141169
0.000139457
0.000137788
0.000136158
0.000134568
0.000133016
0.0001315
0.00013002
0.000128575
0.000127165
0.000125787
0.000270621
0.000264462
0.000258568
0.000252923
0.000247512
0.000242323
0.000237343
0.00023256
0.000227964
0.000223544
0.00021929
0.000215194
0.000211246
0.00020744
0.000203767
0.000200222
0.000196797
0.000193487
0.000190285
0.000187187
0.000184185
0.000181277
0.000178457
0.000175722
0.000173069
0.000170495
0.000167996
0.00016557
0.000163214
0.000160925
0.0001587
0.000156535
0.000154429
0.000152379
0.000150384
0.00014844
0.000146547
0.000144701
0.000142902
0.000141148
0.000139436
0.000137766
0.000136137
0.000134546
0.000132993
0.000131476
0.000129995
0.000128547
0.000127133
0.000125752
0.000270621
0.000264464
0.000258571
0.000252927
0.000247518
0.000242331
0.000237353
0.000232573
0.00022798
0.000223562
0.000219311
0.000215218
0.000211273
0.00020747
0.0002038
0.000200258
0.000196836
0.000193529
0.000190329
0.000187232
0.000184232
0.000181324
0.000178505
0.00017577
0.000173118
0.000170543
0.000168045
0.000165619
0.000163262
0.000160972
0.000158746
0.000156581
0.000154474
0.000152424
0.000150427
0.000148481
0.000146586
0.000144738
0.000142937
0.000141179
0.000139465
0.000137792
0.000136159
0.000134565
0.000133008
0.000131487
0.000130001
0.000128548
0.000127128
0.00012574
0.000270622
0.000264465
0.000258573
0.00025293
0.000247521
0.000242334
0.000237356
0.000232575
0.00022798
0.000223562
0.000219309
0.000215215
0.000211269
0.000207465
0.000203794
0.000200251
0.000196829
0.00019352
0.00019032
0.000187221
0.00018422
0.000181312
0.000178492
0.000175756
0.000173103
0.000170528
0.000168028
0.000165602
0.000163245
0.000160955
0.000158729
0.000156563
0.000154456
0.000152405
0.000150408
0.000148462
0.000146566
0.000144717
0.000142914
0.000141156
0.00013944
0.000137766
0.000136132
0.000134536
0.000132978
0.000131454
0.000129965
0.000128509
0.000127085
0.000125693
0.000270622
0.000264466
0.000258575
0.000252932
0.000247523
0.000242336
0.000237357
0.000232576
0.000227982
0.000223563
0.000219312
0.000215218
0.000211273
0.000207469
0.0002038
0.000200258
0.000196836
0.000193528
0.000190328
0.000187231
0.00018423
0.000181322
0.000178502
0.000175767
0.000173114
0.000170539
0.00016804
0.000165613
0.000163256
0.000160966
0.00015874
0.000156574
0.000154466
0.000152415
0.000150416
0.000148469
0.000146571
0.000144721
0.000142916
0.000141156
0.000139438
0.000137762
0.000136125
0.000134527
0.000132965
0.000131439
0.000129946
0.000128485
0.000127057
0.000125659
0.000270622
0.000264467
0.000258577
0.000252933
0.000247524
0.000242336
0.000237357
0.000232576
0.000227981
0.000223562
0.00021931
0.000215216
0.000211271
0.000207468
0.000203799
0.000200256
0.000196835
0.000193527
0.000190327
0.000187229
0.000184229
0.000181321
0.000178501
0.000175766
0.000173112
0.000170537
0.000168038
0.000165611
0.000163254
0.000160963
0.000158736
0.00015657
0.000154462
0.000152409
0.00015041
0.000148462
0.000146562
0.00014471
0.000142904
0.000141141
0.000139422
0.000137744
0.000136105
0.000134505
0.00013294
0.000131411
0.000129915
0.00012845
0.000127017
0.000125615
0.000270623
0.000264468
0.000258577
0.000252934
0.000247524
0.000242335
0.000237355
0.000232573
0.000227977
0.000223557
0.000219305
0.00021521
0.000211264
0.00020746
0.00020379
0.000200248
0.000196825
0.000193516
0.000190316
0.000187218
0.000184216
0.000181308
0.000178488
0.000175752
0.000173098
0.000170523
0.000168023
0.000165596
0.000163239
0.000160948
0.000158721
0.000156554
0.000154446
0.000152392
0.000150392
0.000148442
0.000146542
0.000144688
0.00014288
0.000141117
0.000139396
0.000137716
0.000136077
0.000134474
0.000132908
0.000131376
0.000129877
0.00012841
0.000126973
0.000125567
0.000270623
0.000264469
0.000258578
0.000252934
0.000247523
0.000242333
0.000237353
0.00023257
0.000227974
0.000223555
0.000219303
0.00021521
0.000211265
0.000207462
0.000203794
0.000200252
0.00019683
0.000193523
0.000190323
0.000187226
0.000184225
0.000181318
0.000178498
0.000175763
0.00017311
0.000170535
0.000168035
0.000165608
0.000163251
0.00016096
0.000158732
0.000156565
0.000154455
0.0001524
0.000150398
0.000148447
0.000146544
0.000144689
0.000142879
0.000141113
0.00013939
0.000137708
0.000136065
0.00013446
0.000132891
0.000131355
0.000129852
0.00012838
0.000126938
0.000125526
0.000270623
0.000264469
0.000258577
0.000252931
0.000247518
0.000242326
0.000237342
0.000232556
0.000227957
0.000223535
0.00021928
0.000215183
0.000211236
0.00020743
0.000203758
0.000200213
0.000196789
0.00019348
0.000190278
0.000187179
0.000184178
0.000181269
0.000178449
0.000175713
0.000173059
0.000170484
0.000167985
0.000165558
0.0001632
0.000160909
0.000158682
0.000156514
0.000154405
0.00015235
0.000150347
0.000148396
0.000146493
0.000144636
0.000142826
0.00014106
0.000139336
0.000137654
0.000136011
0.000134405
0.000132835
0.000131298
0.000129793
0.000128318
0.000126874
0.000125458
0.000270623
0.000264469
0.000258575
0.000252928
0.000247515
0.000242323
0.000237341
0.000232558
0.000227962
0.000223543
0.000219292
0.000215198
0.000211254
0.000207451
0.000203781
0.000200238
0.000196816
0.000193507
0.000190306
0.000187208
0.000184207
0.000181298
0.000178478
0.000175742
0.000173088
0.000170512
0.000168012
0.000165584
0.000163225
0.000160933
0.000158703
0.000156534
0.000154422
0.000152365
0.00015036
0.000148405
0.000146499
0.00014464
0.000142826
0.000141057
0.00013933
0.000137645
0.000135998
0.000134388
0.000132814
0.000131272
0.000129762
0.000128282
0.000126831
0.000125409
0.000270623
0.000264466
0.000258565
0.000252908
0.000247483
0.000242279
0.000237285
0.00023249
0.000227884
0.000223455
0.000219195
0.000215093
0.000211142
0.000207333
0.000203659
0.000200112
0.000196687
0.000193376
0.000190174
0.000187075
0.000184074
0.000181165
0.000178346
0.000175611
0.000172958
0.000170383
0.000167884
0.000165458
0.000163101
0.000160811
0.000158583
0.000156416
0.000154305
0.000152249
0.000150246
0.000148292
0.000146387
0.000144529
0.000142717
0.000140949
0.000139224
0.000137539
0.000135893
0.000134284
0.000132709
0.000131168
0.000129657
0.000128176
0.000126724
0.0001253
0.000270624
0.000264465
0.000258566
0.000252916
0.0002475
0.000242306
0.000237322
0.000232535
0.000227935
0.000223512
0.000219255
0.000215155
0.000211204
0.000207394
0.000203718
0.000200168
0.000196739
0.000193424
0.000190218
0.000187114
0.000184108
0.000181195
0.00017837
0.00017563
0.000172972
0.000170393
0.000167889
0.000165458
0.000163097
0.000160802
0.00015857
0.000156398
0.000154283
0.000152222
0.000150214
0.000148257
0.000146348
0.000144487
0.000142672
0.000140901
0.000139172
0.000137485
0.000135837
0.000134226
0.00013265
0.000131108
0.000129597
0.000128117
0.000126668
0.000125249
0.000270623
0.00026442
0.000258467
0.000252764
0.000247302
0.000242068
0.000237052
0.000232241
0.000227623
0.000223187
0.000218922
0.000214818
0.000210866
0.000207058
0.000203386
0.000199842
0.000196421
0.000193115
0.000189919
0.000186826
0.000183832
0.000180932
0.00017812
0.000175395
0.000172751
0.000170187
0.000167699
0.000165284
0.000162938
0.00016066
0.000158444
0.000156289
0.000154192
0.00015215
0.00015016
0.000148223
0.000146335
0.000144495
0.000142703
0.000140956
0.000139255
0.000137596
0.00013598
0.000134403
0.000132866
0.000131368
0.000129908
0.000128489
0.000127113
0.000125786
0.000270632
0.000264449
0.000258536
0.000252871
0.000247449
0.000242263
0.000237309
0.000232572
0.000228038
0.000223695
0.000219532
0.000215537
0.0002117
0.000208013
0.000204466
0.000201052
0.000197764
0.000194594
0.000191536
0.000188583
0.00018573
0.000182971
0.000180302
0.00017772
0.00017522
0.000172799
0.000170455
0.000168185
0.000165984
0.000163851
0.000161781
0.000159772
0.000157822
0.000155928
0.000154087
0.0001523
0.000150565
0.000148881
0.000147247
0.000145665
0.000144132
0.00014265
0.000141218
0.000139837
0.000138508
0.000137234
0.000136019
0.000134873
0.000133813
0.000132874
0.000272583
0.000269231
0.000266016
0.000262929
0.000259954
0.000257076
0.00025428
0.000251562
0.000248917
0.000246342
0.000243835
0.000241393
0.000239015
0.000236697
0.000234438
0.000232236
0.00023009
0.000227996
0.000225953
0.000223959
0.000222013
0.000220113
0.000218257
0.000216446
0.000214677
0.000212949
0.000211262
0.000209614
0.000208004
0.000206429
0.000204889
0.000203383
0.000201908
0.000200463
0.000199049
0.000197664
0.000196306
0.000194976
0.000193672
0.000192393
0.000191139
0.000189906
0.000188695
0.000187502
0.000186327
0.000185167
0.000184021
0.000182886
0.000181759
0.000180636
0.00012676
7.06032e-05
5.11224e-05
4.53516e-05
4.39783e-05
4.37627e-05
4.35583e-05
4.33473e-05
4.30331e-05
4.26801e-05
4.22939e-05
4.18569e-05
4.14525e-05
4.09501e-05
4.05532e-05
3.99687e-05
3.97493e-05
4.04367e-05
5.25883e-05
0.000105179
0.000126967
7.01123e-05
5.08755e-05
4.574e-05
4.45938e-05
4.43943e-05
4.40975e-05
4.38045e-05
4.34126e-05
4.30025e-05
4.2575e-05
4.21035e-05
4.16805e-05
4.1157e-05
4.07579e-05
4.01563e-05
3.99534e-05
4.06648e-05
5.29689e-05
0.000105669
0.000127173
6.96984e-05
5.07393e-05
4.61508e-05
4.5136e-05
4.4911e-05
4.45267e-05
4.41716e-05
4.37261e-05
4.32789e-05
4.28233e-05
4.23308e-05
4.18983e-05
4.13578e-05
4.09605e-05
4.03447e-05
4.01556e-05
4.08891e-05
5.33217e-05
0.000106105
0.000127416
6.93499e-05
5.06801e-05
4.65442e-05
4.55918e-05
4.53291e-05
4.48736e-05
4.4477e-05
4.39945e-05
4.35239e-05
4.30533e-05
4.25477e-05
4.21098e-05
4.15568e-05
4.11633e-05
4.05345e-05
4.03587e-05
4.11135e-05
5.36549e-05
0.0001065
0.000127653
6.90791e-05
5.06716e-05
4.69022e-05
4.5974e-05
4.56753e-05
4.51672e-05
4.47445e-05
4.42359e-05
4.37524e-05
4.3275e-05
4.27594e-05
4.23179e-05
4.17553e-05
4.13647e-05
4.07242e-05
4.05614e-05
4.13343e-05
5.39672e-05
0.000106857
0.000127895
6.88694e-05
5.07039e-05
4.72257e-05
4.63001e-05
4.59743e-05
4.54282e-05
4.49875e-05
4.44629e-05
4.39744e-05
4.3491e-05
4.29671e-05
4.25249e-05
4.19544e-05
4.15662e-05
4.09156e-05
4.07647e-05
4.15525e-05
5.42615e-05
0.000107184
0.000128132
6.87169e-05
5.077e-05
4.75202e-05
4.65872e-05
4.62426e-05
4.56673e-05
4.52188e-05
4.46851e-05
4.4192e-05
4.37034e-05
4.31733e-05
4.2731e-05
4.21517e-05
4.17674e-05
4.111e-05
4.09674e-05
4.17693e-05
5.45446e-05
0.000107491
0.000128355
6.86224e-05
5.08612e-05
4.77915e-05
4.68504e-05
4.64922e-05
4.5897e-05
4.5445e-05
4.49035e-05
4.44062e-05
4.39137e-05
4.33784e-05
4.29362e-05
4.23498e-05
4.19699e-05
4.13042e-05
4.11698e-05
4.19875e-05
5.48214e-05
0.000107779
0.000128572
6.85721e-05
5.09737e-05
4.80466e-05
4.70981e-05
4.6731e-05
4.6122e-05
4.56678e-05
4.51197e-05
4.46193e-05
4.41232e-05
4.35833e-05
4.31414e-05
4.255e-05
4.2173e-05
4.14996e-05
4.13741e-05
4.22084e-05
5.50919e-05
0.000108046
0.000128783
6.8566e-05
5.11022e-05
4.82914e-05
4.73379e-05
4.69647e-05
4.6345e-05
4.58896e-05
4.53366e-05
4.48323e-05
4.4333e-05
4.379e-05
4.33479e-05
4.27523e-05
4.23765e-05
4.16981e-05
4.15808e-05
4.24293e-05
5.53533e-05
0.00010829
0.000128991
6.8595e-05
5.1248e-05
4.85302e-05
4.75711e-05
4.71946e-05
4.6568e-05
4.61106e-05
4.55532e-05
4.50457e-05
4.45451e-05
4.39985e-05
4.35561e-05
4.29561e-05
4.25818e-05
4.18996e-05
4.17881e-05
4.26475e-05
5.56056e-05
0.000108515
0.000129197
6.8654e-05
5.14061e-05
4.87631e-05
4.78e-05
4.74229e-05
4.67906e-05
4.63315e-05
4.57706e-05
4.52608e-05
4.47589e-05
4.42084e-05
4.37663e-05
4.31621e-05
4.27892e-05
4.21023e-05
4.19941e-05
4.28637e-05
5.58523e-05
0.000108725
0.000129402
6.87384e-05
5.15732e-05
4.89901e-05
4.80279e-05
4.76503e-05
4.7013e-05
4.65521e-05
4.59879e-05
4.54766e-05
4.49729e-05
4.44199e-05
4.3978e-05
4.33695e-05
4.29965e-05
4.23045e-05
4.21989e-05
4.30796e-05
5.60962e-05
0.000108921
0.000129607
6.8835e-05
5.17456e-05
4.92157e-05
4.82555e-05
4.78757e-05
4.72346e-05
4.67729e-05
4.62058e-05
4.5692e-05
4.51874e-05
4.46325e-05
4.41892e-05
4.35759e-05
4.32026e-05
4.25068e-05
4.24041e-05
4.32964e-05
5.63386e-05
0.000109108
0.00012981
6.89466e-05
5.1923e-05
4.94405e-05
4.84813e-05
4.81005e-05
4.74561e-05
4.69929e-05
4.64236e-05
4.59081e-05
4.54029e-05
4.48447e-05
4.43989e-05
4.37816e-05
4.34088e-05
4.27106e-05
4.26106e-05
4.35151e-05
5.65818e-05
0.000109286
0.000130009
6.90648e-05
5.21074e-05
4.96646e-05
4.87061e-05
4.83246e-05
4.76771e-05
4.72129e-05
4.66421e-05
4.61253e-05
4.56185e-05
4.50557e-05
4.46083e-05
4.3989e-05
4.36171e-05
4.29168e-05
4.28192e-05
4.37362e-05
5.68272e-05
0.000109459
0.000130208
6.91885e-05
5.22977e-05
4.98877e-05
4.89311e-05
4.85478e-05
4.78988e-05
4.74339e-05
4.68621e-05
4.63433e-05
4.58337e-05
4.52673e-05
4.48202e-05
4.41998e-05
4.38277e-05
4.31256e-05
4.30301e-05
4.39593e-05
5.70745e-05
0.000109621
0.000130397
6.93228e-05
5.24933e-05
5.01096e-05
4.91565e-05
4.87717e-05
4.81224e-05
4.7656e-05
4.70831e-05
4.65612e-05
4.60498e-05
4.5482e-05
4.50355e-05
4.44131e-05
4.40398e-05
4.33364e-05
4.3242e-05
4.41827e-05
5.73212e-05
0.000109771
0.000130584
6.9467e-05
5.26914e-05
5.0332e-05
4.93826e-05
4.89969e-05
4.83471e-05
4.78783e-05
4.7304e-05
4.67798e-05
4.62683e-05
4.56996e-05
4.52524e-05
4.46271e-05
4.42527e-05
4.3548e-05
4.34532e-05
4.44045e-05
5.75664e-05
0.000109908
0.00013077
6.96192e-05
5.28933e-05
5.05561e-05
4.96097e-05
4.92223e-05
4.85711e-05
4.81004e-05
4.75252e-05
4.69998e-05
4.64885e-05
4.59182e-05
4.54689e-05
4.48415e-05
4.44659e-05
4.37591e-05
4.3663e-05
4.46253e-05
5.78125e-05
0.000110037
0.000130957
6.97768e-05
5.30993e-05
5.07807e-05
4.98371e-05
4.94473e-05
4.87954e-05
4.83229e-05
4.77475e-05
4.7221e-05
4.67091e-05
4.61362e-05
4.56856e-05
4.50568e-05
4.46793e-05
4.39699e-05
4.38728e-05
4.48478e-05
5.80625e-05
0.00011016
0.000131144
6.99392e-05
5.33077e-05
5.10051e-05
5.00645e-05
4.96728e-05
4.90206e-05
4.85463e-05
4.79706e-05
4.74424e-05
4.69294e-05
4.63546e-05
4.59036e-05
4.52734e-05
4.48933e-05
4.41822e-05
4.40853e-05
4.50738e-05
5.82982e-05
0.00011029
0.000131332
7.01039e-05
5.35172e-05
5.12303e-05
5.02932e-05
4.98995e-05
4.92468e-05
4.87702e-05
4.81939e-05
4.76639e-05
4.71502e-05
4.65746e-05
4.61232e-05
4.54916e-05
4.51093e-05
4.43979e-05
4.43013e-05
4.53028e-05
5.8511e-05
0.000110434
0.000131519
7.02704e-05
5.37294e-05
5.14575e-05
5.05239e-05