/*--------------------------------*- C++ -*----------------------------------*\
  =========                 |
  \\      /  F ield         | OpenFOAM: The Open Source CFD Toolbox
   \\    /   O peration     | Website:  https://openfoam.org
    \\  /    A nd           | Version:  8
     \\/     M anipulation  |
\*---------------------------------------------------------------------------*/
FoamFile
{
    version     2.0;
    format      ascii;
    class       volScalarField;
    location    "100";
    object      p_rgh;
}
// * * * * * * * * * * * * * * * * * * * * * * * * * * * * * * * * * * * * * //

dimensions      [1 -1 -2 0 0 0 0];

internalField   nonuniform List<scalar> 
8400
(
5414.61
12715.7
20078.7
27228.9
34159.3
40853.9
47307.5
53523.3
59511.1
65283.7
70855.2
76238.8
81446.3
86486.2
91372.3
96112.6
100714
105190
109542
113774
117895
121908
125815
129621
133326
136930
140437
143849
147166
150391
153527
156581
159558
162463
165306
168096
170845
173568
176280
179002
181753
184556
187443
190455
193646
197070
200801
205071
210426
217136
5243.41
12521.6
19901.1
27074
34022.2
40725.8
47179.7
53388.5
59364.7
65122.8
70677.3
76042.7
81232
86255.4
91125.8
95853.7
100445
104909
109252
113477
117589
121593
125491
129284
132976
136568
140060
143455
146752
149956
153069
156095
159040
161909
164709
167449
170142
172798
175433
178063
180704
183372
186091
188892
191807
194865
198104
201638
205709
210442
5587.82
13054.4
20554.5
27807.8
34810.2
41546.7
48016.1
54227.3
60196.8
65942.9
71482.5
76834.7
82012.3
87029.4
91898.1
96627
101225
105699
110054
114294
118422
122444
126361
130175
133887
137500
141015
144434
147757
150988
154131
157189
160168
163075
165917
168704
171446
174159
176856
179554
182268
185018
187828
190724
193734
196881
200199
203748
207604
211684
5330.15
12822.2
20404.4
27734
34786.2
41542.9
48006.9
54193.1
60123.2
65821.6
71309.3
76609.5
81736.6
86707.3
91535.4
96228.1
100793
105236
109563
113778
117882
121879
125768
129553
133235
136814
140292
143669
146946
150125
153210
156204
159112
161940
164694
167382
170014
172602
175160
177700
180235
182782
185362
187996
190702
193502
196424
199508
202792
206231
5748.17
13572
21382.2
28866.1
36015.7
42823.7
49302.9
55478.8
61383.1
67045.2
72493.6
77756.3
82851.4
87797.7
92610.2
97295.6
101860
106312
110652
114886
119015
123040
126962
130779
134495
138109
141622
145032
148341
151550
154664
157687
160624
163480
166262
168977
171633
174243
176816
179363
181895
184426
186971
189543
192151
194806
197522
200315
203205
206154
5577.39
13591.1
21600.9
29230.6
36457.8
43283.2
49734.1
55848
61671.4
67243.1
72598.5
77771.4
82784.4
87655.8
92404
97039
101561
105979
110295
114510
118623
122634
126542
130344
134039
137628
141107
144475
147734
150887
153939
156894
159758
162539
165241
167870
170437
172952
175421
177853
180261
182655
185047
187446
189862
192300
194764
197258
199785
202339
5953.55
14459.8
22811.3
30654.1
37988.7
44840.9
51263.4
57316.7
63060.9
68549.5
73825.3
78925.6
83880.7
88710.8
93430.2
98049.6
102573
107002
111340
115583
119728
123772
127712
131542
135260
138863
142349
145718
148972
152118
155161
158107
160964
163737
166431
169051
171605
174098
176532
178915
181256
183564
185845
188109
190363
192611
194853
197087
199313
201529
5939.39
14909.3
23600.9
31634.7
39028.5
45845.7
52171.8
58098.1
63703.8
69054
74204.3
79195.1
84055.7
88809.3
93469.7
98045.3
102539
106949
111275
115511
119650
123688
127617
131432
135130
138706
142159
145493
148713
151826
154838
157757
160590
163339
166009
168602
171122
173569
175945
178255
180508
182710
184872
187004
189114
191204
193270
195301
197289
199243
6301.27
16018.3
25145.5
33376.5
40798.5
47541.2
53740.9
59520.1
64981.7
70200.3
75237.6
80138.6
84932.8
89640
94271.3
98832.5
103324
107742
112080
116332
120489
124543
128487
132315
136020
139601
143059
146397
149620
152736
155750
158668
161493
164226
166870
169424
171889
174264
176551
178759
180896
182973
185003
187002
188977
190931
192857
194738
196551
198307
6569.08
17097.4
26617.1
34946.3
42286
48856.1
54852.5
60428.6
65704.3
70764
75670.5
80467.2
85181.5
89829.4
94419
98951.9
103426
107834
112167
116418
120575
124631
128577
132406
136112
139694
143153
146492
149715
152825
155829
158730
161529
164227
166828
169331
171737
174049
176274
178420
180499
182523
184508
186468
188408
190329
192221
194060
195812
197474
7237.87
18705.2
28526.3
36829
43986.1
50328.7
56103.1
61484.6
66596.4
71525.4
76330.4
81052.4
85713.8
90327.1
94896.3
99420.6
103894
108306
112648
116908
121078
125146
129104
132945
136663
140257
143725
147069
150290
153392
156379
159252
162015
164671
167222
169673
172027
174290
176469
178574
180614
182603
184551
186469
188362
190228
192059
193832
195510
197071
8273.74
20590.4
30316.1
38343.1
45181
51235.2
56769.8
61958.6
66920
71734.6
76455.7
81117
85737.9
90327.1
94884.4
99405.5
103882
108301
112653
116926
121109
125190
129162
133016
136748
140355
143834
147186
150410
153510
156486
159344
162086
164717
167243
169668
172000
174244
176408
178501
180531
182509
184444
186345
188218
190065
191885
193662
195365
196956
8555.33
21485.7
31128.5
39020.2
45751.1
51716.1
57177.3
62306.9
67221.8
72001.2
76697.4
81342.3
85953.3
90537.1
95092.5
99613.4
104090
108511
112863
117135
121315
125392
129359
133208
136934
140534
144005
147347
150560
153646
156607
159446
162169
164780
167285
169692
172007
174239
176394
178480
180507
182482
184414
186313
188184
190030
191852
193639
195364
196989
7325.83
20314.4
30633.6
38813.3
45716.7
51835.5
57430.2
62670.8
67677
72530.6
77285.2
81973.7
86615
91218.4
95784.5
100309
104783
109198
113542
117803
121972
126038
129993
133832
137549
141142
144607
147943
151152
154234
157192
160029
162748
165357
167861
170266
172580
174811
176966
179053
181080
183056
184989
186886
188754
190597
192414
194198
195930
197572
-437.428
13856.6
26087.8
35171.1
42419.9
48725.6
54440
59741.3
64765.5
69614.7
74356.1
79030.9
83662.5
88262
92831.4
97367
101861
106303
110680
114980
119191
123301
127303
131188
134954
138595
142109
145494
148750
151880
154884
157767
160531
163184
165730
168175
170529
172797
174988
177111
179172
181180
183145
185073
186969
188836
190671
192464
194188
195790
4740.83
15314.3
29254.3
40233.1
48446.4
55324
61469.4
67072.6
72275.1
77206.8
81963
86603.1
91162.8
95661.1
100105
104497
108836
113113
117320
121447
125483
129419
133247
136962
140561
144040
147397
150633
153746
156739
159612
162370
165017
167557
169994
172338
174595
176773
178877
180917
182901
184836
186727
188583
190404
192187
193921
195580
197118
198436
-26842.6
-11185.2
6255.3
19135.9
28543.3
36426.5
43568.5
50115.5
56164.8
61851
67285.2
72536.1
77647.9
82647.7
87549.2
92361.6
97090.1
101734
106288
110746
115100
119341
123463
127461
131335
135080
138698
142188
145550
148784
151892
154878
157744
160494
163133
165669
168108
170460
172730
174925
177053
179122
181135
183092
184992
186822
188557
190155
191543
192632
10020.7
13963.8
31017.6
45104.8
54215.3
61134.8
67197.3
72647.7
77603.2
82230
86669.2
91001.9
95269.8
99496.9
103692
107855
111985
116075
120116
124096
128000
131816
135532
139144
142647
146040
149320
152489
155544
158486
161315
164033
166643
169146
171549
173858
176082
178226
180299
182307
184256
186147
187983
189753
191439
193004
194372
195419
195915
195783
-76335.1
-47133.1
-17536.3
1613.24
14851.3
25590.2
34989
43298.6
50696.2
57406.9
63626.8
69486.5
75068.1
80430.7
85614.8
90645.4
95541.9
100318
104981
109529
113956
118259
122432
126475
130387
134172
137831
141365
144775
148060
151222
154261
157178
159976
162659
165234
167710
170092
172387
174601
176734
178786
180744
182592
184292
185786
186980
187728
187905
187089
1669.44
1925.27
14691.4
27367.3
36908.8
44886.8
52189.1
58887.9
65000.9
70648.4
75963.4
81041.1
85940.4
90700.7
95348.3
99898.2
104361
108742
113042
117256
121373
125386
129288
133074
136744
140300
143743
147074
150291
153396
156388
159265
162026
164677
167218
169659
172004
174261
176436
178532
180542
182466
184275
185942
187401
188543
189189
189021
187490
183574
714473
713960
713707
713612
713559
713521
713495
713477
713465
713456
713450
713444
713440
713437
713434
713432
713430
713429
713427
713425
713424
713422
713420
713419
713417
713415
713413
713411
713409
713406
713404
713401
713397
713392
713387
713379
713370
713359
713345
713329
713310
713288
713262
713232
713197
713154
713102
713038
712956
712848
712874
713160
713254
713289
713316
713336
713350
713361
713369
713375
713380
713384
713387
713390
713392
713394
713396
713397
713399
713399
713400
713400
713400
713400
713399
713399
713398
713397
713395
713394
713392
713390
713387
713383
713378
713372
713363
713352
713339
713324
713306
713285
713260
713231
713197
713156
713108
713049
712977
712891
713331
713467
713540
713547
713537
713526
713515
713503
713492
713483
713475
713468
713462
713457
713453
713449
713446
713443
713440
713437
713435
713432
713430
713428
713425
713423
713421
713418
713416
713413
713411
713408
713404
713400
713394
713387
713379
713368
713356
713341
713323
713303
713280
713253
713222
713185
713141
713089
713029
712958
713353
713378
713390
713385
713379
713376
713376
713376
713377
713378
713380
713382
713384
713386
713387
713389
713390
713391
713392
713393
713394
713394
713395
713395
713395
713395
713394
713394
713393
713392
713391
713390
713387
713384
713380
713375
713367
713358
713347
713334
713319
713301
713281
713258
713230
713198
713161
713118
713068
713013
713386
713401
713421
713436
713445
713450
713454
713456
713456
713455
713454
713452
713451
713449
713447
713445
713443
713441
713439
713437
713435
713433
713431
713429
713428
713426
713424
713423
713421
713419
713417
713414
713412
713408
713403
713398
713390
713382
713371
713360
713346
713330
713312
713292
713268
713241
713210
713175
713135
713091
713398
713404
713411
713415
713415
713414
713412
713409
713407
713405
713404
713403
713402
713402
713401
713401
713400
713400
713399
713399
713399
713399
713399
713399
713399
713399
713398
713398
713398
713398
713397
713396
713395
713392
713389
713385
713380
713373
713366
713356
713346
713334
713320
713303
713285
713264
713240
713213
713183
713151
713405
713408
713413
713418
713421
713424
713427
713429
713430
713431
713432
713433
713433
713434
713433
713433
713432
713431
713430
713429
713428
713427
713426
713425
713425
713424
713423
713423
713422
713421
713420
713419
713417
713415
713412
713408
713403
713398
713391
713384
713375
713365
713354
713342
713328
713312
713294
713273
713251
713228
713409
713410
713413
713416
713418
713419
713420
713420
713419
713419
713418
713417
713416
713416
713414
713413
713412
713411
713409
713408
713407
713407
713407
713406
713407
713407
713407
713407
713407
713408
713408
713407
713407
713406
713404
713402
713400
713396
713392
713388
713382
713376
713369
713361
713352
713342
713331
713318
713304
713290
713411
713412
713414
713416
713418
713420
713421
713422
713423
713424
713425
713425
713426
713426
713425
713425
713424
713423
713422
713421
713421
713420
713420
713420
713420
713421
713421
713421
713422
713422
713422
713422
713422
713422
713421
713419
713418
713416
713414
713411
713409
713406
713402
713398
713393
713388
713383
713376
713370
713363
713412
713413
713414
713416
713418
713420
713421
713422
713422
713423
713423
713423
713423
713422
713422
713421
713419
713418
713417
713416
713415
713414
713414
713415
713415
713416
713416
713417
713418
713419
713420
713421
713422
713422
713423
713423
713423
713423
713423
713424
713424
713424
713425
713425
713425
713425
713426
713426
713426
713427
713412
713413
713415
713417
713419
713420
713422
713422
713423
713423
713424
713424
713424
713423
713422
713421
713420
713418
713417
713416
713415
713415
713415
713415
713416
713417
713418
713420
713421
713423
713424
713425
713427
713428
713430
713431
713433
713435
713438
713441
713444
713447
713451
713456
713460
713466
713472
713478
713485
713493
713412
713413
713415
713417
713420
713422
713423
713424
713425
713426
713427
713428
713428
713428
713427
713427
713426
713425
713423
713423
713422
713422
713422
713422
713423
713425
713426
713428
713429
713431
713433
713435
713437
713439
713441
713444
713447
713451
713456
713461
713467
713473
713480
713488
713497
713507
713519
713531
713545
713559
713410
713412
713415
713418
713420
713422
713422
713423
713422
713422
713421
713421
713420
713419
713418
713416
713415
713413
713412
713410
713410
713410
713410
713411
713412
713414
713416
713418
713420
713423
713426
713428
713432
713435
713439
713444
713449
713455
713462
713470
713478
713488
713499
713511
713525
713540
713557
713575
713596
713618
713407
713410
713415
713420
713424
713428
713430
713432
713434
713436
713437
713438
713438
713438
713438
713437
713436
713434
713433
713432
713431
713430
713430
713431
713432
713433
713435
713437
713439
713442
713444
713447
713450
713454
713459
713464
713470
713477
713486
713495
713506
713518
713531
713547
713564
713583
713605
713630
713656
713685
713400
713406
713413
713418
713419
713418
713416
713414
713412
713411
713410
713409
713409
713408
713407
713406
713405
713404
713403
713403
713403
713403
713404
713406
713408
713411
713413
713417
713420
713424
713428
713432
713436
713442
713448
713455
713464
713473
713484
713496
713509
713524
713541
713560
713582
713606
713634
713665
713699
713736
713388
713404
713424
713440
713449
713455
713459
713461
713462
713461
713461
713459
713458
713456
713454
713451
713449
713446
713443
713441
713439
713438
713437
713438
713439
713440
713442
713444
713446
713449
713452
713456
713460
713466
713472
713479
713488
713498
713510
713523
713537
713554
713573
713594
713619
713647
713680
713716
713757
713801
713355
713381
713394
713390
713384
713382
713382
713382
713384
713385
713388
713390
713392
713394
713395
713396
713397
713397
713397
713398
713399
713400
713402
713404
713407
713410
713414
713418
713422
713426
713431
713436
713442
713449
713457
713467
713477
713489
713503
713518
713534
713553
713575
713600
713628
713661
713699
713742
713790
713844
713335
713470
713544
713551
713542
713532
713521
713509
713499
713491
713483
713477
713471
713466
713462
713457
713453
713449
713445
713442
713440
713438
713438
713438
713439
713440
713442
713445
713447
713451
713454
713459
713464
713471
713478
713488
713498
713510
713524
713539
713557
713577
713600
713626
713657
713693
713735
713784
713840
713903
712878
713164
713258
713294
713321
713342
713357
713368
713376
713383
713388
713393
713396
713399
713401
713403
713403
713404
713404
713404
713405
713406
713408
713410
713413
713417
713420
713424
713428
713433
713438
713444
713450
713458
713467
713477
713489
713502
713516
713533
713552
713573
713598
713626
713659
713698
713744
713798
713861
713935
714476
713964
713711
713617
713565
713527
713501
713484
713473
713465
713459
713454
713450
713447
713444
713441
713438
713435
713433
713431
713429
713429
713429
713430
713432
713434
713436
713439
713443
713446
713451
713456
713462
713470
713478
713488
713500
713513
713527
713544
713563
713584
713609
713639
713673
713713
713761
713818
713888
713975
712770
713023
713074
713268
713364
713512
713628
713763
713886
714020
714147
714282
714408
714546
714664
714808
714909
715066
715135
715308
712733
712987
713044
713248
713346
713505
713624
713766
713892
714030
714159
714296
714422
714561
714679
714823
714924
715082
715152
715324
712698
712956
713018
713230
713330
713498
713619
713767
713895
714037
714167
714307
714433
714573
714690
714836
714936
715095
715166
715337
712668
712929
712994
713214
713316
713492
713614
713768
713898
714043
714173
714315
714441
714583
714700
714846
714947
715105
715177
715346
712641
712905
712975
713200
713303
713486
713609
713768
713899
714048
714178
714322
714448
714590
714707
714854
714955
715113
715185
715354
712618
712884
712957
713186
713292
713480
713605
713768
713899
714051
714181
714327
714452
714596
714713
714861
714961
715120
715192
715360
712598
712867
712942
713175
713283
713475
713600
713768
713899
714054
714184
714331
714456
714602
714718
714867
714966
715125
715197
715364
712581
712852
712930
713166
713275
713471
713596
713768
713899
714055
714185
714334
714459
714606
714722
714871
714970
715129
715200
715366
712567
712840
712921
713158
713268
713468
713593
713767
713898
714057
714187
714337
714462
714610
714724
714875
714973
715132
715202
715367
712556
712829
712913
713152
713263
713465
713590
713767
713897
714058
714187
714339
714463
714612
714726
714877
714974
715132
715203
715367
712546
712821
712906
713146
713258
713462
713587
713766
713896
714058
714187
714340
714464
714613
714726
714877
714974
715132
715202
715366
712537
712813
712900
713141
713254
713459
713584
713765
713894
714058
714186
714340
714463
714613
714725
714876
714972
715131
715201
715365
712530
712806
712894
713136
713249
713456
713581
713763
713891
714056
714184
714340
714461
714612
714723
714875
714971
715130
715199
715363
712523
712799
712889
713131
713245
713452
713577
713760
713888
714054
714181
714338
714459
714610
714721
714874
714968
715128
715197
715360
712515
712793
712883
713125
713240
713448
713573
713756
713884
714052
714178
714336
714456
714609
714719
714872
714966
715126
715194
715358
712508
712786
712877
713119
713234
713443
713568
713752
713880
714049
714175
714333
714453
714607
714716
714870
714964
715124
715192
715355
712501
712779
712870
713113
713228
713437
713562
713748
713876
714045
714171
714330
714450
714604
714714
714868
714961
715121
715189
715352
712493
712772
712864
713107
713222
713431
713557
713743
713871
714041
714167
714327
714446
714602
714711
714866
714958
715118
715186
715349
712485
712764
712857
713100
713216
713426
713551
713738
713866
714037
714162
714324
714443
714599
714708
714863
714955
715116
715184
715347
712477
712756
712850
713093
713210
713420
713546
713733
713861
714033
714158
714320
714440
714597
714705
714861
714953
715114
715182
715346
712469
712749
712843
713086
713203
713414
713540
713729
713856
714029
714154
714317
714436
714594
714702
714859
714952
715114
715181
715345
712461
712741
712836
713080
713197
713409
713535
713724
713852
714025
714151
714315
714434
714592
714700
714858
714951
715113
715181
715344
712453
712734
712829
713074
713192
713404
713530
713720
713848
714022
714148
714312
714431
714590
714698
714857
714949
715112
715180
715344
712446
712727
712823
713068
713186
713399
713525
713715
713844
714019
714145
714310
714429
714588
714696
714855
714948
715111
715179
715343
712440
712721
712817
713062
713181
713394
713521
713712
713840
714016
714142
714307
714426
714586
714694
714854
714946
715109
715177
715341
712434
712716
712811
713057
713175
713389
713516
713708
713837
714013
714139
714305
714423
714584
714692
714851
714944
715107
715174
715338
712428
712710
712806
713052
713170
713384
713512
713704
713833
714010
714135
714302
714420
714581
714689
714848
714941
715104
715171
715335
712423
712705
712801
713047
713166
713380
713508
713701
713830
714007
714132
714299
714417
714578
714685
714845
714937
715100
715167
715332
712418
712701
712796
713042
713162
713377
713505
713698
713826
714004
714129
714296
714413
714575
714682
714842
714933
715096
715163
715328
712413
712696
712792
713039
713158
713374
713501
713695
713823
714001
714126
714293
714410
714572
714678
714838
714929
715093
715159
715324
712409
712693
712788
713036
713155
713371
713499
713692
713820
713998
714123
714290
714407
714569
714675
714835
714926
715089
715155
715321
712406
712690
712786
713033
713153
713369
713496
713690
713818
713996
714120
714287
714404
714566
714672
714831
714922
715086
715152
715317
712403
712688
712784
713032
713151
713367
713494
713688
713816
713994
714118
714285
714402
714563
714669
714828
714919
715082
715148
715314
712401
712686
712782
713030
713149
713365
713492
713686
713814
713992
714116
714283
714399
714560
714666
714826
714916
715080
715146
715311
712399
712684
712780
713028
713147
713363
713490
713684
713812
713991
714114
714282
714397
714558
714664
714824
714914
715078
715143
715309
712397
712682
712778
713026
713145
713361
713489
713683
713811
713989
714113
714280
714396
714557
714663
714823
714913
715076
715141
715307
712394
712680
712775
713023
713142
713359
713486
713681
713809
713988
714111
714279
714395
714556
714662
714822
714912
715075
715140
715306
712391
712677
712772
713021
713139
713357
713484
713679
713807
713986
714109
714277
714394
714556
714661
714821
714911
715074
715139
715305
712388
712674
712769
713018
713136
713354
713481
713676
713804
713983
714107
714276
714392
714554
714660
714820
714910
715073
715138
715304
712384
712671
712765
713014
713133
713350
713478
713673
713801
713980
714104
714273
714390
714552
714658
714818
714908
715072
715137
715303
712380
712667
712761
713011
713129
713347
713474
713669
713797
713977
714101
714270
714387
714550
714655
714816
714906
715070
715135
715302
712376
712663
712757
713007
713125
713343
713470
713665
713793
713973
714097
714267
714384
714547
714653
714814
714904
715068
715133
715300
712372
712660
712754
713004
713121
713339
713466
713661
713789
713969
714093
714263
714380
714543
714650
714811
714901
715065
715130
715297
712369
712658
712751
713001
713118
713336
713462
713658
713785
713966
714090
714260
714377
714541
714647
714808
714898
715063
715127
715295
712367
712656
712749
712999
713116
713334
713460
713655
713783
713963
714088
714258
714375
714538
714644
714806
714896
715060
715125
715292
712366
712655
712748
712998
713114
713332
713458
713654
713781
713962
714086
714256
714373
714536
714642
714803
714893
715057
715122
715290
712367
712656
712748
712998
713114
713332
713458
713654
713781
713961
714085
714255
714371
714534
714640
714801
714890
715055
715119
715287
712368
712657
712749
712999
713115
713333
713458
713654
713781
713961
714084
714254
714370
714533
714638
714799
714888
715052
715116
715285
712369
712659
712751
713001
713117
713334
713459
713655
713781
713961
714084
714253
714369
714531
714636
714796
714885
715050
715114
715283
712372
712662
712753
713004
713118
713336
713460
713655
713781
713961
714083
714252
714367
714529
714634
714794
714883
715048
715112
715281
712374
712665
712756
713006
713120
713338
713461
713656
713782
713961
714083
714251
714366
714528
714632
714792
714881
715046
715110
715279
712376
712667
712758
713008
713122
713339
713462
713657
713781
713960
714081
714249
714364
714526
714630
714790
714878
715043
715107
715276
712377
712669
712759
713009
713123
713340
713462
713656
713781
713959
714080
714247
714362
714523
714627
714787
714875
715040
715103
715272
712377
712669
712759
713009
713122
713339
713461
713655
713779
713957
714077
714245
714358
714520
714623
714783
714871
715035
715098
715267
712376
712668
712757
713008
713121
713337
713459
713653
713776
713953
714074
714241
714354
714515
714618
714778
714865
715029
715092
715262
712372
712665
712754
713004
713117
713334
713455
713649
713772
713949
714069
714235
714349
714509
714612
714772
714859
715023
715085
715255
712368
712660
712749
713000
713112
713329
713450
713643
713766
713943
714063
714229
714342
714503
714605
714765
714852
715016
715078
715248
712362
712655
712743
712994
713106
713323
713444
713637
713760
713937
714057
714223
714336
714496
714599
714758
714845
715009
715071
715242
712355
712648
712736
712987
713099
713316
713437
713631
713754
713931
714051
714217
714330
714490
714592
714752
714838
715002
715065
715236
712348
712642
712730
712981
713093
713310
713431
713625
713748
713925
714045
714211
714324
714485
714587
714746
714833
714997
715060
715231
712342
712636
712724
712975
713087
713305
713426
713620
713743
713920
714040
714207
714320
714480
714583
714742
714829
714993
715056
715227
712337
712631
712719
712971
713083
713301
713422
713616
713739
713917
714037
714203
714316
714477
714580
714739
714826
714991
715053
715224
712333
712628
712715
712967
713079
713298
713419
713613
713736
713914
714034
714201
714314
714475
714578
714738
714825
714989
715051
715223
712330
712625
712713
712965
713077
713295
713417
713611
713734
713912
714033
714200
714313
714474
714577
714737
714824
714989
715051
715223
712327
712624
712711
712964
713075
713294
713415
713610
713734
713912
714032
714199
714313
714474
714577
714737
714824
714989
715051
715223
712326
712623
712710
712963
713075
713294
713415
713610
713733
713912
714032
714200
714313
714475
714578
714738
714825
714990
715052
715224
712326
712623
712710
712963
713074
713294
713415
713610
713734
713912
714033
714201
714315
714476
714579
714740
714827
714992
715053
715226
712325
712623
712709
712963
713074
713294
713415
713611
713735
713913
714034
714202
714316
714478
714581
714741
714828
714994
715055
715228
712325
712623
712709
712963
713074
713294
713416
713611
713735
713914
714036
714203
714318
714479
714582
714743
714830
714995
715057
715230
712325
712623
712709
712963
713074
713294
713416
713611
713736
713915
714036
714204
714319
714480
714584
714744
714831
714997
715058
715231
712324
712623
712709
712963
713074
713293
713415
713611
713735
713914
714036
714204
714319
714481
714584
714745
714832
714997
715059
715232
712323
712622
712707
712962
713072
713292
713414
713609
713734
713913
714035
714203
714318
714480
714583
714744
714831
714997
715058
715232
712321
712620
712706
712960
713070
713290
713412
713607
713732
713911
714033
714201
714316
714478
714582
714743
714830
714995
715056
715230
712318
712618
712703
712957
713067
713287
713409
713604
713729
713908
714030
714198
714313
714475
714579
714740
714827
714993
715053
715228
712315
712615
712699
712954
713064
713284
713405
713601
713726
713905
714027
714195
714310
714472
714575
714736
714823
714989
715050
715224
712311
712611
712695
712950
713060
713280
713402
713597
713722
713901
714023
714191
714306
714467
714571
714732
714819
714985
715045
715220
712306
712607
712691
712946
713056
713276
713398
713593
713718
713897
714019
714187
714302
714463
714567
714728
714814
714981
715041
715216
712301
712602
712686
712942
713052
713272
713394
713590
713715
713893
714016
714183
714298
714459
714563
714723
714810
714976
715037
715212
712297
712599
712682
712938
713048
713269
713391
713586
713711
713889
714012
714179
714294
714455
714559
714720
714806
714973
715033
715209
712293
712595
712679
712935
713045
713266
713388
713583
713708
713886
714009
714175
714291
714452
714555
714716
714803
714969
715029
715205
712290
712592
712676
712932
713042
713263
713385
713580
713705
713883
714006
714172
714288
714449
714552
714713
714799
714966
715026
715202
712287
712590
712674
712930
713040
713261
713382
713577
713703
713880
714003
714169
714285
714446
714550
714710
714796
714963
715023
715199
712285
712589
712672
712928
713038
713259
713380
713575
713700
713877
714000
714167
714283
714443
714547
714708
714794
714960
715020
715197
712283
712588
712670
712927
713036
713257
713378
713572
713698
713875
713998
714164
714281
714441
714545
714706
714792
714958
715018
715195
712282
712586
712669
712925
713034
713254
713376
713570
713696
713873
713996
714162
714279
714439
714543
714704
714790
714956
715016
715193
712280
712585
712667
712923
713032
713252
713373
713568
713694
713871
713995
714161
714277
714438
714542
714702
714788
714955
715014
715191
712279
712584
712665
712921
713030
713250
713371
713566
713692
713869
713993
714159
714275
714436
714540
714700
714786
714953
715012
715190
712276
712582
712663
712919
713028
713248
713370
713564
713690
713867
713991
714157
714273
714434
714538
714698
714784
714951
715010
715188
712274
712580
712660
712917
713026
713246
713368
713562
713689
713865
713989
714154
714271
714431
714535
714696
714782
714949
715008
715186
712271
712577
712658
712915
713024
713244
713366
713560
713687
713863
713987
714152
714268
714428
714532
714693
714779
714946
715005
715183
712268
712574
712655
712912
713021
713241
713363
713557
713684
713860
713984
714148
714265
714424
714529
714689
714775
714942
715001
715180
712264
712571
712652
712909
713018
713238
713360
713554
713680
713856
713980
714144
714261
714420
714525
714685
714771
714938
714997
715176
712259
712567
712647
712905
713014
713234
713356
713549
713676
713851
713975
714139
714256
714415
714519
714680
714766
714933
714991
715171
712254
712562
712642
712900
713009
713229
713351
713544
713670
713845
713969
714133
714250
714409
714514
714674
714760
714927
714985
715165
712247
712556
712636
712894
713002
713222
713344
713537
713664
713838
713963
714126
714244
714402
714507
714667
714753
714919
714978
715157
712240
712549
712629
712887
712995
713215
713337
713529
713657
713830
713956
714119
714236
714395
714499
714659
714745
714912
714970
715150
712233
712542
712621
712879
712988
713207
713329
713521
713649
713822
713948
714111
714229
714387
714491
714651
714736
714903
714961
715142
712224
712534
712613
712871
712979
713198
713321
713513
713640
713814
713940
714102
714220
714378
714483
714642
714728
714895
714952
715133
712216
712526
712605
712863
712971
713190
713312
713504
713632
713805
713931
714093
714212
714369
714474
714633
714719
714886
714943
715124
712207
712518
712596
712854
712962
713180
713303
713494
713623
713795
713922
714084
714203
714360
714465
714624
714710
714877
714934
715116
712198
712509
712587
712845
712953
713171
713294
713485
713613
713786
713913
714074
714193
714350
714456
714615
714700
714868
714925
715107
712188
712500
712577
712835
712943
713161
713284
713475
713604
713776
713903
714064
714183
714340
714446
714605
714691
714858
714916
715098
712178
712490
712567
712825
712933
713151
713274
713465
713594
713766
713893
714054
714174
714331
714436
714595
714682
714849
714907
715089
712167
712479
712557
712815
712923
713141
713265
713454
713584
713755
713883
714044
714164
714321
714427
714586
714672
714840
714897
715079
712156
712469
712546
712804
712913
713131
713255
713444
713575
713746
713874
714034
714154
714311
714417
714576
714662
714830
714887
715070
712145
712458
712536
712794
712903
713121
713245
713435
713565
713736
713864
714024
714145
714301
714408
714566
714653
714820
714877
715060
712134
712448
712525
712784
712893
713111
713236
713425
713556
713726
713855
714015
714136
714292
714398
714557
714643
714811
714868
715051
712124
712438
712515
712774
712883
713101
713226
713415