/*--------------------------------*- C++ -*----------------------------------*\
  =========                 |
  \\      /  F ield         | OpenFOAM: The Open Source CFD Toolbox
   \\    /   O peration     | Website:  https://openfoam.org
    \\  /    A nd           | Version:  8
     \\/     M anipulation  |
\*---------------------------------------------------------------------------*/
FoamFile
{
    version     2.0;
    format      ascii;
    class       surfaceScalarField;
    location    "100";
    object      phi;
}
// * * * * * * * * * * * * * * * * * * * * * * * * * * * * * * * * * * * * * //

dimensions      [1 0 -1 0 0 0 0];

internalField   nonuniform List<scalar> 
16360
(
-2.92506
-0.0183334
-2.90701
-0.0180484
-2.88927
-0.0177279
-2.87196
-0.0173062
-2.85516
-0.0167926
-2.83896
-0.0162046
-2.82338
-0.015574
-2.80845
-0.014927
-2.79415
-0.0142929
-2.78047
-0.0136876
-2.76737
-0.0131151
-2.75479
-0.0125781
-2.7427
-0.0120761
-2.73107
-0.0116171
-2.71988
-0.0111906
-2.70907
-0.0107951
-2.69867
-0.0104272
-2.6886
-0.0100636
-2.67888
-0.00971803
-2.66951
-0.00937844
-2.66047
-0.00903773
-2.65177
-0.00870605
-2.64342
-0.00836071
-2.6354
-0.00800435
-2.62774
-0.00765397
-2.62044
-0.00730822
-2.61349
-0.00695448
-2.60689
-0.00659068
-2.60066
-0.00622943
-2.59478
-0.0058747
-2.58926
-0.00552582
-2.58408
-0.00518512
-2.57922
-0.00485456
-2.57467
-0.00453971
-2.57042
-0.00424913
-2.56644
-0.00398847
-2.56268
-0.0037623
-2.55911
-0.00357851
-2.55567
-0.0034479
-2.5523
-0.00338235
-2.5489
-0.00339489
-2.54538
-0.00350516
-2.54163
-0.00374821
-2.53747
-0.0041661
-2.53266
-0.00480774
-2.5269
-0.00576739
-2.51972
-0.00717755
-2.51057
-0.00915226
-2.49868
-0.0118953
-0.0166436
-2.48204
-2.93348
-0.035432
-2.91611
-0.0354121
-2.8989
-0.0349232
-2.88211
-0.0340964
-2.86586
-0.0330361
-2.85024
-0.0318226
-2.83528
-0.0305273
-2.82101
-0.0292109
-2.80739
-0.0279182
-2.79441
-0.0266832
-2.782
-0.025512
-2.77013
-0.0244313
-2.75877
-0.0234314
-2.74787
-0.0225093
-2.73741
-0.0216626
-2.72734
-0.0208623
-2.71767
-0.020114
-2.70835
-0.0193926
-2.69938
-0.0186917
-2.69076
-0.0180054
-2.6825
-0.0173141
-2.67456
-0.0166224
-2.66697
-0.0159357
-2.65975
-0.0152432
-2.65287
-0.0145407
-2.64636
-0.0138285
-2.6402
-0.0131077
-2.6344
-0.0123847
-2.62896
-0.011664
-2.62389
-0.0109481
-2.61917
-0.0102421
-2.61479
-0.00955315
-2.61075
-0.00888893
-2.60703
-0.00825777
-2.60361
-0.00766883
-2.60048
-0.00713127
-2.5976
-0.0066549
-2.59493
-0.00625267
-2.59244
-0.00594348
-2.59006
-0.00574974
-2.58774
-0.005695
-2.58542
-0.00581575
-2.58302
-0.00616015
-2.58041
-0.00677672
-2.57747
-0.00774479
-2.57405
-0.00919139
-2.56996
-0.0112696
-2.56494
-0.0141753
-2.5585
-0.0183308
-0.0245911
-2.55055
-2.89415
-0.0542363
-2.87598
-0.0535796
-2.85831
-0.0525952
-2.84119
-0.0512301
-2.82468
-0.0495444
-2.80886
-0.0476427
-2.79375
-0.0456341
-2.77935
-0.0436148
-2.76563
-0.0416464
-2.75253
-0.039778
-2.74002
-0.0380367
-2.72803
-0.0364199
-2.71652
-0.0349356
-2.70546
-0.033575
-2.69481
-0.032317
-2.68454
-0.0311453
-2.67463
-0.030039
-2.66506
-0.0289679
-2.65582
-0.027922
-2.64691
-0.0269026
-2.63834
-0.0258992
-2.63009
-0.0248806
-2.62217
-0.023852
-2.6146
-0.0228166
-2.60738
-0.0217667
-2.6005
-0.020705
-2.59397
-0.0196327
-2.58779
-0.0185546
-2.58197
-0.0174773
-2.57651
-0.0164076
-2.57139
-0.0153568
-2.5666
-0.014333
-2.56214
-0.0133434
-2.55798
-0.0124032
-2.55412
-0.0115289
-2.55052
-0.0107303
-2.54715
-0.0100204
-2.54397
-0.00942454
-2.54094
-0.00897261
-2.538
-0.00868777
-2.53507
-0.00860329
-2.53212
-0.00877369
-2.52903
-0.00925429
-2.52569
-0.0101088
-2.52201
-0.0114312
-2.51785
-0.0133506
-2.51308
-0.0160309
-2.50759
-0.0196621
-2.50132
-0.0246066
-0.0316497
-2.49427
-2.84289
-0.071506
-2.82522
-0.0712436
-2.8078
-0.0700326
-2.79093
-0.0681114
-2.77476
-0.0657094
-2.75938
-0.0630225
-2.74479
-0.0602193
-2.73098
-0.0574312
-2.71789
-0.0547542
-2.70544
-0.0522231
-2.69359
-0.0498846
-2.68227
-0.0477399
-2.67142
-0.0457812
-2.66101
-0.0439887
-2.65099
-0.0423374
-2.64135
-0.0407978
-2.63204
-0.0393298
-2.62307
-0.0379364
-2.61444
-0.0365742
-2.60613
-0.0352217
-2.59814
-0.0338762
-2.59049
-0.0325302
-2.58317
-0.0311709
-2.57621
-0.0297914
-2.56959
-0.0283937
-2.56332
-0.0269757
-2.55741
-0.0255423
-2.55186
-0.0241016
-2.54668
-0.0226607
-2.54186
-0.0212319
-2.5374
-0.0198247
-2.53328
-0.0184466
-2.5295
-0.0171152
-2.52606
-0.0158515
-2.52292
-0.0146674
-2.52007
-0.0135746
-2.51749
-0.0126003
-2.51515
-0.0117787
-2.513
-0.0111318
-2.51099
-0.010686
-2.5091
-0.010496
-2.50727
-0.0106186
-2.50543
-0.0111071
-2.5035
-0.012041
-2.50141
-0.013525
-2.4991
-0.0156853
-2.49645
-0.0186743
-2.49341
-0.022697
-2.48994
-0.0280717
-0.0351478
-2.48647
-2.76751
-0.0904711
-2.74926
-0.0895085
-2.7317
-0.0876131
-2.71492
-0.0848962
-2.69902
-0.0816002
-2.68403
-0.077998
-2.66993
-0.0743145
-2.65666
-0.0707021
-2.64411
-0.0672842
-2.63222
-0.0641144
-2.62089
-0.0612135
-2.61005
-0.0585793
-2.59964
-0.0561915
-2.58962
-0.0540149
-2.57993
-0.0520139
-2.57055
-0.0501645
-2.56149
-0.0484046
-2.55271
-0.0467072
-2.54421
-0.0450609
-2.53601
-0.0434351
-2.52809
-0.0417999
-2.52047
-0.0401516
-2.51316
-0.038485
-2.50617
-0.0367904
-2.49948
-0.035066
-2.49313
-0.03332
-2.4871
-0.0315579
-2.48141
-0.0297829
-2.47606
-0.0280075
-2.47105
-0.0262442
-2.46636
-0.0245018
-2.46199
-0.0227975
-2.45795
-0.021155
-2.4542
-0.0195892
-2.45074
-0.0181124
-2.44754
-0.0167509
-2.4446
-0.01554
-2.44188
-0.0145033
-2.43933
-0.0136613
-2.43695
-0.0130591
-2.43469
-0.0127527
-2.43253
-0.0127925
-2.4304
-0.0132367
-2.42827
-0.0141625
-2.4261
-0.0156783
-2.42388
-0.017907
-2.42157
-0.0209806
-2.41919
-0.0250843
-2.41679
-0.0304567
-0.037462
-2.41447
-2.65743
-0.108045
-2.63964
-0.107303
-2.62241
-0.104843
-2.60612
-0.101188
-2.5909
-0.096818
-2.57676
-0.092139
-2.56361
-0.0874586
-2.55135
-0.0829779
-2.53984
-0.0788032
-2.52896
-0.0750016
-2.51861
-0.0715687
-2.5087
-0.0684904
-2.49917
-0.065731
-2.48997
-0.0632334
-2.48106
-0.0609423
-2.4724
-0.0588062
-2.464
-0.056797
-2.45586
-0.0548556
-2.44797
-0.0529574
-2.44033
-0.0510693
-2.43297
-0.0491675
-2.42588
-0.0472444
-2.41908
-0.045289
-2.41257
-0.0432965
-2.40637
-0.0412703
-2.40048
-0.0392142
-2.39491
-0.0371308
-2.38965
-0.0350314
-2.38473
-0.0329327
-2.38012
-0.0308466
-2.37583
-0.0287878
-2.37185
-0.0267784
-2.36818
-0.0248382
-2.36477
-0.0229829
-2.36163
-0.0212361
-2.35876
-0.0196313
-2.35612
-0.0181953
-2.35367
-0.0169467
-2.3514
-0.0159208
-2.34929
-0.0151681
-2.34732
-0.0147357
-2.34545
-0.0146697
-2.34365
-0.0150293
-2.34192
-0.0158976
-2.34024
-0.0173623
-2.33863
-0.019525
-2.3371
-0.0225054
-2.33573
-0.0264649
-2.33462
-0.031585
-0.038069
-2.33402
-2.507
-0.126722
-2.48906
-0.125251
-2.47222
-0.121676
-2.4567
-0.116691
-2.44256
-0.11096
-2.42967
-0.105034
-2.41787
-0.0992632
-2.40697
-0.0938898
-2.39677
-0.0890004
-2.38713
-0.0846328
-2.37794
-0.0807693
-2.36909
-0.0773507
-2.3605
-0.074311
-2.35214
-0.0715897
-2.34399
-0.0691037
-2.336
-0.0667913
-2.32818
-0.0646022
-2.32056
-0.0624851
-2.31311
-0.0603963
-2.30586
-0.0583111
-2.29883
-0.0562055
-2.29202
-0.0540554
-2.28544
-0.0518605
-2.27912
-0.0496245
-2.27305
-0.0473433
-2.26725
-0.0450166
-2.26171
-0.0426568
-2.25645
-0.0402841
-2.25147
-0.0379135
-2.24676
-0.035557
-2.24231
-0.0332346
-2.23812
-0.0309691
-2.23417
-0.0287802
-2.23045
-0.0266901
-2.22696
-0.0247267
-2.22368
-0.0229186
-2.22059
-0.0212888
-2.21766
-0.0198627
-2.21489
-0.0186799
-2.21228
-0.0177879
-2.2098
-0.0172256
-2.20744
-0.0170323
-2.2052
-0.0172723
-2.20308
-0.0180191
-2.2011
-0.0193426
-2.19929
-0.021329
-2.19771
-0.0240772
-2.19646
-0.0277068
-2.19569
-0.0323566
-0.0382273
-2.19552
-2.30151
-0.144096
-2.2844
-0.142365
-2.26866
-0.137409
-2.25465
-0.130701
-2.24232
-0.12331
-2.23139
-0.115966
-2.22159
-0.109082
-2.21263
-0.102862
-2.20427
-0.0973721
-2.19632
-0.0925761
-2.18867
-0.0884163
-2.18121
-0.0848063
-2.1739
-0.0816425
-2.16668
-0.0788179
-2.15954
-0.0762474
-2.15249
-0.0738573
-2.14552
-0.0715804
-2.13866
-0.0693619
-2.13191
-0.0671502
-2.1253
-0.0649195
-2.11886
-0.0626496
-2.11259
-0.0603275
-2.10651
-0.0579502
-2.10063
-0.0555133
-2.09496
-0.0530153
-2.08949
-0.050468
-2.08424
-0.0478943
-2.07922
-0.0453113
-2.0744
-0.0427294
-2.06979
-0.0401666
-2.06538
-0.0376487
-2.06115
-0.0351987
-2.05709
-0.0328367
-2.05319
-0.0305857
-2.04944
-0.0284755
-2.04583
-0.0265326
-2.04234
-0.0247774
-2.03894
-0.023241
-2.03566
-0.0219626
-2.03249
-0.0209776
-2.02939
-0.020321
-2.02639
-0.0200346
-2.0235
-0.020168
-2.02074
-0.0207781
-2.01817
-0.0219272
-2.01582
-0.0236719
-2.01382
-0.0260918
-2.01229
-0.029254
-2.01139
-0.0332506
-0.0382395
-2.01139
-2.02951
-0.161522
-2.01357
-0.158304
-2.00001
-0.150963
-1.98881
-0.141891
-1.9796
-0.132549
-1.97182
-0.123751
-1.96503
-0.115881
-1.95886
-0.109042
-1.95301
-0.1032
-1.94732
-0.0982564
-1.94168
-0.094076
-1.93598
-0.0905021
-1.9302
-0.0874104
-1.92433
-0.0846776
-1.91839
-0.082201
-1.91238
-0.0798747
-1.90632
-0.0776352
-1.90025
-0.0754265
-1.89419
-0.0732023
-1.88816
-0.0709342
-1.88221
-0.0686017
-1.87635
-0.0661966
-1.87059
-0.0637159
-1.86493
-0.0611579
-1.85939
-0.0585323
-1.85398
-0.0558626
-1.8487
-0.0531678
-1.84354
-0.0504582
-1.83851
-0.0477512
-1.83359
-0.0450724
-1.82879
-0.0424472
-1.82409
-0.0398969
-1.81948
-0.0374385
-1.81495
-0.0350994
-1.8105
-0.0329136
-1.80613
-0.0309007
-1.8018
-0.0290807
-1.79754
-0.0274885
-1.79333
-0.0261635
-1.78919
-0.0251316
-1.78509
-0.0244143
-1.78105
-0.0240509
-1.77712
-0.0240951
-1.77333
-0.0245749
-1.76972
-0.0255284
-1.76639
-0.02699
-1.76347
-0.0290047
-1.7611
-0.0316202
-1.75953
-0.0348434
-0.0387616
-1.75897
-1.66991
-0.177674
-1.65672
-0.171496
-1.64734
-0.160346
-1.64108
-0.148169
-1.63697
-0.136673
-1.63413
-0.126596
-1.63191
-0.118094
-1.62989
-0.111066
-1.62777
-0.105305
-1.62543
-0.100604
-1.62277
-0.096734
-1.61976
-0.0935239
-1.61639
-0.0907844
-1.61269
-0.0883725
-1.6087
-0.0861764
-1.60446
-0.0841125
-1.60002
-0.0820927
-1.5954
-0.0800513
-1.59065
-0.0779565
-1.58581
-0.0757832
-1.58091
-0.0735173
-1.57598
-0.0711525
-1.57101
-0.0686876
-1.56603
-0.0661333
-1.56105
-0.0635111
-1.55608
-0.0608407
-1.55111
-0.058136
-1.54615
-0.0554155
-1.5412
-0.0527039
-1.53626
-0.0500258
-1.53131
-0.0474025
-1.52636
-0.044852
-1.52138
-0.0424014
-1.5164
-0.040084
-1.5114
-0.0379199
-1.50637
-0.0359292
-1.5013
-0.0341406
-1.49621
-0.0325883
-1.4911
-0.0312924
-1.48597
-0.0302714
-1.48081
-0.0295568
-1.47569
-0.0291842
-1.47063
-0.0291744
-1.46569
-0.0295374
-1.46092
-0.0302843
-1.45648
-0.0314494
-1.4525
-0.0330178
-1.44913
-0.0349729
-1.44667
-0.0373292
-0.0400137
-1.4454
-1.21156
-0.195731
-1.20146
-0.181613
-1.19789
-0.163901
-1.19842
-0.147656
-1.20109
-0.134022
-1.20456
-0.123126
-1.20809
-0.114583
-1.21123
-0.107907
-1.21381
-0.102719
-1.21571
-0.0986832
-1.21695
-0.095514
-1.21752
-0.0929486
-1.21747
-0.0908136
-1.21687
-0.0889685
-1.2158
-0.087275
-1.21428
-0.0856355
-1.21238
-0.0839838
-1.21015
-0.0822722
-1.20765
-0.0804584
-1.20489
-0.0785272
-1.20194
-0.0764769
-1.19879
-0.0743001
-1.19547
-0.0720019
-1.19198
-0.0696053
-1.18835
-0.067134
-1.18458
-0.0646059
-1.18066
-0.0620403
-1.17661
-0.0594588
-1.17243
-0.0568843
-1.16812
-0.0543388
-1.16368
-0.0518404
-1.15909
-0.0494164
-1.15438
-0.0471014
-1.14955
-0.0449147
-1.14459
-0.0428722
-1.13949
-0.0410029
-1.13429
-0.0393423
-1.12898
-0.0379019
-1.12358
-0.0366917
-1.1181
-0.0357405
-1.11258
-0.0350672
-1.10708
-0.0346951
-1.10163
-0.0346205
-1.09631
-0.0348437
-1.09123
-0.0353584
-1.08652
-0.0361409
-1.08234
-0.0371913
-1.0789
-0.0384334
-1.07641
-0.0397886
-0.041144
-1.07527
-0.66565
-0.222577
-0.658062
-0.189192
-0.660298
-0.161653
-0.667576
-0.14038
-0.676687
-0.124912
-0.68603
-0.11378
-0.694813
-0.105785
-0.702722
-0.0999961
-0.709658
-0.0958165
-0.715584
-0.0927688
-0.720542
-0.0905337
-0.724626
-0.088853
-0.727925
-0.0875297
-0.730508
-0.0863925
-0.732473
-0.0853303
-0.733878
-0.084239
-0.734787
-0.0830679
-0.735273
-0.0817861
-0.735389
-0.0803592
-0.73517
-0.0787728
-0.734642
-0.0770274
-0.733827
-0.0751268
-0.732739
-0.0730846
-0.731398
-0.0709316
-0.729821
-0.068702
-0.728012
-0.066416
-0.725968
-0.0640876
-0.723694
-0.0617358
-0.721199
-0.0593824
-0.718483
-0.0570513
-0.715546
-0.0547735
-0.712393
-0.0525744
-0.70903
-0.050462
-0.705469
-0.0484631
-0.701722
-0.0466194
-0.697797
-0.0449436
-0.693704
-0.0434332
-0.689473
-0.0421179
-0.685152
-0.0410173
-0.680758
-0.0401262
-0.67635
-0.0394861
-0.671995
-0.0390694
-0.667736
-0.0388853
-0.663646
-0.0389234
-0.659852
-0.0391522
-0.656501
-0.0395113
-0.653692
-0.0399516
-0.651671
-0.0404633
-0.650642
-0.0408562
-0.0408916
-0.65089
-0.084904
-0.254195
-0.0845696
-0.189442
-0.091019
-0.155215
-0.100228
-0.131169
-0.110742
-0.114364
-0.121499
-0.103078
-0.131784
-0.0954774
-0.141415
-0.0903854
-0.150225
-0.087012
-0.158194
-0.0848365
-0.165289
-0.0834561
-0.171595
-0.082566
-0.177153
-0.0819507
-0.182019
-0.0815
-0.186267
-0.0810816
-0.189932
-0.0805764
-0.193052
-0.0799313
-0.195695
-0.0791242
-0.197919
-0.0781398
-0.199749
-0.0769705
-0.201184
-0.0756209
-0.202221
-0.074096
-0.202872
-0.0724141
-0.20318
-0.0706167
-0.203169
-0.0687364
-0.202836
-0.0667846
-0.202173
-0.0647734
-0.201194
-0.0627205
-0.199927
-0.0606552
-0.198395
-0.0586157
-0.196591
-0.0566154
-0.194506
-0.0546493
-0.192186
-0.0527495
-0.189685
-0.0509735
-0.18699
-0.049315
-0.184128
-0.0477597
-0.181185
-0.0463357
-0.178214
-0.0450663
-0.175283
-0.0439525
-0.172441
-0.0429872
-0.169707
-0.0421873
-0.167241
-0.0415538
-0.165051
-0.0410504
-0.163231
-0.0406827
-0.161888
-0.0404232
-0.161205
-0.0402125
-0.161251
-0.0399366
-0.162218
-0.0394394
-0.164447
-0.0386449
-0.0369185
-0.168455
0.513022
-0.242971
0.499007
-0.175397
0.485846
-0.142047
0.474641
-0.119987
0.464733
-0.104455
0.455343
-0.0936681
0.446333
-0.0864693
0.437725
-0.0818122
0.429536
-0.0788734
0.421761
-0.0770912
0.414393
-0.0760663
0.407375
-0.0755227
0.400646
-0.0752587
0.394216
-0.0750978
0.388068
-0.0749221
0.382172
-0.0746647
0.376522
-0.0742716
0.371115
-0.0737089
0.365945
-0.0729698
0.361023
-0.0720562
0.356383
-0.0709699
0.35205
-0.0697253
0.348014
-0.0683519
0.344271
-0.0668766
0.340838
-0.065317
0.337736
-0.063687
0.334979
-0.0619985
0.332552
-0.0602764
0.330432
-0.0585575
0.328634
-0.056854
0.327189
-0.0551608
0.326075
-0.0535015
0.325229
-0.0519221
0.324656
-0.0504261
0.324362
-0.0489994
0.324288
-0.0476598
0.324377
-0.0464378
0.324619
-0.0453309
0.324983
-0.0443333
0.325429
-0.0434688
0.32593
-0.0426832
0.326389
-0.0419962
0.326781
-0.0414228
0.327027
-0.0409024
0.327012
-0.0403944
0.326622
-0.0398353
0.325773
-0.0390791
0.32425
-0.0379384
0.321673
-0.0360896
-0.0328991
0.317662
1.13828
-0.188421
1.11594
-0.153046
1.09585
-0.121997
1.08117
-0.105277
1.07004
-0.0933136
1.06073
-0.0843597
1.05236
-0.0781023
1.0445
-0.0739498
1.03689
-0.071274
1.02936
-0.0695737
1.02181
-0.0685199
1.01416
-0.0678786
1.00639
-0.0674808
0.998503
-0.0671948
0.990507
-0.0669144
0.982434
-0.0665742
0.974326
-0.0661394
0.966219
-0.0655856
0.958155
-0.064899
0.950187
-0.0640786
0.942365
-0.0631321
0.934726
-0.0620734
0.927295
-0.0609179
0.920099
-0.0596813
0.913164
-0.0583794
0.906518
-0.0570252
0.900175
-0.055637
0.894132
-0.0542377
0.888401
-0.0528397
0.883003
-0.0514496
0.87794
-0.0500818
0.873192
-0.0487572
0.868757
-0.0474935
0.864639
-0.0462892
0.860819
-0.045148
0.857256
-0.0440872
0.853931
-0.0431183
0.850831
-0.0422391
0.84791
-0.0414367
0.845182
-0.0407078
0.84258
-0.0400604
0.840046
-0.0394704
0.837567
-0.0389128
0.835054
-0.0383675
0.832401
-0.0377478
0.829482
-0.0369386
0.826102
-0.0357225
0.821945
-0.033795
0.816474
-0.0306415
-0.0254486
0.80899
1.79053
-0.188699
1.77084
-0.133374
1.76124
-0.112413
1.7521
-0.0961583
1.74349
-0.0847022
1.73541
-0.076284
1.72751
-0.0702265
1.71953
-0.0660028
1.71132
-0.0630671
1.70278
-0.0610223
1.69385
-0.0595841
1.68449
-0.058538
1.67473
-0.0577357
1.66462
-0.0570782
1.6542
-0.0564852
1.64352
-0.0558957
1.63265
-0.0552763
1.62167
-0.0546048
1.61063
-0.0538669
1.5996
-0.0530617
1.58865
-0.0521925
1.57783
-0.051263
1.56719
-0.050282
1.55676
-0.049261
1.54659
-0.0482098
1.5367
-0.0471387
1.52712
-0.0460604
1.51786
-0.0449853
1.50893
-0.0439216
1.50036
-0.0428765
1.49213
-0.0418606
1.48425
-0.0408901
1.47671
-0.0399614
1.46951
-0.0390844
1.46264
-0.0382693
1.45605
-0.037512
1.44974
-0.0368222
1.44371
-0.0362037
1.43791
-0.035634
1.43234
-0.0351206
1.42695
-0.0346522
1.4217
-0.0342129
1.41655
-0.0337772
1.41145
-0.0332626
1.40629
-0.0325953
1.40098
-0.0316142
1.39533
-0.0300674
1.38911
-0.0275787
1.38199
-0.0234998
-0.0170698
1.37361
2.78697
-0.0945799
2.74315
-0.0895634
2.69715
-0.0664283
2.65854
-0.057515
2.6249
-0.0510844
2.59466
-0.0460432
2.56695
-0.0425072
2.54113
-0.0401983
2.51678
-0.0387407
2.49359
-0.0378471
2.47137
-0.0373493
2.44997
-0.0371203
2.42927
-0.0370443
2.40926
-0.0370481
2.38988
-0.0370866
2.37112
-0.0371174
2.35296
-0.0371091
2.33543
-0.0370483
2.3185
-0.0369298
2.30219
-0.0367482
2.28651
-0.0365019
2.27145
-0.0361956
2.25702
-0.035837
2.2432
-0.0354346
2.22999
-0.0349961
2.21739
-0.0345285
2.20538
-0.0340413
2.19394
-0.0335436
2.18307
-0.033039
2.17273
-0.0325354
2.16291
-0.0320451
2.15359
-0.031569
2.14474
-0.0311151
2.13634
-0.0306859
2.12837
-0.0302836
2.12077
-0.0299191
2.11353
-0.0295933
2.10664
-0.0292893
2.10003
-0.0290213
2.09368
-0.0287658
2.08755
-0.0285144
2.08157
-0.0282375
2.07568
-0.0278692
2.06977
-0.0273468
2.06369
-0.0265207
2.05722
-0.0251616
2.04999
-0.0228755
2.04145
-0.0190244
2.03055
-0.0126072
-0.00326204
2.01674
3.11078
-0.123451
3.09614
-0.0749258
3.10308
-0.073385
3.11013
-0.0645557
3.11628
-0.0572232
3.12203
-0.0517957
3.12714
-0.0476433
3.13143
-0.0444908
3.13484
-0.042137
3.13739
-0.0403887
3.13912
-0.039083
3.14011
-0.0380972
3.1404
-0.0373308
3.14005
-0.0367046
3.13913
-0.0361662
3.13768
-0.035673
3.13576
-0.0351921
3.13341
-0.0347063
3.13068
-0.0342047
3.12761
-0.0336777
3.12423
-0.0331223
3.12057
-0.0325406
3.11667
-0.0319377
3.11254
-0.031318
3.10822
-0.0306839
3.10373
-0.030043
3.09908
-0.0294013
3.09429
-0.0287597
3.08938
-0.0281265
3.08434
-0.0275085
3.0792
-0.0269085
3.07395
-0.0263299
3.06862
-0.025777
3.06319
-0.0252527
3.05766
-0.0247572
3.05201
-0.024294
3.04627
-0.0238628
3.04043
-0.0234461
3.03446
-0.0230434
3.02834
-0.0226499
3.02205
-0.0222213
3.01556
-0.0217348
3.0088
-0.0211118
3.00171
-0.0202539
2.99419
-0.0190143
2.98614
-0.0171089
2.97741
-0.0141391
2.96789
-0.00952501
2.95799
-0.00271488
0.00808617
2.94664
5.53548
9.71367e-07
5.49053
-0.029994
5.43866
-0.0215082
5.39305
-0.0189508
5.35293
-0.0171168
5.31637
-0.0152541
5.28233
-0.0136294
5.25017
-0.0123436
5.21941
-0.0113728
5.18967
-0.0106528
5.16071
-0.0101149
5.13234
-0.00971297
5.10442
-0.00940932
5.07689
-0.0091646
5.04968
-0.00895104
5.02277
-0.00875312
4.99614
-0.0085582
4.96979
-0.00835501
4.94373
-0.00813706
4.91795
-0.00790208
4.89249
-0.00764992
4.86733
-0.00738324
4.8425
-0.00710411
4.81799
-0.00681236
4.79382
-0.00651255
4.76998
-0.00620857
4.74649
-0.00590075
4.72333
-0.00559397
4.70049
-0.00528946
4.67798
-0.00499362
4.65578
-0.00470838
4.63388
-0.00443216
4.61227
-0.00416118
4.59093
-0.00390874
4.56984
-0.0036706
4.54898
-0.00344847
4.52837
-0.00322928
4.50796
-0.003027
4.48774
-0.00282917
4.46774
-0.00262525
4.44791
-0.00240578
4.42832
-0.00213423
4.40899
-0.00178029
4.39
-0.00127846
4.3715
-0.000518331
4.3537
0.000677615
4.33693
0.00262953
4.32153
0.00588102
4.3072
0.011614
0.0221177
4.29317
4.65606
4.62607
4.60456
4.5856
4.56848
4.55323
4.53961
4.52727
4.5159
4.50525
4.49514
4.48542
4.47602
4.46686
4.45791
4.44916
4.4406
4.43224
4.42411
4.41621
4.40856
4.40117
4.39406
4.38725
4.38073
4.37452
4.36861
4.36302
4.35772
4.35272
4.34801
4.34358
4.33941
4.33551
4.33183
4.32839
4.32516
4.32213
4.3193
4.31668
4.31427
4.31215
4.31036
4.30907
4.30855
4.30923
4.31186
4.31774
4.32935
4.35147
0.406426
-0.00852162
0.409398
-0.00297815
0.411543
-0.00215124
0.412582
-0.00104489
0.412908
-0.000329144
0.412865
4.14036e-05
0.412624
0.000240296
0.412267
0.000357901
0.411838
0.000429705
0.411365
0.000472914
0.410866
0.000498226
0.410351
0.000512397
0.409828
0.000519486
0.409301
0.00052195
0.408773
0.000521314
0.408248
0.000518505
0.407726
0.000514072
0.40721
0.00050831
0.406701
0.000501369
0.4062
0.000493317
0.405709
0.000484242
0.40523
0.000474209
0.404764
0.000463357
0.404311
0.000451805
0.403873
0.00043957
0.40345
0.000426602
0.403042
0.000412719
0.40265
0.000397642
0.402275
0.000381011
0.401918
0.000362436
0.401582
0.000341598
0.401269
0.000318196
0.400982
0.00029181
0.400725
0.000262063
0.400501
0.000227931
0.400316
0.000188559
0.400175
0.000142809
0.400085
8.93837e-05
0.400055
2.67955e-05
0.400098
-4.7004e-05
0.400226
-0.00013457
0.400459
-0.00023911
0.400817
-0.00036496
0.401329
-0.000518165
0.402033
-0.000707816
0.402979
-0.000948608
0.404246
-0.0012661
0.405957
-0.00170863
0.408337
-0.00237569
-0.0034813
0.411823
0.393843
-0.00446582
0.392992
-0.00213841
0.391572
-0.000739364
0.390824
-0.000303597
0.390468
2.34081e-05
0.390283
0.00022548
0.390202
0.000320656
0.390196
0.000364995
0.390239
0.000386067
0.390315
0.000394501
0.390413
0.000395654
0.390525
0.0003929
0.390647
0.000388226
0.390776
0.000382664
0.390908
0.000376732
0.391043
0.000370603
0.391179
0.000364259
0.391316
0.000357568
0.391454
0.000350321
0.391594
0.000342271
0.391737
0.000333218
0.391883
0.000323017
0.392034
0.000311539
0.392189
0.00029865
0.392351
0.000284162
0.392518
0.000267807
0.392691
0.000249248
0.392871
0.000228023
0.393059
0.000203519
0.393256
0.000175037
0.393465
0.000141894
0.393689
0.00010343
0.393931
5.85018e-05
0.394194
5.79703e-06
0.394483
-5.61093e-05
0.394803
-0.000128866
0.395159
-0.000214475
0.395558
-0.000315325
0.396011
-0.000434264
0.396529
-0.000575078
0.397125
-0.000742346
0.397816
-0.000942013
0.398624
-0.00118203
0.399572
-0.00147336
0.400692
-0.0018314
0.402023
-0.00227857
0.40361
-0.00284901
0.405504
-0.00359656
0.407744
-0.0046083
-0.00602086
0.410289
0.394409
-0.000975052
0.393251
-0.000990931
0.393044
-0.000540539
0.393064
-0.000329206
0.393287
-0.000203054
0.393591
-8.02635e-05
0.393894
1.71975e-05
0.394172
8.66451e-05
0.39442
0.000137191
0.394638
0.00017445
0.394829
0.000201596
0.394995
0.000221073
0.395141
0.000234902
0.39527
0.000244555
0.395386
0.000251022
0.39549
0.000254933
0.395586
0.000256609
0.395675
0.000256215
0.39576
0.000253689
0.395844
0.000248948
0.395927
0.000241874
0.396012
0.000232351
0.396102
0.00022028
0.396197
0.000205505
0.396299
0.000187815
0.396407
0.000166912
0.396523
0.000142406
0.396646
0.000113764
0.396779
8.0205e-05
0.396923
4.07152e-05
0.397079
-5.74686e-06
0.397251
-6.0479e-05
0.397443
-0.000124995
0.397656
-0.000201152
0.397895
-0.000290696
0.398163
-0.000396147
0.398467
-0.000520312
0.398813
-0.000666541
0.39921
-0.000838842
0.399667
-0.00104222
0.400197
-0.00128301
0.400814
-0.00156922
0.401534
-0.00191129
0.402377
-0.00232306
0.403365
-0.00282317
0.404523
-0.00343691
0.405877
-0.0041994
0.407446
-0.00515975
0.409232
-0.00638619
-0.00796822
0.411185
0.3975
-0.00057512
0.39731
-0.000812092
0.397374
-0.000612981
0.397429
-0.000390992
0.397448
-0.000226398
0.397453
-8.69125e-05
0.397442
2.66548e-05
0.397419
0.000109256
0.397389
0.000166133
0.397357
0.000204489
0.397326
0.000229518
0.397297
0.000244958
0.397272
0.000253606
0.397251
0.000257492
0.397236
0.000257978
0.397224
0.000255879
0.397218
0.000251657
0.397217
0.000245409
0.397222
0.000237083
0.397234
0.000226523
0.397254
0.000213524
0.397283
0.000197904
0.397322
0.000179439
0.397371
0.000157879
0.397431
0.000132857
0.397502
0.000103882
0.397583
7.04729e-05
0.397675
3.17834e-05
0.397778
-1.31469e-05
0.397894
-6.54507e-05
0.398024
-0.000126569
0.398171
-0.000198381
0.398336
-0.000282793
0.398522
-0.000382074
0.398733
-0.000498736
0.398973
-0.000635761
0.399247
-0.00079662
0.399559
-0.000985377
0.399918
-0.00120694
0.400333
-0.00146741
0.400813
-0.00177431
0.40137
-0.00213715
0.402018
-0.00256793
0.402769
-0.00308179
0.40364
-0.00369802
0.404644
-0.00444155
0.405792
-0.00534416
0.407085
-0.00644571
0.408501
-0.00779508
-0.00944637
0.409986
0.397552
-0.000228358
0.3971
-0.000371688
0.396784
-0.000306397
0.396573
-0.000187248
0.396436
-9.50165e-05
0.39637
-2.36603e-05
0.39636
3.44413e-05
0.39639
7.8477e-05
0.396446
0.000109416
0.396518
0.000130463
0.396601
0.000144407
0.396689
0.000153184
0.396779
0.000158194
0.39687
0.00016042
0.396959
0.0001605
0.397047
0.000158722
0.397133
0.000155147
0.397217
0.000149623
0.3973
0.000141898
0.397384
0.000131685
0.39747
0.000118695
0.397559
0.000102648
0.397653
8.32664e-05
0.397752
6.02298e-05
0.397857
3.30119e-05
0.397968
1.02692e-06
0.398085
-3.6539e-05
0.398209
-8.07006e-05
0.398339
-0.000132608
0.398477
-0.000193615
0.398625
-0.000265538
0.398785
-0.000350448
0.39896
-0.000450652
0.399151
-0.000568772
0.399362
-0.00070774
0.399596
-0.000870955
0.399857
-0.00106234
0.400151
-0.00128646
0.400483
-0.00154891
0.400861
-0.00185655
0.401293
-0.00221778
0.401788
-0.00264291
0.402355
-0.00314464
0.403004
-0.00373852
0.403745
-0.00444334
0.404584
-0.00528199
0.405525
-0.00628186
0.406561
-0.00747485
0.407671
-0.00889615
-0.0105817
0.408814
0.397787
-0.000116385
0.397624
-0.000222196
0.397538
-0.000231247
0.397526
-0.000184544
0.397555
-0.000129422
0.397604
-7.73445e-05
0.397666
-2.89557e-05
0.39773
1.30674e-05
0.397791
4.674e-05
0.397849
7.23398e-05
0.3979
9.11381e-05
0.397946
0.000104372
0.397988
0.000113078
0.398025
0.000118133
0.398059
0.00012011
0.398089
0.000119391
0.398118
0.000116088
0.398146
0.000110166
0.398174
0.000101473
0.398204
8.97843e-05
0.398238
7.48638e-05
0.398278
5.6475e-05
0.398325
3.43047e-05
0.398379
7.94243e-06
0.398441
-2.31014e-05
0.39851
-5.95261e-05
0.398587
-0.000102398
0.39867
-0.00015286
0.398761
-0.000212301
0.39886
-0.000282392
0.398969
-0.000365134
0.399088
-0.000462836
0.399221
-0.000578083
0.399369
-0.000713732
0.399534
-0.00087301
0.39972
-0.0010596
0.39993
-0.00127772
0.400167
-0.00153239
0.400438
-0.00182965
0.400747
-0.00217684
0.401101
-0.00258285
0.401505
-0.00305843
0.401966
-0.00361644
0.402492
-0.00427208
0.403087
-0.0050431
0.403754
-0.00595001
0.404491
-0.00701578
0.405288
-0.00826563
0.406126
-0.00972462
-0.0114155
0.406969
0.397837
-5.5602e-05
0.397718
-0.000117088
0.397606
-0.000132737
0.397521
-0.000109404
0.397457
-7.30135e-05
0.397412
-3.69039e-05
0.397385
-4.65438e-06
0.397375
2.21124e-05
0.397379
4.24589e-05
0.397394
5.66357e-05
0.397419
6.56591e-05
0.397452
7.06045e-05
0.397491
7.23328e-05
0.397534
7.1464e-05
0.39758
6.84188e-05
0.397628
6.33876e-05
0.397677
5.63584e-05
0.397729
4.72098e-05
0.397782
3.57075e-05
0.397838
2.1586e-05
0.397898
4.52629e-06
0.397964
-1.58504e-05
0.398036
-3.99846e-05
0.398115
-6.84434e-05
0.3982
-0.000101864
0.398291
-0.000141156
0.398387
-0.00018748
0.398488
-0.000242203
0.398594
-0.000306962
0.398705
-0.000383651
0.398822
-0.000474446
0.398947
-0.00058182
0.399081
-0.000708505
0.399225
-0.000857542
0.399383
-0.00103233
0.399556
-0.00123668
0.399747
-0.00147503
0.399959
-0.0017527
0.400195
-0.00207602
0.40046
-0.00245258
0.400758
-0.00289156
0.401092
-0.00340379
0.401468
-0.00400202
0.401888
-0.00470079
0.402356
-0.00551673
0.402873
-0.00646794
0.403433
-0.00757412
0.40403
-0.00885554
0.404646
-0.0103314
-0.0120184
0.405259
0.397867
-2.57875e-05
0.397797
-6.22085e-05
0.397729
-7.96444e-05
0.397683
-7.47685e-05
0.397661
-5.93957e-05
0.39766
-4.20081e-05
0.397678
-2.57192e-05
0.397711
-1.16686e-05
0.397755
-5.17055e-07
0.397805
7.58272e-06
0.397859
1.29194e-05
0.397914
1.58649e-05
0.397969
1.67444e-05
0.398022
1.57224e-05
0.398073
1.28922e-05
0.398121
8.21294e-06
0.398166
1.55488e-06
0.398208
-7.28136e-06
0.39825
-1.85158e-05
0.398292
-3.24247e-05
0.398336
-4.93422e-05
0.398383
-6.96943e-05
0.398435
-9.39955e-05
0.398493
-0.000122881
0.398555
-0.000157171
0.398621
-0.000197911
0.398691
-0.000246368
0.398765
-0.000304062
0.398841
-0.000372769
0.39892
-0.0004545
0.399003
-0.000551526
0.399091
-0.000666378
0.399186
-0.000801852
0.399289
-0.000961054
0.399401
-0.00114742
0.399524
-0.00136487
0.39966
-0.00161797
0.399811
-0.00191213
0.39998
-0.00225382
0.400169
-0.00265085
0.400379
-0.00311244
0.400614
-0.00364935
0.400876
-0.00427398
0.401167
-0.00500023
0.401488
-0.0058435
0.401838
-0.00682016
0.402213
-0.0079472
0.402605
-0.00924135
0.403
-0.0107175
-0.0123874
0.40338
0.397878
-7.87929e-06
0.397825
-2.60615e-05
0.397767
-3.86892e-05
0.39772
-4.01607e-05
0.397687
-3.53342e-05
0.397667
-2.86281e-05
0.397661
-2.22231e-05
0.397666
-1.7019e-05
0.39768
-1.34872e-05
0.397702
-1.17979e-05
0.397729
-1.18994e-05
0.397761
-1.36203e-05
0.397795
-1.68634e-05
0.397831
-2.15505e-05
0.397868
-2.77067e-05
0.397905
-3.5418e-05
0.397942
-4.47968e-05
0.397979
-5.60134e-05
0.398017
-6.92849e-05
0.398058
-8.48881e-05
0.398102
-0.000103178
0.398151
-0.000124628
0.398206
-0.000149841
0.398265
-0.000179584
0.39833
-0.000214836
0.398399
-0.000256786
0.39847
-0.000306843
0.398543
-0.000366647
0.398617
-0.000438049
0.398692
-0.000523131
0.398769
-0.000624207
0.398848
-0.000743806
0.39893
-0.000884729
0.399016
-0.00105006
0.399107
-0.00124324
0.399205
-0.00146821
0.39931
-0.00172957
0.399424
-0.0020328
0.399547
-0.00238446
0.39968
-0.00279235
0.399824
-0.00326559
0.39998
-0.00381491
0.400149
-0.00445217
0.400331
-0.00519089
0.400526
-0.00604533
0.400733
-0.00703066
0.400948
-0.00816212
0.401167
-0.00945429
0.401379
-0.0109201
-0.01257
0.401572
0.397883
4.86683e-06
0.397836
9.5085e-07
0.397786
-6.43788e-06
0.397744
-1.20818e-05
0.397715
-1.6774e-05
0.397702
-2.11597e-05
0.397702
-2.56322e-05
0.397716
-3.0356e-05
0.397741
-3.53686e-05
0.397773
-4.0666e-05
0.397812
-4.6285e-05
0.397854
-5.22996e-05
0.397898
-5.88388e-05
0.397942
-6.60672e-05
0.397985
-7.41747e-05
0.398027
-8.33491e-05
0.398067
-9.37872e-05
0.398106
-0.000105689
0.398144
-0.000119299
0.398182
-0.000134922
0.398223
-0.000152963
0.398268
-0.000173959
0.398316
-0.000198611
0.398367
-0.000227815
0.398422
-0.000262655
0.398479
-0.000304425
0.398537
-0.000354623
0.398594
-0.000414919
0.39865
-0.000487171
0.398704
-0.000573456
0.398757
-0.000676028
0.398809
-0.000797356
0.398861
-0.000940169
0.398914