/*--------------------------------*- C++ -*----------------------------------*\
  =========                 |
  \\      /  F ield         | OpenFOAM: The Open Source CFD Toolbox
   \\    /   O peration     | Website:  https://openfoam.org
    \\  /    A nd           | Version:  8
     \\/     M anipulation  |
\*---------------------------------------------------------------------------*/
FoamFile
{
    version     2.0;
    format      ascii;
    class       volVectorField;
    location    "100";
    object      U;
}
// * * * * * * * * * * * * * * * * * * * * * * * * * * * * * * * * * * * * * //

dimensions      [0 1 -1 0 0 0 0];

internalField   nonuniform List<vector> 
8400
(
(-29.4452 -0.27251 3.68668e-16)
(-29.2131 -0.278284 3.74162e-16)
(-29.0373 -0.284678 3.80053e-16)
(-28.8615 -0.290965 3.84892e-16)
(-28.6906 -0.297062 3.91096e-16)
(-28.5254 -0.303045 3.99313e-16)
(-28.3663 -0.309052 4.07008e-16)
(-28.2136 -0.315213 4.14871e-16)
(-28.0673 -0.321643 4.2293e-16)
(-27.9271 -0.328421 4.29804e-16)
(-27.7927 -0.335587 4.3796e-16)
(-27.6639 -0.34317 4.48054e-16)
(-27.5402 -0.351179 4.57454e-16)
(-27.4214 -0.359618 4.6693e-16)
(-27.307 -0.368463 4.76551e-16)
(-27.1969 -0.377702 4.84881e-16)
(-27.0908 -0.38729 4.94276e-16)
(-26.9884 -0.397182 5.05463e-16)
(-26.8895 -0.407395 5.15949e-16)
(-26.7941 -0.41788 5.26451e-16)
(-26.7021 -0.428607 5.37137e-16)
(-26.6135 -0.439599 5.4798e-16)
(-26.5282 -0.450826 5.58568e-16)
(-26.4463 -0.462298 5.68422e-16)
(-26.3678 -0.474046 5.7774e-16)
(-26.2928 -0.486068 5.86374e-16)
(-26.2213 -0.498349 5.95798e-16)
(-26.1534 -0.510909 6.04221e-16)
(-26.0891 -0.523783 6.10484e-16)
(-26.0284 -0.536998 6.16765e-16)
(-25.9713 -0.55058 6.22566e-16)
(-25.9177 -0.564577 6.27658e-16)
(-25.8675 -0.57905 6.33366e-16)
(-25.8205 -0.594079 6.37363e-16)
(-25.7766 -0.609764 6.38739e-16)
(-25.7356 -0.626222 6.39618e-16)
(-25.697 -0.643582 6.3942e-16)
(-25.6605 -0.662007 6.38079e-16)
(-25.6255 -0.681704 6.3551e-16)
(-25.5915 -0.702921 6.31936e-16)
(-25.5576 -0.725972 6.26649e-16)
(-25.5231 -0.751286 6.20607e-16)
(-25.4868 -0.779427 6.12603e-16)
(-25.4473 -0.811128 6.01659e-16)
(-25.4026 -0.847394 5.89633e-16)
(-25.3503 -0.889704 5.76434e-16)
(-25.2879 -0.940134 5.62589e-16)
(-25.2089 -1.00159 5.46121e-16)
(-25.0975 -1.07947 5.25412e-16)
(-24.9355 -1.18565 5.0441e-16)
(-29.5226 -0.103839 -2.04821e-17)
(-29.3016 -0.0953284 -1.00839e-17)
(-29.1314 -0.0836745 -3.85967e-19)
(-28.9607 -0.0694043 9.61737e-18)
(-28.7952 -0.0531689 1.9626e-17)
(-28.6357 -0.0355404 3.05344e-17)
(-28.4827 -0.01706 4.10392e-17)
(-28.3364 0.00181341 5.14041e-17)
(-28.1967 0.0207171 6.11216e-17)
(-28.0634 0.0394015 7.02173e-17)
(-27.9361 0.0577444 7.9424e-17)
(-27.8144 0.0756549 8.90537e-17)
(-27.6979 0.0931526 9.87452e-17)
(-27.5863 0.110259 1.08712e-16)
(-27.4793 0.127085 1.18899e-16)
(-27.3765 0.14373 1.28842e-16)
(-27.2778 0.160282 1.39607e-16)
(-27.1828 0.176898 1.51511e-16)
(-27.0914 0.193602 1.63564e-16)
(-27.0035 0.210472 1.76016e-16)
(-26.9191 0.227597 1.88912e-16)
(-26.8381 0.244973 2.02268e-16)
(-26.7606 0.262623 2.17847e-16)
(-26.6865 0.280561 2.33572e-16)
(-26.6159 0.298758 2.57249e-16)
(-26.5488 0.317203 2.78348e-16)
(-26.4852 0.335908 3.01091e-16)
(-26.4253 0.354858 3.24565e-16)
(-26.369 0.374014 3.46016e-16)
(-26.3163 0.393348 3.68854e-16)
(-26.2672 0.412834 3.92691e-16)
(-26.2217 0.432438 4.13253e-16)
(-26.1796 0.452121 4.30693e-16)
(-26.1409 0.471836 4.45729e-16)
(-26.1053 0.491533 4.58584e-16)
(-26.0727 0.511167 4.70867e-16)
(-26.0427 0.530702 4.82844e-16)
(-26.0151 0.550088 4.94553e-16)
(-25.9894 0.569265 5.06667e-16)
(-25.9651 0.588156 5.1818e-16)
(-25.9416 0.606637 5.28995e-16)
(-25.9184 0.624514 5.40847e-16)
(-25.8947 0.641514 5.52426e-16)
(-25.8695 0.657271 5.62941e-16)
(-25.8417 0.671164 5.74184e-16)
(-25.81 0.682089 5.85518e-16)
(-25.7732 0.688483 5.95863e-16)
(-25.7284 0.688114 6.07167e-16)
(-25.6688 0.675577 6.17581e-16)
(-25.5868 0.636457 6.27334e-16)
(-29.1387 -0.592722 5.34777e-17)
(-28.9022 -0.596038 5.32346e-17)
(-28.7265 -0.595888 5.31039e-17)
(-28.5519 -0.592479 5.25353e-17)
(-28.3835 -0.586595 5.25483e-17)
(-28.2217 -0.579118 5.38349e-17)
(-28.067 -0.570899 5.52443e-17)
(-27.9193 -0.562671 5.66692e-17)
(-27.7786 -0.554982 5.79785e-17)
(-27.6442 -0.548228 5.86251e-17)
(-27.5159 -0.542625 5.9504e-17)
(-27.3931 -0.538281 6.10588e-17)
(-27.2753 -0.535167 6.2442e-17)
(-27.1622 -0.533238 6.36389e-17)
(-27.0534 -0.532343 6.46175e-17)
(-26.9486 -0.532301 6.53459e-17)
(-26.8476 -0.532998 6.59655e-17)
(-26.7501 -0.534241 6.68494e-17)
(-26.6561 -0.535917 6.79242e-17)
(-26.5654 -0.537949 6.87718e-17)
(-26.478 -0.540223 6.94399e-17)
(-26.3939 -0.542651 7.01452e-17)
(-26.3131 -0.545221 7.12521e-17)
(-26.2356 -0.547893 7.32191e-17)
(-26.1615 -0.550642 7.64301e-17)
(-26.0909 -0.553463 8.07684e-17)
(-26.0237 -0.556353 8.58358e-17)
(-25.96 -0.559317 9.15464e-17)
(-25.8999 -0.562382 9.71912e-17)
(-25.8433 -0.565586 1.03594e-16)
(-25.7903 -0.568986 1.11525e-16)
(-25.7407 -0.572639 1.20274e-16)
(-25.6945 -0.576611 1.29485e-16)
(-25.6514 -0.580988 1.37977e-16)
(-25.6114 -0.58587 1.45285e-16)
(-25.5742 -0.591362 1.52441e-16)
(-25.5395 -0.597592 1.59508e-16)
(-25.5069 -0.604729 1.66526e-16)
(-25.4759 -0.612974 1.73454e-16)
(-25.4461 -0.622567 1.80572e-16)
(-25.4167 -0.633823 1.87451e-16)
(-25.3873 -0.647136 1.93981e-16)
(-25.357 -0.66295 2.00636e-16)
(-25.3248 -0.681789 2.0693e-16)
(-25.2895 -0.704415 2.1301e-16)
(-25.2502 -0.73191 2.1969e-16)
(-25.2056 -0.765555 2.27032e-16)
(-25.1537 -0.806881 2.33783e-16)
(-25.0918 -0.858976 2.39218e-16)
(-25.0194 -0.929242 2.45617e-16)
(-28.6164 -0.511064 1.99633e-17)
(-28.3914 -0.500566 2.10475e-17)
(-28.2187 -0.483328 2.21534e-17)
(-28.0464 -0.460313 2.31366e-17)
(-27.881 -0.433013 2.41771e-17)
(-27.7232 -0.402953 2.5605e-17)
(-27.5734 -0.37152 2.72385e-17)
(-27.4314 -0.339847 2.87988e-17)
(-27.2967 -0.308764 3.02836e-17)
(-27.1689 -0.278783 3.11087e-17)
(-27.0473 -0.25023 3.22248e-17)
(-26.9311 -0.223198 3.41298e-17)
(-26.82 -0.197635 3.57944e-17)
(-26.7135 -0.173396 3.72554e-17)
(-26.6111 -0.15025 3.85505e-17)
(-26.5126 -0.127923 3.91135e-17)
(-26.4177 -0.106165 3.98958e-17)
(-26.3263 -0.0847924 4.13656e-17)
(-26.2383 -0.0635884 4.25309e-17)
(-26.1535 -0.0424159 4.34543e-17)
(-26.0721 -0.0211651 4.42421e-17)
(-25.9939 0.000290096 4.49807e-17)
(-25.9191 0.0219942 4.58675e-17)
(-25.8476 0.0439384 4.69443e-17)
(-25.7796 0.0661045 4.82022e-17)
(-25.7151 0.0884673 4.96965e-17)
(-25.6541 0.110967 5.14437e-17)
(-25.5967 0.133505 5.33406e-17)
(-25.5429 0.155958 5.49665e-17)
(-25.4928 0.178188 5.66247e-17)
(-25.4463 0.200043 5.88862e-17)
(-25.4034 0.221379 6.17222e-17)
(-25.364 0.242035 6.49828e-17)
(-25.3279 0.261826 6.83664e-17)
(-25.2951 0.280561 7.14161e-17)
(-25.2653 0.298041 7.42644e-17)
(-25.2383 0.314015 7.72677e-17)
(-25.2137 0.328185 8.03521e-17)
(-25.1913 0.340211 8.41703e-17)
(-25.1706 0.349693 8.73542e-17)
(-25.1512 0.356116 8.98419e-17)
(-25.1326 0.358876 9.36073e-17)
(-25.1141 0.357295 9.70033e-17)
(-25.0951 0.35051 9.9453e-17)
(-25.0749 0.337389 1.02735e-16)
(-25.0527 0.316514 1.055e-16)
(-25.0277 0.286191 1.08293e-16)
(-24.9988 0.244397 1.11314e-16)
(-24.9646 0.188271 1.13384e-16)
(-24.9252 0.113832 1.16219e-16)
(-27.8705 -0.906749 9.91522e-18)
(-27.6311 -0.906036 1.09771e-17)
(-27.4556 -0.89624 1.20522e-17)
(-27.2833 -0.879069 1.24802e-17)
(-27.1198 -0.856808 1.34206e-17)
(-26.9655 -0.831692 1.53577e-17)
(-26.8202 -0.805618 1.70593e-17)
(-26.6834 -0.780031 1.86695e-17)
(-26.5544 -0.755983 2.0205e-17)
(-26.4321 -0.734045 2.16805e-17)
(-26.3159 -0.714534 2.30519e-17)
(-26.2049 -0.697507 2.47209e-17)
(-26.0984 -0.682832 2.6684e-17)
(-25.9961 -0.670238 2.85098e-17)
(-25.8973 -0.659437 3.02155e-17)
(-25.8018 -0.650082 3.11542e-17)
(-25.7095 -0.641743 3.24753e-17)
(-25.6201 -0.634162 3.46317e-17)
(-25.5337 -0.627055 3.64939e-17)
(-25.4502 -0.620158 3.82031e-17)
(-25.3696 -0.613273 3.9833e-17)
(-25.2919 -0.606254 4.14369e-17)
(-25.2172 -0.598981 4.31865e-17)
(-25.1456 -0.591378 4.51051e-17)
(-25.0771 -0.583418 4.71774e-17)
(-25.0118 -0.575107 4.94665e-17)
(-24.9498 -0.566477 5.19676e-17)
(-24.8911 -0.557594 5.45268e-17)
(-24.8358 -0.548554 5.67852e-17)
(-24.7839 -0.539456 5.88986e-17)
(-24.7354 -0.530372 6.12752e-17)
(-24.6901 -0.521373 6.39452e-17)
(-24.6481 -0.512555 6.75783e-17)
(-24.6092 -0.504011 7.08194e-17)
(-24.5732 -0.495827 7.3069e-17)
(-24.54 -0.488134 7.56282e-17)
(-24.5094 -0.481115 7.83259e-17)
(-24.4812 -0.47498 8.11093e-17)
(-24.4549 -0.469975 8.38389e-17)
(-24.4303 -0.466449 8.67764e-17)
(-24.4071 -0.464862 8.94656e-17)
(-24.3849 -0.465736 9.2428e-17)
(-24.3633 -0.469692 9.49776e-17)
(-24.3418 -0.477578 9.646e-17)
(-24.3201 -0.490497 9.81746e-17)
(-24.298 -0.50981 1.00383e-16)
(-24.2752 -0.537227 1.02642e-16)
(-24.2512 -0.575023 1.0454e-16)
(-24.2256 -0.626288 1.05464e-16)
(-24.1991 -0.694966 1.07154e-16)
(-26.7592 -0.922229 -3.91319e-18)
(-26.5297 -0.909292 -3.91736e-18)
(-26.3576 -0.883111 -3.98487e-18)
(-26.1894 -0.846599 -4.86346e-18)
(-26.0319 -0.803328 -5.18892e-18)
(-25.8854 -0.756654 -4.44056e-18)
(-25.7492 -0.709271 -4.02284e-18)
(-25.6225 -0.663067 -3.73133e-18)
(-25.5038 -0.619247 -3.55313e-18)
(-25.3919 -0.578472 -4.21139e-18)
(-25.2858 -0.540923 -4.30204e-18)
(-25.1845 -0.506512 -3.30245e-18)
(-25.0872 -0.474985 -2.64788e-18)
(-24.9934 -0.445856 -2.12036e-18)
(-24.9027 -0.418632 -1.7054e-18)
(-24.8147 -0.392879 -2.16167e-18)
(-24.7293 -0.368101 -2.05722e-18)
(-24.6465 -0.343849 -8.72405e-19)
(-24.5662 -0.319816 -6.42253e-20)
(-24.4884 -0.295702 6.09442e-19)
(-24.4132 -0.271295 1.23796e-18)
(-24.3408 -0.246511 1.88358e-18)
(-24.2711 -0.221323 2.62589e-18)
(-24.2044 -0.195751 3.47889e-18)
(-24.1408 -0.169886 4.45368e-18)
(-24.0802 -0.143893 5.63167e-18)
(-24.0228 -0.117971 7.06976e-18)
(-23.9687 -0.0923511 8.6187e-18)
(-23.9179 -0.0672754 9.84653e-18)
(-23.8704 -0.0429506 1.09353e-17)
(-23.8261 -0.0195487 1.22807e-17)
(-23.7849 0.00274701 1.39064e-17)
(-23.7467 0.0237568 1.66084e-17)
(-23.7114 0.0433269 1.88358e-17)
(-23.6788 0.061277 1.99802e-17)
(-23.6487 0.0773665 2.15894e-17)
(-23.6211 0.0913296 2.34373e-17)
(-23.5956 0.102883 2.54611e-17)
(-23.5721 0.111664 2.85596e-17)
(-23.5502 0.117193 3.08479e-17)
(-23.5298 0.118938 3.23764e-17)
(-23.5105 0.116345 3.50451e-17)
(-23.492 0.108761 3.7712e-17)
(-23.4743 0.0953938 4.00207e-17)
(-23.4571 0.075357 4.30774e-17)
(-23.4404 0.0476657 4.53935e-17)
(-23.4245 0.0112091 4.70161e-17)
(-23.4096 -0.0354421 4.9537e-17)
(-23.3963 -0.0941007 5.16639e-17)
(-23.3852 -0.167054 5.3384e-17)
(-25.2567 -1.23133 3.22489e-18)
(-25.0189 -1.22423 3.27218e-18)
(-24.8487 -1.19853 3.28337e-18)
(-24.6867 -1.15988 2.47974e-18)
(-24.5388 -1.11385 2.04765e-18)
(-24.4042 -1.06514 2.62804e-18)
(-24.2813 -1.01713 2.94488e-18)
(-24.1682 -0.972013 3.08051e-18)
(-24.0631 -0.930929 3.04424e-18)
(-23.9642 -0.894378 1.97918e-18)
(-23.8703 -0.862352 1.49195e-18)
(-23.7801 -0.834457 2.18486e-18)
(-23.693 -0.810196 2.3949e-18)
(-23.6082 -0.788954 2.40309e-18)
(-23.5255 -0.770025 2.21874e-18)
(-23.4445 -0.752813 1.82688e-18)
(-23.3653 -0.736795 1.52029e-18)
(-23.2878 -0.721407 1.67521e-18)
(-23.2121 -0.706236 1.96003e-18)
(-23.1383 -0.690987 2.10195e-18)
(-23.0665 -0.675427 2.1932e-18)
(-22.997 -0.659408 2.29382e-18)
(-22.9298 -0.642882 2.45112e-18)
(-22.8651 -0.62587 2.69079e-18)
(-22.803 -0.608423 3.03418e-18)
(-22.7437 -0.590639 3.56549e-18)
(-22.6872 -0.572648 4.33632e-18)
(-22.6335 -0.554585 5.07571e-18)
(-22.5827 -0.536533 5.40423e-18)
(-22.5346 -0.518519 5.60183e-18)
(-22.4891 -0.500565 5.98881e-18)
(-22.4462 -0.482701 6.56212e-18)
(-22.4056 -0.464939 8.25291e-18)
(-22.3672 -0.44733 9.33085e-18)
(-22.3311 -0.430001 9.09436e-18)
(-22.297 -0.413138 9.27479e-18)
(-22.2648 -0.396977 9.62086e-18)
(-22.2345 -0.381844 1.01163e-17)
(-22.2059 -0.36821 1.06692e-17)
(-22.1789 -0.356657 1.13076e-17)
(-22.1534 -0.347803 1.24436e-17)
(-22.1292 -0.342323 1.4512e-17)
(-22.1062 -0.341013 1.55934e-17)
(-22.0844 -0.344753 1.59188e-17)
(-22.0638 -0.354466 1.65654e-17)
(-22.0447 -0.371189 1.70457e-17)
(-22.0276 -0.396111 1.89968e-17)
(-22.0131 -0.430637 2.05262e-17)
(-22.0022 -0.476532 2.01141e-17)
(-21.9957 -0.53591 2.0676e-17)
(-23.1885 -1.31997 1.84784e-18)
(-22.9624 -1.30145 1.8896e-18)
(-22.8018 -1.25657 1.85369e-18)
(-22.6532 -1.19542 7.98254e-19)
(-22.5223 -1.1266 3.25912e-19)
(-22.4069 -1.05657 1.14409e-18)
(-22.3041 -0.989427 1.56481e-18)
(-22.2109 -0.92746 1.83013e-18)
(-22.1248 -0.871611 1.96457e-18)
(-22.0437 -0.821914 1.08445e-18)
(-21.9661 -0.777998 5.01159e-19)
(-21.8907 -0.73911 1.06808e-18)
(-21.8168 -0.704353 1.42264e-18)
(-21.744 -0.672871 1.58029e-18)
(-21.6721 -0.64382 1.55927e-18)
(-21.6008 -0.616447 4.01875e-19)
(-21.5302 -0.590131 -6.1611e-20)
(-21.4606 -0.564335 8.22292e-19)
(-21.3921 -0.538623 1.19053e-18)
(-21.3248 -0.51273 1.38565e-18)
(-21.2591 -0.486486 1.49984e-18)
(-21.1951 -0.459803 1.58268e-18)
(-21.133 -0.432702 1.65774e-18)
(-21.0731 -0.40526 1.73931e-18)
(-21.0154 -0.377589 1.85202e-18)
(-20.9601 -0.349851 2.08655e-18)
(-20.907 -0.32224 2.51984e-18)
(-20.8562 -0.294907 2.83259e-18)
(-20.8076 -0.267943 2.67903e-18)
(-20.761 -0.241439 2.37432e-18)
(-20.7162 -0.215518 2.24933e-18)
(-20.6731 -0.190305 2.29181e-18)
(-20.6315 -0.165963 3.54066e-18)
(-20.5914 -0.142736 4.01005e-18)
(-20.5526 -0.120925 2.99304e-18)
(-20.5152 -0.100866 2.48782e-18)
(-20.4791 -0.0829557 2.11385e-18)
(-20.4443 -0.067676 1.80159e-18)
(-20.4107 -0.0555836 1.53422e-18)
(-20.3784 -0.0472339 1.76417e-18)
(-20.3472 -0.0431519 1.60315e-18)
(-20.3171 -0.0438544 1.02989e-18)
(-20.288 -0.0498563 1.97282e-18)
(-20.2601 -0.0616392 1.65371e-18)
(-20.2335 -0.0796292 6.29604e-20)
(-20.2088 -0.104331 -2.34272e-20)
(-20.1868 -0.136367 -1.47928e-19)
(-20.1687 -0.176518 2.27809e-19)
(-20.1562 -0.225919 -6.68564e-19)
(-20.1503 -0.286274 -2.73286e-18)
(-20.4599 -1.56124 2.99676e-18)
(-20.2407 -1.54059 3.16898e-18)
(-20.0982 -1.4831 3.27023e-18)
(-19.9754 -1.40736 2.3473e-18)
(-19.8749 -1.32616 2.02201e-18)
(-19.7912 -1.24754 3.03175e-18)
(-19.7194 -1.17572 3.66077e-18)
(-19.6553 -1.11236 4.09114e-18)
(-19.5958 -1.05774 4.3467e-18)
(-19.5384 -1.0112 3.95091e-18)
(-19.482 -0.971701 3.79018e-18)
(-19.4253 -0.938092 4.52595e-18)
(-19.3678 -0.909157 5.26154e-18)
(-19.3093 -0.883742 5.81437e-18)
(-19.2499 -0.860869 6.21317e-18)
(-19.1895 -0.839691 5.43795e-18)
(-19.1285 -0.819532 5.23463e-18)
(-19.0672 -0.79983 6.45578e-18)
(-19.0059 -0.780147 7.31488e-18)
(-18.9448 -0.760182 8.00329e-18)
(-18.8843 -0.739721 8.63101e-18)
(-18.8248 -0.718646 9.25383e-18)
(-18.7664 -0.696905 9.89261e-18)
(-18.7092 -0.674479 1.05379e-17)
(-18.6535 -0.651399 1.12007e-17)
(-18.5992 -0.627746 1.19739e-17)
(-18.5464 -0.6036 1.35045e-17)
(-18.4949 -0.579001 1.48007e-17)
(-18.4445 -0.554003 1.51119e-17)
(-18.3951 -0.528727 1.54897e-17)
(-18.3466 -0.503335 1.6095e-17)
(-18.2988 -0.478042 1.69197e-17)
(-18.2517 -0.45314 1.85433e-17)
(-18.2053 -0.428978 1.99524e-17)
(-18.1596 -0.405947 2.03424e-17)
(-18.1147 -0.384447 2.07646e-17)
(-18.0706 -0.364907 2.13826e-17)
(-18.0274 -0.3478 2.21241e-17)
(-17.9851 -0.333588 2.37394e-17)
(-17.9438 -0.322653 2.472e-17)
(-17.9033 -0.31533 2.49863e-17)
(-17.8636 -0.311959 2.68093e-17)
(-17.8246 -0.312838 2.81875e-17)
(-17.7865 -0.318224 2.84165e-17)
(-17.7496 -0.328385 2.96798e-17)
(-17.7146 -0.343646 3.05801e-17)
(-17.6827 -0.364462 3.17098e-17)
(-17.6555 -0.391447 3.31573e-17)
(-17.6353 -0.425429 3.35029e-17)
(-17.6236 -0.467884 3.44708e-17)
(-16.8436 -1.68664 1.41938e-18)
(-16.6498 -1.64302 1.40964e-18)
(-16.5445 -1.55135 1.36192e-18)
(-16.4691 -1.44384 7.62369e-19)
(-16.4198 -1.33731 4.127e-19)
(-16.3868 -1.24025 1.06493e-18)
(-16.3626 -1.15564 1.84849e-18)
(-16.3421 -1.08362 2.38852e-18)
(-16.3218 -1.02302 2.7098e-18)
(-16.2996 -0.972273 2.31758e-18)
(-16.2746 -0.929532 2.11309e-18)
(-16.2459 -0.893094 2.89201e-18)
(-16.2136 -0.8614 3.72802e-18)
(-16.1777 -0.83311 4.296e-18)
(-16.1386 -0.807117 4.61951e-18)
(-16.0966 -0.782509 4.14067e-18)
(-16.0524 -0.758557 3.81463e-18)
(-16.0061 -0.734699 4.48825e-18)
(-15.9585 -0.710556 5.16515e-18)
(-15.9097 -0.68587 5.53144e-18)
(-15.8603 -0.660459 5.70776e-18)
(-15.8105 -0.634238 5.75932e-18)
(-15.7606 -0.607193 5.71784e-18)
(-15.7108 -0.579367 5.59525e-18)
(-15.6611 -0.550863 5.39889e-18)
(-15.6118 -0.521819 5.22362e-18)
(-15.5625 -0.492368 5.77635e-18)
(-15.5134 -0.462675 6.01388e-18)
(-15.4642 -0.432987 5.06411e-18)
(-15.4148 -0.40361 4.04378e-18)
(-15.3651 -0.374895 3.23389e-18)
(-15.3151 -0.347241 2.63144e-18)
(-15.2647 -0.321065 2.90221e-18)
(-15.2141 -0.296771 2.94462e-18)
(-15.1634 -0.274717 1.85429e-18)
(-15.1126 -0.255193 7.4643e-19)
(-15.0617 -0.238443 -1.13353e-19)
(-15.0111 -0.224661 -7.72209e-19)
(-14.9605 -0.213951 -1.32149e-18)
(-14.9101 -0.206341 -1.31761e-18)
(-14.8598 -0.201865 -1.57046e-18)
(-14.8095 -0.200589 -1.62159e-18)
(-14.7594 -0.202629 -1.69919e-18)
(-14.7096 -0.208062 -2.87618e-18)
(-14.6607 -0.217148 -3.92361e-18)
(-14.6136 -0.230166 -4.12745e-18)
(-14.5699 -0.247426 -4.27061e-18)
(-14.5317 -0.269262 -4.90722e-18)
(-14.5019 -0.296123 -6.90428e-18)
(-14.4828 -0.328769 -9.42565e-18)
(-12.2428 -1.87945 2.16462e-18)
(-12.0648 -1.79305 1.60701e-18)
(-12.0093 -1.65125 8.90945e-19)
(-12.0008 -1.50928 -4.89747e-19)
(-12.0209 -1.38296 -1.59528e-18)
(-12.0541 -1.27737 -1.24898e-18)
(-12.0905 -1.19167 -4.87219e-19)
(-12.1247 -1.12318 -4.49477e-20)
(-12.1537 -1.06879 1.42161e-19)
(-12.1762 -1.02569 -4.35609e-19)
(-12.1918 -0.991261 -7.61672e-19)
(-12.2005 -0.963294 2.20334e-19)
(-12.2025 -0.939982 1.50926e-18)
(-12.1986 -0.91981 2.49881e-18)
(-12.1893 -0.901544 3.25525e-18)
(-12.1754 -0.884255 3.8099e-18)
(-12.1573 -0.867221 4.13122e-18)
(-12.1357 -0.849914 5.2113e-18)
(-12.1111 -0.83197 7.03878e-18)
(-12.0839 -0.813145 8.55487e-18)
(-12.0545 -0.793292 9.91794e-18)
(-12.0233 -0.772326 1.12127e-17)
(-11.9904 -0.750233 1.24861e-17)
(-11.956 -0.727061 1.3748e-17)
(-11.9204 -0.702889 1.50022e-17)
(-11.8834 -0.677809 1.63502e-17)
(-11.8452 -0.651952 1.85271e-17)
(-11.8055 -0.62554 2.06815e-17)
(-11.7644 -0.598873 2.15075e-17)
(-11.7218 -0.572305 2.20007e-17)
(-11.6777 -0.546236 2.28027e-17)
(-11.632 -0.521085 2.38908e-17)
(-11.585 -0.497255 2.52984e-17)
(-11.5366 -0.47509 2.69353e-17)
(-11.487 -0.454834 2.77709e-17)
(-11.4363 -0.436666 2.79116e-17)
(-11.3847 -0.420706 2.83363e-17)
(-11.3323 -0.406982 2.89433e-17)
(-11.2792 -0.395449 2.99059e-17)
(-11.2254 -0.38614 3.06024e-17)
(-11.1712 -0.379176 3.10723e-17)
(-11.1167 -0.374776 3.29307e-17)
(-11.0621 -0.373233 3.47029e-17)
(-11.0079 -0.374906 3.49354e-17)
(-10.9549 -0.380239 3.52085e-17)
(-10.9043 -0.389612 3.57405e-17)
(-10.8577 -0.403239 3.72847e-17)
(-10.8175 -0.420902 3.9064e-17)
(-10.7873 -0.442187 3.93754e-17)
(-10.7702 -0.466577 3.87029e-17)
(-6.75183 -2.01269 6.08603e-18)
(-6.60312 -1.80567 6.04833e-18)
(-6.57501 -1.60053 5.2664e-18)
(-6.63585 -1.42663 3.43987e-18)
(-6.72319 -1.29109 6.40613e-19)
(-6.81898 -1.18849 -2.4432e-19)
(-6.91198 -1.11107 7.03335e-19)
(-6.99705 -1.05252 8.86735e-19)
(-7.07244 -1.00813 3.01866e-19)
(-7.13737 -0.974231 -1.45634e-18)
(-7.19207 -0.94787 -3.6208e-18)
(-7.23726 -0.926604 -3.86291e-18)
(-7.27388 -0.908622 -2.95654e-18)
(-7.30271 -0.892484 -2.76066e-18)
(-7.32463 -0.877074 -3.24536e-18)
(-7.34056 -0.86154 -4.77562e-18)
(-7.35123 -0.84532 -6.62409e-18)
(-7.35738 -0.82805 -6.62635e-18)
(-7.3596 -0.809462 -5.44264e-18)
(-7.3583 -0.789448 -4.77328e-18)
(-7.35382 -0.768017 -4.33482e-18)
(-7.34648 -0.745214 -3.95689e-18)
(-7.33655 -0.72114 -3.53957e-18)
(-7.32421 -0.695935 -3.00297e-18)
(-7.30959 -0.669729 -2.27024e-18)
(-7.29274 -0.64266 -1.08438e-18)
(-7.27366 -0.614932 1.14936e-18)
(-7.25232 -0.586846 3.89942e-18)
(-7.22872 -0.558769 5.02932e-18)
(-7.2028 -0.531118 5.25102e-18)
(-7.17458 -0.504345 6.21756e-18)
(-7.14409 -0.478901 7.87888e-18)
(-7.11144 -0.455196 1.07127e-17)
(-7.07675 -0.433534 1.40849e-17)
(-7.04015 -0.414125 1.58298e-17)
(-7.00179 -0.397066 1.64975e-17)
(-6.96181 -0.382348 1.7706e-17)
(-6.92043 -0.369845 1.93241e-17)
(-6.87797 -0.359393 2.10915e-17)
(-6.83473 -0.350924 2.39398e-17)
(-6.79111 -0.34444 2.63235e-17)
(-6.74743 -0.340044 2.82754e-17)
(-6.70426 -0.337844 3.11761e-17)
(-6.66204 -0.338049 3.24507e-17)
(-6.6216 -0.340672 3.27445e-17)
(-6.58425 -0.345496 3.48834e-17)
(-6.55142 -0.352002 3.76559e-17)
(-6.52492 -0.359124 3.93698e-17)
(-6.50895 -0.364928 3.80472e-17)
(-6.50757 -0.367159 3.49372e-17)
(-0.673761 -2.35129 5.86935e-18)
(-0.839977 -1.79949 7.58494e-18)
(-0.786264 -1.52575 9.81284e-18)
(-0.864033 -1.31308 1.07607e-17)
(-0.96918 -1.16311 5.37777e-18)
(-1.08235 -1.06697 1.751e-18)
(-1.19466 -1.00631 4.40257e-18)
(-1.30084 -0.967791 6.84272e-18)
(-1.39833 -0.943439 8.31581e-18)
(-1.4863 -0.928209 7.62946e-18)
(-1.56452 -0.918601 2.55387e-18)
(-1.63323 -0.912067 7.88507e-20)
(-1.69324 -0.906814 2.42096e-18)
(-1.74521 -0.901751 4.18857e-18)
(-1.79001 -0.89615 4.90668e-18)
(-1.82847 -0.889403 3.38286e-18)
(-1.86122 -0.881278 -1.80508e-18)
(-1.88896 -0.871712 -4.84597e-18)
(-1.91228 -0.860612 -3.809e-18)
(-1.93154 -0.848003 -3.70489e-18)
(-1.94697 -0.834018 -4.20249e-18)
(-1.95875 -0.818819 -5.11106e-18)
(-1.967 -0.802622 -6.40202e-18)
(-1.97189 -0.785681 -8.01297e-18)
(-1.97361 -0.768157 -9.89981e-18)
(-1.97232 -0.75009 -1.12316e-17)
(-1.96805 -0.731557 -1.07915e-17)
(-1.96082 -0.71271 -7.13456e-18)
(-1.95063 -0.693743 -5.80054e-18)
(-1.93753 -0.674927 -8.80326e-18)
(-1.92167 -0.656568 -1.10341e-17)
(-1.90321 -0.638996 -1.21052e-17)
(-1.88237 -0.622583 -1.11775e-17)
(-1.85942 -0.60771 -6.11637e-18)
(-1.83457 -0.594583 -2.884e-18)
(-1.8081 -0.583261 -4.04752e-18)
(-1.7805 -0.57372 -4.1318e-18)
(-1.75229 -0.565729 -3.59209e-18)
(-1.7241 -0.559038 -1.10726e-18)
(-1.6964 -0.553289 1.20234e-18)
(-1.66979 -0.548407 2.44804e-18)
(-1.64476 -0.544279 6.11867e-18)
(-1.62205 -0.540918 1.41521e-17)
(-1.60261 -0.538737 1.91117e-17)
(-1.58694 -0.538132 2.02134e-17)
(-1.57551 -0.539276 2.29735e-17)
(-1.56998 -0.542017 2.8419e-17)
(-1.57131 -0.546137 4.03285e-17)
(-1.58577 -0.549653 4.95425e-17)
(-1.62262 -0.546628 4.99073e-17)
(5.32964 -2.72861 4.85579e-18)
(5.13598 -1.99506 5.1603e-18)
(4.9644 -1.55151 5.67853e-18)
(4.84897 -1.25152 7.41948e-18)
(4.75149 -1.02452 7.92216e-18)
(4.65536 -0.849625 6.27086e-18)
(4.5616 -0.716493 5.41868e-18)
(4.47197 -0.615824 5.3471e-18)
(4.38699 -0.540165 5.67062e-18)
(4.30653 -0.484093 7.61495e-18)
(4.23041 -0.443416 8.04169e-18)
(4.15844 -0.414685 5.98392e-18)
(4.09022 -0.394875 4.9059e-18)
(4.02538 -0.381352 4.71537e-18)
(3.96361 -0.371855 5.01861e-18)
(3.9046 -0.364542 6.98144e-18)
(3.84808 -0.357994 7.1591e-18)
(3.79394 -0.3512 4.71858e-18)
(3.74214 -0.343469 3.36381e-18)
(3.69271 -0.334297 2.54188e-18)
(3.64579 -0.323339 2.00227e-18)
(3.60155 -0.310443 1.57789e-18)
(3.56008 -0.295649 1.18627e-18)
(3.52139 -0.27914 7.41331e-19)
(3.48557 -0.261106 -1.20968e-19)
(3.45274 -0.241701 -1.16019e-18)
(3.423 -0.221117 -4.08255e-18)
(3.39637 -0.199615 -5.24597e-18)
(3.37284 -0.177493 -3.19954e-18)
(3.35247 -0.154977 -2.35816e-18)
(3.33534 -0.132205 -2.50232e-18)
(3.32137 -0.109407 -3.19459e-18)
(3.31026 -0.0869623 -6.40255e-18)
(3.30185 -0.06523 -7.96291e-18)
(3.29602 -0.0443886 -6.43206e-18)
(3.2925 -0.024738 -6.2093e-18)
(3.29101 -0.00668773 -6.83843e-18)
(3.29124 0.00956568 -7.47888e-18)
(3.29306 0.0239047 -1.04064e-17)
(3.29607 0.0361831 -1.18697e-17)
(3.29997 0.0463191 -1.02205e-17)
(3.30395 0.0544171 -1.22059e-17)
(3.30761 0.0605347 -1.25593e-17)
(3.3104 0.0651739 -9.30777e-18)
(3.31127 0.0691203 -9.39707e-18)
(3.3097 0.0732468 -8.93079e-18)
(3.30438 0.0795494 -8.63011e-18)
(3.29415 0.0905443 -7.83016e-18)
(3.27756 0.109731 -3.54438e-18)
(3.24203 0.145826 -5.91656e-19)
(11.7645 -2.53272 4.33538e-18)
(11.401 -2.06038 4.48008e-18)
(11.1007 -1.7881 4.71484e-18)
(10.9268 -1.65716 5.43143e-18)
(10.8118 -1.59518 5.77302e-18)
(10.7147 -1.57429 5.20924e-18)
(10.6265 -1.58194 4.90819e-18)
(10.5449 -1.60691 4.92494e-18)
(10.4671 -1.63982 4.81891e-18)
(10.3911 -1.6742 5.76241e-18)
(10.3153 -1.70613 6.44496e-18)
(10.239 -1.73338 5.58005e-18)
(10.1617 -1.75483 5.12008e-18)
(10.0834 -1.77003 5.02139e-18)
(10.0041 -1.77901 5.12046e-18)
(9.92382 -1.78216 5.72433e-18)
(9.843 -1.78013 5.81531e-18)
(9.76194 -1.77365 4.92101e-18)
(9.68109 -1.76347 4.35911e-18)
(9.6009 -1.75034 3.95492e-18)
(9.52188 -1.73488 3.62026e-18)
(9.44446 -1.71764 3.31152e-18)
(9.36894 -1.6991 3.02168e-18)
(9.29559 -1.67963 2.7033e-18)
(9.22465 -1.65958 2.22509e-18)
(9.15634 -1.63921 1.87705e-18)
(9.09086 -1.6188 6.71063e-19)
(9.02834 -1.5986 -1.31474e-19)
(8.96889 -1.57878 4.80784e-19)
(8.91265 -1.55947 6.99352e-19)
(8.85969 -1.54077 6.18284e-19)
(8.80995 -1.52278 6.74762e-19)
(8.76337 -1.50559 -2.43928e-19)
(8.7199 -1.48915 -9.06268e-19)
(8.67942 -1.47334 -2.20652e-19)
(8.64173 -1.45817 -1.0042e-19)
(8.60659 -1.44359 -3.32263e-19)
(8.57381 -1.42949 -6.81962e-19)
(8.54319 -1.41576 -1.38944e-18)
(8.51439 -1.40238 -2.37055e-18)
(8.48717 -1.38931 -3.00294e-18)
(8.46117 -1.37649 -4.86224e-18)
(8.43578 -1.36383 -6.32122e-18)
(8.41059 -1.35121 -5.83281e-18)
(8.3848 -1.33838 -5.83796e-18)
(8.35727 -1.32497 -5.76521e-18)
(8.32657 -1.31036 -6.60953e-18)
(8.29022 -1.29364 -7.08017e-18)
(8.24497 -1.2733 -4.99781e-18)
(8.17604 -1.24661 -3.23972e-18)
(17.9776 -0.713923 3.43806e-18)
(17.9533 -0.265248 3.56444e-18)
(17.7684 0.0674193 3.4545e-18)
(17.6401 0.316756 4.04292e-18)
(17.5568 0.521367 4.58963e-18)
(17.4796 0.693326 4.20895e-18)
(17.4002 0.833294 4.02969e-18)
(17.32 0.943576 4.02113e-18)
(17.2386 1.02857 3.56632e-18)
(17.1545 1.09253 4.21269e-18)
(17.0667 1.13896 5.03235e-18)
(16.9748 1.17096 4.55976e-18)
(16.8788 1.19122 4.33882e-18)
(16.7791 1.20218 4.33697e-18)
(16.6761 1.20606 4.14283e-18)
(16.5703 1.20474 4.66157e-18)
(16.4623 1.19978 5.07125e-18)
(16.3526 1.19243 4.53763e-18)
(16.2421 1.1837 4.16801e-18)
(16.1313 1.17432 3.9026e-18)
(16.0209 1.16485 3.64292e-18)
(15.9116 1.15571 3.36979e-18)
(15.8039 1.14718 3.04717e-18)
(15.6981 1.13947 2.71082e-18)
(15.5946 1.13267 2.25752e-18)
(15.4938 1.12681 2.19265e-18)
(15.3959 1.1218 1.50104e-18)
(15.3011 1.11752 9.20675e-19)
(15.2095 1.11381 1.17715e-18)
(15.1213 1.11049 1.07436e-18)
(15.0366 1.10738 7.43322e-19)
(14.9554 1.10427 8.11811e-19)
(14.8776 1.10099 4.11963e-19)
(14.8033 1.09737 -3.65581e-20)
(14.7322 1.09327 3.97779e-19)
(14.6643 1.08856 5.36066e-19)
(14.5992 1.08316 4.5335e-19)
(14.537 1.07698 3.86266e-19)
(14.4774 1.07001 -1.84289e-19)
(14.4202 1.0622 -5.46738e-19)
(14.3649 1.05365 -2.48874e-20)
(14.3113 1.04444 -7.00015e-19)
(14.2591 1.03495 -1.35994e-18)
(14.2076 1.02591 -9.65654e-19)
(14.1562 1.01844 -1.46041e-18)
(14.104 1.01464 -1.78087e-18)
(14.0496 1.01788 -2.03364e-18)
(13.9911 1.03348 -2.46202e-18)
(13.9263 1.07 -1.94423e-18)
(13.8433 1.13903 -2.04742e-18)
(28.5029 -3.85824 3.16822e-18)
(27.8916 -3.59792 3.20259e-18)
(27.3132 -3.451 3.2407e-18)
(26.8736 -3.38368 3.4515e-18)
(26.523 -3.34991 3.60861e-18)
(26.2113 -3.33066 3.3703e-18)
(25.9227 -3.3199 3.22381e-18)
(25.6542 -3.31315 3.20086e-18)
(25.4028 -3.30631 2.92215e-18)
(25.1646 -3.2967 3.24366e-18)
(24.937 -3.28301 3.68882e-18)
(24.718 -3.26472 3.28878e-18)
(24.5067 -3.24175 3.06656e-18)
(24.3024 -3.21435 3.04065e-18)
(24.1048 -3.18296 2.72061e-18)
(23.9134 -3.14806 3.08369e-18)
(23.7283 -3.11023 3.61326e-18)
(23.5492 -3.07005 3.18568e-18)
(23.3762 -3.02812 2.90476e-18)
(23.2094 -2.98501 2.70047e-18)
(23.0488 -2.9412 2.51985e-18)
(22.8945 -2.8971 2.3541e-18)
(22.7465 -2.85301 2.18411e-18)
(22.6048 -2.80921 1.98266e-18)
(22.4693 -2.76588 1.67302e-18)
(22.3398 -2.7232 1.34982e-18)
(22.2162 -2.68133 8.36144e-19)
(22.0984 -2.64042 4.8582e-19)
(21.9862 -2.60055 5.41408e-19)
(21.8795 -2.56183 4.91732e-19)
(21.7781 -2.5243 3.0507e-19)
(21.6817 -2.488 7.19125e-20)
(21.5903 -2.4529 -4.98839e-19)
(21.5034 -2.41895 -9.84838e-19)
(21.421 -2.38612 -9.35153e-19)
(21.3426 -2.35432 -9.13008e-19)
(21.268 -2.32347 -9.3105e-19)
(21.197 -2.29347 -6.6154e-19)
(21.1291 -2.26425 -8.61808e-19)
(21.064 -2.23573 -1.39768e-18)
(21.0013 -2.20778 -1.52559e-18)
(20.9405 -2.18023 -1.8919e-18)
(20.8809 -2.15282 -1.98617e-18)
(20.8218 -2.12513 -1.16723e-18)
(20.7619 -2.0965 -1.10583e-18)
(20.6995 -2.06575 -1.2503e-18)
(20.632 -2.03089 -1.79634e-18)
(20.5549 -1.98859 -2.5478e-18)
(20.4603 -1.933 -1.84179e-18)
(20.3284 -1.8595 -9.57035e-19)
(31.0467 3.07996 3.24236e-18)
(31.2102 3.411 3.28136e-18)
(31.1774 3.55343 2.97541e-18)
(31.1946 3.62573 3.32292e-18)
(31.2629 3.6624 3.79365e-18)
(31.3326 3.67292 3.50775e-18)
(31.3893 3.66265 3.31767e-18)
(31.4358 3.63619 3.23985e-18)
(31.474 3.59758 2.85017e-18)
(31.5039 3.55005 3.0681e-18)
(31.5252 3.496 3.54084e-18)
(31.5387 3.43727 3.265e-18)
(31.5448 3.3754 3.0845e-18)
(31.5443 3.3116 3.00084e-18)
(31.5379 3.24682 2.62971e-18)
(31.526 3.18189 2.90368e-18)
(31.5091 3.11747 3.37202e-18)
(31.4877 3.05404 3.10078e-18)
(31.4622 2.99193 2.91892e-18)
(31.4329 2.93141 2.78441e-18)
(31.4004 2.87265 2.66747e-18)
(31.365 2.81577 2.56775e-18)
(31.327 2.76084 2.47719e-18)
(31.2868 2.70788 2.38268e-18)
(31.2445 2.65691 2.23327e-18)
(31.2003 2.60787 2.41614e-18)
(31.1543 2.56066 2.04938e-18)
(31.1068 2.51516 1.44807e-18)
(31.0579 2.47125 1.56968e-18)
(31.0077 2.42876 1.6061e-18)
(30.9563 2.38756 1.55352e-18)
(30.9038 2.3475 1.8115e-18)
(30.8504 2.30846 1.425e-18)
(30.7961 2.27036 8.70327e-19)
(30.7408 2.23313 1.0174e-18)
(30.6845 2.1967 1.0606e-18)
(30.6273 2.16104 1.01442e-18)
(30.5691 2.12616 9.49364e-19)
(30.5097 2.09204 6.33249e-19)
(30.4489 2.05881 4.39376e-19)
(30.3866 2.02667 9.13351e-19)
(30.3224 1.99603 6.59018e-19)
(30.2559 1.96772 8.11706e-20)
(30.1865 1.94292 2.10583e-19)
(30.1135 1.92371 -9.9398e-21)
(30.0358 1.91331 1.65288e-19)
(29.9522 1.91671 9.04029e-21)
(29.8615 1.94149 -8.38979e-19)
(29.7593 1.99689 -9.57481e-19)
(29.6526 2.08914 -2.08884e-20)
(56.257 -6.77907 3.57643e-18)
(55.5065 -6.58713 3.60427e-18)
(54.86 -6.3776 3.2233e-18)
(54.3653 -6.16196 3.40401e-18)
(53.9503 -5.955 3.9329e-18)
(53.5734 -5.76229 3.75167e-18)
(53.2214 -5.58487 3.62007e-18)
(52.8899 -5.42204 3.56505e-18)
(52.5748 -5.27224 3.08272e-18)
(52.2718 -5.13363 3.20225e-18)
(51.9776 -5.00445 3.73662e-18)