/*--------------------------------*- C++ -*----------------------------------*\
  =========                 |
  \\      /  F ield         | OpenFOAM: The Open Source CFD Toolbox
   \\    /   O peration     | Website:  https://openfoam.org
    \\  /    A nd           | Version:  8
     \\/     M anipulation  |
\*---------------------------------------------------------------------------*/
FoamFile
{
    version     2.0;
    format      ascii;
    class       volScalarField;
    location    "100";
    object      alphat;
}
// * * * * * * * * * * * * * * * * * * * * * * * * * * * * * * * * * * * * * //

dimensions      [1 -1 -1 0 0 0 0];

internalField   nonuniform List<scalar> 
1200
(
0.80133
0.738453
0.682834
0.630977
0.589665
0.510322
0.46455
0.414235
0.362144
0.320544
0.292034
0.272703
0.258977
0.248694
0.240537
0.23394
0.228796
0.225039
0.223025
0.222944
0.218079
0.19873
0.177008
0.16797
0.159295
0.151894
0.14234
0.128038
0.11342
0.10275
0.0954287
0.0902743
0.0864167
0.0830299
0.0808419
0.0793622
0.0786725
0.0786782
0.0788125
0.0791689
0.080455
0.0844713
0.0874558
0.0867912
0.083793
0.0797773
0.0768557
0.0754972
0.0748659
0.0744401
0.0741816
0.0741455
0.0742194
0.0744763
0.0751904
0.0765977
0.0786899
0.0809871
0.0829616
0.0844964
0.465692
0.401928
0.358323
0.323681
0.304282
0.280477
0.256377
0.234721
0.216595
0.200807
0.187104
0.175235
0.164892
0.155752
0.147556
0.140436
0.133943
0.126879
0.120143
0.114296
0.108835
0.100216
0.0905739
0.0838799
0.0782142
0.0740026
0.0718694
0.0698349
0.0674085
0.0651598
0.0628356
0.0602257
0.0572404
0.0533068
0.0488969
0.044455
0.0403914
0.036692
0.0353265
0.0354609
0.0349839
0.0340716
0.0363074
0.0381123
0.0380896
0.0373448
0.0367175
0.0363219
0.0359777
0.035576
0.0351992
0.0349873
0.0348836
0.034626
0.0340862
0.0333419
0.0325674
0.0318233
0.0311325
0.0304408
0.465552
0.400439
0.353162
0.31814
0.292664
0.271633
0.252888
0.237069
0.223241
0.210684
0.199117
0.188526
0.178836
0.169982
0.162029
0.155509
0.145345
0.129041
0.113867
0.103533
0.0959411
0.0894766
0.0835798
0.0780483
0.0747689
0.0714728
0.0688329
0.0672524
0.065079
0.0627517
0.0605195
0.0589939
0.0573719
0.0552851
0.0527862
0.0498029
0.0467084
0.044053
0.0423539
0.0413708
0.0407015
0.0398841
0.0387193
0.0377154
0.0368005
0.0359447
0.0350641
0.0340987
0.033193
0.0323647
0.0316033
0.0311548
0.0310862
0.031028
0.0306418
0.030007
0.0293449
0.0287074
0.0280122
0.0275059
0.465561
0.400471
0.352851
0.317843
0.291013
0.270319
0.253649
0.239524
0.226951
0.215507
0.204716
0.194511
0.184868
0.175821
0.167531
0.159893
0.151743
0.141687
0.129543
0.117329
0.106054
0.0956128
0.0844279
0.0737143
0.0667783
0.0637433
0.0617314
0.059128
0.0562591
0.0530725
0.050477
0.0488503
0.0481256
0.0478277
0.0475509
0.0466896
0.0455121
0.0444827
0.04374
0.0426934
0.0414919
0.040547
0.0398494
0.0389194
0.0378945
0.0369111
0.0356644
0.0339528
0.0319722
0.0302029
0.0289861
0.0283156
0.0280872
0.0280571
0.0279381
0.027573
0.0270747
0.0265516
0.0259694
0.0253149
0.465548
0.400426
0.352986
0.318361
0.291809
0.270944
0.254109
0.239644
0.226728
0.215044
0.204258
0.194143
0.184575
0.175373
0.166741
0.159002
0.151043
0.141511
0.129991
0.117361
0.10369
0.0898789
0.0760715
0.0644073
0.0561937
0.0511356
0.049513
0.0477641
0.0455479
0.0431773
0.0415055
0.04028
0.039859
0.0400254
0.0404567
0.0407333
0.0406172
0.0402827
0.0396233
0.0387429
0.0376634
0.0368265
0.0364953
0.0361899
0.035622
0.0347452
0.0334563
0.0316125
0.0298384
0.028822
0.0282853
0.0277493
0.0273498
0.0271382
0.0269048
0.0264452
0.0257974
0.0251816
0.024642
0.0241669
0.465554
0.400252
0.353134
0.318984
0.292579
0.271075
0.252869
0.236838
0.222523
0.209535
0.197626
0.186591
0.17636
0.166988
0.158294
0.150123
0.142715
0.135186
0.126713
0.116663
0.104724
0.0920316
0.0791701
0.066344
0.05473
0.04623
0.0420874
0.040019
0.0390978
0.0394304
0.0391507
0.0384921
0.0378814
0.0375346
0.0373732
0.037306
0.0371494
0.0367147
0.0359917
0.0350778
0.0340704
0.0333436
0.0330343
0.0329944
0.0328486
0.032527
0.0321032
0.0315838
0.0310105
0.0304729
0.0297903
0.0286689
0.0275807
0.0268716
0.0263701
0.0258288
0.0253298
0.0249947
0.0246182
0.0239382
0.465547
0.399902
0.353459
0.319802
0.293053
0.269792
0.248402
0.229454
0.213946
0.201419
0.189825
0.178513
0.167783
0.157749
0.148329
0.139121
0.131069
0.123999
0.117301
0.10983
0.100882
0.0911584
0.0807817
0.0685443
0.0545229
0.0443793
0.0408747
0.0409555
0.0431257
0.0438265
0.0419502
0.0396533
0.0380747
0.0372119
0.0366794
0.0362613
0.0358427
0.0352846
0.0344646
0.0332807
0.0323755
0.0321266
0.0316967
0.0314755
0.0312959
0.0310662
0.0308706
0.0308108
0.0309112
0.0312951
0.0313237
0.0300787
0.0284212
0.0272066
0.0263772
0.0257614
0.0256146
0.0261687
0.0277488
0.0282491
0.46558
0.400698
0.355595
0.321626
0.292367
0.260861
0.224734
0.192665
0.169446
0.152864
0.140073
0.12922
0.119613
0.111084
0.103174
0.0957749
0.0923736
0.0934213
0.0954903
0.0943467
0.0897291
0.0829985
0.0750525
0.0663577
0.0579479
0.0518114
0.0488724
0.0490788
0.051376
0.0493829
0.0434485
0.0375076
0.0337155
0.0320864
0.0317153
0.0317845
0.0318926
0.0317708
0.0312556
0.0307627
0.0323569
0.0340166
0.0335336
0.0328806
0.0322824
0.0318826
0.0319618
0.0325394
0.0331404
0.033356
0.0326868
0.0307096
0.0287899
0.0278364
0.0273172
0.0269713
0.027229
0.028474
0.0310139
0.0317631
0.466358
0.407457
0.364744
0.327118
0.295896
0.268533
0.242869
0.218223
0.195648
0.175743
0.158497
0.14388
0.131687
0.121597
0.113596
0.106625
0.0973758
0.0889276
0.0855913
0.083683
0.0805467
0.076235
0.0714929
0.0666095
0.0621696
0.0590333
0.0577928
0.0588561
0.0604334
0.0569186
0.0498322
0.043115
0.0389052
0.0364115
0.0346264
0.0334111
0.0325434
0.0318308
0.0311285
0.0322648
0.0384504
0.0411537
0.0408237
0.0395037
0.0379499
0.0368039
0.0359808
0.0347436
0.0334621
0.0323259
0.0312711
0.0298159
0.0283559
0.0276868
0.0275798
0.0277134
0.0282464
0.0294115
0.0316671
0.0338167
0.800815
0.743945
0.683962
0.615398
0.547166
0.494909
0.455497
0.410516
0.357093
0.310675
0.276787
0.251642
0.233319
0.220134
0.210932
0.18802
0.151027
0.135929
0.132862
0.131639
0.130431
0.129255
0.128452
0.127768
0.12763
0.129199
0.131563
0.132697
0.124969
0.110378
0.0996853
0.0943315
0.0919694
0.0904579
0.088652
0.0863021
0.0842146
0.0833366
0.0824418
0.0779318
0.0791327
0.0771174
0.0707337
0.0668457
0.0635826
0.0617986
0.059835
0.0584489
0.0579996
0.0579581
0.0576097
0.057012
0.0566516
0.0568518
0.0577686
0.059141
0.0608586
0.0631073
0.06681
0.0721196
0.80165
0.738565
0.681436
0.628258
0.593285
0.515661
0.466952
0.416908
0.365461
0.323863
0.294911
0.275062
0.260889
0.250252
0.241799
0.234939
0.229516
0.225536
0.224359
0.223428
0.214481
0.191685
0.170481
0.162512
0.160077
0.154367
0.145511
0.132163
0.118066
0.107064
0.0989017
0.0929172
0.0884645
0.0847435
0.0823995
0.080786
0.0799519
0.0795927
0.0795498
0.0796934
0.0805625
0.0840902
0.087367
0.0871624
0.0844759
0.0805078
0.0772151
0.075587
0.0748787
0.0744764
0.0742728
0.0743102
0.0744726
0.0747681
0.0754361
0.0767295
0.078677
0.0808901
0.0828257
0.0844808
0.465824
0.403189
0.359285
0.323748
0.303826
0.282161
0.258611
0.237032
0.218701
0.202719
0.1888
0.176733
0.166219
0.156961
0.148745
0.141718
0.134774
0.12686
0.119453
0.113663
0.107282
0.097491
0.0877129
0.0813857
0.0781402
0.0746679
0.0726086
0.0707165
0.0684742
0.0662658
0.0639546
0.0613277
0.0583416
0.0545281
0.0502909
0.0459434
0.0418351
0.0379041
0.0359746
0.0359652
0.0352373
0.034081
0.0352705
0.03744
0.0378859
0.0371768
0.0365531
0.0361052
0.0357249
0.0353291
0.0349619
0.0347467
0.0346656
0.0344817
0.0340489
0.033405
0.0326927
0.0319761
0.0312777
0.0305702
0.465573
0.400385
0.353007
0.317914
0.292278
0.27199
0.253576
0.237834
0.224043
0.211525
0.200015
0.189479
0.179834
0.171007
0.163198
0.156804
0.142682
0.124662
0.110485
0.101228
0.0941598
0.088092
0.0822302
0.0765499
0.0733526
0.071241
0.0692165
0.0672228
0.064586
0.0620166
0.0597654
0.0583594
0.0571844
0.0556413
0.0535329
0.0508321
0.0479118
0.0453035
0.0435424
0.0423942
0.0416511
0.0408852
0.0395643
0.0383858
0.0373563
0.0364334
0.0354678
0.0343881
0.033327
0.0323729
0.0315504
0.0310447
0.0309352
0.0309081
0.0306258
0.0300692
0.0294478
0.0288375
0.028188
0.02753
0.46555
0.400398
0.352797
0.317775
0.290933
0.270298
0.25368
0.239509
0.226861
0.215425
0.204834
0.194901
0.185551
0.17678
0.168662
0.160476
0.151124
0.140111
0.127498
0.115335
0.104137
0.0935186
0.0819102
0.0710148
0.0643538
0.0616877
0.0601105
0.0578354
0.0551125
0.0520817
0.0496975
0.0481896
0.0475302
0.0472961
0.0471669
0.0467189
0.0458405
0.0449196
0.0439598
0.0426885
0.0413427
0.0403459
0.0397317
0.0390209
0.0381986
0.0372927
0.0360849
0.0344097
0.0324036
0.0305214
0.0291675
0.0283807
0.0280614
0.0279908
0.0278766
0.0275711
0.0271262
0.0266309
0.0259155
0.0252975
0.465536
0.400381
0.35299
0.318395
0.291825
0.270948
0.254073
0.239496
0.226512
0.214836
0.204102
0.194225
0.184996
0.176226
0.167987
0.159785
0.150706
0.140218
0.128421
0.11557
0.101436
0.0872143
0.0733194
0.0618001
0.0539271
0.0494971
0.0484174
0.0468539
0.0446637
0.0425197
0.0410321
0.0399587
0.0396205
0.039808
0.0402235
0.0405839
0.0406157
0.0403265
0.039582
0.0386242
0.0375012
0.0366696
0.0363311
0.0361076
0.0356869
0.0349584
0.0338266
0.0321038
0.0302522
0.0290307
0.0283874
0.0278189
0.0273692
0.0271134
0.0268787
0.0264584
0.0258503
0.0252591
0.0247538
0.0241496
0.465546
0.400235
0.353156
0.318994
0.292474
0.270847
0.252492
0.236348
0.221921
0.208805
0.196783
0.185589
0.175364
0.166034
0.15737
0.149237
0.141835
0.134257
0.125828
0.115504
0.103071
0.0899855
0.0767998
0.0637917
0.0523204
0.0444838
0.0411731
0.0394797
0.0389058
0.03934
0.0392776
0.038713
0.0380922
0.0375992
0.037294
0.037123
0.036923
0.0364746
0.0357868
0.0349023
0.0339059
0.0332148
0.0329369
0.0328666
0.0327342
0.0324274
0.0320634
0.0316179
0.0310735
0.0305215
0.0298742
0.0288152
0.0277066
0.0269296
0.0263918
0.0258527
0.0253391
0.0249561
0.0245236
0.023958
0.465545
0.400033
0.353492
0.319791
0.292913
0.269482
0.248001
0.229308
0.214242
0.20182
0.189731
0.178197
0.167357
0.157277
0.147716
0.138232
0.129963
0.122961
0.116446
0.108855
0.0995891
0.0895859
0.0789272
0.0661921
0.0521458
0.0430886
0.0405422
0.0412792
0.0430913
0.0440425
0.0425315
0.0402717
0.0385124
0.0375711
0.0369245
0.0363718
0.0357978
0.0351069
0.0342006
0.0329847
0.032144
0.0319756
0.0315864
0.0313678
0.0311676
0.0309495
0.0307555
0.0306507
0.0306543
0.0310357
0.0312043
0.0301855
0.0285944
0.0273284
0.0264377
0.0257825
0.0255587
0.0259864
0.0274089
0.0279101
0.465558
0.400487
0.354981
0.321206
0.291785
0.259487
0.222678
0.190776
0.168128
0.152116
0.139641
0.12864
0.118833
0.110186
0.101823
0.0943874
0.0912422
0.0929289
0.0953363
0.093954
0.0889166
0.0818144
0.0735503
0.064617
0.0562477
0.0505347
0.048425
0.0489924
0.0511899
0.0501324
0.0449748
0.0390521
0.0347932
0.0326296
0.0319621
0.0318948
0.0318794
0.0316999
0.0312562
0.0305774
0.0321259
0.0338687
0.0334416
0.0328236
0.0322371
0.0317944
0.0317481
0.0321881
0.0327786
0.0330939
0.032661
0.0309344
0.0289887
0.0279104
0.0273143
0.0269194
0.0270826
0.028214
0.0306788
0.0315652
0.465688
0.404544
0.360803
0.325124
0.294785
0.267196
0.241121
0.216265
0.193814
0.174203
0.157195
0.14277
0.13079
0.120899
0.113365
0.106109
0.0964485
0.0881593
0.0853208
0.083432
0.0800649
0.075508
0.0705865
0.0655805
0.0611446
0.0581454
0.0571011
0.0580978
0.0603044
0.0581197
0.0519021
0.0450477
0.0401968
0.0372271
0.0351277
0.0337291
0.0327711
0.0319735
0.031242
0.0321547
0.0380544
0.0409442
0.04063
0.0393532
0.0378358
0.0366741
0.0358554
0.0347436
0.0335625
0.0324296
0.0314073
0.030031
0.0285367
0.0277405
0.0275319
0.0275985
0.0280577
0.0291457
0.0313273
0.0334946
0.800719
0.743913
0.685485
0.617972
0.549798
0.496901
0.457181
0.412929
0.36064
0.314521
0.280207
0.254484
0.235629
0.222092
0.212719
0.184165
0.147316
0.134741
0.132392
0.131187
0.129857
0.128558
0.127643
0.126868
0.126757
0.128444
0.1313
0.13332
0.128126
0.114679
0.103081
0.0964848
0.0933366
0.0915273
0.0897827
0.0874979
0.0854441
0.0846889
0.0840248
0.0791564
0.0793575
0.0773664
0.0709215
0.0669014
0.06367
0.0619418
0.0600429
0.0586782
0.0582003
0.058231
0.0579351
0.0572538
0.0567596
0.0568664
0.0576894
0.0589862
0.0606142
0.0627484
0.066316
0.071566
)
;

boundaryField
{
    wall
    {
        type            compressible::alphatJayatillekeWallFunction;
        Prt             0.85;
        value           uniform 0;
    }
    inlet
    {
        type            calculated;
        value           uniform 37.903;
    }
    outlet
    {
        type            calculated;
        value           nonuniform List<scalar> 
20
(
0.0844961
0.0304405
0.0275055
0.0253147
0.0241668
0.0239382
0.028249
0.0317631
0.0338167
0.0721196
0.0844805
0.0305699
0.0275295
0.0252973
0.0241495
0.023958
0.0279101
0.0315652
0.0334946
0.0715659
)
;
    }
    heatWall
    {
        type            compressible::alphatJayatillekeWallFunction;
        Prt             0.85;
        value           nonuniform List<scalar> 
240
(
0
0
0
0
0
0
0
0
0.0562883
0.0565635
0.0512004
0.0514083
0.0471232
0.0473086
0.0422436
0.0425132
0.0364677
0.0368533
0.0316238
0.0320291
0.0282187
0.0285727
0.0257392
0.0260339
0.023944
0.024188
0.0226622
0.0228698
0.0218406
0.0220007
0.018954
0.0184715
0.0154306
0.0150835
0.0142283
0.0141295
0.0139919
0.0139479
0.0138645
0.0138151
0.0137301
0.0136655
0.0136015
0.0135235
0.013513
0.0134242
0.0134437
0.013349
0.0134511
0.0133659
0.0136491
0.0135858
0.0138916
0.0138737
0.0138127
0.0139434
0.012715
0.0131003
0.0112511
0.0116742
0.0103245
0.0106271
0.00990077
0.010086
0.00971171
0.00983247
0.00955262
0.00965715
0.00933561
0.00945028
0.00906738
0.00919125
0.00883515
0.00896546
0.00874472
0.00889364
0.00863044
0.00880503
0.0082263
0.00834383
0.00848529
0.00849684
0.00824279
0.00826858
0.00758705
0.00760303
0.00717836
0.00718439
0.00682688
0.00683676
0.00663479
0.00665131
0.00642193
0.0064456
0.00626755
0.00629356
0.0062175
0.00624258
0.00621306
0.00623867
0.0061859
0.00620755
0.00613805
0.00614571
0.00610805
0.00610548
0.0061419
0.00613046
0.00625671
0.00623629
0.00642068
0.00639183
0.00662251
0.00658414
0.00688042
0.00683141
0.00729981
0.00723897
0.00788064
0.00781602
0
0
0
0
0
0
0.0636875
0.0633983
0.058952
0.0593886
0.0518775
0.0523435
0.0479778
0.0481925
0.0425557
0.0428386
0.0369898
0.0373444
0.032708
0.0330587
0.0298572
0.0301574
0.027962
0.0282072
0.0266282
0.0268278
0.0256316
0.0257954
0.0248386
0.0249748
0.0241938
0.0243078
0.0236954
0.0237887
0.0233531
0.0234328
0.0231581
0.0232079
0.0228622
0.0227052
0.0218773
0.0213457
0.0197326
0.0190251
0.0177495
0.0171691
0.016992
0.0165293
0.016355
0.0164073
0.0157119
0.0159319
0.0146476
0.0149748
0.0130238
0.0134655
0.0114757
0.0119545
0.01047
0.0108881
0.00982902
0.0101523
0.00937793
0.00962153
0.00902551
0.00921782
0.0086956
0.00886193
0.00848413
0.00863697
0.00835344
0.00849197
0.00831382
0.00843382
0.00835197
0.0084326
0.00838138
0.0084469
0.00844491
0.00848747
0.00862498
0.00861375
0.00909564
0.00904887
0.00936892
0.00936391
0.00922749
0.00927457
0.00887282
0.00894907
0.00846946
0.0085361
0.00821158
0.00824166
0.00809637
0.00810465
0.00803719
0.00803993
0.00799254
0.00799786
0.00796396
0.00797489
0.00795446
0.00797344
0.00795569
0.00798273
0.00798549
0.00801292
0.00807646
0.0080942
0.00824931
0.00824975
0.00849022
0.00847242
0.00873193
0.00870897
0.00892708
0.00890814
0.00908115
0.00908384
)
;
    }
}


// ************************************************************************* //
