/*--------------------------------*- C++ -*----------------------------------*\
  =========                 |
  \\      /  F ield         | OpenFOAM: The Open Source CFD Toolbox
   \\    /   O peration     | Website:  https://openfoam.org
    \\  /    A nd           | Version:  8
     \\/     M anipulation  |
\*---------------------------------------------------------------------------*/
FoamFile
{
    version     2.0;
    format      ascii;
    class       volScalarField;
    location    "100";
    object      epsilon;
}
// * * * * * * * * * * * * * * * * * * * * * * * * * * * * * * * * * * * * * //

dimensions      [0 2 -3 0 0 0 0];

internalField   nonuniform List<scalar> 
1200
(
72.2796
56.491
44.097
34.3508
26.827
17.7248
13.7188
9.60151
6.31224
4.34964
3.3003
2.70516
2.33161
2.07555
1.88462
1.73707
1.62847
1.55847
1.51885
1.44002
1.22575
0.876546
0.633843
0.557057
0.499954
0.443071
0.354611
0.244349
0.164978
0.125437
0.104379
0.0910651
0.0813261
0.0726219
0.0673947
0.0643929
0.063694
0.0648916
0.0657959
0.067622
0.0724696
0.0855147
0.0932735
0.0886961
0.0785742
0.0682939
0.0623734
0.0597723
0.0583399
0.0571718
0.0563411
0.0559548
0.0558767
0.0565489
0.0586843
0.0628182
0.0687961
0.0749963
0.0801567
0.0843993
92.9674
59.9684
42.4318
31.0706
25.3116
19.4545
14.7624
11.3173
8.89886
7.09851
5.75455
4.73856
3.95569
3.33956
2.84567
2.44031
2.08099
1.75957
1.47397
1.24618
1.01575
0.763776
0.566336
0.456171
0.380762
0.339831
0.317562
0.287493
0.256593
0.2318
0.20748
0.182156
0.155053
0.122003
0.0914884
0.0679587
0.0515316
0.0406353
0.0383616
0.038713
0.0377162
0.0366509
0.0458949
0.052275
0.0511074
0.0488547
0.0469364
0.0457231
0.044367
0.0426941
0.0412868
0.0405296
0.0398602
0.0383636
0.0359519
0.0332403
0.0308191
0.0286655
0.0268512
0.0251858
92.8729
59.1352
40.6225
29.688
23.0009
18.2289
14.6567
12.0417
10.0241
8.39586
7.05683
5.96
5.05965
4.31905
3.70981
3.09301
2.30202
1.60465
1.16243
0.906255
0.732619
0.601912
0.484858
0.386571
0.340996
0.297821
0.266602
0.250667
0.228552
0.204701
0.184928
0.172048
0.158219
0.140878
0.120614
0.0988938
0.0803536
0.0679247
0.0614711
0.058178
0.0554535
0.0521296
0.0482985
0.0456171
0.0429966
0.0404605
0.0381195
0.0358282
0.0336436
0.0313377
0.0292569
0.0282587
0.0281363
0.0276265
0.0261643
0.0243411
0.0226938
0.0211536
0.0197202
0.0185857
92.8752
59.1208
40.4872
29.588
22.6906
18.1377
14.9522
12.5327
10.6011
9.01337
7.64969
6.48996
5.50659
4.68075
4.00859
3.45884
2.93444
2.38199
1.81293
1.34559
0.982897
0.700406
0.460123
0.295644
0.221286
0.200955
0.189627
0.16894
0.145669
0.12366
0.108727
0.100446
0.0964508
0.0946236
0.0924821
0.0871854
0.0804175
0.0751196
0.0712847
0.0662908
0.0607933
0.056799
0.0533404
0.0495178
0.0459447
0.0427745
0.0386555
0.0332442
0.0280001
0.0241181
0.0218094
0.0207253
0.0205044
0.0204977
0.020104
0.0191157
0.0179845
0.0169476
0.0156993
0.0148791
92.8706
59.1125
40.5624
29.7631
22.8688
18.2796
15.0291
12.548
10.5765
8.97927
7.62675
6.47565
5.4852
4.63921
3.94197
3.40319
2.92249
2.41742
1.88042
1.35592
0.896318
0.558295
0.327583
0.194714
0.130301
0.105085
0.0999304
0.0900478
0.0773567
0.0678522
0.0618091
0.0579899
0.0572548
0.058334
0.0600098
0.0607311
0.0598043
0.0579248
0.0552108
0.0515335
0.0472641
0.0443527
0.0431155
0.0417116
0.0394802
0.0361691
0.0316564
0.0266006
0.0230095
0.0214222
0.0204354
0.0194013
0.0187706
0.0184426
0.0178883
0.0168492
0.0155654
0.0145281
0.0136353
0.0128436
92.8679
59.0543
40.6323
29.9293
23.0078
18.2332
14.7463
12.0758
9.97345
8.28274
6.91041
5.7888
4.87649
4.13005
3.50809
2.98695
2.56374
2.18652
1.79898
1.37213
0.955935
0.624644
0.381122
0.214353
0.118545
0.0755051
0.061582
0.0551204
0.0538991
0.0545157
0.0525645
0.0498481
0.0478516
0.0467816
0.0463665
0.0461047
0.0453886
0.0438459
0.0414613
0.0384136
0.0353255
0.0333819
0.0328133
0.0326758
0.0321416
0.0311849
0.0298792
0.0283784
0.0269509
0.0256497
0.0237379
0.0210077
0.018893
0.0176857
0.0167669
0.015725
0.014945
0.0146003
0.0143158
0.0132031
92.8698
58.9255
40.7662
30.1551
23.1072
17.9516
13.9812
11.0771
9.05373
7.54193
6.25031
5.16364
4.26642
3.52872
2.89189
2.33979
1.94859
1.66437
1.41928
1.15045
0.86949
0.62498
0.420061
0.241106
0.118463
0.0703734
0.0608899
0.0657381
0.0762529
0.0731731
0.0618707
0.0526101
0.0474194
0.0444587
0.0426839
0.0412408
0.0397024
0.0378032
0.0352265
0.0318819
0.0302084
0.0300353
0.0292696
0.0288522
0.0284095
0.0279299
0.0276847
0.0277723
0.0282262
0.0292123
0.0282973
0.0242037
0.0204357
0.0181758
0.0167196
0.0156764
0.0157074
0.0171683
0.0208247
0.0217711
92.89
59.2784
41.4165
30.5591
22.7657
15.8518
9.92802
6.24176
4.29287
3.19196
2.45711
1.90335
1.48673
1.17483
0.928469
0.749281
0.682043
0.73098
0.789754
0.747298
0.624174
0.479301
0.342893
0.229497
0.152179
0.113906
0.104979
0.113355
0.122735
0.0966308
0.0617602
0.0406684
0.0316615
0.0288864
0.0283359
0.0283789
0.0283094
0.0276783
0.0264056
0.0253236
0.0315991
0.0368052
0.0350057
0.0329776
0.0313325
0.0305814
0.0314312
0.0335095
0.0350661
0.0348215
0.0313463
0.0253128
0.0212725
0.0197027
0.0188544
0.0183206
0.01919
0.0222637
0.0288202
0.0300933
93.3806
62.1699
44.0874
31.8052
23.4471
17.3284
12.654
9.0972
6.54504
4.75522
3.49394
2.61726
2.01254
1.59278
1.31411
1.06219
0.793892
0.614021
0.563318
0.524639
0.459122
0.381167
0.308557
0.246063
0.199966
0.174416
0.171353
0.19006
0.188631
0.140482
0.0904027
0.0616744
0.0484248
0.0411522
0.0363494
0.0331013
0.0307743
0.0288841
0.0270655
0.0310316
0.0544237
0.0654639
0.0638862
0.0577566
0.0510689
0.0466273
0.0431549
0.0378971
0.0334503
0.0301044
0.0270472
0.0232385
0.0203417
0.0194324
0.019552
0.0200814
0.0215325
0.0245575
0.0308827
0.0371207
72.1482
57.6943
44.2828
31.9465
22.3728
16.622
12.9681
9.3652
6.02206
3.91546
2.77044
2.09182
1.67714
1.41864
1.27321
0.795629
0.423954
0.336531
0.320889
0.311303
0.300794
0.290942
0.284071
0.278505
0.278361
0.29138
0.307659
0.298657
0.226264
0.155392
0.121224
0.108131
0.102738
0.0978471
0.0910187
0.0830509
0.0765784
0.0742362
0.07117
0.0617478
0.0690367
0.0630512
0.0489429
0.0414727
0.0355918
0.0325069
0.0293269
0.0272706
0.0266588
0.0266185
0.0262958
0.0257062
0.025292
0.0257105
0.0272164
0.0294787
0.0324029
0.0363636
0.0434076
0.0545816
72.3583
56.4869
43.7646
33.8639
27.4737
18.2262
13.9023
9.79269
6.49821
4.49471
3.40398
2.77952
2.38677
2.11785
1.91831
1.76459
1.65081
1.57773
1.52366
1.39682
1.12615
0.781651
0.573577
0.513414
0.504129
0.461835
0.379739
0.271146
0.187136
0.141155
0.114873
0.098195
0.0865551
0.0768648
0.0711157
0.0676436
0.0664321
0.0666839
0.0672538
0.0685489
0.0719929
0.0841194
0.0931114
0.0900849
0.0806533
0.0698568
0.0630235
0.0599793
0.0584593
0.0573643
0.0566676
0.0564646
0.0565552
0.0572198
0.0591227
0.062828
0.0683129
0.0743589
0.0796583
0.0845523
93.0651
60.5694
42.784
31.1437
25.3917
19.8627
15.1684
11.655
9.16376
7.3044
5.91074
4.85907
4.05169
3.41862
2.91365
2.48926
2.09324
1.74052
1.43702
1.19611
0.946038
0.697129
0.518515
0.421735
0.378415
0.344834
0.325135
0.298162
0.268463
0.243084
0.217987
0.191908
0.164259
0.131235
0.100202
0.0752141
0.056923
0.0437457
0.0396774
0.0390944
0.0381563
0.0372685
0.041568
0.0486032
0.048844
0.0470887
0.0455546
0.0444777
0.043252
0.0417417
0.040412
0.0396973
0.039205
0.0380531
0.0360118
0.0335329
0.03119
0.0290842
0.0272738
0.0255757
92.8771
59.1115
40.5831
29.6511
22.9788
18.33
14.781
12.1582
10.1321
8.49774
7.15595
6.05699
5.15438
4.411
3.78957
3.00174
2.10506
1.46014
1.08158
0.857246
0.69912
0.576989
0.46005
0.362581
0.320518
0.295116
0.27185
0.251903
0.224275
0.198777
0.179456
0.167835
0.157667
0.144147
0.126356
0.105822
0.0871777
0.0739383
0.0664976
0.0622539
0.0576313
0.0537215
0.0493244
0.0463342
0.0436975
0.0411179
0.0386661
0.0360473
0.0335114
0.0310967
0.0289885
0.0278871
0.0277275
0.0274068
0.0262239
0.0245507
0.0229481
0.0214343
0.0200952
0.0185432
92.8669
59.09
40.4661
29.5797
22.6822
18.1556
14.9688
12.5266
10.5834
9.00911
7.68435
6.55935
5.60267
4.79403
4.12429
3.52183
2.92442
2.3204
1.73979
1.28399
0.928183
0.649204
0.414461
0.261501
0.197443
0.182048
0.175575
0.158232
0.137551
0.118195
0.105065
0.0974391
0.0937656
0.092317
0.091134
0.0877901
0.0822477
0.0771772
0.0722523
0.0660924
0.0599365
0.0558007
0.052785
0.0497082
0.0466722
0.0437777
0.0398375
0.0344676
0.0289869
0.0247354
0.0221013
0.020775
0.0203879
0.0203422
0.020012
0.0191433
0.0180642
0.0170143
0.0156041
0.0149513
92.8679
59.1098
40.564
29.7586
22.8567
18.2622
14.9999
12.5071
10.5323
8.9454
7.6298
6.52086
5.56879
4.7507
4.06434
3.48202
2.91973
2.36605
1.8215
1.29145
0.830826
0.504165
0.290532
0.170936
0.115378
0.0956675
0.0935497
0.0852225
0.074
0.0658682
0.0606595
0.0573587
0.0568306
0.0579822
0.0595512
0.0603443
0.0597567
0.0580262
0.0550609
0.0509805
0.0465543
0.0436704
0.0426542
0.0417042
0.039978
0.0371181
0.0329757
0.0278858
0.0238207
0.021761
0.0206126
0.0195056
0.0187638
0.0183671
0.0178564
0.0169039
0.0156736
0.0146307
0.0136926
0.0128943
92.8682
59.0573
40.6413
29.9133
22.9661
18.1704
14.6677
11.989
9.87847
8.18267
6.80851
5.69351
4.79414
4.06016
3.44847
2.93698
2.52306
2.15144
1.76513
1.32715
0.904399
0.578022
0.343813
0.188385
0.103719
0.0686734
0.058532
0.053733
0.05357
0.0547297
0.0534246
0.0508311
0.0484497
0.0468459
0.0460705
0.0455382
0.044736
0.0432172
0.0409184
0.0378846
0.0349065
0.0331392
0.0325995
0.0324357
0.0319625
0.0310926
0.0299318
0.0285441
0.0271055
0.0257873
0.023991
0.0213287
0.0190901
0.0177509
0.0167927
0.0157691
0.0149314
0.0144551
0.0139848
0.0130539
92.8678
58.978
40.7839
30.1406
23.0637
17.882
13.9211
11.0762
9.09299
7.53974
6.22168
5.12442
4.22531
3.48672
2.83308
2.26838
1.8921
1.62453
1.38909
1.11676
0.831712
0.588951
0.387375
0.214048
0.104307
0.0660004
0.0605145
0.0672482
0.0768736
0.0756302
0.0650559
0.0551463
0.0491643
0.0458751
0.0437156
0.0415236
0.0395265
0.0373074
0.0344915
0.0311613
0.0298749
0.0300079
0.0293426
0.0288939
0.0283513
0.0277662
0.0273356
0.0272246
0.027638
0.0286381
0.0281709
0.0245807
0.020787
0.0183478
0.0167829
0.0156774
0.0155412
0.0167294
0.0200362
0.021079
92.8733
59.1904
41.2682
30.4615
22.626
15.5847
9.65389
6.07038
4.20619
3.15516
2.42193
1.85975
1.44096
1.12899
0.884833
0.720286
0.662197
0.725642
0.787641
0.735973
0.604006
0.455737
0.319834
0.210206
0.139436
0.107758
0.10466
0.113989
0.124323
0.103728
0.0690957
0.0452429
0.03393
0.0298217
0.0287603
0.0285133
0.0280716
0.0272429
0.0260388
0.0247591
0.030804
0.0359765
0.0344685
0.0325966
0.0309943
0.0300669
0.0305415
0.0323593
0.0339928
0.0341514
0.0315632
0.0259614
0.0216273
0.0197539
0.0187606
0.0181249
0.0187836
0.0215914
0.0278932
0.0296071
92.9435
60.8313
43.0845
31.3852
23.2086
17.0636
12.375
8.85758
6.37278
4.63904
3.41184
2.55962
1.97245
1.56748
1.30832
1.03726
0.765506
0.599276
0.559386
0.519099
0.449016
0.368325
0.295205
0.233719
0.190238
0.168021
0.16734
0.18536
0.193463
0.154455
0.103086
0.0689325
0.052043
0.0431198
0.0374218
0.0337518
0.0312424
0.0292958
0.0274352
0.0303801
0.0525286
0.0642691
0.0626603
0.0568153
0.0504012
0.0460202
0.0428046
0.0381296
0.033856
0.0305216
0.0274452
0.0237766
0.0206589
0.0194593
0.0193788
0.0197588
0.0210261
0.023831
0.0298359
0.0360955
72.1251
57.7251
44.6109
32.3625
22.6927
16.8164
13.1103
9.53983
6.21674
4.07187
2.87952
2.16747
1.7316
1.4601
1.30128
0.730304
0.395816
0.329941
0.317828
0.307685
0.29614
0.285486
0.278024
0.272232
0.272825
0.287307
0.306452
0.308751
0.249183
0.173793
0.131812
0.11394
0.106394
0.101041
0.0944332
0.0865672
0.0801197
0.0782596
0.0757596
0.0644271
0.0692004
0.0636401
0.0492175
0.0415722
0.035747
0.032758
0.0296668
0.0276348
0.0270225
0.0269592
0.0265409
0.0257505
0.025234
0.0255533
0.0269438
0.0290712
0.0318215
0.0355667
0.0423126
0.0532518
)
;

boundaryField
{
    wall
    {
        type            epsilonWallFunction;
        value           nonuniform List<scalar> 
1200
(
72.2796
92.9674
92.8729
92.8752
92.8706
92.8679
92.8698
92.89
93.3806
72.1482
56.491
59.9684
59.1352
59.1208
59.1125
59.0543
58.9255
59.2784
62.1699
57.6943
44.097
42.4318
40.6225
40.4872
40.5624
40.6323
40.7662
41.4165
44.0874
44.2828
34.3508
31.0706
29.688
29.588
29.7631
29.9293
30.1551
30.5591
31.8052
31.9465
26.827
25.3116
23.0009
22.6906
22.8688
23.0078
23.1072
22.7657
23.4471
22.3728
17.7248
19.4545
18.2289
18.1377
18.2796
18.2332
17.9516
15.8518
17.3284
16.622
13.7188
14.7624
14.6567
14.9522
15.0291
14.7463
13.9812
9.92802
12.654
12.9681
9.60151
11.3173
12.0417
12.5327
12.548
12.0758
11.0771
6.24176
9.0972
9.3652
6.31224
8.89886
10.0241
10.6011
10.5765
9.97345
9.05373
4.29287
6.54504
6.02206
4.34964
7.09851
8.39586
9.01337
8.97927
8.28274
7.54193
3.19196
4.75522
3.91546
3.3003
5.75455
7.05683
7.64969
7.62675
6.91041
6.25031
2.45711
3.49394
2.77044
2.70516
4.73856
5.96
6.48996
6.47565
5.7888
5.16364
1.90335
2.61726
2.09182
2.33161
3.95569
5.05965
5.50659
5.4852
4.87649
4.26642
1.48673
2.01254
1.67714
2.07555
3.33956
4.31905
4.68075
4.63921
4.13005
3.52872
1.17483
1.59278
1.41864
1.88462
2.84567
3.70981
4.00859
3.94197
3.50809
2.89189
0.928469
1.31411
1.27321
1.73707
2.44031
3.09301
3.45884
3.40319
2.98695
2.33979
0.749281
1.06219
0.795629
1.62847
2.08099
2.30202
2.93444
2.92249
2.56374
1.94859
0.682043
0.793892
0.423954
1.55847
1.75957
1.60465
2.38199
2.41742
2.18652
1.66437
0.73098
0.614021
0.336531
1.51885
1.47397
1.16243
1.81293
1.88042
1.79898
1.41928
0.789754
0.563318
0.320889
1.44002
1.24618
0.906255
1.34559
1.35592
1.37213
1.15045
0.747298
0.524639
0.311303
1.22575
1.01575
0.732619
0.982897
0.896318
0.955935
0.86949
0.624174
0.459122
0.300794
0.876546
0.763776
0.601912
0.700406
0.558295
0.624644
0.62498
0.479301
0.381167
0.290942
0.633843
0.566336
0.484858
0.460123
0.327583
0.381122
0.420061
0.342893
0.308557
0.284071
0.557057
0.456171
0.386571
0.295644
0.194714
0.214353
0.241106
0.229497
0.246063
0.278505
0.499954
0.380762
0.340996
0.221286
0.130301
0.118545
0.118463
0.152179
0.199966
0.278361
0.443071
0.339831
0.297821
0.200955
0.105085
0.0755051
0.0703734
0.113906
0.174416
0.29138
0.354611
0.317562
0.266602
0.189627
0.0999304
0.061582
0.0608899
0.104979
0.171353
0.307659
0.244349
0.287493
0.250667
0.16894
0.0900478
0.0551204
0.0657381
0.113355
0.19006
0.298657
0.164978
0.256593
0.228552
0.145669
0.0773567
0.0538991
0.0762529
0.122735
0.188631
0.226264
0.125437
0.2318
0.204701
0.12366
0.0678522
0.0545157
0.0731731
0.0966308
0.140482
0.155392
0.104379
0.20748
0.184928
0.108727
0.0618091
0.0525645
0.0618707
0.0617602
0.0904027
0.121224
0.0910651
0.182156
0.172048
0.100446
0.0579899
0.0498481
0.0526101
0.0406684
0.0616744
0.108131
0.0813261
0.155053
0.158219
0.0964508
0.0572548
0.0478516
0.0474194
0.0316615
0.0484248
0.102738
0.0726219
0.122003
0.140878
0.0946236
0.058334
0.0467816
0.0444587
0.0288864
0.0411522
0.0978471
0.0673947
0.0914884
0.120614
0.0924821
0.0600098
0.0463665
0.0426839
0.0283359
0.0363494
0.0910187
0.0643929
0.0679587
0.0988938
0.0871854
0.0607311
0.0461047
0.0412408
0.0283789
0.0331013
0.0830509
0.063694
0.0515316
0.0803536
0.0804175
0.0598043
0.0453886
0.0397024
0.0283094
0.0307743
0.0765784
0.0648916
0.0406353
0.0679247
0.0751196
0.0579248
0.0438459
0.0378032
0.0276783
0.0288841
0.0742362
0.0657959
0.0383616
0.0614711
0.0712847
0.0552108
0.0414613
0.0352265
0.0264056
0.0270655
0.07117
0.067622
0.038713
0.058178
0.0662908
0.0515335
0.0384136
0.0318819
0.0253236
0.0310316
0.0617478
0.0724696
0.0377162
0.0554535
0.0607933
0.0472641
0.0353255
0.0302084
0.0315991
0.0544237
0.0690367
0.0855147
0.0366509
0.0521296
0.056799
0.0443527
0.0333819
0.0300353
0.0368052
0.0654639
0.0630512
0.0932735
0.0458949
0.0482985
0.0533404
0.0431155
0.0328133
0.0292696
0.0350057
0.0638862
0.0489429
0.0886961
0.052275
0.0456171
0.0495178
0.0417116
0.0326758
0.0288522
0.0329776
0.0577566
0.0414727
0.0785742
0.0511074
0.0429966
0.0459447
0.0394802
0.0321416
0.0284095
0.0313325
0.0510689
0.0355918
0.0682939
0.0488547
0.0404605
0.0427745
0.0361691
0.0311849
0.0279299
0.0305814
0.0466273
0.0325069
0.0623734
0.0469364
0.0381195
0.0386555
0.0316564
0.0298792
0.0276847
0.0314312
0.0431549
0.0293269
0.0597723
0.0457231
0.0358282
0.0332442
0.0266006
0.0283784
0.0277723
0.0335095
0.0378971
0.0272706
0.0583399
0.044367
0.0336436
0.0280001
0.0230095
0.0269509
0.0282262
0.0350661
0.0334503
0.0266588
0.0571718
0.0426941
0.0313377
0.0241181
0.0214222
0.0256497
0.0292123
0.0348215
0.0301044
0.0266185
0.0563411
0.0412868
0.0292569
0.0218094
0.0204354
0.0237379
0.0282973
0.0313463
0.0270472
0.0262958
0.0559548
0.0405296
0.0282587
0.0207253
0.0194013
0.0210077
0.0242037
0.0253128
0.0232385
0.0257062
0.0558767
0.0398602
0.0281363
0.0205044
0.0187706
0.018893
0.0204357
0.0212725
0.0203417
0.025292
0.0565489
0.0383636
0.0276265
0.0204977
0.0184426
0.0176857
0.0181758
0.0197027
0.0194324
0.0257105
0.0586843
0.0359519
0.0261643
0.020104
0.0178883
0.0167669
0.0167196
0.0188544
0.019552
0.0272164
0.0628182
0.0332403
0.0243411
0.0191157
0.0168492
0.015725
0.0156764
0.0183206
0.0200814
0.0294787
0.0687961
0.0308191
0.0226938
0.0179845
0.0155654
0.014945
0.0157074
0.01919
0.0215325
0.0324029
0.0749963
0.0286655
0.0211536
0.0169476
0.0145281
0.0146003
0.0171683
0.0222637
0.0245575
0.0363636
0.0801567
0.0268512
0.0197202
0.0156993
0.0136353
0.0143158
0.0208247
0.0288202
0.0308827
0.0434076
0.0843993
0.0251858
0.0185857
0.0148791
0.0128436
0.0132031
0.0217711
0.0300933
0.0371207
0.0545816
72.3583
93.0651
92.8771
92.8669
92.8679
92.8682
92.8678
92.8733
92.9435
72.1251
56.4869
60.5694
59.1115
59.09
59.1098
59.0573
58.978
59.1904
60.8313
57.7251
43.7646
42.784
40.5831
40.4661
40.564
40.6413
40.7839
41.2682
43.0845
44.6109
33.8639
31.1437
29.6511
29.5797
29.7586
29.9133
30.1406
30.4615
31.3852
32.3625
27.4737
25.3917
22.9788
22.6822
22.8567
22.9661
23.0637
22.626
23.2086
22.6927
18.2262
19.8627
18.33
18.1556
18.2622
18.1704
17.882
15.5847
17.0636
16.8164
13.9023
15.1684
14.781
14.9688
14.9999
14.6677
13.9211
9.65389
12.375
13.1103
9.79269
11.655
12.1582
12.5266
12.5071
11.989
11.0762
6.07038
8.85758
9.53983
6.49821
9.16376
10.1321
10.5834
10.5323
9.87847
9.09299
4.20619
6.37278
6.21674
4.49471
7.3044
8.49774
9.00911
8.9454
8.18267
7.53974
3.15516
4.63904
4.07187
3.40398
5.91074
7.15595
7.68435
7.6298
6.80851
6.22168
2.42193
3.41184
2.87952
2.77952
4.85907
6.05699
6.55935
6.52086
5.69351
5.12442
1.85975
2.55962
2.16747
2.38677
4.05169
5.15438
5.60267
5.56879
4.79414
4.22531
1.44096
1.97245
1.7316
2.11785
3.41862
4.411
4.79403
4.7507
4.06016
3.48672
1.12899
1.56748
1.4601
1.91831
2.91365
3.78957
4.12429
4.06434
3.44847
2.83308
0.884833
1.30832
1.30128
1.76459
2.48926
3.00174
3.52183
3.48202
2.93698
2.26838
0.720286
1.03726
0.730304
1.65081
2.09324
2.10506
2.92442
2.91973
2.52306
1.8921
0.662197
0.765506
0.395816
1.57773
1.74052
1.46014
2.3204
2.36605
2.15144
1.62453
0.725642
0.599276
0.329941
1.52366
1.43702
1.08158
1.73979
1.8215
1.76513
1.38909
0.787641
0.559386
0.317828
1.39682
1.19611
0.857246
1.28399
1.29145
1.32715
1.11676
0.735973
0.519099
0.307685
1.12615
0.946038
0.69912
0.928183
0.830826
0.904399
0.831712
0.604006
0.449016
0.29614
0.781651
0.697129
0.576989
0.649204
0.504165
0.578022
0.588951
0.455737
0.368325
0.285486
0.573577
0.518515
0.46005
0.414461
0.290532
0.343813
0.387375
0.319834
0.295205
0.278024
0.513414
0.421735
0.362581
0.261501
0.170936
0.188385
0.214048
0.210206
0.233719
0.272232
0.504129
0.378415
0.320518
0.197443
0.115378
0.103719
0.104307
0.139436
0.190238
0.272825
0.461835
0.344834
0.295116
0.182048
0.0956675
0.0686734
0.0660004
0.107758
0.168021
0.287307
0.379739
0.325135
0.27185
0.175575
0.0935497
0.058532
0.0605145
0.10466
0.16734
0.306452
0.271146
0.298162
0.251903
0.158232
0.0852225
0.053733
0.0672482
0.113989
0.18536
0.308751
0.187136
0.268463
0.224275
0.137551
0.074
0.05357
0.0768736
0.124323
0.193463
0.249183
0.141155
0.243084
0.198777
0.118195
0.0658682
0.0547297
0.0756302
0.103728
0.154455
0.173793
0.114873
0.217987
0.179456
0.105065
0.0606595
0.0534246
0.0650559
0.0690957
0.103086
0.131812
0.098195
0.191908
0.167835
0.0974391
0.0573587
0.0508311
0.0551463
0.0452429
0.0689325
0.11394
0.0865551
0.164259
0.157667
0.0937656
0.0568306
0.0484497
0.0491643
0.03393
0.052043
0.106394
0.0768648
0.131235
0.144147
0.092317
0.0579822
0.0468459
0.0458751
0.0298217
0.0431198
0.101041
0.0711157
0.100202
0.126356
0.091134
0.0595512
0.0460705
0.0437156
0.0287603
0.0374218
0.0944332
0.0676436
0.0752141
0.105822
0.0877901
0.0603443
0.0455382
0.0415236
0.0285133
0.0337518
0.0865672
0.0664321
0.056923
0.0871777
0.0822477
0.0597567
0.044736
0.0395265
0.0280716
0.0312424
0.0801197
0.0666839
0.0437457
0.0739383
0.0771772
0.0580262
0.0432172
0.0373074
0.0272429
0.0292958
0.0782596
0.0672538
0.0396774
0.0664976
0.0722523
0.0550609
0.0409184
0.0344915
0.0260388
0.0274352
0.0757596
0.0685489
0.0390944
0.0622539
0.0660924
0.0509805
0.0378846
0.0311613
0.0247591
0.0303801
0.0644271
0.0719929
0.0381563
0.0576313
0.0599365
0.0465543
0.0349065
0.0298749
0.030804
0.0525286
0.0692004
0.0841194
0.0372685
0.0537215
0.0558007
0.0436704
0.0331392
0.0300079
0.0359765
0.0642691
0.0636401
0.0931114
0.041568
0.0493244
0.052785
0.0426542
0.0325995
0.0293426
0.0344685
0.0626603
0.0492175
0.0900849
0.0486032
0.0463342
0.0497082
0.0417042
0.0324357
0.0288939
0.0325966
0.0568153
0.0415722
0.0806533
0.048844
0.0436975
0.0466722
0.039978
0.0319625
0.0283513
0.0309943
0.0504012
0.035747
0.0698568
0.0470887
0.0411179
0.0437777
0.0371181
0.0310926
0.0277662
0.0300669
0.0460202
0.032758
0.0630235
0.0455546
0.0386661
0.0398375
0.0329757
0.0299318
0.0273356
0.0305415
0.0428046
0.0296668
0.0599793
0.0444777
0.0360473
0.0344676
0.0278858
0.0285441
0.0272246
0.0323593
0.0381296
0.0276348
0.0584593
0.043252
0.0335114
0.0289869
0.0238207
0.0271055
0.027638
0.0339928
0.033856
0.0270225
0.0573643
0.0417417
0.0310967
0.0247354
0.021761
0.0257873
0.0286381
0.0341514
0.0305216
0.0269592
0.0566676
0.040412
0.0289885
0.0221013
0.0206126
0.023991
0.0281709
0.0315632
0.0274452
0.0265409
0.0564646
0.0396973
0.0278871
0.020775
0.0195056
0.0213287
0.0245807
0.0259614
0.0237766
0.0257505
0.0565552
0.039205
0.0277275
0.0203879
0.0187638
0.0190901
0.020787
0.0216273
0.0206589
0.025234
0.0572198
0.0380531
0.0274068
0.0203422
0.0183671
0.0177509
0.0183478
0.0197539
0.0194593
0.0255533
0.0591227
0.0360118
0.0262239
0.020012
0.0178564
0.0167927
0.0167829
0.0187606
0.0193788
0.0269438
0.062828
0.0335329
0.0245507
0.0191433
0.0169039
0.0157691
0.0156774
0.0181249
0.0197588
0.0290712
0.0683129
0.03119
0.0229481
0.0180642
0.0156736
0.0149314
0.0155412
0.0187836
0.0210261
0.0318215
0.0743589
0.0290842
0.0214343
0.0170143
0.0146307
0.0144551
0.0167294
0.0215914
0.023831
0.0355667
0.0796583
0.0272738
0.0200952
0.0156041
0.0136926
0.0139848
0.0200362
0.0278932
0.0298359
0.0423126
0.0845523
0.0255757
0.0185432
0.0149513
0.0128943
0.0130539
0.021079
0.0296071
0.0360955
0.0532518
)
;
    }
    inlet
    {
        type            turbulentMixingLengthDissipationRateInlet;
        mixingLength    0.071;
        phi             phi;
        k               k;
        value           uniform 2.17686;
    }
    outlet
    {
        type            inletOutlet;
        inletValue      uniform 0.0001;
        value           nonuniform List<scalar> 
20
(
0.0843993
0.0251858
0.0185857
0.0148791
0.0128436
0.0132031
0.0217711
0.0300933
0.0371207
0.0545816
0.0845523
0.0255757
0.0185432
0.0149513
0.0128943
0.0130539
0.021079
0.0296071
0.0360955
0.0532518
)
;
    }
    heatWall
    {
        type            epsilonWallFunction;
        value           nonuniform List<scalar> 
240
(
72.1482
72.1251
57.6943
57.7251
44.2828
44.6109
31.9465
32.3625
22.3728
22.6927
16.622
16.8164
12.9681
13.1103
9.3652
9.53983
6.02206
6.21674
3.91546
4.07187
2.77044
2.87952
2.09182
2.16747
1.67714
1.7316
1.41864
1.4601
1.27321
1.30128
0.795629
0.730304
0.423954
0.395816
0.336531
0.329941
0.320889
0.317828
0.311303
0.307685
0.300794
0.29614
0.290942
0.285486
0.284071
0.278024
0.278505
0.272232
0.278361
0.272825
0.29138
0.287307
0.307659
0.306452
0.298657
0.308751
0.226264
0.249183
0.155392
0.173793
0.121224
0.131812
0.108131
0.11394
0.102738
0.106394
0.0978471
0.101041
0.0910187
0.0944332
0.0830509
0.0865672
0.0765784
0.0801197
0.0742362
0.0782596
0.07117
0.0757596
0.0617478
0.0644271
0.0690367
0.0692004
0.0630512
0.0636401
0.0489429
0.0492175
0.0414727
0.0415722
0.0355918
0.035747
0.0325069
0.032758
0.0293269
0.0296668
0.0272706
0.0276348
0.0266588
0.0270225
0.0266185
0.0269592
0.0262958
0.0265409
0.0257062
0.0257505
0.025292
0.025234
0.0257105
0.0255533
0.0272164
0.0269438
0.0294787
0.0290712
0.0324029
0.0318215
0.0363636
0.0355667
0.0434076
0.0423126
0.0545816
0.0532518
72.2796
72.3583
56.491
56.4869
44.097
43.7646
34.3508
33.8639
26.827
27.4737
17.7248
18.2262
13.7188
13.9023
9.60151
9.79269
6.31224
6.49821
4.34964
4.49471
3.3003
3.40398
2.70516
2.77952
2.33161
2.38677
2.07555
2.11785
1.88462
1.91831
1.73707
1.76459
1.62847
1.65081
1.55847
1.57773
1.51885
1.52366
1.44002
1.39682
1.22575
1.12615
0.876546
0.781651
0.633843
0.573577
0.557057
0.513414
0.499954
0.504129
0.443071
0.461835
0.354611
0.379739
0.244349
0.271146
0.164978
0.187136
0.125437
0.141155
0.104379
0.114873
0.0910651
0.098195
0.0813261
0.0865551
0.0726219
0.0768648
0.0673947
0.0711157
0.0643929
0.0676436
0.063694
0.0664321
0.0648916
0.0666839
0.0657959
0.0672538
0.067622
0.0685489
0.0724696
0.0719929
0.0855147
0.0841194
0.0932735
0.0931114
0.0886961
0.0900849
0.0785742
0.0806533
0.0682939
0.0698568
0.0623734
0.0630235
0.0597723
0.0599793
0.0583399
0.0584593
0.0571718
0.0573643
0.0563411
0.0566676
0.0559548
0.0564646
0.0558767
0.0565552
0.0565489
0.0572198
0.0586843
0.0591227
0.0628182
0.062828
0.0687961
0.0683129
0.0749963
0.0743589
0.0801567
0.0796583
0.0843993
0.0845523
)
;
    }
}


// ************************************************************************* //
