/*--------------------------------*- C++ -*----------------------------------*\
  =========                 |
  \\      /  F ield         | OpenFOAM: The Open Source CFD Toolbox
   \\    /   O peration     | Website:  https://openfoam.org
    \\  /    A nd           | Version:  8
     \\/     M anipulation  |
\*---------------------------------------------------------------------------*/
FoamFile
{
    version     2.0;
    format      ascii;
    class       volScalarField;
    location    "100";
    object      T;
}
// * * * * * * * * * * * * * * * * * * * * * * * * * * * * * * * * * * * * * //

dimensions      [0 0 0 1 0 0 0];

internalField   nonuniform List<scalar> 
1200
(
303.146
302.865
301.868
301.116
300.387
298.816
297.79
296.518
295.805
295.614
295.739
295.922
296.069
296.167
296.188
296.125
296.054
296.046
295.887
295.471
294.83
294.288
294.007
293.908
293.78
293.621
293.481
293.4
293.371
293.365
293.367
293.372
293.384
293.419
293.461
293.501
293.528
293.541
293.56
293.611
293.737
294.127
294.785
295.206
295.306
295.296
295.405
295.651
295.953
296.302
296.732
297.22
297.706
298.129
298.478
298.76
298.978
299.137
299.235
299.285
303.149
303.123
302.97
302.495
301.536
300.74
300.46
300.486
300.605
300.778
300.961
301.09
301.149
301.135
301.024
300.756
300.311
299.636
298.451
297.195
296.043
295.086
294.487
294.222
294.05
293.849
293.669
293.559
293.506
293.478
293.452
293.429
293.417
293.457
293.561
293.678
293.776
293.853
293.851
293.816
293.811
293.856
294.019
294.189
294.234
294.248
294.25
294.288
294.396
294.587
294.869
295.274
295.861
296.595
297.343
297.98
298.431
298.729
298.878
298.97
303.149
303.144
303.118
303.016
302.643
302.333
302.354
302.448
302.525
302.59
302.632
302.635
302.599
302.527
302.354
300.94
298.297
296.42
295.578
295.186
294.889
294.612
294.301
294.044
293.977
293.857
293.732
293.683
293.626
293.572
293.535
293.519
293.49
293.463
293.472
293.528
293.598
293.643
293.65
293.637
293.627
293.639
293.705
293.799
293.866
293.903
293.935
294.062
294.346
294.766
295.213
295.63
296.176
296.967
297.826
298.491
298.864
299.051
299.131
299.359
303.149
303.146
303.145
303.136
303.056
302.97
302.976
302.991
303.004
303.016
303.028
303.033
303.021
302.987
302.945
302.864
302.508
301.5
299.468
297.408
295.872
294.856
294.147
293.743
293.591
293.576
293.567
293.516
293.461
293.417
293.393
293.384
293.384
293.388
293.397
293.413
293.435
293.448
293.45
293.449
293.451
293.458
293.488
293.538
293.58
293.603
293.703
294.049
294.642
295.395
296.16
296.806
297.391
298.025
298.623
299.057
299.248
299.294
299.507
299.777
303.149
303.146
303.143
303.142
303.136
303.129
303.131
303.134
303.138
303.141
303.146
303.147
303.137
303.109
303.071
303.042
302.934
302.264
300.209
297.665
295.718
294.543
293.866
293.538
293.408
293.371
293.373
293.356
293.335
293.325
293.322
293.321
293.325
293.333
293.342
293.353
293.364
293.371
293.374
293.382
293.407
293.43
293.447
293.478
293.532
293.68
294.089
294.768
295.489
296.246
297.101
297.884
298.442
298.833
299.159
299.418
299.589
299.659
299.703
299.734
303.148
303.143
303.135
303.13
303.124
303.1
303.064
303.059
303.08
303.101
303.115
303.119
303.118
303.112
303.095
303.049
302.933
302.36
300.45
297.955
295.957
294.703
293.968
293.568
293.385
293.318
293.301
293.3
293.304
293.314
293.324
293.33
293.329
293.329
293.331
293.336
293.342
293.351
293.365
293.406
293.491
293.574
293.603
293.609
293.639
293.703
293.849
294.149
294.66
295.528
296.794
298.015
298.768
299.154
299.395
299.581
299.718
299.792
299.83
299.836
303.148
303.134
303.107
303.09
303.014
302.737
302.36
302.191
302.266
302.361
302.227
301.853
301.251
300.395
299.199
298.016
297.636
297.868
297.645
296.628
295.493
294.631
294.025
293.606
293.384
293.32
293.314
293.322
293.331
293.351
293.375
293.393
293.396
293.391
293.385
293.381
293.38
293.386
293.404
293.462
293.601
293.731
293.784
293.801
293.814
293.856
293.954
294.105
294.297
294.794
296.187
297.879
298.913
299.355
299.557
299.682
299.77
299.833
299.881
299.91
303.148
303.101
303.032
302.984
302.596
301
298.923
297.522
296.735
296.231
295.784
295.351
294.984
294.672
294.351
294.129
294.363
295.162
295.614
295.309
294.727
294.202
293.81
293.549
293.404
293.346
293.337
293.35
293.36
293.387
293.439
293.481
293.496
293.493
293.482
293.471
293.462
293.459
293.462
293.485
293.707
293.956
293.99
294.006
294.026
294.104
294.248
294.474
294.847
295.492
296.611
297.991
298.952
299.386
299.576
299.673
299.736
299.801
299.854
299.908
303.147
302.98
302.816
302.707
302.245
301.481
300.518
299.506
298.571
297.661
296.78
296.052
295.519
295.14
294.806
294.445
294.275
294.516
294.69
294.531
294.23
293.942
293.727
293.576
293.485
293.446
293.433
293.423
293.404
293.407
293.428
293.453
293.473
293.488
293.497
293.502
293.503
293.505
293.511
293.59
294.159
294.698
294.781
294.722
294.641
294.638
294.95
295.554
295.998
296.343
296.808
297.588
298.403
298.928
299.215
299.378
299.487
299.583
299.676
299.786
303.12
302.249
301.109
300.324
299.596
298.889
298.008
296.718
295.559
294.964
294.68
294.466
294.296
294.187
294.151
293.949
293.95
293.989
293.937
293.834
293.718
293.618
293.55
293.499
293.465
293.453
293.438
293.412
293.403
293.413
293.425
293.436
293.448
293.462
293.48
293.501
293.522
293.535
293.543
293.727
294.737
295.653
295.591
295.542
295.648
296.061
296.503
296.774
296.916
297.004
297.128
297.427
297.839
298.173
298.392
298.531
298.635
298.733
298.839
298.978
303.146
302.82
301.766
301.016
300.53
298.916
297.839
296.578
295.864
295.669
295.791
295.984
296.15
296.271
296.324
296.299
296.239
296.184
295.858
295.249
294.591
294.157
293.937
293.858
293.797
293.655
293.512
293.419
293.38
293.369
293.369
293.372
293.383
293.412
293.451
293.49
293.52
293.537
293.555
293.602
293.716
294.073
294.707
295.153
295.29
295.284
295.372
295.598
295.886
296.223
296.64
297.122
297.609
298.038
298.394
298.683
298.91
299.078
299.183
299.241
303.149
303.119
302.971
302.582
301.69
300.825
300.489
300.497
300.609
300.768
300.946
301.093
301.185
301.213
301.129
300.766
300.12
299.204
297.759
296.476
295.456
294.72
294.288
294.091
294.036
293.894
293.725
293.609
293.549
293.515
293.482
293.45
293.429
293.452
293.536
293.644
293.744
293.83
293.842
293.815
293.822
293.885
293.977
294.138
294.2
294.22
294.228
294.263
294.365
294.551
294.824
295.199
295.735
296.418
297.141
297.784
298.257
298.579
298.745
298.856
303.149
303.145
303.124
303.046
302.713
302.359
302.339
302.42
302.494
302.561
302.614
302.639
302.633
302.585
302.285
299.99
297.288
295.894
295.338
295.043
294.783
294.515
294.201
293.951
293.889
293.849
293.768
293.704
293.617
293.552
293.514
293.501
293.488
293.47
293.472
293.513
293.574
293.62
293.633
293.625
293.625
293.65
293.715
293.798
293.862
293.899
293.921
294.023
294.288
294.704
295.166
295.593
296.102
296.825
297.646
298.322
298.727
298.94
299.03
299.426
303.149
303.146
303.145
303.14
303.071
302.982
302.984
302.997
303.008
303.016
303.025
303.032
303.03
303.014
302.991
302.9
302.481
301.242
299.021
296.989
295.547
294.617
293.984
293.641
293.521
293.517
293.526
293.485
293.436
293.4
293.381
293.375
293.377
293.382
293.392
293.409
293.43
293.444
293.447
293.448
293.454
293.464
293.496
293.542
293.581
293.6
293.678
293.978
294.536
295.279
296.061
296.734
297.314
297.916
298.508
298.956
299.169
299.232
299.579
299.826
303.149
303.146
303.143
303.142
303.137
303.132
303.135
303.139
303.142
303.145
303.147
303.148
303.144
303.129
303.106
303.072
302.911
302.063
299.799
297.227
295.377
294.319
293.74
293.472
293.372
293.348
293.357
293.343
293.327
293.32
293.319
293.32
293.324
293.332
293.342
293.352
293.362
293.369
293.373
293.386
293.419
293.448
293.462
293.483
293.52
293.627
293.963
294.592
295.326
296.104
296.973
297.787
298.374
298.777
299.101
299.365
299.543
299.617
299.673
299.732
303.149
303.143
303.136
303.133
303.127
303.104
303.074
303.078
303.1
303.116
303.122
303.121
303.117
303.108
303.085
303.021
302.869
302.169
300.073
297.54
295.629
294.485
293.836
293.497
293.353
293.305
293.296
293.299
293.305
293.314
293.325
293.332
293.331
293.329
293.332
293.337
293.344
293.355
293.372
293.423
293.524
293.616
293.645
293.647
293.656
293.69
293.793
294.047
294.519
295.342
296.582
297.848
298.669
299.096
299.354
299.548
299.693
299.772
299.813
299.83
303.148
303.135
303.112
303.095
303.014
302.731
302.386
302.287
302.389
302.399
302.169
301.686
300.97
299.997
298.687
297.533
297.33
297.715
297.468
296.396
295.275
294.464
293.908
293.534
293.355
293.313
293.314
293.323
293.332
293.35
293.374
293.392
293.397
293.392
293.386
293.383
293.384
293.392
293.414
293.489
293.649
293.788
293.848
293.867
293.875
293.888
293.94
294.058
294.24
294.687
295.954
297.655
298.786
299.295
299.525
299.662
299.757
299.824
299.875
299.905
303.148
303.109
303.05
302.99
302.541
300.834
298.751
297.405
296.656
296.174
295.698
295.235
294.854
294.532
294.211
294.05
294.345
295.199
295.586
295.204
294.602
294.094
293.73
293.497
293.375
293.333
293.332
293.346
293.36
293.384
293.431
293.474
293.493
293.492
293.483
293.473
293.466
293.464
293.466
293.499
293.715
293.943
293.977
293.997
294.016
294.074
294.202
294.415
294.772
295.359
296.399
297.797
298.844
299.334
299.551
299.66
299.73
299.796
299.85
299.905
303.148
303.024
302.881
302.699
302.163
301.345
300.349
299.343
298.426
297.522
296.641
295.923
295.406
295.044
294.698
294.356
294.243
294.538
294.677
294.473
294.156
293.873
293.671
293.535
293.456
293.425
293.416
293.414
293.406
293.408
293.425
293.449
293.47
293.485
293.495
293.5
293.502
293.504
293.509
293.572
294.094
294.654
294.751
294.703
294.626
294.618
294.894
295.469
295.912
296.254
296.688
297.459
298.311
298.874
299.185
299.361
299.479
299.578
299.67
299.777
303.123
302.299
301.161
300.36
299.634
298.927
298.054
296.785
295.632
295.023
294.728
294.512
294.339
294.226
294.179
293.923
293.951
293.984
293.915
293.8
293.681
293.584
293.521
293.474
293.444
293.436
293.432
293.417
293.406
293.413
293.424
293.435
293.446
293.46
293.476
293.496
293.516
293.529
293.538
293.704
294.659
295.623
295.587
295.525
295.619
296.024
296.465
296.745
296.898
296.986
297.094
297.379
297.8
298.15
298.38
298.526
298.637
298.738
298.844
298.972
)
;

boundaryField
{
    wall
    {
        type            zeroGradient;
    }
    inlet
    {
        type            fixedValue;
        value           uniform 303.15;
    }
    outlet
    {
        type            inletOutlet;
        inletValue      uniform 300;
        value           nonuniform List<scalar> 
20
(
299.299
299.003
299.414
299.802
299.744
299.842
299.911
299.909
299.789
298.981
299.254
298.886
299.484
299.844
299.741
299.834
299.907
299.906
299.78
298.974
)
;
    }
    heatWall
    {
        type            fixedGradient;
        gradient        uniform -500;
    }
}


// ************************************************************************* //
