/*--------------------------------*- C++ -*----------------------------------*\
  =========                 |
  \\      /  F ield         | OpenFOAM: The Open Source CFD Toolbox
   \\    /   O peration     | Website:  https://openfoam.org
    \\  /    A nd           | Version:  8
     \\/     M anipulation  |
\*---------------------------------------------------------------------------*/
FoamFile
{
    version     2.0;
    format      ascii;
    class       volVectorField;
    location    "100";
    object      U;
}
// * * * * * * * * * * * * * * * * * * * * * * * * * * * * * * * * * * * * * //

dimensions      [0 1 -1 0 0 0 0];

internalField   nonuniform List<vector> 
1200
(
(16.0505 -0.990263 -3.66405)
(16.8033 -0.168815 -6.33065)
(17.7657 0.239369 -11.4776)
(17.9231 -0.214944 -8.90801)
(18.5031 1.30393 3.10276)
(16.8258 0.859612 21.0224)
(15.7094 -1.27116 28.4131)
(14.2859 -2.38227 23.4946)
(13.1943 -2.52561 16.7387)
(12.4246 -2.26174 11.9268)
(12.0917 -1.92181 8.35554)
(12.0058 -1.59438 6.08308)
(12.0832 -1.33294 4.59526)
(12.2508 -1.1397 3.54292)
(12.5575 -0.999728 2.86201)
(13.0497 -0.886702 2.28367)
(13.5587 -0.793635 1.48642)
(13.84 -0.716197 0.465824)
(13.8577 -0.593908 -0.317375)
(13.9258 -0.433999 -0.607346)
(14.2166 -0.38271 -1.54104)
(14.8082 -0.483611 -3.41665)
(15.8668 -0.513604 -4.06965)
(16.9212 -0.432163 -1.79987)
(18.0374 -0.20992 3.00059)
(18.6343 0.236142 4.81344)
(17.8941 0.763536 5.82661)
(15.9348 0.834945 6.03916)
(13.8629 0.296266 4.90359)
(12.5609 -0.270257 3.54798)
(11.8994 -0.519317 3.09426)
(11.5356 -0.608748 3.06516)
(11.3648 -0.723382 3.13908)
(11.5922 -0.90071 3.31303)
(12.0574 -0.872777 2.57332)
(12.3886 -0.729112 2.09983)
(12.5685 -0.657518 1.57674)
(12.5384 -0.498773 2.10378)
(11.8391 -0.107358 2.90574)
(11.1772 0.0432818 3.63129)
(11.6985 0.0906919 3.99674)
(12.9056 0.566668 5.74369)
(12.3141 1.07775 7.20416)
(10.4207 0.464416 6.8787)
(8.5555 -0.444206 5.63583)
(8.02348 -0.898919 4.89522)
(8.74084 -0.936816 5.3669)
(10.0876 -0.786636 6.07202)
(11.5597 -0.622869 6.28291)
(13.1045 -0.514893 6.49983)
(14.6094 -0.441557 6.79078)
(15.7225 -0.380063 6.85923)
(16.3146 -0.371075 6.74667)
(16.604 -0.393425 6.26398)
(16.8817 -0.391037 5.59116)
(17.2196 -0.353025 4.93947)
(17.4979 -0.295317 4.28066)
(17.689 -0.260681 3.60498)
(17.884 -0.235681 2.58)
(18.1025 -0.228178 1.50441)
(15.9807 0.356148 -0.995857)
(16.5535 0.728235 1.27799)
(18.2997 0.876224 2.53764)
(19.7294 0.780129 5.05676)
(21.1321 2.38818 6.02057)
(22.5701 2.93085 8.06553)
(22.7587 2.42829 6.62959)
(21.8903 2.0603 4.26809)
(20.7673 1.56876 3.00025)
(19.6548 1.0652 2.59436)
(18.7832 0.612184 2.20119)
(18.1468 0.344358 1.75251)
(17.6763 0.18318 1.33052)
(17.2623 0.0807537 0.968183)
(16.9171 -0.00994098 0.702395)
(16.853 -0.117993 0.364309)
(17.0526 -0.118355 -0.193594)
(17.1577 0.069657 -0.843958)
(16.9706 0.424867 -1.31713)
(16.7435 0.668854 -1.17618)
(16.7612 0.678703 -1.422)
(17.0711 0.339875 -2.28205)
(17.6236 -0.0950847 -2.8155)
(18.33 -0.178914 -1.68259)
(18.9782 0.121437 1.63647)
(19.3032 0.479987 2.75539)
(19.3797 0.975946 2.97757)
(19.4767 1.09042 2.15527)
(19.7515 0.741188 1.25628)
(20.1835 0.326585 0.912361)
(20.3769 0.167958 1.33287)
(20.2378 0.171668 2.04774)
(19.5301 0.191829 2.79257)
(17.9607 0.19014 3.85389)
(15.8869 0.110002 3.66917)
(13.5179 0.0333506 3.13115)
(11.2141 0.0991152 2.56558)
(8.75639 0.373302 2.54475)
(7.90413 0.388292 1.81647)
(8.34488 0.104482 0.70712)
(9.52817 -0.202582 -0.285409)
(10.6459 -0.191409 -0.308322)
(12.1846 0.437733 0.642688)
(13.4823 0.686649 0.997283)
(14.0563 0.489031 0.751338)
(13.8715 0.0904158 0.801075)
(13.5568 -0.379744 1.66315)
(13.7055 -0.755249 2.87888)
(14.3261 -0.947863 3.50674)
(15.4122 -1.03579 4.06111)
(16.8548 -0.957827 4.65892)
(18.1178 -0.656796 4.84194)
(18.7632 -0.353212 4.83409)
(18.7459 -0.244588 4.62271)
(18.3549 -0.261287 4.25366)
(17.8379 -0.266362 3.76918)
(17.2476 -0.19217 2.9738)
(16.6368 -0.106746 2.20281)
(16.1321 -0.154087 1.03492)
(15.8941 -0.296656 0.35015)
(16.0495 -0.268553 0.330325)
(16.742 0.0895722 0.864146)
(18.3992 0.380366 1.50263)
(20.1245 0.507948 2.06468)
(22.156 1.71272 2.03185)
(24.4264 1.20901 3.85649)
(25.6671 -0.804705 4.18894)
(25.9789 -1.85696 2.69286)
(25.6712 -2.17535 1.90219)
(25.0291 -2.19341 1.81026)
(24.2654 -2.13213 1.7559)
(23.5465 -1.98699 1.35149)
(22.8883 -1.81656 0.924451)
(22.2638 -1.61975 0.507879)
(21.6783 -1.36507 0.03743)
(21.0416 -1.05835 -0.839236)
(20.2083 -0.710441 -2.37111)
(19.1043 -0.397043 -3.79557)
(18.0747 -0.0999961 -4.37859)
(17.7102 0.043074 -3.83006)
(17.9309 -0.0217448 -3.45357)
(18.3242 -0.283006 -3.21054)
(18.5095 -0.602901 -3.40602)
(18.7109 -0.685804 -2.68662)
(19.2335 -0.241967 -0.296375)
(19.3866 0.484791 1.36949)
(19.5018 1.17243 1.31631)
(19.9173 1.19959 -0.40807)
(20.3738 0.588837 -1.6602)
(20.9129 0.0149753 -1.74193)
(21.3675 -0.147959 -1.13492)
(21.7231 -0.00873867 -0.234691)
(21.5873 0.290414 0.705272)
(21.15 0.649613 1.64037)
(20.5052 0.778125 2.26843)
(19.5448 0.698753 2.74055)
(18.4247 0.527611 2.526)
(17.4989 0.243855 1.74807)
(17.192 -0.26978 0.966152)
(17.2449 -0.662561 0.227582)
(17.4819 -0.621528 -0.231305)
(17.9254 -0.0692665 0.0979233)
(17.7778 0.726022 0.479532)
(17.7428 0.792759 0.807647)
(17.5129 0.328668 0.929807)
(17.0244 -0.273453 0.863325)
(16.4779 -0.911453 1.36481)
(16.3597 -1.42064 2.40683)
(16.6782 -1.68284 3.35943)
(17.2873 -1.84218 4.47831)
(18.1416 -1.85244 5.43629)
(19.1338 -1.49444 6.13375)
(19.7435 -0.931085 6.53019)
(19.3678 -0.484184 6.40527)
(17.9584 -0.224346 5.78391)
(16.1052 -0.109708 4.63884)
(14.4176 -0.0668932 3.00368)
(12.9434 -0.182716 1.62241)
(12.2019 -0.516488 0.209239)
(11.8404 -0.443575 -1.31857)
(16.1019 -0.156414 0.146487)
(16.815 -0.279178 -0.115507)
(18.4747 -0.31281 0.0917039)
(20.4365 -0.0402865 0.179949)
(22.7349 0.974314 0.105209)
(25.3525 1.1645 0.533022)
(27.3903 0.659822 0.0457398)
(28.2055 0.326796 -0.471051)
(28.1892 0.291907 -0.382003)
(27.7289 0.313347 0.141853)
(26.8762 0.274487 0.759407)
(25.9566 0.194458 0.765814)
(25.0295 0.118688 0.656255)
(24.1519 0.119298 0.475847)
(23.4703 0.303706 0.130581)
(23.0844 0.799857 -0.539356)
(22.6454 1.21891 -1.63362)
(21.6729 1.25343 -3.26191)
(20.3704 1.04034 -5.14776)
(19.5499 0.766165 -5.74306)
(18.9489 0.501966 -5.65231)
(18.1887 0.190479 -5.09973)
(17.1558 -0.242472 -4.91259)
(16.5818 -0.623558 -3.95399)
(16.712 -0.366141 -1.84141)
(17.2801 0.508789 -0.519769)
(17.5884 1.22299 -0.85749)
(17.7646 1.18954 -2.66176)
(18.3399 0.540856 -2.87279)
(18.955 -0.0112615 -2.45136)
(19.5406 -0.106673 -1.98509)
(19.9978 0.152224 -1.4194)
(20.2279 0.545672 -0.985318)
(20.3257 0.925821 -0.575646)
(20.382 1.12902 0.037594)
(20.1738 1.10468 0.90786)
(20.0708 0.897232 1.19595)
(20.1019 0.538124 0.508)
(20.1403 0.0578763 -0.486367)
(19.9002 -0.385503 -0.843119)
(19.8725 -0.536967 -0.920749)
(20.3035 -0.0637735 -0.560358)
(20.6464 0.677936 0.0668664)
(20.552 0.867335 0.635209)
(20.258 0.51008 0.990534)
(19.8759 -0.090516 1.13729)
(19.3428 -0.847938 1.79556)
(18.7992 -1.48187 3.10108)
(18.2726 -1.6154 4.48072)
(17.6804 -1.63283 5.79584)
(17.2674 -1.78967 6.54265)
(17.1173 -1.5548 6.81606)
(16.7363 -0.750993 6.65315)
(15.639 0.0797084 6.11408)
(13.9896 0.476083 5.33929)
(12.1172 0.411644 4.08301)
(10.3528 0.189875 2.0231)
(9.02619 0.0277089 0.458225)
(7.97019 -0.0608105 -0.726274)
(8.12256 0.270866 -2.2153)
(16.0848 -0.335152 -0.0148493)
(16.8441 -0.883504 0.0430168)
(18.6588 -1.16236 -0.0232244)
(20.8023 -0.831565 -0.206382)
(23.0465 -0.080864 -0.345647)
(25.4792 -0.135957 -0.437938)
(27.3313 -0.828082 -0.593693)
(28.1143 -1.27965 -0.792613)
(28.0616 -1.39676 -0.61971)
(27.6126 -1.35827 -0.0541987)
(26.8128 -1.25208 0.540006)
(25.9135 -1.14867 0.694986)
(24.9226 -1.03982 0.758084)
(23.9168 -0.920676 0.720223)
(23.1039 -0.750195 0.453152)
(22.7632 -0.436059 -0.376039)
(22.4683 0.0803023 -1.65486)
(21.6199 0.664862 -3.71152)
(20.4105 1.10864 -6.40462)
(19.1952 1.12169 -7.39645)
(17.7312 0.83115 -6.99821)
(16.1732 0.395659 -5.98768)
(14.8601 -0.195204 -5.54785)
(14.3221 -0.89221 -4.76909)
(14.261 -1.01012 -3.18131)
(14.3659 -0.178054 -2.09293)
(14.3387 0.673534 -1.99355)
(14.4076 0.763033 -3.32359)
(15.041 -0.0165598 -2.48663)
(15.9583 -0.5406 -1.56799)
(16.9178 -0.553031 -1.29239)
(17.6355 -0.196668 -1.22729)
(18.089 0.270212 -1.08798)
(18.3578 0.702214 -0.980122)
(18.6186 0.987084 -0.56302)
(18.8359 1.03054 0.223366)
(18.9963 0.803261 0.555032)
(19.2286 0.466703 0.0210583)
(19.1903 0.00881643 -0.717838)
(19.0201 -0.430174 -1.03143)
(19.2481 -0.756414 -0.906212)
(19.9656 -0.28006 -0.518387)
(20.5175 0.601039 0.176472)
(20.6371 0.912018 0.78484)
(20.5726 0.617825 1.52774)
(20.3728 0.143105 2.25539)
(19.8508 -0.341009 3.33716)
(18.6757 -0.720818 4.71019)
(17.0195 -1.00291 5.95214)
(15.6482 -1.42665 7.19794)
(14.8096 -1.89444 8.0345)
(14.1126 -1.69961 8.34492)
(13.2135 -0.760533 7.70519)
(12.124 0.18221 6.41417)
(10.88 0.660812 5.32026)
(9.39732 0.66241 4.22682)
(7.70298 0.450216 2.86453)
(6.33806 0.569451 1.55625)
(5.77073 0.451418 0.836546)
(6.57941 0.139248 -0.410714)
(16.0489 -0.459049 -0.00107471)
(16.8282 -1.42113 0.179519)
(18.8543 -2.02639 -0.32228)
(21.1124 -1.65105 -1.23329)
(23.062 -0.849219 -2.34021)
(24.92 -0.50029 -3.06112)
(26.2121 -0.381961 -3.35919)
(26.4534 -0.00688785 -3.55192)
(25.8548 0.433854 -3.15714)
(24.8856 0.721476 -2.39438)
(23.8863 0.903129 -1.71305)
(22.9553 1.0026 -1.28362)
(22.1582 1.04768 -0.948796)
(21.464 1.07107 -0.771233)
(20.8435 1.08556 -0.872601)
(20.4796 1.1334 -1.30795)
(20.4361 1.47188 -1.78447)
(20.2151 1.93134 -3.56912)
(19.8064 2.25055 -6.36572)
(19.3094 2.13526 -7.52184)
(18.4626 1.65242 -7.47101)
(17.2838 0.962222 -6.79404)
(15.8287 0.0928497 -6.25192)
(14.3166 -0.807406 -5.76065)
(12.8499 -1.03161 -5.12504)
(11.5957 -0.153793 -4.42658)
(11.0381 0.775825 -3.9016)
(11.5721 0.657937 -3.98675)
(12.5187 -0.236861 -1.5536)
(14.0224 -0.76936 0.0530262)
(15.3511 -0.668387 0.331232)
(16.2045 -0.158834 0.080438)
(16.6035 0.478377 -0.0860899)
(16.7528 0.921863 -0.438466)
(16.9538 1.17011 -0.628977)
(17.279 1.19924 -0.595336)
(17.6348 1.01932 -0.512286)
(17.911 0.66768 -1.14671)
(18.0449 0.219914 -1.61025)
(17.9846 -0.359445 -2.23353)
(18.3029 -0.953801 -2.05192)
(19.2361 -0.514585 -1.44702)
(19.9571 0.538243 -0.618011)
(20.1616 1.00313 -0.0106007)
(19.8994 0.894419 0.602026)
(19.4538 0.632593 0.988416)
(18.8607 0.489345 1.69465)
(18.4431 0.376776 2.78043)
(18.3104 0.116355 4.04589)
(17.6654 -0.513086 5.66734)
(16.1338 -1.27444 7.25129)
(14.178 -1.3675 8.23426)
(12.2659 -0.609711 7.6593)
(10.635 0.279387 6.12956)
(9.38851 0.806384 5.09534)
(8.21422 0.95365 4.47889)
(6.81804 0.818444 3.754)
(5.74528 0.685174 2.52832)
(5.60168 0.312477 1.2127)
(6.27379 0.220192 -0.291964)
(15.9601 -0.534901 -0.270907)
(16.6977 -1.9851 -0.122483)
(18.9982 -2.84483 -0.635243)
(21.4002 -2.43939 -2.06682)
(23.0255 -1.8815 -3.8991)
(24.2417 -1.90216 -4.6137)
(24.7359 -2.11269 -4.99736)
(24.3309 -2.01656 -5.13666)
(23.3892 -1.6829 -4.5196)
(22.237 -1.34147 -3.74469)
(20.9705 -1.07283 -3.25485)
(19.8329 -0.887905 -2.89571)
(18.9214 -0.770207 -2.57323)
(18.2353 -0.656487 -2.50536)
(17.8348 -0.493635 -2.73002)
(17.978 -0.384092 -2.98191)
(18.4889 0.176868 -3.09626)
(18.7467 1.07387 -4.58516)
(18.8245 1.83968 -6.813)
(18.946 2.00402 -7.42621)
(18.867 1.69676 -7.10213)
(18.3868 1.17672 -6.47415)
(17.2648 0.594847 -6.19946)
(14.9096 0.00902083 -6.31448)
(11.5939 -0.329563 -6.8021)
(9.53381 0.015858 -6.75938)
(9.31294 0.395804 -5.30213)
(10.0874 -0.0982511 -3.16394)
(11.7482 -1.09334 0.407801)
(14.1032 -1.76687 2.3819)
(15.3286 -1.71084 2.50047)
(15.7657 -1.15058 2.0869)
(15.9361 -0.366676 1.4169)
(15.9555 0.300381 0.657482)
(16.0624 0.727991 -0.00631984)
(16.1498 0.883634 -0.416334)
(16.3422 0.823195 -0.452547)
(16.4702 0.563815 -0.770891)
(16.4367 0.184491 -1.32819)
(16.122 -0.444069 -1.95383)
(16.3105 -1.34364 -1.96838)
(17.4354 -0.911307 -1.15437)
(18.2808 0.272666 -0.515042)
(18.424 0.84349 -0.159354)
(18.2299 0.881377 0.0964691)
(17.6245 0.658833 0.560147)
(16.7598 0.415274 1.38118)
(16.2619 0.0908452 2.07273)
(16.2484 -0.219116 2.56574)
(16.5356 -0.311442 3.73886)
(16.1403 -0.329732 5.93566)
(14.259 -0.275816 8.11666)
(11.8453 0.113858 8.28264)
(9.80503 0.613391 6.72676)
(8.45054 0.940035 5.48749)
(7.5113 1.14339 4.9466)
(6.55345 1.09959 4.63404)
(5.70116 0.887181 4.23297)
(5.621 0.492492 4.35209)
(6.11866 0.349149 3.21128)
(15.7908 -0.54416 -0.972364)
(16.464 -2.46325 -0.899526)
(19.0431 -3.29389 -1.06146)
(21.3321 -2.76139 -4.09136)
(21.5901 -1.62529 -9.56094)
(20.2197 -0.808723 -14.1197)
(17.6113 -0.245262 -16.5584)
(15.3803 0.302998 -15.6301)
(13.9854 0.869449 -12.5942)
(13.1233 1.28396 -9.78936)
(12.6613 1.42066 -7.92603)
(12.4114 1.39595 -6.35676)
(12.2244 1.3118 -4.94951)
(12.0799 1.24418 -3.93344)
(12.0377 1.08222 -3.38795)
(12.4963 0.582883 -3.15164)
(13.7193 0.88405 -3.46144)
(14.8844 1.43398 -5.33836)
(15.9139 1.97591 -7.41426)
(16.9479 2.06118 -7.56508)
(17.7012 1.75399 -7.16264)
(17.8914 1.32943 -6.63962)
(17.425 1.0847 -6.18365)
(16.328 1.05001 -5.74068)
(14.5859 0.849373 -5.22837)
(12.8462 0.381676 -4.086)
(12.1905 -0.093082 -2.50075)
(12.8655 -0.903578 -0.58664)
(14.1346 -1.94829 1.94989)
(14.9156 -1.97696 4.1822)
(14.2469 -1.36679 5.28035)
(13.1362 -0.713515 5.29146)
(12.465 -0.152413 4.57945)
(12.4712 0.273664 3.36479)
(12.7927 0.528293 2.00845)
(13.2078 0.660756 0.737616)
(13.6687 0.702423 0.146758)
(13.9471 0.554641 0.0325703)
(13.8205 0.253886 0.171476)
(13.4046 -0.360005 -0.391438)
(13.8649 -1.73231 -0.338141)
(14.9498 -0.968647 0.523764)
(15.7726 0.887635 0.634571)
(15.7299 1.42686 0.677945)
(15.5294 1.38957 0.761191)
(15.172 1.1323 1.72124)
(14.7287 0.843782 3.00178)
(14.365 0.402992 3.65208)
(14.1726 -0.0264542 3.53417)
(14.0383 -0.117834 3.65036)
(13.6332 0.333454 4.61156)
(12.7244 0.742252 6.71407)
(11.5088 0.861207 8.30679)
(10.1689 0.957294 7.36096)
(9.09065 1.03559 6.02161)
(8.3871 1.15647 5.22116)
(8.04585 1.19609 5.46429)
(7.308 1.09819 6.13362)
(6.53219 0.314803 6.9188)
(5.24275 0.0714255 6.6885)
(15.5414 -0.905948 -0.299539)
(16.1652 -2.38669 0.534673)
(18.8565 -2.30409 0.923063)
(21.4974 -1.31356 -3.88392)
(22.1438 -0.292371 -7.79204)
(22.0111 0.161793 -8.04969)
(21.3385 -0.373647 -8.20641)
(20.0493 -1.33674 -8.62752)
(18.4518 -1.80045 -8.42807)
(16.8355 -1.69717 -7.90692)
(15.5117 -1.38921 -7.02717)
(14.5552 -1.10774 -5.63537)
(13.8731 -0.95473 -4.3566)
(13.3432 -0.895976 -3.37456)
(12.6351 -1.02252 -2.71656)
(12.0816 -1.32301 -2.60577)
(12.2856 -1.04827 -3.83098)
(12.1819 0.0518094 -5.91602)
(12.8444 0.974679 -6.81764)
(14.2721 1.25955 -6.26229)
(15.7428 1.18288 -5.6961)
(16.8349 1.00106 -5.21321)
(17.5857 0.882098 -4.49817)
(18.2243 0.847776 -4.00161)
(18.7055 0.742928 -3.27267)
(19.0076 0.378502 -1.8853)
(18.9555 -0.235403 -0.912952)
(18.4567 -1.00771 0.150137)
(17.7872 -1.67342 2.15276)
(16.9987 -1.29388 3.94731)
(15.8673 -0.537266 4.81166)
(14.7253 -0.263707 5.07544)
(13.7415 -0.271259 4.6634)
(13.0017 -0.219396 3.91898)
(12.6135 -0.0953787 3.02359)
(12.5167 -0.0072316 2.10261)
(12.5429 0.0408877 1.16066)
(12.5019 0.0376722 0.841887)
(12.0812 0.00610042 1.29982)
(11.467 -0.449452 2.518)
(11.7973 -2.14056 3.28869)
(11.5912 -2.38176 3.86922)
(12.2758 -0.74329 4.40114)
(11.5462 0.416871 3.95471)
(11.1521 0.825141 3.17589)
(10.6644 0.745046 3.65525)
(10.199 0.55855 4.96583)
(10.0354 0.264336 5.09215)
(9.8274 -0.00737953 3.28461)
(9.74996 0.00619915 2.30224)
(10.0818 0.425845 2.41517)
(10.5509 0.893109 3.79347)
(11.0562 1.04892 5.64739)
(11.4049 1.04918 6.17055)
(11.7586 1.01391 5.77578)
(12.2038 1.00958 5.24796)
(12.9636 1.11678 5.74705)
(13.5204 1.29854 6.79064)
(13.9196 1.16041 8.65308)
(11.2033 0.469047 9.34001)
(15.5942 0.7973 2.55743)
(16.6393 -0.398798 19.0417)
(17.5092 0.150067 28.5984)
(16.427 0.561909 28.5899)
(15.5768 0.557989 30.0102)
(16.2389 0.836656 30.9552)
(16.5293 1.26387 28.3862)
(15.4182 1.62957 23.8081)
(13.3357 1.93555 17.48)
(11.5612 2.02169 11.1932)
(10.3285 1.83229 6.93003)
(9.60514 1.56287 4.82488)
(9.15879 1.35346 3.28987)
(8.62556 1.2562 1.84474)
(7.80385 1.14501 0.303685)
(7.62369 0.198825 -3.14191)
(6.58485 0.633312 -6.32055)
(6.82822 1.05508 -7.99594)
(8.55056 1.01186 -7.40711)
(10.834 0.818811 -5.70762)
(13.021 0.625757 -4.54079)
(14.7962 0.466755 -3.64557)
(16.2442 0.374132 -2.57052)
(17.6869 0.339654 -2.08511)
(18.9751 0.22954 -1.57102)
(19.7234 0.0187794 -0.377572)
(19.696 -0.294777 0.752321)
(18.7999 -0.78562 2.19948)
(17.2884 -0.862347 4.50551)
(15.7735 -0.404427 6.06667)
(14.7889 -0.0345537 5.91193)
(14.0323 0.0778063 5.30702)
(13.1757 0.0822919 4.6218)
(12.2799 0.0825208 3.95307)
(11.5593 0.0805682 3.47688)
(11.1176 0.0777602 3.06688)
(10.8808 0.0515848 2.43577)
(10.7365 0.0657856 1.34434)
(10.2218 0.119496 1.21448)
(10.1736 -0.384848 5.05587)
(8.40882 -2.18031 8.16379)
(0.383453 -0.719783 11.1297)
(-0.89764 1.52253 11.1687)
(0.0813643 1.41535 8.60543)
(2.47446 1.07415 6.60755)
(3.9657 0.870423 8.29878)
(5.59878 0.839055 9.10583)
(6.41426 0.571658 6.23507)
(6.57169 0.198815 3.36753)
(6.58821 0.0418895 2.00936)
(7.03675 0.168153 1.84555)
(8.05505 0.371388 2.85823)
(9.39896 0.475856 4.45466)
(10.7213 0.495058 5.27184)
(12.1676 0.462719 5.33826)
(13.5151 0.434238 4.7119)
(14.8943 0.469969 4.67238)
(16.3205 0.583022 5.62604)
(18.0911 0.890004 8.04407)
(19.8486 0.858935 9.60147)
(16.1187 -0.865409 -3.73718)
(16.8271 -0.00391728 -6.71322)
(17.6609 0.318486 -11.9225)
(17.7585 -0.260497 -9.07702)
(18.8347 0.787139 2.30046)
(17.2468 0.939724 20.2712)
(15.9645 -1.11894 28.2746)
(14.4467 -2.27533 23.7223)
(13.3185 -2.46936 17.0939)
(12.5189 -2.24198 12.2971)
(12.1408 -1.91896 8.7042)
(12.015 -1.60219 6.3884)
(12.051 -1.34381 4.85693)
(12.1591 -1.14818 3.76875)
(12.375 -1.00598 3.05866)
(12.8185 -0.894655 2.44645)
(13.3696 -0.791918 1.61469)
(13.7043 -0.692511 0.574713)
(13.7227 -0.540904 -0.290567)
(13.7642 -0.367095 -0.738837)
(14.0567 -0.358699 -1.77223)
(14.7857 -0.46903 -3.57709)
(16.0203 -0.502586 -4.137)
(17.2188 -0.464162 -1.85034)
(18.0228 -0.315138 2.92546)
(18.5577 0.0960927 4.68746)
(18.1105 0.614322 5.67624)
(16.4991 0.757116 5.97324)
(14.6017 0.344612 4.9845)
(13.245 -0.168897 3.73677)
(12.4582 -0.433551 3.28751)
(11.9731 -0.545463 3.22773)
(11.6958 -0.665257 3.27005)
(11.7926 -0.824809 3.41951)
(12.196 -0.822138 2.67863)
(12.5332 -0.710944 2.21037)
(12.7733 -0.642988 1.69395)
(12.774 -0.537117 2.21014)
(12.1541 -0.184846 2.9557)
(11.3807 -0.00914555 3.59391)
(11.6717 0.0217871 3.91826)
(12.8251 0.417009 5.70698)
(12.5621 0.971885 7.19706)
(10.9267 0.550837 6.96659)
(9.01081 -0.294358 5.80816)
(8.20391 -0.806657 5.04477)
(8.62415 -0.893306 5.46739)
(9.73237 -0.767829 6.16043)
(11.0568 -0.62074 6.36153)
(12.5117 -0.516228 6.57767)
(13.9589 -0.435518 6.87377)
(15.0601 -0.36365 6.94314)
(15.6544 -0.341975 6.83666)
(15.9289 -0.362862 6.35877)
(16.2008 -0.37181 5.68546)
(16.5805 -0.35226 5.0281)
(16.9705 -0.315663 4.35642)
(17.2902 -0.282156 3.67629)
(17.5761 -0.255736 2.64895)
(17.9469 -0.210961 1.58008)
(16.0755 0.613985 -1.03239)
(16.6903 0.856774 1.0726)
(18.3266 0.934381 2.25207)
(19.7525 0.617389 4.68807)
(21.2939 2.00155 5.61397)
(22.8416 2.83972 7.93796)
(23.2095 2.36097 6.88263)
(22.4824 1.98681 4.62192)
(21.4224 1.55561 3.31479)
(20.2883 1.10744 2.86478)
(19.3389 0.699361 2.43839)
(18.6368 0.415193 1.9648)
(18.1252 0.232726 1.52206)
(17.6864 0.109842 1.14119)
(17.2996 -0.0180865 0.856643)
(17.1624 -0.202475 0.469493)
(17.259 -0.241525 -0.170853)
(17.1959 0.043633 -0.854856)
(16.7983 0.51117 -1.35688)
(16.4773 0.792305 -1.24406)
(16.5337 0.746065 -1.53441)
(16.969 0.322837 -2.42285)
(17.6324 -0.191549 -2.91798)
(18.4297 -0.343335 -1.75922)
(19.0197 -0.108048 1.57297)
(19.2878 0.330192 2.67475)
(19.4148 0.803011 2.84395)
(19.5963 0.873695 1.99664)
(19.9347 0.569248 1.12363)
(20.3959 0.262842 0.804429)
(20.6163 0.187425 1.25083)
(20.5353 0.233136 1.99438)
(19.9636 0.263005 2.76666)
(18.5821 0.251818 3.82619)
(16.7131 0.180555 3.6987)
(14.5305 0.0971253 3.24684)
(12.3276 0.114804 2.74084)
(9.84755 0.265728 2.68839)
(8.69752 0.268261 1.97591)
(9.02478 -0.0360401 0.858902)
(9.76536 -0.427173 -0.373022)
(10.8866 -0.47619 -0.56606)
(12.571 0.119817 0.214845)
(13.8287 0.517053 0.770048)
(14.3065 0.414518 0.677887)
(14.1112 0.0533395 0.787704)
(13.6148 -0.355177 1.71119)
(13.3756 -0.688613 2.95247)
(13.7023 -0.878274 3.56522)
(14.6027 -0.981298 4.11351)
(15.9098 -0.939721 4.72819)
(17.1094 -0.659187 4.92251)
(17.7766 -0.352184 4.91593)
(17.8459 -0.23091 4.69516)
(17.582 -0.244264 4.31929)
(17.2138 -0.276585 3.83756)
(16.8017 -0.245648 3.04694)
(16.3801 -0.150639 2.29281)
(16.0282 -0.168115 1.13075)
(15.9062 -0.270582 0.434595)
(16.0425 -0.165961 0.312495)
(16.7436 -0.0950736 0.821133)
(18.3878 0.11493 1.42821)
(20.099 0.226488 1.89924)
(22.2342 1.47234 1.77918)
(24.6245 1.29015 3.75417)
(25.9815 -0.578901 4.21763)
(26.3623 -1.66144 2.82879)
(26.1272 -2.01324 2.08561)
(25.5208 -2.0672 2.00377)
(24.764 -2.01785 1.93849)
(24.0491 -1.91112 1.5194)
(23.4091 -1.7664 1.07582)
(22.7962 -1.59238 0.644236)
(22.1663 -1.37956 0.15671)
(20.9739 -1.10773 -0.993641)
(19.7966 -0.765889 -2.66392)
(18.6631 -0.404514 -3.93266)
(17.7506 -0.0742819 -4.38201)
(17.5673 0.0454261 -3.81751)
(17.9131 -0.0552734 -3.46814)
(18.2902 -0.317094 -3.22798)
(18.3874 -0.672022 -3.40718)
(18.5651 -0.767367 -2.66949)
(19.0598 -0.459872 -0.283479)
(19.3343 0.287542 1.30365)
(19.4854 0.973102 1.17196)
(19.8001 0.996697 -0.565374)
(20.3371 0.486018 -1.75391)
(20.9476 -0.0393297 -1.78725)
(21.3955 -0.190725 -1.15383)
(21.7626 -0.0538971 -0.248835)
(21.7803 0.222396 0.663101)
(21.4295 0.543335 1.55444)
(20.8564 0.724968 2.16471)
(20.0153 0.71923 2.65342)
(19.0146 0.60103 2.50433)
(18.182 0.29437 1.80477)
(17.8774 -0.250145 1.07035)
(17.8124 -0.623342 0.345535)
(17.6857 -0.575309 -0.178161)
(18.072 -0.0087095 0.128126)
(18.2002 0.768671 0.496378)
(18.3004 0.847764 0.845822)
(18.0631 0.403706 1.0072)
(17.5382 -0.214495 0.969599)
(16.8284 -0.898134 1.48707)
(16.2591 -1.46742 2.52847)
(16.1861 -1.74741 3.43803)
(16.5975 -1.8748 4.51352)
(17.3406 -1.87337 5.48125)
(18.2592 -1.52876 6.20805)
(18.8973 -0.992276 6.61257)
(18.7205 -0.563734 6.49687)
(17.608 -0.301301 5.91482)
(15.9916 -0.188348 4.82073)
(14.4849 -0.146632 3.22051)
(13.1689 -0.208825 1.85521)
(12.4318 -0.441904 0.430319)
(11.5979 -0.355401 -1.51046)
(16.0827 -0.189091 0.147046)
(16.8036 -0.335606 -0.117427)
(18.4768 -0.420472 0.0701848)
(20.4244 -0.170467 0.116773)
(22.7437 0.947337 0.00511892)
(25.4002 1.08704 0.447969)
(27.4136 0.55613 -0.0178723)
(28.1629 0.355645 -0.51535)
(28.1132 0.401505 -0.410345)
(27.7371 0.471496 0.117137)
(27.0857 0.436973 0.722115)
(26.3365 0.353714 0.719251)
(25.5725 0.272742 0.603802)
(24.8122 0.251953 0.421925)
(24.1586 0.410487 0.0839941)
(23.4652 0.864313 -0.554696)
(22.6022 1.20795 -1.6189)
(21.3428 1.17215 -3.26578)
(20.0396 0.966761 -5.24407)
(19.3388 0.691639 -5.87124)
(18.7252 0.426185 -5.71422)
(17.8445 0.107564 -5.06038)
(16.7094 -0.350328 -4.83288)
(16.173 -0.736856 -3.85324)
(16.3348 -0.468287 -1.71471)
(16.807 0.371292 -0.435853)
(17.0851 1.18679 -0.824164)
(17.4956 1.19897 -2.65685)
(18.2906 0.583228 -2.86795)
(18.9716 0.0243821 -2.45115)
(19.5353 -0.100159 -1.99162)
(19.9175 0.120901 -1.42961)
(20.0797 0.483976 -1.00396)
(20.1676 0.832941 -0.612048)
(20.3694 1.03968 -0.0248638)
(20.3579 1.06878 0.839246)
(20.2468 0.924314 1.14478)
(20.2254 0.583577 0.476471)
(20.0467 0.0548108 -0.50913)
(19.6632 -0.403062 -0.858211)
(19.6151 -0.534881 -0.928805)
(20.0927 -0.0526256 -0.563695)
(20.6223 0.70834 0.0617781)
(20.8112 0.870199 0.633175)
(20.5813 0.50341 1.00124)
(20.1248 -0.106969 1.15417)
(19.4357 -0.900636 1.79564)
(18.6463 -1.62489 3.05893)
(17.9377 -1.83399 4.42262)
(17.2922 -1.78002 5.77254)
(16.8125 -1.82693 6.58222)
(16.5594 -1.60382 6.91705)
(16.139 -0.896957 6.7779)
(15.1599 -0.10928 6.23509)
(13.6484 0.354419 5.48413)
(11.9199 0.39697 4.2621)
(10.2995 0.252122 2.20885)
(9.06578 0.147176 0.602062)
(7.67523 0.165116 -1.0611)
(7.98977 0.367136 -2.44438)
(16.0871 -0.349561 -0.0144178)
(16.8451 -0.848984 0.0405579)
(18.6538 -1.18736 -0.0329158)
(20.7846 -0.886943 -0.214067)
(23.0157 -0.145117 -0.357874)
(25.43 -0.232917 -0.454941)
(27.2322 -0.868064 -0.591173)
(27.9504 -1.28182 -0.761726)
(27.8724 -1.3881 -0.566645)
(27.4716 -1.34995 0.00850309)
(26.8631 -1.25988 0.567482)
(26.1781 -1.13195 0.682921)
(25.4111 -0.996997 0.710594)
(24.5813 -0.86637 0.653441)
(23.8269 -0.69416 0.386604)
(23.2271 -0.37244 -0.403733)
(22.4601 0.128072 -1.65005)
(21.3364 0.693973 -3.74151)
(20.1412 1.14094 -6.5247)
(18.916 1.11033 -7.50124)
(17.3342 0.772496 -6.99174)
(15.6858 0.301928 -5.88885)
(14.4015 -0.331042 -5.4425)
(13.9142 -1.04785 -4.67017)
(13.855 -1.09422 -3.04834)
(13.9342 -0.153448 -1.94004)
(13.9156 0.807832 -1.87819)
(14.225 0.850435 -3.26671)
(15.0665 0.0333909 -2.4373)
(16.039 -0.501276 -1.54468)
(16.9871 -0.543589 -1.28456)
(17.6674 -0.226826 -1.22308)
(18.066 0.236692 -1.09186)
(18.2991 0.662431 -0.988547)
(18.5774 0.914755 -0.57887)
(18.9201 0.909276 0.190161)
(19.1088 0.725355 0.516425)
(19.2603 0.409992 -0.0165514)
(19.0167 -0.0223605 -0.73751)
(18.8098 -0.515487 -1.04978)
(19.0919 -0.830304 -0.92152)
(19.8642 -0.321534 -0.531341)
(20.5839 0.561314 0.152962)
(20.8512 0.849573 0.75241)
(20.7182 0.532241 1.47984)
(20.3812 0.0262988 2.15298)
(19.8134 -0.488567 3.14784)
(18.6995 -0.90952 4.47805)
(17.1008 -1.17825 5.78398)
(15.6562 -1.47877 7.13517)
(14.6815 -1.83269 8.05877)
(13.85 -1.68327 8.44691)
(12.8321 -0.875625 7.86047)
(11.6723 0.00680481 6.59296)
(10.481 0.554232 5.50844)
(9.11544 0.705945 4.41818)
(7.59891 0.59522 3.01177)
(6.36543 0.635688 1.66328)
(5.89215 0.442824 0.885338)
(6.18237 0.107693 -0.472297)
(16.0561 -0.484024 -0.00223489)
(16.82 -1.43232 0.163526)
(18.8294 -2.01992 -0.364252)
(21.0484 -1.5674 -1.25299)
(22.9349 -0.742196 -2.3391)
(24.7277 -0.375019 -3.05268)
(25.914 -0.224954 -3.32385)
(26.0318 0.182517 -3.48282)
(25.3401 0.61173 -3.06357)
(24.3141 0.855427 -2.28735)
(23.2781 0.990877 -1.60835)
(22.3623 1.08558 -1.18009)
(21.6187 1.12494 -0.844673)
(20.9753 1.13509 -0.672772)
(20.413 1.12816 -0.787066)
(20.1754 1.18205 -1.24088)
(20.2264 1.53887 -1.73703)
(20.0517 1.96849 -3.57026)
(19.7237 2.29499 -6.44711)
(19.2197 2.14881 -7.60205)
(18.2665 1.59835 -7.47532)
(16.9588 0.842934 -6.71581)
(15.3758 -0.0748343 -6.13137)
(13.7571 -0.96403 -5.66533)
(12.2449 -1.05788 -5.03517)
(11.0832 -0.00173726 -4.3098)
(10.7682 0.909065 -3.8174)
(11.6434 0.589474 -3.92879)
(12.756 -0.286658 -1.52804)
(14.1166 -0.757789 0.0402723)
(15.3665 -0.743996 0.355755)
(16.1932 -0.328997 0.158756)
(16.5695 0.27185 -0.0111373)
(16.6762 0.751935 -0.416501)
(16.9444 0.998285 -0.643825)
(17.3264 0.981752 -0.639135)
(17.6747 0.823024 -0.570758)
(17.9413 0.533146 -1.20097)
(18.0645 0.115709 -1.63294)
(17.9505 -0.490485 -2.22685)
(18.2543 -1.10353 -2.03883)
(19.2035 -0.596723 -1.43523)
(19.9333 0.475738 -0.613403)
(20.2011 0.895981 -0.0253302)
(20.0571 0.718377 0.55347)
(19.6091 0.42069 0.903104)
(18.8867 0.26684 1.56759)
(18.1984 0.142009 2.62312)
(17.902 -0.0858452 3.88783)
(17.3949 -0.566109 5.54805)
(16.0504 -1.17468 7.18059)
(14.0935 -1.2597 8.25517)
(12.0318 -0.609551 7.78999)
(10.243 0.197292 6.3033)
(8.963 0.745506 5.27737)
(7.86953 1.00665 4.64213)
(6.62232 0.984556 3.85454)
(5.5956 0.855483 2.58268)
(5.46005 0.501817 1.20405)
(5.35433 0.222105 -0.449058)
(15.985 -0.618792 -0.277022)
(16.7245 -2.10211 -0.189652)
(19.0176 -2.8487 -0.802019)
(21.3455 -2.31747 -2.16664)
(22.8968 -1.81409 -3.8983)
(24.0602 -1.89367 -4.55384)
(24.4755 -2.12344 -4.85497)
(24.0407 -1.98386 -4.89548)
(23.0986 -1.61498 -4.24937)
(21.8607 -1.25784 -3.5553)
(20.5807 -0.989451 -3.11838)
(19.492 -0.797122 -2.79692)
(18.6616 -0.682556 -2.50452)
(18.0732 -0.587442 -2.4658)
(17.7888 -0.497727 -2.70594)
(18.0377 -0.413825 -2.94145)
(18.5587 0.159974 -3.0315)
(18.7644 1.11866 -4.51746)
(18.8559 1.939 -6.79519)
(18.974 2.07283 -7.43002)
(18.8153 1.69601 -7.07406)
(18.2089 1.11793 -6.39497)
(16.8845 0.508258 -6.09507)
(14.2139 -0.0924399 -6.24395)
(10.8135 -0.355858 -6.78083)
(9.09652 0.0917088 -6.68283)
(9.21269 0.35435 -5.18457)
(10.2694 -0.259681 -3.01797)
(11.8328 -1.11596 0.391609)
(13.9891 -1.73972 2.3569)
(15.29 -1.76472 2.54549)
(15.7948 -1.29138 2.22435)
(15.9528 -0.577143 1.64677)
(15.9903 0.0780826 0.866868)
(16.0365 0.44631 0.184367)
(16.0343 0.59284 -0.320527)
(16.2241 0.56475 -0.411572)
(16.3821 0.431863 -0.754825)
(16.3516 0.124921 -1.32279)
(15.9825 -0.525466 -1.96584)
(16.1816 -1.49801 -1.99134)
(17.3542 -1.03304 -1.17133)
(18.1979 0.140495 -0.532958)
(18.3338 0.689132 -0.179557)
(18.2125 0.684887 0.062108)
(17.8024 0.548032 0.523365)
(16.8982 0.371408 1.36185)
(15.9825 -0.00546856 2.06902)
(15.5972 -0.465701 2.57752)
(15.8354 -0.626657 3.71735)
(15.7662 -0.472407 5.80441)
(14.147 -0.217681 8.02435)
(11.6747 0.230061 8.35015)
(9.46676 0.671599 6.88951)
(8.04564 0.945652 5.66503)
(7.17066 1.17854 5.0983)
(6.33382 1.25792 4.72962)
(5.54861 1.11055 4.25944)
(5.53982 0.735205 4.32053)
(6.18074 0.538746 3.185)
(15.8228 -0.542622 -0.990731)
(16.5045 -2.58935 -1.13054)
(19.1066 -3.32257 -1.61143)
(21.2059 -2.58402 -4.538)
(21.2715 -1.42888 -9.91331)
(19.7778 -0.66191 -14.3832)
(17.1042 -0.088718 -16.6446)
(14.9654 0.500927 -15.5259)
(13.7287 1.0565 -12.3906)
(13.0313 1.40163 -9.56828)
(12.6515 1.48518 -7.75819)
(12.4348 1.44055 -6.23259)
(12.2564 1.33462 -4.84162)
(12.0912 1.24766 -3.83257)
(12.0645 0.928071 -3.28213)
(12.6273 0.426842 -3.05708)
(13.8506 0.780961 -3.38006)
(14.9914 1.45645 -5.27939)
(16.0382 2.09054 -7.39804)
(17.0669 2.14491 -7.55731)
(17.7433 1.77064 -7.12863)
(17.8068 1.31356 -6.56977)
(17.1679 1.10538 -6.09259)
(15.8573 1.0864 -5.63846)
(13.8848 0.853718 -5.12167)
(12.0907 0.379732 -3.96525)
(11.7196 -0.185169 -2.31756)
(12.6604 -1.00508 -0.434234)
(14.1972 -1.91869 1.84893)
(15.1684 -2.03688 4.01661)
(14.7393 -1.52538 5.11269)
(13.6749 -0.904387 5.20727)
(12.8405 -0.328606 4.61405)
(12.6209 0.139051 3.48942)
(12.8217 0.434868 2.15433)
(13.1975 0.578812 0.880777)