/*--------------------------------*- C++ -*----------------------------------*\
  =========                 |
  \\      /  F ield         | OpenFOAM: The Open Source CFD Toolbox
   \\    /   O peration     | Website:  https://openfoam.org
    \\  /    A nd           | Version:  8
     \\/     M anipulation  |
\*---------------------------------------------------------------------------*/
FoamFile
{
    version     2.0;
    format      ascii;
    class       volScalarField;
    location    "700";
    object      p_rgh;
}
// * * * * * * * * * * * * * * * * * * * * * * * * * * * * * * * * * * * * * //

dimensions      [1 -1 -2 0 0 0 0];

internalField   nonuniform List<scalar> 
8400
(
0.431758
19.2276
35.0261
50.317
65.3811
80.4409
95.64
111.093
126.902
143.17
160.003
177.515
195.835
215.105
235.488
257.171
280.368
305.324
332.323
361.696
393.829
429.16
468.195
511.559
560.011
614.327
675.198
743.549
820.642
907.876
1006.85
1119.43
1247.72
1394.21
1561.74
1753.62
1973.7
2226.45
2517.11
2851.81
3237.73
3683.4
4199.47
4799.85
5500.96
6316.91
7262.88
8399.62
9893.75
11839.6
-9.35581
4.43586
18.0651
32.1441
46.292
60.5186
74.8903
89.4887
104.4
119.713
135.526
151.943
169.081
187.074
206.072
226.249
247.803
270.962
295.988
323.19
352.932
385.624
421.715
461.739
506.307
556.127
612.113
675.25
746.596
827.427
919.231
1023.73
1142.91
1279.06
1434.83
1613.27
1817.88
2052.74
2322.51
2632.6
2989.18
3399.36
3871.64
4416.45
5045.08
5765.86
6585.99
7536.39
8700.35
10128.7
22.2742
40.4793
56.5589
71.7949
86.9228
102.172
117.656
133.461
149.67
166.37
183.658
201.641
220.441
240.194
261.056
283.209
306.859
332.238
359.618
389.316
421.712
457.232
496.298
539.389
587.114
640.183
699.486
766.021
840.884
925.351
1020.9
1129.25
1252.36
1392.52
1552.35
1734.87
1943.56
2182.43
2456.08
2769.78
3129.5
3542.06
4015.32
4558.3
5180.14
5887.88
6687.34
7593.46
8636.8
9812.61
-14.7536
-10.4572
-0.57832
11.3921
24.0839
37.1082
50.3696
63.8725
77.6588
91.7885
106.334
121.38
137.02
153.366
170.545
188.703
208.012
228.661
250.869
274.889
301.024
329.65
361.244
396.286
435.277
478.842
527.713
582.726
644.846
715.198
795.082
886.003
989.697
1108.17
1243.72
1399.02
1577.1
1781.46
2016.11
2285.58
2595.01
2950.17
3357.64
3824.65
4358.47
4965.24
5650.42
6423.13
7298.12
8271.77
37.7415
59.3396
76.275
91.3176
106.032
120.84
135.89
151.254
166.992
183.169
199.855
217.137
235.107
253.876
273.57
294.337
316.349
339.79
364.863
391.801
420.858
452.338
486.637
524.222
565.599
611.358
662.173
718.816
782.173
853.263
933.261
1023.52
1125.59
1241.25
1372.55
1521.79
1691.64
1885.06
2105.43
2356.48
2642.34
2967.46
3336.64
3754.81
4226.48
4754.85
5341.44
5988.27
6701.6
7480.05
-23.0312
-22.7268
-14.7153
-3.87298
7.93131
20.1555
32.6448
45.371
58.3515
71.6241
85.2402
99.2617
113.76
128.818
144.533
161.019
178.415
196.899
216.663
237.916
260.892
285.85
313.101
343.015
376.016
412.598
453.336
498.89
550.022
607.614
672.686
746.41
830.141
925.433
1034.07
1158.08
1299.79
1461.82
1647.1
1858.91
2100.8
2376.62
2690.37
3046.04
3447.2
3896.16
4393.11
4937.05
5530.05
6172.77
45.0369
68.9163
86.1148
100.617
114.503
128.346
142.331
156.529
170.982
185.728
200.814
216.29
232.217
248.661
265.694
283.401
301.876
321.241
341.648
363.27
386.302
410.963
437.51
466.239
497.49
531.656
569.19
610.613
656.526
707.62
764.694
828.665
900.586
981.668
1073.29
1177.03
1294.66
1428.21
1579.9
1752.22
1947.86
2169.66
2420.57
2703.46
3020.91
3374.52
3764.03
4188.07
4648.23
5146.94
-27.5664
-29.1224
-21.9907
-11.7078
-0.393177
11.3453
23.3304
35.52
47.9159
60.5374
73.4147
86.5885
100.108
114.034
128.431
143.372
158.938
175.217
192.322
210.379
229.535
249.957
271.843
295.42
320.951
348.738
379.132
412.536
449.416
490.305
535.822
586.676
643.681
707.77
780.007
861.605
953.931
1058.52
1177.08
1311.49
1463.76
1636
1830.34
2048.88
2293.41
2565.01
2863.3
3187.11
3537.87
3918.84
47.2767
71.5319
88.2427
101.891
114.741
127.416
140.108
152.879
165.748
178.73
191.836
205.08
218.483
232.072
245.883
259.956
274.337
289.081
304.251
319.922
336.18
353.124
370.871
389.556
409.336
430.394
452.943
477.228
503.536
532.199
563.599
598.183
636.463
679.033
726.573
779.865
839.798
907.38
983.743
1070.14
1167.96
1278.64
1403.73
1544.73
1703.1
1879.81
2075
2288.36
2521.73
2778.98
-28.6996
-30.9827
-24.3967
-14.614
-3.81642
7.36541
18.7395
30.2487
41.8783
53.628
65.5036
77.5124
89.6647
101.974
114.459
127.138
140.035
153.175
166.59
180.316
194.391
208.863
223.784
239.213
255.22
271.882
289.29
307.544
326.763
347.081
368.654
391.66
416.308
442.837
471.524
502.693
536.716
574.029
615.133
660.607
711.113
767.402
830.319
900.815
979.92
1068.6
1167.56
1277.55
1401.05
1542.67
46.3383
69.9118
85.8287
98.6383
110.584
122.276
133.89
145.467
157.009
168.506
179.944
191.309
202.588
213.765
224.828
235.759
246.543
257.16
267.59
277.811
287.797
297.521
306.952
316.054
324.79
333.116
340.984
348.342
355.13
361.284
366.732
371.397
375.196
378.043
379.845
380.512
379.959
378.11
374.914
370.356
364.48
357.422
349.453
341.045
332.93
326.135
322.023
322.573
331.251
353.329
-27.5239
-29.9482
-23.8759
-14.7745
-4.7505
5.57297
15.9918
26.4296
36.8481
47.2207
57.5233
67.7318
77.8206
87.7622
97.5257
107.076
116.374
125.373
134.021
142.257
150.009
157.195
163.72
169.473
174.325
178.126
180.703
181.856
181.354
178.928
174.273
167.034
156.81
143.143
125.516
103.35
76.0036
42.7783
2.92851
-44.3175
-99.7231
-163.983
-237.634
-320.927
-413.688
-515.113
-623.485
-735.852
-847.665
-951.682
42.9568
65.17
80.2257
92.3991
103.757
114.845
125.804
136.652
147.37
157.923
168.276
178.384
188.203
197.679
206.755
215.364
223.429
230.864
237.568
243.426
248.306
252.055
254.495
255.423
254.603
251.766
246.597
238.738
227.774
213.228
194.555
171.128
142.236
107.065
64.6998
14.1079
-45.8584
-116.462
-199.07
-295.128
-406.116
-533.468
-678.438
-841.915
-1024.21
-1224.73
-1441.44
-1670.21
-1904.51
-2135.13
-23.9417
-25.895
-20.2182
-11.8613
-2.73133
6.58249
15.8678
25.0283
34.0026
42.7382
51.1828
59.2805
66.9696
74.181
80.8363
86.8461
92.1081
96.5049
99.9014
102.142
103.047
102.409
99.9891
95.5119
88.6588
79.0621
66.2974
49.8752
29.2309
3.71373
-27.4254
-65.0482
-110.144
-163.845
-227.446
-302.418
-390.427
-493.339
-613.229
-752.367
-913.19
-1098.23
-1309.99
-1550.67
-1821.92
-2124.47
-2457.4
-2816.87
-3195.01
-3577.65
36.2352
56.2169
70.2025
81.8297
92.7863
103.493
114.039
124.416
134.585
144.495
154.09
163.305
172.069
180.3
187.904
194.773
200.783
205.789
209.625
212.098
212.985
212.028
208.926
203.331
194.84
182.987
167.228
146.937
121.386
89.7342
51.0069
4.07868
-52.3499
-119.777
-199.923
-294.763
-406.549
-537.834
-691.491
-870.706
-1078.96
-1320
-1597.61
-1915.33
-2276
-2681.41
-3131.7
-3623.11
-4144.43
-4675.24
-17.1397
-17.3801
-11.4275
-3.38256
5.20229
13.8207
22.2737
30.4578
38.2972
45.7208
52.654
59.0143
64.7092
69.6331
73.6658
76.6692
78.4847
78.93
77.7952
74.8382
69.7801
62.2989
52.023
38.5238
21.3058
-0.202875
-26.6628
-58.8369
-97.6067
-143.99
-199.162
-264.478
-341.503
-432.04
-538.163
-662.255
-807.045
-975.653
-1171.62
-1398.92
-1662
-1965.79
-2315.61
-2716.78
-3174.15
-3692.09
-4275.02
-4925.1
-5633.43
-6369.04
23.7333
40.9102
53.6208
64.7163
75.2789
85.5704
95.6328
105.442
114.95
124.098
132.817
141.03
148.645
155.557
161.647
166.774
170.777
173.469
174.633
174.019
171.334
166.242
158.352
147.209
132.289
112.98
88.5764
58.2557
21.0659
-24.0983
-78.52
-143.689
-221.334
-313.464
-422.412
-550.89
-702.046
-879.538
-1087.61
-1331.16
-1615.85
-1948.22
-2335.83
-2786.92
-3309.74
-3912.69
-4606.69
-5403.45
-6296.43
-7235.03
-8.94223
-4.58951
3.17786
11.9431
20.7858
29.4299
37.7615
45.7077
53.2009
60.1675
66.5233
72.172
77.0022
80.8857
83.6747
85.1986
85.261
83.6347
80.058
74.228
65.7951
54.3548
39.4393
20.5074
-3.06756
-32.0114
-67.165
-109.503
-160.157
-220.439
-291.874
-376.232
-475.576
-592.305
-729.217
-889.576
-1077.2
-1296.55
-1552.86
-1852.23
-2201.82
-2610.03
-3086.86
-3643.79
-4292.63
-5044.76
-5915.6
-6930.42
-8102.25
-9367.07
1.81221
20.5665
32.6498
43.3952
53.5097
63.2369
72.62
81.6403
90.2521
98.3935
105.989
112.948
119.166
124.521
128.871
132.052
133.873
134.114
132.521
128.798
122.603
113.543
101.157
84.9162
64.2052
38.3115
6.40932
-32.4591
-79.4049
-135.717
-202.894
-282.674
-377.082
-488.475
-619.6
-773.664
-954.423
-1166.28
-1414.43
-1704.96
-2045.06
-2443.33
-2910.38
-3459.29
-4104.12
-4857.62
-5739.18
-6802.67
-8134.07
-9708.09
-1.14807
8.48323
18.2403
27.9897
37.4709
46.6236
55.4086
63.783
71.6918
79.0671
85.8268
91.8739
97.0951
101.359
104.512
106.377
106.751
105.396
102.038
96.3614
87.999
76.5263
61.452
42.2065
18.1299
-11.5431
-47.7004
-91.3726
-143.757
-206.245
-280.458
-368.284
-471.927
-593.964
-737.419
-905.845
-1103.44
-1335.19
-1607.06
-1926.2
-2301.27
-2742.96
-3265.15
-3886.18
-4627.94
-5513.15
-6577.39
-7924.73
-9764.58
-12141.5
29234.8
21072.7
17039.7
15521.3
14686.8
14078
13654.4
13370.1
13169.9
13018.8
12899.1
12800.9
12717.7
12645
12579.7
12519.7
12463.4
12409.8
12357.7
12306.5
12255.5
12204
12151.4
12097
12040.3
11980.5
11916.8
11848.4
11774.2
11693
11603.6
11504.5
11393.8
11269.6
11129.5
10970.4
10788.9
10581
10342
10065.8
9745.4
9372.05
8935.13
8421.15
7812.61
7086.06
6208.53
5130.79
3772.41
1996.72
3699.85
8289.06
9790.79
10357.1
10791.3
11117
11341.3
11501.4
11620.3
11709.1
11775.2
11823.9
11859.2
11883.9
11899.7
11908.3
11910.5
11907.3
11899.2
11886.4
11869.4
11848
11822.4
11792.4
11757.7
11718
11672.7
11621.2
11562.8
11496.3
11420.6
11334.2
11235.5
11122.5
10992.8
10843.8
10672.3
10474.2
10245.1
9979.51
9670.71
9310.56
8889.07
8393.91
7809.64
7116.7
6290.13
5298.43
4104.06
2673.14
11029.3
13199.4
14382.5
14485.2
14328.5
14156.9
13970.6
13779.4
13601
13441.9
13301.1
13176.2
13064.7
12964.5
12873.5
12789.9
12712.4
12639.6
12570.4
12503.9
12439.3
12375.8
12312.5
12248.8
12184
12117.2
12047.7
11974.6
11897
11813.7
11723.6
11625.1
11516.5
11395.7
11260.5
11108.1
10935.4
10738.9
10514
10255.7
9957.85
9613.21
9213.1
8747.16
8202.99
7565.88
6818.83
5943.29
4922.03
3746.79
11378
11787
11978.5
11906.9
11804.6
11761.3
11749.7
11747.4
11751.7
11761.6
11774.2
11786.9
11798.3
11807.5
11813.9
11817.3
11817.5
11814.3
11807.9
11798
11784.7
11767.9
11747.4
11722.9
11694.3
11661
11622.5
11578.4
11527.8
11470.1
11404.3
11329.1
11243.2
11144.9
11032.3
10902.9
10754
10582.3
10384.1
10154.8
9889.2
9581.28
9223.92
8808.94
8327.13
7768.46
7122.74
6381.29
5540.24
4606.4
11917
12166.1
12482.7
12714.4
12854.3
12943.6
12995.9
13014.8
13008.5
12985.5
12951.7
12910.8
12865.2
12816.7
12766.4
12715.1
12663.3
12611.2
12558.9
12506.2
12453.2
12399.6
12345.1
12289.4
12232.2
12173
12111.3
12046.2
11977.1
11903
11823
11735.9
11640.5
11535.1
11418
11287
11139.8
10973.4
10784.6
10569.6
10324
10043
9720.79
9351.39
8928.23
8444.84
7895.59
7277.14
6590.84
5845.49
12120.7
12206.3
12314.5
12376.5
12379.1
12351
12312.6
12270.4
12227.2
12186
12148
12113.6
12082.3
12053.7
12027.1
12002
11977.8
11954.1
11930.4
11906.3
11881.5
11855.5
11828
11798.7
11767.1
11732.8
11695.4
11654.4
11609.2
11559
11503
11440.3
11369.8
11290.3
11200.1
11097.6
10980.9
10847.5
10694.9
10520
10319.4
10089.4
9825.95
9524.66
9181.34
8792.28
8355.01
7869.49
7339.73
6775.28
12233.8
12278.2
12350
12422.2
12477.5
12518.4
12550
12573
12587.1
12592.9
12591.7
12584.5
12572
12555.1
12534.3
12510.2
12483.4
12454
12422.6
12389.1
12353.8
12316.8
12278
12237.4
12194.7
12149.8
12102.4
12052.3
11998.9
11941.8
11880.4
11813.9
11741.5
11662.2
11574.9
11478.2
11370.5
11250.1
11115
10962.9
10791.3
10597.4
10378.6
10131.8
9854.6
9544.97
9202.2
8827.51
8425.07
8002.18
12292.4
12314.6
12352.3
12392.3
12420.5
12433.4
12433.5
12423.6
12405.5
12381.5
12353.3
12322.7
12290.7
12258.1
12225.4
12193
12161
12129.3
12098.1
12067.1
12036.3
12005.5
11974.4
11942.8
11910.5
11877.1
11842.4
11806.1
11767.6
11726.6
11682.5
11634.9
11582.9
11526
11463.2
11393.5
11315.9
11229.1
11131.7
11022.2
10898.9
10760.1
10604.1
10429.1
10234
10018
9781.46
9526.19
9256.15
8977.49
12323.8
12337.4
12362.5
12393.1
12420.6
12440.9
12454.1
12461.2
12463.1
12460.2
12453.4
12443.2
12430
12414.4
12396.6
12376.9
12355.5
12332.6
12308.3
12282.7
12256
12228.1
12199.2
12169.2
12138
12105.7
12072.2
12037.3
12000.8
11962.6
11922.5
11880.1
11835.1
11787.1
11735.6
11680.1
11620
11554.5
11483
11404.6
11318.4
11223.6
11119.3
11004.9
10880
10744.6
10599.5
10446.4
10288.2
10128.8
12337.9
12348
12367.2
12391.7
12414.7
12431.4
12440.6
12442.8
12438.7
12429
12414.6
12396.7
12376
12353.3
12329.1
12303.8
12277.8
12251.4
12224.8
12198
12171
12144.1
12117.1
12090.1
12063
12035.8
12008.5
11980.9
11953.1
11924.9
11896.2
11867
11837.1
11806.4
11774.7
11742
11707.9
11672.5
11635.4
11596.5
11555.8
11513
11468.2
11421.6
11373.4
11324.2
11275.1
11227.3
11183
11144.6
12339.1
12349.2
12368.4
12393.1
12416.1
12432.9
12442.4
12444.8
12441
12431.6
12417.7
12400.3
12380.2
12358.1
12334.7
12310.5
12285.6
12260.6
12235.5
12210.5
12185.7
12161.2
12137.1
12113.5
12090.3
12067.6
12045.6
12024.2
12003.5
11983.6
11964.6
11946.7
11929.9
11914.4
11900.5
11888.3
11878.2
11870.5
11865.6
11864
11866.3
11873
11885
11903
11928
11960.9
12002.8
12054.6
12117.2
12191.3
12327.3
12341
12366.2
12397
12424.9
12445.6
12459.4
12467.2
12469.9
12468
12462.3
12453.5
12442
12428.2
12412.6
12395.5
12377.2
12357.8
12337.7
12317.1
12296.1
12275
12254
12233.2
12212.9
12193.3
12174.6
12157.1
12140.9
12126.5
12114.2
12104.2
12097.2
12093.4
12093.6
12098.4
12108.5
12124.7
12148.2
12179.8
12221.1
12273.2
12337.6
12415.9
12509.6
12620
12748.2
12894.7
13059.5
13241.6
12298.1
12320.4
12358.5
12398.8
12427.5
12441.2
12442.2
12433.4
12416.7
12394.3
12368.2
12339.9
12310.6
12281.3
12252.5
12224.5
12197.8
12172.3
12148.3
12125.9
12104.9
12085.6
12068
12052.1
12038.1
12026.1
12016.4
12009.1
12004.5
12003.1
12005.3
12011.5
12022.4
12038.7
12061.3
12091.2
12129.4
12177.4
12236.7
12308.8
12395.9
12499.9
12623
12767.6
12935.8
13129.5
13350
13597.8
13871.9
14170.1
12241.7
12286.3
12358.3
12431
12487.1
12529
12561.9
12586.4
12602.3
12610.3
12611.7
12607.5
12598.7
12586.1
12570.4
12552.3
12532.4
12511.2
12489.3
12467
12444.8
12423
12402
12382.3
12364
12347.8
12334
12323
12315.5
12311.9
12313.1
12319.7
12332.7
12353.2
12382.2
12421.2
12471.7
12535.7
12615
12712.1
12829.5
12970.1
13136.9
13333
13561.4
13824.8
14125.1
14462.5
14835.3
15239.6
12130.5
12216.3
12324.8
12387.5
12391.1
12364.2
12327.4
12287
12246.2
12207.8
12173.2
12142.7
12116.1
12093
12072.8
12055.3
12039.9
12026.6
12015
12005
11996.8
11990.2
11985.4
11982.6
11982
11983.9
11988.7
11997
12009.3
12026.1
12048.5
12077.1
12113.3
12158.1
12213.1
12280
12360.7
12457.4
12572.8
12709.7
12871.4
13061.7
13284.4
13543.7
13843.8
14188.6
14581.1
15022.7
15511.8
16044.3
11928.4
12177.7
12494.8
12727.3
12868.3
12959
13013.1
13034.2
13030.5
13010.7
12980.8
12944.5
12904.2
12862
12819.2
12776.7
12735.1
12695
12656.7
12620.6
12586.8
12555.7
12527.6
12502.6
12481.2
12463.8
12450.8
12442.8
12440.4
12444.5
12455.8
12475.4
12504.6
12544.8
12597.8
12665.3
12749.9
12854
12980.6
13133.4
13316.1
13533.3
13789.9
14091.3
14443
14850.6
15318.7
15850.4
16444.8
17096.4
11390.8
11800.1
11992.1
11921.3
11820.3
11778.5
11768.9
11769.2
11776.5
11790
11807
11824.9
11842.3
11858.6
11873.4
11886.6
11898.2
11908.6
11917.8
11926.4
11934.6
11943
11951.9
11961.8
11973.4
11987.2
12003.9
12024.3
12049.3
12079.7
12116.8
12161.8
12216.3
12281.8
12360.4
12454.3
12566.2
12699.1
12856.5
13042.4
13261.5
13519
13821
14174.3
14586.3
15064.8
15617.8
16251.9
16970.3
17771.3
11043.2
13213.5
14397.2
14500.8
14345.5
14175.5
13991.4
13802.9
13627.9
13472.8
13336.7
13217.4
13112.5
13020
12938.2
12865.4
12800.4
12742.3
12690.3
12644
12602.9
12566.9
12535.8
12509.8
12488.9
12473.4
12463.9
12460.8
12464.7
12476.7
12497.6
12528.8
12571.6
12627.9
12699.6
12789.1
12899.2
13033.3
13195
13388.9
13620.1
13894.6
14219.4
14602.8
15054.1
15584.2
16204.8
16928.3
17764.8
18719.5
3714.45
8303.92
9806.23
10373.5
10809.1
11136.5
11363.1
11526
11648.3
11741.2
11812.2
11866.7
11908.9
11941.5
11966.8
11986.5
12001.8
12013.8
12023.5
12031.7
12039.1
12046.4
12054.2
12063.3
12074.3
12087.9
12105.1
12126.6
12153.5
12186.8
12227.9
12278.2
12339.4
12413.4
12502.5
12609.2
12736.7
12888.3
13068.3
13281.4
13533.3
13830.5
14181
14594.1
15081.2
15656
16335.4
17139.9
18093.3
19221.5
29249.7
21087.8
17055.4
15538
14705
14098.2
13676.9
13395.6
13199
13052.1
12937.5
12845.4
12769.2
12704.9
12649.4
12600.9
12558.1
12520.2
12486.7
12457.1
12431.4
12409.5
12391.5
12377.6
12368.1
12363.5
12364.3
12371.2
12385.1
12406.9
12437.8
12479.2
12532.6
12600.1
12683.8
12786.4
12910.9
13061
13240.7
13455.1
13710.1
14012.5
14370.8
14795.1
15298.1
15896.1
16610.7
17472.7
18529
19861.8
-20153.8
-15538.2
-13967.3
-10009
-8041.98
-4623.89
-2522
533.707
2639.08
5448.37
7479.66
10123.8
12022.9
14571
16279
18802.7
20235.2
22819.5
23820.6
26454.8
-20083.7
-15480.2
-13918.2
-9961.08
-8000.04
-4579.55
-2482.45
576.375
2678.29
5490.67
7519.42
10167.1
12064.5
14617.4
16325.1
18856.8
20293
22893.2
23909.1
26582.9
-20021.9
-15420.2
-13866.9
-9909.95
-7954.75
-4532.36
-2439.53
621.999
2720.79
5536.28
7562.85
10214.2
12110.6
14668.3
16376.9
18915.7
20356.6
22968.3
23994.9
26687.1
-19964.5
-15360.8
-13814.5
-9856.84
-7907.09
-4482.74
-2393.99
670.205
2765.99
5584.64
7609.19
10264.3
12159.8
14722.3
16431.8
18976.8
20421.5
23041.3
24073.9
26774.7
-19909.3
-15302.1
-13761.4
-9802.41
-7857.67
-4431.16
-2346.33
720.576
2813.44
5635.26
7657.83
10316.6
12211.3
14778.2
16488.3
19038.5
20485.7
23111.1
24146.6
26852.8
-19855.1
-15243.9
-13708
-9747.04
-7806.93
-4378.04
-2297
772.701
2862.68
5687.66
7708.24
10370.6
12264.2
14835.1
16545.4
19099.9
20548.4
23178
24214.4
26924.6
-19801.4
-15185.8
-13654.1
-9690.94
-7755.16
-4323.71
-2246.33
826.214
2913.33
5741.42
7759.93
10425.7
12318.1
14892.5
16602.6
19160.6
20609.4
23242.3
24278.6
26992.1
-19747.8
-15127.6
-13600
-9634.25
-7702.6
-4268.43
-2194.62
880.798
2965.05
5796.17
7812.54
10481.5
12372.4
14950.1
16659.5
19220.5
20668.8
23304.4
24339.9
27056.5
-19694.2
-15069.4
-13545.5
-9577.07
-7649.39
-4212.41
-2142.11
936.191
3017.57
5851.62
7865.75
10537.7
12427
15007.5
16715.9
19279.5
20726.9
23364.7
24399.1
27118.5
-19640.5
-15010.9
-13490.7
-9519.48
-7595.69
-4155.82
-2088.99
992.18
3070.66
5907.55
7919.35
10594.1
12481.6
15064.7
16771.7
19337.6
20783.7
23423.5
24456.5
27178.7
-19586.6
-14952.3
-13435.7
-9461.55
-7541.59
-4098.8
-2035.43
1048.59
3124.14
5963.77
7973.15
10650.5
12536
15121.6
16826.9
19395
20839.5
23481.1
24512.5
27237.4
-19532.6
-14893.4
-13380.4
-9403.34
-7487.2
-4041.46
-1981.55
1105.29
3177.86
6020.15
8027.03
10706.8
12590.3
15178.1
16881.6
19451.6
20894.3
23537.7
24567.4
27295
-19478.4
-14834.3
-13325
-9344.92
-7432.58
-3983.9
-1927.45
1162.15
3231.73
6076.58
8080.9
10763
12644.3
15234.2
16935.8
19507.6
20948.4
23593.3
24621.3
27351.5
-19424
-14775.1
-13269.4
-9286.35
-7377.82
-3926.2
-1873.22
1219.11
3285.66
6132.99
8134.69
10819.1
12698.1
15289.9
16989.4
19563
21001.7
23648.2
24674.5
27407.3
-19369.6
-14715.8
-13213.7
-9227.66
-7322.96
-3868.41
-1818.92
1276.09
3339.59
6189.3
8188.35
10874.8
12751.5
15345.2
17042.6
19617.8
21054.5
23702.5
24726.9
27462.3
-19315.1
-14656.4
-13158
-9168.92
-7268.06
-3810.59
-1764.62
1333.02
3393.45
6245.49
8241.86
10930.4
12804.7
15400.1
17095.3
19672.2
21106.7
23756.1
24778.6
27516.7
-19260.6
-14597
-13102.2
-9110.15
-7213.15
-3752.8
-1710.34
1389.88
3447.22
6301.51
8295.17
10985.7
12857.6
15454.7
17147.7
19726
21158.4
23809.2
24829.8
27570.6
-19206.1
-14537.5
-13046.5
-9051.4
-7158.29
-3695.06
-1656.14
1446.62
3500.87
6357.34
8348.29
11040.7
12910.2
15508.9
17199.6
19779.5
21209.7
23861.9
24880.6
27624
-19151.6
-14478.1
-12990.9
-8992.7
-7103.49
-3637.41
-1602.04
1503.21
3554.36
6412.96
8401.2
11095.4
12962.5
15562.8
17251.2
19832.5
21260.5
23914.1
24930.9
27677
-19097.2
-14418.7
-12935.3
-8934.08
-7048.79
-3579.88
-1548.06
1559.64
3607.69
6468.35
8453.88
11149.8
13014.5
15616.3
17302.5
19885.2
21310.9
23965.9
24980.7
27729.5
-19042.9
-14359.4
-12879.8
-8875.57
-6994.21
-3522.5
-1494.22
1615.89
3660.84
6523.52
8506.34
11204
13066.2
15669.5
17353.4
19937.5
21361
24017.3
25030.2
27781.7
-18988.7
-14300.2
-12824.5
-8817.18
-6939.77
-3465.27
-1440.55
1671.93
3713.8
6578.44
8558.56
11257.8
13117.7
15722.4
17404
19989.5
21410.8
24068.4
25079.3
27833.5
-18934.6
-14241.2
-12769.3
-8758.94
-6885.49
-3408.22
-1387.05
1727.76
3766.56
6633.1
8610.56
11311.4
13168.8
15775
17454.4
20041.1
21460.2
24119.1
25128.1
27885
-18880.7
-14182.2
-12714.2
-8700.86
-6831.38
-3351.36
-1333.74
1783.36
3819.11
6687.52
8662.32
11364.7
13219.8
15827.3
17504.4
20092.5
21509.3
24169.5
25176.5
27936.2
-18827
-14123.4
-12659.4
-8642.96
-6777.46
-3294.71
-1280.63
1838.73
3871.44
6741.67
8713.84
11417.7
13270.4
15879.3
17554.1
20143.5
21558.1
24219.6
25224.7
27987
-18773.5
-14064.8
-12604.7
-8585.25
-6723.73
-3238.27
-1227.72
1893.86
3923.56
6795.56
8765.14
11470.5
13320.9
15931
17603.6
20194.2
21606.6
24269.4
25272.5
28037.6
-18720.1
-14006.4
-12550.3
-8527.75
-6670.21
-3182.07
-1175.02
1948.74
3975.46
6849.17
8816.19
11522.9
13371
15982.4
17652.8
20244.6
21654.8
24319
25320
28087.9
-18667
-13948.2
-12496.1
-8470.46
-6616.91
-3126.09
-1122.54
2003.37
4027.13
6902.52
8867.01
11575.1
13420.9
16033.5
17701.7
20294.8
21702.8
24368.2
25367.3
28137.9
-18614.1
-13890.2
-12442.1
-8413.39
-6563.83
-3070.35
-1070.29
2057.74
4078.57
6955.59
8917.59
11627
13470.6
16084.3
17750.4
20344.6
21750.4
24417.2
25414.2
28187.7
-18561.5
-13832.4
-12388.3
-8356.55
-6510.98
-3014.87
-1018.26
2111.84
4129.79
7008.39
8967.93
11678.6
13520
16134.8
17798.8
20394.2
21797.8
24465.8
25460.9
28237.2
-18509.1
-13774.8
-12334.8
-8299.95
-6458.36
-2959.63
-966.458
2165.68
4180.77
7060.91
9018.04
11729.9
13569.2
16185.1
17847
20443.5
21845
24514.3
25507.3
28286.4
-18456.9
-13717.4
-12281.5
-8243.6
-6405.98
-2904.66
-914.894
2219.24
4231.51
7113.14
9067.9
11780.9
13618.1
16235
17894.9
20492.5
21891.9
24562.4
25553.4
28335.4
-18405
-13660.3
-12228.5
-8187.49
-6353.85
-2849.95
-863.568
2272.53
4282.03
7165.1
9117.53
11831.7
13666.8
16284.7
17942.6
20541.2
21938.5
24610.3
25599.3
28384.1
-18353.3
-13603.4
-12175.7
-8131.64
-6301.96
-2795.51
-812.481
2325.54
4332.3
7216.76
9166.93
11882.1
13715.2
16334.1
17990
20589.7
21984.8
24657.9
25644.9
28432.5
-18301.9
-13546.8
-12123.2
-8076.05
-6250.33
-2741.33
-761.637
2378.26
4382.34
7268.14
9216.08
11932.3
13763.4
16383.2
18037.1
20637.9
22030.9
24705.3
25690.2
28480.8
-18250.8
-13490.4
-12070.9
-8020.72
-6198.94
-2687.44
-711.036
2430.7
4432.13
7319.23
9265
11982.2
13811.3
16432
18084
20685.8
22076.8
24752.3
25735.3
28528.7
-18200
-13434.3
-12019
-7965.66
-6147.81
-2633.82
-660.681
2482.86
4481.69
7370.02
9313.67
12031.8
13859.1
16480.6
18130.7
20733.4
22122.4
24799.2
25780.1
28576.4
-18149.4
-13378.4
-11967.3
-7910.87
-6096.94
-2580.49
-610.573
2534.72
4531.01
7420.52
9362.11
12081.1
13906.5
16528.8
18177.1
20780.8
22167.7
24845.7
25824.6
28623.9
-18099.1
-13322.8
-11915.8
-7856.35
-6046.33
-2527.44
-560.714
2586.29
4580.08
7470.72
9410.31
12130.1
13953.7
16576.8
18223.2
20827.8
22212.8
24892
25868.9
28671.1
-18049.1
-13267.5
-11864.7
-7802.11
-5995.98
-2474.68
-511.104
2637.56
4628.91
7520.63
9458.26
12178.8
14000.7
16624.5
18269.2
20874.6
22257.6
24938.1
25912.9
28718
-17999.4
-13212.4
-11813.8
-7748.14
-5945.89
-2422.2
-461.745
2688.54
4677.5
7570.23
9505.98
12227.2
14047.5
16671.9
18314.8
20921.2
22302.2
24983.9
25956.7
28764.7
-17950
-13157.6
-11763.2
-7694.46
-5896.07
-2370.02
-412.637
2739.21
4725.85
7619.53
9553.46
12275.3
14094
16719
18360.2
20967.4
22346.5
25029.4
26000.2
28811.2
-17900.8
-13103.1
-11712.9
-7641.07
-5846.51
-2318.14
-363.781
2789.58
4773.95
7668.53
9600.69
12323.1
14140.2
16765.8
18405.4
21013.4
22390.5
25074.6
26043.4
28857.4
-17851.9
-13048.8
-11662.9
-7587.96
-5797.22
-2266.56
-315.178
2839.65
4821.81
7717.22
9647.69
12370.6
14186.2
16812.3
18450.3
21059.1
22434.3
25119.6
26086.3
28903.3
-17803.4
-12994.8
-11613.1
-7535.14
-5748.2
-2215.27
-266.829
2889.41
4869.42
7765.6
9694.44
12417.8
14232
16858.5
18495
21104.5
22477.9
25164.3
26129
28949
-17755.1
-12941.1
-11563.7
-7482.61
-5699.44
-2164.29
-218.733
2938.86
4916.79
7813.67
9740.96
12464.7
14277.5
16904.4
18539.4
21149.6
22521.2
25208.8
26171.4
28994.5
-17707.1
-12887.7
-11514.5
-7430.37
-5650.95
-2113.61
-170.892
2988
4963.92
7861.43
9787.23
12511.2
14322.8
16950.1
18583.6
21194.5
22564.2
25253
26213.6
29039.7
-17659.4
-12834.5
-11465.6
-7378.43
-5602.74
-2063.24
-123.306
3036.82
5010.8
7908.87
9833.26
12557.5
14367.9
16995.4
18627.5
21239
22607
25296.9
26255.5
29084.6
-17612
-12781.7
-11417
-7326.78
-5554.79
-2013.18
-75.9754
3085.33
5057.43
7956
9879.05
12603.5
14412.7
17040.4
18671.2
21283.3
22649.5
25340.6
26297.1
29129.3
-17565
-12729.1
-11368.7
-7275.44
-5507.11
-1963.42
-28.8998
3133.52
5103.82
8002.81
9924.59
12649.1
14457.2
17085.2
18714.7
21327.3
22691.8
25383.9
26338.4
29173.7
-17518.2
-12676.8
-11320.7
-7224.39
-5459.71
-1913.98
17.9201
3181.4
5149.96
8049.3
9969.9
12694.5
14501.5
17129.6
18757.8
21371
22733.8
25427.1
26379.5
29217.9
-17471.7
-12624.8
-11273
-7173.65
-5412.58
-1864.86
64.4844
3228.95
5195.85
8095.46
10015
12739.5
14545.6
17173.7
18800.8
21414.4
22775.5
25469.9
26420.3
29261.8
-17425.5
-12573
-11225.5
-7123.21
-5365.71
-1816.05
110.793
3276.17
5241.51
8141.3
10059.8
12784.2
14589.4
17217.5
18843.4
21457.6
22817
25512.5
26460.9
29305.4
-17379.6
-12521.6
-11178.4
-7073.08
-5319.12
-1767.56
156.846
3323.07
5286.91
8186.82
10104.4
12828.6
14633
17261
18885.9
21500.4
22858.2
25554.8
26501.2
29348.8
-17334
-12470.4
-11131.6
-7023.25
-5272.81
-1719.4
202.643
3369.64
5332.07
8232.01
10148.7
12872.6
14676.3
17304.3
18928
21543
22899.2
25596.8
26541.2
29392
-17288.7
-12419.6
-11085
-6973.74
-5226.76
-1671.55
248.184
3415.88
5376.98
8276.86
10192.8
12916.4
14719.4
17347.2
18970
21585.2
22939.9
25638.6
26580.9
29434.9
-17243.7
-12369
-11038.8
-6924.53
-5180.99
-1624.03
293.47
3461.79
5421.65
8321.39
10236.6
12959.8
14762.3
17389.7
19011.6
21627.2
22980.3
25680.1
26620.3
29477.5
-17199
-12318.8
-10992.8
-6875.64
-5135.49
-1576.84
338.5
3507.37
5466.08
8365.58
10280.3
13002.9
14804.9
17432
19053.1
21668.9
23020.5
25721.3
26659.5
29519.8
-17154.7
-12268.8
-10947.1
-6827.06
-5090.26
-1529.98
383.275
3552.61
5510.25
8409.44
10323.6
13045.7
14847.2
17474
19094.2
21710.3
23060.4
25762.2
26698.4
29561.9
-17110.6
-12219.1
-10901.8
-6778.8
-5045.31
-1483.45
427.795
3597.51
5554.19
8452.96
10366.8
13088.1
14889.3
17515.6
19135.1
21751.3
23100
25802.9
26737
29603.7
-17066.8
-12169.8
-10856.7
-6730.86
-5000.62
-1437.25
472.061
3642.07
5597.88
8496.14
10409.6
13130.2
14931.2
17557
19175.8
21792.1
23139.4
25843.2
26775.4
29645.3
-17023.4
-12120.7
-10811.9
-6683.24
-4956.21
-1391.38
516.073
3686.28
5641.32
8538.98
10452.3
13172
14972.8
17598
19216.2
21832.6
23178.5
25883.3
26813.4
29686.6
-16980.2
-12071.9
-10767.4
-6635.93
-4912.07
-1345.85
559.831
3730.16
5684.53
8581.48
10494.7
13213.4
15014.2
17638.7
19256.3
21872.8
23217.4
25923.2
26851.2
29727.7
-16937.4
-12023.4
-10723.2
-6588.95
-4868.21
-1300.66
603.335
3773.69
5727.49
8623.63
10536.9
13254.5
15055.3
17679.1
19296.2
21912.7
23256
25962.7
26888.8
29768.4
-16894.8
-11975.3
-10679.3
-6542.3
-4824.61
-1255.81
646.587
3816.87
5770.2
8665.44
10578.8
13295.3
15096.2
17719.1
19335.9
21952.3
23294.3
26002
26926
29808.9
-16852.6
-11927.4
-10635.7
-6495.97
-4781.28
-1211.31
689.587
3859.7
5812.68
8706.9
10620.5
13335.7
15136.9
17758.9
19375.3
21991.5
23332.4
26040.9
26963
29849.2
-16810.7
-11879.8
-10592.4
-6449.97
-4738.23
-1167.15
732.335
3902.17
5854.91
8748
10661.9
13375.8
15177.3
17798.3
19414.4
22030.5
23370.2
26079.6
26999.6
29889.1
-16769
-11832.6
-10549.4
-6404.3
-4695.44
-1123.33
774.833
3944.3
5896.9
8788.76
10703.1
13415.6
15217.4
17837.4
19453.3
22069.2
23407.7
26118
27036
29928.8
-16727.7
-11785.6
-10506.7
-6358.96
-4652.93
-1079.87
817.08
3986.06
5938.65
8829.16
10744.1
13455
15257.3
17876.1
19491.9
22107.6
23445
26156.2
27072.1
29968.3
-16686.7
-11739
-10464.3
-6313.96
-4610.68
-1036.75
859.078
4027.47
5980.17
8869.21
10784.8
13494
15297
17914.6
19530.3
22145.6
23481.9
26194
27108
30007.4
-16646
-11692.6
-10422.2
-6269.29
-4568.69
-993.989
900.827
4068.52
6021.44
8908.9
10825.3
13532.8
15336.4
17952.7
19568.4
22183.4
23518.7
26231.6
27143.5
30046.3
-16605.7
-11646.6
-10380.4
-6224.96
-4526.98
-951.582
942.329
4109.21
6062.47
8948.23
10865.6
13571.1
15375.6
17990.5
19606.3
22220.8
23555.1
26268.9
27178.8
30085
-16565.6
-11600.9
-10338.8
-6180.96
-4485.53
-909.533
983.585
4149.53
6103.27
8987.2
10905.6
13609.2
15414.5
18027.9
19643.9
22258
23591.3
26305.8
27213.8
30123.3
-16525.8
-11555.5
-10297.6
-6137.31
-4444.35
-867.843
1024.59
4189.48
6143.83
9025.81
10945.3
13646.8
15453.2
18065
19681.2
22294.8
23627.2
26342.5
27248.5
30161.4
-16486.3
-11510.4
-10256.7
-6094
-4403.43
-826.514
1065.36
4229.07
6184.16
9064.06
10984.9
13684.2
15491.6
18101.8
19718.3
22331.3
23662.9
26378.9
27282.9
30199.2
-16447.2
-11465.7
-10216
-6051.03
-4362.77
-785.549
1105.88
4268.29
6224.25
9101.93
11024.2
13721.1
15529.8
18138.3
19755.2
22367.5
23698.3
26415.1
27317
30236.7
-16408.3
-11421.2
-10175.6
-6008.41
-4322.37
-744.95
1146.16
4307.13
6264.1
9139.45
11063.3
13757.8
15567.8
18174.4
19791.7
22403.4
23733.4
26450.9
27350.9
30274
-16369.8
-11377.1
-10135.6
-5966.14
-4282.24
-704.719
1186.2
4345.6
6303.72
9176.59
11102.1
13794
15605.5
18210.2
19828.1
22439
23768.2
26486.4
27384.4
30311
-16331.6
-11333.2
-10095.8
-5924.22
-4242.36
-664.859
1226
4383.7
6343.11
9213.36
11140.7
13829.9
15642.9
18245.6
19864.1
22474.3
23802.8
26521.7
27417.7
30347.7
-16293.6
-11289.7
-10056.3
-5882.65
-4202.74
-625.371
1265.56
4421.41
6382.27
9249.76
11179.1
13865.5
15680.2
18280.7
19900
22509.2
23837.1
26556.7
27450.7
30384.1
-16256
-11246.6
-10017.1
-5841.43
-4163.38
-586.258
1304.88
4458.75
6421.2
9285.79
11217.2
13900.7
15717.2
18315.5
19935.5
22543.9
23871.2
26591.3
27483.4
30420.3
-16218.7
-11203.7
-9978.19
-5800.57
-4124.27
-547.522
1343.97
4495.7
6459.9
9321.44
11255.1
13935.5
15753.9
18350
19970.8
22578.2
23904.9
26625.7
27515.8
30456.2
-16181.7
-11161.2
-9939.56
-5760.07
-4085.42
-509.166
1382.83
4532.27
6498.38
9356.72