/*--------------------------------*- C++ -*----------------------------------*\
  =========                 |
  \\      /  F ield         | OpenFOAM: The Open Source CFD Toolbox
   \\    /   O peration     | Website:  https://openfoam.org
    \\  /    A nd           | Version:  8
     \\/     M anipulation  |
\*---------------------------------------------------------------------------*/
FoamFile
{
    version     2.0;
    format      ascii;
    class       volVectorField;
    location    "700";
    object      U;
}
// * * * * * * * * * * * * * * * * * * * * * * * * * * * * * * * * * * * * * //

dimensions      [0 1 -1 0 0 0 0];

internalField   nonuniform List<vector> 
8400
(
(-13.7409 -0.0754707 -1.22493e-15)
(-13.7442 -0.0762119 -1.22735e-15)
(-13.7468 -0.0771562 -1.22952e-15)
(-13.7496 -0.0781847 -1.23569e-15)
(-13.7524 -0.0792619 -1.23916e-15)
(-13.7553 -0.0803771 -1.23789e-15)
(-13.7581 -0.0815272 -1.239e-15)
(-13.7609 -0.0827122 -1.24032e-15)
(-13.7637 -0.0839332 -1.24211e-15)
(-13.7664 -0.0851919 -1.24756e-15)
(-13.7691 -0.0864906 -1.25004e-15)
(-13.7718 -0.0878316 -1.24843e-15)
(-13.7744 -0.0892181 -1.2492e-15)
(-13.7769 -0.0906532 -1.25031e-15)
(-13.7794 -0.0921405 -1.25345e-15)
(-13.7818 -0.0936844 -1.25965e-15)
(-13.784 -0.0952892 -1.25795e-15)
(-13.7862 -0.0969603 -1.25641e-15)
(-13.7882 -0.0987033 -1.25718e-15)
(-13.79 -0.100525 -1.25826e-15)
(-13.7916 -0.102433 -1.25966e-15)
(-13.7931 -0.104436 -1.26116e-15)
(-13.7942 -0.106542 -1.26271e-15)
(-13.7951 -0.108763 -1.26427e-15)
(-13.7956 -0.111115 -1.2657e-15)
(-13.7957 -0.113616 -1.26743e-15)
(-13.7954 -0.116293 -1.26522e-15)
(-13.7944 -0.119165 -1.26524e-15)
(-13.7928 -0.122248 -1.26994e-15)
(-13.7904 -0.125564 -1.27252e-15)
(-13.787 -0.12914 -1.27491e-15)
(-13.7825 -0.133007 -1.27742e-15)
(-13.7768 -0.137205 -1.27581e-15)
(-13.7697 -0.141775 -1.27661e-15)
(-13.7609 -0.146769 -1.28216e-15)
(-13.7501 -0.152248 -1.28562e-15)
(-13.7371 -0.158282 -1.28898e-15)
(-13.7215 -0.164958 -1.29239e-15)
(-13.7029 -0.172379 -1.29591e-15)
(-13.6807 -0.180674 -1.29847e-15)
(-13.6543 -0.190001 -1.30204e-15)
(-13.6231 -0.200564 -1.30343e-15)
(-13.5862 -0.212626 -1.3073e-15)
(-13.5424 -0.226543 -1.31614e-15)
(-13.4904 -0.242816 -1.32333e-15)
(-13.4286 -0.262162 -1.32995e-15)
(-13.3555 -0.285555 -1.33368e-15)
(-13.2673 -0.314332 -1.34213e-15)
(-13.1546 -0.35105 -1.36028e-15)
(-13.0056 -0.401619 -1.37538e-15)
(-15.7298 0.0789192 -6.06812e-16)
(-15.7331 0.079954 -6.06847e-16)
(-15.7354 0.0809787 -6.0692e-16)
(-15.7377 0.0820183 -6.10352e-16)
(-15.74 0.0830616 -6.12512e-16)
(-15.7423 0.0841123 -6.1121e-16)
(-15.7446 0.0851741 -6.10093e-16)
(-15.7468 0.0862503 -6.08646e-16)
(-15.7491 0.0873429 -6.09917e-16)
(-15.7513 0.0884535 -6.14276e-16)
(-15.7535 0.0895831 -6.15489e-16)
(-15.7556 0.0907327 -6.13052e-16)
(-15.7577 0.0919025 -6.10087e-16)
(-15.7598 0.0930931 -6.05351e-16)
(-15.7618 0.0943045 -6.08974e-16)
(-15.7636 0.0955366 -6.24773e-16)
(-15.7654 0.0967891 -6.25673e-16)
(-15.7671 0.0980614 -6.22376e-16)
(-15.7687 0.0993526 -6.19813e-16)
(-15.7701 0.100661 -6.17407e-16)
(-15.7713 0.101985 -6.1505e-16)
(-15.7724 0.103322 -6.12687e-16)
(-15.7732 0.10467 -6.10271e-16)
(-15.7737 0.106024 -6.07788e-16)
(-15.7739 0.107373 -6.05292e-16)
(-15.7738 0.108701 -6.0324e-16)
(-15.7732 0.110001 -5.98243e-16)
(-15.7722 0.111273 -5.93834e-16)
(-15.7707 0.112513 -5.9214e-16)
(-15.7686 0.11371 -5.8964e-16)
(-15.7659 0.114853 -5.86753e-16)
(-15.7623 0.115924 -5.83672e-16)
(-15.7578 0.116905 -5.77939e-16)
(-15.7523 0.117772 -5.72885e-16)
(-15.7456 0.118498 -5.70396e-16)
(-15.7374 0.119047 -5.66956e-16)
(-15.7277 0.119381 -5.63086e-16)
(-15.7161 0.119447 -5.59e-16)
(-15.7023 0.119186 -5.52376e-16)
(-15.686 0.118517 -5.47301e-16)
(-15.6668 0.11734 -5.44334e-16)
(-15.6443 0.11552 -5.36713e-16)
(-15.6179 0.112876 -5.29674e-16)
(-15.587 0.109143 -5.25197e-16)
(-15.5508 0.103915 -5.17193e-16)
(-15.5087 0.09656 -5.10495e-16)
(-15.46 0.0862396 -5.03195e-16)
(-15.4035 0.0718304 -4.93384e-16)
(-15.3352 0.0507319 -4.85958e-16)
(-15.2505 0.015889 -4.79195e-16)
(-16.1252 -0.066374 -9.49004e-16)
(-16.1234 -0.0667894 -9.49663e-16)
(-16.1225 -0.067503 -9.50246e-16)
(-16.1216 -0.0683368 -9.52663e-16)
(-16.1209 -0.0692398 -9.54311e-16)
(-16.1201 -0.0701917 -9.53461e-16)
(-16.1192 -0.0711844 -9.52948e-16)
(-16.1184 -0.072215 -9.52648e-16)
(-16.1175 -0.0732829 -9.52499e-16)
(-16.1167 -0.0743891 -9.5412e-16)
(-16.1157 -0.0755352 -9.54875e-16)
(-16.1147 -0.0767238 -9.53085e-16)
(-16.1137 -0.077958 -9.51381e-16)
(-16.1126 -0.0792417 -9.49367e-16)
(-16.1114 -0.0805794 -9.47379e-16)
(-16.1102 -0.0819763 -9.48504e-16)
(-16.1089 -0.0834384 -9.4903e-16)
(-16.1074 -0.0849724 -9.47518e-16)
(-16.1058 -0.0865864 -9.46022e-16)
(-16.1041 -0.0882895 -9.44645e-16)
(-16.1022 -0.0900926 -9.43305e-16)
(-16.1001 -0.0920083 -9.4194e-16)
(-16.0978 -0.0940503 -9.40505e-16)
(-16.0952 -0.0962395 -9.39036e-16)
(-16.0923 -0.0985919 -9.37533e-16)
(-16.0891 -0.101126 -9.36104e-16)
(-16.0854 -0.103871 -9.32752e-16)
(-16.0813 -0.10686 -9.29936e-16)
(-16.0766 -0.110129 -9.29477e-16)
(-16.0714 -0.113715 -9.28736e-16)
(-16.0653 -0.117663 -9.27846e-16)
(-16.0585 -0.122023 -9.27026e-16)
(-16.0507 -0.126853 -9.2435e-16)
(-16.0418 -0.13222 -9.22293e-16)
(-16.0316 -0.138202 -9.22776e-16)
(-16.02 -0.144889 -9.23183e-16)
(-16.0066 -0.152384 -9.23696e-16)
(-15.9912 -0.160808 -9.24462e-16)
(-15.9736 -0.170302 -9.25576e-16)
(-15.9533 -0.181031 -9.26233e-16)
(-15.9299 -0.193193 -9.28168e-16)
(-15.9029 -0.207019 -9.30211e-16)
(-15.8719 -0.222791 -9.33475e-16)
(-15.8361 -0.240858 -9.4021e-16)
(-15.7948 -0.261677 -9.4783e-16)
(-15.7473 -0.285844 -9.55984e-16)
(-15.6929 -0.314039 -9.64494e-16)
(-15.6307 -0.347011 -9.768e-16)
(-15.5587 -0.386229 -9.95964e-16)
(-15.4755 -0.435415 -1.01861e-15)
(-16.5748 0.0696471 1.51424e-16)
(-16.576 0.0702815 1.51905e-16)
(-16.576 0.0710261 1.52386e-16)
(-16.5758 0.0718009 1.51111e-16)
(-16.5755 0.0725729 1.5039e-16)
(-16.5752 0.073335 1.51899e-16)
(-16.5748 0.074086 1.53067e-16)
(-16.5745 0.074826 1.54008e-16)
(-16.5741 0.0755546 1.54844e-16)
(-16.5737 0.0762708 1.5401e-16)
(-16.5733 0.0769728 1.53958e-16)
(-16.5728 0.077658 1.56256e-16)
(-16.5724 0.0783232 1.58447e-16)
(-16.5718 0.0789643 1.60266e-16)
(-16.5713 0.0795763 1.61363e-16)
(-16.5706 0.0801533 1.61484e-16)
(-16.5699 0.0806882 1.62038e-16)
(-16.5691 0.081173 1.64645e-16)
(-16.5682 0.081598 1.66992e-16)
(-16.5672 0.0819513 1.69156e-16)
(-16.5661 0.0822184 1.71218e-16)
(-16.5648 0.0823858 1.7322e-16)
(-16.5634 0.082434 1.75184e-16)
(-16.5617 0.0823491 1.77153e-16)
(-16.5599 0.0821104 1.79128e-16)
(-16.5578 0.0816941 1.81005e-16)
(-16.5554 0.0810733 1.84716e-16)
(-16.5527 0.0802148 1.87951e-16)
(-16.5496 0.0790788 1.88956e-16)
(-16.5461 0.07762 1.90268e-16)
(-16.5421 0.0757853 1.91804e-16)
(-16.5375 0.0735135 1.9336e-16)
(-16.5322 0.0707327 1.96798e-16)
(-16.5261 0.0673596 1.99803e-16)
(-16.5191 0.0632964 2.00549e-16)
(-16.511 0.0584287 2.01499e-16)
(-16.5017 0.052622 2.02563e-16)
(-16.491 0.0457178 2.03463e-16)
(-16.4787 0.0375282 2.06059e-16)
(-16.4645 0.0278292 2.0701e-16)
(-16.4481 0.0163525 2.05692e-16)
(-16.4293 0.00277469 2.07462e-16)
(-16.4077 -0.0132966 2.08448e-16)
(-16.3828 -0.0323455 2.0647e-16)
(-16.3543 -0.0549794 2.05919e-16)
(-16.3217 -0.0819461 2.03092e-16)
(-16.2848 -0.11411 1.99354e-16)
(-16.2431 -0.152469 1.95822e-16)
(-16.196 -0.19842 1.8845e-16)
(-16.1431 -0.254115 1.80034e-16)
(-16.4264 -0.0554564 4.85493e-16)
(-16.4232 -0.0558747 4.86829e-16)
(-16.4218 -0.056412 4.88157e-16)
(-16.4207 -0.0570068 4.87642e-16)
(-16.4195 -0.0576376 4.87589e-16)
(-16.4184 -0.0582973 4.8969e-16)
(-16.4173 -0.0589833 4.91408e-16)
(-16.4162 -0.0596944 4.92783e-16)
(-16.415 -0.0604306 4.93984e-16)
(-16.4138 -0.0611928 4.93398e-16)
(-16.4126 -0.0619821 4.93342e-16)
(-16.4113 -0.0628007 4.95585e-16)
(-16.4101 -0.0636511 4.9771e-16)
(-16.4087 -0.0645367 4.99766e-16)
(-16.4073 -0.0654616 5.0181e-16)
(-16.4059 -0.0664307 5.01867e-16)
(-16.4044 -0.0674499 5.0228e-16)
(-16.4028 -0.0685261 5.04978e-16)
(-16.4011 -0.0696686 5.07169e-16)
(-16.3993 -0.0708879 5.09143e-16)
(-16.3974 -0.0721937 5.11005e-16)
(-16.3953 -0.073603 5.12822e-16)
(-16.3931 -0.0751341 5.14654e-16)
(-16.3906 -0.076809 5.16525e-16)
(-16.388 -0.0786533 5.1846e-16)
(-16.385 -0.0806952 5.20367e-16)
(-16.3818 -0.0829669 5.24188e-16)
(-16.3781 -0.085506 5.27646e-16)
(-16.3741 -0.0883558 5.28984e-16)
(-16.3696 -0.0915662 5.30755e-16)
(-16.3646 -0.0951948 5.32911e-16)
(-16.3589 -0.0993086 5.35273e-16)
(-16.3525 -0.103985 5.39748e-16)
(-16.3452 -0.109314 5.43987e-16)
(-16.337 -0.115401 5.46204e-16)
(-16.3276 -0.122366 5.49e-16)
(-16.317 -0.130351 5.52301e-16)
(-16.3049 -0.13952 5.56055e-16)
(-16.2911 -0.150067 5.60305e-16)
(-16.2753 -0.162217 5.66026e-16)
(-16.2573 -0.176239 5.71633e-16)
(-16.2367 -0.192448 5.78467e-16)
(-16.2133 -0.211224 5.85816e-16)
(-16.1866 -0.233027 5.91625e-16)
(-16.1562 -0.258423 5.98775e-16)
(-16.1219 -0.288094 6.08103e-16)
(-16.0832 -0.322851 6.20284e-16)
(-16.04 -0.363681 6.32846e-16)
(-15.9917 -0.411902 6.43311e-16)
(-15.9379 -0.469263 6.56432e-16)
(-16.5738 0.0536446 4.93746e-17)
(-16.5753 0.0539869 4.96014e-17)
(-16.5752 0.0544051 4.98687e-17)
(-16.5748 0.0548346 4.83344e-17)
(-16.5743 0.0552497 4.72823e-17)
(-16.5737 0.0556411 4.84479e-17)
(-16.5731 0.0560043 4.92651e-17)
(-16.5725 0.0563361 4.97546e-17)
(-16.5719 0.0566333 5.01177e-17)
(-16.5712 0.0568919 4.86504e-17)
(-16.5706 0.0571074 4.76712e-17)
(-16.5699 0.0572744 4.88814e-17)
(-16.5692 0.0573863 4.99908e-17)
(-16.5685 0.0574356 5.09428e-17)
(-16.5677 0.0574133 5.20081e-17)
(-16.5669 0.0573088 5.10854e-17)
(-16.566 0.0571105 5.07689e-17)
(-16.565 0.0568056 5.2403e-17)
(-16.564 0.05638 5.37012e-17)
(-16.5629 0.0558182 5.47857e-17)
(-16.5618 0.055101 5.57229e-17)
(-16.5605 0.0542078 5.65965e-17)
(-16.5591 0.0531152 5.74195e-17)
(-16.5575 0.051796 5.82368e-17)
(-16.5558 0.0502178 5.90408e-17)
(-16.5539 0.0483433 5.97544e-17)
(-16.5518 0.0461296 6.22616e-17)
(-16.5494 0.043527 6.42754e-17)
(-16.5467 0.0404786 6.40583e-17)
(-16.5437 0.036919 6.41789e-17)
(-16.5402 0.0327733 6.45308e-17)
(-16.5363 0.0279552 6.49401e-17)
(-16.5319 0.0223656 6.72862e-17)
(-16.5268 0.0158907 6.92324e-17)
(-16.521 0.00839957 6.89243e-17)
(-16.5144 -0.000258154 6.89333e-17)
(-16.5069 -0.0102553 6.91256e-17)
(-16.4982 -0.0217904 6.9279e-17)
(-16.4882 -0.0350912 7.12167e-17)
(-16.4769 -0.0504193 7.16911e-17)
(-16.4638 -0.0680741 7.01178e-17)
(-16.4489 -0.0883983 7.18371e-17)
(-16.4319 -0.111783 7.29933e-17)
(-16.4125 -0.138677 7.14575e-17)
(-16.3906 -0.169588 7.16621e-17)
(-16.366 -0.205085 6.97874e-17)
(-16.3385 -0.245784 6.75554e-17)
(-16.3082 -0.292355 6.62555e-17)
(-16.2751 -0.345567 6.18793e-17)
(-16.2391 -0.406335 5.52609e-17)
(-16.4903 -0.0402673 1.33751e-16)
(-16.4867 -0.0405204 1.3397e-16)
(-16.4853 -0.0408257 1.34209e-16)
(-16.4843 -0.0411569 1.32534e-16)
(-16.4833 -0.0415055 1.31302e-16)
(-16.4824 -0.0418696 1.32323e-16)
(-16.4814 -0.0422491 1.33001e-16)
(-16.4804 -0.0426444 1.33421e-16)
(-16.4795 -0.0430564 1.33706e-16)
(-16.4785 -0.0434862 1.31989e-16)
(-16.4775 -0.0439357 1.30591e-16)
(-16.4764 -0.0444074 1.31393e-16)
(-16.4754 -0.0449042 1.32078e-16)
(-16.4743 -0.04543 1.32584e-16)
(-16.4732 -0.0459907 1.32986e-16)
(-16.472 -0.0465919 1.31661e-16)
(-16.4708 -0.0472413 1.30716e-16)
(-16.4696 -0.0479498 1.31973e-16)
(-16.4682 -0.0487293 1.32915e-16)
(-16.4669 -0.049594 1.33616e-16)
(-16.4654 -0.0505609 1.34199e-16)
(-16.4638 -0.0516497 1.34708e-16)
(-16.4621 -0.0528827 1.35203e-16)
(-16.4603 -0.0542862 1.357e-16)
(-16.4583 -0.0558906 1.36231e-16)
(-16.4562 -0.0577317 1.36701e-16)
(-16.4538 -0.0598509 1.39049e-16)
(-16.4513 -0.0622968 1.40986e-16)
(-16.4484 -0.065126 1.40777e-16)
(-16.4452 -0.0684044 1.40997e-16)
(-16.4417 -0.0722086 1.41598e-16)
(-16.4378 -0.0766278 1.42414e-16)
(-16.4333 -0.0817655 1.45355e-16)
(-16.4283 -0.0877422 1.48097e-16)
(-16.4227 -0.0946973 1.48866e-16)
(-16.4163 -0.102793 1.50256e-16)
(-16.4091 -0.112216 1.52227e-16)
(-16.4009 -0.123184 1.54707e-16)
(-16.3916 -0.135947 1.57765e-16)
(-16.3809 -0.150795 1.61498e-16)
(-16.3688 -0.168058 1.66578e-16)
(-16.3551 -0.18812 1.73802e-16)
(-16.3394 -0.211414 1.80364e-16)
(-16.3216 -0.238434 1.86598e-16)
(-16.3015 -0.269738 1.94073e-16)
(-16.2789 -0.305937 2.01915e-16)
(-16.2536 -0.347691 2.13649e-16)
(-16.2255 -0.395681 2.27559e-16)
(-16.1946 -0.450605 2.40899e-16)
(-16.1605 -0.513195 2.56884e-16)
(-16.5474 0.034136 -1.98427e-16)
(-16.5491 0.0342773 -1.98419e-16)
(-16.549 0.0344351 -1.98307e-16)
(-16.5486 0.0345802 -2.00228e-16)
(-16.548 0.0347004 -2.01831e-16)
(-16.5473 0.0347896 -2.0106e-16)
(-16.5467 0.0348436 -2.00518e-16)
(-16.546 0.0348585 -2.00196e-16)
(-16.5453 0.0348299 -2.00022e-16)
(-16.5446 0.034753 -2.01819e-16)
(-16.5439 0.034622 -2.03461e-16)
(-16.5432 0.0344309 -2.02883e-16)
(-16.5425 0.0341721 -2.02535e-16)
(-16.5417 0.0338368 -2.02788e-16)
(-16.5409 0.0334165 -2.0282e-16)
(-16.5401 0.0329001 -2.05158e-16)
(-16.5392 0.0322753 -2.06759e-16)
(-16.5383 0.0315283 -2.05671e-16)
(-16.5374 0.0306435 -2.05443e-16)
(-16.5364 0.0296024 -2.05532e-16)
(-16.5353 0.0283836 -2.05859e-16)
(-16.5342 0.0269625 -2.06358e-16)
(-16.533 0.0253109 -2.07007e-16)
(-16.5317 0.0233965 -2.07781e-16)
(-16.5303 0.0211819 -2.08678e-16)
(-16.5288 0.0186244 -2.09796e-16)
(-16.5271 0.0156751 -2.09211e-16)
(-16.5253 0.0122776 -2.09264e-16)
(-16.5233 0.0083674 -2.1171e-16)
(-16.521 0.00387057 -2.13983e-16)
(-16.5186 -0.00129778 -2.16183e-16)
(-16.5158 -0.00723499 -2.18532e-16)
(-16.5126 -0.0140527 -2.19127e-16)
(-16.5091 -0.0218787 -2.20399e-16)
(-16.5052 -0.0308597 -2.24189e-16)
(-16.5007 -0.0411634 -2.27937e-16)
(-16.4956 -0.0529814 -2.31812e-16)
(-16.4899 -0.0665326 -2.35979e-16)
(-16.4833 -0.082066 -2.40658e-16)
(-16.4759 -0.0998644 -2.4307e-16)
(-16.4674 -0.120247 -2.48229e-16)
(-16.4578 -0.143574 -2.55369e-16)
(-16.4469 -0.170246 -2.60106e-16)
(-16.4346 -0.200706 -2.69603e-16)
(-16.4207 -0.23544 -2.81823e-16)
(-16.4052 -0.274964 -2.93193e-16)
(-16.388 -0.319813 -3.04937e-16)
(-16.369 -0.370508 -3.18168e-16)
(-16.3483 -0.427535 -3.37547e-16)
(-16.3257 -0.491369 -3.61827e-16)
(-16.5133 -0.0228056 2.55619e-16)
(-16.5096 -0.0229047 2.57379e-16)
(-16.5084 -0.0230203 2.59253e-16)
(-16.5074 -0.0231507 2.59095e-16)
(-16.5066 -0.023296 2.59244e-16)
(-16.5058 -0.0234571 2.61795e-16)
(-16.5049 -0.0236353 2.6412e-16)
(-16.5041 -0.0238323 2.66249e-16)
(-16.5033 -0.02405 2.68334e-16)
(-16.5025 -0.0242911 2.68489e-16)
(-16.5017 -0.0245588 2.68798e-16)
(-16.5008 -0.0248574 2.71344e-16)
(-16.5 -0.0251924 2.7352e-16)
(-16.4991 -0.0255699 2.75417e-16)
(-16.4983 -0.0259977 2.77488e-16)
(-16.4974 -0.0264848 2.77598e-16)
(-16.4965 -0.027042 2.78117e-16)
(-16.4955 -0.027682 2.80839e-16)
(-16.4946 -0.0284191 2.83164e-16)
(-16.4936 -0.0292704 2.85207e-16)
(-16.4926 -0.0302556 2.87062e-16)
(-16.4915 -0.0313979 2.88786e-16)
(-16.4904 -0.0327241 2.90426e-16)
(-16.4893 -0.0342654 2.91998e-16)
(-16.488 -0.0360584 2.9353e-16)
(-16.4867 -0.0381453 2.94919e-16)
(-16.4854 -0.0405755 2.98123e-16)
(-16.4839 -0.0434065 3.00806e-16)
(-16.4823 -0.0467047 3.01255e-16)
(-16.4805 -0.0505476 3.02042e-16)
(-16.4786 -0.0550247 3.03111e-16)
(-16.4765 -0.0602399 3.04279e-16)
(-16.4742 -0.0663134 3.07472e-16)
(-16.4716 -0.0733839 3.10305e-16)
(-16.4688 -0.0816117 3.11007e-16)
(-16.4655 -0.0911811 3.12225e-16)
(-16.4619 -0.102304 3.13862e-16)
(-16.4578 -0.115223 3.15735e-16)
(-16.4532 -0.130214 3.19768e-16)
(-16.448 -0.147592 3.22785e-16)
(-16.442 -0.167711 3.2425e-16)
(-16.4353 -0.190967 3.29587e-16)
(-16.4276 -0.217799 3.35332e-16)
(-16.4188 -0.248688 3.39526e-16)
(-16.4089 -0.28415 3.46725e-16)
(-16.3977 -0.324727 3.53342e-16)
(-16.3851 -0.37097 3.613e-16)
(-16.3711 -0.423399 3.72607e-16)
(-16.3556 -0.48248 3.83898e-16)
(-16.3382 -0.548653 3.99071e-16)
(-16.5218 0.0134111 3.99639e-18)
(-16.5237 0.0134138 5.18905e-18)
(-16.5235 0.0133959 6.4973e-18)
(-16.5231 0.0133543 5.88027e-18)
(-16.5224 0.0132875 5.64232e-18)
(-16.5218 0.0131934 7.84149e-18)
(-16.5211 0.0130696 9.82873e-18)
(-16.5204 0.0129131 1.16542e-17)
(-16.5197 0.0127206 1.35712e-17)
(-16.519 0.0124879 1.3589e-17)
(-16.5183 0.0122102 1.39e-17)
(-16.5176 0.011882 1.63218e-17)
(-16.5169 0.011497 1.84366e-17)
(-16.5162 0.0110477 2.03418e-17)
(-16.5154 0.0105254 2.2238e-17)
(-16.5147 0.00991987 2.21427e-17)
(-16.5139 0.0092192 2.24865e-17)
(-16.5131 0.00840959 2.49865e-17)
(-16.5123 0.00747501 2.70677e-17)
(-16.5115 0.00639687 2.88269e-17)
(-16.5107 0.00515366 3.03509e-17)
(-16.5098 0.0037205 3.16936e-17)
(-16.5089 0.00206863 3.28681e-17)
(-16.508 0.000164846 3.39081e-17)
(-16.5071 -0.00202922 3.47857e-17)
(-16.5061 -0.00455786 3.543e-17)
(-16.5051 -0.00747222 3.77165e-17)
(-16.504 -0.0108313 3.93426e-17)
(-16.5029 -0.0147033 3.85144e-17)
(-16.5017 -0.0191667 3.78549e-17)
(-16.5004 -0.0243121 3.72037e-17)
(-16.499 -0.0302439 3.63935e-17)
(-16.4976 -0.0370822 3.72563e-17)
(-16.496 -0.0449654 3.74038e-17)
(-16.4943 -0.0540524 3.49574e-17)
(-16.4925 -0.0645253 3.25332e-17)
(-16.4904 -0.076593 2.99276e-17)
(-16.4882 -0.0904937 2.69677e-17)
(-16.4857 -0.106498 2.35919e-17)
(-16.4829 -0.124914 2.06887e-17)
(-16.4798 -0.146086 1.63562e-17)
(-16.4763 -0.170399 1.18648e-17)
(-16.4724 -0.198279 6.19412e-18)
(-16.4679 -0.230187 -3.20134e-18)
(-16.4627 -0.266619 -1.36518e-17)
(-16.4568 -0.308085 -2.49404e-17)
(-16.4501 -0.355098 -3.69981e-17)
(-16.4424 -0.408125 -5.31753e-17)
(-16.4336 -0.46756 -7.73937e-17)
(-16.4232 -0.533742 -1.06526e-16)
(-16.5258 -0.00487014 3.62166e-16)
(-16.5223 -0.00484459 3.64596e-16)
(-16.5211 -0.00482216 3.67035e-16)
(-16.5203 -0.00481527 3.67575e-16)
(-16.5195 -0.00482897 3.68609e-16)
(-16.5188 -0.00486605 3.72024e-16)
(-16.5181 -0.0049291 3.75296e-16)
(-16.5174 -0.00502105 3.78465e-16)
(-16.5168 -0.00514543 3.81716e-16)
(-16.5161 -0.00530651 3.83082e-16)
(-16.5154 -0.00550931 3.84912e-16)
(-16.5147 -0.00575981 3.88994e-16)
(-16.514 -0.00606492 3.92794e-16)
(-16.5134 -0.00643264 3.96473e-16)
(-16.5127 -0.00687225 4.00168e-16)
(-16.5121 -0.00739449 4.02012e-16)
(-16.5114 -0.00801177 4.04363e-16)
(-16.5108 -0.00873841 4.08989e-16)
(-16.5102 -0.00959091 4.13305e-16)
(-16.5096 -0.0105883 4.17431e-16)
(-16.509 -0.0117527 4.21465e-16)
(-16.5084 -0.0131094 4.25452e-16)
(-16.5079 -0.0146878 4.2946e-16)
(-16.5074 -0.0165216 4.33476e-16)
(-16.5069 -0.01865 4.37568e-16)
(-16.5064 -0.021118 4.41586e-16)
(-16.5059 -0.0239777 4.47581e-16)
(-16.5055 -0.0272891 4.53116e-16)
(-16.5052 -0.0311216 4.5657e-16)
(-16.5048 -0.0355552 4.60517e-16)
(-16.5045 -0.0406822 4.64978e-16)
(-16.5043 -0.0466092 4.69683e-16)
(-16.5041 -0.0534591 4.7672e-16)
(-16.504 -0.0613733 4.83579e-16)
(-16.504 -0.0705149 4.88692e-16)
(-16.504 -0.0810714 4.94734e-16)
(-16.5042 -0.0932578 5.01736e-16)
(-16.5044 -0.107321 5.09514e-16)
(-16.5047 -0.123542 5.20247e-16)
(-16.5051 -0.14224 5.30721e-16)
(-16.5056 -0.163778 5.4057e-16)
(-16.5061 -0.188561 5.55713e-16)
(-16.5068 -0.21704 5.72714e-16)
(-16.5074 -0.249709 5.89788e-16)
(-16.5081 -0.287099 6.12229e-16)
(-16.5086 -0.329769 6.36948e-16)
(-16.509 -0.378284 6.66762e-16)
(-16.5091 -0.433181 7.04433e-16)
(-16.5087 -0.49493 7.47488e-16)
(-16.5075 -0.563942 7.98405e-16)
(-16.4909 -0.00694982 -4.8974e-16)
(-16.4926 -0.00706587 -4.9073e-16)
(-16.4924 -0.00722491 -4.91584e-16)
(-16.4919 -0.00741104 -4.94363e-16)
(-16.4913 -0.00761715 -4.96641e-16)
(-16.4906 -0.00784171 -4.96498e-16)
(-16.49 -0.00808521 -4.96569e-16)
(-16.4893 -0.0083492 -4.96785e-16)
(-16.4886 -0.00863596 -4.96967e-16)
(-16.4879 -0.00894844 -4.99008e-16)
(-16.4872 -0.00929028 -5.00496e-16)
(-16.4866 -0.00966587 -4.99691e-16)
(-16.4859 -0.0100805 -4.99189e-16)
(-16.4852 -0.0105403 -4.98869e-16)
(-16.4846 -0.0110529 -4.98514e-16)
(-16.4839 -0.0116268 -5.00691e-16)
(-16.4833 -0.0122726 -5.01968e-16)
(-16.4827 -0.0130022 -5.00453e-16)
(-16.4821 -0.01383 -4.99787e-16)
(-16.4815 -0.0147727 -4.9942e-16)
(-16.481 -0.0158497 -4.99292e-16)
(-16.4804 -0.0170839 -4.99342e-16)
(-16.48 -0.018502 -4.99605e-16)
(-16.4795 -0.0201352 -5.00037e-16)
(-16.4791 -0.0220196 -5.00738e-16)
(-16.4787 -0.0241977 -5.01762e-16)
(-16.4785 -0.0267187 -5.01285e-16)
(-16.4782 -0.0296399 -5.0165e-16)
(-16.4781 -0.0330283 -5.04804e-16)
(-16.4781 -0.0369612 -5.08007e-16)
(-16.4781 -0.0415288 -5.11631e-16)
(-16.4783 -0.0468358 -5.15802e-16)
(-16.4787 -0.0530034 -5.1887e-16)
(-16.4792 -0.060172 -5.23225e-16)
(-16.4799 -0.0685041 -5.30973e-16)
(-16.4809 -0.0781873 -5.39473e-16)
(-16.4821 -0.0894375 -5.49194e-16)
(-16.4835 -0.102503 -5.60364e-16)
(-16.4853 -0.117669 -5.73303e-16)
(-16.4874 -0.135258 -5.87238e-16)
(-16.4899 -0.155638 -6.04464e-16)
(-16.4928 -0.179222 -6.23878e-16)
(-16.496 -0.206471 -6.47238e-16)
(-16.4997 -0.237891 -6.77384e-16)
(-16.5036 -0.274028 -7.12012e-16)
(-16.5077 -0.315458 -7.51758e-16)
(-16.5119 -0.362768 -7.97365e-16)
(-16.5159 -0.416521 -8.53334e-16)
(-16.5192 -0.477205 -9.24665e-16)
(-16.5215 -0.545208 -1.01047e-15)
(-16.5366 0.0122422 9.89096e-16)
(-16.5334 0.012394 9.92175e-16)
(-16.5323 0.0125587 9.95227e-16)
(-16.5316 0.0127112 9.96474e-16)
(-16.531 0.0128418 9.98367e-16)
(-16.5304 0.012946 1.00258e-15)
(-16.5298 0.0130203 1.0066e-15)
(-16.5292 0.0130611 1.0105e-15)
(-16.5287 0.0130641 1.01453e-15)
(-16.5281 0.0130242 1.01674e-15)
(-16.5276 0.0129356 1.01962e-15)
(-16.5271 0.0127917 1.0249e-15)
(-16.5266 0.0125848 1.02995e-15)
(-16.5261 0.0123063 1.03495e-15)
(-16.5256 0.0119461 1.04009e-15)
(-16.5252 0.011493 1.04349e-15)
(-16.5248 0.0109338 1.04759e-15)
(-16.5245 0.0102538 1.05417e-15)
(-16.5241 0.00943574 1.06059e-15)
(-16.5239 0.00846022 1.06701e-15)
(-16.5237 0.00730481 1.07354e-15)
(-16.5236 0.00594386 1.08025e-15)
(-16.5235 0.00434796 1.08721e-15)
(-16.5236 0.00248337 1.09442e-15)
(-16.5237 0.000311397 1.10198e-15)
(-16.524 -0.00221241 1.10971e-15)
(-16.5244 -0.00513906 1.11974e-15)
(-16.525 -0.0085272 1.12957e-15)
(-16.5258 -0.0124442 1.13765e-15)
(-16.5268 -0.0169675 1.14653e-15)
(-16.5281 -0.0221862 1.15632e-15)
(-16.5297 -0.0282029 1.1667e-15)
(-16.5316 -0.0351355 1.17985e-15)
(-16.5339 -0.0431199 1.19331e-15)
(-16.5366 -0.0523126 1.20555e-15)
(-16.5399 -0.0628938 1.21923e-15)
(-16.5437 -0.075071 1.23451e-15)
(-16.5483 -0.0890829 1.25124e-15)
(-16.5535 -0.105204 1.2718e-15)
(-16.5596 -0.12375 1.29299e-15)
(-16.5667 -0.145082 1.31468e-15)
(-16.5748 -0.169612 1.34295e-15)
(-16.5841 -0.197809 1.37475e-15)
(-16.5945 -0.230203 1.40857e-15)
(-16.6062 -0.26738 1.45023e-15)
(-16.6193 -0.309984 1.4971e-15)
(-16.6335 -0.358705 1.55273e-15)
(-16.6487 -0.414252 1.62068e-15)
(-16.6647 -0.477307 1.69936e-15)
(-16.6811 -0.548446 1.79507e-15)
(-16.4412 -0.0256574 -7.2566e-16)
(-16.4426 -0.0259236 -7.28542e-16)
(-16.4423 -0.0262619 -7.3137e-16)
(-16.4418 -0.0266352 -7.36e-16)
(-16.4411 -0.0270267 -7.40034e-16)
(-16.4404 -0.0274319 -7.41638e-16)
(-16.4397 -0.0278502 -7.43539e-16)
(-16.439 -0.0282825 -7.45539e-16)
(-16.4383 -0.0287308 -7.47515e-16)
(-16.4376 -0.0291975 -7.51274e-16)
(-16.4369 -0.0296855 -7.54413e-16)
(-16.4362 -0.0301985 -7.55211e-16)
(-16.4356 -0.0307407 -7.56284e-16)
(-16.435 -0.0313172 -7.57504e-16)
(-16.4344 -0.031934 -7.58647e-16)
(-16.4339 -0.0325982 -7.61676e-16)
(-16.4333 -0.0333182 -7.641e-16)
(-16.4329 -0.034104 -7.64207e-16)
(-16.4325 -0.0349673 -7.64637e-16)
(-16.4321 -0.0359218 -7.65308e-16)
(-16.4318 -0.0369839 -7.66108e-16)
(-16.4316 -0.0381724 -7.67037e-16)
(-16.4315 -0.0395099 -7.68076e-16)
(-16.4315 -0.0410224 -7.69244e-16)
(-16.4316 -0.0427408 -7.70606e-16)
(-16.4319 -0.044701 -7.72281e-16)
(-16.4323 -0.046945 -7.72401e-16)
(-16.4329 -0.0495221 -7.73395e-16)
(-16.4338 -0.0524898 -7.77197e-16)
(-16.4348 -0.0559155 -7.8113e-16)
(-16.4362 -0.0598776 -7.85556e-16)
(-16.4379 -0.0644681 -7.90714e-16)
(-16.44 -0.0697944 -7.94919e-16)
(-16.4426 -0.0759818 -8.00712e-16)
(-16.4456 -0.083177 -8.10248e-16)
(-16.4493 -0.0915513 -8.20972e-16)
(-16.4535 -0.101305 -8.33473e-16)
(-16.4586 -0.112672 -8.4813e-16)
(-16.4645 -0.125927 -8.65483e-16)
(-16.4713 -0.141389 -8.84944e-16)
(-16.4793 -0.15943 -9.09059e-16)
(-16.4884 -0.180484 -9.36961e-16)
(-16.4988 -0.205054 -9.70635e-16)
(-16.5105 -0.233721 -1.01322e-15)
(-16.5236 -0.267144 -1.06332e-15)
(-16.5381 -0.306059 -1.12191e-15)
(-16.5537 -0.351271 -1.1906e-15)
(-16.5703 -0.403652 -1.27491e-15)
(-16.5871 -0.464075 -1.38144e-15)
(-16.6032 -0.533267 -1.51071e-15)
(-16.5519 0.0271614 1.68925e-15)
(-16.5494 0.0274615 1.69426e-15)
(-16.5486 0.0278119 1.69924e-15)
(-16.5481 0.0281712 1.70233e-15)
(-16.5477 0.0285225 1.70606e-15)
(-16.5473 0.028859 1.71212e-15)
(-16.5469 0.0291762 1.71797e-15)
(-16.5465 0.02947 1.7237e-15)
(-16.5462 0.0297363 1.72957e-15)
(-16.5458 0.0299702 1.73374e-15)
(-16.5455 0.0301666 1.73865e-15)
(-16.5452 0.0303194 1.74606e-15)
(-16.5449 0.030422 1.7533e-15)
(-16.5447 0.0304667 1.76063e-15)
(-16.5445 0.0304449 1.76815e-15)
(-16.5444 0.0303467 1.7741e-15)
(-16.5443 0.0301605 1.78081e-15)
(-16.5443 0.0298735 1.79015e-15)
(-16.5443 0.0294706 1.79938e-15)
(-16.5445 0.0289347 1.80876e-15)
(-16.5447 0.028246 1.81833e-15)
(-16.5451 0.027382 1.82824e-15)
(-16.5455 0.0263165 1.83852e-15)
(-16.5462 0.0250197 1.84927e-15)
(-16.547 0.023457 1.86052e-15)
(-16.5481 0.0215887 1.87223e-15)
(-16.5494 0.0193691 1.88645e-15)
(-16.551 0.0167456 1.90077e-15)
(-16.5529 0.0136573 1.91354e-15)
(-16.5552 0.010034 1.92752e-15)
(-16.558 0.00579473 1.94271e-15)
(-16.5612 0.000845868 1.95898e-15)
(-16.5651 -0.0049209 1.97856e-15)
(-16.5697 -0.0116309 1.99914e-15)
(-16.575 -0.0194295 2.01924e-15)
(-16.5813 -0.028485 2.04184e-15)
(-16.5887 -0.0389931 2.06717e-15)
(-16.5973 -0.0511812 2.09535e-15)
(-16.6074 -0.0653138 2.12889e-15)
(-16.619 -0.0816996 2.16497e-15)
(-16.6325 -0.100698 2.20376e-15)
(-16.6481 -0.122729 2.25156e-15)
(-16.6661 -0.148284 2.30584e-15)
(-16.6867 -0.177939 2.36543e-15)
(-16.7101 -0.212362 2.43716e-15)
(-16.7367 -0.252315 2.51901e-15)
(-16.7664 -0.298667 2.61578e-15)
(-16.7992 -0.352441 2.73189e-15)
(-16.8349 -0.414827 2.86769e-15)
(-16.8727 -0.48696 3.03096e-15)
(-16.3227 -0.0409626 -1.87689e-15)
(-16.3235 -0.0414562 -1.88767e-15)
(-16.323 -0.0420417 -1.89877e-15)
(-16.3223 -0.0426698 -1.91205e-15)
(-16.3215 -0.0433172 -1.9251e-15)
(-16.3206 -0.0439792 -1.9361e-15)
(-16.3198 -0.0446567 -1.94779e-15)
(-16.3189 -0.0453517 -1.96005e-15)
(-16.3181 -0.046067 -1.97263e-15)
(-16.3173 -0.0468055 -1.9875e-15)
(-16.3165 -0.0475705 -2.00199e-15)
(-16.3158 -0.0483657 -2.01446e-15)
(-16.3151 -0.0491952 -2.02742e-15)
(-16.3144 -0.0500638 -2.04082e-15)
(-16.3138 -0.0509769 -2.05423e-15)
(-16.3132 -0.0519408 -2.06975e-15)
(-16.3127 -0.052963 -2.08458e-15)
(-16.3122 -0.054052 -2.09706e-15)
(-16.3119 -0.0552179 -2.10977e-15)
(-16.3116 -0.0564721 -2.12264e-15)
(-16.3115 -0.0578282 -2.13546e-15)
(-16.3114 -0.0593019 -2.14826e-15)
(-16.3116 -0.0609115 -2.16092e-15)
(-16.3119 -0.062678 -2.17349e-15)
(-16.3123 -0.0646263 -2.18591e-15)
(-16.3131 -0.066785 -2.19834e-15)
(-16.314 -0.0691872 -2.2087e-15)
(-16.3153 -0.0718718 -2.21963e-15)
(-16.3169 -0.0748836 -2.23303e-15)
(-16.319 -0.078275 -2.24625e-15)
(-16.3214 -0.0821069 -2.25975e-15)
(-16.3245 -0.0864502 -2.27394e-15)
(-16.3281 -0.0913876 -2.28717e-15)
(-16.3324 -0.097016 -2.30228e-15)
(-16.3376 -0.103448 -2.32159e-15)
(-16.3437 -0.110818 -2.34264e-15)
(-16.3508 -0.119281 -2.36621e-15)
(-16.3592 -0.129024 -2.39281e-15)
(-16.369 -0.140267 -2.42308e-15)
(-16.3804 -0.153275 -2.45674e-15)
(-16.3936 -0.168368 -2.49628e-15)
(-16.4088 -0.185931 -2.54119e-15)
(-16.4264 -0.206442 -2.59374e-15)
(-16.4465 -0.230492 -2.65763e-15)
(-16.4692 -0.258821 -2.7316e-15)
(-16.4949 -0.292334 -2.81775e-15)
(-16.5234 -0.332139 -2.91833e-15)
(-16.5548 -0.37967 -3.04022e-15)
(-16.5884 -0.436834 -3.19099e-15)
(-16.6226 -0.505678 -3.37282e-15)
(-16.5064 0.038013 2.298e-15)
(-16.5053 0.0384079 2.31137e-15)
(-16.5053 0.0389426 2.32534e-15)
(-16.5055 0.0395347 2.33784e-15)
(-16.5057 0.0401515 2.35147e-15)
(-16.506 0.0407791 2.36801e-15)
(-16.5063 0.0414105 2.38468e-15)
(-16.5066 0.0420415 2.40175e-15)
(-16.5069 0.0426685 2.41925e-15)
(-16.5073 0.0432884 2.4354e-15)
(-16.5077 0.043898 2.45253e-15)
(-16.5082 0.0444938 2.47257e-15)
(-16.5086 0.0450719 2.49253e-15)
(-16.5092 0.0456279 2.51278e-15)
(-16.5098 0.0461568 2.53337e-15)
(-16.5104 0.0466526 2.55244e-15)
(-16.5112 0.0471087 2.57247e-15)
(-16.512 0.047517 2.59535e-15)
(-16.513 0.0478683 2.6182e-15)
(-16.5141 0.0481521 2.64136e-15)
(-16.5153 0.0483558 2.6649e-15)
(-16.5167 0.048465 2.68898e-15)
(-16.5183 0.0484627 2.71364e-15)
(-16.5201 0.0483294 2.73899e-15)
(-16.5222 0.0480422 2.76508e-15)
(-16.5245 0.0475744 2.79193e-15)
(-16.5273 0.0468949 2.82167e-15)
(-16.5304 0.0459676 2.85196e-15)
(-16.534 0.04475 2.88111e-15)
(-16.5382 0.0431928 2.91218e-15)
(-16.543 0.041238 2.94508e-15)
(-16.5485 0.0388176 2.97985e-15)
(-16.5549 0.0358519 3.01862e-15)
(-16.5623 0.032247 3.059e-15)
(-16.5708 0.0278916 3.09908e-15)
(-16.5807 0.0226541 3.14181e-15)
(-16.592 0.0163776 3.18697e-15)
(-16.6052 0.00887398 3.23436e-15)
(-16.6205 -8.31487e-05 3.28605e-15)
(-16.6381 -0.0107688 3.33859e-15)
(-16.6586 -0.0235188 3.39147e-15)
(-16.6823 -0.0387463 3.45088e-15)
(-16.7097 -0.0569641 3.5134e-15)
(-16.7414 -0.0788197 3.57733e-15)
(-16.778 -0.105137 3.64897e-15)
(-16.8202 -0.136938 3.72507e-15)
(-16.8686 -0.175439 3.81014e-15)
(-16.9243 -0.222171 3.90734e-15)
(-16.9876 -0.279326 4.01553e-15)
(-17.0571 -0.349703 4.14227e-15)
(-15.723 -0.0499757 -4.12415e-16)
(-15.7233 -0.0508523 -4.21606e-16)
(-15.7229 -0.0516878 -4.31302e-16)
(-15.7223 -0.0525485 -4.43632e-16)
(-15.7217 -0.0534251 -4.55698e-16)
(-15.721 -0.0543206 -4.65498e-16)
(-15.7204 -0.0552387 -4.76322e-16)
(-15.7198 -0.0561833 -4.87781e-16)
(-15.7192 -0.0571579 -4.99683e-16)
(-15.7187 -0.0581662 -5.14277e-16)
(-15.7181 -0.059212 -5.28525e-16)
(-15.7176 -0.0602992 -5.40654e-16)
(-15.7172 -0.0614322 -5.53824e-16)
(-15.7168 -0.0626159 -5.67756e-16)
(-15.7164 -0.0638558 -5.82175e-16)
(-15.7162 -0.0651581 -5.99448e-16)
(-15.716 -0.0665299 -6.16489e-16)
(-15.7159 -0.0679791 -6.31496e-16)
(-15.7159 -0.069515 -6.47765e-16)
(-15.716 -0.071148 -6.64985e-16)
(-15.7163 -0.07289 -6.83064e-16)
(-15.7168 -0.0747548 -7.02002e-16)
(-15.7175 -0.076758 -7.21797e-16)