/*--------------------------------*- C++ -*----------------------------------*\
  =========                 |
  \\      /  F ield         | OpenFOAM: The Open Source CFD Toolbox
   \\    /   O peration     | Website:  https://openfoam.org
    \\  /    A nd           | Version:  8
     \\/     M anipulation  |
\*---------------------------------------------------------------------------*/
FoamFile
{
    version     2.0;
    format      ascii;
    class       volScalarField;
    location    "200";
    object      epsilon;
}
// * * * * * * * * * * * * * * * * * * * * * * * * * * * * * * * * * * * * * //

dimensions      [0 2 -3 0 0 0 0];

internalField   nonuniform List<scalar> 
1200
(
1.13863
0.888644
0.710509
0.579993
0.481996
0.406853
0.348173
0.30161
0.264129
0.233572
0.208371
0.187369
0.169703
0.154712
0.141893
0.130851
0.121277
0.112925
0.105598
0.0991374
0.0934123
0.0883166
0.0837621
0.0796754
0.0759952
0.0726697
0.0696552
0.0669144
0.0644154
0.0621308
0.0600371
0.0581137
0.0563429
0.0547091
0.0531987
0.0517997
0.0505016
0.049295
0.0481717
0.0471242
0.046146
0.0452312
0.0443746
0.0435713
0.0428172
0.0421083
0.0414412
0.0408128
0.0402201
0.0396605
0.0391316
0.0386314
0.0381578
0.0377089
0.0372832
0.036879
0.0364951
0.03613
0.0357828
0.0354521
1.45211
0.919941
0.614015
0.427803
0.308875
0.229728
0.175206
0.136527
0.108383
0.0874481
0.0715716
0.0593223
0.0497272
0.042108
0.0359834
0.0310056
0.026919
0.0235329
0.0207034
0.0183209
0.0163004
0.0145754
0.0130937
0.0118138
0.0107025
0.00973255
0.0088822
0.00813348
0.00747153
0.00688408
0.00636086
0.00589329
0.00547415
0.00509731
0.00475753
0.00445033
0.00417189
0.00391889
0.00368849
0.00347823
0.00328594
0.00310972
0.00294791
0.00279904
0.00266188
0.00253527
0.00241821
0.00230981
0.00220923
0.00211582
0.00202896
0.00194806
0.00187263
0.00180217
0.00173629
0.00167458
0.0016167
0.00156223
0.00151046
0.00145635
1.45109
0.915223
0.607847
0.421015
0.301937
0.222956
0.168764
0.130485
0.10276
0.0822345
0.0667439
0.0548526
0.045585
0.0382636
0.0324085
0.0276741
0.0238072
0.0206198
0.0179703
0.0157509
0.0138785
0.0122884
0.0109298
0.00976243
0.00875399
0.00787857
0.00711512
0.00644642
0.00585837
0.00533924
0.00487929
0.00447039
0.00410568
0.00377939
0.00348663
0.00322322
0.0029856
0.0027707
0.0025759
0.0023989
0.00223774
0.00209068
0.00195624
0.00183309
0.00172007
0.00161618
0.00152051
0.00143227
0.00135076
0.00127536
0.00120549
0.00114068
0.00108046
0.00102445
0.000972287
0.000923641
0.000878225
0.000835772
0.000796027
0.000758689
1.45109
0.916297
0.609185
0.422339
0.303113
0.223947
0.169578
0.131147
0.103295
0.0826662
0.0670932
0.0551363
0.0458163
0.038453
0.0325644
0.0278029
0.0239141
0.0207088
0.0180447
0.0158133
0.013931
0.0123327
0.0109673
0.00979415
0.0087809
0.0079014
0.00713446
0.00646278
0.00587211
0.00535069
0.00488873
0.00447805
0.00411177
0.00378408
0.00349007
0.00322555
0.00298693
0.00277113
0.00257551
0.00239777
0.00223593
0.00208826
0.00195325
0.00182958
0.00171609
0.00161175
0.00151567
0.00142705
0.00134519
0.00126944
0.00119927
0.00113416
0.00107367
0.00101739
0.000964976
0.000916094
0.000870455
0.000827795
0.000787876
0.000750483
1.45109
0.9163
0.609056
0.422137
0.302885
0.223724
0.169377
0.130973
0.103149
0.0825456
0.0669945
0.0550557
0.0457507
0.0383996
0.0325209
0.0277674
0.023885
0.020685
0.0180251
0.0157972
0.0139177
0.0123217
0.0109581
0.00978657
0.00877459
0.00789615
0.00713009
0.00645914
0.00586908
0.00534817
0.00488663
0.0044763
0.00411032
0.00378289
0.00348909
0.00322474
0.00298626
0.00277059
0.00257508
0.00239743
0.00223566
0.00208805
0.00195309
0.00182946
0.00171601
0.0016117
0.00151564
0.00142704
0.00134519
0.00126946
0.00119929
0.00113418
0.00107369
0.00101742
0.000965
0.000916115
0.000870472
0.000827807
0.000787881
0.000750481
1.45109
0.916301
0.609056
0.422137
0.302885
0.223724
0.169378
0.130974
0.103149
0.0825461
0.0669949
0.0550561
0.045751
0.0383999
0.0325211
0.0277675
0.0238851
0.0206851
0.0180252
0.0157972
0.0139177
0.0123217
0.0109582
0.00978657
0.00877458
0.00789614
0.00713008
0.00645912
0.00586906
0.00534814
0.0048866
0.00447627
0.00411029
0.00378285
0.00348905
0.0032247
0.00298623
0.00277056
0.00257504
0.0023974
0.00223563
0.00208802
0.00195307
0.00182944
0.00171598
0.00161167
0.00151562
0.00142702
0.00134517
0.00126944
0.00119927
0.00113417
0.00107368
0.00101741
0.000964991
0.000916108
0.000870467
0.000827804
0.000787881
0.000750483
1.45109
0.916297
0.609183
0.422337
0.303111
0.223945
0.169577
0.131145
0.103293
0.0826651
0.0670924
0.0551356
0.0458158
0.0384527
0.0325641
0.0278027
0.0239139
0.0207087
0.0180447
0.0158133
0.013931
0.0123328
0.0109673
0.00979422
0.00878097
0.00790148
0.00713455
0.00646286
0.00587219
0.00535077
0.00488881
0.00447812
0.00411183
0.00378414
0.00349013
0.0032256
0.00298697
0.00277116
0.00257553
0.00239779
0.00223594
0.00208826
0.00195325
0.00182957
0.00171607
0.00161172
0.00151564
0.00142701
0.00134514
0.00126939
0.0011992
0.00113408
0.00107358
0.0010173
0.000964878
0.000915989
0.000870341
0.000827673
0.000787746
0.000750345
1.45109
0.915224
0.607848
0.421015
0.301937
0.222956
0.168764
0.130486
0.10276
0.0822345
0.0667438
0.0548525
0.0455849
0.0382635
0.0324084
0.027674
0.0238071
0.0206197
0.0179702
0.0157508
0.0138784
0.0122883
0.0109298
0.00976236
0.00875393
0.0078785
0.00711502
0.00644626
0.0058581
0.00533882
0.0048787
0.00446959
0.00410467
0.00377817
0.00348519
0.00322155
0.00298371
0.00276859
0.00257356
0.00239634
0.00223496
0.00208769
0.00195303
0.00182967
0.00171645
0.00161236
0.00151649
0.00142806
0.00134636
0.00127077
0.00120074
0.00113576
0.0010754
0.00101924
0.000966937
0.000918157
0.000872611
0.000830028
0.000790154
0.000752747
1.45211
0.919946
0.614015
0.4278
0.308876
0.229737
0.175221
0.136549
0.10841
0.0874771
0.0716007
0.0593521
0.049757
0.042137
0.0360106
0.03103
0.02694
0.0235503
0.0207172
0.0183311
0.0163073
0.0145795
0.0130957
0.0118141
0.0107014
0.00973078
0.00888015
0.00813144
0.00746976
0.00688283
0.0063604
0.00589375
0.00547559
0.00509976
0.00476099
0.00445478
0.0041773
0.00392522
0.00369571
0.0034863
0.00329479
0.00311931
0.00295822
0.00281005
0.00267356
0.00254756
0.00243107
0.00232323
0.0022232
0.00213033
0.00204396
0.00196353
0.00188852
0.00181848
0.00175301
0.00169171
0.00163421
0.00158007
0.00152854
0.00147445
1.13863
0.888642
0.710508
0.57999
0.481992
0.406848
0.348168
0.301605
0.264125
0.233568
0.208368
0.187367
0.169701
0.154711
0.141892
0.130851
0.121277
0.112925
0.105599
0.0991379
0.0934129
0.0883173
0.0837628
0.0796762
0.075996
0.0726705
0.069656
0.0669152
0.0644161
0.0621316
0.0600378
0.0581144
0.0563436
0.0547097
0.0531993
0.0518002
0.0505021
0.0492954
0.048172
0.0471245
0.0461462
0.0452314
0.0443746
0.0435713
0.042817
0.042108
0.0414408
0.0408122
0.0402193
0.0396595
0.0391305
0.0386301
0.0381562
0.0377071
0.0372811
0.0368766
0.0364923
0.0361269
0.0357793
0.0354482
1.13864
0.888653
0.710517
0.579994
0.481992
0.406846
0.348166
0.301603
0.264123
0.233567
0.208367
0.187366
0.1697
0.15471
0.141891
0.13085
0.121276
0.112924
0.105598
0.0991368
0.0934117
0.088316
0.0837615
0.0796748
0.0759946
0.0726691
0.0696546
0.0669138
0.0644148
0.0621303
0.0600366
0.0581133
0.0563425
0.0547088
0.0531984
0.0517995
0.0505015
0.049295
0.0481717
0.0471243
0.0461462
0.0452316
0.044375
0.0435718
0.0428178
0.042109
0.041442
0.0408137
0.0402211
0.0396616
0.0391329
0.0386328
0.0381593
0.0377106
0.0372851
0.0368811
0.0364974
0.0361325
0.0357855
0.035455
1.45211
0.919929
0.613954
0.427716
0.308794
0.229674
0.175176
0.136518
0.108393
0.0874704
0.0716004
0.0593554
0.0497615
0.0421414
0.0360141
0.0310319
0.0269399
0.0235485
0.0207142
0.0183272
0.0163028
0.0145749
0.0130913
0.0118102
0.0106982
0.00972852
0.00887892
0.00813132
0.00747076
0.00688486
0.00636332
0.0058975
0.00548008
0.00510486
0.00476663
0.0044609
0.00418382
0.00393209
0.00370283
0.00349355
0.0033021
0.0031266
0.00296542
0.00281713
0.00268041
0.00255415
0.00243736
0.00232917
0.00222883
0.00213559
0.00204881
0.00196796
0.00189252
0.00182206
0.00175618
0.00169452
0.00163667
0.00158221
0.00153047
0.00147637
1.45109
0.91522
0.607846
0.421015
0.301937
0.222956
0.168764
0.130485
0.10276
0.0822339
0.0667432
0.054852
0.0455844
0.0382631
0.0324081
0.0276737
0.0238068
0.0206195
0.01797
0.0157506
0.0138782
0.0122882
0.0109296
0.00976221
0.00875379
0.00787837
0.0071149
0.00644618
0.00585811
0.00533899
0.00487906
0.00447019
0.00410552
0.00377928
0.00348657
0.00322321
0.00298564
0.0027708
0.00257605
0.0023991
0.00223798
0.00209096
0.00195655
0.00183343
0.00172044
0.00161658
0.00152093
0.00143271
0.00135122
0.00127583
0.00120598
0.00114117
0.00108096
0.00102496
0.000972799
0.000924161
0.000878752
0.000836306
0.000796567
0.000759232
1.45109
0.916293
0.609181
0.422337
0.303112
0.223946
0.169578
0.131146
0.103294
0.0826659
0.0670929
0.055136
0.0458161
0.0384528
0.0325641
0.0278027
0.0239139
0.0207086
0.0180445
0.0158132
0.0139309
0.0123326
0.0109672
0.00979406
0.00878081
0.00790132
0.00713439
0.00646272
0.00587205
0.00535064
0.00488868
0.00447799
0.00411171
0.00378403
0.00349002
0.00322549
0.00298687
0.00277107
0.00257545
0.00239771
0.00223587
0.0020882
0.00195319
0.00182952
0.00171603
0.00161169
0.00151561
0.00142699
0.00134512
0.00126938
0.00119921
0.00113409
0.0010736
0.00101733
0.000964909
0.000916026
0.000870386
0.000827726
0.000787805
0.000750411
1.45109
0.916295
0.609051
0.422133
0.302883
0.223723
0.169377
0.130973
0.103149
0.0825454
0.0669943
0.0550555
0.0457505
0.0383993
0.0325206
0.0277671
0.0238847
0.0206847
0.0180249
0.015797
0.0139175
0.0123215
0.010958
0.00978642
0.00877446
0.00789603
0.00712999
0.00645904
0.00586899
0.00534808
0.00488655
0.00447623
0.00411025
0.00378282
0.00348902
0.00322468
0.0029862
0.00277053
0.00257502
0.00239737
0.00223561
0.002088
0.00195304
0.00182941
0.00171595
0.00161165
0.00151559
0.00142699
0.00134514
0.00126941
0.00119924
0.00113414
0.00107365
0.00101737
0.000964954
0.00091607
0.000870427
0.000827762
0.000787836
0.000750436
1.45109
0.916295
0.609051
0.422133
0.302883
0.223723
0.169377
0.130973
0.103149
0.0825457
0.0669945
0.0550557
0.0457507
0.0383995
0.0325207
0.0277672
0.0238848
0.0206848
0.018025
0.015797
0.0139175
0.0123216
0.010958
0.00978645
0.00877449
0.00789606
0.00713001
0.00645906
0.00586901
0.0053481
0.00488656
0.00447624
0.00411026
0.00378282
0.00348902
0.00322468
0.0029862
0.00277053
0.00257502
0.00239737
0.0022356
0.00208799
0.00195303
0.00182941
0.00171595
0.00161164
0.00151558
0.00142698
0.00134513
0.0012694
0.00119923
0.00113413
0.00107364
0.00101736
0.000964946
0.000916062
0.00087042
0.000827755
0.000787831
0.000750431
1.45109
0.916293
0.609182
0.422337
0.303111
0.223945
0.169576
0.131145
0.103293
0.0826647
0.0670919
0.0551352
0.0458154
0.0384523
0.0325638
0.0278024
0.0239137
0.0207085
0.0180445
0.0158131
0.0139309
0.0123326
0.0109672
0.00979411
0.00878087
0.00790139
0.00713447
0.00646279
0.00587213
0.00535072
0.00488876
0.00447807
0.00411179
0.0037841
0.00349009
0.00322556
0.00298694
0.00277113
0.00257551
0.00239776
0.00223592
0.00208824
0.00195323
0.00182955
0.00171605
0.0016117
0.00151562
0.00142699
0.00134512
0.00126937
0.00119919
0.00113407
0.00107357
0.00101729
0.000964862
0.000915973
0.000870325
0.000827658
0.00078773
0.000750329
1.45109
0.915219
0.607846
0.421015
0.301937
0.222955
0.168763
0.130485
0.102759
0.0822335
0.0667429
0.0548518
0.0455843
0.038263
0.0324081
0.0276738
0.023807
0.0206196
0.0179702
0.0157508
0.0138784
0.0122884
0.0109298
0.0097624
0.00875397
0.00787855
0.00711506
0.00644631
0.00585815
0.00533887
0.00487874
0.00446964
0.00410472
0.00377822
0.00348523
0.0032216
0.00298375
0.00276863
0.0025736
0.00239638
0.002235
0.00208772
0.00195307
0.0018297
0.00171648
0.00161238
0.00151652
0.00142808
0.00134638
0.00127079
0.00120074
0.00113574
0.00107535
0.00101917
0.00096685
0.000918053
0.00087249
0.000829894
0.00079001
0.000752634
1.45211
0.919927
0.613967
0.427743
0.308829
0.229711
0.175218
0.136562
0.108434
0.0875082
0.0716345
0.0593839
0.0497845
0.0421596
0.0360289
0.0310447
0.0269518
0.0235602
0.020726
0.0183394
0.0163155
0.0145876
0.0131035
0.0118216
0.0107085
0.00973725
0.0088858
0.00813627
0.00747383
0.00688611
0.00636277
0.00589525
0.00547628
0.00509968
0.00476022
0.00445343
0.00417544
0.00392295
0.00369306
0.00348325
0.00329142
0.00311564
0.00295425
0.0028058
0.00266899
0.00254273
0.002426
0.0023179
0.00221767
0.00212456
0.00203794
0.00195728
0.00188205
0.0018118
0.00174612
0.00168463
0.00162695
0.00157263
0.00152096
0.00146663
1.13864
0.888655
0.710517
0.579993
0.481991
0.406844
0.348164
0.301601
0.264122
0.233566
0.208367
0.187367
0.169701
0.154711
0.141893
0.130851
0.121278
0.112926
0.105599
0.0991385
0.0934135
0.0883178
0.0837633
0.0796766
0.0759963
0.0726708
0.0696563
0.0669154
0.0644163
0.0621317
0.0600378
0.0581144
0.0563435
0.0547095
0.053199
0.0517999
0.0505017
0.049295
0.0481715
0.0471239
0.0461455
0.0452306
0.0443737
0.0435703
0.0428159
0.0421068
0.0414395
0.0408108
0.0402178
0.0396579
0.0391287
0.0386281
0.0381541
0.0377049
0.0372787
0.0368741
0.0364896
0.036124
0.0357762
0.0354449
)
;

boundaryField
{
    wall
    {
        type            epsilonWallFunction;
        value           nonuniform List<scalar> 
1200
(
1.13863
1.45211
1.45109
1.45109
1.45109
1.45109
1.45109
1.45109
1.45211
1.13863
0.888644
0.919941
0.915223
0.916297
0.9163
0.916301
0.916297
0.915224
0.919946
0.888642
0.710509
0.614015
0.607847
0.609185
0.609056
0.609056
0.609183
0.607848
0.614015
0.710508
0.579993
0.427803
0.421015
0.422339
0.422137
0.422137
0.422337
0.421015
0.4278
0.57999
0.481996
0.308875
0.301937
0.303113
0.302885
0.302885
0.303111
0.301937
0.308876
0.481992
0.406853
0.229728
0.222956
0.223947
0.223724
0.223724
0.223945
0.222956
0.229737
0.406848
0.348173
0.175206
0.168764
0.169578
0.169377
0.169378
0.169577
0.168764
0.175221
0.348168
0.30161
0.136527
0.130485
0.131147
0.130973
0.130974
0.131145
0.130486
0.136549
0.301605
0.264129
0.108383
0.10276
0.103295
0.103149
0.103149
0.103293
0.10276
0.10841
0.264125
0.233572
0.0874481
0.0822345
0.0826662
0.0825456
0.0825461
0.0826651
0.0822345
0.0874771
0.233568
0.208371
0.0715716
0.0667439
0.0670932
0.0669945
0.0669949
0.0670924
0.0667438
0.0716007
0.208368
0.187369
0.0593223
0.0548526
0.0551363
0.0550557
0.0550561
0.0551356
0.0548525
0.0593521
0.187367
0.169703
0.0497272
0.045585
0.0458163
0.0457507
0.045751
0.0458158
0.0455849
0.049757
0.169701
0.154712
0.042108
0.0382636
0.038453
0.0383996
0.0383999
0.0384527
0.0382635
0.042137
0.154711
0.141893
0.0359834
0.0324085
0.0325644
0.0325209
0.0325211
0.0325641
0.0324084
0.0360106
0.141892
0.130851
0.0310056
0.0276741
0.0278029
0.0277674
0.0277675
0.0278027
0.027674
0.03103
0.130851
0.121277
0.026919
0.0238072
0.0239141
0.023885
0.0238851
0.0239139
0.0238071
0.02694
0.121277
0.112925
0.0235329
0.0206198
0.0207088
0.020685
0.0206851
0.0207087
0.0206197
0.0235503
0.112925
0.105598
0.0207034
0.0179703
0.0180447
0.0180251
0.0180252
0.0180447
0.0179702
0.0207172
0.105599
0.0991374
0.0183209
0.0157509
0.0158133
0.0157972
0.0157972
0.0158133
0.0157508
0.0183311
0.0991379
0.0934123
0.0163004
0.0138785
0.013931
0.0139177
0.0139177
0.013931
0.0138784
0.0163073
0.0934129
0.0883166
0.0145754
0.0122884
0.0123327
0.0123217
0.0123217
0.0123328
0.0122883
0.0145795
0.0883173
0.0837621
0.0130937
0.0109298
0.0109673
0.0109581
0.0109582
0.0109673
0.0109298
0.0130957
0.0837628
0.0796754
0.0118138
0.00976243
0.00979415
0.00978657
0.00978657
0.00979422
0.00976236
0.0118141
0.0796762
0.0759952
0.0107025
0.00875399
0.0087809
0.00877459
0.00877458
0.00878097
0.00875393
0.0107014
0.075996
0.0726697
0.00973255
0.00787857
0.0079014
0.00789615
0.00789614
0.00790148
0.0078785
0.00973078
0.0726705
0.0696552
0.0088822
0.00711512
0.00713446
0.00713009
0.00713008
0.00713455
0.00711502
0.00888015
0.069656
0.0669144
0.00813348
0.00644642
0.00646278
0.00645914
0.00645912
0.00646286
0.00644626
0.00813144
0.0669152
0.0644154
0.00747153
0.00585837
0.00587211
0.00586908
0.00586906
0.00587219
0.0058581
0.00746976
0.0644161
0.0621308
0.00688408
0.00533924
0.00535069
0.00534817
0.00534814
0.00535077
0.00533882
0.00688283
0.0621316
0.0600371
0.00636086
0.00487929
0.00488873
0.00488663
0.0048866
0.00488881
0.0048787
0.0063604
0.0600378
0.0581137
0.00589329
0.00447039
0.00447805
0.0044763
0.00447627
0.00447812
0.00446959
0.00589375
0.0581144
0.0563429
0.00547415
0.00410568
0.00411177
0.00411032
0.00411029
0.00411183
0.00410467
0.00547559
0.0563436
0.0547091
0.00509731
0.00377939
0.00378408
0.00378289
0.00378285
0.00378414
0.00377817
0.00509976
0.0547097
0.0531987
0.00475753
0.00348663
0.00349007
0.00348909
0.00348905
0.00349013
0.00348519
0.00476099
0.0531993
0.0517997
0.00445033
0.00322322
0.00322555
0.00322474
0.0032247
0.0032256
0.00322155
0.00445478
0.0518002
0.0505016
0.00417189
0.0029856
0.00298693
0.00298626
0.00298623
0.00298697
0.00298371
0.0041773
0.0505021
0.049295
0.00391889
0.0027707
0.00277113
0.00277059
0.00277056
0.00277116
0.00276859
0.00392522
0.0492954
0.0481717
0.00368849
0.0025759
0.00257551
0.00257508
0.00257504
0.00257553
0.00257356
0.00369571
0.048172
0.0471242
0.00347823
0.0023989
0.00239777
0.00239743
0.0023974
0.00239779
0.00239634
0.0034863
0.0471245
0.046146
0.00328594
0.00223774
0.00223593
0.00223566
0.00223563
0.00223594
0.00223496
0.00329479
0.0461462
0.0452312
0.00310972
0.00209068
0.00208826
0.00208805
0.00208802
0.00208826
0.00208769
0.00311931
0.0452314
0.0443746
0.00294791
0.00195624
0.00195325
0.00195309
0.00195307
0.00195325
0.00195303
0.00295822
0.0443746
0.0435713
0.00279904
0.00183309
0.00182958
0.00182946
0.00182944
0.00182957
0.00182967
0.00281005
0.0435713
0.0428172
0.00266188
0.00172007
0.00171609
0.00171601
0.00171598
0.00171607
0.00171645
0.00267356
0.042817
0.0421083
0.00253527
0.00161618
0.00161175
0.0016117
0.00161167
0.00161172
0.00161236
0.00254756
0.042108
0.0414412
0.00241821
0.00152051
0.00151567
0.00151564
0.00151562
0.00151564
0.00151649
0.00243107
0.0414408
0.0408128
0.00230981
0.00143227
0.00142705
0.00142704
0.00142702
0.00142701
0.00142806
0.00232323
0.0408122
0.0402201
0.00220923
0.00135076
0.00134519
0.00134519
0.00134517
0.00134514
0.00134636
0.0022232
0.0402193
0.0396605
0.00211582
0.00127536
0.00126944
0.00126946
0.00126944
0.00126939
0.00127077
0.00213033
0.0396595
0.0391316
0.00202896
0.00120549
0.00119927
0.00119929
0.00119927
0.0011992
0.00120074
0.00204396
0.0391305
0.0386314
0.00194806
0.00114068
0.00113416
0.00113418
0.00113417
0.00113408
0.00113576
0.00196353
0.0386301
0.0381578
0.00187263
0.00108046
0.00107367
0.00107369
0.00107368
0.00107358
0.0010754
0.00188852
0.0381562
0.0377089
0.00180217
0.00102445
0.00101739
0.00101742
0.00101741
0.0010173
0.00101924
0.00181848
0.0377071
0.0372832
0.00173629
0.000972287
0.000964976
0.000965
0.000964991
0.000964878
0.000966937
0.00175301
0.0372811
0.036879
0.00167458
0.000923641
0.000916094
0.000916115
0.000916108
0.000915989
0.000918157
0.00169171
0.0368766
0.0364951
0.0016167
0.000878225
0.000870455
0.000870472
0.000870467
0.000870341
0.000872611
0.00163421
0.0364923
0.03613
0.00156223
0.000835772
0.000827795
0.000827807
0.000827804
0.000827673
0.000830028
0.00158007
0.0361269
0.0357828
0.00151046
0.000796027
0.000787876
0.000787881
0.000787881
0.000787746
0.000790154
0.00152854
0.0357793
0.0354521
0.00145635
0.000758689
0.000750483
0.000750481
0.000750483
0.000750345
0.000752747
0.00147445
0.0354482
1.13864
1.45211
1.45109
1.45109
1.45109
1.45109
1.45109
1.45109
1.45211
1.13864
0.888653
0.919929
0.91522
0.916293
0.916295
0.916295
0.916293
0.915219
0.919927
0.888655
0.710517
0.613954
0.607846
0.609181
0.609051
0.609051
0.609182
0.607846
0.613967
0.710517
0.579994
0.427716
0.421015
0.422337
0.422133
0.422133
0.422337
0.421015
0.427743
0.579993
0.481992
0.308794
0.301937
0.303112
0.302883
0.302883
0.303111
0.301937
0.308829
0.481991
0.406846
0.229674
0.222956
0.223946
0.223723
0.223723
0.223945
0.222955
0.229711
0.406844
0.348166
0.175176
0.168764
0.169578
0.169377
0.169377
0.169576
0.168763
0.175218
0.348164
0.301603
0.136518
0.130485
0.131146
0.130973
0.130973
0.131145
0.130485
0.136562
0.301601
0.264123
0.108393
0.10276
0.103294
0.103149
0.103149
0.103293
0.102759
0.108434
0.264122
0.233567
0.0874704
0.0822339
0.0826659
0.0825454
0.0825457
0.0826647
0.0822335
0.0875082
0.233566
0.208367
0.0716004
0.0667432
0.0670929
0.0669943
0.0669945
0.0670919
0.0667429
0.0716345
0.208367
0.187366
0.0593554
0.054852
0.055136
0.0550555
0.0550557
0.0551352
0.0548518
0.0593839
0.187367
0.1697
0.0497615
0.0455844
0.0458161
0.0457505
0.0457507
0.0458154
0.0455843
0.0497845
0.169701
0.15471
0.0421414
0.0382631
0.0384528
0.0383993
0.0383995
0.0384523
0.038263
0.0421596
0.154711
0.141891
0.0360141
0.0324081
0.0325641
0.0325206
0.0325207
0.0325638
0.0324081
0.0360289
0.141893
0.13085
0.0310319
0.0276737
0.0278027
0.0277671
0.0277672
0.0278024
0.0276738
0.0310447
0.130851
0.121276
0.0269399
0.0238068
0.0239139
0.0238847
0.0238848
0.0239137
0.023807
0.0269518
0.121278
0.112924
0.0235485
0.0206195
0.0207086
0.0206847
0.0206848
0.0207085
0.0206196
0.0235602
0.112926
0.105598
0.0207142
0.01797
0.0180445
0.0180249
0.018025
0.0180445
0.0179702
0.020726
0.105599
0.0991368
0.0183272
0.0157506
0.0158132
0.015797
0.015797
0.0158131
0.0157508
0.0183394
0.0991385
0.0934117
0.0163028
0.0138782
0.0139309
0.0139175
0.0139175
0.0139309
0.0138784
0.0163155
0.0934135
0.088316
0.0145749
0.0122882
0.0123326
0.0123215
0.0123216
0.0123326
0.0122884
0.0145876
0.0883178
0.0837615
0.0130913
0.0109296
0.0109672
0.010958
0.010958
0.0109672
0.0109298
0.0131035
0.0837633
0.0796748
0.0118102
0.00976221
0.00979406
0.00978642
0.00978645
0.00979411
0.0097624
0.0118216
0.0796766
0.0759946
0.0106982
0.00875379
0.00878081
0.00877446
0.00877449
0.00878087
0.00875397
0.0107085
0.0759963
0.0726691
0.00972852
0.00787837
0.00790132
0.00789603
0.00789606
0.00790139
0.00787855
0.00973725
0.0726708
0.0696546
0.00887892
0.0071149
0.00713439
0.00712999
0.00713001
0.00713447
0.00711506
0.0088858
0.0696563
0.0669138
0.00813132
0.00644618
0.00646272
0.00645904
0.00645906
0.00646279
0.00644631
0.00813627
0.0669154
0.0644148
0.00747076
0.00585811
0.00587205
0.00586899
0.00586901
0.00587213
0.00585815
0.00747383
0.0644163
0.0621303
0.00688486
0.00533899
0.00535064
0.00534808
0.0053481
0.00535072
0.00533887
0.00688611
0.0621317
0.0600366
0.00636332
0.00487906
0.00488868
0.00488655
0.00488656
0.00488876
0.00487874
0.00636277
0.0600378
0.0581133
0.0058975
0.00447019
0.00447799
0.00447623
0.00447624
0.00447807
0.00446964
0.00589525
0.0581144
0.0563425
0.00548008
0.00410552
0.00411171
0.00411025
0.00411026
0.00411179
0.00410472
0.00547628
0.0563435
0.0547088
0.00510486
0.00377928
0.00378403
0.00378282
0.00378282
0.0037841
0.00377822
0.00509968
0.0547095
0.0531984
0.00476663
0.00348657
0.00349002
0.00348902
0.00348902
0.00349009
0.00348523
0.00476022
0.053199
0.0517995
0.0044609
0.00322321
0.00322549
0.00322468
0.00322468
0.00322556
0.0032216
0.00445343
0.0517999
0.0505015
0.00418382
0.00298564
0.00298687
0.0029862
0.0029862
0.00298694
0.00298375
0.00417544
0.0505017
0.049295
0.00393209
0.0027708
0.00277107
0.00277053
0.00277053
0.00277113
0.00276863
0.00392295
0.049295
0.0481717
0.00370283
0.00257605
0.00257545
0.00257502
0.00257502
0.00257551
0.0025736
0.00369306
0.0481715
0.0471243
0.00349355
0.0023991
0.00239771
0.00239737
0.00239737
0.00239776
0.00239638
0.00348325
0.0471239
0.0461462
0.0033021
0.00223798
0.00223587
0.00223561
0.0022356
0.00223592
0.002235
0.00329142
0.0461455
0.0452316
0.0031266
0.00209096
0.0020882
0.002088
0.00208799
0.00208824
0.00208772
0.00311564
0.0452306
0.044375
0.00296542
0.00195655
0.00195319
0.00195304
0.00195303
0.00195323
0.00195307
0.00295425
0.0443737
0.0435718
0.00281713
0.00183343
0.00182952
0.00182941
0.00182941
0.00182955
0.0018297
0.0028058
0.0435703
0.0428178
0.00268041
0.00172044
0.00171603
0.00171595
0.00171595
0.00171605
0.00171648
0.00266899
0.0428159
0.042109
0.00255415
0.00161658
0.00161169
0.00161165
0.00161164
0.0016117
0.00161238
0.00254273
0.0421068
0.041442
0.00243736
0.00152093
0.00151561
0.00151559
0.00151558
0.00151562
0.00151652
0.002426
0.0414395
0.0408137
0.00232917
0.00143271
0.00142699
0.00142699
0.00142698
0.00142699
0.00142808
0.0023179
0.0408108
0.0402211
0.00222883
0.00135122
0.00134512
0.00134514
0.00134513
0.00134512
0.00134638
0.00221767
0.0402178
0.0396616
0.00213559
0.00127583
0.00126938
0.00126941
0.0012694
0.00126937
0.00127079
0.00212456
0.0396579
0.0391329
0.00204881
0.00120598
0.00119921
0.00119924
0.00119923
0.00119919
0.00120074
0.00203794
0.0391287
0.0386328
0.00196796
0.00114117
0.00113409
0.00113414
0.00113413
0.00113407
0.00113574
0.00195728
0.0386281
0.0381593
0.00189252
0.00108096
0.0010736
0.00107365
0.00107364
0.00107357
0.00107535
0.00188205
0.0381541
0.0377106
0.00182206
0.00102496
0.00101733
0.00101737
0.00101736
0.00101729
0.00101917
0.0018118
0.0377049
0.0372851
0.00175618
0.000972799
0.000964909
0.000964954
0.000964946
0.000964862
0.00096685
0.00174612
0.0372787
0.0368811
0.00169452
0.000924161
0.000916026
0.00091607
0.000916062
0.000915973
0.000918053
0.00168463
0.0368741
0.0364974
0.00163667
0.000878752
0.000870386
0.000870427
0.00087042
0.000870325
0.00087249
0.00162695
0.0364896
0.0361325
0.00158221
0.000836306
0.000827726
0.000827762
0.000827755
0.000827658
0.000829894
0.00157263
0.036124
0.0357855
0.00153047
0.000796567
0.000787805
0.000787836
0.000787831
0.00078773
0.00079001
0.00152096
0.0357762
0.035455
0.00147637
0.000759232
0.000750411
0.000750436
0.000750431
0.000750329
0.000752634
0.00146663
0.0354449
)
;
    }
    inlet
    {
        type            turbulentMixingLengthDissipationRateInlet;
        mixingLength    0.071;
        phi             phi;
        k               k;
        value           uniform 0.0340134;
    }
    outlet
    {
        type            inletOutlet;
        inletValue      uniform 0.0001;
        value           nonuniform List<scalar> 
20
(
0.0354521
0.00145635
0.000758689
0.000750483
0.000750481
0.000750483
0.000750345
0.000752747
0.00147445
0.0354482
0.035455
0.00147637
0.000759232
0.000750411
0.000750436
0.000750431
0.000750329
0.000752634
0.00146663
0.0354449
)
;
    }
    heatWall
    {
        type            epsilonWallFunction;
        value           nonuniform List<scalar> 
240
(
1.13863
1.13864
0.888642
0.888655
0.710508
0.710517
0.57999
0.579993
0.481992
0.481991
0.406848
0.406844
0.348168
0.348164
0.301605
0.301601
0.264125
0.264122
0.233568
0.233566
0.208368
0.208367
0.187367
0.187367
0.169701
0.169701
0.154711
0.154711
0.141892
0.141893
0.130851
0.130851
0.121277
0.121278
0.112925
0.112926
0.105599
0.105599
0.0991379
0.0991385
0.0934129
0.0934135
0.0883173
0.0883178
0.0837628
0.0837633
0.0796762
0.0796766
0.075996
0.0759963
0.0726705
0.0726708
0.069656
0.0696563
0.0669152
0.0669154
0.0644161
0.0644163
0.0621316
0.0621317
0.0600378
0.0600378
0.0581144
0.0581144
0.0563436
0.0563435
0.0547097
0.0547095
0.0531993
0.053199
0.0518002
0.0517999
0.0505021
0.0505017
0.0492954
0.049295
0.048172
0.0481715
0.0471245
0.0471239
0.0461462
0.0461455
0.0452314
0.0452306
0.0443746
0.0443737
0.0435713
0.0435703
0.042817
0.0428159
0.042108
0.0421068
0.0414408
0.0414395
0.0408122
0.0408108
0.0402193
0.0402178
0.0396595
0.0396579
0.0391305
0.0391287
0.0386301
0.0386281
0.0381562
0.0381541
0.0377071
0.0377049
0.0372811
0.0372787
0.0368766
0.0368741
0.0364923
0.0364896
0.0361269
0.036124
0.0357793
0.0357762
0.0354482
0.0354449
1.13863
1.13864
0.888644
0.888653
0.710509
0.710517
0.579993
0.579994
0.481996
0.481992
0.406853
0.406846
0.348173
0.348166
0.30161
0.301603
0.264129
0.264123
0.233572
0.233567
0.208371
0.208367
0.187369
0.187366
0.169703
0.1697
0.154712
0.15471
0.141893
0.141891
0.130851
0.13085
0.121277
0.121276
0.112925
0.112924
0.105598
0.105598
0.0991374
0.0991368
0.0934123
0.0934117
0.0883166
0.088316
0.0837621
0.0837615
0.0796754
0.0796748
0.0759952
0.0759946
0.0726697
0.0726691
0.0696552
0.0696546
0.0669144
0.0669138
0.0644154
0.0644148
0.0621308
0.0621303
0.0600371
0.0600366
0.0581137
0.0581133
0.0563429
0.0563425
0.0547091
0.0547088
0.0531987
0.0531984
0.0517997
0.0517995
0.0505016
0.0505015
0.049295
0.049295
0.0481717
0.0481717
0.0471242
0.0471243
0.046146
0.0461462
0.0452312
0.0452316
0.0443746
0.044375
0.0435713
0.0435718
0.0428172
0.0428178
0.0421083
0.042109
0.0414412
0.041442
0.0408128
0.0408137
0.0402201
0.0402211
0.0396605
0.0396616
0.0391316
0.0391329
0.0386314
0.0386328
0.0381578
0.0381593
0.0377089
0.0377106
0.0372832
0.0372851
0.036879
0.0368811
0.0364951
0.0364974
0.03613
0.0361325
0.0357828
0.0357855
0.0354521
0.035455
)
;
    }
}


// ************************************************************************* //
