/*--------------------------------*- C++ -*----------------------------------*\
  =========                 |
  \\      /  F ield         | OpenFOAM: The Open Source CFD Toolbox
   \\    /   O peration     | Website:  https://openfoam.org
    \\  /    A nd           | Version:  8
     \\/     M anipulation  |
\*---------------------------------------------------------------------------*/
FoamFile
{
    version     2.0;
    format      ascii;
    class       volScalarField;
    location    "200";
    object      k;
}
// * * * * * * * * * * * * * * * * * * * * * * * * * * * * * * * * * * * * * //

dimensions      [0 2 -2 0 0 0 0];

internalField   nonuniform List<scalar> 
1200
(
0.0505472
0.0428476
0.0369109
0.0322396
0.0284973
0.0254526
0.0229424
0.0208483
0.0190833
0.0175815
0.0162929
0.0151789
0.0142091
0.0133595
0.012611
0.0119479
0.0113578
0.0108302
0.0103565
0.00992963
0.00954357
0.00919326
0.00887441
0.00858336
0.00831698
0.00807254
0.00784772
0.00764048
0.00744905
0.00727187
0.00710757
0.00695494
0.00681293
0.00668058
0.00655705
0.00644159
0.00633351
0.00623223
0.00613718
0.00604789
0.00596391
0.00588483
0.00581029
0.00573996
0.00567353
0.00561074
0.00555132
0.00549506
0.00544172
0.00539113
0.0053431
0.00529747
0.00525408
0.0052128
0.00517349
0.00513603
0.00510032
0.00506625
0.00503374
0.00500268
0.0434539
0.032053
0.0244801
0.0192394
0.015484
0.0127107
0.0106103
0.00898478
0.00770314
0.00667618
0.00584146
0.00515434
0.00458237
0.00410145
0.00369342
0.00334443
0.00304369
0.00278277
0.00255499
0.00235501
0.00217852
0.00202198
0.00188251
0.00175774
0.0016457
0.00154471
0.00145337
0.0013705
0.00129509
0.00122629
0.00116334
0.0011056
0.00105254
0.00100367
0.000958552
0.000916831
0.000878179
0.000842307
0.00080896
0.000777918
0.000748975
0.000721952
0.000696686
0.00067303
0.000650859
0.000630053
0.000610506
0.000592124
0.000574807
0.000558488
0.000543097
0.000528563
0.000514828
0.000501833
0.000489526
0.000477857
0.000466783
0.000456237
0.000446102
0.000435384
0.0434334
0.0319433
0.0243159
0.0190353
0.0152512
0.0124597
0.0103486
0.00871771
0.00743438
0.00640812
0.00557574
0.00489207
0.00432424
0.00384785
0.00344456
0.00310035
0.00280436
0.00254811
0.00232487
0.00212927
0.00195699
0.00180451
0.00166893
0.00154787
0.00143935
0.00134171
0.00125357
0.00117375
0.00110123
0.00103518
0.000974838
0.000919584
0.000868863
0.000822197
0.000779169
0.000739414
0.000702612
0.000668479
0.000636767
0.000607253
0.000579741
0.000554056
0.000530041
0.000507555
0.000486473
0.000466682
0.000448079
0.000430572
0.000414077
0.000398519
0.000383829
0.000369945
0.000356808
0.000344368
0.000332576
0.000321388
0.000310765
0.000300668
0.000291058
0.000281884
0.0434334
0.0319682
0.0243516
0.0190752
0.0152908
0.0124966
0.0103819
0.00874714
0.00746013
0.00643053
0.00559518
0.00490892
0.00433885
0.00386054
0.0034556
0.00310996
0.00281275
0.00255543
0.00233128
0.0021349
0.00196193
0.00180884
0.00167274
0.00155122
0.00144229
0.0013443
0.00125584
0.00117573
0.00110295
0.00103666
0.000976095
0.000920635
0.000869722
0.000822877
0.000779682
0.000739771
0.00070282
0.000668548
0.000636702
0.000607062
0.000579429
0.000553628
0.000529501
0.000506907
0.000485721
0.000465829
0.000447127
0.000429524
0.000412936
0.000397287
0.000382507
0.000368534
0.00035531
0.000342784
0.000330907
0.000319635
0.000308929
0.000298751
0.000289068
0.000279848
0.0434334
0.0319683
0.0243482
0.0190691
0.0152832
0.0124883
0.0103736
0.00873943
0.00745311
0.00642427
0.00558968
0.00490414
0.00433471
0.00385697
0.00345252
0.00310731
0.00281047
0.00255347
0.00232959
0.00213344
0.00196068
0.00180776
0.00167181
0.00155042
0.0014416
0.00134371
0.00125533
0.00117529
0.00110257
0.00103633
0.000975816
0.000920395
0.000869518
0.000822704
0.000779535
0.000739647
0.000702717
0.000668461
0.000636631
0.000607004
0.000579383
0.000553591
0.000529472
0.000506886
0.000485706
0.000465819
0.000447122
0.000429522
0.000412937
0.000397289
0.000382511
0.000368539
0.000355316
0.000342789
0.000330912
0.00031964
0.000308933
0.000298754
0.000289069
0.000279847
0.0434334
0.0319683
0.0243482
0.0190691
0.0152832
0.0124883
0.0103737
0.00873944
0.00745313
0.0064243
0.00558971
0.00490416
0.00433473
0.00385698
0.00345253
0.00310732
0.00281048
0.00255348
0.0023296
0.00213345
0.00196068
0.00180777
0.00167181
0.00155042
0.0014416
0.00134371
0.00125533
0.00117529
0.00110257
0.00103633
0.000975812
0.000920391
0.000869513
0.000822699
0.00077953
0.000739642
0.000702711
0.000668456
0.000636626
0.000606999
0.000579377
0.000553586
0.000529467
0.000506881
0.000485701
0.000465814
0.000447117
0.000429518
0.000412933
0.000397285
0.000382507
0.000368536
0.000355313
0.000342787
0.00033091
0.000319639
0.000308932
0.000298753
0.000289069
0.000279848
0.0434334
0.0319682
0.0243515
0.0190751
0.0152908
0.0124965
0.0103818
0.00874708
0.00746007
0.00643047
0.00559513
0.00490889
0.00433882
0.00386052
0.00345558
0.00310995
0.00281274
0.00255543
0.00233128
0.0021349
0.00196193
0.00180885
0.00167274
0.00155122
0.0014423
0.00134431
0.00125585
0.00117574
0.00110296
0.00103667
0.000976105
0.000920644
0.000869731
0.000822886
0.00077969
0.000739778
0.000702827
0.000668553
0.000636707
0.000607065
0.000579431
0.000553628
0.0005295
0.000506905
0.000485718
0.000465824
0.000447121
0.000429516
0.000412926
0.000397275
0.000382493
0.000368518
0.000355292
0.000342764
0.000330884
0.000319611
0.000308902
0.000298722
0.000289036
0.000279813
0.0434334
0.0319433
0.0243159
0.0190353
0.0152513
0.0124597
0.0103486
0.00871772
0.00743438
0.00640812
0.00557573
0.00489206
0.00432423
0.00384785
0.00344456
0.00310034
0.00280435
0.0025481
0.00232486
0.00212927
0.00195699
0.0018045
0.00166892
0.00154786
0.00143934
0.00134171
0.00125356
0.00117373
0.0011012
0.00103512
0.000974759
0.000919475
0.000868721
0.00082202
0.000778954
0.00073916
0.000702315
0.000668139
0.000636381
0.000606821
0.000579261
0.000553527
0.000529461
0.000506924
0.00048579
0.000465946
0.000447289
0.000429727
0.000413176
0.000397564
0.00038282
0.000368882
0.000355692
0.000343199
0.000331355
0.000320115
0.000309439
0.000299288
0.000289625
0.00028041
0.0434539
0.0320531
0.0244802
0.0192393
0.015484
0.0127111
0.0106109
0.00898573
0.00770444
0.00667766
0.00584305
0.00515607
0.00458421
0.00410334
0.00369529
0.00334618
0.00304528
0.00278415
0.00255613
0.00235589
0.00217912
0.00202235
0.00188269
0.00175777
0.00164559
0.00154452
0.00145314
0.00137027
0.00129489
0.00122614
0.00116328
0.00110566
0.00105273
0.00100399
0.000959017
0.000917443
0.000878939
0.000843213
0.000810016
0.000779121
0.00075032
0.000723437
0.000698309
0.000674794
0.000652762
0.000632087
0.00061267
0.000594415
0.000577228
0.000561038
0.00054577
0.000531356
0.000517737
0.000504856
0.000492665
0.000481111
0.000470147
0.000459704
0.000449654
0.000438984
0.0505472
0.0428476
0.0369109
0.0322395
0.0284971
0.0254524
0.0229422
0.0208481
0.019083
0.0175813
0.0162928
0.0151788
0.014209
0.0133595
0.0126109
0.0119479
0.0113578
0.0108302
0.0103565
0.00992966
0.00954361
0.00919331
0.00887446
0.00858342
0.00831703
0.0080726
0.00784778
0.00764054
0.00744911
0.00727193
0.00710763
0.006955
0.00681299
0.00668063
0.0065571
0.00644163
0.00633355
0.00623226
0.00613721
0.00604792
0.00596392
0.00588484
0.00581029
0.00573995
0.00567352
0.00561071
0.00555128
0.005495
0.00544165
0.00539105
0.005343
0.00529735
0.00525393
0.00521263
0.00517329
0.00513581
0.00510006
0.00506596
0.00503341
0.00500231
0.0505474
0.0428479
0.0369112
0.0322396
0.0284971
0.0254523
0.0229421
0.020848
0.019083
0.0175812
0.0162927
0.0151787
0.014209
0.0133594
0.0126109
0.0119479
0.0113577
0.0108301
0.0103564
0.00992959
0.00954353
0.00919322
0.00887437
0.00858332
0.00831693
0.0080725
0.00784768
0.00764044
0.00744901
0.00727183
0.00710753
0.00695491
0.0068129
0.00668056
0.00655703
0.00644157
0.00633351
0.00623223
0.00613719
0.0060479
0.00596393
0.00588485
0.00581032
0.00574
0.00567359
0.0056108
0.00555139
0.00549514
0.00544181
0.00539123
0.00534322
0.0052976
0.00525422
0.00521295
0.00517366
0.00513623
0.00510053
0.00506649
0.005034
0.00500295
0.0434539
0.0320527
0.0244785
0.0192367
0.0154813
0.0127087
0.0106091
0.00898438
0.00770363
0.00667732
0.00584303
0.00515626
0.00458448
0.00410362
0.00369553
0.00334632
0.00304527
0.00278401
0.00255588
0.00235555
0.00217872
0.00202193
0.00188228
0.00175738
0.00164527
0.00154428
0.00145301
0.00137026
0.001295
0.00122638
0.00116364
0.00110613
0.0010533
0.00100466
0.000959773
0.000918283
0.000879853
0.000844197
0.000811056
0.0007802
0.000751429
0.000724563
0.000699443
0.000675925
0.000653875
0.000633177
0.000613726
0.000595427
0.000578201
0.000561961
0.000546633
0.000532155
0.000518467
0.000505517
0.000493259
0.000481644
0.000470619
0.00046012
0.000450033
0.000439364
0.0434334
0.0319432
0.0243159
0.0190353
0.0152512
0.0124597
0.0103486
0.00871769
0.00743435
0.00640809
0.0055757
0.00489203
0.0043242
0.00384782
0.00344453
0.00310032
0.00280433
0.00254808
0.00232484
0.00212925
0.00195697
0.00180448
0.0016689
0.00154784
0.00143932
0.00134169
0.00125355
0.00117372
0.0011012
0.00103514
0.000974807
0.000919557
0.000868841
0.000822181
0.00077916
0.000739413
0.000702619
0.000668495
0.000636791
0.000607286
0.000579782
0.000554105
0.000530097
0.000507619
0.000486543
0.000466758
0.000448161
0.000430659
0.00041417
0.000398617
0.000383932
0.000370051
0.000356918
0.000344481
0.000332693
0.000321509
0.000310889
0.000300796
0.00029119
0.000282019
0.0434334
0.0319681
0.0243515
0.0190751
0.0152908
0.0124966
0.0103818
0.00874713
0.00746011
0.00643051
0.00559516
0.00490891
0.00433884
0.00386053
0.00345558
0.00310994
0.00281273
0.00255542
0.00233127
0.00213488
0.00196192
0.00180883
0.00167273
0.00155121
0.00144228
0.00134429
0.00125584
0.00117572
0.00110295
0.00103665
0.000976088
0.000920627
0.000869714
0.000822869
0.000779674
0.000739762
0.000702811
0.000668539
0.000636693
0.000607052
0.000579419
0.000553617
0.00052949
0.000506896
0.00048571
0.000465817
0.000447115
0.000429512
0.000412923
0.000397273
0.000382493
0.00036852
0.000355296
0.000342769
0.000330891
0.00031962
0.000308913
0.000298735
0.000289051
0.00027983
0.0434334
0.0319682
0.024348
0.019069
0.0152831
0.0124883
0.0103736
0.00873941
0.0074531
0.00642426
0.00558967
0.00490413
0.00433469
0.00385695
0.0034525
0.00310729
0.00281044
0.00255345
0.00232957
0.00213342
0.00196066
0.00180775
0.00167179
0.0015504
0.00144159
0.00134369
0.00125532
0.00117528
0.00110256
0.00103632
0.000975805
0.000920385
0.000869508
0.000822694
0.000779525
0.000739637
0.000702707
0.000668452
0.000636622
0.000606995
0.000579373
0.000553582
0.000529463
0.000506877
0.000485697
0.000465809
0.000447112
0.000429512
0.000412927
0.000397279
0.000382501
0.000368529
0.000355306
0.000342779
0.000330902
0.00031963
0.000308922
0.000298743
0.000289058
0.000279836
0.0434334
0.0319682
0.024348
0.019069
0.0152831
0.0124883
0.0103736
0.00873942
0.00745311
0.00642428
0.00558969
0.00490414
0.00433471
0.00385696
0.00345251
0.0031073
0.00281045
0.00255346
0.00232958
0.00213343
0.00196066
0.00180775
0.00167179
0.0015504
0.00144159
0.0013437
0.00125532
0.00117528
0.00110257
0.00103632
0.000975807
0.000920386
0.000869509
0.000822695
0.000779526
0.000739637
0.000702707
0.000668452
0.000636621
0.000606994
0.000579372
0.00055358
0.000529462
0.000506875
0.000485695
0.000465808
0.00044711
0.000429511
0.000412925
0.000397277
0.000382499
0.000368527
0.000355304
0.000342777
0.0003309
0.000319628
0.000308921
0.000298742
0.000289057
0.000279835
0.0434334
0.0319682
0.0243515
0.0190751
0.0152908
0.0124965
0.0103818
0.00874706
0.00746005
0.00643045
0.0055951
0.00490886
0.0043388
0.00386049
0.00345556
0.00310992
0.00281271
0.00255541
0.00233126
0.00213488
0.00196192
0.00180883
0.00167273
0.00155121
0.00144229
0.0013443
0.00125584
0.00117573
0.00110296
0.00103666
0.000976099
0.000920638
0.000869725
0.00082288
0.000779685
0.000739773
0.000702822
0.000668549
0.000636702
0.000607061
0.000579427
0.000553625
0.000529496
0.000506902
0.000485714
0.00046582
0.000447117
0.000429512
0.000412922
0.000397271
0.000382489
0.000368514
0.000355288
0.00034276
0.000330881
0.000319607
0.000308898
0.000298718
0.000289032
0.00027981
0.0434334
0.0319432
0.0243159
0.0190353
0.0152512
0.0124597
0.0103486
0.00871768
0.00743433
0.00640807
0.00557568
0.00489202
0.00432419
0.00384782
0.00344453
0.00310032
0.00280434
0.00254809
0.00232486
0.00212926
0.00195699
0.0018045
0.00166892
0.00154786
0.00143934
0.00134171
0.00125357
0.00117373
0.0011012
0.00103513
0.000974765
0.000919482
0.000868728
0.000822027
0.000778961
0.000739166
0.000702322
0.000668146
0.000636388
0.000606827
0.000579267
0.000553533
0.000529467
0.00050693
0.000485796
0.000465951
0.000447294
0.000429732
0.000413181
0.000397566
0.000382819
0.000368876
0.000355682
0.000343184
0.000331335
0.000320091
0.00030941
0.000299256
0.00028959
0.000280382
0.0434539
0.0320526
0.0244789
0.0192376
0.0154824
0.0127101
0.0106108
0.0089863
0.00770556
0.00667924
0.00584489
0.00515791
0.00458589
0.0041048
0.00369654
0.00334724
0.00304617
0.00278493
0.00255685
0.0023566
0.00217985
0.0020231
0.00188344
0.00175851
0.00164632
0.0015452
0.00145376
0.00137081
0.00129536
0.00122653
0.00116357
0.00110585
0.00105281
0.00100398
0.000958913
0.000917257
0.000878677
0.000842888
0.000809627
0.000778666
0.000749808
0.000722869
0.000697685
0.000674113
0.000652017
0.00063129
0.000611818
0.000593505
0.00057627
0.000560024
0.000544698
0.000530229
0.000516554
0.000503619
0.000491372
0.000479767
0.000468752
0.000458261
0.000448168
0.000437429
0.0505473
0.0428479
0.0369111
0.0322396
0.0284971
0.0254523
0.022942
0.020848
0.0190829
0.0175812
0.0162927
0.0151788
0.014209
0.0133595
0.012611
0.0119479
0.0113578
0.0108302
0.0103566
0.0099297
0.00954365
0.00919334
0.0088745
0.00858345
0.00831706
0.00807262
0.0078478
0.00764056
0.00744912
0.00727193
0.00710763
0.006955
0.00681298
0.00668062
0.00655708
0.00644161
0.00633352
0.00623222
0.00613717
0.00604786
0.00596386
0.00588477
0.00581021
0.00573986
0.00567342
0.0056106
0.00555117
0.00549487
0.00544151
0.00539089
0.00534283
0.00529717
0.00525374
0.00521242
0.00517307
0.00513557
0.00509981
0.00506569
0.00503312
0.00500201
)
;

boundaryField
{
    wall
    {
        type            kqRWallFunction;
        value           nonuniform List<scalar> 
1200
(
0.0505472
0.0434539
0.0434334
0.0434334
0.0434334
0.0434334
0.0434334
0.0434334
0.0434539
0.0505472
0.0428476
0.032053
0.0319433
0.0319682
0.0319683
0.0319683
0.0319682
0.0319433
0.0320531
0.0428476
0.0369109
0.0244801
0.0243159
0.0243516
0.0243482
0.0243482
0.0243515
0.0243159
0.0244802
0.0369109
0.0322396
0.0192394
0.0190353
0.0190752
0.0190691
0.0190691
0.0190751
0.0190353
0.0192393
0.0322395
0.0284973
0.015484
0.0152512
0.0152908
0.0152832
0.0152832
0.0152908
0.0152513
0.015484
0.0284971
0.0254526
0.0127107
0.0124597
0.0124966
0.0124883
0.0124883
0.0124965
0.0124597
0.0127111
0.0254524
0.0229424
0.0106103
0.0103486
0.0103819
0.0103736
0.0103737
0.0103818
0.0103486
0.0106109
0.0229422
0.0208483
0.00898478
0.00871771
0.00874714
0.00873943
0.00873944
0.00874708
0.00871772
0.00898573
0.0208481
0.0190833
0.00770314
0.00743438
0.00746013
0.00745311
0.00745313
0.00746007
0.00743438
0.00770444
0.019083
0.0175815
0.00667618
0.00640812
0.00643053
0.00642427
0.0064243
0.00643047
0.00640812
0.00667766
0.0175813
0.0162929
0.00584146
0.00557574
0.00559518
0.00558968
0.00558971
0.00559513
0.00557573
0.00584305
0.0162928
0.0151789
0.00515434
0.00489207
0.00490892
0.00490414
0.00490416
0.00490889
0.00489206
0.00515607
0.0151788
0.0142091
0.00458237
0.00432424
0.00433885
0.00433471
0.00433473
0.00433882
0.00432423
0.00458421
0.014209
0.0133595
0.00410145
0.00384785
0.00386054
0.00385697
0.00385698
0.00386052
0.00384785
0.00410334
0.0133595
0.012611
0.00369342
0.00344456
0.0034556
0.00345252
0.00345253
0.00345558
0.00344456
0.00369529
0.0126109
0.0119479
0.00334443
0.00310035
0.00310996
0.00310731
0.00310732
0.00310995
0.00310034
0.00334618
0.0119479
0.0113578
0.00304369
0.00280436
0.00281275
0.00281047
0.00281048
0.00281274
0.00280435
0.00304528
0.0113578
0.0108302
0.00278277
0.00254811
0.00255543
0.00255347
0.00255348
0.00255543
0.0025481
0.00278415
0.0108302
0.0103565
0.00255499
0.00232487
0.00233128
0.00232959
0.0023296
0.00233128
0.00232486
0.00255613
0.0103565
0.00992963
0.00235501
0.00212927
0.0021349
0.00213344
0.00213345
0.0021349
0.00212927
0.00235589
0.00992966
0.00954357
0.00217852
0.00195699
0.00196193
0.00196068
0.00196068
0.00196193
0.00195699
0.00217912
0.00954361
0.00919326
0.00202198
0.00180451
0.00180884
0.00180776
0.00180777
0.00180885
0.0018045
0.00202235
0.00919331
0.00887441
0.00188251
0.00166893
0.00167274
0.00167181
0.00167181
0.00167274
0.00166892
0.00188269
0.00887446
0.00858336
0.00175774
0.00154787
0.00155122
0.00155042
0.00155042
0.00155122
0.00154786
0.00175777
0.00858342
0.00831698
0.0016457
0.00143935
0.00144229
0.0014416
0.0014416
0.0014423
0.00143934
0.00164559
0.00831703
0.00807254
0.00154471
0.00134171
0.0013443
0.00134371
0.00134371
0.00134431
0.00134171
0.00154452
0.0080726
0.00784772
0.00145337
0.00125357
0.00125584
0.00125533
0.00125533
0.00125585
0.00125356
0.00145314
0.00784778
0.00764048
0.0013705
0.00117375
0.00117573
0.00117529
0.00117529
0.00117574
0.00117373
0.00137027
0.00764054
0.00744905
0.00129509
0.00110123
0.00110295
0.00110257
0.00110257
0.00110296
0.0011012
0.00129489
0.00744911
0.00727187
0.00122629
0.00103518
0.00103666
0.00103633
0.00103633
0.00103667
0.00103512
0.00122614
0.00727193
0.00710757
0.00116334
0.000974838
0.000976095
0.000975816
0.000975812
0.000976105
0.000974759
0.00116328
0.00710763
0.00695494
0.0011056
0.000919584
0.000920635
0.000920395
0.000920391
0.000920644
0.000919475
0.00110566
0.006955
0.00681293
0.00105254
0.000868863
0.000869722
0.000869518
0.000869513
0.000869731
0.000868721
0.00105273
0.00681299
0.00668058
0.00100367
0.000822197
0.000822877
0.000822704
0.000822699
0.000822886
0.00082202
0.00100399
0.00668063
0.00655705
0.000958552
0.000779169
0.000779682
0.000779535
0.00077953
0.00077969
0.000778954
0.000959017
0.0065571
0.00644159
0.000916831
0.000739414
0.000739771
0.000739647
0.000739642
0.000739778
0.00073916
0.000917443
0.00644163
0.00633351
0.000878179
0.000702612
0.00070282
0.000702717
0.000702711
0.000702827
0.000702315
0.000878939
0.00633355
0.00623223
0.000842307
0.000668479
0.000668548
0.000668461
0.000668456
0.000668553
0.000668139
0.000843213
0.00623226
0.00613718
0.00080896
0.000636767
0.000636702
0.000636631
0.000636626
0.000636707
0.000636381
0.000810016
0.00613721
0.00604789
0.000777918
0.000607253
0.000607062
0.000607004
0.000606999
0.000607065
0.000606821
0.000779121
0.00604792
0.00596391
0.000748975
0.000579741
0.000579429
0.000579383
0.000579377
0.000579431
0.000579261
0.00075032
0.00596392
0.00588483
0.000721952
0.000554056
0.000553628
0.000553591
0.000553586
0.000553628
0.000553527
0.000723437
0.00588484
0.00581029
0.000696686
0.000530041
0.000529501
0.000529472
0.000529467
0.0005295
0.000529461
0.000698309
0.00581029
0.00573996
0.00067303
0.000507555
0.000506907
0.000506886
0.000506881
0.000506905
0.000506924
0.000674794
0.00573995
0.00567353
0.000650859
0.000486473
0.000485721
0.000485706
0.000485701
0.000485718
0.00048579
0.000652762
0.00567352
0.00561074
0.000630053
0.000466682
0.000465829
0.000465819
0.000465814
0.000465824
0.000465946
0.000632087
0.00561071
0.00555132
0.000610506
0.000448079
0.000447127
0.000447122
0.000447117
0.000447121
0.000447289
0.00061267
0.00555128
0.00549506
0.000592124
0.000430572
0.000429524
0.000429522
0.000429518
0.000429516
0.000429727
0.000594415
0.005495
0.00544172
0.000574807
0.000414077
0.000412936
0.000412937
0.000412933
0.000412926
0.000413176
0.000577228
0.00544165
0.00539113
0.000558488
0.000398519
0.000397287
0.000397289
0.000397285
0.000397275
0.000397564
0.000561038
0.00539105
0.0053431
0.000543097
0.000383829
0.000382507
0.000382511
0.000382507
0.000382493
0.00038282
0.00054577
0.005343
0.00529747
0.000528563
0.000369945
0.000368534
0.000368539
0.000368536
0.000368518
0.000368882
0.000531356
0.00529735
0.00525408
0.000514828
0.000356808
0.00035531
0.000355316
0.000355313
0.000355292
0.000355692
0.000517737
0.00525393
0.0052128
0.000501833
0.000344368
0.000342784
0.000342789
0.000342787
0.000342764
0.000343199
0.000504856
0.00521263
0.00517349
0.000489526
0.000332576
0.000330907
0.000330912
0.00033091
0.000330884
0.000331355
0.000492665
0.00517329
0.00513603
0.000477857
0.000321388
0.000319635
0.00031964
0.000319639
0.000319611
0.000320115
0.000481111
0.00513581
0.00510032
0.000466783
0.000310765
0.000308929
0.000308933
0.000308932
0.000308902
0.000309439
0.000470147
0.00510006
0.00506625
0.000456237
0.000300668
0.000298751
0.000298754
0.000298753
0.000298722
0.000299288
0.000459704
0.00506596
0.00503374
0.000446102
0.000291058
0.000289068
0.000289069
0.000289069
0.000289036
0.000289625
0.000449654
0.00503341
0.00500268
0.000435384
0.000281884
0.000279848
0.000279847
0.000279848
0.000279813
0.00028041
0.000438984
0.00500231
0.0505474
0.0434539
0.0434334
0.0434334
0.0434334
0.0434334
0.0434334
0.0434334
0.0434539
0.0505473
0.0428479
0.0320527
0.0319432
0.0319681
0.0319682
0.0319682
0.0319682
0.0319432
0.0320526
0.0428479
0.0369112
0.0244785
0.0243159
0.0243515
0.024348
0.024348
0.0243515
0.0243159
0.0244789
0.0369111
0.0322396
0.0192367
0.0190353
0.0190751
0.019069
0.019069
0.0190751
0.0190353
0.0192376
0.0322396
0.0284971
0.0154813
0.0152512
0.0152908
0.0152831
0.0152831
0.0152908
0.0152512
0.0154824
0.0284971
0.0254523
0.0127087
0.0124597
0.0124966
0.0124883
0.0124883
0.0124965
0.0124597
0.0127101
0.0254523
0.0229421
0.0106091
0.0103486
0.0103818
0.0103736
0.0103736
0.0103818
0.0103486
0.0106108
0.022942
0.020848
0.00898438
0.00871769
0.00874713
0.00873941
0.00873942
0.00874706
0.00871768
0.0089863
0.020848
0.019083
0.00770363
0.00743435
0.00746011
0.0074531
0.00745311
0.00746005
0.00743433
0.00770556
0.0190829
0.0175812
0.00667732
0.00640809
0.00643051
0.00642426
0.00642428
0.00643045
0.00640807
0.00667924
0.0175812
0.0162927
0.00584303
0.0055757
0.00559516
0.00558967
0.00558969
0.0055951
0.00557568
0.00584489
0.0162927
0.0151787
0.00515626
0.00489203
0.00490891
0.00490413
0.00490414
0.00490886
0.00489202
0.00515791
0.0151788
0.014209
0.00458448
0.0043242
0.00433884
0.00433469
0.00433471
0.0043388
0.00432419
0.00458589
0.014209
0.0133594
0.00410362
0.00384782
0.00386053
0.00385695
0.00385696
0.00386049
0.00384782
0.0041048
0.0133595
0.0126109
0.00369553
0.00344453
0.00345558
0.0034525
0.00345251
0.00345556
0.00344453
0.00369654
0.012611
0.0119479
0.00334632
0.00310032
0.00310994
0.00310729
0.0031073
0.00310992
0.00310032
0.00334724
0.0119479
0.0113577
0.00304527
0.00280433
0.00281273
0.00281044
0.00281045
0.00281271
0.00280434
0.00304617
0.0113578
0.0108301
0.00278401
0.00254808
0.00255542
0.00255345
0.00255346
0.00255541
0.00254809
0.00278493
0.0108302
0.0103564
0.00255588
0.00232484
0.00233127
0.00232957
0.00232958
0.00233126
0.00232486
0.00255685
0.0103566
0.00992959
0.00235555
0.00212925
0.00213488
0.00213342
0.00213343
0.00213488
0.00212926
0.0023566
0.0099297
0.00954353
0.00217872
0.00195697
0.00196192
0.00196066
0.00196066
0.00196192
0.00195699
0.00217985
0.00954365
0.00919322
0.00202193
0.00180448
0.00180883
0.00180775
0.00180775
0.00180883
0.0018045
0.0020231
0.00919334
0.00887437
0.00188228
0.0016689
0.00167273
0.00167179
0.00167179
0.00167273
0.00166892
0.00188344
0.0088745
0.00858332
0.00175738
0.00154784
0.00155121
0.0015504
0.0015504
0.00155121
0.00154786
0.00175851
0.00858345
0.00831693
0.00164527
0.00143932
0.00144228
0.00144159
0.00144159
0.00144229
0.00143934
0.00164632
0.00831706
0.0080725
0.00154428
0.00134169
0.00134429
0.00134369
0.0013437
0.0013443
0.00134171
0.0015452
0.00807262
0.00784768
0.00145301
0.00125355
0.00125584
0.00125532
0.00125532
0.00125584
0.00125357
0.00145376
0.0078478
0.00764044
0.00137026
0.00117372
0.00117572
0.00117528
0.00117528
0.00117573
0.00117373
0.00137081
0.00764056
0.00744901
0.001295
0.0011012
0.00110295
0.00110256
0.00110257
0.00110296
0.0011012
0.00129536
0.00744912
0.00727183
0.00122638
0.00103514
0.00103665
0.00103632
0.00103632
0.00103666
0.00103513
0.00122653
0.00727193
0.00710753
0.00116364
0.000974807
0.000976088
0.000975805
0.000975807
0.000976099
0.000974765
0.00116357
0.00710763
0.00695491
0.00110613
0.000919557
0.000920627
0.000920385
0.000920386
0.000920638
0.000919482
0.00110585
0.006955
0.0068129
0.0010533
0.000868841
0.000869714
0.000869508
0.000869509
0.000869725
0.000868728
0.00105281
0.00681298
0.00668056
0.00100466
0.000822181
0.000822869
0.000822694
0.000822695
0.00082288
0.000822027
0.00100398
0.00668062
0.00655703
0.000959773
0.00077916
0.000779674
0.000779525
0.000779526
0.000779685
0.000778961
0.000958913
0.00655708
0.00644157
0.000918283
0.000739413
0.000739762
0.000739637
0.000739637
0.000739773
0.000739166
0.000917257
0.00644161
0.00633351
0.000879853
0.000702619
0.000702811
0.000702707
0.000702707
0.000702822
0.000702322
0.000878677
0.00633352
0.00623223
0.000844197
0.000668495
0.000668539
0.000668452
0.000668452
0.000668549
0.000668146
0.000842888
0.00623222
0.00613719
0.000811056
0.000636791
0.000636693
0.000636622
0.000636621
0.000636702
0.000636388
0.000809627
0.00613717
0.0060479
0.0007802
0.000607286
0.000607052
0.000606995
0.000606994
0.000607061
0.000606827
0.000778666
0.00604786
0.00596393
0.000751429
0.000579782
0.000579419
0.000579373
0.000579372
0.000579427
0.000579267
0.000749808
0.00596386
0.00588485
0.000724563
0.000554105
0.000553617
0.000553582
0.00055358
0.000553625
0.000553533
0.000722869
0.00588477
0.00581032
0.000699443
0.000530097
0.00052949
0.000529463
0.000529462
0.000529496
0.000529467
0.000697685
0.00581021
0.00574
0.000675925
0.000507619
0.000506896
0.000506877
0.000506875
0.000506902
0.00050693
0.000674113
0.00573986
0.00567359
0.000653875
0.000486543
0.00048571
0.000485697
0.000485695
0.000485714
0.000485796
0.000652017
0.00567342
0.0056108
0.000633177
0.000466758
0.000465817
0.000465809
0.000465808
0.00046582
0.000465951
0.00063129
0.0056106
0.00555139
0.000613726
0.000448161
0.000447115
0.000447112
0.00044711
0.000447117
0.000447294
0.000611818
0.00555117
0.00549514
0.000595427
0.000430659
0.000429512
0.000429512
0.000429511
0.000429512
0.000429732
0.000593505
0.00549487
0.00544181
0.000578201
0.00041417
0.000412923
0.000412927
0.000412925
0.000412922
0.000413181
0.00057627
0.00544151
0.00539123
0.000561961
0.000398617
0.000397273
0.000397279
0.000397277
0.000397271
0.000397566
0.000560024
0.00539089
0.00534322
0.000546633
0.000383932
0.000382493
0.000382501
0.000382499
0.000382489
0.000382819
0.000544698
0.00534283
0.0052976
0.000532155
0.000370051
0.00036852
0.000368529
0.000368527
0.000368514
0.000368876
0.000530229
0.00529717
0.00525422
0.000518467
0.000356918
0.000355296
0.000355306
0.000355304
0.000355288
0.000355682
0.000516554
0.00525374
0.00521295
0.000505517
0.000344481
0.000342769
0.000342779
0.000342777
0.00034276
0.000343184
0.000503619
0.00521242
0.00517366
0.000493259
0.000332693
0.000330891
0.000330902
0.0003309
0.000330881
0.000331335
0.000491372
0.00517307
0.00513623
0.000481644
0.000321509
0.00031962
0.00031963
0.000319628
0.000319607
0.000320091
0.000479767
0.00513557
0.00510053
0.000470619
0.000310889
0.000308913
0.000308922
0.000308921
0.000308898
0.00030941
0.000468752
0.00509981
0.00506649
0.00046012
0.000300796
0.000298735
0.000298743
0.000298742
0.000298718
0.000299256
0.000458261
0.00506569
0.005034
0.000450033
0.00029119
0.000289051
0.000289058
0.000289057
0.000289032
0.00028959
0.000448168
0.00503312
0.00500295
0.000439364
0.000282019
0.00027983
0.000279836
0.000279835
0.00027981
0.000280382
0.000437429
0.00500201
)
;
    }
    inlet
    {
        type            turbulentIntensityKineticEnergyInlet;
        intensity       0.05;
        value           uniform 0.06;
    }
    outlet
    {
        type            inletOutlet;
        inletValue      uniform 0.003;
        value           nonuniform List<scalar> 
20
(
0.00500268
0.000435384
0.000281884
0.000279848
0.000279847
0.000279848
0.000279813
0.00028041
0.000438984
0.00500231
0.00500295
0.000439364
0.000282019
0.00027983
0.000279836
0.000279835
0.00027981
0.000280382
0.000437429
0.00500201
)
;
    }
    heatWall
    {
        type            kqRWallFunction;
        value           nonuniform List<scalar> 
240
(
0.0505472
0.0505473
0.0428476
0.0428479
0.0369109
0.0369111
0.0322395
0.0322396
0.0284971
0.0284971
0.0254524
0.0254523
0.0229422
0.022942
0.0208481
0.020848
0.019083
0.0190829
0.0175813
0.0175812
0.0162928
0.0162927
0.0151788
0.0151788
0.014209
0.014209
0.0133595
0.0133595
0.0126109
0.012611
0.0119479
0.0119479
0.0113578
0.0113578
0.0108302
0.0108302
0.0103565
0.0103566
0.00992966
0.0099297
0.00954361
0.00954365
0.00919331
0.00919334
0.00887446
0.0088745
0.00858342
0.00858345
0.00831703
0.00831706
0.0080726
0.00807262
0.00784778
0.0078478
0.00764054
0.00764056
0.00744911
0.00744912
0.00727193
0.00727193
0.00710763
0.00710763
0.006955
0.006955
0.00681299
0.00681298
0.00668063
0.00668062
0.0065571
0.00655708
0.00644163
0.00644161
0.00633355
0.00633352
0.00623226
0.00623222
0.00613721
0.00613717
0.00604792
0.00604786
0.00596392
0.00596386
0.00588484
0.00588477
0.00581029
0.00581021
0.00573995
0.00573986
0.00567352
0.00567342
0.00561071
0.0056106
0.00555128
0.00555117
0.005495
0.00549487
0.00544165
0.00544151
0.00539105
0.00539089
0.005343
0.00534283
0.00529735
0.00529717
0.00525393
0.00525374
0.00521263
0.00521242
0.00517329
0.00517307
0.00513581
0.00513557
0.00510006
0.00509981
0.00506596
0.00506569
0.00503341
0.00503312
0.00500231
0.00500201
0.0505472
0.0505474
0.0428476
0.0428479
0.0369109
0.0369112
0.0322396
0.0322396
0.0284973
0.0284971
0.0254526
0.0254523
0.0229424
0.0229421
0.0208483
0.020848
0.0190833
0.019083
0.0175815
0.0175812
0.0162929
0.0162927
0.0151789
0.0151787
0.0142091
0.014209
0.0133595
0.0133594
0.012611
0.0126109
0.0119479
0.0119479
0.0113578
0.0113577
0.0108302
0.0108301
0.0103565
0.0103564
0.00992963
0.00992959
0.00954357
0.00954353
0.00919326
0.00919322
0.00887441
0.00887437
0.00858336
0.00858332
0.00831698
0.00831693
0.00807254
0.0080725
0.00784772