/*--------------------------------*- C++ -*----------------------------------*\
  =========                 |
  \\      /  F ield         | OpenFOAM: The Open Source CFD Toolbox
   \\    /   O peration     | Website:  https://openfoam.org
    \\  /    A nd           | Version:  8
     \\/     M anipulation  |
\*---------------------------------------------------------------------------*/
FoamFile
{
    version     2.0;
    format      ascii;
    class       volScalarField;
    location    "100";
    object      alphat;
}
// * * * * * * * * * * * * * * * * * * * * * * * * * * * * * * * * * * * * * //

dimensions      [1 -1 -1 0 0 0 0];

internalField   nonuniform List<scalar> 
8400
(
0.353189
0.352623
0.352089
0.351588
0.351121
0.350688
0.350287
0.349917
0.349574
0.349256
0.348963
0.348693
0.348445
0.348216
0.348005
0.347808
0.347624
0.347451
0.347289
0.347135
0.346986
0.346839
0.346694
0.346549
0.3464
0.346244
0.34608
0.345903
0.345713
0.345502
0.345264
0.344993
0.344704
0.344396
0.344067
0.343714
0.343334
0.342923
0.342476
0.341983
0.341435
0.34081
0.340102
0.339331
0.3385
0.337617
0.336693
0.335747
0.334804
0.333909
0.108839
0.109363
0.109927
0.110529
0.111167
0.111839
0.112544
0.113281
0.114048
0.114844
0.115667
0.116516
0.117391
0.118288
0.119208
0.120147
0.121105
0.122081
0.123073
0.124079
0.125097
0.126126
0.127164
0.12821
0.129263
0.130319
0.131379
0.132442
0.133506
0.134571
0.135639
0.136713
0.137744
0.138726
0.139658
0.140533
0.141345
0.142088
0.142761
0.143372
0.14393
0.144456
0.144938
0.145337
0.145648
0.145868
0.145995
0.146026
0.145966
0.145833
0.0573941
0.0577496
0.0581241
0.0585172
0.0589292
0.0593602
0.05981
0.0602784
0.0607649
0.0612694
0.0617919
0.0623321
0.0628896
0.0634638
0.0640542
0.0646601
0.0652812
0.0659168
0.0665658
0.0672273
0.0679003
0.0685838
0.0692768
0.0699779
0.0706855
0.0713979
0.0721134
0.0728301
0.0735456
0.0742574
0.0749631
0.0756662
0.0763668
0.0770558
0.0777195
0.0783529
0.0789509
0.0795084
0.0800221
0.0804905
0.0809134
0.0812951
0.0816482
0.0819314
0.0821516
0.0823058
0.0823896
0.0824006
0.0823395
0.0822073
0.0504493
0.0505533
0.0506639
0.0507816
0.0509064
0.0510387
0.0511786
0.0513261
0.0514813
0.0516443
0.0518156
0.0519952
0.0521833
0.0523796
0.0525843
0.0527975
0.0530192
0.0532495
0.0534879
0.0537344
0.0539887
0.0542509
0.0545208
0.0547979
0.0550815
0.055371
0.0556662
0.0559674
0.0562743
0.0565868
0.0569053
0.0572246
0.0575429
0.0578582
0.0581684
0.0584708
0.0587629
0.0590426
0.0593084
0.0595584
0.059791
0.060007
0.0602097
0.0604018
0.0605629
0.0606961
0.0608007
0.0608751
0.060922
0.0609353
0.0490473
0.0490832
0.0491216
0.0491626
0.0492066
0.0492538
0.0493041
0.0493577
0.0494146
0.0494752
0.0495396
0.0496081
0.0496805
0.0497571
0.049838
0.0499233
0.0500134
0.0501082
0.0502075
0.0503117
0.0504212
0.0505363
0.0506571
0.0507838
0.0509164
0.0510553
0.0512004
0.051351
0.0515068
0.0516677
0.0518337
0.0520047
0.05218
0.052359
0.0525414
0.0527264
0.052913
0.0531007
0.053289
0.0534771
0.0536645
0.053851
0.0540372
0.054225
0.0544178
0.0546086
0.0547953
0.054979
0.0551588
0.0553368
0.0489428
0.0489694
0.0489975
0.0490274
0.0490593
0.0490932
0.0491293
0.0491674
0.0492078
0.0492509
0.0492967
0.0493453
0.0493968
0.0494512
0.0495089
0.04957
0.0496348
0.0497032
0.0497755
0.049852
0.0499329
0.0500186
0.0501092
0.0502045
0.0503049
0.0504106
0.0505217
0.0506383
0.0507606
0.0508889
0.0510236
0.0511647
0.0513123
0.0514665
0.0516273
0.0517949
0.0519696
0.052152
0.0523422
0.05254
0.0527452
0.0529579
0.0531789
0.0534083
0.0536472
0.0538965
0.0541564
0.0544298
0.0547123
0.0550027
0.0491902
0.0492268
0.0492649
0.0493046
0.0493462
0.0493895
0.0494346
0.0494815
0.0495305
0.0495819
0.049636
0.0496927
0.0497522
0.0498145
0.04988
0.0499491
0.0500217
0.0500981
0.0501783
0.0502628
0.0503519
0.0504456
0.0505442
0.0506477
0.0507566
0.0508711
0.0509914
0.0511176
0.0512501
0.0513895
0.0515361
0.0516898
0.0518512
0.0520205
0.0521983
0.052385
0.0525814
0.052788
0.0530051
0.053233
0.053472
0.0537229
0.0539869
0.0542644
0.0545554
0.0548584
0.0551748
0.055506
0.0558574
0.0562228
0.0496355
0.0496861
0.0497385
0.0497927
0.0498488
0.0499068
0.0499667
0.0500287
0.0500932
0.0501603
0.0502304
0.0503033
0.050379
0.0504579
0.0505402
0.0506263
0.0507163
0.0508103
0.0509085
0.0510111
0.0511185
0.0512306
0.0513478
0.0514703
0.0515986
0.0517328
0.051873
0.0520195
0.0521728
0.0523334
0.0525014
0.052677
0.0528608
0.0530534
0.053255
0.0534666
0.0536891
0.0539228
0.054168
0.054425
0.0546943
0.0549772
0.0552743
0.0555867
0.0559148
0.0562578
0.0566159
0.0569868
0.0573719
0.0577776
0.0501342
0.0502019
0.0502713
0.0503427
0.050416
0.0504913
0.0505687
0.0506483
0.0507306
0.0508159
0.0509041
0.0509952
0.0510894
0.051187
0.0512882
0.0513934
0.0515027
0.0516162
0.0517339
0.0518562
0.0519833
0.0521152
0.0522524
0.0523951
0.0525437
0.0526982
0.0528587
0.0530256
0.0531994
0.0533803
0.0535687
0.0537648
0.0539693
0.0541825
0.054405
0.0546377
0.054881
0.0551349
0.0553999
0.0556769
0.0559671
0.0562714
0.0565889
0.0569209
0.0572679
0.0576321
0.0580108
0.0584036
0.0588054
0.0592204
0.0506608
0.0507444
0.05083
0.0509175
0.051007
0.0510984
0.0511919
0.051288
0.0513868
0.0514887
0.0515936
0.0517014
0.0518122
0.0519266
0.0520448
0.052167
0.0522933
0.0524236
0.0525581
0.0526972
0.0528409
0.0529896
0.0531434
0.0533027
0.0534676
0.0536381
0.0538143
0.0539969
0.0541861
0.0543821
0.0545852
0.0547958
0.0550141
0.0552406
0.055476
0.0557212
0.0559763
0.0562416
0.0565173
0.0568036
0.057102
0.0574124
0.0577369
0.0580735
0.0584219
0.0587859
0.0591645
0.0595568
0.059958
0.0603668
0.0511261
0.0512251
0.0513258
0.0514283
0.0515327
0.0516389
0.0517473
0.0518582
0.0519719
0.0520884
0.0522076
0.0523299
0.0524551
0.0525839
0.0527164
0.0528527
0.0529927
0.0531366
0.0532846
0.0534368
0.0535935
0.0537549
0.0539211
0.0540924
0.0542688
0.0544503
0.0546373
0.0548302
0.0550292
0.0552345
0.055446
0.0556643
0.0558897
0.0561227
0.0563643
0.0566143
0.0568725
0.0571389
0.057414
0.0576992
0.0579959
0.0583023
0.0586182
0.0589448
0.0592832
0.0596301
0.059989
0.0603575
0.060737
0.0611211
0.0514968
0.0516081
0.0517212
0.0518359
0.0519524
0.0520706
0.0521908
0.0523134
0.0524385
0.0525663
0.0526968
0.0528299
0.052966
0.0531054
0.0532482
0.0533945
0.0535442
0.0536973
0.0538543
0.0540152
0.0541803
0.0543496
0.0545234
0.0547017
0.0548845
0.055072
0.0552646
0.0554626
0.055666
0.0558746
0.056089
0.0563092
0.0565354
0.056768
0.0570073
0.0572534
0.0575064
0.0577666
0.0580344
0.0583103
0.0585922
0.058884
0.0591811
0.0594849
0.0597981
0.0601196
0.0604459
0.0607768
0.0611133
0.0614551
0.0517084
0.0518297
0.0519524
0.0520766
0.0522022
0.0523293
0.0524581
0.0525891
0.0527224
0.0528581
0.0529962
0.0531367
0.05328
0.0534263
0.0535756
0.0537278
0.0538831
0.0540415
0.0542033
0.0543688
0.054538
0.0547111
0.0548883
0.0550694
0.0552545
0.0554439
0.0556378
0.0558364
0.0560392
0.0562465
0.0564584
0.0566748
0.0568962
0.0571232
0.0573557
0.0575932
0.0578355
0.0580823
0.0583341
0.0585928
0.0588552
0.0591222
0.0593939
0.0596699
0.0599467
0.0602284
0.0605114
0.0607959
0.0610797
0.0613633
0.0517276
0.0518549
0.0519834
0.052113
0.0522438
0.0523758
0.0525093
0.0526446
0.052782
0.0529216
0.0530633
0.0532071
0.0533532
0.053502
0.0536534
0.0538073
0.0539639
0.0541234
0.0542862
0.0544524
0.0546221
0.0547954
0.0549722
0.0551525
0.0553363
0.0555238
0.0557151
0.0559101
0.0561086
0.056311
0.0565172
0.0567271
0.056941
0.0571587
0.0573795
0.0576032
0.05783
0.0580602
0.0582941
0.0585289
0.058768
0.0590031
0.05924
0.0594788
0.059718
0.0599524
0.0601832
0.0604111
0.0606335
0.06085
0.0514954
0.0516246
0.0517547
0.0518857
0.0520172
0.0521497
0.0522834
0.0524188
0.0525561
0.0526952
0.052836
0.0529786
0.0531232
0.0532703
0.0534199
0.0535718
0.0537263
0.0538837
0.0540444
0.0542084
0.0543757
0.0545463
0.0547201
0.054897
0.0550772
0.0552609
0.0554479
0.055638
0.0558312
0.0560274
0.0562262
0.0564273
0.056631
0.0568369
0.0570447
0.0572543
0.0574646
0.0576753
0.0578883
0.0580964
0.0583062
0.0585116
0.0587154
0.0589107
0.0591043
0.0592883
0.0594641
0.05963
0.0597843
0.0599271
0.050947
0.0510728
0.051199
0.0513257
0.0514527
0.0515803
0.0517093
0.0518398
0.051972
0.0521055
0.0522403
0.0523767
0.0525154
0.0526568
0.0528008
0.0529472
0.0530964
0.0532489
0.053405
0.0535645
0.0537272
0.0538934
0.0540632
0.0542366
0.0544136
0.0545939
0.0547771
0.0549628
0.0551514
0.0553426
0.0555353
0.0557297
0.0559264
0.0561235
0.0563203
0.0565171
0.0567118
0.0569047
0.0570958
0.0572835
0.0574612
0.0576341
0.0578012
0.0579606
0.0581058
0.058237
0.0583555
0.0584581
0.0585428
0.0586077
0.0499663
0.0500817
0.0501971
0.0503126
0.0504281
0.0505443
0.0506617
0.0507805
0.0509006
0.0510217
0.0511441
0.0512688
0.0513966
0.0515277
0.0516617
0.0517986
0.0519393
0.0520844
0.0522338
0.052387
0.0525444
0.0527066
0.0528738
0.0530457
0.053222
0.0534021
0.0535858
0.0537735
0.0539647
0.0541578
0.0543521
0.0545477
0.054743
0.0549359
0.0551275
0.0553175
0.0555049
0.0556897
0.0558618
0.0560345
0.0561908
0.0563409
0.0564713
0.0565964
0.0567007
0.0567843
0.0568491
0.0568906
0.0569082
0.0568955
0.0484323
0.0485291
0.0486251
0.0487207
0.0488159
0.0489116
0.049008
0.0491053
0.0492032
0.0493018
0.0494022
0.0495059
0.0496134
0.0497243
0.0498384
0.0499567
0.0500804
0.0502098
0.050344
0.0504833
0.0506294
0.0507831
0.0509442
0.051112
0.0512862
0.0514668
0.0516536
0.0518461
0.0520432
0.0522433
0.0524466
0.0526534
0.052859
0.0530623
0.0532665
0.0534645
0.0536553
0.0538476
0.0540214
0.054188
0.0543409
0.0544803
0.0546005
0.0546994
0.0547755
0.0548257
0.0548466
0.0548358
0.0547919
0.0547116
0.0466172
0.0466777
0.0467371
0.0467941
0.0468493
0.0469032
0.0469557
0.0470065
0.0470549
0.0471017
0.0471488
0.0471976
0.0472477
0.0472982
0.0473497
0.0474044
0.0474634
0.0475252
0.0475889
0.0476574
0.0477341
0.04782
0.0479148
0.0480199
0.0481374
0.0482676
0.0484104
0.0485696
0.0487466
0.0489382
0.0491463
0.0493649
0.0495685
0.0497744
0.0499867
0.0501996
0.050421
0.0506399
0.0508592
0.0510453
0.0512468
0.0513959
0.051539
0.0516471
0.0517096
0.0517388
0.0517292
0.0516704
0.0515582
0.0513979
0.0518459
0.0513481
0.0508588
0.0503748
0.0498999
0.0494353
0.0489799
0.0485318
0.0480912
0.0476613
0.0472452
0.0468425
0.04645
0.046068
0.045702
0.045355
0.0450213
0.0446952
0.0443823
0.0440916
0.0438193
0.0435531
0.0432896
0.043031
0.0427689
0.0425061
0.0423075
0.0422844
0.042695
0.0434101
0.0439341
0.0440332
0.0435334
0.0440661
0.0448237
0.0451647
0.0457525
0.046166
0.0466731
0.0470752
0.0475524
0.0480433
0.0484851
0.0489115
0.0493336
0.0497562
0.0501808
0.0505982
0.0509826
0.0513125
1.08355
1.06874
1.05457
1.04098
1.02789
1.01526
1.00302
0.991132
0.979586
0.968365
0.957455
0.946846
0.936524
0.926481
0.916706
0.907189
0.897922
0.888895
0.880101
0.871533
0.863181
0.85504
0.847102
0.839361
0.83181
0.824444
0.817257
0.810242
0.803396
0.796713
0.790188
0.783817
0.777596
0.77152
0.765586
0.759791
0.754131
0.748604
0.743196
0.737891
0.732682
0.727564
0.722528
0.717565
0.712665
0.70781
0.702979
0.698135
0.69321
0.688075
1.07683
1.05216
1.0286
1.00603
0.98443
0.963765
0.944007
0.925101
0.906993
0.889636
0.872982
0.856991
0.841622
0.82684
0.812613
0.798908
0.785699
0.772957
0.760659
0.748781
0.737303
0.726203
0.715463
0.705065
0.694994
0.685232
0.675766
0.666581
0.657665
0.649005
0.640588
0.632404
0.62444
0.616687
0.609131
0.601764
0.594574
0.58755
0.580697
0.574019
0.567512
0.561167
0.554978
0.548939
0.543043
0.537284
0.531653
0.52614
0.520732
0.515415
1.0768
1.05207
1.02836
1.00568
0.983956
0.963153
0.943214
0.924088
0.905726
0.888081
0.871112
0.85478
0.83905
0.823889
0.809266
0.795153
0.781523
0.768353
0.75562
0.743302
0.73138
0.719835
0.708649
0.697806
0.687291
0.677089
0.667186
0.657571
0.64823
0.639152
0.630326
0.621743
0.613392
0.605266
0.597356
0.589655
0.582154
0.574846
0.567726
0.560787
0.554022
0.547428
0.540998
0.534728
0.528614
0.522654
0.516843
0.511178
0.505654
0.500261
1.0768
1.05225
1.02876
1.00628
0.984746
0.964103
0.944293
0.925267
0.90698
0.889389
0.872456
0.856145
0.840424
0.82526
0.810626
0.796495
0.782842
0.769643
0.756876
0.744522
0.73256
0.720973
0.709743
0.698855
0.688294
0.678045
0.668096
0.658432
0.649044
0.639919
0.631046
0.622417
0.61402
0.605849
0.597894
0.590147
0.5826
0.575248
0.568083
0.561099
0.554291
0.547652
0.541179
0.534866
0.528708
0.522702
0.516844
0.511134
0.505567
0.500133
1.0768
1.05225
1.02875
1.00625
0.984679
0.963996
0.944149
0.92509
0.906776
0.889165
0.872219
0.855901
0.840177
0.825017
0.81039
0.796269
0.782629
0.769445
0.756695
0.744359
0.732416
0.720848
0.709638
0.69877
0.688228
0.677998
0.668067
0.658422
0.649051
0.639943
0.631087
0.622473
0.614092
0.605935
0.597993
0.590258
0.582724
0.575382
0.568227
0.561252
0.554451
0.547818
0.54135
0.53504
0.528884
0.522878
0.517016
0.511297
0.505718
0.500272
1.0768
1.05226
1.02879
1.00633
0.984803
0.964168
0.94437
0.925359
0.907089
0.889518
0.872608
0.856321
0.840624
0.825486
0.810877
0.796771
0.783142
0.769966
0.757222
0.744889
0.732948
0.721379
0.710168
0.699296
0.68875
0.678515
0.668578
0.658926
0.649547
0.64043
0.631565
0.622942
0.61455
0.606382
0.598429
0.590683
0.583136
0.575781
0.568613
0.561623
0.554807
0.548158
0.541672
0.535344
0.529168
0.523141
0.517257
0.511511
0.505901
0.500422
1.0768
1.05227
1.0288
1.00634
0.984815
0.964177
0.944371
0.925349
0.907067
0.889483
0.872559
0.856259
0.840549
0.8254
0.810781
0.796666
0.78303
0.769848
0.7571
0.744763
0.73282
0.72125
0.710038
0.699167
0.688622
0.678389
0.668454
0.658804
0.649429
0.640315
0.631454
0.622834
0.614446
0.606282
0.598332
0.590589
0.583045
0.575693
0.568527
0.561539
0.554723
0.548075
0.541588
0.535257
0.529078
0.523045
0.517155
0.511401
0.50578
0.500288
1.0768
1.05227
1.02881
1.00635
0.984836
0.964207
0.944412
0.925401
0.907131
0.88956
0.872649
0.856362
0.840665
0.825527
0.810919
0.796815
0.783188
0.770015
0.757273
0.744943
0.733004
0.721439
0.71023
0.699362
0.688818
0.678586
0.668651
0.659001
0.649623
0.640508
0.631643
0.62302
0.614628
0.606458
0.598503
0.590754
0.583203
0.575843
0.568667
0.56167
0.554844
0.548184
0.541684
0.535338
0.529143
0.523092
0.517181
0.511406
0.505761
0.500243
1.0768
1.05227
1.02881
1.00636
0.984843
0.964215
0.94442
0.925409
0.907138
0.889564
0.872649
0.856358
0.840656
0.825514
0.810901
0.796791
0.783159
0.769981
0.757235
0.7449
0.732958
0.721389
0.710177
0.699305
0.688759
0.678525
0.668588
0.658936
0.649557
0.64044
0.631574
0.622949
0.614555
0.606384
0.598427
0.590676
0.583123
0.575761
0.568582
0.561581
0.554751
0.548085
0.541579
0.535227
0.529024
0.522963
0.517042
0.511254
0.505595
0.50006
1.0768
1.05227
1.02881
1.00636
0.984846
0.96422
0.944427
0.925418
0.907149
0.889577
0.872665
0.856376
0.840677
0.825537
0.810927
0.79682
0.783191
0.770015
0.757272
0.744939
0.732999
0.721431
0.710221
0.69935
0.688805
0.67857
0.668633
0.658981
0.649601
0.640483
0.631615
0.622988
0.614592
0.606418
0.598458
0.590703
0.583145
0.575777
0.568593
0.561585
0.554747
0.548072
0.541556
0.535193
0.528977
0.522902
0.516965
0.511159
0.505481
0.499925
1.0768
1.05227
1.02881
1.00636
0.984846
0.96422
0.944427
0.925418
0.907149
0.889577
0.872664
0.856375
0.840676
0.825536
0.810926
0.796819
0.783189
0.770013
0.757269
0.744936
0.732995
0.721427
0.710216
0.699344
0.688798
0.678562
0.668624
0.65897
0.649589
0.640469
0.6316
0.62297
0.614572
0.606395
0.598431
0.590672
0.58311
0.575738
0.568548
0.561533
0.554688
0.548006
0.541481
0.535107
0.528879
0.522792
0.51684
0.511019
0.505323
0.499748
1.0768
1.05227
1.02881
1.00636
0.984843
0.964215
0.94442
0.925409
0.907137
0.889563
0.872648
0.856356
0.840654
0.825511
0.810898
0.796787
0.783154
0.769975
0.757228
0.744893
0.732949
0.721378
0.710164
0.699291
0.688742
0.678505
0.668564
0.658909
0.649526
0.640404
0.631533
0.622901
0.614501
0.606322
0.598356
0.590594
0.583029
0.575653
0.568459
0.56144
0.55459
0.547901
0.541369
0.534987
0.52875
0.522652
0.516688
0.510853
0.505143
0.499551
1.0768
1.05227
1.02881
1.00635
0.984836
0.964207
0.944411
0.925401
0.90713
0.889559
0.872647
0.856359
0.840661
0.825523
0.810914
0.796808
0.783179
0.770005
0.757261
0.744929
0.732988
0.72142
0.710208
0.699335
0.688788
0.67855
0.66861
0.658953
0.649569
0.640445
0.631571
0.622937
0.614533
0.60635
0.598379
0.590612
0.583041
0.575658
0.568456
0.561428
0.554568
0.54787
0.541326
0.534931
0.528679
0.522566
0.516584
0.510731
0.504999
0.499384
1.0768
1.05227
1.0288
1.00634
0.984815
0.964177
0.94437
0.925348
0.907065
0.889481
0.872556
0.856255
0.840545
0.825394
0.810774
0.796658
0.783019
0.769836
0.757085
0.744746
0.732799
0.721226
0.71001
0.699134
0.688583
0.678344
0.668402
0.658744
0.649359
0.640235
0.631361
0.622727
0.614323
0.60614
0.59817
0.590403
0.582831
0.575448
0.568246
0.561217
0.554356
0.547654
0.541107
0.534708
0.528452
0.522331
0.516342
0.510479
0.504736
0.499108
1.0768
1.05226
1.02879
1.00633
0.984803
0.964168
0.944369
0.925357
0.907087
0.889515
0.872604
0.856316
0.840618
0.825478
0.810868
0.796759
0.783128
0.769949
0.757202
0.744865
0.732919
0.721346
0.710128
0.69925
0.688697
0.678453
0.668506
0.658843
0.649452
0.640322
0.631441
0.622799
0.614387
0.606195
0.598216
0.590439
0.582857
0.575463
0.568249
0.561208
0.554333
0.547618
0.541056
0.53464
0.528366
0.522227
0.516217
0.510331
0.504563
0.498909
1.0768
1.05225
1.02875
1.00625
0.984678
0.963995
0.944148
0.925088
0.906774
0.889162
0.872215
0.855895
0.840171
0.825008
0.81038
0.796257
0.782614
0.769427
0.756673
0.744333
0.732385
0.720812
0.709596
0.69872
0.68817
0.677931
0.667989
0.658332
0.648947
0.639823
0.630949
0.622314
0.613908
0.605724
0.59775
0.58998
0.582404
0.575016
0.567807
0.56077
0.553899
0.547187
0.540627
0.534213
0.527939
0.521798
0.515786
0.509896
0.504123
0.498461
1.0768
1.05225
1.02876
1.00628
0.984746
0.964102
0.944292
0.925265
0.906977
0.889386
0.872451
0.856139
0.840416
0.82525
0.810614
0.79648
0.782823
0.76962
0.756849
0.74449
0.732523
0.720929
0.709692
0.698796
0.688225
0.677965
0.668002
0.658325
0.64892
0.639777
0.630883
0.62223
0.613807
0.605605
0.597615
0.589828
0.582237
0.574834
0.56761
0.56056
0.553676
0.546952
0.54038
0.533956
0.527673
0.521526
0.515508
0.509617
0.503847
0.498196
1.0768
1.05207
1.02836
1.00568
0.983955
0.963152
0.943213
0.924086
0.905723
0.888077
0.871107
0.854774
0.839042
0.823879
0.809254
0.795138
0.781506
0.768333
0.755596
0.743274
0.731347
0.719797
0.708605
0.697756
0.687234
0.677025
0.667114
0.65749
0.648139
0.639051
0.630214
0.621619
0.613255
0.605114
0.597187
0.589466
0.581943
0.574611
0.567463
0.560493
0.553695
0.547063
0.540593
0.534281
0.528124
0.522119
0.516267
0.51057
0.505037
0.499684
1.07683
1.05216
1.02859
1.00603
0.984429
0.963764
0.944006
0.9251
0.906993
0.889636
0.872983
0.856992
0.841624
0.826844
0.812618
0.798915
0.785708
0.77297
0.760677
0.748804
0.737332
0.726241
0.715512
0.705127
0.695071
0.685329
0.675887
0.666732
0.657851
0.649233
0.640869
0.632747
0.62486
0.617198
0.609755
0.602524
0.595499
0.588674
0.582046
0.57561
0.569366
0.563311
0.557446
0.551774
0.546299
0.541033
0.535992
0.531206
0.526732
0.522687
1.08355
1.06874
1.05457
1.04098
1.02789
1.01526
1.00302
0.99113
0.979583
0.968361
0.95745
0.946838
0.936515
0.926469
0.91669
0.907169
0.897897
0.888865
0.880065
0.871489
0.863129
0.854977
0.847028
0.839273
0.831707
0.824322
0.817113
0.810074
0.8032
0.796484
0.789921
0.783506
0.777235
0.7711
0.765099
0.759226
0.753476
0.747844
0.742325
0.736915
0.731608
0.7264
0.721285
0.716257
0.711311
0.706439
0.701634
0.696888
0.692188
0.687518
0.461105
0.234942
0.186784
0.181783
0.178513
0.177726
0.175336
0.174024
0.171912
0.170183
0.168292
0.166265
0.164544
0.162254
0.160714
0.158209
0.157497
0.15898
0.197725
0.393025
0.461563
0.235843
0.187785
0.182817
0.179538
0.178733
0.176326
0.17499
0.172871
0.171126
0.169228
0.167191
0.165465
0.16317
0.161625
0.159106
0.158373
0.159784
0.198305
0.393017
0.462032
0.236752
0.188783
0.183843
0.180555
0.179731
0.177308
0.175947
0.173823
0.172061
0.170157
0.168111
0.166379
0.164078
0.16253
0.159997
0.159244
0.160588
0.198891
0.392991
0.462522
0.237671
0.189778
0.184862
0.181565
0.180721
0.178282
0.176899
0.174768
0.172989
0.17108
0.169025
0.167288
0.16498
0.163428
0.160882
0.16011
0.161393
0.199491
0.392973
0.463043
0.238601
0.19077
0.185875
0.182569
0.181704
0.17925
0.177844
0.175708
0.173913
0.171997
0.169932
0.16819
0.165877
0.164321
0.16176
0.160974
0.162198
0.200109
0.39298
0.463597
0.239545
0.19176
0.186881
0.183566
0.182678
0.180213
0.178784
0.176642
0.174831
0.172908
0.170835
0.169087
0.166768
0.165208
0.162634
0.161834
0.163005
0.200747
0.393021
0.464187
0.240501
0.192748
0.187881
0.184558
0.183646
0.181171
0.179718
0.177571
0.175744
0.173815
0.171733
0.169979
0.167653
0.166091
0.163504
0.162691
0.163813
0.201405
0.393102
0.464813
0.241471
0.193733
0.188876
0.185544
0.184608
0.182124
0.180648
0.178495
0.176653
0.174717
0.172625
0.170867
0.168534
0.166969
0.164368
0.163545
0.164623
0.202084
0.393226
0.465475
0.242455
0.194718
0.189865
0.186526
0.185563
0.183073
0.181574
0.179416
0.177558
0.175616
0.173513
0.171751
0.16941
0.167843
0.165229
0.164397
0.165435
0.202784
0.393394
0.466171
0.243453
0.195702
0.190849
0.187502
0.186513
0.184019
0.182496
0.180332
0.178459
0.176511
0.174399
0.172631
0.170283
0.168715
0.166086
0.165247
0.166249
0.203504
0.393609
0.4669
0.244464
0.196685
0.19183
0.188475
0.187459
0.184962
0.183414
0.181246
0.179357
0.177402
0.175281
0.173509
0.171153
0.169582
0.16694
0.166096
0.167065
0.204245
0.39387
0.467662
0.245489
0.197668
0.192805
0.189445
0.188402
0.185901
0.184331
0.182156
0.180253
0.178292
0.176161
0.174383
0.172019
0.170448
0.167792
0.166943
0.167883
0.205005
0.394177
0.46845
0.246527
0.198651
0.193777
0.190411
0.189341
0.186838
0.185245
0.183064
0.181147
0.179179
0.177038
0.175256
0.172884
0.171311
0.168641
0.16779
0.168705
0.205785
0.394531
0.469266
0.24758
0.199634
0.194746
0.191374
0.190278
0.187772
0.186158
0.183971
0.182039
0.180065
0.177914
0.176128
0.173747
0.172173
0.169489
0.168636
0.169529
0.206584
0.39493
0.470103
0.248647
0.200618
0.195711
0.192335
0.191214
0.188706
0.187069
0.184876
0.18293
0.180949
0.178789
0.176998
0.174608
0.173034
0.170336
0.169482
0.170357
0.207401
0.395373
0.470961
0.249729
0.201603
0.196674
0.193295
0.192147
0.189637
0.187979
0.18578
0.18382
0.181833
0.179663
0.177868
0.175469
0.173895
0.171182
0.170329
0.171188
0.208235
0.395859
0.471835
0.250826
0.20259
0.197635
0.194253
0.19308
0.190567
0.188888
0.186683
0.184709
0.182716
0.180536
0.178738
0.17633
0.174755
0.172029
0.171176
0.172024
0.209087
0.396386
0.472721
0.251938
0.203578
0.198595
0.195211
0.194012
0.191497
0.189797
0.187587
0.185599
0.1836
0.18141
0.179608
0.177191
0.175616
0.172876
0.172025
0.172863
0.209955
0.396953
0.473615
0.253067
0.204569
0.199553
0.196169
0.194943
0.192426
0.190707
0.18849
0.186489
0.184485
0.182285
0.180479
0.178053
0.176478
0.173723
0.172876
0.173707
0.210839
0.397556
0.474514
0.254212
0.205563
0.20051
0.197127
0.195875
0.193356
0.191617
0.189394
0.18738
0.18537
0.183161
0.181352
0.178916
0.17734
0.174572
0.173729
0.174556
0.211739
0.398195
0.475413
0.255376
0.206559
0.201466
0.198086
0.196807
0.194286
0.192528
0.1903
0.188273
0.186258
0.184038
0.182226
0.179781
0.178205
0.175424
0.174584
0.175411
0.212653
0.398866
0.476307
0.256559
0.207558
0.202423
0.199046
0.197741
0.195217
0.193441
0.191207
0.189168
0.187147
0.184918
0.183103
0.180648
0.179072
0.176277
0.175442
0.176271
0.213583
0.399567
0.477191
0.257762
0.208562
0.203381
0.200008
0.198675
0.196149
0.194355
0.192116
0.190065
0.188039
0.1858
0.183982
0.181518
0.179942
0.177134
0.176304
0.177137
0.214526
0.400296
0.478061
0.258988
0.20957
0.204339
0.200971
0.199612
0.197084
0.195273
0.193028
0.190965
0.188934
0.186686
0.184865
0.182391
0.180815
0.177994
0.177169
0.178009
0.215484
0.40105
0.478912
0.260237
0.210582
0.2053
0.201936
0.200551
0.198021
0.196193
0.193943
0.191868
0.189832
0.187575
0.185751
0.183268
0.181692
0.178858
0.178039
0.178889
0.216456
0.401825
0.479737
0.261512
0.211599
0.206264
0.202903
0.201493
0.19896
0.197115
0.194861
0.192774
0.190734
0.188467
0.186641
0.184149
0.182573
0.179727
0.178913
0.179775
0.217441
0.40262
0.480532
0.262815
0.212622
0.207231
0.203872
0.202437
0.199902
0.198042
0.195783
0.193685
0.191641
0.189365
0.187535
0.185035
0.183459
0.180601
0.179792
0.180668
0.21844
0.403431
0.481292
0.264148
0.213651
0.208201
0.204844
0.203385
0.200849
0.198973
0.196709
0.1946
0.192552
0.190267
0.188435
0.185925
0.184349
0.18148
0.180677
0.18157
0.219454
0.404256
0.48201
0.265515
0.214689
0.209173
0.205819
0.204337
0.201799
0.199908
0.19764
0.19552
0.193469
0.191175
0.18934
0.186822
0.185245
0.182365
0.181567
0.182479
0.220481
0.405091
0.482711
0.266871
0.215736
0.210149
0.206797
0.205293
0.202753
0.200848
0.198576
0.196446
0.194391
0.192088
0.190251
0.187725
0.186146
0.183256
0.182463
0.183397
0.221524
0.405933
0.483421
0.268167
0.216791
0.211128
0.20778
0.206254
0.203713
0.201793
0.199518
0.197377
0.195318
0.193008
0.191168
0.188634
0.187054
0.184154
0.183366
0.184324
0.222581
0.40678
0.484144
0.269396
0.217856
0.212111
0.208766
0.207219
0.204677
0.202744
0.200466
0.198315
0.196253
0.193934
0.192092
0.189549
0.187969
0.185059
0.184275
0.18526
0.223655
0.407628
0.484879
0.270565
0.21893
0.213098
0.209757
0.208191
0.205648
0.203701
0.20142
0.199259
0.197194
0.194867
0.193022
0.190472
0.18889
0.185972
0.185192
0.186205
0.224745
0.408474
0.485625
0.271687
0.220004
0.21409
0.210754
0.209168
0.206624
0.204664
0.20238
0.20021
0.198142
0.195807
0.19396
0.191403
0.189819
0.186893
0.186117
0.187161
0.225854
0.409314
0.486382
0.272771
0.221072
0.215087
0.211755
0.210151
0.207607
0.205634
0.203348
0.201168
0.199097
0.196755
0.194905
0.192342
0.190755
0.187822
0.187049
0.188126
0.22698
0.410146
0.487149
0.27382
0.222138
0.216088
0.212763
0.21114
0.208596
0.206611
0.204322
0.202134
0.200061
0.197711
0.195859
0.193289
0.191699
0.18876
0.187989
0.189101
0.228127
0.410966
0.487927
0.274839
0.2232
0.217096
0.213776
0.212137
0.209592
0.207595
0.205305
0.203108
0.201032
0.198676
0.196821
0.194244
0.192652
0.189707
0.188938
0.190087
0.229296
0.411771
0.488715
0.275833
0.224259
0.218109
0.214796
0.21314
0.210596
0.208588
0.206296
0.20409
0.202012
0.199649
0.197791
0.195209
0.193613
0.190663
0.189895
0.191084
0.230487
0.412556
0.489512
0.276804
0.225317
0.219129
0.215823
0.214151
0.211608
0.209588
0.207295
0.205081
0.203
0.200631
0.19877
0.196183
0.194583
0.191629
0.190861
0.192092
0.231703
0.41332
0.490318
0.277758
0.226373
0.220155
0.216857
0.21517
0.212628
0.210597
0.208303
0.20608
0.203998
0.201622
0.199759
0.197166
0.195562
0.192605
0.191837
0.19311
0.232947
0.414057
0.491134
0.278696
0.227429
0.221188
0.217899
0.216197
0.213656
0.211615
0.209319
0.207089
0.205005
0.202623
0.200757
0.198159
0.196551
0.193591
0.192821
0.19414
0.234203
0.414775
0.491958
0.279622
0.228486
0.222228
0.218949
0.217232
0.214693
0.212641
0.210346
0.208108
0.206022
0.203634
0.201764
0.199163
0.197549
0.194587
0.193816
0.195182
0.235417
0.415508
0.49279
0.280538
0.229544
0.223276
0.220007
0.218277
0.215739
0.213677
0.211381
0.209136
0.207048
0.204655
0.202782
0.200176
0.198557
0.195594
0.194821
0.196235
0.236575
0.416265
0.493631
0.281448
0.230604
0.224332
0.221074
0.21933
0.216795
0.214723
0.212426
0.210174
0.208084
0.205686
0.203809
0.201201
0.199576
0.196612
0.195836
0.1973
0.237692
0.41704
0.49448
0.282352
0.231667
0.225397
0.22215
0.220392
0.21786
0.215778
0.213482
0.211222
0.209131
0.206727
0.204847
0.202235
0.200604
0.197641
0.196861
0.198378
0.238772
0.417833
0.495337
0.283254
0.232734
0.22647
0.223235
0.221465
0.218935
0.216843
0.214547
0.212281
0.210188
0.207779
0.205896
0.203281
0.201644
0.198682
0.197897
0.199469
0.239823
0.418644
0.496203
0.284155
0.233807
0.227552
0.22433
0.222546
0.22002
0.217919
0.215623
0.21335
0.211255
0.208842
0.206955
0.204339
0.202694
0.199734
0.198944
0.200571
0.240851
0.419472
0.497076
0.285056
0.234884
0.228643
0.225434
0.223638
0.221115
0.219005
0.21671
0.21443
0.212334
0.209917
0.208025
0.205407
0.203755
0.200798
0.200002
0.201677
0.241869
0.420315
0.497958
0.285958
0.235968
0.229744
0.226549
0.224741
0.222221
0.220101
0.217807
0.215522
0.213424
0.211002
0.209107
0.206488
0.204828
0.201873
0.201071
0.202786
0.242881
0.421174
0.498847
0.286863
0.237059
0.230854
0.227674
0.225853
0.223338
0.221209
0.218916
0.216624
0.214525
0.2121
0.210201
0.20758
0.205912
0.202961
0.202152
0.203899
0.243891
0.422048
0.499744
0.287771
0.238158
0.231974
0.228809
0.226977
0.224466
0.222328
0.220037
0.217739
0.215638
0.213209
0.211306
0.208684
0.207007
0.204061
0.203244
0.205016
0.244902
0.422937
0.500649
0.288685
0.239265
0.233105
0.229955
0.228111
0.225605
0.223459
0.221169
0.218865
0.216763
0.214331
0.212423
0.209801
0.208115
0.205174
0.204347
0.20614
0.245914
0.42384
0.501561
0.289604
0.240381
0.234247
0.231112
0.229257
0.226755
0.224601
0.222313
0.220004
0.2179
0.215465
0.213552
0.21093
0.209234
0.206299
0.205462
0.20727
0.24693
0.424758
0.502481
0.290531
0.241506
0.235399
0.232281
0.230414
0.227918
0.225756
0.223469
0.221154
0.219049
0.216611
0.214693
0.212071
0.210367
0.207437
0.206589
0.208408
0.247952
0.42569
0.503409
0.291465
0.242642
0.236563
0.233461
0.231583
0.229092
0.226922
0.224637
0.222317
0.220211
0.217769
0.215847
0.213225
0.211512
0.208588
0.207729
0.209554
0.248982
0.426637
0.504345
0.292408
0.243788
0.237738
0.234653
0.232764
0.230279
0.228101
0.225817
0.223492
0.221384
0.21894
0.217014
0.214393
0.212671
0.209752
0.208881
0.21071
0.25002
0.427598
0.50529
0.293359
0.244946
0.238925
0.235858
0.233957
0.231478
0.229291
0.22701
0.22468
0.222571
0.220124
0.218193
0.215573
0.213844
0.210928
0.210047
0.211875
0.251068
0.428574
0.506243
0.294319
0.246115
0.240124
0.237074
0.235162
0.232689
0.230495
0.228215
0.22588
0.22377
0.221321
0.219385
0.216767
0.21503
0.212118
0.211225
0.213052
0.252127
0.429563
0.507204
0.295289
0.247295
0.241334
0.238303
0.23638
0.233913
0.231711
0.229433
0.227094
0.224983
0.222532
0.220591
0.217975
0.21623
0.213321
0.212417
0.214239
0.253197
0.430567
0.508175
0.296269
0.248488
0.242558
0.239544
0.23761
0.235149
0.23294
0.230665
0.228321
0.226208
0.223756
0.22181
0.219196
0.217444
0.214539
0.213622
0.215438
0.254278
0.431584
0.509154
0.297259
0.249693
0.243794
0.240798