/*--------------------------------*- C++ -*----------------------------------*\
  =========                 |
  \\      /  F ield         | OpenFOAM: The Open Source CFD Toolbox
   \\    /   O peration     | Website:  https://openfoam.org
    \\  /    A nd           | Version:  8
     \\/     M anipulation  |
\*---------------------------------------------------------------------------*/
FoamFile
{
    version     2.0;
    format      ascii;
    class       volScalarField;
    location    "100";
    object      nut;
}
// * * * * * * * * * * * * * * * * * * * * * * * * * * * * * * * * * * * * * //

dimensions      [0 2 -1 0 0 0 0];

internalField   nonuniform List<scalar> 
8400
(
0.000353979
0.000353411
0.000352876
0.000352374
0.000351906
0.000351471
0.00035107
0.000350698
0.000350354
0.000350036
0.000349742
0.000349472
0.000349223
0.000348994
0.000348782
0.000348584
0.0003484
0.000348227
0.000348065
0.00034791
0.00034776
0.000347613
0.000347468
0.000347322
0.000347173
0.000347017
0.000346852
0.000346675
0.000346484
0.000346273
0.000346034
0.000345763
0.000345473
0.000345165
0.000344835
0.000344481
0.0003441
0.000343689
0.00034324
0.000342746
0.000342196
0.000341571
0.000340861
0.000340088
0.000339255
0.00033837
0.000337445
0.000336497
0.000335551
0.000334654
0.000109084
0.000109608
0.000110174
0.000110777
0.000111417
0.00011209
0.000112797
0.000113536
0.000114304
0.000115102
0.000115926
0.000116778
0.000117654
0.000118554
0.000119475
0.000120417
0.000121377
0.000122355
0.000123349
0.000124357
0.000125377
0.000126409
0.000127449
0.000128498
0.000129553
0.000130612
0.000131674
0.000132739
0.000133805
0.000134873
0.000135943
0.00013702
0.000138053
0.000139037
0.000139971
0.000140848
0.000141661
0.000142406
0.000143082
0.000143693
0.000144253
0.00014478
0.000145263
0.000145663
0.000145975
0.000146195
0.000146322
0.000146353
0.000146294
0.00014616
5.75232e-05
5.78794e-05
5.82548e-05
5.86488e-05
5.90617e-05
5.94936e-05
5.99444e-05
6.04138e-05
6.09014e-05
6.1407e-05
6.19307e-05
6.2472e-05
6.30308e-05
6.36063e-05
6.4198e-05
6.48053e-05
6.54277e-05
6.60648e-05
6.67153e-05
6.73782e-05
6.80527e-05
6.87377e-05
6.94323e-05
7.0135e-05
7.08441e-05
7.15581e-05
7.22752e-05
7.29935e-05
7.37106e-05
7.44239e-05
7.51312e-05
7.58359e-05
7.6538e-05
7.72286e-05
7.78938e-05
7.85287e-05
7.9128e-05
7.96867e-05
8.02016e-05
8.0671e-05
8.10948e-05
8.14774e-05
8.18313e-05
8.21151e-05
8.23358e-05
8.24904e-05
8.25743e-05
8.25854e-05
8.25241e-05
8.23917e-05
5.05628e-05
5.0667e-05
5.07778e-05
5.08957e-05
5.10208e-05
5.11535e-05
5.12937e-05
5.14415e-05
5.1597e-05
5.17604e-05
5.1932e-05
5.2112e-05
5.23005e-05
5.24972e-05
5.27024e-05
5.2916e-05
5.31383e-05
5.3369e-05
5.3608e-05
5.3855e-05
5.41099e-05
5.43727e-05
5.46432e-05
5.49209e-05
5.52051e-05
5.54952e-05
5.57911e-05
5.6093e-05
5.64006e-05
5.67138e-05
5.7033e-05
5.73529e-05
5.76719e-05
5.7988e-05
5.82988e-05
5.8602e-05
5.88947e-05
5.9175e-05
5.94414e-05
5.96919e-05
5.99251e-05
6.01416e-05
6.03447e-05
6.05373e-05
6.06988e-05
6.08322e-05
6.09371e-05
6.10116e-05
6.10586e-05
6.1072e-05
4.91576e-05
4.91935e-05
4.9232e-05
4.92731e-05
4.93172e-05
4.93645e-05
4.9415e-05
4.94686e-05
4.95257e-05
4.95863e-05
4.96509e-05
4.97195e-05
4.97921e-05
4.98689e-05
4.99499e-05
5.00354e-05
5.01257e-05
5.02207e-05
5.03202e-05
5.04247e-05
5.05344e-05
5.06497e-05
5.07708e-05
5.08978e-05
5.10307e-05
5.11699e-05
5.13153e-05
5.14662e-05
5.16223e-05
5.17836e-05
5.195e-05
5.21214e-05
5.2297e-05
5.24765e-05
5.26593e-05
5.28447e-05
5.30317e-05
5.32198e-05
5.34085e-05
5.35971e-05
5.37849e-05
5.39718e-05
5.41584e-05
5.43467e-05
5.45399e-05
5.47311e-05
5.49182e-05
5.51023e-05
5.52825e-05
5.54609e-05
4.90529e-05
4.90796e-05
4.91077e-05
4.91376e-05
4.91696e-05
4.92036e-05
4.92397e-05
4.92778e-05
4.93184e-05
4.93616e-05
4.94074e-05
4.94562e-05
4.95078e-05
4.95623e-05
4.96201e-05
4.96813e-05
4.97462e-05
4.98148e-05
4.98873e-05
4.99639e-05
5.0045e-05
5.01309e-05
5.02216e-05
5.03172e-05
5.04178e-05
5.05237e-05
5.06351e-05
5.0752e-05
5.08745e-05
5.10031e-05
5.1138e-05
5.12795e-05
5.14274e-05
5.15819e-05
5.17431e-05
5.19111e-05
5.20861e-05
5.2269e-05
5.24596e-05
5.26578e-05
5.28635e-05
5.30767e-05
5.32982e-05
5.35281e-05
5.37675e-05
5.40174e-05
5.42779e-05
5.45519e-05
5.4835e-05
5.51261e-05
4.93008e-05
4.93375e-05
4.93756e-05
4.94155e-05
4.94571e-05
4.95005e-05
4.95457e-05
4.95927e-05
4.96418e-05
4.96933e-05
4.97475e-05
4.98043e-05
4.98639e-05
4.99264e-05
4.99921e-05
5.00612e-05
5.0134e-05
5.02106e-05
5.0291e-05
5.03757e-05
5.04649e-05
5.05589e-05
5.06577e-05
5.07614e-05
5.08705e-05
5.09853e-05
5.11058e-05
5.12323e-05
5.13651e-05
5.15048e-05
5.16517e-05
5.18058e-05
5.19675e-05
5.21373e-05
5.23155e-05
5.25025e-05
5.26994e-05
5.29065e-05
5.3124e-05
5.33524e-05
5.3592e-05
5.38434e-05
5.4108e-05
5.43862e-05
5.46778e-05
5.49815e-05
5.52986e-05
5.56306e-05
5.59827e-05
5.6349e-05
4.97472e-05
4.97979e-05
4.98503e-05
4.99046e-05
4.99609e-05
5.0019e-05
5.0079e-05
5.01411e-05
5.02057e-05
5.02731e-05
5.03432e-05
5.04163e-05
5.04922e-05
5.05712e-05
5.06537e-05
5.074e-05
5.08302e-05
5.09244e-05
5.10228e-05
5.11256e-05
5.12332e-05
5.13456e-05
5.14631e-05
5.15859e-05
5.17144e-05
5.18489e-05
5.19894e-05
5.21363e-05
5.22899e-05
5.24508e-05
5.26192e-05
5.27952e-05
5.29794e-05
5.31724e-05
5.33745e-05
5.35866e-05
5.38095e-05
5.40438e-05
5.42895e-05
5.45471e-05
5.4817e-05
5.51006e-05
5.53983e-05
5.57114e-05
5.60403e-05
5.6384e-05
5.67429e-05
5.71146e-05
5.75006e-05
5.79073e-05
5.0247e-05
5.03148e-05
5.03844e-05
5.04559e-05
5.05294e-05
5.06048e-05
5.06823e-05
5.07621e-05
5.08447e-05
5.09301e-05
5.10185e-05
5.11098e-05
5.12042e-05
5.13019e-05
5.14034e-05
5.15089e-05
5.16184e-05
5.17321e-05
5.18501e-05
5.19726e-05
5.21e-05
5.22322e-05
5.23697e-05
5.25127e-05
5.26616e-05
5.28164e-05
5.29773e-05
5.31446e-05
5.33188e-05
5.35001e-05
5.36889e-05
5.38854e-05
5.40904e-05
5.4304e-05
5.4527e-05
5.47603e-05
5.50042e-05
5.52586e-05
5.55242e-05
5.58018e-05
5.60927e-05
5.63977e-05
5.67158e-05
5.70486e-05
5.73963e-05
5.77614e-05
5.8141e-05
5.85347e-05
5.89373e-05
5.93533e-05
5.07748e-05
5.08585e-05
5.09443e-05
5.1032e-05
5.11217e-05
5.12133e-05
5.1307e-05
5.14033e-05
5.15024e-05
5.16045e-05
5.17096e-05
5.18176e-05
5.19287e-05
5.20433e-05
5.21618e-05
5.22842e-05
5.24107e-05
5.25413e-05
5.26762e-05
5.28155e-05
5.29596e-05
5.31086e-05
5.32627e-05
5.34224e-05
5.35876e-05
5.37585e-05
5.39351e-05
5.4118e-05
5.43077e-05
5.45042e-05
5.47077e-05
5.49187e-05
5.51376e-05
5.53646e-05
5.56005e-05
5.58462e-05
5.61019e-05
5.63678e-05
5.6644e-05
5.69311e-05
5.72301e-05
5.75412e-05
5.78664e-05
5.82038e-05
5.85529e-05
5.89178e-05
5.92972e-05
5.96904e-05
6.00925e-05
6.05022e-05
5.12412e-05
5.13404e-05
5.14413e-05
5.15441e-05
5.16487e-05
5.17552e-05
5.18637e-05
5.19749e-05
5.20888e-05
5.22056e-05
5.23251e-05
5.24476e-05
5.25731e-05
5.27022e-05
5.28349e-05
5.29715e-05
5.31119e-05
5.32561e-05
5.34043e-05
5.35569e-05
5.37139e-05
5.38757e-05
5.40422e-05
5.42139e-05
5.43907e-05
5.45726e-05
5.47599e-05
5.49532e-05
5.51528e-05
5.53584e-05
5.55705e-05
5.57893e-05
5.60151e-05
5.62487e-05
5.64907e-05
5.67413e-05
5.70001e-05
5.72671e-05
5.75428e-05
5.78286e-05
5.8126e-05
5.84331e-05
5.87497e-05
5.90771e-05
5.94162e-05
5.97638e-05
6.01235e-05
6.04929e-05
6.08733e-05
6.12583e-05
5.16128e-05
5.17245e-05
5.18378e-05
5.19528e-05
5.20695e-05
5.21879e-05
5.23085e-05
5.24313e-05
5.25567e-05
5.26848e-05
5.28155e-05
5.29489e-05
5.30853e-05
5.3225e-05
5.33681e-05
5.35147e-05
5.36647e-05
5.38182e-05
5.39755e-05
5.41367e-05
5.43021e-05
5.44718e-05
5.46459e-05
5.48246e-05
5.50079e-05
5.51957e-05
5.53887e-05
5.55872e-05
5.5791e-05
5.60001e-05
5.62148e-05
5.64356e-05
5.66623e-05
5.68954e-05
5.71352e-05
5.73819e-05
5.76354e-05
5.78961e-05
5.81645e-05
5.8441e-05
5.87236e-05
5.90161e-05
5.93139e-05
5.96182e-05
5.99322e-05
6.02544e-05
6.05815e-05
6.09131e-05
6.12504e-05
6.15929e-05
5.18251e-05
5.19467e-05
5.20697e-05
5.21942e-05
5.23201e-05
5.24474e-05
5.25766e-05
5.27079e-05
5.28415e-05
5.29774e-05
5.31158e-05
5.32567e-05
5.34003e-05
5.35468e-05
5.36964e-05
5.3849e-05
5.40046e-05
5.41633e-05
5.43254e-05
5.44912e-05
5.46608e-05
5.48343e-05
5.50118e-05
5.51933e-05
5.53788e-05
5.55685e-05
5.57629e-05
5.59618e-05
5.61651e-05
5.63728e-05
5.65851e-05
5.6802e-05
5.70239e-05
5.72514e-05
5.74844e-05
5.77224e-05
5.79652e-05
5.82126e-05
5.84649e-05
5.87242e-05
5.89872e-05
5.92548e-05
5.9527e-05
5.98037e-05
6.00811e-05
6.03634e-05
6.06471e-05
6.09322e-05
6.12167e-05
6.15009e-05
5.18445e-05
5.19722e-05
5.2101e-05
5.22309e-05
5.2362e-05
5.24943e-05
5.26281e-05
5.27637e-05
5.29015e-05
5.30414e-05
5.31833e-05
5.33274e-05
5.34739e-05
5.36229e-05
5.37746e-05
5.39289e-05
5.40858e-05
5.42456e-05
5.44087e-05
5.45752e-05
5.47453e-05
5.49189e-05
5.50961e-05
5.52767e-05
5.54608e-05
5.56487e-05
5.58404e-05
5.60358e-05
5.62347e-05
5.64375e-05
5.66441e-05
5.68544e-05
5.70687e-05
5.72869e-05
5.75082e-05
5.77324e-05
5.79597e-05
5.81904e-05
5.84248e-05
5.86601e-05
5.88997e-05
5.91354e-05
5.93728e-05
5.96121e-05
5.98518e-05
6.00868e-05
6.03181e-05
6.05465e-05
6.07694e-05
6.09864e-05
5.16119e-05
5.17414e-05
5.18719e-05
5.20031e-05
5.2135e-05
5.22678e-05
5.24018e-05
5.25375e-05
5.26752e-05
5.28146e-05
5.29557e-05
5.30986e-05
5.32435e-05
5.33909e-05
5.35408e-05
5.3693e-05
5.38478e-05
5.40055e-05
5.41665e-05
5.43308e-05
5.44984e-05
5.46693e-05
5.48434e-05
5.50207e-05
5.52012e-05
5.53853e-05
5.55727e-05
5.57631e-05
5.59567e-05
5.61533e-05
5.63525e-05
5.6554e-05
5.67581e-05
5.69644e-05
5.71726e-05
5.73827e-05
5.75934e-05
5.78045e-05
5.8018e-05
5.82266e-05
5.84369e-05
5.86427e-05
5.88469e-05
5.90427e-05
5.92367e-05
5.94211e-05
5.95973e-05
5.97636e-05
5.99182e-05
6.00613e-05
5.10623e-05
5.11883e-05
5.13149e-05
5.14419e-05
5.15692e-05
5.16972e-05
5.18264e-05
5.19573e-05
5.20898e-05
5.22236e-05
5.23587e-05
5.24954e-05
5.26344e-05
5.27761e-05
5.29204e-05
5.30671e-05
5.32165e-05
5.33693e-05
5.35256e-05
5.36854e-05
5.38485e-05
5.4015e-05
5.41851e-05
5.43588e-05
5.45361e-05
5.47168e-05
5.49003e-05
5.50863e-05
5.52753e-05
5.54669e-05
5.566e-05
5.58548e-05
5.60519e-05
5.62494e-05
5.64466e-05
5.66437e-05
5.68389e-05
5.70322e-05
5.72237e-05
5.74118e-05
5.75899e-05
5.77631e-05
5.79307e-05
5.80904e-05
5.82359e-05
5.83674e-05
5.84861e-05
5.8589e-05
5.86738e-05
5.87389e-05
5.00793e-05
5.0195e-05
5.03107e-05
5.04265e-05
5.05423e-05
5.06588e-05
5.07764e-05
5.08956e-05
5.10159e-05
5.11373e-05
5.126e-05
5.13849e-05
5.1513e-05
5.16443e-05
5.17786e-05
5.19158e-05
5.20568e-05
5.22021e-05
5.23518e-05
5.25053e-05
5.26629e-05
5.28254e-05
5.29929e-05
5.31652e-05
5.33418e-05
5.35222e-05
5.37063e-05
5.38943e-05
5.40859e-05
5.42794e-05
5.44741e-05
5.467e-05
5.48658e-05
5.50591e-05
5.52511e-05
5.54415e-05
5.56292e-05
5.58144e-05
5.59869e-05
5.616e-05
5.63166e-05
5.6467e-05
5.65977e-05
5.6723e-05
5.68276e-05
5.69113e-05
5.69763e-05
5.70179e-05
5.70355e-05
5.70228e-05
4.85417e-05
4.86387e-05
4.8735e-05
4.88308e-05
4.89263e-05
4.90222e-05
4.91189e-05
4.92164e-05
4.93145e-05
4.94134e-05
4.9514e-05
4.96179e-05
4.97256e-05
4.98368e-05
4.99511e-05
5.00696e-05
5.01936e-05
5.03232e-05
5.04576e-05
5.05972e-05
5.07435e-05
5.08976e-05
5.10589e-05
5.1227e-05
5.14016e-05
5.15825e-05
5.17697e-05
5.19626e-05
5.216e-05
5.23606e-05
5.25643e-05
5.27714e-05
5.29775e-05
5.31812e-05
5.33859e-05
5.35843e-05
5.37755e-05
5.39682e-05
5.41424e-05
5.43093e-05
5.44625e-05
5.46022e-05
5.47227e-05
5.48217e-05
5.48981e-05
5.49483e-05
5.49693e-05
5.49585e-05
5.49144e-05
5.48339e-05
4.67223e-05
4.6783e-05
4.68425e-05
4.68997e-05
4.69551e-05
4.70091e-05
4.70618e-05
4.71126e-05
4.71612e-05
4.72081e-05
4.72553e-05
4.73042e-05
4.73544e-05
4.7405e-05
4.74566e-05
4.75114e-05
4.75706e-05
4.76324e-05
4.76962e-05
4.77648e-05
4.78416e-05
4.79277e-05
4.80227e-05
4.81279e-05
4.82456e-05
4.8376e-05
4.85192e-05
4.86786e-05
4.8856e-05
4.9048e-05
4.92565e-05
4.94755e-05
4.96796e-05
4.98858e-05
5.00987e-05
5.03119e-05
5.05338e-05
5.07532e-05
5.09729e-05
5.11595e-05
5.13613e-05
5.15108e-05
5.16542e-05
5.17626e-05
5.18252e-05
5.18545e-05
5.18449e-05
5.17859e-05
5.16735e-05
5.15128e-05
5.19622e-05
5.14633e-05
5.0973e-05
5.04879e-05
5.0012e-05
4.95464e-05
4.909e-05
4.86409e-05
4.81993e-05
4.77685e-05
4.73515e-05
4.69479e-05
4.65545e-05
4.61716e-05
4.58048e-05
4.5457e-05
4.51225e-05
4.47957e-05
4.44821e-05
4.41906e-05
4.39177e-05
4.36509e-05
4.33867e-05
4.31275e-05
4.28648e-05
4.26014e-05
4.24024e-05
4.23792e-05
4.27906e-05
4.35073e-05
4.40324e-05
4.41318e-05
4.36308e-05
4.41647e-05
4.49239e-05
4.52656e-05
4.58547e-05
4.62691e-05
4.67773e-05
4.71803e-05
4.76585e-05
4.81504e-05
4.85932e-05
4.90205e-05
4.94435e-05
4.9867e-05
5.02925e-05
5.07108e-05
5.10959e-05
5.14266e-05
0.00108926
0.00107437
0.00106012
0.00104646
0.00103331
0.00102061
0.0010083
0.00099635
0.000984742
0.000973461
0.000962493
0.000951827
0.000941451
0.000931355
0.000921527
0.00091196
0.000902643
0.000893569
0.000884728
0.000876114
0.000867718
0.000859533
0.000851553
0.000843771
0.00083618
0.000828775
0.000821549
0.000814498
0.000807615
0.000800896
0.000794337
0.000787932
0.000781677
0.000775569
0.000769604
0.000763778
0.000758088
0.000752532
0.000747095
0.000741762
0.000736525
0.00073138
0.000726317
0.000721328
0.000716401
0.000711521
0.000706665
0.000701795
0.000696844
0.000691682
0.0010825
0.0010577
0.00103401
0.00101132
0.000989614
0.000968841
0.000948979
0.000929973
0.00091177
0.000894321
0.00087758
0.000861504
0.000846054
0.000831195
0.000816892
0.000803116
0.000789836
0.000777028
0.000764665
0.000752725
0.000741185
0.000730027
0.00071923
0.000708778
0.000698653
0.00068884
0.000679324
0.000670091
0.000661128
0.000652422
0.000643961
0.000635733
0.000627728
0.000619933
0.000612338
0.000604932
0.000597704
0.000590643
0.000583754
0.000577041
0.000570499
0.000564121
0.000557899
0.000551829
0.000545902
0.000540112
0.000534451
0.000528909
0.000523473
0.000518128
0.00108247
0.00105761
0.00103378
0.00101097
0.000989138
0.000968226
0.000948182
0.000928955
0.000910496
0.000892758
0.0008757
0.000859282
0.000843469
0.000828228
0.000813528
0.000799341
0.000785639
0.0007724
0.0007596
0.000747217
0.000735232
0.000723626
0.000712381
0.000701481
0.00069091
0.000680655
0.0006707
0.000661034
0.000651644
0.000642518
0.000633646
0.000625018
0.000616623
0.000608454
0.000600502
0.00059276
0.00058522
0.000577874
0.000570716
0.00056374
0.00055694
0.000550311
0.000543847
0.000537544
0.000531398
0.000525406
0.000519565
0.00051387
0.000508317
0.000502895
0.00108247
0.00105779
0.00103417
0.00101158
0.000989933
0.00096918
0.000949266
0.00093014
0.000911757
0.000894073
0.000877051
0.000860655
0.00084485
0.000829607
0.000814896
0.00080069
0.000786965
0.000773696
0.000760862
0.000748443
0.000736418
0.00072477
0.000713481
0.000702536
0.000691919
0.000681616
0.000671614
0.0006619
0.000652462
0.000643289
0.00063437
0.000625695
0.000617254
0.00060904
0.000601043
0.000593255
0.000585669
0.000578278
0.000571075
0.000564054
0.00055721
0.000550537
0.000544029
0.000537683
0.000531493
0.000525455
0.000519566
0.000513826
0.00050823
0.000502767
0.00108247
0.00105779
0.00103417
0.00101155
0.000989865
0.000969073
0.000949121
0.000929962
0.000911552
0.000893848
0.000876813
0.000860409
0.000844602
0.000829362
0.000814658
0.000800463
0.000786751
0.000773497
0.00076068
0.000748279
0.000736273
0.000724644
0.000713375
0.00070245
0.000691853
0.000681569
0.000671586
0.00066189
0.00065247
0.000643314
0.000634411
0.000625752
0.000617326
0.000609126
0.000601142
0.000593367
0.000585793
0.000578413
0.00057122
0.000564208
0.000557371
0.000550703
0.000544201
0.000537858
0.00053167
0.000525632
0.000519739
0.000513989
0.000508381
0.000502906
0.00108247
0.00105781
0.00103421
0.00101163
0.00098999
0.000969246
0.000949344
0.000930232
0.000911866
0.000894203
0.000877203
0.000860831
0.000845051
0.000829833
0.000815148
0.000800967
0.000787267
0.000774022
0.00076121
0.000748812
0.000736808
0.000725179
0.000713908
0.000702979
0.000692377
0.000682089
0.000672099
0.000662396
0.000652968
0.000643803
0.000634891
0.000626222
0.000617787
0.000609576
0.000601581
0.000593794
0.000586207
0.000578814
0.000571607
0.000564581
0.000557729
0.000551045
0.000544525
0.000538163
0.000531955
0.000525896
0.000519981
0.000514205
0.000508565
0.000503057
0.00108247
0.00105781
0.00103422
0.00101164
0.000990002
0.000969255
0.000949345
0.000930223
0.000911844
0.000894168
0.000877154
0.000860768
0.000844976
0.000829747
0.000815051
0.000800862
0.000787154
0.000773903
0.000761087
0.000748686
0.000736679
0.000725049
0.000713778
0.000702849
0.000692249
0.000681962
0.000671974
0.000662274
0.000652849
0.000643688
0.00063478
0.000626114
0.000617682
0.000609475
0.000601483
0.000593699
0.000586116
0.000578725
0.000571521
0.000564496
0.000557645
0.000550962
0.000544441
0.000538076
0.000531864
0.0005258
0.000519879
0.000514095
0.000508444
0.000502922
0.00108247
0.00105781
0.00103423
0.00101165
0.000990023
0.000969285
0.000949386
0.000930275
0.000911909
0.000894245
0.000877245
0.000860872
0.000845092
0.000829875
0.00081519
0.000801011
0.000787313
0.00077407
0.000761262
0.000748866
0.000736865
0.000725239
0.000713971
0.000703045
0.000692446
0.00068216
0.000672172
0.000662471
0.000653045
0.000643881
0.00063497
0.000626301
0.000617865
0.000609652
0.000601655
0.000593865
0.000586274
0.000578876
0.000571662
0.000564628
0.000557766
0.000551071
0.000544537
0.000538158
0.000531929
0.000525847
0.000519905
0.0005141
0.000508425
0.000502877
0.00108247
0.00105781
0.00103423
0.00101166
0.00099003
0.000969293
0.000949394
0.000930283
0.000911916
0.000894249
0.000877245
0.000860868
0.000845084
0.000829861
0.000815172
0.000800987
0.000787284
0.000774036
0.000761223
0.000748824
0.000736818
0.000725188
0.000713917
0.000702989
0.000692387
0.000682098
0.000672109
0.000662406
0.000652978
0.000643813
0.0006349
0.00062623
0.000617792
0.000609578
0.000601579
0.000593787
0.000586194
0.000578793
0.000571577
0.000564539
0.000557672
0.000550972
0.000544432
0.000538046
0.00053181
0.000525717
0.000519765
0.000513946
0.000508258
0.000502693
0.00108247
0.00105781
0.00103423
0.00101166
0.000990033
0.000969299
0.000949401
0.000930292
0.000911927
0.000894262
0.000877261
0.000860886
0.000845105
0.000829885
0.000815198
0.000801017
0.000787316
0.000774071
0.00076126
0.000748863
0.000736859
0.000725231
0.000713961
0.000703033
0.000692432
0.000682144
0.000672154
0.000662451
0.000653022
0.000643856
0.000634942
0.000626269
0.000617829
0.000609612
0.00060161
0.000593814
0.000586216
0.00057881
0.000571587
0.000564542
0.000557668
0.000550959
0.000544409
0.000538012
0.000531763
0.000525656
0.000519687
0.000513851
0.000508143
0.000502558
0.00108247
0.00105781
0.00103423
0.00101166
0.000990033
0.000969299
0.000949401
0.000930292
0.000911926
0.000894262
0.000877261
0.000860886
0.000845104
0.000829884
0.000815197
0.000801016
0.000787314
0.000774069
0.000761258
0.00074886
0.000736856
0.000725227
0.000713956
0.000703028
0.000692426
0.000682136
0.000672146
0.000662441
0.00065301
0.000643842
0.000634926
0.000626251
0.000617809
0.000609589
0.000601583
0.000593783
0.000586181
0.00057877
0.000571542
0.000564491
0.00055761
0.000550892
0.000544333
0.000537925
0.000531665
0.000525545
0.000519562
0.00051371
0.000507984
0.00050238
0.00108247
0.00105781
0.00103423
0.00101166
0.00099003
0.000969293
0.000949394
0.000930283
0.000911915
0.000894248
0.000877244
0.000860866
0.000845082
0.000829859
0.000815168
0.000800984
0.000787279
0.000774031
0.000761216
0.000748816
0.000736809
0.000725178
0.000713905
0.000702974
0.00069237
0.000682078
0.000672085
0.000662379
0.000652947
0.000643777
0.000634859
0.000626182
0.000617737
0.000609515
0.000601507
0.000593705
0.0005861
0.000578685
0.000571453
0.000564397
0.00055751
0.000550787
0.00054422
0.000537805
0.000531535
0.000525405
0.00051941
0.000513544
0.000507803
0.000502182
0.00108247
0.00105781
0.00103423
0.00101165
0.000990023
0.000969285
0.000949385
0.000930274
0.000911908
0.000894244
0.000877243
0.000860869
0.000845089
0.00082987
0.000815185
0.000801005
0.000787304
0.00077406
0.00076125
0.000748852
0.000736848
0.000725219
0.000713948
0.000703019
0.000692415
0.000682124
0.000672131
0.000662424
0.00065299
0.000643818
0.000634897
0.000626218
0.00061777
0.000609543
0.00060153
0.000593722
0.000586111
0.00057869
0.00057145
0.000564385
0.000557489
0.000550755
0.000544177
0.000537748
0.000531464
0.000525318
0.000519305
0.00051342
0.000507659
0.000502014
0.00108247
0.00105781
0.00103422
0.00101164
0.000990002
0.000969255
0.000949344
0.000930222
0.000911843
0.000894165
0.000877151
0.000860765
0.000844972
0.000829741
0.000815044
0.000800853
0.000787143
0.000773891
0.000761073
0.000748668
0.000736658
0.000725024
0.000713749
0.000702816
0.00069221
0.000681916
0.000671922
0.000662213
0.000652779
0.000643607
0.000634686
0.000626007
0.000617559
0.000609333
0.00060132
0.000593512
0.000585901
0.000578479
0.000571239
0.000564173
0.000557275
0.000550539
0.000543957
0.000537525
0.000531235
0.000525082
0.000519062
0.000513167
0.000507394
0.000501737
0.00108247
0.00105781
0.00103421
0.00101163
0.000989989
0.000969246
0.000949343
0.000930231
0.000911864
0.0008942
0.0008772
0.000860826
0.000845045
0.000829826
0.000815138
0.000800956
0.000787252
0.000774005
0.00076119
0.000748788
0.000736779
0.000725145
0.000713869
0.000702933
0.000692324
0.000682027
0.000672027
0.000662313
0.000652873
0.000643694
0.000634766
0.000626079
0.000617623
0.000609388
0.000601366
0.000593548
0.000585927
0.000578494
0.000571242
0.000564164
0.000557253
0.000550502
0.000543905
0.000537456
0.000531149
0.000524977
0.000518936
0.000513019
0.000507221
0.000501536
0.00108247
0.00105779
0.00103417
0.00101155
0.000989864
0.000969073
0.00094912
0.000929961
0.000911549
0.000893845
0.000876808
0.000860403
0.000844596
0.000829354
0.000814648
0.00080045
0.000786735
0.000773479
0.000760659
0.000748253
0.000736242
0.000724608
0.000713333
0.0007024
0.000691795
0.000681502
0.000671508
0.000661799
0.000652365
0.000643193
0.000634272
0.000625591
0.000617142
0.000608914
0.000600898
0.000593087
0.000585471
0.000578044
0.000570797
0.000563724
0.000556816
0.000550069
0.000543474
0.000537027
0.000530719
0.000524547
0.000518502
0.000512581
0.000506778
0.000501086
0.00108247
0.00105779
0.00103417
0.00101158
0.000989932
0.00096918
0.000949265
0.000930139
0.000911754
0.00089407
0.000877046
0.000860648
0.000844842
0.000829596
0.000814883
0.000800674
0.000786946
0.000773674
0.000760836
0.000748411
0.000736381
0.000724726
0.00071343
0.000702476
0.000691849
0.000681535
0.000671521
0.000661792
0.000652338
0.000643146
0.000634206
0.000625507
0.00061704
0.000608794
0.000600762
0.000592935
0.000585304
0.000577861
0.0005706
0.000563512
0.000556592
0.000549832
0.000543226
0.000536768
0.000530452
0.000524272
0.000518223
0.000512301
0.000506501
0.00050082
0.00108247
0.00105761
0.00103378
0.00101097
0.000989137
0.000968224
0.000948181
0.000928953
0.000910493
0.000892754
0.000875695
0.000859276
0.000843461
0.000828218
0.000813516
0.000799326
0.000785622
0.00077238
0.000759576
0.000747189
0.000735199
0.000723588
0.000712337
0.000701431
0.000690854
0.00068059
0.000670628
0.000660952
0.000651552
0.000642416
0.000633533
0.000624893
0.000616485
0.000608301
0.000600333
0.000592571
0.000585008
0.000577637
0.000570452
0.000563445
0.000556611
0.000549944
0.00054344
0.000537095
0.000530905
0.000524869
0.000518986
0.000513259
0.000507696
0.000502315
0.0010825
0.0010577
0.00103401
0.00101132
0.000989613
0.00096884
0.000948977
0.000929972
0.00091177
0.000894321
0.00087758
0.000861505
0.000846056
0.000831198
0.000816897
0.000803123
0.000789846
0.000777041
0.000764682
0.000752748
0.000741215
0.000730065
0.000719279
0.00070884
0.000698731
0.000688938
0.000679446
0.000670242
0.000661315
0.000652652
0.000644243
0.000636079
0.00062815
0.000620448
0.000612966
0.000605696
0.000598634
0.000591773
0.00058511
0.00057864
0.000572363
0.000566276
0.00056038
0.000554678
0.000549175
0.000543881
0.000538813
0.000534001
0.000529504
0.000525438
0.00108926
0.00107437
0.00106012
0.00104646
0.00103331
0.00102061
0.0010083
0.000996348
0.000984739
0.000973457
0.000962488
0.00095182
0.000941441
0.000931342
0.000921511
0.00091194
0.000902619
0.000893539
0.000884692
0.00087607
0.000867665
0.000859471
0.000851479
0.000843683
0.000836076
0.000828652
0.000821405
0.000814329
0.000807418
0.000800666
0.000794069
0.00078762
0.000781314
0.000775148
0.000769114
0.00076321
0.000757429
0.000751767
0.000746219
0.000740781
0.000735446
0.00073021
0.000725068
0.000720013
0.00071504
0.000710143
0.000705312
0.000700541
0.000695815
0.000691121
0.000462127
0.000235466
0.000187201
0.000182188
0.000178912
0.000178123
0.000175728
0.000174413
0.000172295
0.000170563
0.000168667
0.000166636
0.000164911
0.000162616
0.000161072
0.000158562
0.000157848
0.000159335
0.000198166
0.000393893
0.000462585
0.000236369
0.000188205
0.000183225
0.000179939
0.000179132
0.00017672
0.00017538
0.000173257
0.000171507
0.000169606
0.000167564
0.000165834
0.000163534
0.000161986
0.000159461
0.000158726
0.00016014
0.000198747
0.000393885
0.000463055
0.00023728
0.000189205
0.000184253
0.000180958
0.000180132
0.000177703
0.00017634
0.000174211
0.000172445
0.000170537
0.000168486
0.000166751
0.000164444
0.000162892
0.000160354
0.000159599
0.000160946
0.000199334
0.000393858
0.000463547
0.000238201
0.000190202
0.000185275
0.000181971
0.000181125
0.00017868
0.000177293
0.000175158
0.000173376
0.000171462
0.000169402
0.000167661
0.000165348
0.000163793
0.000161241
0.000160468
0.000161753
0.000199936
0.00039384
0.000464069
0.000239134
0.000191196
0.00018629
0.000182977
0.000182109
0.00017965
0.000178241
0.0001761
0.000174301
0.000172381
0.000170312
0.000168565
0.000166247
0.000164687
0.000162121
0.000161333
0.00016256
0.000200555
0.000393847
0.000464624
0.000240079
0.000192188
0.000187298
0.000183976
0.000183086
0.000180615
0.000179183
0.000177036
0.000175221
0.000173294
0.000171216
0.000169464
0.00016714
0.000165577
0.000162997
0.000162195
0.000163369
0.000201194
0.000393888
0.000465215
0.000241038
0.000193178
0.0001883
0.00018497
0.000184056
0.000181575
0.000180119
0.000177967
0.000176136
0.000174203
0.000172116
0.000170358
0.000168028
0.000166461
0.000163868
0.000163054
0.000164179
0.000201854
0.000393969
0.000465842
0.00024201
0.000194166
0.000189297
0.000185958
0.00018502
0.00018253
0.000181051
0.000178894
0.000177047
0.000175107
0.00017301
0.000171248
0.00016891
0.000167342
0.000164735
0.00016391
0.000164991
0.000202535
0.000394093
0.000466506
0.000242996
0.000195153
0.000190289
0.000186942
0.000185978
0.000183482
0.000181979
0.000179816
0.000177954
0.000176008
0.000173901
0.000172134
0.000169788
0.000168218
0.000165598
0.000164764
0.000165804
0.000203236
0.000394262
0.000467204
0.000243996
0.000196139
0.000191275
0.000187921
0.00018693
0.00018443
0.000182903
0.000180735
0.000178857
0.000176904
0.000174788
0.000173016
0.000170663
0.000169091
0.000166457
0.000165616
0.00016662
0.000203958
0.000394477
0.000467934
0.000245009
0.000197124
0.000192258
0.000188896
0.000187878
0.000185374
0.000183824
0.00018165
0.000179758
0.000177798
0.000175672
0.000173896
0.000171535
0.000169961
0.000167313
0.000166466
0.000167438
0.0002047
0.000394739
0.000468697
0.000246036
0.000198109
0.000193235
0.000189867
0.000188822
0.000186316
0.000184742
0.000182563
0.000180655
0.00017869
0.000176554
0.000174772
0.000172403
0.000170828
0.000168166
0.000167315
0.000168258
0.000205462
0.000395047
0.000469487
0.000247077
0.000199094
0.000194209
0.000190836
0.000189764
0.000187255
0.000185658
0.000183473
0.000181551
0.000179579
0.000177433
0.000175647
0.00017327
0.000171693
0.000169017
0.000168164
0.000169081
0.000206244
0.000395401
0.000470304
0.000248132
0.00020008
0.00019518
0.000191801
0.000190703
0.000188191
0.000186573
0.000184381
0.000182445
0.000180466
0.000178311
0.000176521
0.000174134
0.000172557
0.000169867
0.000169012
0.000169907
0.000207044
0.000395801
0.000471144
0.000249202
0.000201066
0.000196148
0.000192765
0.00019164
0.000189127
0.000187486
0.000185288
0.000183338
0.000181353
0.000179188
0.000177393
0.000174998
0.00017342
0.000170716
0.00016986
0.000170737
0.000207863
0.000396245
0.000472003
0.000250286
0.000202053
0.000197113
0.000193726
0.000192576
0.00019006
0.000188398
0.000186194
0.00018423
0.000182239
0.000180063
0.000178265
0.000175861
0.000174283
0.000171564
0.000170709
0.00017157
0.000208699
0.000396732
0.000472879
0.000251385
0.000203042
0.000198076
0.000194687
0.000193511
0.000190993
0.00018931
0.0001871
0.000185121
0.000183124
0.000180939
0.000179137
0.000176723
0.000175145
0.000172412
0.000171558
0.000172407
0.000209553
0.000397261
0.000473768
0.0002525
0.000204033
0.000199038
0.000195647
0.000194445
0.000191924
0.000190221
0.000188005
0.000186013
0.00018401
0.000181815
0.000180009
0.000177586
0.000176008
0.000173261
0.000172409
0.000173249
0.000210423
0.000397828
0.000474663
0.000253631
0.000205026
0.000199998
0.000196607
0.000195378
0.000192856
0.000191132
0.000188911
0.000186905
0.000184896
0.000182691
0.000180882
0.00017845
0.000176871
0.000174111
0.000173262
0.000174095
0.000211309
0.000398433
0.000475564
0.000254779
0.000206021
0.000200957
0.000197567
0.000196312
0.000193787
0.000192044
0.000189817
0.000187798
0.000185784
0.000183569
0.000181757
0.000179315
0.000177736
0.000174962
0.000174116
0.000174946
0.000212211
0.000399073
0.000476465
0.000255946
0.00020702
0.000201916
0.000198528
0.000197246
0.000194719
0.000192957
0.000190724
0.000188693
0.000186673
0.000184449
0.000182633
0.000180182
0.000178603
0.000175815
0.000174973
0.000175802
0.000213127
0.000399745
0.00047736
0.000257131
0.000208022
0.000202875
0.00019949
0.000198182
0.000195652
0.000193872
0.000191634
0.00018959
0.000187565
0.000185331
0.000183511
0.000181051
0.000179472
0.00017667
0.000175834
0.000176664
0.000214058
0.000400448
0.000478247
0.000258337
0.000209028
0.000203834
0.000200454
0.000199119
0.000196587
0.000194789
0.000192545
0.000190489
0.000188459
0.000186215
0.000184393
0.000181923
0.000180344
0.000177529
0.000176697
0.000177532
0.000215004
0.000401178
0.000479119
0.000259565
0.000210038
0.000204795
0.000201419
0.000200058
0.000197524
0.000195708
0.000193459
0.000191391
0.000189356
0.000187102
0.000185277