/*--------------------------------*- C++ -*----------------------------------*\
  =========                 |
  \\      /  F ield         | OpenFOAM: The Open Source CFD Toolbox
   \\    /   O peration     | Website:  https://openfoam.org
    \\  /    A nd           | Version:  8
     \\/     M anipulation  |
\*---------------------------------------------------------------------------*/
FoamFile
{
    version     2.0;
    format      ascii;
    class       volScalarField;
    location    "100";
    object      p;
}
// * * * * * * * * * * * * * * * * * * * * * * * * * * * * * * * * * * * * * //

dimensions      [1 -1 -2 0 0 0 0];

internalField   nonuniform List<scalar> 
8400
(
11756.6
11627.9
11447.9
11203.1
10900.4
10550.1
10166.2
9765.66
9365.32
8980.17
8621.22
8293.92
7999.16
7734.76
7497.3
7282.56
7084.72
6896.24
6708.84
6515.23
6310.48
6093.21
5865.04
5630.47
5396.41
5170.76
4960.2
4768.38
4595.95
4442.22
4306.44
4187.51
4083.88
3995.18
3924.21
3876.94
3861.53
3888.71
3972.19
4127.16
4369.58
4719.2
5203
5855.75
6719.21
7836.42
9256.93
11117.5
13744.6
17278.8
11626.7
11469.5
11283.1
11039.5
10740.5
10393.9
10012.7
9613.32
9212.9
8826.45
8464.45
8131.77
7829.46
7556.51
7310.55
7088.01
6883.11
6688.06
6494.46
6295.35
6086.28
5865.47
5633.97
5395.87
5157.83
4927.26
4709.69
4507.67
4321.87
4152.52
3999.21
3859.99
3732.54
3616.73
3515.54
3433.97
3379.26
3362
3394.55
3488.57
3657.16
3918.39
4294.28
4810.21
5495.74
6376.68
7478.36
8870.44
10694.1
12992.1
11543.5
11423.3
11253.8
11025.2
10742
10411.1
10044.5
9657.78
9267.7
8888.4
8529.8
8197.5
7893.64
7618.55
7371.27
7148.8
6945.47
6753.78
6566.38
6376.92
6181.23
5977.1
5764.66
5547.15
5330.39
5120.54
4922.09
4737.52
4568.42
4415.64
4278.34
4154.21
4041.82
3942.42
3859.35
3797.73
3765.91
3775.23
3837.03
3962.33
4165.43
4464.53
4880.15
5436.48
6158.09
7064.88
8180.76
9540.51
11173.8
12999.1
11292.5
11142.7
10962.9
10738.1
10464.1
10144.2
9787.78
9408.53
9021.33
8639.17
8271.8
7925.43
7603.89
7309.24
7041.66
6798.54
6574.66
6363.4
6158.15
5953.57
5745.39
5530.38
5307.61
5079.38
4850.09
4624.25
4405.07
4194.73
3994.81
3805.59
3625.27
3451.41
3283.47
3123.08
2973.18
2838.88
2728.43
2650.83
2614.15
2628.16
2706.06
2863.16
3117.51
3488.57
3993.68
4651.65
5485.34
6514.93
7726.88
9075.5
11249.1
11146.5
10988.4
10785.3
10536.5
10244.6
9916.43
9563.25
9197.59
8831.16
8473.6
8132.27
7812.96
7519.27
7252.41
7010.32
6788.2
6580.89
6383.16
6190.26
5997.83
5802.37
5602.69
5400.34
5198.4
4999.69
4806.17
4619.57
4441.13
4270.21
4104.5
3942.44
3784.73
3633.42
3491.84
3365.86
3262.7
3188.32
3148.85
3153.57
3213.74
3342.21
3553.14
3858.08
4267.54
4794.26
5450.66
6241.15
7149.46
8111.7
10942.3
10775.6
10591.5
10384.7
10142.4
9861.95
9546.35
9203.31
8842.46
8474.1
8107.89
7752.4
7414.99
7100.67
6811.15
6544.67
6297.57
6065.51
5844.28
5629.81
5417.89
5205.2
4990.72
4775.39
4560.53
4346.82
4134.93
3925.91
3719.87
3514.87
3308.63
3100.99
2893.75
2689.45
2492.01
2307.01
2139.39
1993.21
1874.62
1792
1754.95
1774.6
1859.57
2017.03
2257.1
2589.21
3021.21
3536.82
4123.02
4740.11
10962.9
10849.1
10685.3
10495.7
10275
10020.7
9733.51
9418.21
9082.34
8734.64
8384.31
8040.83
7712.29
7404.11
7118.42
6853.66
6607.06
6375.5
6155.91
5944.86
5738.82
5535.44
5334.09
5134.76
4936.82
4739.36
4542.3
4345.7
4147.92
3946.07
3738.73
3527.02
3312.9
3098.63
2887.83
2684.36
2490.79
2310.53
2149.26
2012.74
1907.79
1841.75
1819.13
1844.99
1923.74
2064.43
2269.16
2531.04
2827.19
3124.37
10634.8
10438.4
10236.6
10032.2
9807.68
9556.01
9275.47
8967.97
8638.75
8295.51
7946.96
7602.16
7269.05
6952.8
6655
6374.63
6109.86
5858.76
5619.33
5389.11
5165.77
4948.03
4735.25
4526.3
4319.34
4113
3906.67
3698.9
3486.33
3265.89
3037.1
2801.1
2559.03
2312.87
2065.91
1820.65
1578.87
1344.01
1120.6
913.567
727.942
565.084
427.539
317.3
237
189.786
170.777
178.133
199.49
207.221
10705
10568.3
10381.5
10179.8
9958.5
9714.06
9444.91
9152.09
8839.3
8512.45
8179.22
7847.66
7524.55
7214.47
6918.51
6636.2
6366.75
6109.49
5863.46
5627.21
5399.47
5179.6
4966.85
4759.65
4556.06
4354.78
4154.26
3950.99
3740.12
3518.28
3284.4
3038.11
2779.86
2511.88
2236.59
1954.99
1669.04
1382.66
1098.82
819.994
546.65
277.271
13.61
-244.927
-496.381
-743.393
-984.563
-1228.44
-1478.38
-1753.35
10419.5
10210.2
9985.36
9761.89
9526.5
9274.3
9003.2
8713.2
8406.7
8087.99
7763.1
7438.7
7120.44
6811.42
6512.51
6223.75
5945.33
5677.6
5420.31
5172.68
4934.22
4704.88
4484.23
4271.08
4064.15
3862.32
3662.89
3460.55
3249.33
3024.97
2784.7
2526.71
2251.38
1960.87
1656.57
1339.46
1011.77
675.67
332.75
-16.69
-376.093
-745.306
-1128
-1523.26
-1929.47
-2354.53
-2796.86
-3261.39
-3754.63
-4278.39
10492.1
10329.6
10111.2
9878.39
9631.32
9370.03
9094.41
8804.78
8502.68
8191.35
7875.45
7559.94
7249.03
6944.62
6647.29
6357.39
6075.78
5803.18
5539.52
5284.4
5038.11
4801.32
4574.18
4356.22
4147
3945.38
3747.46
3546.7
3336.57
3111.89
2868.15
2601.89
2311.96
1998.46
1661.78
1304.33
929.056
536.573
127.089
-302.291
-756.597
-1238.58
-1747.67
-2284.69
-2855.94
-3460.1
-4100.96
-4778.76
-5503.26
-6264.54
10284.4
10068.1
9820.92
9568.08
9304.71
9030.59
8746.05
8451.86
8149.22
7840.67
7529.87
7220.88
6916.33
6617.05
6323.12
6035.01
5753.67
5479.51
5212.26
4952.02
4699.96
4457.48
4225.34
4004.03
3793.96
3593.71
3398.4
3201.14
2995.52
2775.52
2534.8
2267.98
1971.63
1643.52
1283.25
893.661
477.527
35.0179
-436.782
-943.913
-1484.46
-2067.58
-2693.74
-3360.04
-4075.82
-4840.02
-5650.64
-6507.69
-7418.71
-8368.93
10326.8
10133.5
9887.98
9624.97
9347.89
9060.08
8763.58
8460.04
8151.18
7839.64
7528.82
7221.92
6920.39
6624.13
6332.79
6046.58
5765.8
5490.04
5218.81
4952.77
4693.77
4443.72
4204.2
3977.01
3763.39
3561.65
3366.56
3171.38
2969.06
2751.77
2511.53
2242.12
1938.5
1596
1212.7
789.705
328.53
-170.009
-708.941
-1294.52
-1930.19
-2615.35
-3356.46
-4155.8
-5011.62
-5924.08
-6889.37
-7910.38
-8988.53
-10103.2
10192.5
9959.48
9696.45
9420.78
9132.07
8832.95
8526.09
8213.55
7897.98
7582.53
7270.88
6965.6
6667.31
6375.28
6088.72
5807.21
5529.92
5255.5
4983.28
4714.23
4450.58
4194.8
3949.84
3719.3
3505.51
3307.27
3119.63
2935.22
2744.59
2536.78
2301.99
2033.15
1724.5
1371.7
972.477
524.661
27.894
-518.798
-1120.94
-1775.08
-2494.18
-3271.37
-4110.44
-5017.97
-5993.35
-7028.19
-8118.48
-9268.35
-10477.4
-11721.8
10197.5
9965.39
9700.87
9417.97
9119.98
8810.49
8492.74
8169.77
7845.02
7522.66
7206.59
6898.98
6599.89
6308.17
6022.7
5742.19
5464.67
5187.9
4910.97
4634.96
4362.33
4096.5
3842.32
3605.58
3390.51
3197.22
3021.04
2852.44
2677.42
2480.57
2249.49
1976.2
1656.01
1287.05
867.146
392.135
-139.637
-730.57
-1387.74
-2106.91
-2894.51
-3752.8
-4683.05
-5683.24
-6756.69
-7893
-9089.94
-10346.7
-11663.7
-13018.4
10110.2
9847.74
9572.49
9282.43
8978.2
8662.28
8337.61
8007.87
7677.5
7351.38
7033.37
6725.13
6426.31
6135.72
5852.03
5573.16
5296.04
5017.7
4737
4454.97
4174.25
3899.25
3636.91
3395.68
3182.59
3000.18
2844.18
2701.57
2551.64
2372.05
2145.68
1862.94
1522.23
1127.65
681.314
180.378
-379.274
-1003.14
-1693.76
-2460.39
-3295.57
-4206.8
-5196.33
-6265.87
-7410.31
-8622.13
-9899.07
-11236.5
-12634.4
-14070
10078.5
9804.79
9526.22
9231.93
8923.4
8602.74
8273.22
7939.13
7605.57
7277.52
6958.28
6648.93
6348.99
6057.51
5772.9
5492.22
5211.39
4926.93
4637.39
4343.33
4047.18
3754.36
3474.23
3218.94
3000.19
2824.9
2690.15
2579.11
2462.11
2305.21
2081.1
1778.23
1405.18
976.882
500.447
-23.2784
-599.212
-1237.87
-1936.96
-2712.79
-3562.31
-4493.85
-5506.3
-6610.45
-7799.76
-9067.33
-10407.1
-11810.1
-13273.7
-14775.1
9999.69
9707.76
9424.21
9126.95
8816.25
8493.63
8162.5
7827.53
7493.91
7166.04
6846.44
6535.81
6233.89
5939.85
5651.65
5365.52
5076.9
4782.03
4478.85
4167.05
3849.01
3531.71
3227.88
2954.66
2730.02
2567.18
2466.84
2408.99
2350.64
2236.3
2020.1
1689.65
1274.38
807.039
303.228
-233.045
-806.655
-1431.35
-2112.98
-2862.52
-3691.18
-4608.81
-5622.8
-6742
-7965.86
-9286.97
-10690.6
-12160.4
-13684.5
-15243.3
9915.78
9621.27
9338.8
9041.79
8730.87
8407.91
8076.77
7742.3
7409.32
7081.55
6761.06
6448.66
6144.29
5846.94
5554.12
5261.91
4965.82
4661.84
4347.06
4020.67
3685.76
3351.35
3033.22
2752.59
2532.78
2392.86
2336.82
2340.3
2344.3
2268.6
2047.36
1669.25
1204.16
707.8
197.666
-330.947
-889.033
-1488.29
-2145.37
-2868.68
-3676.99
-4580.42
-5594.23
-6728.48
-7984.07
-9350.45
-10805.3
-12322.8
-13881.6
-15458.4
9803.73
9522.97
9244.99
8949.72
8639.38
8316.67
7985.85
7651.74
7318.84
6990.53
6668.98
6355.23
6049.25
5749.72
5454.1
5158.83
4859.64
4552.11
4232.92
3901.43
3561.48
3223
2902.6
2622.61
2407.92
2278.64
2238.34
2260.06
2279.26
2208.66
1979.24
1584.8
1115.71
623.058
117.021
-409.067
-965.069
-1560.14
-2208.92
-2922.15
-3716.21
-4604.03
-5600.12
-6718.6
-7965.46
-9332.26
-10797.8
-12333.6
-13909.4
-15494.5
38299.5
30137.4
26104.5
24586.1
23751.7
23142.7
22718.8
22434.1
22233.3
22081.5
21960.8
21861.2
21776.2
21701.2
21633.2
21570
21510
21452.2
21395.5
21339.2
21282.4
21224.6
21165.2
21103.9
21040
20973.2
20902.8
20828.2
20748.5
20662.5
20568.8
20465.6
20350.9
20222.4
20077.2
19912.1
19723.5
19507.4
19259
18972.7
18641.6
18257.6
17810.5
17287.1
16670.1
15936.3
15052.7
13969.9
12607.2
10827.2
12666.9
17256.2
18758
19324.4
19758.6
20084.1
20308.2
20467.9
20586.2
20674.3
20739.4
20786.8
20820.3
20842.7
20855.8
20861.2
20859.8
20852.5
20839.7
20821.7
20798.9
20771.3
20738.9
20701.8
20659.9
20613.1
20561.1
20503.5
20439.5
20368.2
20288.2
20197.8
20095.1
19977.8
19843.1
19688.2
19509.5
19303.2
19064.8
18789
18469.6
18098.9
17667.2
17162.7
16570
15869.7
15036.9
14040.1
12841.7
11407.4
19898.9
22069
23252.2
23355
23198.3
23026.5
22839.9
22648.3
22469.4
22309.6
22167.8
22041.5
21928.2
21825.8
21732
21645.3
21564.2
21487.2
21413.4
21341.7
21271.3
21201.4
21131.4
21060.6
20988.5
20914.6
20838.4
20759.1
20676
20587.9
20493.5
20391.1
20278.5
20153.4
20013.2
19854.8
19675.1
19470.3
19236.1
18967.7
18659.3
18304.1
17893.9
17418.7
16866.2
16221.8
15468.4
14587.3
13561.4
12382.6
20150
20559.2
20750.8
20679.2
20576.9
20533.3
20521.4
20518.8
20522.5
20531.7
20543.3
20554.7
20564.3
20571.2
20574.9
20575.1
20571.7
20564.4
20553.3
20538.2
20519.1
20495.9
20468.5
20436.9
20401
20360.6
20315.5
20265.2
20209.1
20146.6
20076.5
19997.4
19907.5
19805
19687.3
19552
19396
19216
19008.5
18769.2
18493.2
18174.9
17807.6
17383.4
16893.3
16327.4
15675.5
14928.5
14082.5
13144.4
20591.6
20840.8
21157.5
21389.2
21529
21618.1
21670.1
21688.6
21681.7
21658
21623.2
21580.9
21533.5
21482.8
21429.8
21375.3
21319.9
21263.6
21206.6
21148.7
21089.9
21029.8
20968.5
20905.6
20841.2
20774.9
20706.4
20635.3
20560.7
20481.9
20397.6
20306.6
20207.1
20097.4
19975.3
19838.3
19684
19509.4
19311.5
19086.6
18830.8
18539.6
18207.6
17829
17397.6
16906.9
16351.4
15727.5
15036.3
14286.5
20697.9
20783.6
20891.8
20953.9
20956.4
20928.1
20889.3
20846.6
20802.9
20760.9
20721.9
20686.1
20653.1
20622.2
20592.9
20564.6
20536.7
20508.9
20480.5
20451.1
20420.4
20388
20353.6
20317.1
20278.3
20237
20192.9
20145.9
20095.2
20040.2
19980
19913.3
19838.8
19754.8
19659.5
19551.1
19427.3
19285.8
19124.2
18939.7
18729.1
18489.2
18216.1
17905.8
17554.2
17157.7
16714
16222.8
15688
15119
20713.6
20758.1
20829.9
20902.1
20957.3
20998
21029.2
21051.8
21065.2
21070.3
21068.1
21059.4
21045.1
21025.9
21002.4
20975.1
20944.6
20911.1
20874.9
20836.1
20795
20751.5
20705.9
20658.1
20608.2
20556.3
20502.4
20446.1
20387.4
20325.5
20259.7
20189.1
20112.6
20028.8
19936.3
19833.6
19719
19590.7
19446.8
19285.3
19104
18900.4
18672.1
18416.5
18131.1
17814
17464.5
17083.9
16676.1
16248.3
20674.7
20696.9
20734.8
20774.8
20802.8
20815.4
20815.2
20804.8
20786.2
20761.3
20732.1
20700
20666.2
20631.3
20595.8
20560.2
20524.4
20488.6
20452.6
20416.3
20379.7
20342.4
20304.5
20265.8
20226.4
20186.1
20144.8
20102.3
20058.4
20012.5
19964
19912.2
19856
19794.5
19726.5
19650.9
19566.5
19472
19366.1
19247.5
19114.8
18966.5
18801.2
18617.5
18414.2
18190.6
17947.2
17685.6
17409.8
17125.8
20608.6
20622.3
20647.4
20678
20705.4
20725.4
20738.2
20744.9
20746.2
20742.6
20734.6
20722.9
20707.9
20689.9
20669.3
20646.3
20621.2
20594
20564.9
20534.1
20501.5
20467.3
20431.6
20394.5
20356.3
20317.1
20277
20235.9
20194
20150.8
20106.1
20059.4
20010.1
19957.4
19900.8
19839.4
19772.6
19699.7
19619.9
19532.8
19437.5
19333.4
19220.1
19097
18963.9
18820.8
18668.6
18508.8
18344.4
18179.2
20525.3
20535.4
20554.6
20579.2
20602
20618.4
20627.3
20629
20624.3
20613.8
20598.3
20578.9
20556.3
20531.1
20504
20475.4
20445.7
20415
20383.6
20351.5
20318.8
20285.5
20251.8
20217.8
20183.7
20149.6
20115.7
20082
20048.6
20015.3
19981.9
19948.3
19914
19878.6
19841.8
19803.3
19762.8
19720.1
19675
19627.7
19578.1
19526.4
19472.8
19417.5
19361
19304
19247.4
19192.6
19141.7
19097.1
20428.9
20439.1
20458.4
20483
20505.9
20522.5
20531.6
20533.5
20529.1
20518.9
20503.8
20484.9
20462.8
20438.3
20411.9
20384.3
20355.7
20326.3
20296.5
20266.2
20235.6
20204.9
20174.1
20143.6
20113.4
20083.9
20055.2
20027.6
20001.3
19976.2
19952.4
19929.9
19908.6
19888.4
19869.4
19851.6
19835.2
19820.5
19808
19798.3
19792
19790
19793.2
19802.7
19819.3
19844.1
19878.3
19922.7
19978.3
20046
20319.6
20333.3
20358.6
20389.4
20417.1
20437.6
20451
20458.4
20460.4
20457.7
20450.9
20440.4
20426.9
20410.6
20392.1
20371.5
20349.3
20325.7
20300.8
20275
20248.2
20220.9
20193.3
20165.7
20138.4
20112
20086.6
20062.9
20041
20021.3
20004
19989.5
19977.8
19969.3
19964.5
19963.7
19967.7
19977.2
19993.3
20017.2
20050.1
20093.7
20149.5
20219.2
20304.4
20406.5
20526.6
20665.5
20823
20998.5
20192.8
20215.2
20253.3
20293.7
20322.2
20335.6
20336.3
20327
20309.7
20286.4
20259.1
20229.2
20197.8
20165.9
20134.1
20102.7
20072
20042.3
20013.6
19985.9
19959.2
19933.8
19909.6
19886.9
19866
19847.2
19830.9
19817.3
19806.9
19800.1
19797.2
19798.7
19804.9
19816.5
19834.1
19858.6
19890.9
19932.5
19984.6
20049.3
20128.3
20224
20338.6
20474.5
20634.1
20819.2
21031.4
21271.2
21537.8
21829.2
20038.8
20083.4
20155.5
20228.3
20284.3
20325.9
20358.4
20382.4
20397.7
20404.8
20405
20399.2
20388.2
20372.9
20354.2
20332.6
20308.7
20283.3
20256.6
20229.1
20201.2
20173.4
20145.9
20119.4
20094.4
20071.3
20050.9
20033.6
20020.2
20011.1
20007.2
20008.9
20017.2
20032.9
20057
20090.7
20135.6
20193.2
20265.8
20355.6
20465.2
20597.7
20756
20943.4
21163
21417.7
21709.3
22038.5
22403.5
22800.7
19830
19915.9
20024.5
20087.2
20090.7
20063.5
20026.3
19985.5
19944.1
19904.7
19868.8
19836.7
19807.9
19782.1
19758.8
19737.7
19718.4
19700.7
19684.4
19669.3
19655.4
19642.8
19631.6
19622.1
19614.7
19609.9
19608.1
19610.1
19616.3
19627.6
19644.7
19668.4
19699.8
19739.8
19789.9
19851.7
19926.8
20017.5
20126.3
20256.1
20410.3
20592.5
20806.8
21057.4
21348.6
21684.5
22068.1
22501.1
22982.2
23507.5
19530.4
19779.7
20096.9
20329.4
20470.3
20560.8
20614.5
20635.1
20630.7
20610
20578.8
20540.7
20498.2
20453.3
20407.3
20361.3
20315.7
20271.3
20228.2
20186.9
20147.6
20110.5
20076
20044.5
20016.4
19992.3
19972.7
19958.3
19949.9
19948.2
19954.2
19968.8
19993.2
20028.6
20076.7
20139.2
20218.3
20316.5
20436.8
20582.7
20758
20967.3
21215.5
21508.1
21850.8
22249.2
22708.3
23231.3
23817.4
24461.6
18895.1
19304.5
19496.6
19425.8
19324.7
19282.7
19272.7
19272.5
19279.1
19291.7
19307.3
19323.4
19338.6
19352.2
19363.8
19373.3
19381
19386.9
19391.4
19394.9
19397.5
19400
19402.6
19406.1
19411
19418.1
19428.3
19442.3
19461.2
19485.9
19517.6
19557.5
19607.1
19667.8
19741.6
19830.6
19937.1
20064.3
20215.4
20394.5
20606.2
20855.9
21149.6
21494.1
21896.9
22366.2
22910
23535.1
24245.1
25038.6
18450
20620.3
21804.1
21907.7
21752.3
21582.1
21397.6
21208.6
21032.8
20876.7
20739.3
20618.1
20511
20415.8
20330.7
20254.3
20185.3
20122.8
20066.1
20014.6
19968
19926.1
19888.8
19856.3
19828.9
19806.8
19790.7
19781.2
19779.1
19785.2
19800.8
19826.8
19864.8
19916.3
19983.2
20067.8
20172.7
20301.1
20456.7
20643.8
20867.7
21134.3
21450.8
21825.3
22267.4
22788
23399.3
24113.8
24941.8
25889.1
11023.6
15613.1
17115.5
17682.8
18118.3
18445.4
18671.7
18834.1
18955.6
19047.5
19117
19169.7
19209.5
19239.4
19261.5
19277.6
19288.8
19296.4
19301.4
19304.4
19306.3
19307.7
19309.4
19312.1
19316.6
19323.7
19334.3
19349.4
19370.2
19397.8
19433.5
19478.7
19535
19604.3
19688.6
19790.5
19912.7
20058.8
20232.6
20439
20683.6
20972.9
21314.9
21719.1
22196.8
22762.2
23432.1
24227.6
25172.5
26293.4
36461.3
28299.5
24267.2
22749.7
21916.6
21309.5
20887.9
20605.9
20408.5
20260.6
20144.6
20050.5
19972.1
19904.9
19846.2
19794
19747.2
19704.9
19666.6
19631.9
19600.7
19573
19548.8
19528.5
19512.5
19501.4
19495.7
19496.3
19504.1
19520.1
19545.6
19581.9
19630.5
19693.3
19772.3
19870
19989.3
20133.7
20307.4
20515.1
20762.7
21057.2
21406.9
21822.2
22315.8
22904.2
23609.4
24462.3
25510.2
26835.7
-2214.39
2669.15
4147.57
8109.13
9913.03
13295.2
15261.6
18288.9
20284.7
23074.2
25021.9
27648.3
29477.7
32012.1
33650.2
36172.1
37525
40157.4
41120.4
44027.5
-2223.63
2620.06
4074.78
8022.06
9822.75
13204.2
15171.2
18201
20196.9
22988.4
24936
27563.7
29395.6
31931.2
33576.9
36103.7
37474.1
40122.4
41119.2
44049.4
-2248.76
2568.53
4008.99
7946
9742.35
13123.3
15088.7
18120.9
20116
22909.1
24857
27486.9
29321.7
31861.2
33513.5
36047.8
37431.4
40092.2
41106.5
44043.6
-2283.95
2514.26
3946.95
7877.37
9670.37
13051.1
15014.2
18048.7
20042.7
22837.3
24785.8
27418.2
29255.9
31799.6
33458.1
35999
37392.5
40060.7
41084.1
44019
-2324.66
2458.45
3887
7813.2
9604.51
12985.9
14946.7
17983.4
19976.5
22772.8
24722.1
27357
29197.5
31745
33408.9
35954.8
37355.4
40027.3
41055.2
43984
-2368.96
2401.55
3828.06
7752.03
9542.91
12926
14884.9
17924.3
19916.8
22714.9
24665.1
27302.4
29145.5
31696
33364.3
35913.7
37319.2
39992.2
41022.2
43942.7
-2416.51
2343.33
3769.2
7692.5
9483.85
12869.6
14827
17869.7
19862.4
22662.7
24613.8
27253.3
29098.7
31651.4
33323
35874.5
37283.5
39955.6
40986.2
43897.6
-2466.82
2283.64
3709.71
7633.36
9425.92
12815.2
14771.8
17818.4
19811.5
22614.5
24566.8
27208.4
29055.4
31610.3
33284.2
35836.5
37247.7
39917.7
40947.9
43849.8
-2519.59
2222.52
3649.12
7574.04
9368.03
12761.5
14718
17768.8
19762.7
22568.7
24522.1
27166.4
29014.6
31570.9
33246.2
35798.6
37211.1
39878.4
40907.6
43799.8
-2574.41
2160.02
3587.28
7513.97
9309.47
12707.8
14664.6
17719.7
19714.6
22524
24478.8
27125.3
28974.7
31532
33208.1
35760.1
37173.1
39837.2
40865
43747.5
-2630.77
2096.58
3524.3
7452.93
9249.86
12653.2
14610.5
17670.3
19666.5
22479.5
24435.4
27084.2
28934.3
31492.5
33168.9
35720.1
37133.1
39793.8
40819.8
43693
-2688.61
2032.41
3460.67
7391.41
9189.32
12598.1
14556
17620.1
19617.4
22434.1
24391
27042
28892.7
31451.4
33127.8
35678
37090.6
39747.8
40772
43636.1
-2747.04
1967.88
3396.23
7329.4
9128
12542.3
14500.7
17569.2
19567.6
22387.7
24345.4
26998.2
28849
31408.2
33084.1
35633.3
37045.2
39699.1
40721.5
43576.9
-2806.02
1903.47
3331.76
7267.61
9066.54
12486.4
14445.1
17517.6
19517.1
22340.3
24298.2
26952.7
28803.2
31362.7
33037.8
35586
36997
39647.9
40668.5
43515.7
-2865
1839.49
3267.61
7206.41
9005.22
12430.3
14389.2
17465.6
19465.5
22291.6
24249.4
26905.3
28755
31314.8
32988.9
35536.2
36946.3
39594.4
40613.3
43452.6
-2923.5
1776.51
3204.26
7146.38
8944.83
12375
14333.7
17413.4
19413.3
22241.7
24199
26855.9
28704.6
31264.6
32937.6
35484.2
36893.4
39539
40556.1
43388
-2981.39
1714.99
3142.3
7087.97
8885.39
12320.3
14278.7
17361.1
19360.3
22190.6
24146.7
26804.6
28652
31212.3
32884.2
35430.3
36838.5
39482
40497.3
43322.2
-3038.11
1655
3081.53
7030.81
8826.84
12266.3
14223.8
17308.4
19306.2
22138.1
24092.7
26751.4
28597.4
31158.2
32828.7
35374.7
36781.9
39423.5
40436.9
43255.3
-3092.86
1597.46
3022.89
6975.69
8769.54
12212.9
14169
17255.3
19251.3
22084.3
24037.2
26696.7
28541.1
31102.4
32771.6
35317.7
36723.8
39363.7
40375.1
43187.3
-3145.65
1542.49
2966.22
6922.49
8713.65
12160.3
14114.4
17202
19195.8
22029.6
23980.5
26640.7
28483.4
31045.4
32713.1
35259.3
36664.1
39302.6
40311.9
43118.2
-3196.39
1490.09
2911.74
6871.2
8659.42
12108.9
14060.3
17148.9
19140.2
21974.7
23923.3
26584.2
28424.9
30987.5
32653.5
35199.9
36603.1
39240.4
40247.5
43048.4
-3244.49
1440.58
2859.77
6822.07
8607.17
12058.9
14007.5
17096.8
19085.5
21920.4
23866.5
26527.9
28366.3
30929.3
32593.2
35139.9
36541.3
39177.6
40182.5
42978.4
-3290.06
1394.02
2810.28
6775.47
8557.46
12011.1
13956.7
17046.7
19032.5
21867.6
23811
26472.6
28308.2
30871.6
32533
35079.9
36479.4
39114.9
40117.4
42908.8
-3333.11
1350.48
2763.49
6731.78
8510.78
11966.1
13908.7
16999.2
18981.9
21817.1
23757.3
26418.9
28251.4
30814.9
32473.6
35020.9
36418.2
39053.1
40053.1
42840.3
-3373.39
1310.09
2719.69
6691.24
8467.48
11924.2
13863.8
16954.8
18934.3
21769.4
23706.1
26367.4
28196.6
30760.2
32415.9
34963.6
36358.6
38993
39990.3
42773.7
-3410.81
1272.9
2678.99
6654.03
8427.67
11885.5
13822.3
16913.7
18889.8
21724.5
23657.6
26318.6
28144.2
30708
32360.6
34908.8
36301.2
38935.3
39929.7
42709.5
-3445.25
1239.03
2641.54
6620.07
8391.27
11850.2
13784.1
16875.7
18848.4
21682.7
23612
26272.8
28094.9
30658.9
32308.4
34857.2
36246.7
38880.5
39871.6
42648.1
-3476.51
1208.54
2607.36
6589.14
8358.09
11817.9
13748.9
16840.6
18809.9
21643.9
23569.6
26230.4
28049.1
30613.6
32259.8
34809.2
36195.5
38828.9
39816.4
42590
-3504.56
1181.32
2576.28
6561.05
8327.87
11788.3
13716.5
16808.3
18774.3
21608.3
23530.7
26191.8
28007.2
30572.4
32215.2
34765.3
36147.9
38780.9
39764.5
42535.3
-3529.65
1157.08
2548.23
6535.69
8300.3
11761.2
13686.6
16778.7
18741.7
21576.1
23495.5
26157.3
27969.6
30535.6
32174.9
34725.4
36104.2
38736.5
39715.9
42484.3
-3552.31
1135.59
2523.13
6512.81
8275.04
11736.4
13659.2
16751.7
18712.2
21547.3
23464.2
26126.9
27936.3
30503.1
32138.8
34689.7
36064.1
38696
39670.9
42437.1
-3573.24
1116.64
2500.61
6492.02
8251.73
11713.6
13634.1
16727.4
18685.7
21522
23436.7
26100.6
27907.1
30474.8
32106.7
34657.9
36027.8
38659
39629.3
42393.8
-3592.92
1099.76
2480.13
6472.88
8230.06
11692.7
13611.2
16705.6
18662.2
21499.9
23412.6
26077.8
27881.5
30450.1
32077.9
34629.4
35994.6
38625.4
39591
42354
-3611.72
1084.46
2461.12
6454.95
8209.76
11673.5
13590.3
16686.1
18641.3
21480.6
23391.4
26057.9
27858.7
30428.1
32051.8
34603.6
35964.1
38594.6
39555.5
42317.5
-3629.91
1070.4
2443.06
6437.95
8190.68
11655.8
13571.2
16668.7
18622.5
21463.4
23372.2
26039.9
27837.6
30407.7
32027.4
34579.6
35935.4
38566
39522.3
42283.7
-3647.54
1057.21
2425.66
6421.98
8172.89
11639.9
13554
16653.2
18605.5
21447.7
23354.3
26022.9
27817.3
30388
32003.6
34556.4
35907.8
38538.7
39490.6
42251.9
-3664.53
1044.85
2409.09
6407.35
8156.65
11625.6
13538.5
16639.1
18589.7
21432.8
23336.7
26005.8
27796.7
30368
31979.5
34533.1
35880.3
38511.9
39459.8
42221.3
-3680.53
1033.64
2393.77
6394.52
8142.28
11613.3
13524.6
16626.4
18574.7
21418.1
23318.9
25988
27775.2
30346.8
31954.4
34509.1
35852.4
38485
39429
42191.3
-3695.06
1024.05
2380.25
6383.94
8130.03
11603
13512.3
16614.6
18560
21403.1
23300.1
25968.8
27752.1
30324
31927.9
34483.6
35823.4
38457.2
39397.7
42161.2
-3707.69
1016.5
2368.9
6375.79
8119.89
11594.4
13501.2
16603.5
18545.3
21387.3
23280.2
25948
27727.2
30299.3
31899.5
34456.5
35792.9
38428.1
39365.3
42130.1
-3718.22
1011.12
2359.71
6369.83
8111.49
11587.2
13490.8
16592.4
18530
21370.4
23258.8
25925.5
27700.6
30272.8
31869.4
34427.6
35760.7
38397.1
39331.3
42097.8
-3726.9
1007.56
2352.17
6365.36
8104.03
11580.5
13480.4
16580.8
18513.8
21352.3
23236.1
25901.6
27672.6
30244.7
31837.8
34397
35726.9
38364.4
39295.7
42063.8
-3734.43
1004.98
2345.33
6361.33
8096.5
11573.3
13469.2
16568.1
18496.5
21333.2
23212.4
25876.7
27643.6
30215.6
31805.2
34365.2
35691.9
38330.2
39258.8
42028.2
-3741.8
1002.34
2338.1
6356.61
8087.88
11565
13456.6
16554.3
18478.3
21313.2
23188.2
25851.3
27614.4
30186.1
31772.2
34332.8
35656.3
38295.1
39221
41991.3
-3750.01
998.683
2329.56
6350.34
8077.5
11554.9
13442.6
16539.3
18459.3
21292.8
23164
25826.1
27585.6
30157.1
31739.8
34300.8
35621
38260.1
39183.2
41954.2
-3759.69
993.429
2319.22
6342.15
8065.2
11543.2
13427.3
16523.6
18440.1
21272.7
23140.6
25801.9
27558.2
30129.4
31708.8
34269.9
35587
38226.2
39146.4
41918.2
-3771.02
986.521
2307.13
6332.2
8051.25
11530.2
13411.1
16507.4
18421.1
21253.3
23118.5
25779.4
27532.9
30103.9
31680.3
34241.4
35555.6
38194.6
39111.7
41884.5
-3783.65
978.361
2293.8
6321.03
8036.2
11516.4
13394.5
16491.4
18402.8
21235.1
23098.2
25759
27510.2
30081.2
31655
34216.1
35527.7
38166.4
39080.2
41854.4
-3796.93
969.633
2279.93
6309.34
8020.7
11502.3
13377.9
16475.7
18385.5
21218.4
23080
25741.2
27490.7
30061.9
31633.6
34194.7
35504
38142.3
39052.6
41828.7
-3810.12
961.072
2266.23
6297.75
8005.27
11488.4
13361.7
16460.7
18369.2
21203.2
23064
25726.1
27474.5
30046.2
31616.2
34177.3
35484.7
38122.7
39029.4
41807.5
-3822.6
953.258
2253.21
6286.7
7990.27
11474.8
13345.9
16446.3
18354.1
21189.5
23050.2
25713.6
27461.6
30034.1
31602.9
34164
35469.8
38107.4
39010.6
41790.8
-3833.98
946.511
2241.16
6276.44
7975.9
11461.7
13330.7
16432.6
18340
21177.2
23038.4
25703.5
27451.5
30024.9
31592.9
34154
35458.3
38095.7
38995.4
41777.9
-3844.17
940.896
2230.13
6267.06
7962.3
11449.4
13316.2
16419.8
18327.1
21166.3
23028.4
25695.3
27443.7
30018
31585.4
34146.5
35449.1
38086.4
38982.8
41767.5
-3853.26
936.318
2220.11
6258.65
7949.66
11437.9
13302.8
16408
18315.4
21156.7
23019.8
25688.5
27437.4
30012.4
31579.3
34140
35440.7
38078
38971.2
41758.2
-3861.45
932.65
2211.07
6251.33
7938.26
11427.8
13290.7
16397.6
18305.1
21148.3
23012.4
25682.3
27431.6
30006.8
31573.1
34133.1
35431.7
38069
38959
41748.3
-3868.92
929.803
2203.07
6245.31
7928.43
11419.4
13280.5
16388.8
18296.3
21140.9
23005.5
25676.1
27425.3
30000.1
31565.5
34124.4
35420.6
38057.8
38944.6
41736.2
-3875.81
927.728
2196.17
6240.75
7920.4
11412.9
13272.3
16381.7
18288.8
21134.1
22998.6
25669
27417.5
29991.1
31555.1
34112.6
35406.2
38043.2
38926.8
41720.6
-3882.28
926.335
2190.33
6237.64
7914.19
11408.4
13266
16376.1
18282.3
21127.2
22990.9
25660.1
27407.2
29979
31541.2
34096.9
35387.7
38024.4
38904.8
41700.9
-3888.53
925.392
2185.3
6235.69
7909.44
11405.4
13261
16371.3
18275.9
21119.7
22981.7
25648.8
27393.9
29963.1
31523.1
34076.9
35364.8
38001.1
38878.4
41676.8
-3894.96
924.471
2180.58
6234.28
7905.4
11403
13256.5
16366.4
18268.9
21110.6
22970.3
25634.4
27377.2
29943.4
31500.9
34052.8
35337.9
37973.7
38847.9
41648.5
-3902.11
922.956
2175.4
6232.5
7901.04
11400.1
13251.3
16360.3
18260.2
21099.2
22956.1
25616.7
27356.9
29920
31475
34025
35307.4
37942.9
38814.1
41617
-3910.58
920.109
2168.88
6229.3
7895.17
11395.5
13244.2
16351.9
18249
21084.8
22938.8
25595.7
27333.3
29893.2
31446
33994.5
35274.3
37909.7
38778
41583.2
-3921.03
915.193
2160.12
6223.63
7886.67
11388
13234.1
16340.3
18234.6
21067.1
22918.3
25571.4
27306.9
29864
31414.8
33962
35239.8
37875.2
38740.7
41548.3
-3933.96
907.613
2148.43
6214.71
7874.7
11376.8
13220.3
16325
18216.6
21046
22894.7
25544.5
27278.3
29832.9
31382.3
33928.6
35204.6
37840.3
38703.1
41513.2
-3949.65
897.059
2133.45
6202.13
7858.84
11361.5
13202.5
16305.7
18195.1
21021.6
22868.5
25515.3
27248
29800.6
31349.3
33895
35169.5
37805.7
38666.1
41478.7
-3968.06
883.587
2115.22
6185.95
7839.16
11342.2
13180.8
16282.7
18170.4
20994.4
22840.3
25484.5
27216.8
29767.9
31316.1
33861.6
35135
37771.8
38629.9
41445.2
-3988.8
867.61
2094.19
6166.62
7816.13
11319.3
13155.7
16256.4
18143
20964.9
22810.4
25452.6
27185
29734.9
31283.1
33828.5
35101
37738.7
38594.6
41412.7
-4011.25
849.808
2071.09
6144.91
7790.52
11293.7
13128
16227.6
18113.5
20933.7
22779.4
25420
27152.9
29701.8
31250.2
33795.6
35067.3
37706
38559.9
41380.9
-4034.61
830.99
2046.78
6121.72
7763.27
11266.2
13098.5
16197
18082.6
20901.3
22747.6
25386.7
27120.4
29668.4
31217
33762.5
35033.5
37673.3
38525.3
41349.3
-4058.12
811.965
2022.14
6097.97
7735.28
11237.7
13067.9
16165.2
18050.7
20868
22715.1
25352.8
27087.4
29634.5
31183.4
33728.8
34999
37639.8
38490
41317.1
-4081.12
793.419
1997.9
6074.45
7707.37
11209
13037.1
16133
18018.3
20834
22682.1
25318.2
27053.7
29599.6
31148.6
33693.8
34963.2
37605
38453.3
41283.5
-4103.15
775.843
1974.62
6051.75
7680.2
11180.8
13006.5
16100.7
17985.8
20799.6
22648.6
25282.8
27019.1
29563.4
31112.5
33657.1
34925.6
37568.3
38414.5
41247.8
-4123.97
759.491
1952.59
6030.26
7654.19
11153.4
12976.8
16068.7
17953.5
20765
22614.6
25246.5
26983.4
29525.9
31074.7
33618.5
34885.8
37529
38373
41209.3
-4143.59
744.387
1931.9
6010.12
7629.59
11127.3
12948
16037.4
17921.6
20730.2
22580.2
25209.4
26946.6
29486.7
31035.1
33577.7
34843.5
37486.9
38328.5
41167.6
-4162.21
730.363
1912.44
5991.31
7606.43
11102.4
12920.6
16006.9
17890.2
20695.5
22545.7
25171.5
26908.8
29446.2
30993.8
33534.7
34798.8
37442.1
38281
41122.7
-4180.19
717.111
1893.95
5973.61
7584.61
11078.8
12894.4
15977.4
17859.7
20661
22511.1
25133.1
26870.2
29404.4
30951.1
33490
34751.9
37394.8
38230.5
41074.8
-4197.93
704.228
1876.05
5956.69
7563.85
11056.3
12869.5
15948.8
17830
20627
22476.7
25094.5
26831.2
29361.9
30907.3
33443.9
34703.4
37345.5
38177.9
41024.5
-4215.89
691.264
1858.3
5940.13
7543.8
11034.7
12845.6
15921.2
17801.3
20593.6
22442.9
25056
26792.2
29319.1
30863.3
33397.2
34654.1
37295
38124
40972.8
-4234.49
677.776
1840.25
5923.48
7524.05
11013.5
12822.5
15894.4
17773.5
20561
22409.8
25018.2
26753.8
29276.7
30819.6
33350.7
34604.9
37244.5
38069.7
40920.7
-4254.09
663.387
1821.5
5906.33
7504.21
10992.4
12799.9
15868.2
17746.6
20529.2
22377.8
24981.3
26716.6
29235.5
30777.1
33305.3
34556.8
37195.1
38016.5
40869.6
-4274.91
647.837
1801.78
5888.39
7483.96
10971.1
12777.7
15842.4
17720.5
20498.3
22347
24945.7
26681
29195.9
30736.5
33261.9
34510.8
37147.7
37965.4
40820.7
-4297.06
631.006
1780.93
5869.47
7463.1
10949.5
12755.5
15816.9
17695.3
20468.4
22317.7
24911.8
26647.5
29158.6
30698.5
33221.2
34467.8
37103.5
37917.5
40775
-4320.49
612.909
1758.95
5849.53
7441.55
10927.3
12733.2
15791.6
17670.7
20439.5
22289.9
24879.6
26616.2
29123.9
30663.5
33183.9
34428.3
37063.1
37873.7
40733.4
-4345.11
593.639
1735.9
5828.57
7419.26
10904.4
12710.8
15766.3
17646.8
20411.4
22263.6
24849.3
26587.4
29091.9
30631.8
33150
34392.9
37026.9
37834.2
40696.5
-4370.81
573.289
1711.85
5806.62
7396.2
10880.9
12688
15740.8
17623.2
20384.1
22238.6
24820.7
26560.9
29062.6
30603.2
33119.7
34361.3
36994.9
37799.3
40664.3
-4397.59
551.861
1686.77
5783.59
7372.25
10856.4
12664.7
15714.9
17599.8
20357.1
22214.7
24793.5
26536.3
29035.6
30577.4