/*--------------------------------*- C++ -*----------------------------------*\
  =========                 |
  \\      /  F ield         | OpenFOAM: The Open Source CFD Toolbox
   \\    /   O peration     | Website:  https://openfoam.org
    \\  /    A nd           | Version:  8
     \\/     M anipulation  |
\*---------------------------------------------------------------------------*/
FoamFile
{
    version     2.0;
    format      ascii;
    class       volVectorField;
    location    "100";
    object      U;
}
// * * * * * * * * * * * * * * * * * * * * * * * * * * * * * * * * * * * * * //

dimensions      [0 1 -1 0 0 0 0];

internalField   nonuniform List<vector> 
8400
(
(-19.7879 -0.221346 -1.66642e-16)
(-19.7698 -0.222656 -1.68596e-16)
(-19.7568 -0.224802 -1.7045e-16)
(-19.7438 -0.227197 -1.77037e-16)
(-19.7308 -0.229715 -1.79949e-16)
(-19.7178 -0.232331 -1.77699e-16)
(-19.7046 -0.235057 -1.79008e-16)
(-19.6912 -0.237914 -1.80509e-16)
(-19.6777 -0.240913 -1.82396e-16)
(-19.6641 -0.244058 -1.88867e-16)
(-19.6505 -0.24735 -1.91748e-16)
(-19.6372 -0.250794 -1.89956e-16)
(-19.6241 -0.254395 -1.91595e-16)
(-19.6115 -0.258161 -1.9357e-16)
(-19.5995 -0.262099 -1.97108e-16)
(-19.5881 -0.266211 -2.04901e-16)
(-19.5775 -0.270493 -2.05692e-16)
(-19.5676 -0.274941 -2.04741e-16)
(-19.5586 -0.279558 -2.07146e-16)
(-19.5503 -0.284355 -2.09877e-16)
(-19.5429 -0.289348 -2.12934e-16)
(-19.5362 -0.294545 -2.16146e-16)
(-19.5302 -0.29996 -2.19472e-16)
(-19.5249 -0.305614 -2.22858e-16)
(-19.5202 -0.311533 -2.2618e-16)
(-19.5161 -0.317745 -2.29709e-16)
(-19.5125 -0.32427 -2.32251e-16)
(-19.5096 -0.331131 -2.35999e-16)
(-19.5074 -0.33836 -2.41691e-16)
(-19.5059 -0.345997 -2.46821e-16)
(-19.5054 -0.354082 -2.51995e-16)
(-19.5058 -0.362652 -2.57467e-16)
(-19.507 -0.371745 -2.60296e-16)
(-19.5091 -0.381413 -2.64552e-16)
(-19.512 -0.391718 -2.72088e-16)
(-19.5153 -0.402733 -2.78509e-16)
(-19.519 -0.414556 -2.84951e-16)
(-19.5229 -0.427307 -2.915e-16)
(-19.5265 -0.441127 -2.98179e-16)
(-19.5296 -0.456192 -3.04212e-16)
(-19.5316 -0.472738 -3.1095e-16)
(-19.5319 -0.491074 -3.16092e-16)
(-19.5297 -0.511609 -3.22899e-16)
(-19.5239 -0.5349 -3.33061e-16)
(-19.5128 -0.561725 -3.41769e-16)
(-19.4944 -0.593204 -3.49719e-16)
(-19.4667 -0.630936 -3.55112e-16)
(-19.4248 -0.67719 -3.63847e-16)
(-19.3564 -0.736067 -3.8063e-16)
(-19.2472 -0.816647 -3.94647e-16)
(-21.6332 0.188419 -2.92194e-17)
(-21.6123 0.189591 -2.97927e-17)
(-21.5955 0.191378 -3.04379e-17)
(-21.5783 0.193663 -3.28559e-17)
(-21.5614 0.196347 -3.4688e-17)
(-21.5448 0.199361 -3.46655e-17)
(-21.5283 0.202639 -3.43483e-17)
(-21.512 0.20613 -3.37727e-17)
(-21.4958 0.209796 -3.51422e-17)
(-21.4798 0.213619 -3.91062e-17)
(-21.4641 0.217588 -4.08202e-17)
(-21.4487 0.221698 -3.96664e-17)
(-21.4337 0.22595 -3.82463e-17)
(-21.4193 0.230343 -3.55785e-17)
(-21.4056 0.234886 -3.90959e-17)
(-21.3926 0.239599 -5.20553e-17)
(-21.3803 0.244516 -5.37418e-17)
(-21.3687 0.249666 -5.19521e-17)
(-21.3579 0.255067 -5.11497e-17)
(-21.3479 0.260726 -5.05179e-17)
(-21.3386 0.266651 -4.99914e-17)
(-21.33 0.272861 -4.95269e-17)
(-21.3221 0.27937 -4.91084e-17)
(-21.3148 0.286179 -4.87314e-17)
(-21.3081 0.293281 -4.84636e-17)
(-21.3018 0.30067 -4.86685e-17)
(-21.2961 0.308349 -4.63714e-17)
(-21.291 0.316316 -4.47632e-17)
(-21.2866 0.324561 -4.56576e-17)
(-21.2829 0.333075 -4.58102e-17)
(-21.2801 0.34186 -4.57788e-17)
(-21.2782 0.350928 -4.56986e-17)
(-21.2771 0.360289 -4.44936e-17)
(-21.277 0.369947 -4.37092e-17)
(-21.2776 0.379898 -4.43078e-17)
(-21.2789 0.390129 -4.47463e-17)
(-21.2809 0.400606 -4.50391e-17)
(-21.2832 0.411281 -4.53626e-17)
(-21.2858 0.422094 -4.33418e-17)
(-21.2884 0.432954 -4.33122e-17)
(-21.2907 0.443731 -4.57064e-17)
(-21.2923 0.454235 -4.35715e-17)
(-21.2927 0.464198 -4.28347e-17)
(-21.2914 0.473228 -4.49885e-17)
(-21.2873 0.480731 -4.36099e-17)
(-21.2796 0.48577 -4.37476e-17)
(-21.2674 0.486973 -4.37203e-17)
(-21.2488 0.482432 -4.32067e-17)
(-21.2189 0.468018 -4.60633e-17)
(-21.1726 0.432873 -4.97092e-17)
(-21.2184 -0.248178 -4.38264e-17)
(-21.2056 -0.250989 -4.50556e-17)
(-21.1982 -0.252977 -4.62551e-17)
(-21.1912 -0.254594 -4.89773e-17)
(-21.1849 -0.255941 -5.12587e-17)
(-21.1788 -0.257128 -5.16143e-17)
(-21.1731 -0.258251 -5.21793e-17)
(-21.1675 -0.25939 -5.29082e-17)
(-21.162 -0.260613 -5.37336e-17)
(-21.1566 -0.261968 -5.60056e-17)
(-21.1514 -0.263486 -5.7665e-17)
(-21.1464 -0.265185 -5.73121e-17)
(-21.1418 -0.26707 -5.70054e-17)
(-21.1376 -0.269138 -5.64458e-17)
(-21.1338 -0.271374 -5.58899e-17)
(-21.1306 -0.273744 -5.72112e-17)
(-21.128 -0.276215 -5.82997e-17)
(-21.1259 -0.278765 -5.81989e-17)
(-21.1243 -0.281385 -5.77454e-17)
(-21.1234 -0.284074 -5.73092e-17)
(-21.1231 -0.28682 -5.68218e-17)
(-21.1233 -0.289607 -5.62269e-17)
(-21.1239 -0.292437 -5.54822e-17)
(-21.1249 -0.295329 -5.45632e-17)
(-21.1263 -0.298312 -5.34487e-17)
(-21.128 -0.301415 -5.21943e-17)
(-21.1301 -0.30467 -4.97076e-17)
(-21.1325 -0.308119 -4.70837e-17)
(-21.1355 -0.311802 -4.55861e-17)
(-21.1389 -0.315748 -4.39277e-17)
(-21.143 -0.319971 -4.18437e-17)
(-21.1478 -0.324483 -3.94757e-17)
(-21.1532 -0.329306 -3.50553e-17)
(-21.1592 -0.334463 -3.09366e-17)
(-21.1657 -0.339988 -2.85598e-17)
(-21.1727 -0.345942 -2.53722e-17)
(-21.1799 -0.35241 -2.16955e-17)
(-21.1874 -0.359496 -1.75838e-17)
(-21.1948 -0.367338 -1.30265e-17)
(-21.2019 -0.376115 -7.34073e-18)
(-21.2084 -0.386053 -1.74438e-18)
(-21.2139 -0.397455 5.08391e-18)
(-21.218 -0.410704 1.18309e-17)
(-21.22 -0.426256 1.69466e-17)
(-21.219 -0.444738 2.32233e-17)
(-21.2144 -0.467068 3.08883e-17)
(-21.2054 -0.494371 3.98274e-17)
(-21.1907 -0.527938 4.85499e-17)
(-21.1687 -0.570139 5.59423e-17)
(-21.1394 -0.626846 6.29862e-17)
(-21.1671 0.156436 3.70622e-17)
(-21.1705 0.15618 3.49456e-17)
(-21.1728 0.157622 3.2662e-17)
(-21.1753 0.159925 2.87809e-17)
(-21.1782 0.162884 2.52763e-17)
(-21.1815 0.166334 2.34729e-17)
(-21.185 0.170141 2.12198e-17)
(-21.1888 0.174186 1.86678e-17)
(-21.1926 0.17837 1.59004e-17)
(-21.1965 0.182618 1.21353e-17)
(-21.2004 0.186883 8.58248e-18)
(-21.2046 0.191141 6.4035e-18)
(-21.2089 0.195384 4.41515e-18)
(-21.2135 0.199622 2.09729e-18)
(-21.2184 0.203884 -8.02897e-19)
(-21.2237 0.208217 -4.52637e-18)
(-21.2293 0.212657 -8.00904e-18)
(-21.2353 0.217226 -9.88576e-18)
(-21.2418 0.221936 -1.19265e-17)
(-21.2487 0.22681 -1.40922e-17)
(-21.2559 0.231878 -1.63085e-17)
(-21.2636 0.237167 -1.85189e-17)
(-21.2715 0.242684 -2.06871e-17)
(-21.2798 0.248417 -2.27861e-17)
(-21.2883 0.25435 -2.48017e-17)
(-21.297 0.260458 -2.68004e-17)
(-21.306 0.266709 -2.71721e-17)
(-21.3153 0.273057 -2.76404e-17)
(-21.325 0.279455 -2.96842e-17)
(-21.3352 0.28587 -3.13248e-17)
(-21.3459 0.292273 -3.25407e-17)
(-21.3572 0.29863 -3.34518e-17)
(-21.3692 0.304904 -3.30487e-17)
(-21.3817 0.311041 -3.23823e-17)
(-21.3949 0.316974 -3.27181e-17)
(-21.4085 0.32258 -3.28198e-17)
(-21.4227 0.327696 -3.2414e-17)
(-21.4372 0.332112 -3.16632e-17)
(-21.452 0.335572 -2.8963e-17)
(-21.4669 0.337755 -2.70656e-17)
(-21.4818 0.338247 -2.64485e-17)
(-21.4964 0.336522 -2.26153e-17)
(-21.5104 0.331944 -1.85934e-17)
(-21.5234 0.323761 -1.60514e-17)
(-21.5349 0.311011 -1.13259e-17)
(-21.5444 0.292417 -7.34485e-18)
(-21.5514 0.266483 -2.79845e-18)
(-21.5552 0.231492 3.33612e-18)
(-21.5555 0.185156 8.06406e-18)
(-21.5529 0.124119 1.34867e-17)
(-20.6848 -0.226673 1.08072e-16)
(-20.694 -0.228519 1.08479e-16)
(-20.7046 -0.229271 1.08823e-16)
(-20.7165 -0.229464 1.08092e-16)
(-20.7291 -0.229186 1.07396e-16)
(-20.7421 -0.22857 1.07916e-16)
(-20.7554 -0.227751 1.0837e-16)
(-20.7687 -0.226862 1.08474e-16)
(-20.7821 -0.226016 1.08365e-16)
(-20.7955 -0.225299 1.06695e-16)
(-20.8087 -0.224758 1.05383e-16)
(-20.822 -0.224422 1.05864e-16)
(-20.8353 -0.224295 1.06146e-16)
(-20.8486 -0.22436 1.06283e-16)
(-20.862 -0.224577 1.06305e-16)
(-20.8756 -0.224901 1.05106e-16)
(-20.8893 -0.2253 1.03785e-16)
(-20.9032 -0.225748 1.03782e-16)
(-20.9174 -0.226216 1.03645e-16)
(-20.9317 -0.226657 1.03261e-16)
(-20.9463 -0.227018 1.02706e-16)
(-20.961 -0.227259 1.02035e-16)
(-20.9758 -0.227357 1.01287e-16)
(-20.9908 -0.227322 1.00494e-16)
(-21.0058 -0.227153 9.96752e-17)
(-21.021 -0.226857 9.87697e-17)
(-21.0362 -0.226456 9.88218e-17)
(-21.0516 -0.225987 9.87902e-17)
(-21.0673 -0.225478 9.74402e-17)
(-21.0833 -0.224945 9.60193e-17)
(-21.0996 -0.2244 9.4803e-17)
(-21.1164 -0.223851 9.3647e-17)
(-21.1337 -0.2233 9.4079e-17)
(-21.1514 -0.222765 9.43779e-17)
(-21.1696 -0.2223 9.30337e-17)
(-21.1883 -0.22197 9.19645e-17)
(-21.2073 -0.221858 9.11923e-17)
(-21.2268 -0.222084 9.06606e-17)
(-21.2465 -0.222829 9.03855e-17)
(-21.2665 -0.224343 9.10938e-17)
(-21.2867 -0.226954 9.15075e-17)
(-21.3069 -0.231056 9.2665e-17)
(-21.3269 -0.237217 9.40521e-17)
(-21.3465 -0.246144 9.39566e-17)
(-21.3655 -0.258777 9.44598e-17)
(-21.3838 -0.27627 9.61412e-17)
(-21.401 -0.300067 9.88639e-17)
(-21.4172 -0.331921 1.01266e-16)
(-21.4324 -0.374233 1.0185e-16)
(-21.4477 -0.429924 1.02859e-16)
(-20.4159 0.149414 4.1126e-17)
(-20.4429 0.149303 4.2135e-17)
(-20.4623 0.150556 4.32085e-17)
(-20.4821 0.152534 4.27888e-17)
(-20.5022 0.155121 4.28077e-17)
(-20.5227 0.158179 4.46846e-17)
(-20.5432 0.161562 4.62372e-17)
(-20.5639 0.165124 4.75361e-17)
(-20.5844 0.168744 4.87359e-17)
(-20.6048 0.172329 4.84272e-17)
(-20.625 0.175817 4.83604e-17)
(-20.645 0.179179 5.00135e-17)
(-20.6648 0.182421 5.16582e-17)
(-20.6845 0.185557 5.31428e-17)
(-20.7041 0.188619 5.46992e-17)
(-20.7237 0.191631 5.4586e-17)
(-20.7433 0.194608 5.49805e-17)
(-20.7629 0.197566 5.6927e-17)
(-20.7825 0.200533 5.85486e-17)
(-20.8023 0.203552 5.99598e-17)
(-20.822 0.206661 6.12344e-17)
(-20.8417 0.20988 6.24171e-17)
(-20.8614 0.213217 6.3535e-17)
(-20.8811 0.216694 6.46008e-17)
(-20.9007 0.220321 6.56182e-17)
(-20.9203 0.224078 6.65018e-17)
(-20.9399 0.227924 6.87826e-17)
(-20.9596 0.231809 7.07502e-17)
(-20.9795 0.235688 7.09752e-17)
(-20.9995 0.239517 7.13901e-17)
(-21.0199 0.243255 7.20083e-17)
(-21.0405 0.246863 7.26997e-17)
(-21.0616 0.250298 7.45032e-17)
(-21.083 0.253489 7.63481e-17)
(-21.1048 0.256336 7.68924e-17)
(-21.127 0.258713 7.73622e-17)
(-21.1496 0.260448 7.80634e-17)
(-21.1726 0.261309 7.88295e-17)
(-21.1959 0.261 8.06472e-17)
(-21.2197 0.259135 8.17476e-17)
(-21.2439 0.255212 8.18694e-17)
(-21.2683 0.248638 8.45054e-17)
(-21.2929 0.238854 8.69164e-17)
(-21.3174 0.225086 8.75085e-17)
(-21.342 0.206528 8.99751e-17)
(-21.3667 0.182149 9.13078e-17)
(-21.3915 0.150794 9.24777e-17)
(-21.4166 0.111116 9.55312e-17)
(-21.4427 0.0614969 9.76307e-17)
(-21.471 4.67218e-05 9.88541e-17)
(-19.9353 -0.158123 -5.52159e-18)
(-19.962 -0.157881 -5.3051e-18)
(-19.9861 -0.157012 -5.01008e-18)
(-20.012 -0.155761 -6.29859e-18)
(-20.0386 -0.154116 -7.14883e-18)
(-20.0656 -0.152159 -6.05107e-18)
(-20.0929 -0.149999 -5.19698e-18)
(-20.1203 -0.147744 -4.51516e-18)
(-20.1477 -0.145486 -3.90112e-18)
(-20.1749 -0.143288 -4.92888e-18)
(-20.2019 -0.141196 -5.61733e-18)
(-20.2286 -0.139248 -4.41188e-18)
(-20.2551 -0.137471 -3.30255e-18)
(-20.2813 -0.135863 -2.30044e-18)
(-20.3072 -0.13441 -1.37985e-18)
(-20.3329 -0.133094 -1.88734e-18)
(-20.3584 -0.131892 -2.08374e-18)
(-20.3837 -0.130768 -4.20974e-19)
(-20.4088 -0.129667 9.72514e-19)
(-20.4337 -0.128525 2.18093e-18)
(-20.4584 -0.12729 3.28022e-18)
(-20.4829 -0.125917 4.31729e-18)
(-20.5071 -0.124358 5.32223e-18)
(-20.5311 -0.122567 6.31207e-18)
(-20.5548 -0.120506 7.29441e-18)
(-20.5783 -0.118164 8.18865e-18)
(-20.6017 -0.115548 1.00277e-17)
(-20.625 -0.112667 1.19288e-17)
(-20.6482 -0.109533 1.25458e-17)
(-20.6715 -0.106159 1.29684e-17)
(-20.6949 -0.102562 1.35984e-17)
(-20.7184 -0.0987527 1.42915e-17)
(-20.7421 -0.0947592 1.65942e-17)
(-20.766 -0.0906336 1.85846e-17)
(-20.7902 -0.0864522 1.8783e-17)
(-20.8148 -0.0823195 1.92769e-17)
(-20.8397 -0.0783747 1.99948e-17)
(-20.865 -0.0748067 2.08541e-17)
(-20.8908 -0.071889 2.18573e-17)
(-20.9171 -0.0699743 2.30498e-17)
(-20.9441 -0.0694678 2.48766e-17)
(-20.9716 -0.0708545 2.74364e-17)
(-20.9999 -0.0747327 2.917e-17)
(-21.0288 -0.0817887 3.04374e-17)
(-21.0583 -0.0929668 3.15011e-17)
(-21.0886 -0.10937 3.18388e-17)
(-21.1199 -0.132213 3.40953e-17)
(-21.1525 -0.16288 3.67807e-17)
(-21.1871 -0.202821 3.78207e-17)
(-21.2249 -0.25362 3.87293e-17)
(-19.5203 0.161918 -2.30742e-17)
(-19.5643 0.162216 -2.3391e-17)
(-19.5953 0.163242 -2.35719e-17)
(-19.6267 0.164678 -2.54782e-17)
(-19.6583 0.166479 -2.70441e-17)
(-19.6901 0.168572 -2.65219e-17)
(-19.7221 0.170877 -2.61821e-17)
(-19.7541 0.173316 -2.59874e-17)
(-19.786 0.175818 -2.58828e-17)
(-19.8175 0.178316 -2.7454e-17)
(-19.8487 0.180746 -2.88546e-17)
(-19.8794 0.183049 -2.82962e-17)
(-19.9098 0.185183 -2.78979e-17)
(-19.9397 0.187126 -2.79499e-17)
(-19.9692 0.188873 -2.77529e-17)
(-19.9983 0.190424 -2.89184e-17)
(-20.027 0.191799 -2.98424e-17)
(-20.0553 0.193031 -2.89458e-17)
(-20.0834 0.194163 -2.82318e-17)
(-20.111 0.195245 -2.76963e-17)
(-20.1382 0.196315 -2.72615e-17)
(-20.1651 0.197419 -2.68759e-17)
(-20.1915 0.198608 -2.65102e-17)
(-20.2175 0.199937 -2.61468e-17)
(-20.2432 0.20144 -2.57815e-17)
(-20.2685 0.203132 -2.55032e-17)
(-20.2935 0.205012 -2.37025e-17)
(-20.3183 0.207073 -2.21709e-17)
(-20.3429 0.209291 -2.24161e-17)
(-20.3675 0.211633 -2.24228e-17)
(-20.392 0.214063 -2.21864e-17)
(-20.4165 0.216534 -2.18644e-17)
(-20.4411 0.218981 -1.98652e-17)
(-20.4658 0.221326 -1.82101e-17)
(-20.4907 0.223474 -1.83786e-17)
(-20.5157 0.225305 -1.81868e-17)
(-20.5411 0.226661 -1.77693e-17)
(-20.5668 0.227327 -1.72115e-17)
(-20.5929 0.227002 -1.66388e-17)
(-20.6197 0.225302 -1.37006e-17)
(-20.6471 0.22181 -1.22117e-17)
(-20.6752 0.216058 -1.2114e-17)
(-20.7042 0.20738 -9.56438e-18)
(-20.7341 0.194968 -9.11949e-18)
(-20.7652 0.177917 -9.59674e-18)
(-20.7973 0.155355 -8.39545e-18)
(-20.8308 0.126325 -5.88765e-18)
(-20.8664 0.0897597 -2.48527e-18)
(-20.9048 0.0443659 -1.72325e-18)
(-20.9471 -0.0112255 -2.18289e-18)
(-18.9333 -0.0557434 -1.62541e-17)
(-18.9717 -0.0541403 -1.6545e-17)
(-19.005 -0.0521414 -1.66967e-17)
(-19.0402 -0.0499977 -1.86282e-17)
(-19.0761 -0.0477191 -2.0349e-17)
(-19.1122 -0.0453285 -1.99625e-17)
(-19.1485 -0.0428514 -1.97487e-17)
(-19.1847 -0.0403138 -1.96971e-17)
(-19.2207 -0.0377484 -1.96728e-17)
(-19.2562 -0.0352019 -2.10643e-17)
(-19.2914 -0.0327341 -2.25333e-17)
(-19.326 -0.0304066 -2.23164e-17)
(-19.36 -0.0282653 -2.21462e-17)
(-19.3935 -0.0263307 -2.22175e-17)
(-19.4265 -0.0246087 -2.21133e-17)
(-19.4589 -0.0230886 -2.34301e-17)
(-19.4907 -0.0217426 -2.45093e-17)
(-19.5221 -0.0205266 -2.3895e-17)
(-19.5528 -0.0193855 -2.33855e-17)
(-19.5831 -0.0182614 -2.3069e-17)
(-19.6127 -0.0170931 -2.28612e-17)
(-19.6417 -0.0158091 -2.27082e-17)
(-19.6702 -0.0143255 -2.25741e-17)
(-19.698 -0.0125625 -2.24347e-17)
(-19.7253 -0.0104594 -2.22734e-17)
(-19.7521 -0.00797259 -2.21626e-17)
(-19.7784 -0.00506957 -2.1007e-17)
(-19.8045 -0.00173671 -1.99174e-17)
(-19.8302 0.00201722 -2.01939e-17)
(-19.8557 0.00616943 -2.05214e-17)
(-19.8811 0.0106823 -2.06089e-17)
(-19.9063 0.0154985 -2.06222e-17)
(-19.9315 0.0205534 -1.89582e-17)
(-19.9567 0.025786 -1.74947e-17)
(-19.9819 0.0311284 -1.78191e-17)
(-20.0072 0.0364826 -1.78527e-17)
(-20.0326 0.0416925 -1.76095e-17)
(-20.0584 0.0465318 -1.7258e-17)
(-20.0847 0.050701 -1.57649e-17)
(-20.1116 0.0538507 -1.4931e-17)
(-20.1392 0.0555836 -1.51335e-17)
(-20.1677 0.0553937 -1.34041e-17)
(-20.1972 0.0527014 -1.14351e-17)
(-20.2279 0.0468088 -1.07623e-17)
(-20.26 0.0369129 -9.20835e-18)
(-20.2937 0.022225 -8.65234e-18)
(-20.3293 0.00180795 -7.5857e-18)
(-20.3669 -0.0253615 -5.41897e-18)
(-20.4076 -0.0604767 -4.91357e-18)
(-20.4524 -0.104745 -3.41728e-18)
(-18.328 0.190743 -1.71183e-17)
(-18.3803 0.192246 -1.73067e-17)
(-18.4171 0.193589 -1.74502e-17)
(-18.4544 0.194849 -1.91227e-17)
(-18.4916 0.196093 -2.07335e-17)
(-18.5288 0.197357 -2.04654e-17)
(-18.5659 0.19866 -2.01703e-17)
(-18.6029 0.200012 -2.00519e-17)
(-18.6396 0.201399 -1.98777e-17)
(-18.6759 0.202774 -2.14359e-17)
(-18.7116 0.204071 -2.28237e-17)
(-18.7469 0.205224 -2.23027e-17)
(-18.7816 0.206182 -2.2042e-17)
(-18.8156 0.206916 -2.19349e-17)
(-18.8491 0.207409 -2.1844e-17)
(-18.8819 0.207655 -2.34978e-17)
(-18.9141 0.207664 -2.48121e-17)
(-18.9456 0.207462 -2.41792e-17)
(-18.9765 0.207089 -2.38361e-17)
(-19.0068 0.206588 -2.37211e-17)
(-19.0363 0.206015 -2.37496e-17)
(-19.0651 0.205445 -2.38683e-17)
(-19.0932 0.204963 -2.40423e-17)
(-19.1206 0.204649 -2.42501e-17)
(-19.1473 0.204564 -2.44802e-17)
(-19.1734 0.204766 -2.48154e-17)
(-19.199 0.205305 -2.38516e-17)
(-19.2241 0.20621 -2.31104e-17)
(-19.249 0.207487 -2.4045e-17)
(-19.2735 0.209116 -2.49164e-17)
(-19.2979 0.211044 -2.55718e-17)
(-19.3221 0.213199 -2.61779e-17)
(-19.3461 0.215508 -2.53608e-17)
(-19.3701 0.217906 -2.46677e-17)
(-19.3939 0.220324 -2.56269e-17)
(-19.4177 0.222664 -2.64993e-17)
(-19.4416 0.224779 -2.71393e-17)
(-19.4658 0.226442 -2.76587e-17)
(-19.4905 0.22735 -2.80223e-17)
(-19.5157 0.227176 -2.74021e-17)
(-19.5416 0.22553 -2.7299e-17)
(-19.5685 0.221909 -2.67814e-17)
(-19.5964 0.2157 -2.60243e-17)
(-19.6257 0.206242 -2.69726e-17)
(-19.6564 0.192863 -2.76252e-17)
(-19.6888 0.174669 -2.72093e-17)
(-19.7233 0.15069 -2.58401e-17)
(-19.7602 0.11997 -2.49741e-17)
(-19.7996 0.0816781 -2.70793e-17)
(-19.8431 0.0347796 -2.94336e-17)
(-17.5646 0.0565497 -7.30139e-19)
(-17.6064 0.0591625 -6.25544e-19)
(-17.6413 0.0616897 -5.11075e-19)
(-17.6779 0.0640707 -1.94734e-18)
(-17.7148 0.06629 -3.2517e-18)
(-17.7518 0.0683788 -2.66066e-18)
(-17.7888 0.0703771 -2.02027e-18)
(-17.8255 0.0723141 -1.557e-18)
(-17.8619 0.0741939 -1.10239e-18)
(-17.8978 0.0759864 -2.23899e-18)
(-17.9333 0.0776465 -3.16326e-18)
(-17.9683 0.0791331 -2.30579e-18)
(-18.0026 0.0804219 -1.53021e-18)
(-18.0363 0.0814948 -9.4569e-19)
(-18.0694 0.0823372 -3.74491e-19)
(-18.1017 0.082942 -1.29839e-18)
(-18.1334 0.0833207 -2.04678e-18)
(-18.1645 0.083505 -1.03705e-18)
(-18.1948 0.0835371 -8.14081e-20)
(-18.2243 0.0834702 6.5928e-19)
(-18.2531 0.0833808 1.27264e-18)
(-18.2811 0.0833691 1.81345e-18)
(-18.3083 0.0835375 2.31731e-18)
(-18.3346 0.0839741 2.80639e-18)
(-18.3602 0.0847618 3.29166e-18)
(-18.3851 0.0859855 3.68779e-18)
(-18.4095 0.0877209 5.48912e-18)
(-18.4334 0.0900216 7.09182e-18)
(-18.457 0.0929126 6.93362e-18)
(-18.4803 0.0963826 6.84253e-18)
(-18.5034 0.100389 6.988e-18)
(-18.5264 0.104868 7.19005e-18)
(-18.5493 0.109737 8.90323e-18)
(-18.5719 0.114889 1.04949e-17)
(-18.5944 0.120209 1.03533e-17)
(-18.6168 0.125577 1.02974e-17)
(-18.6392 0.130867 1.04699e-17)
(-18.6619 0.135897 1.06676e-17)
(-18.6849 0.140414 1.2344e-17)
(-18.7085 0.144107 1.29459e-17)
(-18.7328 0.146547 1.19467e-17)
(-18.758 0.1473 1.36669e-17)
(-18.7843 0.145823 1.52985e-17)
(-18.8119 0.141456 1.4915e-17)
(-18.8409 0.133645 1.59533e-17)
(-18.8717 0.121642 1.57415e-17)
(-18.9044 0.104652 1.57483e-17)
(-18.9398 0.0817525 1.7243e-17)
(-18.9784 0.0521161 1.69798e-17)
(-19.0198 0.0147611 1.50085e-17)
(-16.7184 0.227846 -1.73638e-17)
(-16.7666 0.230695 -1.76068e-17)
(-16.8006 0.23269 -1.77392e-17)
(-16.835 0.23426 -1.95208e-17)
(-16.8691 0.235515 -2.11699e-17)
(-16.9031 0.236524 -2.08295e-17)
(-16.9368 0.237346 -2.05023e-17)
(-16.9702 0.238021 -2.04108e-17)
(-17.0032 0.238565 -2.03659e-17)
(-17.0358 0.238965 -2.22399e-17)
(-17.0678 0.239203 -2.37272e-17)
(-17.0994 0.239261 -2.30456e-17)
(-17.1303 0.239124 -2.26931e-17)
(-17.1606 0.238765 -2.25692e-17)
(-17.1903 0.238153 -2.24818e-17)
(-17.2193 0.237266 -2.39364e-17)
(-17.2476 0.236105 -2.52182e-17)
(-17.2753 0.234683 -2.46593e-17)
(-17.3023 0.233022 -2.41484e-17)
(-17.3285 0.23117 -2.38558e-17)
(-17.3539 0.229208 -2.36809e-17)
(-17.3785 0.227236 -2.3558e-17)
(-17.4022 0.225351 -2.34432e-17)
(-17.425 0.223641 -2.33068e-17)
(-17.4472 0.222206 -2.31312e-17)
(-17.4686 0.221152 -2.30022e-17)
(-17.4896 0.220572 -2.13331e-17)
(-17.5101 0.220528 -1.9819e-17)
(-17.5303 0.221049 -2.00902e-17)
(-17.5503 0.222128 -2.02041e-17)
(-17.5703 0.223743 -1.99892e-17)
(-17.5902 0.225847 -1.96341e-17)
(-17.61 0.228357 -1.76165e-17)
(-17.6297 0.231164 -1.56404e-17)
(-17.6494 0.234136 -1.53878e-17)
(-17.6689 0.237123 -1.49414e-17)
(-17.6884 0.239977 -1.41488e-17)
(-17.7081 0.242543 -1.31367e-17)
(-17.7282 0.244621 -1.18442e-17)
(-17.7488 0.245902 -9.38239e-18)
(-17.7701 0.245994 -7.44241e-18)
(-17.7922 0.244378 -4.98636e-18)
(-17.8154 0.2406 -2.23026e-18)
(-17.8398 0.234133 -1.32578e-18)
(-17.8655 0.224291 -9.34752e-20)
(-17.8926 0.210413 2.26618e-18)
(-17.9214 0.191814 5.97935e-18)
(-17.9524 0.167678 8.96131e-18)
(-17.9865 0.137065 8.55949e-18)
(-18.024 0.0990548 7.8868e-18)
(-15.7322 0.153008 -1.74712e-17)
(-15.7655 0.156429 -1.75481e-17)
(-15.7925 0.159256 -1.7604e-17)
(-15.8208 0.161716 -1.93125e-17)
(-15.849 0.163764 -2.07742e-17)
(-15.8772 0.165434 -2.02361e-17)
(-15.9051 0.166775 -1.97377e-17)
(-15.9326 0.167834 -1.95024e-17)
(-15.9597 0.168639 -1.93456e-17)
(-15.9864 0.169209 -2.0914e-17)
(-16.0126 0.169559 -2.22958e-17)
(-16.0383 0.169697 -2.17339e-17)
(-16.0634 0.16962 -2.13272e-17)
(-16.088 0.169304 -2.12297e-17)
(-16.1121 0.16873 -2.12385e-17)
(-16.1355 0.167891 -2.29875e-17)
(-16.1584 0.166792 -2.4607e-17)
(-16.1807 0.165446 -2.43007e-17)
(-16.2024 0.163879 -2.41581e-17)
(-16.2234 0.162157 -2.43345e-17)
(-16.2437 0.160379 -2.47276e-17)
(-16.2631 0.15865 -2.52719e-17)
(-16.2818 0.15707 -2.59267e-17)
(-16.2997 0.155756 -2.66663e-17)
(-16.317 0.154846 -2.74777e-17)
(-16.3337 0.154484 -2.84582e-17)
(-16.3499 0.154782 -2.79131e-17)
(-16.3658 0.155813 -2.76548e-17)
(-16.3817 0.157597 -2.94305e-17)
(-16.3976 0.160116 -3.1158e-17)
(-16.4136 0.163314 -3.26503e-17)
(-16.4297 0.167109 -3.41025e-17)
(-16.446 0.171417 -3.39041e-17)
(-16.4623 0.176157 -3.38393e-17)
(-16.4786 0.181229 -3.56792e-17)
(-16.495 0.186482 -3.73994e-17)
(-16.5113 0.191708 -3.88258e-17)
(-16.5279 0.19673 -4.01814e-17)
(-16.5448 0.201394 -3.98088e-17)
(-16.5621 0.205374 -4.04661e-17)
(-16.5802 0.208394 -4.28163e-17)
(-16.5992 0.209953 -4.20925e-17)
(-16.619 0.209545 -4.11878e-17)
(-16.6398 0.206808 -4.22589e-17)
(-16.6619 0.201106 -4.15231e-17)
(-16.6851 0.191798 -4.18772e-17)
(-16.7099 0.178223 -4.16694e-17)
(-16.7364 0.159777 -3.9375e-17)
(-16.7654 0.135656 -3.88808e-17)
(-16.7977 0.104969 -3.83325e-17)
(-14.619 0.258252 2.70002e-17)
(-14.6487 0.26211 2.80462e-17)
(-14.6691 0.264646 2.92546e-17)
(-14.6896 0.266576 2.88089e-17)
(-14.7097 0.267985 2.86762e-17)
(-14.7295 0.268947 3.08088e-17)
(-14.7489 0.269524 3.29163e-17)
(-14.7679 0.269765 3.47622e-17)
(-14.7864 0.269706 3.65679e-17)
(-14.8045 0.269378 3.6594e-17)
(-14.8221 0.268806 3.68483e-17)
(-14.8391 0.267998 3.91946e-17)
(-14.8557 0.266943 4.13979e-17)
(-14.8718 0.26562 4.32675e-17)
(-14.8874 0.264017 4.50098e-17)
(-14.9025 0.262128 4.48477e-17)
(-14.9172 0.259945 4.47749e-17)
(-14.9315 0.257467 4.6712e-17)
(-14.9452 0.254718 4.83901e-17)
(-14.9584 0.251759 4.96068e-17)
(-14.9709 0.248674 5.04437e-17)
(-14.9827 0.245547 5.09464e-17)
(-14.9938 0.242481 5.11302e-17)
(-15.0043 0.239626 5.09962e-17)
(-15.0142 0.237165 5.05218e-17)
(-15.0236 0.235281 4.95738e-17)
(-15.0327 0.23412 4.9945e-17)
(-15.0418 0.233772 4.96586e-17)
(-15.0511 0.234257 4.67831e-17)
(-15.0607 0.235509 4.35324e-17)
(-15.0707 0.237391 4.00843e-17)
(-15.0812 0.239747 3.61964e-17)
(-15.0921 0.242473 3.36274e-17)
(-15.1032 0.245522 3.03899e-17)
(-15.1145 0.248863 2.44905e-17)
(-15.1259 0.252415 1.81386e-17)
(-15.1376 0.256007 1.15067e-17)
(-15.1494 0.259431 4.42733e-18)
(-15.1615 0.262518 -3.07608e-18)
(-15.1742 0.264991 -9.98121e-18)
(-15.1875 0.266476 -1.81738e-17)
(-15.2018 0.266647 -2.64752e-17)
(-15.2168 0.264988 -3.49229e-17)
(-15.2326 0.261016 -4.59629e-17)
(-15.2495 0.254203 -5.71514e-17)
(-15.2673 0.24396 -6.72559e-17)
(-15.2863 0.229647 -7.5791e-17)
(-15.3067 0.210681 -8.48241e-17)
(-15.3292 0.186479 -9.69907e-17)
(-15.3541 0.156327 -1.08513e-16)
(-13.3607 0.211502 1.63853e-16)
(-13.371 0.215309 1.66301e-16)
(-13.3792 0.217999 1.69012e-16)
(-13.3879 0.220162 1.69991e-16)
(-13.3964 0.221772 1.7143e-16)
(-13.4045 0.222879 1.75501e-16)
(-13.4122 0.223538 1.7972e-16)
(-13.4194 0.223794 1.83884e-16)
(-13.4261 0.223687 1.8824e-16)
(-13.4323 0.223252 1.90931e-16)
(-13.438 0.22251 1.94135e-16)
(-13.4433 0.221466 1.99983e-16)
(-13.4481 0.220118 2.06084e-16)
(-13.4527 0.218467 2.12216e-16)
(-13.4568 0.216521 2.18629e-16)
(-13.4607 0.214287 2.23404e-16)
(-13.4643 0.211766 2.28741e-16)
(-13.4677 0.208969 2.36786e-16)
(-13.4707 0.205941 2.45087e-16)
(-13.4734 0.202754 2.53433e-16)
(-13.4756 0.199486 2.61965e-16)
(-13.4773 0.196223 2.70774e-16)
(-13.4786 0.193108 2.79938e-16)
(-13.4793 0.190348 2.89504e-16)
(-13.4795 0.188181 2.99519e-16)
(-13.4795 0.186838 3.09887e-16)
(-13.4794 0.186517 3.22645e-16)
(-13.4796 0.187338 3.35624e-16)
(-13.4804 0.189289 3.46738e-16)
(-13.4821 0.192189 3.58475e-16)
(-13.4848 0.195751 3.71073e-16)
(-13.4884 0.199705 3.84295e-16)
(-13.4928 0.203874 4.00181e-16)
(-13.4976 0.20822 4.16548e-16)
(-13.5027 0.212802 4.31203e-16)
(-13.5082 0.217691 4.46665e-16)
(-13.5139 0.222892 4.63124e-16)
(-13.5199 0.228231 4.80273e-16)
(-13.5263 0.233396 4.99994e-16)
(-13.5332 0.238209 5.18975e-16)
(-13.5408 0.242137 5.36233e-16)
(-13.5491 0.24489 5.57169e-16)
(-13.5582 0.246087 5.78077e-16)
(-13.568 0.245164 5.9598e-16)
(-13.5787 0.241572 6.14568e-16)
(-13.5901 0.23473 6.30671e-16)
(-13.6024 0.224115 6.45733e-16)
(-13.6159 0.209131 6.6007e-16)
(-13.6314 0.189325 6.68413e-16)
(-13.6488 0.164251 6.70986e-16)
(-11.9336 0.260694 -4.08427e-16)
(-11.9298 0.264717 -4.22685e-16)
(-11.925 0.26701 -4.37726e-16)
(-11.9197 0.268635 -4.55823e-16)
(-11.9138 0.26971 -4.74609e-16)
(-11.9075 0.270334 -4.91668e-16)
(-11.9006 0.270571 -5.09764e-16)
(-11.8933 0.27046 -5.29241e-16)
(-11.8853 0.270031 -5.49802e-16)
(-11.8769 0.269301 -5.73586e-16)
(-11.8681 0.268272 -5.98172e-16)
(-11.8589 0.26694 -6.21131e-16)
(-11.8493 0.265304 -6.44959e-16)
(-11.8395 0.263367 -6.69937e-16)
(-11.8295 0.261138 -6.95654e-16)
(-11.8195 0.258611 -7.24236e-16)
(-11.8094 0.255784 -7.52979e-16)
(-11.7992 0.252672 -7.79313e-16)
(-11.789 0.249317 -8.05942e-16)
(-11.7787 0.245769 -8.33001e-16)
(-11.7682 0.242072 -8.60223e-16)
(-11.7574 0.238312 -8.8744e-16)
(-11.7462 0.234654 -9.1446e-16)
(-11.7346 0.231325 -9.41179e-16)
(-11.7227 0.228587 -9.67403e-16)
(-11.7106 0.226734 -9.93205e-16)
(-11.6987 0.226047 -1.01609e-15)
(-11.6875 0.226706 -1.03836e-15)
(-11.6774 0.228669 -1.06253e-15)
(-11.6691 0.231615 -1.08599e-15)
(-11.6625 0.235051 -1.10841e-15)
(-11.6576 0.238508 -1.13015e-15)
(-11.6537 0.24168 -1.14943e-15)
(-11.6505 0.244567 -1.16782e-15)
(-11.6475 0.247433 -1.18791e-15)
(-11.6447 0.250605 -1.20782e-15)
(-11.6422 0.254295 -1.22685e-15)
(-11.6399 0.258496 -1.24502e-15)
(-11.6381 0.262814 -1.26219e-15)
(-11.6369 0.266982 -1.27688e-15)
(-11.6365 0.270549 -1.29105e-15)
(-11.6366 0.273027 -1.30279e-15)
(-11.6375 0.273964 -1.31209e-15)
(-11.639 0.272823 -1.3215e-15)
(-11.6413 0.26897 -1.32723e-15)
(-11.6443 0.261818 -1.32747e-15)
(-11.6479 0.250849 -1.32169e-15)
(-11.6524 0.235618 -1.31137e-15)
(-11.6586 0.215798 -1.29834e-15)
(-11.6668 0.191192 -1.27814e-15)
(-10.302 0.211984 3.04711e-16)
(-10.2734 0.215117 3.27618e-16)
(-10.2508 0.216741 3.52476e-16)
(-10.2274 0.217877 3.76573e-16)
(-10.2035 0.218567 4.0277e-16)
(-10.179 0.218889 4.33851e-16)
(-10.154 0.218884 4.66703e-16)
(-10.1284 0.218576 5.00926e-16)
(-10.1023 0.21797 5.36743e-16)
(-10.0757 0.217059 5.72159e-16)
(-10.0487 0.215828 6.08995e-16)
(-10.0215 0.214268 6.4992e-16)
(-9.99402 0.212375 6.92377e-16)
(-9.9665 0.210146 7.35577e-16)
(-9.93903 0.207578 7.79541e-16)
(-9.91175 0.20466 8.21541e-16)
(-9.88476 0.201395 8.63906e-16)
(-9.85809 0.197818 9.09578e-16)
(-9.83173 0.193968 9.54984e-16)
(-9.80562 0.189867 9.9949e-16)
(-9.77969 0.185549 1.04278e-15)
(-9.7538 0.181128 1.08473e-15)
(-9.72777 0.176799 1.1249e-15)
(-9.70151 0.17283 1.16311e-15)
(-9.67499 0.16959 1.19889e-15)
(-9.64837 0.167552 1.232e-15)
(-9.6221 0.167214 1.26483e-15)
(-9.5969 0.168949 1.29478e-15)
(-9.57372 0.172791 1.31852e-15)
(-9.55336 0.178246 1.33956e-15)
(-9.53602 0.184367 1.35813e-15)
(-9.52125 0.190136 1.3741e-15)
(-9.50807 0.194921 1.38965e-15)
(-9.49537 0.198812 1.40245e-15)
(-9.48243 0.202452 1.40906e-15)
(-9.46916 0.206615 1.41223e-15)
(-9.45573 0.211786 1.41262e-15)
(-9.44259 0.218126 1.40967e-15)
(-9.42994 0.225383 1.40625e-15)
(-9.41784 0.232972 1.39764e-15)
(-9.4065 0.240543 1.38247e-15)
(-9.39589 0.247359 1.3685e-15)
(-9.38602 0.25266 1.35105e-15)
(-9.37691 0.255676 1.32634e-15)
(-9.36866 0.255642 1.30013e-15)
(-9.36114 0.251961 1.26839e-15)
(-9.35419 0.244088 1.23388e-15)
(-9.3481 0.231784 1.19862e-15)
(-9.34361 0.214976 1.15606e-15)
(-9.34086 0.193823 1.10938e-15)
(-8.3774 0.20993 1.75043e-16)
(-8.32367 0.21199 1.67218e-16)
(-8.28057 0.212587 1.58403e-16)
(-8.23566 0.212869 1.45721e-16)
(-8.1901 0.212913 1.31842e-16)
(-8.14394 0.212773 1.20383e-16)
(-8.09722 0.212457 1.07999e-16)
(-8.04997 0.211955 9.40012e-17)
(-8.00225 0.211244 7.87465e-17)
(-7.95416 0.210293 5.94287e-17)
(-7.90581 0.209069 3.89276e-17)
(-7.85735 0.207546 2.08381e-17)
(-7.80894 0.205701 2.01408e-18)
(-7.76074 0.203509 -1.8265e-17)
(-7.71296 0.200939 -3.93618e-17)
(-7.6658 0.197976 -6.41415e-17)
(-7.61939 0.194643 -8.95014e-17)
(-7.57383 0.190983 -1.11359e-16)
(-7.52914 0.18701 -1.32811e-16)
(-7.48525 0.18273 -1.54432e-16)
(-7.44199 0.178209 -1.7567e-16)
(-7.39907 0.1736 -1.96076e-16)
(-7.35614 0.169139 -2.15205e-16)
(-7.31285 0.1652 -2.32708e-16)
(-7.26891 0.162336 -2.482e-16)
(-7.22434 0.16125 -2.61725e-16)
(-7.17964 0.162679 -2.69842e-16)
(-7.13602 0.167176 -2.75518e-16)
(-7.0953 0.174717 -2.82568e-16)
(-7.0592 0.184244 -2.87638e-16)
(-7.02836 0.193707 -2.89679e-16)
(-7.0018 0.201155 -2.89433e-16)
(-6.97718 0.205543 -2.8292e-16)
(-6.95206 0.207523 -2.73413e-16)
(-6.92502 0.208821 -2.64423e-16)
(-6.89603 0.211177 -2.52416e-16)
(-6.86573 0.215508 -2.36524e-16)
(-6.83491 0.221871 -2.17333e-16)
(-6.80436 0.230027 -1.95184e-16)
(-6.77424 0.23898 -1.67908e-16)
(-6.74484 0.247945 -1.39846e-16)
(-6.71655 0.255891 -1.09109e-16)
(-6.68943 0.261812 -7.59926e-17)
(-6.66369 0.264585 -4.59151e-17)
(-6.63929 0.263302 -1.48302e-17)
(-6.61608 0.257345 1.98383e-17)