/*--------------------------------*- C++ -*----------------------------------*\
  =========                 |
  \\      /  F ield         | OpenFOAM: The Open Source CFD Toolbox
   \\    /   O peration     | Website:  https://openfoam.org
    \\  /    A nd           | Version:  8
     \\/     M anipulation  |
\*---------------------------------------------------------------------------*/
FoamFile
{
    version     2.0;
    format      ascii;
    class       volScalarField;
    location    "500";
    object      epsilon;
}
// * * * * * * * * * * * * * * * * * * * * * * * * * * * * * * * * * * * * * //

dimensions      [0 2 -3 0 0 0 0];

internalField   nonuniform List<scalar> 
1200
(
72.126
55.7071
44.1203
35.6957
29.4186
24.6396
20.93
18.0004
15.6511
13.7499
12.198
10.9187
9.85212
8.94115
8.14857
7.45991
6.88955
6.44039
6.09212
5.78397
5.62239
5.80021
5.73355
5.29291
4.64715
3.9926
3.43853
3.00558
2.66237
2.38717
2.17372
2.01081
1.88656
1.79101
1.71673
1.6598
1.61794
1.58929
1.5709
1.55972
1.55267
1.54637
1.53428
1.50992
1.46715
1.39967
1.30515
1.19034
1.07095
0.961977
0.872247
0.805208
0.759906
0.734126
0.721841
0.712436
0.695359
0.665182
0.62198
0.570472
92.938
58.8365
39.2445
27.3206
19.7084
14.6393
11.149
8.66945
6.8704
5.53467
4.52082
3.73577
3.11628
2.62889
2.24093
1.92908
1.67732
1.4721
1.31249
1.25389
1.55572
2.24499
2.70291
2.68859
2.35891
1.9406
1.55866
1.25304
1.02451
0.859279
0.735011
0.63835
0.561131
0.49809
0.44574
0.40158
0.363997
0.331816
0.304193
0.280583
0.260819
0.245277
0.23492
0.229275
0.226078
0.223106
0.21859
0.211481
0.201664
0.189717
0.176196
0.161499
0.147126
0.134206
0.123533
0.116527
0.113589
0.113007
0.112612
0.108911
92.8724
58.5486
38.8744
26.919
19.3047
14.2597
10.8007
8.35619
6.58379
5.27151
4.28269
3.52502
2.93559
2.47166
2.10221
1.80557
1.56717
1.37424
1.21551
1.09037
1.04309
1.1351
1.25545
1.30875
1.27489
1.17924
1.06364
0.952228
0.852145
0.764587
0.687222
0.61788
0.55631
0.503027
0.457689
0.418988
0.385439
0.355877
0.329514
0.305782
0.284209
0.264244
0.245651
0.228545
0.212859
0.198353
0.184714
0.171857
0.160018
0.14952
0.14052
0.132927
0.126403
0.12028
0.114155
0.10794
0.101695
0.095475
0.0892736
0.0832602
92.867
58.6284
38.9782
27.0194
19.3903
14.3279
10.854
8.39752
6.61584
5.29621
4.30168
3.53984
2.94651
2.47924
2.10738
1.81039
1.57326
1.38141
1.22272
1.09124
0.994227
0.945922
0.926197
0.901787
0.860171
0.806298
0.747297
0.685193
0.626014
0.571391
0.522514
0.479425
0.441337
0.407242
0.37645
0.348716
0.323917
0.301768
0.281841
0.263643
0.246839
0.231413
0.217332
0.204323
0.192335
0.181192
0.169724
0.158023
0.146847
0.136964
0.128855
0.122352
0.116861
0.1117
0.106604
0.101672
0.0969449
0.0924096
0.0880357
0.0838756
92.8648
58.6327
38.9705
27.0059
19.3761
14.3145
10.8413
8.38653
6.60719
5.29043
4.29761
3.53613
2.94344
2.4765
2.10514
1.81029
1.57875
1.39304
1.23759
1.1045
0.99461
0.909975
0.844721
0.787809
0.733019
0.67967
0.628374
0.580595
0.536918
0.497188
0.461035
0.428004
0.397742
0.369937
0.344398
0.320932
0.299224
0.279037
0.26021
0.242692
0.226504
0.21173
0.198193
0.185715
0.174274
0.163823
0.154442
0.145897
0.137362
0.128801
0.120613
0.113325
0.107175
0.102152
0.0977481
0.0936425
0.0897155
0.0859387
0.0823064
0.0788201
92.8673
58.6363
38.9709
27.0081
19.3779
14.3144
10.8395
8.38372
6.60519
5.2896
4.29718
3.53587
2.94345
2.4767
2.10684
1.82373
1.6128
1.44169
1.2889
1.15139
1.03281
0.935642
0.855792
0.787865
0.727916
0.674129
0.625801
0.581791
0.541069
0.503129
0.467666
0.434567
0.403731
0.375086
0.348519
0.323877
0.301097
0.280007
0.26041
0.24217
0.225264
0.209818
0.19579
0.183018
0.171338
0.160697
0.151194
0.142198
0.133118
0.12401
0.115454
0.107907
0.101414
0.0958336
0.0909814
0.0865854
0.0825369
0.0787691
0.0752209
0.0718688
92.8713
58.643
38.9874
27.0342
19.4047
14.3375
10.8599
8.40178
6.62027
5.30125
4.30612
3.54246
2.94787
2.47899
2.11616
1.88658
1.74715
1.60798
1.44401
1.27968
1.13683
1.02199
0.93087
0.854828
0.788201
0.727822
0.671639
0.618885
0.569429
0.523446
0.481145
0.442506
0.407352
0.375287
0.345585
0.318382
0.294069
0.272362
0.25267
0.234481
0.21758
0.202295
0.188617
0.17625
0.164666
0.153981
0.14387
0.134096
0.124808
0.116578
0.108931
0.101364
0.0941379
0.087783
0.0824896
0.0779105
0.0738079
0.0700574
0.0665766
0.0633091
92.8725
58.5682
38.8889
26.9348
19.3147
14.2624
10.7989
8.3528
6.5813
5.27052
4.28201
3.52328
2.93271
2.46876
2.16443
2.18113
2.27605
2.19013
1.92109
1.62539
1.38381
1.19793
1.04761
0.920249
0.809426
0.713699
0.631548
0.562365
0.505505
0.458366
0.417438
0.380811
0.347386
0.31853
0.29733
0.280039
0.261541
0.240619
0.219884
0.201932
0.187582
0.175871
0.166066
0.156031
0.144569
0.133137
0.126295
0.124487
0.122702
0.11827
0.111201
0.101842
0.091306
0.0815066
0.0736465
0.0677563
0.06319
0.0594276
0.0560126
0.0525073
92.9324
58.8438
39.2362
27.2985
19.663
14.5831
11.0876
8.60465
6.7978
5.45789
4.44793
3.67747
3.09381
2.67346
2.72594
3.75647
4.41309
4.386
3.97099
3.42063
2.91204
2.46922
2.07637
1.75333
1.50382
1.30976
1.15542
1.03405
0.940125
0.86552
0.802461
0.743243
0.687374
0.634359
0.580961
0.526908
0.480309
0.44104
0.406303
0.374096
0.345076
0.320603
0.298971
0.278085
0.258378
0.241443
0.224116
0.201467
0.175098
0.156415
0.143942
0.129107
0.109494
0.0902922
0.0758852
0.0657093
0.0578392
0.0512669
0.045264
0.0396626
72.1382
55.7355
44.1368
35.7046
29.4205
24.6333
20.9186
17.9884
15.6413
13.736
12.1718
10.8784
9.79754
8.8781
8.12996
8.62627
8.9333
8.4594
7.60058
6.66044
5.77548
5.04092
4.4686
4.0238
3.6687
3.3732
3.11427
2.87643
2.65736
2.46232
2.29608
2.15058
2.01288
1.86918
1.70819
1.52607
1.32922
1.13323
0.950747
0.794895
0.672116
0.575817
0.502045
0.448713
0.412471
0.391391
0.386774
0.397783
0.40887
0.394538
0.346001
0.274958
0.204392
0.151447
0.117617
0.0981067
0.0871935
0.0810364
0.0771514
0.0752574
72.1402
55.7486
44.1479
35.7123
29.4246
24.6375
20.9234
17.996
15.6563
13.7564
12.2006
10.9138
9.83827
8.92425
8.13086
7.437
6.85643
6.38594
6.03922
5.74162
5.54302
5.69756
5.7063
5.33364
4.7173
4.06471
3.50135
3.0575
2.70526
2.41986
2.1978
2.02851
1.89968
1.80072
1.72379
1.66467
1.62093
1.59071
1.57132
1.55996
1.55381
1.54914
1.53815
1.51576
1.47599
1.41193
1.3199
1.20647
1.08702
0.977058
0.885913
0.817204
0.770175
0.742405
0.72838
0.718412
0.702047
0.673363
0.631712
0.581337
92.9294
58.844
39.2231
27.2735
19.6495
14.5912
11.1132
8.65313
6.86215
5.52344
4.50564
3.72258
3.10963
2.62506
2.23806
1.92619
1.67421
1.46883
1.30219
1.2275
1.4904
2.10711
2.59963
2.67479
2.39535
1.98807
1.60109
1.28589
1.04649
0.873944
0.745018
0.645403
0.566273
0.501962
0.448758
0.404008
0.366007
0.333501
0.305573
0.281623
0.261431
0.245396
0.234872
0.228614
0.224653
0.221157
0.216838
0.210179
0.20089
0.189481
0.176485
0.162253
0.148083
0.135277
0.12469
0.117455
0.114098
0.113141
0.112654
0.109199
92.8643
58.5815
38.9002
26.9342
19.3124
14.2619
10.7977
8.35249
6.58244
5.27188
4.28312
3.52474
2.9349
2.47063
2.10077
1.80421
1.56747
1.37536
1.21706
1.09528
1.05891
1.14969
1.26033
1.30114
1.26975
1.18124
1.07013
0.960494
0.859771
0.771158
0.693366
0.62412
0.562315
0.508027
0.461326
0.421459
0.387207
0.357398
0.331069
0.307491
0.286089
0.266162
0.24744
0.23008
0.214088
0.19932
0.185549
0.172636
0.160711
0.150071
0.140917
0.1332
0.126602
0.12051
0.114462
0.108337
0.102178
0.0960341
0.0898942
0.0839105
92.8663
58.6501
38.9931
27.0312
19.4002
14.3352
10.8551
8.39603
6.61613
5.29924
4.30478
3.54118
2.94735
2.4797
2.10797
1.81151
1.57478
1.38282
1.2239
1.09366
1.00177
0.958702
0.939322
0.911757
0.867622
0.812985
0.752851
0.687919
0.625636
0.569219
0.519534
0.476159
0.437931
0.403817
0.373302
0.346107
0.321913
0.300217
0.280481
0.262223
0.245194
0.229547
0.215316
0.202224
0.190237
0.179509
0.169369
0.158981
0.148386
0.138367
0.129717
0.1227
0.11697
0.111878
0.106906
0.102039
0.0973241
0.0927847
0.0884033
0.0842387
92.8704
58.6438
38.9771
27.0153
19.3841
14.32
10.8418
8.38518
6.60778
5.29244
4.29918
3.53677
2.94389
2.47691
2.10591
1.81182
1.58068
1.3947
1.23865
1.10565
0.997294
0.914542
0.849845
0.792255
0.736567
0.682415
0.630314
0.581392
0.537078
0.496974
0.460552
0.427304
0.396882
0.369016
0.343443
0.319915
0.298129
0.277843
0.258962
0.241457
0.225325
0.210591
0.19707
0.184635
0.173242
0.162838
0.153478
0.145172
0.137344
0.129504
0.12167
0.114336
0.107947
0.102669
0.0981355
0.0939889
0.0900535
0.0862735
0.0826282
0.0791378
92.8721
58.6403
38.9737
27.0129
19.38
14.315
10.8383
8.38298
6.60562
5.29026
4.29784
3.53634
2.94401
2.47723
2.10802
1.82697
1.61612
1.44335
1.28898
1.15113
1.03367
0.937638
0.858354
0.790469
0.730274
0.676119
0.627239
0.582712
0.54158
0.503306
0.467583
0.43425
0.403222
0.374447
0.347777
0.323093
0.300273
0.279083
0.25933
0.240962
0.224043
0.208623
0.194619
0.181862
0.170213
0.159609
0.150129
0.141605
0.133339
0.124883
0.116501
0.108795
0.102089
0.0963614
0.0914222
0.0869778
0.0828899
0.0790859
0.0755001
0.0721217
92.8698
58.6461
38.9939
27.0376
19.4062
14.3397
10.8601
8.40131
6.62016
5.30155
4.30649
3.54275
2.94822
2.47926
2.1197
1.89573
1.75353
1.60763
1.43957
1.27507
1.13452
1.02235
0.932464
0.856709
0.78982
0.728941
0.672467
0.619571
0.569986
0.523763
0.481044
0.441873
0.406297
0.374012
0.344366
0.317591
0.293605
0.271858
0.251781
0.233121
0.216058
0.20075
0.187066
0.174713
0.163133
0.152589
0.143201
0.134357
0.125552
0.117306
0.109618
0.102068
0.0948149
0.0883684
0.0829797
0.0783232
0.0741581
0.0703539
0.066821
0.0635151
92.8673
58.5656
38.8901
26.9304
19.3127
14.2644
10.7992
8.35218
6.58131
5.2711
4.28242
3.52355
2.93246
2.46866
2.1783
2.19692
2.28058
2.17744
1.89783
1.60542
1.37144
1.19117
1.04356
0.91653
0.805473
0.709158
0.626422
0.556697
0.499502
0.452523
0.412459
0.377229
0.345084
0.316547
0.294831
0.27548
0.255135
0.234055
0.214948
0.199164
0.185851
0.174176
0.164408
0.155121
0.145051
0.134564
0.126732
0.123844
0.122215
0.118492
0.111987
0.10291
0.092388
0.0824123
0.0743022
0.0682026
0.0634871
0.0596328
0.0561806
0.0526913
92.9297
58.8482
39.2421
27.2933
19.6613
14.5802
11.0746
8.58399
6.77978
5.44335
4.4335
3.6577
3.05547
2.61898
2.69374
3.61792
4.30424
4.34851
3.97291
3.42329
2.90125
2.43662
2.03684
1.7199
1.47705
1.28869
1.13844
1.01612
0.916542
0.833199
0.762232
0.701169
0.652155
0.612422
0.572768
0.527947
0.484767
0.4458
0.410806
0.378414
0.348712
0.32306
0.300323
0.279174
0.259241
0.241755
0.224774
0.203418
0.177755
0.158409
0.145637
0.130924
0.111281
0.0916581
0.0767473
0.0662832
0.0582734
0.0516411
0.0456264
0.040029
72.1323
55.7183
44.1322
35.7039
29.4217
24.6364
20.9196
17.9894
15.638
13.7254
12.1515
10.846
9.77035
8.8589
8.08615
8.45534
8.84817
8.46925
7.65776
6.73555
5.84816
5.10174
4.51797
4.06543
3.70586
3.40785
3.14728
2.90777
2.68593
2.48707
2.31683
2.16875
2.03008
1.88646
1.72689
1.54685
1.35138
1.15574
0.972359
0.814253
0.688542
0.589139
0.512306
0.456288
0.417917
0.395129
0.388907
0.398679
0.410202
0.398133
0.351807
0.281627
0.210283
0.155821
0.120575
0.100039
0.0885109
0.082022
0.0779655
0.0759915
)
;

boundaryField
{
    wall
    {
        type            epsilonWallFunction;
        value           nonuniform List<scalar> 
1200
(
72.126
92.938
92.8724
92.867
92.8648
92.8673
92.8713
92.8725
92.9324
72.1382
55.7071
58.8365
58.5486
58.6284
58.6327
58.6363
58.643
58.5682
58.8438
55.7355
44.1203
39.2445
38.8744
38.9782
38.9705
38.9709
38.9874
38.8889
39.2362
44.1368
35.6957
27.3206
26.919
27.0194
27.0059
27.0081
27.0342
26.9348
27.2985
35.7046
29.4186
19.7084
19.3047
19.3903
19.3761
19.3779
19.4047
19.3147
19.663
29.4205
24.6396
14.6393
14.2597
14.3279
14.3145
14.3144
14.3375
14.2624
14.5831
24.6333
20.93
11.149
10.8007
10.854
10.8413
10.8395
10.8599
10.7989
11.0876
20.9186
18.0004
8.66945
8.35619
8.39752
8.38653
8.38372
8.40178
8.3528
8.60465
17.9884
15.6511
6.8704
6.58379
6.61584
6.60719
6.60519
6.62027
6.5813
6.7978
15.6413
13.7499
5.53467
5.27151
5.29621
5.29043
5.2896
5.30125
5.27052
5.45789
13.736
12.198
4.52082
4.28269
4.30168
4.29761
4.29718
4.30612
4.28201
4.44793
12.1718
10.9187
3.73577
3.52502
3.53984
3.53613
3.53587
3.54246
3.52328
3.67747
10.8784
9.85212
3.11628
2.93559
2.94651
2.94344
2.94345
2.94787
2.93271
3.09381
9.79754
8.94115
2.62889
2.47166
2.47924
2.4765
2.4767
2.47899
2.46876
2.67346
8.8781
8.14857
2.24093
2.10221
2.10738
2.10514
2.10684
2.11616
2.16443
2.72594
8.12996
7.45991
1.92908
1.80557
1.81039
1.81029
1.82373
1.88658
2.18113
3.75647
8.62627
6.88955
1.67732
1.56717
1.57326
1.57875
1.6128
1.74715
2.27605
4.41309
8.9333
6.44039
1.4721
1.37424
1.38141
1.39304
1.44169
1.60798
2.19013
4.386
8.4594
6.09212
1.31249
1.21551
1.22272
1.23759
1.2889
1.44401
1.92109
3.97099
7.60058
5.78397
1.25389
1.09037
1.09124
1.1045
1.15139
1.27968
1.62539
3.42063
6.66044
5.62239
1.55572
1.04309
0.994227
0.99461
1.03281
1.13683
1.38381
2.91204
5.77548
5.80021
2.24499
1.1351
0.945922
0.909975
0.935642
1.02199
1.19793
2.46922
5.04092
5.73355
2.70291
1.25545
0.926197
0.844721
0.855792
0.93087
1.04761
2.07637
4.4686
5.29291
2.68859
1.30875
0.901787
0.787809
0.787865
0.854828
0.920249
1.75333
4.0238
4.64715
2.35891
1.27489
0.860171
0.733019
0.727916
0.788201
0.809426
1.50382
3.6687
3.9926
1.9406
1.17924
0.806298
0.67967
0.674129
0.727822
0.713699
1.30976
3.3732
3.43853
1.55866
1.06364
0.747297
0.628374
0.625801
0.671639
0.631548
1.15542
3.11427
3.00558
1.25304
0.952228
0.685193
0.580595
0.581791
0.618885
0.562365
1.03405
2.87643
2.66237
1.02451
0.852145
0.626014
0.536918
0.541069
0.569429
0.505505
0.940125
2.65736
2.38717
0.859279
0.764587
0.571391
0.497188
0.503129
0.523446
0.458366
0.86552
2.46232
2.17372
0.735011
0.687222
0.522514
0.461035
0.467666
0.481145
0.417438
0.802461
2.29608
2.01081
0.63835
0.61788
0.479425
0.428004
0.434567
0.442506
0.380811
0.743243
2.15058
1.88656
0.561131
0.55631
0.441337
0.397742
0.403731
0.407352
0.347386
0.687374
2.01288
1.79101
0.49809
0.503027
0.407242
0.369937
0.375086
0.375287
0.31853
0.634359
1.86918
1.71673
0.44574
0.457689
0.37645
0.344398
0.348519
0.345585
0.29733
0.580961
1.70819
1.6598
0.40158
0.418988
0.348716
0.320932
0.323877
0.318382
0.280039
0.526908
1.52607
1.61794
0.363997
0.385439
0.323917
0.299224
0.301097
0.294069
0.261541
0.480309
1.32922
1.58929
0.331816
0.355877
0.301768
0.279037
0.280007
0.272362
0.240619
0.44104
1.13323
1.5709
0.304193
0.329514
0.281841
0.26021
0.26041
0.25267
0.219884
0.406303
0.950747
1.55972
0.280583
0.305782
0.263643
0.242692
0.24217
0.234481
0.201932
0.374096
0.794895
1.55267
0.260819
0.284209
0.246839
0.226504
0.225264
0.21758
0.187582
0.345076
0.672116
1.54637
0.245277
0.264244
0.231413
0.21173
0.209818
0.202295
0.175871
0.320603
0.575817
1.53428
0.23492
0.245651
0.217332
0.198193
0.19579
0.188617
0.166066
0.298971
0.502045
1.50992
0.229275
0.228545
0.204323
0.185715
0.183018
0.17625
0.156031
0.278085
0.448713
1.46715
0.226078
0.212859
0.192335
0.174274
0.171338
0.164666
0.144569
0.258378
0.412471
1.39967
0.223106
0.198353
0.181192
0.163823
0.160697
0.153981
0.133137
0.241443
0.391391
1.30515
0.21859
0.184714
0.169724
0.154442
0.151194
0.14387
0.126295
0.224116
0.386774
1.19034
0.211481
0.171857
0.158023
0.145897
0.142198
0.134096
0.124487
0.201467
0.397783
1.07095
0.201664
0.160018
0.146847
0.137362
0.133118
0.124808
0.122702
0.175098
0.40887
0.961977
0.189717
0.14952
0.136964
0.128801
0.12401
0.116578
0.11827
0.156415
0.394538
0.872247
0.176196
0.14052
0.128855
0.120613
0.115454
0.108931
0.111201
0.143942
0.346001
0.805208
0.161499
0.132927
0.122352
0.113325
0.107907
0.101364
0.101842
0.129107
0.274958
0.759906
0.147126
0.126403
0.116861
0.107175
0.101414
0.0941379
0.091306
0.109494
0.204392
0.734126
0.134206
0.12028
0.1117
0.102152
0.0958336
0.087783
0.0815066
0.0902922
0.151447
0.721841
0.123533
0.114155
0.106604
0.0977481
0.0909814
0.0824896
0.0736465
0.0758852
0.117617
0.712436
0.116527
0.10794
0.101672
0.0936425
0.0865854
0.0779105
0.0677563
0.0657093
0.0981067
0.695359
0.113589
0.101695
0.0969449
0.0897155
0.0825369
0.0738079
0.06319
0.0578392
0.0871935
0.665182
0.113007
0.095475
0.0924096
0.0859387
0.0787691
0.0700574
0.0594276
0.0512669
0.0810364
0.62198
0.112612
0.0892736
0.0880357
0.0823064
0.0752209
0.0665766
0.0560126
0.045264
0.0771514
0.570472
0.108911
0.0832602
0.0838756
0.0788201
0.0718688
0.0633091
0.0525073
0.0396626
0.0752574
72.1402
92.9294
92.8643
92.8663
92.8704
92.8721
92.8698
92.8673
92.9297
72.1323
55.7486
58.844
58.5815
58.6501
58.6438
58.6403
58.6461
58.5656
58.8482
55.7183
44.1479
39.2231
38.9002
38.9931
38.9771
38.9737
38.9939
38.8901
39.2421
44.1322
35.7123
27.2735
26.9342
27.0312
27.0153
27.0129
27.0376
26.9304
27.2933
35.7039
29.4246
19.6495
19.3124
19.4002
19.3841
19.38
19.4062
19.3127
19.6613
29.4217
24.6375
14.5912
14.2619
14.3352
14.32
14.315
14.3397
14.2644
14.5802
24.6364
20.9234
11.1132
10.7977
10.8551
10.8418
10.8383
10.8601
10.7992
11.0746
20.9196
17.996
8.65313
8.35249
8.39603
8.38518
8.38298
8.40131
8.35218
8.58399
17.9894
15.6563
6.86215
6.58244
6.61613
6.60778
6.60562
6.62016
6.58131
6.77978
15.638
13.7564
5.52344
5.27188
5.29924
5.29244
5.29026
5.30155
5.2711
5.44335
13.7254
12.2006
4.50564
4.28312
4.30478
4.29918
4.29784
4.30649
4.28242
4.4335
12.1515
10.9138
3.72258
3.52474
3.54118
3.53677
3.53634
3.54275
3.52355
3.6577
10.846
9.83827
3.10963
2.9349
2.94735
2.94389
2.94401
2.94822
2.93246
3.05547
9.77035
8.92425
2.62506
2.47063
2.4797
2.47691
2.47723
2.47926
2.46866
2.61898
8.8589
8.13086
2.23806
2.10077
2.10797
2.10591
2.10802
2.1197
2.1783
2.69374
8.08615
7.437
1.92619
1.80421
1.81151
1.81182
1.82697
1.89573
2.19692
3.61792
8.45534
6.85643
1.67421
1.56747
1.57478
1.58068
1.61612
1.75353
2.28058
4.30424
8.84817
6.38594
1.46883
1.37536
1.38282
1.3947
1.44335
1.60763
2.17744
4.34851
8.46925
6.03922
1.30219
1.21706
1.2239
1.23865
1.28898
1.43957
1.89783
3.97291
7.65776
5.74162
1.2275
1.09528
1.09366
1.10565
1.15113
1.27507
1.60542
3.42329
6.73555
5.54302
1.4904
1.05891
1.00177
0.997294
1.03367
1.13452
1.37144
2.90125
5.84816
5.69756
2.10711
1.14969
0.958702
0.914542
0.937638
1.02235
1.19117
2.43662
5.10174
5.7063
2.59963
1.26033
0.939322
0.849845
0.858354
0.932464
1.04356
2.03684
4.51797
5.33364
2.67479
1.30114
0.911757
0.792255
0.790469
0.856709
0.91653
1.7199
4.06543
4.7173
2.39535
1.26975
0.867622
0.736567
0.730274
0.78982
0.805473
1.47705
3.70586
4.06471
1.98807
1.18124
0.812985
0.682415
0.676119
0.728941
0.709158
1.28869
3.40785
3.50135
1.60109
1.07013
0.752851
0.630314
0.627239
0.672467
0.626422
1.13844
3.14728
3.0575
1.28589
0.960494
0.687919
0.581392
0.582712
0.619571
0.556697
1.01612
2.90777
2.70526
1.04649
0.859771
0.625636
0.537078
0.54158
0.569986
0.499502
0.916542
2.68593
2.41986
0.873944
0.771158
0.569219
0.496974
0.503306
0.523763
0.452523
0.833199
2.48707
2.1978
0.745018
0.693366
0.519534
0.460552
0.467583
0.481044
0.412459
0.762232
2.31683
2.02851
0.645403
0.62412
0.476159
0.427304
0.43425
0.441873
0.377229
0.701169
2.16875
1.89968
0.566273
0.562315
0.437931
0.396882
0.403222
0.406297
0.345084
0.652155
2.03008
1.80072
0.501962
0.508027
0.403817
0.369016
0.374447
0.374012
0.316547
0.612422
1.88646
1.72379
0.448758
0.461326
0.373302
0.343443
0.347777
0.344366
0.294831
0.572768
1.72689
1.66467
0.404008
0.421459
0.346107
0.319915
0.323093
0.317591
0.27548
0.527947
1.54685
1.62093
0.366007
0.387207
0.321913
0.298129
0.300273
0.293605
0.255135
0.484767
1.35138
1.59071
0.333501
0.357398
0.300217
0.277843
0.279083
0.271858
0.234055
0.4458
1.15574
1.57132
0.305573
0.331069
0.280481
0.258962
0.25933
0.251781
0.214948
0.410806
0.972359
1.55996
0.281623
0.307491
0.262223
0.241457
0.240962
0.233121
0.199164
0.378414
0.814253
1.55381
0.261431
0.286089
0.245194
0.225325
0.224043
0.216058
0.185851
0.348712
0.688542
1.54914
0.245396
0.266162
0.229547
0.210591
0.208623
0.20075
0.174176
0.32306
0.589139
1.53815
0.234872
0.24744
0.215316
0.19707
0.194619
0.187066
0.164408
0.300323
0.512306
1.51576
0.228614
0.23008
0.202224
0.184635
0.181862
0.174713
0.155121
0.279174
0.456288
1.47599
0.224653
0.214088
0.190237
0.173242
0.170213
0.163133
0.145051
0.259241
0.417917
1.41193
0.221157
0.19932
0.179509
0.162838
0.159609
0.152589
0.134564
0.241755
0.395129
1.3199
0.216838
0.185549
0.169369
0.153478
0.150129
0.143201
0.126732
0.224774
0.388907
1.20647
0.210179
0.172636
0.158981
0.145172
0.141605
0.134357
0.123844
0.203418
0.398679
1.08702
0.20089
0.160711
0.148386
0.137344
0.133339
0.125552
0.122215
0.177755
0.410202
0.977058
0.189481
0.150071
0.138367
0.129504
0.124883
0.117306
0.118492
0.158409
0.398133
0.885913
0.176485
0.140917
0.129717
0.12167
0.116501
0.109618
0.111987
0.145637
0.351807
0.817204
0.162253
0.1332
0.1227
0.114336
0.108795
0.102068
0.10291
0.130924
0.281627
0.770175
0.148083
0.126602
0.11697
0.107947
0.102089
0.0948149
0.092388
0.111281
0.210283
0.742405
0.135277
0.12051
0.111878
0.102669
0.0963614
0.0883684
0.0824123
0.0916581
0.155821
0.72838
0.12469
0.114462
0.106906
0.0981355
0.0914222
0.0829797
0.0743022
0.0767473
0.120575
0.718412
0.117455
0.108337
0.102039
0.0939889
0.0869778
0.0783232
0.0682026
0.0662832
0.100039
0.702047
0.114098
0.102178
0.0973241
0.0900535
0.0828899
0.0741581
0.0634871
0.0582734
0.0885109
0.673363
0.113141
0.0960341
0.0927847
0.0862735
0.0790859
0.0703539
0.0596328
0.0516411
0.082022
0.631712
0.112654
0.0898942
0.0884033
0.0826282
0.0755001
0.066821
0.0561806
0.0456264
0.0779655
0.581337
0.109199
0.0839105
0.0842387
0.0791378
0.0721217
0.0635151
0.0526913
0.040029
0.0759915
)
;
    }
    inlet
    {
        type            turbulentMixingLengthDissipationRateInlet;
        mixingLength    0.071;
        phi             phi;
        k               k;
        value           uniform 2.17686;
    }
    outlet
    {
        type            inletOutlet;
        inletValue      uniform 0.0001;
        value           nonuniform List<scalar> 
20
(
0.570472
0.108911
0.0832602
0.0838756
0.0788201
0.0718688
0.0633091
0.0525073
0.0396626
0.0752574
0.581337
0.109199
0.0839105
0.0842387
0.0791378
0.0721217
0.0635151
0.0526913
0.040029
0.0759915
)
;
    }
    heatWall
    {
        type            epsilonWallFunction;
        value           nonuniform List<scalar> 
240
(
72.1382
72.1323
55.7355
55.7183
44.1368
44.1322
35.7046
35.7039
29.4205
29.4217
24.6333
24.6364
20.9186
20.9196
17.9884
17.9894
15.6413
15.638
13.736
13.7254
12.1718
12.1515
10.8784
10.846
9.79754
9.77035
8.8781
8.8589
8.12996
8.08615
8.62627
8.45534
8.9333
8.84817
8.4594
8.46925
7.60058
7.65776
6.66044
6.73555
5.77548
5.84816
5.04092
5.10174
4.4686
4.51797
4.0238
4.06543
3.6687
3.70586
3.3732
3.40785
3.11427
3.14728
2.87643
2.90777
2.65736
2.68593
2.46232
2.48707
2.29608
2.31683
2.15058
2.16875
2.01288
2.03008
1.86918
1.88646
1.70819
1.72689
1.52607
1.54685
1.32922
1.35138
1.13323
1.15574
0.950747
0.972359
0.794895
0.814253
0.672116
0.688542
0.575817
0.589139
0.502045
0.512306
0.448713
0.456288
0.412471
0.417917
0.391391
0.395129
0.386774
0.388907
0.397783
0.398679
0.40887
0.410202
0.394538
0.398133
0.346001
0.351807
0.274958
0.281627
0.204392
0.210283
0.151447
0.155821
0.117617
0.120575
0.0981067
0.100039
0.0871935
0.0885109
0.0810364
0.082022
0.0771514
0.0779655
0.0752574
0.0759915
72.126
72.1402
55.7071
55.7486
44.1203
44.1479
35.6957
35.7123
29.4186
29.4246
24.6396
24.6375
20.93
20.9234
18.0004
17.996
15.6511
15.6563
13.7499
13.7564
12.198
12.2006
10.9187
10.9138
9.85212
9.83827
8.94115
8.92425
8.14857
8.13086
7.45991
7.437
6.88955
6.85643
6.44039
6.38594
6.09212
6.03922
5.78397
5.74162
5.62239
5.54302
5.80021
5.69756
5.73355
5.7063
5.29291
5.33364
4.64715
4.7173
3.9926
4.06471
3.43853
3.50135
3.00558
3.0575
2.66237
2.70526
2.38717
2.41986
2.17372
2.1978
2.01081
2.02851
1.88656
1.89968
1.79101
1.80072
1.71673
1.72379
1.6598
1.66467
1.61794
1.62093
1.58929
1.59071
1.5709
1.57132
1.55972
1.55996
1.55267
1.55381
1.54637
1.54914
1.53428
1.53815
1.50992
1.51576
1.46715
1.47599
1.39967
1.41193
1.30515
1.3199
1.19034
1.20647
1.07095
1.08702
0.961977
0.977058
0.872247
0.885913
0.805208
0.817204
0.759906
0.770175
0.734126
0.742405
0.721841
0.72838
0.712436
0.718412
0.695359
0.702047
0.665182
0.673363
0.62198
0.631712
0.570472
0.581337
)
;
    }
}


// ************************************************************************* //
