/*--------------------------------*- C++ -*----------------------------------*\
  =========                 |
  \\      /  F ield         | OpenFOAM: The Open Source CFD Toolbox
   \\    /   O peration     | Website:  https://openfoam.org
    \\  /    A nd           | Version:  8
     \\/     M anipulation  |
\*---------------------------------------------------------------------------*/
FoamFile
{
    version     2.0;
    format      ascii;
    class       surfaceScalarField;
    location    "500";
    object      phi;
}
// * * * * * * * * * * * * * * * * * * * * * * * * * * * * * * * * * * * * * //

dimensions      [1 0 -1 0 0 0 0];

internalField   nonuniform List<scalar> 
2860
(
1.60177
-0.0093949
-0.226758
1.60434
0.00493187
0.207421
1.60497
0.0048686
0.462631
1.60493
0.00633401
0.724624
1.60515
0.00679257
0.924086
1.60496
0.00568719
0.751434
1.60359
0.00497813
0.294899
1.60023
0.0042445
-0.084662
1.60001
0.00430063
0.153091
1.60249
0.00408397
0.718953
1.60689
0.00339738
1.13886
1.61353
0.00231684
1.31644
1.62423
0.000162782
1.39867
1.64106
-0.00352913
1.41163
1.66668
-0.00975078
1.29183
1.70224
-0.0175754
0.984221
1.74042
-0.0190344
0.51518
1.77055
-0.0115939
-0.00459911
1.78183
0.00249623
-0.256873
1.77254
0.0295283
-0.0768089
1.84026
0.146127
0.925223
1.96443
0.299217
4.81011
1.97935
0.259929
8.49859
1.90129
0.18145
10.7705
1.79334
0.123977
12.0213
1.69468
0.0805961
12.072
1.61872
0.0458039
11.2501
1.56564
0.0183369
9.99733
1.53317
-0.00135949
9.12984
1.51661
-0.0139202
8.79879
1.51049
-0.020527
8.78367
1.51102
-0.023769
8.86042
1.51604
-0.0256458
8.88579
1.52453
-0.0271806
8.81882
1.53541
-0.0286805
8.60846
1.54806
-0.0292539
8.39048
1.561
-0.0288361
8.02992
1.57234
-0.0266949
7.54487
1.57991
-0.0227964
7.01303
1.5819
-0.0168205
6.58274
1.57719
-0.00897291
6.37614
1.5671
-0.00102288
6.51107
1.5537
0.00363118
6.76345
1.53936
0.00487179
6.98765
1.52709
0.0027144
7.19579
1.52142
-0.00388366
7.4974
1.52741
-0.0144807
8.05173
1.54771
-0.0267255
8.74645
1.58021
-0.0371206
9.39129
1.61687
-0.0392955
10.061
1.64707
-0.0315116
10.7113
1.66388
-0.0180864
11.2312
1.66669
-0.00432841
11.5399
1.65953
0.00602293
11.5833
1.64808
0.0128912
11.5141
1.6359
0.017209
11.3336
1.62274
0.0199291
11.0974
1.60785
0.0198051
10.6934
1.58571
0.0201759
10.4359
0.015907
9.85811
1.59122
-0.0136739
-0.076589
1.59197
0.0013606
0.16718
1.59066
0.00249526
0.304126
1.59082
0.00481639
0.463609
1.59228
0.00657488
0.602613
1.59427
0.00505501
0.478941
1.59568
0.00299851
0.0866272
1.59479
0.00236752
-0.236283
1.59706
0.00309965
0.00638752
1.60135
0.00446447
0.559187
1.60755
0.00427507
0.988774
1.61602
0.00300203
1.19345
1.62863
-0.00036226
1.3164
1.64737
-0.00690201
1.36304
1.67484
-0.0183704
1.25069
1.71294
-0.033501
0.92141
1.75429
-0.0356541
0.431731
1.78797
-0.0245984
-0.139703
1.80526
-0.00521414
-0.492034
1.79923
0.0402996
-0.455981
1.80331
0.162795
-0.233191
1.91141
0.347306
0.876837
2.03415
0.378914
3.23631
2.12022
0.308275
6.38353
2.15634
0.216901
9.16703
2.15685
0.133119
10.5426
2.13796
0.0653599
10.6904
2.10941
0.0133875
10.127
2.0785
-0.0217145
9.5857
2.05022
-0.0383408
9.2869
2.02656
-0.0445471
9.15534
2.00772
-0.046736
9.09745
1.99341
-0.0483743
9.03426
1.98334
-0.0500969
8.93718
1.97665
-0.0516464
8.77533
1.97282
-0.0514813
8.6312
1.97082
-0.0499813
8.39394
1.9692
-0.0459083
8.07732
1.96628
-0.0390098
7.76387
1.96093
-0.0290449
7.55952
1.95284
-0.0170641
7.54716
1.94372
-0.00683736
7.81323
1.93626
-0.00413755
8.17421
1.93347
-0.00897311
8.49051
1.93825
-0.019862
8.7617
1.95366
-0.037306
9.0631
1.98209
-0.059358
9.51122
2.02318
-0.0808942
10.0158
2.07304
-0.0958614
10.4684
2.12147
-0.0931814
10.9784
2.1532
-0.0688663
11.5295
2.15635
-0.0317502
12.0125
2.12917
0.00403316
12.297
2.07979
0.0327721
12.326
2.02104
0.0489739
12.2249
1.96452
0.0527323
11.991
1.91767
0.0476511
11.6946
1.88418
0.0351152
11.281
1.86163
0.0232422
11.0421
0.0124294
10.599
1.58227
-0.00411764
-0.11587
1.58338
0.00464518
0.123411
1.58404
0.00617804
0.335228
1.58612
0.00721664
0.515734
1.58956
0.00778125
0.643794
1.59342
0.00571394
0.582738
1.59546
0.00425271
0.21322
1.59534
0.00419204
-0.161765
1.59735
0.00532844
0.0053183
1.60221
0.00540377
0.474524
1.60867
0.00413083
0.783568
1.61665
0.00169941
0.825438
1.62759
-0.00357691
0.764715
1.64264
-0.0129885
0.613928
1.66461
-0.0300182
0.306615
1.7048
-0.0642754
-0.216798
1.75187
-0.0793006
-0.89693
1.79378
-0.0686929
-1.60271
1.81746
-0.0361992
-2.05087
1.81898
0.0256912
-2.07208
1.81462
0.137273
-1.9311
1.86154
0.27461
-1.56168
1.9395
0.316716
-0.750498
2.03188
0.279892
0.623994
2.09901
0.201819
2.13119
2.13298
0.125045
2.91447
2.14741
0.0591693
2.95684
2.15347
-0.000521938
2.58423
2.16119
-0.0423864
2.41353
2.16806
-0.0634978
2.49795
2.16761
-0.0677562
2.68097
2.15972
-0.0653892
2.86663
2.15206
-0.0645299
2.99226
2.15315
-0.0672846
3.05532
2.16537
-0.0722739
3.06351
2.18619
-0.0764811
3.07231
2.2105
-0.0799017
2.97618
2.23298
-0.0782926
2.78335
2.24837
-0.0683038
2.59067
2.25205
-0.0485762
2.48081
2.23965
-0.0199173
2.52606
2.21323
0.0109569
2.79304
2.18204
0.0246992
3.13705
2.15681
0.0156997
3.4494
2.14294
-0.00827641
3.73407
2.14064
-0.03998
4.054
2.1489
-0.0735897
4.50088
2.17001
-0.107219
4.96223
2.21103
-0.139328
5.34119
2.27319
-0.150405
5.78598
2.34483
-0.12469
6.35187
2.40525
-0.0668792
7.01073
2.43796
-0.00221425
7.63082
2.43855
0.049738
8.03707
2.41288
0.0799635
8.25361
2.36901
0.0893602
8.23806
2.3155
0.0834508
8.06087
2.25937
0.0660467
7.70543
2.20342
0.0503344
7.48802
0.024951
6.9998
1.58865
-0.00202604
-0.0839767
1.59065
0.00274512
0.0263897
1.59187
0.00464941
0.0869625
1.59299
0.00577892
0.0911655
1.59483
0.00677002
0.0799167
1.5977
0.00518646
0.0345685
1.59893
0.00348579
-0.267345
1.59896
0.0033596
-0.61245
1.60065
0.00456056
-0.513779
1.60493
0.00519886
-0.142488
1.61016
0.00395488
0.0837347
1.616
0.000519884
0.0571194
1.62471
-0.00640184
-0.0460157
1.6381
-0.0194903
-0.226228
1.66213
-0.0461907
-0.563578
1.70913
-0.104499
-1.10396
1.76214
-0.131018
-1.82383
1.80568
-0.118462
-2.66278
1.82914
-0.0730638
-3.28563
1.83278
0.00293494
-3.45032
1.83775
0.104643
-3.43387
1.8798
0.204379
-3.2957
1.94114
0.235185
-2.91758
2.00611
0.206985
-2.12693
2.06045
0.146089
-1.19013
2.10008
0.0795258
-0.757474
2.12818
0.0201834
-0.912717
2.14932
-0.0320223
-1.41705
2.1715
-0.0664836
-1.67403
2.19499
-0.0855386
-1.69437
2.22001
-0.0924962
-1.60103
2.24452
-0.0905972
-1.44446
2.26463
-0.0836041
-1.29499
2.27999
-0.0771697
-1.19549
2.2958
-0.0793187
-1.1499
2.3183
-0.0921039
-1.127
2.34607
-0.106492
-1.2088
2.37146
-0.107464
-1.38412
2.38743
-0.089624
-1.54927
2.39376
-0.0585736
-1.64914
2.39649
-0.0237278
-1.61641
2.40059
0.00448193
-1.34432
2.40593
0.0133948
-0.959429
2.41169
-0.00228018
-0.614217
2.41263
-0.0331021
-0.279724
2.38341
-0.052624
0.137986
2.31809
-0.0502509
0.71949
2.25136
-0.0637676
1.3123
2.22178
-0.116568
1.80029
2.24288
-0.167772
2.31347
2.3036
-0.175915
2.87459
2.37636
-0.128347
3.42671
2.43557
-0.0460541
3.91597
2.46859
0.030638
4.30376
2.47988
0.0780134
4.61671
2.477
0.0956904
4.78941
2.46631
0.0916729
4.86431
2.44959
0.0740803
4.78967
2.43123
0.0574148
4.84327
0.0307199
4.56316
1.58896
0.00033816
-0.0820092
1.58926
0.00262542
-0.0667228
1.59004
0.004113
-0.0603864
1.59087
0.0051735
-0.0902578
1.5925
0.00609612
-0.10852
1.59568
0.00514441
-0.0688502
1.59757
0.0033667
-0.307126
1.59844
0.00276626
-0.682717
1.60048
0.00370227
-0.69918
1.6045
0.00474349
-0.428551
1.60955
0.00399391
-0.243627
1.61495
0.000993358
-0.290343
1.62297
-0.00583028
-0.433829
1.63557
-0.0206279
-0.701447
1.66083
-0.0544605
-1.21817
1.71705
-0.145249
-2.05305
1.78042
-0.189638
-3.0926
1.83115
-0.179296
-4.16107
1.85826
-0.1256
-4.81824
1.8655
-0.0378216
-4.88879
1.87774
0.0622604
-4.81018
1.92084
0.137702
-4.69915
1.98251
0.159118
-4.45667
2.04766
0.138018
-3.88019
2.10484
0.0925559
-3.12096
2.14965
0.0413559
-2.72546
2.18039
-0.0051893
-2.79607
2.19863
-0.0478147
-3.07538
2.21212
-0.0806137
-3.12253
2.22497
-0.102336
-3.02397
2.237
-0.109949
-2.89038
2.24535
-0.104293
-2.71898
2.24772
-0.0886309
-2.55388
2.24596
-0.0732211
-2.44473
2.24561
-0.0736291
-2.38848
2.25123
-0.094204
-2.35921
2.26026
-0.115805
-2.42496
2.26511
-0.113092
-2.59363
2.26058
-0.0829409
-2.76291
2.24784
-0.040344
-2.88565
2.23202
-0.00212528
-2.88587
2.21536
0.0241808
-2.63044
2.19688
0.0325381
-2.24703
2.17885
0.0138621
-1.88386
2.17028
-0.0293003
-1.51612
2.18503
-0.0769166
-1.07787
2.22542
-0.109907
-0.482207
2.26285
-0.131356
0.161676
2.28023
-0.160909
0.764621
2.29576
-0.192921
1.42118
2.32006
-0.195164
2.12131
2.35306
-0.15556
2.75312
2.38892
-0.0845392
3.16756
2.41849
-0.008032
3.32469
2.43847
0.0476209
3.41415
2.44913
0.0741896
3.42418
2.45378
0.0767756
3.42277
2.45121
0.065292
3.34248
2.4496
0.0512939
3.44603
0.0309197
3.19806
1.58926
0.00252283
-0.0863028
1.58928
0.00244441
-0.149317
1.59
0.00303788
-0.212728
1.59076
0.00409446
-0.324886
1.59207
0.00485434
-0.438358
1.59492
0.00445985
-0.427055
1.59685
0.00313261
-0.672159
1.59826
0.00241873
-1.1004
1.60079
0.00309134
-1.25983
1.60485
0.00379838
-1.15781
1.60975
0.00260877
-1.0889
1.61527
-0.000938856
-1.22381
1.62317
-0.00842286
-1.49757
1.63629
-0.0246827
-1.95066
1.6646
-0.0671193
-2.72705
1.73284
-0.197753
-3.86759
1.80887
-0.256543
-5.26543
1.8699
-0.242545
-6.73769
1.90782
-0.182967
-7.65204
1.92866
-0.0929968
-7.69764
1.95519
0.00533933
-7.34593
2.00562
0.0702851
-6.96517
2.06943
0.0915327
-6.56303
2.13274
0.0809315
-5.97681
2.18551
0.0512111
-5.25409
2.22271
0.0152884
-4.7767
2.24201
-0.0243878
-4.65863
2.24801
-0.063451
-4.65971
2.24825
-0.0967761
-4.43915
2.24637
-0.119157
-4.15507
2.24229
-0.124008
-3.93363
2.23463
-0.110993
-3.72488
2.22251
-0.0863704
-3.53212
2.20797
-0.0642494
-3.3895
2.19622
-0.064594
-3.28413
2.19298
-0.0933797
-3.1975
2.19719
-0.121667
-3.1844
2.20061
-0.115488
-3.26657
2.19653
-0.0758107
-3.34337
2.18445
-0.0259387
-3.37551
2.16892
0.0142265
-3.2966
2.1519
0.037829
-2.94426
2.13292
0.0432862
-2.45015
2.11688
0.0182881
-1.97885
2.1164
-0.0411463
-1.48936
2.14256
-0.116674
-0.920367
2.17212
-0.164771
-0.242626
2.17382
-0.166518
0.452834
2.16389
-0.171211
1.13657
2.17348
-0.193787
1.96897
2.20923
-0.200236
2.92188
2.25432
-0.170721
3.83768
2.29192
-0.107519
4.51113
2.31512
-0.0324092
4.8385
2.32571
0.0274673
4.9729
2.32633
0.0607901
4.95836
2.32096
0.0693651
4.93005
2.30956
0.0632415
4.81965
2.29813
0.0537879
4.92557
0.0336741
4.63752
1.58983
0.0038963
-0.0882549
1.59105
0.00013698
-0.193775
1.59267
-0.000155057
-0.244953
1.59384
0.000844912
-0.335896
1.5948
0.00157501
-0.429793
1.59757
0.00105199
-0.364551
1.59935
0.000520473
-0.533307
1.60036
0.000477328
-0.899757
1.60222
0.00104141
-1.09342
1.60551
0.00138936
-1.09701
1.60972
0.000375666
-1.12569
1.61456
-0.00220833
-1.34635
1.62076
-0.00707167
-1.78497
1.63092
-0.0205022
-2.53139
1.65606
-0.0764618
-3.64801
1.73562
-0.265928
-4.92287
1.82736
-0.33191
-6.41086
1.90448
-0.30098
-8.21268
1.9585
-0.235873
-9.66016
1.99538
-0.152989
-10.1668
2.03425
-0.0610636
-10.1497
2.08895
0.00744344
-9.99347
2.14887
0.034806
-9.76688
2.1995
0.0381232
-9.31994
2.23251
0.0229225
-8.64027
2.24436
-0.00627166
-7.98394
2.23701
-0.0424578
-7.47754
2.21816
-0.0806562
-6.96311
2.19659
-0.115833
-6.23102
2.17725
-0.139461
-5.51729
2.16085
-0.141953
-4.9816
2.1454
-0.123059
-4.53493
2.12821
-0.0893466
-4.14219
2.10858
-0.0587911
-3.83258
2.09118
-0.0584279
-3.58123
2.08757
-0.0958879
-3.36478
2.10051
-0.132825
-3.21289
2.11773
-0.126443
-3.15036
2.12666
-0.0804979
-3.0874
2.124
-0.0251191
-2.99766
2.11647
0.0150527
-2.82554
2.10969
0.0306699
-2.35746
2.1034
0.0272899
-1.75165
2.10377
-0.0108373
-1.17794
2.1125
-0.0841888
-0.561792
2.09522
-0.1419
0.132907
2.02743
-0.132508
0.904105
1.95981
-0.10789
1.72462
1.95407
-0.13492
2.68101
2.01104
-0.202232
3.90121
2.08306
-0.238658
5.14095
2.1368
-0.215536
6.14754
2.16593
-0.1487
6.73392
2.17467
-0.0676199
6.84419
2.16821
0.00385998
6.73364
2.14935
0.0508906
6.54727
2.12355
0.0718439
6.46485
2.09225
0.0767923
6.38104
2.06239
0.0772265
6.61721
0.0521436
6.41502
1.58399
0.0129613
-0.0953174
1.58407
0.00178107
-0.33931
1.58506
0.00128691
-0.505372
1.58653
0.00105814
-0.741833
1.58843
0.0009327
-0.991357
1.59164
0.000659616
-0.98645
1.59408
0.000279457
-1.19982
1.59634
-4.7022e-05
-1.60198
1.59931
9.56354e-05
-1.83884
1.60311
0.00045395
-1.87254
1.60733
6.9198e-05
-1.86083
1.61216
-0.00145443
-1.94102
1.61776
-0.00475854
-2.19064
1.62392
-0.0164284
-2.67101
1.63108
-0.0953819
-3.33929
1.71295
-0.360721
-3.93068
1.80819
-0.403626
-5.01493
1.89934
-0.305576
-7.60755
1.98402
-0.198639
-11.2496
2.04991
-0.129082
-14.0992
2.09354
-0.0711924
-15.5533
2.11517
-0.0266903
-15.923
2.11535
-0.000792854
-15.5452
2.09382
0.0134135
-14.6069
2.05647
0.00608293
-13.2408
2.00976
-0.0111147
-11.7075
1.96003
-0.0327448
-10.2796
1.91646
-0.0597218
-8.87054
1.88587
-0.0881092
-7.34775
1.86775
-0.106295
-6.02555
1.85705
-0.106347
-5.11863
1.84782
-0.0886971
-4.4489
1.8369
-0.0658073
-3.89731
1.83119
-0.0596887
-3.44031
1.8386
-0.0848332
-3.01427
1.86476
-0.127378
-2.64122
1.90686
-0.151245
-2.37014
1.95031
-0.12904
-2.23846
1.98339
-0.0792878
-2.1339
2.00528
-0.0318479
-2.00149
2.0281
-0.0124618
-1.77325
2.06235
-0.0262142
-1.20544
2.0878
-0.0404953
-0.520581
2.03886
-0.0291087
0.103221
1.91277
-0.00425393
0.76132
1.77998
-0.000142994
1.51437
1.72589
-0.0270742
2.39009
1.76527
-0.085586
3.38136
1.84501
-0.154573
4.55744
1.90789
-0.206502
6.05375
1.93256
-0.215976
7.64316
1.92518
-0.180844
9.0491
1.89648
-0.114292
10.0129
1.8535
-0.0370919
10.3672
1.80835
0.0251058
10.3735
1.77096
0.0612825
10.1218
1.74491
0.076123
9.9987
1.72934
0.0786235
9.92577
1.72794
0.0783023
10.2941
0.0562156
10.2541
1.59376
0.00716624
-0.0436756
1.59235
-0.00273348
-0.193094
1.59222
-0.00340892
-0.218145
1.59196
-0.00389694
-0.331586
1.59158
-0.00342648
-0.475441
1.5939
-0.00335232
-0.377075
1.59539
-0.00275392
-0.491679
1.59642
-0.00212393
-0.761782
1.59814
-0.0015474
-0.873013
1.60101
-0.00107265
-0.784353
1.60505
-0.000968642
-0.612589
1.6102
-0.00163634
-0.466358
1.61519
-0.00465563
-0.428882
1.61689
-0.0138363
-0.53762
1.59333
-0.080382
-0.779414
1.72979
-0.347712
0.211196
1.82869
-0.327886
1.57776
1.87401
-0.218655
1.72426
1.88799
-0.114016
1.14634
1.89535
-0.036151
0.410757
1.89183
0.0146592
-0.386189
1.91398
0.0439862
-1.27322
1.98953
0.0566761
-2.31209
2.07102
0.0513736
-3.04989
2.13214
0.0397084
-3.17509
2.16749
0.0244801
-2.87152
2.18136
0.0101023
-2.45678
2.18861
-0.000688885
-1.88497
2.20942
-0.00825929
-1.10392
2.26032
-0.0129858
-0.433798
2.34847
-0.0161899
-0.0559879
2.45147
-0.0194074
0.164215
2.52847
-0.0189335
0.317717
2.53804
-0.016693
0.427881
2.45405
-0.0133883
0.537031
2.32971
-0.00990813
0.698806
2.24593
-0.00684873
0.960628
2.21683
-0.000449782
1.19793
2.21448
0.0104753
1.38075
2.21431
0.019387
1.48756
2.1971
0.0217726
1.57929
2.15451
0.0175542
1.97443
2.09703
0.017048
2.4895
2.05023
0.021798
2.96444
2.03153
0.0287801
3.53853
2.02646
0.0327345
4.34865
2.00914
0.032818
5.44413
1.96266
0.0261578
6.86834
1.87801
0.00761643
8.62162
1.76257
-0.0280213
10.5531
1.64381
-0.0660934
12.2083
1.54963
-0.0825783
13.3916
1.49139
-0.066054
14.0646
1.46195
-0.0253553
14.1696
1.45057
0.0138748
14
1.45079
0.0374484
13.6646
1.46071
0.0458172
13.6055
1.47623
0.0458541
13.6272
1.49959
0.0444385
14.1016
0.0297373
13.8526
1.60413
-0.0516716
1.60404
-0.335775
1.60527
-0.379617
1.60446
-0.510581
1.60269
-0.667545
1.60272
-0.532732
1.60185
-0.600848
1.6007
-0.794621
1.60018
-0.804294
1.60065
-0.600976
1.60232
-0.311268
1.60489
-0.0582654
1.60529
0.0754854
1.59769
0.088492
1.6519
0.302735
1.8573
7.16643
1.9173
13.5155
1.874
15.4297
1.81534
14.8779
1.77801
13.6873
1.77045
12.4141
1.78914
11.3869
1.82044
10.768
1.84383
10.4909
1.84889
10.5621
1.83278
10.8692
1.79755
11.1158
1.74926
11.4125
1.69589
11.8845
1.64352
12.239
1.59404
12.2519
1.54618
12.0974
1.49891
11.9078
1.45215
11.654
1.40546
11.33
1.35953
10.9638
1.31519
10.5517
1.27391
10.0158
1.23947
9.38708
1.21209
8.73422
1.18691
8.14191
1.16367
8.17498
1.14649
8.47935
1.13906
8.73372
1.14404
9.05556
1.16219
9.56061
1.19495
10.2297
1.24015
11.0589
1.2816
12.1652
1.28641
13.5345
1.23385
14.6763
1.13973
15.3083
1.04448
15.3455
0.98157
14.7014
0.958616
13.9375
0.962673
13.2123
0.981695
13.1102
1.00574
13.204
1.03987
14.0441
13.9152
1.60648
-0.0082261
1.60519
0.00312594
1.60605
0.00185862
1.60482
0.00209538
1.60303
0.00229157
1.60226
0.00382722
1.60271
0.00503969
1.60426
0.00519817
1.60365
0.00440235
1.6035
0.00244812
1.60586
0.000710198
1.6116
-0.000948291
1.62135
-0.00310067
1.63664
-0.00668453
1.66035
-0.0127352
1.6951
-0.0212023
1.73409
-0.0233448
1.76836
-0.0182151
1.78429
-0.00602591
1.76804
0.0188765
1.81309
0.123916
1.94627
0.281917
1.98171
0.255458
1.91628
0.185922
1.81058
0.131532
1.70982
0.0877699
1.63035
0.0515858
1.57385
0.0229169
1.53927
0.000768107
1.52295
-0.0152223
1.51883
-0.0239091
1.52175
-0.0274123
1.52869
-0.028664
1.53873
-0.0297627
1.5516
-0.0314026
1.567
-0.032938
1.58386
-0.0337853
1.59977
-0.0324948
1.6116
-0.028253
1.61652
-0.0207976
1.6126
-0.0103325
1.60065
0.000678968
1.58352
0.00753994
1.56486
0.00945955
1.54892
0.00666518
1.54134
-0.00160208
1.54763
-0.0146243
1.57085
-0.0297331
1.60969
-0.0432608
1.65561
-0.0480692
1.69659
-0.0414916
1.72342
-0.0271519
1.73363
-0.0111149
1.73101
0.00147341
1.72181
0.0101247
1.71037
0.0154401
1.69771
0.0183675
1.68316
0.0179372
1.66309
0.0183618
0.0151647
1.59373
-0.0126862
1.59251
-0.00225264
1.59159
-0.00263314
1.59097
-0.00270092
1.59053
-0.00161546
1.5912
0.00152485
1.59433
0.00317408
1.59829
0.00344334
1.60097
0.000931879
1.60297
-0.000789526
1.60706
-0.00233913
1.61446
-0.00423978
1.62586
-0.00748441
1.6428
-0.0138944
1.668
-0.0255513
1.70515
-0.0423522
1.74758
-0.0446449
1.78616
-0.0321626
1.80817
-0.0091468
1.80215
0.0406458
1.79468
0.167751
1.89021
0.336191
2.01245
0.374141
2.10744
0.306424
2.15104
0.218322
2.15649
0.136017
2.14042
0.0701239
2.11367
0.0209724
2.08431
-0.0150436
2.05829
-0.0354271
2.0376
-0.0458763
2.02143
-0.0501248
2.00888
-0.0515889
1.99999
-0.0525714
1.99485
-0.054034
1.99339
-0.0552623
1.99482
-0.0555189
1.99698
-0.0523557
1.99711
-0.0446255
1.99329
-0.0327913
1.98468
-0.0181377
1.97257
-0.00460221
1.96055
0.00168705
1.95304
-0.00101836
1.95394
-0.012106
1.96713
-0.0320964
1.99542
-0.0581399
2.03899
-0.0846321
2.09496
-0.105502
2.15315
-0.108741
2.19724
-0.0881227
2.21281
-0.050494
2.19546
-0.01157
2.15248
0.0223484
2.09685
0.043487
2.04094
0.0505381
1.99333
0.0470343
1.95816
0.034758
1.93469
0.0236245
0.0142965
1.58521
-0.0032947
1.58475
0.00010606
1.58519
-0.000409885
1.58638
-0.00168691
1.5884
-0.0017104
1.59052
0.00132248
1.5937
0.00386402
1.59849
0.00363104
1.60096
0.00147855
1.60354
-0.00103831
1.6079
-0.0033761
1.61494
-0.00648398
1.62472
-0.0117645
1.63823
-0.0214222
1.66052
-0.0400726
1.704
-0.0749982
1.75517
-0.0867723
1.79906
-0.0718919
1.82045
-0.032733
1.819
0.0369835
1.82086
0.161603
1.87048
0.291167
1.94156
0.322857
2.02254
0.275461
2.08568
0.196959
2.12435
0.12581
2.14255
0.0648677
2.14891
0.00803888
2.15709
-0.0320939
2.17026
-0.0533195
2.1825
-0.0584651
2.18771
-0.056694
2.18755
-0.056845
2.18975
-0.0622844
2.20081
-0.0705956
2.22261
-0.0775661
2.25267
-0.0812057
2.28471
-0.0777035
2.31085
-0.0649084
2.32434
-0.0435346
2.31841
-0.014477
2.2916
0.0166271
2.2523
0.030945
2.21383
0.0217635
2.18653
-0.00246446
2.17564
-0.034523
2.18141
-0.0716265
2.20479
-0.111097
2.25178
-0.149526
2.32272
-0.167197
2.40575
-0.14655
2.4786
-0.089377
2.52234
-0.0211867
2.53092
0.036133
2.51095
0.0716622
2.4714
0.0845963
2.42157
0.0803715
2.36822
0.063267
2.31572
0.0485515
0.0244841
1.59042
-0.00179449
1.59127
-0.00173767
1.59233
-0.00224093
1.59331
-0.00279026
1.59465
-0.00240489
1.59548
0.000100326
1.59773
0.00242059
1.60108
0.00208585
1.60382
-0.000377909
1.60619
-0.00317679
1.6096
-0.00537528
1.61516
-0.0087008
1.62345
-0.0164786
1.63743
-0.0313358
1.66438
-0.0618784
1.71329
-0.119102
1.76688
-0.13869
1.80956
-0.118848
1.83031
-0.065021
1.83291
0.0187482
1.84462
0.128433
1.89287
0.220469
1.95832
0.239369
2.022
0.204116
2.07193
0.145239
2.11091
0.086658
2.14446
0.0351175
2.17126
-0.00823777
2.18813
-0.0332813
2.19736
-0.0450959
2.20431
-0.0492507
2.21069
-0.0497716
2.21594
-0.0508677
2.22181
-0.0570973
2.23319
-0.070236
2.25242
-0.0857347
2.27491
-0.0935869
2.29177
-0.0856858
2.29726
-0.0633565
2.29397
-0.0348019
2.29045
-0.00753609
2.29198
0.0124359
2.29813
0.0156771
2.30979
-0.00215368
2.33166
-0.0319547
2.35648
-0.0500638
2.36261
-0.0459603
2.34803
-0.0554073
2.34342
-0.108587
2.37157
-0.166634
2.43312
-0.184517
2.50777
-0.145015
2.57184
-0.0632684
2.60991
0.0190413
2.62396
0.0733957
2.62171
0.0955571
2.61104
0.092914
2.59469
0.0744501
2.57834
0.057021
0.0312827
1.58994
0.000178674
1.58979
-0.00116651
1.59035
-0.00170735
1.59136
-0.0018578
1.59319
-0.00181317
1.59383
-0.00018745
1.59612
0.0013917
1.59982
0.00109532
1.60296
-0.00127221
1.60564
-0.00394655
1.60912
-0.00576847
1.61451
-0.00852818
1.62253
-0.0175707
1.63607
-0.0359701
1.66495
-0.0782194
1.72234
-0.166206
1.78568
-0.200097
1.83504
-0.180273
1.85953
-0.116196
1.86684
-0.0187062
1.88519
0.0844928
1.93383
0.15134
1.99856
0.161613
2.06299
0.13306
2.11725
0.0870109
2.15978
0.0415288
2.18985
0.00555336
2.20802
-0.0189173
2.21745
-0.0317561
2.22142
-0.0379463
2.22092
-0.0386887
2.21575
-0.0363374
2.20734
-0.0351748
2.1998
-0.0421262
2.19726
-0.0605945
2.19974
-0.0826109
2.20213
-0.0906438
2.19815
-0.0741817
2.18568
-0.0409585
2.1684
-0.00615753
2.15143
0.01941
2.13488
0.034676
2.11739
0.0354927
2.1018
0.0143975
2.09602
-0.0240776
2.1141
-0.0642966
2.16972
-0.0986384
2.25439
-0.130905
2.33923
-0.168039
2.41106
-0.201804
2.47027
-0.203046
2.5211
-0.162198
2.56587
-0.0903177
2.59999
-0.0117034
2.62186
0.0473119
2.63328
0.0757979
2.63828
0.0784996
2.63636
0.0657607
2.63588
0.0507028
0.0308373
1.58967
0.00240682
1.58956
-0.000462289
1.58992
-0.000607303
1.59091
-0.000397198
1.59287
-0.000432747
1.59364
0.00101086
1.59565
0.00196635
1.5991
0.00193084
1.60243
0.000352665
1.60563
-0.0018114
1.60943
-0.00384471
1.61497
-0.00730884
1.62301
-0.0179535
1.63689
-0.0393144
1.67009
-0.0944625
1.73948
-0.219663
1.81526
-0.265043
1.87501
-0.244696
1.91118
-0.181452
1.93269
-0.0884282
1.96387
0.00630252
2.01792
0.0606498
2.08278
0.0729209
2.14425
0.0579321
2.19335
0.0303944
2.22738
0.00374003
2.24624
-0.0176729
2.2528
-0.0299192
2.24962
-0.033886
2.23916
-0.0317994
2.22317
-0.0246733
2.20338
-0.0163433
2.18277
-0.0137965
2.16538
-0.024877
2.15443
-0.0510957
2.15018
-0.0802555
2.14811
-0.0894966
2.14203
-0.0673598
2.12918
-0.0273132
2.11192
0.0108535
2.09451
0.0361831
2.0768
0.0493126
2.05828
0.0476515
2.04425
0.0197359
2.04606
-0.0367794
2.07834
-0.108508
2.1374
-0.170476
2.19653
-0.194833
2.24395
-0.198751
2.28781
-0.204023
2.33649
-0.198855
2.38568
-0.167588
2.42638
-0.10558
2.45299
-0.0298165
2.46651
0.031419
2.46931
0.0644633
2.46535
0.0711891
2.45507
0.0624654
2.44472
0.0510072
0.0323407
1.58999
0.00408947
1.59158
-0.00217425
1.59273
-0.0019219
1.59414
-0.00139964
1.59602
-0.00122134
1.59658
-5.66964e-05
1.5981
0.00112169
1.60072
0.00234206
1.6033
0.00232159
1.60598
0.00174737
1.60915
0.00134487
1.61357
0.000252763
1.61937
-0.00626274
1.62992
-0.023955
1.66255
-0.101104
1.74383
-0.283392
1.83533
-0.336479
1.91094
-0.300348
1.96311
-0.233264
1.99985
-0.150048
2.04176
-0.0639103
2.09854
-0.0102881
2.15792
0.00838131
2.20587
0.00866254
2.23538
-0.00146034
2.24539
-0.015146
2.23917
-0.0262592
2.22198
-0.0321147
2.19801
-0.0336622
2.17066
-0.0309938
2.14203
-0.0235319
2.11332
-0.015334
2.08661
-0.0134883
2.06491
-0.026242
2.05187
-0.0554493
2.05078
-0.0890758
2.05738
-0.100121
2.06153
-0.0729708
2.05681
-0.0250795
2.04493
0.0183488
2.03309
0.042549
2.02366
0.0472718
2.01652
0.0376013
2.02144
-0.00437659
2.05016
-0.089502
2.08397
-0.167334
2.07829
-0.174767
2.04353
-0.142854
2.03862
-0.144067
2.0878
-0.191232
2.16177
-0.224795
2.22505
-0.207172
2.26472
-0.145769
2.28239
-0.0677245
2.28257
0.00289141
2.2678
0.0499175
2.24386
0.0699395
2.2127
0.0737031
2.1819
0.0732548
0.0499414
1.58335
0.0140223
1.58423
0.000490288
1.58462
0.00106587
1.58657
0.000717342
1.58966
0.000333665
1.59111
0.00158179
1.59335
0.00223537
1.5968
0.00302132
1.60032
0.00367021
1.60373
0.0045435
1.60711
0.00584865
1.61123
0.00699855
1.61581
0.00484847
1.6203
-0.00731483
1.63701
-0.100872
1.71857
-0.339461
1.81502
-0.384206
1.90789
-0.287826
1.99246
-0.177254
2.05641
-0.106841
2.09766
-0.0524953
2.11697
-0.0184931
2.11401
-0.00203248
2.0899
0.00489556
2.05082
-0.00159815
2.0036
-0.0122503
1.95512
-0.0225544
1.91226
-0.0329496
1.87777
-0.0439145
1.84995
-0.0510463
1.82583
-0.0499769
1.80261
-0.0449698
1.78206
-0.0433914
1.77578
-0.0556842
1.78887
-0.0875312
1.81635
-0.124215
1.84958
-0.138045
1.87795
-0.108638
1.8963
-0.0582194
1.9068
-0.0153665
1.92332
-0.00287353
1.95919
-0.0215839
2.00628
-0.0420933
2.02373
-0.0370135
1.98431
-0.0112671
1.89149
-0.000650599
1.81694
-0.0225641
1.82
-0.0779368
1.88674
-0.14311
1.95731
-0.194818
1.99487
-0.208301
1.99757
-0.17816
1.97544
-0.114752
1.93636
-0.0379633
1.89297
0.0252601
1.85551
0.0614411
1.8279
0.0751826
1.80968
0.0767772
1.80461
0.0763838
0.0554707
1.5931
0.00855358
1.59297
-0.00341964
1.59176
-0.00336888
1.59186
-0.0036584
1.59305
-0.00344416
1.59309
-0.00254403
1.59445
-0.00135031
1.59685
1.4088e-05
1.5994
0.00115388
1.6022
0.00230251
1.60546
0.00360153
1.60931
0.00446702
1.61235
0.00288175
1.60974
-0.00415525
1.57989
-0.0630284
1.71263
-0.330515
1.81503
-0.319434
1.86811
-0.216354
1.8894
-0.112727
1.8953
-0.0305051
1.88811
0.0226219
1.92362
0.0502805
2.01829
0.0587251
2.10608
0.0513247
2.16317
0.0376918
2.19604
0.0211684
2.21549
0.00706018
2.23184
-0.00131208
2.25478
-0.00461821
2.29753
-0.00230885
2.36889
0.000668453
2.46112
0.00227551
2.54057
-0.00107128
2.56641
-0.00549482
2.52841
-0.00687202
2.46151
-0.00265713
2.40848
0.00283483
2.37973
0.00733715
2.36496
0.0136424
2.35092
0.0188208
2.32274
0.0188464
2.26736
0.0140849
2.19109
0.0130994
2.11937
0.016831
2.077
0.0231579
2.0583
0.0283665
2.0388
0.0307705
1.99771
0.026693
1.92357
0.0127818
1.81857
-0.0175826
1.70597
-0.0546407
1.61355
-0.0737604
1.55449
-0.0610667
1.52364
-0.0232128
1.51116
0.0149982
1.51021
0.0379598
1.5186
0.0450242
1.5326
0.0439965
1.55453
0.0422562
0.0292354
1.60257
1.60529
1.6052
1.60475
1.60449
1.60233
1.60143
1.60154
1.60169
1.60198
1.60285
1.60439
1.60442
1.59792
1.622
1.8396
1.91722
1.88265
1.82467
1.78517
1.7741
1.78927
1.8195
1.84273
1.84831
1.83246
1.79716
1.74982
1.69947
1.65165
1.60733
1.56379
1.51854
1.47131
1.42331
1.37867
1.33931
1.30383
1.27339
1.24754
1.22147
1.19388
1.17018
1.15681
1.15883
1.17622
1.2092
1.25646
1.3047
1.32088
1.28082
1.19618
1.1058
1.04411
1.02102
1.02424
1.04173
1.06371
1.09577
)
;

boundaryField
{
    wall
    {
        type            calculated;
        value           nonuniform List<scalar> 
1200
(
0.226
0.0814829
0.11578
0.0847937
0.0821795
0.0864375
0.0887669
0.0939941
0.0473336
0.04619
-0.214885
-0.164307
-0.127763
-0.0263825
0.0666859
0.149573
0.194839
0.337498
0.19897
0.33318
-0.468131
-0.300407
-0.339496
-0.0865386
0.0602503
0.213113
0.246485
0.502908
0.222949
0.374968
-0.730911
-0.462247
-0.520227
-0.0909428
0.0898897
0.325127
0.337994
0.740182
0.336771
0.507397
-0.931091
-0.603968
-0.648565
-0.0808217
0.107593
0.438335
0.432055
0.989927
0.480077
0.66591
-0.756949
-0.480304
-0.587266
-0.0369313
0.0656892
0.424845
0.365077
0.983558
0.378739
0.529469
-0.298506
-0.0858706
-0.216357
0.266928
0.305183
0.67022
0.534047
1.19771
0.493376
0.598965
0.083805
0.239048
0.160108
0.613271
0.682396
1.09924
0.900736
1.60033
0.762865
0.793643
-0.157174
-0.00730001
-0.00945812
0.512836
0.698012
1.25801
1.09362
1.83673
0.872862
0.80329
-0.725501
-0.563887
-0.480394
0.138309
0.425123
1.15488
1.09615
1.86966
0.783038
0.599421
-1.14666
-0.995855
-0.789807
-0.0887501
0.23867
1.08541
1.12374
1.85688
0.609529
0.308677
-1.3254
-1.2028
-0.832232
-0.0616098
0.284507
1.22015
1.34266
1.93554
0.461653
0.0541536
-1.40956
-1.32847
-0.772498
0.0400653
0.425298
1.49215
1.77732
2.18282
0.423946
-0.0808144
-1.42493
-1.37853
-0.622919
0.219357
0.689865
1.9417
2.51715
2.6607
0.533025
-0.0948749
-1.30771
-1.26947
-0.316857
0.555707
1.20128
2.7114
3.63227
3.35106
0.787879
-0.437457
-1.00219
-0.943624
0.207572
1.09738
2.03751
3.85169
4.91138
3.94356
-0.360825
-7.71956
-0.534327
-0.456476
0.893541
1.82262
3.08777
5.25628
6.39442
4.99141
-1.75238
-13.9034
-0.0139469
0.119157
1.60485
2.66889
4.17118
6.73996
8.194
7.52095
-1.85654
-15.605
0.243119
0.482306
2.05819
3.29896
4.84366
7.67147
9.65905
11.1278
-1.24489
-14.9332
0.0565398
0.451467
2.08513
3.4694
4.92225
7.73199
10.1899
14.0095
-0.51115
-13.6861
-1.13899
0.212624
1.96084
3.46137
4.84035
7.3764
10.1772
15.5197
0.303674
-12.3917
-5.23349
-1.03298
1.58745
3.32388
4.72272
6.98203
10.0016
15.9356
1.18035
-11.3616
-8.77344
-3.47807
0.734593
2.93783
4.47109
6.56663
9.76364
15.5807
2.17894
-10.7426
-10.8739
-6.5965
-0.688032
2.13487
3.88402
5.97045
9.31213
14.6532
2.93038
-10.4629
-12.0373
-9.29609
-2.18329
1.19168
3.11726
5.24248
8.63566
13.2951
3.08032
-10.5276
-12.0539
-10.5957
-2.94027
0.763439
2.71885
4.76563
7.99376
11.759
2.80061
-10.8285
-11.22
-10.6912
-2.96506
0.923668
2.79072
4.65877
7.5029
10.3195
2.40004
-11.0704
-9.96261
-10.0935
-2.57639
1.42736
3.0732
4.66943
6.99913
8.89315
1.81862
-11.365
-9.096
-9.53447
-2.40058
1.67598
3.12334
4.45508
6.27166
7.35066
1.00322
-11.8394
-8.76831
-9.23431
-2.47968
1.69308
3.02803
4.17389
5.55699
6.01051
0.289473
-12.1996
-8.75705
-9.10777
-2.65722
1.60086
2.89598
3.95158
5.0162
5.09363
-0.12239
-12.2187
-8.83719
-9.05568
-2.83997
1.44528
2.72418
3.7391
4.56252
4.4239
-0.336676
-12.069
-8.86517
-8.99728
-2.96839
1.29399
2.55662
3.54181
4.16244
3.8847
-0.441729
-11.8794
-8.80014
-8.90423
-3.03925
1.18996
2.4427
3.39488
3.84675
3.44699
-0.480574
-11.6239
-8.59067
-8.74563
-3.0551
1.14104
2.3833
3.28669
3.59251
3.03332
-0.524442
-11.2967
-8.37387
-8.6051
-3.06816
1.12004
2.35595
3.19989
3.37091
2.64646
-0.691799
-10.9277
-8.01402
-8.3708
-2.97067
1.2076
2.42539
3.18616
3.21108
2.34626