/*--------------------------------*- C++ -*----------------------------------*\
  =========                 |
  \\      /  F ield         | OpenFOAM: The Open Source CFD Toolbox
   \\    /   O peration     | Website:  https://openfoam.org
    \\  /    A nd           | Version:  8
     \\/     M anipulation  |
\*---------------------------------------------------------------------------*/
FoamFile
{
    version     2.0;
    format      ascii;
    class       volScalarField;
    location    "600";
    object      alphat;
}
// * * * * * * * * * * * * * * * * * * * * * * * * * * * * * * * * * * * * * //

dimensions      [1 -1 -1 0 0 0 0];

internalField   nonuniform List<scalar> 
1200
(
0.800845
0.734783
0.679824
0.633452
0.593865
0.559733
0.530031
0.503968
0.480943
0.460513
0.442317
0.426027
0.411376
0.398151
0.386177
0.375294
0.365348
0.356186
0.347888
0.340176
0.332906
0.325952
0.319251
0.31261
0.306471
0.300641
0.295418
0.293055
0.296209
0.299597
0.298167
0.291796
0.282413
0.272041
0.262119
0.253353
0.245988
0.23996
0.235036
0.231072
0.227832
0.225131
0.222941
0.221332
0.220311
0.219809
0.219682
0.219616
0.219072
0.21744
0.21434
0.21002
0.205345
0.201218
0.198025
0.195464
0.192913
0.190475
0.18819
0.185936
0.465661
0.399876
0.349395
0.309648
0.277674
0.251441
0.229553
0.211053
0.195286
0.181707
0.169901
0.159553
0.150416
0.142298
0.135017
0.128311
0.122
0.116296
0.111235
0.107094
0.10389
0.101424
0.0997463
0.0981838
0.0953455
0.0931313
0.0931595
0.0974904
0.104336
0.110322
0.113428
0.112741
0.108854
0.102976
0.096262
0.0896187
0.0837266
0.0789493
0.0752049
0.0721341
0.069505
0.0671827
0.0650965
0.0632113
0.0615093
0.0599894
0.0586677
0.0575666
0.0566839
0.0559769
0.0553709
0.0547898
0.0541863
0.0535521
0.05295
0.0526699
0.0531714
0.0539016
0.0546302
0.0547443
0.465557
0.399219
0.348284
0.30813
0.275802
0.249298
0.227217
0.208556
0.192596
0.17881
0.166809
0.156278
0.146965
0.138679
0.131263
0.124573
0.118519
0.113028
0.108015
0.103433
0.0992466
0.0954097
0.0919104
0.0886787
0.0855244
0.0825012
0.0800388
0.0788037
0.0792735
0.0804307
0.081037
0.0806848
0.0795522
0.077892
0.0759207
0.0738125
0.0718952
0.0701838
0.0686123
0.0671324
0.065734
0.0643857
0.0630577
0.0617476
0.0604528
0.0591817
0.0579278
0.0566757
0.0554523
0.0543086
0.0532506
0.0522432
0.0512667
0.0503391
0.0494958
0.0487682
0.0482244
0.047804
0.0474556
0.0469667
0.465558
0.399393
0.348577
0.308499
0.276199
0.24969
0.227593
0.208912
0.192928
0.179119
0.167088
0.156527
0.147183
0.138865
0.131421
0.124722
0.118669
0.113175
0.108165
0.103554
0.0992703
0.09526
0.0915012
0.0879866
0.0847147
0.081722
0.0790478
0.0767424
0.0749221
0.0735183
0.0722082
0.0707906
0.0691668
0.0673642
0.065516
0.0637868
0.0622077
0.0607172
0.0593022
0.0579449
0.0566018
0.0552863
0.0538762
0.0524781
0.0511767
0.0499193
0.0487841
0.0479952
0.0475964
0.0474306
0.0473113
0.0471278
0.0468473
0.0464745
0.0460333
0.0455455
0.0450565
0.0446604
0.0443695
0.0440302
0.465558
0.399392
0.34854
0.308437
0.276117
0.249591
0.227492
0.208815
0.192839
0.179043
0.167022
0.156469
0.147133
0.13882
0.131378
0.124684
0.118634
0.11315
0.108151
0.103555
0.0993118
0.0954351
0.0919837
0.0889844
0.0863897
0.0841014
0.0818189
0.0795333
0.0772736
0.0751289
0.0731206
0.0712193
0.0694
0.0676638
0.0660135
0.0644279
0.062884
0.061377
0.0599079
0.0585194
0.0572349
0.0560313
0.0548693
0.0537226
0.0525636
0.0514857
0.0505796
0.0499158
0.049472
0.0491154
0.0487343
0.0482782
0.0477398
0.0471304
0.0464701
0.0457756
0.0450666
0.0443578
0.0436877
0.0430451
0.465558
0.399394
0.348539
0.30844
0.276118
0.249587
0.227483
0.208803
0.192827
0.179033
0.167016
0.156465
0.147131
0.138819
0.131379
0.124687
0.118652
0.113194
0.108256
0.103849
0.10008
0.097043
0.0946602
0.0927148
0.0909617
0.0888015
0.0861332
0.0832665
0.0805098
0.077946
0.0755966
0.0734421
0.0714615
0.069637
0.0679555
0.0664031
0.0649711
0.063668
0.062503
0.06145
0.0604714
0.0595015
0.0585048
0.0574931
0.0564869
0.0554592
0.0544255
0.053439
0.0525028
0.051592
0.0507
0.0497875
0.0488245
0.0478434
0.0468907
0.0459794
0.045114
0.0443038
0.0435491
0.0428332
0.465559
0.399407
0.348588
0.308525
0.276228
0.249709
0.227614
0.208939
0.19296
0.179155
0.167128
0.156564
0.14722
0.1389
0.131448
0.124747
0.118706
0.113276
0.108529
0.104717
0.102114
0.100719
0.100045
0.099457
0.0981668
0.0953807
0.0916204
0.0877382
0.084312
0.0813678
0.0788512
0.0766825
0.0747782
0.0730722
0.0715125
0.0700554
0.0686695
0.0673346
0.0660301
0.0647398
0.0634525
0.0621596
0.0608686
0.0595965
0.0583561
0.0571652
0.0559898
0.0548322
0.0536422
0.0524069
0.0511959
0.0499615
0.0486947
0.0476117
0.0467062
0.04579
0.0448142
0.0438553
0.0429776
0.0421682
0.46556
0.399242
0.348304
0.308156
0.275819
0.249297
0.227204
0.208541
0.192589
0.178818
0.166824
0.156291
0.146973
0.13868
0.131257
0.12458
0.118562
0.113188
0.108747
0.105969
0.105546
0.107434
0.110241
0.111895
0.111043
0.106913
0.100551
0.0938861
0.0888963
0.0850883
0.0819984
0.0793517
0.0769894
0.0748215
0.0727945
0.0708697
0.0690153
0.0672073
0.0654329
0.0636933
0.0620044
0.060402
0.0589064
0.0575195
0.0562315
0.054929
0.0535177
0.0521316
0.0507101
0.0492152
0.0478259
0.0471075
0.0474301
0.0479813
0.0478624
0.0468338
0.045219
0.0434898
0.0419111
0.0405622
0.465665
0.399864
0.349325
0.309523
0.277473
0.251197
0.229307
0.210788
0.194924
0.1812
0.169231
0.158711
0.149386
0.141045
0.133569
0.126853
0.120795
0.115313
0.11043
0.106458
0.103988
0.10352
0.105246
0.11113
0.124724
0.130867
0.13229
0.128849
0.121349
0.113723
0.107223
0.102458
0.0991391
0.0966005
0.0943806
0.0922653
0.0901492
0.087948
0.0855856
0.0830136
0.0801401
0.0768462
0.0735467
0.0705095
0.0677686
0.0653326
0.0631657
0.061214
0.0594436
0.0578985
0.0567114
0.0558802
0.0556862
0.0555625
0.0542672
0.0514428
0.0476229
0.0437554
0.0407032
0.0385425
0.800872
0.734878
0.679896
0.6335
0.593896
0.559749
0.530037
0.503988
0.481018
0.460625
0.442429
0.426113
0.411401
0.398085
0.385906
0.374698
0.364382
0.354806
0.345632
0.336592
0.327826
0.320053
0.314087
0.30889
0.310894
0.320353
0.319679
0.312739
0.30429
0.296594
0.289848
0.283068
0.276088
0.269035
0.262053
0.255156
0.248204
0.240974
0.233258
0.224953
0.216038
0.206361
0.195982
0.18572
0.176264
0.168007
0.161181
0.156001
0.152649
0.151221
0.151266
0.151013
0.147878
0.141006
0.13127
0.120493
0.110463
0.102498
0.0967227
0.0935041
0.800872
0.734922
0.679934
0.633516
0.593884
0.559699
0.52995
0.503925
0.480976
0.460571
0.442356
0.42604
0.411367
0.398124
0.386128
0.375208
0.365243
0.356151
0.347908
0.340223
0.332957
0.325984
0.319309
0.312782
0.306575
0.300791
0.295532
0.292466
0.294813
0.298557
0.298021
0.292414
0.283472
0.273251
0.263288
0.254389
0.246869
0.240697
0.235631
0.231529
0.2282
0.225428
0.223156
0.221468
0.220375
0.219808
0.219647
0.21959
0.219096
0.217566
0.214603
0.210408
0.205798
0.201681
0.198482
0.195952
0.193472
0.191039
0.188734
0.186469
0.465664
0.399884
0.34933
0.309508
0.277473
0.251246
0.229423
0.211006
0.195256
0.181616
0.169724
0.159296
0.150094
0.141899
0.134485
0.12774
0.12164
0.116101
0.111173
0.107146
0.104037
0.101641
0.0998954
0.0981809
0.0951654
0.0925061
0.0922326
0.0962988
0.103242
0.109444
0.112936
0.112709
0.10921
0.103587
0.0969906
0.0903387
0.0843303
0.0793863
0.0754983
0.0723409
0.0696582
0.0672995
0.0651863
0.0632802
0.0615604
0.0600227
0.0586807
0.0575567
0.056651
0.0559249
0.0553074
0.0547229
0.0541225
0.0534954
0.0528975
0.0525883
0.0530365
0.0538017
0.0546007
0.0547843
0.465559
0.399268
0.348329
0.308168
0.275823
0.249295
0.227189
0.208526
0.192588
0.178823
0.166818
0.156275
0.146951
0.13865
0.131218
0.124536
0.118497
0.113018
0.108018
0.10344
0.099258
0.095431
0.0919234
0.0886182
0.0854318
0.0824008
0.0798491
0.0783967
0.0787597
0.0800659
0.0808881
0.0806591
0.0795522
0.0778893
0.0759159
0.0737954
0.0718204
0.0700555
0.0684444
0.0669416
0.0655432
0.0642139
0.0629049
0.0616148
0.0603423
0.0590852
0.0578425
0.0566027
0.0553811
0.054229
0.0531653
0.0521611
0.0511929
0.0502733
0.0494346
0.0487074
0.0481551
0.0477412
0.0474085
0.046942
0.465558
0.399422
0.348602
0.308528
0.276222
0.249699
0.227585
0.208903
0.192934
0.179143
0.167114
0.156546
0.147196
0.138869
0.131416
0.124717
0.118669
0.11318
0.10817
0.103556
0.0992666
0.0952466
0.0914872
0.0879838
0.0847308
0.0817651
0.079113
0.0768198
0.0749785
0.0735168
0.0721442
0.0706828
0.0691264
0.0674605
0.0657109
0.0639746
0.062359
0.0608529
0.0594292
0.0579537
0.0564857
0.0551424
0.0538202
0.0525009
0.0512134
0.0499558
0.0487916
0.04792
0.0474368
0.0472316
0.047116
0.0469574
0.0467039
0.0463524
0.045926
0.0454475
0.0449597
0.0445534
0.0442616
0.0439324
0.465557
0.399411
0.348564
0.308467
0.276143
0.249612
0.227493
0.208809
0.192842
0.179055
0.167038
0.156478
0.147137
0.13882
0.131374
0.12468
0.118636
0.113154
0.108156
0.10356
0.0993196
0.0954637
0.0920618
0.0891303
0.0865962
0.0842943
0.0819819
0.0796577
0.0773728
0.0752069
0.0731757
0.0712538
0.069425
0.0676836
0.0660188
0.0644107
0.0628455
0.0613284
0.0598812
0.058529
0.0572813
0.0561077
0.0549646
0.0538278
0.0526775
0.0515278
0.050519
0.0497662
0.0492758
0.0489183
0.0485644
0.0481467
0.0476429
0.0470578
0.0464134
0.0457302
0.0450294
0.0443265
0.0436565
0.0430139
0.465557
0.399407
0.34856
0.308458
0.276132
0.249604
0.227483
0.208796
0.192827
0.17904
0.167025
0.156468
0.14713
0.138818
0.131379
0.12469
0.118657
0.113202
0.108271
0.103885
0.100166
0.0972049
0.0948934
0.0929963
0.0911791
0.0888803
0.086099
0.0832118
0.0804571
0.0779013
0.0755608
0.0734178
0.0714518
0.0696441
0.0679783
0.066441
0.065031
0.0637608
0.0626269
0.061603
0.0606411
0.0596755
0.0586807
0.0576641
0.0566277
0.0555766
0.0545101
0.0534747
0.0525067
0.0515803
0.0506768
0.0497692
0.0488221
0.0478517
0.0469011
0.0459882
0.0451193
0.0443046
0.0435451
0.0428254
0.465559
0.399422
0.348614
0.308542
0.276245
0.249738
0.227624
0.208934
0.19296
0.179163
0.167138
0.15657
0.147221
0.138898
0.131447
0.124748
0.118711
0.113292
0.108576
0.104843
0.102372
0.101117
0.100526
0.0999389
0.0983678
0.09528
0.0913838
0.0875226
0.0841563
0.0812764
0.0788152
0.0766902
0.0748191
0.0731353
0.0715873
0.0701332
0.0687444
0.0674032
0.0660911
0.0647915
0.0634921
0.062187
0.060886
0.0596039
0.058351
0.0571402
0.0559562
0.0548024
0.0536599
0.0524668
0.0512571
0.0500245
0.0487552
0.0476454
0.0467245
0.0458127
0.0448427
0.0438826
0.0429988
0.0421869
0.465562
0.399241
0.348308
0.308151
0.275821
0.249312
0.227206
0.208535
0.192588
0.178823
0.166831
0.156296
0.146976
0.13868
0.131255
0.124582
0.11857
0.113212
0.108847
0.106266
0.106149
0.10834
0.111249
0.112724
0.111323
0.106552
0.099881
0.0933563
0.0885704
0.0848912
0.0818736
0.0792646
0.0769214
0.0747638
0.0727415
0.0708164
0.0689575
0.0671414
0.0653562
0.0636045
0.0619049
0.060294
0.058788
0.057387
0.0560854
0.0548423
0.0535569
0.0522266
0.0508283
0.0493434
0.0479143
0.0470591
0.0472865
0.0478592
0.0478328
0.0468928
0.0453234
0.0435982
0.0420055
0.0406383
0.465668
0.399876
0.349358
0.309561
0.277538
0.251268
0.229323
0.210748
0.19486
0.181119
0.1691
0.158549
0.149222
0.14092
0.133494
0.126813
0.120776
0.11531
0.110457
0.106597
0.104384
0.104329
0.106725
0.113827
0.126668
0.132087
0.132055
0.12882
0.12176
0.114225
0.107716
0.10276
0.099284
0.0966871
0.0944661
0.0923572
0.0902408
0.0880461
0.0857063
0.0831743
0.0803692
0.0771447
0.0738178
0.070739
0.0679461
0.0654513
0.0632356
0.0612523
0.0594586
0.057885
0.0566612
0.0558169
0.0555859
0.0555348
0.0543842
0.0516881
0.0479223
0.0440195
0.0408714
0.0386482
0.800857
0.734834
0.679893
0.633516
0.593924
0.559773
0.530043
0.503999
0.481036
0.460656
0.442465
0.426077
0.411257
0.397807
0.385554
0.374361
0.364105
0.354547
0.345307
0.336159
0.327357
0.319697
0.313966
0.308861
0.308462
0.318289
0.319322
0.313329
0.305151
0.297412
0.290598
0.283842
0.276886
0.269835
0.262831
0.255905
0.248936
0.241713
0.234029
0.225771
0.21691
0.207292
0.196953
0.186658
0.177127
0.168767
0.161826
0.156526
0.153044
0.151487
0.151456
0.151264
0.148345
0.141698
0.132121
0.121379
0.111258
0.103141
0.0972243
0.0938787
)
;

boundaryField
{
    wall
    {
        type            compressible::alphatJayatillekeWallFunction;
        Prt             0.85;
        value           uniform 0;
    }
    inlet
    {
        type            calculated;
        value           uniform 37.903;
    }
    outlet
    {
        type            calculated;
        value           nonuniform List<scalar> 
20
(
0.185936
0.0547446
0.0469668
0.0440302
0.0430451
0.0428333
0.0421681
0.0405622
0.0385425
0.093504
0.186469
0.0547846
0.0469421
0.0439324
0.0430139
0.0428254
0.0421868
0.0406384
0.0386482
0.0938786
)
;
    }
    heatWall
    {
        type            compressible::alphatJayatillekeWallFunction;
        Prt             0.85;
        value           nonuniform List<scalar> 
240
(
0
0
0
0
0
0
0
0
0.0602385
0.0602409
0.0568691
0.0568726
0.0539353
0.0539368
0.0513613
0.0513621
0.0490873
0.0490894
0.0470663
0.0470696
0.0452612
0.0452644
0.0436405
0.0436368
0.0421792
0.0421639
0.0408547
0.0408263
0.0396432
0.039607
0.0385272
0.038492
0.0374973
0.0374676
0.036534
0.0365064
0.0356017
0.0355697
0.0346816
0.0346448
0.0338042
0.0337765
0.0330508
0.033053
0.0324754
0.0325083
0.0319424
0.0319568
0.0325604
0.0322836
0.0333785
0.0331953
0.0331531
0.0331397
0.032387
0.0324568
0.031532
0.0316212
0.0307809
0.0308611
0.0301091
0.030185
0.0294173
0.0294972
0.0286984
0.0287812
0.0279702
0.028053
0.0272498
0.02733
0.0265387
0.0266157
0.0258206
0.0258957
0.0250708
0.0251468
0.0242697
0.024349
0.0234082
0.0234925
0.022486
0.0225759
0.02149
0.021586
0.0204291
0.0205279
0.0193865
0.0194816
0.0184301
0.0185174
0.017599
0.017676
0.0169152
0.0169811
0.0164003
0.0164541
0.0160744
0.0161148
0.015949
0.0159759
0.0159716
0.0159912
0.0159488
0.0159759
0.0156106
0.01566
0.0148772
0.0149498
0.0138484
0.0139367
0.0127217
0.0128123
0.0116883
0.0117685
0.0108752
0.0109399
0.0102926
0.0103427
0.00996844
0.010006
0
0
0
0
0
0
0.0641343
0.0641408
0.0602354
0.060237
0.0568691
0.056865
0.0539358
0.0539279
0.0513587
0.0513548
0.0490789
0.0490834
0.0470544
0.0470618
0.0452503
0.0452549
0.0436334
0.0436348
0.0421779
0.0421769
0.0408631
0.0408601
0.039672
0.0396665
0.038589
0.0385804
0.0375986
0.0375875
0.0366893
0.0366841
0.0358587
0.0358605
0.0350834
0.035088
0.0343488
0.0343535
0.0336433
0.0336476
0.0329586
0.0329661
0.0322982
0.032305
0.0316714
0.0316784
0.0310762
0.0310886
0.0305898
0.0305839
0.0304904
0.0303991
0.030892
0.0307424
0.031182
0.0310877
0.0309406
0.0309405
0.0302134
0.0302872
0.0292135
0.0293268
0.0281437
0.0282677
0.0271393
0.0272561
0.0262619
0.0263638
0.0255282
0.025614
0.0249286
0.0249999
0.024443
0.0244992
0.0240538
0.0240966
0.0237355
0.0237689
0.0234724
0.0234977
0.0232624
0.0232794
0.0231109
0.0231202
0.0230178
0.0230197
0.0229739
0.022971
0.0229649
0.022961
0.022959
0.0229577
0.0228995
0.0229046
0.0227238
0.0227405
0.0223967
0.0224283
0.0219496
0.0219936
0.0214735
0.0215233
0.0210568
0.0211068
0.0207332
0.0207824
0.0204649
0.0205173
0.0201981
0.0202541
0.0199438
0.0199992
0.019711
0.0197641
0.0194726
0.0195242
)
;
    }
}


// ************************************************************************* //
