/*--------------------------------*- C++ -*----------------------------------*\
  =========                 |
  \\      /  F ield         | OpenFOAM: The Open Source CFD Toolbox
   \\    /   O peration     | Website:  https://openfoam.org
    \\  /    A nd           | Version:  8
     \\/     M anipulation  |
\*---------------------------------------------------------------------------*/
FoamFile
{
    version     2.0;
    format      ascii;
    class       volScalarField;
    location    "600";
    object      epsilon;
}
// * * * * * * * * * * * * * * * * * * * * * * * * * * * * * * * * * * * * * //

dimensions      [0 2 -3 0 0 0 0];

internalField   nonuniform List<scalar> 
1200
(
72.1299
55.7111
44.1217
35.6946
29.4123
24.6271
20.9112
17.976
15.623
13.7153
12.1531
10.8596
9.77769
8.8652
8.08976
7.42573
6.85158
6.35243
5.91809
5.53182
5.18233
4.8615
4.56314
4.28944
4.03539
3.80274
3.62407
3.5948
3.73108
3.81094
3.69787
3.4262
3.08688
2.75393
2.46578
2.23161
2.04787
1.90562
1.79576
1.71077
1.64288
1.58767
1.54433
1.51353
1.49471
1.48549
1.48267
1.48006
1.4665
1.42968
1.36438
1.27962
1.19421
1.12332
1.07056
1.02826
0.987649
0.950683
0.917224
0.884833
92.9321
58.8439
39.2522
27.3239
19.704
14.6306
11.1338
8.65251
6.85441
5.52224
4.51438
3.73876
3.13265
2.65229
2.26608
1.94568
1.67321
1.44942
1.27379
1.14419
1.05205
0.984619
0.932543
0.869284
0.801356
0.753074
0.765817
0.89439
1.09448
1.28064
1.36469
1.31163
1.16001
0.970303
0.787898
0.63606
0.522182
0.441939
0.384533
0.340731
0.305661
0.276584
0.25199
0.231001
0.213074
0.197909
0.185401
0.17549
0.167868
0.161918
0.156854
0.151992
0.146969
0.14176
0.13698
0.135253
0.139116
0.144241
0.149157
0.149243
92.8699
58.5544
38.8795
26.924
19.3079
14.2595
10.7969
8.349
6.57508
5.26209
4.27215
3.51293
2.92166
2.45493
2.08184
1.77979
1.53286
1.32942
1.16041
1.01926
0.900895
0.80105
0.716042
0.64062
0.573344
0.516933
0.475236
0.457465
0.466521
0.484579
0.492215
0.484274
0.463818
0.435333
0.403384
0.372132
0.345497
0.322445
0.30181
0.282834
0.265289
0.248973
0.233566
0.218956
0.205167
0.192205
0.179947
0.168384
0.157793
0.148368
0.13991
0.132064
0.124721
0.118031
0.112192
0.107349
0.103824
0.101019
0.098618
0.0953841
92.8696
58.6328
38.9795
27.0221
19.3923
14.3276
10.8505
8.39156
6.609
5.28908
4.29338
3.52953
2.93458
2.46489
2.08947
1.78611
1.53851
1.3346
1.16492
1.02195
0.89996
0.795008
0.704789
0.627429
0.561185
0.505119
0.458292
0.420396
0.391239
0.367849
0.346103
0.324161
0.30213
0.280702
0.259918
0.241097
0.223786
0.207593
0.192516
0.17844
0.165466
0.153616
0.142593
0.132463
0.122886
0.114091
0.107301
0.10332
0.101452
0.100505
0.0995191
0.0980477
0.0960466
0.0935981
0.0908503
0.0879353
0.0851609
0.0829997
0.081343
0.0793897
92.8693
58.6348
38.9699
27.0071
19.3756
14.3115
10.8362
8.37975
6.59978
5.28216
4.28815
3.52557
2.93152
2.46243
2.08741
1.78433
1.53712
1.3337
1.16456
1.02224
0.901965
0.801638
0.720167
0.65483
0.60127
0.553928
0.509155
0.466749
0.427583
0.392583
0.361511
0.333672
0.308591
0.285895
0.265206
0.246153
0.228639
0.212606
0.198127
0.185321
0.174085
0.163954
0.154446
0.145329
0.136472
0.128227
0.121789
0.1175
0.114387
0.111526
0.108408
0.104924
0.101141
0.0971177
0.0929484
0.0887304
0.0845942
0.0806362
0.0770543
0.0737229
92.8691
58.6372
38.9711
27.0076
19.3756
14.3106
10.8347
8.37816
6.59853
5.2814
4.28781
3.52543
2.93142
2.46229
2.08735
1.78459
1.53791
1.33543
1.16858
1.03288
0.927154
0.848923
0.791033
0.74494
0.699273
0.645787
0.586202
0.529343
0.478682
0.434722
0.396912
0.3643
0.336023
0.311385
0.289814
0.270871
0.254294
0.239992
0.22767
0.216817
0.20683
0.197074
0.187356
0.177745
0.168239
0.158957
0.150013
0.141726
0.134195
0.127238
0.120552
0.113847
0.107129
0.100685
0.0947351
0.0892852
0.0843336
0.0798947
0.0759138
0.0722637
92.8688
58.6429
38.9872
27.0295
19.3985
14.3314
10.8533
8.39459
6.61221
5.29237
4.29651
3.53233
2.93689
2.46659
2.09067
1.78709
1.54007
1.33886
1.17943
1.06405
0.993716
0.960356
0.944541
0.924629
0.874534
0.790909
0.697198
0.613572
0.546558
0.493268
0.450493
0.415499
0.386125
0.360811
0.338455
0.318256
0.299687
0.282401
0.266091
0.250532
0.235598
0.221237
0.207557
0.194662
0.182595
0.171384
0.160954
0.150902
0.141009
0.131587
0.122759
0.113907
0.10548
0.0987821
0.0932481
0.0877439
0.082182
0.0770322
0.0725482
0.0685525
92.8689
58.5681
38.8898
26.9319
19.3121
14.2596
10.7945
8.34693
6.57427
5.26259
4.27317
3.51389
2.92227
2.455
2.08152
1.77996
1.53462
1.33639
1.19009
1.11284
1.1167
1.19286
1.28989
1.33164
1.26492
1.09652
0.899723
0.738107
0.632821
0.558507
0.501629
0.455423
0.416321
0.382319
0.352141
0.324873
0.299852
0.276633
0.254991
0.234895
0.216465
0.199927
0.185247
0.172203
0.16048
0.149407
0.138827
0.128491
0.118036
0.108016
0.0997887
0.0966284
0.099187
0.102109
0.100313
0.0931911
0.0835475
0.0743133
0.0666088
0.0604975
92.9311
58.8397
39.2315
27.2923
19.6623
14.5878
11.0962
8.61899
6.81547
5.47481
4.45979
3.67898
3.06797
2.5825
2.1933
1.87886
1.62233
1.41157
1.24172
1.11998
1.05998
1.07211
1.17557
1.45903
1.98144
2.24771
2.21436
1.94823
1.59905
1.31832
1.1118
0.977802
0.889157
0.823083
0.767766
0.717767
0.669701
0.621126
0.570878
0.519006
0.464875
0.408698
0.358909
0.317143
0.282588
0.254091
0.230236
0.209887
0.192475
0.178289
0.168006
0.160787
0.159076
0.156606
0.143942
0.121196
0.0956398
0.0744341
0.0604909
0.0516681
72.1355
55.7289
44.1335
35.7038
29.4178
24.6272
20.9102
17.978
15.63
13.7254
12.1622
10.865
9.77868
8.85937
8.07122
7.38799
6.79196
6.26267
5.77621
5.32234
4.91526
4.58572
4.34536
4.13849
4.42682
4.70201
4.55458
4.21938
3.87839
3.5973
3.35831
3.12554
2.89767
2.68014
2.4766
2.28592
2.10314
1.92264
1.74102
1.55846
1.3774
1.19745
1.02393
0.871156
0.745392
0.646604
0.57233
0.520553
0.489637
0.477985
0.479438
0.475745
0.443443
0.381262
0.305465
0.235492
0.181744
0.14588
0.123258
0.11197
72.1372
55.7404
44.1411
35.7059
29.4155
24.6228
20.9028
17.9714
15.6263
13.7215
12.1571
10.8609
9.77728
8.86353
8.08668
7.4211
6.84547
6.34923
5.91848
5.5335
5.18405
4.86326
4.5661
4.29039
4.03782
3.80751
3.62053
3.56003
3.67819
3.77968
3.70052
3.45295
3.1237
2.79076
2.4978
2.25768
2.06859
1.92202
1.80802
1.71973
1.64958
1.59246
1.54737
1.515
1.49474
1.48467
1.48183
1.47985
1.46763
1.43313
1.37053
1.28769
1.2028
1.1315
1.07826
1.03621
0.995705
0.958344
0.924344
0.891539
92.9321
58.8484
39.2322
27.2878
19.6613
14.5966
11.1141
8.64629
6.85108
5.51337
4.49982
3.72037
3.11243
2.63031
2.23976
1.91891
1.65699
1.4421
1.27118
1.14405
1.05187
0.983531
0.92852
0.863343
0.790366
0.739953
0.746949
0.86454
1.05976
1.24958
1.34814
1.31265
1.17361
0.98933
0.806751
0.651475
0.532873
0.448429
0.388567
0.343402
0.307523
0.277918
0.252962
0.23171
0.213569
0.198206
0.185491
0.17536
0.167536
0.161437
0.1563
0.151437
0.146463
0.141331
0.136587
0.13461
0.138411
0.143862
0.149302
0.149857
92.8697
58.5792
38.8981
26.9356
19.3131
14.2599
10.7929
8.34515
6.57414
5.26278
4.27252
3.51257
2.92074
2.45349
2.07986
1.77806
1.53192
1.32911
1.1604
1.01942
0.901127
0.801257
0.71583
0.639395
0.571067
0.513963
0.47099
0.450721
0.458189
0.477237
0.487236
0.481233
0.462077
0.434429
0.402791
0.371037
0.343512
0.319878
0.298978
0.280047
0.262763
0.246757
0.231716
0.217475
0.203945
0.191201
0.179182
0.167786
0.157214
0.147746
0.139288
0.131505
0.12424
0.117604
0.111791
0.106945
0.103406
0.100671
0.0983883
0.0952812
92.8693
58.649
38.9918
27.0307
19.398
14.3302
10.8492
8.39012
6.60953
5.29093
4.29517
3.53071
2.9352
2.46498
2.08929
1.78592
1.53847
1.33468
1.16503
1.02195
0.899771
0.794756
0.704773
0.627982
0.562503
0.507047
0.460648
0.422929
0.39348
0.369535
0.347356
0.325249
0.303144
0.281393
0.260111
0.240466
0.222732
0.206363
0.191091
0.177109
0.164387
0.152664
0.142064
0.132275
0.122985
0.114257
0.107067
0.102459
0.100172
0.0991261
0.0982594
0.0969822
0.0951551
0.0928323
0.0901706
0.0873108
0.0845426
0.0823529
0.0807285
0.078847
92.869
58.6449
38.9794
27.0143
19.3812
14.3151
10.8359
8.37881
6.60016
5.28347
4.28947
3.52639
2.93185
2.46236
2.08719
1.7842
1.53716
1.33386
1.16473
1.02238
0.902316
0.802783
0.722688
0.658847
0.60613
0.558045
0.512077
0.4688
0.429143
0.393854
0.362595
0.334641
0.309445
0.286595
0.265734
0.246556
0.228973
0.213007
0.198723
0.186176
0.175234
0.16535
0.155967
0.146844
0.137807
0.128918
0.121561
0.116459
0.112985
0.110154
0.107275
0.104063
0.100486
0.0966008
0.0925289
0.0883856
0.0843043
0.0803767
0.0767968
0.0734649
92.8688
58.6423
38.9766
27.011
19.3781
14.3125
10.8341
8.37737
6.59871
5.2822
4.28858
3.52583
2.93154
2.46227
2.08732
1.78464
1.5381
1.33575
1.16915
1.03423
0.930115
0.85387
0.797584
0.752118
0.70431
0.647265
0.58568
0.528381
0.477828
0.434152
0.39665
0.36434
0.336328
0.311903
0.29053
0.271824
0.255556
0.241558
0.229466
0.218719
0.208681
0.198785
0.188872
0.179015
0.169286
0.159867
0.150761
0.142177
0.134276
0.127027
0.12026
0.113646
0.107037
0.100641
0.0946973
0.0892444
0.084282
0.079825
0.0758258
0.0721606
92.8689
58.6457
38.9925
27.0332
19.4018
14.3349
10.854
8.3943
6.61248
5.29318
4.2973
3.53272
2.93696
2.46649
2.09057
1.78712
1.54032
1.3395
1.18128
1.06867
1.00244
0.973054
0.959204
0.938078
0.878607
0.787634
0.691931
0.60952
0.544079
0.492124
0.450346
0.416031
0.387058
0.361935
0.339628
0.319396
0.300746
0.283343
0.266882
0.251136
0.236004
0.221475
0.207662
0.194647
0.18248
0.171225
0.16084
0.150956
0.141245
0.131839
0.122996
0.114242
0.10577
0.0988983
0.0933072
0.0878421
0.082306
0.0771407
0.0726251
0.0686139
92.8691
58.5636
38.8886
26.9305
19.3122
14.2612
10.7947
8.34655
6.57441
5.26312
4.27365
3.51415
2.92237
2.45501
2.08156
1.7801
1.53495
1.33746
1.19424
1.12413
1.13887
1.22608
1.32686
1.3595
1.26859
1.0804
0.880952
0.727136
0.626851
0.555199
0.499655
0.454104
0.415343
0.381541
0.35148
0.324254
0.299207
0.27591
0.254171
0.233994
0.215533
0.199023
0.184407
0.171471
0.159943
0.149313
0.139072
0.129005
0.118784
0.108726
0.100104
0.0961428
0.0982804
0.101446
0.100246
0.093601
0.0841253
0.0748421
0.0670275
0.060808
92.9313
58.8415
39.2406
27.3021
19.6749
14.5985
11.0983
8.61431
6.80878
5.4672
4.44932
3.66742
3.0576
2.57538
2.18934
1.87692
1.62154
1.41144
1.24314
1.12617
1.076
1.10492
1.24423
1.62242
2.10064
2.25931
2.1882
1.94691
1.61441
1.33543
1.12456
0.983317
0.891095
0.824302
0.769112
0.719074
0.670935
0.622649
0.573106
0.522148
0.468975
0.413094
0.362496
0.319822
0.284375
0.255143
0.230825
0.210206
0.19258
0.17811
0.167524
0.160225
0.158419
0.156671
0.145126
0.123057
0.0974434
0.0756999
0.0611704
0.0520539
72.1319
55.7225
44.1357
35.706
29.4207
24.632
20.9125
17.9789
15.6318
13.7279
12.1646
10.8622
9.7678
8.84064
8.04875
7.36731
6.77539
6.24808
5.76042
5.30608
4.90602
4.59234
4.36649
4.14795
4.31634
4.6351
4.55504
4.24909
3.91239
3.6258
3.38416
3.1513
2.92287
2.70392
2.49839
2.30576
2.12153
1.94023
1.75829
1.57557
1.39422
1.21387
1.03911
0.88426
0.75622
0.655294
0.579188
0.525806
0.493406
0.480446
0.481243
0.478276
0.447798
0.386991
0.311423
0.240592
0.185522
0.148499
0.12506
0.113236
)
;

boundaryField
{
    wall
    {
        type            epsilonWallFunction;
        value           nonuniform List<scalar> 
1200
(
72.1299
92.9321
92.8699
92.8696
92.8693
92.8691
92.8688
92.8689
92.9311
72.1355
55.7111
58.8439
58.5544
58.6328
58.6348
58.6372
58.6429
58.5681
58.8397
55.7289
44.1217
39.2522
38.8795
38.9795
38.9699
38.9711
38.9872
38.8898
39.2315
44.1335
35.6946
27.3239
26.924
27.0221
27.0071
27.0076
27.0295
26.9319
27.2923
35.7038
29.4123
19.704
19.3079
19.3923
19.3756
19.3756
19.3985
19.3121
19.6623
29.4178
24.6271
14.6306
14.2595
14.3276
14.3115
14.3106
14.3314
14.2596
14.5878
24.6272
20.9112
11.1338
10.7969
10.8505
10.8362
10.8347
10.8533
10.7945
11.0962
20.9102
17.976
8.65251
8.349
8.39156
8.37975
8.37816
8.39459
8.34693
8.61899
17.978
15.623
6.85441
6.57508
6.609
6.59978
6.59853
6.61221
6.57427
6.81547
15.63
13.7153
5.52224
5.26209
5.28908
5.28216
5.2814
5.29237
5.26259
5.47481
13.7254
12.1531
4.51438
4.27215
4.29338
4.28815
4.28781
4.29651
4.27317
4.45979
12.1622
10.8596
3.73876
3.51293
3.52953
3.52557
3.52543
3.53233
3.51389
3.67898
10.865
9.77769
3.13265
2.92166
2.93458
2.93152
2.93142
2.93689
2.92227
3.06797
9.77868
8.8652
2.65229
2.45493
2.46489
2.46243
2.46229
2.46659
2.455
2.5825
8.85937
8.08976
2.26608
2.08184
2.08947
2.08741
2.08735
2.09067
2.08152
2.1933
8.07122
7.42573
1.94568
1.77979
1.78611
1.78433
1.78459
1.78709
1.77996
1.87886
7.38799
6.85158
1.67321
1.53286
1.53851
1.53712
1.53791
1.54007
1.53462
1.62233
6.79196
6.35243
1.44942
1.32942
1.3346
1.3337
1.33543
1.33886
1.33639
1.41157
6.26267
5.91809
1.27379
1.16041
1.16492
1.16456
1.16858
1.17943
1.19009
1.24172
5.77621
5.53182
1.14419
1.01926
1.02195
1.02224
1.03288
1.06405
1.11284
1.11998
5.32234
5.18233
1.05205
0.900895
0.89996
0.901965
0.927154
0.993716
1.1167
1.05998
4.91526
4.8615
0.984619
0.80105
0.795008
0.801638
0.848923
0.960356
1.19286
1.07211
4.58572
4.56314
0.932543
0.716042
0.704789
0.720167
0.791033
0.944541
1.28989
1.17557
4.34536
4.28944
0.869284
0.64062
0.627429
0.65483
0.74494
0.924629
1.33164
1.45903
4.13849
4.03539
0.801356
0.573344
0.561185
0.60127
0.699273
0.874534
1.26492
1.98144
4.42682
3.80274
0.753074
0.516933
0.505119
0.553928
0.645787
0.790909
1.09652
2.24771
4.70201
3.62407
0.765817
0.475236
0.458292
0.509155
0.586202
0.697198
0.899723
2.21436
4.55458
3.5948
0.89439
0.457465
0.420396
0.466749
0.529343
0.613572
0.738107
1.94823
4.21938
3.73108
1.09448
0.466521
0.391239
0.427583
0.478682
0.546558
0.632821
1.59905
3.87839
3.81094
1.28064
0.484579
0.367849
0.392583
0.434722
0.493268
0.558507
1.31832
3.5973
3.69787
1.36469
0.492215
0.346103
0.361511
0.396912
0.450493
0.501629
1.1118
3.35831
3.4262
1.31163
0.484274
0.324161
0.333672
0.3643
0.415499
0.455423
0.977802
3.12554
3.08688
1.16001
0.463818
0.30213
0.308591
0.336023
0.386125
0.416321
0.889157
2.89767
2.75393
0.970303
0.435333
0.280702
0.285895
0.311385
0.360811
0.382319
0.823083
2.68014
2.46578
0.787898
0.403384
0.259918
0.265206
0.289814
0.338455
0.352141
0.767766
2.4766
2.23161
0.63606
0.372132
0.241097
0.246153
0.270871
0.318256
0.324873
0.717767
2.28592
2.04787
0.522182
0.345497
0.223786
0.228639
0.254294
0.299687
0.299852
0.669701
2.10314
1.90562
0.441939
0.322445
0.207593
0.212606
0.239992
0.282401
0.276633
0.621126
1.92264
1.79576
0.384533
0.30181
0.192516
0.198127
0.22767
0.266091
0.254991
0.570878
1.74102
1.71077
0.340731
0.282834
0.17844
0.185321
0.216817
0.250532
0.234895
0.519006
1.55846
1.64288
0.305661
0.265289
0.165466
0.174085
0.20683
0.235598
0.216465
0.464875
1.3774
1.58767
0.276584
0.248973
0.153616
0.163954
0.197074
0.221237
0.199927
0.408698
1.19745
1.54433
0.25199
0.233566
0.142593
0.154446
0.187356
0.207557
0.185247
0.358909
1.02393
1.51353
0.231001
0.218956
0.132463
0.145329
0.177745
0.194662
0.172203
0.317143
0.871156
1.49471
0.213074
0.205167
0.122886
0.136472
0.168239
0.182595
0.16048
0.282588
0.745392
1.48549
0.197909
0.192205
0.114091
0.128227
0.158957
0.171384
0.149407
0.254091
0.646604
1.48267
0.185401
0.179947
0.107301
0.121789
0.150013
0.160954
0.138827
0.230236
0.57233
1.48006
0.17549
0.168384
0.10332
0.1175
0.141726
0.150902
0.128491
0.209887
0.520553
1.4665
0.167868
0.157793
0.101452
0.114387
0.134195
0.141009
0.118036
0.192475
0.489637
1.42968
0.161918
0.148368
0.100505
0.111526
0.127238
0.131587
0.108016
0.178289
0.477985
1.36438
0.156854
0.13991
0.0995191
0.108408
0.120552
0.122759
0.0997887
0.168006
0.479438
1.27962
0.151992
0.132064
0.0980477
0.104924
0.113847
0.113907
0.0966284
0.160787
0.475745
1.19421
0.146969
0.124721
0.0960466
0.101141
0.107129
0.10548
0.099187
0.159076
0.443443
1.12332
0.14176
0.118031
0.0935981
0.0971177
0.100685
0.0987821
0.102109
0.156606
0.381262
1.07056
0.13698
0.112192
0.0908503
0.0929484
0.0947351
0.0932481
0.100313
0.143942
0.305465
1.02826
0.135253
0.107349
0.0879353
0.0887304
0.0892852
0.0877439
0.0931911
0.121196
0.235492
0.987649
0.139116
0.103824
0.0851609
0.0845942
0.0843336
0.082182
0.0835475
0.0956398
0.181744
0.950683
0.144241
0.101019
0.0829997
0.0806362
0.0798947
0.0770322
0.0743133
0.0744341
0.14588
0.917224
0.149157
0.098618
0.081343
0.0770543
0.0759138
0.0725482
0.0666088
0.0604909
0.123258
0.884833
0.149243
0.0953841
0.0793897
0.0737229
0.0722637
0.0685525
0.0604975
0.0516681
0.11197
72.1372
92.9321
92.8697
92.8693
92.869
92.8688
92.8689
92.8691
92.9313
72.1319
55.7404
58.8484
58.5792
58.649
58.6449
58.6423
58.6457
58.5636
58.8415
55.7225
44.1411
39.2322
38.8981
38.9918
38.9794
38.9766
38.9925
38.8886
39.2406
44.1357
35.7059
27.2878
26.9356
27.0307
27.0143
27.011
27.0332
26.9305
27.3021
35.706
29.4155
19.6613
19.3131
19.398
19.3812
19.3781
19.4018
19.3122
19.6749
29.4207
24.6228
14.5966
14.2599
14.3302
14.3151
14.3125
14.3349
14.2612
14.5985
24.632
20.9028
11.1141
10.7929
10.8492
10.8359
10.8341
10.854
10.7947
11.0983
20.9125
17.9714
8.64629
8.34515
8.39012
8.37881
8.37737
8.3943
8.34655
8.61431
17.9789
15.6263
6.85108
6.57414
6.60953
6.60016
6.59871
6.61248
6.57441
6.80878
15.6318
13.7215
5.51337
5.26278
5.29093
5.28347
5.2822
5.29318
5.26312
5.4672
13.7279
12.1571
4.49982
4.27252
4.29517
4.28947
4.28858
4.2973
4.27365
4.44932
12.1646
10.8609
3.72037
3.51257
3.53071
3.52639
3.52583
3.53272
3.51415
3.66742
10.8622
9.77728
3.11243
2.92074
2.9352
2.93185
2.93154
2.93696
2.92237
3.0576
9.7678
8.86353
2.63031
2.45349
2.46498
2.46236
2.46227
2.46649
2.45501
2.57538
8.84064
8.08668
2.23976
2.07986
2.08929
2.08719
2.08732
2.09057
2.08156
2.18934
8.04875
7.4211
1.91891
1.77806
1.78592
1.7842
1.78464
1.78712
1.7801
1.87692
7.36731
6.84547
1.65699
1.53192
1.53847
1.53716
1.5381
1.54032
1.53495
1.62154
6.77539
6.34923
1.4421
1.32911
1.33468
1.33386
1.33575
1.3395
1.33746
1.41144
6.24808
5.91848
1.27118
1.1604
1.16503
1.16473
1.16915
1.18128
1.19424
1.24314
5.76042
5.5335
1.14405
1.01942
1.02195
1.02238
1.03423
1.06867
1.12413
1.12617
5.30608
5.18405
1.05187
0.901127
0.899771
0.902316
0.930115
1.00244
1.13887
1.076
4.90602
4.86326
0.983531
0.801257
0.794756
0.802783
0.85387
0.973054
1.22608
1.10492
4.59234
4.5661
0.92852
0.71583
0.704773
0.722688
0.797584
0.959204
1.32686
1.24423
4.36649
4.29039
0.863343
0.639395
0.627982
0.658847
0.752118
0.938078
1.3595
1.62242
4.14795
4.03782
0.790366
0.571067
0.562503
0.60613
0.70431
0.878607
1.26859
2.10064
4.31634
3.80751
0.739953
0.513963
0.507047
0.558045
0.647265
0.787634
1.0804
2.25931
4.6351
3.62053
0.746949
0.47099
0.460648
0.512077
0.58568
0.691931
0.880952
2.1882
4.55504
3.56003
0.86454
0.450721
0.422929
0.4688
0.528381
0.60952
0.727136
1.94691
4.24909
3.67819
1.05976
0.458189
0.39348
0.429143
0.477828
0.544079
0.626851
1.61441
3.91239
3.77968
1.24958
0.477237
0.369535
0.393854
0.434152
0.492124
0.555199
1.33543
3.6258
3.70052
1.34814
0.487236
0.347356
0.362595
0.39665
0.450346
0.499655
1.12456
3.38416
3.45295
1.31265
0.481233
0.325249
0.334641
0.36434
0.416031
0.454104
0.983317
3.1513
3.1237
1.17361
0.462077
0.303144
0.309445
0.336328
0.387058
0.415343
0.891095
2.92287
2.79076
0.98933
0.434429
0.281393
0.286595
0.311903
0.361935
0.381541
0.824302
2.70392
2.4978
0.806751
0.402791
0.260111
0.265734
0.29053
0.339628
0.35148
0.769112
2.49839
2.25768
0.651475
0.371037
0.240466
0.246556
0.271824
0.319396
0.324254
0.719074
2.30576
2.06859
0.532873
0.343512
0.222732
0.228973
0.255556
0.300746
0.299207
0.670935
2.12153
1.92202
0.448429
0.319878
0.206363
0.213007
0.241558
0.283343
0.27591
0.622649
1.94023
1.80802
0.388567
0.298978
0.191091
0.198723
0.229466
0.266882
0.254171
0.573106
1.75829
1.71973
0.343402
0.280047
0.177109
0.186176
0.218719
0.251136
0.233994
0.522148
1.57557
1.64958
0.307523
0.262763
0.164387
0.175234
0.208681
0.236004
0.215533
0.468975
1.39422
1.59246
0.277918
0.246757
0.152664
0.16535
0.198785
0.221475
0.199023
0.413094
1.21387
1.54737
0.252962
0.231716
0.142064
0.155967
0.188872
0.207662
0.184407
0.362496
1.03911
1.515
0.23171
0.217475
0.132275
0.146844
0.179015
0.194647
0.171471
0.319822
0.88426
1.49474
0.213569
0.203945
0.122985
0.137807
0.169286
0.18248
0.159943
0.284375
0.75622
1.48467
0.198206
0.191201
0.114257
0.128918
0.159867
0.171225
0.149313
0.255143
0.655294
1.48183
0.185491
0.179182
0.107067
0.121561
0.150761
0.16084
0.139072
0.230825
0.579188
1.47985
0.17536
0.167786
0.102459
0.116459
0.142177
0.150956
0.129005
0.210206
0.525806
1.46763
0.167536
0.157214
0.100172
0.112985
0.134276
0.141245
0.118784
0.19258
0.493406
1.43313
0.161437
0.147746
0.0991261
0.110154
0.127027
0.131839
0.108726
0.17811
0.480446
1.37053
0.1563
0.139288
0.0982594
0.107275
0.12026
0.122996
0.100104
0.167524
0.481243
1.28769
0.151437
0.131505
0.0969822
0.104063
0.113646
0.114242
0.0961428
0.160225
0.478276
1.2028
0.146463
0.12424
0.0951551
0.100486
0.107037
0.10577
0.0982804
0.158419
0.447798
1.1315
0.141331
0.117604
0.0928323
0.0966008
0.100641
0.0988983
0.101446
0.156671
0.386991
1.07826
0.136587
0.111791
0.0901706
0.0925289
0.0946973
0.0933072
0.100246
0.145126
0.311423
1.03621
0.13461
0.106945
0.0873108
0.0883856
0.0892444
0.0878421
0.093601
0.123057
0.240592
0.995705
0.138411
0.103406
0.0845426
0.0843043
0.084282
0.082306
0.0841253
0.0974434
0.185522
0.958344
0.143862
0.100671
0.0823529
0.0803767
0.079825
0.0771407
0.0748421
0.0756999
0.148499
0.924344
0.149302
0.0983883
0.0807285
0.0767968
0.0758258
0.0726251
0.0670275
0.0611704
0.12506
0.891539
0.149857
0.0952812
0.078847
0.0734649
0.0721606
0.0686139
0.060808
0.0520539
0.113236
)
;
    }
    inlet
    {
        type            turbulentMixingLengthDissipationRateInlet;
        mixingLength    0.071;
        phi             phi;
        k               k;
        value           uniform 2.17686;
    }
    outlet
    {
        type            inletOutlet;
        inletValue      uniform 0.0001;
        value           nonuniform List<scalar> 
20
(
0.884833
0.149243
0.0953841
0.0793897
0.0737229
0.0722637
0.0685525
0.0604975
0.0516681
0.11197
0.891539
0.149857
0.0952812
0.078847
0.0734649
0.0721606
0.0686139
0.060808
0.0520539
0.113236
)
;
    }
    heatWall
    {
        type            epsilonWallFunction;
        value           nonuniform List<scalar> 
240
(
72.1355
72.1319
55.7289
55.7225
44.1335
44.1357
35.7038
35.706
29.4178
29.4207
24.6272
24.632
20.9102
20.9125
17.978
17.9789
15.63
15.6318
13.7254
13.7279
12.1622
12.1646
10.865
10.8622
9.77868
9.7678
8.85937
8.84064
8.07122
8.04875
7.38799
7.36731
6.79196
6.77539
6.26267
6.24808
5.77621
5.76042
5.32234
5.30608
4.91526
4.90602
4.58572
4.59234
4.34536
4.36649
4.13849
4.14795
4.42682
4.31634
4.70201
4.6351
4.55458
4.55504
4.21938
4.24909
3.87839
3.91239
3.5973
3.6258
3.35831
3.38416
3.12554
3.1513
2.89767
2.92287
2.68014
2.70392
2.4766
2.49839
2.28592
2.30576
2.10314
2.12153
1.92264
1.94023
1.74102
1.75829
1.55846
1.57557
1.3774
1.39422
1.19745
1.21387
1.02393
1.03911
0.871156
0.88426
0.745392
0.75622
0.646604
0.655294
0.57233
0.579188
0.520553
0.525806
0.489637
0.493406
0.477985
0.480446
0.479438
0.481243
0.475745
0.478276
0.443443
0.447798
0.381262
0.386991
0.305465
0.311423
0.235492
0.240592
0.181744
0.185522
0.14588
0.148499
0.123258
0.12506
0.11197
0.113236
72.1299
72.1372
55.7111
55.7404
44.1217
44.1411
35.6946
35.7059
29.4123
29.4155
24.6271
24.6228
20.9112
20.9028
17.976
17.9714
15.623
15.6263
13.7153
13.7215
12.1531
12.1571
10.8596
10.8609
9.77769
9.77728
8.8652
8.86353
8.08976
8.08668
7.42573
7.4211
6.85158
6.84547
6.35243
6.34923
5.91809
5.91848
5.53182
5.5335
5.18233
5.18405
4.8615
4.86326
4.56314
4.5661
4.28944
4.29039
4.03539
4.03782
3.80274
3.80751
3.62407
3.62053
3.5948
3.56003
3.73108
3.67819
3.81094
3.77968
3.69787
3.70052
3.4262
3.45295
3.08688
3.1237
2.75393
2.79076
2.46578
2.4978
2.23161
2.25768
2.04787
2.06859
1.90562
1.92202
1.79576
1.80802
1.71077
1.71973
1.64288
1.64958
1.58767
1.59246
1.54433
1.54737
1.51353
1.515
1.49471
1.49474
1.48549
1.48467
1.48267
1.48183
1.48006
1.47985
1.4665
1.46763
1.42968
1.43313
1.36438
1.37053
1.27962
1.28769
1.19421
1.2028
1.12332
1.1315
1.07056
1.07826
1.02826
1.03621
0.987649
0.995705
0.950683
0.958344
0.917224
0.924344
0.884833
0.891539
)
;
    }
}


// ************************************************************************* //
