/*--------------------------------*- C++ -*----------------------------------*\
  =========                 |
  \\      /  F ield         | OpenFOAM: The Open Source CFD Toolbox
   \\    /   O peration     | Website:  https://openfoam.org
    \\  /    A nd           | Version:  8
     \\/     M anipulation  |
\*---------------------------------------------------------------------------*/
FoamFile
{
    version     2.0;
    format      ascii;
    class       volScalarField;
    location    "600";
    object      k;
}
// * * * * * * * * * * * * * * * * * * * * * * * * * * * * * * * * * * * * * //

dimensions      [0 2 -2 0 0 0 0];

internalField   nonuniform List<scalar> 
1200
(
0.803251
0.676192
0.57882
0.502548
0.4417
0.392388
0.351851
0.318101
0.289698
0.265608
0.245035
0.227322
0.21196
0.198557
0.1868
0.17643
0.167211
0.158973
0.151644
0.144978
0.138816
0.133038
0.12756
0.122382
0.117531
0.113001
0.109346
0.108448
0.111054
0.112859
0.1109
0.1056
0.0986107
0.0914159
0.0849103
0.0794162
0.074963
0.0714209
0.0686161
0.0664049
0.0646153
0.0631416
0.061969
0.0611246
0.0606016
0.0603436
0.0602669
0.0602028
0.0598503
0.0588724
0.0570995
0.0547363
0.0522847
0.0501953
0.0486096
0.0473283
0.0460788
0.0449203
0.0438562
0.0428155
0.695244
0.512664
0.39139
0.307415
0.247209
0.202707
0.16896
0.142819
0.122276
0.105868
0.0925585
0.0816273
0.0725475
0.0649276
0.0584589
0.0528064
0.0477503
0.043391
0.0397822
0.0369956
0.03494
0.0333982
0.0322331
0.0308759
0.0292134
0.0279888
0.0282285
0.0312057
0.0357078
0.0397136
0.0415668
0.0406269
0.0375434
0.0333975
0.0290982
0.0252268
0.0220935
0.019737
0.0179688
0.0165656
0.0154014
0.0144037
0.0135332
0.0127682
0.0120963
0.0115127
0.0110192
0.0106193
0.010306
0.0100583
0.00984607
0.00964131
0.00942831
0.00920532
0.00899757
0.00891663
0.00908551
0.00931394
0.00953428
0.00954605
0.694934
0.510981
0.388907
0.304408
0.243885
0.199265
0.165535
0.139459
0.11893
0.102517
0.0892181
0.0783074
0.0692535
0.0616659
0.0552477
0.049764
0.0450468
0.0409678
0.037417
0.0343156
0.031602
0.0292177
0.0271126
0.0251901
0.023403
0.0218256
0.0206122
0.0200663
0.0203239
0.0208635
0.0211058
0.0208888
0.0202985
0.0194588
0.0184924
0.0175132
0.0166541
0.0158963
0.015206
0.0145607
0.0139542
0.013379
0.0128241
0.012287
0.0117685
0.0112704
0.010789
0.0103233
0.00988501
0.00948594
0.00912148
0.00877786
0.00845026
0.00814581
0.00787492
0.00764623
0.00747747
0.00734336
0.00722883
0.0070724
0.694933
0.511435
0.389571
0.305145
0.244593
0.199897
0.166083
0.139934
0.11934
0.102868
0.0895141
0.0785547
0.0694578
0.0618322
0.0553822
0.0498822
0.0451583
0.0410743
0.0375156
0.0343809
0.0315893
0.0290844
0.0268387
0.0248319
0.0230436
0.0214726
0.0201157
0.018983
0.0180943
0.0173799
0.0167074
0.0160095
0.0152776
0.0145326
0.0137911
0.0131059
0.0124694
0.011865
0.0112921
0.0107463
0.0102277
0.00973945
0.00926306
0.00881133
0.00838088
0.00797557
0.00764612
0.00744199
0.00734366
0.00729655
0.00725153
0.00718373
0.00708881
0.00696989
0.00683407
0.00668775
0.00654595
0.00643388
0.00634854
0.0062478
0.694932
0.511442
0.389502
0.305029
0.244452
0.199746
0.165936
0.139803
0.119229
0.102779
0.089442
0.0784962
0.06941
0.0617913
0.0553458
0.0498496
0.0451313
0.0410559
0.0375072
0.034386
0.0316311
0.0292322
0.0272013
0.0255116
0.024087
0.022811
0.0215709
0.0203626
0.0192106
0.0181503
0.0171828
0.0162919
0.0154662
0.0146992
0.0139836
0.0133091
0.0126723
0.0120725
0.0115139
0.0110057
0.0105491
0.0101294
0.0097288
0.00933816
0.00895097
0.00858694
0.00829464
0.00809361
0.00795006
0.0078216
0.00768147
0.00752146
0.00734315
0.00714929
0.00694468
0.00673413
0.00652402
0.00631922
0.00613044
0.00595219
0.694932
0.511454
0.389508
0.305034
0.244452
0.199737
0.165921
0.139785
0.119214
0.102769
0.0894368
0.0784935
0.0694081
0.0617895
0.0553451
0.0498539
0.0451463
0.0410904
0.0375901
0.0346132
0.0321931
0.0303338
0.0289194
0.0277741
0.0266537
0.0253082
0.0237475
0.0221879
0.0207473
0.0194543
0.0183068
0.0172868
0.016377
0.0155626
0.0148315
0.0141738
0.0135843
0.0130638
0.012607
0.0121987
0.0118192
0.0114441
0.0110644
0.0106833
0.0103023
0.00992255
0.00954904
0.00919695
0.00887038
0.00856198
0.00826146
0.00795561
0.00764189
0.0073331
0.00704127
0.00676844
0.00651554
0.00628439
0.00607338
0.00587669
0.694931
0.511488
0.389616
0.305199
0.244645
0.199931
0.166112
0.139968
0.119378
0.10291
0.0895574
0.0785952
0.0694939
0.0618613
0.0554038
0.0499008
0.0451882
0.0411581
0.0378115
0.0352774
0.0336645
0.0328667
0.0324848
0.0320452
0.0309619
0.029024
0.0267086
0.0245197
0.0226859
0.021172
0.0199178
0.0188635
0.0179571
0.017159
0.0164403
0.0157786
0.0151589
0.0145712
0.0140063
0.0134569
0.0129191
0.0123908
0.0118762
0.0113805
0.0109067
0.0104581
0.0100302
0.00961088
0.00918895
0.00877367
0.0083756
0.00796972
0.00757057
0.00724332
0.00696937
0.00669335
0.00640807
0.00613725
0.00589614
0.00567737
0.694932
0.511056
0.38897
0.304465
0.243919
0.199265
0.165511
0.139437
0.118921
0.102524
0.0892327
0.0783215
0.0692625
0.0616669
0.0552421
0.0497677
0.0450809
0.0411041
0.0380197
0.0362913
0.0362795
0.037827
0.0398423
0.0407808
0.0395912
0.036167
0.0317698
0.0278044
0.0250512
0.0230243
0.0214201
0.0200771
0.0189076
0.0178618
0.0169083
0.016024
0.0151917
0.0143991
0.0136405
0.0129167
0.0122341
0.0116046
0.0110314
0.0105101
0.0100319
0.00956687
0.00910273
0.00864314
0.00817034
0.00769983
0.00729551
0.00712466
0.00724248
0.00739024
0.00731533
0.00697435
0.00648865
0.00600137
0.00557768
0.00522939
0.695244
0.512638
0.391248
0.307175
0.246858
0.202312
0.168584
0.142453
0.121815
0.105265
0.0918156
0.0807583
0.0715485
0.063785
0.0572034
0.0515961
0.0467857
0.0426393
0.0391356
0.0364925
0.0350864
0.0352053
0.037169
0.0425482
0.0525248
0.057298
0.0571755
0.0529256
0.0465311
0.0408999
0.0364703
0.0334328
0.0313603
0.0297834
0.0284325
0.0271812
0.0259525
0.0246867
0.0233471
0.0219241
0.0203871
0.0187187
0.0171608
0.0157948
0.0146168
0.0136088
0.0127375
0.0119722
0.0112978
0.0107312
0.0103093
0.01001
0.00993766
0.00984776
0.00932958
0.00833456
0.00712346
0.00602365
0.0052374
0.00471019
0.803296
0.676343
0.578928
0.502632
0.441753
0.392394
0.351845
0.318126
0.289787
0.265738
0.245158
0.227403
0.211978
0.198475
0.186521
0.175841
0.166262
0.15754
0.149329
0.141455
0.134155
0.128033
0.123463
0.119485
0.12392
0.129605
0.127415
0.121298
0.114713
0.109073
0.104182
0.0993233
0.0944462
0.0896618
0.0850607
0.0806339
0.0762778
0.071857
0.0672719
0.0625013
0.0575808
0.0524711
0.047285
0.0424579
0.038261
0.0347908
0.0320595
0.0300794
0.028857
0.0283777
0.0284252
0.0282924
0.0270309
0.0244755
0.0211384
0.017782
0.0149573
0.0129085
0.0115266
0.0108022
0.803305
0.676434
0.578994
0.502653
0.441731
0.392341
0.351753
0.318047
0.289739
0.265684
0.245086
0.22734
0.211954
0.198532
0.186753
0.176354
0.167112
0.158926
0.151654
0.14501
0.13885
0.133069
0.127612
0.122429
0.117586
0.113101
0.109315
0.107818
0.110008
0.112203
0.110913
0.106124
0.0993829
0.0922294
0.0856499
0.0800418
0.075476
0.0718377
0.0689371
0.0666446
0.0647993
0.0632786
0.0620601
0.0611734
0.0606111
0.060327
0.0602453
0.0601951
0.0598769
0.0589606
0.0572635
0.0549594
0.0525305
0.0504357
0.0488408
0.0475704
0.0463336
0.0451678
0.0440898
0.0430391
0.695246
0.512689
0.391254
0.307142
0.246851
0.202393
0.168763
0.142752
0.122236
0.105756
0.092361
0.0813608
0.0722355
0.0645674
0.0580039
0.052325
0.047448
0.043245
0.0397303
0.0370024
0.0349619
0.0334155
0.0321875
0.0307698
0.0289849
0.0276507
0.0277397
0.0304929
0.0349528
0.0390733
0.0412246
0.040637
0.0378242
0.0338231
0.0295554
0.0256329
0.0223988
0.0199363
0.018098
0.0166543
0.0154653
0.0144509
0.0135686
0.0127947
0.0121154
0.0115245
0.0110231
0.0106145
0.0102929
0.0100387
0.00982304
0.00961783
0.00940654
0.0091865
0.00898022
0.00888856
0.00905099
0.00929315
0.00953641
0.00956924
0.694934
0.511121
0.389026
0.304492
0.243927
0.199266
0.165494
0.139417
0.11892
0.102527
0.0892243
0.0783026
0.0692393
0.0616413
0.055212
0.0497325
0.0450288
0.0409613
0.0374172
0.0343194
0.0316079
0.0292247
0.0271105
0.0251574
0.0233439
0.0217496
0.0204956
0.0198664
0.0200763
0.020658
0.0209795
0.0208199
0.0202605
0.0194383
0.0184783
0.0174854
0.0165976
0.0158184
0.015116
0.0144681
0.0138675
0.0133015
0.0127578
0.0122322
0.0117227
0.0112317
0.0107581
0.0102983
0.00986052
0.00945909
0.00909391
0.00875238
0.00842787
0.00812575
0.007856
0.00762706
0.00745705
0.0073259
0.00721684
0.00706674
0.694932
0.511523
0.389647
0.305208
0.24464
0.199919
0.166069
0.139919
0.119346
0.102893
0.0895399
0.0785726
0.0694681
0.0618342
0.0553787
0.0498786
0.0451577
0.0410765
0.0375182
0.0343814
0.0315854
0.0290778
0.0268364
0.0248424
0.0230729
0.0215192
0.0201756
0.0190497
0.0181529
0.0174195
0.0167302
0.0160242
0.0152987
0.0145609
0.0138167
0.013108
0.0124551
0.011843
0.0112623
0.010707
0.0101838
0.00969656
0.00924104
0.00880699
0.0083873
0.00798428
0.00763835
0.00740511
0.00728494
0.00723112
0.00719061
0.00713167
0.00704504
0.00693221
0.00680052
0.00665679
0.00651514
0.00640109
0.00631683
0.00621949
0.694931
0.511499
0.389563
0.305085
0.244499
0.199779
0.165934
0.139793
0.119233
0.102795
0.0894599
0.0785075
0.0694146
0.0617904
0.055342
0.0498471
0.0451322
0.0410592
0.0375109
0.0343893
0.0316385
0.0292574
0.0272604
0.0256107
0.024213
0.0229218
0.0216542
0.0204232
0.019258
0.0181891
0.0172151
0.0163195
0.0154904
0.0147193
0.0139981
0.0133182
0.0126776
0.0120791
0.0115286
0.011032
0.0105882
0.0101793
0.00978506
0.00939587
0.00900439
0.00861358
0.00828192
0.00804559
0.0078855
0.00775772
0.00762789
0.00748033
0.00731195
0.00712478
0.0069248
0.00671773
0.00651017
0.00630683
0.00611801
0.00593962
0.69493
0.511485
0.389547
0.305062
0.244475
0.199758
0.165917
0.139776
0.119216
0.102778
0.0894471
0.0784988
0.0694092
0.0617889
0.0553447
0.0498551
0.04515
0.0410968
0.0376019
0.034642
0.0322583
0.0304474
0.0290746
0.0279499
0.0267815
0.0253484
0.0237323
0.0221604
0.020722
0.019436
0.0182964
0.0172849
0.0163833
0.0155763
0.0148522
0.0142027
0.0136242
0.0131159
0.0126691
0.0122673
0.0118885
0.0115104
0.0111258
0.0107373
0.0103472
0.0099614
0.00958024
0.00921465
0.00887339
0.00855393
0.00824957
0.00794717
0.0076385
0.00733218
0.00704073
0.00676762
0.00651398
0.00628173
0.0060696
0.00587196
0.694931
0.51151
0.389657
0.305229
0.244674
0.199967
0.166121
0.139964
0.119381
0.10292
0.0895683
0.078601
0.0694949
0.0618597
0.0554022
0.0499013
0.0451928
0.0411707
0.0378494
0.0353751
0.0338545
0.0331485
0.0328144
0.0323554
0.0310657
0.0289487
0.0265733
0.0244087
0.0226136
0.0211356
0.01991
0.0188765
0.0179836
0.0171931
0.0164773
0.0158156
0.0151938
0.0146028
0.0140335
0.0134784
0.0129342
0.0124002
0.0118809
0.0113807
0.0109028
0.010451
0.0100236
0.00960997
0.00919817
0.00878711
0.0083887
0.00798653
0.0075858
0.00725028
0.00697305
0.00669881
0.00641497
0.00614349
0.00590071
0.00568116
0.694934
0.511036
0.388967
0.304455
0.243921
0.199283
0.165513
0.139432
0.118922
0.102531
0.0892395
0.0783256
0.0692644
0.0616671
0.0552423
0.04977
0.0450872
0.041125
0.0381036
0.0365258
0.036742
0.0385111
0.0405931
0.0413571
0.0396981
0.0358393
0.0313315
0.0275189
0.0248868
0.0229292
0.0213614
0.0200369
0.0188769
0.0178366
0.0168862
0.0160027
0.0151689
0.0143731
0.0136105
0.0128829
0.012198
0.011568
0.0109953
0.0104756
0.0100021
0.00955636
0.00911411
0.00866831
0.00820574
0.00773514
0.00731378
0.00710312
0.00719845
0.00735692
0.00731067
0.0069941
0.00651857
0.0060302
0.00560148
0.00524772
0.695246
0.512654
0.391311
0.307249
0.246966
0.202414
0.168605
0.1424
0.121735
0.105168
0.0916723
0.0805901
0.0713881
0.0636688
0.0571356
0.0515613
0.0467707
0.0426367
0.0391627
0.0366171
0.0354174
0.0358792
0.0385064
0.0454079
0.0545009
0.0577132
0.056787
0.0529023
0.0468335
0.0412554
0.0367632
0.0335765
0.0314175
0.0298188
0.0284703
0.0272194
0.0259896
0.0247306
0.023409
0.0220116
0.020506
0.0188556
0.0172781
0.0158872
0.0146822
0.0136493
0.0127609
0.0119851
0.0113024
0.0107246
0.01029
0.00998698
0.00990834
0.00984748
0.00937805
0.00841834
0.0072129
0.00609296
0.00527761
0.00473422
0.803268
0.676285
0.578941
0.502654
0.441785
0.392441
0.351866
0.318137
0.289809
0.265771
0.245192
0.227363
0.211823
0.198196
0.186176
0.175516
0.165996
0.157299
0.149055
0.141148
0.133932
0.128053
0.123738
0.119615
0.121894
0.128269
0.127351
0.121839
0.115378
0.109655
0.104717
0.0998681
0.094993
0.0901925
0.0855611
0.0811022
0.0767238
0.0722959
0.0677165
0.0629578
0.0580485
0.0529487
0.0477519
0.0428839
0.0386321
0.0351029
0.0323156
0.0302817
0.0290054
0.0284757
0.0284966
0.0283911
0.0272061
0.0247191
0.0214126
0.0180395
0.0151662
0.0130647
0.0116406
0.0108848
)
;

boundaryField
{
    wall
    {
        type            kqRWallFunction;
        value           nonuniform List<scalar> 
1200
(
0.803251
0.695244
0.694934
0.694933
0.694932
0.694932
0.694931
0.694932
0.695244
0.803296
0.676192
0.512664
0.510981
0.511435
0.511442
0.511454
0.511488
0.511056
0.512638
0.676343
0.57882
0.39139
0.388907
0.389571
0.389502
0.389508
0.389616
0.38897
0.391248
0.578928
0.502548
0.307415
0.304408
0.305145
0.305029
0.305034
0.305199
0.304465
0.307175
0.502632
0.4417
0.247209
0.243885
0.244593
0.244452
0.244452
0.244645
0.243919
0.246858
0.441753
0.392388
0.202707
0.199265
0.199897
0.199746
0.199737
0.199931
0.199265
0.202312
0.392394
0.351851
0.16896
0.165535
0.166083
0.165936
0.165921
0.166112
0.165511
0.168584
0.351845
0.318101
0.142819
0.139459
0.139934
0.139803
0.139785
0.139968
0.139437
0.142453
0.318126
0.289698
0.122276
0.11893
0.11934
0.119229
0.119214
0.119378
0.118921
0.121815
0.289787
0.265608
0.105868
0.102517
0.102868
0.102779
0.102769
0.10291
0.102524
0.105265
0.265738
0.245035
0.0925585
0.0892181
0.0895141
0.089442
0.0894368
0.0895574
0.0892327
0.0918156
0.245158
0.227322
0.0816273
0.0783074
0.0785547
0.0784962
0.0784935
0.0785952
0.0783215
0.0807583
0.227403
0.21196
0.0725475
0.0692535
0.0694578
0.06941
0.0694081
0.0694939
0.0692625
0.0715485
0.211978
0.198557
0.0649276
0.0616659
0.0618322
0.0617913
0.0617895
0.0618613
0.0616669
0.063785
0.198475
0.1868
0.0584589
0.0552477
0.0553822
0.0553458
0.0553451
0.0554038
0.0552421
0.0572034
0.186521
0.17643
0.0528064
0.049764
0.0498822
0.0498496
0.0498539
0.0499008
0.0497677
0.0515961
0.175841
0.167211
0.0477503
0.0450468
0.0451583
0.0451313
0.0451463
0.0451882
0.0450809
0.0467857
0.166262
0.158973
0.043391
0.0409678
0.0410743
0.0410559
0.0410904
0.0411581
0.0411041
0.0426393
0.15754
0.151644
0.0397822
0.037417
0.0375156
0.0375072
0.0375901
0.0378115
0.0380197
0.0391356
0.149329
0.144978
0.0369956
0.0343156
0.0343809
0.034386
0.0346132
0.0352774
0.0362913
0.0364925
0.141455
0.138816
0.03494
0.031602
0.0315893
0.0316311
0.0321931
0.0336645
0.0362795
0.0350864
0.134155
0.133038
0.0333982
0.0292177
0.0290844
0.0292322
0.0303338
0.0328667
0.037827
0.0352053
0.128033
0.12756
0.0322331
0.0271126
0.0268387
0.0272013
0.0289194
0.0324848
0.0398423
0.037169
0.123463
0.122382
0.0308759
0.0251901
0.0248319
0.0255116
0.0277741
0.0320452
0.0407808
0.0425482
0.119485
0.117531
0.0292134
0.023403
0.0230436
0.024087
0.0266537
0.0309619
0.0395912
0.0525248
0.12392
0.113001
0.0279888
0.0218256
0.0214726
0.022811
0.0253082
0.029024
0.036167
0.057298
0.129605
0.109346
0.0282285
0.0206122
0.0201157
0.0215709
0.0237475
0.0267086
0.0317698
0.0571755
0.127415
0.108448
0.0312057
0.0200663
0.018983
0.0203626
0.0221879
0.0245197
0.0278044
0.0529256
0.121298
0.111054
0.0357078
0.0203239
0.0180943
0.0192106
0.0207473
0.0226859
0.0250512
0.0465311
0.114713
0.112859
0.0397136
0.0208635
0.0173799
0.0181503
0.0194543
0.021172
0.0230243
0.0408999
0.109073
0.1109
0.0415668
0.0211058
0.0167074
0.0171828
0.0183068
0.0199178
0.0214201
0.0364703
0.104182
0.1056
0.0406269
0.0208888
0.0160095
0.0162919
0.0172868
0.0188635
0.0200771
0.0334328
0.0993233
0.0986107
0.0375434
0.0202985
0.0152776
0.0154662
0.016377
0.0179571
0.0189076
0.0313603
0.0944462
0.0914159
0.0333975
0.0194588
0.0145326
0.0146992
0.0155626
0.017159
0.0178618
0.0297834
0.0896618
0.0849103
0.0290982
0.0184924
0.0137911
0.0139836
0.0148315
0.0164403
0.0169083
0.0284325
0.0850607
0.0794162
0.0252268
0.0175132
0.0131059
0.0133091
0.0141738
0.0157786
0.016024
0.0271812
0.0806339
0.074963
0.0220935
0.0166541
0.0124694
0.0126723
0.0135843
0.0151589
0.0151917
0.0259525
0.0762778
0.0714209
0.019737
0.0158963
0.011865
0.0120725
0.0130638
0.0145712
0.0143991
0.0246867
0.071857
0.0686161
0.0179688
0.015206
0.0112921
0.0115139
0.012607
0.0140063
0.0136405
0.0233471
0.0672719
0.0664049
0.0165656
0.0145607
0.0107463
0.0110057
0.0121987
0.0134569
0.0129167
0.0219241
0.0625013
0.0646153
0.0154014
0.0139542
0.0102277
0.0105491
0.0118192
0.0129191
0.0122341
0.0203871
0.0575808
0.0631416
0.0144037
0.013379
0.00973945
0.0101294
0.0114441
0.0123908
0.0116046
0.0187187
0.0524711
0.061969
0.0135332
0.0128241
0.00926306
0.0097288
0.0110644
0.0118762
0.0110314
0.0171608
0.047285
0.0611246
0.0127682
0.012287
0.00881133
0.00933816
0.0106833
0.0113805
0.0105101
0.0157948
0.0424579
0.0606016
0.0120963
0.0117685
0.00838088
0.00895097
0.0103023
0.0109067
0.0100319
0.0146168
0.038261
0.0603436
0.0115127
0.0112704
0.00797557
0.00858694
0.00992255
0.0104581
0.00956687
0.0136088
0.0347908
0.0602669
0.0110192
0.010789
0.00764612
0.00829464
0.00954904
0.0100302
0.00910273
0.0127375
0.0320595
0.0602028
0.0106193
0.0103233
0.00744199
0.00809361
0.00919695
0.00961088
0.00864314
0.0119722
0.0300794
0.0598503
0.010306
0.00988501
0.00734366
0.00795006
0.00887038
0.00918895
0.00817034
0.0112978
0.028857
0.0588724
0.0100583
0.00948594
0.00729655
0.0078216
0.00856198
0.00877367
0.00769983
0.0107312
0.0283777
0.0570995
0.00984607
0.00912148
0.00725153
0.00768147
0.00826146
0.0083756
0.00729551
0.0103093
0.0284252
0.0547363
0.00964131
0.00877786
0.00718373
0.00752146
0.00795561
0.00796972
0.00712466
0.01001
0.0282924
0.0522847
0.00942831
0.00845026
0.00708881
0.00734315
0.00764189
0.00757057
0.00724248
0.00993766
0.0270309
0.0501953
0.00920532
0.00814581
0.00696989
0.00714929
0.0073331
0.00724332
0.00739024
0.00984776
0.0244755
0.0486096
0.00899757
0.00787492
0.00683407
0.00694468
0.00704127
0.00696937
0.00731533
0.00932958
0.0211384
0.0473283
0.00891663
0.00764623
0.00668775
0.00673413
0.00676844
0.00669335
0.00697435
0.00833456
0.017782
0.0460788
0.00908551
0.00747747
0.00654595
0.00652402
0.00651554
0.00640807
0.00648865
0.00712346
0.0149573
0.0449203
0.00931394
0.00734336
0.00643388
0.00631922
0.00628439
0.00613725
0.00600137
0.00602365
0.0129085
0.0438562
0.00953428
0.00722883
0.00634854
0.00613044
0.00607338
0.00589614
0.00557768
0.0052374
0.0115266
0.0428155
0.00954605
0.0070724
0.0062478
0.00595219
0.00587669
0.00567737
0.00522939
0.00471019
0.0108022
0.803305
0.695246
0.694934
0.694932
0.694931
0.69493
0.694931
0.694934
0.695246
0.803268
0.676434
0.512689
0.511121
0.511523
0.511499
0.511485
0.51151
0.511036
0.512654
0.676285
0.578994
0.391254
0.389026
0.389647
0.389563
0.389547
0.389657
0.388967
0.391311
0.578941
0.502653
0.307142
0.304492
0.305208
0.305085
0.305062
0.305229
0.304455
0.307249
0.502654
0.441731
0.246851
0.243927
0.24464
0.244499
0.244475
0.244674
0.243921
0.246966
0.441785
0.392341
0.202393
0.199266
0.199919
0.199779
0.199758
0.199967
0.199283
0.202414
0.392441
0.351753
0.168763
0.165494
0.166069
0.165934
0.165917
0.166121
0.165513
0.168605
0.351866
0.318047
0.142752
0.139417
0.139919
0.139793
0.139776
0.139964
0.139432
0.1424
0.318137
0.289739
0.122236
0.11892
0.119346
0.119233
0.119216
0.119381
0.118922
0.121735
0.289809
0.265684
0.105756
0.102527
0.102893
0.102795
0.102778
0.10292
0.102531
0.105168
0.265771
0.245086
0.092361
0.0892243
0.0895399
0.0894599
0.0894471
0.0895683
0.0892395
0.0916723
0.245192
0.22734
0.0813608
0.0783026
0.0785726
0.0785075
0.0784988
0.078601
0.0783256
0.0805901
0.227363
0.211954
0.0722355
0.0692393
0.0694681
0.0694146
0.0694092
0.0694949
0.0692644
0.0713881
0.211823
0.198532
0.0645674
0.0616413
0.0618342
0.0617904
0.0617889
0.0618597
0.0616671
0.0636688
0.198196
0.186753
0.0580039
0.055212
0.0553787
0.055342
0.0553447
0.0554022
0.0552423
0.0571356
0.186176
0.176354
0.052325
0.0497325
0.0498786
0.0498471
0.0498551
0.0499013
0.04977
0.0515613
0.175516
0.167112
0.047448
0.0450288
0.0451577
0.0451322
0.04515
0.0451928
0.0450872
0.0467707
0.165996
0.158926
0.043245
0.0409613
0.0410765
0.0410592
0.0410968
0.0411707
0.041125
0.0426367
0.157299
0.151654
0.0397303
0.0374172
0.0375182
0.0375109
0.0376019
0.0378494
0.0381036
0.0391627
0.149055
0.14501
0.0370024
0.0343194
0.0343814
0.0343893
0.034642
0.0353751
0.0365258
0.0366171
0.141148
0.13885
0.0349619
0.0316079
0.0315854
0.0316385
0.0322583
0.0338545
0.036742
0.0354174
0.133932
0.133069
0.0334155
0.0292247
0.0290778
0.0292574
0.0304474
0.0331485
0.0385111
0.0358792
0.128053
0.127612
0.0321875
0.0271105
0.0268364
0.0272604
0.0290746
0.0328144
0.0405931
0.0385064
0.123738
0.122429
0.0307698
0.0251574
0.0248424
0.0256107
0.0279499
0.0323554
0.0413571
0.0454079
0.119615
0.117586
0.0289849
0.0233439
0.0230729
0.024213
0.0267815
0.0310657
0.0396981
0.0545009
0.121894
0.113101
0.0276507
0.0217496
0.0215192
0.0229218
0.0253484
0.0289487
0.0358393
0.0577132
0.128269
0.109315
0.0277397
0.0204956
0.0201756
0.0216542
0.0237323
0.0265733
0.0313315
0.056787
0.127351
0.107818
0.0304929
0.0198664
0.0190497
0.0204232
0.0221604
0.0244087
0.0275189
0.0529023
0.121839
0.110008
0.0349528
0.0200763
0.0181529
0.019258
0.020722
0.0226136
0.0248868
0.0468335
0.115378
0.112203
0.0390733
0.020658
0.0174195
0.0181891
0.019436
0.0211356
0.0229292
0.0412554
0.109655
0.110913
0.0412246
0.0209795
0.0167302
0.0172151
0.0182964
0.01991
0.0213614
0.0367632
0.104717
0.106124
0.040637
0.0208199
0.0160242
0.0163195
0.0172849
0.0188765
0.0200369
0.0335765
0.0998681
0.0993829
0.0378242
0.0202605
0.0152987
0.0154904
0.0163833
0.0179836
0.0188769
0.0314175
0.094993
0.0922294
0.0338231
0.0194383
0.0145609
0.0147193
0.0155763
0.0171931
0.0178366
0.0298188
0.0901925
0.0856499
0.0295554
0.0184783
0.0138167
0.0139981
0.0148522
0.0164773
0.0168862
0.0284703
0.0855611
0.0800418
0.0256329
0.0174854
0.013108
0.0133182
0.0142027
0.0158156
0.0160027
0.0272194
0.0811022
0.075476
0.0223988
0.0165976
0.0124551
0.0126776
0.0136242
0.0151938
0.0151689
0.0259896
0.0767238
0.0718377
0.0199363
0.0158184
0.011843
0.0120791
0.0131159
0.0146028
0.0143731
0.0247306
0.0722959
0.0689371
0.018098
0.015116
0.0112623
0.0115286
0.0126691
0.0140335
0.0136105
0.023409
0.0677165
0.0666446
0.0166543
0.0144681
0.010707
0.011032
0.0122673
0.0134784
0.0128829
0.0220116
0.0629578
0.0647993
0.0154653
0.0138675
0.0101838
0.0105882
0.0118885
0.0129342
0.012198
0.020506
0.0580485
0.0632786
0.0144509
0.0133015
0.00969656
0.0101793
0.0115104
0.0124002
0.011568
0.0188556
0.0529487
0.0620601
0.0135686
0.0127578
0.00924104
0.00978506
0.0111258
0.0118809
0.0109953
0.0172781
0.0477519
0.0611734
0.0127947
0.0122322
0.00880699
0.00939587
0.0107373
0.0113807
0.0104756
0.0158872
0.0428839
0.0606111
0.0121154
0.0117227
0.0083873
0.00900439
0.0103472
0.0109028
0.0100021
0.0146822
0.0386321
0.060327
0.0115245
0.0112317
0.00798428
0.00861358
0.0099614
0.010451
0.00955636
0.0136493
0.0351029
0.0602453
0.0110231
0.0107581
0.00763835
0.00828192
0.00958024
0.0100236
0.00911411
0.0127609
0.0323156
0.0601951
0.0106145
0.0102983
0.00740511
0.00804559
0.00921465
0.00960997
0.00866831
0.0119851
0.0302817
0.0598769
0.0102929
0.00986052
0.00728494
0.0078855
0.00887339
0.00919817
0.00820574
0.0113024
0.0290054
0.0589606
0.0100387
0.00945909
0.00723112
0.00775772
0.00855393
0.00878711
0.00773514
0.0107246
0.0284757
0.0572635
0.00982304
0.00909391
0.00719061
0.00762789
0.00824957
0.0083887
0.00731378
0.01029
0.0284966
0.0549594
0.00961783
0.00875238
0.00713167
0.00748033
0.00794717
0.00798653
0.00710312
0.00998698
0.0283911
0.0525305
0.00940654
0.00842787
0.00704504
0.00731195
0.0076385
0.0075858
0.00719845
0.00990834
0.0272061
0.0504357
0.0091865
0.00812575
0.00693221
0.00712478
0.00733218
0.00725028
0.00735692
0.00984748
0.0247191
0.0488408
0.00898022
0.007856
0.00680052
0.0069248
0.00704073
0.00697305
0.00731067
0.00937805
0.0214126
0.0475704
0.00888856
0.00762706
0.00665679
0.00671773
0.00676762
0.00669881
0.0069941
0.00841834
0.0180395
0.0463336
0.00905099
0.00745705
0.00651514
0.00651017
0.00651398
0.00641497
0.00651857
0.0072129
0.0151662
0.0451678
0.00929315
0.0073259
0.00640109
0.00630683
0.00628173
0.00614349
0.0060302
0.00609296
0.0130647
0.0440898
0.00953641
0.00721684
0.00631683
0.00611801
0.0060696
0.00590071
0.00560148
0.00527761
0.0116406
0.0430391
0.00956924
0.00706674
0.00621949
0.00593962
0.00587196
0.00568116
0.00524772
0.00473422
0.0108848
)
;
    }
    inlet
    {
        type            turbulentIntensityKineticEnergyInlet;
        intensity       0.05;
        value           uniform 0.96;
    }
    outlet
    {
        type            inletOutlet;
        inletValue      uniform 0.003;
        value           nonuniform List<scalar> 
20
(
0.0428155
0.00954605
0.0070724
0.0062478
0.00595219
0.00587669
0.00567737
0.00522939
0.00471019
0.0108022
0.0430391
0.00956924
0.00706674
0.00621949
0.00593962
0.00587196
0.00568116
0.00524772
0.00473422
0.0108848
)
;
    }
    heatWall
    {
        type            kqRWallFunction;
        value           nonuniform List<scalar> 
240
(
0.803296
0.803268
0.676343
0.676285
0.578928
0.578941
0.502632
0.502654
0.441753
0.441785
0.392394
0.392441
0.351845
0.351866
0.318126
0.318137
0.289787
0.289809
0.265738
0.265771
0.245158
0.245192
0.227403
0.227363
0.211978
0.211823
0.198475
0.198196
0.186521
0.186176
0.175841
0.175516
0.166262
0.165996
0.15754
0.157299
0.149329
0.149055
0.141455
0.141148
0.134155
0.133932
0.128033
0.128053
0.123463
0.123738
0.119485
0.119615
0.12392
0.121894
0.129605
0.128269
0.127415
0.127351
0.121298
0.121839
0.114713
0.115378
0.109073
0.109655
0.104182
0.104717
0.0993233
0.0998681
0.0944462
0.094993
0.0896618
0.0901925
0.0850607
0.0855611
0.0806339
0.0811022
0.0762778
0.0767238
0.071857
0.0722959
0.0672719
0.0677165
0.0625013
0.0629578
0.0575808
0.0580485
0.0524711
0.0529487
0.047285
0.0477519
0.0424579
0.0428839
0.038261
0.0386321
0.0347908
0.0351029
0.0320595
0.0323156
0.0300794
0.0302817
0.028857
0.0290054
0.0283777
0.0284757
0.0284252
0.0284966
0.0282924
0.0283911
0.0270309
0.0272061
0.0244755
0.0247191
0.0211384
0.0214126
0.017782
0.0180395
0.0149573
0.0151662
0.0129085
0.0130647
0.0115266
0.0116406
0.0108022
0.0108848
0.803251
0.803305
0.676192
0.676434
0.57882
0.578994
0.502548
0.502653
0.4417
0.441731
0.392388
0.392341
0.351851
0.351753
0.318101
0.318047
0.289698
0.289739
0.265608
0.265684
0.245035
0.245086
0.227322
0.22734
0.21196
0.211954
0.198557
0.198532
0.1868
0.186753
0.17643
0.176354
0.167211
0.167112
0.158973
0.158926
0.151644
0.151654
0.144978
0.14501
0.138816
0.13885
0.133038
0.133069
0.12756
0.127612
0.122382
0.122429
0.117531
0.117586
0.113001
0.113101
0.109346
0.109315
0.108448
0.107818
0.111054
0.110008
0.112859
0.112203
0.1109
0.110913
0.1056
0.106124
0.0986107
0.0993829
0.0914159
0.0922294
0.0849103
0.0856499
0.0794162
0.0800418
0.074963
0.075476
0.0714209
0.0718377
0.0686161
0.0689371
0.0664049
0.0666446
0.0646153
0.0647993
0.0631416
0.0632786
0.061969
0.0620601
0.0611246
0.0611734
0.0606016
0.0606111
0.0603436
0.060327
0.0602669
0.0602453
0.0602028
0.0601951
0.0598503
0.0598769
0.0588724
0.0589606
0.0570995
0.0572635
0.0547363
0.0549594
0.0522847
0.0525305
0.0501953
0.0504357
0.0486096
0.0488408
0.0473283
0.0475704
0.0460788
0.0463336
0.0449203
0.0451678
0.0438562
0.0440898
0.0428155
0.0430391
)
;
    }
}


// ************************************************************************* //
