/*--------------------------------*- C++ -*----------------------------------*\
  =========                 |
  \\      /  F ield         | OpenFOAM: The Open Source CFD Toolbox
   \\    /   O peration     | Website:  https://openfoam.org
    \\  /    A nd           | Version:  8
     \\/     M anipulation  |
\*---------------------------------------------------------------------------*/
FoamFile
{
    version     2.0;
    format      ascii;
    class       volScalarField;
    location    "600";
    object      p_rgh;
}
// * * * * * * * * * * * * * * * * * * * * * * * * * * * * * * * * * * * * * //

dimensions      [1 -1 -2 0 0 0 0];

internalField   nonuniform List<scalar> 
1200
(
400085
397113
395601
395095
394699
394196
393789
393636
393861
393860
393409
392868
392392
391845
391145
390271
389417
389028
389419
390473
391974
394237
397264
400654
402346
400549
396734
392947
385774
374014
362222
352295
343290
334273
325284
317230
310055
303626
297704
291866
285981
280762
276061
271995
269421
268136
267406
266853
265944
263338
257146
245890
228803
205719
177716
146027
113173
79156.7
47612.3
12234.9
392935
393533
393599
393748
393792
393642
393402
393275
393562
393586
393199
392734
392312
391796
391112
390238
389374
388930
389229
390198
391648
393951
397058
400788
402850
401116
396932
392195
385257
374553
362993
353240
344465
335486
326355
318061
310801
304304
298404
292523
286456
281211
276537
272405
269889
268689
267938
267392
266716
264443
258505
247359
230252
207075
178978
147232
114279
80217.8
48527.4
12836.8
394162
395395
395549
395309
394983
394517
394017
393828
393956
393952
393522
392955
392456
391893
391191
390336
389500
388980
389110
389962
391375
393801
396961
401096
403371
401228
396160
390454
383005
372448
361416
352147
343585
334572
325382
317367
310284
303853
298116
292292
286019
280682
275990
271690
269113
268057
267517
267182
266790
264791
259069
248054
230865
207328
178653
146461
113502
79612.7
47751.5
13814.8
394156
394668
394525
394229
394024
393804
393448
393260
393468
393540
393200
392704
392253
391729
391058
390215
389354
388723
388649
389294
390544
393082
396381
401387
404543
402188
396111
389380
381955
372441
362409
353548
345115
336088
326759
318445
310956
304164
298285
292499
286089
280753
276090
271549
268867
267923
267599
267499
267432
265799
260403
249609
232469
208765
179759
147119
113514
79445.9
47581.7
14701.5
394213
394635
394723
394588
394446
394254
393865
393573
393626
393632
393308
392806
392321
391757
391043
390174
389259
388490
388241
388784
389946
392678
395982
401313
405821
402910
395670
388109
380692
371865
362473
353767
345181
336100
326953
318675
311173
304345
298296
292344
286025
280621
275753
271333
268767
267730
267104
266943
267298
266177
261211
250824
233882
209921
180287
146983
112897
78664.3
46753.7
13850.1
394201
394579
394691
394566
394438
394296
393917
393602
393593
393578
393287
392803
392290
391681
390901
389930
388866
387886
387343
387623
388318
390770
393562
398886
406880
405220
397190
388189
380164
371668
362833
354339
345729
336662
327547
319144
311532
304582
298274
292108
285823
280291
275323
271045
268620
267852
267892
268549
269177
267919
262647
252087
235135
211059
181011
147086
112486
77977.9
46122.2
13743.4
394123
394476
394401
394118
393937
393857
393516
393224
393230
393254
393039
392622
392128
391523
390739
389729
388545
387385
386621
386695
386642
387936
389485
391530
403570
403330
395179
386229
379016
371616
363675
355540
346801
337471
328169
319621
311957
305002
298564
292176
285700
279879
274756
270661
268579
268116
268475
269272
269785
268332
263301
253802
237853
213606
182628
147676
112257
77155.1
45222.1
13175.1
394128
395095
395282
395048
394807
394627
394215
393835
393678
393566
393299
392868
392338
391692
390867
389800
388496
387157
386121
385827
384655
384115
382589
376144
396657
402658
395588
384919
377587
370558
363093
355344
346725
337495
328342
319864
312181
305116
298469
291908
285358
279464
274354
270445
268744
268748
269438
270383
270988
269325
263442
253042
236711
212717
181900
146821
111311
76291
44936
12844.9
392903
393215
393475
393570
393625
393747
393516
393278
393251
393251
393094
392759
392282
391681
390918
389943
388753
387504
386356
385621
383450
381575
379157
373921
400316
404638
396383
384342
376440
370755
364789
357876
348986
339056
329320
320477
312610
305441
298682
292008
285328
279385
274291
270371
268567
268447
268870
269521
269749
267980
262799
253564
238553
214977
183842
148152
112116
76580.8
44779.1
13149.1
400070
396652
395358
394852
394542
394407
394039
393715
393592
393510
393301
392931
392425
391817
391068
390125
388993
387813
386689
385916
383706
381908
379905
375239
409405
408137
396089
383232
375047
369253
363069
356014
347461
338021
328666
320026
312219
305056
298319
291730
285230
279378
274257
270420
268617
268466
269054
269975
270360
268646
263331
253435
237182
212941
181905
146753
111391
76317.5
44898.9
13387
400304
396580
395298
394873
394628
394559
394454
394068
393474
393118
392960
392794
392481
392074
391605
390995
390315
389877
389799
390221
391533
393725
396429
399276
400852
399918
396874
393241
385335
373010
361202
351541
342850
334087
325321
317345
310393
304149
298268
292283
286092
280451
275576
271519
268937
267510
266492
265820
264997
262383
256218
245115
228312
205638
177909
146528
113745
80032.3
47771.3
13298.7
393005
393242
393440
393622
393752
393924
393966
393646
393199
392892
392763
392643
392367
391995
391559
390959
390280
389848
389747
390110
391368
393560
396273
399359
401295
400372
396941
392470
384840
373368
361439
351658
343066
334342
325487
317383
310445
304216
298381
292368
286010
280343
275459
271309
268782
267449
266429
265768
265140
262812
256880
245880
229041
206224
178325
146875
114025
80304.2
47975.3
13416.1
394283
395083
395272
395107
394890
394711
394591
394328
393706
393313
393140
392943
392594
392173
391701
391129
390500
390053
389843
390100
391296
393567
396292
399830
401981
400656
396407
391034
383121
372149
360967
351671
343170
334276
325200
317230
310352
304107
298367
292382
285822
280079
275170
270852
268247
267014
266210
265826
265542
263504
257772
246888
230003
206903
178500
146548
113601
79940.9
47530.3
14504.2
394263
394521
394444
394227
394062
393944
393915
393699
393294
393032
392912
392759
392440
392050
391599
391039
390443
389959
389587
389639
390659
393060
395971
400332
403179
401489
396176
389745
381911
372123
362050
353166
344735
335764
326501
318257
311049
304543
298723
292775
286062
280267
275284
270733
268098
267042
266502
266330
266279
264522
259074
248383
231510
208193
179414
147055
113508
79648.6
47300.8
15119.7
394332
394606
394695
394601
394455
394268
394259
394073
393605
393240
393047
392856
392528
392151
391744
391260
390730
390213
389693
389586
390427
392930
395764
400371
404439
402019
395532
388294
380516
371463
362058
353361
344843
335871
326802
318593
311290
304670
298619
292525
285930
280087
274979
270591
268029
266843
266012
265860
266285
265023
259950
249588
232873
209307
179908
146860
112815
78802.5
46492.8
14404.7
394335
394657
394747
394671
394539
394312
394296
394153
393721
393343
393104
392882
392557
392187
391773
391268
390705
390095
389329
388944
389289
391476
393765
398368
405700
404130
396525
387713
379413
370894
362247
353862
345350
336416
327390
319047
311585
304806
298507
292238
285696
279672
274451
270195
267754
266848
266689
267325
268081
266714
261395
250924
234213
210491
180611
146889
112256
77916.3
45678.4
14088.3
394263
394612
394445
394194
393997
393776
393760
393672
393370
393093
392895
392702
392436
392127
391778
391346
390825
390160
389108
388308
387710
388693
389747
391011
402250
401958
394187
385465
378055
370697
363021
355006
346319
337066
327800
319278
311718
304908
298470
291993
285290
278963
273618
269563
267500
266969
267264
268173
268750
267102
261855
252228
236420
212586
181860
147200
111807
76960.4
44718.2
13533.7
394292
395424
395510
395336
395072
394634
394531
394373
393935
393499
393161
392863
392540
392172
391742
391218
390609
389855
388607
387443
385733
384993
383101
376465
397023
403378
396101
384554
376417
369259
362070
354469
345959
336848
327737
319281
311693
304787
298180
291580
284849
278438
273129
269218
267507
267559
268240
269256
269924
268179
262288
251926
235756
212087
181398
146455
110755
75826.9
44131.1
13002.5
392988
393400
393527
393714
393776
393654
393718
393682
393418
393132
392886
392643
392368
392028
391608
391088
390469
389630
388158
386543
383825
381592
378541
372806
399115
403482
395473
383320
375085
369314
363491
356620
347914
338202
328556
319743
311970
304988
298323
291659
284849
278372
273068
269192
267389
267292
267775
268587
268881
266858
261295
251638
236478
213286
182525
147252
111188
75859.1
43832.4
12983.9
400233
397004
395457
395043
394724
394281
394191
394041
393661
393281
392969
392686
392387
392013
391542
390947
390222
389265
387718
386025
383304
381201
378701
373613
407335
405922
394439
381708
373351
367626
361791
354906
346475
337180
327910
319323
311626
304647
297983
291371
284727
278353
273055
269302
267520
267342
267964
269059
269568
267700
262198
252192
236070
212241
181397
146413
110789
75762
44063.4
13341.4
)
;

boundaryField
{
    wall
    {
        type            fixedFluxPressure;
        gradient        nonuniform List<scalar> 
1200
(
-44339.3
-14096.3
-24333.3
-21414.1
-23946.6
-26774.9
-28121.4
-32647.5
-17027.3
-32376
107239
58467.4
62847.9
29531.3
5915.02
-15549.4
-27459.8
-66032.6
-37078.1
-70833.2
61021.4
31998
55643.2
16259.3
5678.44
-11204
-8908.75
-45934.2
-10302.3
-19739.7
45079.4
25588
40648.8
339.309
-2727.72
-21370.1
-15463.7
-57977.4
-28933.9
-38405.7
15018.4
8425.48
18920.3
-7494.18
-1900.6
-20334.7
-12390.7
-53696.1
-30551.4
-36794.3
-72343.2
-56220.6
-38469.3
-27700.6
-2498.94
-3125.16
16339.8
-1462.56
18652.3
25488.2
-133410
-113179
-114747
-93566.5
-78772.6
-75771.9
-48955.7
-63502.4
-40442.4
-30484
-86899.3
-74759
-100307
-88393.6
-100397
-110737
-89931.3
-108216
-80930.5
-65277.4
77573.5
72841.3
50207.5
34601.3
4185.39
-26234.7
-28617.1
-51988
-33612.3
-13724
148893
139419
128094
101895
78416.3
46387
31694.5
12721.1
23625.4
46140.3
90480.8
87867.2
76865.2
57804.3
52410.3
36182.9
28215.6
26902.9
41691.2
66831.2
15470.8
18805.3
2566.2
-11044.4
-10062.7
-16330.7
-16761.4
282.953
23417.2
49539.4
-17252.5
-10495.1
-27367.2
-37276.2
-41448.3
-54072.5
-62647.8
-41243.3
-16859.6
8218.34
-45062.4
-39169.1
-55815.6
-64106.1
-79034.5
-102117
-122525
-97070.3
-68747.3
-38646.4
-91495.1
-89069.6
-101932
-108265
-140323
-175751
-210348
-176403
-137218
-93838.8
-144545
-143799
-158374
-164586
-217369
-269731
-327462
-286127
-228142
-163354
-179367
-180602
-199574
-217382
-294660
-370678
-462305
-427380
-342434
-244274
-169388
-182642
-214200
-246868
-345227
-445672
-563456
-547277
-424677
-288431
-75063.4
-101915
-146033
-187242
-290829
-401984
-505998
-506466
-359796
-203811
51739.5
19993.3
-26612.9
-68580.2
-160122
-269634
-328374
-329457
-182542
-18867.5
89571
58081
16855.3
-23042.3
-95830.3
-201021
-216946
-219049
-71932.7
82705.5
103225
79895.5
47750.9
3714.8
-50079.1
-147216
-151833
-179096
2709.38
144489
167685
158212
134415
79129
41817.1
-45369.8
-50085.2
-112200
135961
248377
276811
288135
253915
207991
186631
108651
111514
-119917
231968
326426
301098
313623
278409
268856
275358
251487
272280
-127380
264919
411058
128437
149847
113651
135271
175685
240759
279270
-188168
262861
415522
-23908.5
-1273.8
-50994.3
-17974
26539.8
156534
206235
-119822
187682
314875
-53263.8
-53864.3
-118468
-77294.2
-36526.6
114535
164232
82623.4
202332
302072
88391.1
86174.1
-24887.7
6246.7
36865.5
163522
202195
259819
267180
340117
193750
238795
59769
61474.3
82154.5
163489
191579
283281
283868
326731
194873
310434
90727.1
69178.6
84188.2
122051
136128
221892
255820
256107
144710
314568
94612.3
73323.4
83047.2
98000.3
110550
188797
248315
222880
85303.8
277401
81019.7
73706.7
70304.4
76988.4
98819.7
165411
212336
199207
36633.7
226496
56749.3
64375.2
49161.6
49437.7
82700.7
140832
169750
170171
-6908.65
171261
34682.8
52900.8
32874.3
30451.1
74875.8
132131
152798
152959
-22091.5
134391
27104.1
39035.6
18481.1
17456
69936.4
126855
147440
142180
-66723.1
70795.1
-13398.2
-17553.9
-22660.9
-13160
49820.6
107100
128189
119642
-103968
17787.8
-50493.5
-75121.2
-65200
-47881.1
22047.9
74302.7
89609.2
82822.5
-112365
5125.2
-50300.8
-87094
-64228.5
-49779.9
22941.2
65474.9
70076.1
68173
-83110
31545.4
-18801.2
-55066.9
-35541
-28860.5
40878
72558.3
67862.9
72574.9
-21961
90233.8
39583.4
2320.9
18705.7
23110.5
85983.6
107901
94463.9
101043
62641.6
174729
120936
92859.8
106240
122645
187050
210941
202863
205569
97606.3
216439
163540
158255
154060
173812
231034
249680
245360
241648
95775.7
219862
167712
163934
146517
169215
222439
248879
236881
224593
97146.3
221334
173701
155072
144093
172456
218066
249397
236056
220462
125724
247265
209567
174531
174614
200685
231885
237761
231184
226174
183574
301875
262359
215683
218497
240309
243358
238705
219185
218767
207273
325680
271916
230691
218670
244399
219001
225104
187336
182747
189695
315718
249370
228785
203808
217429
206077
210603
174792
156854
191056
326131
257089
254233
230792
238315
245652
225272
226857
187574
185656
324517
258902
264371
250992
247750
288652
227257
304130
225087
155116
295530
232597
243641
245371
230487
313053
220545
388665
246668
97949.9
242457
171540
190189
199722
182997
283173
188888
415136
220589
16020.4
170955
84357.6
113252
121177
112070
200018
123459
334515
138545
-38847.1
131085
30737.6
67968.8
74871.7
78799.6
150077
98495.3
258645
101093
-100041
70753.8
-15947.3
11831.6
24062.8
38608.9
92234.7
72321.8
176497
68682.8
-114380
50055
-19434.3
703.05
15705.1
45647.2
87744.4
111425
183728
121671
-174669
-17702.4
-65407.1
-40361.9
-28097.6
12695.6
37819.7
94016.8
144129
113193
-32025
109489
44155.6
56198.2
51715.3
89121.3
100991
161038
190090
168285
-211760
-114769
-138876
-83993.7
-111032
-68760.4
-71592.8
-30547.4
34713.3
10653.6
44339.2
14096.3
24333.3
21414.1
23946.6
26774.9
28121.4
32647.5
17027.3
32376
-107262
-58471
-62853.7
-29534.4
-5917.18
15547.7
27458.6
66032.2
37078.6
70840
-61033.7
-31999.1
-55647.4
-16262.2
-5683.45
11195.7
8899.42
45917
10296.9
19737.8
-45070.9
-25582.7
-40646.8
-338.964
2722.8
21350.8
15441.8
57923.7
28918.3
38379.9
-14997.1
-8416.47
-18914.7
7495.78
1893.22
20291.8
12348.1
53576.6
30523.7
36753.5
72382.2
56236.4
38479.1
27703.4
2489.55
3049.46
-16412.1
1230.04
-18719.1
-25582.6
133469
113204
114764
93574.5
78767.9
75695.4
48890.1
63251
40381.1
30409.5
87012.6
74868.5
100331
88436.8
100409
110638
89850
107931
80876.4
65233.8
-77392.4
-72713.5
-50088.4
-34601.1
-4213.38
26018.2
28439.9
51574.5
33526.9
13678.2
-148831
-139367
-128038
-101934
-78494.9
-46726.4
-31992.1
-13273.1
-23739.9
-46173.3
-90455
-87859.5
-76856
-57815.2
-52463.4
-36545.2
-28571.7
-27539
-41794.6
-66816.4
-15440.1
-18795.9
-2556.32
11045.7
10038.9
15967.3
16364
-961.436
-23476.7
-49468.3
17291.7
10507.5
27378.7
37280.6
41422
53628.6
62122.4
40522.1
16861.6
-8100.03
45112.4
39185.8
55829.2
64120.5
78984.9
101507
121719
96263.4
68831.7
38828
91563.4
89094.7
101951
108299
140239
174860
208999
175405
137435
94156
144650
143841
158450
164654
217223
268362
325108
284701
228570
163941
179814
181064
199996
217520
294407
368591
458208
424970
343137
245292
170517
183802
214919
247164
344898
442720
556829
542741
425491
289982
76464.4
103556
146947
187787
290615
398064
497376
499502
360272
205802
-50384.3
-18095.3
27565.5
69221.6
160119
264627
320600
323739
183625
21260.9
-88314.5
-56131.3
-15783.8
23668.5
95746.6
194096
211579
218111
76441.6
-79442.8
-102084
-78040.7
-46559.2
-3699.47
48572.7
137980
148052
181185
8198.55
-139898
-166780
-156630
-133266
-80790.9
-46340.5
35091.3
46558.5
111921
-115528
-241132
-276522
-287111
-253103
-212355
-195091
-117722
-115943
112610
-203010
-318934
-301076
-313620
-277867
-275103
-285790
-253795
-276366
110409
-232628
-408477
-128496
-149889
-113609
-141362
-184394
-230895
-279977
151987
-238758
-418184
23567.3
1174.07
51033.6
13089.5
-29043.1
-138107
-197764
88433.6
-191506
-315888
52185.4
53586
118510
73524
37203.3
-94506
-148979
-89077.4
-202392
-302157
-90067.9
-86988.6
24937.7
-9231.6
-35126.9
-148021
-189570
-242571
-266213
-339895
-195156
-240246
-59736.1
-63937.2
-80467.8
-152497
-182949
-262729
-282963
-326490
-195540
-311917
-90724.7
-71231
-82824.8
-114678
-130969
-204074
-255251
-255725
-144793
-315526
-94631.6
-74660.2
-81904.3
-93345.8
-107926
-173971
-247927
-222329
-85105.9
-277715
-81021.9
-74071.2
-69454.8
-74344.3
-97802.8
-152382
-211937
-198526
-36356.3
-226295
-56700
-64373.6
-48748.6
-48292.1
-82442.8
-128706
-169274
-169429
7180.14
-170723
-34581.2
-52884.8
-32714.9
-30463.3
-74696.1
-120672
-152270
-152216
22325.8
-133675
-27011.9
-39037.3
-17960.8
-18467.2
-69351.6
-116100
-146900
-141467
66916.5
-70090.2
13471.5
17541.2
23269.1
11210
-48519.8
-97108.7
-127660
-118966
104129
-17164.2
50551.6
75102.5
65570.6
45101.3
-19872.3
-65067.5
-89102.7
-82178.1
112520
-4584.7
50369.6
87059.7
64363
46498.5
-19898.2
-56970.4
-69592.9
-67553.1
83258.2
-31066.7
18912.7
54840.8
35373
25667.3
-37115.9
-64700.2
-67401
-71964.6
22106.6
-89800.8
-39447.1
-3907.58
-19582.5
-25674.9
-81840
-100670
-94020.6
-100419
-62492.5
-174334
-120778
-94828.5
-108006
-124421
-182947
-204429
-202455
-204919
-97446.3
-216071
-163339
-158412
-156466
-175035
-227111
-243896
-244981
-241004
-95604.4
-219519
-167533
-163927
-149229
-170016
-218746
-244026
-236526
-223976
-96968.9
-221009
-173546
-155003
-146715
-172841
-214750
-245745
-235738
-219888
-125545
-246936
-209372
-174407
-176403
-200815
-229162
-235983
-230915
-225656
-183399
-301525
-262081
-215471
-218525
-240420
-241419
-238678
-218932
-218301
-207103
-325293
-271554
-230365
-218663
-244397
-218594
-225122
-187114
-182336
-189530
-315277
-248951
-228367
-203811
-217571
-206144
-210660
-174621
-156541
-190896
-325630
-256635
-253793
-230854
-238645
-245766
-225338
-226813
-187434
-185496
-323973
-258407
-263955
-251104
-248183
-288795
-227340
-304361
-225162
-154956
-294988
-232036
-243235
-245510
-231003
-313313
-220926
-389327
-246865
-97807.3
-241992
-170931
-189767
-199886
-183681
-283817
-189994
-416144
-220716
-15914
-170639
-83786.7
-112823
-121337
-112840
-201029
-124798
-335271
-138426
38914.8
-130908
-30315.2
-67553.4
-74950.1
-79358.3
-150922
-99223
-258711
-100696
100063
-70568.5
16110.5
-11473.6
-24018.9
-38781.2
-92527
-72317.5
-176013
-68129.4
114377
-49764.8
19365.5
-465.369
-15564.7
-45540.3
-87536.3
-111047
-183076
-121117
174630
18050.6
65269.9
40435
28237.9
-12555.6
-37397.4
-93562.5
-143533
-112725
31984
-109085
-44270.9
-56173.8
-51590.4
-89013.4
-100591
-160599
-189563
-167900
211662
115110
138799
83987.9
111111
68842.3
71907.1
30942.2
-34322.6
-10405.3
)
;
        value           nonuniform List<scalar> 
1200
(
399972
392900
394101
394102
394153
394134
394052
394047
392860
399989
397383
393680
395553
394743
394650
394540
394407
394929
393122
396473
395755
393680
395689
394566
394738
394663
394378
395166
393449
395309
395209
393813
395412
394230
394581
394512
394079
394902
393497
394756
394739
393815
395031
394005
394441
394387
393905
394671
393548
394449
394016
393502
394422
393735
394248
394289
393898
394624
393794
394472
393454
393118
393730
393214
393668
393728
393393
394056
393415
393963
393417
393086
393576
393037
393321
393324
392998
393564
393076
393552
394055
393744
394082
393554
393636
393526
393158
393547
393166
393558
394233
393936
394273
393796
393828
393693
393332
393597
393310
393626
393637
393420
393715
393345
393440
393378
393109
393366
393199
393469
392908
392782
392962
392676
392781
392761
392579
392869
392819
393056
392350
392287
392388
392160
392217
392154
391970
392235
392241
392447
391734
391700
391754
391569
391559
391425
391214
391448
391511
391722
390917
390890
390937
390787
390692
390460
390209
390425
390577
390835
389910
389880
389941
389804
389630
389253
388905
389081
389374
389718
388968
388923
389001
388811
388521
387936
387381
387420
387898
388384
388603
388473
388444
388106
387625
386768
385969
385778
386442
387093
389230
388974
388744
388180
387513
386333
385354
384848
385459
386181
390602
390250
389896
389121
388383
386943
385877
385004
385173
385873
392198
391793
391417
390484
389705
387810
386102
384100
383274
383912
394495
394150
393920
393087
392554
390403
387563
383654
381588
382273
397683
397453
397296
396574
396090
393454
389371
382261
379481
380522
401348
401512
401732
401911
401797
399195
391834
375725
374438
376034
403103
403640
404069
405223
406533
407555
404264
396226
400970
410432
400876
401493
401512
402531
403365
405853
404033
402146
405273
409129
396689
396930
396028
396067
395738
397588
395686
395343
396845
396861
392832
392064
390151
389186
388016
388467
386626
385189
384839
383985
385998
385482
382939
381969
380783
380563
379513
378272
377097
375899
374481
375160
372594
372593
372070
372068
372093
371279
371452
370071
362687
363774
361637
362581
362684
363131
364016
363648
365417
363710
352642
354024
352375
353732
353979
354578
355819
355813
358488
356575
343496
345152
343782
345301
345362
345917
347051
347136
349512
347964
334363
336043
334712
336254
336227
336782
337680
337846
339479
338450
325267
326773
325471
326896
327036
327619
328358
328672
329702
329051
317176
318391
317439
318545
318721
319184
319798
320180
320846
320383
309890
310974
310253
310912
311114
311497
312085
312447
312928
312519
303367
304346
303728
303974
304181
304461
305061
305300
305660
305264
297423
298417
297991
298062
298136
298149
298625
298631
298852
298490
291658
292601
292244
292354
292254
292037
292280
292088
292172
291912
285926
286681
286118
286089
286069
285883
285915
285626
285560
285481
280920
281648
280984
280985
280886
280601
280347
279990
279890
279892
276307
277078
276397
276486
276137
275760
275335
274976
274903
274863
272236
272952
272109
271961
271696
271470
271218
271066
270961
270982
269665
270439
269548
269248
269124
269052
269124
269367
269154
269169
268451
269304
268582
268349
268168
268355
268697
269341
269023
269033
267866
268693
268174
268131
267659
268494
269083
270035
269418
269601
267372
268209
267863
268074
267500
269162
269820
270943
269993
270429
266419
267507
267414
268006
267813
269722
270304
271508
270192
270748
263816
265260
265437
266438
266758
268516
268952
269881
268557
269113
257611
259318
259720
261066
261842
263270
264029
264008
263574
263894
246279
248100
248639
250220
251441
252668
254589
253596
254553
254051
229049
230862
231296
232945
234383
235597
238562
237189
239601
237733
205760
207507
207540
209048
210224
211340
214105
213029
215811
213286
177619
179308
178732
179928
180474
181209
183001
182150
184480
182156
145776
147407
146425
147146
147042
147183
147904
147005
148585
146924
112886
114401
113456
113514
112935
112601
112473
111593
112569
111696
78719.2
80171
79450.7
79345.2
78592.6
78010.5
77246.8
76528.9
76938.8
76604.1
47530
48796.8
47863
47722.6
46881.9
46345
45473.7
45337.3
45254.6
45322.2
11707.2
12551.9
13465.8
14490.3
13571.3
13570.1
12994.2
12769.4
13238.8
13416.9
400416
393041
394344
394317
394392
394402
394333
394373
393031
400313
396310
393095
394925
394447
394591
394696
394681
395589
393493
397182
395144
393360
395132
394403
394681
394775
394468
395626
393552
395506
394758
393557
395005
394226
394608
394725
394233
395482
393786
395140
394588
393730
394842
394080
394460
394590
394029
395208
393853
394817
394739
394065
394806
394012
394273
394319
393734
394637
393607
394216
394789
394250
394878
394150
394456
394485
393882
394689
393819
394267
394288
393835
394580
393922
394325
394431
393898
394644
393885
394204
393281
393017
393580
393208
393595
393787
393443
394064
393502
393695
392744
392542
392992
392776
393044
393227
393014
393466
393073
393165
392731
392541
392946
392767
392915
393013
392825
393092
392781
392801
392753
392594
392936
392786
392881
392922
392744
392861
392584
392561
392523
392391
392662
392533
392632
392692
392593
392642
392409
392365
392185
392091
392312
392210
392349
392442
392434
392413
392198
392109
391832
391781
391956
391870
392095
392212
392304
392182
391950
391775
391356
391318
391525
391450
391803
391942
392164
391933
391658
391355
390765
390732
391000
390986
391467
391629
391977
391679
391326
390834
390305
390308
390591
390577
391077
391206
391559
391222
390694
389989
389992
390005
390211
390057
390421
390329
390353
389863
389056
388232
390095
390064
390169
389813
389987
389611
389107
388254
386995
386074
391311
391227
391256
390720
390667
389780
388237
386286
384014
383106
393470
393365
393451
393054
393049
391819
389058
385460
381610
380849
396012
395881
395960
395773
395643
393847
389854
383428
378272
378104
398583
398637
399195
399794
399864
398039
390696
376863
372362
372837
400095
400504
401285
402482
403702
405026
401547
397399
398553
406314
399591
399995
400372
401129
401548
403527
401258
403794
402894
404924
396917
396942
396539
396207
395461
396175
393706
396275
395003
393665
393353
392599
391337
389930
388392
387484
385106
384276
382823
380954
385107
384612
383188
381889
380432
379051
377588
375778
374431
372499
372540
372757
372003
371966
371263
370520
370240
368587
368619
366809
360735
360654
360747
361874
361850
361967
362691
361558
362864
361151
351194
350872
351443
352980
353152
353633
354732
354037
356009
354347
342644
342379
342973
344547
344664
345168
346071
345580
347390
345974
333998
333786
334137
335598
335745
336299
336857
336527
337781
336752
325339
325071
325112
326364
326720
327317
327611
327435
328175
327527
317400
317055
317159
318157
318550
319003
319103
318991
319376
318967
310559
310274
310382
311093
311351
311615
311594
311450
311653
311328
304409
304175
304232
304733
304835
304920
304855
304626
304770
304441
298550
298370
298492
298945
298779
298623
298417
298039
298155
297813
292491
292291
292430
292918
292613
292301
291899
291420
291496
291191
286147
285786
285723
286058
285882
285631
285085
284600
284618
284477
280294
279906
279778
280031
279817
279359
278505
277928
277867
277841
275331
274919
274764
274886
274588
274011
273049
272520
272457
272451
271279
270762
270433
270322
270220
269769
269015
268609
268602
268742
268694
268233
267812
267717
267665
267321
266963
266893
266803
266970
267196
266835
266489
266617
266400
266344
266394
266969
266717
266776
266032
265675
265554
265971
265457
266087
266660
267643
267228
267418
265301
264952
265146
265755
265303
266712
267624
268697
268115
268606
264522
264350
264918
265706
265770
267536
268230
269405
268439
269180
261905
261996
262860
263885
264442
266116
266482
267622
266281
267233
255753
256069
257123
258412
259319
260771
261126
261722
260520
261636
244725
245140
246304
247773
248972
250342
251440
251371
250647
251575
228067
228433
229574
231035
232372
233750
235710
235275
235427
235519
205598
205794
206692
207911
209003
210207
212085
211771
212450
211897
178007
177996
178423
179247
179720
180412
181485
181147
181887
181147
146778
146700
146584
147028
146800
146792
146972
146271
146821
146243
114032
113903
113647
113508
112778
112142
111592
110474
110736
110485
80469.6
80352
80102.5
79749.4
78874.6
77884.1
76869.7
75590.2
75502.7
75476.7
47853.5
47707
47418.5
47159.9
46364.9
45455.9
44467.6
43731.1
43358.3
43641.1
13826.1
13702
14853.1
15330.9
14683.7
14261.9
13715.5
13079.1
12895.2
13312.1
)
;
    }
    inlet
    {
        type            fixedFluxPressure;
        gradient        nonuniform List<scalar> 
20
(
-3.55865e-05
-0.000508414
0.000616475
2.8288e-05
0.000222493
0.000280081
4.1723e-05
0.00180624
-0.00265744
-0.000863488
-2.03362e-05
-0.000494347
0.000607837
1.48238e-05
0.000184534
0.000222277
-7.1596e-05
0.0016499
-0.00279076
-0.00122407
)
;
        value           nonuniform List<scalar> 
20
(
400085
392935
394162
394156
394213
394201
394123
394128
392903
400070
400304
393005
394283
394263
394332
394335
394263
394292
392988
400233
)
;
    }
    outlet
    {
        type            fixedValue;
        value           uniform 0;
    }
    heatWall
    {
        type            fixedFluxPressure;
        gradient        nonuniform List<scalar> 
240
(
295.606
295.606
295.606
295.606
295.606
295.606
295.606
295.606
295.606
295.606
295.606
295.606
295.606
295.606
295.606
295.606
295.606
295.606
295.606
295.606
295.606
295.606
295.606
295.606
295.606
295.606
295.606
295.606
295.606
295.606
295.606
295.606
295.606
295.606
295.606
295.606
295.606
295.606
295.606
295.606
295.606
295.606
295.606
295.606
295.606
295.606
295.606
295.606
295.606
295.606
295.606
295.606
295.606
295.606
295.606
295.606
295.606
295.606
295.606
295.606
295.606
295.606
295.606
295.606
295.606
295.606
295.606
295.606
295.606
295.606
295.606
295.606
295.606
295.606
295.606
295.606
295.606
295.606
295.606
295.606
295.606
295.606
295.606
295.606
295.606
295.606
295.606
295.606
295.606
295.606
295.606
295.606
295.606
295.606
295.606
295.606
295.606
295.606
295.606
295.606
295.606
295.606
295.606
295.606
295.606
295.606
295.606
295.606
295.606
295.606
295.606
295.606
295.606
295.606
295.606
295.606
295.606
295.606
295.606
295.606
0
0
0
0
0
0
0
0
0
0
0
0
0
0
0
0
0
0
0
0
0
0
0
0
0
0
0
0
0
0
0
0
0
0
0
0
0
0
0
0
0
0
0
0
0
0
0
0
0
0
0
0
0
0
0
0
0
0
0
0
0
0
0
0
0
0
0
0
0
0
0
0
0
0
0
0
0
0
0
0
0
0
0
0
0
0
0
0
0
0
0
0
0
0
0
0
0
0
0
0
0
0
0
0
0
0
0
0
0
0
0
0
0
0
0
0
0
0
0
0
)
;
        value           nonuniform List<scalar> 
240
(
400073
400236
396655
397007
395361
395460
394855
395046
394545
394727
394410
394284
394042
394194
393718
394044
393595
393664
393513
393284
393304
392972
392934
392689
392428
392390
391820
392016
391071
391545
390128
390950
388996
390225
387816
389268
386692
387721
385919
386028
383709
383307
381911
381204
379908
378704
375242
373616
409408
407338
408140
405925
396092
394442
383234
381711
375050
373354
369256
367629
363072
361794
356017
354909
347464
346478
338024
337183
328669
327913
320029
319326
312222
311629
305059
304650
298322
297986
291733
291374
285233
284730
279381
278356
274260
273058
270423
269305
268620
267523
268469
267345
269056
267967
269978
269062
270363
269571
268649
267703
263334