/*--------------------------------*- C++ -*----------------------------------*\
  =========                 |
  \\      /  F ield         | OpenFOAM: The Open Source CFD Toolbox
   \\    /   O peration     | Website:  https://openfoam.org
    \\  /    A nd           | Version:  8
     \\/     M anipulation  |
\*---------------------------------------------------------------------------*/
FoamFile
{
    version     2.0;
    format      ascii;
    class       volScalarField;
    location    "100";
    object      k;
}
// * * * * * * * * * * * * * * * * * * * * * * * * * * * * * * * * * * * * * //

dimensions      [0 2 -2 0 0 0 0];

internalField   nonuniform List<scalar> 
1200
(
0.804327
0.682577
0.579826
0.491882
0.420172
0.317649
0.266588
0.21056
0.159613
0.124651
0.10364
0.0906747
0.0820374
0.0758507
0.0710828
0.0673006
0.0644416
0.0625216
0.0614436
0.0598132
0.0545734
0.044051
0.0353513
0.0322833
0.0297832
0.0273779
0.0237096
0.0186661
0.0144356
0.0119807
0.0105323
0.00956831
0.00884692
0.00819467
0.00778958
0.00754417
0.00747047
0.00754067
0.00759953
0.00772172
0.00805853
0.00897019
0.0095333
0.00926164
0.0085654
0.00779173
0.00730884
0.00709157
0.00697704
0.00688753
0.00682588
0.00680129
0.00680042
0.00685347
0.00701543
0.00732625
0.00777118
0.00823158
0.00861332
0.00891977
0.695399
0.518863
0.412089
0.335127
0.293232
0.246786
0.205523
0.172183
0.146671
0.126135
0.109628
0.096276
0.0853294
0.0761989
0.0684622
0.0618477
0.0557734
0.04991
0.044443
0.0398505
0.0351019
0.0292039
0.023905
0.0206455
0.0182134
0.0167365
0.0159435
0.0149534
0.0138792
0.0129697
0.0120496
0.0110533
0.00994196
0.00851059
0.00705851
0.00580069
0.00481487
0.00407517
0.00388514
0.0039103
0.00383358
0.00372948
0.00430824
0.00471097
0.0046567
0.00450819
0.00438154
0.0043012
0.00421688
0.00411357
0.0040239
0.00397506
0.0039366
0.00384812
0.00369647
0.00351566
0.00334588
0.00318993
0.00305371
0.00292449
0.694941
0.514293
0.400302
0.324796
0.274185
0.235146
0.203446
0.178548
0.158084
0.14055
0.125269
0.11202
0.100524
0.090547
0.0819294
0.0732728
0.0610878
0.0480432
0.0384063
0.0323341
0.0279845
0.0244951
0.0212469
0.0183323
0.016852
0.0153977
0.0142965
0.0137025
0.0128708
0.0119609
0.0111644
0.010632
0.0100546
0.00931341
0.00842058
0.00740627
0.00646535
0.00577293
0.0053849
0.00517751
0.00501376
0.00481212
0.00456383
0.00437752
0.00419811
0.0040248
0.0038585
0.00368896
0.00352708
0.00336154
0.00320981
0.0031323
0.00312233
0.00309138
0.00299007
0.00285427
0.00272557
0.00260279
0.00248247
0.00238821
0.694956
0.514251
0.39946
0.324103
0.271577
0.234012
0.205815
0.183107
0.163928
0.147294
0.132254
0.118742
0.106631
0.0958743
0.0866064
0.0785925
0.070517
0.0613827
0.0511888
0.0419566
0.0340846
0.0273154
0.0208021
0.0155798
0.0128288
0.0119442
0.0114181
0.0105475
0.0095535
0.00854928
0.00781798
0.00739226
0.00718984
0.00709934
0.00699821
0.00673305
0.0063844
0.00610034
0.00589278
0.00561422
0.0053002
0.00506446
0.00486546
0.00463289
0.00440349
0.00419337
0.00391852
0.00354582
0.0031581
0.00284909
0.00265446
0.00255779
0.00253407
0.00253254
0.002503
0.00242487
0.00233074
0.00224061
0.0021328
0.0020501
0.694929
0.514185
0.399908
0.325325
0.273017
0.235202
0.206536
0.183269
0.16366
0.14686
0.13191
0.118501
0.106341
0.0953277
0.0856825
0.0777421
0.0702153
0.0618063
0.0522289
0.0421249
0.0321833
0.0236437
0.0166602
0.0118183
0.00903021
0.00773586
0.00742311
0.00692091
0.00626409
0.00571194
0.00534507
0.00510029
0.00504131
0.00509922
0.00519974
0.00524875
0.00520113
0.00509763
0.00493588
0.0047154
0.00445251
0.00426502
0.00418617
0.00410021
0.00395764
0.00374122
0.00343474
0.00306086
0.00276604
0.00262337
0.0025386
0.00245027
0.00239291
0.00236285
0.00231716
0.00222965
0.00211667
0.00202039
0.00193626
0.00186101
0.694923
0.513821
0.400335
0.326551
0.274206
0.234959
0.204081
0.17873
0.157444
0.13923
0.123507
0.109839
0.09801
0.0877682
0.078756
0.0707703
0.063926
0.0574527
0.0504389
0.0422513
0.0334029
0.0253075
0.0183328
0.0125851
0.00850026
0.00623482
0.00537249
0.00495635
0.00484439
0.00489271
0.00478729
0.00462258
0.004493
0.00442209
0.00439296
0.0043766
0.00433336
0.00423409
0.00407661
0.00387381
0.00366115
0.00352089
0.00347456
0.00346519
0.00342915
0.00336119
0.00326864
0.00315976
0.00305143
0.00295133
0.00280776
0.00259165
0.00241093
0.00230258
0.00222103
0.00212879
0.00205522
0.00201791
0.00198307
0.00187796
0.694926
0.513035
0.401177
0.328198
0.275016
0.232572
0.196932
0.168468
0.147071
0.130244
0.115103
0.101449
0.0893922
0.0788188
0.0691773
0.0602512
0.0533662
0.047974
0.0430866
0.0375305
0.0312649
0.0251937
0.0194416
0.013567
0.00848121
0.0058975
0.0052647
0.00547569
0.00605161
0.00597613
0.00537634
0.00482006
0.0044841
0.00429238
0.00417562
0.00408097
0.00398095
0.00385421
0.00367706
0.00343757
0.00330038
0.0032783
0.00321454
0.00318039
0.00314689
0.00310876
0.00308537
0.00308733
0.00311761
0.00319148
0.00314319
0.00284934
0.0025454
0.00234885
0.00221825
0.00212275
0.00211882
0.00223901
0.00253931
0.00261968
0.695026
0.515078
0.40558
0.331325
0.272639
0.214843
0.157764
0.115799
0.0900507
0.0737474
0.0619333
0.0523517
0.0445132
0.0381308
0.0326671
0.0282732
0.0264924
0.0275848
0.0289901
0.0280294
0.0249796
0.0210509
0.0169304
0.0130234
0.00991006
0.00810704
0.00755889
0.00787123
0.00837992
0.00728994
0.00546668
0.00412166
0.00344799
0.00321286
0.00316364
0.00316949
0.00317098
0.00312944
0.00303176
0.00294551
0.00337458
0.00373435
0.00361599
0.00347535
0.00335661
0.00329557
0.00334527
0.00348529
0.00359829
0.00359771
0.00337963
0.00294434
0.0026138
0.00247367
0.00239722
0.00234807
0.00241462
0.00265963
0.00315812
0.0032659
0.69744
0.531911
0.423788
0.340872
0.278339
0.227923
0.185202
0.148828
0.119512
0.0965346
0.0785722
0.0647853
0.0543454
0.0464549
0.0407821
0.0355205
0.0293456
0.0246639
0.0231769
0.0221158
0.0202965
0.0179907
0.0156747
0.0135108
0.0117666
0.0107084
0.0105018
0.0111615
0.0112674
0.00943663
0.00708316
0.00544188
0.00458059
0.00408508
0.00374402
0.00350957
0.00333973
0.00319992
0.00306319
0.00333932
0.00482806
0.0054786
0.0053905
0.0050418
0.00464669
0.00437248
0.0041594
0.00383055
0.00353204
0.00329353
0.00307069
0.0027796
0.00253643
0.00244986
0.00245274
0.0024918
0.002605
0.00283881
0.00330334
0.00374259
0.803334
0.692304
0.581459
0.468407
0.369578
0.302931
0.256663
0.207024
0.154805
0.11642
0.0924294
0.0765777
0.0660233
0.0589808
0.0546953
0.0408199
0.0267055
0.0225728
0.0217917
0.0213644
0.0209038
0.0204654
0.0201591
0.0199073
0.0198913
0.0204759
0.0212316
0.0210086
0.0177455
0.0138209
0.0116009
0.0106582
0.0102581
0.00992843
0.00947968
0.00893446
0.00847489
0.00830068
0.00808371
0.00732097
0.00780162
0.00736121
0.00621128
0.00555824
0.00502193
0.00473185
0.00442276
0.00421537
0.00415186
0.00414729
0.00410975
0.00404246
0.00399731
0.00403756
0.00418762
0.00440975
0.00469003
0.00505944
0.00568774
0.00662667
0.804925
0.682599
0.577036
0.487323
0.426518
0.323796
0.26906
0.213333
0.162689
0.127368
0.105773
0.0923102
0.0833091
0.0768606
0.0719048
0.067978
0.064986
0.0629775
0.0617243
0.0589711
0.0518741
0.0408535
0.0330026
0.030485
0.0299806
0.0281784
0.0248071
0.0199773
0.0156862
0.0129732
0.0112483
0.0100802
0.0092344
0.0085172
0.00807844
0.00780128
0.00769113
0.00768839
0.00771911
0.00780016
0.00803731
0.00887654
0.00952006
0.00935373
0.00871326
0.00791637
0.00736395
0.007108
0.0069847
0.00690072
0.00684974
0.00683968
0.00685314
0.0069074
0.00705299
0.00733303
0.00774312
0.00819155
0.00857939
0.00892697
0.695863
0.522274
0.414351
0.335561
0.293482
0.250112
0.209237
0.175592
0.14956
0.128559
0.111608
0.0979082
0.0867059
0.0773951
0.0695547
0.0627495
0.056109
0.049632
0.0437517
0.0389292
0.0336304
0.0275172
0.0225087
0.0195532
0.0181486
0.0169349
0.0162154
0.0153242
0.0143085
0.013394
0.0124605
0.0114487
0.0103308
0.00892726
0.00749153
0.00620378
0.0051501
0.00429752
0.00398729
0.00395735
0.00386982
0.0037613
0.00404113
0.00450223
0.00454021
0.00441598
0.00430686
0.00422953
0.00414888
0.00405328
0.00396758
0.00392044
0.00389182
0.00382443
0.00369742
0.00353434
0.00337233
0.00322077
0.00308475
0.00295325
0.694972
0.514155
0.40002
0.32448
0.273875
0.235953
0.204584
0.179698
0.159218
0.141682
0.12643
0.113213
0.101744
0.0917821
0.0831026
0.0724732
0.0578698
0.0450409
0.0364912
0.031095
0.0270819
0.023796
0.0205282
0.0175829
0.0161825
0.0153028
0.0144768
0.0137333
0.0127014
0.0117173
0.0109293
0.0104444
0.0100206
0.00945115
0.00867944
0.00774005
0.00682047
0.00610793
0.00567876
0.00542164
0.00517054
0.00494598
0.00466211
0.00445084
0.00426403
0.00408485
0.00390837
0.00371587
0.00352721
0.00334898
0.00319235
0.00310612
0.00309199
0.00307305
0.00299261
0.00286943
0.00274554
0.00262589
0.00251378
0.00238654
0.694917
0.51407
0.399325
0.324023
0.27149
0.234118
0.205942
0.183057
0.163758
0.147231
0.132591
0.119495
0.107756
0.0972919
0.088144
0.0794497
0.0702525
0.0602438
0.0497447
0.0406327
0.0328201
0.0260075
0.0194459
0.0143816
0.0118958
0.0111835
0.0108416
0.0100955
0.00918836
0.00827981
0.0076256
0.00723137
0.00704505
0.00697319
0.00691891
0.00675847
0.00647988
0.00621361
0.00594752
0.00560548
0.00525324
0.00500729
0.00483291
0.00464784
0.00445599
0.00426413
0.00400135
0.00363465
0.00323483
0.00290044
0.00268048
0.00256378
0.00252567
0.0025199
0.00249448
0.00242649
0.00233809
0.00224834
0.00212414
0.00205437
0.69491
0.514145
0.399918
0.325318
0.272952
0.235092
0.206321
0.182914
0.16324
0.146512
0.131886
0.118939
0.107271
0.0967012
0.0873271
0.0788311
0.0701035
0.0608641
0.0510896
0.0407936
0.030645
0.0221319
0.0154031
0.0108466
0.00832421
0.00726186
0.00710228
0.00666846
0.00606691
0.00558479
0.00526483
0.00505218
0.00500755
0.00506999
0.00516488
0.00522241
0.00519896
0.00510487
0.00492661
0.00468285
0.00440943
0.00422308
0.00415435
0.00409519
0.00398613
0.00380157
0.00352486
0.00315811
0.00283375
0.00265353
0.00255413
0.0024599
0.0023933
0.00235692
0.00231395
0.00223381
0.00212618
0.00203062
0.00194471
0.00186401
0.694919
0.513823
0.400392
0.326469
0.273909
0.234456
0.203385
0.177903
0.15648
0.138145
0.122331
0.108638
0.0969044
0.0867735
0.0778556
0.0699681
0.0632203
0.0567922
0.0497844
0.0413436
0.032231
0.0240718
0.0171494
0.0115689
0.00777393
0.00583268
0.00518055
0.00486049
0.00481771
0.00489669
0.00483412
0.00468131
0.00453354
0.00442894
0.00437427
0.00433895
0.00428897
0.00418986
0.00403829
0.00383742
0.00363059
0.00350131
0.00345813
0.00344576
0.00341364
0.00335106
0.00326946
0.00317063
0.00306321
0.00296151
0.00282657
0.00261797
0.00242896
0.00230929
0.00222364
0.00213275
0.00205465
0.0020063
0.00195623
0.00186808
0.694916
0.513348
0.401284
0.328114
0.274691
0.231988
0.196351
0.16841
0.147494
0.130356
0.11481
0.100971
0.0888437
0.0782263
0.0683234
0.0591307
0.0523624
0.0471964
0.0424691
0.0368111
0.0303805
0.0242442
0.018454
0.0125617
0.00778293
0.00562766
0.00522705
0.00556007
0.00607377
0.00609059
0.00555106
0.00497321
0.00459202
0.00438121
0.00423988
0.00410117
0.00396963
0.0038192
0.00362454
0.00338336
0.00327038
0.00326913
0.00321298
0.00317728
0.00313724
0.00309383
0.00306013
0.00304876
0.00307209
0.00314678
0.00313007
0.00287644
0.00257495
0.00236519
0.00222498
0.00212368
0.00210527
0.00220249
0.00247547
0.00256219
0.694947
0.514561
0.404505
0.33058
0.271528
0.212458
0.154853
0.113635
0.0887886
0.0731406
0.0613926
0.0516316
0.0436786
0.0372272
0.03168
0.0275189
0.0259437
0.0274116
0.0289278
0.0277578
0.0244608
0.0203796
0.0161866
0.0122993
0.00934581
0.00778743
0.00751275
0.00788628
0.00841868
0.00761
0.00588289
0.0044359
0.00362597
0.00329198
0.00319962
0.00318249
0.00315698
0.00310127
0.00301066
0.00290371
0.00331995
0.00368403
0.00358321
0.00345221
0.00333609
0.0032632
0.00328651
0.00340638
0.00352337
0.00354883
0.00338986
0.00299263
0.00264455
0.00248015
0.00239112
0.00233325
0.00238248
0.00260718
0.00309009
0.00322929
0.695307
0.524273
0.416675
0.33758
0.276396
0.225607
0.182484
0.146191
0.117372
0.0949275
0.0773225
0.063819
0.0536168
0.0459515
0.04065
0.0350157
0.0286785
0.0242606
0.0230593
0.0219655
0.0200115
0.0176004
0.0152342
0.0130654
0.0113818
0.0104309
0.0103158
0.0109513
0.0113986
0.00999869
0.0077192
0.00588072
0.00482681
0.00422817
0.00382624
0.00356071
0.00337679
0.00322986
0.00308965
0.00329843
0.00471873
0.00541451
0.00532583
0.00499099
0.00460926
0.00433623
0.00413523
0.00384223
0.00355868
0.00332155
0.00309987
0.00282166
0.00256423
0.00245391
0.00243972
0.00246657
0.00256557
0.00278383
0.0032294
0.00367292
0.803158
0.69248
0.584263
0.472435
0.373106
0.305312
0.258544
0.20956
0.158068
0.119456
0.0948126
0.0783895
0.0674185
0.0601023
0.0555288
0.0387052
0.0254852
0.0222528
0.0216491
0.0212033
0.0206956
0.0202177
0.0198805
0.0196124
0.019625
0.0202727
0.0211688
0.0214107
0.0188564
0.0148984
0.0123012
0.0110649
0.0105164
0.0101486
0.00971724
0.00918461
0.00873167
0.00859151
0.00841997
0.00753661
0.00782186
0.00740741
0.00623693
0.00556721
0.0050363
0.00475556
0.00445601
0.00425172
0.0041873
0.00418355
0.00414047
0.00405448
0.00399651
0.0040257
0.00416374
0.00437343
0.00463842
0.00498945
0.00559475
0.00652026
)
;

boundaryField
{
    wall
    {
        type            kqRWallFunction;
        value           nonuniform List<scalar> 
1200
(
0.804327
0.695399
0.694941
0.694956
0.694929
0.694923
0.694926
0.695026
0.69744
0.803334
0.682577
0.518863
0.514293
0.514251
0.514185
0.513821
0.513035
0.515078
0.531911
0.692304
0.579826
0.412089
0.400302
0.39946
0.399908
0.400335
0.401177
0.40558
0.423788
0.581459
0.491882
0.335127
0.324796
0.324103
0.325325
0.326551
0.328198
0.331325
0.340872
0.468407
0.420172
0.293232
0.274185
0.271577
0.273017
0.274206
0.275016
0.272639
0.278339
0.369578
0.317649
0.246786
0.235146
0.234012
0.235202
0.234959
0.232572
0.214843
0.227923
0.302931
0.266588
0.205523
0.203446
0.205815
0.206536
0.204081
0.196932
0.157764
0.185202
0.256663
0.21056
0.172183
0.178548
0.183107
0.183269
0.17873
0.168468
0.115799
0.148828
0.207024
0.159613
0.146671
0.158084
0.163928
0.16366
0.157444
0.147071
0.0900507
0.119512
0.154805
0.124651
0.126135
0.14055
0.147294
0.14686
0.13923
0.130244
0.0737474
0.0965346
0.11642
0.10364
0.109628
0.125269
0.132254
0.13191
0.123507
0.115103
0.0619333
0.0785722
0.0924294
0.0906747
0.096276
0.11202
0.118742
0.118501
0.109839
0.101449
0.0523517
0.0647853
0.0765777
0.0820374
0.0853294
0.100524
0.106631
0.106341
0.09801
0.0893922
0.0445132
0.0543454
0.0660233
0.0758507
0.0761989
0.090547
0.0958743
0.0953277
0.0877682
0.0788188
0.0381308
0.0464549
0.0589808
0.0710828
0.0684622
0.0819294
0.0866064
0.0856825
0.078756
0.0691773
0.0326671
0.0407821
0.0546953
0.0673006
0.0618477
0.0732728
0.0785925
0.0777421
0.0707703
0.0602512
0.0282732
0.0355205
0.0408199
0.0644416
0.0557734
0.0610878
0.070517
0.0702153
0.063926
0.0533662
0.0264924
0.0293456
0.0267055
0.0625216
0.04991
0.0480432
0.0613827
0.0618063
0.0574527
0.047974
0.0275848
0.0246639
0.0225728
0.0614436
0.044443
0.0384063
0.0511888
0.0522289
0.0504389
0.0430866
0.0289901
0.0231769
0.0217917
0.0598132
0.0398505
0.0323341
0.0419566
0.0421249
0.0422513
0.0375305
0.0280294
0.0221158
0.0213644
0.0545734
0.0351019
0.0279845
0.0340846
0.0321833
0.0334029
0.0312649
0.0249796
0.0202965
0.0209038
0.044051
0.0292039
0.0244951
0.0273154
0.0236437
0.0253075
0.0251937
0.0210509
0.0179907
0.0204654
0.0353513
0.023905
0.0212469
0.0208021
0.0166602
0.0183328
0.0194416
0.0169304
0.0156747
0.0201591
0.0322833
0.0206455
0.0183323
0.0155798
0.0118183
0.0125851
0.013567
0.0130234
0.0135108
0.0199073
0.0297832
0.0182134
0.016852
0.0128288
0.00903021
0.00850026
0.00848121
0.00991006
0.0117666
0.0198913
0.0273779
0.0167365
0.0153977
0.0119442
0.00773586
0.00623482
0.0058975
0.00810704
0.0107084
0.0204759
0.0237096
0.0159435
0.0142965
0.0114181
0.00742311
0.00537249
0.0052647
0.00755889
0.0105018
0.0212316
0.0186661
0.0149534
0.0137025
0.0105475
0.00692091
0.00495635
0.00547569
0.00787123
0.0111615
0.0210086
0.0144356
0.0138792
0.0128708
0.0095535
0.00626409
0.00484439
0.00605161
0.00837992
0.0112674
0.0177455
0.0119807
0.0129697
0.0119609
0.00854928
0.00571194
0.00489271
0.00597613
0.00728994
0.00943663
0.0138209
0.0105323
0.0120496
0.0111644
0.00781798
0.00534507
0.00478729
0.00537634
0.00546668
0.00708316
0.0116009
0.00956831
0.0110533
0.010632
0.00739226
0.00510029
0.00462258
0.00482006
0.00412166
0.00544188
0.0106582
0.00884692
0.00994196
0.0100546
0.00718984
0.00504131
0.004493
0.0044841
0.00344799
0.00458059
0.0102581
0.00819467
0.00851059
0.00931341
0.00709934
0.00509922
0.00442209
0.00429238
0.00321286
0.00408508
0.00992843
0.00778958
0.00705851
0.00842058
0.00699821
0.00519974
0.00439296
0.00417562
0.00316364
0.00374402
0.00947968
0.00754417
0.00580069
0.00740627
0.00673305
0.00524875
0.0043766
0.00408097
0.00316949
0.00350957
0.00893446
0.00747047
0.00481487
0.00646535
0.0063844
0.00520113
0.00433336
0.00398095
0.00317098
0.00333973
0.00847489
0.00754067
0.00407517
0.00577293
0.00610034
0.00509763
0.00423409
0.00385421
0.00312944
0.00319992
0.00830068
0.00759953
0.00388514
0.0053849
0.00589278
0.00493588
0.00407661
0.00367706
0.00303176
0.00306319
0.00808371
0.00772172
0.0039103
0.00517751
0.00561422
0.0047154
0.00387381
0.00343757
0.00294551
0.00333932
0.00732097
0.00805853
0.00383358
0.00501376
0.0053002
0.00445251
0.00366115
0.00330038
0.00337458
0.00482806
0.00780162
0.00897019
0.00372948
0.00481212
0.00506446
0.00426502
0.00352089
0.0032783
0.00373435
0.0054786
0.00736121
0.0095333
0.00430824
0.00456383
0.00486546
0.00418617
0.00347456
0.00321454
0.00361599
0.0053905
0.00621128
0.00926164
0.00471097
0.00437752
0.00463289
0.00410021
0.00346519
0.00318039
0.00347535
0.0050418
0.00555824
0.0085654
0.0046567
0.00419811
0.00440349
0.00395764
0.00342915
0.00314689
0.00335661
0.00464669
0.00502193
0.00779173
0.00450819
0.0040248
0.00419337
0.00374122
0.00336119
0.00310876
0.00329557
0.00437248
0.00473185
0.00730884
0.00438154
0.0038585
0.00391852
0.00343474
0.00326864
0.00308537
0.00334527
0.0041594
0.00442276
0.00709157
0.0043012
0.00368896
0.00354582
0.00306086
0.00315976
0.00308733
0.00348529
0.00383055
0.00421537
0.00697704
0.00421688
0.00352708
0.0031581
0.00276604
0.00305143
0.00311761
0.00359829
0.00353204
0.00415186
0.00688753
0.00411357
0.00336154
0.00284909
0.00262337
0.00295133
0.00319148
0.00359771
0.00329353
0.00414729
0.00682588
0.0040239
0.00320981
0.00265446
0.0025386
0.00280776
0.00314319
0.00337963
0.00307069
0.00410975
0.00680129
0.00397506
0.0031323
0.00255779
0.00245027
0.00259165
0.00284934
0.00294434
0.0027796
0.00404246
0.00680042
0.0039366
0.00312233
0.00253407
0.00239291
0.00241093
0.0025454
0.0026138
0.00253643
0.00399731
0.00685347
0.00384812
0.00309138
0.00253254
0.00236285
0.00230258
0.00234885
0.00247367
0.00244986
0.00403756
0.00701543
0.00369647
0.00299007
0.002503
0.00231716
0.00222103
0.00221825
0.00239722
0.00245274
0.00418762
0.00732625
0.00351566
0.00285427
0.00242487
0.00222965
0.00212879
0.00212275
0.00234807
0.0024918
0.00440975
0.00777118
0.00334588
0.00272557
0.00233074
0.00211667
0.00205522
0.00211882
0.00241462
0.002605
0.00469003
0.00823158
0.00318993
0.00260279
0.00224061
0.00202039
0.00201791
0.00223901
0.00265963
0.00283881
0.00505944
0.00861332
0.00305371
0.00248247
0.0021328
0.00193626
0.00198307
0.00253931
0.00315812
0.00330334
0.00568774
0.00891977
0.00292449
0.00238821
0.0020501
0.00186101
0.00187796
0.00261968
0.0032659
0.00374259
0.00662667
0.804925
0.695863
0.694972
0.694917
0.69491
0.694919
0.694916
0.694947
0.695307
0.803158
0.682599
0.522274
0.514155
0.51407
0.514145
0.513823
0.513348
0.514561
0.524273
0.69248
0.577036
0.414351
0.40002
0.399325
0.399918
0.400392
0.401284
0.404505
0.416675
0.584263
0.487323
0.335561
0.32448
0.324023
0.325318
0.326469
0.328114
0.33058
0.33758
0.472435
0.426518
0.293482
0.273875
0.27149
0.272952
0.273909
0.274691
0.271528
0.276396
0.373106
0.323796
0.250112
0.235953
0.234118
0.235092
0.234456
0.231988
0.212458
0.225607
0.305312
0.26906
0.209237
0.204584
0.205942
0.206321
0.203385
0.196351
0.154853
0.182484
0.258544
0.213333
0.175592
0.179698
0.183057
0.182914
0.177903
0.16841
0.113635
0.146191
0.20956
0.162689
0.14956
0.159218
0.163758
0.16324
0.15648
0.147494
0.0887886
0.117372
0.158068
0.127368
0.128559
0.141682
0.147231
0.146512
0.138145
0.130356
0.0731406
0.0949275
0.119456
0.105773
0.111608
0.12643
0.132591
0.131886
0.122331
0.11481
0.0613926
0.0773225
0.0948126
0.0923102
0.0979082
0.113213
0.119495
0.118939
0.108638
0.100971
0.0516316
0.063819
0.0783895
0.0833091
0.0867059
0.101744
0.107756
0.107271
0.0969044
0.0888437
0.0436786
0.0536168
0.0674185
0.0768606
0.0773951
0.0917821
0.0972919
0.0967012
0.0867735
0.0782263
0.0372272
0.0459515
0.0601023
0.0719048
0.0695547
0.0831026
0.088144
0.0873271
0.0778556
0.0683234
0.03168
0.04065
0.0555288
0.067978
0.0627495
0.0724732
0.0794497
0.0788311
0.0699681
0.0591307
0.0275189
0.0350157
0.0387052
0.064986
0.056109
0.0578698
0.0702525
0.0701035
0.0632203
0.0523624
0.0259437
0.0286785
0.0254852
0.0629775
0.049632
0.0450409
0.0602438
0.0608641
0.0567922
0.0471964
0.0274116
0.0242606
0.0222528
0.0617243
0.0437517
0.0364912
0.0497447
0.0510896
0.0497844
0.0424691
0.0289278
0.0230593
0.0216491
0.0589711
0.0389292
0.031095
0.0406327
0.0407936
0.0413436
0.0368111
0.0277578
0.0219655
0.0212033
0.0518741
0.0336304
0.0270819
0.0328201
0.030645
0.032231
0.0303805
0.0244608
0.0200115
0.0206956
0.0408535
0.0275172
0.023796
0.0260075
0.0221319
0.0240718
0.0242442
0.0203796
0.0176004
0.0202177
0.0330026
0.0225087
0.0205282
0.0194459
0.0154031
0.0171494
0.018454
0.0161866
0.0152342
0.0198805
0.030485
0.0195532
0.0175829
0.0143816
0.0108466
0.0115689
0.0125617
0.0122993
0.0130654
0.0196124
0.0299806
0.0181486
0.0161825
0.0118958
0.00832421
0.00777393
0.00778293
0.00934581
0.0113818
0.019625
0.0281784
0.0169349
0.0153028
0.0111835
0.00726186
0.00583268
0.00562766
0.00778743
0.0104309
0.0202727
0.0248071
0.0162154
0.0144768
0.0108416
0.00710228
0.00518055
0.00522705
0.00751275
0.0103158
0.0211688
0.0199773
0.0153242
0.0137333
0.0100955
0.00666846
0.00486049
0.00556007
0.00788628
0.0109513
0.0214107
0.0156862
0.0143085
0.0127014
0.00918836
0.00606691
0.00481771
0.00607377
0.00841868
0.0113986
0.0188564
0.0129732
0.013394
0.0117173
0.00827981
0.00558479
0.00489669
0.00609059
0.00761
0.00999869
0.0148984
0.0112483
0.0124605
0.0109293
0.0076256
0.00526483
0.00483412
0.00555106
0.00588289
0.0077192
0.0123012
0.0100802
0.0114487
0.0104444
0.00723137
0.00505218
0.00468131
0.00497321
0.0044359
0.00588072
0.0110649
0.0092344
0.0103308
0.0100206
0.00704505
0.00500755
0.00453354
0.00459202
0.00362597
0.00482681
0.0105164
0.0085172
0.00892726
0.00945115
0.00697319
0.00506999
0.00442894
0.00438121
0.00329198
0.00422817
0.0101486
0.00807844
0.00749153
0.00867944
0.00691891
0.00516488
0.00437427
0.00423988
0.00319962
0.00382624
0.00971724
0.00780128
0.00620378
0.00774005
0.00675847
0.00522241
0.00433895
0.00410117
0.00318249
0.00356071
0.00918461
0.00769113
0.0051501
0.00682047
0.00647988
0.00519896
0.00428897
0.00396963
0.00315698
0.00337679
0.00873167
0.00768839
0.00429752
0.00610793
0.00621361
0.00510487
0.00418986
0.0038192
0.00310127
0.00322986
0.00859151
0.00771911
0.00398729
0.00567876
0.00594752
0.00492661
0.00403829
0.00362454
0.00301066
0.00308965
0.00841997
0.00780016
0.00395735
0.00542164
0.00560548
0.00468285
0.00383742
0.00338336
0.00290371
0.00329843
0.00753661
0.00803731
0.00386982
0.00517054
0.00525324
0.00440943
0.00363059
0.00327038
0.00331995
0.00471873
0.00782186
0.00887654
0.0037613
0.00494598
0.00500729
0.00422308
0.00350131
0.00326913
0.00368403
0.00541451
0.00740741
0.00952006
0.00404113
0.00466211
0.00483291
0.00415435
0.00345813
0.00321298
0.00358321
0.00532583
0.00623693
0.00935373
0.00450223
0.00445084
0.00464784
0.00409519
0.00344576
0.00317728
0.00345221
0.00499099
0.00556721
0.00871326
0.00454021
0.00426403
0.00445599
0.00398613
0.00341364
0.00313724
0.00333609
0.00460926
0.0050363
0.00791637
0.00441598
0.00408485
0.00426413
0.00380157
0.00335106
0.00309383
0.0032632
0.00433623
0.00475556
0.00736395
0.00430686
0.00390837
0.00400135
0.00352486
0.00326946
0.00306013
0.00328651
0.00413523
0.00445601
0.007108
0.00422953
0.00371587
0.00363465
0.00315811
0.00317063
0.00304876
0.00340638
0.00384223
0.00425172
0.0069847
0.00414888
0.00352721
0.00323483
0.00283375
0.00306321
0.00307209
0.00352337
0.00355868
0.0041873
0.00690072
0.00405328
0.00334898
0.00290044
0.00265353
0.00296151
0.00314678
0.00354883
0.00332155
0.00418355
0.00684974
0.00396758
0.00319235
0.00268048
0.00255413
0.00282657
0.00313007
0.00338986
0.00309987
0.00414047
0.00683968
0.00392044
0.00310612
0.00256378
0.0024599
0.00261797
0.00287644
0.00299263
0.00282166
0.00405448
0.00685314
0.00389182
0.00309199
0.00252567
0.0023933
0.00242896
0.00257495
0.00264455
0.00256423
0.00399651
0.0069074
0.00382443
0.00307305
0.0025199
0.00235692
0.00230929
0.00236519
0.00248015
0.00245391
0.0040257
0.00705299
0.00369742
0.00299261
0.00249448
0.00231395
0.00222364
0.00222498
0.00239112
0.00243972
0.00416374
0.00733303
0.00353434
0.00286943
0.00242649
0.00223381
0.00213275
0.00212368
0.00233325
0.00246657
0.00437343
0.00774312
0.00337233
0.00274554
0.00233809
0.00212618
0.00205465
0.00210527
0.00238248
0.00256557
0.00463842
0.00819155
0.00322077
0.00262589
0.00224834
0.00203062
0.0020063
0.00220249
0.00260718
0.00278383
0.00498945
0.00857939
0.00308475
0.00251378
0.00212414
0.00194471
0.00195623
0.00247547
0.00309009
0.0032294
0.00559475
0.00892697
0.00295325
0.00238654
0.00205437
0.00186401
0.00186808
0.00256219
0.00322929
0.00367292
0.00652026
)
;
    }
    inlet
    {
        type            turbulentIntensityKineticEnergyInlet;
        intensity       0.05;
        value           uniform 0.96;
    }
    outlet
    {
        type            inletOutlet;
        inletValue      uniform 0.003;
        value           nonuniform List<scalar> 
20
(
0.00891977
0.00292449
0.00238821
0.0020501
0.00186101
0.00187796
0.00261968
0.0032659
0.00374259
0.00662667
0.00892697
0.00295325
0.00238654
0.00205437
0.00186401
0.00186808
0.00256219
0.00322929
0.00367292
0.00652026
)
;
    }
    heatWall
    {
        type            kqRWallFunction;
        value           nonuniform List<scalar> 
240
(
0.803334
0.803158
0.692304
0.69248
0.581459
0.584263
0.468407
0.472435
0.369578
0.373106
0.302931
0.305312
0.256663
0.258544
0.207024
0.20956
0.154805
0.158068
0.11642
0.119456
0.0924294
0.0948126
0.0765777
0.0783895
0.0660233
0.0674185
0.0589808
0.0601023
0.0546953
0.0555288
0.0408199
0.0387052
0.0267055
0.0254852
0.0225728
0.0222528
0.0217917
0.0216491
0.0213644
0.0212033
0.0209038
0.0206956
0.0204654
0.0202177
0.0201591
0.0198805
0.0199073
0.0196124
0.0198913
0.019625
0.0204759
0.0202727
0.0212316
0.0211688
0.0210086
0.0214107
0.0177455
0.0188564
0.0138209
0.0148984
0.0116009
0.0123012
0.0106582
0.0110649
0.0102581
0.0105164
0.00992843
0.0101486
0.00947968
0.00971724
0.00893446
0.00918461
0.00847489
0.00873167
0.00830068
0.00859151
0.00808371
0.00841997
0.00732097
0.00753661
0.00780162
0.00782186
0.00736121
0.00740741
0.00621128
0.00623693
0.00555824
0.00556721
0.00502193
0.0050363
0.00473185
0.00475556
0.00442276
0.00445601
0.00421537
0.00425172
0.00415186
0.0041873
0.00414729
0.00418355
0.00410975
0.00414047
0.00404246
0.00405448
0.00399731
0.00399651
0.00403756
0.0040257
0.00418762
0.00416374
0.00440975
0.00437343
0.00469003
0.00463842
0.00505944
0.00498945
0.00568774
0.00559475
0.00662667
0.00652026
0.804327
0.804925
0.682577
0.682599
0.579826
0.577036
0.491882
0.487323
0.420172
0.426518
0.317649
0.323796
0.266588
0.26906
0.21056
0.213333
0.159613
0.162689
0.124651
0.127368
0.10364
0.105773
0.0906747
0.0923102
0.0820374
0.0833091
0.0758507
0.0768606
0.0710828
0.0719048
0.0673006
0.067978
0.0644416
0.064986
0.0625216
0.0629775
0.0614436
0.0617243
0.0598132
0.0589711
0.0545734
0.0518741
0.044051
0.0408535
0.0353513
0.0330026
0.0322833
0.030485
0.0297832
0.0299806
0.0273779
0.0281784
0.0237096
0.0248071
0.0186661
0.0199773
0.0144356
0.0156862
0.0119807
0.0129732
0.0105323
0.0112483
0.00956831
0.0100802
0.00884692
0.0092344
0.00819467
0.0085172
0.00778958
0.00807844
0.00754417
0.00780128
0.00747047
0.00769113
0.00754067
0.00768839
0.00759953
0.00771911
0.00772172
0.00780016
0.00805853
0.00803731
0.00897019
0.00887654
0.0095333
0.00952006
0.00926164
0.00935373
0.0085654
0.00871326
0.00779173
0.00791637
0.00730884
0.00736395
0.00709157
0.007108
0.00697704
0.0069847
0.00688753
0.00690072
0.00682588
0.00684974
0.00680129
0.00683968
0.00680042
0.00685314
0.00685347
0.0069074
0.00701543
0.00705299
0.00732625
0.00733303
0.00777118
0.00774312
0.00823158
0.00819155
0.00861332
0.00857939
0.00891977
0.00892697
)
;
    }
}


// ************************************************************************* //
