/*--------------------------------*- C++ -*----------------------------------*\
  =========                 |
  \\      /  F ield         | OpenFOAM: The Open Source CFD Toolbox
   \\    /   O peration     | Website:  https://openfoam.org
    \\  /    A nd           | Version:  8
     \\/     M anipulation  |
\*---------------------------------------------------------------------------*/
FoamFile
{
    version     2.0;
    format      ascii;
    class       volScalarField;
    location    "100";
    object      nut;
}
// * * * * * * * * * * * * * * * * * * * * * * * * * * * * * * * * * * * * * //

dimensions      [0 2 -1 0 0 0 0];

internalField   nonuniform List<scalar> 
1200
(
0.000805549
0.000742279
0.000686164
0.000633909
0.000592275
0.000512337
0.000466239
0.000415582
0.000363243
0.000321499
0.000292915
0.000273541
0.000259783
0.000249476
0.000241295
0.000234673
0.000229507
0.000225738
0.000223707
0.000223598
0.000218677
0.000199242
0.000177449
0.000168383
0.000159681
0.000152254
0.000142672
0.000128333
0.000113681
0.000102986
9.56478e-05
9.04817e-05
8.66156e-05
8.32218e-05
8.10299e-05
7.95476e-05
7.8857e-05
7.88631e-05
7.89981e-05
7.93566e-05
8.06488e-05
8.46847e-05
8.76942e-05
8.70389e-05
8.40346e-05
8.00071e-05
7.70797e-05
7.57228e-05
7.50965e-05
7.46773e-05
7.44276e-05
7.44024e-05
7.44874e-05
7.47548e-05
7.54796e-05
7.68989e-05
7.90046e-05
8.13148e-05
8.32998e-05
8.48421e-05
0.000468144
0.000404041
0.000360191
0.000325321
0.000305735
0.000281749
0.000257517
0.000235767
0.000217568
0.00020172
0.000187964
0.000176048
0.00016566
0.000156477
0.000148238
0.000141073
0.000134532
0.000127412
0.000120604
0.000114691
0.000109173
0.000100498
9.08127e-05
8.40943e-05
7.841e-05
7.41834e-05
7.2041e-05
6.99993e-05
6.75661e-05
6.53116e-05
6.29815e-05
6.03651e-05
5.73727e-05
5.34307e-05
4.90121e-05
4.45612e-05
4.04891e-05
3.67816e-05
3.54128e-05
3.55472e-05
3.5069e-05
3.41549e-05
3.6398e-05
3.82093e-05
3.81871e-05
3.74405e-05
3.68117e-05
3.64155e-05
3.60715e-05
3.56708e-05
3.5296e-05
3.50879e-05
3.499e-05
3.47393e-05
3.42055e-05
3.34651e-05
3.26922e-05
3.19482e-05
3.1256e-05
3.05624e-05
0.000468004
0.000402547
0.000355019
0.000319802
0.000294161
0.000272997
0.000254159
0.000238267
0.000224374
0.000211758
0.000200134
0.000189489
0.000179748
0.000170845
0.000162844
0.000156223
0.000145896
0.000129457
0.000114204
0.000103828
9.62056e-05
8.97158e-05
8.37954e-05
7.82436e-05
7.49544e-05
7.16476e-05
6.89986e-05
6.74133e-05
6.52335e-05
6.28997e-05
6.06616e-05
5.91321e-05
5.75058e-05
5.54136e-05
5.29091e-05
4.99197e-05
4.6819e-05
4.41579e-05
4.24548e-05
4.14692e-05
4.07982e-05
3.9979e-05
3.88122e-05
3.7807e-05
3.68906e-05
3.60331e-05
3.51506e-05
3.41842e-05
3.32791e-05
3.24527e-05
3.16936e-05
3.12477e-05
3.11841e-05
3.11331e-05
3.07535e-05
3.01225e-05
2.94612e-05
2.88229e-05
2.81255e-05
2.76191e-05
0.000468013
0.00040258
0.000354708
0.000319516
0.000292537
0.000271728
0.000254971
0.000240774
0.000228136
0.000216633
0.000205787
0.000195529
0.000185834
0.000176739
0.000168403
0.000160721
0.000152512
0.000142362
0.00013008
0.000117742
0.000106378
9.58755e-05
8.46417e-05
7.38919e-05
6.69362e-05
6.38938e-05
6.18769e-05
5.92665e-05
5.63898e-05
5.31952e-05
5.05933e-05
4.89627e-05
4.82364e-05
4.79378e-05
4.76605e-05
4.67975e-05
4.56175e-05
4.45859e-05
4.38416e-05
4.27926e-05
4.15882e-05
4.06413e-05
3.99424e-05
3.90108e-05
3.7984e-05
3.69985e-05
3.57499e-05
3.40378e-05
3.2058e-05
3.02908e-05
2.90772e-05
2.84101e-05
2.81859e-05
2.81611e-05
2.80468e-05
2.76839e-05
2.71851e-05
2.66603e-05
2.60774e-05
2.54223e-05
0.000468
0.000402534
0.000354844
0.000320037
0.000293344
0.000272369
0.000255446
0.000240905
0.000227922
0.000216176
0.000205334
0.000195165
0.000185547
0.000176294
0.000167615
0.000159834
0.000151828
0.000142218
0.00013056
0.000117784
0.000104002
9.01173e-05
7.62577e-05
6.45585e-05
5.63235e-05
5.12531e-05
4.96268e-05
4.78736e-05
4.56521e-05
4.32759e-05
4.16003e-05
4.0372e-05
3.995e-05
4.01169e-05
4.05493e-05
4.08267e-05
4.07104e-05
4.03753e-05
3.97144e-05
3.88321e-05
3.77504e-05
3.69118e-05
3.658e-05
3.62743e-05
3.57056e-05
3.48283e-05
3.35404e-05
3.16985e-05
2.99261e-05
2.89133e-05
2.83822e-05
2.78511e-05
2.74547e-05
2.72455e-05
2.70138e-05
2.65545e-05
2.59053e-05
2.52875e-05
2.47459e-05
2.42691e-05
0.000468005
0.00040236
0.000354992
0.000320662
0.000294118
0.000272499
0.000254195
0.000238079
0.00022369
0.000210636
0.000198665
0.000187572
0.000177287
0.000167865
0.000159125
0.000150909
0.000143457
0.000135866
0.000127277
0.000117093
0.000105047
9.22802e-05
7.93663e-05
6.65004e-05
5.4856e-05
4.63355e-05
4.21832e-05
4.01101e-05
3.91868e-05
3.95203e-05
3.92401e-05
3.85801e-05
3.7968e-05
3.76203e-05
3.74587e-05
3.73913e-05
3.72344e-05
3.67988e-05
3.60743e-05
3.51588e-05
3.41499e-05
3.34223e-05
3.31125e-05
3.30726e-05
3.29267e-05
3.26051e-05
3.21816e-05
3.16638e-05
3.10938e-05
3.05629e-05
2.98897e-05
2.87751e-05
2.76892e-05
2.69805e-05
2.64789e-05
2.59368e-05
2.54368e-05
2.51008e-05
2.4723e-05
2.40402e-05
0.000467999
0.000402006
0.000355316
0.00032148
0.000294585
0.000271179
0.00024965
0.000230596
0.000215015
0.000202431
0.000190771
0.000179383
0.000168569
0.000158447
0.000148932
0.000139636
0.000131539
0.000124452
0.000117723
0.000110191
0.000101179
9.14026e-05
8.09833e-05
6.87067e-05
5.46484e-05
4.44805e-05
4.09679e-05
4.1049e-05
4.32242e-05
4.3927e-05
4.20466e-05
3.97447e-05
3.81625e-05
3.72977e-05
3.67639e-05
3.63448e-05
3.59252e-05
3.53658e-05
3.45441e-05
3.3358e-05
3.24521e-05
3.22039e-05
3.17735e-05
3.15519e-05
3.1372e-05
3.11421e-05
3.0947e-05
3.08885e-05
3.09909e-05
3.13805e-05
3.14223e-05
3.01889e-05
2.85342e-05
2.73185e-05
2.64873e-05
2.587e-05
2.57232e-05
2.62802e-05
2.78673e-05
2.837e-05
0.000468031
0.000402802
0.000357455
0.000323304
0.000293858
0.000262064
0.000225629
0.00019335
0.000170008
0.000153348
0.000140497
0.000129594
0.000119946
0.000111383
0.000103442
9.6017e-05
9.26136e-05
9.36867e-05
9.57746e-05
9.46188e-05
8.99722e-05
8.32101e-05
7.52349e-05
6.65138e-05
5.80816e-05
5.19301e-05
4.89842e-05
4.91913e-05
5.14938e-05
4.94966e-05
4.35493e-05
3.7595e-05
3.37942e-05
3.21613e-05
3.17893e-05
3.18585e-05
3.19667e-05
3.18447e-05
3.13283e-05
3.08345e-05
3.24345e-05
3.41008e-05
3.36169e-05
3.29625e-05
3.2363e-05
3.19629e-05
3.20437e-05
3.26251e-05
3.32313e-05
3.3454e-05
3.2794e-05
3.08232e-05
2.89048e-05
2.79512e-05
2.74314e-05
2.70848e-05
2.73441e-05
2.85949e-05
3.11461e-05
3.18991e-05
0.000468813
0.000409582
0.000366628
0.000328797
0.000297373
0.000269811
0.000243954
0.000219131
0.000196406
0.000176375
0.000159025
0.000144327
0.000132076
0.000121942
0.000113907
0.000106905
9.76262e-05
8.91627e-05
8.58221e-05
8.39047e-05
8.07527e-05
7.64233e-05
7.16649e-05
6.67667e-05
6.23146e-05
5.91703e-05
5.79266e-05
5.89923e-05
6.05729e-05
5.705e-05
4.99476e-05
4.32152e-05
3.89957e-05
3.64965e-05
3.47073e-05
3.34892e-05
3.26194e-05
3.19052e-05
3.12014e-05
3.23411e-05
3.85479e-05
4.12648e-05
4.09349e-05
3.96106e-05
3.80517e-05
3.69026e-05
3.60807e-05
3.48464e-05
3.35656e-05
3.24293e-05
3.13755e-05
2.99225e-05
2.84643e-05
2.77971e-05
2.76921e-05
2.78276e-05
2.83637e-05
2.95345e-05
3.18004e-05
3.39602e-05
0.000805025
0.000747659
0.000687139
0.000618111
0.000549457
0.000496874
0.000457183
0.000411875
0.00035815
0.000311538
0.000277533
0.000252303
0.00023392
0.000220694
0.000211466
0.000188485
0.0001514
0.000136267
0.00013319
0.00013196
0.000130744
0.000129562
0.000128754
0.000128066
0.000127927
0.000129499
0.000131868
0.000133003
0.000125257
0.000110633
9.9916e-05
9.45501e-05
9.21829e-05
9.06682e-05
8.88586e-05
8.65038e-05
8.4412e-05
8.35323e-05
8.26355e-05
7.81193e-05
7.93472e-05
7.73479e-05
7.09438e-05
6.70433e-05
6.37726e-05
6.1991e-05
6.00293e-05
5.86434e-05
5.81951e-05
5.81551e-05
5.78077e-05
5.72131e-05
5.68585e-05
5.70651e-05
5.79892e-05
5.93694e-05
6.10955e-05
6.33549e-05
6.70743e-05
7.2408e-05
0.000805871
0.00074238
0.000684738
0.000631159
0.000595937
0.000517713
0.000468657
0.000418271
0.000366577
0.000324833
0.000295805
0.000275912
0.000261708
0.000251047
0.000242571
0.000235687
0.000230243
0.000226247
0.000225043
0.000224069
0.000215053
0.000192171
0.000170902
0.00016291
0.000160466
0.000154735
0.000145851
0.000132468
0.000118338
0.000107309
9.91289e-05
9.31307e-05
8.86681e-05
8.49392e-05
8.25909e-05
8.09745e-05
8.01392e-05
7.97796e-05
7.97371e-05
7.98821e-05
8.0756e-05
8.43013e-05
8.7603e-05
8.74098e-05
8.47191e-05
8.07394e-05
7.74393e-05
7.58116e-05
7.51078e-05
7.47119e-05
7.4517e-05
7.45654e-05
7.47393e-05
7.50457e-05
7.57243e-05
7.70293e-05
7.89899e-05
8.1216e-05
8.31619e-05
8.48253e-05
0.000468277
0.000405309
0.000361158
0.000325397
0.000305291
0.000283448
0.000259763
0.000238089
0.000219684
0.00020364
0.000189668
0.000177553
0.000166995
0.000157695
0.000149437
0.000142362
0.000135359
0.000127376
0.000119886
0.000114031
0.000107596
9.77549e-05
8.79388e-05
8.15904e-05
7.83355e-05
7.48513e-05
7.27832e-05
7.08841e-05
6.86353e-05
6.6421e-05
6.41037e-05
6.14701e-05
5.84767e-05
5.46547e-05
5.0409e-05
4.60528e-05
4.19359e-05
3.79965e-05
3.60624e-05
3.60527e-05
3.53231e-05
3.41647e-05
3.5358e-05
3.75347e-05
3.79825e-05
3.72718e-05
3.66465e-05
3.61979e-05
3.58177e-05
3.54229e-05
3.50576e-05
3.48458e-05
3.47701e-05
3.45928e-05
3.41661e-05
3.35264e-05
3.28162e-05
3.21e-05
3.14005e-05
3.06913e-05
0.000468025
0.000402493
0.000354863
0.000319578
0.000293778
0.000273357
0.000254849
0.000239034
0.000225178
0.000212601
0.000201036
0.000190447
0.000180753
0.000171878
0.000164015
0.00015748
0.000143179
0.000125044
0.000110805
0.000101512
9.44164e-05
8.83249e-05
8.24398e-05
7.67392e-05
7.35326e-05
7.14151e-05
6.93839e-05
6.73841e-05
6.47392e-05
6.21625e-05
5.99053e-05
5.84958e-05
5.73178e-05
5.57708e-05
5.36576e-05
5.09511e-05
4.80248e-05
4.5411e-05
4.36459e-05
4.24949e-05
4.175e-05
4.09826e-05
3.96593e-05
3.8479e-05
3.74477e-05
3.65229e-05
3.55552e-05
3.44739e-05
3.34128e-05
3.24603e-05
3.164e-05
3.1137e-05
3.10319e-05
3.10115e-05
3.07358e-05
3.01834e-05
2.95633e-05
2.89525e-05
2.83012e-05
2.76438e-05
0.000468002
0.000402506
0.000354654
0.000319448
0.000292458
0.000271708
0.000255003
0.000240759
0.000228046
0.000216551
0.000205905
0.00019592
0.000186522
0.000177703
0.000169543
0.000161309
0.000151889
0.000140768
0.000128009
0.000115727
0.000104445
9.37688e-05
8.21136e-05
7.11837e-05
6.45046e-05
6.18322e-05
6.02514e-05
5.79703e-05
5.52402e-05
5.22018e-05
4.98118e-05
4.83004e-05
4.76395e-05
4.7405e-05
4.72756e-05
4.68267e-05
4.59466e-05
4.50238e-05
4.40619e-05
4.27876e-05
4.14387e-05
4.04397e-05
3.98245e-05
3.91126e-05
3.82888e-05
3.73809e-05
3.61712e-05
3.4495e-05
3.24895e-05
3.06091e-05
2.92583e-05
2.84749e-05
2.81594e-05
2.80937e-05
2.79841e-05
2.76811e-05
2.72362e-05
2.67394e-05
2.60238e-05
2.54051e-05
0.000467987
0.000402489
0.000354849
0.000320071
0.000293361
0.000272373
0.00025541
0.000240756
0.000227704
0.000215967
0.000205177
0.000195248
0.00018597
0.000177153
0.000168869
0.000160623
0.000151488
0.00014091
0.000128967
0.000115971
0.00010173
8.74397e-05
7.34961e-05
6.1944e-05
5.4051e-05
4.96105e-05
4.85284e-05
4.69612e-05
4.47657e-05
4.26167e-05
4.11257e-05
4.00499e-05
3.97109e-05
3.9899e-05
4.03156e-05
4.06769e-05
4.07089e-05
4.04192e-05
3.9673e-05
3.87132e-05
3.75879e-05
3.67547e-05
3.64155e-05
3.61918e-05
3.57705e-05
3.50414e-05
3.39104e-05
3.21894e-05
3.03396e-05
2.91215e-05
2.84836e-05
2.79201e-05
2.74736e-05
2.72202e-05
2.69871e-05
2.65673e-05
2.59581e-05
2.5365e-05
2.4858e-05
2.42517e-05
0.000467998
0.000402342
0.000355015
0.000320672
0.000294013
0.000272269
0.000253816
0.000237588
0.000223086
0.000209902
0.000197818
0.000186565
0.000176286
0.000166906
0.000158196
0.000150018
0.00014257
0.000134924
0.000126372
0.000115915
0.000103379
9.02227e-05
7.69871e-05
6.39407e-05
5.24403e-05
4.45851e-05
4.12668e-05
3.95695e-05
3.89944e-05
3.94297e-05
3.93673e-05
3.88015e-05
3.81793e-05
3.76852e-05
3.73793e-05
3.7208e-05
3.70076e-05
3.65583e-05
3.58691e-05
3.4983e-05
3.39854e-05
3.32936e-05
3.30153e-05
3.29449e-05
3.28123e-05
3.2505e-05
3.21412e-05
3.1697e-05
3.11557e-05
3.06098e-05
2.99719e-05
2.89205e-05
2.78147e-05
2.70382e-05
2.65003e-05
2.59606e-05
2.54459e-05
2.50619e-05
2.46278e-05
2.406e-05
0.000467997
0.000402138
0.00035535
0.00032147
0.000294444
0.000270867
0.00024925
0.000230455
0.000215321
0.000202837
0.000190674
0.000179057
0.000168127
0.000157954
0.000148294
0.000138724
0.000130418
0.000123405
0.000116858
0.000109204
9.98753e-05
8.98213e-05
7.91214e-05
6.63475e-05
5.22654e-05
4.31869e-05
4.06346e-05
4.13735e-05
4.31898e-05
4.41434e-05
4.26293e-05
4.03645e-05
3.86012e-05
3.76577e-05
3.70095e-05
3.64555e-05
3.58802e-05
3.51878e-05
3.42796e-05
3.30617e-05
3.22205e-05
3.20531e-05
3.16636e-05
3.14446e-05
3.1244e-05
3.10254e-05
3.08315e-05
3.07275e-05
3.07328e-05
3.11194e-05
3.13004e-05
3.02941e-05
2.87071e-05
2.74403e-05
2.65478e-05
2.58909e-05
2.56669e-05
2.6097e-05
2.7526e-05
2.80296e-05
0.000468009
0.000402592
0.00035684
0.000322882
0.000293267
0.00026067
0.000223553
0.000191447
0.000168682
0.000152594
0.00014006
0.000129008
0.000119159
0.000110478
0.000102083
9.46237e-05
9.14787e-05
9.31939e-05
9.56193e-05
9.4222e-05
8.91541e-05
8.20203e-05
7.37273e-05
6.47679e-05
5.6377e-05
5.06502e-05
4.85357e-05
4.91046e-05
5.13073e-05
5.02478e-05
4.50789e-05
3.91431e-05
3.48744e-05
3.27057e-05
3.20366e-05
3.19691e-05
3.19535e-05
3.17737e-05
3.13289e-05
3.06488e-05
3.22031e-05
3.39524e-05
3.35246e-05
3.29052e-05
3.23174e-05
3.18743e-05
3.1829e-05
3.22723e-05
3.28679e-05
3.31899e-05
3.2766e-05
3.1047e-05
2.91035e-05
2.8025e-05
2.74283e-05
2.70326e-05
2.71971e-05
2.83338e-05
3.08096e-05
3.17003e-05
0.000468141
0.000406659
0.000362673
0.000326792
0.000296249
0.000268457
0.000242185
0.000217153
0.000194556
0.000174823
0.000157712
0.000143208
0.000131171
0.000121238
0.000113671
0.000106385
9.66956e-05
8.8393e-05
8.55506e-05
8.36516e-05
8.02679e-05
7.5693e-05
7.07551e-05
6.57344e-05
6.12866e-05
5.82799e-05
5.72331e-05
5.8232e-05
6.04436e-05
5.82539e-05
5.20223e-05
4.51522e-05
4.02904e-05
3.7314e-05
3.52097e-05
3.38079e-05
3.28477e-05
3.20482e-05
3.13151e-05
3.22305e-05
3.81502e-05
4.10542e-05
4.07403e-05
3.94595e-05
3.79371e-05
3.67722e-05
3.59543e-05
3.48455e-05
3.36654e-05
3.25324e-05
3.15111e-05
3.01372e-05
2.86451e-05
2.78505e-05
2.76437e-05
2.77121e-05
2.81741e-05
2.92675e-05
3.14591e-05
3.36367e-05
0.000804929
0.000747638
0.000688681
0.000620702
0.000552106
0.00049888
0.00045888
0.000414305
0.000361715
0.000315401
0.000280966
0.000255156
0.00023624
0.00022266
0.00021326
0.000184619
0.000147681
0.000135075
0.000132718
0.000131506
0.000130167
0.000128861
0.000127942
0.000127163
0.000127051
0.000128741
0.000131605
0.000133628
0.000128422
0.000114944
0.00010332
9.67084e-05
9.35532e-05
9.17401e-05
8.99919e-05
8.77022e-05
8.56442e-05
8.48876e-05
8.42221e-05
7.93463e-05
7.95708e-05
7.7597e-05
7.1132e-05
6.70987e-05
6.38597e-05
6.21339e-05
6.02372e-05
5.8873e-05
5.83962e-05
5.84286e-05
5.81336e-05
5.74549e-05
5.69662e-05
5.70794e-05
5.79096e-05
5.92139e-05
6.08503e-05
6.29947e-05
6.65784e-05
7.18519e-05
)
;

boundaryField
{
    wall
    {
        type            nutkWallFunction;
        Cmu             0.09;
        kappa           0.41;
        E               9.8;
        value           nonuniform List<scalar> 
1200
(
5.15588e-05
4.82555e-05
4.82411e-05
4.82416e-05
4.82407e-05
4.82405e-05
4.82406e-05
4.82437e-05
4.83199e-05
5.15298e-05
4.78482e-05
4.22338e-05
4.2064e-05
4.20625e-05
4.206e-05
4.20464e-05
4.20171e-05
4.20932e-05
4.27139e-05
4.81565e-05
4.44229e-05
3.80268e-05
3.75275e-05
3.74916e-05
3.75107e-05
3.7529e-05
3.75649e-05
3.7752e-05
3.85147e-05
4.44789e-05
4.1217e-05
3.46076e-05
3.41176e-05
3.40845e-05
3.4143e-05
3.42016e-05
3.42801e-05
3.44285e-05
3.4877e-05
4.03085e-05
3.83621e-05
3.25623e-05
3.15808e-05
3.14437e-05
3.15198e-05
3.15823e-05
3.16247e-05
3.14994e-05
3.17979e-05
3.61832e-05
3.37694e-05
3.00979e-05
2.94426e-05
2.93781e-05
2.94464e-05
2.94325e-05
2.92953e-05
2.82522e-05
2.90255e-05
3.30469e-05
3.11745e-05
2.76851e-05
2.75583e-05
2.77049e-05
2.77493e-05
2.75981e-05
2.71515e-05
2.45307e-05
2.63987e-05
3.06396e-05
2.79902e-05
2.55333e-05
2.5962e-05
2.62634e-05
2.62742e-05
2.59745e-05
2.52809e-05
2.12889e-05
2.3885e-05
2.77746e-05
2.466e-05
2.37265e-05
2.45557e-05
2.49674e-05
2.49488e-05
2.45105e-05
2.37571e-05
1.89659e-05
2.16e-05
2.4317e-05
2.20194e-05
2.21422e-05
2.3269e-05
2.37741e-05
2.3742e-05
2.31689e-05
2.24709e-05
1.72992e-05
1.95825e-05
2.13399e-05
2.02311e-05
2.07624e-05
2.20734e-05
2.26295e-05
2.26026e-05
2.19307e-05
2.12326e-05
1.59597e-05
1.78121e-05
1.91937e-05
1.90259e-05
1.956e-05
2.09699e-05
2.15385e-05
2.15184e-05
2.07818e-05
2.00365e-05
1.47656e-05
1.62952e-05
1.76014e-05
1.81694e-05
1.85037e-05
1.99527e-05
2.05008e-05
2.04753e-05
1.97221e-05
1.89041e-05
1.36954e-05
1.50234e-05
1.64376e-05
1.75249e-05
1.7564e-05
1.90166e-05
1.95233e-05
1.94721e-05
1.87461e-05
1.78394e-05
1.27442e-05
1.39696e-05
1.56028e-05
1.70081e-05
1.67178e-05
1.81611e-05
1.86314e-05
1.85398e-05
1.7834e-05
1.67974e-05
1.18572e-05
1.31493e-05
1.50677e-05
1.65843e-05
1.59513e-05
1.72497e-05
1.78168e-05
1.77278e-05
1.69763e-05
1.57587e-05
1.10822e-05
1.23298e-05
1.31547e-05
1.62552e-05
1.52065e-05
1.58596e-05
1.6948e-05
1.69147e-05
1.61976e-05
1.48982e-05
1.07493e-05
1.12772e-05
1.07897e-05
1.60297e-05
1.44437e-05
1.41896e-05
1.58961e-05
1.5947e-05
1.54174e-05
1.41806e-05
1.09551e-05
1.03942e-05
9.96961e-06
1.59013e-05
1.36864e-05
1.27872e-05
1.46141e-05
1.47511e-05
1.45148e-05
1.34905e-05
1.12133e-05
1.00945e-05
9.80546e-06
1.57047e-05
1.30093e-05
1.18007e-05
1.33248e-05
1.33497e-05
1.33684e-05
1.26508e-05
1.10376e-05
9.87405e-06
9.71428e-06
1.50524e-05
1.22622e-05
1.10292e-05
1.20951e-05
1.17751e-05
1.19815e-05
1.16168e-05
1.04565e-05
9.48197e-06
9.61483e-06
1.3629e-05
1.12518e-05
1.03607e-05
1.09047e-05
1.01897e-05
1.05208e-05
1.04985e-05
9.6468e-06
8.95591e-06
9.51907e-06
1.23023e-05
1.02425e-05
9.68911e-06
9.5928e-06
8.63518e-06
9.03622e-06
9.29098e-06
8.70142e-06
8.38832e-06
9.45149e-06
1.17918e-05
9.55864e-06
9.03612e-06
8.3641e-06
7.32838e-06
7.55296e-06
7.8297e-06
7.67792e-06
7.81418e-06
9.39549e-06
1.13555e-05
9.00829e-06
8.68228e-06
7.62275e-06
6.43483e-06
6.24823e-06
6.24141e-06
6.73161e-06
7.31296e-06
9.39191e-06
1.09162e-05
8.65393e-06
8.31742e-06
7.36582e-06
5.96728e-06
5.36652e-06
5.22068e-06
6.10555e-06
6.98844e-06
9.52134e-06
1.02029e-05
8.45647e-06
8.0282e-06
7.20795e-06
5.84787e-06
4.98411e-06
4.93396e-06
5.90005e-06
6.92303e-06
9.68568e-06
9.11358e-06
8.20212e-06
7.86703e-06
6.93757e-06
5.65011e-06
4.78725e-06
5.0316e-06
6.01813e-06
7.12947e-06
9.63751e-06
8.06536e-06
7.91536e-06
7.63472e-06
6.61319e-06
5.37897e-06
4.73272e-06
5.28787e-06
6.20497e-06
7.16198e-06
8.89774e-06
7.37659e-06
7.66275e-06
7.37075e-06
6.26576e-06
5.13847e-06
4.75634e-06
5.25509e-06
5.79618e-06
6.57383e-06
7.89942e-06
6.93273e-06
7.39697e-06
7.13039e-06
5.99818e-06
4.97141e-06
4.70464e-06
4.98589e-06
5.02748e-06
5.71486e-06
7.26323e-06
6.61815e-06
7.09611e-06
6.96435e-06
5.83595e-06
4.85635e-06
4.62257e-06
4.72078e-06
4.3624e-06
5.0161e-06
6.97263e-06
6.371e-06
6.74209e-06
6.77894e-06
5.75697e-06
4.82817e-06
4.55684e-06
4.55229e-06
3.98284e-06
4.60138e-06
6.84496e-06
6.13768e-06
6.25194e-06
6.53205e-06
5.72127e-06
4.85584e-06
4.52043e-06
4.45296e-06
3.84066e-06
4.34273e-06
6.73765e-06
5.98752e-06
5.70508e-06
6.21963e-06
5.68106e-06
4.90346e-06
4.50537e-06
4.39125e-06
3.81017e-06
4.15432e-06
6.58837e-06
5.89442e-06
5.17798e-06
5.84137e-06
5.57408e-06
4.92649e-06
4.4969e-06
4.34051e-06
3.8138e-06
4.01917e-06
6.40158e-06
5.86614e-06
4.71822e-06
5.46368e-06
5.42978e-06
4.90412e-06
4.4744e-06
4.28617e-06
3.81473e-06
3.91807e-06
6.23915e-06
5.89309e-06
4.33737e-06
5.16566e-06
5.30892e-06
4.85509e-06
4.42227e-06
4.21621e-06
3.78883e-06
3.83267e-06
6.17629e-06
5.91557e-06
4.23339e-06
4.98985e-06
5.21861e-06
4.77733e-06
4.33816e-06
4.11622e-06
3.72713e-06
3.7471e-06
6.09697e-06
5.96195e-06
4.24732e-06
4.89297e-06
5.09457e-06
4.66901e-06
4.22711e-06
3.97665e-06
3.67172e-06
3.91782e-06
5.80828e-06
6.0877e-06
4.20469e-06
4.81494e-06
4.95054e-06
4.53609e-06
4.10711e-06
3.89424e-06
3.93904e-06
4.7247e-06
5.99209e-06
6.41405e-06
4.14607e-06
4.71687e-06
4.83925e-06
4.43859e-06
4.02581e-06
3.8808e-06
4.14883e-06
5.03294e-06
5.82399e-06
6.60649e-06
4.46126e-06
4.5929e-06
4.74303e-06
4.39687e-06
3.99856e-06
3.84169e-06
4.08111e-06
4.99244e-06
5.35653e-06
6.5145e-06
4.6668e-06
4.49737e-06
4.62775e-06
4.35088e-06
3.99302e-06
3.82056e-06
3.99901e-06
4.8284e-06
5.06925e-06
6.27161e-06
4.63969e-06
4.4032e-06
4.51082e-06
4.2734e-06
3.97165e-06
3.79972e-06
3.92823e-06
4.63467e-06
4.81886e-06
5.9884e-06
4.56459e-06
4.31008e-06
4.40069e-06
4.15273e-06
3.931e-06
3.77584e-06
3.8913e-06
4.49474e-06
4.67717e-06
5.80361e-06
4.49945e-06
4.21859e-06
4.25186e-06
3.97495e-06
3.87489e-06
3.76111e-06
3.92139e-06
4.38258e-06
4.52073e-06
5.71826e-06
4.45757e-06
4.123e-06
4.04038e-06
3.74557e-06
3.80773e-06
3.76234e-06
4.00486e-06
4.20295e-06
4.41231e-06
5.67268e-06
4.41315e-06
4.02941e-06
3.80668e-06
3.55334e-06
3.73959e-06
3.78138e-06
4.07086e-06
4.03227e-06
4.37851e-06
5.63677e-06
4.35804e-06
3.93117e-06
3.6086e-06
3.45615e-06
3.6754e-06
3.8274e-06
4.0705e-06
3.88998e-06
4.37607e-06
5.61189e-06
4.30957e-06
3.83871e-06
3.47758e-06
3.39697e-06
3.58115e-06
3.79731e-06
3.94197e-06
3.75171e-06
4.35594e-06
5.60193e-06
4.28291e-06
3.79053e-06
3.41047e-06
3.33412e-06
3.43406e-06
3.60865e-06
3.67077e-06
3.56232e-06
4.3196e-06
5.6016e-06
4.26178e-06
3.78426e-06
3.39377e-06
3.29261e-06
3.30568e-06
3.40166e-06
3.44939e-06
3.39537e-06
4.29502e-06
5.62308e-06
4.21274e-06
3.76478e-06
3.39265e-06
3.27064e-06
3.22611e-06
3.26032e-06
3.35079e-06
3.33377e-06
4.31693e-06
5.68808e-06
4.1272e-06
3.70027e-06
3.37173e-06
3.23694e-06
3.16482e-06
3.1627e-06
3.29569e-06
3.33582e-06
4.39755e-06
5.8105e-06
4.02261e-06
3.61188e-06
3.31575e-06
3.17136e-06
3.09397e-06
3.08926e-06
3.25973e-06
3.36373e-06
4.51399e-06
5.98081e-06
3.92162e-06
3.52591e-06
3.24698e-06
3.08453e-06
3.0362e-06
3.08619e-06
3.3083e-06
3.44326e-06
4.65633e-06
6.15141e-06
3.82629e-06
3.44175e-06
3.17965e-06
3.00846e-06
3.00647e-06
3.17842e-06
3.48094e-06
3.60162e-06
4.83684e-06
6.28886e-06
3.74087e-06
3.35709e-06
3.09709e-06
2.9403e-06
2.97842e-06
3.39732e-06
3.80649e-06
3.89582e-06
5.12768e-06
6.39677e-06
3.65784e-06
3.28914e-06
3.03214e-06
2.87792e-06
2.89209e-06
3.45341e-06
3.873e-06
4.15335e-06
5.53063e-06
5.15763e-05
4.82702e-05
4.8242e-05
4.82403e-05
4.82401e-05
4.82404e-05
4.82403e-05
4.82412e-05
4.82526e-05
5.15247e-05
4.78489e-05
4.23599e-05
4.20589e-05
4.20557e-05
4.20585e-05
4.20465e-05
4.20288e-05
4.2074e-05
4.24336e-05
4.81621e-05
4.43254e-05
3.81217e-05
3.75155e-05
3.74858e-05
3.75111e-05
3.75314e-05
3.75694e-05
3.77064e-05
3.82189e-05
4.45765e-05
4.10425e-05
3.46281e-05
3.41025e-05
3.40806e-05
3.41427e-05
3.41977e-05
3.42761e-05
3.43932e-05
3.4723e-05
4.0466e-05
3.86251e-05
3.25751e-05
3.15646e-05
3.14391e-05
3.15164e-05
3.15667e-05
3.16077e-05
3.14407e-05
3.16963e-05
3.63402e-05
3.40659e-05
3.02825e-05
2.94887e-05
2.93842e-05
2.94401e-05
2.94037e-05
2.92617e-05
2.81084e-05
2.88903e-05
3.3165e-05
3.13061e-05
2.79126e-05
2.76286e-05
2.77127e-05
2.77361e-05
2.75551e-05
2.71149e-05
2.43224e-05
2.62208e-05
3.07419e-05
2.81581e-05
2.57633e-05
2.60383e-05
2.62602e-05
2.62509e-05
2.59195e-05
2.52769e-05
2.11054e-05
2.36901e-05
2.79296e-05
2.48763e-05
2.39393e-05
2.46362e-05
2.49555e-05
2.49195e-05
2.44418e-05
2.37885e-05
1.88431e-05
2.14217e-05
2.45503e-05
2.22382e-05
2.23362e-05
2.33546e-05
2.37694e-05
2.37162e-05
2.3086e-05
2.24797e-05
1.72334e-05
1.94319e-05
2.15934e-05
2.04213e-05
2.09337e-05
2.21669e-05
2.26559e-05
2.26007e-05
2.18347e-05
2.12077e-05
1.58952e-05
1.7681e-05
1.94197e-05
1.9183e-05
1.97117e-05
2.10721e-05
2.1601e-05
2.15549e-05
2.06772e-05
1.9993e-05
1.46711e-05
1.61825e-05
1.77921e-05
1.82985e-05
1.86405e-05
2.00636e-05
2.05999e-05
2.05573e-05
1.96195e-05
1.88505e-05
1.35755e-05
1.49298e-05
1.65971e-05
1.76321e-05
1.76905e-05
1.91355e-05
1.96555e-05
1.96006e-05
1.86481e-05
1.77773e-05
1.26026e-05
1.38991e-05
1.57393e-05
1.70986e-05
1.68404e-05
1.82803e-05
1.8783e-05
1.87027e-05
1.77397e-05
1.67012e-05
1.16883e-05
1.31294e-05
1.51735e-05
1.66613e-05
1.60584e-05
1.71622e-05
1.79061e-05
1.78418e-05
1.68872e-05
1.56223e-05
1.09426e-05
1.22478e-05
1.2833e-05
1.63186e-05
1.52487e-05
1.54673e-05
1.69186e-05
1.69022e-05
1.61147e-05
1.47676e-05
1.06442e-05
1.11564e-05
1.05553e-05
1.60836e-05
1.44062e-05
1.37708e-05
1.5759e-05
1.58341e-05
1.53351e-05
1.40735e-05
1.09228e-05
1.03139e-05
9.90274e-06
1.59348e-05
1.35869e-05
1.2486e-05
1.44213e-05
1.4601e-05
1.4427e-05
1.34002e-05
1.1202e-05
1.00704e-05
9.77514e-06
1.5602e-05
1.28682e-05
1.15871e-05
1.31274e-05
1.31516e-05
1.32339e-05
1.25372e-05
1.09873e-05
9.84235e-06
9.67964e-06
1.47028e-05
1.20194e-05
1.08609e-05
1.18833e-05
1.15084e-05
1.17832e-05
1.14618e-05
1.03539e-05
9.41881e-06
9.5695e-06
1.31598e-05
1.09424e-05
1.02205e-05
1.06565e-05
9.87741e-06
1.02761e-05
1.03106e-05
9.50027e-06
8.86321e-06
9.46446e-06
1.19138e-05
9.9563e-06
9.53294e-06
9.29194e-06
8.31878e-06
8.75469e-06
9.06447e-06
8.51757e-06
8.27519e-06
9.3895e-06
1.14799e-05
9.31618e-06
8.85904e-06
8.05095e-06
7.03182e-06
7.2536e-06
7.54622e-06
7.47018e-06
7.68978e-06
9.3294e-06
1.13907e-05
8.99308e-06
8.51657e-06
7.35146e-06
6.18482e-06
5.98163e-06
5.98501e-06
6.54306e-06
7.1969e-06
9.33224e-06
1.10647e-05
8.70253e-06
8.29294e-06
7.13626e-06
5.78521e-06
5.19213e-06
5.10063e-06
5.98671e-06
6.90041e-06
9.47658e-06
1.04223e-05
8.52477e-06
8.07638e-06
7.03026e-06
5.72243e-06
4.89441e-06
4.91631e-06
5.88238e-06
6.86352e-06
9.67213e-06
9.41107e-06
8.29845e-06
7.87547e-06
6.79228e-06
5.54767e-06
4.7406e-06
5.07006e-06
6.02375e-06
7.06447e-06
9.72414e-06
8.39122e-06
8.03139e-06
7.58638e-06
6.48933e-06
5.29449e-06
4.71962e-06
5.29746e-06
6.21894e-06
7.20202e-06
9.15746e-06
7.66372e-06
7.78177e-06
7.2982e-06
6.16871e-06
5.08126e-06
4.75828e-06
5.30472e-06
5.91956e-06
6.76068e-06
8.18769e-06
7.15613e-06
7.517e-06
7.0576e-06
5.9255e-06
4.93402e-06
4.72768e-06
5.06597e-06
5.21427e-06
5.96099e-06
7.47072e-06
6.78729e-06
7.21724e-06
6.90473e-06
5.77328e-06
4.83338e-06
4.65202e-06
4.7954e-06
4.52754e-06
5.21331e-06
7.09969e-06
6.50509e-06
6.86835e-06
6.76785e-06
5.69972e-06
4.81195e-06
4.57752e-06
4.60716e-06
4.08688e-06
4.72409e-06
6.92768e-06
6.2543e-06
6.39907e-06
6.57874e-06
5.67107e-06
4.8419e-06
4.52396e-06
4.49929e-06
3.88914e-06
4.41914e-06
6.80954e-06
6.09503e-06
5.87424e-06
6.31203e-06
5.64931e-06
4.88701e-06
4.49569e-06
4.42533e-06
3.83249e-06
4.20059e-06
6.66787e-06
5.99192e-06
5.35329e-06
5.96887e-06
5.58444e-06
4.91413e-06
4.47732e-06
4.3514e-06
3.82188e-06
4.04907e-06
6.48805e-06
5.95037e-06
4.88001e-06
5.60962e-06
5.46973e-06
4.90309e-06
4.45117e-06
4.27998e-06
3.80602e-06
3.94037e-06
6.33049e-06
5.94934e-06
4.45565e-06
5.3122e-06
5.35749e-06
4.85853e-06
4.39883e-06
4.19665e-06
3.77114e-06
3.85113e-06
6.28082e-06
5.96096e-06
4.28963e-06
5.12361e-06
5.2426e-06
4.77283e-06
4.31742e-06
4.08606e-06
3.71366e-06
3.76382e-06
6.21941e-06
5.9915e-06
4.27323e-06
5.00679e-06
5.09063e-06
4.65278e-06
4.20684e-06
3.94432e-06
3.64454e-06
3.89306e-06
5.89154e-06
6.07986e-06
4.22489e-06
4.88968e-06
4.9286e-06
4.51389e-06
4.08955e-06
3.87596e-06
3.90611e-06
4.67066e-06
5.99969e-06
6.3814e-06
4.16409e-06
4.78223e-06
4.81183e-06
4.41645e-06
4.01431e-06
3.87519e-06
4.12019e-06
5.00351e-06
5.84189e-06
6.60203e-06
4.31894e-06
4.64241e-06
4.72709e-06
4.3799e-06
3.98884e-06
3.84072e-06
4.06214e-06
4.96248e-06
5.36746e-06
6.54586e-06
4.56155e-06
4.53523e-06
4.63526e-06
4.34817e-06
3.98151e-06
3.81863e-06
3.98532e-06
4.80398e-06
5.07332e-06
6.32408e-06
4.5809e-06
4.43806e-06
4.53787e-06
4.289e-06
3.96241e-06
3.79369e-06
3.91586e-06
4.61585e-06
4.82577e-06
6.03505e-06
4.51727e-06
4.3426e-06
4.43812e-06
4.18676e-06
3.9249e-06
3.76644e-06
3.87156e-06
4.47588e-06
4.68893e-06
5.82504e-06
4.46054e-06
4.24625e-06
4.29731e-06
4.02812e-06
3.8754e-06
3.74514e-06
3.88578e-06
4.36965e-06
4.53785e-06
5.72476e-06
4.41985e-06
4.13834e-06
4.09187e-06
3.80668e-06
3.81449e-06
3.73792e-06
3.95805e-06
4.20948e-06
4.43153e-06
5.67574e-06
4.37696e-06
4.02949e-06
3.85415e-06
3.59847e-06
3.74707e-06
3.7527e-06
4.02723e-06
4.04782e-06
4.3974e-06
5.64208e-06
4.32552e-06
3.92361e-06
3.64232e-06
3.47694e-06
3.68198e-06
3.79962e-06
4.04209e-06
3.90699e-06
4.39541e-06
5.62153e-06
4.27882e-06
3.82792e-06
3.49539e-06
3.4079e-06
3.59365e-06
3.78912e-06
3.94811e-06
3.77014e-06
4.37242e-06
5.61748e-06
4.25288e-06
3.77411e-06
3.41467e-06
3.34103e-06
3.45233e-06
3.6265e-06
3.70192e-06
3.59036e-06
4.32611e-06
5.62293e-06
4.23705e-06
3.76519e-06
3.38784e-06
3.2929e-06
3.31873e-06
3.42238e-06
3.47063e-06
3.4149e-06
4.29458e-06
5.64481e-06
4.19951e-06
3.7532e-06
3.38373e-06
3.26628e-06
3.2311e-06
3.27232e-06
3.35543e-06
3.33668e-06
4.31048e-06
5.70303e-06
4.12775e-06
3.70191e-06
3.36568e-06
3.23456e-06
3.16681e-06
3.16782e-06
3.29125e-06
3.32646e-06
4.38483e-06
5.81314e-06
4.03355e-06
3.62186e-06
3.31693e-06
3.17451e-06
3.09704e-06
3.08999e-06
3.24881e-06
3.34572e-06
4.49518e-06
5.97023e-06
3.93754e-06
3.5394e-06
3.25241e-06
3.09194e-06
3.03575e-06
3.07561e-06
3.28494e-06
3.41578e-06
4.63048e-06
6.13679e-06
3.84535e-06
3.45775e-06
3.1855e-06
3.01664e-06
2.99715e-06
3.15069e-06
3.44476e-06
3.56506e-06
4.80322e-06
6.27679e-06
3.76052e-06
3.37934e-06
3.09035e-06
2.94723e-06
2.95662e-06
3.35205e-06
3.76384e-06
3.85062e-06
5.08581e-06
6.39928e-06
3.6765e-06
3.28792e-06
3.03552e-06
2.88044e-06
2.88384e-06
3.41339e-06
3.85055e-06
4.11368e-06
5.48664e-06
)
;
    }
    inlet
    {
        type            calculated;
        value           uniform 0.0381026;
    }
    outlet
    {
        type            calculated;
        value           nonuniform List<scalar> 
20
(
8.48421e-05
3.05624e-05
2.76191e-05
2.54223e-05
2.42691e-05
2.40402e-05
2.837e-05
3.18991e-05
3.39602e-05
7.2408e-05
8.48253e-05
3.06913e-05
2.76438e-05
2.54051e-05
2.42517e-05
2.406e-05
2.80296e-05
3.17003e-05
3.36367e-05
7.18519e-05
)
;
    }
    heatWall
    {
        type            nutkWallFunction;