/*--------------------------------*- C++ -*----------------------------------*\
  =========                 |
  \\      /  F ield         | OpenFOAM: The Open Source CFD Toolbox
   \\    /   O peration     | Website:  https://openfoam.org
    \\  /    A nd           | Version:  8
     \\/     M anipulation  |
\*---------------------------------------------------------------------------*/
FoamFile
{
    version     2.0;
    format      ascii;
    class       volScalarField;
    location    "100";
    object      p;
}
// * * * * * * * * * * * * * * * * * * * * * * * * * * * * * * * * * * * * * //

dimensions      [1 -1 -2 0 0 0 0];

internalField   nonuniform List<scalar> 
1200
(
964617
963139
941699
898012
893218
840903
729573
679043
670090
676237
686426
699106
711604
722557
733556
747144
755238
751699
744470
738160
730412
715400
700615
688890
672330
653276
641783
625414
602371
581408
564855
548528
533436
520442
506475
494474
482763
471481
459275
450239
443415
432265
418282
397660
387322
393955
410727
425248
423278
398565
356825
302542
242164
184688
131498
85626.7
51166.1
28643.5
17440.4
7580.17
958142
961243
941607
899882
877051
800409
695261
661467
662571
673003
684975
697813
710467
721717
732945
746866
754874
751178
743457
736738
728929
715696
700951
687255
670965
652732
640650
624544
603309
583558
565874
548665
533746
521160
506522
494006
482700
470553
455927
447947
443991
433742
419452
395490
384123
392406
409716
425124
423128
397959
355685
300797
240123
182949
129753
83350.3
48828.8
27482.7
17555.5
8248.86
961659
959421
940670
903326
872185
809680
728335
685130
674885
678751
687152
697519
709215
720081
731442
747430
756652
751864
743022
736058
728862
716804
701910
686146
668163
651073
637072
622725
605838
587458
567352
548027
532016
518784
506325
495288
482811
470152
458251
450467
443934
430208
414378
394743
387390
396542
413357
426649
422217
396121
354087
299461
238811
182372
129334
81748.1
46440.3
25541.5
17779.1
10306.6
961988
958230
939942
902302
863708
802641
729400
685366
672434
676282
686539
697812
709813
720516
730987
743478
751013
749810
744121
736486
728015
716150
701880
685439
664300
644986
631382
620927
609224
591490
568496
546078
527712
513930
503501
494400
482990
471777
462293
455167
446069
428129
410836
396208
392302
401697
417013
427695
422340
397006
355344
299386
237419
181406
128752
81215.2
45587.6
26031.2
21436.8
10090
963726
960330
940382
899571
856308
800828
736469
691464
674023
675808
685516
696901
708954
719695
729777
741098
748493
748897
745192
737882
728578
716216
701759
685411
662983
639411
626555
621085
613026
595080
569367
543934
523700
509570
499915
492508
483164
474297
466748
460065
449802
426609
406462
396204
397136
408460
423349
431477
423237
396526
355817
302257
240861
184022
131357
83950.4
48787.7
26798.6
18928.2
8688.85
966512
964390
942165
896194
849739
800187
742592
697875
677610
677193
685750
696547
708050
718719
728569
739128
743625
741650
739772
736066
727863
715866
701142
685200
662958
636920
624052
620914
616877
598114
570038
541635
520145
506170
496825
490385
482751
475432
469519
463553
453619
424699
400590
393989
399534
412356
425723
430477
421062
396144
357457
305490
245137
188392
135285
87943.4
52378.6
28585.4
18471
8171.69
969954
970949
946400
893522
841236
792229
735142
688340
668448
671988
683519
696292
708720
719564
729171
740106
741243
737757
738114
737390
729614
716728
702239
687128
664245
637375
623160
618287
619789
600560
569346
538158
514344
500530
492465
487362
481364
475917
472278
468755
459180
423415
392780
389130
398290
412972
426092
429056
416118
389021
354449
307983
250741
194365
141010
93703.9
56848.7
30562.9
18965.7
7595.53
973577
980247
953842
893858
842715
802217
750352
702931
678117
674538
683542
696010
708569
719838
727945
739037
737341
732097
735465
738266
731600
718831
703534
685854
663091
639448
621327
618432
622787
605899
574709
541221
514068
497802
489691
484526
479703
476056
474229
472990
465269
422516
386133
386164
397530
412970
424621
425439
411453
386021
354161
310368
256520
201802
147946
99713.2
61529.6
33931.8
19071
6933.76
976864
993468
964859
903978
843304
797564
749515
707913
682903
678292
686519
698037
709407
720195
725968
740680
735011
730839
737334
740756
733817
720722
705740
687957
664981
641651
625326
623835
628303
607306
574220
542550
516553
499637
489862
483996
479084
476264
475648
476902
473870
415234
371858
381540
396845
413712
424159
423218
407886
382219
352007
309898
258389
206679
153378
104495
64660.8
34670.8
18603.8
4270.56
987711
1.00477e+06
959389
893511
847701
809889
764822
716450
682046
674089
683959
697008
708922
719945
725855
740926
735040
729509
738088
743134
736451
723293
707917
689071
666238
644112
628719
627312
630253
607477
572907
541327
515731
499133
489576
483628
478718
475599
475293
478642
477630
430142
376661
379804
396152
414701
424304
421588
405304
379242
349091
309737
261986
211607
157968
108467
67587.4
37231.1
19171.5
8334.43
970496
963889
943835
891688
876833
827612
720809
679016
670761
675753
686269
698902
711450
722508
733432
747167
755845
752917
745483
738283
731052
717317
701317
685147
664298
650976
641156
625510
603460
582294
564586
547898
532818
519818
507044
494783
483188
470572
458250
449837
443304
430299
416843
397251
387299
393455
409217
423392
421929
397225
355370
301477
241417
184575
131804
86051.4
51799.4
29418.8
18899.8
9178.2
959767
957146
938041
897218
876577
802539
700056
665108
664094
672901
685006
698079
710793
722031
733143
747141
755538
752211
744208
736413
729051
716621
701390
684886
664722
650983
641306
627416
605706
584378
565117
547294
532279
519317
506569
494185
482764
470182
456250
448737
444721
433504
419055
395627
384447
392238
408364
423194
422070
397079
354613
300313
239908
183108
130195
83934.4
49887.5
28424.8
19184.8
9057.75
961175
958612
939783
903108
874477
807375
727228
687546
675691
677981
686531
697954
709866
720835
732409
748895
758658
753918
744264
735466
728362
716356
702135
684640
663548
648320
638016
626823
608594
587584
566053
546161
530271
517385
505608
494674
483121
471259
459290
451469
444527
429488
413467
393886
386860
396392
412315
424906
421074
394960
352784
297976
237526
181874
129414
82459.6
47954.5
26851.5
19321.5
11598.9
961742
958637
939561
902235
864577
802764
730763
686787
672221
674880
684993
697884
710167
721024
731850
745046
753481
753289
747416
736876
727563
715460
702044
684215
660858
643122
632697
624651
609705
590753
567636
544982
527017
513521
502812
493188
482802
473328
464291
455884
446244
427409
409622
395053
391551
401429
416121
426112
420816
395341
354211
298550
236889
181370
128880
81815.9
47330
27480.3
21936.8
10605.3
963744
960279
940377
899631
856508
800986
736434
691534
673226
674079
683964
696642
708963
719937
730520
743021
751451
753360
750076
739235
728209
715373
701804
684685
660770
638214
626935
623308
611988
594032
569221
543918
523500
509476
499330
491307
482790
475443
468225
460581
449365
425766
405073
395012
395795
407540
422251
430130
421780
394432
353827
300550
240132
184137
131288
83957.8
49326.5
27439.9
19131
9352.98
966488
963998
942842
897524
851646
801549
743198
698565
676999
675662
684396
695761
707490
718518
728975
740240
744765
745140
744508
737532
727868
715489
701185
685060
662340
636564
624173
621424
614445
596730
570206
542256
520319
506625
497126
490505
482814
476629
470347
464693
453393
423660
399122
393010
398612
411894
424772
429151
419557
393818
355101
303598
244474
188668
135139
87542.9
52319.4
29002.1
19210.9
9052.74
970315
970291
946827
894948
842871
790848
733118
687430
667310
671031
683021
695959
708382
719629
729800
740934
742084
741348
742630
738459
729136
716145
702547
687858
664974
637817
622766
616998
616686
598942
570024
539131
515087
501351
493298
487932
481377
476348
473117
469842
459730
422471
391623
388506
397914
412156
424660
427948
415433
387500
352220
305625
249566
194421
140774
93101.4
56316.2
30311.9
18596.4
7925.44
975238
980727
954493
897417
850234
807301
753738
704410
677390
673440
682942
695237
707701
719269
727812
739212
738169
735324
738957
738629
731238
718538
703406
685723
662865
638377
619778
616371
620035
603456
574028
541566
514667
498598
490696
485748
480302
476076
473981
473981
466929
422347
385641
385687
397043
411024
422259
424415
411809
386021
353346
308494
254491
201547
147892
99405.7
60398.9
32609.5
17815.1
6074.25
977527
998185
968312
908353
846580
795923
749074
708889
683225
678248
686000
696753
708269
719492
725728
740754
736508
733658
738548
739784
732761
719848
704457
687076
663658
639147
623725
622444
626347
605617
573292
541943
516481
499898
490368
484654
479907
476430
474902
475640
475485
417229
370722
380512
396297
412047
422217
423216
409830
383323
352133
308985
256984
206155
153410
104630
63530.1
32678.9
14727.3
2017.62
983909
999933
955636
889576
838077
797439
755525
711765
681554
675429
684918
697003
709169
720610
727026
742222
736983
731817
738812
741950
735172
722023
706122
688094
665178
641758
626562
625387
628322
605923
572572
541269
515834
499317
489657
483773
479220
476582
475263
474934
475949
427525
373522
377490
394876
412387
422146
422314
406878
380042
349089
308804
260468
210623
157549
108875
67141.8
34977.1
13679.8
3855.09
)
;

boundaryField
{
    wall
    {
        type            calculated;
        value           nonuniform List<scalar> 
1200
(
961548
957296
961952
962118
963711
966532
969775
972692
976499
989762
962543
963437
959808
957996
960358
964600
971299
980009
990951
1.00801e+06
940386
943549
941092
940114
940380
941819
946204
953510
963077
962059
901119
901353
903410
902316
899528
895480
892810
891937
901923
896053
901630
876968
870863
863254
856209
848743
840408
838779
841662
853398
847498
799250
810812
802596
800745
799499
792937
799588
798367
816753
733909
692900
728876
728728
736481
742334
736135
748677
749720
769644
678874
659738
683772
684690
691413
697602
688726
702288
707449
718722
669646
661847
674383
672574
674406
677986
668976
678575
682793
682238
676430
673070
679076
676994
676668
677997
672478
675116
678359
673441
686473
684956
687428
687320
686277
686442
683777
683843
686820
683517
699201
697674
697276
697761
697011
696944
696464
696404
698725
697039
711687
710298
708867
709620
708934
708333
708893
709033
710022
708796
722596
721560
719688
720252
719567
718825
719523
720168
720614
719588
733641
732862
730961
730564
729423
728369
728874
728041
726119
725244
747149
746746
746719
742721
740168
738578
739749
738972
740692
740217
754937
754566
755633
749812
747062
743073
740892
736950
734218
734047
751085
750686
750812
748087
746687
739873
735995
730436
729421
728349
743950
743098
742401
742439
742713
737323
735842
733652
736774
737769
738068
736902
736385
736250
737184
735280
736855
738073
741284
743776
730053
728848
729152
728238
728797
727850
729874
731788
734364
737125
714378
715200
717071
716532
716681
716083
717046
718994
721166
723957
700228
700709
701815
701832
701765
701145
702104
703603
706407
708852
690810
688417
686886
686081
685804
685278
686780
685919
688442
689585
676488
674105
670462
666015
664099
663256
663844
663208
665686
666779
654509
653592
652446
645917
639969
637046
637089
639986
642944
645295
642141
640303
636592
630667
626337
623973
623376
622043
626117
629806
625427
623104
620646
618946
619949
620678
618914
619450
624486
628292
601864
602130
604397
608945
613544
618119
621365
624105
629190
631199
580981
583163
587378
591844
595614
598816
601388
607085
608098
608191
564989
566264
568012
568923
569458
569965
569008
575015
574662
573007
548833
549351
548976
546629
543966
541331
537685
541022
542830
541328
533733
534473
532905
528052
523822
520076
513975
513775
516555
515681
520735
522100
519507
514114
509628
505956
500114
497416
499481
499050
506169
506478
506704
503833
500214
496683
492042
489163
489597
489553
494304
493893
495586
495012
493136
490327
487069
483876
483659
483581
482535
482659
482618
483115
483389
482736
481353
479384
478643
478487
471951
470756
469555
471023
473756
474834
475696
476042
476166
475086
459827
455789
457729
461302
466040
469119
471833
474367
476036
475294
450529
447567
449968
454835
459837
462966
468185
472468
477564
480615
443597
443629
443630
445994
450050
453756
458887
464374
472939
478561
433393
433817
430527
428483
427027
425226
423897
422547
414260
431428
419203
419564
414788
411432
407153
401334
393368
386335
372533
378312
397891
395425
395160
396780
396810
394486
389436
386377
382023
380991
387345
383981
387662
392696
397864
400006
398457
397757
397085
396818
394245
392511
396618
401867
408985
412580
413344
413969
414536
415884
411509
410446
413909
417521
423928
426196
426786
425870
425177
425409
426183
426158
427605
428568
432119
431158
429616
426039
423255
421178
423949
423689
422902
423155
423913
421815
416501
411327
406857
404469
399239
398412
396814
397836
397559
397300
389881
386003
381603
378803
357554
356234
354810
355863
356802
358642
355669
354566
351870
349055
303075
301033
300265
299785
303087
306421
309193
311357
310354
310202
242537
240230
239507
237701
241199
245421
251284
257568
259179
262806
184732
182874
182630
181429
183932
188198
194282
201870
206979
212160
131328
129538
129268
128676
131361
135332
141099
147913
153343
158207
85400.1
83062.7
81352.9
80873.7
83917.7
88143.7
94001.8
99840.2
104409
108243
50848.2
48288.9
45642.5
44683.3
48498.3
52401
57108.6
62100.5
65258.3
67787.3
28264
26997.9
24883.7
25306.7
26496.4
28355
30692
34589.8
35715.5
38372.1
16708.8
16721
16991.3
21230.4
18848.8
18099.1
19144
19657.9
20563.5
22013
6742.29
7844.73
9673.34
9840.18
8380.25
7737.57
7373.97
7338.95
5432.55
10665.3
973565
960612
960882
961611
963758
966468
970495
976123
977892
981858
964454
954938
958225
958871
960250
963788
969942
980960
1.0007e+06
996678
944954
936080
939362
939389
940380
943188
947025
954817
970110
952958
888372
895743
903025
902221
899673
898235
895638
899218
910311
887039
868353
876659
875800
865032
856609
852646
843690
854011
847873
832383
821008
803699
806244
802810
801074
802244
790157
809771
794915
790576
716472
702419
726687
731435
736428
743462
732159
755303
748777
750711
679192
666839
688904
687463
691591
698860
687114
705032
709322
709502
671215
664821
676192
672083
672853
676664
666890
676983
683342
681370
675569
672839
677655
674171
673228
674905
670641
672941
678207
676083
686230
685030
686251
684213
683205
683747
682826
682715
685731
685364
698814
698222
698195
697935
696534
695397
695831
694895
696104
696975
711373
710966
710211
710360
708984
707234
708235
707274
707695
709297
722473
722191
721226
721288
720066
718433
719684
718970
719115
720968
733351
733229
732888
732273
730875
729190
730102
727746
725619
727637
747165
747270
749584
745802
743951
740806
741297
739308
740783
742926
756149
755855
759538
754681
752889
745332
742453
738589
737316
737920
753532
752694
754848
755023
755576
746926
743137
737016
735090
732976
746002
744553
744858
749095
752531
746938
744920
740790
739115
739156
738348
736223
735149
737060
739866
738266
738989
738824
739267
741340
731347
729101
728072
727281
727947
727849
728876
731057
732233
734527
718262
717076
716079
715063
714922
715282
715850
718400
719430
721384
701658
701583
702226
702118
701842
701221
702723
703376
703818
705209
683210
683693
683904
683610
684331
685028
688248
685700
686623
687599
660132
661565
661260
659182
659688
662072
665395
662786
662988
664655
649742
650122
646950
642229
637698
636464
638110
637873
637891
640591
640797
641652
638496
633428
627197
624286
622571
619096
622971
625480
625497
628856
628903
626655
624475
621677
616400
615389
621813
624406
603967
606885
610045
610007
611488
613218
615136
618717
625451
627375
582722
584774
587683
590408
593514
596036
598102
602254
604817
605210
564452
564727
565407
567212
569135
570277
570353
573715
572849
572472
547593
546608
545224
544430
543883
542559
539599
541764
541663
541268
532521
531553
529386
526676
523372
520385
515455
514962
516480
515885
519525
518377
516662
513338
509414
506829
501764
498985
500054
499400
507351
506613
505230
502483
499029
497249
493719
491225
490634
489679
494954
494299
494376
492575
490679
490547
488222
486395
484992
483820
483418
482806
483314
482676
482565
482819
481372
480620
480349
479451
470102
469979
471856
474083
475984
477220
476558
476089
476528
477096
457698
456388
459812
465283
468933
470740
473555
473843
474514
475262
449547
449118
451968
456218
460815
465283
470409
474503
474978
472961
443124
445084
444830
446320
449122
453263
460014
467813
476410
475016
429174
433374
429140
427057
425352
423140
421978
422312
418207
426242
415923
418891
413036
409027
404386
398382
391022
385439
370048
371874
397021
395692
393464
394481
394406
392517
388194
385474
380030
376303
387277
384590
386587
391157
395066
398140
397745
396815
396059
394211
393167
392133
396316
401259
407014
411670
411784
410025
411223
411205
408438
407638
411763
415609
421672
424299
423966
421010
421200
421041
422459
422168
423948
425231
429488
428470
427388
423815
423178
422725
421259
421513
420386
419993
421100
418803
415051
411935
410859
407713
396553
396627
394264
394507
393395
392661
386639
386039
383939
380481
354643
354066
352064
353693
352838
353911
350999
352940
352269
349125
300946
300079
297179
298158
299723
302664
304413
307504
308529
308338
241045
239803
236834
236612
239799
244192
249025
253444
256195
259648
184533
183185
181618
181349
184228
188863
194505
201480
205855
210070
131976
130412
129482
128957
131285
135094
140686
147926
153446
157310
86279.2
84223.5
82855.9
82158.3
83991.3
87343.3
92804.3
99279.5
104716
109100
52118.3
50428.8
48753
48234.6
49616.3
52297.3
56056.7
59828.5
62933
66942.5
29799.4
28911.6
27511.1
28204.7
27741.5
29232.6
30182.9
31951.8
31634.6
33837
19632.7
20021.6
20111.5
22137.2
19201.2
19582.7
18418.2
17228.6
12768.6
10839.6
10017.4
9464.75
12217.6
10778.4
9658.48
9486.53
8146.92
5669.88
856.877
1525.5
)
;
    }
    inlet
    {
        type            calculated;
        value           nonuniform List<scalar> 
20
(
964617
958142
961659
961988
963726
966512
969954
973577
976864
987711
970496
959767
961175
961742
963744
966488
970315
975238
977527
983909
)
;
    }
    outlet
    {
        type            calculated;
        value           nonuniform List<scalar> 
20
(
-97.6999
-293.126
-488.482
-683.795
-879.181
-1074.52
-1269.86
-1465.23
-1660.65
-1856.48
-97.7012
-293.136
-488.472
-683.786
-879.181
-1074.52
-1269.86
-1465.23
-1660.66
-1856.48
)
;
    }
    heatWall
    {
        type            calculated;
        value           nonuniform List<scalar> 
240
(
987614
983812
1.00468e+06
999836
959291
955538
893414
889478
847604
837980
809791
797341
764724
755428
716352
711667
681948
681457
673991
675331
683861
684821
696911
696905
708824
709071
719847
720512
725757
726929
740828
742125
734942
736885
729411
731719
737991
738715
743036
741853
736353
735075
723195
721926
707819
706024
688973
687996
666140
665080
644014
641660
628622
626464
627214
625289
630155
628224
607379
605825
572809
572474
541229
541172
515633
515736
499035
499219
489478
489559
483531
483675
478620
479122
475501
476485
475195
475165
478544
474836
477532
475851
430044
427427
376563
373424
379706
377392
396054
394779
414604
412289
424206
422048
421490
422216
405206
406780
379144
379944
348994
348991
309639
308706
261888
260370
211509
210525
157871
157451
108370
108777
67489.7
67044
37133.4
34879.4
19073.8
13582.1
8236.72
3757.38
964715
970594
963237
963987
941797
943932
898109
891785
893316
876931
841001
827710
729671
720907
679141
679114
670188
670859
676335
675850
686524
686367
699204
699000
711702
711548
722655
722606
733654
733529
747242
747264
755336
755943
751796
753015
744568
745581
738258
738381
730510
731150
715498
717415
700713
701415
688988
685245
672427
664396
653374
651074
641881
641254
625511
625608
602469
603558
581506
582392
564952
564684
548626
547995
533534
532916
520540
519915
506573
507142
494572
494880
482861
483286
471579
470670
459373
458348
450337
449935
443513
443401
432363
430397
418379
416941
397758
397348
387420
387397
394053
393553
410825
409315
425346
423490
423375
422026
398663
397323
356922
355468
302639
301575
242261
241514
184786
184672
131596
131902
85724.4
86149.1
51263.8
51897.1
28741.2
29516.5
17538.1
18997.5
7677.88
9275.9
)
;
    }
}


// ************************************************************************* //
