/*--------------------------------*- C++ -*----------------------------------*\
  =========                 |
  \\      /  F ield         | OpenFOAM: The Open Source CFD Toolbox
   \\    /   O peration     | Website:  https://openfoam.org
    \\  /    A nd           | Version:  8
     \\/     M anipulation  |
\*---------------------------------------------------------------------------*/
FoamFile
{
    version     2.0;
    format      ascii;
    class       volScalarField;
    location    "100";
    object      p_rgh;
}
// * * * * * * * * * * * * * * * * * * * * * * * * * * * * * * * * * * * * * //

dimensions      [1 -1 -2 0 0 0 0];

internalField   nonuniform List<scalar> 
1200
(
382616
381582
358369
315255
312828
250134
145678
99236.1
89302.2
94419.3
103791
115192
126052
136020
146976
158165
163082
160746
158515
155014
148193
136155
126580
118105
104836
90113.4
82230.8
68499.5
48385.4
32316.5
21434.3
10379.8
418.606
-7074.76
-16470.4
-25408.7
-34850.5
-44202.4
-53378.3
-58709.1
-61101.7
-70266.4
-83490
-110428
-129547
-131700
-123504
-108183
-90104.1
-75662.4
-62916.2
-51369.4
-38298.2
-20651.8
-3818.06
8213.14
13907
14163.3
12233.3
5674.08
376342
379850
358897
317479
294907
209391
111624
82289.6
82206.6
91558.5
102527
113980
124964
135152
146300
157695
162589
160302
157414
153775
147566
137210
127151
116595
103599
89646
81280.6
67539.4
49306.6
34348.9
22269.1
10660.7
1043.15
-6089.57
-16519.2
-26152.3
-34906.8
-44923.7
-56354.9
-60285.6
-60382.8
-68622.2
-83221.4
-112899
-131829
-132798
-124800
-109655
-91763.4
-77511.2
-65098.2
-54109.9
-41022.2
-22555.9
-5106.59
7203.21
13064.5
13772.9
12128.9
5917.86
380021
377661
357810
320295
288795
221751
144761
104396
94028.5
97404.1
105015
113992
124031
133929
145362
158020
162797
159408
156277
153552
148454
139239
128664
115777
100472
87750.8
78088.8
67088.1
52740.4
38315.2
23642.4
10071
-487.45
-8157.69
-16360
-24950.4
-35015.5
-45153.5
-54021.7
-58057.4
-60642.1
-72127.5
-88414.1
-112907
-128083
-128542
-121123
-108121
-92402.1
-78870.8
-66508
-55724.5
-42358.9
-22667.3
-4454.49
7695.75
12695.4
12377.3
12271.7
7635.85
380353
376565
357395
319461
280781
216723
145857
104400
92008.9
95551.7
105011
114692
124901
134254
143823
152854
156851
156777
156087
153182
147697
139289
129256
115558
96383.4
81669.7
72752.5
66109.3
56865.6
42380.8
24465.9
8212.9
-3986.47
-11913.2
-18330.9
-25489.3
-34750.2
-43514.6
-50586.3
-54569.4
-60073.1
-75453.1
-93186.2
-112496
-124149
-123773
-116108
-103160
-87613.2
-74615
-64249.5
-56455.3
-44191.1
-23478.1
-4500.78
8323.59
13026.9
13694.8
15846.4
7082
382142
378671
357696
316737
274303
216944
153211
109964
93483.1
95222.7
104199
114073
124339
133606
142606
150564
154531
155513
156478
154180
148382
139596
129411
115961
94932.4
75984.7
68564.4
67443.7
61983.6
46292.2
25147.3
6078.82
-7358.7
-15418.3
-20743.8
-25888.9
-33370.9
-40560.4
-46541.4
-50758.1
-57709.1
-78491.4
-98704.6
-113123
-119261
-116177
-107023
-93925.7
-80996.4
-71645.7
-63200.4
-54766.6
-42013.4
-21522.6
-2917.56
9080.58
14383.8
13835.7
15155
7331.29
385009
382815
359298
313340
268857
217948
159899
116252
97082.6
96482.3
103987
113308
123239
132427
141173
148358
149888
148779
151216
152210
147897
139753
129282
116479
95518.5
73653.9
66828.4
67770.7
66113.4
48766.3
25141
3774.43
-10294.6
-18121.9
-22926.4
-26935.3
-32907.6
-39200
-44287.5
-48415.3
-55382.9
-82050.5
-105421
-115226
-116271
-111871
-103191
-90362.3
-76428.7
-67200.4
-61485.7
-55281.9
-41792.7
-20120.8
-2001.48
8698.32
14081.9
14564.6
15887.2
7878.55
388573
389550
363268
310438
261262
210916
152221
106172
88567.1
92146.6
102459
113553
124191
133323
141997
149106
147569
145296
149938
153766
149829
140906
130750
118770
97276.9
74301
65291.7
65353.1
68185.4
49684
23282.3
-125.951
-15298.5
-22391.9
-26007.7
-28827.2
-33417.9
-38372.5
-42143.6
-44747.9
-51761.1
-85151
-113964
-119659
-116310
-109647
-100847
-87964.6
-75071.6
-67311.3
-62134.4
-57485.8
-44014.1
-20358.8
-982.225
9112.47
12990
13201.3
15358.8
7264.2
392355
399105
369862
310072
263821
221977
168302
120687
96575
93774.4
102215
113246
124089
133182
139573
146912
143130
139661
147668
155120
152349
143417
132150
117763
97118.8
75909.3
62852.2
65906.2
70858.2
54999.7
29000.9
2654.48
-15981.8
-24563.9
-27783.6
-30406.1
-34104.3
-37678.5
-40408.2
-41238.1
-46832.3
-87666
-121187
-122295
-116308
-108462
-100088
-86845.1
-71820.2
-62521.3
-59774.9
-60259.8
-48314.2
-22000.2
-309.489
9528.5
11764.2
11252.7
11512.2
5370.24
396012
413036
381428
318145
264036
217675
168254
126752
102273
97687.6
105021
115085
124736
133057
137722
147648
140297
138994
150210
158094
154909
145561
134554
119981
98926
78785.6
67736.3
72060.2
76266.7
55722
28762
4991.92
-12608.1
-22313.6
-27220.1
-30488.6
-34403
-37411.1
-39358.2
-37690.3
-38750.3
-96637.2
-135298
-126328
-116372
-107036
-98346.8
-82947.3
-67148.7
-59334.5
-58800.9
-63171.9
-54582.2
-26272.6
-1457.61
9403.03
9902.88
6668.84
7231.48
1211.86
407200
424457
376423
310839
270808
231440
183566
134430
100838
93561.1
102850
114362
124464
132614
138092
148154
140292
137983
151656
161055
157990
148487
136987
121459
100857
81922.6
71699.1
76193.5
78270.2
55588.3
27438.8
3985.24
-13111.4
-22580.5
-27364.6
-30699.3
-34525.2
-37806.9
-39790.6
-36837.1
-35355.3
-80982.3
-131196
-127599
-116458
-105215
-96089.4
-79267.9
-63582.5
-57519.3
-58654
-63427.1
-55475.5
-27455.1
-1451.49
10406.4
10209.6
6193.56
4768.56
4077.93
388634
382538
360567
308761
296129
236885
136963
99413.6
90097.1
93992.4
103670
114996
125892
135955
146825
158167
163685
161967
159540
155145
148811
138057
127271
114292
96646.1
87723.8
81553.1
68527.3
49434
33186.9
21166.4
9761.4
-186.458
-7678.65
-15878.5
-25084.5
-34410
-45129.2
-54445.9
-59201.6
-61351.7
-72399.9
-85156.6
-110867
-129577
-132238
-125037
-110041
-91444.9
-77002.3
-64370.1
-52433.9
-39044.6
-20751.8
-3495.47
8651.11
14540.2
14928.2
13693.3
7312.41
378002
375582
355141
314659
294772
211630
116383
85831.5
83688.4
91437.1
102559
114248
125294
135463
146476
157945
163210
161288
158134
153422
147677
138129
127562
114217
97318.6
87911.3
81955.3
70419.7
51686.2
35154.1
21499.7
9288.19
-417.288
-7952.82
-16449.6
-25946
-34831.9
-45312.4
-56056.2
-59516.3
-59661.8
-68878.8
-83580.6
-112761
-131525
-132990
-126209
-111653
-92849.5
-78400.1
-66180.1
-54585.6
-41236
-22402.1
-4673.25
7778.6
14130.1
14725.6
13779.1
6724.05
379483
376871
356948
320106
291278
219469
143666
106973
94941
96699.3
104432
114457
124709
134706
146332
159454
164677
161350
157486
152939
147914
138735
128867
114292
95879.9
85009.2
79041.4
71218.3
55574.4
38479.2
22346.7
8203.1
-2241.89
-9580.44
-17100.3
-25555.1
-34664.5
-43999.5
-52978.6
-57058.2
-60042.6
-72831.5
-89292.8
-113755
-128623
-128694
-122196
-109941
-93652.6
-80146.6
-67887.6
-57277
-43704.5
-23177.9
-4349.44
8443.84
14247.7
13686.3
13827.1
8885.92
380099
377005
357033
319415
281674
216831
147211
105785
91763.6
94142.8
103461
114783
125276
134777
144679
154391
159279
160245
159415
153563
147187
138542
129411
114341
92988.8
79849.9
74146.2
69985.8
57410.8
41667.3
23611.2
7111.47
-4674.89
-12299.8
-19001.4
-26701.8
-34966.4
-41985.6
-48599.7
-53882.5
-59912.4
-76163
-94383.5
-113638
-124914
-124077
-117065
-104822
-89186.6
-76274
-65328.9
-57267.7
-44739.2
-23521.5
-4364.76
8960.33
14798.8
15136.6
16288.5
7501.28
382166
378616
357696
316811
274507
217114
153189
110060
92716.8
93511.6
102667
113838
124366
133857
143329
152450
157440
159955
161377
155487
147930
138718
129470
115244
92744.4
74876.2
69020.5
69727.6
60967.3
45253.5
24989.2
6032.14
-7591.86
-15528.4
-21336.2
-27116
-33783.6
-39450.3
-45102.8
-50271.6
-58172.2
-79323.1
-100080
-114316
-120658
-117166
-108153
-95238.8
-82391.7
-73713.9
-65172
-56444.4
-42714.3
-21377.2
-2959.11
9111.28
14938.4
14456.5
15318.9
7962.49
384977
382408
359981
314712
270815
219327
160466
116892
96441.1
94959.8
102663
112554
122706
132244
141594
149480
151023
152313
156020
153679
147879
139355
129339
116380
94943.1
73379.1
67008.9
68279
63671.7
47386
25300.1
4383.97
-10148.9
-17692.1
-22654.5
-26834.2
-32874.8
-38012.8
-43482.2
-47253.3
-55626.9
-83090.9
-106895
-116205
-117198
-112318
-104131
-91701.4
-77927.5
-69507.2
-63839.5
-57153.9
-42406
-19789.6
-2124.25
8292.59
14025.3
14999.6
16622.4
8754.85
388933
388869
363668
311799
262878
209523
150246
105406
87590.4
91288.6
102020
113260
123877
133414
142619
149881
148354
148879
154488
154831
149328
140318
131081
119526
98065.7
74820.6
64898.9
64112.7
65093.7
48065.2
23970.5
838.911
-14556.7
-21569.2
-25171.7
-28254.1
-33417.7
-37946.2
-41283.7
-43638.7
-51206.5
-86121.5
-115151
-120285
-116664
-110419
-102243
-89068.5
-75795.1
-68937.8
-64476.9
-59876.7
-45137.4
-20245.4
-1190.93
8510.12
12461.4
12939.4
14986.7
7650.78
394074
399576
370494
313601
271342
226983
171549
122033
95790.8
92725.1
101692
112520
123229
132598
139437
147096
143964
142972
151254
155498
151987
143132
132057
117677
96930.3
74867.8
61398.1
63901.3
68204.1
52607.1
28359
3030.56
-15385.2
-23779.8
-26749.9
-29143.3
-33484.3
-37654
-40673.1
-40225.1
-45116.8
-87778.3
-121636
-122744
-116778
-110435
-102519
-87956.5
-71519
-62503
-60583.3
-62182.4
-50371.6
-22189.8
-300.949
9248
10626.5
9930.39
10298.8
4538.18
396710
417922
385016
322300
266939
215827
167729
127668
102546
97621.7
104491
113792
123591
132323
137493
147710
141852
141838
151382
157088
153852
144706
133273
119086
97592.2
76276
66184.9
70740.8
74424
54098.7
27859.1
4409.26
-12643.8
-22025.1
-26701.1
-29821.3
-33547.9
-37228.4
-40120.4
-38990
-37005.9
-94661.5
-136551
-127320
-116880
-108687
-100332
-82983.5
-65145.3
-58165.9
-58592.8
-64071.7
-56069
-26834.1
-1405.86
9556.56
8738.74
4625.52
3330.94
-1077.64
403238
418731
371753
306297
260227
218299
174088
129832
100419
94886.5
103773
114329
124714
133306
139290
149514
142197
140294
152360
159851
156705
147212
135174
120474
99804.7
79578.3
69538.4
74247.5
76355.4
54102.1
27178.7
3959.48
-13009
-22406
-27303.2
-30581.6
-34044.6
-36801.2
-39806
-40670.7
-37133.3
-83574.6
-134419
-129945
-117764
-107553
-98269.1
-78493.7
-61968.3
-56686.8
-58619.1
-64351.1
-57043.9
-28493.1
-1898.69
10836.3
9789.62
3926.81
-822.261
-495.356
)
;

boundaryField
{
    wall
    {
        type            fixedFluxPressure;
        gradient        nonuniform List<scalar> 
1200
(
-1.22766e+06
-338427
117127
52243.2
-5676.13
7957.58
-71725.1
-354119
-146137
820198
-238528
877581
154898
-93579
11486.7
84012.2
139808
-95135.2
-1.00675e+06
1.29532e+06
-525390
777157
168526
68689.1
-887.056
-138104
-78299.2
-132542
-712800
1.06807e+06
1.2428e+06
588163
33595.9
5443.69
-17134.5
-285480
-285085
-768644
-822220
1.01686e+06
3.36484e+06
-33093.3
-528818
-181636
-39550
-398685
-331133
-1.57429e+06
-656539
2.27856e+06
2.6381e+06
-463589
452942
-17852.7
-33210
-275534
283197
-1.05182e+06
321172
2.7459e+06
1.7343e+06
-944063
216631
-268624
4801.23
-103358
397202
-669979
81738.7
1.92898e+06
-67835.2
-691502
-543071
-270054
-20262.4
-109173
154585
-257037
-185563
909040
-177698
-289331
-200521
55836.8
153244
150290
210893
183368
-44127.1
76694.9
77391.9
26765.4
129813
284859
343906
321717
195810
231305
27010.9
-259353
18758.1
-7460.7
110563
312209
304248
276461
103229
120508
120708
-176892
37716.8
-55326.3
-97131.1
-20278.9
43630.3
159010
68563.6
157584
275192
12140.8
32856.7
-67665.3
-138963
-77315.5
-8099.76
113492
69299.6
185444
246096
-50426.9
15427.1
-62717.9
-157218
-105808
-51221
42278.2
-16355.5
131974
167565
-142842
33812
-33081.2
-192431
-168985
-141788
-79677.7
-118526
38172.1
60267.8
-244310
2036.08
-47857
-284436
-302826
-371896
-219763
-142990
-26067.3
4564.59
-283876
-120421
-123208
-407599
-480566
-572455
-220658
-140333
-156231
-317163
-397451
-245618
-196773
-420856
-689359
-883877
-710764
-704862
-664354
-566991
-463705
-207922
-143489
-248283
-672785
-991843
-979457
-908798
-724979
-224213
-127898
-36968
65528.6
130944
-94336.2
-279188
-314411
-213891
-77245.9
211232
256910
-143656
-32386.2
116159
89439.5
87688.5
-5291.79
103980
75254.8
218875
269618
-408508
-198476
106747
152778
185998
86745
127104
65097.7
177324
265706
-154954
-96970
-37940.6
-19060.1
2342.45
1171.29
-54050
27940.6
266994
373901
767836
464784
296309
256974
157210
31523.1
-139180
25848.3
194082
205442
1.66337e+06
1.25636e+06
919601
686223
446503
119278
-160061
46879.2
282145
216382
493079
344157
549411
372178
223335
50406.1
-114357
215292
517359
473253
143374
-138441
-192177
-286352
-87413.3
-31623.2
86352.7
286418
316608
434597
5394.14
-575879
-831769
-792236
-454374
-94526
250999
407481
260347
392277
-202694
-471525
-576195
-111637
207213
496735
630339
527033
354630
378291
-170918
-158024
-32130.8
141443
213717
280878
331462
474669
317023
285380
53626.8
156064
263960
170818
36447.2
-29409.3
-135510
122679
176476
40115
121896
274210
379351
220080
12733.5
-121690
-188951
-79465.2
112297
725.737
119105
290750
355634
135764
48634.1
-27570.2
-147760
-117293
783.82
-19945.4
117218
376202
288986
73347.8
23021.8
-85571.1
-166384
-154431
-62087.6
-33229.6
-122482
-17491.2
151359
132755
119620
-56757.9
-169537
-211289
-105930
-8982.23
-67867.5
-45497.1
119173
245068
251022
-23250.3
-117422
-259842
-135021
-19088.1
-91081.1
-16320.9
-77172.4
50273.2
90112.6
-6171.72
-4321.16
-127769
-176642
-92645.1
188195
81279.6
-238600
-301818
-216338
-239395
-88628.3
-5583.22
-39194.2
-205271
220966
-55223.1
-208826
-396768
-282938
-159917
-177969
55106.8
155100
384.008
115994
-151747
-199716
-132775
-91300.7
-234628
-228009
-208910
264762
789240
72537.5
-144880
-121725
-30285.5
99102.6
55131
-117156
-358057
-372563
372641
451052
30209.3
127554
141380
167412
210607
192982
12654.4
-389772
514473
368555
44945.1
164362
238362
276551
297701
235313
80927.4
269901
660237
92397.5
-26100.3
166767
228818
242404
198750
122380
85216.9
193244
475110
9220.53
-57039.5
108878
157662
291269
188915
66788.4
91017.8
95709.2
266462
115796
42174.8
30354.7
68140.9
210193
89522.7
148806
399693
329532
473106
312896
292032
220805
203210
231342
189207
277584
499609
406944
442243
373945
413446
382174
349040
256481
272055
223958
240147
15099.1
-164152
268614
224409
273795
325871
270583
301162
153162
-50477.5
-411835
-334039
269317
181305
277250
332129
413215
462363
343883
-7254.65
-246254
-175836
291610
219608
289183
207641
393947
473774
487869
161755
-54548.9
-14404.4
213277
94559.1
321388
159679
331747
372618
484248
395805
182475
186296
149192
42796.5
278437
112804
135212
113601
216993
418970
315749
328254
17477.7
-30046.7
103183
9208.84
-35809.8
-77614.2
-33022.2
27372.2
120215
221183
-68028.8
-86133.1
-26561
-30269.6
1608.41
18743.8
35582.6
-13112.5
-14334.8
95595.3
-90639.2
-115010
-158087
-136617
-13082.2
80152
119159
50796.7
-34578
-89853.8
-127132
-215963
-319098
-361722
-115762
8970.42
103963
228372
238998
79941.6
-151786
-193924
-263124
-289795
-120884
-92164
51637.5
263213
417901
456399
-292639
-333787
-315135
-82535.1
-31772.3
-148746
71294.6
234762
783892
1.13662e+06
-335152
-161655
-253293
-99930.9
-123441
-173649
-88625.8
162075
464797
932361
1.22752e+06
338357
-117142
-52242.4
5674.83
-7956.57
71739.8
354105
146083
-820403
225912
-883079
-154841
93599.6
-11513.8
-83930.5
-139673
93345.7
1.00593e+06
-1.30204e+06
447729
-784480
-168383
-68773.9
887.233
138439
79241.8
129641
718904
-1.07094e+06
-1.32638e+06
-590284
-33537.1
-5518.47
16903.5
284344
276008
720246
783118
-1.01496e+06
-3.39186e+06
33070.1
529146
181895
40327
400219
327520
1.51095e+06
517319
-2.27765e+06
-2.6416e+06
464262
-452441
18321.4
35407.5
277880
-276274
988102
-402970
-2.74518e+06
-1.73466e+06
945067
-216380
268768
-2658.25
105871
-383656
625958
-118789
-1.92592e+06
70536.3
692293
543164
270098
23028.8
118272
-126327
248471
173212
-905279
181733
290808
200175
-55149.1
-149058
-134090
-167988
-162844
46688.2
-73602.4
-73599.8
-24910.6
-130557
-283571
-340032
-302952
-155836
-199568
-16349.8
261542
-15531.1
9379.24
-111609
-312191
-303824
-259344
-77987
-91023.8
-107418
178400
-35156.1
57028.4
96141.7
20167.4
-43348.5
-145409
-51501.1
-137036
-259796
-11041.7
-30828.5
69111.4
138074
77317.6
8406.86
-102261
-58665.3
-170955
-229794
51216.5
-13775.9
63906
156490
105895
51468.6
-33814.5
22061
-119489
-151083
143424
-32339.9
34485.3
191320
169150
142029
86261.5
120631
-26469
-43576.1
244220
-696.8
51246
275344
302318
372213
226115
145189
38472.7
11242.8
281463
121308
126832
352346
480142
575148
227117
147522
168037
323162
374795
245822
193374
371802
693398
886439
714664
715776
677142
572888
463464
207591
137945
237745
671595
981942
972028
915804
733222
227118
137518
25985.7
-75720.5
-126817
73776.9
252251
293804
212048
78044.6
-206846
-243990
118031
19917.6
-115922
-112650
-104812
-7514.57
-104133
-72483.9
-211355
-258054
377791
181685
-110814
-159019
-180469
-82648.4
-118145
-55291.5
-166986
-255805
136419
77031.6
36405
29619.6
14984.2
14645.2
70170.7
-12210.4
-255556
-365140
-774689
-477140
-294019
-242332
-141739
-12782.3
156150
-9269.09
-181070
-197883
-1.66627e+06
-1.26273e+06
-915064
-670642
-432953
-107312
168512
-31490.1
-267692
-209089
-493348
-344571
-548215
-357557
-206181
-40154.8
117195
-201680
-502347
-467109
-143671
138305
192128
292009
104645
45077.5
-77852.7
-272931
-301440
-432683
-5366.21
575825
831901
801715
466781
101425
-239345
-392885
-252438
-392564
202988
471546
580706
120916
-200135
-490879
-619748
-527154
-358534
-378843
171174
158057
39640.8
-137957
-207287
-277318
-335890
-480633
-320232
-285454
-53572.2
-156051
-258404
-169743
-34285.1
28481.6
131681
-124996
-177146
-39834.2
-121867
-274199
-374584
-221054
-14238.3
120984
187323
79157.8
-112098
-419.826
-119023
-290719
-354212
-136359
-51302.5
26536.6
147123
117623
-417.941
20193.8
-117207
-376211
-288996
-73292.8
-24484
81654.5
165514
154671
62396.2
33416.2
122798
17594.6
-151409
-131787
-120303
49016.4
168446
211311
106119
9110.7
68497.7
45691.3
-119197
-245031
-250887
16843.6
115921
259079
135111
19164.1
91709.3
16498.7
77242.1
-50246.6
-90098
2049.28
-1997.42
127203
176667
92679.2
-188017
-81167.2
238699
301844
216359
236618
83919.4
5285.68
39184.6
205283
-220857
55468.6
208850
396795
282982
157284
175238
-55345.4
-155069
-394.572
-116081
152565
199599
133468
93449.6
235937
226595
208806
-264683
-789262
-71744
145046
120915
30606
-97297.8
-51982.7
113725
353356
369967
-372968
-450149
-52102.9
-138966
-140846
-165677
-208071
-197072
-13816.9
391439
-513324
-368185
-65472.8
-172145
-238045
-274933
-296228
-240523
-80981.1
-269468
-658910
-92057.4
26056.3
-168636
-228880
-242394
-197487
-125063
-85377.8
-193019
-474667
-8787.91
56994.4
-109248
-157685
-291309
-188894
-67585.4
-91044.1
-95509.7
-266227
-114975
-41953.8
-30505.3
-68164.8
-210361
-89508.2
-148816
-399659
-329342
-472816
-311722
-290143
-221079
-204504
-231690
-189252
-277556
-499539
-406881
-441865
-372891
-410665
-383147
-352249
-256927
-272241
-223930
-240134
-15196.4
164437
-267924
-223116
-275482
-329216
-271746
-301385
-153154
50427.9
411767
334119
-268618
-180890
-278175
-333736
-414902
-462770
-344080
7095.36
246223
175853
-290726
-218740
-288058
-206866
-395428
-475810
-488504
-162067
54603.2
14437.3
-212426
-93364.2
-318942
-156935
-330725
-373668
-484591
-396043
-182433
-186218
-148476
-41884.6
-276684
-110750
-133412
-112880
-216609
-418859
-315733
-328151
-16868.8
30710.8
-102443
-8540.05
36489.1
78113.9
33556.2
-26968.5
-120127
-221056
68580.9
86759.7
27071.5
30642.9
-1165.53
-18338.2
-35156.6
13505.3
14496.4
-95430.1
91141.6
115641
158497
136956
13425.1
-79859
-118857
-50499.4
34737.2
90020.4
127557
216529
319387
361871
115917
-8831.33
-103787
-228136
-238846
-79722.8
152248
194697
263829
289739
120668
92207.2
-51572.9
-263089
-417729
-456069
293179
334736
315993
80133.9
28083.6
148713
-71260.7
-234587
-783490
-1.1361e+06
335688
162802
247488
69253.4
122201
173516
88589.6
-161750
-464297
-931835
)
;
        value           nonuniform List<scalar> 
1200
(
379474
375477
380344
380488
382125
385034
388395
391437
395623
409338
380864
382132
378038
376314
378701
383033
389912
398866
410434
428222
357017
360944
358222
357555
357690
358949
363086
369502
379627
379433
318436
319022
320371
319465
316689
312606
309756
308169
316144
313706
321397
294635
287377
280321
274208
267839
260446
259890
262576
276949
256718
208203
222870
216695
216858
217254
211624
219384
218580
238628
149998
109283
145287
145193
153218
159665
153179
166695
168506
188465
98961.4
80606.4
102955
103747
109901
116006
106481
120096
126323
136667
88795
81506
93475.7
92165
93851.2
97466.4
89024.3
97036.9
102188
101012
94582.1
91636.8
97696.4
96266
96072.5
97272.9
92587
94323
97764.9
92927.3
103814
102510
105274
105794
104948
104657
102685
102478
105329
102422
115277
113843
113739
114634
114169
113688
113698
113618
115780
114401
126134
124798
123681
124702
124307
123509
124346
124553
125358
124330
136061
135003
133542
133988
133470
132523
133271
133519
133486
132241
147062
146229
144892
143404
142251
140966
141723
139664
137877
137467
158170
157590
157319
152107
149638
147797
148780
146843
147655
147421
162780
162304
161841
155665
153102
149328
147246
142734
139473
139319
160127
159835
158424
155050
153294
146974
143538
137956
137568
136826
157988
157071
155688
154378
153988
148732
147650
145809
149672
151351
154919
153949
153901
152952
153516
151426
153234
154921
158639
161707
147851
147492
148768
147959
148648
147902
150101
152541
155455
158666
135150
136722
139537
139707
140075
139983
141228
143579
145991
149152
126207
126931
128586
129217
129408
129280
130608
132203
135220
137929
120063
117764
116508
116196
116347
116540
118406
117808
120470
121976
109086
106762
102760
98068.2
96027.1
95789
96840.3
97219.1
99625.7
101393
91391.5
90493.6
89120.9
82579.3
76494.3
73736.4
73985.3
76404.9
80076.5
83098.1
82606.8
80922.2
77606.2
71999.1
68306.8
66734.8
65499
63499.3
68499.3
72783.1
68537.3
66113.5
64991.5
64051.1
66278.6
67531.9
65952.7
66903.2
72658.2
77176
47898.8
48148.8
51259
56546.5
62496.7
67371.4
69760.5
72132.8
77091.8
79195.5
31900
33963.1
38218
42716.8
46827.3
49471.7
50539.8
56163
56477.8
56268.2
21569.5
22663.8
24304.5
24886.1
25243.3
25075.6
22962.1
29291.8
29186
27509.7
10680.2
11343.7
11027.2
8763.55
6119.88
3474.76
-585.329
2455.93
5257.59
3977.99
710.109
1765.76
416.34
-3654.53
-7227.99
-10353.6
-15668.5
-16259.4
-12626.1
-13159.5
-6794.46
-5139.22
-7425.34
-11742
-15356.7
-18325.3
-22812.1
-24943.3
-22481.7
-22659.8
-16790.9
-16572.4
-15975
-18002.1
-20436.7
-23049.5
-26438.7
-28323.8
-27492
-27378.3
-25588.3
-26276
-24659
-24857.7
-25240.4
-26981.6
-29126.7
-31073
-30831.1
-30734.5
-35085.5
-34948.3
-35230.9
-34596.2
-33120.5
-32908.6
-33416.5
-34432.3
-34860.4
-34746.3
-43721.1
-44705.3
-45773.6
-44260.4
-41087.1
-39793.1
-38584.5
-37693.2
-37514.8
-38333.4
-52800.4
-56478.9
-54543.9
-51585.7
-47241.5
-44667.6
-42599.5
-40269.3
-38961.2
-39798.8
-58345.2
-60670
-58560.2
-54897.4
-50975.2
-49004.7
-45339.1
-41795.7
-37027
-34795
-60865.4
-60760.3
-60959.1
-60148.6
-57442.9
-55230.7
-52068.2
-47757.2
-39762.5
-34373.8
-69101.2
-68541.1
-71822
-75098.9
-78066.7
-81519.7
-84662.6
-87651.2
-97585.3
-79714.7
-82503
-83102.8
-88024.8
-92587.8
-98001.5
-104663
-113364
-121003
-134569
-129495
-110191
-112950
-112502
-111914
-112491
-114715
-119353
-122095
-125857
-126393
-129505
-131963
-127812
-123740
-118491
-115772
-116148
-116091
-116147
-115777
-131381
-132684
-128470
-123587
-115617
-111630
-109279
-107453
-106211
-104016
-122696
-124043
-120560
-115572
-106439
-102700
-100146
-98805.6
-97304.2
-94965.2
-107238
-108581
-107123
-102256
-93306.4
-89660.8
-87396.7
-86201.4
-82893.8
-79708.4
-89429.2
-91184.4
-91669
-86791.5
-80327.1
-75664.7
-74668.2
-71932.1
-68208
-64449.3
-74985.3
-77054.8
-78141.3
-73804.2
-70596.1
-66029.4
-66403.9
-62551.8
-59977.5
-57981.2
-62186.7
-64546
-65770.2
-63758.9
-62215.2
-60292.8
-60872.1
-59364.2
-58956.6
-58700.7
-50836.3
-53876.5
-54901.9
-56058.5
-53950.6
-54362.1
-56270.2
-59243.9
-62701
-62946.4
-37925.8
-40915.5
-41644.4
-43896.8
-41688
-41536.6
-43489.6
-47250.4
-53760.1
-54616.3
-20614.9
-22630.2
-22414
-23455.6
-21631.8
-20346.7
-20462.3
-21953.9
-25964.5
-26872.5
-3998.32
-5324.46
-4543.26
-4591.88
-2936.58
-1972.92
-906.852
-365.975
-1508.96
-1203.64
7979.48
6911.46
7269.82
7951.76
9022.75
8894.6
9408.98
9645.9
9307.39
10166.4
13591.7
12513.4
11871.7
12087.6
14087.8
14101.6
13248.7
12339.7
10522.1
10392.6
13786.5
13274.5
11710.1
12971
13543.7
14319.7
13323.6
11906.5
7741.68
7335.43
11497.9
11285.2
11480.7
15648.7
15077.1
15492.8
15514.5
12081.1
9194.21
7657.26
4814.13
5518.11
7016.62
6865.79
7016.95
7445.58
7017.18
5766.82
2394.47
6458.85
391776
378867
379160
379964
382184
384952
389111
394993
397099
401099
383223
373284
376494
377256
378586
382190
388508
399811
420521
414948
361721
353075
356536
356873
357702
360331
363851
370839
386829
368737
305385
313111
320031
319411
316858
315444
312461
315377
324114
303436
287506
295044
292696
282134
274603
271838
263691
275130
268082
254088
230293
212820
218351
216860
217204
220026
208834
229431
214746
211114
132642
118727
143142
147876
153187
160707
149323
173058
167400
169197
99695.5
87516.7
108414
106439
110130
117162
105172
122610
128074
127605
90614.7
84392.9
95492.7
91609.5
92358.4
96097.4
87240.1
95384.7
102641
100252
93839.1
91363.7
96404.6
93431.5
92670.5
94213.7
90935.4
92258.1
97572.3
95525.8
103655
102581
104169
102678
101919
102033
101849
101500
104217
104205
114918
114390
114706
114841
113743
112206
113150
112197
113137
114293
125815
125464
125053
125475
124398
122462
123741
122801
123011
124850
135918
135617
135082
135043
133994
132166
133474
132293
131938
133680
146743
146553
146776
145098
143685
141815
142895
139377
137382
139914
158165
158059
160081
155136
153377
150055
150215
147197
147737
150224
163989
163498
165494
160468
158874
151597
148699
144390
142691
143118
162585
161742
162252
161985
162177
154124
150666
144709
143277
141454
160063
158456
158071
161116
163837
158481
156790
153132
151926
152692
155197
153216
152600
153734
156081
154410
155357
155697
156555
159232
149084
147715
147595
146871
147627
147846
149058
151804
153326
156059
138997
138571
138426
138117
138258
139140
140022
142999
144304
146573
127610
127738
128944
129482
129520
129387
131266
132048
132637
134256
112323
113025
113571
113741
114896
116366
119934
117675
118631
119978
92390.4
94143.8
93606.1
91343.2
91683.4
94700.5
98521.6
96868.5
96930.5
99289.4
86444.9
87062.8
83640.8
78975.8
74409.9
73322.5
75145.8
74403.8
75024.7
78419.7
81176.4
82313.4
79523.9
74908.2
69319
67133.9
64712.9
60781.4
65459.9
68458.6
68489.7
71845.5
73315.2
72062.5
70922.7
68531.7
63539.7
62936.2
70156.6
73263.9
49921.4
52844
57063.8
57756.6
60473
62426.9
63538.2
66923.6
73588.1
75428.9
33604
35539.9
38597.9
41343.1
44731.8
46682.6
47199.2
51430.7
53335.9
53422.4
21031.4
21104.9
21701.5
23193.6
24895.3
25362.1
24282.5
28063.8
27433.9
27108.6
9461.24
8605.24
7259.38
6557.54
5986.07
4681.43
1294.82
3228.73
4144.12
3967.52
-477.55
-1139.81
-3143.13
-5009.64
-7728.81
-10098.7
-14188.6
-15106.8
-12625.1
-12960.2
-7958.74
-8903.17
-10312.9
-12471.6
-15594.1
-17503
-21151
-23399.9
-21856.3
-22326.2
-15556.8
-16396
-17485.4
-19328
-21645.5
-22548.9
-24742.7
-26209.8
-26428.8
-27289.2
-24903.1
-25821.8
-25846.5
-27333.3
-27764.8
-26799.6
-27958.3
-28477.5
-29478.7
-30546.3
-34173.6
-34790
-34448.9
-35120.3
-34033.9
-32880.2
-33428.6
-33157
-33090.5
-33823.4
-45610.1
-45530.5
-43379.2
-41239.8
-38923.7
-37423.8
-37740.1
-37640.5
-37124.9
-36274.6
-55023.6
-55930.8
-52456.4
-47600.2
-44402.6
-43104.1
-40829.2
-40815.1
-40517.7
-39797.9
-59565.4
-59129.7
-56556.6
-53553.3
-50050.3
-46656.3
-43048.3
-39670.3
-39653.1
-42712.8
-61585.2
-59289.5
-59737.2
-59836.4
-58434.5
-55769.8
-50909.2
-44208.1
-36000
-38115.5
-73562.9
-69020.8
-73183.5
-76516.1
-79744
-83616.1
-86621
-87797.5
-93708.7
-84838
-86143
-83738.5
-89727.4
-94983.2
-100780
-107650
-115764
-121821
-137279
-136117
-111103
-112710
-114179
-114221
-114948
-116714
-120599
-122945
-127790
-131150
-129617
-131391
-128899
-125322
-121429
-117697
-116829
-116996
-117104
-118445
-132555
-133103
-128767
-124263
-117727
-112558
-110787
-111444
-109511
-108752
-125842
-126962
-122761
-117604
-108738
-104622
-102945
-103801
-101375
-99392.4
-110984
-112720
-110942
-105733
-95859.1
-92403.4
-89636.4
-88600.4
-83037.4
-78052.5
-92118.2
-93425.8
-94389.4
-90014.8
-83063.3
-78692.1
-76198.4
-71407.4
-64086
-61101.1
-77677.5
-78855.3
-80877.6
-77087.2
-74767.1
-70679.7
-69845.8
-62472.9
-57522.9
-56224.8
-65097.2
-66729.7
-68621.6
-65816.2
-66160.2
-65038.2
-65740.8
-60994.8
-58437
-58572.4
-52964.8
-54815.9
-58093.4
-57657.2
-57256.8
-58075.8
-61092.9
-63198.9
-64542.6
-64831.7
-39415.1
-41340.3
-44415.1
-45029.1
-43035.6
-42660.1
-45660.9
-51435
-56891.1
-57903
-20787.1
-22326.3
-23429.6
-23542.4
-21266.1
-19562.3
-20140.5
-22234.9
-27142
-29075.4
-3313.72
-4453.82
-4259.42
-4272.63
-2938.92
-2151.75
-1265.17
-243.396
-1354.08
-2146.09
8886.11
8071.76
8870.87
9333.07
9170
8097.06
8214.39
9131.38
9652.62
11076.8
14856.7
14682.5
15072.3
15738.5
15234.8
14006
12203.2
10051.6
8119.88
9607.13
15306.2
15226.1
14357
15859.6
14743.7
15244.7
12817.3
9276.91
3553.14
2785.75
14430.4
14625.6
14618.1
16452.4
15387.8
17016.8
14831.4
9730.43
1369.33
-3709.67
8173.92
7126.4
9468.06
7644.86
8274.33
9187.83
7898.17
4142.61
-2258.85
-2874.98
)
;
    }
    inlet
    {
        type            fixedFluxPressure;
        gradient        nonuniform List<scalar> 
20
(
-0.0042076
-0.00404149
-0.00715943
-0.0103958
-0.0145352
-0.0195496
-0.0246109
-0.0305787
-0.0566328
-0.666732
-0.0049731
-0.00365771
-0.0069499
-0.0104835
-0.0144413
-0.019035
-0.024935
-0.0322316
-0.041184
-0.602131
)
;
        value           nonuniform List<scalar> 
20
(
382616
376342
380021
380353
382142
385009
388573
392355
396012
407200
388634
378002
379483
380099
382166
384977
388933
394074
396710
403238
)
;
    }
    outlet
    {
        type            fixedValue;
        value           uniform 0;
    }
    heatWall
    {
        type            fixedFluxPressure;
        gradient        nonuniform List<scalar> 
240
(
295.606
295.606
295.606
295.606
295.606
295.606
295.606
295.606
295.606