/*--------------------------------*- C++ -*----------------------------------*\
  =========                 |
  \\      /  F ield         | OpenFOAM: The Open Source CFD Toolbox
   \\    /   O peration     | Website:  https://openfoam.org
    \\  /    A nd           | Version:  8
     \\/     M anipulation  |
\*---------------------------------------------------------------------------*/
FoamFile
{
    version     2.0;
    format      ascii;
    class       surfaceScalarField;
    location    "100";
    object      phi;
}
// * * * * * * * * * * * * * * * * * * * * * * * * * * * * * * * * * * * * * //

dimensions      [1 0 -1 0 0 0 0];

internalField   nonuniform List<scalar> 
2860
(
1.63036
-0.0293629
-3.66164
1.72066
0.0704121
-6.46847
1.78532
0.137838
-11.6353
1.79657
0.0692005
-8.95613
1.7643
0.482202
2.644
1.62494
0.511824
20.5668
1.49474
0.19794
28.2422
1.36897
0.00515975
23.5379
1.2764
-0.0904313
16.8702
1.22178
-0.133815
12.0792
1.20036
-0.15589
8.50718
1.19967
-0.152828
6.21779
1.21252
-0.142654
4.71098
1.23633
-0.133635
3.64218
1.2718
-0.128169
2.94662
1.32079
-0.125582
2.35381
1.37146
-0.113703
1.54489
1.39641
-0.0823909
0.520786
1.39343
-0.0199828
-0.296324
1.40536
0.0387831
-0.664838
1.45631
0.0529273
-1.65161
1.53609
-0.0122217
-3.48506
1.63781
-0.0744872
-4.09189
1.75034
-0.0704144
-1.8351
1.83379
-0.0137896
2.92938
1.82237
0.087117
4.72863
1.68882
0.214651
5.73298
1.48956
0.240313
5.9856
1.32223
0.132944
4.92783
1.2242
0.00715994
3.63145
1.17445
-0.0467182
3.18367
1.14762
-0.0568209
3.14137
1.14927
-0.0696326
3.1994
1.18487
-0.093115
3.36209
1.22284
-0.0964998
2.6248
1.24842
-0.0857235
2.15411
1.25522
-0.0711984
1.63623
1.22039
-0.0131963
2.14778
1.15112
0.0543478
2.91567
1.14267
0.046078
3.58873
1.2292
-0.0227548
3.92767
1.25709
0.0112317
5.69342
1.13313
0.151426
7.16103
0.943012
0.149454
6.90031
0.82037
0.0382853
5.70442
0.829754
-0.0773341
4.95044
0.938402
-0.154689
5.3983
1.08863
-0.193653
6.09767
1.24902
-0.200153
6.30345
1.40709
-0.196659
6.51794
1.542
-0.176256
6.80979
1.63024
-0.130116
6.87749
1.67507
-0.0898844
6.76746
1.7036
-0.0775209
6.28936
1.73126
-0.0771273
5.61873
1.75472
-0.0699194
4.96611
1.76936
-0.0526908
4.30156
1.77899
-0.0436127
3.62468
1.79549
-0.0513978
2.60428
-0.0676045
1.54652
1.60709
-0.0410731
-0.997973
1.7367
0.0999246
1.12208
1.89959
0.157623
2.34828
2.02323
0.149215
4.83078
2.17749
0.491747
5.82109
2.2682
0.475638
7.97315
2.22214
0.122179
6.72284
2.11969
-0.053725
4.41329
2.00936
-0.128994
3.13726
1.91185
-0.167802
2.71452
1.83606
-0.199207
2.30998
1.78033
-0.204444
1.85138
1.73777
-0.197701
1.42139
1.7006
-0.182691
1.04972
1.66974
-0.166962
0.769851
1.67672
-0.175085
0.407184
1.71301
-0.147503
-0.19439
1.71138
-0.0633291
-0.85772
1.68557
0.0327961
-1.33927
1.67261
0.0876348
-1.21102
1.69446
0.0816369
-1.4734
1.73711
0.00721366
-2.344
1.79734
-0.0879515
-2.86041
1.8669
-0.107461
-1.71556
1.91583
-0.0230363
1.59283
1.93035
0.1099
2.71088
1.94044
0.267548
2.9068
1.96306
0.295974
2.072
2.00004
0.169297
1.18205
2.03134
0.0360009
0.851726
2.03373
-0.00395027
1.28563
1.98927
0.01421
2.0163
1.87353
0.0575071
2.77432
1.69236
0.105618
3.82825
1.46926
0.107997
3.67853
1.23569
0.0844114
3.18604
0.998502
0.0760585
2.64886
0.838838
0.0797526
2.60612
0.82028
0.00282172
1.88435
0.894106
-0.0921292
0.771995
1.01785
-0.101283
-0.331034
1.13299
-0.00191964
-0.431891
1.28249
0.166863
0.455443
1.36151
0.184816
0.880741
1.36425
0.0828749
0.704045
1.34733
-0.0420762
0.783213
1.35736
-0.170535
1.66837
1.41396
-0.271343
2.89587
1.51296
-0.322127
3.52204
1.64517
-0.352639
4.0748
1.78435
-0.348023
4.67931
1.88325
-0.270108
4.86923
1.91483
-0.162427
4.86049
1.89381
-0.092132
4.64336
1.84441
-0.0598243
4.27087
1.78116
-0.040186
3.78869
1.71093
-0.0212677
3.00073
1.64317
-0.0245757
2.24205
1.6005
-0.0651688
1.08563
-0.117016
0.390775
1.62376
-0.0350681
0.296876
1.74844
-0.0109745
0.844211
1.92369
0.012143
1.46365
2.09208
0.0563321
1.97707
2.32098
0.345971
1.9303
2.50248
0.341805
3.78909
2.57224
0.0361655
4.18378
2.56654
-0.146322
2.77172
2.51909
-0.197
2.00317
2.45051
-0.210829
1.90955
2.37667
-0.224973
1.84483
2.30706
-0.225717
1.43407
2.24523
-0.21884
1.00129
2.18637
-0.198481
0.579158
2.11206
-0.150069
0.0958304
2.04708
-0.0229524
-0.921014
1.96369
0.0822494
-2.52022
1.85981
0.106632
-3.85926
1.78817
0.106836
-4.36981
1.77911
0.09647
-3.8167
1.81254
0.064533
-3.45777
1.84236
-0.00307322
-3.21904
1.86017
-0.101113
-3.40102
1.90162
-0.161008
-2.66839
1.93527
-0.0697297
-0.28177
1.94427
0.132431
1.33505
1.97121
0.309739
1.24333
2.01751
0.313426
-0.474463
2.06656
0.146737
-1.68679
2.12046
-0.00192377
-1.75366
2.16562
-0.0365586
-1.14208
2.1727
0.0211727
-0.243998
2.13905
0.118319
0.678526
2.08281
0.21123
1.58855
1.99997
0.247352
2.20737
1.89665
0.229026
2.69237
1.7953
0.17888
2.51671
1.73735
0.0961726
1.7829
1.72623
-0.0390257
1.01695
1.73658
-0.16028
0.285004
1.77662
-0.172508
-0.201315
1.77872
-0.0462398
0.126555
1.77055
0.14474
0.501036
1.74502
0.186461
0.828018
1.69962
0.0929462
0.963364
1.65159
-0.0467049
0.91365
1.63594
-0.20476
1.41371
1.66506
-0.340273
2.44525
1.72223
-0.396343
3.37232
1.79804
-0.428427
4.46939
1.89204
-0.455324
5.43545
1.97322
-0.381403
6.1466
1.98385
-0.208139
6.5457
1.8947
-0.0477901
6.42854
1.73141
0.0345661
5.83114
1.55231
0.0418091
4.71686
1.38995
0.0237547
3.10734
1.27055
-0.0222927
1.73252
1.20591
-0.126718
0.329552
-0.0177321
-1.41658
1.62654
-0.0653356
0.142073
1.75109
-0.155673
-0.0999601
1.94879
-0.187193
0.0897577
2.13202
-0.106544
0.156378
2.39803
0.120464
0.0628858
2.64943
0.13912
0.483315
2.76789
-0.0455876
0.0101802
2.79976
-0.142775
-0.500867
2.77566
-0.146031
-0.403606
2.7115
-0.12975
0.126041
2.62549
-0.11776
0.735138
2.53246
-0.114739
0.742975
2.44427
-0.110981
0.631999
2.36627
-0.0983717
0.450537
2.3043
-0.0604608
0.10349
2.2687
0.0329088
-0.553845
2.20835
0.145452
-1.62592
2.09797
0.222219
-3.25025
1.99264
0.254967
-5.17113
1.9212
0.226965
-5.78593
1.85508
0.162278
-5.66967
1.76639
0.0727189
-5.07204
1.68513
-0.0537882
-4.86299
1.66772
-0.188304
-3.89566
1.7096
-0.178588
-1.76648
1.74932
0.0450366
-0.464707
1.7687
0.245739
-0.815657
1.80371
0.244798
-2.62813
1.86593
0.0716358
-2.85427
1.9309
-0.0717546
-2.44168
1.98536
-0.0890903
-1.98281
2.02017
-0.00779485
-1.42223
2.03539
0.109212
-0.990281
2.04008
0.214828
-0.585039
2.02726
0.283698
0.0130554
2.01211
0.28087
0.87017
2.00931
0.217905
1.15949
2.01468
0.116635
0.483192
2.00242
-0.0120118
-0.499769
1.98763
-0.126886
-0.85744
2.01452
-0.190229
-0.926278
2.04188
-0.0751821
-0.557697
2.04842
0.133979
0.0703164
2.02265
0.211279
0.635135
1.98468
0.132868
0.988373
1.94394
-0.000714718
1.13234
1.90368
-0.146459
1.77693
1.86301
-0.261987
3.05894
1.81434
-0.310316
4.43291
1.76723
-0.369763
5.76763
1.74326
-0.456731
6.54674
1.72108
-0.411921
6.84593
1.64896
-0.196424
6.69066
1.51403
0.0272969
6.15129
1.33954
0.135008
5.39212
1.16224
0.122147
4.16197
1.02331
0.0589665
2.11605
0.860822
0.0683267
0.526294
0.815115
0.111447
-0.910592
0.0868243
-2.33385
1.62605
-0.103429
-0.0119003
1.7617
-0.288072
0.0397928
1.97671
-0.400116
-0.0256895
2.17486
-0.307466
-0.203907
2.41487
-0.113111
-0.349538
2.64202
-0.0814891
-0.441498
2.76328
-0.17011
-0.586699
2.79246
-0.193282
-0.767589
2.7644
-0.150969
-0.583381
2.70151
-0.101574
-0.0180171
2.61967
-0.0555813
0.555814
2.52491
-0.0215853
0.691533
2.42696
0.00478759
0.735233
2.33625
0.0228006
0.685445
2.27147
0.0448934
0.411766
2.24373
0.0895762
-0.399842
2.19534
0.20595
-1.65425
2.09557
0.340832
-3.71084
1.97621
0.429717
-6.43467
1.84291
0.411288
-7.42408
1.69372
0.313814
-6.97991
1.5513
0.172425
-5.92676
1.45739
-0.00834939
-5.48231
1.4305
-0.206055
-4.70965
1.44123
-0.254082
-3.10588
1.44003
-0.0464943
-1.99474
1.43674
0.179599
-1.91768
1.47025
0.176309
-3.28009
1.55235
-0.0355523
-2.45378
1.65411
-0.1822
-1.55278
1.7403
-0.172437
-1.28981
1.79776
-0.0574011
-1.23046
1.83069
0.0877128
-1.09567
1.85375
0.200661
-0.986125
1.87271
0.276039
-0.572186
1.89347
0.291873
0.19519
1.91229
0.236595
0.520611
1.92139
0.148345
-0.0148851
1.9095
0.0251727
-0.738118
1.91024
-0.106411
-1.04672
1.97059
-0.230765
-0.919898
2.02284
-0.122606
-0.520984
2.04335
0.122625
0.167729
2.04398
0.230536
0.7646
2.03127
0.187048
1.48665
2.0002
0.0984252
2.18553
1.92395
0.0301266
3.22964
1.79104
-0.0183851
4.58582
1.64558
-0.0879004
5.85665
1.53808
-0.232647
7.14553
1.46522
-0.397055
8.02026
1.39106
-0.3911
8.36753
1.29629
-0.182071
7.75571
1.18377
0.0464337
6.48141
1.04905
0.1712
5.39625
0.887792
0.182729
4.30894
0.732718
0.135253
2.93002
0.617465
0.138616
1.59612
0.6226
0.100311
0.839602
0.0634713
-0.459834
1.62213
-0.12788
-0.00580403
1.7722
-0.422424
0.164421
2.00257
-0.613035
-0.339156
2.19741
-0.508721
-1.22572
2.38488
-0.312358
-2.31887
2.54898
-0.251494
-3.03901
2.62343
-0.253736
-3.32984
2.60188
-0.192937
-3.50706
2.52083
-0.102826
-3.1011
2.42206
-0.0479619
-2.33051
2.32662
-0.0100942
-1.64906
2.23984
0.0131352
-1.22085
2.1664
0.0257793
-0.887603
2.10103
0.0393386
-0.715196
2.04595
0.0579207
-0.823226
2.03128
0.0724597
-1.26704
2.02568
0.192989
-1.75376
1.99455
0.366069
-3.54642
1.95071
0.504044
-6.37171
1.88523
0.511689
-7.53265
1.78533
0.415283
-7.45126
1.65492
0.267622
-6.73913
1.50511
0.0843886
-6.17665
1.35818
-0.105851
-5.69752
1.22934
-0.172634
-5.06483
1.13493
-0.0217522
-4.34815
1.12993
0.137623
-3.84428
1.19771
0.0834248
-3.95011
1.3318
-0.172504
-1.54239
1.48817
-0.326189
0.04504
1.60371
-0.292925
0.337666
1.66376
-0.150927
0.114379
1.681
0.0468266
-0.0608907
1.69249
0.186876
-0.434937
1.71234
0.269654
-0.64252
1.74725
0.281287
-0.620285
1.77669
0.245352
-0.549076
1.79526
0.157164
-1.17257
1.79907
0.0382677
-1.62268
1.80808
-0.12347
-2.22105
1.88663
-0.309257
-2.0449
1.96381
-0.203622
-1.43855
1.99014
0.0986171
-0.617178
1.97758
0.254509
-0.0198374
1.9464
0.247391
0.573247
1.90366
0.180369
0.946693
1.86836
0.127556
1.62843
1.85064
0.0814303
2.69219
1.81488
0.026388
3.95656
1.70627
-0.0659584
5.59248
1.53446
-0.189577
7.19168
1.34707
-0.215864
8.21567
1.17625
-0.0818059
7.69889
1.03724
0.0912769
6.1977
0.915211
0.198511
5.16838
0.77999
0.23678
4.54131
0.651637
0.21211
3.78929
0.579213
0.177262
2.54987
0.593947
0.0893357
1.20307
0.0752047
-0.37386
1.60389
-0.136298
-0.273079
1.77713
-0.550608
-0.163967
2.02446
-0.770833
-0.720496
2.21198
-0.646244
-2.11082
2.34814
-0.450513
-3.87873
2.43987
-0.370606
-4.56161
2.44545
-0.333984
-4.89736
2.37532
-0.25489
-4.97874
2.26654
-0.13845
-4.34881
2.14634
-0.02236
-3.62417
2.02743
0.0412868
-3.16595
1.92541
0.0659511
-2.82879
1.84712
0.0700901
-2.52474
1.79402
0.0701809
-2.47125
1.7755
0.0691356
-2.70974
1.81582
0.0261521
-2.96042
1.85855
0.133919
-3.06331
1.87367
0.32254
-4.53703
1.88418
0.48299
-6.77768
1.88803
0.509887
-7.40427
1.86125
0.43107
-7.0695
1.78151
0.311326
-6.41889
1.60587
0.210387
-6.13159
1.32511
0.141791
-6.26364
1.0609
0.0753704
-6.77102
0.944817
0.0462471
-6.69838
0.973312
0.0534879
-5.23238
1.07594
-0.0979579
-3.07705
1.30414
-0.383512
0.397757
1.47611
-0.480232
2.3603
1.56149
-0.40043
2.51712
1.59427
-0.248022
2.14755
1.60302
-0.0755354
1.52751
1.60947
0.0735762
0.762009
1.61255
0.166484
0.0916961
1.62618
0.214867
-0.365141
1.63933
0.210559
-0.433529
1.6411
0.145226
-0.7614
1.62335
0.0434413
-1.31591
1.61302
-0.115675
-1.94971
1.70204
-0.392397
-1.97266
1.79995
-0.288346
-1.16542
1.81533
0.0993654
-0.530842
1.80588
0.271763
-0.168558
1.76537
0.292031
0.0888531
1.70712
0.238837
0.555372
1.65883
0.177615
1.3756
1.64855
0.0953253
2.06503
1.66667
0.0125055
2.55698
1.65461
-0.0244522
3.70262
1.53881
0.00555998
5.84015
1.32812
0.0439305
8.03858
1.11165
0.0963502
8.2876
0.946955
0.168062
6.78603
0.830401
0.222186
5.55667
0.727855
0.263087
5.00175
0.630319
0.260984
4.66291
0.571767
0.223486
4.22726
0.587653
0.0881205
4.31841
0.0458941
3.19631
1.58173
-0.140426
-0.959214
1.76649
-0.619434
-1.01109
2.02488
-0.757378
-1.33057
2.1362
-0.557351
-4.28585
2.07784
-0.231803
-9.68247
1.88455
-0.0510076
-14.1866
1.64511
-0.0496097
-16.5397
1.46386
-0.118813
-15.5284
1.35062
-0.119075
-12.4553
1.28357
-0.0630385
-9.64728
1.24818
-0.0078851
-7.81482
1.22609
0.0265956
-6.27413
1.20877
0.038588
-4.88322
1.20151
0.0365835
-3.87716
1.21302
0.0115871
-3.32882
1.30878
-0.111666
-3.09738
1.43119
-0.0241391
-3.41296
1.53652
0.179411
-5.28594
1.63995
0.363129
-7.37723
1.73116
0.413542
-7.53845
1.77864
0.367625
-7.12674
1.7646
0.292566
-6.58821
1.6858
0.24396
-6.12161
1.54551
0.230058
-5.67342
1.37411
0.19358
-5.16077
1.26207
0.0976845
-4.01393
1.26026
-0.0568012
-2.3853
1.34049
-0.267261
-0.490663
1.45458
-0.464408
1.91116
1.45965
-0.407788
4.09458
1.37123
-0.233029
5.18838
1.28297
-0.121612
5.24046
1.24935
-0.0581909
4.58535
1.26462
-0.00119799
3.41704
1.3009
0.049541
2.08315
1.3451
0.0784941
0.823442
1.37876
0.0931362
0.226397
1.38218
0.0714647
0.102126
1.35332
0.0219924
0.223299
1.34433
-0.114281
-0.389247
1.47482
-0.513444
-0.358303
1.55494
-0.382662
0.530303
1.55246
0.0642031
0.665156
1.54426
0.241811
0.711958
1.51718
0.280355
0.796571
1.48845
0.237382
1.74884
1.46073
0.183606
3.01877
1.44479
0.105534
3.65162
1.4344
0.0358493
3.51338
1.40511
0.0283796
3.61554
1.33956
0.111128
4.55646
1.23522
0.196691
6.64208
1.11121
0.219132
8.2758
0.994653
0.226336
7.38801
0.90378
0.234909
6.07335
0.843069
0.252139
5.27018
0.780043
0.272103
5.49343
0.695834
0.286404
6.12901
0.589379
0.174323
6.90887
0.0683959
6.70013
1.5365
-0.0652033
-0.323034
1.7481
-0.34092
0.0243573
2.02196
-0.213109
0.102623
2.17552
-0.0580943
-4.51488
2.19483
0.0303382
-8.04717
2.15845
0.106127
-8.14018
2.06203
0.0914797
-8.21851
1.9183
0.030493
-8.59775
1.75662
0.0227102
-8.37389
1.60948
0.0511161
-7.84308
1.49655
0.0639396
-6.9598
1.41492
0.0619896
-5.56768
1.35258
0.0519649
-4.28928
1.29721
0.0430218
-3.3084
1.21394
0.0122741
-2.62017
1.22231
-0.140159
-2.57127
1.22445
-0.0595029
-3.78995
1.24851
0.140457
-5.88526
1.35429
0.24979
-6.78973
1.50121
0.256739
-6.23357
1.6294
0.220747
-5.66091
1.72041
0.17685
-5.17387
1.78894
0.150898
-4.45999
1.84677
0.146875
-3.96256
1.89026
0.119995
-3.22984
1.91065
0.0415155
-1.83798
1.87168
-0.0694692
-0.855228
1.80113
-0.216637
0.167593
1.74104
-0.313388
2.05367
1.64515
-0.212641
3.83757
1.53133
-0.0699136
4.75048
1.42568
-0.0190492
5.06617
1.33883
-0.018557
4.69893
1.28147
-0.0135149
3.9788
1.2559
-0.000893315
3.09214
1.25234
0.009099
2.1703
1.2491
0.0116863
1.24001
1.22448
0.0175478
0.916657
1.17282
0.0180193
1.35317
1.15105
-0.106075
2.527
1.1826
-0.536829
3.26738
1.19823
-0.42131
3.8826
1.17923
0.0724327
4.40314
1.12705
0.226889
4.01
1.08137
0.238688
3.25353
1.04024
0.202123
3.72165
1.018
0.178351
4.98102
1.01205
0.119679
5.06996
1.01119
0.0546978
3.25385
1.02587
0.0432382
2.26156
1.06882
0.0994576
2.37227
1.11681
0.152992
3.77613
1.15803
0.167878
5.63834
1.1931
0.169152
6.16905
1.22724
0.166104
5.78641
1.27686
0.165562
5.26278
1.333
0.185054
5.75496
1.37215
0.221584
6.78904
1.25479
0.248017
8.6608
0.15701
9.34902
1.59654
2.48071
1.70115
18.5079
1.69048
28.2678
1.59328
28.5069
1.5839
29.9294
1.63202
30.894
1.59228
28.4137
1.43406
23.9179
1.24141
17.6435
1.0903
11.3648
0.992667
7.07392
0.934086
4.93386
0.882816
3.38447
0.82482
1.93939
0.739203
0.395238
0.714904
-3.25497
0.673696
-6.32728
0.767119
-7.92928
0.968619
-7.33773
1.1951
-5.65933
1.39338
-4.50374
1.55316
-3.61639
1.69764
-2.55346
1.83611
-2.06817
1.94392
-1.55212
1.97991
-0.367661
1.92142
0.740737
1.79628
2.10397
1.65254
4.32471
1.52921
5.96188
1.44257
5.91343
1.36292
5.35464
1.27459
4.68104
1.19252
4.0128
1.13317
3.52789
1.09879
3.10421
1.07854
2.46302
1.04408
1.39115
1.01408
1.25829
0.923519
5.03187
0.443422
8.08668
-0.0200437
11.1384
-0.0439878
11.2333
0.124267
8.63928
0.317409
6.63396
0.477454
8.31569
0.606658
9.12609
0.668612
6.2709
0.694242
3.3825
0.724101
2.01213
0.801727
1.85798
0.918495
2.88476
1.04926
4.47824
1.18526
5.28754
1.31695
5.35331
1.44243
4.73324
1.57117
4.70991
1.72128
5.6759
1.89243
8.09098
9.63186
1.63839
0.0135955
1.7149
0.137526
1.76813
0.176979
1.80365
0.0412227
1.80111
0.338189
1.66284
0.51487
1.51474
0.218939
1.38283
0.0271615
1.28697
-0.073702
1.2283
-0.121079
1.20264
-0.143538
1.19769
-0.14505
1.20594
-0.138595
1.22264
-0.131652
1.24857
-0.129182
1.29706
-0.133683
1.35663
-0.123956
1.3831
-0.0776545
1.37834
0.000301828
1.38837
0.061426
1.44302
0.0594809
1.53997
-0.0141527
1.65992
-0.0853313
1.76679
-0.100319
1.82769
-0.0602083
1.83038
0.0455775
1.72904
0.169454
1.55653
0.196262
1.39601
0.113652
1.28947
0.0087288
1.22753
-0.0343468
1.18933
-0.0400693
1.17906
-0.0521475
1.2041
-0.0731108
1.23986
-0.0813869
1.26663
-0.0759551
1.28013
-0.06517
1.25028
-0.0286128
1.17874
0.0355756
1.15207
0.0235118
1.2267
-0.0632124
1.26445
-0.0429689
1.17021
0.0702877
0.988329
0.134282
0.847077
0.0535096
0.828343
-0.0633211
0.914722
-0.141097
1.05351
-0.183743
1.21071
-0.195893
1.36639
-0.194742
1.50118
-0.176256
1.59174
-0.132377
1.63627
-0.0891818
1.66355
-0.0725509
1.69013
-0.0707647
1.71505
-0.0663949
1.73509
-0.0572339
1.74813
-0.0500833
1.77282
-0.0582485
-0.0547369
1.62065
0.0161983
1.74172
0.0540812
1.90766
0.10569
2.02475
0.0841538
2.20084
0.408696
2.31158
0.47803
2.27353
0.126587
2.17994
-0.0715629
2.0727
-0.130916
1.96988
-0.155587
1.88719
-0.17683
1.8262
-0.186927
1.78084
-0.185371
1.74074
-0.176881
1.70289
-0.174755
1.7034
-0.193414
1.72375
-0.166664
1.70175
-0.0639762
1.66316
0.0490337
1.647
0.104511
1.67507
0.0869223
1.72969
0.00277508
1.80144
-0.10811
1.87786
-0.137957
1.9157
-0.0774704
1.93256
0.0721327
1.94843
0.224326
1.98156
0.243351
2.02318
0.130646
2.05737
0.0216592
2.06372
-0.00427826
2.02837
0.0219467
1.92899
0.0617712
1.76595
0.0997003
1.56308
0.111063
1.34293
0.0927271
1.11058
0.0824653
0.936775
0.0679132
0.896378
-0.013538
0.94079
-0.107539
1.03937
-0.119718
1.15684
-0.027991
1.31913
0.156496
1.38533
0.180135
1.37881
0.085148
1.35503
-0.0451946
1.34293
-0.172152
1.37613
-0.270364
1.46224
-0.31806
1.58354
-0.344886
1.71566
-0.345194
1.8158
-0.271507
1.85302
-0.166911
1.84211
-0.0983395
1.80321
-0.0652797
1.74916
-0.0468949
1.69007
-0.0315944
1.62891
-0.0292344
1.59808
-0.0650732
-0.109875
1.62134
-0.0352258
1.74759
-0.04283
1.9259
-0.0277001
2.08573
0.0140051
2.34033
0.326751
2.53313
0.339935
2.60545
0.042274
2.60825
-0.108655
2.56572
-0.154018
2.49886
-0.16885
2.42515
-0.185096
2.35753
-0.195576
2.29752
-0.193244
2.23712
-0.177717
2.13543
-0.134944
2.02616
-0.0203693
1.9197
0.0689269
1.81922
0.094739
1.76386
0.103212
1.76998
0.0877995
1.80831
0.048117
1.8319
-0.0224668
1.84557
-0.125057
1.88777
-0.185089
1.92281
-0.108946
1.94161
0.0878269
1.96326
0.277637
2.01025
0.28935
2.06499
0.143371
2.12028
-0.00221345
2.16669
-0.0415045
2.1851
0.00701507
2.16507
0.0969807
2.11624
0.184444
2.04267
0.2311
1.95071
0.230608
1.86006
0.194117
1.80819
0.105967
1.78891
-0.044949
1.77496
-0.153399
1.79452
-0.161777
1.80516
-0.037754
1.81919
0.150727
1.79678
0.187164
1.74538
0.0941663
1.68974
-0.042981
1.64813
-0.203593
1.64456
-0.351153
1.68184
-0.420306
1.74579
-0.446754
1.83306
-0.46524
1.91376
-0.396723
1.93547
-0.23628
1.87137
-0.0810672
1.73344
0.0113247
1.57054
0.0326914
1.41932
0.022133
1.29486
-0.0188861
1.20586
-0.0694847
0.00831708
1.62445
-0.0733459
1.75116
-0.148002
1.94842
-0.20213
2.1291
-0.123922
2.40283
0.112549
2.65232
0.126294
2.76452
-0.0431317
2.79572
-0.130908
2.77374
-0.129941
2.72222
-0.108586
2.65278
-0.0998034
2.5782
-0.0926632
2.50392
-0.0863852
2.43317
-0.0756159
2.35831
-0.0414575
2.28702
0.046171
2.18865
0.150362
2.0632
0.220451
1.96474
0.254405
1.89845
0.219305
1.82549
0.147359
1.72498
0.0513245
1.64175
-0.0842858
1.62762
-0.222292
1.66517
-0.199499
1.6975
0.030297
1.72794
0.260396
1.78867
0.257574
1.86205
0.0797391
1.9275
-0.0625531
1.97736
-0.0865909
2.00504
-0.0167139
2.01745
0.0964295
2.03115
0.198377
2.03717
0.264604
2.03103
0.268023
2.02436
0.214501
2.01549
0.120117
1.98627
-0.0076291
1.96171
-0.131587
1.9893
-0.189796
2.03016
-0.0732323
2.05956
0.130747
2.0486
0.200933
2.00701
0.122549
1.95681
-0.0160167
1.90175
-0.168778
1.84739
-0.29542
1.79379
-0.348461
1.74365
-0.385524
1.71512
-0.450056
1.68962
-0.418404
1.62321
-0.233647
1.50301
-0.021707
1.34218
0.102132
1.17628
0.118428
1.04062
0.0780091
0.85093
0.0989612
0.787254
0.136273
0.0827278
1.62598
-0.104266
1.76209
-0.285233
1.97542
-0.407794
2.17301
-0.311273
2.41087
-0.119122
2.63281
-0.0839521
2.74869
-0.157298
2.77587
-0.166514
2.74976
-0.121846
2.69683
-0.080931
2.63369
-0.04386
2.56205
-0.00661138
2.48392
0.0217549
2.40499
0.0394996
2.33043
0.0584736
2.26809
0.10779
2.17994
0.223839
2.06649
0.345802
1.94814
0.435572
1.80821
0.40941
1.6484
0.297238
1.50227
0.143591
1.41356
-0.0479724
1.38875
-0.247329
1.39457
-0.268947
1.39462
-0.023629
1.40433
0.211254
1.46386
0.179133
1.55483
-0.0328647
1.65663
-0.175882
1.74065
-0.179675
1.7942
-0.0822856
1.82312
0.0589524
1.84713
0.173329
1.87566
0.240396
1.90361
0.241098
1.91853
0.199682
1.91404
0.120974
1.89027
0.0114677
1.8918
-0.134146
1.9543
-0.255264
2.02215
-0.13199
2.0557
0.112918
2.05892
0.209907
2.03328
0.1529
1.99553
0.0540272
1.92534
-0.0108682
1.80467
-0.0534532
1.66372
-0.116533
1.54818
-0.237589
1.46549
-0.378949
1.38319
-0.384264
1.28276
-0.206757
1.17243
0.00485135
1.0455
0.141103
0.894682
0.180516
0.750308
0.155567
0.634295
0.152316
0.612186
0.110885
0.0496311
1.62227
-0.139656
1.77221
-0.435151
1.99655
-0.60811
2.18768
-0.477932
2.36981
-0.29094
2.52279
-0.238769
2.58586
-0.245234
2.55567
-0.180506
2.46809
-0.088726
2.36439
-0.0317985
2.26742
0.0053967
2.18452
0.0314135
2.11588
0.0448267
2.05581
0.0548018
2.01129
0.0638606
2.00787
0.0793227
2.00515
0.200685
1.98101
0.377701
1.94183
0.523716
1.86982
0.523856
1.75811
0.410403
1.61451
0.24592
1.45406
0.0525354
1.29897
-0.136869
1.16931
-0.179352
1.09339
0.00681131
1.11853
0.152404
1.21651
0.0508445
1.34334
-0.17864
1.49385
-0.323023
1.60455
-0.310735
1.66279
-0.18561
1.6727
-0.00323372
1.68642
0.137794
1.71339
0.210445
1.75112
0.218535
1.7781
0.190467
1.7981
0.126305
1.79709
0.0175729
1.80517
-0.14065
1.87803
-0.339788
1.95988
-0.220557
1.99239
0.0748175
1.98672
0.219857
1.95647
0.202093
1.91035
0.146107
1.862
0.101888
1.82976
0.0530127
1.79701
-0.00517814
1.70549
-0.0856831
1.54592
-0.185583
1.35592
-0.203395
1.1744
-0.0840406
1.02927
0.0723683
0.907416
0.177046
0.777484
0.229101
0.65402
0.230826
0.574559
0.212484
0.545848
0.14507
0.0991391
1.61043
-0.155964
1.77963
-0.581817
2.01922
-0.77058
2.20174
-0.614773
2.33477
-0.423973
2.41653
-0.351207
2.41599
-0.309794
2.34624
-0.214644
2.23452
-0.0933787
2.10928
0.00969545
1.99213
0.0615849
1.89686
0.0828446
1.82705
0.0842345
1.78442
0.082389
1.77953
0.0535962
1.82345
0.00385582
1.86083
0.11902
1.87523
0.327196
1.88701
0.506044
1.88553
0.527272
1.84827
0.431762
1.75208
0.301554
1.55182
0.201757
1.2502
0.130905
0.996952
0.0695266
0.915996
0.0587113
0.974908
0.034022
1.08915
-0.126968
1.303
-0.386211
1.47179
-0.488028
1.56679
-0.430605
1.60219
-0.294897
1.60841
-0.125193
1.61063
0.0335031
1.6054
0.124624
1.61466
0.164886
1.62795
0.153065
1.63249
0.112621
1.61227
0.042566
1.60113
-0.116465
1.68625
-0.409839
1.78849
-0.320879
1.80918
0.0526438
1.8009
0.238373
1.77098
0.2619
1.72131
0.23278
1.65725
0.18359
1.61755
0.0922439
1.6203
-0.0253356
1.61996
-0.0959887
1.53462
-0.0513905
1.33773
0.0350766
1.11419
0.111067
0.941363
0.172185
0.822144
0.213136
0.722107
0.254396
0.628021
0.278753
0.567289
0.25932
0.588507
0.141162
0.0894244
1.59256
-0.125992
1.7725
-0.648928
2.01541
-0.739979
2.11289
-0.48147
2.04177
-0.171848
1.83683
-0.0157177
1.59844
-0.0327265
1.43033
-0.104543
1.33346
-0.102208
1.27916
-0.044144
1.24976
0.0125608
1.2299
0.0446771
1.21225
0.0472029
1.2039
0.0354426
1.22531
-0.0225444
1.32165
-0.140052
1.44036
-0.041096
1.54753
0.200662
1.65196
0.402318
1.73754
0.439328
1.77493
0.377251
1.74623
0.295512
1.64862
0.256561
1.48553
0.246943
1.29929
0.205999
1.19603
0.105691
1.2255
-0.0630402
1.33089
-0.283075
1.47299
-0.460154
1.49973
-0.428225
1.42667
-0.269244
1.33316
-0.15521
1.27937
-0.0897541
1.27613
-0.0282185
1.30272
0.0342641
1.34162
0.0760916
1.36762
0.075411
1.37086
0.0455575
1.32587
0.0136023
1.31129
-0.0724949
1.46333
-0.484761
1.57108
-0.385801
1.56049
0.0740659
1.55283
0.233108
1.52744
0.26365
1.49033
0.222095
1.44658
0.173078
1.41468
0.0807524
1.39901
-0.0194423
1.38188
-0.0477637
1.33563
0.0361523
1.23267
0.172554
1.09852
0.236495
0.978098
0.248914
0.887858
0.243064
0.829164
0.250581
0.770225
0.283773
0.693056
0.315832
0.597924
0.227217
0.111785
1.52294
0.00184861
1.7491
-0.241187
2.0195
-0.146504
2.15568
-0.0154379
2.15624
0.0838046
2.10447
0.144905
2.00483
0.107917
1.86944
0.0291989
1.72235
0.0147316
1.58985
0.0471945
1.48772
0.0660441
1.41268
0.0633974
1.35319
0.045336
1.2908
0.0243366
1.21543
-0.0383416
1.21875
-0.182534
1.22282
-0.0568078
1.25369
0.159221
1.36693
0.270606
1.51432
0.271816
1.63911
0.229892
1.72542
0.185283
1.78833
0.163886
1.84108
0.157004
1.88017
0.123847
1.89327
0.0405037
1.86488
-0.063351
1.81543
-0.191147
1.78911
-0.297978
1.70859
-0.231015
1.59486
-0.0987529
1.47911
-0.035265
1.37915
-0.0245383
1.30885
-0.0172502
1.27329
-0.000276414
1.26537
0.0164955
1.26355
0.0210176
1.24302
0.00443511
1.1893
-0.000881466
1.15485
-0.0695534
1.20601
-0.473596
1.21977
-0.430362
1.18739
0.0553396
1.13931
0.227089
1.0938
0.238573
1.04551
0.198071
1.00519
0.170109
0.984455
0.0971557
0.981907
0.0309491
0.995438
0.0108216
1.04509
0.0647021
1.08623
0.135744
1.11137
0.174595
1.14161
0.185828
1.17806
0.178223
1.23222
0.165903
1.29195
0.183666
1.34007
0.229687
1.25088
0.268323
0.173799
1.58739
1.70729
1.7075
1.61304
1.59821
1.64375
1.60851
1.45531
1.2613
1.10322
0.998319
0.931541
0.875727
0.819746
0.73728
0.70103
0.663431
0.77676
0.990261
1.21947
1.41787
1.57753
1.71992
1.85838
1.96741
2.00305
1.94641
1.83621
1.7145
1.59057
1.49482
1.40785
1.31295
1.22347
1.15638
1.11682
1.09404
1.06683
1.03212
0.93555
0.497265
0.0290956
-0.0267429
0.134519
0.319242
0.469268
0.584588
0.638836
0.666943
0.697585
0.772361
0.872472
0.985563
1.11758
1.25185
1.38525
1.52084
1.67508
1.84597
)
;

boundaryField
{
    wall
    {
        type            calculated;
        value           nonuniform List<scalar> 
1200
(
3.65226
0.994451
-0.335016
-0.146854
0.0156046
-0.000193423
0.269317
0.973312
0.303011
-2.55085
6.30777
-1.28097
-0.85806
0.11988
-0.0433224
-0.180373
0.119266
0.895256
-0.514606
-18.9536
11.4328
-2.53082
-1.49342
-0.0883741
0.0236996
0.321507
0.631065
1.0586
-0.920814
-28.4702
8.8757
-5.03464
-2.05275
-0.176541
0.206855
1.23201
2.0607
4.0856
3.8619
-28.4677
-3.09395
-5.98494
-2.01328
-0.102825
0.34307
2.33049
3.88095
9.5224
7.76598
-29.8897
-20.9393
-8.02766
-3.83668
-0.532022
0.435236
3.04505
4.58898
14.0602
8.0196
-30.836
-28.3099
-6.60108
-4.16762
-0.0468221
0.590423
3.33883
4.9719
16.4946
8.17384
-28.2825
-23.4173
-4.25194
-2.67329
0.46508
0.788954
3.52822
5.11089
15.5734
8.59217
-23.7291
-16.6871
-2.98836
-1.88766
0.376513
0.616476
3.13402
4.49313
12.5493
8.39377
-17.4281
-11.8908
-2.58323
-1.79793
-0.142761
0.0528933
2.3757
3.71876
9.75508
7.87606
-11.1626
-8.32989
-2.1908
-1.7452
-0.756264
-0.536249
1.69908
3.23361
7.89906
7.00085
-6.91231
-6.06427
-1.74388
-1.34319
-0.760989
-0.68989
1.27288
2.87805
6.33555
5.61381
-4.81313
-4.58115
-1.32364
-0.918356
-0.651825
-0.752964
0.939968
2.5587
4.93198
4.33856
-3.28133
-3.53234
-0.963476
-0.504396
-0.472806
-0.715934
0.763812
2.49363
3.91778
3.35727
-1.83841
-2.85391
-0.700395
-0.0384607
-0.131312
-0.452287
0.865451
2.71681
3.375
2.70265
-0.297065
-2.27724
-0.364153
0.834195
0.533753
0.370568
1.29881
2.96656
3.1395
2.59142
3.13913
-1.4818
0.191965
2.37375
1.6231
1.64229
1.77244
3.07952
3.44867
3.82326
6.30899
-0.463354
0.84016
3.79298
3.24508
3.69178
3.55246
4.5654
5.32378
5.89998
7.97641
0.319266
1.31184
4.36743
5.12821
6.37913
6.34122
6.78837
7.3937
6.79719
7.38618
0.614043
1.17509
3.81663
5.72688
7.37311
7.49782
7.40207
7.54361
6.24356
5.68965
1.54773
1.42301
3.44145
5.63795
6.97778
7.44966
7.08064
7.14276
5.67984
4.52623
3.41753
2.28186
3.19991
5.08491
5.96947
6.7743
6.45491
6.62109
5.19879
3.63339
4.06466
2.81348
3.39641
4.89706
5.53077
6.23361
6.18136
6.16665
4.48444
2.55985
1.79295
1.68337
2.6802
3.94037
4.75414
5.74428
6.29686
5.72519
3.98778
2.07645
-2.999
-1.6325
0.294734
1.83348
3.17069
5.11215
6.78698
5.21394
3.25993
1.56446
-4.80432
-2.74803
-1.36653
0.51216
2.08731
4.41794
6.74635
4.07439
1.87379
0.37345
-5.81406
-2.96973
-1.31258
0.860199
1.98711
3.89122
5.2879
2.49712
0.906889
-0.751781
-6.02665
-2.15025
0.41082
2.66185
3.31513
3.97532
3.15552
0.579488
-0.147415
-2.19523
-4.89345
-1.25499
1.66054
2.86708
2.47924
1.54504
-0.415425
-1.94431
-2.14417
-4.4944
-3.54053
-0.911593
1.73753
2.44621
1.56124
-0.0575761
-2.37849
-4.17194
-3.93688
-6.05119
-3.08718
-1.33059
1.12969
1.98059
1.28674
-0.332232
-2.49527
-5.26733
-4.79991
-5.89671
-3.0577
-2.04292
0.229931
1.41625
1.22253
-0.0804688
-2.0833
-5.27854
-5.06304
-5.2941
-3.13142
-2.78582
-0.705857
0.984129
1.08434
0.0844183
-1.41387
-4.56912
-4.65153
-4.61119
-3.30459
-3.8456
-1.63794
0.576792
0.977313
0.43719
-0.654884
-3.35747
-3.90901
-3.94422
-2.56622
-3.65985
-2.26401
-0.0365312
0.561006
0.629105
0.00849263
-2.00229
-3.01603
-3.46952
-2.09396
-3.12271
-2.73374
-0.906854
-0.226572
0.595981
0.4175
-0.731487
-2.0972
-3.06081
-1.57185
-2.55901
-2.51829
-1.19584
-0.557821
0.510853
0.454713
-0.142644
-1.15519
-2.43109
-2.09976
-2.53959
-1.74132
-0.50904
-0.0257074
1.14518
0.771409
-0.0317066
-0.838318
-1.33926
-2.90077
-1.81385
-0.963748
0.484869
0.71301
1.60599
1.32861
-0.173272
-1.29802
-1.21026
-3.62631
-0.707091
-0.22714
0.838455
1.02562
2.22933
1.9522
0.396368
-2.5134
-5.04727
-3.99141
0.285492
0.23223
0.917561
0.900378
2.04448
1.96646
0.349047
-3.27536
-8.14343
-5.73256
0.329696
-0.0846897
0.559457
0.516453
1.44235
1.15222
-0.516329
-3.85981
-11.0962
-7.1885
-0.620963
-0.470891
-0.0658954
-0.17709
0.614679
0.515276
-0.62749
-4.39256
-11.1368
-6.85967
-0.995518
-0.804149
-0.633896
-0.784695
0.00836999
0.161073
-0.673644
-3.94304
-8.58067
-5.62009
-0.751684
-0.928057
-0.990199
-1.5281
-0.602352
-0.0930631
-0.757769
-3.16602
-6.58857
-4.88251
-0.801357
-0.861223
-1.13758
-2.25329
-0.986166
-0.555589
-1.71865
-3.64532