/*--------------------------------*- C++ -*----------------------------------*\
  =========                 |
  \\      /  F ield         | OpenFOAM: The Open Source CFD Toolbox
   \\    /   O peration     | Website:  https://openfoam.org
    \\  /    A nd           | Version:  8
     \\/     M anipulation  |
\*---------------------------------------------------------------------------*/
FoamFile
{
    version     2.0;
    format      ascii;
    class       volScalarField;
    location    "900";
    object      k;
}
// * * * * * * * * * * * * * * * * * * * * * * * * * * * * * * * * * * * * * //

dimensions      [0 2 -2 0 0 0 0];

internalField   nonuniform List<scalar> 
8400
(
0.00696169
0.0067229
0.00646225
0.00618472
0.00590717
0.00563695
0.00537562
0.00512798
0.0048976
0.00468715
0.00450248
0.00434903
0.00423131
0.00415336
0.00412086
0.00414147
0.00422686
0.00439402
0.00466757
0.00508264
0.00568948
0.00655093
0.00770366
0.00902185
0.00999232
0.0103631
0.0104468
0.0104425
0.0104021
0.0103428
0.0103052
0.0102827
0.0102365
0.010189
0.0101343
0.0100722
0.00999996
0.00991791
0.00982763
0.00972969
0.00962538
0.00951475
0.00939872
0.00927862
0.00915471
0.00902765
0.00889861
0.00876848
0.00863749
0.008506
0.00256192
0.00259554
0.00262522
0.00264851
0.00265595
0.00265314
0.00265427
0.00266423
0.00268394
0.00270936
0.00273525
0.00276077
0.00278338
0.00280123
0.00281282
0.00281846
0.00281883
0.00281517
0.00281087
0.00281674
0.00285941
0.00298315
0.00322805
0.00361197
0.00397112
0.00419604
0.00428645
0.00432126
0.00437511
0.00443495
0.00450206
0.00458221
0.00459833
0.00454286
0.00442135
0.0042515
0.00404985
0.0038309
0.00360673
0.00338605
0.00317395
0.00297411
0.00278895
0.00261932
0.00246562
0.00232829
0.00220742
0.00210309
0.00201576
0.00194648
0.00291769
0.00286351
0.00281845
0.00277674
0.00273907
0.00270352
0.00267112
0.00265367
0.0027195
0.00281148
0.0028481
0.00286485
0.0028731
0.00287845
0.00288082
0.00288097
0.00287902
0.00287472
0.00286759
0.00285659
0.00283954
0.00281029
0.00274418
0.00227853
0.00234081
0.00239203
0.00236742
0.00234821
0.0023951
0.0024247
0.00246631
0.00255406
0.00258481
0.00254589
0.0024556
0.00233351
0.00219743
0.00206089
0.00193275
0.00181777
0.00171804
0.00163386
0.00156424
0.0015077
0.00146265
0.00142746
0.00140051
0.00138041
0.00136606
0.00135652
0.00299305
0.00298526
0.00297742
0.00296928
0.00296117
0.0029532
0.0029458
0.00293936
0.00293432
0.00292999
0.00292691
0.00292477
0.00292281
0.00292082
0.00291861
0.00291586
0.00291222
0.00290738
0.00290091
0.00289205
0.00288145
0.00286886
0.00284751
0.00272931
0.00260787
0.00251154
0.002187
0.00161504
0.0016376
0.00162936
0.00164124
0.00173532
0.0017629
0.00174191
0.00168435
0.00160868
0.00152942
0.00145531
0.00139062
0.00133664
0.00129302
0.00125859
0.00123167
0.00121071
0.00119443
0.00118176
0.00117185
0.00116406
0.00115803
0.00115353
0.00299734
0.00299455
0.00299173
0.00298889
0.00298603
0.00298312
0.00298015
0.00297708
0.00297393
0.00297061
0.00296717
0.00296357
0.00295978
0.00295579
0.00295163
0.00294728
0.00294274
0.002938
0.00293306
0.00292767
0.00292064
0.00291112
0.00289794
0.00286759
0.00281622
0.00274464
0.00259466
0.0023765
0.00224174
0.00212692
0.00136081
0.00138075
0.00139658
0.00138438
0.00134384
0.00129248
0.0012412
0.0011951
0.00115578
0.00112298
0.00109578
0.00107308
0.00105381
0.00103713
0.00102246
0.00100941
0.000997766
0.000987368
0.000978181
0.000970276
0.00299661
0.00299302
0.00298941
0.00298574
0.00298208
0.0029784
0.00297475
0.00297104
0.00296738
0.00296364
0.00295985
0.002956
0.00295208
0.00294806
0.00294393
0.00293966
0.00293526
0.0029307
0.00292594
0.00292119
0.00291618
0.00291034
0.00290266
0.00288929
0.00286514
0.00282486
0.00274562
0.00262284
0.00249242
0.00234931
0.00208265
0.00166761
0.00121193
0.00120549
0.00116993
0.00112744
0.00108672
0.00105055
0.00101927
0.00099234
0.000968977
0.000948472
0.000930276
0.000914032
0.000899523
0.000886535
0.00087499
0.000864868
0.000856089
0.000848589
0.00299658
0.00299295
0.0029893
0.00298558
0.00298184
0.00297804
0.00297423
0.00297031
0.00296639
0.00296235
0.00295822
0.002954
0.00294968
0.00294529
0.00294084
0.00293636
0.00293173
0.00292694
0.00292206
0.00291708
0.002912
0.00290663
0.00290048
0.002892
0.00287808
0.00285375
0.00280618
0.0027265
0.00262123
0.00248692
0.00227743
0.00196111
0.00145842
0.00111268
0.00107171
0.00103
0.000992419
0.000959817
0.000931905
0.000908116
0.000887733
0.000870185
0.000855099
0.00084216
0.000831193
0.000821992
0.000814309
0.000807963
0.000802782
0.000798609
0.00299602
0.00299176
0.0029875
0.00298321
0.00297883
0.00297444
0.00296995
0.00296545
0.0029609
0.00295628
0.00295158
0.00294685
0.00294203
0.0029372
0.00293221
0.002927
0.00292178
0.00291671
0.00291187
0.00290727
0.00290286
0.00289844
0.00289366
0.00288758
0.00287831
0.00286216
0.00283045
0.0027738
0.00268859
0.00256725
0.0023802
0.00209459
0.00166058
0.00117618
0.00101474
0.000970012
0.000933007
0.000902554
0.000877586
0.000857197
0.000840539
0.000826922
0.000815927
0.000807101
0.000800078
0.00079457
0.000790277
0.000786958
0.00078445
0.000782668
0.00299525
0.00299016
0.00298502
0.00297988
0.00297457
0.0029693
0.00296388
0.00295844
0.00295287
0.0029473
0.00294166
0.00293587
0.00292993
0.0029239
0.002918
0.00291233
0.00290699
0.00290212
0.00289776
0.00289386
0.00289038
0.00288713
0.00288369
0.0028794
0.00287288
0.00286131
0.00283818
0.00279466
0.00272299
0.00261199
0.00243668
0.00216522
0.00176344
0.00128829
0.00100323
0.000933405
0.00089615
0.000867409
0.000845198
0.000827976
0.000814584
0.000804089
0.000795896
0.000789431
0.000784244
0.00078011
0.000776906
0.000774645
0.000773495
0.000773739
0.00299387
0.00298727
0.00298064
0.00297393
0.00296719
0.00296035
0.00295345
0.00294657
0.00293948
0.00293234
0.00292517
0.0029179
0.00291079
0.00290404
0.00289767
0.00289185
0.00288691
0.00288287
0.00287967
0.00287725
0.00287536
0.00287366
0.00287178
0.00286911
0.00286452
0.00285582
0.00283759
0.00280157
0.00273813
0.00263361
0.00246394
0.00219863
0.001814
0.00136185
0.00103613
0.000916716
0.000874121
0.000846702
0.000826486
0.000811417
0.000800034
0.000791079
0.000783787
0.000777628
0.000772216
0.000767545
0.00076387
0.000761733
0.000761896
0.000765352
0.00299128
0.00298157
0.0029723
0.0029627
0.00295333
0.00294371
0.00293414
0.00292444
0.00291482
0.0029053
0.00289589
0.00288684
0.00287876
0.00287178
0.00286597
0.00286167
0.00285917
0.00285807
0.00285784
0.00285817
0.0028587
0.00285902
0.00285883
0.0028577
0.00285463
0.00284766
0.00283207
0.00280001
0.00274084
0.00263905
0.00247035
0.00220609
0.00183179
0.00140266
0.00107285
0.000921502
0.000865381
0.000836283
0.000816346
0.000802131
0.000791641
0.000783288
0.000775934
0.000769179
0.000762745
0.000756625
0.000751133
0.000747033
0.000745336
0.000747776
0.00298347
0.00296496
0.00294835
0.00293313
0.00291796
0.00290294
0.00288862
0.00287265
0.00285824
0.00284544
0.00283354
0.00282483
0.00282067
0.00281996
0.00282177
0.00282543
0.0028296
0.00283301
0.00283627
0.00283967
0.00284253
0.00284463
0.0028458
0.00284576
0.00284379
0.0028378
0.0028233
0.00279258
0.00273422
0.00263145
0.00245998
0.00219373
0.00182749
0.00142196
0.00110427
0.000937415
0.000866951
0.000833084
0.000812382
0.000798173
0.000787684
0.000779362
0.000771996
0.000765001
0.000758053
0.000751031
0.000744119
0.000737874
0.000733158
0.000731244
0.00292462
0.00289974
0.00287524
0.00285342
0.00283411
0.00281785
0.00280515
0.00279533
0.00278853
0.0027843
0.00278264
0.00278357
0.00278646
0.00279091
0.00279647
0.0028025
0.00280842
0.00281382
0.00281888
0.00282361
0.00282756
0.0028306
0.00283266
0.00283323
0.0028315
0.00282558
0.0028112
0.00278083
0.00271929
0.00261195
0.00243463
0.00216499
0.0018081
0.00142928
0.00113255
0.000961509
0.000878677
0.000837442
0.000813895
0.000798713
0.000787923
0.000779578
0.000772449
0.000765811
0.000759254
0.000752581
0.000745836
0.000739294
0.000733444
0.000728979
0.00283308
0.00281285
0.00279504
0.00278097
0.00277078
0.00276382
0.0027596
0.00275787
0.00275799
0.00275954
0.00276241
0.0027664
0.00277118
0.00277654
0.0027823
0.00278818
0.00279404
0.00279968
0.00280493
0.00280968
0.0028137
0.00281674
0.00281861
0.00281884
0.00281624
0.00280858
0.00279166
0.00275805
0.00269364
0.00258387
0.00239867
0.00212249
0.00177955
0.00143298
0.00116325
0.000995845
0.000903938
0.000853867
0.000824887
0.000806829
0.000794728
0.000786025
0.000779274
0.000773608
0.000768535
0.000763825
0.000759425
0.000755439
0.000752132
0.000749875
0.00276231
0.00275352
0.00274694
0.00274263
0.00274055
0.00274025
0.00274117
0.00274324
0.00274612
0.00274959
0.00275361
0.00275801
0.00276266
0.00276754
0.00277265
0.00277777
0.00278277
0.00278755
0.002792
0.00279592
0.00279908
0.00280119
0.00280173
0.00280001
0.00279466
0.00278304
0.00276074
0.00272051
0.00265038
0.00253709
0.00235545
0.00207564
0.00174796
0.00144058
0.001203
0.00104588
0.000949717
0.000891704
0.000855981
0.000833367
0.000818716
0.000809111
0.00080287
0.000798996
0.00079692
0.000796372
0.000797255
0.000799597
0.00080357
0.000809411
0.0027277
0.00272665
0.00272646
0.00272725
0.00272876
0.00273086
0.00273347
0.00273645
0.00273968
0.00274315
0.00274683
0.00275065
0.00275456
0.00275851
0.00276244
0.0027663
0.00276998
0.00277332
0.00277621
0.00277842
0.00277962
0.00277943
0.00277714
0.00277168
0.00276144
0.00274363
0.00271377
0.00266524
0.00258842
0.00247215
0.00229805
0.00203376
0.00171963
0.001459
0.00125868
0.00111897
0.00102592
0.000964848
0.000924871
0.000898928
0.000882599
0.000873156
0.000868913
0.000868843
0.00087233
0.000879037
0.000888795
0.00090155
0.000917337
0.000936218
0.00271378
0.00271526
0.00271696
0.00271888
0.00272094
0.00272319
0.00272557
0.00272799
0.00273047
0.00273303
0.0027356
0.00273813
0.00274064
0.00274309
0.00274538
0.0027474
0.00274908
0.00275026
0.0027507
0.00275013
0.00274814
0.00274417
0.00273738
0.00272652
0.00270971
0.0026843
0.0026463
0.00259025
0.00250893
0.00239381
0.00223217
0.00199679
0.00170136
0.00149408
0.0013359
0.00122157
0.00114143
0.00108643
0.0010497
0.00102645
0.00101342
0.00100845
0.00101012
0.00101747
0.00102984
0.0010468
0.00106801
0.00109321
0.00112213
0.00115452
0.0027007
0.00270193
0.0027031
0.00270424
0.00270534
0.00270641
0.00270742
0.00270839
0.00270933
0.00271021
0.00271097
0.00271159
0.00271201
0.00271218
0.00271203
0.00271145
0.00271027
0.00270828
0.0027052
0.00270067
0.00269423
0.00268521
0.0026727
0.00265547
0.00263178
0.00259931
0.00255497
0.00249488
0.0024142
0.00230706
0.00216469
0.00196415
0.00170234
0.00155083
0.00143813
0.00135633
0.00129887
0.00126028
0.00123643
0.00122425
0.00122152
0.00122664
0.00123845
0.00125609
0.00127884
0.0013061
0.00133733
0.00137198
0.0014095
0.00144925
0.00267313
0.00267268
0.002672
0.00267116
0.00267017
0.00266904
0.00266775
0.0026663
0.00266466
0.00266281
0.00266071
0.00265833
0.00265563
0.00265247
0.00264876
0.00264434
0.00263904
0.00263266
0.00262488
0.00261534
0.00260355
0.00258888
0.00257051
0.00254747
0.00251847
0.00248188
0.00243569
0.00237767
0.00230524
0.00221487
0.0020998
0.00193324
0.00173528
0.00163583
0.00156773
0.00152155
0.00149241
0.00147679
0.00147204
0.0014761
0.00148743
0.00150478
0.00152716
0.00155375
0.00158384
0.00161674
0.00165183
0.00168848
0.00172604
0.0017638
0.00441207
0.00433406
0.00425772
0.00418173
0.00410573
0.00402946
0.00395283
0.00387579
0.00379839
0.00372075
0.00364299
0.00356528
0.00348782
0.00341079
0.00333437
0.00325874
0.00318398
0.00311019
0.00303737
0.0029654
0.0028941
0.00282321
0.00275235
0.002681
0.00260852
0.0025341
0.00245685
0.00237611
0.0022918
0.00220437
0.00211166
0.00194034
0.00186301
0.00183817
0.00183968
0.00185959
0.00189394
0.00194013
0.00199627
0.00206089
0.00213291
0.00221144
0.00229581
0.00238546
0.00247993
0.00257879
0.00268161
0.0027879
0.0028969
0.00300721
2.38384e-05
2.36404e-05
2.3444e-05
2.325e-05
2.30595e-05
2.28708e-05
2.26843e-05
2.25e-05
2.2318e-05
2.2138e-05
2.196e-05
2.17837e-05
2.16091e-05
2.14361e-05
2.12647e-05
2.10951e-05
2.09275e-05
2.07621e-05
2.05992e-05
2.04389e-05
2.02676e-05
2.0047e-05
1.98466e-05
1.96574e-05
1.94767e-05
1.93033e-05
1.9137e-05
1.89776e-05
1.8825e-05
1.86785e-05
1.8537e-05
1.83995e-05
1.82651e-05
1.81334e-05
1.80037e-05
1.78758e-05
1.77497e-05
1.76253e-05
1.75025e-05
1.73816e-05
1.72628e-05
1.71454e-05
1.70301e-05
1.69174e-05
1.68074e-05
1.66982e-05
1.65868e-05
1.64715e-05
1.63598e-05
1.62692e-05
2.32481e-05
2.22223e-05
2.1255e-05
2.03432e-05
1.94901e-05
1.86955e-05
1.79552e-05
1.72651e-05
1.66211e-05
1.60189e-05
1.54549e-05
1.49255e-05
1.44276e-05
1.39584e-05
1.35157e-05
1.30974e-05
1.27021e-05
1.23288e-05
1.1977e-05
1.16444e-05
1.15703e-05
1.13624e-05
1.14147e-05
1.14362e-05
1.14401e-05
1.14345e-05
1.14233e-05
1.14076e-05
1.13871e-05
1.13617e-05
1.13321e-05
1.12996e-05
1.12653e-05
1.12304e-05
1.11951e-05
1.11597e-05
1.11237e-05
1.10866e-05
1.10483e-05
1.10084e-05
1.09665e-05
1.09239e-05
1.08805e-05
1.08369e-05
1.07937e-05
1.07511e-05
1.07043e-05
1.06366e-05
1.05221e-05
1.03532e-05
2.32431e-05
2.22058e-05
2.12234e-05
2.02964e-05
1.94245e-05
1.86056e-05
1.7837e-05
1.71153e-05
1.64374e-05
1.57998e-05
1.51994e-05
1.46332e-05
1.40985e-05
1.35929e-05
1.31141e-05
1.26602e-05
1.22296e-05
1.18209e-05
1.14335e-05
1.13488e-05
1.12611e-05
1.11712e-05
1.10827e-05
1.09954e-05
1.09097e-05
1.08261e-05
1.0745e-05
1.06666e-05
1.05907e-05
1.05171e-05
1.04456e-05
1.0376e-05
1.03078e-05
1.02409e-05
1.01749e-05
1.01096e-05
1.00449e-05
9.98041e-06
9.91611e-06
9.85193e-06
9.78792e-06
9.72406e-06
9.66031e-06
9.59682e-06
9.53467e-06
9.47787e-06
9.43465e-06
9.4121e-06
9.39543e-06
9.32327e-06
2.3243e-05
2.22125e-05
2.1238e-05
2.03185e-05
1.9453e-05
1.8639e-05
1.78737e-05
1.71538e-05
1.64764e-05
1.58384e-05
1.52368e-05
1.46688e-05
1.41319e-05
1.36237e-05
1.31422e-05
1.26854e-05
1.22517e-05
1.18397e-05
1.14488e-05
1.13599e-05
1.12685e-05
1.11752e-05
1.10808e-05
1.09862e-05
1.08921e-05
1.07992e-05
1.0708e-05
1.06189e-05
1.0532e-05
1.04474e-05
1.03649e-05
1.02843e-05
1.02052e-05
1.01272e-05
1.005e-05
9.97316e-06
9.89653e-06
9.81985e-06
9.74308e-06
9.6663e-06
9.58981e-06
9.51401e-06
9.4391e-06
9.36446e-06
9.28809e-06
9.20713e-06
9.12384e-06
9.0524e-06
9.00978e-06
8.9617e-06
2.3243e-05
2.22127e-05
2.12378e-05
2.03171e-05
1.94502e-05
1.86348e-05
1.78682e-05
1.71473e-05
1.64691e-05
1.58306e-05
1.52287e-05
1.46606e-05
1.41239e-05
1.3616e-05
1.31349e-05
1.26788e-05
1.22458e-05
1.18345e-05
1.14443e-05
1.13565e-05
1.12663e-05
1.11746e-05
1.10821e-05
1.09895e-05
1.08974e-05
1.08062e-05
1.07163e-05
1.06281e-05
1.05415e-05
1.04566e-05
1.03733e-05
1.02913e-05
1.02105e-05
1.01305e-05
1.00509e-05
9.97151e-06
9.89208e-06
9.8125e-06
9.73275e-06
9.6528e-06
9.57287e-06
9.49359e-06
9.41599e-06
9.34163e-06
9.27125e-06
9.20153e-06
9.12545e-06
9.04296e-06
8.97404e-06
8.91224e-06
2.3243e-05
2.22133e-05
2.12395e-05
2.03202e-05
1.94547e-05
1.86408e-05
1.78755e-05
1.71559e-05
1.64788e-05
1.58412e-05
1.524e-05
1.46726e-05
1.41364e-05
1.36289e-05
1.31482e-05
1.26923e-05
1.22596e-05
1.18484e-05
1.14583e-05
1.13698e-05
1.12788e-05
1.11857e-05
1.10913e-05
1.09965e-05
1.09019e-05
1.08082e-05
1.07161e-05
1.06258e-05
1.05375e-05
1.04514e-05
1.03673e-05
1.02849e-05
1.02038e-05
1.01238e-05
1.00443e-05
9.96514e-06
9.88597e-06
9.80671e-06
9.72737e-06
9.64794e-06
9.56837e-06
9.48863e-06
9.40881e-06
9.32995e-06
9.25485e-06
9.18607e-06
9.11968e-06
9.04739e-06
8.97713e-06
8.91153e-06
2.3243e-05
2.22133e-05
2.12397e-05
2.03204e-05
1.94548e-05
1.86406e-05
1.78749e-05
1.71547e-05
1.64771e-05
1.58389e-05
1.52372e-05
1.46694e-05
1.41329e-05
1.36253e-05
1.31445e-05
1.26887e-05
1.2256e-05
1.18451e-05
1.14552e-05
1.13674e-05
1.12769e-05
1.11843e-05
1.10902e-05
1.09955e-05
1.09009e-05
1.0807e-05
1.07146e-05
1.0624e-05
1.05354e-05
1.0449e-05
1.03646e-05
1.02819e-05
1.02006e-05
1.01204e-05
1.00409e-05
9.96168e-06
9.88251e-06
9.80324e-06
9.72393e-06
9.64484e-06
9.56625e-06
9.48831e-06
9.41083e-06
9.33293e-06
9.25522e-06
9.18122e-06
9.11306e-06
9.0448e-06
8.97661e-06
8.9104e-06
2.3243e-05
2.22133e-05
2.12398e-05
2.03207e-05
1.94552e-05
1.86411e-05
1.78755e-05
1.71555e-05
1.64781e-05
1.58401e-05
1.52387e-05
1.46712e-05
1.41351e-05
1.36279e-05
1.31475e-05
1.26921e-05
1.22599e-05
1.18494e-05
1.14599e-05
1.13721e-05
1.12818e-05
1.11893e-05
1.10955e-05
1.10011e-05
1.09068e-05
1.08133e-05
1.07211e-05
1.06307e-05
1.05422e-05
1.04557e-05
1.0371e-05
1.0288e-05
1.02063e-05
1.01255e-05
1.00454e-05
9.96564e-06
9.88597e-06
9.8062e-06
9.72626e-06
9.64635e-06
9.56683e-06
9.4883e-06
9.41141e-06
9.33564e-06
9.25985e-06
9.18478e-06
9.11371e-06
9.04509e-06
8.9775e-06
8.91113e-06
2.3243e-05
2.22132e-05
2.12397e-05
2.03205e-05
1.9455e-05
1.86407e-05
1.78749e-05
1.71547e-05
1.6477e-05
1.58388e-05
1.52373e-05
1.46696e-05
1.41334e-05
1.36262e-05
1.31459e-05
1.26906e-05
1.22586e-05
1.18482e-05
1.1459e-05
1.13717e-05
1.12823e-05
1.11912e-05
1.10993e-05
1.10071e-05
1.09154e-05
1.08243e-05
1.07344e-05
1.06458e-05
1.05585e-05
1.04727e-05
1.03883e-05
1.0305e-05
1.02227e-05
1.0141e-05
1.00598e-05
9.9787e-06
9.89775e-06
9.81685e-06
9.73596e-06
9.65514e-06
9.57455e-06
9.49455e-06
9.41594e-06
9.33952e-06
9.26452e-06
9.19007e-06
9.11775e-06
9.04786e-06
8.97964e-06
8.91264e-06
2.3243e-05
2.22132e-05
2.12397e-05
2.03203e-05
1.94547e-05
1.86402e-05
1.78743e-05
1.7154e-05
1.64761e-05
1.58379e-05
1.52363e-05
1.46687e-05
1.41326e-05
1.36256e-05
1.31456e-05
1.26907e-05
1.2259e-05
1.1849e-05
1.14601e-05
1.13731e-05
1.12839e-05
1.1193e-05
1.11013e-05
1.10094e-05
1.09177e-05
1.08268e-05
1.07369e-05
1.06483e-05
1.0561e-05
1.04751e-05
1.03906e-05
1.03071e-05
1.02246e-05
1.01428e-05
1.00613e-05
9.98003e-06
9.89879e-06
9.81766e-06
9.73671e-06
9.65603e-06
9.57588e-06
9.49624e-06
9.41745e-06
9.34052e-06
9.26565e-06
9.19208e-06
9.1199e-06
9.04952e-06
8.98075e-06
8.91311e-06
2.3243e-05
2.22132e-05
2.12395e-05
2.03201e-05
1.94542e-05
1.86396e-05
1.78735e-05
1.71529e-05
1.64749e-05
1.58365e-05
1.52348e-05
1.46672e-05
1.41312e-05
1.36243e-05
1.31446e-05
1.26899e-05
1.22585e-05
1.18488e-05
1.14601e-05
1.13733e-05
1.12842e-05
1.11932e-05
1.1101e-05
1.10084e-05
1.09158e-05
1.08237e-05
1.07327e-05
1.0643e-05
1.05548e-05
1.04682e-05
1.03831e-05
1.02995e-05
1.0217e-05
1.01353e-05
1.00542e-05
9.97349e-06
9.89286e-06
9.81236e-06
9.73207e-06
9.65207e-06
9.57277e-06
9.49426e-06
9.41647e-06
9.33997e-06
9.26531e-06
9.1923e-06
9.12064e-06
9.05034e-06
8.98124e-06
8.91302e-06
2.3243e-05
2.22131e-05
2.12393e-05
2.03197e-05
1.94536e-05
1.86387e-05
1.78724e-05
1.71515e-05
1.64733e-05
1.58347e-05
1.52329e-05
1.46652e-05
1.41292e-05
1.36224e-05
1.31427e-05
1.26882e-05
1.2257e-05
1.18476e-05
1.14592e-05
1.13727e-05
1.12838e-05
1.1193e-05
1.11009e-05
1.10083e-05
1.09156e-05
1.08233e-05
1.07319e-05
1.06418e-05
1.05532e-05
1.04662e-05
1.03808e-05
1.02967e-05
1.02138e-05
1.01317e-05
1.00504e-05
9.9694e-06
9.88866e-06
9.80809e-06
9.72784e-06
9.64802e-06
9.56883e-06
9.49077e-06
9.41376e-06
9.33789e-06
9.26356e-06
9.19079e-06
9.11937e-06
9.04914e-06
8.9798e-06
8.91108e-06
2.3243e-05
2.22131e-05
2.12392e-05
2.03193e-05
1.9453e-05
1.86379e-05
1.78713e-05
1.71503e-05
1.64719e-05
1.58333e-05
1.52315e-05
1.4664e-05
1.41281e-05
1.36216e-05
1.31423e-05
1.26881e-05
1.22573e-05
1.18482e-05
1.14601e-05
1.13737e-05
1.12849e-05
1.11942e-05
1.11022e-05
1.10095e-05
1.09168e-05
1.08244e-05
1.07328e-05
1.06424e-05
1.05535e-05
1.04661e-05
1.03802e-05
1.02956e-05
1.02122e-05
1.01297e-05
1.00478e-05
9.96637e-06
9.88534e-06
9.8046e-06
9.72424e-06
9.64448e-06
9.5654e-06
9.48745e-06
9.41083e-06
9.33551e-06
9.26161e-06
9.1891e-06
9.11782e-06
9.04759e-06
8.97804e-06
8.9088e-06
2.3243e-05
2.22129e-05
2.12388e-05
2.03186e-05
1.94518e-05
1.86362e-05
1.7869e-05
1.71475e-05
1.64686e-05
1.58295e-05
1.52273e-05
1.46594e-05
1.41233e-05
1.36166e-05
1.31372e-05
1.26831e-05
1.22523e-05
1.18434e-05
1.14555e-05
1.13696e-05
1.12812e-05
1.11909e-05
1.10992e-05
1.10069e-05
1.09143e-05
1.08221e-05
1.07307e-05
1.06404e-05
1.05514e-05
1.04638e-05
1.03776e-05
1.02928e-05
1.0209e-05
1.01262e-05
1.0044e-05
9.96219e-06
9.88088e-06
9.79996e-06
9.71964e-06
9.64003e-06
9.5613e-06
9.48369e-06
9.40747e-06
9.3327e-06
9.25928e-06
9.18715e-06
9.11612e-06
9.04591e-06
8.97618e-06
8.90653e-06
2.3243e-05
2.22128e-05
2.12384e-05
2.0318e-05
1.9451e-05
1.86354e-05
1.78683e-05
1.71469e-05
1.64683e-05
1.58295e-05
1.52277e-05
1.46601e-05
1.41244e-05
1.36181e-05
1.3139e-05
1.26851e-05
1.22547e-05
1.1846e-05
1.14583e-05
1.13721e-05
1.12835e-05
1.1193e-05
1.11013e-05
1.10089e-05
1.09163e-05
1.08241e-05
1.07327e-05
1.06423e-05
1.05532e-05
1.04654e-05
1.0379e-05
1.02937e-05
1.02094e-05
1.0126e-05
1.00432e-05
9.96089e-06
9.87924e-06
9.7981e-06
9.71756e-06
9.63796e-06
9.55946e-06
9.48222e-06
9.4064e-06
9.33207e-06
9.25912e-06
9.18741e-06
9.11667e-06
9.04662e-06
8.97691e-06
8.90712e-06
2.3243e-05
2.22122e-05
2.12367e-05
2.03148e-05
1.94461e-05
1.86286e-05
1.78598e-05
1.71368e-05
1.64568e-05
1.58168e-05
1.52141e-05
1.46459e-05
1.41097e-05
1.36031e-05
1.3124e-05
1.26703e-05
1.224e-05
1.18317e-05
1.14445e-05
1.13592e-05
1.12716e-05
1.11822e-05
1.10918e-05
1.10008e-05
1.09099e-05
1.08193e-05
1.07294e-05
1.06405e-05
1.05526e-05
1.04658e-05
1.038e-05
1.02951e-05
1.0211e-05
1.01277e-05
1.0045e-05
9.96268e-06
9.88089e-06
9.79993e-06
9.71969e-06
9.64056e-06
9.56268e-06
9.48624e-06
9.4114e-06
9.33812e-06
9.26639e-06
9.19597e-06
9.12653e-06
9.05785e-06
8.98965e-06
8.9216e-06
2.3243e-05
2.2212e-05
2.12368e-05
2.03158e-05
1.94483e-05
1.86321e-05
1.78643e-05
1.71422e-05
1.64628e-05
1.58232e-05
1.52206e-05
1.46524e-05
1.4116e-05
1.36092e-05
1.31296e-05
1.26755e-05
1.22448e-05
1.1836e-05
1.14483e-05
1.13624e-05
1.12743e-05
1.11845e-05
1.10936e-05
1.10023e-05
1.09111e-05
1.08206e-05
1.0731e-05
1.06426e-05
1.05555e-05
1.04698e-05
1.03855e-05
1.03023e-05
1.022e-05
1.01386e-05
1.00581e-05
9.97846e-06
9.89943e-06
9.82143e-06
9.74448e-06
9.66884e-06
9.59479e-06
9.52251e-06
9.45214e-06
9.38363e-06
9.31702e-06
9.25224e-06
9.18897e-06
9.12704e-06
9.06635e-06
9.00693e-06
2.32429e-05
2.22047e-05
2.12212e-05
2.02925e-05
1.94186e-05
1.85974e-05
1.78263e-05
1.71021e-05
1.64219e-05
1.57824e-05
1.51808e-05
1.46143e-05
1.40802e-05
1.35761e-05
1.30997e-05
1.26491e-05
1.22222e-05
1.18174e-05
1.1434e-05
1.13529e-05
1.12681e-05
1.11827e-05
1.10964e-05
1.10103e-05
1.09255e-05
1.08428e-05
1.07627e-05
1.06852e-05
1.061e-05
1.05368e-05
1.04656e-05
1.03962e-05
1.03286e-05
1.02623e-05
1.01972e-05
1.01335e-05
1.00707e-05
1.0009e-05
9.94857e-06
9.88937e-06
9.83181e-06
9.77609e-06
9.72246e-06
9.67107e-06
9.62187e-06
9.57504e-06
9.53049e-06
9.48831e-06
9.44879e-06
9.41271e-06
2.32459e-05
2.22163e-05
2.1247e-05
2.03339e-05
1.94809e-05
1.86851e-05
1.79423e-05
1.72488e-05
1.66011e-05
1.59957e-05
1.54294e-05
1.48993e-05
1.44024e-05
1.39362e-05
1.34981e-05
1.30859e-05
1.26976e-05
1.23318e-05
1.19874e-05
1.16614e-05
1.15721e-05
1.15588e-05
1.1541e-05
1.1521e-05
1.15012e-05
1.1483e-05
1.14662e-05
1.1449e-05
1.14301e-05
1.1409e-05
1.13856e-05
1.13604e-05
1.13341e-05
1.13072e-05
1.12795e-05
1.12512e-05
1.12225e-05
1.11929e-05
1.11631e-05
1.11328e-05
1.11027e-05
1.10727e-05
1.10435e-05
1.10154e-05
1.09886e-05
1.09634e-05
1.094e-05
1.0919e-05
1.09018e-05
1.08913e-05
2.38458e-05
2.36418e-05
2.34405e-05
2.32444e-05
2.30503e-05
2.28579e-05
2.2668e-05
2.24811e-05
2.22974e-05
2.21171e-05
2.19402e-05
2.17664e-05
2.15956e-05
2.14275e-05
2.1262e-05
2.10988e-05
2.09378e-05
2.0779e-05
2.06223e-05
2.04677e-05
2.03119e-05
2.00993e-05
1.99003e-05
1.97102e-05
1.9527e-05
1.93497e-05
1.91781e-05
1.90122e-05
1.88518e-05
1.86961e-05
1.85441e-05
1.83951e-05
1.82485e-05
1.81043e-05
1.79627e-05
1.78233e-05
1.76871e-05
1.75537e-05
1.74238e-05
1.72971e-05
1.7174e-05
1.7054e-05
1.69369e-05
1.68219e-05
1.67084e-05
1.65957e-05
1.64826e-05
1.63685e-05
1.62524e-05
1.61352e-05
6.61101e-06
5.1188e-06
3.76129e-06
3.05432e-06
2.73127e-06
2.56962e-06
2.46523e-06
2.38048e-06
2.30476e-06
2.23729e-06
2.17779e-06
2.12197e-06
2.05965e-06
1.97864e-06
1.8756e-06
1.76676e-06
1.68014e-06
1.61517e-06
1.58342e-06
1.57577e-06
6.59515e-06
5.07122e-06
3.73798e-06
3.04339e-06
2.73074e-06
2.57479e-06
2.47219e-06
2.38744e-06
2.3114e-06
2.24376e-06
2.18411e-06
2.12754e-06
2.06218e-06
1.97493e-06
1.86239e-06
1.74501e-06
1.65637e-06
1.59416e-06
1.56869e-06
1.58425e-06
6.55531e-06
5.04313e-06
3.71756e-06
3.03392e-06
2.73135e-06
2.58062e-06
2.47956e-06
2.39471e-06
2.31837e-06
2.25068e-06
2.19073e-06
2.133e-06
2.06409e-06
1.96942e-06
1.84625e-06
1.71983e-06
1.63587e-06
1.57558e-06
1.55471e-06
1.57955e-06
6.57967e-06
5.02346e-06
3.69663e-06
3.0249e-06
2.73255e-06
2.5867e-06
2.48689e-06
2.40194e-06
2.32511e-06
2.25734e-06
2.19724e-06
2.13797e-06
2.0646e-06
1.9612e-06
1.82587e-06
1.68832e-06
1.60869e-06
1.55833e-06
1.54213e-06
1.57466e-06
6.58806e-06
5.00506e-06
3.67714e-06
3.01742e-06
2.73487e-06
2.5933e-06
2.49451e-06
2.40945e-06
2.33211e-06
2.26395e-06
2.20333e-06
2.14205e-06
2.06334e-06
1.94996e-06
1.80082e-06
1.64897e-06
1.57451e-06
1.53587e-06
1.52958e-06
1.56999e-06
6.59122e-06
4.98868e-06
3.66035e-06
3.01212e-06
2.73841e-06
2.60055e-06
2.50246e-06
2.41714e-06
2.33954e-06
2.27091e-06
2.20944e-06
2.14593e-06
2.06135e-06
1.9368e-06
1.77182e-06
1.60124e-06
1.53065e-06
1.50511e-06
1.51542e-06
1.56607e-06
6.59371e-06
4.97416e-06
3.64727e-06
3.00986e-06
2.7437e-06
2.60889e-06
2.51132e-06
2.42544e-06
2.34742e-06
2.27826e-06
2.2157e-06
2.14949e-06
2.05886e-06
1.92302e-06
1.74096e-06
1.54655e-06
1.47737e-06
1.46552e-06
1.50109e-06
1.56355e-06
6.59716e-06
4.9626e-06
3.63928e-06
3.01138e-06
2.75105e-06
2.61833e-06
2.52105e-06
2.43469e-06
2.35601e-06
2.28644e-06
2.22304e-06
2.15382e-06
2.05689e-06
1.91012e-06
1.71151e-06
1.4897e-06
1.4047e-06
1.40546e-06
1.48643e-06
1.56178e-06
6.60087e-06
4.95475e-06
3.63763e-06
3.01745e-06
2.7609e-06
2.62919e-06
2.53186e-06
2.44518e-06
2.36583e-06
2.29582e-06
2.23165e-06
2.15973e-06
2.05724e-06
1.90099e-06
1.68834e-06
1.44233e-06
1.31803e-06
1.35937e-06
1.47581e-06
1.56097e-06
6.60791e-06
4.95205e-06
3.64112e-06
3.02661e-06
2.77252e-06
2.64131e-06
2.54375e-06
2.45683e-06
2.37727e-06
2.30694e-06
2.24201e-06
2.16797e-06
2.0612e-06
1.89863e-06
1.67797e-06
1.42744e-06
1.25326e-06
1.34721e-06
1.46728e-06
1.56088e-06
6.62058e-06
4.95576e-06
3.64871e-06
3.03782e-06
2.78548e-06
2.6549e-06
2.55721e-06
2.46992e-06
2.3904e-06
2.3199e-06
2.25453e-06
2.17959e-06
2.07106e-06
1.9068e-06
1.68515e-06
1.43761e-06
1.24665e-06
1.34291e-06
1.46135e-06
1.5614e-06
6.63874e-06
4.96564e-06
3.66054e-06
3.05139e-06
2.79988e-06
2.66977e-06
2.57228e-06
2.48484e-06
2.40541e-06
2.33491e-06
2.26962e-06
2.19518e-06
2.08737e-06
1.92462e-06
1.70543e-06
1.46254e-06
1.27416e-06
1.34287e-06
1.45809e-06
1.56201e-06
6.66263e-06
4.98195e-06
3.67674e-06
3.06764e-06
2.81644e-06
2.68651e-06
2.58916e-06
2.50179e-06
2.42223e-06
2.35194e-06
2.28738e-06
2.21514e-06
2.11066e-06
1.95193e-06
1.73651e-06
1.49601e-06
1.30827e-06
1.34882e-06
1.45667e-06
1.56104e-06
6.69266e-06
5.00517e-06
3.69746e-06
3.08642e-06
2.83471e-06
2.70506e-06
2.6079e-06
2.52076e-06
2.44101e-06
2.37095e-06
2.30761e-06
2.23897e-06
2.14061e-06
1.98882e-06
1.77859e-06
1.53877e-06
1.34776e-06
1.3561e-06
1.4553e-06
1.55811e-06
6.72955e-06
5.03605e-06
3.7232e-06
3.10849e-06
2.85497e-06
2.72512e-06
2.62832e-06
2.54159e-06
2.46191e-06
2.39199e-06
2.33034e-06
2.26634e-06
2.17654e-06
2.03489e-06
1.83204e-06
1.59185e-06
1.38925e-06
1.36369e-06
1.4517e-06
1.55317e-06
6.77351e-06
5.07459e-06
3.75352e-06
3.1332e-06
2.87736e-06
2.74687e-06
2.65036e-06
2.56409e-06
2.48474e-06
2.41501e-06
2.35533e-06
2.29693e-06
2.21788e-06
2.08985e-06
1.89751e-06
1.65789e-06
1.43793e-06
1.3723e-06
1.44549e-06
1.54609e-06
6.82461e-06
5.12008e-06
3.78865e-06
3.16029e-06
2.90125e-06
2.77016e-06
2.67409e-06
2.58847e-06
2.50952e-06
2.43989e-06
2.38206e-06
2.32985e-06
2.26345e-06
2.15292e-06
1.97535e-06
1.73825e-06
1.49818e-06
1.3802e-06
1.43745e-06
1.53661e-06
6.88301e-06
5.17145e-06
3.82766e-06
3.18987e-06
2.92656e-06
2.79483e-06
2.69949e-06
2.61473e-06
2.53628e-06
2.46668e-06
2.41001e-06
2.36366e-06
2.31092e-06
2.22201e-06
2.06561e-06
1.83594e-06
1.57792e-06
1.40746e-06
1.43109e-06
1.52473e-06
6.94817e-06
5.22907e-06
3.87038e-06
3.22191e-06
2.9536e-06
2.82096e-06
2.72638e-06
2.64273e-06
2.56492e-06
2.49545e-06
2.43888e-06
2.39693e-06
2.35732e-06
2.29315e-06
2.16668e-06
1.95543e-06
1.684e-06
1.45496e-06
1.42845e-06
1.51055e-06
7.01866e-06
5.29193e-06
3.91661e-06
3.2562e-06
2.98237e-06
2.8487e-06
2.75474e-06
2.67226e-06
2.59518e-06
2.52579e-06
2.46843e-06
2.42848e-06
2.39942e-06
2.36021e-06
2.2713e-06
2.09388e-06
1.82489e-06
1.5457e-06
1.43974e-06
1.4939e-06
7.09459e-06
5.35928e-06
3.96576e-06
3.29268e-06
3.01287e-06
2.87785e-06
2.78442e-06
2.70318e-06
2.62691e-06
2.55736e-06
2.49869e-06
2.45804e-06
2.43499e-06
2.41671e-06
2.36852e-06
2.24129e-06
2.00049e-06
1.6836e-06
1.48145e-06
1.47451e-06
7.17575e-06
5.43043e-06
4.01722e-06
3.33077e-06
3.04479e-06
2.90806e-06
2.815e-06
2.73505e-06
2.6598e-06
2.58996e-06
2.52992e-06
2.48663e-06
2.46444e-06
2.45907e-06
2.44665e-06
2.37958e-06
2.20116e-06
1.88649e-06
1.57003e-06
1.46719e-06
7.26154e-06
5.50445e-06
4.07065e-06
3.37019e-06
3.07775e-06
2.93909e-06
2.84618e-06
2.76732e-06
2.69329e-06
2.62337e-06
2.56213e-06
2.51552e-06
2.49049e-06
2.48929e-06
2.49989e-06
2.4862e-06
2.39018e-06
2.13758e-06
1.70645e-06
1.52034e-06
7.35071e-06
5.57981e-06
4.12492e-06
3.41055e-06
3.11141e-06
2.97083e-06
2.87789e-06
2.79978e-06
2.72688e-06
2.65727e-06
2.59491e-06
2.54509e-06
2.51578e-06
2.51289e-06
2.53332e-06
2.5546e-06
2.536e-06
2.42872e-06
2.1845e-06
1.88661e-06
7.44262e-06
5.65584e-06
4.17917e-06
3.45123e-06
3.14539e-06
3.00303e-06
2.91003e-06
2.83251e-06
2.76044e-06
2.69146e-06
2.62821e-06
2.57551e-06
2.54185e-06
2.53497e-06
2.55698e-06
2.59421e-06
2.61303e-06
2.5756e-06
2.46519e-06
2.30276e-06
7.53658e-06
5.73212e-06
4.23326e-06
3.492e-06
3.17957e-06
3.03542e-06
2.9423e-06
2.86545e-06
2.79375e-06
2.72536e-06
2.66177e-06
2.60663e-06
2.56878e-06
2.55741e-06
2.57798e-06
2.62336e-06
2.66348e-06
2.65544e-06
2.57108e-06
2.43163e-06
7.63167e-06
5.80764e-06
4.28688e-06
3.53273e-06
3.21415e-06
3.06801e-06
2.97466e-06
2.89863e-06
2.82697e-06
2.75857e-06
2.69503e-06
2.63829e-06
2.59674e-06
2.58071e-06
2.59838e-06
2.64842e-06
2.70478e-06
2.7197e-06
2.65317e-06