/*--------------------------------*- C++ -*----------------------------------*\
  =========                 |
  \\      /  F ield         | OpenFOAM: The Open Source CFD Toolbox
   \\    /   O peration     | Website:  https://openfoam.org
    \\  /    A nd           | Version:  8
     \\/     M anipulation  |
\*---------------------------------------------------------------------------*/
FoamFile
{
    version     2.0;
    format      ascii;
    class       volScalarField;
    location    "900";
    object      p;
}
// * * * * * * * * * * * * * * * * * * * * * * * * * * * * * * * * * * * * * //

dimensions      [1 -1 -2 0 0 0 0];

internalField   nonuniform List<scalar> 
8400
(
20738.5
32447.1
42322.5
50667.1
59002.9
68128.5
78196.9
89299.1
103117
123755
155570
201293
261757
334228
412009
486526
549803
597493
629698
649288
659939
665018
666969
667229
667131
667184
667764
668975
670739
673034
675571
677940
679934
681456
682485
683026
683116
682805
682140
681176
679969
678576
677044
675417
673743
672068
670427
668859
667425
666176
20916.6
32820.4
42376.7
49827.1
56987
65419.9
75053.1
84948.9
96645.4
115473
146574
192342
254631
330624
411914
488803
553050
601021
633686
653962
664998
669722
670565
668997
667530
666876
667217
668376
670030
672600
675634
678298
680405
681920
682873
683301
683262
682823
682042
680975
679680
678212
676615
674931
673204
671472
669766
668112
666532
665041
19586.6
32686.9
42989.9
51226.8
59318.5
68400.5
77941.4
86707.5
96680.7
113320
142650
186022
246909
326146
413054
492660
555702
601224
632779
653790
666147
671571
672040
669820
666741
665246
666074
667565
668461
671693
676179
679492
681795
683284
684093
684336
684111
683503
682580
681405
680029
678498
676853
675134
673378
671617
669888
668217
666604
665029
14755.1
30095.7
41703.7
49948.1
57829.7
66343.5
75271.6
84310.7
94560.5
111133
140860
185738
249059
327359
408275
478459
532103
571600
602550
628029
646367
658197
665169
666641
664053
665506
668352
665981
663672
669449
677594
681464
683835
685106
685567
685436
684857
683935
682745
681349
679793
678112
676341
674514
672662
670815
669004
667255
665561
663906
-14762.2
16442.8
40461.9
55353.4
68328.7
82104.7
97067.7
113858
134163
161073
197106
242005
294147
348675
398514
438779
469970
496774
524046
553801
585548
615215
637876
650847
656603
661655
664537
661147
664525
675834
681718
684041
686739
687598
687542
686926
685936
684679
683225
681623
679911
678113
676255
674362
672457
670566
668713
666915
665166
663452
3517.02
28548.1
54378.8
74108
90923.6
107214
123818
141445
161169
184317
211535
242334
275408
308697
340245
369617
398310
428422
460665
494059
527669
559694
587748
610232
627809
642969
655443
662891
669799
678549
683591
688297
690471
690391
689590
688379
686917
685287
683537
681699
679795
677844
675863
673870
671880
669914
667992
666127
664312
662541
2543.43
31255.9
59209.2
81163.7
99253.5
115543
131039
146688
163390
181971
202862
226079
251396
278435
306812
336407
367475
399741
432366
464517
495360
524361
551350
576559
600522
623588
644450
660440
671642
680082
685818
690600
692923
692850
691330
689581
687706
685761
683769
681743
679692
677629
675565
673510
671472
669463
667497
665588
663732
661925
13439.3
43613
71569.9
93733.6
111930
127990
142788
156974
171416
186905
203825
222349
242626
264845
289021
314641
340954
367710
395036
422979
451610
480950
510976
541586
572365
602320
629642
652045
668356
679222
686103
691131
693749
693906
692375
690302
688165
686007
683842
681675
679510
677356
675217
673098
671004
668943
666925
664965
663065
661225
18115.2
51020.1
78660.2
100386
118374
134127
148388
161670
174534
187452
200951
215496
231366
248565
267124
287214
308868
332172
357390
384718
414243
445910
479453
514291
549402
583351
614498
641144
661857
676120
684899
690451
693427
693790
692547
690507
688300
686057
683806
681558
679322
677108
674917
672753
670620
668525
666479
664495
662577
660729
24232.6
58735.6
85841
106919
124325
139377
152691
164761
176075
187031
198067
209642
222174
236035
251524
268922
288468
310410
335002
362430
392733
425727
460924
497491
534227
569712
602556
631407
654941
672131
683076
689489
692746
693297
692237
690405
688254
686022
683752
681465
679185
676926
674694
672494
670331
668211
666145
664144
662218
660369
27342.1
63219.2
89706.2
110178
127047
141449
153976
165147
175389
185106
194719
204683
215498
227688
241731
258031
276920
298671
323483
351428
382412
416111
451929
488982
526123
562049
595451
625100
649901
668826
681469
688867
692454
693148
692153
690410
688335
686113
683817
681494
679175
676876
674609
672379
670192
668055
665978
663970
662041
660194
31732
65997
91229.4
111191
127705
141693
153786
164510
174283
183524
192663
202162
212548
224379
238179
254396
273393
295435
320675
349108
380544
414570
450547
487610
524680
560513
593785
623302
648180
667579
681004
689074
692976
693786
692792
691012
688886
686590
684218
681824
679439
677079
674758
672484
670262
668100
666003
663979
662035
660176
31540.3
64773.8
89942.3
110060
126641
140644
152748
163490
173319
182663
191951
201646
212275
224398
238562
255256
274861
297621
323617
352743
384712
419047
455102
492064
528919
564438
597264
626161
650349
669203
682460
690658
694641
695437
694343
692426
690161
687718
685193
682653
680136
677664
675248
672894
670609
668395
666257
664197
662220
660327
29600.5
60434.9
85756.2
106495
123771
138502
151384
162949
173670
183986
194322
205133
216919
230195
245457
263145
283599
307030
333498
362890
394918
429131
464910
501468
537827
572788
604973
633090
656270
673956
686234
693972
697708
698253
696891
694684
692135
689428
686663
683907
681201
678566
676013
673544
671162
668867
666659
664539
662505
660554
27433.8
55464.6
80415.3
101770
120071
135951
150014
162759
174657
186155
197689
209718
222724
237186
253552
272231
293557
317738
344842
374763
407210
441692
477550
513957
549922
584305
615809
643156
665347
681759
692541
699117
702251
702294
700441
697743
694733
691622
688511
685462
682509
679668
676944
674335
671836
669440
667142
664936
662817
660780
26818.5
52770.3
76799.4
98027.7
116706
133229
148052
161643
174470
186974
199599
212801
227030
242727
260310
280147
302547
327735
355797
386642
419964
455200
491569
528141
563887
597737
628567
655204
676549
691804
701033
705987
708080
707393
704829
701453
697834
694206
690667
687263
684018
680939
678022
675258
672633
670130
667733
665427
663198
661035
26494.1
50858.6
73986.8
94911.9
113747
130724
146203
160608
174365
187903
201662
216086
231591
248576
267418
288459
311983
338211
367260
399065
433320
469411
506430
543286
578876
612197
642329
668270
688865
703081
710811
714026
714737
713116
709672
705489
701171
696962
692948
689152
685582
682235
679100
676161
673399
670786
668292
665885
663533
661213
26671.8
49920
72422.3
93139.4
112117
129511
145616
160794
175434
189954
204788
220359
237062
255271
275327
297532
322147
349376
379337
411987
447036
483864
521482
558637
594090
626858
656241
681463
701340
714546
720788
722359
721534
718825
714424
709425
704435
699682
695222
691052
687161
683537
680164
677031
674120
671397
668814
666315
663842
661345
26874.6
49209.3
71215.2
91725.5
110746
128387
144888
160571
175810
191016
206605
222981
240529
259616
280568
303668
329159
357214
387937
421295
457024
494525
532780
570419
606032
638602
667636
692649
712379
724946
729771
729915
727593
723565
718113
712339
706789
701616
696822
692375
688238
684389
680814
677511
674470
671658
669012
666447
663872
661206
27349.7
49199.5
70932.8
91307.2
110334
128100
144813
160779
176363
191960
207982
224835
242903
262556
284120
307872
334051
362820
394267
428362
464860
503166
542238
580609
616725
649498
678585
703728
723435
734866
737039
735408
732611
727523
721124
714685
708686
703191
698145
693488
689165
685141
681406
677963
674812
671920
669214
666585
663905
661026
688574
688573
688573
688573
688573
688574
688574
688574
688574
688575
688575
688575
688576
688576
688577
688577
688578
688578
688579
688579
688580
688581
688581
688582
688583
688584
688584
688585
688586
688587
688588
688589
688590
688591
688592
688593
688594
688595
688596
688597
688598
688599
688600
688602
688603
688604
688605
688607
688608
688609
688475
688475
688476
688476
688476
688476
688476
688476
688477
688477
688477
688478
688478
688479
688479
688480
688480
688481
688481
688482
688482
688483
688484
688484
688485
688486
688487
688488
688489
688490
688490
688491
688492
688493
688494
688495
688496
688497
688498
688500
688501
688502
688503
688504
688505
688506
688508
688509
688510
688512
688378
688378
688378
688378
688378
688378
688379
688379
688379
688380
688380
688380
688381
688381
688382
688382
688383
688383
688384
688384
688385
688385
688386
688387
688388
688388
688389
688390
688391
688392
688393
688394
688395
688396
688397
688398
688399
688400
688401
688402
688403
688404
688405
688406
688408
688409
688410
688411
688413
688414
688280
688280
688280
688281
688281
688281
688281
688281
688282
688282
688282
688283
688283
688283
688284
688284
688285
688285
688286
688287
688287
688288
688289
688289
688290
688291
688292
688293
688293
688294
688295
688296
688297
688298
688299
688300
688301
688302
688303
688304
688305
688307
688308
688309
688310
688311
688313
688314
688315
688317
688183
688183
688183
688183
688183
688183
688183
688184
688184
688184
688185
688185
688185
688186
688186
688187
688187
688188
688188
688189
688190
688190
688191
688192
688192
688193
688194
688195
688196
688197
688198
688199
688200
688201
688202
688203
688204
688205
688206
688207
688208
688209
688210
688211
688212
688214
688215
688216
688218
688219
688085
688085
688085
688085
688085
688086
688086
688086
688086
688087
688087
688087
688088
688088
688089
688089
688090
688090
688091
688091
688092
688093
688093
688094
688095
688096
688097
688097
688098
688099
688100
688101
688102
688103
688104
688105
688106
688107
688108
688109
688110
688111
688113
688114
688115
688116
688117
688119
688120
688122
687988
687988
687988
687988
687988
687988
687988
687989
687989
687989
687989
687990
687990
687991
687991
687992
687992
687993
687993
687994
687994
687995
687996
687997
687997
687998
687999
688000
688001
688002
688003
688004
688004
688005
688006
688007
688009
688010
688011
688012
688013
688014
688015
688016
688017
688019
688020
688021
688023
688024
687890
687890
687890
687890
687890
687890
687891
687891
687891
687892
687892
687892
687893
687893
687894
687894
687895
687895
687896
687896
687897
687897
687898
687899
687900
687900
687901
687902
687903
687904
687905
687906
687907
687908
687909
687910
687911
687912
687913
687914
687915
687916
687917
687919
687920
687921
687922
687924
687925
687927
687792
687792
687793
687793
687793
687793
687793
687793
687794
687794
687794
687795
687795
687795
687796
687796
687797
687797
687798
687799
687799
687800
687801
687801
687802
687803
687804
687805
687806
687806
687807
687808
687809
687810
687811
687812
687813
687814
687815
687817
687818
687819
687820
687821
687822
687824
687825
687826
687828
687829
687695
687695
687695
687695
687695
687695
687696
687696
687696
687696
687697
687697
687697
687698
687698
687699
687699
687700
687700
687701
687702
687702
687703
687704
687705
687705
687706
687707
687708
687709
687710
687711
687712
687713
687714
687715
687716
687717
687718
687719
687720
687721
687722
687724
687725
687726
687727
687729
687730
687732
687597
687597
687597
687597
687598
687598
687598
687598
687598
687599
687599
687599
687600
687600
687601
687601
687602
687602
687603
687603
687604
687605
687605
687606
687607
687608
687609
687609
687610
687611
687612
687613
687614
687615
687616
687617
687618
687619
687620
687621
687622
687624
687625
687626
687627
687629
687630
687631
687633
687634
687500
687500
687500
687500
687500
687500
687500
687501
687501
687501
687501
687502
687502
687503
687503
687504
687504
687505
687505
687506
687506
687507
687508
687509
687509
687510
687511
687512
687513
687514
687515
687516
687517
687518
687519
687520
687521
687522
687523
687524
687525
687526
687527
687528
687530
687531
687532
687534
687535
687537
687402
687402
687402
687402
687402
687403
687403
687403
687403
687404
687404
687404
687405
687405
687406
687406
687407
687407
687408
687408
687409
687410
687410
687411
687412
687413
687413
687414
687415
687416
687417
687418
687419
687420
687421
687422
687423
687424
687425
687426
687427
687429
687430
687431
687432
687433
687435
687436
687438
687439
687305
687305
687305
687305
687305
687305
687305
687305
687306
687306
687306
687307
687307
687307
687308
687308
687309
687309
687310
687311
687311
687312
687313
687313
687314
687315
687316
687317
687318
687319
687319
687320
687321
687322
687323
687324
687326
687327
687328
687329
687330
687331
687332
687333
687335
687336
687337
687339
687340
687342
687207
687207
687207
687207
687207
687207
687208
687208
687208
687208
687209
687209
687209
687210
687210
687211
687211
687212
687212
687213
687214
687214
687215
687216
687217
687217
687218
687219
687220
687221
687222
687223
687224
687225
687226
687227
687228
687229
687230
687231
687232
687233
687235
687236
687237
687238
687240
687241
687243
687244
687109
687109
687110
687110
687110
687110
687110
687110
687111
687111
687111
687111
687112
687112
687113
687113
687114
687114
687115
687115
687116
687117
687117
687118
687119
687120
687121
687122
687122
687123
687124
687125
687126
687127
687128
687129
687130
687131
687133
687134
687135
687136
687137
687138
687140
687141
687142
687144
687145
687147
687012
687012
687012
687012
687012
687012
687012
687013
687013
687013
687014
687014
687014
687015
687015
687016
687016
687017
687017
687018
687019
687019
687020
687021
687021
687022
687023
687024
687025
687026
687027
687028
687029
687030
687031
687032
687033
687034
687035
687036
687037
687038
687040
687041
687042
687043
687045
687046
687048
687049
686914
686914
686914
686915
686915
686915
686915
686915
686915
686916
686916
686916
686917
686917
686918
686918
686919
686919
686920
686920
686921
686922
686922
686923
686924
686925
686926
686926
686927
686928
686929
686930
686931
686932
686933
686934
686935
686936
686937
686939
686940
686941
686942
686943
686945
686946
686947
686949
686950
686951
686817
686817
686817
686817
686817
686817
686817
686818
686818
686818
686818
686819
686819
686820
686820
686820
686821
686822
686822
686823
686823
686824
686825
686826
686826
686827
686828
686829
686830
686831
686832
686833
686834
686835
686836
686837
686838
686839
686840
686841
686842
686843
686844
686846
686847
686848
686850
686851
686853
686854
686720
686719
686719
686719
686719
686720
686720
686720
686720
686721
686721
686721
686722
686722
686722
686723
686723
686724
686725
686725
686726
686726
686727
686728
686729
686730
686730
686731
686732
686733
686734
686735
686736
686737
686738
686739
686740
686741
686742
686743
686745
686746
686747
686748
686749
686751
686752
686754
686755
686756
698502
698501
698501
698500
698499
698499
698498
698498
698498
698497
698497
698497
698497
698498
698498
698498
698498
698498
698497
698497
698406
698404
698402
698401
698399
698398
698396
698395
698393
698392
698391
698390
698389
698388
698387
698387
698386
698385
698383
698382
698309
698307
698304
698302
698299
698297
698294
698292
698289
698287
698285
698283
698281
698279
698277
698275
698273
698271
698269
698267
698213
698210
698206
698203
698199
698196
698192
698189
698186
698182
698179
698176
698173
698170
698166
698164
698161
698158
698155
698152
698117
698113
698108
698104
698099
698095
698090
698086
698082
698077
698073
698069
698065
698060
698056
698052
698049
698045
698041
698037
698021
698016
698010
698005
698000
697994
697989
697983
697978
697973
697967
697962
697957
697952
697946
697941
697936
697932
697927
697922
697925
697919
697913
697906
697900
697893
697887
697881
697874
697868
697862
697855
697849
697843
697837
697831
697825
697819
697814
697808
697829
697822
697815
697807
697800
697793
697785
697778
697770
697763
697756
697749
697741
697734
697727
697720
697713
697706
697700
697693
697733
697725
697717
697709
697700
697692
697683
697675
697667
697658
697650
697642
697634
697625
697617
697610
697602
697594
697587
697579
697638
697628
697619
697610
697600
697591
697582
697572
697563
697554
697544
697535
697526
697517
697508
697499
697491
697482
697473
697464
697542
697532
697521
697511
697501
697490
697480
697470
697459
697449
697439
697428
697418
697408
697398
697388
697379
697369
697359
697349
697446
697435
697424
697412
697401
697390
697378
697367
697356
697344
697333
697321
697310
697298
697287
697277
697266
697256
697245
697234
697350
697338
697326
697314
697301
697289
697277
697264
697252
697240
697227
697215
697202
697189
697177
697165
697153
697142
697131
697119
697255
697242
697228
697215
697202
697189
697175
697162
697149
697135
697122
697108
697094
697080
697066
697053
697041
697028
697016
697003
697159
697145
697131
697117
697103
697088
697074
697060
697045
697031
697016
697002
696987
696971
696957
696942
696928
696915
696902
696888
697063
697049
697033
697018
697003
696988
696973
696958
696942
696927
696911
696895
696879
696863
696847
696831
696816
696802
696788
696773
696968
696952
696936
696920
696904
696888
696872
696855
696839
696823
696806
696790
696773
696756
696738
696722
696705
696690
696674
696659
696873
696856
696839
696822
696805
696788
696771
696754
696736
696719
696702
696684
696666
696648
696630
696613
696595
696578
696562
696546
696777
696760
696742
696724
696706
696688
696670
696652
696634
696616
696597
696579
696560
696542
696523
696504
696486
696468
696450
696433
696682
696664
696645
696626
696607
696588
696569
696550
696531
696512
696493
696474
696455
696435
696416
696396
696376
696357
696339
696321
696587
696568
696548
696528
696508
696489
696469
696449
696429
696409
696389
696369
696349
696329
696309
696289
696268
696248
696228
696209
696493
696472
696451
696431
696410
696389
696369
696348
696327
696306
696286
696265
696244
696223
696202
696181
696160
696139
696118
696098
696398
696377
696355
696334
696312
696290
696269
696247
696225
696204
696182
696161
696139
696117
696096
696074
696053
696031
696009
695988
696304
696282
696259
696237
696214
696191
696169
696146
696124
696101
696079
696056
696034
696011
695989
695967
695944
695922
695899
695877
696210
696187
696163
696140
696116
696093
696069
696046
696023
695999
695976
695952
695929
695906
695882
695859
695836
695813
695789
695766
696117
696092
696068
696043
696019
695995
695970
695946
695921
695897
695873
695849
695824
695800
695776
695752
695728
695703
695679
695655
696023
695998
695973
695947
695922
695897
695871
695846
695821
695795
695770
695745
695720
695695
695669
695644
695619
695594
695569
695544
695930
695904
695878
695851
695825
695799
695773
695746
695720
695694
695668
695642
695616
695589
695563
695537
695511
695485
695459
695433
695837
695810
695783
695756
695729
695701
695674
695647
695620
695593
695566
695539
695512
695485
695458
695431
695404
695376
695349
695322
695745
695717
695689
695661
695632
695604
695576
695548
695520
695492
695464
695436
695408
695380
695352
695324
695296
695268
695240
695212
695653
695624
695595
695566
695537
695507
695478
695449
695420
695391
695363
695334
695305
695276
695247
695218
695189
695160
695131
695102
695561
695531
695501
695471
695441
695411
695381
695351
695321
695291
695261
695232
695202
695172
695142
695112
695082
695052
695023
694993
695469
695438
695407
695377
695346
695315
695284
695253
695222
695192
695161
695130
695099
695068
695038
695007
694976
694945
694914
694884
695378
695346
695314
695283
695251
695219
695187
695156
695124
695092
695060
695029
694997
694965
694934
694902
694870
694838
694807
694775
695287
695254
695222
695189
695156
695124
695091
695058
695026
694993
694960
694928
694895
694862
694830
694797
694765
694732
694699
694667
695196
695163
695129
695096
695062
695028
694995
694961
694928
694894
694861
694827
694794
694760
694727
694693
694660
694626
694592
694559
695106
695072
695037
695003
694968
694934
694899
694865
694830
694796
694761
694727
694693
694658
694624
694589
694555
694520
694486
694452
695016
694981
694945
694910
694875
694839
694804
694769
694733
694698
694663
694627
694592
694557
694521
694486
694451
694415
694380
694345
694927
694890
694854
694818
694782
694745
694709
694673
694637
694601
694564
694528
694492
694456
694419
694383
694347
694311
694274
694238
694838
694801
694763
694726
694689
694652
694615
694578
694541
694504
694466
694429
694392
694355
694318
694281
694244
694206
694169
694132
694749
694711
694673
694635
694597
694559
694521
694483
694445
694407
694369
694331
694293
694255
694217
694179
694141
694103
694065
694027
694661
694622
694583
694544
694505
694466
694427
694389
694350
694311
694272
694233
694194
694155
694116
694077
694038
693999
693960
693922
694573
694533
694493
694454
694414
694374
694334
694295
694255
694215
694175
694135
694096
694056
694016
693976
693936
693897
693857
693817
694486
694445
694404
694364
694323
694282
694242
694201
694160
694120
694079
694038
693998
693957
693916
693876
693835
693794
693753
693713
694399
694357
694316
694274
694233
694191
694149
694108
694066
694025
693983
693942
693900
693858
693817
693775
693734
693692
693651
693609
694312
694270
694227
694185
694142
694100
694058
694015
693973
693930
693888
693845
693803
693761
693718
693676
693633
693591
693548
693506
694226
694183
694139
694096
694053
694010
693966
693923
693880
693836
693793
693750
693706
693663
693620
693576
693533
693490
693447
693403
694140
694096
694052
694008
693964
693920
693875
693831
693787
693743
693699
693654
693610
693566
693522
693478
693434
693390
693345
693301
694055
694010
693965
693920
693875
693830
693785
693740
693695
693650
693605
693560
693515
693470
693425
693380
693335
693290
693245
693200
693970
693924
693879
693833
693787
693741
693695
693649
693603
693557
693511
693465
693420
693374
693328
693282
693236
693190
693144
693098
693886
693839
693792
693746
693699
693652
693605
693559
693512
693465
693418
693372
693325
693278
693232
693185
693138
693091
693045
692998
693802
693754
693707
693659
693612
693564
693516
693469
693421
693374
693326
693278
693231
693183
693136
693088
693041
692993
692945
692898
693718
693670
693621
693573
693525
693476
693428
693379
693331
693283
693234
693186
693137
693089
693041
692992
692944
692895
692847
692799
693635
693586
693537
693488
693438
693389
693340
693291
693241
693192
693143
693094
693044
692995
692946
692897
692847
692798
692749
692700
693553
693503
693452
693402
693352
693302
693252
693202
693152
693102
693052
693002
692952
692902
692852
692802
692752
692701
692651
692601
693470
693420
693369
693318
693267
693216
693165
693114
693063
693013
692962
692911
692860
692809
692758
692707
692656
692605
692554
692504
693389
693337
693285
693234
693182
693130
693079
693027
692975
692924
692872
692820
692768
692717
692665
692613
692562
692510
692458
692406
693308
693255
693203
693150
693098
693045
692993
692940
692888
692835
692783
692730
692678
692625
692573
692520
692467
692415
692362
692310
693227
693174
693120
693067
693014
692960
692907
692854
692800
692747
692694
692641
692587
692534
692481
692427
692374
692321
692267
692214
693147
693093
693039
692985
692930
692876
692822
692768
692714
692660
692606
692551
692497
692443
692389
692335
692281
692227
692173
692118
693067
693012
692957
692902
692848
692793
692738
692683
692628
692573
692518
692463
692408
692353
692298
692243
692188
692133
692078
692024
692988
692932
692877
692821
692765
692709
692654
692598
692542
692487
692431
692375
692319
692264
692208
692152
692096
692041
691985
691929
692910
692853
692797
692740
692683
692627
692570
692514
692457
692401
692344
692288
692231
692175
692118
692062
692005
691949
691892
691836
692831
692774
692717
692660
692602
692545
692488
692430
692373
692316
692258
692201
692144
692086
692029
691972
691914
691857
691800
691742
692754
692696
692638
692580
692521
692463
692405
692347
692289
692231
692173
692115
692057
691999
691941
691882
691824
691766
691708
691650
692677
692618
692559
692500
692441
692382
692324
692265
692206
692147
692088
692029
691970
691911
691853
691794
691735
691676
691617
691558
692600
692541
692481
692421
692362
692302
692242
692183
692123
692064
692004
691944
691885
691825
691765
691706
691646
691586
691527
691467
692524
692464
692404
692343
692283
692222
692162
692102
692041
691981
691920
691860
691799
691739
691679
691618
691558
691497
691437
691376
692449
692388
692327
692266
692204
692143
692082
692021
691960
691898
691837
691776
691715
691654
691592
691531
691470
691409
691348
691287
692374
692312
692250
692188
692126
692065
692003
691941
691879
691817
691755
691693
691631
691569
691507
691445
691383
691321
691259
691197
692300
692237
692175
692112
692049
691987
691924
691861
691798
691736
691673
691610
691548
691485
691422
691360
691297
691234
691172
691109
692226
692163
692099
692036
691972
691909
691846
691782
691719
691655
691592
691528
691465
691402
691338
691275
691211
691148
691085
691021
692153
692089
692025
691961
691896
691832
691768
691704
691640
691576
691511
691447
691383
691319
691255
691191
691127
691062
690998
690934
692080
692015
691951
691886
691821
691756
691691
691626
691561
691496
691432
691367
691302
691237
691172
691107
691042
690977
690913
690848
692008
691943
691877
691811
691746
691680
691615
691549
691483
691418
691352
691287
691221
691156
691090
691024
690959
690893
690828
690762
691937
691870
691804
691738
691671
691605
691539
691473
691406
691340
691274
691207
691141
691075
691009
690942
690876
690810
690743
690677
691866
691799
691732
691665
691598
691531
691464
691397
691330
691263
691196
691129
691062
690995
690928
690861
690794
690727
690660
690593
691795
691728
691660
691592
691524
691457
691389
691321
691254
691186
691118
691051
690983
690915
690848
690780
690712
690645
690577
690509
691725
691657
691589
691520
691452
691384
691315
691247
691178
691110
691042
690973
690905
690837
690768
690700
690632
690563
690495
690427
691656
691587
691518
691449
691380
691311
691242
691173
691104
691035
690966
690897
690828
690759
690690
690621
690551
690482
690413
690344
691587
691518
691448
691378
691309
691239
691169
691099
691030
690960
690890
690821
690751
690681
690612
690542
690472
690402
690333
690263
691519
691449
691379
691308
691238
691167
691097
691027
690956
690886
690816
690745
690675
690605
690534
690464
690393
690323
690253
690182
691452
691381
691310
691239
691168
691097
691026
690955
690884
690813
690742
690671
690600
690529
690458
690387
690315
690244
690173
690102
691385
691313
691242
691170
691098
691027
690955
690883
690812
690740
690668
690597
690525
690453
690382
690310
690238
690167
690095
690023
691319
691246
691174
691102
691030
690957
690885
690813
690740
690668
690596
690523
690451
690379
690306
690234
690162
690089
690017
689945
691253
691180
691107
691034
690961
690889
690816
690743
690670
690597
690524
690451
690378
690305
690232
690159
690086
690013
689940
689867
691188
691115
691041
690968
690894
690820
690747
690673
690600
690526
690453
690379
690305
690232
690158
690085
690011
689937
689864
689790
691124
691050
690976
690902
690827
690753
690679
690605
690531
690456
690382
690308
690234
690160
690085
690011
689937
689863
689788
689714
691060
690986
690911
690836
690761
690686
690612
690537
690462
690387
690312
690238
690163
690088
690013
689938
689863
689789
689714
689639
690998
690922
690847
690771
690696
690621
690545
690470
690394
690319
690244
690168
690093
690017
689942
689866
689791
689715
689640
689564
690936
690860
690783
690707
690631
690555
690479
690403
690327
690251
690175
690099
690023
689947
689871
689795
689719
689643
689567
689491
690874
690798
690721
690644
690568
690491
690414
690338
690261
690185
690108
690031
689955
689878
689801
689725
689648
689571
689495
689418
690813
690736
690659
690582
690504
690427
690350
690273
690196
690118
690041
689964
689887
689810
689732
689655
689578
689501
689423
689346
690753
690676
690598
690520
690442
690364
690287
690209
690131
690053
689975
689898
689820
689742
689664
689586
689508
689431
689353
689275
690694
690616
690537
690459
690381
690302
690224
690145
690067
689989
689910
689832
689753
689675
689597
689518
689440
689361
689283
689204
690636
690557
690478
690399
690320
690241
690162
690083
690004
689925
689846
689767
689688
689609
689530
689451
689372
689293
689214
689135
690578
690498
690419
690339
690260
690180
690101
690021
689941
689862
689782
689703
689623
689544
689464
689385
689305
689225
689146
689066
690521
690441
690360
690280
690200
690120
690040
689960
689880
689800
689720
689640
689559
689479
689399
689319
689239
689159
689079
688999
690464
690384
690303
690222
690142
690061
689980
689900
689819
689738
689658
689577
689496
689416
689335
689254
689174
689093
689012
688932
690408
690327
690246
690165
690084
690002
689921
689840
689759
689678
689596
689515
689434
689353
689272
689190
689109
689028
688947
688866
690353
690272
690190
690108
690026
689945
689863
689781
689700
689618
689536
689454
689373
689291
689209
689127
689046
688964
688882
688800
690299
690217
690135
690052
689970
689888
689806
689723
689641
689559
689477
689394
689312
689230
689147
689065
688983
688901
688818
688736
690245
690163
690080
689997
689914
689832
689749
689666
689583
689501
689418
689335
689252
689169
689087
689004
688921
688838
688755
688673
690193
690109
690026
689943
689860
689776
689693
689610
689527
689443
689360
689277
689193
689110
689027
688943
688860
688777
688694
688610
690141
690057
689973
689889
689806
689722
689638
689554
689470
689387
689303
689219
689135
689052
688968
688884
688800
688716
688633
688549
690089
690005
689921
689837
689752
689668
689584
689500
689415
689331
689247
689162
689078
688994
688910
688825
688741
688657
688572
688488
690039
689954
689869
689785
689700
689615
689530
689446
689361
689276
689191
689107
689022
688937
688852
688768
688683
688598
688513
688429
689989
689904
689819
689733
689648
689563
689478
689393
689307
689222
689137
689052
688966
688881
688796
688711
688626
688540
688455
688370
689940
689854
689769
689683
689597
689512
689426
689340
689255
689169
689083
688998
688912
688826
688741