/*--------------------------------*- C++ -*----------------------------------*\
  =========                 |
  \\      /  F ield         | OpenFOAM: The Open Source CFD Toolbox
   \\    /   O peration     | Website:  https://openfoam.org
    \\  /    A nd           | Version:  8
     \\/     M anipulation  |
\*---------------------------------------------------------------------------*/
FoamFile
{
    version     2.0;
    format      ascii;
    class       surfaceScalarField;
    location    "900";
    object      phi;
}
// * * * * * * * * * * * * * * * * * * * * * * * * * * * * * * * * * * * * * //

dimensions      [1 0 -1 0 0 0 0];

internalField   nonuniform List<scalar> 
16360
(
-3.34742
-0.0214747
-3.33448
-0.0129363
-3.33145
-0.00298666
-3.33524
0.00384093
-3.3412
0.00596695
-3.34367
0.00237393
-3.33829
-0.00545847
-3.3236
-0.0147213
-3.29789
-0.0257227
-3.25553
-0.0423476
-3.18791
-0.0676056
-3.08606
-0.101748
-2.93867
-0.147344
-2.73548
-0.203176
-2.47646
-0.258981
-2.17383
-0.302642
-1.85095
-0.322938
-1.53459
-0.316424
-1.24558
-0.289039
-0.994336
-0.251195
-0.784276
-0.209962
-0.618323
-0.165821
-0.503074
-0.11512
-0.449371
-0.0536719
-0.438885
-0.0105508
-0.447662
0.00879003
-0.457177
0.0095986
-0.460775
0.00375115
-0.461419
0.000573784
-0.459229
-0.00230501
-0.456398
-0.00278973
-0.458334
0.00196937
-0.467018
0.00884677
-0.482639
0.0156486
-0.503859
0.0212798
-0.529322
0.0253989
-0.557494
0.0280689
-0.586996
0.0294774
-0.616849
0.0298634
-0.646308
0.0295164
-0.674906
0.0286052
-0.702234
0.027312
-0.727999
0.0257867
-0.752099
0.0240793
-0.774395
0.022236
-0.794723
0.0203039
-0.812937
0.0182607
-0.828932
0.0160455
-0.842498
0.0135883
0.0104446
-0.852939
-2.29215
-0.0644027
-2.23639
-0.0684898
-2.17202
-0.0675011
-2.09522
-0.0732185
-2.00668
-0.0826157
-1.90813
-0.0960171
-1.80346
-0.110077
-1.70454
-0.113686
-1.62919
-0.101113
-1.58025
-0.0912668
-1.53795
-0.110027
-1.48822
-0.151423
-1.40896
-0.226582
-1.27961
-0.332713
-1.10763
-0.431129
-0.916686
-0.493615
-0.732387
-0.507187
-0.57511
-0.473661
-0.458694
-0.405449
-0.388132
-0.321799
-0.359817
-0.238398
-0.359653
-0.166193
-0.362868
-0.11209
-0.390433
-0.0263912
-0.430076
0.0286264
-0.464162
0.0425323
-0.482286
0.0276807
-0.484069
0.00560437
-0.486234
0.00275014
-0.483367
-0.00522802
-0.475392
-0.0107392
-0.474322
0.000873249
-0.48218
0.0167078
-0.498263
0.0315567
-0.520479
0.0434578
-0.546973
0.0518414
-0.576024
0.0570113
-0.606166
0.0595725
-0.63635
0.0601234
-0.665949
0.0591478
-0.694488
0.0571154
-0.721609
0.0544244
-0.747138
0.0512935
-0.770992
0.0478694
-0.793055
0.0442865
-0.813277
0.0405872
-0.831663
0.0367262
-0.848205
0.0326248
-0.862786
0.0281536
0.0230235
-0.875375
0.310751
-0.114827
0.320016
-0.0777573
0.324747
-0.0720821
0.311231
-0.0595582
0.275547
-0.0468779
0.215535
-0.0355658
0.133103
-0.0275334
0.0555051
-0.0362083
0.0340812
-0.0798174
0.0939291
-0.151033
0.207226
-0.224266
0.377107
-0.321345
0.556975
-0.406126
0.687219
-0.463015
0.752945
-0.496831
0.767036
-0.507614
0.745692
-0.485786
0.698028
-0.425999
0.626283
-0.333777
0.528299
-0.223891
0.394036
-0.104141
0.210658
0.0171126
-0.00983662
0.108232
-0.204978
0.168977
-0.35305
0.177167
-0.445438
0.135117
-0.474917
0.0571074
-0.458329
-0.0109292
-0.472934
0.0173385
-0.471909
-0.00634562
-0.447908
-0.034756
-0.441173
-0.00587398
-0.447264
0.022852
-0.46361
0.0478225
-0.486655
0.066507
-0.513658
0.0788539
-0.54261
0.0859589
-0.572091
0.0890658
-0.601215
0.0892396
-0.629415
0.0873354
-0.656317
0.0840401
-0.681754
0.0798641
-0.705627
0.0751466
-0.727857
0.0701079
-0.748398
0.0648807
-0.767281
0.0595102
-0.784537
0.0539941
-0.800186
0.0482801
-0.814295
0.0422546
0.035657
-0.826933
1.66397
-0.0757209
1.62402
-0.0377559
1.5849
-0.0331622
1.56129
-0.036114
1.5636
-0.049481
1.60217
-0.0742823
1.68403
-0.109452
1.80315
-0.155254
1.93516
-0.211962
2.05946
-0.274804
2.17179
-0.336323
2.24492
-0.39464
2.27773
-0.438934
2.27626
-0.461513
2.23949
-0.460107
2.16433
-0.432561
2.05332
-0.374869
1.912
-0.284714
1.74388
-0.165641
1.54934
-0.0292897
1.34389
0.101411
1.14712
0.213899
0.94118
0.314076
0.727427
0.382718
0.498335
0.406369
0.222981
0.410585
-0.102384
0.38267
-0.353257
0.23982
-0.454504
0.118368
-0.455319
-0.0057324
-0.383601
-0.106424
-0.379672
-0.00984807
-0.385771
0.0290417
-0.405416
0.0674686
-0.432572
0.0936573
-0.463113
0.109459
-0.494725
0.11762
-0.526099
0.120436
-0.55652
0.119605
-0.585559
0.116355
-0.612997
0.111539
-0.63881
0.105735
-0.662992
0.0993496
-0.685522
0.0926563
-0.706413
0.0858008
-0.725724
0.078826
-0.743521
0.0717549
-0.759813
0.0645529
-0.774644
0.0570943
0.0492617
-0.788237
4.69913
0.00458867
4.66054
0.00085545
4.62509
0.00231078
4.59559
-0.00656796
4.56827
-0.0221859
4.53788
-0.0439024
4.50036
-0.0719181
4.45133
-0.106192
4.38509
-0.145751
4.29794
-0.187586
4.18908
-0.227441
4.05615
-0.261688
3.90187
-0.284616
3.73198
-0.291556
3.5515
-0.279583
3.36481
-0.24585
3.17739
-0.187412
2.99551
-0.102806
2.82226
0.00761055
2.65228
0.140638
2.46544
0.288224
2.24746
0.431923
2.00638
0.555163
1.74649
0.642578
1.46738
0.685431
1.18946
0.688529
0.926122
0.645969
0.629799
0.535974
0.319107
0.428878
-0.0347374
0.348131
-0.273309
0.132241
-0.306384
0.0231604
-0.304593
0.0273488
-0.330473
0.0933074
-0.364565
0.127663
-0.400297
0.145137
-0.435192
0.152506
-0.468295
0.153546
-0.499278
0.150584
-0.528049
0.145155
-0.55466
0.138226
-0.579269
0.130414
-0.602018
0.122139
-0.623025
0.113673
-0.642424
0.105185
-0.660316
0.0967283
-0.676848
0.0882811
-0.692138
0.0798261
-0.706314
0.0712779
0.0625131
-0.71954
3.63544
0.063095
3.58715
0.0491301
3.55283
0.0366149
3.52425
0.0220775
3.49905
0.00305241
3.47521
-0.0200227
3.44995
-0.0466671
3.42028
-0.0764386
3.38251
-0.108051
3.334
-0.139045
3.27297
-0.166371
3.19799
-0.186699
3.10952
-0.196146
3.00906
-0.191103
2.89784
-0.168383
2.77713
-0.125118
2.64948
-0.0596889
2.51794
0.0288052
2.38618
0.139407
2.26
0.266831
2.14364
0.404588
2.03007
0.545471
1.90751
0.677661
1.76438
0.785641
1.59411
0.855701
1.40147
0.881145
1.19064
0.85683
0.945466
0.781184
0.691598
0.682809
0.45905
0.580707
0.154494
0.436818
-0.087861
0.265478
-0.194399
0.133998
-0.238294
0.137251
-0.283693
0.172976
-0.326002
0.18737
-0.364395
0.19086
-0.398996
0.188132
-0.430179
0.181798
-0.458403
0.173432
-0.484085
0.163964
-0.507584
0.15395
-0.529193
0.143764
-0.549116
0.133616
-0.567575
0.12362
-0.584718
0.113847
-0.600659
0.104261
-0.615556
0.0947644
-0.629554
0.085273
0.075764
-0.642828
3.60555
0.130343
3.55022
0.104472
3.50115
0.0856497
3.45759
0.0656244
3.41746
0.0431657
3.37872
0.0187305
3.33888
-0.00687182
3.29477
-0.0322745
3.24327
-0.0566165
3.18268
-0.078465
3.11178
-0.0954654
3.02986
-0.104799
2.93713
-0.103393
2.83461
-0.0885547
2.72377
-0.0575497
2.60559
-0.00694522
2.47913
0.0667418
2.34522
0.162637
2.20922
0.275311
2.07689
0.399064
1.95219
0.529199
1.83703
0.6606
1.72839
0.786302
1.61783
0.896209
1.49529
0.978254
1.35457
1.02191
1.19221
1.01925
1.00351
0.969904
0.798512
0.887791
0.594473
0.784706
0.377419
0.653821
0.144345
0.498427
-0.0444955
0.322736
-0.13873
0.231485
-0.197386
0.231631
-0.246181
0.236136
-0.287379
0.231972
-0.32262
0.223352
-0.353149
0.212428
-0.380003
0.200391
-0.403944
0.187942
-0.425495
0.175493
-0.445084
0.163302
-0.462991
0.151509
-0.479472
0.140139
-0.494767
0.129175
-0.509045
0.118564
-0.522476
0.108209
-0.535234
0.0980272
0.0880239
-0.547529
3.05111
0.18237
3.00233
0.153323
2.96016
0.127798
2.92193
0.103814
2.88561
0.0794922
2.84912
0.0551943
2.81079
0.0314882
2.76942
0.00910688
2.72334
-0.0105412
2.67025
-0.0253798
2.60866
-0.0338981
2.53797
-0.0341741
2.45796
-0.0234205
2.36702
0.00233945
2.26374
0.0456866
2.14981
0.106982
2.03178
0.184813
1.91715
0.277298
1.80941
0.383066
1.70947
0.499028
1.61722
0.621447
1.53189
0.745924
1.45127
0.866884
1.37078
0.976687
1.2838
1.06527
1.18384
1.12188
1.06576
1.13731
0.926669
1.10901
0.770864
1.04362
0.607048
0.948522
0.436453
0.824454
0.260383
0.674479
0.081612
0.501381
-0.042919
0.35594
-0.114017
0.302715
-0.166173
0.288261
-0.207661
0.273436
-0.241538
0.257243
-0.269834
0.24077
-0.294014
0.224591
-0.31511
0.208996
-0.33378
0.194142
-0.350563
0.180078
-0.365844
0.166806
-0.3799
0.15426
-0.392995
0.142338
-0.405336
0.130936
-0.417084
0.119942
-0.428386
0.109283
0.0990458
-0.439488
2.50388
0.2362
2.45616
0.20103
2.41339
0.17058
2.37431
0.142822
2.33722
0.116684
2.29996
0.0924112
2.26074
0.0707909
2.21748
0.0523604
2.16899
0.0380433
2.11443
0.0292023
2.05268
0.0278247
1.98226
0.0362675
1.90233
0.056574
1.81473
0.0899494
1.72351
0.136875
1.63208
0.198375
1.54263
0.274255
1.45673
0.36319
1.37641
0.463407
1.303
0.572511
1.23688
0.687648
1.1774
0.805426
1.12286
0.92147
1.07001
1.02955
1.01416
1.12115
0.949799
1.18626
0.871792
1.2153
0.777305
1.20345
0.668027
1.15289
0.548363
1.06819
0.421218
0.951633
0.289855
0.805865
0.154586
0.636678
0.035547
0.475017
-0.0408781
0.379087
-0.0908871
0.338164
-0.128922
0.311456
-0.158813
0.287194
-0.182916
0.26491
-0.202916
0.244588
-0.219941
0.225973
-0.234706
0.208892
-0.247766
0.193157
-0.259538
0.178604
-0.270302
0.165068
-0.280301
0.152374
-0.289737
0.140368
-0.298772
0.128929
-0.307549
0.117988
0.107796
-0.316371
1.8653
0.284064
1.82272
0.243574
1.78528
0.207987
1.75104
0.177106
1.71831
0.14945
1.68522
0.125569
1.65003
0.106063
1.61112
0.0911927
1.56742
0.0817907
1.51779
0.0788181
1.46181
0.0837633
1.39989
0.0982596
1.33294
0.123546
1.26246
0.160354
1.19029
0.209023
1.11888
0.269839
1.0505
0.342655
0.987034
0.426701
0.929939
0.520585
0.880062
0.622423
0.837679
0.730033
0.802336
0.840781
0.772646
0.951142
0.746148
1.05601
0.719186
1.14812
0.687128
1.21827
0.645524
1.25684
0.591547
1.25739
0.525289
1.2192
0.44883
1.14471
0.3644
1.0361
0.274573
0.895704
0.180845
0.730363
0.0903878
0.565396
0.0221501
0.447288
-0.0223622
0.382695
-0.0536191
0.342727
-0.0767253
0.310313
-0.0944542
0.282655
-0.108645
0.258799
-0.120263
0.237568
-0.129973
0.218596
-0.138256
0.20149
-0.145519
0.185931
-0.152049
0.171657
-0.158088
0.158434
-0.163833
0.14609
-0.169475
0.134508
-0.175118
0.123577
0.113709
-0.18106
1.18535
0.336913
1.14663
0.282346
1.11299
0.241426
1.08369
0.206469
1.05595
0.177108
1.02753
0.154075
0.996574
0.137026
0.96209
0.125748
0.923232
0.120641
0.879622
0.122334
0.831509
0.131824
0.779659
0.150097
0.725382
0.177684
0.670711
0.214864
0.617964
0.261743
0.569319
0.318547
0.526353
0.385624
0.490034
0.462984
0.460804
0.549797
0.438718
0.64448
0.423668
0.745031
0.415246
0.849165
0.412451
0.953929
0.413403
1.05502
0.415281
1.1462
0.414524
1.21904
0.407446
1.26399
0.391154
1.27374
0.364788
1.2456
0.329134
1.18034
0.285479
1.07975
0.235404
0.945826
0.179859
0.78593
0.122155
0.623043
0.0738144
0.495573
0.0407471
0.4158
0.0189272
0.364625
0.00410904
0.325194
-0.00608041
0.292878
-0.0132198
0.265987
-0.0182877
0.242635
-0.0218993
0.222128
-0.0243838
0.203937
-0.0260689
0.187619
-0.0272454
0.172826
-0.0281562
0.159305
-0.0290063
0.146893
-0.0300402
0.1355
-0.0315029
0.125041
0.115799
-0.0335331
0.41978
0.36206
0.392972
0.309192
0.373531
0.260978
0.356639
0.223292
0.338091
0.195609
0.316028
0.176088
0.28944
0.16329
0.258771
0.156547
0.224103
0.15525
0.186691
0.159564
0.148524
0.170021
0.111489
0.187209
0.0773412
0.211888
0.0474182
0.244935
0.0223335
0.286981
0.00247558
0.338389
-0.0114693
0.399434
-0.0186018
0.470083
-0.0184202
0.549693
-0.0109902
0.637059
0.00343415
0.730591
0.0242766
0.828319
0.050566
0.927666
0.0808326
1.02483
0.112883
1.11418
0.143955
1.18796
0.17081
1.23714
0.190308
1.25426
0.201298
1.23464
0.203791
1.17785
0.198242
1.08526
0.185625
0.958379
0.165701
0.805821
0.139525
0.649242
0.114554
0.520597
0.097626
0.432788
0.0884229
0.373871
0.0839939
0.329668
0.0824909
0.294398
0.0830046
0.265494
0.0847291
0.240972
0.0871368
0.219754
0.0899346
0.201153
0.092879
0.184667
0.0957382
0.169936
0.0983113
0.156702
0.100407
0.144788
0.101858
0.134091
0.10241
0.124559
0.116157
0.102159
-0.409363
0.317007
-0.395601
0.295242
-0.396264
0.261688
-0.404912
0.231903
-0.417996
0.208668
-0.433361
0.191499
-0.449678
0.179601
-0.465938
0.172744
-0.481491
0.170725
-0.495572
0.173676
-0.507484
0.181997
-0.516648
0.196316
-0.522326
0.217501
-0.523907
0.246478
-0.521074
0.284067
-0.513561
0.33078
-0.500973
0.386794
-0.482763
0.451887
-0.458397
0.52538
-0.42753
0.606221
-0.389964
0.69307
-0.34576
0.784194
-0.29538
0.87729
-0.239622
0.969061
-0.179855
1.05446
-0.118311
1.12649
-0.0581404
1.17697
-0.00262873
1.19869
0.0453318
1.18663
0.0834084
1.13973
0.112552
1.05607
0.134651
0.936255
0.147849
0.792643
0.151288
0.64587
0.149812
0.522137
0.150098
0.432547
0.154168
0.369831
0.160715
0.323165
0.168523
0.286627
0.176946
0.25708
0.185463
0.232456
0.193731
0.211472
0.201545
0.193312
0.20876
0.177425
0.215238
0.163436
0.220845
0.151096
0.225434
0.140218
0.228868
0.130694
0.23099
0.122487
0.115519
0.231708
-1.08074
0.274577
-1.05209
0.266754
-1.03718
0.246803
-1.03087
0.225655
-1.02908
0.206837
-1.02938
0.191674
-1.03023
0.180492
-1.03094
0.173442
-1.03093
0.170679
-1.02969
0.172447
-1.02681
0.179162
-1.02184
0.191372
-1.01416
0.209808
-1.00299
0.235297
-0.987526
0.26859
-0.966882
0.310169
-0.940188
0.360171
-0.906682
0.418418
-0.865711
0.484414
-0.816821
0.557323
-0.759802
0.636016
-0.694633
0.719044
-0.621555
0.804301
-0.541197
0.888733
-0.454685
0.967899
-0.363951
1.03573
-0.272086
1.08511
-0.182931
1.10949
-0.100352
1.10399
-0.0272185
1.06653
0.0349994
0.993831
0.0890998
0.882194
0.133008
0.748795
0.163974
0.614936
0.185154
0.500949
0.202647
0.415047
0.219812
0.352666
0.236924
0.30607
0.253611
0.269984
0.269551
0.241169
0.284488
0.217523
0.298269
0.19768
0.310804
0.180752
0.322052
0.166159
0.331981
0.153513
0.340535
0.142555
0.347662
0.133106
0.353323
0.125057
0.35748
0.118353
0.112935
0.36011
-1.63632
0.235604
-1.60111
0.231653
-1.57414
0.219751
-1.55386
0.205404
-1.53827
0.191304
-1.52575
0.179075
-1.51489
0.169656
-1.5049
0.163447
-1.49504
0.160776
-1.48465
0.162028
-1.47316
0.1676
-1.45988
0.178002
-1.44399
0.193863
-1.42445
0.215817
-1.40023
0.244416
-1.37019
0.280113
-1.33317
0.323143
-1.28813
0.373411
-1.23425
0.430559
-1.17089
0.493975
-1.09759
0.562741
-1.01422
0.635632
-0.920812
0.71087
-0.817769
0.785731
-0.70617
0.8563
-0.587927
0.917461
-0.466141
0.963317
-0.345053
0.988372
-0.229481
0.988382
-0.123596
0.960637
-0.0302596
0.900521
0.053224
0.798759
0.125847
0.676218
0.182376
0.558427
0.225123
0.458186
0.259555
0.380603
0.289658
0.322577
0.316987
0.278751
0.342084
0.244903
0.365127
0.218126
0.386189
0.19644
0.405337
0.178507
0.422645
0.163425
0.438198
0.150597
0.452093
0.139622
0.464414
0.130229
0.475262
0.122239
0.484765
0.115544
0.493031
0.110082
0.105811
0.500166
-2.11393
0.194736
-2.07535
0.193068
-2.04151
0.186002
-2.01265
0.176495
-1.98791
0.166508
-1.96627
0.157455
-1.9468
0.150186
-1.92863
0.145242
-1.91095
0.143081
-1.89299
0.144096
-1.87402
0.148655
-1.8532
0.157193
-1.82956
0.170217
-1.802
0.188252
-1.76934
0.211751
-1.73028
0.241064
-1.68357
0.276412
-1.62798
0.317811
-1.56244
0.365024
-1.48608
0.417595
-1.39818
0.474851
-1.29831
0.53577
-1.18637
0.598889
-1.06261
0.661981
-0.928019
0.721758
-0.784576
0.774021
-0.63543
0.81416
-0.485067
0.837997
-0.338958
0.842292
-0.202448
0.824176
-0.0797646
0.777865
0.0305612
0.688411
0.129904
0.576824
0.209954
0.478309
0.272907
0.395154
0.323784
0.329668
0.366811
0.279528
0.404438
0.241122
0.438007
0.211346
0.46827
0.187865
0.495717
0.168987
0.5207
0.153515
0.543511
0.140614
0.564406
0.129709
0.583636
0.120399
0.601435
0.112421
0.618053
0.105605
0.633727
0.0998567
0.648638
0.095159
0.0915498
0.662902
-2.53866
0.151824
-2.497
0.151396
-2.45831
0.147313
-2.42319
0.141326
-2.39135
0.13471
-2.3623
0.128436
-2.33535
0.123208
-2.30973
0.119586
-2.28464
0.117993
-2.25932
0.11876
-2.23293
0.122224
-2.20451
0.128758
-2.17302
0.138741
-2.13731
0.152541
-2.09612
0.170527
-2.04807
0.193002
-1.99178
0.220125
-1.92593
0.251937
-1.84922
0.288313
-1.76057
0.32894
-1.65904
0.373322
-1.54395
0.420695
-1.41499
0.469922
-1.27238
0.519326
-1.11702
0.566417
-0.95089
0.607932
-0.777113
0.640435
-0.600238
0.661153
-0.426219
0.668288
-0.261666
0.659651
-0.112124
0.628354
0.0246699
0.551609
0.147984
0.453465
0.248873
0.377372
0.330058
0.313926
0.396368
0.26332
0.452104
0.223772
0.500223
0.19299
0.542636
0.168913
0.580601
0.149867
0.615005
0.134556
0.646495
0.12201
0.675575
0.111533
0.702643
0.102635
0.728072
0.0949723
0.752164
0.0883128
0.775204
0.0825404
0.797415
0.0776273
0.818907
0.0736522
0.0708002
0.839647
-2.91956
0.105106
-2.87384
0.105615
-2.83009
0.103541
-2.78889
0.100108
-2.75029
0.0961015
-2.71405
0.0921639
-2.67968
0.0888191
-2.64652
0.0864696
-2.61388
0.0854059
-2.58099
0.0858791
-2.54696
0.0881614
-2.51078
0.0925358
-2.47135
0.0992744
-2.42745
0.108627
-2.37775
0.120829
-2.32083
0.13608
-2.25521
0.154501
-2.17944
0.176154
-2.0921
0.200969
-1.99191
0.228751
-1.87778
0.259168
-1.74884
0.29173
-1.60459
0.325683
-1.44517
0.359907
-1.27146
0.392737
-1.08541
0.421917
-0.890006
0.445081
-0.689537
0.460714
-0.490049
0.468776
-0.299444
0.468998
-0.125162
0.454027
0.0386023
0.387786
0.181934
0.310084
0.29958
0.259704
0.395694
0.217787
0.475242
0.183743
0.542468
0.156521
0.600481
0.134961
0.651467
0.117908
0.696987
0.104316
0.738188
0.093333
0.775923
0.0842787
0.810824
0.076659
0.843361
0.070115
0.87393
0.064413
0.902845
0.0594001
0.930348
0.0550253
0.956622
0.0513446
0.981721
0.0485482
0.047003
1.00551
-3.24725
0.0547491
-3.19684
0.0551782
-3.14762
0.0543061
-3.10025
0.0527591
-3.05499
0.0508669
-3.01176
0.0489581
-2.97023
0.0473142
-2.92988
0.0461291
-2.89008
0.04557
-2.85002
0.0458001
-2.8088
0.0469534
-2.76538
0.0491583
-2.71865
0.0525567
-2.66732
0.0572821
-2.60998
0.0634642
-2.54516
0.071225
-2.47128
0.0806205
-2.38679
0.0916736
-2.29018
0.104367
-2.18003
0.118605
-2.05509
0.134213
-1.91437
0.150962
-1.75721
0.168517
-1.58361
0.186338
-1.3944
0.203594
-1.19153
0.219081
-0.977874
0.231426
-0.756994
0.239817
-0.533526
0.245267
-0.315553
0.250972
-0.113736
0.252193
0.0785711
0.195461
0.235318
0.153254
0.36372
0.131242
0.46971
0.111765
0.558512
0.0949186
0.6341
0.0809036
0.69944
0.0695862
0.756758
0.0605492
0.807749
0.053296
0.853653
0.0473985
0.895419
0.0425131
0.933721
0.0383765
0.969063
0.0347982
1.00183
0.031659
1.03234
0.0288963
1.06085
0.0265088
1.08761
0.0245922
1.11274
0.0234089
0.0235725
1.13616
-3.50873
-3.45352
-3.3992
-3.34646
-3.29561
-3.24664
-3.19931
-3.15317
-3.10757
-3.06176
-3.01481
-2.96565
-2.9131
-2.85583
-2.79236
-2.72115
-2.64053
-2.54885
-2.44448
-2.3259
-2.19169
-2.04073
-1.87221
-1.68586
-1.48224
-1.26316
-1.03176
-0.791991
-0.546746
-0.295766
-0.0435439
0.151941
0.305178
0.436388
0.548125
0.643023
0.723905
0.793472
0.853995
0.907294
0.954704
0.997238
1.03563
1.07044
1.1021
1.13099
1.1575
1.1821
1.20551
1.22907
0.00811691
-0.000158828
0.00815062
-4.61145e-05
0.00816748
-3.05743e-05
0.008163
-8.15429e-06
0.00814368
6.86267e-06
0.00811628
1.50199e-05
0.00808429
1.96535e-05
0.00804948
2.25405e-05
0.00801292
2.43767e-05
0.00797532
2.54903e-05
0.00793724
2.61118e-05
0.00789902
2.63762e-05
0.00786093
2.64068e-05
0.00782311
2.63017e-05
0.0077856
2.61615e-05
0.00774833
2.6117e-05
0.007711
2.63646e-05
0.00767301
2.72348e-05
0.00763329
2.91625e-05
0.0075931
2.98586e-05
0.00755354
2.94743e-05
0.00751652
2.72065e-05
0.00748302
2.40596e-05
0.0074521
2.17456e-05
0.00742284
2.03224e-05
0.00739487
1.9303e-05
0.00736797
1.84863e-05
0.00734204
1.77926e-05
0.00731701
1.71624e-05
0.0072929
1.65005e-05
0.00726986
1.57214e-05
0.00724799
1.4812e-05
0.00722741
1.37862e-05
0.0072082
1.26606e-05
0.00719048
1.14487e-05
0.00717438
1.01255e-05
0.00716006
8.64833e-06
0.0071477
6.97647e-06
0.00713751
5.0774e-06
0.00712977
2.92515e-06
0.00712478
4.65141e-07
0.00712284
-2.33004e-06
0.00712422
-5.40417e-06
0.00712942
-8.88146e-06
0.00713991
-1.37575e-05
0.00715921
-2.23285e-05
0.00719345
-3.72025e-05
0.00724945
-5.88347e-05
0.00732776
-8.14132e-05
-9.74026e-05
0.00742097
0.00787121
-8.43475e-05
0.00783768
-3.6351e-05
0.00779217
-8.64861e-06
0.00776059
7.79604e-07
0.00773637
8.58077e-06
0.00771508
1.39551e-05
0.00769527
1.72504e-05
0.00767644
1.93225e-05
0.00765835
2.06424e-05
0.00764086
2.13894e-05
0.00762393
2.17117e-05
0.00760755
2.17212e-05
0.00759172
2.15194e-05
0.00757642
2.12085e-05
0.00756163
2.09096e-05
0.0075473
2.07835e-05
0.0075333
2.10802e-05
0.0075193
2.23464e-05
0.00750551
2.44694e-05
0.00749409
2.3287e-05
0.00748893
1.72786e-05
0.00748647
1.30077e-05
0.00748245
1.20401e-05
0.00747713
1.14984e-05
0.00747127
1.10718e-05
0.0074652
1.07488e-05
0.00745915
1.03977e-05
0.0074533
9.97746e-06
0.00744785
9.43575e-06
0.00744292
8.7174e-06
0.0074386
7.8116e-06
0.00743492
6.73316e-06
0.00743191
5.48148e-06
0.00742971
4.02548e-06
0.00742849
2.35193e-06
0.00742839
4.31444e-07
0.00742955
-1.80013e-06
0.00743213
-4.4089e-06
0.00743634
-7.43049e-06
0.0074424
-1.09376e-05
0.00745064
-1.50997e-05
0.00746164
-2.01407e-05
0.007476
-2.62075e-05
0.00749411
-3.32097e-05
0.00751558
-4.10424e-05
0.00753857
-5.04916e-05
0.00756087
-6.42288e-05
0.0075846
-8.61504e-05
0.0076193
-0.000117098
-0.000150145
0.00767397
0.00788137
-1.76915e-05
0.00784181
-1.75596e-05
0.0078207
-8.38887e-06
0.0078044
-2.97184e-06
0.00779164
1.44848e-06
0.00777987
5.97003e-06
0.00776759
9.89711e-06
0.0077545
1.29593e-05
0.00774067
1.51937e-05
0.00772631
1.67086e-05
0.00771164
1.76016e-05
0.00769684
1.80055e-05
0.0076821
1.80516e-05
0.00766753
1.78725e-05
0.00765325
1.76098e-05
0.00763938
1.74162e-05
0.00762611
1.74588e-05
0.00761404
1.78963e-05
0.00760369
1.87192e-05
0.00759484
1.67285e-05
0.00758501
1.24787e-05
0.00757439
9.56161e-06
0.00756433
8.42802e-06
0.00755492
7.61302e-06
0.00754612
6.98294e-06
0.00753794
6.43324e-06
0.00753045
5.81394e-06
0.00752364
5.11939e-06
0.0075175
4.32063e-06
0.00751203
3.34857e-06
0.00750727
2.14508e-06
0.00750329
6.87093e-07
0.00750016
-1.01116e-06
0.00749798
-2.99291e-06
0.0074969
-5.31073e-06
0.00749702
-7.99957e-06
0.00749843
-1.11148e-05
0.0075013
-1.47389e-05
0.00750582
-1.89556e-05
0.00751213
-2.38705e-05
0.00752042
-2.96261e-05
0.00753107
-3.65179e-05
0.00754476
-4.50973e-05
0.00756249
-5.58643e-05
0.00758549
-6.87802e-05
0.0076139
-8.33667e-05
0.00764486
-9.97653e-05
0.00767318
-0.000119937
0.00769823
-0.000147449
-0.000184725
0.0077309
0.00794239
-1.17656e-05
0.00792169
-1.71178e-05
0.00790578
-1.27977e-05
0.00788992
-6.63224e-06
0.00787278
-7.88565e-07
0.00785476
4.74038e-06
0.00783601
9.53277e-06
0.00781677
1.32598e-05
0.00779732
1.58839e-05
0.00777794
1.75354e-05
0.00775886
1.83728e-05
0.00774023
1.85731e-05
0.00772218
1.83088e-05
0.00770481
1.77478e-05
0.00768821
1.70416e-05
0.00767245
1.63197e-05
0.00765769
1.56863e-05
0.00764424
1.51856e-05
0.00763265
1.46711e-05
0.00762188
1.26529e-05
0.00761025
9.95064e-06
0.00759836
7.66485e-06
0.00758724
6.1038e-06
0.00757689
4.90743e-06
0.00756732
3.89597e-06
0.00755853
2.94917e-06
0.00755051
1.96046e-06
0.00754324
9.14935e-07
0.0075367
-2.2004e-07
0.00753092
-1.53336e-06
0.00752593
-3.12325e-06
0.00752178
-5.02968e-06
0.00751854
-7.23811e-06
0.00751629
-9.78011e-06
0.0075151
-1.27232e-05
0.00751506
-1.61423e-05
0.00751629
-2.01141e-05
0.00751895
-2.47323e-05
0.00752324
-3.01353e-05
0.00752934
-3.64738e-05
0.00753737
-4.38336e-05
0.00754733
-5.23149e-05
0.00755921
-6.23098e-05
0.00757314
-7.46214e-05
0.00758993
-9.01454e-05
0.0076118
-0.000109148
0.00763985
-0.00013087
0.00767136
-0.000154748
0.00770253
-0.000183176
-0.000220479
0.00773508
0.00794316
-6.54706e-06
0.00791698
-1.1093e-05
0.00789346
-9.46741e-06
0.00787243
-5.04683e-06
0.00785254
-1.87121e-07
0.00783357
4.52038e-06
0.00781532
8.72416e-06
0.00779757
1.20944e-05
0.00778024
1.45044e-05
0.0077633
1.59701e-05
0.00774678
1.6614e-05
0.00773073
1.65902e-05
0.00771522
1.60672e-05
0.00770029
1.52147e-05
0.007686
1.41797e-05
0.00767242
1.30727e-05
0.00765964
1.19559e-05
0.00764787
1.08025e-05
0.00763754
9.38408e-06
0.0076281
7.29107e-06
0.00761845
5.42962e-06
0.00760862
3.68331e-06
0.0075991
2.17962e-06
0.00759008
8.63966e-07
0.00758162
-3.14864e-07
0.00757373
-1.4386e-06
0.0075664
-2.59958e-06
0.00755967
-3.85125e-06
0.0075536
-5.22789e-06
0.0075482
-6.79683e-06
0.00754346
-8.64851e-06
0.00753941
-1.08374e-05
0.00753612
-1.33879e-05
0.00753367
-1.63469e-05
0.00753214
-1.97901e-05
0.00753163
-2.38023e-05
0.00753225
-2.84673e-05
0.0075341
-3.38926e-05
0.0075373
-4.0238e-05
0.00754211
-4.77135e-05
0.00754879
-5.65312e-05
0.00755749
-6.67851e-05
0.00756826
-7.84993e-05
0.00758075
-9.20583e-05
0.00759414
-0.000108339
0.00760871
-0.000128297
0.00762637
-0.000152347
0.00764836
-0.000179527
0.00767189
-0.00021025
-0.000247576
0.00769568
0.00794759
-5.74648e-06
0.00792684
-1.05012e-05
0.00790761
-1.04452e-05
0.00789033
-7.20966e-06
0.00787351
-2.64687e-06
0.0078567
2.16374e-06
0.00783979
6.61206e-06
0.00782275
1.02744e-05
0.00780561
1.29459e-05
0.0077885
1.45991e-05
0.00777153
1.53305e-05
0.00775481
1.52923e-05
0.00773848
1.46676e-05
0.00772262
1.36368e-05
0.0077073
1.23598e-05
0.00769259
1.09626e-05
0.00767851
9.52738e-06
0.00766507
8.10142e-06
0.0076522
6.64987e-06
0.00764009
4.59881e-06
0.00762857
2.77455e-06
0.00761737
1.06415e-06
0.00760666
-5.64672e-07
0.00759655
-2.08582e-06
0.00758707
-3.50289e-06
0.00757823
-4.88485e-06
0.00757006
-6.30938e-06
0.00756255
-7.82995e-06
0.00755574
-9.49168e-06
0.00754964
-1.13599e-05
0.00754424
-1.35133e-05
0.00753957
-1.60152e-05
0.00753567
-1.89157e-05
0.0075326
-2.22806e-05
0.00753041
-2.6193e-05
0.0075292
-3.07399e-05
0.00752907
-3.60244e-05
0.00753006
-4.2174e-05
0.0075322
-4.93088e-05
0.00753561
-5.75901e-05
0.00754046
-6.73401e-05
0.00754695
-7.88763e-05
0.00755536
-9.22775e-05
0.00756601
-0.00010761
0.00757846
-0.000125136
0.00759142
-0.000145688
0.00760505
-0.00017016
0.00762066
-0.00019854
0.00763753
-0.000230304
-0.000266984
0.00765393
0.00794844
-5.78675e-06
0.00792832
-1.04927e-05
0.00790841
-1.07004e-05
0.00788957
-7.77315e-06
0.00787096
-3.27259e-06
0.00785243
1.57603e-06
0.00783401
6.03676e-06
0.00781579
9.66856e-06
0.00779783
1.22437e-05
0.00778022
1.37468e-05
0.00776304
1.4273e-05
0.00774636
1.39862e-05
0.00773023
1.30806e-05
0.0077147
1.17447e-05
0.00769979
1.01485e-05
0.00768552
8.42587e-06
0.0076719
6.66038e-06
0.007659
4.86637e-06
0.00764717
2.88965e-06
0.00763642
5.5006e-07
0.0076262
-1.17331e-06
0.00761621
-2.77149e-06
0.00760656
-4.36307e-06
0.00759728
-5.86345e-06
0.00758842
-7.30843e-06
0.00758004
-8.77718e-06
0.00757216
-1.03252e-05
0.00756484
-1.19929e-05
0.0075581
-1.3825e-05
0.00755195
-1.58824e-05
0.0075464
-1.82358e-05
0.00754149
-2.09508e-05
0.00753723
-2.40949e-05
0.00753368
-2.77483e-05
0.00753089
-3.19964e-05
0.00752893
-3.69292e-05
0.00752788
-4.26728e-05
0.00752782
-4.93869e-05
0.00752883
-5.71889e-05
0.00753088
-6.61623e-05
0.00753404
-7.65257e-05
0.00753831
-8.86718e-05
0.0075436
-0.00010296
0.00755041
-0.000119472
0.00755905
-0.000138219
0.00756881
-0.000159554
0.00757885
-0.000184233
0.00758948
-0.000212769
0.0076007
-0.000244742
-0.000280685
0.00761147
0.00794889
-6.28783e-06
0.0079295
-1.12153e-05
0.00791022
-1.15932e-05
0.007892
-8.94231e-06
0.00787413
-4.64471e-06
0.00785651
8.85615e-08
0.00783911
4.4653e-06
0.00782192
8.01915e-06
0.00780498
1.05274e-05
0.00778831
1.19555e-05
0.00777195
1.23892e-05
0.00775595
1.19932e-05
0.00774034
1.09625e-05
0.00772516
9.48894e-06
0.00771043
7.74542e-06
0.00769616
5.87166e-06
0.00768236
3.95583e-06
0.00766904
2.04235e-06
0.00765623
8.10406e-08
0.00764419
-2.24298e-06
0.00763281
-4.00085e-06
0.00762177
-5.5957e-06
0.00761114
-7.21164e-06
0.00760094
-8.74704e-06
0.00759122
-1.02659e-05
0.00758199
-1.18499e-05
0.00757329
-1.35376e-05
0.00756515
-1.53595e-05
0.00755759
-1.73588e-05
0.0075506
-1.95923e-05
0.00754422
-2.21234e-05
0.00753844
-2.50208e-05
0.0075333
-2.8367e-05
0.00752881
-3.22525e-05
0.00752504
-3.67644e-05
0.007522
-4.2e-05
0.00751972
-4.80843e-05
0.00751827
-5.51748e-05
0.00751777
-6.34504e-05
0.00751819
-7.30383e-05
0.00751957
-8.40005e-05
0.00752196
-9.65939e-05
0.00752506
-0.000111248
0.00752891
-0.000128204
0.00753375
-0.000147659
0.00753963
-0.00016959
0.00754592
-0.000194421
0.00755231
-0.000222748
0.00755883
-0.000254493
-0.000289777
0.00756488
0.00794898
-6.84421e-06
0.00792971
-1.20075e-05
0.00791042
-1.24337e-05
0.00789203
-9.9035e-06
0.00787391
-5.72685e-06
0.00785599
-1.08163e-06
0.00783829
3.22681e-06
0.00782081
6.69912e-06
0.0078036
9.11794e-06
0.00778669
1.04368e-05
0.00777012
1.07464e-05
0.00775394
1.02138e-05
0.00773817
9.03352e-06
0.00772285
7.40237e-06
0.00770799
5.49746e-06
0.00769361
3.45341e-06
0.00767975
1.33933e-06
0.00766646
-7.90389e-07
0.00765392
-2.98082e-06
0.00764225
-5.39132e-06
0.00763116
-7.12908e-06
0.00762041
-8.69219e-06
0.00761
-1.02766e-05
0.0076
-1.18296e-05
0.00759043
-1.33879e-05
0.00758127
-1.50104e-05
0.00757255
-1.674e-05
0.00756428
-1.86135e-05
0.00755648
-2.06762e-05
0.00754917
-2.29827e-05
0.00754235
-2.55928e-05
0.00753604
-2.85778e-05
0.00753025
-3.20239e-05
0.00752502
-3.60191e-05
0.00752039
-4.06581e-05
0.00751639
-4.60634e-05
0.00751298
-5.23528e-05
0.0075102
-5.96324e-05
0.00750812
-6.81049e-05
0.00750673
-7.79971e-05
0.00750601
-8.93627e-05
0.00750603
-0.000102342
0.00750681
-0.000117164
0.00750798
-0.000134186
0.00750959
-0.000153726
0.00751168
-0.000175819
0.00751408
-0.000200646
0.0075164
-0.000228616
0.00751856
-0.000259886
-0.00029456
0.00752028
0.00794892
-7.3563e-06
0.00792958
-1.27189e-05
0.00791022
-1.31771e-05
0.00789177
-1.07953e-05
0.00787368
-6.82943e-06
0.00785593
-2.40373e-06
0.00783852
1.6963e-06
0.00782144
4.98571e-06
0.00780471
7.23545e-06
0.00778831
8.4055e-06
0.00777226
8.58874e-06
0.00775656
7.9449e-06
0.00774124
6.66447e-06
0.00772628
4.94274e-06
0.00771171
2.95319e-06
0.00769754
8.04348e-07
0.00768381
-1.41858e-06
0.00767049
-3.61182e-06
0.00765768
-5.78465e-06
0.00764555
-8.1069e-06
0.007634
-9.81321e-06
0.00762277
-1.13301e-05
0.00761185
-1.28459e-05
0.00760129
-1.43823e-05
0.00759112
-1.59491e-05
0.00758135
-1.7578e-05
0.00757198
-1.93137e-05
0.00756303
-2.12002e-05
0.00755453
-2.32847e-05
0.00754648
-2.56203e-05
0.0075389
-2.82669e-05
0.00753179
-3.12992e-05
0.00752514
-3.48003e-05
0.00751899
-3.88473e-05
0.00751334
-4.35343e-05
0.00750821
-4.90011e-05
0.00750361