/*--------------------------------*- C++ -*----------------------------------*\
  =========                 |
  \\      /  F ield         | OpenFOAM: The Open Source CFD Toolbox
   \\    /   O peration     | Website:  https://openfoam.org
    \\  /    A nd           | Version:  8
     \\/     M anipulation  |
\*---------------------------------------------------------------------------*/
FoamFile
{
    version     2.0;
    format      ascii;
    class       volScalarField;
    location    "200";
    object      alphat;
}
// * * * * * * * * * * * * * * * * * * * * * * * * * * * * * * * * * * * * * //

dimensions      [1 -1 -1 0 0 0 0];

internalField   nonuniform List<scalar> 
8400
(
0.352363
0.351715
0.351067
0.350422
0.349783
0.349149
0.34852
0.347896
0.347278
0.346665
0.346058
0.345456
0.344861
0.344271
0.343687
0.34311
0.342539
0.341974
0.341416
0.340865
0.34032
0.339783
0.339254
0.338732
0.338218
0.337713
0.337217
0.336732
0.336257
0.335793
0.335343
0.334906
0.334486
0.334083
0.333699
0.333338
0.333002
0.332695
0.332422
0.332187
0.331996
0.331858
0.331781
0.331776
0.331857
0.332044
0.332361
0.332841
0.333528
0.334481
0.144781
0.144681
0.144592
0.144513
0.144443
0.144382
0.14433
0.144287
0.144253
0.144228
0.144212
0.144204
0.144205
0.144214
0.144232
0.144258
0.144293
0.144337
0.144389
0.144449
0.144518
0.144595
0.144681
0.144775
0.144879
0.144991
0.145113
0.145243
0.145384
0.145534
0.145695
0.145867
0.14605
0.146245
0.146454
0.146677
0.146915
0.14717
0.147443
0.147737
0.148053
0.148395
0.148767
0.149172
0.149615
0.150105
0.150648
0.151257
0.151947
0.152738
0.0909982
0.0911562
0.0913161
0.0914777
0.0916411
0.0918062
0.0919729
0.0921412
0.0923112
0.0924828
0.092656
0.0928307
0.093007
0.0931848
0.0933642
0.0935452
0.0937278
0.093912
0.0940977
0.0942851
0.0944741
0.0946648
0.0948572
0.0950513
0.0952473
0.095445
0.0956446
0.0958462
0.0960498
0.0962555
0.0964633
0.0966735
0.096886
0.0971012
0.097319
0.0975398
0.0977637
0.097991
0.098222
0.0984571
0.0986967
0.0989415
0.0991919
0.0994487
0.0997129
0.0999858
0.100269
0.100564
0.100873
0.1012
0.0867252
0.0869249
0.0871238
0.0873216
0.0875186
0.0877147
0.08791
0.0881045
0.0882983
0.0884913
0.0886838
0.0888756
0.089067
0.0892578
0.0894482
0.0896382
0.0898278
0.0900172
0.0902064
0.0903953
0.0905841
0.0907728
0.0909615
0.0911502
0.0913389
0.0915277
0.0917166
0.0919058
0.0920951
0.0922846
0.0924744
0.0926646
0.0928551
0.093046
0.0932373
0.0934291
0.0936214
0.0938142
0.0940075
0.0942014
0.094396
0.0945912
0.0947872
0.0949839
0.0951815
0.0953801
0.0955797
0.0957806
0.095983
0.0961872
0.0870835
0.0872938
0.0875026
0.0877096
0.0879151
0.0881189
0.0883213
0.0885223
0.088722
0.0889204
0.0891175
0.0893135
0.0895085
0.0897025
0.0898955
0.0900877
0.0902791
0.0904698
0.0906597
0.0908491
0.0910379
0.0912262
0.0914141
0.0916015
0.0917886
0.0919754
0.0921619
0.0923482
0.0925342
0.09272
0.0929056
0.0930911
0.0932763
0.0934613
0.093646
0.0938305
0.0940146
0.0941983
0.0943814
0.0945639
0.0947455
0.0949261
0.0951055
0.0952832
0.0954591
0.0956325
0.0958031
0.0959701
0.0961328
0.0962901
0.0884427
0.0886629
0.0888815
0.0890984
0.0893137
0.0895273
0.0897395
0.0899503
0.0901597
0.0903678
0.0905747
0.0907805
0.0909853
0.091189
0.0913918
0.0915937
0.0917949
0.0919953
0.0921951
0.0923942
0.0925928
0.0927909
0.0929885
0.0931858
0.0933827
0.0935792
0.0937755
0.0939716
0.0941675
0.0943632
0.0945587
0.0947541
0.0949494
0.0951445
0.0953395
0.0955343
0.0957289
0.0959233
0.0961174
0.0963111
0.0965043
0.096697
0.096889
0.0970801
0.0972701
0.0974589
0.0976462
0.0978317
0.098015
0.098196
0.0894204
0.0896474
0.0898727
0.0900962
0.090318
0.0905382
0.0907567
0.0909737
0.0911893
0.0914035
0.0916165
0.0918282
0.0920387
0.0922482
0.0924567
0.0926642
0.0928709
0.0930767
0.0932818
0.0934861
0.0936899
0.093893
0.0940956
0.0942977
0.0944994
0.0947007
0.0949016
0.0951021
0.0953024
0.0955023
0.0957019
0.0959012
0.0961001
0.0962988
0.096497
0.0966948
0.0968921
0.0970887
0.0972846
0.0974796
0.0976736
0.0978663
0.0980574
0.0982467
0.0984338
0.0986182
0.0987995
0.098977
0.0991501
0.099318
0.0906757
0.0909098
0.0911421
0.0913727
0.0916016
0.091829
0.0920548
0.0922791
0.0925022
0.0927239
0.0929443
0.0931636
0.0933819
0.0935991
0.0938153
0.0940307
0.0942452
0.0944589
0.094672
0.0948843
0.0950961
0.0953073
0.0955181
0.0957283
0.0959382
0.0961477
0.0963568
0.0965656
0.0967742
0.0969824
0.0971904
0.0973982
0.0976057
0.0978128
0.0980197
0.0982261
0.0984322
0.0986377
0.0988426
0.0990468
0.0992501
0.0994524
0.0996534
0.0998529
0.100051
0.100246
0.100439
0.10063
0.100816
0.100999
0.091725
0.091966
0.0922055
0.0924433
0.0926795
0.092914
0.0931471
0.0933787
0.0936089
0.0938378
0.0940655
0.0942921
0.0945175
0.0947418
0.0949652
0.0951877
0.0954093
0.0956301
0.0958502
0.0960696
0.0962883
0.0965065
0.0967241
0.0969413
0.097158
0.0973742
0.0975901
0.0978056
0.0980207
0.0982355
0.09845
0.0986641
0.0988778
0.0990912
0.099304
0.0995164
0.0997282
0.0999392
0.100149
0.100359
0.100567
0.100774
0.100979
0.101182
0.101383
0.101581
0.101776
0.101967
0.102154
0.102336
0.0928759
0.0931245
0.0933714
0.0936165
0.09386
0.094102
0.0943425
0.0945816
0.0948194
0.0950559
0.0952912
0.0955253
0.0957584
0.0959904
0.0962215
0.0964517
0.0966811
0.0969097
0.0971376
0.0973648
0.0975914
0.0978174
0.0980428
0.0982678
0.0984924
0.0987165
0.0989402
0.0991635
0.0993865
0.0996092
0.0998314
0.100053
0.100275
0.100496
0.100717
0.100937
0.101156
0.101375
0.101593
0.10181
0.102025
0.10224
0.102452
0.102663
0.102871
0.103076
0.103278
0.103477
0.10367
0.103859
0.0939733
0.0942285
0.0944826
0.0947352
0.0949866
0.0952365
0.095485
0.0957322
0.095978
0.0962227
0.0964661
0.0967085
0.0969498
0.0971902
0.0974296
0.0976682
0.0979059
0.0981429
0.0983792
0.0986149
0.0988499
0.0990844
0.0993184
0.0995519
0.099785
0.100018
0.10025
0.100482
0.100713
0.100944
0.101175
0.101406
0.101636
0.101865
0.102094
0.102323
0.102551
0.102778
0.103005
0.10323
0.103455
0.103678
0.103899
0.104118
0.104336
0.10455
0.104762
0.104969
0.105173
0.105373
0.0950198
0.0952833
0.0955454
0.095806
0.096065
0.0963227
0.0965791
0.0968344
0.0970886
0.0973418
0.097594
0.097845
0.0980949
0.0983437
0.0985916
0.0988386
0.0990848
0.0993302
0.0995748
0.0998188
0.100062
0.100305
0.100547
0.100789
0.10103
0.101271
0.101511
0.101751
0.101991
0.10223
0.102468
0.102706
0.102944
0.103181
0.103418
0.103654
0.103889
0.104124
0.104357
0.104589
0.10482
0.105049
0.105276
0.1055
0.105722
0.10594
0.106154
0.106364
0.106568
0.106766
0.0961851
0.0964566
0.0967267
0.0969952
0.0972622
0.0975279
0.0977923
0.0980554
0.0983173
0.098578
0.0988377
0.0990965
0.0993547
0.0996121
0.0998689
0.100125
0.10038
0.100635
0.100889
0.101142
0.101395
0.101647
0.101899
0.10215
0.102401
0.102651
0.102902
0.103152
0.103401
0.10365
0.103899
0.104148
0.104396
0.104644
0.104891
0.105138
0.105385
0.105631
0.105876
0.10612
0.106363
0.106605
0.106845
0.107084
0.107321
0.107555
0.107787
0.108015
0.10824
0.108461
0.0970718
0.0973533
0.0976334
0.0979122
0.0981896
0.0984656
0.0987404
0.0990139
0.0992862
0.0995574
0.0998276
0.100097
0.100365
0.100632
0.100899
0.101164
0.10143
0.101694
0.101958
0.102222
0.102485
0.102747
0.103008
0.103269
0.10353
0.10379
0.104049
0.104308
0.104567
0.104825
0.105082
0.105339
0.105596
0.105852
0.106107
0.106361
0.106614
0.106866
0.107117
0.107367
0.107614
0.10786
0.108103
0.108344
0.108581
0.108814
0.109042
0.109265
0.109481
0.109689
0.09849
0.09878
0.0990686
0.0993559
0.0996419
0.0999266
0.10021
0.100493
0.100774
0.101054
0.101334
0.101612
0.10189
0.102167
0.102443
0.102719
0.102994
0.103268
0.103542
0.103815
0.104089
0.104362
0.104635
0.104908
0.10518
0.105452
0.105723
0.105994
0.106265
0.106536
0.106806
0.107075
0.107344
0.107613
0.107881
0.108148
0.108414
0.10868
0.108944
0.109207
0.109468
0.109727
0.109985
0.110239
0.110492
0.110741
0.110987
0.111229
0.111468
0.111702
0.0996008
0.0999075
0.100214
0.100519
0.100824
0.101128
0.101431
0.101734
0.102036
0.102338
0.102639
0.10294
0.10324
0.103541
0.10384
0.10414
0.104439
0.104738
0.105037
0.105336
0.105634
0.105932
0.106231
0.106529
0.106828
0.107127
0.107425
0.107721
0.108015
0.108309
0.1086
0.10889
0.109178
0.109463
0.109746
0.110025
0.110301
0.110572
0.110839
0.1111
0.111355
0.111603
0.111843
0.112073
0.112292
0.112499
0.112693
0.11287
0.113031
0.113172
0.104697
0.105045
0.105393
0.105742
0.106092
0.106442
0.106792
0.107143
0.107495
0.107847
0.1082
0.108554
0.108908
0.109263
0.109618
0.109974
0.110331
0.110689
0.111047
0.111406
0.111766
0.112126
0.112487
0.112848
0.11321
0.113572
0.113935
0.114301
0.114659
0.115012
0.115361
0.115705
0.116043
0.116373
0.116696
0.117009
0.117312
0.117603
0.117879
0.11814
0.118382
0.118603
0.118801
0.118971
0.119109
0.119212
0.119275
0.11929
0.119254
0.119157
0.122419
0.122866
0.12332
0.123781
0.124247
0.124718
0.125195
0.125677
0.126164
0.126656
0.127153
0.127655
0.128162
0.128674
0.12919
0.129711
0.130236
0.130765
0.131299
0.131836
0.132376
0.13292
0.133467
0.134017
0.134569
0.135123
0.135678
0.136233
0.136797
0.13735
0.137881
0.138396
0.138892
0.139369
0.139822
0.140249
0.140645
0.141007
0.141328
0.141603
0.141825
0.141986
0.142075
0.142082
0.141992
0.141786
0.141443
0.140932
0.140217
0.139244
0.190299
0.190809
0.191333
0.191871
0.192423
0.192988
0.193567
0.194158
0.194763
0.19538
0.19601
0.196652
0.197307
0.197974
0.198653
0.199344
0.200047
0.200761
0.201486
0.202222
0.202967
0.203722
0.204486
0.205258
0.206038
0.206824
0.207614
0.208409
0.209206
0.210014
0.210839
0.211656
0.212419
0.213155
0.213863
0.214537
0.215172
0.215761
0.216296
0.216769
0.21717
0.217484
0.217698
0.217792
0.217741
0.217513
0.217063
0.216329
0.21523
0.213649
0.378957
0.379199
0.379471
0.379763
0.380076
0.380407
0.380757
0.381124
0.38151
0.381912
0.382332
0.382769
0.383222
0.383691
0.384176
0.384675
0.385188
0.385715
0.386255
0.386805
0.387366
0.387936
0.388514
0.389097
0.389685
0.390275
0.390865
0.391454
0.392038
0.392615
0.393182
0.39375
0.394348
0.394959
0.395581
0.396211
0.39685
0.397495
0.398147
0.398803
0.399462
0.400123
0.400782
0.401437
0.402087
0.402726
0.403351
0.403957
0.404537
0.405081
1.08355
1.06874
1.05457
1.04098
1.0279
1.01527
1.00302
0.991133
0.979587
0.968366
0.957457
0.946848
0.936527
0.926484
0.916709
0.907192
0.897925
0.888899
0.880106
0.871537
0.863186
0.855045
0.847108
0.839367
0.831816
0.824451
0.817263
0.81025
0.803404
0.796721
0.790196
0.783826
0.777605
0.77153
0.765597
0.759802
0.754143
0.748616
0.743208
0.737903
0.732695
0.727577
0.722541
0.717578
0.712677
0.707823
0.702992
0.698147
0.693223
0.688086
1.07683
1.05216
1.02859
1.00602
0.984429
0.963764
0.944006
0.9251
0.906993
0.889635
0.872981
0.85699
0.841621
0.826839
0.812612
0.798907
0.785697
0.772956
0.760658
0.74878
0.737301
0.726201
0.715461
0.705063
0.694992
0.68523
0.675764
0.66658
0.657664
0.649003
0.640587
0.632403
0.62444
0.616687
0.609132
0.601765
0.594575
0.587552
0.580698
0.574021
0.567513
0.561168
0.554979
0.54894
0.543044
0.537284
0.531653
0.526142
0.52074
0.51543
1.0768
1.05207
1.02836
1.00568
0.983955
0.963152
0.943214
0.924088
0.905725
0.88808
0.871111
0.854779
0.839049
0.823888
0.809265
0.795152
0.781522
0.768352
0.755619
0.743301
0.731379
0.719833
0.708647
0.697805
0.687289
0.677088
0.667185
0.65757
0.648229
0.639151
0.630326
0.621743
0.613393
0.605267
0.597357
0.589656
0.582155
0.574848
0.567728
0.560788
0.554024
0.547429
0.540999
0.534729
0.528616
0.522654
0.516841
0.511173
0.505648
0.500263
1.0768
1.05225
1.02876
1.00628
0.984746
0.964102
0.944292
0.925267
0.906979
0.889389
0.872456
0.856145
0.840423
0.825259
0.810625
0.796494
0.782841
0.769641
0.756875
0.74452
0.732559
0.720972
0.709742
0.698854
0.688293
0.678044
0.668095
0.658432
0.649043
0.639918
0.631046
0.622417
0.614021
0.60585
0.597895
0.590148
0.582602
0.57525
0.568085
0.561101
0.554293
0.547654
0.54118
0.534867
0.52871
0.522704
0.516847
0.511135
0.505564
0.500131
1.0768
1.05225
1.02875
1.00625
0.984678
0.963996
0.944148
0.92509
0.906775
0.889164
0.872218
0.8559
0.840176
0.825016
0.810389
0.796268
0.782628
0.769444
0.756694
0.744358
0.732415
0.720847
0.709637
0.698769
0.688227
0.677997
0.668066
0.658421
0.649051
0.639943
0.631087
0.622473
0.614093
0.605936
0.597994
0.59026
0.582725
0.575384
0.568229
0.561253
0.554452
0.54782
0.541351
0.535041
0.528884
0.522878
0.517017
0.511299
0.505718
0.500271
1.0768
1.05226
1.02879
1.00633
0.984803
0.964168
0.944369
0.925358
0.907088
0.889517
0.872607
0.85632
0.840623
0.825485
0.810876
0.79677
0.783141
0.769965
0.757221
0.744888
0.732947
0.721378
0.710167
0.699295
0.688749
0.678514
0.668577
0.658925
0.649546
0.64043
0.631565
0.622942
0.614551
0.606383
0.59843
0.590684
0.583137
0.575783
0.568614
0.561625
0.554809
0.54816
0.541674
0.535345
0.529169
0.523141
0.517256
0.511511
0.505901
0.500422
1.0768
1.05227
1.0288
1.00634
0.984815
0.964177
0.944371
0.925349
0.907066
0.889482
0.872558
0.856258
0.840548
0.825399
0.81078
0.796665
0.783029
0.769847
0.757099
0.744762
0.732818
0.721249
0.710037
0.699166
0.688621
0.678388
0.668453
0.658804
0.649428
0.640315
0.631454
0.622834
0.614447
0.606283
0.598333
0.59059
0.583047
0.575695
0.568528
0.56154
0.554725
0.548077
0.541589
0.535259
0.529079
0.523046
0.517155
0.511401
0.50578
0.500287
1.0768
1.05227
1.02881
1.00635
0.984836
0.964207
0.944411
0.925401
0.907131
0.889559
0.872648
0.856361
0.840664
0.825526
0.810918
0.796814
0.783187
0.770013
0.757272
0.744942
0.733003
0.721438
0.710229
0.699361
0.688817
0.678585
0.66865
0.659
0.649623
0.640508
0.631643
0.62302
0.614628
0.606459
0.598504
0.590755
0.583204
0.575845
0.568669
0.561671
0.554845
0.548185
0.541685
0.535339
0.529144
0.523093
0.517182
0.511406
0.505761
0.500242
1.0768
1.05227
1.02881
1.00636
0.984842
0.964215
0.94442
0.925409
0.907137
0.889563
0.872648
0.856357
0.840655
0.825512
0.8109
0.79679
0.783158
0.76998
0.757234
0.744899
0.732957
0.721388
0.710176
0.699304
0.688758
0.678524
0.668587
0.658935
0.649556
0.640439
0.631574
0.622949
0.614556
0.606385
0.598428
0.590677
0.583125
0.575762
0.568584
0.561583
0.554752
0.548087
0.541581
0.535228
0.529024
0.522964
0.517042
0.511254
0.505595
0.500059
1.0768
1.05227
1.02881
1.00636
0.984846
0.96422
0.944427
0.925418
0.907148
0.889576
0.872664
0.856375
0.840676
0.825536
0.810926
0.796819
0.78319
0.770014
0.757271
0.744938
0.732998
0.72143
0.71022
0.699349
0.688804
0.678569
0.668632
0.65898
0.6496
0.640482
0.631615
0.622988
0.614593
0.606419
0.598459
0.590704
0.583146
0.575779
0.568594
0.561586
0.554748
0.548074
0.541558
0.535194
0.528977
0.522903
0.516965
0.511159
0.505481
0.499925
1.0768
1.05227
1.02881
1.00636
0.984846
0.96422
0.944426
0.925417
0.907148
0.889576
0.872664
0.856374
0.840675
0.825535
0.810925
0.796818
0.783188
0.770012
0.757268
0.744935
0.732994
0.721426
0.710215
0.699343
0.688797
0.678562
0.668623
0.65897
0.649589
0.640469
0.6316
0.622971
0.614573
0.606396
0.598433
0.590674
0.583112
0.575739
0.568549
0.561535
0.55469
0.548007
0.541482
0.535108
0.52888
0.522792
0.51684
0.511019
0.505323
0.499747
1.0768
1.05227
1.02881
1.00636
0.984842
0.964215
0.944419
0.925408
0.907136
0.889562
0.872647
0.856355
0.840653
0.82551
0.810896
0.796786
0.783153
0.769974
0.757227
0.744891
0.732947
0.721377
0.710163
0.69929
0.688741
0.678504
0.668564
0.658908
0.649525
0.640404
0.631533
0.622902
0.614502
0.606323
0.598357
0.590595
0.583031
0.575655
0.568461
0.561442
0.554591
0.547903
0.54137
0.534988
0.528751
0.522653
0.516688
0.510853
0.505142
0.49955
1.0768
1.05227
1.02881
1.00635
0.984836
0.964206
0.944411
0.9254
0.90713
0.889558
0.872646
0.856358
0.84066
0.825521
0.810913
0.796807
0.783178
0.770004
0.75726
0.744928
0.732987
0.721419
0.710207
0.699334
0.688787
0.678549
0.668609
0.658952
0.649568
0.640445
0.631571
0.622937
0.614534
0.606351
0.59838
0.590613
0.583042
0.575659
0.568458
0.56143
0.55457
0.547871
0.541327
0.534932
0.52868
0.522566
0.516585
0.51073
0.504999
0.499384
1.0768
1.05227
1.0288
1.00634
0.984815
0.964176
0.94437
0.925347
0.907065
0.88948
0.872555
0.856254
0.840544
0.825393
0.810773
0.796656
0.783018
0.769835
0.757084
0.744745
0.732798
0.721225
0.710008
0.699133
0.688582
0.678343
0.668401
0.658743
0.649358
0.640235
0.631361
0.622727
0.614324
0.606141
0.598171
0.590404
0.582833
0.57545
0.568247
0.561219
0.554357
0.547656
0.541108
0.534709
0.528452
0.522332
0.516342
0.510479
0.504736
0.499108
1.0768
1.05226
1.02879
1.00633
0.984802
0.964167
0.944368
0.925357
0.907086
0.889515
0.872603
0.856315
0.840617
0.825477
0.810867
0.796758
0.783127
0.769948
0.757201
0.744864
0.732918
0.721345
0.710127
0.699249
0.688696
0.678452
0.668506
0.658843
0.649452
0.640322
0.631441
0.622799
0.614388
0.606196
0.598217
0.59044
0.582859
0.575465
0.568251
0.56121
0.554335
0.547619
0.541057
0.534641
0.528367
0.522227
0.516217
0.510331
0.504563
0.498908
1.0768
1.05225
1.02875
1.00625
0.984678
0.963995
0.944147
0.925088
0.906773
0.889161
0.872214
0.855895
0.84017
0.825007
0.810379
0.796255
0.782612
0.769425
0.756672
0.744331
0.732384
0.720811
0.709594
0.698719
0.688169
0.67793
0.667989
0.658332
0.648947
0.639823
0.630949
0.622314
0.613909
0.605724
0.597751
0.589981
0.582406
0.575017
0.567808
0.560772
0.5539
0.547188
0.540628
0.534214
0.527939
0.521799
0.515786
0.509896
0.504123
0.498461
1.0768
1.05225
1.02876
1.00628
0.984745
0.964101
0.944291
0.925265
0.906977
0.889385
0.872451
0.856138
0.840415
0.825249
0.810613
0.796478
0.782822
0.769619
0.756848
0.744489
0.732521
0.720928
0.709691
0.698794
0.688224
0.677964
0.668002
0.658324
0.64892
0.639776
0.630883
0.62223
0.613808
0.605606
0.597616
0.58983
0.582238
0.574835
0.567612
0.560562
0.553677
0.546953
0.540381
0.533957
0.527674
0.521526
0.515508
0.509616
0.503847
0.498195
1.0768
1.05207
1.02836
1.00567
0.983955
0.963151
0.943212
0.924086
0.905722
0.888076
0.871106
0.854773
0.839041
0.823878
0.809253
0.795137
0.781505
0.768332
0.755595
0.743273
0.731346
0.719795
0.708604
0.697755
0.687233
0.677024
0.667113
0.657489
0.648139
0.639051
0.630214
0.621619
0.613256
0.605115
0.597188
0.589467
0.581945
0.574612
0.567464
0.560494
0.553696
0.547064
0.540594
0.534282
0.528124
0.522119
0.516267
0.51057
0.505036
0.499683
1.07683
1.05216
1.02859
1.00602
0.984428
0.963763
0.944005
0.925099
0.906992
0.889635
0.872982
0.856991
0.841623
0.826843
0.812616
0.798914
0.785707
0.772969
0.760675
0.748803
0.737331
0.726239
0.71551
0.705125
0.695069
0.685328
0.675886
0.66673
0.65785
0.649233
0.640868
0.632747
0.62486
0.617199
0.609756
0.602525
0.5955
0.588676
0.582047
0.575612
0.569367
0.563312
0.557447
0.551775
0.5463
0.541034
0.535992
0.531206
0.526733
0.522687
1.08355
1.06874
1.05457
1.04098
1.0279
1.01527
1.00302
0.991132
0.979584
0.968362
0.957452
0.94684
0.936517
0.926471
0.916693
0.907172
0.897901
0.888869
0.880069
0.871493
0.863134
0.854983
0.847033
0.839279
0.831713
0.824329
0.817121
0.810082
0.803208
0.796493
0.78993
0.783516
0.777245
0.771111
0.76511
0.759237
0.753487
0.747855
0.742337
0.736927
0.73162
0.726412
0.721297
0.716269
0.711323
0.706451
0.701647
0.6969
0.6922
0.68753
0.464754
0.252201
0.194926
0.187443
0.18356
0.182296
0.179551
0.177863
0.175509
0.173536
0.171511
0.169298
0.167591
0.165116
0.163736
0.160902
0.160623
0.163594
0.20859
0.389534
0.465317
0.2528
0.195612
0.18815
0.184278
0.183004
0.180261
0.178565
0.176211
0.174231
0.172204
0.169986
0.168275
0.165796
0.16441
0.161573
0.161289
0.164261
0.209258
0.390079
0.465886
0.253379
0.196299
0.188863
0.185002
0.183718
0.180978
0.179272
0.176918
0.174932
0.172903
0.170679
0.168965
0.166482
0.165091
0.162251
0.16196
0.164933
0.209918
0.390574
0.466458
0.25395
0.19699
0.189581
0.185731
0.184437
0.181699
0.179985
0.177631
0.175638
0.173607
0.171379
0.16966
0.167174
0.165778
0.162936
0.162638
0.165607
0.210533
0.391076
0.467033
0.254521
0.197684
0.190304
0.186465
0.185162
0.182426
0.180704
0.17835
0.17635
0.174317
0.172084
0.170362
0.167872
0.16647
0.163626
0.16332
0.16628
0.21113
0.391584
0.467612
0.255093
0.198383
0.191032
0.187205
0.185892
0.183158
0.181428
0.179074
0.177067
0.175033
0.172794
0.171069
0.168575
0.167168
0.164322
0.164008
0.166953
0.21172
0.392097
0.468195
0.255668
0.199087
0.191766
0.18795
0.186627
0.183897
0.182158
0.179804
0.177791
0.175754
0.173511
0.171782
0.169285
0.167872
0.165024
0.164701
0.16763
0.212307
0.392615
0.468781
0.256246
0.199796
0.192505
0.188702
0.187368
0.184641
0.182893
0.18054
0.17852
0.176482
0.174233
0.172501
0.17
0.168582
0.165732
0.1654
0.16831
0.212894
0.393139
0.469371
0.256829
0.200512
0.193251
0.189459
0.188115
0.185391
0.183634
0.181282
0.179255
0.177215
0.174962
0.173225
0.170722
0.169298
0.166446
0.166105
0.168995
0.213482
0.393668
0.469964
0.257416
0.201233
0.194002
0.190222
0.188868
0.186147
0.184382
0.182029
0.179996
0.177955
0.175696
0.173956
0.17145
0.17002
0.167166
0.166816
0.169685
0.214074
0.394202
0.470562
0.258008
0.20196
0.194759
0.190991
0.189627
0.186909
0.185135
0.182784
0.180743
0.178701
0.176437
0.174694
0.172184
0.170749
0.167892
0.167533
0.17038
0.214669
0.394742
0.471163
0.258605
0.202694
0.195522
0.191767
0.190392
0.187677
0.185895
0.183544
0.181497
0.179453
0.177184
0.175437
0.172925
0.171484
0.168625
0.168256
0.171081
0.215269
0.395288
0.471769
0.259207
0.203434
0.196291
0.192548
0.191163
0.188452
0.186661
0.184311
0.182257
0.180211
0.177938
0.176187
0.173672
0.172225
0.169364
0.168985
0.171788
0.215874
0.395839
0.472379
0.259815
0.20418
0.197067
0.193337
0.191941
0.189233
0.187433
0.185084
0.183023
0.180976
0.178698
0.176944
0.174425
0.172973
0.17011
0.169721
0.172501
0.216483
0.396396
0.472993
0.260427
0.204934
0.197849
0.194131
0.192725
0.190021
0.188212
0.185864
0.183797
0.181748
0.179465
0.177707
0.175186
0.173728
0.170862
0.170464
0.173221
0.217098
0.396959
0.473612
0.261045
0.205694
0.198637
0.194933
0.193516
0.190816
0.188998
0.18665
0.184577
0.182526
0.180239
0.178477
0.175953
0.174489
0.171622
0.171213
0.173947
0.217719
0.397528
0.474236
0.261669
0.20646
0.199433
0.195742
0.194314
0.191617
0.189791
0.187444
0.185364
0.183312
0.181019
0.179254
0.176727
0.175257
0.172388
0.171969
0.17468
0.218347
0.398103
0.474865
0.262299
0.207234
0.200235
0.196557
0.195119
0.192426
0.19059
0.188244
0.186158
0.184104
0.181807
0.180038
0.177508
0.176033
0.173161
0.172733
0.17542
0.21898
0.398685
0.475499
0.262934
0.208015
0.201044
0.197379
0.19593
0.193241
0.191397
0.189052
0.186959
0.184904
0.182602
0.18083
0.178297
0.176815
0.173942
0.173503
0.176168
0.219621
0.399273
0.476138
0.263575
0.208803
0.201861
0.198209
0.196749
0.194064
0.192211
0.189867
0.187767
0.185711
0.183405
0.181628
0.179093
0.177605
0.17473
0.174281
0.176922
0.220268
0.399868
0.476783
0.264222
0.209599
0.202684
0.199046
0.197575
0.194895
0.193032
0.19069
0.188583
0.186525
0.184215
0.182435
0.179896
0.178403
0.175526
0.175066
0.177685
0.220922
0.40047
0.477433
0.264876
0.210402
0.203515
0.199891
0.198409
0.195733
0.193861
0.19152
0.189407
0.187347
0.185032
0.183248
0.180707
0.179208
0.176329
0.175859
0.178454
0.221583
0.401079
0.47809
0.265536
0.211212
0.204354
0.200744
0.19925
0.196578
0.194698
0.192358
0.190238
0.188177
0.185858
0.18407
0.181526
0.180021
0.17714
0.17666
0.179232
0.222252
0.401696
0.478752
0.266202
0.212031
0.2052
0.201604
0.200099
0.197432
0.195542
0.193204
0.191077
0.189015
0.186691
0.1849
0.182353
0.180842
0.177959
0.177468
0.180018
0.222929
0.40232
0.47942
0.266875
0.212857
0.206054
0.202472
0.200956
0.198293
0.196395
0.194057
0.191924
0.18986
0.187533
0.185737
0.183188
0.181671
0.178787
0.178285
0.180812
0.223613
0.402952
0.480094
0.267554
0.213692
0.206916
0.203348
0.201821
0.199163
0.197255
0.194919
0.19278
0.190714
0.188382
0.186583
0.184031
0.182508
0.179622
0.17911
0.181614
0.224306
0.403591
0.480775
0.268241
0.214534
0.207786
0.204233
0.202694
0.20004
0.198124
0.195789
0.193643
0.191577
0.18924
0.187437
0.184883
0.183353
0.180466
0.179943
0.182425
0.225007
0.404239
0.481463
0.268934
0.215385
0.208664
0.205126
0.203576
0.200927
0.199001
0.196668
0.194515
0.192447
0.190107
0.1883
0.185743
0.184207
0.181319
0.180785
0.183244
0.225716
0.404895
0.482157
0.269635
0.216244
0.209551
0.206027
0.204466
0.201821
0.199887
0.197555
0.195396
0.193327
0.190982
0.189171
0.186612
0.18507
0.18218
0.181635
0.184073
0.226434
0.405559
0.482858
0.270343
0.217112
0.210446
0.206937
0.205364
0.202725
0.200782
0.198451
0.196286
0.194215
0.191866
0.190051
0.18749
0.185941
0.18305
0.182494
0.18491
0.22716
0.406233
0.483566
0.271058
0.217989
0.21135
0.207856
0.206271
0.203637
0.201685
0.199356
0.197184
0.195112
0.192759
0.19094
0.188376
0.186821
0.183929
0.183362
0.185756
0.227896
0.406914
0.484282
0.27178
0.218875
0.212263
0.208783
0.207187
0.204558
0.202597
0.20027
0.198091
0.196018
0.193661
0.191838
0.189272
0.187711
0.184817
0.18424
0.186612
0.22864
0.407605
0.485004
0.272511
0.219769
0.213184
0.20972
0.208113
0.205489
0.203518
0.201193
0.199008
0.196933
0.194572
0.192745
0.190177
0.188609
0.185715
0.185126
0.187477
0.229394
0.408305
0.485734
0.273248
0.220673
0.214115
0.210666
0.209047
0.206428
0.204449
0.202125
0.199934
0.197857
0.195493
0.193662
0.191092
0.189517
0.186622
0.186022
0.188352
0.230157
0.409015
0.486471
0.273994
0.221586
0.215054
0.211621
0.20999
0.207377
0.205389
0.203066
0.200869
0.198791
0.196423
0.194588
0.192016
0.190435
0.187539
0.186927
0.189236
0.23093
0.409733
0.487216
0.274748
0.222508
0.216003
0.212586
0.210943
0.208335
0.206338
0.204018
0.201814
0.199735
0.197363
0.195523
0.192949
0.191362
0.188465
0.187842
0.19013
0.231713
0.410462
0.487968
0.27551
0.223439
0.216962
0.21356
0.211906
0.209303
0.207297
0.204978
0.202769
0.200688
0.198312
0.196469
0.193893
0.192299
0.189402
0.188767
0.191034
0.232505
0.4112
0.488729
0.276279
0.224381
0.21793
0.214544
0.212878
0.210281
0.208266
0.205949
0.203733
0.201651
0.199272
0.197424
0.194846
0.193246
0.190348
0.189702
0.191949
0.233308
0.411948
0.489497
0.277057
0.225332
0.218908
0.215538
0.21386
0.211269
0.209245
0.206929
0.204707
0.202624
0.200241
0.198389
0.19581
0.194203
0.191304
0.190647
0.192874
0.23412
0.412706
0.490272
0.277844
0.226293
0.219895
0.216541
0.214852
0.212266
0.210233
0.20792
0.205692
0.203607
0.201221
0.199365
0.196784
0.19517
0.192271
0.191602
0.193809
0.234943
0.413475
0.491056
0.278639
0.227264
0.220893
0.217555
0.215854
0.213274
0.211232
0.208921
0.206687
0.204601
0.202211
0.200351
0.197768
0.196148
0.193248
0.192568
0.194755
0.235777
0.414253
0.491848
0.279442
0.228244
0.2219
0.218579
0.216866
0.214292
0.212241
0.209932
0.207692
0.205604
0.203211
0.201347
0.198763
0.197136
0.194236
0.193544
0.195712
0.236621
0.415043
0.492648
0.280254
0.229236
0.222918
0.219613
0.217888
0.21532
0.213261
0.210953
0.208708
0.206619
0.204223
0.202354
0.199769
0.198135
0.195235
0.194531
0.196679
0.237475
0.415843
0.493456
0.281074
0.230237
0.223946
0.220658
0.218921
0.216359
0.214291
0.211986
0.209734
0.207644
0.205244
0.203372
0.200785
0.199145
0.196245
0.195529
0.197658
0.238341
0.416653
0.494272
0.281904
0.231249
0.224984
0.221713
0.219965
0.217409
0.215332
0.213029
0.210771
0.20868
0.206277
0.204401
0.201813
0.200165
0.197265
0.196538
0.198648
0.239218
0.417475
0.495096
0.282742
0.232271
0.226033
0.222779
0.221019
0.218469
0.216384
0.214082
0.211819
0.209727
0.207321
0.20544
0.202851
0.201197
0.198297
0.197558
0.199649
0.240105
0.418307
0.495929
0.283589
0.233305
0.227093
0.223856
0.222084
0.21954
0.217446
0.215147
0.212879
0.210785
0.208376
0.206491
0.203901
0.20224
0.19934
0.198589
0.200662
0.241005
0.419151
0.49677
0.284445
0.234349
0.228164
0.224944
0.22316
0.220623
0.21852
0.216223
0.213949
0.211854
0.209443
0.207553
0.204962
0.203294
0.200395
0.199632
0.201687
0.241915
0.420006
0.497619
0.285311
0.235404
0.229245
0.226043
0.224247
0.221716
0.219605
0.21731
0.215031
0.212934
0.21052
0.208627
0.206035
0.20436
0.201462
0.200687
0.202724
0.242838
0.420873
0.498476
0.286185
0.23647
0.230338
0.227153
0.225345
0.222821
0.220702
0.218409
0.216124
0.214027
0.21161
0.209713
0.20712
0.205438
0.20254
0.201753
0.203772
0.243772
0.421751
0.499342
0.287069
0.237547
0.231442
0.228274
0.226455
0.223938
0.22181
0.21952
0.217229
0.215131
0.212711
0.21081
0.208216
0.206528
0.20363
0.202831
0.204833
0.244718
0.422641
0.500217
0.287963
0.238635
0.232557
0.229407
0.227576
0.225066
0.22293
0.220642
0.218346
0.216246
0.213825
0.211919
0.209325
0.207629
0.204733
0.203922
0.205906
0.245676
0.423542
0.5011
0.288866
0.239735
0.233684
0.230552
0.228709
0.226205
0.224061
0.221776
0.219475
0.217374
0.21495
0.21304
0.210446
0.208743
0.205848
0.205025
0.206992
0.246647
0.424456
0.501991
0.289778
0.240847
0.234822
0.231708
0.229854
0.227357
0.225205
0.222922
0.220616
0.218514
0.216088
0.214174
0.211579
0.20987
0.206975
0.20614
0.20809
0.24763
0.425382
0.502892
0.290701
0.24197
0.235972
0.232877
0.231011
0.228521
0.226361
0.22408
0.22177
0.219666
0.217238
0.21532
0.212725
0.211009
0.208116
0.207268
0.209202
0.248626
0.426321
0.5038
0.291633
0.243106
0.237134
0.234057
0.23218
0.229697
0.227529
0.225251
0.222936
0.220831
0.218401
0.216479
0.213884
0.21216
0.209269
0.208409
0.210326
0.249634
0.427272
0.504718
0.292575
0.244253
0.238309
0.23525
0.233362
0.230885
0.228709
0.226434
0.224114
0.222009
0.219577
0.217651
0.215055
0.213325
0.210435
0.209563
0.211464
0.250656
0.428235
0.505644
0.293528
0.245413
0.239495
0.236455
0.234555
0.232086
0.229903
0.22763
0.225306
0.2232
0.220765
0.218835
0.21624
0.214503
0.211615
0.21073
0.212616
0.251691
0.429212
0.506579
0.29449
0.246585
0.240694
0.237673
0.235762
0.2333
0.231109
0.228839
0.22651
0.224403
0.221967
0.220033
0.217438
0.215695
0.212808
0.211911
0.213781
0.252739
0.430201
0.507523
0.295463
0.247769
0.241906
0.238904
0.236981
0.234527
0.232328
0.230061
0.227728
0.22562
0.223183
0.221245
0.21865
0.2169
0.214015
0.213106
0.21496
0.253801
0.431204
0.508476
0.296447
0.248967
0.24313
0.240147
0.238214
0.235767
0.233561
0.231296
0.22896
0.226851
0.224412
0.22247
0.219876
0.218118
0.215235
0.214314
0.216153
0.254877
0.43222
0.509438
0.297441
0.250177
0.244368
0.241404
0.23946
0.23702
0.234807
0.232545
0.230204
0.228095
0.225655
0.223709
0.221116
0.219351
0.21647
0.215537
0.217361
0.255968
0.43325
0.51041
0.298447
0.2514
0.245619
0.242674
0.240719
0.238287
0.236067
0.233808
0.231463
0.229353
0.226912
0.224962
0.222369
0.220598
0.21772
0.216774
0.218584
0.257072
0.434294