/*--------------------------------*- C++ -*----------------------------------*\
  =========                 |
  \\      /  F ield         | OpenFOAM: The Open Source CFD Toolbox
   \\    /   O peration     | Website:  https://openfoam.org
    \\  /    A nd           | Version:  8
     \\/     M anipulation  |
\*---------------------------------------------------------------------------*/
FoamFile
{
    version     2.0;
    format      ascii;
    class       volScalarField;
    location    "200";
    object      k;
}
// * * * * * * * * * * * * * * * * * * * * * * * * * * * * * * * * * * * * * //

dimensions      [0 2 -2 0 0 0 0];

internalField   nonuniform List<scalar> 
8400
(
0.100223
0.0998378
0.0994508
0.0990652
0.0986817
0.0983004
0.0979215
0.0975453
0.0971718
0.0968013
0.0964337
0.0960693
0.0957082
0.0953504
0.0949962
0.0946456
0.0942987
0.0939558
0.0936168
0.093282
0.0929516
0.0926256
0.0923044
0.091988
0.0916768
0.0913711
0.0910712
0.0907774
0.0904902
0.0902103
0.0899381
0.0896744
0.0894201
0.0891761
0.0889436
0.088724
0.088519
0.0883304
0.0881605
0.088012
0.0878882
0.087793
0.0877312
0.0877088
0.0877333
0.0878146
0.0879659
0.0882054
0.0885563
0.0890512
0.0168887
0.0168546
0.016823
0.0167936
0.0167664
0.0167413
0.0167184
0.0166977
0.016679
0.0166625
0.016648
0.0166357
0.0166255
0.0166174
0.0166114
0.0166075
0.0166057
0.0166061
0.0166085
0.0166131
0.0166198
0.0166286
0.0166397
0.0166529
0.0166684
0.0166861
0.0167061
0.0167286
0.0167535
0.0167809
0.016811
0.0168439
0.0168797
0.0169186
0.0169608
0.0170066
0.0170562
0.0171101
0.0171686
0.0172322
0.0173015
0.0173772
0.0174603
0.0175517
0.0176528
0.0177653
0.0178913
0.0180337
0.0181963
0.0183844
0.00658358
0.00660521
0.00662721
0.00664956
0.00667226
0.0066953
0.00671867
0.00674237
0.00676639
0.00679073
0.00681538
0.00684034
0.0068656
0.00689117
0.00691704
0.00694321
0.00696968
0.00699646
0.00702353
0.00705091
0.0070786
0.0071066
0.00713491
0.00716355
0.0071925
0.00722179
0.00725143
0.00728141
0.00731175
0.00734247
0.00737358
0.0074051
0.00743705
0.00746944
0.00750232
0.0075357
0.00756963
0.00760415
0.00763931
0.00767517
0.0077118
0.00774928
0.00778772
0.00782724
0.00786799
0.00791016
0.00795398
0.00799976
0.00804788
0.00809882
0.00593821
0.00596768
0.00599707
0.00602637
0.00605558
0.0060847
0.00611375
0.00614271
0.00617159
0.00620041
0.00622916
0.00625785
0.00628648
0.00631507
0.0063436
0.0063721
0.00640057
0.006429
0.00645742
0.00648582
0.00651422
0.00654261
0.006571
0.00659941
0.00662784
0.00665629
0.00668477
0.00671329
0.00674185
0.00677046
0.00679913
0.00682786
0.00685666
0.00688553
0.00691448
0.00694352
0.00697265
0.00700188
0.00703121
0.00706066
0.00709022
0.0071199
0.00714972
0.00717968
0.00720979
0.00724007
0.00727053
0.00730121
0.00733212
0.00736333
0.00597383
0.00600586
0.00603771
0.00606935
0.00610077
0.00613199
0.006163
0.00619383
0.00622448
0.00625495
0.00628525
0.00631539
0.00634537
0.00637522
0.00640492
0.0064345
0.00646396
0.0064933
0.00652254
0.00655168
0.00658074
0.00660972
0.00663862
0.00666746
0.00669624
0.00672496
0.00675364
0.00678228
0.00681088
0.00683945
0.00686799
0.00689649
0.00692497
0.00695341
0.00698183
0.0070102
0.00703852
0.00706679
0.00709498
0.00712308
0.00715106
0.0071789
0.00720655
0.00723399
0.00726114
0.00728795
0.00731433
0.00734018
0.00736537
0.00738977
0.00615731
0.00619138
0.00622523
0.00625886
0.00629226
0.00632546
0.00635845
0.00639125
0.00642386
0.0064563
0.00648856
0.00652066
0.00655262
0.00658442
0.00661609
0.00664764
0.00667906
0.00671038
0.00674159
0.00677272
0.00680375
0.00683472
0.00686561
0.00689644
0.00692723
0.00695796
0.00698865
0.00701932
0.00704995
0.00708056
0.00711115
0.00714172
0.00717228
0.00720283
0.00723337
0.00726389
0.00729439
0.00732487
0.00735531
0.00738572
0.00741606
0.00744634
0.00747653
0.0075066
0.00753652
0.00756627
0.00759581
0.00762508
0.00765405
0.00768265
0.0062914
0.00632692
0.00636224
0.00639732
0.00643218
0.00646681
0.00650123
0.00653544
0.00656945
0.00660327
0.0066369
0.00667036
0.00670366
0.00673679
0.00676978
0.00680263
0.00683535
0.00686794
0.00690043
0.0069328
0.00696508
0.00699727
0.00702938
0.00706141
0.00709338
0.00712528
0.00715713
0.00718892
0.00722067
0.00725238
0.00728404
0.00731566
0.00734724
0.00737877
0.00741025
0.00744167
0.00747302
0.00750429
0.00753546
0.0075665
0.00759739
0.00762811
0.00765859
0.00768881
0.0077187
0.00774819
0.0077772
0.00780564
0.0078334
0.00786035
0.00646885
0.00650584
0.00654262
0.00657917
0.0066155
0.00665163
0.00668755
0.00672327
0.00675881
0.00679417
0.00682936
0.00686439
0.00689927
0.006934
0.0069686
0.00700307
0.00703742
0.00707166
0.0071058
0.00713984
0.0071738
0.00720768
0.0072415
0.00727524
0.00730894
0.00734258
0.00737617
0.00740973
0.00744325
0.00747674
0.00751021
0.00754364
0.00757704
0.00761041
0.00764375
0.00767704
0.00771028
0.00774347
0.00777657
0.00780959
0.00784248
0.00787523
0.00790781
0.00794016
0.00797226
0.00800404
0.00803544
0.00806641
0.00809685
0.0081267
0.00661782
0.00665625
0.00669449
0.00673253
0.00677035
0.00680797
0.0068454
0.00688263
0.00691969
0.00695657
0.00699328
0.00702984
0.00706624
0.00710251
0.00713864
0.00717464
0.00721053
0.00724631
0.00728199
0.00731757
0.00735307
0.00738849
0.00742384
0.00745912
0.00749435
0.00752952
0.00756464
0.00759972
0.00763476
0.00766976
0.00770472
0.00773964
0.00777452
0.00780936
0.00784414
0.00787887
0.00791352
0.00794808
0.00798254
0.00801686
0.00805102
0.00808498
0.00811871
0.00815214
0.00818523
0.00821791
0.00825009
0.0082817
0.00831264
0.00834279
0.00678391
0.00682386
0.00686363
0.00690319
0.00694255
0.00698172
0.00702071
0.00705952
0.00709816
0.00713664
0.00717497
0.00721314
0.00725118
0.00728908
0.00732686
0.00736452
0.00740208
0.00743953
0.0074769
0.00751417
0.00755137
0.0075885
0.00762557
0.00766257
0.00769953
0.00773644
0.00777331
0.00781013
0.00784693
0.00788368
0.00792041
0.0079571
0.00799376
0.00803037
0.00806693
0.00810344
0.00813987
0.00817622
0.00821245
0.00824856
0.00828449
0.00832023
0.00835572
0.00839091
0.00842574
0.00846014
0.00849402
0.00852731
0.00855989
0.00859164
0.00694383
0.0069853
0.0070266
0.00706771
0.00710865
0.00714941
0.00719001
0.00723046
0.00727075
0.00731089
0.0073509
0.00739077
0.00743052
0.00747014
0.00750966
0.00754908
0.0075884
0.00762763
0.00766678
0.00770585
0.00774486
0.00778381
0.0078227
0.00786155
0.00790035
0.00793912
0.00797785
0.00801655
0.00805523
0.00809387
0.0081325
0.00817109
0.00820965
0.00824818
0.00828667
0.00832511
0.00836348
0.00840178
0.00843997
0.00847804
0.00851595
0.00855367
0.00859116
0.00862837
0.00866524
0.00870171
0.0087377
0.00877313
0.00880791
0.00884195
0.00709643
0.0071396
0.00718263
0.00722547
0.00726812
0.00731061
0.00735294
0.00739512
0.00743715
0.00747906
0.00752085
0.00756252
0.00760408
0.00764552
0.00768686
0.00772811
0.00776926
0.00781033
0.00785132
0.00789224
0.00793309
0.00797389
0.00801464
0.00805533
0.00809599
0.00813661
0.00817719
0.00821774
0.00825827
0.00829876
0.00833922
0.00837965
0.00842004
0.00846039
0.00850068
0.00854091
0.00858105
0.00862109
0.00866101
0.00870076
0.00874032
0.00877963
0.00881865
0.00885731
0.00889554
0.00893324
0.0089703
0.00900662
0.00904205
0.00907643
0.00727041
0.00731529
0.00736
0.00740454
0.00744891
0.00749313
0.00753719
0.0075811
0.00762488
0.00766852
0.00771205
0.00775547
0.00779879
0.00784204
0.00788521
0.00792832
0.00797137
0.00801435
0.00805729
0.00810018
0.00814303
0.00818585
0.00822864
0.0082714
0.00831415
0.00835688
0.00839961
0.00844233
0.00848504
0.00852776
0.00857047
0.00861317
0.00865588
0.00869857
0.00874124
0.00878388
0.00882649
0.00886905
0.00891153
0.00895392
0.00899619
0.00903831
0.00908023
0.00912191
0.00916331
0.00920435
0.00924498
0.00928511
0.00932469
0.00936361
0.00740052
0.00744725
0.00749387
0.00754035
0.00758669
0.0076329
0.00767897
0.00772492
0.00777075
0.00781646
0.00786208
0.00790759
0.00795301
0.00799835
0.00804361
0.00808881
0.00813395
0.00817905
0.00822412
0.00826917
0.00831418
0.00835915
0.00840409
0.00844901
0.00849389
0.00853875
0.00858359
0.0086284
0.0086732
0.00871797
0.00876272
0.00880744
0.00885212
0.00889675
0.00894132
0.00898582
0.00903022
0.0090745
0.00911863
0.00916257
0.00920627
0.00924969
0.00929275
0.00933538
0.00937749
0.00941896
0.00945967
0.00949947
0.00953816
0.00957553
0.00761758
0.00766629
0.0077149
0.00776336
0.0078117
0.00785991
0.00790801
0.007956
0.00800389
0.00805169
0.0080994
0.00814703
0.00819459
0.00824208
0.00828952
0.00833692
0.00838427
0.00843159
0.00847888
0.00852615
0.00857343
0.00862074
0.00866809
0.00871545
0.00876284
0.00881024
0.00885766
0.00890511
0.00895257
0.00900005
0.00904754
0.00909504
0.00914254
0.00919003
0.00923749
0.00928492
0.00933228
0.00937956
0.00942673
0.00947375
0.00952059
0.00956721
0.00961356
0.00965958
0.00970521
0.00975041
0.0097951
0.00983923
0.00988274
0.00992563
0.00778333
0.00783453
0.00788577
0.00793701
0.00798823
0.00803946
0.00809068
0.00814192
0.00819317
0.00824444
0.00829573
0.00834705
0.00839841
0.00844982
0.00850127
0.00855277
0.00860434
0.00865597
0.00870767
0.00875945
0.0088113
0.00886324
0.00891526
0.0089674
0.00901968
0.00907209
0.00912454
0.00917695
0.00922928
0.00928151
0.0093336
0.00938551
0.0094372
0.00948862
0.00953971
0.00959039
0.00964058
0.00969019
0.00973911
0.0097872
0.00983433
0.00988033
0.00992501
0.00996815
0.0100095
0.0100488
0.0100858
0.01012
0.0101512
0.010179
0.00858894
0.00864781
0.00870698
0.00876643
0.00882616
0.00888616
0.00894644
0.00900699
0.00906783
0.00912895
0.00919034
0.00925203
0.009314
0.00937626
0.00943882
0.00950167
0.00956481
0.00962826
0.00969201
0.00975606
0.0098204
0.00988504
0.00994997
0.0100152
0.0100807
0.0101464
0.0102125
0.010279
0.0103455
0.0104115
0.0104771
0.010542
0.0106062
0.0106694
0.0107314
0.010792
0.010851
0.0109081
0.0109629
0.011015
0.0110641
0.0111095
0.0111507
0.011187
0.0112177
0.0112419
0.0112586
0.0112668
0.0112652
0.0112526
0.0117539
0.0118348
0.0119176
0.012002
0.0120879
0.0121754
0.0122644
0.0123548
0.0124467
0.0125401
0.0126349
0.0127312
0.0128289
0.012928
0.0130285
0.0131305
0.0132338
0.0133385
0.0134446
0.013552
0.0136607
0.0137707
0.013882
0.0139944
0.0141079
0.0142225
0.0143381
0.0144546
0.0145724
0.0146909
0.014808
0.0149227
0.0150346
0.015143
0.0152472
0.0153465
0.01544
0.0155266
0.0156052
0.0156742
0.0157321
0.0157769
0.0158063
0.0158177
0.0158077
0.0157724
0.0157065
0.0156037
0.015456
0.0152521
0.0287894
0.0289265
0.0290683
0.0292146
0.0293655
0.0295209
0.0296809
0.0298453
0.0300143
0.0301877
0.0303657
0.0305483
0.0307354
0.030927
0.0311232
0.031324
0.0315293
0.0317391
0.0319535
0.0321722
0.0323954
0.0326229
0.0328545
0.0330903
0.0333299
0.0335733
0.0338202
0.0340703
0.0343233
0.0345796
0.0348411
0.0351066
0.0353675
0.0356217
0.035868
0.0361051
0.0363309
0.0365431
0.036739
0.0369153
0.0370681
0.0371929
0.0372839
0.0373344
0.0373356
0.0372762
0.0371406
0.0369077
0.0365506
0.0360311
0.115436
0.115555
0.11569
0.115837
0.115996
0.116165
0.116344
0.116535
0.116736
0.116947
0.11717
0.117403
0.117646
0.1179
0.118164
0.118438
0.118722
0.119016
0.119318
0.11963
0.11995
0.120277
0.120612
0.120953
0.121299
0.121649
0.122002
0.122357
0.122713
0.123067
0.123418
0.123766
0.12412
0.124482
0.124853
0.12523
0.125615
0.126006
0.126403
0.126804
0.127209
0.127617
0.128025
0.128433
0.128839
0.12924
0.129633
0.130015
0.130382
0.130727
0.941093
0.915547
0.891425
0.868593
0.846901
0.826215
0.806404
0.787404
0.769165
0.751644
0.734804
0.718609
0.703028
0.68803
0.673588
0.659675
0.646266
0.633338
0.620869
0.608839
0.597226
0.586014
0.575184
0.56472
0.554606
0.544826
0.535369
0.526218
0.517364
0.508792
0.500493
0.492455
0.484669
0.477125
0.469815
0.46273
0.455862
0.449205
0.442738
0.43644
0.430301
0.42431
0.418456
0.412727
0.407109
0.401581
0.396118
0.390678
0.385185
0.379498
0.929455
0.887359
0.848051
0.811243
0.776787
0.744518
0.714304
0.685979
0.659388
0.634391
0.610863
0.588687
0.567762
0.547994
0.529297
0.511595
0.494816
0.478898
0.46378
0.449409
0.435735
0.422714
0.410303
0.398464
0.387162
0.376362
0.366036
0.356154
0.34669
0.337619
0.328919
0.320569
0.312547
0.304833
0.29741
0.29026
0.283365
0.27671
0.270293
0.264112
0.258158
0.252417
0.24688
0.241536
0.236376
0.231388
0.226563
0.221891
0.217358
0.212947
0.929404
0.887197
0.847667
0.810679
0.77604
0.743573
0.713106
0.684479
0.657546
0.632176
0.608248
0.585655
0.564298
0.544089
0.524946
0.506796
0.489572
0.473211
0.457656
0.442857
0.428764
0.415334
0.402526
0.390302
0.378628
0.367471
0.356801
0.346591
0.336814
0.327447
0.318467
0.309853
0.301586
0.293648
0.286023
0.278696
0.271651
0.264874
0.258353
0.252076
0.246031
0.240209
0.234599
0.229193
0.223982
0.218959
0.214115
0.209445
0.204942
0.200599
0.929405
0.8875
0.848317
0.81165
0.777288
0.74504
0.714738
0.686227
0.659369
0.63404
0.610127
0.587527
0.566147
0.545902
0.526713
0.508509
0.491225
0.4748
0.459179
0.444311
0.430149
0.416649
0.403771
0.391478
0.379735
0.36851
0.357775
0.3475
0.337661
0.328233
0.319195
0.310525
0.302204
0.294214
0.286538
0.279161
0.272068
0.265245
0.258678
0.252357
0.24627
0.240407
0.234757
0.229311
0.224062
0.219001
0.21412
0.209414
0.204874
0.200494
0.929405
0.887507
0.848309
0.811599
0.777181
0.744876
0.714519
0.685964
0.659072
0.633721
0.609795
0.587191
0.565815
0.54558
0.526406
0.508221
0.490958
0.474556
0.458959
0.444116
0.429979
0.416504
0.403651
0.391382
0.379662
0.368459
0.357744
0.347489
0.337669
0.328258
0.319236
0.310581
0.302274
0.294297
0.286634
0.279267
0.272183
0.265368
0.258809
0.252494
0.246412
0.240552
0.234905
0.22946
0.22421
0.219146
0.214261
0.209548
0.204998
0.200606
0.929405
0.88753
0.848379
0.811728
0.777377
0.745142
0.714854
0.686362
0.659527
0.634224
0.610339
0.587768
0.566417
0.5462
0.527039
0.508861
0.491602
0.475199
0.459599
0.44475
0.430604
0.417119
0.404254
0.391972
0.380238
0.369021
0.358291
0.348021
0.338185
0.328758
0.31972
0.311049
0.302726
0.294732
0.287052
0.279669
0.272568
0.265737
0.259161
0.252829
0.246729
0.240851
0.235185
0.229721
0.224451
0.219367
0.214459
0.209722
0.205147
0.200727
0.929405
0.887535
0.848393
0.811748
0.777397
0.745156
0.714856
0.686348
0.659495
0.634174
0.61027
0.587682
0.566316
0.546086
0.526914
0.508727
0.491461
0.475054
0.459451
0.4446
0.430454
0.416969
0.404106
0.391827
0.380097
0.368884
0.358159
0.347893
0.338062
0.328641
0.319607
0.310941
0.302623
0.294635
0.286959
0.27958
0.272484
0.265655
0.259082
0.252753
0.246655
0.240778
0.235112
0.229647
0.224375
0.219287
0.214375
0.209632
0.205049
0.200619
0.929405
0.887538
0.848403
0.811769
0.77743
0.745202
0.714917
0.686425
0.659589
0.634284
0.610396
0.587824
0.566472
0.546255
0.527094
0.508917
0.491659
0.475259
0.459661
0.444814
0.430671
0.417188
0.404325
0.392045
0.380314
0.369098
0.35837
0.3481
0.338264
0.328838
0.319799
0.311127
0.302802
0.294806
0.287123
0.279736
0.272631
0.265793
0.259211
0.252871
0.246762
0.240873
0.235194
0.229716
0.22443
0.219326
0.214398
0.209636
0.205034
0.200583
0.929405
0.887539
0.848407
0.811776
0.777441
0.745214
0.71493
0.686437
0.659598
0.634289
0.610397
0.587818
0.56646
0.546237
0.527069
0.508887
0.491623
0.475217
0.459614
0.444763
0.430616
0.41713
0.404264
0.391982
0.380249
0.369032
0.358302
0.348032
0.338195
0.328768
0.319729
0.311056
0.302731
0.294734
0.28705
0.279663
0.272556
0.265717
0.259133
0.252791
0.246679
0.240787
0.235104
0.229621
0.224329
0.219218
0.214282
0.209511
0.204898
0.200437
0.929405
0.88754
0.848409
0.81178
0.777446
0.745222
0.714941
0.68645
0.659614
0.634308
0.610419
0.587843
0.566489
0.546268
0.527104
0.508924
0.491663
0.47526
0.459659
0.44481
0.430664
0.417179
0.404314
0.392032
0.380299
0.369081
0.358351
0.348079
0.338241
0.328812
0.319771
0.311095
0.302767
0.294768
0.28708
0.279688
0.272577
0.265733
0.259143
0.252794
0.246675
0.240775
0.235084
0.229592
0.224289
0.219167
0.214218
0.209434
0.204806
0.200329
0.929405
0.88754
0.848409
0.81178
0.777446
0.745222
0.714941
0.68645
0.659614
0.634307
0.610418
0.587843
0.566488
0.546267
0.527103
0.508923
0.491661
0.475257
0.459656
0.444806
0.43066
0.417174
0.404309
0.392026
0.380291
0.369073
0.358341
0.348068
0.338229
0.328798
0.319755
0.311078
0.302747
0.294745
0.287054
0.279659
0.272545
0.265696
0.259102
0.252748
0.246623
0.240717
0.235018
0.229518
0.224206
0.219075
0.214115
0.209318
0.204678
0.200186
0.929405
0.887539
0.848407
0.811776
0.77744
0.745214
0.71493
0.686437
0.659597
0.634288
0.610395
0.587816
0.566457
0.546233
0.527065
0.508882
0.491617
0.47521
0.459606
0.444754
0.430605
0.417117
0.40425
0.391966
0.38023
0.36901
0.358277
0.348003
0.338163
0.328731
0.319687
0.311009
0.302677
0.294674
0.286982
0.279585
0.272469
0.265618
0.259021
0.252664
0.246535
0.240625
0.234921
0.229415
0.224097
0.218958
0.213989
0.209183
0.204532
0.200028
0.929405
0.887538
0.848403
0.811769
0.77743
0.745201
0.714917
0.686424
0.659587
0.634281
0.610393
0.58782
0.566467
0.546249
0.527087
0.508909
0.491649
0.475247
0.459647
0.444797
0.430651
0.417166
0.404299
0.392016
0.38028
0.36906
0.358326
0.34805
0.338207
0.328774
0.319726
0.311044
0.302709
0.294701
0.287004
0.279602
0.272479
0.265622
0.259018
0.252653
0.246517
0.240597
0.234884
0.229367
0.224037
0.218885
0.213903
0.209082
0.204416
0.199895
0.929405
0.887535
0.848393
0.811748
0.777397
0.745155
0.714855
0.686346
0.659493
0.634171
0.610266
0.587677
0.56631
0.546079
0.526905
0.508716
0.491448
0.475038
0.459432
0.444579
0.430429
0.416941
0.404074
0.39179
0.380054
0.368835
0.358103
0.347829
0.337989
0.328558
0.319513
0.310835
0.302502
0.294497
0.286803
0.279404
0.272284
0.265429
0.258826
0.252463
0.246327
0.240408
0.234694
0.229176
0.223844
0.218689
0.213702
0.208876
0.204203
0.199674
0.929405
0.88753
0.848379
0.811728
0.777377
0.745141
0.714853
0.68636
0.659524
0.63422
0.610333
0.587761
0.566409
0.54619
0.527026
0.508846
0.491584
0.475178
0.459574
0.444721
0.430571
0.41708
0.404209
0.39192
0.380179
0.368954
0.358215
0.347934
0.338086
0.328647
0.319594
0.310907
0.302565
0.294551
0.286847
0.279438
0.272308
0.265443
0.258829
0.252455
0.246307
0.240376
0.234649
0.229118
0.223771
0.218601
0.213598
0.208755
0.204063
0.199515
0.929405
0.887507
0.848309
0.811599
0.777181
0.744875
0.714518
0.685961
0.659069
0.633716
0.609789
0.587184
0.565806
0.545569
0.526392
0.508204
0.490938
0.474533
0.458933
0.444085
0.429943
0.416462
0.403603
0.391326
0.379598
0.368387
0.357661
0.347395
0.337561
0.328135
0.319096
0.310422
0.302094
0.294092
0.286401
0.279004
0.271885
0.26503
0.258426
0.252061
0.245922
0.239998
0.234278
0.228751
0.22341
0.218243
0.213242
0.208399
0.203707
0.199157
0.929405
0.8875
0.848317
0.811649
0.777287
0.745039
0.714736
0.686224
0.659365
0.634035
0.61012
0.587518
0.566136
0.545888
0.526696
0.508489
0.491201
0.474772
0.459146
0.444273
0.430105
0.416598
0.403712
0.391411
0.379658
0.368423
0.357675
0.347387
0.337533
0.328088
0.31903
0.310339
0.301994
0.293977
0.286271
0.27886
0.271729
0.264862
0.258248
0.251872
0.245724
0.239791
0.234064
0.228532
0.223185
0.218014
0.213012
0.208171
0.203484
0.198945
0.929404
0.887197
0.847667
0.810679
0.77604
0.743571
0.713104
0.684476
0.657542
0.63217
0.608241
0.585646
0.564287
0.544076
0.52493
0.506778
0.48955
0.473185
0.457627
0.442823
0.428725
0.41529
0.402477
0.390247
0.378566
0.367402
0.356724
0.346506
0.33672
0.327344
0.318354
0.30973
0.301451
0.293501
0.285862
0.278518
0.271454
0.264657
0.258114
0.251812
0.24574
0.239889
0.234248
0.22881
0.223566
0.218511
0.21364
0.208951
0.204446
0.200135
0.929455
0.887359
0.848051
0.811243
0.776787
0.744517
0.714303
0.685978
0.659388
0.634391
0.610863
0.588689
0.567765
0.547998
0.529303
0.511603
0.494828
0.478914
0.463801
0.449436
0.43577
0.422759
0.410359
0.398534
0.387248
0.376469
0.366167
0.356315
0.346886
0.337858
0.329208
0.320918
0.312967
0.30534
0.29802
0.290994
0.284247
0.27777
0.27155
0.265578
0.259847
0.254349
0.249081
0.244037
0.239219
0.234629
0.230276
0.226182
0.222389
0.218986
0.941093
0.915547
0.891425
0.868593
0.846901
0.826215
0.806404
0.787402
0.769161
0.751638
0.734796
0.718598
0.703014
0.688012
0.673565
0.659646
0.646231
0.633296
0.620818
0.608778
0.597154
0.585928
0.575083
0.564602
0.554468
0.544666
0.535182
0.526001
0.517112
0.508501
0.500156
0.492066
0.48422
0.476607
0.469218
0.462042
0.455069
0.448292
0.4417
0.435286
0.429039
0.422953
0.417017
0.411224
0.405563
0.400027
0.394604
0.389283
0.384049
0.378885
0.172117
0.0507491
0.030319
0.0280363
0.0268873
0.0265186
0.0257262
0.0252448
0.0245812
0.0240316
0.023474
0.0228722
0.022413
0.0217558
0.0213934
0.020659
0.0205873
0.0213556
0.0347147
0.121153
0.172541
0.050996
0.030536
0.0282512
0.0271008
0.0267277
0.0259328
0.0254471
0.0247807
0.024227
0.0236665
0.0230608
0.0225987
0.0219377
0.0215724
0.0208341
0.0207605
0.0215323
0.0349415
0.121497
0.172971
0.0512356
0.0307544
0.0284688
0.027317
0.0269396
0.0261421
0.0256519
0.0249828
0.024425
0.0238616
0.0232519
0.0227869
0.022122
0.0217538
0.0210116
0.020936
0.0217113
0.0351664
0.121812
0.173405
0.051473
0.0309746
0.0286888
0.0275358
0.0271539
0.0263538
0.0258593
0.0251874
0.0246253
0.0240591
0.0234454
0.0229775
0.0223088
0.0219376
0.0211915
0.0211138
0.0218915
0.0353767
0.122131
0.173842
0.0517107
0.0311968
0.0289113
0.0277571
0.0273707
0.0265681
0.0260691
0.0253945
0.0248282
0.0242591
0.0236414
0.0231705
0.0224979
0.0221237
0.0213738
0.0212938
0.0220723
0.035582
0.122455
0.174283
0.0519497
0.0314215
0.0291364
0.027981
0.0275901
0.0267851
0.0262815
0.0256041
0.0250336
0.0244616
0.0238398
0.023366
0.0226896
0.0223122
0.0215586
0.021476
0.0222541
0.0357855
0.122783
0.174728
0.0521906
0.0316487
0.0293642
0.0282077
0.0278122
0.0270046
0.0264964
0.0258163
0.0252415
0.0246666
0.0240408
0.0235639
0.0228837
0.0225031
0.0217458
0.0216605
0.0224375
0.0359887
0.123115
0.175177
0.0524337
0.0318785
0.0295946
0.028437
0.0280369
0.0272268
0.026714
0.0260312
0.025452
0.0248742
0.0242443
0.0237644
0.0230803
0.0226966
0.0219354
0.0218474
0.0226228
0.0361926
0.123451
0.175629
0.0526791
0.0321111
0.0298278
0.0286692
0.0282644
0.0274518
0.0269343
0.0262487
0.0256652
0.0250845
0.0244504
0.0239674
0.0232795
0.0228926
0.0221275
0.0220367
0.0228101
0.0363978
0.123792
0.176086
0.0529271
0.0323465
0.0300638
0.0289042
0.0284946
0.0276796
0.0271573
0.026469
0.025881
0.0252974
0.0246592
0.0241731
0.0234813
0.0230912
0.0223221
0.0222284
0.0229996
0.0366046
0.124137
0.176546
0.0531778
0.0325849
0.0303027
0.029142
0.0287276
0.0279101
0.0273831
0.0266921
0.0260996
0.025513
0.0248707
0.0243814
0.0236858
0.0232924
0.0225193
0.0224226
0.0231913
0.0368133
0.124486
0.17701
0.0534311
0.0328262
0.0305444
0.0293828
0.0289635
0.0281436
0.0276117
0.026918
0.026321
0.0257314
0.0250849
0.0245925
0.023893
0.0234963
0.0227191
0.0226195
0.0233855
0.0370241
0.124839
0.177479
0.0536872
0.0330705
0.0307891
0.0296266
0.0292023
0.02838
0.0278433
0.0271467
0.0265453
0.0259526
0.0253019
0.0248063
0.0241029
0.0237028
0.0229216
0.0228189
0.0235822
0.0372373
0.125197
0.177951
0.0539461
0.0333178
0.0310368
0.0298735
0.0294441
0.0286194
0.0280777
0.0273784
0.0267724
0.0261767
0.0255218
0.025023
0.0243156
0.0239122
0.0231268
0.023021
0.0237814
0.0374528
0.125559
0.178428
0.0542079
0.0335683
0.0312876
0.0301234
0.029689
0.0288618
0.0283151
0.0276131
0.0270024
0.0264037
0.0257445
0.0252425
0.0245311
0.0241243
0.0233348
0.0232258
0.0239833
0.037671
0.125925
0.178909
0.0544726
0.033822
0.0315415
0.0303765
0.0299369
0.0291074
0.0285556
0.0278508
0.0272355
0.0266337
0.0259702
0.0254649
0.0247495
0.0243392
0.0235456
0.0234334
0.0241879
0.0378918
0.126296
0.179394
0.0547402
0.0340789
0.0317986
0.0306328
0.0301879
0.029356
0.0287992
0.0280916
0.0274716
0.0268668
0.026199
0.0256903
0.0249709
0.0245571
0.0237593
0.0236438
0.0243952
0.0381154
0.126672
0.179884
0.0550109
0.034339
0.0320589
0.0308924
0.0304422
0.0296079
0.029046
0.0283356
0.0277109
0.0271029
0.0264307
0.0259188
0.0251952
0.0247779
0.0239759
0.0238571
0.0246055
0.0383418
0.127052
0.180378
0.0552846
0.0346025
0.0323225
0.0311553
0.0306997
0.0298631
0.0292959
0.0285827
0.0279533
0.0273421
0.0266657
0.0261503
0.0254227
0.0250018
0.0241956
0.0240734
0.0248186
0.0385713
0.127437
0.180877
0.0555614
0.0348695
0.0325894
0.0314215
0.0309606
0.0301216
0.0295492
0.0288332
0.0281989
0.0275846
0.0269037
0.026385
0.0256532
0.0252287
0.0244182
0.0242926
0.0250347
0.0388037
0.127827
0.181381
0.0558415
0.0351398
0.0328598
0.0316913
0.0312248
0.0303835
0.0298058
0.029087
0.0284479
0.0278303
0.0271451
0.0266229
0.025887
0.0254588
0.024644
0.0245149
0.0252539
0.0390393
0.128222
0.181889
0.0561247
0.0354137
0.0331337
0.0319646
0.0314925
0.0306489
0.0300658
0.0293442
0.0287002
0.0280794
0.0273897
0.026864
0.0261239
0.0256921
0.024873
0.0247404
0.0254762
0.0392781
0.128622
0.182402
0.0564112
0.0356912
0.0334111
0.0322414
0.0317637
0.0309177
0.0303293
0.0296048
0.0289559
0.0283319
0.0276378
0.0271085
0.0263642
0.0259286
0.0251052
0.024969
0.0257016
0.0395203
0.129026
0.182921
0.0567011
0.0359724
0.0336921
0.0325219
0.0320386
0.0311902
0.0305963
0.029869
0.0292151
0.0285878
0.0278892
0.0273564
0.0266079
0.0261685
0.0253408
0.0252009
0.0259303
0.0397658
0.129437
0.183444
0.0569943
0.0362572
0.0339768
0.0328061
0.032317
0.0314664
0.030867
0.0301367
0.0294779
0.0288473
0.0281442
0.0276077
0.026855
0.0264118
0.0255797
0.0254361
0.0261624
0.0400148
0.129852
0.183972
0.057291
0.0365459
0.0342652
0.0330942
0.0325992
0.0317462
0.0311413
0.0304082
0.0297443
0.0291104
0.0284027
0.0278626
0.0271056
0.0266585
0.025822
0.0256747
0.0263978
0.0402673
0.130273
0.184506
0.0575913
0.0368384
0.0345575
0.0333861
0.0328852
0.0320299
0.0314194
0.0306834
0.0300144
0.0293771
0.0286649
0.0281211
0.0273598
0.0269087
0.0260679
0.0259167
0.0266368
0.0405235
0.1307
0.185045
0.0578952
0.0371348
0.0348537
0.0336819
0.033175
0.0323175
0.0317012
0.0309623
0.0302883
0.0296476
0.0289308
0.0283833
0.0276176
0.0271626
0.0263173
0.0261623
0.0268792
0.0407833
0.131132
0.185589
0.0582027
0.0374353
0.0351538
0.0339817
0.0334688
0.032609
0.031987
0.0312452
0.030566
0.0299219
0.0292005
0.0286492
0.0278792
0.0274202
0.0265704
0.0264115
0.0271253
0.041047
0.13157
0.186139
0.058514
0.0377398
0.035458
0.0342857
0.0337666
0.0329045
0.0322768
0.0315321
0.0308477
0.0302002
0.0294741
0.0289189
0.0281446
0.0276815
0.0268272
0.0266643
0.0273751
0.0413146
0.132014
0.186694
0.0588291
0.0380485
0.0357663
0.0345937
0.0340686
0.0332041
0.0325706
0.0318229
0.0311333
0.0304823
0.0297516
0.0291926
0.0284138
0.0279466
0.0270878
0.0269209
0.0276286
0.0415862
0.132465
0.187255
0.0591481
0.0383614
0.0360788
0.0349061
0.0343746
0.033508
0.0328686
0.0321179
0.0314231
0.0307685
0.0300331
0.0294702
0.028687
0.0282156
0.0273524
0.0271814
0.027886
0.0418618
0.132921
0.187822
0.059471
0.0386786
0.0363956
0.0352227
0.034685
0.033816
0.0331708
0.0324171
0.031717
0.0310589
0.0303187
0.0297519
0.0289643
0.0284886
0.0276208
0.0274457
0.0281473
0.0421416
0.133384
0.188395
0.059798
0.0390002
0.0367168
0.0355438
0.0349997
0.0341285
0.0334772
0.0327206
0.0320151
0.0313535
0.0306085
0.0300377
0.0292457
0.0287657
0.0278934
0.027714
0.0284127
0.0424256
0.133853
0.188974
0.060129
0.0393263
0.0370423
0.0358694
0.0353188
0.0344453
0.0337881
0.0330284
0.0323175
0.0316523
0.0309026
0.0303277
0.0295312
0.0290469
0.02817
0.0279864
0.0286821
0.0427139
0.134328
0.18956
0.0604642
0.039657
0.0373725
0.0361995
0.0356424
0.0347667
0.0341033
0.0333407
0.0326244
0.0319555
0.031201
0.0306221
0.029821
0.0293323
0.0284509
0.028263
0.0289558
0.0430067
0.134811
0.190151
0.0608037
0.0399922
0.0377072
0.0365343
0.0359706
0.0350926
0.0344232
0.0336575
0.0329357
0.0322632
0.0315039
0.0309208
0.0301153
0.0296221
0.028736
0.0285437
0.0292337
0.043304
0.1353
0.190749
0.0611475
0.0403323
0.0380467
0.0368738
0.0363035
0.0354233
0.0347477
0.0339789
0.0332517
0.0325755
0.0318112
0.031224
0.0304139
0.0299163
0.0290256
0.0288288
0.0295159
0.0436059
0.135796
0.191353
0.0614957
0.0406771
0.0383909
0.0372182
0.0366411
0.0357587
0.0350769
0.034305
0.0335723
0.0328923
0.0321232
0.0315318
0.0307171
0.0302149
0.0293196
0.0291183
0.0298026
0.0439125
0.1363
0.191963
0.0618483
0.0410268
0.03874
0.0375675
0.0369836
0.036099
0.0354109
0.0346359
0.0338977
0.0332139
0.0324399
0.0318443
0.031025
0.0305182
0.0296182
0.0294124
0.0300939
0.0442239
0.13681
0.192581
0.0622055
0.0413815
0.0390941
0.0379219
0.0373311
0.0364442
0.0357498
0.0349718
0.0342279
0.0335404
0.0327614
0.0321615
0.0313376
0.0308261
0.0299214
0.029711
0.0303898
0.0445402
0.137328
0.193205
0.0625674
0.0417413
0.0394532
0.0382813
0.0376836
0.0367945
0.0360938
0.0353126
0.0345631
0.0338717
0.0330878
0.0324835
0.031655
0.0311388
0.0302294
0.0300143
0.0306904
0.0448616
0.137854
0.193836
0.062934
0.0421063
0.0398175
0.038646
0.0380413
0.03715
0.0364428
0.0356585
0.0349033
0.0342081
0.0334192
0.0328105
0.0319774
0.0314564
0.0305423
0.0303224
0.0309958
0.045188
0.138387
0.194473
0.0633053
0.0424766
0.0401871
0.0390159
0.0384042
0.0375107
0.036797
0.0360096
0.0352487
0.0345496
0.0337557
0.0331426
0.0323048
0.0317789
0.0308601
0.0306354
0.0313062
0.0455196
0.138928
0.195118
0.0636815
0.0428522
0.040562
0.0393913
0.0387724
0.0378767
0.0371566
0.0363659
0.0355993
0.0348963
0.0340974
0.0334798
0.0326373
0.0321066
0.031183
0.0309534
0.0316216
0.0458566
0.139477
0.19577
0.0640627
0.0432333
0.0409424
0.0397722
0.0391461
0.0382483
0.0375216
0.0367277
0.0359554
0.0352484
0.0344444
0.0338222
0.032975
0.0324394
0.031511
0.0312765
0.0319422
0.0461989
0.140035
0.196429
0.064449
0.04362
0.0413284
0.0401587
0.0395254
0.0386253
0.037892
0.037095
0.0363168
0.0356058
0.0347968
0.0341701
0.0333181
0.0327775
0.0318443
0.0316047
0.032268
0.0465469
0.1406
0.197095
0.0648403
0.0440124
0.04172
0.0405509
0.0399103
0.0390081
0.0382681
0.0374678
0.0366839
0.0359689
0.0351547
0.0345234
0.0336667
0.033121
0.032183
0.0319383
0.0325992
0.0469004
0.141174
0.197769
0.0652369
0.0444105
0.0421174
0.040949
0.040301
0.0393966
0.03865
0.0378464
0.0370566
0.0363375
0.0355183
0.0348823
0.0340208
0.03347
0.0325272
0.0322774
0.0329359
0.0472598
0.141757
0.19845
0.0656388
0.0448146
0.0425207
0.0413531
0.0406976
0.039791
0.0390377
0.0382309
0.0374352
0.036712
0.0358876
0.0352469
0.0343806
0.0338246
0.032877
0.032622
0.0332781
0.047625
0.142348
0.199139
0.0660461
0.0452247
0.04293
0.0417631
0.0411002
0.0401915
0.0394313
0.0386213