/*--------------------------------*- C++ -*----------------------------------*\
  =========                 |
  \\      /  F ield         | OpenFOAM: The Open Source CFD Toolbox
   \\    /   O peration     | Website:  https://openfoam.org
    \\  /    A nd           | Version:  8
     \\/     M anipulation  |
\*---------------------------------------------------------------------------*/
FoamFile
{
    version     2.0;
    format      ascii;
    class       volScalarField;
    location    "200";
    object      p;
}
// * * * * * * * * * * * * * * * * * * * * * * * * * * * * * * * * * * * * * //

dimensions      [1 -1 -2 0 0 0 0];

internalField   nonuniform List<scalar> 
8400
(
11724.6
11727.8
11734
11740.6
11747.8
11755.6
11763.9
11772.8
11782.3
11792.4
11803.4
11815.2
11828
11841.8
11856.9
11873.4
11891.4
11911.4
11933.3
11957.8
11985
12015.5
12049.6
12088.1
12131.5
12180.7
12236.6
12300.2
12372.8
12455.6
12550.4
12658.9
12783.3
12926.1
13090.1
13278.6
13495.4
13745
14032.7
14364.5
14747.7
15190.6
15704
16301.8
17000.6
17814.5
18758.4
19891.6
21381.8
23327.8
11615
11611
11614.9
11620.4
11627
11634.1
11641.8
11650
11658.7
11668.1
11678
11688.8
11700.4
11713
11726.7
11741.7
11758.1
11776.2
11796.2
11818.5
11843.3
11871.1
11902.3
11937.5
11977.3
12022.5
12073.9
12132.5
12199.5
12276
12363.7
12464.3
12579.6
12712.2
12864.5
13039.7
13241.2
13473
13739.8
14047.1
14401
14808.5
15278.1
15820.4
16446.7
17165.3
17983.1
18930.2
20090.2
21516.4
11536.3
11545.7
11554.8
11562.9
11571.2
11579.8
11588.9
11598.4
11608.5
11619.2
11630.7
11642.9
11656.1
11670.4
11685.9
11702.7
11721.1
11741.1
11763.3
11787.8
11815
11845.3
11879.2
11917.1
11959.8
12008
12062.5
12124.3
12194.6
12274.6
12365.8
12470
12589.1
12725.4
12881.6
13060.6
13265.9
13501.5
13772
14082.7
14439.4
14849.1
15319.5
15859.8
16479
17184.3
17981.2
18884.4
19924.6
21098.1
11387.3
11386.2
11390.4
11396.5
11403.3
11410.5
11417.9
11425.7
11433.8
11442.4
11451.4
11461
11471.4
11482.5
11494.6
11507.8
11522.1
11537.8
11555.2
11574.5
11596.1
11620.1
11647.1
11677.5
11711.9
11750.9
11795.3
11845.9
11903.7
11969.9
12045.7
12132.8
12232.8
12347.7
12479.9
12631.9
12806.9
13008.2
13240
13506.7
13813.4
14165.9
14570.7
15035.1
15566.4
16170.6
16853.1
17623
18494.9
19465.8
11336.9
11357.9
11370.8
11380.9
11390.3
11399.5
11408.9
11418.5
11428.4
11438.9
11449.9
11461.5
11473.9
11487.1
11501.3
11516.6
11533.2
11551.3
11571
11592.7
11616.6
11643
11672.3
11704.9
11741.4
11782.4
11828.5
11880.5
11939.4
12006.1
12081.9
12168.1
12266.4
12378.4
12506.1
12652
12818.6
13009
13226.5
13474.8
13758
14080.6
14447.3
14863.2
15332.6
15858.8
16443.2
17087.8
17799
18575.6
11170
11168.7
11172.7
11179.3
11186.5
11194
11201.5
11209.1
11217
11225.1
11233.6
11242.6
11251.9
11261.9
11272.7
11284.3
11296.8
11310.4
11325.4
11341.9
11360.1
11380.3
11402.9
11428.2
11456.6
11488.7
11525
11566.1
11613
11666.5
11727.6
11797.5
11877.6
11969.4
12074.7
12195.5
12334.1
12493.3
12675.8
12884.9
13124.3
13397.7
13709
14062.3
14461.2
14907.9
15402.7
15944.5
16535.4
17176.2
11141.3
11166.1
11180.1
11190.6
11199.9
11208.8
11217.7
11226.6
11235.6
11244.9
11254.5
11264.4
11274.8
11285.7
11297.2
11309.4
11322.5
11336.6
11351.8
11368.3
11386.3
11406
11427.7
11451.6
11478.1
11507.6
11540.6
11577.5
11619.1
11666
11719.1
11779.3
11847.6
11925.2
12013.4
12114
12228.7
12359.5
12508.5
12678.4
12871.8
13091.4
13340.2
13621.1
13936.6
14288.5
14676.3
15098.7
15557.5
16055.1
10963.7
10960.8
10964.1
10970.8
10978.2
10985.7
10993.2
11000.8
11008.5
11016.3
11024.3
11032.5
11041
11049.9
11059.2
11069.1
11079.7
11091
11103.1
11116.3
11130.7
11146.4
11163.6
11182.6
11203.6
11227
11253
11282.1
11314.8
11351.7
11393.4
11440.6
11494
11554.7
11623.7
11702.2
11791.7
11893.5
12009.5
12141.5
12291.6
12461.6
12653.9
12870.5
13113.2
13383.1
13679.7
14002
14351.4
14731.3
10945.4
10970.8
10984.4
10994.4
11003
11011.2
11019.1
11026.9
11034.6
11042.3
11050
11057.8
11065.7
11073.9
11082.2
11090.9
11099.8
11109.2
11119.1
11129.6
11140.8
11152.8
11165.7
11179.7
11194.8
11211.3
11229.4
11249.4
11271.6
11296.3
11323.9
11354.8
11389.6
11428.9
11473.3
11523.7
11580.9
11645.9
11719.9
11804.1
11899.9
12008.6
12131.9
12271.2
12428.1
12603.5
12797.5
13009.8
13242.4
13499.1
10762.7
10759.4
10762.1
10768.5
10775.6
10782.8
10790
10797.1
10804.2
10811.2
10818.2
10825.3
10832.4
10839.7
10847.1
10854.7
10862.5
10870.6
10879
10887.8
10897
10906.8
10917.1
10928
10939.6
10951.9
10965.1
10979.2
10994.5
11011
11028.9
11048.4
11069.7
11093.1
11118.8
11147.1
11178.5
11213.4
11252.2
11295.6
11344.1
11398.6
11459.9
11528.9
11606.6
11694.2
11792.1
11901.3
12024.2
12165.5
10747.6
10772.6
10785.6
10795
10803
10810.3
10817.3
10824
10830.5
10836.8
10843
10848.9
10854.7
10860.4
10865.9
10871.3
10876.6
10881.7
10886.7
10891.6
10896.4
10901
10905.5
10909.8
10913.9
10917.8
10921.3
10924.5
10927.3
10929.7
10931.5
10932.7
10933.2
10933
10932
10929.9
10926.9
10922.8
10917.5
10911
10903.4
10894.7
10885.3
10875.7
10866.6
10858.9
10854.1
10854.2
10862.6
10884.6
10565.7
10562.9
10565.5
10571.3
10577.6
10583.9
10590.1
10596
10601.8
10607.4
10612.8
10618
10623
10627.9
10632.5
10636.9
10641
10644.9
10648.5
10651.8
10654.7
10657.1
10659
10660.3
10660.9
10660.5
10659.1
10656.4
10652.2
10646.3
10638.2
10627.7
10614.5
10598
10577.7
10553.1
10523.4
10488.1
10446.3
10397.3
10340.4
10274.8
10200
10115.8
10022.4
9920.52
9811.95
9699.6
9588.04
9484.68
10547.5
10571.7
10584.3
10593.2
10600.7
10607.4
10613.6
10619.4
10625
10630.3
10635.3
10639.9
10644.2
10648.2
10651.6
10654.5
10656.9
10658.7
10659.9
10660.3
10659.8
10658.3
10655.6
10651.7
10646.2
10638.9
10629.5
10617.5
10602.6
10584.4
10562.2
10535.5
10503.5
10465.5
10420.6
10367.6
10305.5
10232.9
10148.6
10051
9938.63
9810.17
9664.33
9500.13
9317.37
9116.61
8899.85
8671.14
8437.07
8206.94
10374.1
10373.2
10375.9
10381
10386.2
10391.1
10395.7
10399.9
10403.9
10407.5
10410.8
10413.6
10416
10417.9
10419.3
10420
10419.9
10419.1
10417.3
10414.5
10410.5
10405.1
10398.1
10389.2
10378.2
10364.6
10348.1
10328
10303.9
10275.1
10240.9
10200.4
10152.7
10096.5
10030.7
9953.72
9863.9
9759.38
9638.08
9497.73
9335.91
9150.14
8937.92
8697.02
8425.86
8123.72
7791.51
7433.01
7056.25
6675.56
10346.2
10368.6
10380.3
10388.3
10394.9
10400.6
10405.9
10410.8
10415.5
10419.7
10423.6
10427.2
10430.2
10432.8
10434.7
10435.8
10436.2
10435.5
10433.7
10430.7
10426.2
10419.9
10411.6
10401.1
10387.9
10371.5
10351.4
10327
10297.5
10262.3
10220.2
10170.2
10111
10041
9958.57
9861.69
9748.09
9615.23
9460.25
9279.94
9070.84
8829.24
8551.29
8233.58
7873.21
7468.38
7018.92
6528.52
6008.45
5479.16
10193.4
10193.9
10196.6
10200.3
10203.9
10207.2
10210.1
10212.7
10214.8
10216.5
10217.7
10218.4
10218.5
10217.9
10216.3
10213.8
10210.2
10205.3
10198.9
10190.7
10180.6
10168.3
10153.4
10135.5
10114.1
10088.7
10058.5
10022.8
9980.77
9931.42
9873.54
9805.75
9726.51
9634
9526.15
9400.59
9254.57
9084.96
8888.25
8660.47
8397.19
8093.5
7744.1
7343.73
6887.5
6371.08
5790.08
5142.41
4437.08
3704.95
10150.1
10166.2
10174.6
10180.2
10184.7
10188.7
10192.4
10195.9
10199.1
10202.1
10204.6
10206.8
10208.4
10209.4
10209.6
10208.9
10207.2
10204.2
10199.7
10193.5
10185.3
10174.9
10161.8
10145.6
10125.7
10101.6
10072.6
10038
9996.91
9948.33
9890.84
9822.92
9742.86
9648.6
9537.78
9407.73
9255.26
9076.7
8867.78
8623.7
8338.77
8006.44
7619.3
7169.04
6647.44
6046.15
5354.3
4560.31
3670.8
2736.12
10036.9
10029.4
10029.1
10030.1
10031.5
10032.9
10034.4
10035.6
10036.5
10037
10037
10036.5
10035.3
10033.3
10030.2
10026
10020.4
10013.2
10004
9992.78
9979.06
9962.55
9942.79
9919.28
9891.4
9858.5
9819.82
9774.37
9720.77
9657.71
9583.79
9497.3
9396.19
9277.93
9139.68
8978.23
8789.79
8569.92
8313.39
8014.12
7664.96
7257.6
6782.1
6227
5580.54
4831.38
3964.15
2953.85
1787.68
528.971
9968.29
9967.14
9968.72
9969.87
9971.33
9973.03
9974.82
9976.56
9978.11
9979.41
9980.38
9980.91
9980.84
9980.03
9978.31
9975.5
9971.38
9965.72
9958.26
9948.75
9936.89
9922.31
9904.58
9883.19
9857.54
9827
9790.82
9748.08
9697.6
9638
9567.68
9485.21
9388.9
9276.05
9143.63
8988.45
8806.83
8594.39
8345.99
8055.5
7715.74
7318.25
6852.4
6305.2
5662.64
4911.96
4033.9
2975.08
1650.38
84.7948
9875.28
9862.81
9860.15
9859.03
9859.03
9859.61
9860.41
9861.22
9861.86
9862.24
9862.24
9861.73
9860.55
9858.53
9855.5
9851.24
9845.54
9838.13
9828.77
9817.16
9802.98
9785.86
9765.31
9740.8
9711.73
9677.45
9637.16
9589.96
9534.77
9470.31
9395.03
9306.4
9201.46
9077.89
8933.12
8763.63
8565.24
8332.99
8060.96
7741.99
7367.5
6926.78
6406.06
5787.1
5048.06
4166.29
3106.4
1765.25
-65.2526
-2429.93
18801
10639
6606.05
5087.73
4253.39
3644.59
3220.93
2936.69
2736.64
2585.69
2466.14
2368.11
2285.06
2212.52
2147.41
2087.61
2031.57
1978.1
1926.26
1875.26
1824.41
1773.06
1720.61
1666.42
1609.83
1550.15
1486.58
1418.25
1344.15
1263.12
1173.84
1074.78
964.209
840.13
700.047
541.016
359.609
151.817
-87.1822
-363.331
-683.782
-1057.15
-1494.1
-2008.13
-2616.73
-3343.35
-4220.93
-5298.73
-6657.16
-8432.89
-6831.36
-2242.06
-740.336
-174.064
260.256
585.901
810.33
970.502
1089.46
1178.42
1244.63
1293.54
1329.04
1353.85
1369.92
1378.67
1381.16
1378.15
1370.2
1357.67
1340.78
1319.63
1294.19
1264.31
1229.76
1190.14
1144.98
1093.63
1035.29
968.926
893.321
807.077
708.489
595.521
465.943
317.047
145.569
-52.4102
-281.482
-547.079
-855.875
-1216.04
-1637.56
-2132.77
-2717.09
-3410.09
-4236.72
-5228.48
-6422.89
-7853.84
400.476
2570.62
3753.8
3856.49
3699.87
3528.27
3342.02
3150.89
2972.61
2813.61
2672.98
2548.21
2436.92
2336.88
2246.08
2162.76
2085.44
2012.84
1943.88
1877.6
1813.16
1749.77
1686.68
1623.15
1558.46
1491.81
1422.43
1349.45
1271.93
1188.8
1098.8
1000.43
891.938
771.243
636.05
483.733
311.178
114.692
-110.125
-368.43
-666.287
-1010.95
-1411.09
-1877.07
-2421.3
-3058.47
-3805.58
-4681.18
-5702.48
-6877.77
651.576
1060.68
1252.21
1180.6
1078.41
1035.06
1023.49
1021.32
1025.69
1035.68
1048.45
1061.39
1072.97
1082.32
1088.95
1092.54
1092.92
1090.01
1083.75
1074.09
1060.98
1044.32
1023.94
999.647
971.118
937.951
899.67
855.654
805.207
747.592
681.864
606.804
520.994
422.82
310.262
180.954
32.1246
-139.485
-337.701
-566.983
-832.538
-1140.46
-1497.86
-1912.88
-2394.75
-2953.49
-3599.26
-4340.77
-5181.87
-6115.76
1093.1
1342.17
1658.83
1890.53
2030.46
2119.77
2172.15
2191.17
2184.9
2162.06
2128.46
2087.71
2042.27
1993.93
1943.85
1892.8
1841.2
1789.3
1737.15
1684.72
1631.88
1578.43
1524.09
1468.59
1411.52
1352.46
1290.82
1225.89
1156.89
1082.94
1003.03
916.047
820.682
715.4
598.377
467.494
320.309
153.982
-34.7726
-249.748
-495.295
-776.374
-1098.57
-1468.01
-1891.23
-2374.68
-2924
-3542.51
-4228.86
-4974.25
1199.27
1284.89
1393.01
1455.07
1457.75
1429.69
1391.33
1349.14
1306.1
1264.96
1227.17
1192.92
1161.84
1133.38
1106.98
1082.06
1058.09
1034.58
1011.09
987.206
962.546
936.745
909.438
880.225
848.752
814.631
777.385
736.501
691.383
641.303
585.436
522.846
452.446
372.956
282.886
180.503
63.8058
-69.5117
-222.097
-396.962
-597.502
-827.484
-1091
-1392.33
-1735.71
-2124.84
-2562.16
-3047.75
-3577.56
-4142.06
1214.84
1259.23
1330.96
1403.19
1458.57
1499.51
1531.17
1554.24
1568.4
1574.36
1573.3
1566.22
1553.94
1537.18
1516.6
1492.75
1466.08
1436.96
1405.67
1372.41
1337.32
1300.47
1261.84
1221.33
1178.8
1134.04
1086.81
1036.78
983.533
926.556
865.232
798.842
726.545
647.35
560.099
463.446
355.84
235.507
100.431
-51.6533
-223.25
-417.071
-635.962
-882.756
-1160.03
-1469.72
-1812.55
-2187.3
-2589.81
-3012.75
1175.79
1197.99
1235.78
1275.78
1303.97
1316.9
1317.11
1307.24
1289.3
1265.33
1237.33
1206.86
1175.04
1142.63
1110.16
1077.93
1046.09
1014.67
983.624
952.857
922.222
891.538
860.589
829.162
796.99
763.778
729.216
692.955
654.601
613.705
569.76
522.195
470.357
413.501
350.772
281.193
203.657
116.916
19.5744
-89.9035
-213.176
-351.982
-508.066
-683.046
-878.22
-1094.27
-1330.88
-1586.21
-1856.31
-2135.03
1109.65
1123.25
1148.33
1178.97
1206.49
1226.82
1240.08
1247.32
1249.27
1246.55
1239.84
1229.77
1216.81
1201.37
1183.76
1164.24
1143.03
1120.31
1096.2
1070.83
1044.28
1016.6
987.817
957.949
926.963
894.8
861.375
826.571
790.233
752.163
712.12
669.814
624.902
576.98
525.579
470.158
410.102
344.72
273.249
194.864
108.698
13.8778
-90.4143
-204.849
-329.821
-465.261
-610.416
-763.58
-921.843
-1081.34
1026.21
1036.3
1055.5
1080.06
1103.01
1119.74
1129.06
1131.35
1127.29
1117.69
1103.52
1085.75
1065.23
1042.67
1018.64
993.574
967.818
941.615
915.137
888.497
861.766
834.981
808.156
781.284
754.339
727.282
700.065
672.629
644.904
616.809
588.252
559.129
529.324
498.707
467.136
434.454
400.495
365.084
328.049
289.224
248.473
205.708
160.926
114.255
66.0154
16.7991
-32.4368
-80.2669
-124.682
-163.146
929.828
939.944
959.184
983.829
1006.89
1023.77
1033.28
1035.8
1032.02
1022.77
1009.02
991.743
971.812
949.952
926.746
902.657
878.044
853.177
828.261
803.446
778.843
754.538
730.599
707.085
684.045
661.531
639.598
618.307
597.729
577.949
559.065
541.197
524.487
509.103
495.249
483.165
473.137
465.507
460.677
459.121
461.395
468.141
480.097
498.093
523.041
555.919
597.73
649.449
711.948
785.975
820.475
834.142
859.357
890.243
918.097
938.864
952.676
960.593
963.359
961.62
956.072
947.363
936.02
922.472
907.082
890.166
872.005
852.851
832.935
812.476
791.677
770.74
749.862
729.242
709.085
689.603
671.023
653.589
637.57
623.263
611.001
601.163
594.178
590.54
590.815
595.655
605.808
622.133
645.609
677.343
718.577
770.673
835.099
913.378
1007.01
1117.36
1245.5
1391.99
1556.66
1738.7
693.729
716.038
754.063
794.456
823.193
836.849
837.973
829.232
812.666
790.359
764.33
736.198
707.138
677.988
649.339
621.594
595.016
569.77
545.958
523.648
502.893
483.742
466.26
450.531
436.67
424.826
415.192
408.011
403.581
402.266
404.502
410.81
421.807
438.218
460.894
490.826
529.161
577.22
636.512
708.742
795.812
899.803
1022.93
1167.48
1335.62
1529.28
1749.77
1997.49
2271.45
2569.66
539.745
584.283
656.334
729.103
785.236
827.169
860.055
884.638
900.616
908.759
910.299
906.303
897.663
885.198
869.666
851.744
832.031
811.058
789.304
767.201
745.152
723.538
702.728
683.094
665.018
648.903
635.184
624.34
616.902
613.472
614.733
621.467
634.572
655.083
684.192
723.273
773.904
837.889
917.284
1014.41
1131.85
1272.44
1439.21
1635.28
1863.68
2127.06
2427.22
2764.59
3137.32
3541.5
330.946
416.753
525.279
587.994
591.61
564.777
527.984
487.714
447.015
408.68
374.229
343.929
317.496
294.511
274.533
257.147
241.999
228.814
217.406
207.665
199.56
193.131
188.487
185.806
185.336
187.393
192.371
200.75
213.097
230.086
252.51
281.293
317.518
362.442
417.527
484.466
565.21
662.006
777.423
914.38
1076.16
1266.41
1489.09
1748.37
2048.46
2393.23
2785.68
3227.16
3716.16
4248.61
31.3104
280.612
597.727
830.201
971.228
1061.99
1116.18
1137.37
1133.73
1114.08
1084.3
1048.08
1008
965.965
923.317
880.984
839.621
799.709
761.615
725.642
692.055
661.115
633.091
608.284
587.035
569.743
556.874
548.98
546.708
550.821
562.217
581.949
611.252
651.568
704.579
772.244
856.834
960.977
1087.7
1240.47
1423.24
1640.46
1897.06
2198.39
2550.06
2957.57
3425.68
3957.31
4551.6
5203.14
-603.938
-194.622
-2.60962
-73.3735
-174.343
-216.06
-225.6
-225.265
-217.856
-204.22
-187.129
-169.077
-151.474
-135.022
-120.062
-106.699
-94.8614
-84.3544
-74.8998
-66.1612
-57.7564
-49.2631
-40.2189
-30.1185
-18.407
-4.47138
12.3705
32.8836
57.9313
88.4945
125.693
170.811
225.324
290.934
369.607
463.612
575.571
708.515
865.943
1051.89
1270.98
1528.53
1830.54
2183.8
2595.73
3074.25
3627.18
4261.2
4979.47
5780.44
-1049.12
1121.2
2304.94
2408.57
2253.28
2083.38
1899.27
1710.91
1535.97
1380.95
1245.02
1125.84
1021.13
928.847
847.154
774.522
709.724
651.801
600.026
553.864
512.952
477.073
446.149
420.224
399.466
384.164
374.731
371.714
375.804
387.851
408.884
440.135
483.068
539.41
611.193
700.801
811.024
945.121
1106.9
1300.79
1531.98
1806.49
2131.35
2514.71
2966.01
3495.99
4116.56
4840
5676.4
6631.06
-8475.53
-3886
-2383.62
-1816.33
-1380.63
-1053.26
-826.562
-663.592
-541.227
-448.179
-377.102
-322.426
-280.11
-247.27
-221.767
-201.94
-186.46
-174.241
-164.362
-156.018
-148.477
-141.053
-133.075
-123.869
-112.739
-98.9411
-81.6723
-60.0457
-33.0698
0.37461
41.5622
91.9527
153.226
227.319
316.477
423.3
550.811
702.528
882.553
1095.69
1347.56
1644.8
1995.27
2408.37
2895.41
3470.16
4149.49
4953.97
5907.22
7035.4
16962
8800.28
4768.02
3250.68
2417.74
1810.88
1389.66
1108.34
911.822
765.126
650.64
558.607
482.641
418.423
363.098
314.779
272.196
234.496
201.118
171.725
146.15
124.369
106.481
92.6995
83.3487
78.8647
79.8023
86.8452
100.82
122.714
153.7
195.159
248.718
316.282
400.087
502.746
627.32
777.397
957.183
1171.63
1426.59
1729.02
2087.28
2511.57
3014.54
3612.44
4326.96
5188.86
6245.1
7577.79
-20496.2
-15893
-14324.3
-10375.5
-8411.47
-5001.44
-2903.17
145.397
2246.88
5049.71
7077.06
9715.12
11610.5
14152.7
15857.2
18374.9
19804.6
22382.4
23381.6
26008
-20531.3
-15940.5
-14381.8
-10434.7
-8477.63
-5065.95
-2973.38
77.5288
2174.65
4979.78
7003.71
9644.47
11537.2
14083.4
15786.8
18311.6
19744.1
22336.9
23349.9
26015
-20574.9
-15986.5
-14437.3
-10491.2
-8540.85
-5128.01
-3040.59
12.2347
2105.36
4912.79
6933.66
9577.31
11468.1
14018.3
15721.7
18252.7
19689
22292.5
23315.2
25997.9
-20623.1
-16033.3
-14491.9
-10545.8
-8601.81
-5187.77
-3105.31
-50.5878
2038.66
4848.45
6866.41
9513.01
11402.1
13956.2
15659.6
18195.9
19635.1
22245.9
23273.6
25964.1
-20673.5
-16080.9
-14546.1
-10599.2
-8661.14
-5245.69
-3168.02
-111.356
1974.09
4786.26
6801.37
9450.86
11338.2
13895.8
15598.9
18139.7
19580.5
22196
23225.7
25920.8
-20725.1
-16129
-14599.9
-10651.9
-8719.25
-5302.16
-3229.14
-170.461
1911.24
4725.76
6737.99
9390.24
11275.6
13836.4
15538.9
18083.1
19524.3
22143.2
23172.8
25871.2
-20777.3
-16177.4
-14653.4
-10703.8
-8776.42
-5357.51
-3289.01
-228.256
1849.71
4666.54
6675.83
9330.65
11213.9
13777.5
15478.8
18025.7
19466.3
22087.7
23116.3
25817.3
-20829.6
-16225.8
-14706.7
-10755.2
-8832.84
-5411.96
-3347.9
-285.037
1789.19
4608.27
6614.54
9271.74
11152.7
13718.6
15418.4
17967.5
19406.8
22030.1
23057
25760.2
-20882
-16274
-14759.6
-10806.2
-8888.67
-5465.71
-3406.03
-341.046
1729.45
4550.67
6553.84
9213.21
11091.6
13659.7
15357.5
17908.5
19345.8
21970.6
22995.5
25700.9
-20934.3
-16322.1
-14812.3
-10856.8
-8944.02
-5518.9
-3463.55
-396.461
1670.27
4493.55
6493.52
9154.88
11030.6
13600.5
15296.1
17848.6
19283.8
21909.8
22932.4
25639.8
-20986.3
-16370
-14864.7
-10907
-8998.95
-5571.64
-3520.61
-451.43
1611.5
4436.75
6433.44
9096.63
10969.6
13541.1
15234.2
17788
19220.7
21847.8
22867.9
25577.3
-21038.2
-16417.6
-14916.9
-10956.9
-9053.52
-5624
-3577.29
-506.053
1553.05
4380.18
6373.52
9038.4
10908.4
13481.3
15171.8
17726.8
19156.8
21784.9
22802.4
25513.8
-21089.8
-16465
-14968.7
-11006.5
-9107.77
-5676.05
-3633.65
-560.407
1494.85
4323.77
6313.69
8980.13
10847.2
13421.3
15109
17665.1
19092.3
21721.2
22736.1
25449.4
-21141.1
-16512
-15020.3
-11055.7
-9161.73
-5727.8
-3689.74
-614.531
1436.85
4267.47
6253.93
8921.82
10785.7
13361.1
15045.8
17602.9
19027.2
21656.9
22669.1
25384.3
-21192.1
-16558.7
-15071.6
-11104.7
-9215.41
-5779.29
-3745.59
-668.454
1379.02
4211.27
6194.23
8863.47
10724.2
13300.6
14982.3
17540.3
18961.7
21592
22601.5
25318.6
-21242.8
-16605.1
-15122.6
-11153.4
-9268.82
-5830.53
-3801.2
-722.192
1321.36
4155.16
6134.59
8805.08
10662.6
13240
14918.7
17477.4
18895.8
21526.8
22533.5
25252.6
-21293.2
-16651.2
-15173.3
-11201.8
-9321.96
-5881.52
-3856.58
-775.75
1263.86
4099.14
6075.01
8746.67
10600.9
13179.2
14854.8
17414.3
18829.6
21461.3
22465.2
25186.2
-21343.3
-16697
-15223.7
-11249.9
-9374.82
-5932.26
-3911.72
-829.125
1206.53
4043.21
6015.52
8688.27
10539.3
13118.4
14790.9
17351.1
18763.3
21395.6
22396.7
25119.6
-21393
-16742.4
-15273.8
-11297.7
-9427.41
-5982.75
-3966.63
-882.313
1149.38
3987.4
5956.14
8629.91
10477.6
13057.5
14726.8
17287.7
18696.8
21329.7
22328
25052.8
-21442.5
-16787.5
-15323.6
-11345.2
-9479.72
-6032.98
-4021.29
-935.304
1092.43
3931.72
5896.88
8571.62
10416
12996.7
14662.8
17224.3
18630.3
21263.8
22259.2
24986
-21491.6
-16832.3
-15373.1
-11392.4
-9531.74
-6082.96
-4075.7
-988.089
1035.68
3876.19
5837.78
8513.41
10354.5
12935.9
14598.9
17160.9
18563.8
21197.9
22190.4
24919.1
-21540.4
-16876.7
-15422.3
-11439.3
-9583.47
-6132.68
-4129.86
-1040.66
979.149
3820.83
5778.87
8455.34
10293.2
12875.2
14535
17097.6
18497.4
21132
22121.6
24852.3
-21588.9
-16920.9
-15471.2
-11485.8
-9634.92
-6182.13
-4183.74
-1093.01
922.863
3765.65
5720.15
8397.42
10232
12814.6
14471.3
17034.4
18431.1
21066.2
22052.9
24785.6
-21637.1
-16964.7
-15519.8
-11532.1
-9686.09
-6231.32
-4237.35
-1145.11
866.832
3710.69
5661.67
8339.67
10171
12754.1
14407.7
16971.4
18364.9
21000.5
21984.4
24719
-21685
-17008.1
-15568.2
-11578.2
-9736.96
-6280.23
-4290.68
-1196.98
811.071
3655.94
5603.44
8282.13
10110.3
12693.9
14344.4
16908.5
18298.9
20935.1
21916
24652.7
-21732.5
-17051.3
-15616.2
-11623.9
-9787.55
-6328.87
-4343.72
-1248.58
755.591
3601.43
5545.48
8224.81
10049.8
12633.9
14281.3
16845.8
18233.1
20869.8
21847.9
24586.5
-21779.8
-17094.2
-15663.9
-11669.3
-9837.84
-6377.24
-4396.47
-1299.93
700.405
3547.17
5487.8
8167.72
9989.52
12574.1
14218.4
16783.4
18167.6
20804.8
21780
24520.6
-21826.8
-17136.7
-15711.4
-11714.4
-9887.83
-6425.32
-4448.9
-1351
645.524
3493.16
5430.41
8110.88
9929.56
12514.5
14155.8
16721.2
18102.3
20740
21712.3
24454.9
-21873.5
-17179
-15758.5
-11759.2
-9937.51
-6473.11
-4501.03
-1401.8
590.956
3439.43
5373.33
8054.3
9869.91
12455.2
14093.5
16659.2
18037.3
20675.5
21644.9
24389.6
-21919.8
-17220.9
-15805.4
-11803.8
-9986.88
-6520.6
-4552.83
-1452.3
536.712
3385.97
5316.57
7997.99
9810.55
12396.1
14031.5
16597.6
17972.6
20611.3
21577.8
24324.5
-21965.9
-17262.5
-15851.9
-11847.9
-10035.9
-6567.78
-4604.29
-1502.51
482.802
3332.8
5260.14
7941.96
9751.52
12337.4
13969.7
16536.2
17908.2
20547.4
21511
24259.7
-22011.6
-17303.7
-15898.1
-11891.8
-10084.6
-6614.65
-4655.41
-1552.42
429.237
3279.92
5204.05
7886.22
9692.81
12278.9
13908.3
16475.1
17844.1
20483.7
21444.4
24195.2
-22056.9
-17344.6
-15943.9
-11935.3
-10133
-6661.18
-4706.18
-1602.01
376.027
3227.35
5148.31
7830.78
9634.45
12220.7
13847.3
16414.2
17780.3
20420.4
21378.2
24131
-22101.9
-17385
-15989.4
-11978.5
-10180.9
-6707.38
-4756.58
-1651.27
323.183
3175.09
5092.93
7775.64
9576.43
12162.8
13786.5
16353.7
17716.8
20357.4
21312.2
24067.2
-22146.5
-17425.2
-16034.5
-12021.3
-10228.5
-6753.22
-4806.6
-1700.21
270.711
3123.14
5037.91
7720.81
9518.77
12105.3
13726.1
16293.5
17653.7
20294.6
21246.6
24003.6
-22190.8
-17464.9
-16079.2
-12063.7
-10275.8
-6798.72
-4856.24
-1748.81
218.617
3071.52
4983.26
7666.29
9461.46
12048
13666.1
16233.7
17590.8
20232.2
21181.3
23940.3
-22234.6
-17504.2
-16123.6
-12105.7
-10322.6
-6843.85
-4905.49
-1797.08
166.904
3020.22
4928.99
7612.09
9404.53
11991
13606.4
16174.1
17528.3
20170.1
21116.3
23877.4
-22278.1
-17543.1
-16167.5
-12147.4
-10369
-6888.63
-4954.36
-1845
115.574
2969.25
4875.09
7558.21
9347.96
11934.4
13547
16114.9
17466.2
20108.4
21051.6
23814.9
-22321.2
-17581.6
-16211.1
-12188.7
-10415.1
-6933.06
-5002.85
-1892.6
64.6257
2918.59
4821.57
7504.65
9291.76
11878.1
13488
16056
17404.4
20047
20987.3
23752.6
-22363.9
-17619.8
-16254.3
-12229.6
-10460.8
-6977.15
-5050.95
-1939.86
14.059
2868.26
4768.43
7451.42
9235.95
11822.2
13429.5
15997.4
17343
19985.9
20923.3
23690.8
-22406.2
-17657.6
-16297.2
-12270.1
-10506.1
-7020.89
-5098.67
-1986.8
-36.1275
2818.25
4715.68
7398.51
9180.52
11766.5
13371.2
15939.2
17282
19925.3
20859.8
23629.4
-22448.2
-17695
-16339.7
-12310.4
-10551
-7064.3
-5146.02
-2033.42
-85.9351
2768.56
4663.3
7345.92
9125.47
11711.3
13313.4
15881.4
17221.3
19865
20796.6
23568.3
-22489.9
-17732
-16381.8
-12350.2
-10595.6
-7107.39
-5193
-2079.72
-135.364
2719.19
4611.32
7293.67
9070.82
11656.3
13256
15823.9
17161.1
19805.2
20733.8
23507.7
-22531.2
-17768.7
-16423.7
-12389.8
-10639.9
-7150.16
-5239.62
-2125.7
-184.416
2670.13
4559.72
7241.75
9016.57
11601.8
13199
15766.9
17101.3
19745.7
20671.4
23447.5
-22572.2
-17805.1
-16465.1
-12429
-10683.7
-7192.61
-5285.87
-2171.38
-233.09
2621.39
4508.51
7190.15
8962.7
11547.5
13142.3
15710.1
17041.8
19686.6
20609.4
23387.7
-22612.9
-17841.2
-16506.3
-12467.9
-10727.3
-7234.76
-5331.76
-2216.75
-281.388
2572.96
4457.68
7138.87
8909.22
11493.6
13086.1
15653.8
16982.8
19627.9
20547.8
23328.2
-22653.2
-17876.9
-16547.2
-12506.5
-10770.5
-7276.61
-5377.3
-2261.81
-329.311
2524.85
4407.24
7087.92
8856.13
11440
13030.2
15597.7
16924.1
19569.5
20486.6
23269.2
-22693.3
-17912.3
-16587.7
-12544.8
-10813.4
-7318.16
-5422.48
-2306.58
-376.86
2477.04
4357.19
7037.28
8803.43
11386.8
12974.7
15542.1
16865.8
19511.5
20425.7
23210.5
-22733.1
-17947.4
-16627.9
-12582.8
-10855.9
-7359.41
-5467.3
-2351.04
-424.036
2429.53
4307.51
6986.95
8751.1
11333.9
12919.6
15486.7
16807.8
19453.9
20365.2
23152.3
-22772.6
-17982.2
-16667.9
-12620.5
-10898.2
-7400.37
-5511.78
-2395.22
-470.84
2382.33
4258.22
6936.93
8699.15
11281.3
12864.9
15431.7
16750.2
19396.6
20305
23094.3
-22811.8
-18016.7
-16707.5
-12657.9
-10940.1
-7441.03
-5555.89
-2439.1
-517.276
2335.42
4209.29
6887.21
8647.57
11229
12810.5
15377
16693
19339.6
20245.2
23036.8
-22850.7
-18050.9
-16746.8
-12695
-10981.6
-7481.41
-5599.65
-2482.69
-563.345
2288.8
4160.74
6837.79
8596.36
11177
12756.5
15322.7
16636.1
19283.1
20185.7
22979.6
-22889.3
-18084.8
-16785.8
-12731.9
-11022.8
-7521.49
-5643.06
-2525.99
-609.051
2242.46
4112.56
6788.67
8545.52
11125.3
12702.8
15268.7
16579.6
19226.8
20126.6
22922.8
-22927.6
-18118.4
-16824.6
-12768.4
-11063.7
-7561.29
-5686.12
-2569.02
-654.396
2196.41
4064.74
6739.84
8495.05
11074
12649.5
15215
16523.5
19171
20067.9
22866.3
-22965.7
-18151.7
-16863
-12804.6
-11104.3
-7600.81
-5728.83
-2611.77
-699.383
2150.63
4017.29
6691.29
8444.96
11022.9
12596.6
15161.6
16467.7
19115.5
20009.5
22810.3
-23003.4
-18184.6
-16901.1
-12840.5
-11144.5
-7640.05
-5771.19
-2654.25
-744.01
2105.13
3970.21
6643.04
8395.24
10972.2
12544.1
15108.6
16412.4
19060.3
19951.5
22754.6
-23040.9
-18217.3
-16938.9
-12876.2
-11184.4
-7679.01
-5813.21
-2696.46
-788.278
2059.91
3923.5
6595.08
8345.89
10921.8
12492
15056
16357.3
19005.5
19893.9
22699.3
-23078
-18249.7
-16976.4
-12911.6
-11224
-7717.71
-5854.88
-2738.39
-832.182
2014.96
3877.16
6547.42
8296.92
10871.7
12440.2
15003.7
16302.7
18951.1
19836.6
22644.4
-23114.9
-18281.8
-17013.6
-12946.7
-11263.2
-7756.13
-5896.21
-2780.06
-875.718
1970.29
3831.2
6500.05
8248.34
10821.9
12388.8
14951.7
16248.5
18897.1
19779.7
22589.9
-23151.5
-18313.6
-17050.5
-12981.5
-11302.2
-7794.27
-5937.17
-2821.45
-918.88
1925.91
3785.62
6452.98
8200.14
10772.4
12337.8
14900.1
16194.6
18843.4
19723.2
22535.8
-23187.8
-18345.1
-17087.1
-13016
-11340.8
-7832.14
-5977.78
-2862.56
-961.663
1881.82
3740.44
6406.21
8152.33
10723.3
12287.2
14848.8
16141.1
18790.1
19667.1
22482.1
-23223.9
-18376.3
-17123.3
-13050.2
-11379
-7869.73
-6018.02
-2903.39
-1004.06
1838.02
3695.65
6359.76
8104.92
10674.5
12237
14797.8
16088
18737.2
19611.3
22428.8
-23259.6
-18407.2
-17159.3
-13084.2
-11416.9
-7907.04
-6057.89
-2943.94
-1046.07
1794.52
3651.26
6313.61
8057.91
10626
12187.2
14747.2
16035.3
18684.6
19556
22375.9
-23295
-18437.8
-17195
-13117.8
-11454.5
-7944.07
-6097.39
-2984.19
-1087.68
1751.31
3607.27
6267.77
8011.3
10577.9
12137.7
14697
15982.9
18632.5
19501
22323.4
-23330.2
-18468
-17230.3
-13151.2
-11491.7
-7980.8
-6136.51
-3024.17
-1128.9
1708.4
3563.69
6222.24
7965.1
10530
12088.7
14647.1
15931
18580.7
19446.5
22271.3
-23365
-18498
-17265.4
-13184.3
-11528.5
-8017.26
-6175.25
-3063.85
-1169.72
1665.78
3520.51
6177.03
7919.31
10482.6
12040.1
14597.6
15879.5
18529.4
19392.3
22219.7
-23399.6
-18527.7
-17300.1
-13217.1
-11565.1
-8053.43
-6213.61
-3103.26
-1210.15
1623.45
3477.74
6132.13
7873.94
10435.4
11991.9
14548.5
15828.5
18478.5
19338.6
22168.5
-23433.9
-18557.1
-17334.5
-13249.6
-11601.2
-8089.33
-6251.59
-3142.39
-1250.18
1581.41
3435.37
6087.54
7828.97
10388.6
11944.1
14499.8
15777.8
18427.9
19285.3
22117.7
-23467.9
-18586.2
-17368.6
-13281.8
-11637
-8124.96
-6289.21
-3181.25
-1289.83
1539.65
3393.41
6043.25
7784.41
10342.2
11896.8
14451.4
15727.6
18377.8
19232.4
22067.4
-23501.6
-18615.1
-17402.4
-13313.8
-11672.5
-8160.33
-6326.45
-3219.84
-1329.08
1498.17
3351.85
5999.27
7740.27
10296
11849.8
14403.4
15677.7
18328.1
19179.9
22017.5
-23535
-18643.6
-17435.9
-13345.5
-11707.6
-8195.43
-6363.32
-3258.17
-1367.94
1456.96
3310.69
5955.59
7696.53
10250.3
11803.3
14355.8
15628.3
18278.8
19127.8
21968
-23568.2
-18671.9
-17469.1
-13376.9
-11742.4
-8230.28
-6399.82
-3296.24
-1406.41
1416.04
3269.94
5912.21
7653.22
10204.8
11757.2
14308.5
15579.4
18229.9
19076.2
21919
-23601.1
-18699.8
-17502
-13408.1
-11776.9
-8264.87
-6435.95
-3334.04
-1444.48
1375.4
3229.61
5869.15
7610.32
10159.7
11711.5
14261.6
15530.8
18181.4
19025
21870.4
-23633.7
-18727.5
-17534.6
-13439
-11811
-8299.19
-6471.69
-3371.57
-1482.14
1335.05
3189.69
5826.41
7567.86
10115
11666.3
14215.2
15482.7
18133.3
18974.2
21822.3
-23666
-18754.9
-17566.9
-13469.6
-11844.7
-8333.25
-6507.04
-3408.83
-1519.38
1295
3150.21
5783.99
7525.84
10070.6
11621.5
14169.1
15435
18085.7
18923.8
21774.6
-23698
-18782.1
-17598.8
-13499.9
-11878.1
-8367.04
-6541.98
-3445.79
-1556.19
1255.26
3111.19
5741.92
7484.27
10026.5
11577.1
14123.4
15387.8
18038.5
18873.9
21727.4
-23729.7
-18808.9
-17630.4
-13530
-11911.1
-8400.54
-6576.51
-3482.47
-1592.56
1215.85
3072.62
5700.19
7443.18
9982.91
11533.2
14078.1
15341
17991.7
18824.5
21680.6
-23761.1
-18835.4
-17661.7
-13559.8
-11943.7
-8433.75
-6610.61
-3518.83
-1628.47
1176.76
3034.52
5658.83
7402.56
9939.67
11489.8
14033.2
15294.7
17945.4
18775.5
21634.3
-23792.2
-18861.6
-17692.6
-13589.3
-11975.9
-8466.66
-6644.27
-3554.88
-1663.91
1138.01
2996.92
5617.84
7362.44
9896.83
11446.9
13988.8
15248.9
17899.6
18727
21588.6
-23823
-18887.4
-17723.2
-13618.4
-12007.7
-8499.25
-6677.47
-3590.6
-1698.87
1099.62
2959.81
5577.23
7322.82
9854.41
11404.5
13944.9
15203.6
17854.2
18679
21543.3
-23853.4
-18913
-17753.4
-13647.2
-12039
-8531.53
-6710.2
-3626
-1733.33
1061.58
2923.21
5537.01
7283.71
9812.41
11362.6
13901.4
15158.8
17809.4
18631.5
21498.6
-23883.4
-18938.1
-17783.1
-13675.7
-12070
-8563.48
-6742.45
-3661.05
-1767.3