/*--------------------------------*- C++ -*----------------------------------*\
  =========                 |
  \\      /  F ield         | OpenFOAM: The Open Source CFD Toolbox
   \\    /   O peration     | Website:  https://openfoam.org
    \\  /    A nd           | Version:  8
     \\/     M anipulation  |
\*---------------------------------------------------------------------------*/
FoamFile
{
    version     2.0;
    format      ascii;
    class       volScalarField;
    location    "200";
    object      p_rgh;
}
// * * * * * * * * * * * * * * * * * * * * * * * * * * * * * * * * * * * * * //

dimensions      [1 -1 -2 0 0 0 0];

internalField   nonuniform List<scalar> 
8400
(
25.4432
30.1282
37.2067
44.6286
52.6054
61.118
70.1783
79.7745
89.9463
100.749
112.264
124.587
137.789
151.998
167.358
184.074
202.344
222.405
244.542
269.098
296.453
327.02
361.32
399.943
443.569
492.978
549.067
612.881
685.63
768.692
863.65
972.348
1096.92
1239.85
1404
1592.67
1809.67
2059.47
2347.31
2679.34
3062.77
3506.09
4019.94
4618.28
5317.69
6132.43
7077.09
8211.32
9703.41
11653.5
14.5472
11.3043
15.7398
22.038
29.3208
37.2063
45.6025
54.4893
63.8667
73.7935
84.3286
95.5695
107.61
120.547
134.528
149.732
166.343
184.588
204.73
227.083
252.006
279.908
311.262
346.617
386.61
431.984
483.587
542.388
609.517
686.28
774.156
874.855
990.39
1123.08
1275.56
1450.84
1652.41
1884.35
2151.36
2458.82
2812.88
3220.66
3690.67
4233.36
4860.06
5579.19
6397.56
7345.29
8506.11
9934.29
34.3994
44.9915
54.7603
63.6705
72.6859
82.0167
91.7642
102.003
112.739
124.049
136.05
148.801
162.423
177.036
192.775
209.832
228.394
248.681
270.977
295.627
322.951
353.358
387.341
425.453
468.321
516.689
571.411
633.455
703.943
784.169
875.605
979.963
1099.24
1235.74
1392.05
1571.18
1776.6
2012.33
2282.99
2593.81
2950.77
3360.7
3831.48
4372.13
4991.82
5697.6
6495.17
7399.14
8440.18
9614.96
-17.1642
-18.0155
-13.3429
-6.55863
0.943909
8.81046
16.9472
25.359
34.12
43.2334
52.8053
62.9219
73.6821
85.19
97.5626
110.938
125.477
141.394
158.945
178.383
200.005
224.172
251.293
281.855
316.416
355.615
400.196
451.021
509.073
575.48
651.548
738.797
838.971
954.065
1086.37
1238.53
1413.62
1615.11
1847
2113.81
2420.67
2773.37
3178.47
3643.19
4174.82
4779.45
5462.47
6232.94
7105.63
8077.36
30.9081
53.4769
67.259
78.1928
88.2732
98.1817
108.221
118.45
129.022
140.014
151.501
163.57
176.348
189.925
204.42
219.974
236.772
254.993
274.88
296.683
320.684
347.205
376.637
409.445
446.143
487.302
533.608
585.868
644.976
711.951
787.982
874.435
972.857
1085.01
1212.94
1358.97
1525.76
1716.3
1933.91
2182.36
2465.74
2788.54
3155.55
3571.7
4041.49
4568.14
5153.11
5798.39
6510.34
7287.88
-39.8177
-40.3623
-35.7057
-28.3437
-20.3519
-12.2465
-4.05988
4.21276
12.646
21.3155
30.2904
39.644
49.4605
59.8416
70.9006
82.7483
95.5126
109.385
124.541
141.182
159.551
179.929
202.651
228.098
256.7
288.949
325.443
366.873
414.014
467.748
529.104
599.258
679.547
771.52
876.967
997.936
1136.75
1296.02
1478.67
1687.97
1927.47
2200.99
2512.55
2866.14
3265.36
3712.52
4207.77
4750.11
5341.67
5983.24
31.5699
58.1269
73.0838
84.4455
94.5259
104.125
113.581
123.03
132.591
142.346
152.347
162.668
173.405
184.641
196.45
208.967
222.302
236.596
251.987
268.64
286.763
306.593
328.393
352.452
379.112
408.78
441.932
479.11
520.932
568.101
621.413
681.776
750.236
828.003
916.479
1017.25
1132.09
1263
1412.23
1582.24
1775.72
1995.5
2244.51
2525.68
2841.58
3193.82
3582.13
4005.18
4464.63
4962.93
-50.5151
-52.6011
-48.5845
-41.1916
-33.0868
-24.8769
-16.7076
-8.55002
-0.357747
7.92018
16.3468
24.9766
33.8803
43.1394
52.846
63.0835
73.9418
85.5244
97.9577
111.377
125.936
141.824
159.246
178.421
199.611
223.139
249.377
278.747
311.735
348.886
390.809
438.207
491.891
552.801
622.021
700.763
790.387
892.438
1008.62
1140.79
1290.96
1461.23
1653.75
1870.61
2113.64
2383.9
2681.03
3003.89
3353.9
3734.37
32.4785
59.4433
74.0853
84.9142
94.2896
103.077
111.541
119.822
128.005
136.133
144.256
152.415
160.678
169.107
177.749
186.653
195.893
205.539
215.664
226.36
237.724
249.865
262.901
276.965
292.216
308.853
327.111
347.259
369.6
394.463
422.227
453.338
488.314
527.757
572.35
622.871
680.208
745.382
819.513
903.842
999.738
1108.67
1232.18
1371.79
1528.97
1704.71
1899.14
2112
2345.15
2602.42
-55.0342
-57.9015
-54.4167
-47.3609
-39.5778
-31.7092
-23.9546
-16.3232
-8.79796
-1.34888
6.07312
13.515
21.0178
28.6234
36.3688
44.2992
52.4553
60.8803
69.6247
78.7483
88.2993
98.3173
108.859
119.991
131.782
144.324
157.732
172.126
187.627
204.373
222.523
242.266
263.821
287.429
313.361
341.943
373.553
408.631
447.683
491.267
540.039
594.771
656.312
725.633
803.778
891.711
990.132
1099.81
1223.24
1365.07
31.3633
57.7038
71.8066
82.0108
90.6929
98.6734
106.211
113.415
120.344
127.039
133.512
139.786
145.895
151.849
157.655
163.318
168.843
174.246
179.534
184.694
189.707
194.557
199.224
203.68
207.889
211.826
215.469
218.766
221.653
224.077
225.983
227.307
227.974
227.885
226.937
225.048
222.136
218.127
212.973
206.642
199.173
190.714
181.557
172.184
163.326
156.022
151.596
152.044
160.864
183.329
-55.0271
-57.6324
-54.4077
-47.9917
-40.9981
-34.0769
-27.3783
-20.9445
-14.7688
-8.83115
-3.11384
2.40484
7.74482
12.8858
17.8182
22.5328
27.0206
31.2715
35.2448
38.8807
42.1236
44.9105
47.1512
48.7321
49.5315
49.4182
48.2263
45.7452
41.7427
35.9756
28.1589
17.9466
4.94056
-11.3157
-31.3455
-55.7292
-85.1032
-120.162
-161.655
-210.35
-266.984
-332.266
-406.706
-490.54
-583.558
-684.958
-793.071
-904.924
-1015.91
-1118.68
27.9227
53.1115
66.6874
76.3678
84.4756
91.7876
98.5702
104.942
110.938
116.585
121.892
126.846
131.431
135.612
139.349
142.598
145.315
147.44
148.892
149.567
149.357
148.134
145.727
141.94
136.561
129.336
119.949
108.039
93.2101
75.0081
52.9044
26.2799
-5.57578
-43.4686
-88.3229
-141.18
-203.19
-275.623
-359.853
-457.304
-569.441
-697.704
-843.351
-1007.28
-1189.75
-1390.2
-1606.65
-1835
-2068.69
-2298.44
-49.3791
-50.436
-47.1648
-41.5665
-35.7871
-30.2731
-25.148
-20.4088
-16.0428
-12.068
-8.49558
-5.34166
-2.64015
-0.4432
1.19171
2.19781
2.49284
1.98484
0.563641
-1.90044
-5.56005
-10.6114
-17.2944
-25.872
-36.6447
-49.9844
-66.3281
-86.1601
-110.033
-138.585
-172.547
-212.773
-260.253
-316.104
-381.624
-458.316
-547.829
-652.028
-773.007
-912.993
-1074.41
-1259.78
-1471.58
-1712
-1982.65
-2284.25
-2615.89
-2973.74
-3349.85
-3729.92
23.2762
46.3573
58.8458
67.5685
74.7038
81.0426
86.8717
92.2933
97.3468
102.021
106.302
110.158
113.531
116.346
118.525
119.978
120.594
120.24
118.767
116.01
111.765
105.774
97.7439
87.3637
74.2686
57.9965
37.9989
13.662
-15.7091
-50.9222
-92.9299
-142.86
-202.012
-271.868
-354.167
-450.919
-564.376
-697.082
-851.902
-1032.01
-1240.9
-1482.27
-1759.9
-2077.3
-2437.32
-2841.79
-3290.82
-3780.76
-4300.42
-4829.29
-32.5946
-32.7529
-29.7545
-25.5478
-21.4093
-17.5987
-14.1776
-11.1552
-8.55464
-6.40643
-4.75957
-3.68167
-3.25855
-3.59208
-4.7944
-6.98722
-10.3136
-14.9414
-21.0572
-28.8767
-38.6561
-50.6873
-65.3125
-82.9525
-104.088
-129.267
-159.165
-194.562
-236.302
-285.382
-342.986
-410.46
-489.372
-581.529
-689.004
-814.205
-959.87
-1129.1
-1325.4
-1552.76
-1815.6
-2118.8
-2467.65
-2867.46
-3323.05
-3838.77
-4419
-5065.86
-5770.4
-6501.76
23.8512
39.9955
49.0571
55.1495
60.2029
64.7792
69.064
73.0844
76.8157
80.2247
83.2488
85.8016
87.7922
89.113
89.6342
89.2182
87.7157
84.9493
80.7093
74.7596
66.835
56.6247
43.756
27.784
8.17404
-15.6938
-44.4969
-79.0078
-120.076
-168.715
-226.217
-294.098
-374.095
-468.234
-578.868
-708.748
-861.059
-1039.45
-1248.13
-1492
-1776.68
-2108.69
-2495.5
-2945.35
-3466.43
-4067.11
-4758.25
-5551.45
-6440.09
-7373.89
7.17115
-0.842805
-0.717123
0.723453
2.69219
4.7706
6.76661
8.53837
9.99723
11.0611
11.629
11.5824
10.7902
9.10814
6.37816
2.43034
-2.9227
-9.90108
-18.755
-29.7545
-43.2079
-59.486
-79.0249
-102.336
-130.016
-162.74
-201.276
-246.561
-299.815
-362.44
-435.955
-522.093
-622.886
-740.757
-878.563
-1039.59
-1227.64
-1447.12
-1703.27
-2002.16
-2350.88
-2757.76
-3232.74
-3787.25
-4433.03
-5181.42
-6047.78
-7057.14
-8222.28
-9480.02
36.8797
35.9799
38.2086
40.0193
42.1265
44.4496
46.851
49.1926
51.369
53.2744
54.7909
55.7896
56.1324
55.6745
54.2574
51.7059
47.8246
42.3959
35.1839
25.9244
14.3021
-0.0561534
-17.5897
-38.8156
-64.3149
-94.7387
-130.848
-173.547
-223.946
-283.388
-353.456
-435.834
-532.305
-645.198
-777.465
-932.427
-1113.83
-1326.06
-1574.29
-1864.6
-2204.12
-2601.37
-3066.9
-3613.68
-4255.74
-5005.82
-5883.1
-6940.87
-8264.31
-9828.63
38.8697
27.9169
26.2405
25.9584
26.6967
27.9554
29.426
30.8904
32.1944
33.2043
33.7806
33.7753
33.033
31.3926
28.6846
24.7172
19.2739
12.1245
3.02145
-8.32283
-22.2491
-39.1585
-59.5226
-83.8781
-112.829
-147.063
-187.369
-234.669
-290.052
-354.796
-430.39
-518.875
-623.006
-745.693
-889.835
-1058.86
-1256.88
-1488.82
-1760.58
-2079.28
-2453.51
-2893.92
-3414.28
-4032.78
-4771.31
-5652.54
-6711.71
-8051.92
-9881.67
-12246.2
28583.2
20421.3
16388.4
14870
14035.6
13426.8
13003.1
12718.8
12518.7
12367.6
12248
12149.8
12066.7
11994
11928.7
11868.8
11812.7
11759.1
11707.1
11656
11605.1
11553.7
11501.1
11446.9
11390.3
11330.5
11266.9
11198.5
11124.4
11043.3
10954
10854.9
10744.3
10620.2
10480.1
10321.1
10139.6
9931.87
9692.9
9416.79
9096.39
8723.09
8286.22
7772.28
7163.77
6437.24
5559.75
4482.03
3123.68
1348.01
3048.45
7637.72
9139.5
9705.79
10140.1
10465.7
10690.1
10850.2
10969.1
11057.9
11124
11172.8
11208.2
11232.9
11248.8
11257.4
11259.8
11256.7
11248.6
11236
11219
11197.8
11172.3
11142.3
11107.7
11068.1
11022.8
10971.4
10913.1
10846.6
10771
10684.7
10586.1
10473.1
10343.5
10194.6
10023.1
9825.15
9596.1
9330.54
9021.8
8661.7
8240.26
7745.14
7160.9
6467.99
5641.45
4649.78
3455.44
2024.56
10378
12548
13731.2
13833.9
13677.3
13505.6
13319.4
13128.2
12949.8
12790.7
12650
12525.1
12413.7
12313.5
12222.6
12139.1
12061.7
11988.9
11919.9
11853.5
11789
11725.5
11662.3
11598.8
11534
11467.3
11397.9
11324.8
11247.3
11164.1
11074.1
10975.7
10867.1
10746.4
10611.2
10458.9
10286.3
10089.8
9865.03
9606.77
9308.96
8964.37
8564.31
8098.41
7554.27
6917.19
6170.17
5294.65
4273.43
3098.22
10726.6
11135.7
11327.2
11255.6
11153.4
11110
11098.4
11096.2
11100.5
11110.4
11123
11135.9
11147.3
11156.5
11163
11166.5
11166.7
11163.7
11157.3
11147.6
11134.4
11117.6
11097.2
11072.8
11044.2
11011
10972.7
10928.6
10878.1
10820.5
10754.7
10679.6
10593.8
10495.6
10383
10253.7
10104.8
9933.24
9735.04
9505.8
9240.29
8932.43
8575.12
8160.18
7678.4
7119.76
6474.07
5732.65
4891.63
3957.82
11265.7
11514.8
11831.4
12063.1
12203
12292.3
12344.6
12363.6
12357.2
12334.3
12300.6
12259.7
12214.2
12165.7
12115.5
12064.3
12012.6
11960.6
11908.3
11855.8
11802.9
11749.3
11694.9
11639.4
11582.2
11523.1
11461.4
11396.5
11327.4
11253.4
11173.5
11086.5
10991.1
10885.7
10768.7
10637.8
10490.6
10324.3
10135.6
9920.62
9675.12
9394.11
9071.99
8702.63
8279.51
7796.15
7246.92
6628.5
5942.23
5196.92
11469.4
11555.1
11663.2
11725.2
11727.9
11699.8
11661.4
11619.1
11576
11534.8
11496.9
11462.5
11431.3
11402.7
11376.2
11351.2
11327.1
11303.4
11279.8
11255.9
11231.1
11205.2
11177.9
11148.6
11117.1
11082.9
11045.6
11004.7
10959.5
10909.4
10853.5
10790.8
10720.4
10640.9
10550.8
10448.4
10331.7
10198.4
10045.8
9871
9670.5
9440.58
9177.14
8875.89
8532.61
8143.58
7706.34
7220.85
6691.13
6126.7
11582.6
11627
11698.7
11770.9
11826.3
11867.2
11898.8
11921.8
11935.9
11941.8
11940.6
11933.4
11921
11904.1
11883.4
11859.4
11832.6
11803.4
11772
11738.7
11703.5
11666.6
11627.8
11587.3
11544.7
11499.9
11452.6
11402.5
11349.2
11292.2
11230.9
11164.4
11092.1
11012.9
10925.6
10828.9
10721.3
10601
10466
10313.9
10142.3
9948.58
9729.77
9483.05
9205.87
8896.28
8553.54
8178.88
7776.47
7353.61
11641.1
11663.3
11701.1
11741.1
11769.2
11782.1
11782.3
11772.4
11754.4
11730.3
11702.2
11671.6
11639.7
11607.1
11574.6
11542.2
11510.2
11478.7
11447.6
11416.7
11386
11355.2
11324.2
11292.7
11260.5
11227.2
11192.6
11156.3
11117.9
11077
11033
10985.4
10933.5
10876.6
10813.9
10744.3
10666.8
10580
10482.7
10373.2
10250
10111.3
9955.25
9780.35
9585.26
9369.31
9132.79
8877.56
8607.55
8328.93
11672.5
11686.1
11711.2
11741.8
11769.3
11789.6
11802.8
11810
11811.9
11809.1
11802.3
11792.1
11779
11763.5
11745.7
11726.1
11704.8
11681.9
11657.7
11632.3
11605.6
11577.9
11549
11519.1
11488
11455.8
11422.3
11387.5
11351.1
11313
11272.9
11230.6
11185.7
11137.7
11086.3
11030.9
10970.8
10905.4
10834
10755.6
10669.5
10574.7
10470.5
10356.1
10231.2
10095.9
9950.84
9797.78
9639.62
9480.22
11686.7
11696.7
11715.9
11740.5
11763.4
11780.1
11789.4
11791.6
11787.5
11777.8
11763.5
11745.6
11725
11702.3
11678.2
11653
11627.1
11600.8
11574.2
11547.5
11520.7
11493.8
11466.9
11440
11413
11385.9
11358.6
11331.1
11303.4
11275.2
11246.7
11217.5
11187.7
11157
11125.4
11092.7
11058.8
11023.4
10986.4
10947.6
10906.8
10864.1
10819.4
10772.8
10724.7
10675.5
10626.4
10578.7
10534.4
10496
11687.8
11698
11717.2
11741.8
11764.9
11781.7
11791.2
11793.6
11789.8
11780.4
11766.6
11749.2
11729.2
11707.2
11683.9
11659.7
11634.9
11610
11585
11560
11535.4
11511
11487
11463.4
11440.3
11417.7
11395.7
11374.4
11353.8
11334
11315.1
11297.2
11280.4
11265
11251.1
11239.1
11229
11221.4
11216.6
11215
11217.4
11224.2
11236.2
11254.2
11279.3
11312.3
11354.2
11406
11468.6
11542.7
11676.1
11689.7
11714.9
11745.8
11773.6
11794.4
11808.1
11816
11818.7
11816.9
11811.2
11802.4
11790.9
11777.3
11761.8
11744.8
11726.5
11707.2
11687.2
11666.7
11645.8
11624.8
11603.8
11583.1
11562.9
11543.4
11524.8
11507.3
11491.2
11476.9
11464.6
11454.7
11447.7
11444.1
11444.3
11449.1
11459.3
11475.6
11499.1
11530.9
11572.1
11624.3
11688.8
11767.1
11860.8
11971.3
12099.5
12246.1
12410.9
12593.1
11646.9
11669.2
11707.2
11747.6
11776.3
11789.9
11791
11782.2
11765.6
11743.2
11717
11688.8
11659.6
11630.4
11601.6
11573.8
11547.1
11521.7
11497.8
11475.4
11454.6
11435.4
11417.8
11402
11388.1
11376.2
11366.5
11359.3
11354.8
11353.5
11355.7
11362
11372.9
11389.3
11412
11441.9
11480.2
11528.3
11587.6
11659.9
11747
11851
11974.2
12118.8
12287
12480.8
12701.4
12949.2
13223.3
13521.6
11590.5
11635
11707
11779.8
11835.9
11877.8
11910.6
11935.2
11951.1
11959.1
11960.6
11956.5
11947.7
11935.2
11919.5
11901.5
11881.7
11860.6
11838.8
11816.6
11794.4
11772.7
11751.9
11732.2
11714
11697.9
11684.1
11673.2
11665.7
11662.3
11663.5
11670.2
11683.3
11703.8
11732.9
11771.9
11822.6
11886.6
11966
12063.1
12180.6
12321.2
12488.1
12684.2
12912.7
13176.2
13476.4
13813.9
14186.8
14591
11479.2
11565
11673.6
11736.3
11739.8
11713
11676.1
11635.8
11595
11556.6
11522.1
11491.7
11465.1
11442.1
11422
11404.5
11389.2
11375.9
11364.4
11354.6
11346.4
11339.9
11335.2
11332.5
11331.9
11333.9
11338.9
11347.2
11359.5
11376.5
11398.9
11427.6
11463.8
11508.7
11563.8
11630.7
11711.5
11808.3
11923.7
12060.7
12222.5
12412.8
12635.5
12894.9
13195.1
13539.9
13932.5
14374.1
14863.2
15395.8
11277.2
11526.5
11843.6
12076
12217
12307.8
12361.9
12383
12379.3
12359.6
12329.7
12293.4
12253.2
12211.1
12168.3
12125.9
12084.4
12044.4
12006.2
11970.2
11936.5
11905.5
11877.4
11852.5
11831.2
11813.9
11801
11793
11790.7
11794.8
11806.2
11825.9
11855.1
11895.4
11948.4
12016.1
12100.7
12204.8
12331.6
12484.4
12667.2
12884.5
13141.1
13442.5
13794.3
14201.9
14670.1
15201.8
15796.2
16447.9
10739.5
11148.8
11340.8
11270
11169
11127.3
11117.7
11118
11125.3
11138.9
11155.9
11173.8
11191.3
11207.7
11222.5
11235.8
11247.5
11258
11267.3
11276
11284.3
11292.7
11301.7
11311.7
11323.4
11337.3
11354.1
11374.5
11399.5
11430.1
11467.2
11512.3
11566.8
11632.4
11711.1
11805.1
11917
12050
12207.4
12393.4
12612.5
12870.1
13172.2
13525.5
13937.5
14416.1
14969.2
15603.3
16321.7
17122.8
10391.9
12562.2
13745.9
13849.5
13694.2
13524.3
13340.1
13151.7
12976.7
12821.6
12685.6
12566.3
12461.5
12369.1
12287.3
12214.6
12149.7
12091.7
12039.8
11993.6
11952.6
11916.6
11885.6
11859.7
11838.8
11823.5
11814
11810.9
11815
11827
11848
11879.2
11922.1
11978.5
12050.2
12139.8
12250.1
12384.2
12546
12739.9
12971.1
13245.7
13570.6
13954
14405.4
14935.5
15556.2
16279.7
17116.2
18071
3063.04
7652.58
9154.94
9722.23
10157.9
10485.2
10711.9
10874.8
10997.1
11090.1
11161.1
11215.6
11257.9
11290.6
11316
11335.7
11351.1
11363.2
11373
11381.3
11388.7
11396.1
11404
11413.2
11424.2
11438
11455.2
11476.8
11503.7
11537.1
11578.3
11628.6
11689.9
11764
11853.1
11959.9
12087.5
12239.2
12419.2
12632.4
12884.3
13181.6
13532.1
13945.3
14432.4
15007.3
15686.7
16491.3
17444.7
18573
28598.1
20436.4
16404.2
14886.8
14053.8
13447
13025.7
12744.3
12547.7
12401
12286.4
12194.3
12118.2
12053.9
11998.5
11950.1
11907.4
11869.6
11836.1
11806.7
11781
11759.2
11741.2
11727.4
11718
11713.4
11714.3
11721.3
11735.3
11757.1
11788.1
11829.5
11883.1
11950.6
12034.4
12137.1
12261.6
12411.7
12591.5
12806
13061
13363.5
13721.8
14146.2
14649.3
15247.2
15961.9
16823.9
17880.2
19213.1
-20414.2
-15811.1
-14242
-10293.1
-8328.69
-4918.55
-2819.92
228.805
2330.61
5133.58
7161.22
9799.41
11695.1
14237.4
15942.3
18460.2
19890.3
22468.2
23467.9
26094.4
-20352.8
-15761.2
-14201
-10252.9
-8294.48
-4881.73
-2787.84
264.174
2362.58
5168.79
7193.97
9835.82
11729.8
14277.1
15981.8
18507.8
19941.7
22535.5
23550
26216.1
-20299.9
-15709.8
-14158.2
-10210
-8257.39
-4842.53
-2752.83
302.055
2397.41
5206.89
7229.96
9875.65
11768.7
14320.9
16026.6
18559.7
19998.3
22603.9
23629
26313.6
-20251.7
-15659.2
-14114.5
-10165.4
-8218.13
-4801.12
-2715.42
342.31
2434.75
5247.54
7268.66
9918.27
11810.5
14367.6
16074.3
18613.7
20056.2
22670
23701.1
26394.5
-20205.8
-15609.6
-14070.4
-10119.7
-8177.35
-4757.97
-2676.11
384.518
2474.11
5290.24
7309.47
9962.93
11854.4
14416
16123.3
18668.1
20113.2
22732.7
23766.7
26465.7
-20161.2
-15560.5
-14026.1
-10073.2
-8135.44
-4713.48
-2635.31
428.28
2515.08
5334.52
7351.85
10009
11899.5
14465.3
16172.9
18722.1
20168.5
22792.4
23827.4
26530.6
-20117.2
-15511.8
-13981.6
-10026.2
-8092.7
-4667.97
-2593.38
473.243
2557.27
5379.98
7395.34
10056.1
11945.4
14514.9
16222.4
18775.3
20222
22849.3
23884.2
26591
-20073.6
-15463.2
-13936.9
-9978.82
-8049.34
-4621.68
-2550.57
519.111
2600.37
5426.28
7439.58
10103.6
11991.7
14564.5
16271.4
18827.4
20273.8
22904
23938.2
26648.2
-20030.1
-15414.7
-13892.1
-9931.07
-8005.49
-4574.81
-2507.12
565.636
2644.11
5473.14
7484.29
10151.5
12038
14613.9
16319.8
18878.6
20324.1
22956.7
23989.8
26702.9
-19986.6
-15366.1
-13847.2
-9883.03
-7961.27
-4527.49
-2463.18
612.634
2688.3
5520.34
7529.26
10199.4
12084.2
14662.9
16367.5
18928.8
20373
23007.9
24039.6
26755.7
-19943
-15317.4
-13802
-9834.76
-7916.76
-4479.84
-2418.9
659.953
2732.78
5567.75
7574.34
10247.3
12130.2
14711.5
16414.6
18978.2
20420.9
23057.7
24087.9
26807
-19899.3
-15268.5
-13756.8
-9786.29
-7872.03
-4431.95
-2374.38
707.481
2777.44
5615.24
7619.43
10295
12176
14759.6
16461
19026.7
20467.7
23106.5
24135.1
26857
-19855.5
-15219.5
-13711.3
-9737.66
-7827.13
-4383.89
-2329.69
755.133
2822.19
5662.73
7664.47
10342.6
12221.4
14807.3
16506.8
19074.6
20513.7
23154.3
24181.2
26905.9
-19811.7
-15170.4
-13665.8
-9688.88
-7782.09
-4335.7
-2284.89
802.853
2866.98
5710.18
7709.4
10389.9
12266.6
14854.6
16552.1
19121.8
20559
23201.3
24226.4
26954.1
-19767.7
-15121.2
-13620.2
-9639.99
-7736.96
-4287.42
-2240.02
850.597
2911.77
5757.54
7754.21
10437
12311.5
14901.5
16597
19168.5
20603.6
23247.6
24270.9
27001.5
-19723.6
-15071.8
-13574.5
-9591
-7691.74
-4239.08
-2195.1
898.334
2956.53
5804.79
7798.87
10483.9
12356.1
14948
16641.4
19214.6
20647.8
23293.3
24314.8
27048.3
-19679.4
-15022.4
-13528.7
-9541.93
-7646.47
-4190.71
-2150.16
946.043
3001.24
5851.93
7843.41
10530.5
12400.4
14994.2
16685.4
19260.4
20691.4
23338.6
24358.2
27094.5
-19635.1
-14972.8
-13482.8
-9492.79
-7601.15
-4142.31
-2105.22
993.711
3045.9
5898.95
7887.8
10577
12444.5
15040.1
16729.2
19305.8
20734.7
23383.4
24401.2
27140.4
-19590.7
-14923.2
-13436.9
-9443.59
-7555.79
-4093.9
-2060.27
1041.33
3090.51
5945.85
7932.08
10623.2
12488.4
15085.8
16772.6
19350.8
20777.6
23427.8
24443.7
27185.8
-19546.3
-14873.4
-13390.9
-9394.35
-7510.4
-4045.49
-2015.33
1088.9
3135.07
5992.64
7976.25
10669.3
12532.2
15131.2
16815.8
19395.6
20820.2
23472
24486
27231
-19501.8
-14823.6
-13344.9
-9345.07
-7465
-3997.07
-1970.39
1136.43
3179.59
6039.33
8020.32
10715.2
12575.8
15176.4
16858.9
19440.2
20862.6
23515.9
24528
27275.9
-19457.3
-14773.8
-13298.9
-9295.76
-7419.57
-3948.66
-1925.46
1183.9
3224.06
6085.93
8064.32
10761
12619.2
15221.5
16901.7
19484.6
20904.8
23559.6
24569.7
27320.6
-19412.7
-14723.9
-13252.8
-9246.42
-7374.13
-3900.26
-1880.53
1231.33
3268.51
6132.45
8108.25
10806.7
12662.6
15266.4
16944.4
19528.8
20946.8
23603.1
24611.3
27365.1
-19368.1
-14673.9
-13206.7
-9197.05
-7328.67
-3851.86
-1835.6
1278.73
3312.94
6178.9
8152.14
10852.3
12705.9
15311.2
16987.1
19572.8
20988.7
23646.5
24652.8
27409.4
-19323.4
-14623.9
-13160.6
-9147.65
-7283.19
-3803.46
-1790.66
1326.1
3357.36
6225.29
8196
10897.8
12749.1
15355.8
17029.6
19616.8
21030.5
23689.7
24694.1
27453.7
-19278.7
-14573.8
-13114.4
-9098.23
-7237.68
-3755.06
-1745.7
1373.45
3401.78
6271.64
8239.83
10943.2
12792.3
15400.4
17072
19660.6
21072.1
23732.9
24735.2
27497.8
-19233.9
-14523.7
-13068.2
-9048.76
-7192.14
-3706.64
-1700.72
1420.77
3446.21
6317.93
8283.65
10988.5
12835.4
15445
17114.4
19704.4
21113.8
23775.9
24776.4
27541.9
-19189.1
-14473.5
-13022
-8999.26
-7146.57
-3658.21
-1655.71
1468.09
3490.66
6364.2
8327.47
11033.8
12878.6
15489.4
17156.8
19748
21155.3
23818.9
24817.4
27585.9
-19144.2
-14423.2
-12975.7
-8949.71
-7100.94
-3609.75
-1610.66
1515.41
3535.13
6410.44
8371.3
11079.1
12921.7
15533.8
17199.1
19791.7
21196.8
23861.9
24858.4
27629.8
-19099.3
-14372.8
-12929.4
-8900.1
-7055.27
-3561.27
-1565.57
1562.73
3579.64
6456.66
8415.14
11124.3
12964.8
15578.2
17241.4
19835.3
21238.3
23904.7
24899.3
27673.7
-19054.3
-14322.4
-12883
-8850.44
-7009.54
-3512.76
-1520.42
1610.05
3624.18
6502.87
8459.02
11169.5
13007.9
15622.5
17283.7
19878.8
21279.7
23947.6
24940.1
27717.5
-19009.2
-14271.9
-12836.5
-8800.72
-6963.74
-3464.21
-1475.22
1657.39
3668.78
6549.08
8502.92
11214.7
13051
15666.8
17326
19922.3
21321.1
23990.4
24981
27761.4
-18964
-14221.3
-12790
-8750.94
-6917.88
-3415.63
-1429.96
1704.74
3713.42
6595.28
8546.87
11259.9
13094.2
15711
17368.2
19965.8
21362.5
24033.2
25021.7
27805.1
-18918.7
-14170.6
-12743.4
-8701.08
-6871.95
-3367
-1384.63
1752.11
3758.12
6641.47
8590.86
11305
13137.4
15755.3
17410.5
20009.2
21403.9
24075.9
25062.5
27848.9
-18873.4
-14119.9
-12696.7
-8651.17
-6825.95
-3318.34
-1339.24
1799.5
3802.87
6687.67
8634.89
11350.2
13180.6
15799.5
17452.8
20052.7
21445.3
24118.6
25103.2
27892.6
-18828
-14069
-12649.9
-8601.19
-6779.88
-3269.64
-1293.79
1846.89
3847.68
6733.86
8678.96
11395.3
13223.8
15843.7
17495.2
20096.1
21486.6
24161.3
25143.9
27936.3
-18782.5
-14018.1
-12603.1
-8551.17
-6733.76
-3220.91
-1248.28
1894.3
3892.53
6780.03
8723.07
11440.4
13267.1
15887.9
17537.5
20139.4
21528
24204
25184.6
27980
-18737
-13967.1
-12556.3
-8501.1
-6687.58
-3172.17
-1202.73
1941.7
3937.43
6826.19
8767.21
11485.4
13310.4
15932
17579.8
20182.8
21569.4
24246.7
25225.2
28023.6
-18691.4
-13916
-12509.4
-8451.01
-6641.37
-3123.42
-1157.13
1989.08
3982.36
6872.33
8811.38
11530.5
13353.7
15976.1
17622.2
20226.1
21610.7
24289.3
25265.9
28067.3
-18645.8
-13864.9
-12462.5
-8400.9
-6595.13
-3074.67
-1111.51
2036.45
4027.32
6918.42
8855.57
11575.5
13397
16020.2
17664.5
20269.4
21652.1
24332
25306.5
28110.9
-18600.1
-13813.8
-12415.6
-8350.78
-6548.87
-3025.94
-1065.87
2083.78
4072.3
6964.48
8899.78
11620.5
13440.4
16064.3
17706.9
20312.7
21693.4
24374.6
25347.1
28154.6
-18554.5
-13762.7
-12368.6
-8300.68
-6502.6
-2977.24
-1020.21
2131.06
4117.29
7010.49
8944
11665.4
13483.7
16108.3
17749.2
20356
21734.7
24417.2
25387.7
28198.2
-18508.9
-13711.6
-12321.7
-8250.6
-6456.34
-2928.58
-974.557
2178.3
4162.29
7056.44
8988.23
11710.2
13527
16152.2
17791.6
20399.2
21776.1
24459.8
25428.2
28241.8
-18463.3
-13660.5
-12274.8
-8200.55
-6410.1
-2879.98
-928.911
2225.47
4207.28
7102.32
9032.45
11755
13570.4
16196.1
17833.9
20442.3
21817.3
24502.3
25468.7
28285.3
-18417.7
-13609.4
-12228
-8150.55
-6363.89
-2831.44
-883.283
2272.56
4252.26
7148.12
9076.65
11799.7
13613.7
16239.9
17876.2
20485.4
21858.5
24544.7
25509.1
28328.8
-18372.2
-13558.4
-12181.2
-8100.62
-6317.71
-2782.97
-837.685
2319.57
4297.22
7193.82
9120.83
11844.3
13656.9
16283.6
17918.4
20528.3
21899.7
24587.1
25549.5
28372.2
-18326.7
-13507.4
-12134.5
-8050.76
-6271.59
-2734.6
-792.126
2366.48
4342.14
7239.42
9164.97
11888.8
13700.1
16327.2
17960.5
20571.2
21940.7
24629.3
25589.7
28415.6
-18281.3
-13456.5
-12087.8
-8000.99
-6225.52
-2686.33
-746.618
2413.27
4387.01
7284.9
9209.06
11933.1
13743.3
16370.7
18002.6
20614
21981.7
24671.5
25629.8
28458.8
-18236
-13405.6
-12041.2
-7951.31
-6179.53
-2638.17
-701.174
2459.94
4431.82
7330.24
9253.08
11977.4
13786.4
16414
18044.6
20656.6
22022.6
24713.5
25669.8
28501.9
-18190.9
-13354.9
-11994.8
-7901.75
-6133.63
-2590.14
-655.806
2506.46
4476.56
7375.43
9297.03
12021.4
13829.4
16457.2
18086.5
20699.1
22063.4
24755.5
25709.7
28544.9
-18145.8
-13304.3
-11948.4
-7852.31
-6087.82
-2542.26
-610.525
2552.83
4521.22
7420.45
9340.89
12065.4
13872.3
16500.2
18128.3
20741.4
22104
24797.2
25749.5
28587.7
-18100.8
-13253.7
-11902.2
-7803.01
-6042.12
-2494.53
-565.344
2599.02
4565.77
7465.3
9384.65
12109.1
13915.1
16543.1
18170
20783.6
22144.5
24838.9
25789.1
28630.5
-18056
-13203.4
-11856.1
-7753.86
-5996.54
-2446.98
-520.276
2645.03
4610.22
7509.96
9428.3
12152.6
13957.7
16585.8
18211.6
20825.6
22184.9
24880.4
25828.5
28673.1
-18011.3
-13153.1
-11810.1
-7704.88
-5951.1
-2399.6
-475.332
2690.84
4654.54
7554.41
9471.82
12196
14000.3
16628.3
18253
20867.5
22225.1
24921.7
25867.8
28715.5
-17966.8
-13103
-11764.3
-7656.07
-5905.8
-2352.43
-430.523
2736.44
4698.74
7598.65
9515.22
12239.1
14042.7
16670.6
18294.2
20909.2
22265.2
24962.9
25907
28757.8
-17922.5
-13053.1
-11718.7
-7607.46
-5860.65
-2305.47
-385.861
2781.82
4742.79
7642.66
9558.47
12282
14085
16712.7
18335.4
20950.6
22305.1
25003.9
25945.9
28799.9
-17878.4
-13003.4
-11673.3
-7559.05
-5815.68
-2258.73
-341.354
2826.96
4786.7
7686.43
9601.58
12324.7
14127.1
16754.5
18376.3
20991.9
22344.9
25044.7
25984.7
28841.9
-17834.4
-12953.8
-11628
-7510.87
-5770.88
-2212.23
-297.012
2871.85
4830.45
7729.95
9644.53
12367.2
14169
16796.2
18417.1
21033
22384.4
25085.3
26023.3
28883.6
-17790.7
-12904.5
-11583
-7462.9
-5726.27
-2165.97
-252.843
2916.49
4874.03
7773.22
9687.31
12409.3
14210.8
16837.6
18457.7
21073.8
22423.8
25125.7
26061.6
28925.2
-17747.2
-12855.4
-11538.2
-7415.18
-5681.86
-2119.97
-208.853
2960.87
4917.44
7816.23
9729.93
12451.3
14252.4
16878.7
18498.1
21114.4
22462.9
25165.8
26099.8
28966.5
-17703.9
-12806.5
-11493.6
-7367.71
-5637.64
-2074.23
-165.048
3004.98
4960.68
7858.96
9772.37
12492.9
14293.9
16919.6
18538.4
21154.7
22501.9
25205.8
26137.7
29007.7
-17660.9
-12757.8
-11449.2
-7320.49
-5593.64
-2028.77
-121.437
3048.8
5003.73
7901.41
9814.63
12534.3
14335.1
16960.3
18578.4
21194.8
22540.6
25245.5
26175.4
29048.6
-17618.1
-12709.4
-11405.1
-7273.54
-5549.85
-1983.58
-78.0254
3092.33
5046.59
7943.57
9856.69
12575.4
14376.1
17000.6
18618.2
21234.7
22579.1
25285
26212.8
29089.3
-17575.6
-12661.2
-11361.2
-7226.86
-5506.29
-1938.69
-34.8209
3135.56
5089.26
7985.42
9898.56
12616.2
14417
17040.7
18657.8
21274.2
22617.4
25324.2
26250
29129.8
-17533.3
-12613.3
-11317.6
-7180.47
-5462.96
-1894.11
8.16917
3178.48
5131.71
8026.97
9940.22
12656.7
14457.6
17080.5
18697.1
21313.6
22655.5
25363.2
26287
29170
-17491.3
-12565.7
-11274.2
-7134.38
-5419.86
-1849.83
50.9379
3221.08
5173.95
8068.19
9981.67
12696.9
14498
17120
18736.3
21352.6
22693.3
25401.9
26323.7
29210
-17449.6
-12518.3
-11231.2
-7088.58
-5377.02
-1805.87
93.4782
3263.35
5215.97
8109.09
10022.9
12736.8
14538.2
17159.2
18775.2
21391.4
22730.9
25440.4
26360.2
29249.8
-17408.2
-12471.3
-11188.3
-7043.1
-5334.42
-1762.25
135.783
3305.28
5257.77
8149.64
10063.9
12776.4
14578.1
17198.1
18813.9
21429.8
22768.2
25478.6
26396.4
29289.3
-17367.1
-12424.5
-11145.8
-6997.94
-5292.08
-1718.96
177.848
3346.86
5299.34
8189.86
10104.7
12815.6
14617.8
17236.6
18852.3
21468
22805.3
25516.6
26432.3
29328.5
-17326.3
-12378
-11103.6
-6953.11
-5250.01
-1676.02
219.67
3388.09
5340.67
8229.72
10145.2
12854.5
14657.3
17274.9
18890.5
21505.9
22842.1
25554.2
26468
29367.5
-17285.8
-12331.9
-11061.6
-6908.61
-5208.2
-1633.43
261.245
3428.96
5381.76
8269.23
10185.5
12893
14696.5
17312.8
18928.4
21543.5
22878.6
25591.6
26503.3
29406.3
-17245.5
-12286
-11020
-6864.45
-5166.66
-1591.2
302.572
3469.47
5422.62
8308.38
10225.6
12931.2
14735.5
17350.4
18966.1
21580.8
22914.9
25628.7
26538.4
29444.7
-17205.7
-12240.5
-10978.6
-6820.63
-5125.38
-1549.33
343.652
3509.62
5463.24
8347.18
10265.4
12969
14774.3
17387.7
19003.6
21617.7
22950.9
25665.6
26573.3
29482.9
-17166.1
-12195.3
-10937.6
-6777.16
-5084.38
-1507.81
384.486
3549.4
5503.63
8385.62
10305
13006.6
14812.8
17424.7
19040.8
21654.4
22986.7
25702.1
26607.8
29520.8
-17126.8
-12150.4
-10896.8
-6734.03
-5043.64
-1466.66
425.075
3588.81
5543.78
8423.69
10344.4
13043.7
14851.1
17461.3
19077.7
21690.8
23022.2
25738.3
26642.1
29558.5
-17087.8
-12105.8
-10856.3
-6691.24
-5003.16
-1425.87
465.424
3627.86
5583.71
8461.41
10383.6
13080.5
14889.1
17497.6
19114.4
21726.8
23057.4
25774.3
26676
29595.8
-17049.2
-12061.5
-10816.2
-6648.81
-4962.94
-1385.45
505.534
3666.54
5623.4
8498.77
10422.5
13117
14926.9
17533.6
19150.8
21762.6
23092.4
25810
26709.7
29632.9
-17010.8
-12017.6
-10776.3
-6606.71
-4922.98
-1345.39
545.407
3704.85
5662.87
8535.76
10461.2
13153.1
14964.5
17569.2
19187
21798
23127.1
25845.4
26743.1
29669.8
-16972.8
-11973.9
-10736.7
-6564.97
-4883.28
-1305.7
585.044
3742.79
5702.11
8572.38
10499.6
13188.9
15001.8
17604.5
19222.9
21833.1
23161.5
25880.5
26776.3
29706.3
-16935
-11930.6
-10697.4
-6523.57
-4843.83
-1266.37
624.447
3780.35
5741.12
8608.64
10537.9
13224.3
15038.9
17639.5
19258.6
21867.9
23195.7
25915.3
26809.1
29742.6
-16897.6
-11887.6
-10658.3
-6482.52
-4804.63
-1227.42
663.617
3817.53
5779.9
8644.52
10575.9
13259.4
15075.8
17674.2
19294.1
21902.5
23229.6
25949.9
26841.7
29778.7
-16860.4
-11844.9
-10619.6
-6441.82
-4765.68
-1188.84
702.554