/*--------------------------------*- C++ -*----------------------------------*\
  =========                 |
  \\      /  F ield         | OpenFOAM: The Open Source CFD Toolbox
   \\    /   O peration     | Website:  https://openfoam.org
    \\  /    A nd           | Version:  8
     \\/     M anipulation  |
\*---------------------------------------------------------------------------*/
FoamFile
{
    version     2.0;
    format      ascii;
    class       volScalarField;
    location    "200";
    object      T;
}
// * * * * * * * * * * * * * * * * * * * * * * * * * * * * * * * * * * * * * //

dimensions      [0 0 0 1 0 0 0];

internalField   nonuniform List<scalar> 
8400
(
293.087
293.086
293.085
293.084
293.082
293.081
293.08
293.079
293.078
293.077
293.077
293.076
293.075
293.075
293.074
293.074
293.074
293.073
293.073
293.073
293.073
293.073
293.073
293.073
293.073
293.073
293.074
293.074
293.074
293.074
293.075
293.075
293.076
293.076
293.076
293.077
293.077
293.077
293.077
293.078
293.078
293.078
293.078
293.078
293.078
293.078
293.078
293.078
293.077
293.077
293.144
293.143
293.142
293.141
293.14
293.14
293.139
293.138
293.137
293.137
293.136
293.136
293.136
293.135
293.135
293.135
293.135
293.135
293.135
293.135
293.135
293.135
293.135
293.135
293.136
293.136
293.137
293.137
293.137
293.138
293.138
293.139
293.139
293.14
293.14
293.141
293.142
293.142
293.142
293.143
293.143
293.144
293.144
293.144
293.145
293.145
293.145
293.145
293.145
293.145
293.155
293.154
293.153
293.152
293.152
293.151
293.15
293.15
293.149
293.149
293.148
293.148
293.147
293.147
293.147
293.146
293.146
293.146
293.146
293.146
293.146
293.146
293.146
293.147
293.147
293.147
293.147
293.148
293.148
293.148
293.149
293.149
293.15
293.15
293.151
293.151
293.152
293.152
293.153
293.153
293.153
293.154
293.154
293.155
293.155
293.155
293.156
293.156
293.156
293.156
293.165
293.165
293.164
293.163
293.163
293.162
293.162
293.161
293.161
293.16
293.16
293.159
293.159
293.158
293.158
293.157
293.157
293.157
293.156
293.156
293.156
293.156
293.156
293.156
293.156
293.156
293.156
293.156
293.156
293.156
293.156
293.156
293.156
293.156
293.156
293.157
293.157
293.157
293.157
293.157
293.158
293.158
293.158
293.158
293.158
293.158
293.159
293.159
293.159
293.159
293.176
293.175
293.175
293.175
293.174
293.174
293.174
293.173
293.173
293.172
293.172
293.171
293.171
293.17
293.17
293.169
293.169
293.168
293.168
293.167
293.167
293.167
293.166
293.166
293.165
293.165
293.164
293.164
293.164
293.163
293.163
293.163
293.162
293.162
293.162
293.162
293.162
293.161
293.161
293.161
293.161
293.161
293.161
293.161
293.161
293.161
293.161
293.16
293.16
293.16
293.188
293.188
293.188
293.188
293.188
293.188
293.188
293.187
293.187
293.187
293.186
293.186
293.185
293.185
293.184
293.184
293.183
293.183
293.182
293.181
293.18
293.18
293.179
293.178
293.177
293.176
293.176
293.175
293.174
293.173
293.172
293.172
293.171
293.17
293.17
293.169
293.168
293.168
293.167
293.167
293.166
293.166
293.165
293.165
293.165
293.164
293.164
293.164
293.163
293.163
293.198
293.199
293.199
293.199
293.199
293.199
293.199
293.199
293.199
293.199
293.199
293.198
293.198
293.197
293.197
293.196
293.195
293.195
293.194
293.193
293.192
293.191
293.19
293.189
293.188
293.186
293.185
293.184
293.183
293.182
293.18
293.179
293.178
293.177
293.176
293.175
293.174
293.173
293.172
293.171
293.17
293.17
293.169
293.168
293.168
293.167
293.166
293.166
293.165
293.165
293.207
293.208
293.208
293.209
293.209
293.209
293.209
293.21
293.21
293.209
293.209
293.209
293.209
293.208
293.207
293.207
293.206
293.205
293.204
293.203
293.202
293.2
293.199
293.198
293.196
293.195
293.194
293.192
293.191
293.189
293.188
293.186
293.185
293.183
293.182
293.18
293.179
293.178
293.177
293.176
293.175
293.173
293.173
293.172
293.171
293.17
293.169
293.169
293.168
293.167
293.213
293.214
293.215
293.215
293.216
293.216
293.216
293.216
293.216
293.216
293.216
293.216
293.215
293.215
293.214
293.214
293.213
293.212
293.211
293.209
293.208
293.207
293.205
293.204
293.202
293.2
293.199
293.197
293.195
293.194
293.192
293.19
293.189
293.187
293.186
293.184
293.183
293.181
293.18
293.178
293.177
293.176
293.175
293.174
293.173
293.172
293.171
293.17
293.17
293.169
293.218
293.218
293.219
293.219
293.22
293.22
293.221
293.221
293.221
293.221
293.22
293.22
293.22
293.219
293.218
293.218
293.217
293.216
293.214
293.213
293.212
293.21
293.209
293.207
293.205
293.204
293.202
293.2
293.198
293.197
293.195
293.193
293.191
293.19
293.188
293.186
293.185
293.183
293.182
293.18
293.179
293.178
293.177
293.176
293.175
293.174
293.173
293.172
293.171
293.17
293.22
293.22
293.221
293.221
293.222
293.222
293.222
293.222
293.222
293.222
293.222
293.222
293.221
293.221
293.22
293.219
293.218
293.217
293.216
293.214
293.213
293.212
293.21
293.208
293.207
293.205
293.203
293.201
293.2
293.198
293.196
293.194
293.193
293.191
293.189
293.188
293.186
293.184
293.183
293.182
293.18
293.179
293.178
293.177
293.176
293.175
293.174
293.173
293.172
293.171
293.22
293.22
293.221
293.221
293.221
293.222
293.222
293.222
293.222
293.222
293.221
293.221
293.22
293.22
293.219
293.218
293.217
293.216
293.215
293.214
293.212
293.211
293.209
293.208
293.206
293.204
293.203
293.201
293.199
293.198
293.196
293.194
293.192
293.191
293.189
293.188
293.186
293.185
293.183
293.182
293.181
293.18
293.178
293.177
293.176
293.175
293.175
293.174
293.173
293.172
293.219
293.219
293.219
293.22
293.22
293.22
293.22
293.22
293.22
293.22
293.22
293.219
293.219
293.218
293.217
293.216
293.215
293.214
293.213
293.212
293.211
293.209
293.208
293.206
293.205
293.203
293.202
293.2
293.198
293.197
293.195
293.194
293.192
293.191
293.189
293.188
293.186
293.185
293.184
293.182
293.181
293.18
293.179
293.178
293.177
293.176
293.176
293.175
293.174
293.173
293.215
293.216
293.216
293.216
293.216
293.216
293.216
293.216
293.216
293.216
293.215
293.215
293.214
293.214
293.213
293.212
293.211
293.21
293.209
293.208
293.207
293.206
293.204
293.203
293.202
293.2
293.199
293.197
293.196
293.195
293.193
293.192
293.19
293.189
293.188
293.186
293.185
293.184
293.183
293.182
293.181
293.18
293.179
293.178
293.177
293.176
293.176
293.175
293.174
293.173
293.213
293.213
293.213
293.213
293.213
293.213
293.213
293.213
293.213
293.212
293.212
293.211
293.211
293.21
293.209
293.209
293.208
293.207
293.206
293.205
293.204
293.203
293.202
293.201
293.199
293.198
293.197
293.196
293.194
293.193
293.192
293.191
293.19
293.189
293.187
293.186
293.185
293.184
293.183
293.182
293.181
293.181
293.18
293.179
293.178
293.177
293.177
293.176
293.175
293.175
293.207
293.207
293.207
293.207
293.207
293.207
293.207
293.206
293.206
293.206
293.205
293.205
293.204
293.204
293.203
293.203
293.202
293.201
293.2
293.199
293.199
293.198
293.197
293.196
293.195
293.194
293.193
293.192
293.191
293.19
293.189
293.188
293.187
293.186
293.185
293.184
293.183
293.183
293.182
293.181
293.18
293.179
293.179
293.178
293.177
293.177
293.176
293.176
293.175
293.174
293.204
293.204
293.204
293.204
293.204
293.204
293.203
293.203
293.203
293.203
293.202
293.202
293.201
293.201
293.2
293.2
293.199
293.198
293.198
293.197
293.196
293.196
293.195
293.194
293.193
293.192
293.192
293.191
293.19
293.189
293.189
293.188
293.187
293.186
293.186
293.185
293.184
293.183
293.183
293.182
293.181
293.181
293.18
293.18
293.179
293.178
293.178
293.177
293.177
293.176
293.195
293.195
293.195
293.195
293.195
293.195
293.195
293.194
293.194
293.194
293.193
293.193
293.193
293.192
293.192
293.191
293.191
293.191
293.19
293.189
293.189
293.188
293.188
293.187
293.187
293.186
293.186
293.185
293.184
293.184
293.183
293.183
293.182
293.182
293.181
293.18
293.18
293.179
293.179
293.178
293.178
293.177
293.177
293.176
293.176
293.176
293.175
293.175
293.174
293.174
293.186
293.186
293.186
293.185
293.185
293.185
293.185
293.185
293.184
293.184
293.184
293.183
293.183
293.182
293.182
293.182
293.181
293.181
293.18
293.18
293.179
293.179
293.178
293.178
293.177
293.177
293.176
293.176
293.175
293.175
293.174
293.173
293.173
293.172
293.172
293.171
293.171
293.17
293.17
293.169
293.169
293.168
293.168
293.167
293.167
293.167
293.166
293.166
293.166
293.166
293.126
293.126
293.126
293.125
293.125
293.125
293.124
293.124
293.124
293.123
293.123
293.122
293.122
293.121
293.121
293.121
293.12
293.12
293.119
293.119
293.118
293.118
293.117
293.117
293.116
293.116
293.115
293.115
293.114
293.114
293.113
293.113
293.113
293.112
293.112
293.111
293.111
293.111
293.11
293.11
293.11
293.109
293.109
293.109
293.108
293.108
293.108
293.107
293.107
293.107
303.15
303.15
303.151
303.151
303.151
303.151
303.151
303.15
303.149
303.148
303.147
303.146
303.145
303.144
303.143
303.142
303.141
303.14
303.139
303.138
303.137
303.136
303.135
303.134
303.133
303.132
303.131
303.13
303.129
303.128
303.128
303.127
303.126
303.125
303.124
303.123
303.122
303.122
303.121
303.12
303.119
303.119
303.118
303.117
303.116
303.116
303.115
303.114
303.114
303.113
303.15
303.15
303.149
303.149
303.149
303.149
303.149
303.149
303.149
303.149
303.149
303.149
303.149
303.149
303.149
303.149
303.149
303.149
303.149
303.149
303.149
303.148
303.148
303.148
303.148
303.148
303.148
303.148
303.148
303.148
303.148
303.147
303.147
303.147
303.147
303.147
303.147
303.147
303.147
303.147
303.147
303.146
303.146
303.146
303.146
303.146
303.146
303.146
303.146
303.146
303.15
303.15
303.15
303.15
303.15
303.15
303.15
303.15
303.15
303.15
303.15
303.15
303.15
303.15
303.15
303.15
303.15
303.15
303.15
303.15
303.15
303.15
303.15
303.15
303.15
303.15
303.15
303.15
303.15
303.15
303.15
303.15
303.15
303.15
303.15
303.15
303.15
303.15
303.15
303.15
303.15
303.15
303.15
303.15
303.15
303.15
303.15
303.15
303.15
303.15
303.15
303.15
303.15
303.15
303.15
303.15
303.15
303.15
303.15
303.15
303.15
303.15
303.15
303.15
303.15
303.15
303.15
303.15
303.15
303.15
303.15
303.15
303.15
303.15
303.15
303.15
303.15
303.15
303.15
303.15
303.15
303.15
303.15
303.15
303.15
303.15
303.15
303.15
303.15
303.15
303.15
303.15
303.15
303.15
303.15
303.15
303.15
303.15
303.15
303.15
303.15
303.15
303.15
303.15
303.15
303.15
303.15
303.15
303.15
303.15
303.15
303.15
303.15
303.15
303.15
303.15
303.15
303.15
303.15
303.15
303.15
303.15
303.15
303.15
303.15
303.15
303.15
303.15
303.15
303.15
303.15
303.15
303.15
303.15
303.15
303.15
303.15
303.15
303.15
303.15
303.15
303.15
303.15
303.15
303.15
303.15
303.15
303.15
303.15
303.15
303.15
303.15
303.15
303.15
303.15
303.15
303.15
303.15
303.15
303.15
303.15
303.15
303.15
303.15
303.15
303.15
303.15
303.15
303.15
303.15
303.15
303.15
303.15
303.15
303.15
303.15
303.15
303.15
303.15
303.15
303.15
303.15
303.15
303.15
303.15
303.15
303.15
303.15
303.15
303.15
303.15
303.15
303.15
303.15
303.15
303.15
303.15
303.15
303.15
303.15
303.15
303.15
303.15
303.15
303.15
303.15
303.15
303.15
303.15
303.15
303.15
303.15
303.15
303.15
303.15
303.15
303.15
303.15
303.15
303.15
303.15
303.15
303.15
303.15
303.15
303.15
303.15
303.15
303.15
303.15
303.15
303.15
303.15
303.15
303.15
303.15
303.15
303.15
303.15
303.15
303.15
303.15
303.15
303.15
303.15
303.15
303.15
303.15
303.15
303.15
303.15
303.15
303.15
303.15
303.15
303.15
303.15
303.15
303.15
303.15
303.15
303.15
303.15
303.15
303.15
303.15
303.15
303.15
303.15
303.15
303.15
303.15
303.15
303.15
303.15
303.15
303.15
303.15
303.15
303.15
303.15
303.15
303.15
303.15
303.15
303.15
303.15
303.15
303.15
303.15
303.15
303.15
303.15
303.15
303.15
303.15
303.15
303.15
303.15
303.15
303.15
303.15
303.15
303.15
303.15
303.15
303.15
303.15
303.15
303.15
303.15
303.15
303.15
303.15
303.15
303.15
303.15
303.15
303.15
303.15
303.15
303.15
303.15
303.15
303.15
303.15
303.15
303.15
303.15
303.15
303.15
303.15
303.15
303.15
303.15
303.15
303.15
303.15
303.15
303.15
303.15
303.15
303.15
303.15
303.15
303.15
303.15
303.15
303.15
303.15
303.15
303.15
303.15
303.15
303.15
303.15
303.15
303.15
303.15
303.15
303.15
303.15
303.15
303.15
303.15
303.15
303.15
303.15
303.15
303.15
303.15
303.15
303.15
303.15
303.15
303.15
303.15
303.15
303.15
303.15
303.15
303.15
303.15
303.15
303.15
303.15
303.15
303.15
303.15
303.15
303.15
303.15
303.15
303.15
303.15
303.15
303.15
303.15
303.15
303.15
303.15
303.15
303.15
303.15
303.15
303.15
303.15
303.15
303.15
303.15
303.15
303.15
303.15
303.15
303.15
303.15
303.15
303.15
303.15
303.15
303.15
303.15
303.15
303.15
303.15
303.15
303.15
303.15
303.15
303.15
303.15
303.15
303.15
303.15
303.15
303.15
303.15
303.15
303.15
303.15
303.15
303.15
303.15
303.15
303.15
303.15
303.15
303.15
303.15
303.15
303.15
303.15
303.15
303.15
303.15
303.15
303.15
303.15
303.15
303.15
303.15
303.15
303.15
303.15
303.15
303.15
303.15
303.15
303.15
303.15
303.15
303.15
303.15
303.15
303.15
303.15
303.15
303.15
303.15
303.15
303.15
303.15
303.15
303.15
303.15
303.15
303.15
303.15
303.15
303.15
303.15
303.15
303.15
303.15
303.15
303.15
303.15
303.15
303.15
303.15
303.15
303.15
303.15
303.15
303.15
303.15
303.15
303.15
303.15
303.15
303.15
303.15
303.15
303.15
303.15
303.15
303.15
303.15
303.15
303.15
303.15
303.15
303.15
303.15
303.15
303.15
303.15
303.15
303.15
303.15
303.15
303.15
303.15
303.15
303.15
303.15
303.15
303.15
303.15
303.15
303.15
303.15
303.15
303.15
303.15
303.15
303.15
303.15
303.15
303.15
303.15
303.15
303.15
303.15
303.15
303.15
303.15
303.15
303.15
303.15
303.15
303.15
303.15
303.15
303.15
303.15
303.15
303.15
303.15
303.15
303.15
303.15
303.15
303.15
303.15
303.15
303.15
303.15
303.15
303.15
303.15
303.15
303.15
303.15
303.15
303.15
303.15
303.15
303.15
303.15
303.15
303.15
303.15
303.15
303.15
303.15
303.15
303.15
303.15
303.15
303.15
303.15
303.15
303.15
303.15
303.15
303.15
303.15
303.15
303.15
303.15
303.15
303.15
303.15
303.15
303.15
303.15
303.15
303.15
303.15
303.15
303.15
303.15
303.15
303.15
303.15
303.15
303.15
303.15
303.15
303.15
303.15
303.15
303.15
303.15
303.15
303.15
303.15
303.15
303.15
303.15
303.15
303.15
303.15
303.15
303.15
303.15
303.15
303.15
303.15
303.15
303.15
303.15
303.15
303.15
303.15
303.15
303.15
303.15
303.15
303.15
303.15
303.15
303.15
303.15
303.15
303.15
303.15
303.15
303.15
303.15
303.15
303.15
303.15
303.15
303.15
303.15
303.15
303.15
303.15
303.15
303.15
303.15
303.15
303.15
303.15
303.15
303.15
303.15
303.15
303.15
303.15
303.15
303.15
303.15
303.15
303.15
303.15
303.15
303.15
303.15
303.15
303.15
303.15
303.15
303.15
303.15
303.15
303.15
303.15
303.15
303.15
303.15
303.15
303.15
303.15
303.15
303.15
303.15
303.15
303.15
303.15
303.15
303.15
303.15
303.15
303.15
303.15
303.15
303.15
303.15
303.15
303.15
303.15
303.15
303.15
303.15
303.15
303.15
303.15
303.15
303.15
303.15
303.15
303.15
303.15
303.15
303.15
303.15
303.15
303.15
303.15
303.15
303.15
303.15
303.15
303.15
303.15
303.15
303.15
303.15
303.15
303.15
303.15
303.15
303.15
303.15
303.15
303.15
303.15
303.15
303.15
303.15
303.15
303.15
303.15
303.15
303.15
303.15
303.15
303.15
303.15
303.15
303.15
303.15
303.15
303.15
303.15
303.15
303.15
303.15
303.15
303.15
303.15
303.15
303.15
303.15
303.149
303.149
303.149
303.15
303.15
303.149
303.149
303.149
303.149
303.149
303.149
303.149
303.149
303.149
303.149
303.149
303.149
303.149
303.149
303.149
303.149
303.149
303.149
303.149
303.149
303.148
303.148
303.148
303.148
303.148
303.148
303.148
303.148
303.148
303.147
303.147
303.147
303.147
303.147
303.147
303.147
303.147
303.146
303.146
303.146
303.146
303.146
303.145
303.145
303.145
303.145
303.144
303.144
303.15
303.15
303.151
303.151
303.151
303.151
303.151
303.15
303.149
303.148
303.147
303.146
303.145
303.144
303.143
303.142
303.14
303.139
303.139
303.138
303.137
303.136
303.135
303.134
303.133
303.132
303.131
303.13
303.129
303.128
303.127
303.127
303.126
303.125
303.124
303.123
303.122
303.122
303.121
303.12
303.119
303.118
303.118
303.117
303.116
303.115
303.115
303.114
303.113
303.112
295.582
295.607
295.658
295.692
295.721
295.737
295.753
295.763
295.776
295.782
295.784
295.78
295.773
295.766
295.755
295.742
295.72
295.69
295.65
295.587
295.741
295.764
295.816
295.852
295.881
295.897
295.914
295.925
295.937
295.943
295.946
295.942
295.935
295.927
295.916
295.902
295.879
295.849
295.809
295.746
295.905
295.926
295.98
296.016
296.047
296.063
296.08
296.091
296.103
296.11
296.113
296.108
296.101
296.093
296.082
296.067
296.044
296.013
295.972
295.911
296.074
296.094
296.148
296.186
296.217
296.233
296.251
296.262
296.275
296.281
296.284
296.279
296.272
296.263
296.252
296.238
296.214
296.182
296.141
296.081
296.247
296.266
296.322
296.36
296.392
296.408
296.426
296.437
296.451
296.457
296.46
296.455
296.447
296.439
296.427
296.412
296.388
296.355
296.314
296.255
296.425
296.443
296.499
296.539
296.571
296.588
296.606
296.617
296.631
296.637
296.64
296.635
296.627
296.618
296.607
296.592
296.567
296.534
296.492
296.434
296.608
296.624
296.682
296.722
296.754
296.771
296.79
296.801
296.815
296.822
296.824
296.819
296.811
296.802
296.79
296.775
296.75
296.716
296.674
296.616
296.794
296.809
296.868
296.908
296.942
296.959
296.977
296.989
297.002
297.009
297.012
297.007
296.998
296.989
296.977
296.962
296.936
296.902
296.86
296.803
296.983
296.998
297.057
297.098
297.132
297.149
297.168
297.18
297.193
297.2
297.203
297.197
297.189
297.18
297.168
297.152
297.126
297.092
297.049
296.993
297.176
297.19
297.25
297.291
297.325
297.343
297.361
297.373
297.387
297.394
297.396
297.391
297.382
297.373
297.361
297.345
297.319
297.284
297.241
297.186
297.371
297.385
297.445
297.487
297.521
297.539
297.557
297.569
297.583
297.59
297.592
297.586
297.578
297.569
297.557
297.54
297.514
297.479
297.436
297.382
297.569
297.582
297.643
297.685
297.719
297.737
297.755
297.767
297.78
297.787
297.79
297.784
297.776
297.766
297.754
297.738
297.712
297.676
297.633
297.58
297.768
297.781
297.842
297.885
297.919
297.936
297.955
297.966
297.98
297.986
297.989
297.983
297.975
297.965
297.953
297.937
297.911
297.875
297.832
297.779
297.968
297.981
298.043
298.085
298.119
298.137
298.155
298.166
298.18
298.187
298.189
298.183
298.175
298.165
298.153
298.137
298.111
298.075
298.032
297.979
298.17
298.182
298.244
298.287
298.321
298.338
298.356
298.367
298.38
298.387
298.389
298.383
298.375
298.366
298.354
298.338
298.312
298.276
298.233
298.18
298.371
298.384
298.446
298.488
298.522
298.539
298.557
298.568
298.581
298.587
298.589
298.584
298.575
298.566
298.554
298.539
298.513
298.477
298.434
298.382
298.572
298.585
298.647
298.689
298.723
298.739
298.757
298.768
298.781
298.787
298.789
298.783
298.775
298.766
298.754
298.739
298.713
298.678
298.635
298.583
298.772
298.786
298.848
298.889
298.923
298.939
298.956
298.967
298.98
298.986
298.988
298.982
298.974
298.965
298.953
298.938
298.913
298.878
298.835
298.783
298.971
298.985
299.047
299.088
299.121
299.137
299.154
299.165
299.177
299.183
299.185
299.179
299.171
299.162
299.151
299.136
299.111
299.076
299.034
298.981
299.168
299.183
299.245
299.285
299.317
299.333
299.35
299.36
299.372
299.378
299.38
299.374
299.366
299.357
299.346
299.332
299.307
299.273
299.23
299.178
299.363
299.379
299.44
299.48
299.511
299.527
299.543
299.553
299.565
299.57
299.572
299.566
299.558
299.55
299.539
299.525
299.501
299.467
299.425
299.372
299.555
299.572
299.632
299.672
299.703
299.717
299.733
299.743
299.754
299.76
299.761
299.756
299.748
299.74
299.729
299.715
299.691
299.658
299.617
299.564
299.744
299.762
299.822
299.86
299.89
299.904
299.92
299.929
299.94
299.945
299.947
299.941
299.934
299.926
299.916
299.902
299.879
299.846
299.805
299.752
299.929
299.948
300.007
300.045
300.074
300.088
300.103
300.112
300.122
300.127
300.129
300.123
300.116
300.108
300.098
300.085
300.063
300.031
299.99
299.936
300.11
300.131
300.189
300.225
300.254
300.267
300.281
300.29
300.3
300.305
300.306
300.301
300.294
300.286
300.277
300.264
300.242
300.211
300.171
300.116
300.286
300.308
300.366
300.401
300.429
300.441
300.455
300.463
300.473
300.478
300.479
300.474
300.467
300.46
300.451
300.438
300.417
300.387
300.347
300.292
300.458
300.481
300.538
300.572
300.599
300.611
300.624
300.632
300.641
300.646
300.647
300.642
300.635
300.628
300.619
300.608
300.587
300.558
300.518
300.463
300.624
300.649
300.705
300.738
300.763
300.775
300.788
300.795
300.804
300.808
300.809
300.804
300.798
300.792
300.783
300.772
300.752
300.723
300.684
300.628
300.785
300.812
300.866
300.898
300.922
300.933
300.946
300.952
300.961
300.965
300.966
300.961
300.955
300.949
300.941
300.93
300.911
300.883
300.845
300.788
300.94
300.969
301.022
301.052
301.076
301.086
301.098
301.104
301.113
301.116
301.117
301.113
301.107
301.101
301.093
301.083
301.064
301.038
301
300.942
301.089
301.12
301.171
301.201
301.223
301.233
301.244
301.25
301.258
301.261
301.262
301.258
301.252
301.247
301.239
301.229
301.212
301.186
301.149
301.09
301.232
301.264
301.315
301.343
301.364
301.373
301.384
301.389
301.397
301.4
301.401
301.397
301.391
301.386
301.379
301.37
301.353
301.329
301.291
301.232
301.369
301.403
301.452
301.478
301.499
301.507
301.517
301.523
301.53
301.533
301.533
301.529
301.524
301.519
301.513
301.504
301.488
301.465
301.428
301.368
301.499
301.535
301.583
301.608
301.627
301.635
301.644
301.649
301.656
301.659
301.659
301.656
301.651
301.646
301.64
301.632
301.616
301.594
301.558
301.497
301.623
301.661
301.707
301.731
301.749
301.756
301.765
301.77
301.776
301.778
301.779
301.776
301.771
301.767
301.761
301.753
301.739
301.717
301.682
301.62
301.74
301.78
301.825
301.847
301.864
301.871
301.879
301.884
301.89
301.892
301.892
301.889
301.885
301.881
301.875
301.868
301.854
301.834
301.799
301.736
301.851
301.892
301.936
301.957
301.973
301.98
301.987
301.991
301.997
301.999
301.999
301.996
301.992
301.988
301.983
301.977
301.964
301.944
301.91
301.846
301.955
301.999
302.041
302.061
302.076
302.082
302.089
302.092
302.097
302.099
302.099
302.097
302.093
302.09
302.085
302.079
302.066
302.048
302.014
301.949
302.053
302.098
302.139
302.158
302.172
302.177
302.184
302.187
302.192
302.194
302.194
302.191
302.188
302.185
302.18
302.174
302.163
302.145
302.112
302.046
302.145
302.192
302.231
302.249
302.262
302.267
302.273
302.276
302.28
302.282
302.282
302.28
302.276
302.273
302.269
302.264
302.253
302.237
302.204
302.137
302.231
302.279
302.317
302.333
302.346
302.35
302.356
302.359
302.362
302.364
302.364
302.362
302.359
302.356
302.352
302.347
302.337
302.322
302.29
302.222
302.311
302.36
302.397
302.412
302.424
302.428
302.433
302.435
302.439
302.44
302.44
302.438
302.436
302.433
302.43
302.425
302.416
302.401
302.37
302.301
302.385
302.436
302.471
302.485
302.496
302.499
302.504
302.506
302.51
302.511
302.511
302.509
302.507
302.505
302.501
302.497
302.488
302.475
302.444
302.374
302.453
302.506
302.54
302.553
302.563
302.566
302.57
302.572
302.575
302.576
302.576
302.575
302.572
302.57
302.567
302.564
302.555
302.542
302.512
302.442
302.516
302.57
302.603
302.615
302.624
302.627
302.631
302.633
302.635
302.636
302.636
302.635
302.633
302.631
302.628
302.625
302.617
302.605
302.575
302.504
302.574
302.629
302.661
302.672
302.681
302.683
302.687
302.688
302.691
302.691
302.691
302.69
302.688
302.687
302.684
302.681
302.674
302.663
302.633
302.562
302.627
302.683
302.714
302.724
302.732
302.734
302.738
302.739
302.741
302.742
302.742
302.741
302.739
302.738
302.735
302.732
302.726
302.715
302.686
302.614
302.676
302.733
302.763
302.772
302.779
302.781
302.784
302.785
302.787
302.788
302.788
302.787
302.785
302.784
302.782
302.779
302.773
302.763
302.735
302.662
302.72
302.778
302.807
302.815
302.822
302.823
302.826
302.827
302.829
302.83
302.83
302.829
302.827
302.826
302.824
302.822
302.816
302.807
302.779
302.705
302.76
302.819
302.847
302.855
302.861
302.862
302.865
302.865
302.867
302.867
302.867
302.866
302.865
302.864
302.862
302.861
302.855
302.847
302.819
302.745
302.796
302.856
302.883
302.89
302.896
302.897
302.899
302.9
302.901
302.901
302.901
302.901
302.899
302.899
302.897
302.895
302.891
302.882
302.855
302.781
302.829
302.89
302.916
302.922
302.927
302.928
302.93
302.93
302.932
302.932
302.932
302.931
302.93
302.93
302.928
302.927
302.922
302.915
302.888
302.813
302.858
302.919
302.945
302.951
302.955
302.956
302.958
302.958
302.959
302.96
302.96
302.959
302.958
302.957
302.956
302.955
302.951
302.943
302.917
302.842
302.885
302.946
302.971
302.976
302.98
302.981
302.983
302.983
302.984
302.984
302.984
302.984
302.983
302.982
302.981
302.98
302.976
302.969
302.943
302.868
302.908
302.97
302.994
302.999
303.003
303.003
303.005
303.005
303.006
303.006
303.006
303.006
303.005
303.004
303.003
303.002
302.999
302.992
302.967
302.891
302.929
302.992
303.015
303.019
303.023
303.023
303.024
303.024
303.025
303.025
303.025
303.025
303.024
303.024
303.023
303.022
303.019
303.013
302.987
302.912
302.947
303.01
303.033
303.037
303.04
303.04
303.042
303.042
303.043
303.043
303.043
303.042
303.042
303.041
303.04
303.04
303.037
303.031
303.006
302.93
302.964
303.027
303.049
303.053
303.056
303.056
303.057
303.057
303.058
303.058
303.058
303.057
303.057
303.057
303.056
303.055
303.053
303.047
303.022
302.946
302.978
303.042
303.064
303.067
303.069
303.069
303.07
303.07
303.071
303.071
303.071
303.071
303.07
303.07
303.069
303.069
303.066
303.061
303.036
302.96
302.991
303.055
303.076
303.079
303.081
303.081
303.082
303.082
303.083
303.083
303.083
303.082
303.082
303.082
303.081
303.081
303.078
303.073
303.049
302.973
303.002
303.066
303.087
303.089
303.092
303.091
303.092
303.092
303.093
303.093
303.093
303.092
303.092
303.092
303.091
303.091
303.089
303.084
303.06
302.984
303.012
303.076
303.096
303.098
303.101
303.1
303.101
303.101
303.101
303.101
303.101
303.101
303.101
303.101
303.1
303.1
303.098
303.093
303.07
302.994
303.02
303.084
303.104
303.106
303.108
303.108
303.109
303.109
303.109
303.109
303.109
303.109
303.109
303.109
303.108
303.108
303.106
303.101
303.078
303.002
303.028
303.092
303.111
303.113
303.115
303.115
303.115
303.115
303.116
303.115
303.116
303.115
303.115
303.115
303.115
303.115
303.113
303.108
303.085
303.009
303.034
303.098
303.117
303.119
303.121
303.12
303.121
303.121
303.121
303.121
303.121
303.121
303.121
303.121
303.12
303.12
303.119
303.114
303.091
303.016
303.04
303.104
303.122
303.124
303.126
303.125
303.126
303.126
303.126
303.126
303.126
303.126
303.126
303.126
303.125
303.125
303.124
303.12
303.097
303.021
303.044
303.108
303.127
303.128
303.13
303.129
303.13
303.13
303.13
303.13
303.13
303.13
303.13
303.13
303.129
303.129
303.128
303.124
303.101
303.026
303.048
303.112
303.131
303.132
303.133
303.133
303.134
303.133
303.134
303.133
303.133
303.133
303.133
303.133
303.133
303.133
303.131
303.128
303.105
303.03
303.052
303.116
303.134
303.135
303.136
303.136
303.136
303.136
303.136
303.136
303.136
303.136
303.136
303.136
303.136
303.136
303.135
303.131
303.109
303.034
303.055
303.119
303.136
303.137
303.139
303.138
303.139
303.139
303.139
303.139
303.139
303.139
303.139
303.139
303.138
303.139
303.137
303.134
303.111
303.037
303.058
303.121
303.139
303.14
303.141
303.14
303.141
303.141
303.141
303.141
303.141
303.141
303.141
303.141
303.14
303.141
303.139
303.136
303.114
303.04
303.06
303.123
303.141
303.141
303.143
303.142
303.143
303.142
303.143
303.143
303.143
303.143
303.142
303.143
303.142
303.142
303.141
303.138
303.116
303.042
303.062
303.125
303.142
303.143
303.144
303.144
303.144
303.144
303.144
303.144
303.144
303.144
303.144
303.144
303.144
303.144
303.143
303.139
303.118
303.044
303.064
303.126
303.143
303.144
303.146
303.145
303.145
303.145
303.145
303.145
303.145
303.145
303.145
303.145
303.145
303.145
303.144
303.141
303.119
303.046
303.065
303.128
303.144
303.145
303.146
303.146
303.146
303.146
303.146
303.146
303.146
303.146
303.146
303.146
303.146
303.146
303.145
303.142
303.12
303.047
303.067
303.129
303.145
303.146
303.147
303.147
303.147
303.147
303.147
303.147
303.147
303.147
303.147
303.147
303.147
303.147
303.146
303.143
303.121
303.049
303.068
303.13
303.146
303.147
303.148
303.147
303.148
303.147
303.148
303.148
303.148
303.148
303.147
303.148
303.147
303.148
303.146
303.143
303.122
303.05
303.069
303.13
303.147
303.147
303.148
303.148
303.148
303.148
303.148
303.148
303.148
303.148
303.148
303.148
303.148
303.148
303.147
303.144
303.123
303.051
303.07
303.131
303.147
303.148
303.149
303.148
303.149
303.148
303.149
303.149
303.149
303.149
303.148
303.149
303.148
303.149
303.147
303.144
303.124
303.052
303.07
303.132
303.148
303.148
303.149
303.149
303.149
303.149
303.149
303.149
303.149
303.149
303.149
303.149
303.149
303.149
303.148
303.145
303.124
303.053
303.071
303.132
303.148
303.148
303.15
303.149
303.149
303.149
303.149
303.149
303.149
303.149
303.149
303.149
303.149
303.149
303.148
303.145
303.125
303.054
303.072
303.133
303.148
303.149
303.15
303.149
303.15
303.149
303.149
303.149
303.149
303.149
303.149
303.15
303.149
303.149
303.148
303.145
303.125
303.055
303.073
303.133
303.148
303.149
303.15
303.149
303.15
303.149
303.15
303.15
303.15
303.15
303.149
303.15
303.149
303.15
303.149
303.146
303.126
303.056
303.073
303.133
303.149
303.149
303.15
303.149
303.15
303.15
303.15
303.15
303.15
303.15
303.15
303.15
303.15
303.15
303.149
303.146
303.126
303.056
303.074
303.134
303.149
303.149
303.15
303.15
303.15
303.15
303.15
303.15
303.15
303.15
303.15
303.15
303.15
303.15
303.149
303.146
303.127
303.057
303.074
303.134
303.149
303.149
303.15
303.15
303.15
303.15
303.15
303.15
303.15
303.15
303.15
303.15
303.15
303.15
303.149
303.146
303.127
303.058
303.075
303.134
303.149
303.149
303.15
303.15
303.15
303.15
303.15
303.15
303.15
303.15
303.15
303.15
303.15
303.15
303.149
303.146
303.127
303.058
303.075
303.134
303.149
303.149
303.15
303.15
303.15
303.15
303.15
303.15
303.15
303.15
303.15
303.15
303.15
303.15
303.149
303.146
303.127
303.059
303.076
303.135
303.149
303.149
303.15
303.15
303.15
303.15
303.15
303.15
303.15
303.15
303.15
303.15
303.15
303.15
303.149
303.146
303.128
303.06
303.076
303.135
303.149
303.15
303.15
303.15
303.15
303.15
303.15
303.15
303.15
303.15
303.15
303.15
303.15
303.15
303.149
303.146
303.128
303.06
303.077
303.135
303.149
303.15
303.15
303.15
303.15
303.15
303.15
303.15