/*--------------------------------*- C++ -*----------------------------------*\
  =========                 |
  \\      /  F ield         | OpenFOAM: The Open Source CFD Toolbox
   \\    /   O peration     | Website:  https://openfoam.org
    \\  /    A nd           | Version:  8
     \\/     M anipulation  |
\*---------------------------------------------------------------------------*/
FoamFile
{
    version     2.0;
    format      ascii;
    class       volScalarField;
    location    "1000";
    object      epsilon;
}
// * * * * * * * * * * * * * * * * * * * * * * * * * * * * * * * * * * * * * //

dimensions      [0 2 -3 0 0 0 0];

internalField   nonuniform List<scalar> 
8400
(
0.202525
0.200276
0.197908
0.195389
0.19272
0.189905
0.186951
0.183872
0.180684
0.17741
0.174079
0.170724
0.167387
0.16412
0.160979
0.158026
0.155333
0.152972
0.151015
0.149538
0.148603
0.148264
0.148564
0.149516
0.151103
0.153273
0.155917
0.158884
0.161938
0.164819
0.16718
0.168644
0.169099
0.168307
0.162844
0.152355
0.142561
0.135203
0.12901
0.12368
0.11879
0.114355
0.110249
0.106444
0.102965
0.099765
0.096804
0.0940655
0.0915422
0.0892561
0.115289
0.114826
0.114127
0.11318
0.111981
0.110528
0.108833
0.106911
0.104792
0.102512
0.10012
0.0976757
0.0952437
0.0928958
0.0907115
0.0887721
0.0871622
0.0859675
0.0852744
0.0851791
0.0857794
0.0871772
0.0894877
0.0928449
0.0973865
0.103254
0.110579
0.119459
0.129873
0.141575
0.153963
0.165873
0.175392
0.180102
0.176917
0.164363
0.147415
0.134341
0.123695
0.114717
0.106811
0.0998562
0.0936668
0.0881328
0.0831961
0.0787439
0.0747102
0.0710635
0.0677556
0.0647236
0.0960626
0.0943317
0.0922146
0.0897362
0.0869382
0.0838741
0.0806061
0.0772031
0.0737372
0.0702819
0.0669085
0.0636856
0.0606754
0.0579334
0.055509
0.053446
0.051784
0.050563
0.0498211
0.0496034
0.0499647
0.0509761
0.0527314
0.0553643
0.0590674
0.0641191
0.0709123
0.07998
0.0919909
0.107651
0.127426
0.150697
0.174549
0.192275
0.193759
0.176244
0.156369
0.138715
0.12543
0.114665
0.105494
0.0977952
0.0911158
0.0852411
0.0801408
0.0756263
0.0716165
0.0680363
0.0648365
0.0619789
0.0618021
0.0602381
0.0583433
0.0561641
0.0537625
0.0512088
0.0485759
0.0459349
0.043351
0.0408819
0.0385754
0.0364693
0.0345905
0.0329602
0.0315917
0.0304958
0.02968
0.0291536
0.0289268
0.0290133
0.0294322
0.0302107
0.0313879
0.0330284
0.0352375
0.0382025
0.042249
0.0479385
0.0562248
0.0686494
0.0875939
0.115802
0.153683
0.192759
0.209627
0.188877
0.164891
0.14482
0.127688
0.115072
0.104851
0.0965572
0.089426
0.0832664
0.0779975
0.0734144
0.069465
0.0660252
0.0629347
0.0601941
0.0344362
0.0336346
0.03264
0.0314889
0.0302265
0.0289015
0.0275614
0.0262497
0.0250025
0.0238482
0.0228085
0.0218981
0.0211257
0.020497
0.0200163
0.0196871
0.0195144
0.0195048
0.0196679
0.0200156
0.0205592
0.0213088
0.0222713
0.0234517
0.0248628
0.0265452
0.0286085
0.0313137
0.0352406
0.0416085
0.0530454
0.0749354
0.115813
0.177357
0.222902
0.202458
0.174356
0.151111
0.132638
0.117756
0.105852
0.0967513
0.0889608
0.082396
0.077031
0.0724774
0.0685356
0.065102
0.0620642
0.0593723
0.0199678
0.0197113
0.0193706
0.0189625
0.0185091
0.0180331
0.0175562
0.0170977
0.0166726
0.0162922
0.0159651
0.0156969
0.0154918
0.0153538
0.015289
0.0153029
0.015406
0.0156116
0.015936
0.0163986
0.017018
0.017806
0.0187633
0.0198744
0.0211075
0.022426
0.0237983
0.0252424
0.026922
0.0293019
0.0337223
0.044259
0.0731327
0.144092
0.230668
0.21552
0.185112
0.159296
0.138475
0.122237
0.109328
0.0990542
0.0904765
0.0833207
0.0776228
0.0729142
0.0688678
0.0652995
0.0622116
0.0594586
0.014333
0.0142929
0.0142257
0.0141367
0.0140332
0.0139233
0.0138138
0.0137111
0.0136205
0.0135457
0.0134899
0.013456
0.0134472
0.0134674
0.0135243
0.0136265
0.0137894
0.0140317
0.0143769
0.0148514
0.015485
0.0162962
0.0172876
0.0184439
0.0197251
0.0210679
0.0223751
0.0235841
0.0246927
0.0257662
0.0270868
0.0299539
0.0417385
0.0988855
0.231334
0.227515
0.196735
0.169646
0.147182
0.129208
0.11485
0.103244
0.0938672
0.0862417
0.080001
0.0748634
0.070492
0.0665842
0.0633332
0.0604073
0.0127832
0.0127777
0.0127726
0.0127668
0.0127606
0.0127556
0.0127522
0.0127513
0.0127549
0.0127632
0.0127762
0.0127955
0.0128244
0.0128675
0.0129289
0.0130209
0.0131629
0.0133779
0.0136941
0.0141422
0.014765
0.0155836
0.0166027
0.0178088
0.0191648
0.0206056
0.0219821
0.0232266
0.0243066
0.0252226
0.0260268
0.0269104
0.0291843
0.0556135
0.223198
0.237489
0.209472
0.182603
0.159126
0.139586
0.12355
0.11052
0.0998445
0.0911356
0.0840327
0.0781398
0.0731671
0.0689637
0.0653877
0.0622365
0.012695
0.0126572
0.0126351
0.0126216
0.0126143
0.0126127
0.0126163
0.0126229
0.0126348
0.012651
0.0126678
0.0126879
0.0127094
0.0127405
0.0127818
0.0128473
0.0129592
0.013143
0.0134327
0.0138646
0.0144947
0.0153335
0.0163873
0.0176444
0.0190526
0.0205182
0.0219394
0.0232244
0.0243154
0.0251959
0.0258922
0.026449
0.0270342
0.0323408
0.205763
0.246383
0.223498
0.198495
0.175001
0.154318
0.136581
0.121745
0.109418
0.0991952
0.0907359
0.0837265
0.0778703
0.0729389
0.0687718
0.0651924
0.0129453
0.0128714
0.0128267
0.012791
0.0127619
0.0127397
0.0127245
0.0127138
0.0127148
0.01272
0.0127241
0.0127325
0.0127446
0.0127626
0.0127904
0.0128408
0.0129401
0.0131192
0.0134135
0.0138636
0.0145052
0.0153657
0.0164591
0.0177699
0.0192397
0.0207648
0.0222322
0.0235349
0.0246107
0.0254349
0.0260324
0.0264229
0.0266459
0.0274794
0.186418
0.254941
0.240051
0.218858
0.196328
0.174868
0.155474
0.138478
0.123864
0.111506
0.101151
0.0925057
0.0853104
0.0793076
0.0742754
0.0700182
0.0131072
0.0130456
0.0129947
0.0129519
0.0129171
0.0128863
0.0128595
0.0128356
0.0128219
0.0128118
0.0128053
0.0128031
0.0128068
0.0128167
0.012839
0.0128902
0.0129958
0.0131918
0.0135191
0.0140183
0.0147263
0.015671
0.0168631
0.0182801
0.0198518
0.0214571
0.0229666
0.0242618
0.0252739
0.025982
0.0264247
0.0266391
0.0266101
0.0267989
0.207381
0.265238
0.260979
0.245877
0.225748
0.204018
0.182758
0.163075
0.145469
0.130158
0.117084
0.10606
0.0968237
0.0891153
0.0826911
0.0773123
0.0131381
0.0131043
0.0130725
0.0130422
0.0130138
0.012986
0.0129597
0.0129366
0.0129177
0.0129018
0.0128894
0.01288
0.0128754
0.01288
0.0129033
0.0129686
0.0131072
0.01336
0.013771
0.0143825
0.0152314
0.0163412
0.0177124
0.01931
0.0210384
0.0227474
0.0242901
0.0255316
0.0264067
0.026911
0.0270871
0.0270772
0.0269451
0.0504384
0.26236
0.292661
0.290092
0.282885
0.266778
0.245661
0.222554
0.199645
0.178161
0.158792
0.141796
0.127199
0.11481
0.104389
0.0956869
0.0884297
0.0131493
0.013127
0.0131054
0.0130842
0.0130629
0.0130422
0.0130214
0.0130017
0.0129841
0.0129666
0.0129523
0.0129413
0.012935
0.0129425
0.0129823
0.0130894
0.0133068
0.0136819
0.0142591
0.0150792
0.0161765
0.0175651
0.0192241
0.0210943
0.0230397
0.0248562
0.0263926
0.0274942
0.0281017
0.0282624
0.0282972
0.028079
0.0276226
0.103111
0.310927
0.340751
0.340194
0.335454
0.325389
0.306196
0.28168
0.255077
0.228595
0.20367
0.181049
0.161092
0.143821
0.129083
0.116635
0.106191
0.0131551
0.0131391
0.013123
0.0131068
0.0130904
0.0130733
0.0130567
0.0130402
0.0130248
0.0130099
0.0129965
0.0129873
0.0129859
0.0130102
0.0130987
0.0133103
0.0136983
0.0143124
0.0151917
0.0163713
0.0178796
0.0197057
0.0217824
0.0240174
0.02621
0.02807
0.0294899
0.0302885
0.0304834
0.0305097
0.0300378
0.0291516
0.0478168
0.17266
0.36937
0.40761
0.41655
0.416221
0.411111
0.395749
0.370793
0.340388
0.307785
0.275474
0.245004
0.217237
0.192551
0.171
0.152418
0.136555
0.0131585
0.013146
0.0131332
0.0131202
0.0131073
0.0130932
0.013079
0.0130656
0.0130526
0.0130405
0.0130301
0.0130257
0.0130416
0.0131193
0.0133367
0.0137947
0.0145397
0.0156116
0.0170264
0.0188043
0.0209589
0.0234173
0.0260062
0.0286186
0.0309528
0.0325954
0.0336497
0.0339024
0.0338381
0.032808
0.0321681
0.0423068
0.0935969
0.261106
0.449679
0.503335
0.528262
0.53916
0.538052
0.529589
0.5062
0.472676
0.43352
0.392325
0.351595
0.31299
0.277472
0.245481
0.217085
0.192176
0.0131609
0.0131508
0.0131404
0.01313
0.0131193
0.0131087
0.0130974
0.0130862
0.013075
0.0130653
0.0130609
0.0130756
0.0131513
0.0133876
0.0139398
0.0149879
0.0164788
0.018414
0.0207485
0.0234642
0.0265305
0.0297448
0.0326858
0.0353515
0.0372284
0.0380324
0.0381609
0.0370927
0.0360897
0.037838
0.0462322
0.0771945
0.173577
0.378097
0.563908
0.640187
0.687813
0.717166
0.72914
0.728671
0.71071
0.677177
0.633306
0.583521
0.53134
0.479374
0.4294
0.382536
0.33936
0.300097
0.0131625
0.0131548
0.0131453
0.0131363
0.0131268
0.0131173
0.0131077
0.0130982
0.0130903
0.0130912
0.0131229
0.0132302
0.0135194
0.0142175
0.0156288
0.018163
0.0211977
0.0246876
0.0284495
0.0323582
0.0361887
0.0398019
0.0421478
0.0436307
0.0427437
0.0426675
0.0428326
0.0440941
0.0478723
0.0588187
0.0860418
0.153567
0.303383
0.5358
0.726252
0.832573
0.911853
0.969728
1.00496
1.01766
1.01337
0.988213
0.946837
0.893799
0.833494
0.76936
0.704
0.639442
0.577071
0.517645
0.0131909
0.0132446
0.0132204
0.0132061
0.0131919
0.0131788
0.0131672
0.0131574
0.013165
0.0132545
0.0135158
0.0140516
0.0151091
0.0171955
0.0208828
0.0278836
0.0337834
0.039363
0.0443821
0.0483604
0.0500631
0.0527795
0.0535214
0.054606
0.0560527
0.0583461
0.0640477
0.0731837
0.0886909
0.119543
0.180414
0.297649
0.496775
0.745242
0.94628
1.08729
1.20543
1.30238
1.37425
1.41846
1.44434
1.44572
1.42552
1.38677
1.33362
1.26991
1.19884
1.12313
1.04488
0.965413
0.0158968
0.0204465
0.0250308
0.0245868
0.0210585
0.0196022
0.018805
0.0184961
0.0185075
0.0186729
0.021911
0.0264753
0.0322373
0.0392344
0.0475993
0.0801267
0.0826754
0.0832675
0.0847904
0.0828764
0.080787
0.0825709
0.0893349
0.0992942
0.10922
0.120993
0.138643
0.164585
0.20347
0.266653
0.370152
0.532301
0.756561
1.00124
1.20826
1.3798
1.54039
1.69165
1.82633
1.93682
2.02394
2.08954
2.13135
2.14933
2.14538
2.12256
2.08384
2.03175
1.96849
1.89547
0.0704106
0.0776838
0.0869648
0.0982728
0.111319
0.127013
0.150352
0.177273
0.202364
0.218895
0.22306
0.225025
0.227736
0.231117
0.232563
0.233712
0.241801
0.255126
0.263017
0.269726
0.277322
0.286463
0.303763
0.327193
0.352082
0.380096
0.416505
0.465363
0.531367
0.623234
0.750868
0.920219
1.12388
1.33492
1.53121
1.72297
1.93037
2.15968
2.40458
2.64782
2.8654
3.06897
3.25927
3.43223
3.58512
3.71715
3.82905
3.92226
3.99827
4.05831
1.14672
1.10499
1.06594
1.02932
0.994827
0.962195
0.931166
0.901624
0.873472
0.846626
0.821012
0.79656
0.773204
0.750884
0.729544
0.709131
0.689598
0.670899
0.652991
0.635832
0.619385
0.603612
0.588481
0.573961
0.560025
0.546645
0.533797
0.521454
0.509593
0.498192
0.48723
0.476687
0.466542
0.456777
0.447373
0.438311
0.429575
0.421151
0.413024
0.405158
0.397515
0.39008
0.382836
0.375766
0.368849
0.362058
0.355355
0.348681
0.341929
0.334897
1.12234
1.04719
0.978575
0.915728
0.858165
0.805413
0.757061
0.712655
0.671798
0.634138
0.599364
0.567199
0.537397
0.509742
0.484039
0.460119
0.437826
0.417022
0.397582
0.379394
0.362356
0.346378
0.331378
0.317284
0.304028
0.291549
0.279791
0.268702
0.258235
0.248347
0.238996
0.230144
0.221753
0.21379
0.206219
0.199009
0.192133
0.185563
0.179277
0.173272
0.167546
0.162083
0.156866
0.151882
0.147117
0.142557
0.138188
0.133996
0.129961
0.126064
1.12222
1.04681
0.977734
0.914508
0.856569
0.803404
0.754544
0.709564
0.668088
0.629779
0.594341
0.561509
0.531047
0.502744
0.476414
0.451888
0.429015
0.407658
0.387694
0.369012
0.351511
0.335099
0.319696
0.305227
0.291623
0.278823
0.26677
0.255411
0.244698
0.234587
0.225038
0.21601
0.207468
0.199378
0.191711
0.184437
0.177531
0.170969
0.16473
0.158794
0.153143
0.147762
0.142635
0.13775
0.133094
0.128656
0.124425
0.120391
0.116543
0.112869
1.12222
1.04733
0.978845
0.916135
0.858617
0.805763
0.757113
0.712257
0.670835
0.632529
0.597054
0.564155
0.533605
0.5052
0.478757
0.454112
0.431116
0.409636
0.389548
0.370744
0.353123
0.336595
0.321079
0.3065
0.292791
0.279889
0.267739
0.256288
0.245488
0.235296
0.225669
0.216568
0.207958
0.199805
0.192077
0.184746
0.177785
0.171172
0.164884
0.158901
0.153207
0.147784
0.142618
0.137696
0.133004
0.128531
0.124267
0.120202
0.116324
0.112623
1.12222
1.04734
0.978829
0.916048
0.85844
0.805496
0.756765
0.711846
0.67038
0.632048
0.596563
0.563668
0.533133
0.504751
0.478338
0.453726
0.430767
0.409323
0.389273
0.370505
0.35292
0.336426
0.320941
0.306392
0.29271
0.279834
0.267707
0.256278
0.2455
0.235327
0.225717
0.216633
0.208037
0.199896
0.192179
0.184858
0.177905
0.171298
0.165015
0.159036
0.153343
0.147921
0.142754
0.137829
0.133135
0.128658
0.124388
0.120314
0.116425
0.112711
1.12222
1.04738
0.978951
0.916269
0.858768
0.805931
0.757299
0.712466
0.671073
0.632798
0.597357
0.564493
0.533978
0.505607
0.479196
0.454581
0.431611
0.410153
0.390084
0.371295
0.353686
0.337166
0.321655
0.307078
0.293369
0.280466
0.268312
0.256858
0.246054
0.235856
0.226223
0.217115
0.208497
0.200334
0.192596
0.185254
0.17828
0.171653
0.165349
0.159349
0.153635
0.148192
0.143004
0.138058
0.133342
0.128843
0.124552
0.120455
0.116542
0.112803
1.12222
1.04739
0.978978
0.916307
0.858804
0.805954
0.757302
0.712444
0.671023
0.632721
0.597254
0.564368
0.533834
0.505448
0.479026
0.454403
0.431428
0.409967
0.389898
0.37111
0.353504
0.336988
0.321481
0.30691
0.293206
0.280309
0.268163
0.256715
0.245919
0.235729
0.226103
0.217003
0.208392
0.200236
0.192504
0.185168
0.178199
0.171576
0.165275
0.159277
0.153565
0.148123
0.142935
0.137987
0.133269
0.128767
0.124471
0.120369
0.116451
0.112704
1.12222
1.0474
0.978999
0.916345
0.85886
0.80603
0.757399
0.712563
0.671164
0.632883
0.597436
0.564568
0.53405
0.505678
0.479268
0.454654
0.431687
0.410232
0.390166
0.371379
0.353771
0.337253
0.321742
0.307166
0.293456
0.280552
0.268397
0.256942
0.246137
0.235939
0.226305
0.217196
0.208576
0.200411
0.19267
0.185323
0.178345
0.17171
0.165398
0.159389
0.153665
0.148209
0.143008
0.138047
0.133313
0.128796
0.124484
0.120365
0.116429
0.112664
1.12222
1.04741
0.97901
0.91636
0.858879
0.806051
0.75742
0.712581
0.671177
0.63289
0.597434
0.564556
0.53403
0.50565
0.479232
0.454612
0.431639
0.410178
0.390108
0.371317
0.353706
0.337185
0.321673
0.307094
0.293383
0.280477
0.268322
0.256867
0.246063
0.235865
0.226233
0.217125
0.208506
0.200342
0.192602
0.185255
0.178277
0.171642
0.165329
0.159319
0.153592
0.148133
0.142928
0.137962
0.133223
0.128699
0.124379
0.120252
0.116307
0.112533
1.12222
1.04741
0.979017
0.91637
0.858892
0.806067
0.757439
0.712603
0.671202
0.632917
0.597464
0.564589
0.534065
0.505689
0.479275
0.454659
0.431689
0.410232
0.390164
0.371375
0.353766
0.337246
0.321733
0.307154
0.293441
0.280534
0.268377
0.25692
0.246114
0.235915
0.226279
0.217169
0.208547
0.200379
0.192635
0.185285
0.178302
0.171662
0.165344
0.159327
0.153593
0.148127
0.142912
0.137937
0.133187
0.128652
0.12432
0.12018
0.116222
0.112434
1.12222
1.04741
0.979022
0.916377
0.858899
0.806073
0.757444
0.712607
0.671205
0.632917
0.597462
0.564585
0.534061
0.505683
0.479269
0.454653
0.431684
0.410227
0.39016
0.371372
0.353763
0.337242
0.321729
0.307148
0.293434
0.280526
0.268368
0.25691
0.246103
0.235902
0.226265
0.217152
0.208528
0.200359
0.192613
0.18526
0.178275
0.171632
0.16531
0.159289
0.15355
0.148078
0.142856
0.137873
0.133114
0.128569
0.124226
0.120075
0.116106
0.112306
1.12222
1.04742
0.979027
0.916379
0.858899
0.806069
0.757435
0.712593
0.671184
0.632891
0.597429
0.564546
0.534015
0.505632
0.479214
0.454594
0.431623
0.410165
0.390096
0.371307
0.353697
0.337175
0.32166
0.307079
0.293364
0.280456
0.268299
0.256841
0.246035
0.235833
0.226196
0.217083
0.208459
0.20029
0.192544
0.185192
0.178206
0.171563
0.16524
0.159217
0.153476
0.147999
0.142773
0.137784
0.133018
0.128466
0.124115
0.119955
0.115975
0.112166
1.12223
1.04742
0.979029
0.916378
0.858892
0.806059
0.757424
0.712582
0.671175
0.632884
0.597427
0.564549
0.534025
0.505649
0.479238
0.454626
0.431662
0.41021
0.390147
0.371362
0.353755
0.337235
0.321722
0.307141
0.293426
0.280517
0.268358
0.256898
0.246088
0.235882
0.22624
0.217123
0.208495
0.200321
0.19257
0.185213
0.178223
0.171574
0.165245
0.159215
0.153465
0.14798
0.142744
0.137743
0.132966
0.128401
0.124037
0.119863
0.11587
0.112047
1.12223
1.04742
0.979021
0.916354
0.858849
0.805995
0.757335
0.712468
0.671036
0.632721
0.59724
0.564341
0.533799
0.505408
0.478986
0.454365
0.431396
0.40994
0.389876
0.371091
0.353486
0.336969
0.321459
0.306883
0.293173
0.28027
0.268117
0.256663
0.245858
0.235658
0.226022
0.21691
0.208288
0.200121
0.192377
0.185026
0.178041
0.171398
0.165073
0.159047
0.153299
0.147815
0.142579
0.137577
0.132798
0.128231
0.123863
0.119685
0.115687
0.111857
1.12223
1.04742
0.979006
0.91633
0.858827
0.805982
0.757341
0.712495
0.671086
0.632794
0.597335
0.564457
0.533932
0.505557
0.479147
0.454536
0.431572
0.41012
0.390057
0.371272
0.353664
0.337142
0.321627
0.307043
0.293326
0.280414
0.268252
0.256787
0.245971
0.235759
0.226112
0.21699
0.208358
0.200181
0.192427
0.185066
0.178072
0.171419
0.165084
0.159046
0.153288
0.147791
0.142542
0.137528
0.132735
0.128153
0.123771
0.119577
0.115563
0.111717
1.12223
1.04738
0.978893
0.91612
0.85851
0.805558
0.756815
0.711879
0.670393
0.632039
0.596533
0.563622
0.533078
0.504694
0.478283
0.453678
0.430727
0.409292
0.389249
0.370486
0.352903
0.336407
0.320918
0.306361
0.29267
0.279784
0.267647
0.256205
0.245412
0.235223
0.225598
0.216497
0.207885
0.199728
0.191992
0.184649
0.177672
0.171034
0.164713
0.158688
0.152941
0.147454
0.142215
0.137208
0.132422
0.127845
0.123467
0.119276
0.115264
0.11142
1.12223
1.04738
0.978912
0.916212
0.858693
0.80583
0.757164
0.712287
0.67084
0.632509
0.597012
0.564098
0.533539
0.505134
0.478696
0.454059
0.431074
0.409604
0.389525
0.370727
0.353109
0.336579
0.321058
0.306471
0.292752
0.279838
0.267674
0.256208
0.245393
0.235183
0.22554
0.216423
0.207796
0.199624
0.191876
0.184522
0.177535
0.170888
0.164559
0.158528
0.152775
0.147284
0.14204
0.137031
0.132244
0.127668
0.123293
0.11911
0.115109
0.111283
1.12223
1.04684
0.977794
0.914579
0.856639
0.803464
0.754586
0.709583
0.66808
0.629746
0.594288
0.561443
0.530976
0.502677
0.476355
0.451842
0.428984
0.407642
0.387691
0.369019
0.351524
0.335116
0.319713
0.30524
0.29163
0.278822
0.266759
0.255391
0.244671
0.234554
0.224999
0.215969
0.207425
0.199335
0.191668
0.184393
0.177484
0.170917
0.164668
0.158717
0.153047
0.147642
0.142488
0.137575
0.132892
0.128432
0.124186
0.120152
0.11633
0.112725
1.12234
1.04719
0.978587
0.915743
0.858174
0.805415
0.757049
0.712626
0.67175
0.634072
0.599286
0.567116
0.537319
0.509677
0.483997
0.460105
0.437843
0.417071
0.397664
0.379506
0.362497
0.346547
0.331573
0.317502
0.304269
0.291812
0.28008
0.269021
0.258593
0.248751
0.239458
0.230677
0.222372
0.214511
0.207066
0.200009
0.193314
0.186957
0.180919
0.17518
0.169727
0.164547
0.159632
0.154977
0.150579
0.14644
0.142568
0.138984
0.135728
0.132889
1.14679
1.10504
1.06597
1.02932
0.994814
0.962152
0.931094
0.901525
0.873352
0.84649
0.820865
0.796407
0.773052
0.750737
0.729408
0.709008
0.689487
0.670798
0.652895
0.635736
0.619285
0.603504
0.588361
0.573825
0.559866
0.546459
0.533578
0.521199
0.509296
0.497846
0.486826
0.476212
0.465983
0.456116
0.446592
0.437389
0.428488
0.419872
0.411523
0.403428
0.395574
0.387949
0.380542
0.373342
0.366337
0.359516
0.352864
0.346365
0.339997
0.333732
0.68145
0.0599713
0.0734076
0.118828
0.151076
0.147483
0.11094
0.0672713
0.0378236
0.0235129
0.0157137
0.0114284
0.00681177
0.0075015
0.0100311
0.0129835
0.0182115
0.0318812
0.123664
2.82305
0.668144
0.0604194
0.0744874
0.120306
0.152556
0.148587
0.111634
0.0677462
0.0382355
0.023855
0.0159659
0.0116997
0.00693828
0.0072674
0.00966584
0.0125416
0.0175125
0.030273
0.11783
2.81657
0.655013
0.0608333
0.0756094
0.12184
0.154076
0.149702
0.112316
0.068205
0.038638
0.0241922
0.0162099
0.011953
0.00709439
0.00715753
0.00946688
0.0123074
0.0171704
0.0295419
0.115718
2.83715
0.641995
0.0612416
0.0767762
0.123432
0.155637
0.150827
0.112984
0.0686487
0.0390321
0.0245253
0.0164459
0.0121914
0.00726976
0.00706397
0.0092722
0.0120738
0.0168305
0.0288201
0.113629
2.85712
0.629151
0.0616504
0.07799
0.125084
0.157242
0.151963
0.11364
0.0690774
0.0394182
0.0248544
0.0166743
0.0124131
0.00745868
0.00698662
0.00908292
0.0118418
0.0164934
0.028109
0.11157
2.87663
0.616473
0.0620646
0.0792531
0.126797
0.158889
0.153108
0.114283
0.0694912
0.0397968
0.0251797
0.0168938
0.0126149
0.00765464
0.00692466
0.00889983
0.0116118
0.0161596
0.0274097
0.109544
2.89583
0.60396
0.0624879
0.0805673
0.128573
0.16058
0.154263
0.114913
0.0698917
0.0401698
0.0255023
0.017105
0.0127987
0.00785278
0.0068773
0.00872385
0.0113849
0.01583
0.0267233
0.107555
2.91486
0.59161
0.0629227
0.0819346
0.130413
0.162312
0.155425
0.11553
0.0702809
0.0405395
0.0258237
0.017309
0.0129679
0.00804928
0.00684343
0.00855574
0.0111616
0.015505
0.0260508
0.105607
2.93386
0.579425
0.0633715
0.083357
0.132317
0.164087
0.156595
0.116136
0.0706611
0.0409083
0.0261457
0.0175076
0.013131
0.00824193
0.00682188
0.00839615
0.0109428
0.0151853
0.0253929
0.103701
2.95291
0.567401
0.063837
0.0848364
0.134287
0.165903
0.157772
0.116731
0.0710351
0.041279
0.02647
0.0177021
0.0132958
0.00843043
0.00681133
0.00824547
0.0107293
0.0148714
0.0247502
0.101839
2.97212
0.555539
0.0643223
0.0863752
0.136324
0.167762
0.158958
0.117318
0.0714059
0.0416542
0.026798
0.0178929
0.0134625
0.0086149
0.00681045
0.00810393
0.0105215
0.0145638
0.0241233
0.100024
2.9916
0.543839
0.0648308
0.0879761
0.13843
0.169663
0.160151
0.117898
0.0717765
0.0420365
0.0271306
0.0180795
0.0136267
0.00879384
0.00681762
0.00797154
0.0103202
0.014263
0.0235128
0.0982577
3.01152
0.532303
0.0653659
0.0896417
0.140607
0.171606
0.161352
0.118473
0.072149
0.0424279
0.0274687
0.0182613
0.0137815
0.00896333
0.00683081
0.00784808
0.0101257
0.0139695
0.0229191
0.0965442
3.03205
0.520933
0.0659306
0.0913747
0.142856
0.173592
0.16256
0.119043
0.0725261
0.0428303
0.0278126
0.0184369
0.0139199
0.00911934
0.00684785
0.00773312
0.00993834
0.0136837
0.0223429
0.0948868
3.05336
0.509732
0.0665276
0.0931778
0.145178
0.17562
0.163775
0.119611
0.0729108
0.0432462
0.0281627
0.0186055
0.0140358
0.00925834
0.00686661
0.00762614
0.00975845
0.0134061
0.0217843
0.0932891
3.07563
0.4987
0.0671598
0.0950535
0.147576
0.177689
0.164997
0.120178
0.0733061
0.0436783
0.0285203
0.0187671
0.0141285
0.00937765
0.00688519
0.00752655
0.00958622
0.0131369
0.0212439
0.0917548
3.09906
0.487838
0.0678296
0.0970047
0.150049
0.179798
0.166225
0.120746
0.0737159
0.0441295
0.028887
0.0189232
0.0142036
0.00947622
0.00690194
0.00743379
0.00942188
0.0128766
0.0207219
0.0902875
3.12383
0.477148
0.06854
0.0990338
0.152599
0.181949
0.167461
0.121318
0.0741439
0.0446026
0.0292637
0.0190748
0.0142694
0.00955528
0.00691557
0.00734728
0.00926559
0.0126256
0.0202186
0.0888909
3.15012
0.466631
0.0692939
0.101144
0.155229
0.184141
0.168706
0.121898
0.0745944
0.0451004
0.0296515
0.0192227
0.0143321
0.00961791
0.0069252
0.00726649
0.0091175
0.0123843
0.0197342
0.0875682
3.17809
0.456287
0.0700943
0.103338
0.15794
0.186376
0.16996
0.122489
0.0750706
0.045625
0.0300509
0.019367
0.014397
0.00966728
0.00693022
0.00719092
0.00897768
0.0121528
0.0192688
0.0863222
3.20789
0.44612
0.0709434
0.10562
0.160734
0.188654
0.171227
0.123093
0.0755753
0.0461777
0.0304612
0.0195068
0.0144665
0.00970533
0.00693006
0.00712007
0.00884614
0.0119314
0.0188224
0.0851554
3.23966
0.43613
0.0718437
0.107993
0.163614
0.190976
0.172506
0.123713
0.0761107
0.0467588
0.0308812
0.0196399
0.0145396
0.00973276
0.00692399
0.00705333
0.00872278
0.0117202
0.0183947
0.0840692
3.2735
0.42632
0.072797
0.11046
0.166582
0.193343
0.173799
0.12435
0.0766779
0.0473682
0.0313085
0.0197625
0.0146114
0.00974927
0.0069112
0.0069901
0.00860737
0.011519
0.0179854
0.0830647
3.30951
0.41669
0.0738048
0.113024
0.16964
0.195756
0.175106
0.125006
0.0772777
0.0480048
0.0317401
0.0198703
0.014674
0.0097534
0.00689094
0.00692977
0.00849961
0.0113277
0.017594
0.0821421
3.34776
0.407241
0.0748687
0.11569
0.172791
0.198215
0.176428
0.125682
0.0779102
0.0486669
0.0321727
0.0199585
0.0147226
0.00974341
0.00686254
0.00687178
0.00839917
0.0111461
0.01722
0.0813014
3.38832
0.397974
0.0759903
0.118461
0.176038
0.200723
0.177766
0.126378
0.0785754
0.0493525
0.032602
0.0200215
0.0147552
0.00971874
0.00682557
0.00681563
0.00830568
0.0109739
0.0168628
0.0805424
3.43123
0.388889
0.0771715
0.121341
0.179385
0.203281
0.179122
0.127097
0.0792728
0.0500588
0.0330233
0.0200531
0.0147683
0.00967967
0.00678
0.006761
0.00821883
0.0108108
0.0165217
0.0798648
3.47656
0.379988
0.078414
0.124335
0.182834
0.205892
0.180498
0.127838
0.0800018
0.0507828
0.0334311
0.020046
0.0147599
0.00962758
0.00672614
0.00670767
0.00813832
0.0106564
0.0161961
0.0792685
3.52437
0.371271
0.0797199
0.127448
0.18639
0.208558
0.181897
0.128605
0.0807619
0.0515213
0.0338194
0.0199923
0.0147284
0.00956479
0.00666463
0.00665557
0.0080639
0.0105106
0.0158857
0.078754
3.57473
0.362739
0.0810912
0.130683
0.190058
0.211282
0.18332
0.129398
0.0815525
0.0522704
0.0341813
0.0198824
0.0146671
0.00949335
0.00659623
0.0066047
0.00799536
0.010373
0.0155898
0.0783222
3.62773
0.354395
0.0825302
0.134047
0.19384
0.214068
0.184771
0.130221
0.0823735
0.0530264
0.034509
0.0197058
0.0145655
0.00941408
0.00652169
0.00655516
0.00793257
0.0102434
0.0153081
0.077975
3.68349
0.346236
0.0840393
0.137544
0.197741
0.216917
0.186253
0.131076
0.0832251
0.053785
0.0347939
0.0194507
0.0144092
0.00932571
0.00644118
0.00650707
0.00787549
0.0101218
0.0150403
0.077715
3.74215
0.338264
0.0856213
0.141177
0.201762
0.219832
0.18777
0.131967
0.0841085
0.0545424
0.035027
0.0191046
0.0141855
0.00922457
0.00635386
0.00646067
0.0078243
0.0100079
0.0147864
0.0775461
3.80385
0.330478
0.0872797
0.14495
0.205907
0.222816
0.189327
0.132901
0.085026
0.0552948
0.0351987
0.0186551
0.0138898
0.00909779
0.00625636
0.00641649
0.00777939
0.00990183
0.0145461
0.0774728
3.86876
0.322876
0.0890183
0.148867
0.210176
0.225871
0.190932
0.133885
0.0859815
0.0560391
0.0352997
0.0180895
0.0135467
0.0089177
0.0061409
0.00637544
0.00774139
0.00980349
0.0143192
0.0774988
3.93697
0.315458
0.0908415
0.15293
0.214572
0.229001
0.192591
0.13493
0.0869814
0.0567739
0.0353211
0.0173941
0.0131931
0.00864459
0.00599696
0.00633895
0.00771068
0.00971246
0.0141052
0.0776262
4.00852
0.308223
0.092754
0.157143
0.219094
0.232209
0.194317
0.136049
0.0880349
0.0575006
0.0352578
0.0165591
0.0128164
0.00824438
0.00582315
0.00630881
0.00768622
0.00962775
0.013903
0.0778543
4.0833
0.301169
0.094761
0.161505
0.223742
0.235501
0.19612
0.137259
0.0891542
0.0582242
0.0351127
0.015596
0.0122122
0.00771504
0.00565249
0.00628735
0.00766274
0.00954826
0.0137113
0.0781804
4.1611
0.294296
0.0968672
0.16602
0.228519
0.238882
0.198016
0.138575
0.0903528
0.0589525
0.0349006
0.0145696
0.0106629
0.00713921
0.00550676
0.00627178
0.00764163
0.00947074
0.0135292
0.0786035
4.24172
0.287601
0.0990776
0.170688
0.233425
0.242361
0.200021
0.140017
0.0916425
0.0596925
0.03464
0.0135629
0.00838768
0.00661952
0.00538223
0.00625902
0.00762108
0.00939527
0.0133544
0.0791238
4.32497
0.281083
0.101397
0.17551
0.238463
0.245947
0.202151
0.1416
0.0930313
0.0604446
0.0343332
0.0125925
0.00689026
0.00617415
0.00527689
0.00624824
0.00760057
0.00932194
0.013187
0.079746
4.41071
0.274739
0.103829
0.180488
0.243634
0.24965
0.204424
0.14334
0.0945235
0.0612043
0.0339729
0.0116454
0.0058614
0.00577317
0.00518431
0.00623683
0.00757913
0.00925023
0.0130282
0.0804816
4.49891
0.268567
0.106377
0.185623
0.248944
0.253483
0.206858
0.145249
0.0961213
0.0619646
0.0335521
0.0107995
0.00534339
0.00543139
0.00510119
0.00622302
0.00755563
0.00917965
0.0128799
0.0813496
4.58969
0.262565
0.109046
0.190915
0.254396
0.257459
0.209472
0.147341
0.0978282
0.0627205
0.0330673
0.0101422
0.00494946
0.0051455
0.00502578
0.0062063
0.00752965
0.00911004
0.012744
0.0823771
4.68324
0.256729
0.111837
0.196364
0.259996
0.261592
0.212284
0.14963
0.0996494
0.063479
0.0325492
0.0098028
0.00461346
0.00489887
0.00495498
0.00618609
0.00750116
0.00904165
0.0126231
0.0836024
4.77986
0.251056
0.114752
0.20197
0.265747
0.265898
0.215313
0.152122
0.101578
0.0642277
0.0321976
0.00961447
0.00433687
0.00468013
0.00488537
0.00616144
0.00747
0.00897491
0.012521
0.0850773
4.87995
0.24554
0.117793
0.207733
0.271655
0.270394
0.218583
0.154837
0.103621
0.0649622
0.0320821
0.00949986
0.00410792
0.00448451
0.0048149
0.00613173
0.00743603
0.00891191
0.0124409
0.0868707
4.98399
0.240177
0.120961
0.21365
0.277727
0.275094
0.222107
0.15778
0.105777
0.0657741
0.0320957
0.00942977
0.00390725
0.0043079
0.00474266
0.00609695
0.00739964
0.00885288
0.0123892
0.0890723
5.09253
0.234961
0.124259
0.219723
0.283971
0.280019
0.225904
0.160955
0.108035
0.0666884
0.0321835
0.00938865
0.00372365
0.00414563
0.00466802
0.00605736
0.00736116
0.00879858
0.0123745
0.0917997
5.20614
0.229887
0.127684
0.225948
0.290396
0.285192
0.229998
0.16437
0.110386
0.0677121
0.0323108
0.00937025
0.00355414
0.00399467
0.00459079
0.00601324
0.0073216
0.00874964
0.0124075
0.0952039
5.3254
0.22495
0.131239
0.232324
0.297009
0.290632
0.23441
0.168033
0.112877
0.0687958
0.0324568
0.00936971
0.00339567
0.00385362
0.00451158
0.00596516
0.00728154
0.0087075
0.012502
0.0994822
5.45073
0.220144
0.134926
0.238849
0.30382
0.29636
0.239156
0.171949
0.115522
0.0699263
0.0326052
0.00938235
0.00324506
0.00372162
0.00443138
0.00591382
0.00724096
0.008675
0.0126755
0.104886
5.58242
0.215463
0.138744
0.24552
0.310842
0.302401
0.244256
0.176122
0.118341
0.071088
0.0327517
0.00940833
0.00310216
0.00359802
0.00435137
0.00586113
0.00719952
0.0086556
0.0129507
0.11175
5.72034
0.210901
0.142693
0.252331
0.318083
0.308779
0.249734
0.180607
0.121319
0.0722736
0.0329056
0.00945374
0.00297057
0.00348286
0.00427371
0.00580803
0.007158
0.00865361
0.0133569
0.12052
5.8639
0.206453
0.146771
0.259275
0.32555
0.315514
0.255609
0.185462
0.124442
0.0734915
0.0330832
0.00952333
0.00285646
0.00337634
0.00419958
0.00575502
0.00711906
0.00867437
0.0139328
0.131772
6.01194
0.202113
0.150977
0.266342
0.333249
0.322628
0.261981
0.190673
0.127707
0.0747597
0.0332995
0.00961635
0.00276365
0.00327935
0.00413382
0.00570087
0.0070859
0.00872454
0.0147317
0.146436
6.16203
0.197874
0.155308
0.273518
0.341184
0.330196
0.268894
0.196231
0.131134
0.0760997
0.0335667
0.00973059
0.00269079
0.00319131