/*--------------------------------*- C++ -*----------------------------------*\
  =========                 |
  \\      /  F ield         | OpenFOAM: The Open Source CFD Toolbox
   \\    /   O peration     | Website:  https://openfoam.org
    \\  /    A nd           | Version:  8
     \\/     M anipulation  |
\*---------------------------------------------------------------------------*/
FoamFile
{
    version     2.0;
    format      ascii;
    class       volScalarField;
    location    "1000";
    object      k;
}
// * * * * * * * * * * * * * * * * * * * * * * * * * * * * * * * * * * * * * //

dimensions      [0 2 -2 0 0 0 0];

internalField   nonuniform List<scalar> 
8400
(
0.0190531
0.0188821
0.0186979
0.0184992
0.0182862
0.0180593
0.0178194
0.0175674
0.0173049
0.0170337
0.0167562
0.0164751
0.016194
0.0159167
0.0156476
0.0153917
0.0151541
0.0149406
0.0147565
0.0146072
0.0144977
0.0144321
0.0144135
0.014443
0.0145204
0.0146434
0.0148063
0.0149995
0.0152124
0.0154282
0.0156363
0.0158243
0.0159472
0.0160312
0.0161199
0.0156478
0.0152092
0.0147837
0.0143749
0.0140097
0.0136647
0.0133355
0.0130308
0.0127443
0.012468
0.0122077
0.0119612
0.0117319
0.0115179
0.0113202
0.0124633
0.0123794
0.0122751
0.0121497
0.0120034
0.0118367
0.0116509
0.0114481
0.011231
0.0110031
0.0107685
0.010532
0.0102991
0.0100754
0.00986683
0.00967968
0.00951991
0.00939398
0.00930824
0.00926878
0.00928184
0.00935394
0.00949199
0.009703
0.00999445
0.0103749
0.0108531
0.0114365
0.0121309
0.0129325
0.0138246
0.0147724
0.0157066
0.0165192
0.0169953
0.0161766
0.0152394
0.0144586
0.0137403
0.0131024
0.0125284
0.0120031
0.0115157
0.0110661
0.0106533
0.0102734
0.00992125
0.00959111
0.00928727
0.00900706
0.0106502
0.0104514
0.0102236
0.00996984
0.00969379
0.00939997
0.00909341
0.00877952
0.00846397
0.00815244
0.00785047
0.0075633
0.00729577
0.00705227
0.00683681
0.006653
0.00650413
0.0063929
0.00632237
0.00629541
0.00631502
0.0063847
0.00650931
0.00669545
0.00695252
0.00729462
0.00774255
0.00832587
0.00908618
0.0100734
0.011344
0.0129187
0.0147409
0.0165572
0.0176629
0.0168727
0.0155803
0.0145499
0.013695
0.0129619
0.0123019
0.0117083
0.0111901
0.0107182
0.0102874
0.0098972
0.00954492
0.00922529
0.00893352
0.00866613
0.00776521
0.00757405
0.00735804
0.00712211
0.00687199
0.00661366
0.00635314
0.00609617
0.00584802
0.00561329
0.00539571
0.00519834
0.00502362
0.00487324
0.00474858
0.00465052
0.00458003
0.00453779
0.0045245
0.00454094
0.00458789
0.00466612
0.00477671
0.00492159
0.00510418
0.00533209
0.00562086
0.00599955
0.00652103
0.00727101
0.00839582
0.0100979
0.0125779
0.0157045
0.0181606
0.0173914
0.0159973
0.0147123
0.0136901
0.0128541
0.0121211
0.011495
0.0109469
0.0104596
0.0100218
0.00963465
0.00928434
0.00897168
0.00869331
0.00843771
0.00525992
0.00514442
0.00501361
0.00487181
0.00472377
0.00457418
0.0044274
0.00428716
0.00415658
0.00403808
0.00393328
0.00384327
0.00376888
0.00371057
0.00366868
0.00364373
0.00363628
0.00364726
0.00367772
0.00372872
0.0038011
0.00389498
0.00400959
0.00414327
0.0042933
0.00445745
0.00463723
0.0048429
0.00510385
0.00547937
0.00611093
0.00730173
0.00964399
0.0138117
0.0183847
0.0178695
0.016376
0.0150268
0.0138162
0.012881
0.0120808
0.0114039
0.0108298
0.0103203
0.0098758
0.00949046
0.00914791
0.00884262
0.00856964
0.00831959
0.00375176
0.0037066
0.0036544
0.00359756
0.00353863
0.00348007
0.00342403
0.0033722
0.00332583
0.00328586
0.00325289
0.00322732
0.00320948
0.00319981
0.00319886
0.00320773
0.00322776
0.00326084
0.00330922
0.00337523
0.00346064
0.00356624
0.00369129
0.00383351
0.00398765
0.00414481
0.00429826
0.0044451
0.00459093
0.00474916
0.00497961
0.00547164
0.00686928
0.0110007
0.0182437
0.0183025
0.0167715
0.0153624
0.0141344
0.0130996
0.0122492
0.0114908
0.0108567
0.0103376
0.00988751
0.00949843
0.00914467
0.0088295
0.00855449
0.00830336
0.00310553
0.00309586
0.00308398
0.0030707
0.00305692
0.00304343
0.00303095
0.00302008
0.00301117
0.00300451
0.00300033
0.00299891
0.0030006
0.00300599
0.00301598
0.00303223
0.00305685
0.00309252
0.00314252
0.00321065
0.00329947
0.00341013
0.00354252
0.00369511
0.00386258
0.0040315
0.00419228
0.00433793
0.00446818
0.0045778
0.0046797
0.00482085
0.00524681
0.00786061
0.0176365
0.0186534
0.0172327
0.0158256
0.0145713
0.0134809
0.0125627
0.0117874
0.0111155
0.0105418
0.0100581
0.00964034
0.00925677
0.00891876
0.00863528
0.00837931
0.00292879
0.00292707
0.00292583
0.00292488
0.0029243
0.00292405
0.00292428
0.00292514
0.00292653
0.00292849
0.00293109
0.0029345
0.00293913
0.00294542
0.00295456
0.00296825
0.0029892
0.00302095
0.00306733
0.00313372
0.00322305
0.00333615
0.00347334
0.00363396
0.00381323
0.00399236
0.00416273
0.00431617
0.0044463
0.00455219
0.00463599
0.00470574
0.00480449
0.00567355
0.0165243
0.0189324
0.0177323
0.0164363
0.0152052
0.0141004
0.0131248
0.0122753
0.0115436
0.0109078
0.0103618
0.00989487
0.00948617
0.0091296
0.00881821
0.00854077
0.00292921
0.00292311
0.00291989
0.00291786
0.00291687
0.00291669
0.00291723
0.0029186
0.00292036
0.00292255
0.00292508
0.00292754
0.00293085
0.002935
0.0029412
0.00295122
0.00296831
0.002997
0.00304127
0.00310824
0.00320015
0.00331712
0.00346013
0.00362606
0.0038067
0.00399099
0.00416644
0.00432306
0.00445414
0.00455766
0.00463466
0.00468715
0.00472194
0.00490223
0.015322
0.0191815
0.0183393
0.0172392
0.0160791
0.0149689
0.0139507
0.0130344
0.0122222
0.0115073
0.0108837
0.0103449
0.00987899
0.00947376
0.00911693
0.00880191
0.00296784
0.00295574
0.00294892
0.00294358
0.00293956
0.00293702
0.00293542
0.00293423
0.00293316
0.00293364
0.00293509
0.00293598
0.00293764
0.00293998
0.00294419
0.00295264
0.00296896
0.00299824
0.00304518
0.00311438
0.00320967
0.00333291
0.00348344
0.00365697
0.00384459
0.00403408
0.00421244
0.00436831
0.00449505
0.00459015
0.00465556
0.00469309
0.00470237
0.00472251
0.0152995
0.0195341
0.0190952
0.0182613
0.017245
0.016174
0.015123
0.0141323
0.0132246
0.0124065
0.0116801
0.011045
0.0104921
0.0100114
0.00959228
0.00922628
0.00299072
0.00298166
0.00297428
0.00296801
0.00296239
0.00295779
0.00295406
0.00295119
0.00294887
0.00294747
0.002947
0.00294668
0.00294673
0.00294805
0.00295182
0.00296067
0.00297913
0.00301259
0.00306644
0.0031454
0.003253
0.00339014
0.00355519
0.00374237
0.0039404
0.00413571
0.00431402
0.00446338
0.00457797
0.00465614
0.00470053
0.00471495
0.00470378
0.00542381
0.0185402
0.0202692
0.0201446
0.0196459
0.0188253
0.0178275
0.01676
0.01569
0.0146652
0.0137139
0.0128512
0.0120821
0.0114048
0.0108142
0.0103008
0.00985526
0.0029951
0.00299001
0.00298519
0.00298072
0.0029765
0.00297251
0.00296889
0.00296557
0.00296267
0.00296042
0.0029586
0.00295739
0.00295679
0.00295751
0.00296171
0.00297333
0.00299831
0.00304268
0.00311206
0.00321069
0.00334124
0.0035028
0.00369172
0.00390005
0.00411246
0.00431335
0.00448727
0.00462164
0.00471254
0.00476179
0.00477712
0.00477574
0.00475572
0.00908462
0.0208812
0.0219475
0.0217919
0.0215429
0.0209782
0.020101
0.0190329
0.0178803
0.0167227
0.0156063
0.0145634
0.0136132
0.0127624
0.012011
0.0113532
0.0107816
0.00299678
0.00299347
0.00299018
0.00298697
0.00298378
0.00298063
0.00297758
0.00297478
0.00297207
0.00296977
0.00296769
0.00296608
0.00296534
0.00296669
0.00297384
0.00299312
0.00303247
0.00309856
0.00319648
0.00332911
0.0034975
0.00369687
0.00392081
0.00415794
0.00438598
0.00458866
0.00474985
0.00485554
0.00490711
0.00492186
0.00491933
0.00488276
0.00565645
0.0137501
0.0233051
0.0243966
0.0244272
0.024226
0.023937
0.0232335
0.0222012
0.0209782
0.0196721
0.0183568
0.0170873
0.0158985
0.0148088
0.0138266
0.0129539
0.0121868
0.00299762
0.00299519
0.00299276
0.0029903
0.00298782
0.0029854
0.00298293
0.00298054
0.00297822
0.0029761
0.00297418
0.00297281
0.00297289
0.00297706
0.00299236
0.00302896
0.00309761
0.00320398
0.00335087
0.00353804
0.0037639
0.00401564
0.00428427
0.00455488
0.00479181
0.00498222
0.00511619
0.00517176
0.00518459
0.00516372
0.00508438
0.0053376
0.0088873
0.0183557
0.0262821
0.0276886
0.028162
0.0282497
0.0280323
0.0275617
0.0266224
0.0253623
0.0239135
0.0223812
0.0208432
0.0193538
0.0179498
0.0166528
0.0154735
0.0144139
0.00299812
0.00299623
0.00299433
0.00299235
0.00299035
0.00298834
0.00298628
0.00298425
0.00298235
0.00298059
0.00297911
0.0029787
0.00298159
0.00299402
0.00302989
0.00310428
0.00323031
0.00340779
0.00363382
0.00390215
0.00420852
0.00452166
0.00483434
0.00513002
0.00534959
0.00548994
0.00557334
0.00558785
0.00551433
0.00536448
0.00574183
0.00764885
0.0133909
0.0233569
0.0301987
0.0321501
0.0331967
0.0337223
0.0337719
0.033547
0.0327759
0.0315434
0.0299965
0.0282625
0.0264437
0.0246157
0.0228361
0.0211417
0.019554
0.018084
0.0029985
0.00299697
0.00299544
0.00299384
0.00299224
0.00299059
0.00298894
0.00298725
0.00298562
0.00298431
0.00298412
0.00298742
0.00299996
0.00303525
0.00312232
0.00327655
0.00351102
0.00380682
0.00414943
0.00452212
0.00492625
0.00528451
0.00560829
0.00587859
0.006022
0.00601149
0.0059508
0.00585741
0.00594042
0.00640115
0.00789319
0.0117303
0.0193783
0.0292278
0.0354922
0.0381953
0.0400035
0.0411649
0.0417152
0.0417173
0.0412326
0.0401515
0.038623
0.0367813
0.0347471
0.0326149
0.0304581
0.028328
0.02626
0.0242776
0.00299876
0.00299767
0.0029963
0.00299486
0.00299343
0.00299197
0.00299048
0.0029892
0.00298859
0.00299013
0.00299742
0.00301763
0.0030627
0.00315958
0.00337907
0.00369443
0.00412034
0.00459029
0.0050695
0.00551993
0.00600976
0.00634098
0.00657652
0.0066316
0.00662752
0.00667441
0.00674406
0.00700105
0.00773951
0.00926944
0.0123646
0.0181696
0.0270481
0.0364494
0.0425692
0.0461538
0.0488651
0.0508352
0.052052
0.0525543
0.0525567
0.0518613
0.0505998
0.0488979
0.0468736
0.0446256
0.0422355
0.039768
0.0372725
0.0347817
0.00300341
0.00301451
0.00301081
0.00300848
0.00300612
0.00300386
0.00300184
0.00299997
0.00300911
0.00303483
0.00308765
0.00318314
0.00333355
0.00359228
0.0042291
0.00484865
0.00554857
0.00618745
0.00668943
0.00693983
0.00751215
0.00784712
0.00798561
0.00814777
0.00833321
0.00879542
0.00949995
0.0105137
0.0122861
0.0152264
0.0200195
0.0273033
0.0365701
0.0453663
0.0516045
0.0560951
0.0598012
0.062773
0.0649513
0.0663474
0.0671629
0.0672966
0.0667866
0.0657282
0.0642135
0.0623266
0.0601483
0.0577505
0.0551853
0.0524817
0.00349994
0.00420597
0.00503441
0.0050119
0.00443664
0.00414894
0.00398462
0.00391383
0.00386852
0.00419163
0.00471909
0.00529701
0.00566459
0.00614364
0.00946183
0.0104209
0.0106205
0.0108159
0.0107103
0.0105281
0.010644
0.0111746
0.0121008
0.0129493
0.0137868
0.014904
0.0164142
0.0184377
0.0213483
0.025544
0.0314433
0.0391545
0.0478443
0.055792
0.0620849
0.0673259
0.0720614
0.0763334
0.0800344
0.0830435
0.0852695
0.0870203
0.0881298
0.0886334
0.0885806
0.0880349
0.087066
0.0857306
0.0840625
0.0820775
0.0116484
0.0124783
0.0133753
0.0143036
0.0152188
0.016259
0.0177338
0.019247
0.0203971
0.0208488
0.0209834
0.0210756
0.0211508
0.0211795
0.0213524
0.0220558
0.023175
0.0238104
0.0242627
0.0247205
0.0252045
0.0261386
0.0275347
0.0289389
0.0303243
0.0319444
0.0339749
0.0365479
0.0398928
0.0442501
0.0497818
0.0563747
0.0634507
0.0701899
0.0762971
0.0821353
0.0880598
0.0941429
0.100229
0.10596
0.110892
0.115293
0.119388
0.123079
0.126336
0.12917
0.131597
0.133622
0.135268
0.136571
0.0589324
0.0574962
0.0561357
0.0548437
0.0536124
0.0524336
0.0512998
0.0502083
0.0491571
0.0481441
0.0471677
0.0462261
0.0453179
0.0444415
0.0435955
0.0427785
0.0419894
0.0412268
0.0404898
0.0397772
0.0390879
0.0384211
0.0377757
0.0371512
0.0365466
0.0359613
0.0353947
0.0348459
0.0343144
0.0337995
0.0333006
0.0328174
0.0323491
0.0318952
0.0314551
0.0310283
0.0306142
0.0302124
0.0298225
0.0294422
0.0290708
0.0287074
0.0283514
0.0280019
0.0276578
0.0273178
0.0269799
0.0266412
0.0262961
0.025934
0.0580961
0.0554783
0.0530307
0.0507365
0.0485878
0.0465758
0.0446923
0.0429267
0.0412696
0.0397123
0.0382469
0.0368662
0.0355637
0.0343334
0.03317
0.0320686
0.0310248
0.0300346
0.0290942
0.0282002
0.0273495
0.0265393
0.0257672
0.0250307
0.0243279
0.0236566
0.0230149
0.0224013
0.021814
0.0212517
0.020713
0.0201965
0.0197009
0.0192249
0.0187669
0.0183258
0.0179003
0.0174893
0.0170918
0.0167084
0.0163388
0.0159822
0.015638
0.0153055
0.0149841
0.0146732
0.0143721
0.0140799
0.0137959
0.0135187
0.0580912
0.0554629
0.0529986
0.05069
0.0485263
0.0464969
0.0445917
0.042801
0.0411159
0.0395284
0.0380311
0.0366172
0.0352807
0.0340159
0.0328178
0.0316818
0.0306038
0.0295797
0.028606
0.0276795
0.0267971
0.0259561
0.025154
0.0243887
0.0236579
0.0229597
0.0222921
0.0216536
0.0210426
0.0204575
0.0198971
0.01936
0.018845
0.0183508
0.0178764
0.0174206
0.0169824
0.016561
0.0161555
0.015765
0.0153889
0.0150265
0.0146772
0.0143405
0.0140159
0.0137028
0.0134008
0.0131095
0.0128286
0.0125575
0.0580914
0.0554813
0.0530384
0.0507498
0.0486034
0.0465878
0.0446927
0.0429091
0.0412285
0.0396433
0.0381465
0.0367319
0.0353936
0.0341262
0.0329249
0.0317852
0.0307032
0.0296748
0.0286967
0.0277656
0.0268785
0.0260328
0.0252261
0.0244561
0.0237207
0.0230179
0.0223459
0.021703
0.0210877
0.0204985
0.0199341
0.0193932
0.0188745
0.0183768
0.017899
0.01744
0.0169986
0.0165741
0.0161655
0.015772
0.0153931
0.0150279
0.0146759
0.0143366
0.0140094
0.0136939
0.0133895
0.0130959
0.0128126
0.0125393
0.0580915
0.0554819
0.053038
0.0507467
0.0485968
0.0465776
0.0446792
0.0428928
0.04121
0.0396233
0.0381257
0.0367108
0.0353726
0.0341059
0.0329056
0.0317672
0.0306865
0.0296597
0.0286832
0.0277536
0.0268682
0.0260241
0.0252189
0.0244505
0.0237165
0.023015
0.0223443
0.0217025
0.0210883
0.0205002
0.0199368
0.0193969
0.0188791
0.0183824
0.0179053
0.017447
0.0170062
0.0165822
0.016174
0.0157809
0.0154021
0.0150371
0.0146852
0.0143459
0.0140186
0.0137028
0.0133981
0.013104
0.0128201
0.012546
0.0580915
0.0554835
0.0530424
0.0507548
0.0486092
0.0465944
0.0447003
0.0429178
0.0412385
0.0396548
0.0381596
0.0367466
0.03541
0.0341444
0.032945
0.0318071
0.0307267
0.0296998
0.028723
0.0277931
0.0269071
0.0260624
0.0252566
0.0244873
0.0237524
0.0230499
0.0223781
0.0217353
0.02112
0.0205309
0.0199665
0.0194256
0.0189069
0.0184092
0.0179312
0.0174718
0.01703
0.0166049
0.0161957
0.0158014
0.0154216
0.0150554
0.0147023
0.0143617
0.0140331
0.013716
0.0134098
0.0131142
0.0128287
0.0125529
0.0580915
0.0554837
0.0530432
0.050756
0.0486104
0.0465952
0.0447004
0.0429169
0.0412365
0.0396516
0.0381552
0.0367412
0.0354037
0.0341373
0.0329372
0.0317988
0.030718
0.0296909
0.028714
0.027784
0.0268981
0.0260535
0.0252478
0.0244786
0.0237439
0.0230415
0.0223698
0.0217272
0.0211122
0.0205234
0.0199594
0.0194189
0.0189005
0.0184031
0.0179254
0.0174663
0.0170248
0.0165999
0.0161907
0.0157967
0.0154169
0.0150507
0.0146975
0.0143568
0.014028
0.0137106
0.0134041
0.013108
0.012822
0.0125455
0.0580915
0.0554837
0.0530437
0.0507571
0.0486123
0.046598
0.0447041
0.0429216
0.0412422
0.0396583
0.038163
0.03675
0.0354133
0.0341478
0.0329484
0.0318107
0.0307304
0.0297037
0.0287272
0.0277975
0.0269118
0.0260674
0.0252617
0.0244924
0.0237574
0.0230548
0.0223828
0.0217399
0.0211246
0.0205355
0.0199712
0.0194303
0.0189116
0.0184138
0.0179356
0.017476
0.0170339
0.0166085
0.0161987
0.015804
0.0154235
0.0150565
0.0147025
0.0143609
0.0140311
0.0137126
0.0134049
0.0131077
0.0128204
0.0125426
0.0580914
0.0554836
0.0530436
0.0507573
0.0486127
0.0465985
0.0447048
0.0429223
0.0412427
0.0396586
0.038163
0.0367496
0.0354126
0.0341467
0.0329469
0.0318087
0.0307281
0.0297012
0.0287244
0.0277946
0.0269087
0.0260641
0.0252582
0.0244887
0.0237534
0.0230506
0.0223785
0.0217355
0.0211201
0.020531
0.0199667
0.0194259
0.0189072
0.0184094
0.0179312
0.0174716
0.0170295
0.016604
0.0161942
0.0157993
0.0154186
0.0150514
0.014697
0.014355
0.0140247
0.0137057
0.0133974
0.0130995
0.0128115
0.0125329
0.0580913
0.0554834
0.0530435
0.0507574
0.0486129
0.0465989
0.0447054
0.0429231
0.0412438
0.0396599
0.0381645
0.0367513
0.0354144
0.0341486
0.032949
0.031811
0.0307306
0.0297039
0.0287273
0.0277976
0.0269119
0.0260673
0.0252614
0.0244918
0.0237565
0.0230536
0.0223813
0.0217383
0.0211228
0.0205336
0.0199692
0.0194283
0.0189095
0.0184115
0.0179331
0.0174733
0.017031
0.0166052
0.0161951
0.0157998
0.0154187
0.0150509
0.014696
0.0143532
0.0140222
0.0137023
0.0133932
0.0130943
0.0128053
0.0125256
0.0580913
0.0554833
0.0530434
0.0507573
0.0486128
0.0465989
0.0447054
0.0429232
0.041244
0.0396602
0.0381648
0.0367514
0.0354145
0.0341485
0.0329488
0.0318108
0.0307304
0.0297037
0.0287272
0.0277975
0.0269118
0.0260671
0.0252611
0.0244914
0.023756
0.0230529
0.0223806
0.0217375
0.0211219
0.0205327
0.0199682
0.0194271
0.0189082
0.0184101
0.0179317
0.0174717
0.0170292
0.0166032
0.0161929
0.0157973
0.0154158
0.0150476
0.0146921
0.0143487
0.014017
0.0136964
0.0133865
0.0130868
0.0127968
0.0125161
0.0580912
0.0554832
0.0530432
0.0507571
0.0486126
0.0465986
0.0447051
0.0429228
0.0412434
0.0396594
0.0381637
0.03675
0.0354127
0.0341464
0.0329464
0.0318082
0.0307276
0.0297008
0.0287241
0.0277943
0.0269084
0.0260636
0.0252574
0.0244876
0.0237521
0.0230489
0.0223765
0.0217333
0.0211178
0.0205284
0.0199639
0.0194228
0.0189039
0.0184058
0.0179273
0.0174673
0.0170248
0.0165987
0.0161882
0.0157925
0.0154107
0.0150422
0.0146863
0.0143425
0.0140103
0.0136891
0.0133785
0.0130781
0.0127873
0.0125058
0.0580912
0.0554831
0.0530431
0.0507567
0.0486122
0.0465982
0.0447047
0.0429226
0.0412434
0.0396595
0.038164
0.0367505
0.0354134
0.0341474
0.0329477
0.0318099
0.0307296
0.029703
0.0287266
0.027797
0.0269113
0.0260667
0.0252606
0.0244908
0.0237552
0.0230521
0.0223796
0.0217363
0.0211205
0.020531
0.0199663
0.019425
0.0189059
0.0184075
0.0179288
0.0174686
0.0170257
0.0165994
0.0161885
0.0157923
0.0154099
0.0150408
0.0146842
0.0143397
0.0140066
0.0136845
0.013373
0.0130715
0.0127796
0.012497
0.0580912
0.055483
0.0530425
0.0507557
0.0486105
0.0465958
0.0447015
0.0429184
0.0412381
0.039653
0.0381563
0.0367417
0.0354036
0.0341368
0.0329364
0.0317978
0.030717
0.02969
0.0287132
0.0277834
0.0268976
0.0260529
0.0252467
0.0244769
0.0237414
0.0230383
0.022366
0.0217227
0.0211071
0.0205178
0.0199533
0.0194122
0.0188932
0.0183951
0.0179167
0.0174566
0.0170141
0.0165879
0.0161771
0.015781
0.0153987
0.0150295
0.0146729
0.0143282
0.0139949
0.0136725
0.0133606
0.0130586
0.0127662
0.0124829
0.0580912
0.0554827
0.0530418
0.0507547
0.0486097
0.0465955
0.044702
0.0429198
0.0412404
0.0396564
0.0381606
0.036747
0.0354097
0.0341437
0.0329439
0.0318059
0.0307255
0.0296987
0.0287222
0.0277924
0.0269066
0.0260617
0.0252554
0.0244853
0.0237495
0.023046
0.0223732
0.0217295
0.0211134
0.0205236
0.0199585
0.0194169
0.0188974
0.0183987
0.0179196
0.0174591
0.0170159
0.0165891
0.0161777
0.0157809
0.0153978
0.0150279
0.0146704
0.0143248
0.0139905
0.0136671
0.013354
0.0130509
0.0127572
0.0124726
0.0580912
0.0554814
0.0530378
0.0507471
0.0485979
0.0465794
0.0446815
0.0428952
0.0412122
0.039625
0.0381266
0.0367109
0.0353722
0.034105
0.0329045
0.031766
0.0306854
0.0296588
0.0286825
0.0277532
0.0268679
0.0260237
0.0252181
0.0244489
0.0237139
0.0230112
0.0223393
0.0216965
0.0210813
0.0204924
0.0199282
0.0193874
0.0188687
0.0183708
0.0178925
0.0174326
0.0169902
0.0165641
0.0161533
0.0157571
0.0153745
0.015005
0.0146479
0.0143026
0.0139686
0.0136453
0.0133322
0.0130291
0.0127353
0.0124506
0.0580913
0.0554811
0.0530386
0.0507507
0.048605
0.0465901
0.0446954
0.0429117
0.0412307
0.0396448
0.0381472
0.0367317
0.0353927
0.034125
0.0329235
0.0317839
0.030702
0.0296739
0.0286961
0.0277652
0.0268783
0.0260325
0.0252253
0.0244545
0.023718
0.023014
0.0223407
0.0216966
0.0210802
0.0204901
0.0199248
0.0193829
0.0188631
0.0183642
0.0178851
0.0174244
0.0169813
0.0165545
0.0161432
0.0157464
0.0153634
0.0149934
0.014636
0.0142904
0.0139561
0.0136327
0.0133198
0.013017
0.012724
0.0124404
0.0580912
0.0554625
0.0529984
0.0506906
0.0485277
0.046499
0.0445941
0.0428032
0.0411177
0.0395294
0.0380313
0.0366166
0.0352795
0.0340144
0.0328163
0.0316805
0.0306028
0.0295792
0.0286061
0.02768
0.026798
0.0259571
0.0251549
0.024389
0.0236574
0.0229583
0.0222899
0.0216507
0.0210391
0.0204538
0.0198931
0.0193559
0.0188407
0.0183465
0.0178721
0.0174163
0.0169781
0.0165564
0.0161503
0.0157589
0.0153816
0.0150178
0.0146668
0.0143282
0.0140017
0.0136871
0.0133841
0.0130929
0.0128138
0.0125477
0.058095
0.0554749
0.0530272
0.0507337
0.0485857
0.0465744
0.0446914
0.0429261
0.0412688
0.0397112
0.0382453
0.0368642
0.0355614
0.0343312
0.0331682
0.0320676
0.0310249
0.0300361
0.0290972
0.0282048
0.0273558
0.0265472
0.0257765
0.0250412
0.0243394
0.0236692
0.0230291
0.0224174
0.0218328
0.0212737
0.0207388
0.020227
0.019737
0.0192677
0.0188181
0.0183871
0.0179737
0.017577
0.0171962
0.0168305
0.0164796
0.016143
0.0158204
0.0155119
0.0152176
0.0149379
0.0146739
0.0144272
0.0142011
0.0140025
0.0589359
0.057498
0.0561356
0.0548424
0.0536101
0.0524303
0.0512958
0.0502038
0.0491521
0.0481388
0.047162
0.0462202
0.0453118
0.0444354
0.0435895
0.0427728
0.0419839
0.0412216
0.0404847
0.0397719
0.0390823
0.0384147
0.0377684
0.0371426
0.0365366
0.0359497
0.0353813
0.0348307
0.0342972
0.0337801
0.0332787
0.0327924
0.0323204
0.0318622
0.0314169
0.0309839
0.0305623
0.0301516
0.0297511
0.0293603
0.0289787
0.0286058
0.0282413
0.0278845
0.0275351
0.0271926
0.0268564
0.0265256
0.0261995
0.0258767
0.0418865
0.00845703
0.0095905
0.0131215
0.0153138
0.015026
0.0124402
0.00897149
0.00617492
0.00452061
0.00345926
0.00277167
0.00193382
0.00209224
0.00254254
0.00301847
0.00379548
0.0055558
0.0137549
0.10848
0.0413377
0.00850323
0.00968867
0.0132334
0.0154152
0.0151017
0.0124936
0.009017
0.00622331
0.00456698
0.00349855
0.00281696
0.00195716
0.00204448
0.00248128
0.00295184
0.00370041
0.00537177
0.0133266
0.108323
0.0407916
0.00854655
0.00979011
0.013349
0.015519
0.0151778
0.0125461
0.00906122
0.00627077
0.00461281
0.00353712
0.00286387
0.00198697
0.00202145
0.00244693
0.00291567
0.00365292
0.00528635
0.0131688
0.108846
0.0402481
0.00858911
0.00989502
0.0134684
0.0156252
0.0152545
0.0125978
0.00910428
0.00631742
0.00465811
0.00357476
0.0029096
0.00202152
0.00200156
0.00241287
0.00287926
0.00360534
0.00520116
0.0130116
0.109352
0.0397079
0.00863174
0.0100036
0.0135917
0.015734
0.0153319
0.0126485
0.00914616
0.00636328
0.00470282
0.00361124
0.00295325
0.00205966
0.00198494
0.00237931
0.0028427
0.00355774
0.00511638
0.0128555
0.109844
0.039171
0.00867494
0.0101159
0.013719
0.0158454
0.0154097
0.0126984
0.00918694
0.00640841
0.00474696
0.00364635
0.00299288
0.0020999
0.00197155
0.00234644
0.00280609
0.00351019
0.00503217
0.0127007
0.110326
0.0386376
0.00871902
0.010232
0.0138503
0.0159592
0.015488
0.0127474
0.00922671
0.00645298
0.0047906
0.00368006
0.00302777
0.00214064
0.00196121
0.00231441
0.00276955
0.00346279
0.00494867
0.0125478
0.110802
0.0381078
0.00876417
0.0103522
0.0139857
0.0160755
0.0155667
0.0127956
0.00926563
0.00649718
0.0048339
0.0037125
0.0030588
0.00218071
0.00195373
0.00228339
0.00273319
0.00341562
0.00486602
0.0123968
0.111275
0.0375815
0.00881059
0.0104764
0.014125
0.0161942
0.0156459
0.012843
0.00930395
0.00654132
0.00487707
0.00374394
0.00308751
0.00221962
0.00194888
0.00225354
0.00269712
0.00336876
0.00478432
0.0122481
0.111747
0.0370587
0.00885854
0.0106048
0.0142685
0.0163152
0.0157254
0.0128898
0.00934195
0.00658568
0.00492035
0.00377466
0.00311545
0.00225738
0.00194648
0.00222501
0.00266148
0.0033223
0.00470367
0.0121016
0.112219
0.0365394
0.00890829
0.0107375
0.014416
0.0164385
0.0158053
0.0129361
0.00937992
0.00663057
0.00496397
0.00380485
0.00314403
0.00229427
0.00194634
0.00219793
0.00262641
0.00327633
0.00462417
0.0119577
0.112696
0.0360239
0.00896016
0.0108746
0.0145677
0.0165642
0.0158857
0.0129822
0.00941811
0.00667624
0.00500803
0.00383458
0.0031734
0.00233056
0.00194821
0.00217239
0.00259204
0.00323093
0.00454593
0.0118166
0.113178
0.0355121
0.00901445
0.0110163
0.0147236
0.0166922
0.0159666
0.0130281
0.00945677
0.00672291
0.00505259
0.00386373
0.00320266
0.00236603
0.00195179
0.00214844
0.00255846
0.00318619
0.00446904
0.0116784
0.113671
0.0350042
0.00907143
0.0111627
0.0148838
0.0168225
0.0160479
0.0130739
0.00949612
0.00677077
0.0050977
0.00389208
0.00323039
0.00239991
0.00195665
0.00212604
0.00252578
0.00314219
0.00439358
0.0115435
0.114176
0.0345006
0.00913131
0.011314
0.0150483
0.0169552
0.0161297
0.0131199
0.00953637
0.00682
0.00514339
0.00391949
0.00325515
0.0024312
0.00196232
0.00210514
0.00249404
0.00309898
0.00431963
0.0114121
0.114699
0.0340012
0.0091943
0.0114703
0.0152171
0.0170901
0.016212
0.0131661
0.00957778
0.00687083
0.00518973
0.00394591
0.00327622
0.00245904
0.00196832
0.00208565
0.00246331
0.00305664
0.00424727
0.0112845
0.115243
0.0335063
0.00926061
0.0116316
0.0153903
0.0172272
0.0162948
0.0132126
0.00962064
0.00692346
0.0052368
0.00397144
0.00329414
0.00248297
0.00197425
0.00206745
0.00243365
0.00301524
0.00417658
0.011161
0.115812
0.0330159
0.00933041
0.0117982
0.015568
0.0173665
0.0163781
0.0132597
0.00966522
0.00697814
0.0052847
0.00399623
0.00331018
0.00250306
0.00197981
0.00205046
0.0024051
0.00297487
0.00410763
0.011042
0.11641
0.0325302
0.00940388
0.0119702
0.01575
0.017508
0.016462
0.0133076
0.00971181
0.00703505
0.0053335
0.0040204
0.0033259
0.00251995
0.00198481
0.00203459
0.00237772
0.00293559
0.00404052
0.0109278
0.117042
0.0320493
0.00948121
0.0121476
0.0159367
0.0176518
0.0165466
0.0133566
0.00976065
0.00709432
0.00538316
0.00404392
0.00334226
0.00253448
0.00198912
0.00201976
0.00235157
0.0028975
0.00397531
0.0108188
0.117712
0.0315734
0.00956258
0.0123307
0.0161279
0.0177979
0.0166321
0.0134068
0.00981193
0.00715597
0.00543353
0.00406656
0.00335974
0.00254732
0.00199267
0.00200588
0.00232668
0.00286065
0.00391207
0.0107153
0.118423
0.0311026
0.00964811
0.0125195
0.0163239
0.0179465
0.0167186
0.0134583
0.00986572
0.00721994
0.00548435
0.00408787
0.00337789
0.00255885
0.00199534
0.00199287
0.00230308
0.00282512
0.00385085
0.0106177
0.119178
0.0306371
0.00973791
0.0127143
0.0165247
0.0180976
0.0168061
0.0135114
0.00992207
0.00728605
0.00553522
0.00410721
0.00339531
0.00256899
0.00199699
0.00198062
0.00228077
0.00279093
0.00379168
0.010526
0.119979
0.030177
0.00983207
0.0129153
0.0167306
0.0182512
0.0168948
0.013566
0.00998093
0.00735407
0.0055857
0.00412386
0.00341049
0.00257727
0.0019974
0.00196899
0.00225974
0.00275811
0.00373454
0.0104406
0.12083
0.0297226
0.00993062
0.0131225
0.0169415
0.0184076
0.0169846
0.0136221
0.0100422
0.00742371
0.00563524
0.00413705
0.00342261
0.00258321
0.0019964
0.00195786
0.00223994
0.00272666
0.00367944
0.0103615
0.12173
0.0292739
0.0100336
0.0133361
0.0171577
0.0185667
0.0170757
0.0136799
0.0101059
0.00749465
0.0056833
0.00414595
0.00343085
0.0025864
0.00199381
0.00194711
0.00222134
0.00269658
0.00362635
0.0102889
0.122682
0.028831
0.010141
0.0135564
0.0173793
0.0187286
0.0171682
0.0137394
0.0101717
0.00756655
0.00572926
0.00414969
0.00343503
0.00258658
0.00198954
0.00193664
0.0022039
0.00266784
0.00357523
0.0102229
0.123686
0.0283942
0.010253
0.0137835
0.0176064
0.0188935
0.0172622
0.0138007
0.0102397
0.00763902
0.00577241
0.00414724
0.00343568
0.00258389
0.00198354
0.00192639
0.00218758
0.00264044
0.00352607
0.0101636
0.124744
0.0279635
0.0103694
0.0140175
0.0178392
0.0190615
0.0173578
0.0138637
0.0103097
0.00771163
0.00581191
0.00413731
0.00343277
0.00257883
0.0019759
0.0019163
0.00217234
0.00261437
0.00347884
0.010111
0.125858
0.0275389
0.0104905
0.0142587
0.0180778
0.0192327
0.0174552
0.0139288
0.0103817
0.00778389
0.00584683
0.00411834
0.00342548
0.00257201
0.00196678
0.00190637
0.00215817
0.00258962
0.00343352
0.0100654
0.127028
0.0271206
0.0106164
0.0145071
0.0183224
0.0194074
0.0175547
0.013996
0.0104554
0.00785529
0.00587601
0.00408837
0.00341246
0.00256388
0.00195636
0.0018966
0.00214505
0.00256619
0.00339011
0.0100271
0.128258
0.0267088
0.0107471
0.014763
0.0185731
0.0195857
0.0176564
0.0140655
0.0105308
0.00792522
0.00589816
0.00404503
0.00339158
0.00255472
0.00194479
0.001887
0.00213301
0.00254408
0.00334863
0.00999624
0.12955
0.0263035
0.0108829
0.0150266
0.01883
0.0197679
0.0177607
0.0141376
0.0106079
0.00799306
0.00591182
0.00398556
0.00335889
0.00254439
0.00193204
0.00187756
0.00212208
0.00252334
0.00330911
0.0099734
0.130909
0.0259047
0.011024
0.0152978
0.0190934
0.019954
0.017868
0.0142128
0.0106868
0.00805823
0.00591545
0.00390705
0.00331075
0.0025308
0.00191741
0.00186829
0.00211237
0.00250402
0.00327159
0.00995908
0.132338
0.0255128
0.0111708
0.015577
0.0193631
0.0201444
0.0179786
0.0142914
0.0107675
0.00812016
0.00590747
0.00380651
0.00324931
0.0025088
0.00189893
0.00185919
0.00210404
0.00248616
0.00323613
0.00995374
0.133841
0.0251276
0.0113233
0.0158639
0.0196393
0.0203392
0.0180933
0.0143742
0.0108504
0.00817843
0.0058863
0.00368071
0.00318315
0.00247055
0.00187322
0.00185039
0.00209728
0.00246978
0.00320268
0.00995767
0.135417
0.0247493
0.0114821
0.0161587
0.0199218
0.0205388
0.0182125
0.0144621
0.0109362
0.0082329
0.00585075
0.00352643
0.00311763
0.002407
0.00183739
0.00184224
0.00209211
0.00245475
0.00317115
0.00997081
0.137065
0.0243779
0.0116473
0.0164612
0.0202106
0.0207433
0.0183373
0.0145563
0.0110257
0.00828385
0.0058006
0.00334281
0.0030265
0.00231504
0.00179413
0.00183564
0.00208782
0.00244088
0.00314129
0.0099927
0.138777
0.0240134
0.0118192
0.0167712
0.0205056
0.0209531
0.0184686
0.014658
0.0111201
0.00833204
0.00573739
0.00313754
0.00278774
0.00220412
0.00175488
0.00183106
0.0020841
0.00242746
0.00311286
0.0100227
0.140545
0.0236558
0.0119982
0.0170887
0.0208067
0.0211687
0.0186073
0.0147686
0.0112204
0.00837837
0.00566416
0.00292854
0.00241225
0.00208489
0.00172061
0.00182784
0.0020809
0.00241474
0.00308515
0.0100602
0.14236
0.0233051
0.0121845
0.0174133
0.0211139
0.0213906
0.0187547
0.0148893
0.0113273
0.00842318
0.00558234
0.00272402
0.00210947
0.00197458
0.00169112
0.00182548
0.00207786
0.00240243
0.00305819
0.010105
0.144214
0.0229613
0.0123781
0.0177449
0.0214272
0.0216194
0.0189119
0.0150211
0.0114413
0.00846633
0.00549215
0.0025299
0.00189621
0.00187578
0.00166569
0.00182349
0.00207474
0.00239034
0.00303213
0.0101569
0.146101
0.0226243
0.0125793
0.0180832
0.0217465
0.0218557
0.0190799
0.0151651
0.0115628
0.00850803
0.00539568
0.00237459
0.0017537
0.00178932
0.00164351
0.00182145
0.00207132
0.00237831
0.00300714
0.0102165
0.14802