/*--------------------------------*- C++ -*----------------------------------*\
  =========                 |
  \\      /  F ield         | OpenFOAM: The Open Source CFD Toolbox
   \\    /   O peration     | Website:  https://openfoam.org
    \\  /    A nd           | Version:  8
     \\/     M anipulation  |
\*---------------------------------------------------------------------------*/
FoamFile
{
    version     2.0;
    format      ascii;
    class       volScalarField;
    location    "1000";
    object      nut;
}
// * * * * * * * * * * * * * * * * * * * * * * * * * * * * * * * * * * * * * //

dimensions      [0 2 -1 0 0 0 0];

internalField   nonuniform List<scalar> 
8400
(
0.000161324
0.000160219
0.000158989
0.000157634
0.000156158
0.000154565
0.000152862
0.000151058
0.000149162
0.000147191
0.00014516
0.000143089
0.000141004
0.000138926
0.000136888
0.000134923
0.000133058
0.000131331
0.000129774
0.000128419
0.000127296
0.000126434
0.000125854
0.000125566
0.000125582
0.000125911
0.000126544
0.000127443
0.000128613
0.000129976
0.000131621
0.000133635
0.000135353
0.000137426
0.000143613
0.000144642
0.000146034
0.000145487
0.000144154
0.000142823
0.00014147
0.00013996
0.000138616
0.000137325
0.000135877
0.000134442
0.000133014
0.00013169
0.000130426
0.000129214
0.000121261
0.000120117
0.000118824
0.000117383
0.000115799
0.000114085
0.000112255
0.000110329
0.000108331
0.000106291
0.00010424
0.000102207
0.000100232
9.83485e-05
9.65907e-05
9.49922e-05
9.35793e-05
9.23864e-05
9.14447e-05
9.07726e-05
9.03916e-05
9.03293e-05
9.06136e-05
9.12633e-05
9.23128e-05
9.3821e-05
9.58695e-05
9.85403e-05
0.000101978
0.000106321
0.00011172
0.000118405
0.000126589
0.000136365
0.000146936
0.000143289
0.000141788
0.000140051
0.000137368
0.000134684
0.000132257
0.000129853
0.00012742
0.000125052
0.000122775
0.000120629
0.000118576
0.000116502
0.000114571
0.00011281
0.000106268
0.000104216
0.000102013
9.96899e-05
9.72789e-05
9.48129e-05
9.23267e-05
8.98566e-05
8.74387e-05
8.51088e-05
8.28997e-05
8.08395e-05
7.89536e-05
7.72629e-05
7.57855e-05
7.45353e-05
7.35233e-05
7.27452e-05
7.22085e-05
7.19084e-05
7.18337e-05
7.19709e-05
7.23174e-05
7.28739e-05
7.36512e-05
7.46897e-05
7.60832e-05
7.80046e-05
8.07719e-05
8.48342e-05
9.08901e-05
9.96726e-05
0.000112039
0.00012832
0.000144911
0.000145378
0.000139714
0.000137354
0.000134575
0.000131871
0.00012911
0.000126157
0.000123684
0.000121293
0.000118851
0.000116572
0.000114492
0.00011258
0.000110782
0.000109056
8.78103e-05
8.57092e-05
8.35172e-05
8.12833e-05
7.90546e-05
7.68744e-05
7.47823e-05
7.28139e-05
7.10003e-05
6.93661e-05
6.79249e-05
6.66876e-05
6.56628e-05
6.48467e-05
6.42386e-05
6.38272e-05
6.36086e-05
6.35682e-05
6.36917e-05
6.39643e-05
6.43643e-05
6.48624e-05
6.54243e-05
6.60034e-05
6.65409e-05
6.69802e-05
6.73025e-05
6.75765e-05
6.80686e-05
6.93099e-05
7.24261e-05
7.92478e-05
9.26477e-05
0.000115154
0.000141598
0.000144122
0.000139681
0.000134517
0.000132101
0.000129227
0.000126111
0.000123162
0.000120605
0.000118251
0.000115893
0.000113798
0.000111681
0.000109719
0.000108074
0.000106448
7.23076e-05
7.08156e-05
6.93094e-05
6.78369e-05
6.64404e-05
6.51553e-05
6.40087e-05
6.30169e-05
6.21917e-05
6.15371e-05
6.10458e-05
6.07069e-05
6.05141e-05
6.04552e-05
6.05171e-05
6.06951e-05
6.0982e-05
6.13808e-05
6.18929e-05
6.25164e-05
6.32492e-05
6.40758e-05
6.49676e-05
6.588e-05
6.67228e-05
6.73644e-05
6.76494e-05
6.74092e-05
6.65265e-05
6.49414e-05
6.33592e-05
6.40335e-05
7.22767e-05
9.68031e-05
0.000136472
0.000141949
0.000138427
0.000134486
0.000129525
0.000126811
0.000124089
0.000120974
0.000118655
0.000116339
0.000113952
0.000111844
0.000109893
0.000108096
0.000106494
0.000104921
6.34429e-05
6.27305e-05
6.20488e-05
6.14273e-05
6.08876e-05
6.04432e-05
6.01017e-05
5.98595e-05
5.97089e-05
5.96431e-05
5.96496e-05
5.97192e-05
5.98426e-05
6.0017e-05
6.02355e-05
6.05153e-05
6.08632e-05
6.12988e-05
6.18465e-05
6.25232e-05
6.33353e-05
6.42832e-05
6.53569e-05
6.65492e-05
6.78015e-05
6.89446e-05
6.98688e-05
7.0449e-05
7.04589e-05
6.92757e-05
6.61784e-05
6.08801e-05
5.80702e-05
7.55862e-05
0.000129861
0.000139886
0.000136757
0.000133338
0.000129845
0.000126344
0.000123517
0.00011997
0.000117248
0.000115432
0.000113352
0.000111361
0.000109286
0.00010745
0.000105867
0.00010436
6.05584e-05
6.0351e-05
6.01715e-05
6.00303e-05
5.99313e-05
5.98723e-05
5.98531e-05
5.98699e-05
5.99128e-05
5.99776e-05
6.00581e-05
6.01524e-05
6.02599e-05
6.03856e-05
6.05319e-05
6.07267e-05
6.09882e-05
6.13419e-05
6.18206e-05
6.24687e-05
6.32731e-05
6.42238e-05
6.53329e-05
6.66262e-05
6.80736e-05
6.94313e-05
7.06933e-05
7.18108e-05
7.27673e-05
7.31991e-05
7.27647e-05
6.9829e-05
5.93603e-05
5.6237e-05
0.000121012
0.000137641
0.000135853
0.000132868
0.000129832
0.000126588
0.000123673
0.00012112
0.000118465
0.000115972
0.00011381
0.000111727
0.000109401
0.000107518
0.000105965
0.000104609
6.03918e-05
6.03471e-05
6.03199e-05
6.03082e-05
6.03134e-05
6.0327e-05
6.03521e-05
6.0392e-05
6.04329e-05
6.04742e-05
6.05204e-05
6.05693e-05
6.0624e-05
6.06796e-05
6.07667e-05
6.08977e-05
6.10945e-05
6.1396e-05
6.18344e-05
6.24952e-05
6.332e-05
6.42782e-05
6.53969e-05
6.6737e-05
6.82849e-05
6.96171e-05
7.09462e-05
7.21864e-05
7.32008e-05
7.39423e-05
7.432e-05
7.40591e-05
7.11849e-05
5.20921e-05
0.000110103
0.000135835
0.000135097
0.00013315
0.000130763
0.000128193
0.000125484
0.000122705
0.000120117
0.000117498
0.000114991
0.000112769
0.00011069
0.000108774
0.000107031
0.000105485
6.08288e-05
6.07568e-05
6.07287e-05
6.07095e-05
6.07036e-05
6.07038e-05
6.07092e-05
6.07343e-05
6.075e-05
6.07633e-05
6.07878e-05
6.07939e-05
6.08282e-05
6.08519e-05
6.09114e-05
6.10146e-05
6.119e-05
6.15067e-05
6.19712e-05
6.27136e-05
6.35879e-05
6.45838e-05
6.57538e-05
6.70667e-05
6.8452e-05
6.98659e-05
7.12113e-05
7.24237e-05
7.34326e-05
7.41986e-05
7.46637e-05
7.47569e-05
7.42283e-05
6.68775e-05
0.000102685
0.000134399
0.000135436
0.000134749
0.000132961
0.000130679
0.000128245
0.000125594
0.000122872
0.000120143
0.000117494
0.000115035
0.000112797
0.000110746
0.000108775
0.000106955
6.12364e-05
6.10872e-05
6.10172e-05
6.09663e-05
6.09386e-05
6.09391e-05
6.09459e-05
6.09476e-05
6.08985e-05
6.08934e-05
6.09338e-05
6.09306e-05
6.09419e-05
6.09527e-05
6.09944e-05
6.11042e-05
6.13074e-05
6.16693e-05
6.22198e-05
6.29667e-05
6.39203e-05
6.50635e-05
6.63517e-05
6.7733e-05
6.91426e-05
7.05347e-05
7.18335e-05
7.29722e-05
7.38904e-05
7.45531e-05
7.49327e-05
7.50203e-05
7.46871e-05
7.30436e-05
0.000113008
0.000134706
0.000136707
0.000137134
0.000136329
0.000134637
0.000132392
0.000129804
0.000127076
0.000124234
0.000121385
0.000118688
0.000116136
0.000113741
0.000111491
0.000109417
6.14165e-05
6.13329e-05
6.12688e-05
6.12123e-05
6.11454e-05
6.1101e-05
6.10739e-05
6.10689e-05
6.10383e-05
6.10281e-05
6.10401e-05
6.1037e-05
6.10211e-05
6.10292e-05
6.10792e-05
6.12018e-05
6.14639e-05
6.19181e-05
6.25984e-05
6.35182e-05
6.4672e-05
6.60057e-05
6.74577e-05
6.89538e-05
7.03918e-05
7.17419e-05
7.29306e-05
7.39003e-05
7.46306e-05
7.50971e-05
7.52534e-05
7.51062e-05
7.48324e-05
9.8795e-05
0.000149177
0.000139406
0.000139944
0.000141276
0.000141288
0.000140202
0.000138329
0.000135864
0.000133059
0.000130045
0.000126949
0.000123873
0.000120902
0.000118108
0.000115485
0.000113066
6.14515e-05
6.14007e-05
6.13517e-05
6.13104e-05
6.12703e-05
6.12369e-05
6.12118e-05
6.11842e-05
6.11542e-05
6.11365e-05
6.11196e-05
6.11143e-05
6.11111e-05
6.11193e-05
6.11824e-05
6.13528e-05
6.17284e-05
6.23664e-05
6.32955e-05
6.45069e-05
6.59655e-05
6.75753e-05
6.92502e-05
7.08928e-05
7.23491e-05
7.36105e-05
7.46065e-05
7.52933e-05
7.56901e-05
7.58322e-05
7.58251e-05
7.58086e-05
7.55432e-05
0.000147263
0.000149573
0.000148132
0.000147332
0.000147652
0.000148467
0.000148027
0.000146494
0.000144123
0.000141267
0.000138043
0.000134617
0.000131122
0.000127682
0.000124378
0.000121234
0.000118307
6.14684e-05
6.14362e-05
6.14028e-05
6.13702e-05
6.13389e-05
6.13067e-05
6.12791e-05
6.12564e-05
6.12275e-05
6.12158e-05
6.11974e-05
6.1183e-05
6.11823e-05
6.12025e-05
6.13095e-05
6.15988e-05
6.2196e-05
6.3156e-05
6.44904e-05
6.61488e-05
6.80573e-05
7.00263e-05
7.19697e-05
7.37625e-05
7.5145e-05
7.62392e-05
7.69344e-05
7.7175e-05
7.7119e-05
7.71423e-05
7.69681e-05
7.64172e-05
0.000104248
0.000165026
0.000157213
0.000157204
0.000157857
0.000157461
0.000158481
0.000158662
0.000157485
0.000155277
0.000152362
0.000148905
0.000145142
0.000141214
0.000137232
0.000133292
0.000129483
0.000125874
6.14751e-05
6.14503e-05
6.14261e-05
6.1401e-05
6.13758e-05
6.13565e-05
6.1333e-05
6.13125e-05
6.1289e-05
6.12722e-05
6.12562e-05
6.12433e-05
6.12531e-05
6.13103e-05
6.15234e-05
6.20355e-05
6.30418e-05
6.4552e-05
6.65202e-05
6.88151e-05
7.13118e-05
7.36478e-05
7.58388e-05
7.77447e-05
7.88451e-05
7.95878e-05
7.98844e-05
7.94771e-05
7.93612e-05
7.86558e-05
7.74553e-05
8.79576e-05
0.000148662
0.000175627
0.000168307
0.000169278
0.000171357
0.000172562
0.000172029
0.000172757
0.000172031
0.000170077
0.000167218
0.000163654
0.000159588
0.000155182
0.000150597
0.000145956
0.000141379
0.000136929
6.14804e-05
6.14606e-05
6.14427e-05
6.14224e-05
6.14004e-05
6.13843e-05
6.13661e-05
6.13456e-05
6.13289e-05
6.13128e-05
6.13009e-05
6.13048e-05
6.1349e-05
6.14953e-05
6.19512e-05
6.28713e-05
6.45914e-05
6.69487e-05
6.97983e-05
7.28775e-05
7.60558e-05
7.85781e-05
8.08796e-05
8.27622e-05
8.32116e-05
8.32189e-05
8.30793e-05
8.28899e-05
8.08765e-05
7.89436e-05
9.22397e-05
0.000124458
0.000172424
0.000188043
0.000182522
0.000184821
0.000187752
0.000189827
0.000190778
0.000191254
0.000190998
0.000189451
0.000186799
0.000183238
0.000178996
0.000174236
0.000169149
0.000163872
0.00015852
0.000153156
6.14845e-05
6.14687e-05
6.14545e-05
6.14377e-05
6.1422e-05
6.14043e-05
6.13889e-05
6.13722e-05
6.13576e-05
6.13497e-05
6.13627e-05
6.14289e-05
6.1589e-05
6.19341e-05
6.2942e-05
6.44669e-05
6.73261e-05
7.08302e-05
7.4685e-05
7.8437e-05
8.23248e-05
8.44971e-05
8.66055e-05
8.79795e-05
8.76695e-05
8.55171e-05
8.3517e-05
8.32463e-05
8.8002e-05
9.74608e-05
0.000121284
0.000160427
0.000194706
0.000203344
0.000201048
0.000205096
0.000209396
0.000212656
0.000214794
0.000214953
0.000215294
0.000214261
0.000211993
0.000208661
0.000204507
0.00019971
0.00019444
0.0001888
0.000182882
0.000176764
6.14875e-05
6.14788e-05
6.14672e-05
6.14502e-05
6.1436e-05
6.142e-05
6.1404e-05
6.13961e-05
6.14081e-05
6.14671e-05
6.16183e-05
6.19453e-05
6.24443e-05
6.31945e-05
6.57521e-05
6.76317e-05
7.20809e-05
7.68147e-05
8.13014e-05
8.47471e-05
8.98222e-05
9.09181e-05
9.23548e-05
9.07168e-05
9.24854e-05
9.39662e-05
9.55678e-05
0.000100043
0.000112612
0.000131472
0.000159916
0.00019348
0.000217032
0.000223162
0.000224567
0.000230269
0.000235676
0.00023984
0.000242644
0.000244263
0.000245319
0.000244951
0.000243368
0.000240759
0.000237245
0.00023296
0.000228047
0.000222591
0.000216665
0.000210335
6.15458e-05
6.175e-05
6.17115e-05
6.16824e-05
6.1652e-05
6.16206e-05
6.1592e-05
6.15612e-05
6.19012e-05
6.25388e-05
6.34828e-05
6.48978e-05
6.61938e-05
6.7541e-05
7.70814e-05
7.58814e-05
8.20166e-05
8.7534e-05
9.07428e-05
8.96294e-05
0.00010145
0.000105002
0.000107234
0.000109416
0.000111499
0.000119328
0.000126818
0.000135938
0.000153176
0.000174548
0.00019993
0.000225407
0.000242289
0.000248549
0.000253279
0.000260463
0.000267006
0.000272302
0.000276282
0.000279301
0.000281081
0.000281931
0.00028161
0.000280376
0.000278268
0.000275305
0.000271599
0.000267255
0.000262316
0.000256771
6.9351e-05
7.78672e-05
9.11306e-05
9.19486e-05
8.41248e-05
7.90334e-05
7.59878e-05
7.45363e-05
7.27753e-05
8.4683e-05
9.14736e-05
9.53814e-05
8.9582e-05
8.65818e-05
0.000169275
0.000121976
0.000122789
0.000126443
0.000121758
0.000120368
0.000126216
0.000136106
0.00014752
0.000151989
0.000156626
0.00016523
0.000174899
0.000185894
0.00020159
0.000220228
0.000240391
0.000259208
0.000272308
0.000279799
0.000287113
0.00029566
0.000303401
0.000310001
0.000315659
0.000320453
0.00032332
0.000326163
0.000327969
0.000328953
0.000329167
0.000328618
0.000327398
0.000325569
0.000323082
0.00031987
0.000173436
0.000180396
0.000185141
0.00018737
0.000187256
0.000187319
0.000188251
0.000188073
0.000185031
0.000178718
0.000177654
0.000177652
0.000176792
0.00017468
0.000176439
0.00018733
0.000199905
0.000199996
0.000201436
0.000203908
0.000206165
0.000214654
0.000224631
0.000230358
0.000235061
0.000241624
0.000249424
0.00025833
0.000269549
0.000282762
0.000297044
0.000310828
0.000322401
0.000332151
0.000342157
0.00035239
0.000361541
0.000369341
0.000375998
0.000381625
0.000386241
0.000389812
0.000393591
0.000397225
0.000400674
0.000403978
0.000407043
0.000409699
0.000411869
0.00041363
0.000272579
0.000269255
0.000266064
0.000262995
0.000260031
0.000257157
0.000254359
0.000251634
0.000248981
0.000246398
0.000243883
0.000241434
0.000239049
0.000236727
0.000234463
0.000232257
0.000230105
0.000228006
0.000225958
0.000223959
0.000222007
0.000220102
0.000218241
0.000216424
0.000214649
0.000212916
0.000211224
0.00020957
0.000207956
0.000206379
0.00020484
0.000203337
0.000201871
0.000200442
0.000199047
0.000197686
0.000196359
0.000195063
0.0001938
0.000192557
0.000191339
0.000190142
0.000188964
0.000187801
0.00018665
0.000185505
0.000184358
0.000183199
0.000182007
0.000180747
0.000270652
0.000264522
0.000258644
0.000252998
0.000247587
0.000242406
0.000237453
0.000232712
0.000228173
0.000223825
0.000219656
0.000215657
0.000211817
0.000208126
0.000204575
0.000201156
0.000197861
0.000194682
0.000191614
0.000188649
0.000185783
0.000183009
0.000180323
0.000177722
0.000175201
0.000172756
0.000170384
0.00016808
0.000165844
0.000163672
0.000161562
0.000159514
0.000157524
0.00015559
0.000153709
0.000151878
0.000150094
0.000148353
0.000146653
0.000145005
0.000143399
0.000141833
0.000140305
0.000138813
0.000137354
0.000135927
0.000134527
0.000133154
0.000131804
0.000130474
0.000270635
0.000264473
0.000258554
0.000252872
0.00024742
0.000242191
0.000237174
0.000232359
0.000227735
0.000223292
0.00021902
0.00021491
0.000210952
0.000207138
0.000203459
0.000199909
0.000196481
0.000193167
0.000189962
0.000186861
0.000183856
0.000180945
0.000178123
0.000175387
0.000172732
0.000170155
0.000167652
0.000165221
0.000162859
0.000160563
0.000158332
0.000156164
0.000154058
0.000152011
0.000150022
0.000148088
0.000146207
0.000144377
0.000142596
0.000140863
0.000139174
0.000137529
0.000135926
0.000134363
0.000132838
0.00013135
0.000129896
0.000128476
0.00012709
0.000125741
0.000270637
0.000264516
0.000258649
0.000253019
0.000247615
0.000242426
0.000237441
0.000232651
0.000228045
0.000223615
0.000219351
0.000215244
0.000211286
0.00020747
0.000203787
0.000200231
0.000196795
0.000193473
0.000190259
0.000187146
0.000184131
0.000181208
0.000178374
0.000175625
0.000172958
0.000170368
0.000167852
0.000165407
0.000163031
0.000160721
0.000158476
0.000156295
0.000154176
0.000152117
0.000150116
0.00014817
0.000146276
0.000144434
0.00014264
0.000140893
0.000139192
0.000137534
0.000135919
0.000134343
0.000132807
0.000131307
0.000129842
0.000128411
0.000127013
0.00012565
0.000270638
0.000264519
0.000258648
0.000253011
0.000247598
0.0002424
0.000237406
0.000232608
0.000227996
0.00022356
0.000219292
0.000215182
0.000211224
0.000207407
0.000203726
0.000200173
0.000196741
0.000193424
0.000190214
0.000187106
0.000184095
0.000181177
0.000178349
0.000175606
0.000172944
0.000170359
0.000167848
0.000165406
0.000163033
0.000160726
0.000158485
0.000156308
0.000154194
0.000152139
0.000150142
0.000148199
0.000146308
0.000144468
0.000142676
0.000140932
0.000139232
0.000137576
0.000135961
0.000134387
0.00013285
0.000131349
0.000129883
0.000128451
0.000127052
0.000125686
0.000270639
0.000264523
0.000258659
0.000253031
0.00024763
0.000242444
0.000237463
0.000232677
0.000228075
0.000223649
0.00021939
0.000215288
0.000211335
0.000207524
0.000203848
0.000200299
0.000196871
0.000193555
0.000190347
0.00018724
0.00018423
0.000181313
0.000178485
0.000175742
0.000173078
0.000170491
0.000167977
0.000165532
0.000163155
0.000160846
0.000158603
0.000156424
0.000154307
0.00015225
0.00015025
0.000148303
0.00014641
0.000144566
0.000142771
0.000141022
0.000139319
0.000137659
0.00013604
0.00013446
0.000132918
0.000131411
0.000129939
0.0001285
0.000127094
0.000125721
0.000270638
0.000264523
0.00025866
0.000253033
0.000247632
0.000242446
0.000237463
0.000232675
0.00022807
0.00022364
0.000219377
0.000215272
0.000211316
0.000207503
0.000203825
0.000200274
0.000196843
0.000193526
0.000190317
0.00018721
0.0001842
0.000181284
0.000178457
0.000175714
0.00017305
0.000170462
0.000167946
0.000165501
0.000163124
0.000160816
0.000158574
0.000156396
0.00015428
0.000152224
0.000150225
0.000148279
0.000146386
0.000144542
0.000142748
0.000141
0.000139297
0.000137636
0.000136017
0.000134437
0.000132894
0.000131386
0.000129911
0.00012847
0.000127061
0.000125684
0.000270638
0.000264521
0.000258659
0.000253033
0.000247635
0.000242452
0.000237472
0.000232687
0.000228086
0.00022366
0.0002194
0.000215298
0.000211346
0.000207536
0.00020386
0.000200312
0.000196883
0.000193569
0.000190362
0.000187257
0.00018425
0.000181335
0.000178509
0.000175765
0.000173101
0.000170511
0.000167994
0.000165548
0.000163171
0.000160862
0.000158619
0.000156441
0.000154324
0.000152267
0.000150266
0.000148319
0.000146424
0.000144579
0.000142782
0.000141032
0.000139326
0.000137663
0.00013604
0.000134456
0.000132908
0.000131395
0.000129915
0.000128468
0.000127053
0.00012567
0.000270637
0.000264519
0.000258656
0.000253031
0.000247634
0.000242451
0.000237473
0.000232688
0.000228087
0.000223661
0.000219401
0.000215299
0.000211346
0.000207534
0.000203857
0.000200306
0.000196877
0.000193561
0.000190353
0.000187248
0.000184241
0.000181326
0.000178498
0.000175752
0.000173086
0.000170494
0.000167976
0.000165529
0.000163151
0.000160842
0.000158599
0.000156421
0.000154304
0.000152247
0.000150246
0.000148298
0.000146403
0.000144558
0.000142761
0.00014101
0.000139304
0.000137639
0.000136014
0.000134428
0.000132877
0.000131361
0.000129879
0.000128428
0.000127009
0.000125622
0.000270636
0.000264516
0.000258653
0.000253029
0.000247632
0.00024245
0.000237473
0.000232689
0.00022809
0.000223665
0.000219407
0.000215306
0.000211353
0.000207542
0.000203864
0.000200314
0.000196885
0.00019357
0.000190364
0.00018726
0.000184253
0.000181338
0.000178509
0.000175763
0.000173096
0.000170503
0.000167984
0.000165537
0.000163159
0.000160849
0.000158606
0.000156428
0.000154312
0.000152254
0.000150252
0.000148305
0.000146409
0.000144563
0.000142765
0.000141013
0.000139304
0.000137637
0.000136009
0.000134419
0.000132865
0.000131345
0.000129858
0.000128403
0.000126979
0.000125586
0.000270636
0.000264514
0.00025865
0.000253026
0.00024763
0.000242449
0.000237472
0.00023269
0.000228092
0.000223668
0.00021941
0.000215309
0.000211355
0.000207543
0.000203865
0.000200315
0.000196885
0.000193571
0.000190364
0.00018726
0.000184253
0.000181337
0.000178508
0.000175761
0.000173092
0.000170499
0.000167979
0.000165531
0.000163152
0.000160842
0.0001586
0.000156421
0.000154304
0.000152246
0.000150245
0.000148297
0.0001464
0.000144554
0.000142755
0.000141001
0.00013929
0.000137621
0.000135991
0.000134398
0.00013284
0.000131317
0.000129826
0.000128367
0.000126938
0.000125539
0.000270635
0.000264512
0.000258647
0.000253023
0.000247627
0.000242447
0.000237471
0.00023269
0.000228092
0.000223669
0.00021941
0.000215307
0.000211352
0.000207538
0.000203859
0.000200308
0.000196877
0.000193562
0.000190354
0.000187249
0.000184241
0.000181324
0.000178494
0.000175746
0.000173076
0.000170482
0.000167961
0.000165512
0.000163133
0.000160823
0.00015858
0.000156401
0.000154285
0.000152227
0.000150225
0.000148277
0.00014638
0.000144533
0.000142734
0.000140979
0.000139267
0.000137596
0.000135963
0.000134368
0.000132808
0.000131282
0.000129788
0.000128325
0.000126892
0.000125488
0.000270634
0.00026451
0.000258645
0.00025302
0.000247624
0.000242445
0.000237471
0.000232691
0.000228095
0.000223673
0.000219414
0.000215311
0.000211356
0.000207543
0.000203865
0.000200314
0.000196885
0.00019357
0.000190363
0.000187258
0.00018425
0.000181334
0.000178504
0.000175756
0.000173086
0.000170492
0.00016797
0.00016552
0.000163141
0.00016083
0.000158587
0.000156408
0.000154291
0.000152232
0.00015023
0.000148281
0.000146383
0.000144535
0.000142734
0.000140977
0.000139262
0.000137588
0.000135953
0.000134354
0.000132791
0.000131261
0.000129762
0.000128294
0.000126855
0.000125445
0.000270634
0.000264509
0.000258642
0.000253016
0.00024762
0.00024244
0.000237464
0.000232682
0.000228083
0.000223657
0.000219395
0.000215288
0.000211329
0.000207513
0.000203831
0.000200278
0.000196845
0.000193527
0.000190318
0.000187212
0.000184203
0.000181286
0.000178454
0.000175705
0.000173034
0.000170439
0.000167916
0.000165466
0.000163086
0.000160776
0.000158533
0.000156355
0.000154238
0.00015218
0.000150177
0.000148229
0.000146332
0.000144483
0.000142682
0.000140925
0.00013921
0.000137535
0.0001359
0.000134301
0.000132736
0.000131204
0.000129703
0.000128232
0.00012679
0.000125376
0.000270634
0.000264507
0.000258639
0.000253014
0.000247618
0.00024244
0.000237468
0.000232689
0.000228092
0.000223669
0.000219409
0.000215305
0.00021135
0.000207536
0.000203856
0.000200304
0.000196873
0.000193556
0.000190348
0.000187242
0.000184233
0.000181316
0.000178484
0.000175734
0.000173061
0.000170464
0.000167941
0.000165489
0.000163109
0.000160797
0.000158553
0.000156373
0.000154254
0.000152193
0.000150188
0.000148237
0.000146337
0.000144487
0.000142682
0.000140922
0.000139205
0.000137527
0.000135888
0.000134286
0.000132717
0.00013118
0.000129673
0.000128196
0.000126747
0.000125325
0.000270633
0.000264503
0.000258629
0.000252995
0.00024759
0.0002424
0.000237415
0.000232624
0.000228016
0.000223582
0.000219313
0.000215201
0.00021124
0.00020742
0.000203736
0.00020018
0.000196745
0.000193426
0.000190217
0.00018711
0.000184101
0.000181183
0.000178351
0.000175601
0.000172929
0.000170333
0.000167811
0.000165362
0.000162983
0.000160674
0.000158432
0.000156254
0.000154136
0.000152076
0.000150072
0.000148123
0.000146224
0.000144376
0.000142573
0.000140815
0.000139099
0.000137423
0.000135785
0.000134183
0.000132614
0.000131076
0.000129568
0.00012809
0.000126639
0.000125216
0.000270633
0.000264503
0.000258632
0.000253006
0.000247609
0.00024243
0.000237454
0.00023267
0.000228068
0.000223639
0.000219373
0.000215264
0.000211302
0.000207482
0.000203796
0.000200237
0.000196799
0.000193476
0.000190262
0.00018715
0.000184136
0.000181212
0.000178375
0.000175619
0.000172942
0.000170341
0.000167814
0.000165361
0.000162979
0.000160666
0.000158419
0.000156235
0.000154111
0.000152046
0.000150038
0.000148085
0.000146184
0.000144332
0.000142527
0.000140766
0.000139048
0.00013737
0.000135729
0.000134125
0.000132555
0.000131016
0.000129509
0.000128031
0.000126584
0.000125166
0.000270633
0.00026446
0.000258536
0.000252858
0.000247414
0.000242194
0.000237185
0.000232377
0.000227757
0.000223315
0.000219042
0.000214928
0.000210966
0.000207148
0.000203466
0.000199913
0.000196483
0.000193169
0.000189965
0.000186864
0.000183862
0.00018095
0.000178126
0.000175384
0.000172721
0.000170135
0.000167625
0.000165189
0.000162823
0.000160526
0.000158295
0.000156127
0.00015402
0.000151973
0.000149984
0.00014805
0.00014617
0.00014434
0.000142558
0.000140822
0.00013913
0.000137481
0.000135873
0.000134303
0.000132772
0.000131278
0.000129821
0.000128405
0.000127031
0.000125705
0.000270642
0.00026449
0.000258607
0.000252966
0.000247562
0.000242392
0.000237447
0.000232714
0.000228181
0.000223836
0.000219667
0.000215665
0.00021182
0.000208125
0.000204571
0.000201149
0.000197854
0.000194678
0.000191615
0.000188656
0.000185796
0.000183029
0.000180347
0.000177748
0.000175228
0.000172786
0.000170418
0.000168123
0.000165899
0.000163743
0.000161652
0.000159625
0.000157661
0.000155758
0.000153916
0.000152132
0.000150403
0.000148727
0.000147103
0.000145531
0.000144008
0.000142534
0.00014111
0.000139735
0.000138411
0.00013714
0.000135928
0.000134785
0.000133727
0.00013279
0.000272594
0.000269259
0.000266058
0.00026298
0.000260012
0.000257136
0.000254339
0.000251616
0.000248965
0.000246383
0.000243868
0.000241419
0.000239033
0.000236708
0.000234442
0.000232234
0.000230082
0.000227982
0.000225934
0.000223933
0.000221979
0.000220068
0.000218201
0.000216376
0.000214592
0.000212851
0.00021115
0.00020949
0.000207869
0.000206285
0.000204739
0.00020323
0.000201756
0.000200317
0.000198911
0.000197536
0.00019619
0.000194871
0.000193577
0.000192308
0.000191061
0.000189835
0.000188629
0.00018744
0.000186267
0.000185109
0.000183963
0.000182827
0.0001817
0.000180577
0.000231716
0.000107334
0.000112767
0.000130404
0.000139705
0.000137781
0.000125547
0.000107682
9.07284e-05
7.8222e-05
6.85377e-05
6.04977e-05
4.94099e-05
5.25191e-05
5.80001e-05
6.31574e-05
7.1192e-05
8.71367e-05
0.000137694
0.000375168
0.000230178
0.000107704
0.00011342
0.000131008
0.000140188
0.000138137
0.000125841
0.000108014
9.11629e-05
7.86904e-05
6.89964e-05
6.1042e-05
4.96869e-05
5.17644e-05
5.73265e-05
6.25283e-05
7.0371e-05
8.57872e-05
0.000135652
0.000374939
0.00022863
0.000108065
0.000114088
0.000131628
0.000140681
0.000138495
0.000126131
0.000108343
9.15945e-05
7.91587e-05
6.94645e-05
6.17547e-05
5.00855e-05
5.13814e-05
5.69218e-05
6.21662e-05
6.99428e-05
8.51364e-05
0.000134876
0.000375827
0.000227091
0.000108416
0.000114776
0.000132265
0.000141183
0.000138855
0.000126419
0.000108668
9.20238e-05
7.96246e-05
6.99321e-05
6.24964e-05
5.05914e-05
5.10425e-05
5.65105e-05
6.17959e-05
6.95086e-05
8.44787e-05
0.000134095
0.000376677
0.000225549
0.000108769
0.000115482
0.000132919
0.000141695
0.000139218
0.000126704
0.000108989
9.24502e-05
8.00861e-05
7.03896e-05
6.32356e-05
5.11885e-05
5.07539e-05
5.60944e-05
6.14169e-05
6.90686e-05
8.38153e-05
0.000133313
0.000377494
0.000224005
0.000109127
0.000116207
0.000133591
0.000142218
0.000139583
0.000126987
0.000109309
9.28743e-05
8.05422e-05
7.08324e-05
6.3905e-05
5.18461e-05
5.05195e-05
5.56773e-05
6.10304e-05
6.86234e-05
8.31474e-05
0.00013253
0.000378289
0.000222462
0.000109492
0.000116952
0.00013428
0.00014275
0.00013995
0.000127268
0.000109625
9.3296e-05
8.09923e-05
7.12571e-05
6.44648e-05
5.25179e-05
5.03354e-05
5.52604e-05
6.06366e-05
6.81735e-05
8.24763e-05
0.000131748
0.000379068
0.000220919
0.000109864
0.000117717
0.000134986
0.000143292
0.000140319
0.000127546
0.00010994
9.37162e-05
8.14366e-05
7.16644e-05
6.49342e-05
5.31719e-05
5.01993e-05
5.48462e-05
6.02359e-05
6.77191e-05
8.1803e-05
0.00013097
0.000379836
0.000219378
0.000110245
0.000118502
0.000135708
0.000143842
0.00014069
0.000127822
0.000110255
9.41372e-05
8.18768e-05
7.20569e-05
6.53374e-05
5.37985e-05
5.01083e-05
5.44371e-05
5.98293e-05
6.72607e-05
8.1128e-05
0.000130195
0.000380593
0.000217837
0.000110635
0.000119306
0.000136447
0.000144401
0.000141063
0.000128099
0.000110572
9.45614e-05
8.23153e-05
7.24394e-05
6.5701e-05
5.44004e-05
5.00625e-05
5.40372e-05
5.94183e-05
6.6799e-05
8.04521e-05
0.000129424
0.00038134
0.000216298
0.000111038
0.000120132
0.000137202
0.000144968
0.000141438
0.000128376
0.000110894
9.49918e-05
8.27558e-05
7.28175e-05
6.60829e-05
5.49899e-05
5.00614e-05
5.36508e-05
5.90051e-05
6.63352e-05
7.97763e-05
0.000128658
0.000382079
0.00021476
0.000111453
0.000120977
0.000137972
0.000145544
0.000141816
0.000128656
0.000111221
9.54286e-05
8.31988e-05
7.31966e-05
6.65121e-05
5.55886e-05
5.01051e-05
5.32816e-05
5.85917e-05
6.587e-05
7.91015e-05
0.000127897
0.000382809
0.000213224
0.000111885
0.000121843
0.000138759
0.000146129
0.000142198
0.000128939
0.000111557
9.58749e-05
8.36435e-05
7.35741e-05
6.69835e-05
5.62101e-05
5.01921e-05
5.29328e-05
5.81803e-05
6.54042e-05
7.84283e-05
0.000127141
0.000383533
0.000211691
0.000112333
0.000122731
0.000139563
0.000146722
0.000142583
0.000129226
0.000111903
9.63311e-05
8.4091e-05
7.39464e-05
6.74705e-05
5.6842e-05
5.03169e-05
5.26056e-05
5.77721e-05
6.49384e-05
7.77573e-05
0.00012639
0.000384252
0.000210162
0.000112799
0.000123641
0.000140383
0.000147324
0.000142972
0.000129518
0.000112258
9.67975e-05
8.45412e-05
7.43122e-05
6.79435e-05
5.74581e-05
5.04706e-05
5.23e-05
5.73679e-05
6.44731e-05
7.7089e-05
0.000125644
0.000384969
0.000208637
0.000113285
0.000124572
0.000141219
0.000147935
0.000143364
0.000129817
0.000112624
9.72736e-05
8.49921e-05
7.46688e-05
6.83746e-05
5.80338e-05
5.06428e-05
5.20149e-05
5.69685e-05
6.40087e-05
7.64238e-05
0.000124904
0.00038569
0.000207119
0.000113789
0.000125526
0.000142072
0.000148554
0.000143761
0.000130121
0.000113003
9.77597e-05
8.54422e-05
7.50144e-05
6.87585e-05
5.85531e-05
5.08249e-05
5.17491e-05
5.65745e-05
6.35455e-05
7.57626e-05
0.000124172
0.000386419
0.000205606
0.000114314
0.000126501
0.00014294
0.000149182
0.000144163
0.000130432
0.000113394
9.82565e-05
8.58922e-05
7.535e-05
6.911e-05
5.90123e-05
5.10109e-05
5.15013e-05
5.6187e-05
6.30847e-05
7.51061e-05
0.000123447
0.000387166
0.0002041
0.000114858
0.000127498
0.000143825
0.000149818
0.00014457
0.000130752
0.000113799
9.87636e-05
8.63414e-05
7.56775e-05
6.94624e-05
5.94219e-05
5.11973e-05
5.12708e-05
5.5807e-05
6.26271e-05
7.44556e-05
0.000122734
0.000387938
0.000202601
0.000115422
0.000128518
0.000144726
0.000150463
0.000144982
0.00013108
0.000114217
9.92798e-05
8.67879e-05
7.5995e-05
6.98316e-05
5.98019e-05
5.13829e-05
5.1057e-05
5.54363e-05
6.21743e-05
7.38124e-05
0.000122034
0.000388745
0.00020111
0.000116006
0.000129559
0.000145643
0.000151118
0.0001454
0.000131419
0.000114649
9.9804e-05
8.72287e-05
7.62973e-05
7.02245e-05
6.01724e-05
5.15676e-05
5.08592e-05
5.5076e-05
6.17278e-05
7.31783e-05
0.000121351
0.000389596
0.000199627
0.000116611
0.000130624
0.000146578
0.000151783
0.000145827
0.000131768
0.000115095
0.000100333
8.76594e-05
7.65768e-05
7.06284e-05
6.05477e-05
5.17513e-05
5.06766e-05
5.47276e-05
6.1289e-05
7.25545e-05
0.000120688
0.0003905
0.000198153
0.000117236
0.000131712
0.000147531
0.00015246
0.000146261
0.000132128
0.000115552
0.000100865
8.80747e-05
7.68237e-05
7.10084e-05
6.09252e-05
5.19325e-05
5.0508e-05
5.43922e-05
6.08592e-05
7.19423e-05
0.000120048
0.000391464
0.00019669
0.000117882
0.000132824
0.000148503
0.000153149