/*--------------------------------*- C++ -*----------------------------------*\
  =========                 |
  \\      /  F ield         | OpenFOAM: The Open Source CFD Toolbox
   \\    /   O peration     | Website:  https://openfoam.org
    \\  /    A nd           | Version:  8
     \\/     M anipulation  |
\*---------------------------------------------------------------------------*/
FoamFile
{
    version     2.0;
    format      ascii;
    class       volScalarField;
    location    "1000";
    object      p_rgh;
}
// * * * * * * * * * * * * * * * * * * * * * * * * * * * * * * * * * * * * * //

dimensions      [1 -1 -2 0 0 0 0];

internalField   nonuniform List<scalar> 
8400
(
56283.5
130278
212475
300626
396595
501329
615705
740726
877599
1.02766e+06
1.19224e+06
1.37249e+06
1.56938e+06
1.78349e+06
2.01471e+06
2.26159e+06
2.52101e+06
2.78773e+06
3.05484e+06
3.31402e+06
3.55667e+06
3.77497e+06
3.96294e+06
4.11743e+06
4.23838e+06
4.32855e+06
4.39261e+06
4.43602e+06
4.46401e+06
4.48102e+06
4.49036e+06
4.49443e+06
4.49501e+06
4.4934e+06
4.4906e+06
4.48712e+06
4.48298e+06
4.47799e+06
4.47228e+06
4.46626e+06
4.46043e+06
4.45481e+06
4.44916e+06
4.44325e+06
4.43697e+06
4.43027e+06
4.4232e+06
4.41577e+06
4.40802e+06
4.40003e+06
55950.1
129197
209927
295922
389152
490748
601731
723202
856423
1.00276e+06
1.16363e+06
1.34032e+06
1.53385e+06
1.74486e+06
1.97324e+06
2.21756e+06
2.47481e+06
2.73997e+06
3.00633e+06
3.26588e+06
3.5102e+06
3.73151e+06
3.92376e+06
4.08347e+06
4.21012e+06
4.30589e+06
4.37493e+06
4.4224e+06
4.45342e+06
4.47255e+06
4.48339e+06
4.48866e+06
4.49031e+06
4.48965e+06
4.48757e+06
4.48456e+06
4.48077e+06
4.47632e+06
4.47126e+06
4.46574e+06
4.46e+06
4.45423e+06
4.44839e+06
4.44235e+06
4.436e+06
4.4293e+06
4.42222e+06
4.41477e+06
4.40696e+06
4.39883e+06
56407.2
128930
207494
290185
379106
475656
581119
696823
824188
964717
1.11998e+06
1.29149e+06
1.48049e+06
1.68778e+06
1.91328e+06
2.15565e+06
2.41184e+06
2.6771e+06
2.94484e+06
3.20715e+06
3.45565e+06
3.68242e+06
3.88111e+06
4.04784e+06
4.18155e+06
4.28388e+06
4.35854e+06
4.4104e+06
4.44451e+06
4.46559e+06
4.47759e+06
4.48363e+06
4.48592e+06
4.48587e+06
4.48428e+06
4.48163e+06
4.47822e+06
4.47417e+06
4.46961e+06
4.46457e+06
4.45913e+06
4.45339e+06
4.44746e+06
4.44132e+06
4.43492e+06
4.42818e+06
4.42108e+06
4.41359e+06
4.40573e+06
4.39752e+06
54365.3
124624
199895
278311
361821
451974
550291
658331
777748
910248
1.05766e+06
1.22179e+06
1.40421e+06
1.60601e+06
1.82734e+06
2.06711e+06
2.32248e+06
2.58883e+06
2.85972e+06
3.12725e+06
3.38282e+06
3.61814e+06
3.82631e+06
4.00276e+06
4.14584e+06
4.25662e+06
4.3384e+06
4.39588e+06
4.43411e+06
4.45802e+06
4.47177e+06
4.47881e+06
4.48173e+06
4.48222e+06
4.4811e+06
4.47879e+06
4.47563e+06
4.47182e+06
4.46752e+06
4.46276e+06
4.45759e+06
4.45204e+06
4.44617e+06
4.44e+06
4.43355e+06
4.42675e+06
4.41958e+06
4.41202e+06
4.40409e+06
4.39579e+06
51743.9
119022
190509
264447
342557
426391
517559
617764
728857
852778
991579
1.14739e+06
1.32213e+06
1.51726e+06
1.73332e+06
1.96957e+06
2.22354e+06
2.49091e+06
2.7654e+06
3.03909e+06
3.30306e+06
3.54844e+06
3.76757e+06
3.95508e+06
4.10858e+06
4.22858e+06
4.31807e+06
4.38167e+06
4.42444e+06
4.45152e+06
4.46735e+06
4.47557e+06
4.47905e+06
4.47983e+06
4.47887e+06
4.47668e+06
4.47359e+06
4.46982e+06
4.46559e+06
4.46094e+06
4.4559e+06
4.45049e+06
4.44473e+06
4.43862e+06
4.43215e+06
4.42531e+06
4.41808e+06
4.41046e+06
4.40247e+06
4.3941e+06
47938.2
111639
178898
248196
321080
399022
483602
576562
679854
795600
926049
1.07358e+06
1.24047e+06
1.42857e+06
1.63886e+06
1.871e+06
2.12305e+06
2.39106e+06
2.66896e+06
2.94884e+06
3.22151e+06
3.47737e+06
3.7079e+06
3.90688e+06
4.07116e+06
4.20072e+06
4.29817e+06
4.36808e+06
4.41562e+06
4.44614e+06
4.46431e+06
4.47394e+06
4.47808e+06
4.47906e+06
4.47801e+06
4.47563e+06
4.47239e+06
4.46847e+06
4.4641e+06
4.45938e+06
4.45432e+06
4.44895e+06
4.4432e+06
4.43708e+06
4.43062e+06
4.42377e+06
4.41652e+06
4.40887e+06
4.40084e+06
4.3924e+06
44328.9
104729
167699
232470
300565
373327
452261
539085
635767
744504
867693
1.00789e+06
1.16762e+06
1.3491e+06
1.55376e+06
1.78179e+06
2.03166e+06
2.29991e+06
2.58063e+06
2.86587e+06
3.14619e+06
3.41141e+06
3.65223e+06
3.86164e+06
4.03586e+06
4.17446e+06
4.27961e+06
4.35564e+06
4.4078e+06
4.44166e+06
4.46216e+06
4.47334e+06
4.47836e+06
4.4797e+06
4.47847e+06
4.47565e+06
4.47205e+06
4.4678e+06
4.46315e+06
4.45821e+06
4.45298e+06
4.44748e+06
4.44169e+06
4.43557e+06
4.4291e+06
4.42225e+06
4.41498e+06
4.4073e+06
4.39921e+06
4.39072e+06
40237.2
97864.5
157288
218738
283511
352709
427708
510181
602091
705622
823187
957403
1.11097e+06
1.28648e+06
1.48587e+06
1.70996e+06
1.95765e+06
2.22579e+06
2.50854e+06
2.79774e+06
3.08371e+06
3.35587e+06
3.60441e+06
3.82187e+06
4.00416e+06
4.15049e+06
4.26246e+06
4.34383e+06
4.40011e+06
4.43697e+06
4.45964e+06
4.47242e+06
4.47858e+06
4.48078e+06
4.47961e+06
4.4763e+06
4.47223e+06
4.46754e+06
4.46252e+06
4.45727e+06
4.45181e+06
4.44615e+06
4.44024e+06
4.43406e+06
4.42755e+06
4.42068e+06
4.41343e+06
4.40576e+06
4.39766e+06
4.38916e+06
35616.9
91308.8
149279
210130
274157
342205
415584
495945
585212
685500
799154
928775
1.07716e+06
1.24718e+06
1.44139e+06
1.66134e+06
1.9065e+06
2.17397e+06
2.45779e+06
2.74927e+06
3.03831e+06
3.3144e+06
3.56744e+06
3.78965e+06
3.97669e+06
4.12736e+06
4.24326e+06
4.32829e+06
4.38811e+06
4.42827e+06
4.4539e+06
4.46919e+06
4.47726e+06
4.48096e+06
4.48033e+06
4.4768e+06
4.47231e+06
4.46721e+06
4.46182e+06
4.45627e+06
4.45059e+06
4.44476e+06
4.43874e+06
4.43249e+06
4.42596e+06
4.41909e+06
4.41184e+06
4.40419e+06
4.39612e+06
4.38764e+06
31085.7
86309.9
144690
206651
271331
339427
412425
492124
580488
679607
791729
919269
1.06484e+06
1.2312e+06
1.42117e+06
1.63717e+06
1.87981e+06
2.14639e+06
2.43088e+06
2.72374e+06
3.01388e+06
3.29013e+06
3.54245e+06
3.76344e+06
3.94911e+06
4.09883e+06
4.21504e+06
4.30218e+06
4.36571e+06
4.4107e+06
4.44138e+06
4.46119e+06
4.47283e+06
4.47896e+06
4.47951e+06
4.47622e+06
4.47151e+06
4.4662e+06
4.46057e+06
4.45482e+06
4.449e+06
4.44308e+06
4.43702e+06
4.43075e+06
4.42424e+06
4.4174e+06
4.41021e+06
4.4026e+06
4.39458e+06
4.38615e+06
20539.4
76737.2
139344
203546
270190
339982
414400
495393
585020
685362
798515
926708
1.07234e+06
1.23806e+06
1.42688e+06
1.64155e+06
1.88327e+06
2.14969e+06
2.4345e+06
2.72714e+06
3.0149e+06
3.28534e+06
3.52865e+06
3.73916e+06
3.9149e+06
4.05712e+06
4.16975e+06
4.25793e+06
4.32651e+06
4.37914e+06
4.41823e+06
4.44575e+06
4.46357e+06
4.47403e+06
4.47659e+06
4.47365e+06
4.46903e+06
4.4638e+06
4.45821e+06
4.4525e+06
4.44672e+06
4.44086e+06
4.43488e+06
4.42871e+06
4.42229e+06
4.41557e+06
4.40848e+06
4.40097e+06
4.39304e+06
4.38467e+06
2142.97
64354.8
132598
199930
270329
344505
423263
508449
602312
707115
824959
957809
1.10766e+06
1.27674e+06
1.46767e+06
1.68311e+06
1.9245e+06
2.19002e+06
2.47289e+06
2.76119e+06
3.04016e+06
3.2961e+06
3.52001e+06
3.70913e+06
3.86511e+06
3.9927e+06
4.09813e+06
4.18722e+06
4.26364e+06
4.3283e+06
4.38054e+06
4.42082e+06
4.44917e+06
4.46616e+06
4.47107e+06
4.4684e+06
4.46422e+06
4.45951e+06
4.45434e+06
4.44897e+06
4.4435e+06
4.43792e+06
4.43219e+06
4.42625e+06
4.42006e+06
4.41354e+06
4.40663e+06
4.39927e+06
4.39146e+06
4.38319e+06
-9703.56
55117.3
129663
201524
277197
358466
445074
537819
638879
751006
876818
1.01825e+06
1.17654e+06
1.35267e+06
1.54796e+06
1.76434e+06
2.00347e+06
2.26443e+06
2.54074e+06
2.81922e+06
3.08233e+06
3.31419e+06
3.50738e+06
3.66406e+06
3.79028e+06
3.89638e+06
3.99217e+06
4.08362e+06
4.17244e+06
4.25511e+06
4.32798e+06
4.38723e+06
4.42953e+06
4.45372e+06
4.46094e+06
4.45997e+06
4.45695e+06
4.45313e+06
4.44877e+06
4.44409e+06
4.43922e+06
4.43416e+06
4.42889e+06
4.42335e+06
4.41751e+06
4.4113e+06
4.40463e+06
4.39748e+06
4.38985e+06
4.3817e+06
-24097.5
47455.5
130751
208942
291975
383828
482684
587094
698735
821503
959535
1.11532e+06
1.28896e+06
1.47853e+06
1.68167e+06
1.89773e+06
2.12859e+06
2.37622e+06
2.63708e+06
2.89785e+06
3.13717e+06
3.33452e+06
3.48537e+06
3.59993e+06
3.68707e+06
3.76605e+06
3.85201e+06
3.94864e+06
4.05578e+06
4.16483e+06
4.26477e+06
4.34636e+06
4.40238e+06
4.43274e+06
4.44422e+06
4.44765e+06
4.44727e+06
4.44485e+06
4.44163e+06
4.43796e+06
4.43396e+06
4.42964e+06
4.42502e+06
4.42004e+06
4.41468e+06
4.40887e+06
4.40254e+06
4.39565e+06
4.38822e+06
4.38022e+06
-28227.4
47781.4
138530
224339
320304
433032
556579
684634
817357
960275
1.11988e+06
1.30001e+06
1.49932e+06
1.71058e+06
1.92379e+06
2.13225e+06
2.33837e+06
2.55169e+06
2.77778e+06
3.00682e+06
3.21196e+06
3.36205e+06
3.45916e+06
3.52792e+06
3.5713e+06
3.62076e+06
3.70073e+06
3.80223e+06
3.93076e+06
4.07012e+06
4.19785e+06
4.29853e+06
4.36557e+06
4.40301e+06
4.42229e+06
4.43216e+06
4.43563e+06
4.43527e+06
4.43345e+06
4.43099e+06
4.42803e+06
4.42461e+06
4.42076e+06
4.41646e+06
4.41168e+06
4.40636e+06
4.40042e+06
4.39384e+06
4.38664e+06
4.37879e+06
-38731.7
39114.2
123611
203395
305830
441216
598578
764353
934943
1.11706e+06
1.32042e+06
1.55002e+06
1.80001e+06
2.05292e+06
2.285e+06
2.47791e+06
2.63673e+06
2.78769e+06
2.95505e+06
3.13879e+06
3.30526e+06
3.39966e+06
3.43817e+06
3.47242e+06
3.48743e+06
3.51553e+06
3.59967e+06
3.70999e+06
3.83734e+06
3.99247e+06
4.14127e+06
4.25525e+06
4.32935e+06
4.37373e+06
4.40064e+06
4.41614e+06
4.42331e+06
4.42537e+06
4.42509e+06
4.42383e+06
4.42192e+06
4.41944e+06
4.41641e+06
4.41283e+06
4.40868e+06
4.40387e+06
4.39834e+06
4.39206e+06
4.38507e+06
4.37732e+06
-10416.6
60813.8
139851
223382
344001
503460
677564
845442
1.01098e+06
1.19766e+06
1.42864e+06
1.71406e+06
2.03754e+06
2.3585e+06
2.62733e+06
2.80393e+06
2.90126e+06
2.97565e+06
3.07733e+06
3.22137e+06
3.37025e+06
3.42993e+06
3.42874e+06
3.44834e+06
3.48169e+06
3.51406e+06
3.57364e+06
3.6841e+06
3.82655e+06
3.98737e+06
4.13304e+06
4.24203e+06
4.31294e+06
4.35702e+06
4.38555e+06
4.40307e+06
4.41245e+06
4.41646e+06
4.41758e+06
4.41732e+06
4.4163e+06
4.41464e+06
4.4124e+06
4.40954e+06
4.40602e+06
4.40175e+06
4.39666e+06
4.39073e+06
4.38396e+06
4.37634e+06
-18736.7
17994.2
24026.5
113297
338868
648910
952211
1.20927e+06
1.43307e+06
1.65566e+06
1.90436e+06
2.19375e+06
2.5049e+06
2.79703e+06
3.01747e+06
3.10707e+06
3.0927e+06
3.07184e+06
3.10683e+06
3.21722e+06
3.36421e+06
3.45597e+06
3.46057e+06
3.45965e+06
3.50094e+06
3.56963e+06
3.66267e+06
3.78338e+06
3.91743e+06
4.05326e+06
4.17221e+06
4.26141e+06
4.31992e+06
4.35615e+06
4.37991e+06
4.3955e+06
4.40486e+06
4.40965e+06
4.41157e+06
4.41194e+06
4.41153e+06
4.41051e+06
4.40886e+06
4.40655e+06
4.40348e+06
4.39957e+06
4.39474e+06
4.38894e+06
4.38215e+06
4.37437e+06
48081.6
-12364.8
-168923
-211328
51849.7
555266
1.08819e+06
1.51212e+06
1.78998e+06
1.9696e+06
2.12686e+06
2.31549e+06
2.5471e+06
2.80089e+06
3.00726e+06
3.1238e+06
3.13016e+06
3.1042e+06
3.10624e+06
3.16074e+06
3.26448e+06
3.37417e+06
3.44401e+06
3.49943e+06
3.5647e+06
3.64646e+06
3.74591e+06
3.86247e+06
3.98701e+06
4.10701e+06
4.20878e+06
4.28391e+06
4.3325e+06
4.36182e+06
4.38054e+06
4.39303e+06
4.40101e+06
4.40553e+06
4.40768e+06
4.40852e+06
4.40864e+06
4.40814e+06
4.40699e+06
4.40514e+06
4.4025e+06
4.399e+06
4.39454e+06
4.38906e+06
4.38249e+06
4.37477e+06
17630.9
7204.85
-83612.5
-101878
107616
561445
1.08604e+06
1.50581e+06
1.77605e+06
1.93557e+06
2.06597e+06
2.23882e+06
2.45759e+06
2.6982e+06
2.90243e+06
3.04633e+06
3.09995e+06
3.11709e+06
3.1441e+06
3.20002e+06
3.28134e+06
3.3638e+06
3.4288e+06
3.48747e+06
3.55803e+06
3.64866e+06
3.75861e+06
3.88264e+06
4.01112e+06
4.13109e+06
4.22968e+06
4.30007e+06
4.34414e+06
4.36986e+06
4.38513e+06
4.3946e+06
4.40073e+06
4.40428e+06
4.40626e+06
4.40732e+06
4.40761e+06
4.40714e+06
4.40596e+06
4.40404e+06
4.40132e+06
4.39769e+06
4.39306e+06
4.38733e+06
4.38031e+06
4.37185e+06
4.41063e+06
4.41012e+06
4.40987e+06
4.40978e+06
4.40974e+06
4.40971e+06
4.40969e+06
4.40968e+06
4.40968e+06
4.40968e+06
4.40968e+06
4.40969e+06
4.40969e+06
4.4097e+06
4.40971e+06
4.40972e+06
4.40974e+06
4.40975e+06
4.40977e+06
4.40979e+06
4.40982e+06
4.40984e+06
4.40986e+06
4.40989e+06
4.40991e+06
4.40994e+06
4.40996e+06
4.40999e+06
4.41001e+06
4.41003e+06
4.41006e+06
4.41008e+06
4.41011e+06
4.41013e+06
4.41015e+06
4.41017e+06
4.41019e+06
4.41021e+06
4.41022e+06
4.41023e+06
4.41023e+06
4.41023e+06
4.41023e+06
4.41022e+06
4.4102e+06
4.41018e+06
4.41015e+06
4.41011e+06
4.41006e+06
4.40998e+06
4.40903e+06
4.40932e+06
4.40942e+06
4.40946e+06
4.40949e+06
4.40952e+06
4.40955e+06
4.40956e+06
4.40958e+06
4.4096e+06
4.40961e+06
4.40962e+06
4.40964e+06
4.40965e+06
4.40967e+06
4.40968e+06
4.4097e+06
4.40972e+06
4.40974e+06
4.40977e+06
4.40979e+06
4.40982e+06
4.40984e+06
4.40987e+06
4.40989e+06
4.40992e+06
4.40995e+06
4.40997e+06
4.41e+06
4.41002e+06
4.41005e+06
4.41007e+06
4.4101e+06
4.41012e+06
4.41014e+06
4.41016e+06
4.41018e+06
4.4102e+06
4.41021e+06
4.41022e+06
4.41023e+06
4.41023e+06
4.41023e+06
4.41022e+06
4.41021e+06
4.41019e+06
4.41016e+06
4.41013e+06
4.41008e+06
4.41002e+06
4.40949e+06
4.40963e+06
4.4097e+06
4.40972e+06
4.40971e+06
4.40971e+06
4.40971e+06
4.40971e+06
4.40971e+06
4.40971e+06
4.40971e+06
4.40971e+06
4.40971e+06
4.40972e+06
4.40973e+06
4.40974e+06
4.40975e+06
4.40977e+06
4.40979e+06
4.40981e+06
4.40983e+06
4.40985e+06
4.40987e+06
4.4099e+06
4.40992e+06
4.40995e+06
4.40997e+06
4.40999e+06
4.41002e+06
4.41004e+06
4.41007e+06
4.41009e+06
4.41011e+06
4.41014e+06
4.41016e+06
4.41018e+06
4.4102e+06
4.41022e+06
4.41023e+06
4.41024e+06
4.41025e+06
4.41025e+06
4.41025e+06
4.41024e+06
4.41023e+06
4.41021e+06
4.41019e+06
4.41017e+06
4.41013e+06
4.41009e+06
4.40951e+06
4.40954e+06
4.40955e+06
4.40955e+06
4.40956e+06
4.40956e+06
4.40957e+06
4.40958e+06
4.40959e+06
4.4096e+06
4.40961e+06
4.40962e+06
4.40963e+06
4.40965e+06
4.40966e+06
4.40968e+06
4.4097e+06
4.40972e+06
4.40974e+06
4.40976e+06
4.40979e+06
4.40981e+06
4.40984e+06
4.40986e+06
4.40989e+06
4.40992e+06
4.40994e+06
4.40997e+06
4.40999e+06
4.41002e+06
4.41005e+06
4.41007e+06
4.4101e+06
4.41012e+06
4.41015e+06
4.41017e+06
4.41019e+06
4.41021e+06
4.41022e+06
4.41023e+06
4.41024e+06
4.41025e+06
4.41025e+06
4.41024e+06
4.41024e+06
4.41023e+06
4.41021e+06
4.41019e+06
4.41017e+06
4.41014e+06
4.40954e+06
4.40956e+06
4.40958e+06
4.40961e+06
4.40962e+06
4.40964e+06
4.40965e+06
4.40966e+06
4.40967e+06
4.40968e+06
4.40968e+06
4.40969e+06
4.4097e+06
4.40971e+06
4.40972e+06
4.40973e+06
4.40975e+06
4.40976e+06
4.40978e+06
4.4098e+06
4.40983e+06
4.40985e+06
4.40988e+06
4.4099e+06
4.40992e+06
4.40995e+06
4.40997e+06
4.41e+06
4.41002e+06
4.41005e+06
4.41007e+06
4.4101e+06
4.41012e+06
4.41015e+06
4.41017e+06
4.41019e+06
4.41021e+06
4.41023e+06
4.41025e+06
4.41026e+06
4.41027e+06
4.41028e+06
4.41028e+06
4.41028e+06
4.41028e+06
4.41027e+06
4.41026e+06
4.41025e+06
4.41024e+06
4.41022e+06
4.40956e+06
4.40956e+06
4.40957e+06
4.40958e+06
4.40959e+06
4.4096e+06
4.40961e+06
4.40961e+06
4.40962e+06
4.40963e+06
4.40963e+06
4.40964e+06
4.40965e+06
4.40966e+06
4.40967e+06
4.40969e+06
4.40971e+06
4.40972e+06
4.40974e+06
4.40977e+06
4.40979e+06
4.40982e+06
4.40984e+06
4.40987e+06
4.4099e+06
4.40992e+06
4.40995e+06
4.40997e+06
4.41e+06
4.41003e+06
4.41005e+06
4.41008e+06
4.4101e+06
4.41013e+06
4.41016e+06
4.41018e+06
4.4102e+06
4.41022e+06
4.41024e+06
4.41026e+06
4.41027e+06
4.41028e+06
4.41028e+06
4.41029e+06
4.41029e+06
4.41029e+06
4.41029e+06
4.41029e+06
4.41028e+06
4.41028e+06
4.40956e+06
4.40957e+06
4.40958e+06
4.40959e+06
4.4096e+06
4.40961e+06
4.40962e+06
4.40963e+06
4.40964e+06
4.40965e+06
4.40966e+06
4.40967e+06
4.40968e+06
4.40969e+06
4.40971e+06
4.40972e+06
4.40974e+06
4.40975e+06
4.40978e+06
4.4098e+06
4.40982e+06
4.40985e+06
4.40987e+06
4.4099e+06
4.40992e+06
4.40995e+06
4.40997e+06
4.41e+06
4.41002e+06
4.41005e+06
4.41008e+06
4.4101e+06
4.41013e+06
4.41015e+06
4.41018e+06
4.4102e+06
4.41023e+06
4.41025e+06
4.41027e+06
4.41028e+06
4.4103e+06
4.41031e+06
4.41032e+06
4.41033e+06
4.41033e+06
4.41034e+06
4.41034e+06
4.41035e+06
4.41035e+06
4.41035e+06
4.40957e+06
4.40957e+06
4.40958e+06
4.40959e+06
4.4096e+06
4.4096e+06
4.40961e+06
4.40962e+06
4.40963e+06
4.40964e+06
4.40965e+06
4.40965e+06
4.40966e+06
4.40967e+06
4.40969e+06
4.4097e+06
4.40972e+06
4.40973e+06
4.40975e+06
4.40978e+06
4.4098e+06
4.40983e+06
4.40985e+06
4.40988e+06
4.40991e+06
4.40993e+06
4.40996e+06
4.40998e+06
4.41001e+06
4.41004e+06
4.41006e+06
4.41009e+06
4.41012e+06
4.41014e+06
4.41017e+06
4.4102e+06
4.41022e+06
4.41025e+06
4.41027e+06
4.41029e+06
4.4103e+06
4.41032e+06
4.41033e+06
4.41035e+06
4.41036e+06
4.41037e+06
4.41038e+06
4.41039e+06
4.4104e+06
4.41042e+06
4.40957e+06
4.40957e+06
4.40958e+06
4.40959e+06
4.4096e+06
4.40961e+06
4.40961e+06
4.40962e+06
4.40963e+06
4.40964e+06
4.40965e+06
4.40966e+06
4.40967e+06
4.40968e+06
4.4097e+06
4.40971e+06
4.40973e+06
4.40975e+06
4.40977e+06
4.40979e+06
4.40981e+06
4.40984e+06
4.40987e+06
4.40989e+06
4.40992e+06
4.40995e+06
4.40997e+06
4.41e+06
4.41003e+06
4.41005e+06
4.41008e+06
4.41011e+06
4.41013e+06
4.41016e+06
4.41019e+06
4.41021e+06
4.41024e+06
4.41026e+06
4.41029e+06
4.41031e+06
4.41033e+06
4.41035e+06
4.41036e+06
4.41038e+06
4.4104e+06
4.41041e+06
4.41043e+06
4.41045e+06
4.41047e+06
4.41049e+06
4.40957e+06
4.40957e+06
4.40958e+06
4.40959e+06
4.4096e+06
4.4096e+06
4.40961e+06
4.40962e+06
4.40963e+06
4.40964e+06
4.40965e+06
4.40966e+06
4.40967e+06
4.40968e+06
4.40969e+06
4.40971e+06
4.40972e+06
4.40974e+06
4.40976e+06
4.40979e+06
4.40981e+06
4.40984e+06
4.40986e+06
4.40989e+06
4.40992e+06
4.40994e+06
4.40997e+06
4.41e+06
4.41002e+06
4.41005e+06
4.41008e+06
4.41011e+06
4.41013e+06
4.41016e+06
4.41019e+06
4.41022e+06
4.41024e+06
4.41027e+06
4.4103e+06
4.41032e+06
4.41034e+06
4.41036e+06
4.41039e+06
4.41041e+06
4.41043e+06
4.41045e+06
4.41047e+06
4.4105e+06
4.41053e+06
4.41055e+06
4.40957e+06
4.40957e+06
4.40958e+06
4.40959e+06
4.4096e+06
4.40961e+06
4.40961e+06
4.40962e+06
4.40963e+06
4.40964e+06
4.40965e+06
4.40966e+06
4.40967e+06
4.40968e+06
4.40969e+06
4.40971e+06
4.40972e+06
4.40974e+06
4.40976e+06
4.40979e+06
4.40981e+06
4.40984e+06
4.40986e+06
4.40989e+06
4.40992e+06
4.40995e+06
4.40997e+06
4.41e+06
4.41003e+06
4.41006e+06
4.41008e+06
4.41011e+06
4.41014e+06
4.41017e+06
4.4102e+06
4.41023e+06
4.41025e+06
4.41028e+06
4.41031e+06
4.41034e+06
4.41036e+06
4.41039e+06
4.41041e+06
4.41044e+06
4.41046e+06
4.41049e+06
4.41052e+06
4.41055e+06
4.41059e+06
4.41062e+06
4.40957e+06
4.40957e+06
4.40958e+06
4.40959e+06
4.4096e+06
4.40961e+06
4.40962e+06
4.40962e+06
4.40963e+06
4.40964e+06
4.40965e+06
4.40966e+06
4.40967e+06
4.40968e+06
4.4097e+06
4.40971e+06
4.40973e+06
4.40975e+06
4.40977e+06
4.40979e+06
4.40982e+06
4.40984e+06
4.40987e+06
4.4099e+06
4.40993e+06
4.40996e+06
4.40998e+06
4.41001e+06
4.41004e+06
4.41007e+06
4.41009e+06
4.41012e+06
4.41015e+06
4.41018e+06
4.41021e+06
4.41024e+06
4.41027e+06
4.4103e+06
4.41033e+06
4.41036e+06
4.41038e+06
4.41041e+06
4.41044e+06
4.41047e+06
4.4105e+06
4.41053e+06
4.41057e+06
4.41061e+06
4.41065e+06
4.41069e+06
4.40957e+06
4.40957e+06
4.40958e+06
4.40959e+06
4.4096e+06
4.40961e+06
4.40961e+06
4.40962e+06
4.40963e+06
4.40964e+06
4.40965e+06
4.40965e+06
4.40966e+06
4.40967e+06
4.40969e+06
4.4097e+06
4.40972e+06
4.40974e+06
4.40976e+06
4.40978e+06
4.40981e+06
4.40983e+06
4.40986e+06
4.40989e+06
4.40992e+06
4.40995e+06
4.40998e+06
4.41e+06
4.41003e+06
4.41006e+06
4.41009e+06
4.41012e+06
4.41015e+06
4.41018e+06
4.41021e+06
4.41024e+06
4.41027e+06
4.4103e+06
4.41033e+06
4.41036e+06
4.41039e+06
4.41042e+06
4.41046e+06
4.41049e+06
4.41053e+06
4.41056e+06
4.41061e+06
4.41065e+06
4.4107e+06
4.41075e+06
4.40957e+06
4.40957e+06
4.40958e+06
4.40959e+06
4.4096e+06
4.40961e+06
4.40962e+06
4.40963e+06
4.40964e+06
4.40965e+06
4.40966e+06
4.40967e+06
4.40968e+06
4.40969e+06
4.40971e+06
4.40972e+06
4.40974e+06
4.40976e+06
4.40978e+06
4.4098e+06
4.40983e+06
4.40985e+06
4.40988e+06
4.40991e+06
4.40994e+06
4.40997e+06
4.41e+06
4.41002e+06
4.41005e+06
4.41008e+06
4.41011e+06
4.41014e+06
4.41016e+06
4.41019e+06
4.41023e+06
4.41026e+06
4.41029e+06
4.41032e+06
4.41035e+06
4.41039e+06
4.41042e+06
4.41045e+06
4.41049e+06
4.41053e+06
4.41057e+06
4.41061e+06
4.41065e+06
4.4107e+06
4.41076e+06
4.41081e+06
4.40956e+06
4.40957e+06
4.40958e+06
4.40959e+06
4.4096e+06
4.4096e+06
4.40961e+06
4.40961e+06
4.40962e+06
4.40963e+06
4.40963e+06
4.40964e+06
4.40965e+06
4.40966e+06
4.40968e+06
4.40969e+06
4.40971e+06
4.40973e+06
4.40975e+06
4.40977e+06
4.4098e+06
4.40983e+06
4.40986e+06
4.40989e+06
4.40992e+06
4.40995e+06
4.40998e+06
4.41001e+06
4.41003e+06
4.41006e+06
4.41009e+06
4.41012e+06
4.41015e+06
4.41018e+06
4.41022e+06
4.41025e+06
4.41028e+06
4.41032e+06
4.41035e+06
4.41039e+06
4.41042e+06
4.41046e+06
4.4105e+06
4.41054e+06
4.41058e+06
4.41063e+06
4.41068e+06
4.41074e+06
4.4108e+06
4.41086e+06
4.40955e+06
4.40957e+06
4.40959e+06
4.40961e+06
4.40963e+06
4.40964e+06
4.40965e+06
4.40966e+06
4.40967e+06
4.40968e+06
4.40968e+06
4.40969e+06
4.4097e+06
4.40971e+06
4.40972e+06
4.40973e+06
4.40975e+06
4.40977e+06
4.40979e+06
4.40981e+06
4.40984e+06
4.40986e+06
4.40989e+06
4.40992e+06
4.40995e+06
4.40998e+06
4.41001e+06
4.41003e+06
4.41006e+06
4.41009e+06
4.41012e+06
4.41015e+06
4.41018e+06
4.41021e+06
4.41024e+06
4.41027e+06
4.41031e+06
4.41034e+06
4.41038e+06
4.41041e+06
4.41045e+06
4.41049e+06
4.41053e+06
4.41057e+06
4.41062e+06
4.41067e+06
4.41073e+06
4.41079e+06
4.41086e+06
4.41093e+06
4.40952e+06
4.40954e+06
4.40956e+06
4.40956e+06
4.40956e+06
4.40957e+06
4.40957e+06
4.40958e+06
4.40959e+06
4.4096e+06
4.40961e+06
4.40962e+06
4.40963e+06
4.40965e+06
4.40966e+06
4.40968e+06
4.4097e+06
4.40972e+06
4.40974e+06
4.40977e+06
4.4098e+06
4.40982e+06
4.40986e+06
4.40989e+06
4.40992e+06
4.40995e+06
4.40998e+06
4.41001e+06
4.41004e+06
4.41007e+06
4.4101e+06
4.41013e+06
4.41016e+06
4.41019e+06
4.41022e+06
4.41026e+06
4.41029e+06
4.41033e+06
4.41037e+06
4.41041e+06
4.41045e+06
4.41049e+06
4.41053e+06
4.41058e+06
4.41063e+06
4.41069e+06
4.41075e+06
4.41082e+06
4.41089e+06
4.41097e+06
4.4095e+06
4.40963e+06
4.40971e+06
4.40972e+06
4.40972e+06
4.40972e+06
4.40971e+06
4.40971e+06
4.40971e+06
4.40971e+06
4.40971e+06
4.40971e+06
4.40971e+06
4.40972e+06
4.40973e+06
4.40974e+06
4.40975e+06
4.40977e+06
4.40979e+06
4.40981e+06
4.40984e+06
4.40986e+06
4.40989e+06
4.40992e+06
4.40995e+06
4.40998e+06
4.41001e+06
4.41004e+06
4.41006e+06
4.41009e+06
4.41012e+06
4.41015e+06
4.41018e+06
4.41021e+06
4.41025e+06
4.41028e+06
4.41031e+06
4.41035e+06
4.41039e+06
4.41043e+06
4.41047e+06
4.41051e+06
4.41056e+06
4.41061e+06
4.41066e+06
4.41072e+06
4.41079e+06
4.41086e+06
4.41094e+06
4.41103e+06
4.40904e+06
4.40933e+06
4.40942e+06
4.40947e+06
4.4095e+06
4.40953e+06
4.40955e+06
4.40957e+06
4.40958e+06
4.4096e+06
4.40961e+06
4.40962e+06
4.40964e+06
4.40965e+06
4.40967e+06
4.40969e+06
4.40971e+06
4.40973e+06
4.40975e+06
4.40978e+06
4.4098e+06
4.40983e+06
4.40986e+06
4.40989e+06
4.40993e+06
4.40996e+06
4.40999e+06
4.41002e+06
4.41005e+06
4.41008e+06
4.41011e+06
4.41014e+06
4.41017e+06
4.4102e+06
4.41023e+06
4.41027e+06
4.4103e+06
4.41034e+06
4.41038e+06
4.41042e+06
4.41046e+06
4.41051e+06
4.41055e+06
4.41061e+06
4.41066e+06
4.41073e+06
4.4108e+06
4.41088e+06
4.41097e+06
4.41107e+06
4.41064e+06
4.41013e+06
4.40988e+06
4.40979e+06
4.40974e+06
4.40971e+06
4.40969e+06
4.40968e+06
4.40968e+06
4.40968e+06
4.40968e+06
4.40969e+06
4.40969e+06
4.4097e+06
4.40971e+06
4.40972e+06
4.40974e+06
4.40976e+06
4.40978e+06
4.4098e+06
4.40983e+06
4.40986e+06
4.40988e+06
4.40991e+06
4.40994e+06
4.40997e+06
4.41e+06
4.41003e+06
4.41006e+06
4.41009e+06
4.41012e+06
4.41015e+06
4.41018e+06
4.41021e+06
4.41024e+06
4.41028e+06
4.41031e+06
4.41035e+06
4.41039e+06
4.41043e+06
4.41047e+06
4.41052e+06
4.41056e+06
4.41062e+06
4.41068e+06
4.41074e+06
4.41081e+06
4.4109e+06
4.41099e+06
4.41111e+06
4.05206e+06
4.06444e+06
4.06643e+06
4.07638e+06
4.07923e+06
4.08642e+06
4.08902e+06
4.09326e+06
4.09473e+06
4.09647e+06
4.09678e+06
4.09711e+06
4.09681e+06
4.09738e+06
4.09723e+06
4.09955e+06
4.10023e+06
4.10572e+06
4.10742e+06
4.11699e+06
4.05114e+06
4.06351e+06
4.06547e+06
4.07544e+06
4.07829e+06
4.0855e+06
4.08811e+06
4.09235e+06
4.09384e+06
4.09558e+06
4.09591e+06
4.09623e+06
4.09594e+06
4.0965e+06
4.09635e+06
4.09868e+06
4.09935e+06
4.10488e+06
4.10672e+06
4.11664e+06
4.0501e+06
4.06251e+06
4.06444e+06
4.07444e+06
4.07729e+06
4.08451e+06
4.08713e+06
4.09138e+06
4.09287e+06
4.09462e+06
4.09495e+06
4.09527e+06
4.09499e+06
4.09554e+06
4.09538e+06
4.09773e+06
4.0984e+06
4.10399e+06
4.10594e+06
4.11619e+06
4.04898e+06
4.06143e+06
4.06334e+06
4.07337e+06
4.07622e+06
4.08345e+06
4.08608e+06
4.09033e+06
4.09184e+06
4.09358e+06
4.09392e+06
4.09423e+06
4.09395e+06
4.0945e+06
4.09434e+06
4.0967e+06
4.09738e+06
4.10302e+06
4.10496e+06
4.11535e+06
4.04778e+06
4.06028e+06
4.06217e+06
4.07224e+06
4.07508e+06
4.08232e+06
4.08496e+06
4.08921e+06
4.09072e+06
4.09246e+06
4.0928e+06
4.09311e+06
4.09284e+06
4.09339e+06
4.09323e+06
4.09561e+06
4.09628e+06
4.10198e+06
4.10392e+06
4.11444e+06
4.04651e+06
4.05906e+06
4.06093e+06
4.07103e+06
4.07388e+06
4.08112e+06
4.08377e+06
4.08802e+06
4.08954e+06
4.09127e+06
4.09161e+06
4.09191e+06
4.09165e+06
4.0922e+06
4.09204e+06
4.09444e+06
4.09511e+06
4.10088e+06
4.10285e+06
4.11353e+06
4.04518e+06
4.05778e+06
4.05964e+06
4.06977e+06
4.07261e+06
4.07986e+06
4.08252e+06
4.08677e+06
4.08828e+06
4.09e+06
4.09035e+06
4.09064e+06
4.09039e+06
4.09093e+06
4.09078e+06
4.09319e+06
4.09385e+06
4.09967e+06
4.10166e+06
4.11248e+06
4.04378e+06
4.05644e+06
4.05828e+06
4.06844e+06
4.07129e+06
4.07854e+06
4.0812e+06
4.08544e+06
4.08695e+06
4.08867e+06
4.08902e+06
4.0893e+06
4.08905e+06
4.0896e+06
4.08944e+06
4.09186e+06
4.0925e+06
4.09835e+06
4.1003e+06
4.11122e+06
4.04233e+06
4.05504e+06
4.05687e+06
4.06706e+06
4.06991e+06
4.07716e+06
4.07983e+06
4.08406e+06
4.08557e+06
4.08727e+06
4.08762e+06
4.08789e+06
4.08765e+06
4.08819e+06
4.08804e+06
4.09046e+06
4.09108e+06
4.09693e+06
4.09881e+06
4.10981e+06
4.04082e+06
4.05359e+06
4.05541e+06
4.06563e+06
4.06848e+06
4.07572e+06
4.07839e+06
4.08261e+06
4.08411e+06
4.08581e+06
4.08615e+06
4.08642e+06
4.08619e+06
4.08672e+06
4.08657e+06
4.089e+06
4.08959e+06
4.09546e+06
4.09728e+06
4.10836e+06
4.03926e+06
4.05209e+06
4.0539e+06
4.06415e+06
4.06699e+06
4.07424e+06
4.07691e+06
4.08111e+06
4.0826e+06
4.08428e+06
4.08462e+06
4.08488e+06
4.08465e+06
4.08519e+06
4.08504e+06
4.08748e+06
4.08806e+06
4.09396e+06
4.09575e+06
4.10691e+06
4.03765e+06
4.05055e+06
4.05235e+06
4.06262e+06
4.06546e+06
4.0727e+06
4.07536e+06
4.07954e+06
4.08102e+06
4.08269e+06
4.08302e+06
4.08328e+06
4.08306e+06
4.08359e+06
4.08345e+06
4.08591e+06
4.08649e+06
4.09244e+06
4.09421e+06
4.10547e+06
4.036e+06
4.04896e+06
4.05075e+06
4.06104e+06
4.06388e+06
4.07111e+06
4.07377e+06
4.07792e+06
4.07939e+06
4.08104e+06
4.08137e+06
4.08162e+06
4.0814e+06
4.08194e+06
4.08181e+06
4.0843e+06
4.08489e+06
4.09089e+06
4.09265e+06
4.10401e+06
4.0343e+06
4.04732e+06
4.04911e+06
4.05941e+06
4.06225e+06
4.06946e+06
4.07212e+06
4.07625e+06
4.0777e+06
4.07934e+06
4.07967e+06
4.07991e+06
4.0797e+06
4.08024e+06
4.08012e+06
4.08264e+06
4.08323e+06
4.0893e+06
4.09105e+06
4.10253e+06
4.03254e+06
4.04563e+06
4.04741e+06
4.05773e+06
4.06057e+06
4.06777e+06
4.07042e+06
4.07452e+06
4.07596e+06
4.07759e+06
4.07791e+06
4.07815e+06
4.07795e+06
4.07849e+06
4.07839e+06
4.08093e+06
4.08153e+06
4.08766e+06
4.08941e+06
4.101e+06
4.03073e+06
4.04388e+06
4.04566e+06
4.056e+06
4.05884e+06
4.06603e+06
4.06868e+06
4.07276e+06
4.07419e+06
4.0758e+06
4.07612e+06
4.07636e+06
4.07616e+06
4.07671e+06
4.07661e+06
4.07918e+06
4.07979e+06
4.08598e+06
4.08772e+06
4.09942e+06
4.02887e+06
4.04209e+06
4.04386e+06
4.05422e+06
4.05706e+06
4.06425e+06
4.06689e+06
4.07095e+06
4.07237e+06
4.07398e+06
4.0743e+06
4.07453e+06
4.07433e+06
4.07488e+06
4.0748e+06
4.07739e+06
4.078e+06
4.08424e+06
4.08597e+06
4.09779e+06
4.02696e+06
4.04024e+06
4.04201e+06
4.05239e+06
4.05525e+06
4.06243e+06
4.06507e+06
4.0691e+06
4.07052e+06
4.07212e+06
4.07244e+06
4.07267e+06
4.07247e+06
4.07303e+06
4.07295e+06
4.07556e+06
4.07616e+06
4.08245e+06
4.08417e+06
4.0961e+06
4.02499e+06
4.03834e+06
4.04011e+06
4.05051e+06
4.05339e+06
4.06056e+06
4.06321e+06
4.06722e+06
4.06864e+06
4.07023e+06
4.07055e+06
4.07078e+06
4.07058e+06
4.07114e+06
4.07106e+06
4.07369e+06
4.07428e+06
4.08061e+06
4.08233e+06
4.09436e+06
4.02298e+06
4.03639e+06
4.03817e+06
4.0486e+06
4.05149e+06
4.05867e+06
4.06131e+06
4.06531e+06
4.06672e+06
4.06832e+06
4.06863e+06
4.06885e+06
4.06866e+06
4.06922e+06
4.06913e+06
4.07177e+06
4.07236e+06
4.07874e+06
4.08044e+06
4.09258e+06
4.02093e+06
4.03441e+06
4.0362e+06
4.04665e+06
4.04957e+06
4.05673e+06
4.05938e+06
4.06336e+06
4.06478e+06
4.06637e+06
4.06668e+06
4.0669e+06
4.0667e+06
4.06726e+06
4.06717e+06
4.06983e+06
4.07041e+06
4.07682e+06
4.07851e+06
4.09076e+06
4.01884e+06
4.0324e+06
4.03419e+06
4.04468e+06
4.04761e+06
4.05477e+06
4.05742e+06
4.06138e+06
4.0628e+06
4.06439e+06
4.0647e+06
4.06491e+06
4.06472e+06
4.06528e+06
4.06517e+06
4.06785e+06
4.06842e+06
4.07487e+06
4.07655e+06
4.0889e+06
4.01673e+06
4.03036e+06
4.03216e+06
4.04268e+06
4.04563e+06
4.05277e+06
4.05543e+06
4.05937e+06
4.0608e+06
4.06239e+06
4.06269e+06
4.0629e+06
4.0627e+06
4.06326e+06
4.06315e+06
4.06584e+06
4.0664e+06
4.07289e+06
4.07455e+06
4.08701e+06
4.0146e+06
4.0283e+06
4.03011e+06
4.04065e+06
4.04362e+06
4.05075e+06
4.05341e+06
4.05734e+06
4.05878e+06
4.06036e+06
4.06066e+06
4.06087e+06
4.06067e+06
4.06123e+06
4.0611e+06
4.0638e+06
4.06435e+06
4.07087e+06
4.07252e+06
4.08508e+06
4.01245e+06
4.02623e+06
4.02805e+06
4.03861e+06
4.0416e+06
4.04871e+06
4.05138e+06
4.05529e+06
4.05674e+06
4.05831e+06
4.0586e+06
4.05881e+06
4.0586e+06
4.05917e+06
4.05903e+06
4.06174e+06
4.06228e+06
4.06883e+06
4.07047e+06
4.08312e+06
4.01029e+06
4.02414e+06
4.02597e+06
4.03655e+06
4.03956e+06
4.04665e+06
4.04932e+06
4.05323e+06
4.05468e+06
4.05625e+06
4.05652e+06
4.05672e+06
4.05652e+06
4.05708e+06
4.05693e+06
4.05966e+06
4.06018e+06
4.06676e+06
4.06839e+06
4.08113e+06
4.00812e+06
4.02204e+06
4.02389e+06
4.03449e+06
4.03751e+06
4.04458e+06
4.04726e+06
4.05115e+06
4.05261e+06
4.05416e+06
4.05442e+06
4.05462e+06
4.0544e+06
4.05497e+06
4.05481e+06
4.05755e+06
4.05806e+06
4.06466e+06
4.06628e+06
4.07912e+06
4.00596e+06