/*--------------------------------*- C++ -*----------------------------------*\
  =========                 |
  \\      /  F ield         | OpenFOAM: The Open Source CFD Toolbox
   \\    /   O peration     | Website:  https://openfoam.org
    \\  /    A nd           | Version:  8
     \\/     M anipulation  |
\*---------------------------------------------------------------------------*/
FoamFile
{
    version     2.0;
    format      ascii;
    class       volScalarField;
    location    "1000";
    object      T;
}
// * * * * * * * * * * * * * * * * * * * * * * * * * * * * * * * * * * * * * //

dimensions      [0 0 0 1 0 0 0];

internalField   nonuniform List<scalar> 
8400
(
301.331
301.411
301.496
301.571
301.64
301.703
301.759
301.809
301.852
301.889
301.92
301.945
301.966
301.982
301.995
302.005
302.012
302.018
302.023
302.029
302.036
302.045
302.056
302.07
302.086
302.105
302.126
302.149
302.172
302.196
302.221
302.247
302.275
302.304
302.329
302.324
302.301
302.278
302.251
302.221
302.185
302.143
302.092
302.034
301.967
301.892
301.809
301.72
301.626
301.527
301.554
301.647
301.742
301.827
301.903
301.97
302.028
302.077
302.119
302.152
302.18
302.201
302.216
302.227
302.234
302.237
302.238
302.237
302.235
302.233
302.232
302.233
302.237
302.244
302.253
302.266
302.279
302.294
302.31
302.325
302.339
302.353
302.366
302.378
302.389
302.395
302.387
302.364
302.338
302.31
302.28
302.246
302.209
302.168
302.122
302.073
302.02
301.962
301.901
301.836
301.623
301.726
301.832
301.924
302.006
302.077
302.137
302.186
302.226
302.256
302.278
302.292
302.3
302.303
302.3
302.295
302.286
302.277
302.268
302.261
302.256
302.256
302.261
302.27
302.285
302.304
302.326
302.35
302.374
302.397
302.418
302.435
302.449
302.456
302.456
302.448
302.439
302.423
302.399
302.372
302.344
302.314
302.282
302.248
302.212
302.174
302.134
302.091
302.047
302
301.528
301.638
301.75
301.848
301.934
302.007
302.066
302.113
302.147
302.17
302.183
302.187
302.184
302.175
302.161
302.145
302.129
302.114
302.102
302.095
302.094
302.101
302.116
302.139
302.169
302.206
302.249
302.295
302.342
302.39
302.435
302.475
302.508
302.528
302.528
302.507
302.486
302.468
302.447
302.422
302.395
302.367
302.338
302.308
302.276
302.243
302.209
302.173
302.136
302.097
301.246
301.354
301.464
301.561
301.644
301.713
301.767
301.807
301.833
301.847
301.85
301.845
301.833
301.816
301.797
301.778
301.762
301.751
301.748
301.754
301.769
301.795
301.83
301.875
301.929
301.99
302.058
302.131
302.209
302.288
302.368
302.446
302.519
302.578
302.6
302.57
302.538
302.509
302.484
302.461
302.436
302.41
302.383
302.355
302.326
302.295
302.264
302.232
302.197
302.16
300.824
300.915
301.009
301.093
301.164
301.223
301.267
301.298
301.317
301.325
301.324
301.316
301.304
301.291
301.279
301.271
301.269
301.277
301.296
301.326
301.369
301.423
301.487
301.559
301.637
301.721
301.812
301.908
302.01
302.116
302.225
302.34
302.461
302.584
302.662
302.632
302.592
302.555
302.523
302.494
302.468
302.444
302.42
302.392
302.364
302.335
302.306
302.275
302.24
302.204
300.39
300.451
300.517
300.577
300.629
300.672
300.705
300.729
300.744
300.752
300.754
300.754
300.752
300.752
300.756
300.767
300.788
300.821
300.867
300.928
301.002
301.088
301.181
301.278
301.379
301.482
301.589
301.699
301.813
301.932
302.056
302.187
302.334
302.525
302.709
302.689
302.645
302.605
302.569
302.536
302.505
302.476
302.448
302.421
302.394
302.367
302.339
302.307
302.272
302.235
300.097
300.126
300.161
300.194
300.224
300.25
300.272
300.29
300.303
300.313
300.322
300.329
300.338
300.35
300.368
300.394
300.431
300.483
300.552
300.637
300.737
300.849
300.967
301.085
301.203
301.321
301.439
301.556
301.676
301.8
301.925
302.053
302.188
302.391
302.733
302.738
302.696
302.657
302.62
302.585
302.552
302.521
302.49
302.459
302.429
302.398
302.366
302.333
302.299
302.262
299.997
300.006
300.019
300.032
300.045
300.057
300.069
300.08
300.09
300.099
300.108
300.117
300.128
300.142
300.162
300.192
300.234
300.293
300.372
300.47
300.588
300.718
300.853
300.985
301.112
301.232
301.348
301.461
301.574
301.691
301.812
301.935
302.063
302.222
302.722
302.78
302.744
302.708
302.674
302.641
302.609
302.577
302.545
302.514
302.481
302.448
302.414
302.379
302.341
302.302
299.999
300.002
300.006
300.009
300.014
300.018
300.023
300.029
300.035
300.041
300.047
300.053
300.062
300.073
300.09
300.116
300.158
300.218
300.301
300.405
300.527
300.661
300.797
300.93
301.056
301.172
301.281
301.385
301.489
301.595
301.706
301.822
301.943
302.077
302.677
302.813
302.788
302.76
302.731
302.702
302.673
302.643
302.612
302.581
302.55
302.516
302.482
302.446
302.408
302.369
300.011
300.014
300.013
300.013
300.014
300.015
300.017
300.021
300.025
300.029
300.034
300.039
300.046
300.056
300.071
300.096
300.136
300.196
300.279
300.383
300.506
300.64
300.776
300.908
301.03
301.14
301.239
301.331
301.421
301.513
301.611
301.715
301.826
301.944
302.694
302.841
302.829
302.811
302.79
302.766
302.741
302.715
302.688
302.659
302.63
302.599
302.566
302.532
302.496
302.458
300.016
300.019
300.019
300.018
300.017
300.017
300.018
300.02
300.023
300.026
300.03
300.034
300.04
300.049
300.065
300.091
300.135
300.198
300.285
300.394
300.52
300.655
300.792
300.921
301.038
301.139
301.227
301.304
301.377
301.451
301.53
301.617
301.717
301.988
302.784
302.878
302.871
302.862
302.848
302.831
302.811
302.79
302.767
302.743
302.717
302.689
302.66
302.63
302.598
302.563
300.019
300.022
300.023
300.023
300.024
300.024
300.025
300.027
300.028
300.029
300.031
300.032
300.036
300.045
300.063
300.097
300.149
300.225
300.322
300.44
300.572
300.711
300.848
300.974
301.085
301.175
301.248
301.307
301.359
301.411
301.471
301.556
301.684
302.155
302.827
302.916
302.916
302.911
302.904
302.893
302.88
302.864
302.846
302.826
302.805
302.783
302.759
302.733
302.706
302.677
300.021
300.025
300.027
300.029
300.032
300.034
300.035
300.036
300.035
300.034
300.031
300.03
300.032
300.043
300.071
300.119
300.192
300.287
300.402
300.532
300.672
300.814
300.95
301.072
301.175
301.253
301.308
301.344
301.372
301.406
301.459
301.549
301.787
302.312
302.867
302.953
302.96
302.96
302.957
302.951
302.942
302.931
302.919
302.905
302.889
302.872
302.854
302.834
302.813
302.791
300.019
300.024
300.029
300.034
300.039
300.041
300.042
300.04
300.037
300.033
300.027
300.023
300.027
300.05
300.1
300.18
300.286
300.41
300.545
300.686
300.83
300.973
301.103
301.219
301.314
301.375
301.406
301.415
301.42
301.433
301.493
301.651
301.951
302.458
302.909
302.988
302.999
303.002
303.002
303
302.995
302.989
302.981
302.972
302.962
302.951
302.939
302.925
302.911
302.895
300.017
300.025
300.035
300.045
300.052
300.055
300.054
300.05
300.044
300.033
300.021
300.018
300.039
300.097
300.196
300.329
300.479
300.631
300.777
300.916
301.054
301.192
301.313
301.414
301.5
301.531
301.523
301.508
301.494
301.528
301.621
301.808
302.133
302.595
302.948
303.018
303.029
303.034
303.036
303.036
303.035
303.032
303.029
303.025
303.02
303.014
303.007
302.999
302.991
302.982
300.008
300.023
300.041
300.049
300.045
300.033
300.018
300.003
299.994
299.999
300.025
300.082
300.176
300.309
300.472
300.655
300.83
300.984
301.116
301.229
301.341
301.483
301.582
301.639
301.695
301.675
301.638
301.628
301.633
301.683
301.796
302.001
302.324
302.715
302.98
303.038
303.048
303.053
303.056
303.057
303.058
303.058
303.058
303.058
303.057
303.055
303.053
303.051
303.048
303.044
300.002
300.021
300.067
300.154
300.246
300.322
300.381
300.432
300.489
300.559
300.634
300.711
300.795
300.894
301.013
301.189
301.335
301.457
301.553
301.623
301.669
301.893
301.933
301.904
301.868
301.831
301.809
301.809
301.831
301.894
302.018
302.222
302.509
302.814
303.001
303.046
303.053
303.057
303.06
303.062
303.064
303.066
303.068
303.07
303.072
303.073
303.075
303.076
303.076
303.077
300.104
300.397
300.729
300.824
300.752
300.67
300.616
300.594
300.59
300.585
300.595
300.608
300.64
300.696
300.759
301.534
301.95
302.212
302.382
302.434
302.381
302.281
302.202
302.155
302.124
302.099
302.086
302.089
302.114
302.174
302.286
302.458
302.679
302.889
303.009
303.039
303.042
303.043
303.045
303.048
303.05
303.053
303.057
303.06
303.063
303.067
303.07
303.072
303.075
303.078
302.259
302.102
301.903
301.693
301.493
301.336
301.244
301.234
301.358
301.634
302.013
302.38
302.57
302.691
302.731
302.734
302.75
302.777
302.785
302.77
302.728
302.667
302.609
302.566
302.533
302.505
302.483
302.472
302.478
302.511
302.58
302.687
302.816
302.93
302.99
303.002
302.999
302.997
302.999
303.003
303.009
303.014
303.019
303.022
303.026
303.029
303.031
303.034
303.036
303.038
303.148
303.145
303.143
303.14
303.137
303.135
303.132
303.13
303.127
303.125
303.123
303.12
303.118
303.116
303.113
303.111
303.109
303.107
303.105
303.102
303.1
303.098
303.096
303.094
303.092
303.09
303.088
303.086
303.084
303.082
303.08
303.079
303.077
303.075
303.073
303.071
303.069
303.068
303.066
303.064
303.062
303.061
303.059
303.058
303.056
303.055
303.053
303.052
303.051
303.05
303.15
303.15
303.15
303.15
303.15
303.15
303.15
303.149
303.149
303.149
303.149
303.149
303.148
303.148
303.148
303.148
303.148
303.147
303.147
303.147
303.146
303.146
303.146
303.146
303.145
303.145
303.145
303.144
303.144
303.144
303.143
303.143
303.143
303.142
303.142
303.142
303.141
303.141
303.141
303.141
303.14
303.14
303.14
303.14
303.139
303.139
303.139
303.139
303.138
303.138
303.15
303.15
303.15
303.15
303.15
303.15
303.15
303.15
303.15
303.15
303.15
303.15
303.15
303.15
303.15
303.15
303.15
303.15
303.15
303.15
303.15
303.15
303.15
303.15
303.15
303.15
303.15
303.15
303.15
303.15
303.15
303.15
303.15
303.15
303.15
303.149
303.149
303.149
303.149
303.149
303.149
303.149
303.149
303.149
303.149
303.149
303.149
303.149
303.149
303.149
303.15
303.15
303.15
303.15
303.15
303.15
303.15
303.15
303.15
303.15
303.15
303.15
303.15
303.15
303.15
303.15
303.15
303.15
303.15
303.15
303.15
303.15
303.15
303.15
303.15
303.15
303.15
303.15
303.15
303.15
303.15
303.15
303.15
303.15
303.15
303.15
303.15
303.15
303.15
303.15
303.15
303.15
303.15
303.15
303.15
303.15
303.15
303.15
303.15
303.15
303.15
303.15
303.15
303.15
303.15
303.15
303.15
303.15
303.15
303.15
303.15
303.15
303.15
303.15
303.15
303.15
303.15
303.15
303.15
303.15
303.15
303.15
303.15
303.15
303.15
303.15
303.15
303.15
303.15
303.15
303.15
303.15
303.15
303.15
303.15
303.15
303.15
303.15
303.15
303.15
303.15
303.15
303.15
303.15
303.15
303.15
303.15
303.15
303.15
303.15
303.15
303.15
303.15
303.15
303.15
303.15
303.15
303.15
303.15
303.15
303.15
303.15
303.15
303.15
303.15
303.15
303.15
303.15
303.15
303.15
303.15
303.15
303.15
303.15
303.15
303.15
303.15
303.15
303.15
303.15
303.15
303.15
303.15
303.15
303.15
303.15
303.15
303.15
303.15
303.15
303.15
303.15
303.15
303.15
303.15
303.15
303.15
303.15
303.15
303.15
303.15
303.15
303.15
303.15
303.15
303.15
303.15
303.15
303.15
303.15
303.15
303.15
303.15
303.15
303.15
303.15
303.15
303.15
303.15
303.15
303.15
303.15
303.15
303.15
303.15
303.15
303.15
303.15
303.15
303.15
303.15
303.15
303.15
303.15
303.15
303.15
303.15
303.15
303.15
303.15
303.15
303.15
303.15
303.15
303.15
303.15
303.15
303.15
303.15
303.15
303.15
303.15
303.15
303.15
303.15
303.15
303.15
303.15
303.15
303.15
303.15
303.15
303.15
303.15
303.15
303.15
303.15
303.15
303.15
303.15
303.15
303.15
303.15
303.15
303.15
303.15
303.15
303.15
303.15
303.15
303.15
303.15
303.15
303.15
303.15
303.15
303.15
303.15
303.15
303.15
303.15
303.15
303.15
303.15
303.15
303.15
303.15
303.15
303.15
303.15
303.15
303.15
303.15
303.15
303.15
303.15
303.15
303.15
303.15
303.15
303.15
303.15
303.15
303.15
303.15
303.15
303.15
303.15
303.15
303.15
303.15
303.15
303.15
303.15
303.15
303.15
303.15
303.15
303.15
303.15
303.15
303.15
303.15
303.15
303.15
303.15
303.15
303.15
303.15
303.15
303.15
303.15
303.15
303.15
303.15
303.15
303.15
303.15
303.15
303.15
303.15
303.15
303.15
303.15
303.15
303.15
303.15
303.15
303.15
303.15
303.15
303.15
303.15
303.15
303.15
303.15
303.15
303.15
303.15
303.15
303.15
303.15
303.15
303.15
303.15
303.15
303.15
303.15
303.15
303.15
303.15
303.15
303.15
303.15
303.15
303.15
303.15
303.15
303.15
303.15
303.15
303.15
303.15
303.15
303.15
303.15
303.15
303.15
303.15
303.15
303.15
303.15
303.15
303.15
303.15
303.15
303.15
303.15
303.15
303.15
303.15
303.15
303.15
303.15
303.15
303.15
303.15
303.15
303.15
303.15
303.15
303.15
303.15
303.15
303.15
303.15
303.15
303.15
303.15
303.15
303.15
303.15
303.15
303.15
303.15
303.15
303.15
303.15
303.15
303.15
303.15
303.15
303.15
303.15
303.15
303.15
303.15
303.15
303.15
303.15
303.15
303.15
303.15
303.15
303.15
303.15
303.15
303.15
303.15
303.15
303.15
303.15
303.15
303.15
303.15
303.15
303.15
303.15
303.15
303.15
303.15
303.15
303.15
303.15
303.15
303.15
303.15
303.15
303.15
303.15
303.15
303.15
303.15
303.15
303.15
303.15
303.15
303.15
303.15
303.15
303.15
303.15
303.15
303.15
303.15
303.15
303.15
303.15
303.15
303.15
303.15
303.15
303.15
303.15
303.15
303.15
303.15
303.15
303.15
303.15
303.15
303.15
303.15
303.15
303.15
303.15
303.15
303.15
303.15
303.15
303.15
303.15
303.15
303.15
303.15
303.15
303.15
303.15
303.15
303.15
303.15
303.15
303.15
303.15
303.15
303.15
303.15
303.15
303.15
303.15
303.15
303.15
303.15
303.15
303.15
303.15
303.15
303.15
303.15
303.15
303.15
303.15
303.15
303.15
303.15
303.15
303.15
303.15
303.15
303.15
303.15
303.15
303.15
303.15
303.15
303.15
303.15
303.15
303.15
303.15
303.15
303.15
303.15
303.15
303.15
303.15
303.15
303.15
303.15
303.15
303.15
303.15
303.15
303.15
303.15
303.15
303.15
303.15
303.15
303.15
303.15
303.15
303.15
303.15
303.15
303.15
303.15
303.15
303.15
303.15
303.15
303.15
303.15
303.15
303.15
303.15
303.15
303.15
303.15
303.15
303.15
303.15
303.15
303.15
303.15
303.15
303.15
303.15
303.15
303.15
303.15
303.15
303.15
303.15
303.15
303.15
303.15
303.15
303.15
303.15
303.15
303.15
303.15
303.15
303.15
303.15
303.15
303.15
303.15
303.15
303.15
303.15
303.15
303.15
303.15
303.15
303.15
303.15
303.15
303.15
303.15
303.15
303.15
303.15
303.15
303.15
303.15
303.15
303.15
303.15
303.15
303.15
303.15
303.15
303.15
303.15
303.15
303.15
303.15
303.15
303.15
303.15
303.15
303.15
303.15
303.15
303.15
303.15
303.15
303.15
303.15
303.15
303.15
303.15
303.15
303.15
303.15
303.15
303.15
303.15
303.15
303.15
303.15
303.15
303.15
303.15
303.15
303.15
303.15
303.15
303.15
303.15
303.15
303.15
303.15
303.15
303.15
303.15
303.15
303.15
303.15
303.15
303.15
303.15
303.15
303.15
303.15
303.15
303.15
303.15
303.15
303.15
303.15
303.15
303.15
303.15
303.15
303.15
303.15
303.15
303.15
303.15
303.15
303.15
303.15
303.15
303.15
303.15
303.15
303.15
303.15
303.15
303.15
303.15
303.15
303.15
303.15
303.15
303.15
303.15
303.15
303.15
303.15
303.15
303.15
303.15
303.15
303.15
303.15
303.15
303.15
303.15
303.15
303.15
303.15
303.15
303.15
303.15
303.15
303.15
303.15
303.15
303.15
303.15
303.15
303.15
303.15
303.15
303.15
303.15
303.15
303.15
303.149
303.149
303.149
303.149
303.149
303.149
303.149
303.149
303.149
303.149
303.149
303.149
303.149
303.149
303.148
303.148
303.148
303.148
303.15
303.15
303.15
303.15
303.15
303.15
303.15
303.149
303.149
303.149
303.149
303.149
303.148
303.148
303.148
303.148
303.148
303.147
303.147
303.147
303.146
303.146
303.146
303.146
303.145
303.145
303.145
303.144
303.144
303.144
303.143
303.143
303.142
303.142
303.142
303.141
303.141
303.14
303.14
303.14
303.139
303.139
303.138
303.138
303.137
303.136
303.136
303.135
303.134
303.133
303.148
303.145
303.143
303.14
303.137
303.135
303.132
303.13
303.127
303.125
303.123
303.12
303.118
303.116
303.113
303.111
303.109
303.107
303.105
303.102
303.1
303.098
303.096
303.094
303.092
303.09
303.088
303.086
303.084
303.082
303.08
303.078
303.077
303.075
303.073
303.071
303.069
303.067
303.066
303.064
303.062
303.06
303.059
303.057
303.055
303.053
303.052
303.05
303.048
303.047
303.073
303.139
303.112
302.994
302.741
302.312
301.748
301.175
300.769
300.632
300.681
300.704
300.65
300.669
300.798
300.794
300.655
300.508
300.396
300.32
303.073
303.139
303.113
302.996
302.745
302.318
301.754
301.181
300.773
300.634
300.682
300.705
300.657
300.661
300.784
300.788
300.654
300.508
300.395
300.32
303.074
303.14
303.114
302.998
302.749
302.324
301.76
301.185
300.775
300.635
300.683
300.706
300.664
300.658
300.772
300.782
300.652
300.506
300.394
300.319
303.074
303.14
303.114
303
302.752
302.328
301.765
301.189
300.778
300.636
300.683
300.708
300.67
300.656
300.761
300.773
300.649
300.505
300.393
300.318
303.075
303.14
303.115
303.001
302.754
302.332
301.768
301.192
300.779
300.637
300.684
300.709
300.676
300.655
300.75
300.764
300.644
300.502
300.391
300.318
303.075
303.141
303.116
303.002
302.756
302.335
301.772
301.194
300.78
300.637
300.685
300.71
300.683
300.654
300.739
300.753
300.639
300.499
300.39
300.317
303.076
303.141
303.116
303.003
302.758
302.337
301.774
301.196
300.781
300.637
300.685
300.711
300.689
300.655
300.728
300.742
300.632
300.496
300.388
300.316
303.076
303.141
303.116
303.004
302.759
302.338
301.775
301.197
300.781
300.637
300.685
300.712
300.695
300.656
300.718
300.73
300.625
300.492
300.386
300.316
303.077
303.142
303.117
303.004
302.759
302.339
301.776
301.197
300.781
300.637
300.686
300.713
300.7
300.658
300.708
300.717
300.616
300.487
300.383
300.315
303.077
303.142
303.117
303.004
302.759
302.339
301.776
301.196
300.78
300.636
300.686
300.714
300.706
300.66
300.698
300.704
300.607
300.482
300.381
300.314
303.078
303.142
303.117
303.004
302.759
302.338
301.775
301.195
300.778
300.635
300.686
300.715
300.711
300.662
300.689
300.691
300.598
300.477
300.378
300.313
303.078
303.143
303.117
303.004
302.758
302.337
301.773
301.193
300.777
300.634
300.686
300.716
300.716
300.665
300.68
300.678
300.588
300.471
300.375
300.312
303.079
303.143
303.117
303.003
302.757
302.335
301.77
301.19
300.774
300.632
300.686
300.717
300.72
300.668
300.672
300.664
300.577
300.465
300.372
300.311
303.08
303.143
303.116
303.002
302.756
302.333
301.767
301.187
300.771
300.631
300.686
300.718
300.725
300.67
300.664
300.651
300.567
300.459
300.369
300.31
303.08
303.143
303.116
303.002
302.754
302.329
301.763
301.182
300.768
300.629
300.686
300.719
300.729
300.673
300.656
300.638
300.556
300.452
300.366
300.309
303.081
303.143
303.116
303
302.751
302.326
301.758
301.178
300.764
300.627
300.686
300.721
300.733
300.675
300.649
300.625
300.545
300.446
300.363
300.308
303.082
303.144
303.116
302.999
302.748
302.321
301.753
301.172
300.76
300.625
300.686
300.722
300.736
300.677
300.642
300.613
300.534
300.439
300.36
300.307
303.082
303.144
303.115
302.997
302.745
302.316
301.746
301.166
300.756
300.623
300.686
300.723
300.74
300.679
300.636
300.601
300.524
300.433
300.357
300.306
303.083
303.144
303.114
302.995
302.741
302.31
301.739
301.159
300.751
300.621
300.686
300.724
300.743
300.68
300.629
300.589
300.514
300.427
300.354
300.305
303.084
303.144
303.114
302.993
302.737
302.303
301.731
301.152
300.746
300.618
300.686
300.725
300.746
300.681
300.623
300.578
300.504
300.42
300.35
300.304
303.084
303.144
303.113
302.991
302.732
302.296
301.723
301.144
300.741
300.616
300.686
300.726
300.749
300.682
300.617
300.568
300.494
300.414
300.347
300.302
303.085
303.144
303.112
302.988
302.726
302.288
301.713
301.136
300.735
300.613
300.686
300.727
300.752
300.682
300.611
300.558
300.485
300.409
300.344
300.301
303.086
303.144
303.111
302.985
302.721
302.279
301.703
301.127
300.73
300.611
300.685
300.728
300.754
300.682
300.606
300.549
300.477
300.403
300.341
300.299
303.086
303.144
303.11
302.982
302.714
302.27
301.692
301.118
300.724
300.608
300.685
300.728
300.757
300.682
300.601
300.541
300.469
300.398
300.338
300.298
303.087
303.144
303.109
302.979
302.707
302.26
301.681
301.108
300.718
300.606
300.684
300.729
300.759
300.681
300.597
300.534
300.462
300.393
300.336
300.296
303.088
303.144
303.107
302.975
302.7
302.249
301.668
301.097
300.711
300.603
300.684
300.729
300.76
300.681
300.593
300.527
300.456
300.388
300.333
300.295
303.089
303.144
303.106
302.971
302.692
302.237
301.655
301.086
300.705
300.601
300.683
300.729
300.762
300.68
300.589
300.521
300.45
300.384
300.33
300.293
303.089
303.144
303.104
302.966
302.683
302.224
301.641
301.074
300.698
300.598
300.683
300.728
300.763
300.679
300.586
300.516
300.445
300.38
300.328
300.291
303.09
303.144
303.102
302.961
302.674
302.211
301.626
301.062
300.692
300.596
300.682
300.727
300.765
300.679
300.584
300.512
300.441
300.377
300.325
300.289
303.091
303.144
303.1
302.956
302.663
302.196
301.61
301.049
300.684
300.593
300.681
300.726
300.766
300.678
300.582
300.509
300.437
300.374
300.323
300.287
303.092
303.144
303.098
302.95
302.652
302.18
301.593
301.036
300.677
300.59
300.681
300.725
300.766
300.678
300.582
300.507
300.434
300.371
300.321
300.285
303.093
303.143
303.096
302.943
302.64
302.164
301.575
301.021
300.669
300.588
300.681
300.723
300.767
300.678
300.582
300.506
300.432
300.369
300.319
300.283
303.093
303.143
303.093
302.936
302.627
302.145
301.556
301.006
300.661
300.585
300.682
300.722
300.767
300.679
300.583
300.506
300.431
300.367
300.317
300.281
303.094
303.142
303.09
302.928
302.613
302.126
301.535
300.99
300.652
300.583
300.683
300.721
300.768
300.68
300.585
300.507
300.43
300.366
300.315
300.278
303.095
303.142
303.086
302.92
302.598
302.105
301.513
300.973
300.643
300.581
300.684
300.72
300.769
300.681
300.588
300.509
300.43
300.365
300.313
300.276
303.096
303.141
303.083
302.911
302.582
302.083
301.49
300.955
300.634
300.578
300.686
300.719
300.77
300.683
300.591
300.511
300.431
300.364
300.312
300.274
303.096
303.14
303.079
302.901
302.564
302.059
301.465
300.936
300.625
300.576
300.689
300.72
300.773
300.684
300.595
300.515
300.433
300.364
300.31
300.271
303.097
303.139
303.074
302.89
302.545
302.034
301.439
300.916
300.615
300.575
300.693
300.722
300.775
300.686
300.6
300.519
300.435
300.364
300.309
300.268
303.098
303.138
303.069
302.878
302.524
302.006
301.412
300.896
300.606
300.573
300.697
300.729
300.777
300.689
300.606
300.525
300.438
300.364
300.308
300.266
303.098
303.137
303.063
302.865
302.502
301.978
301.383
300.876
300.596
300.572
300.702
300.752
300.778
300.694
300.614
300.531
300.441
300.365
300.307
300.263
303.099
303.135
303.057
302.85
302.478
301.947
301.353
300.855
300.588
300.572
300.706
300.771
300.78
300.701
300.623
300.538
300.446
300.366
300.306
300.26
303.1
303.133
303.05
302.835
302.452
301.914
301.322
300.834
300.579
300.572
300.711
300.786
300.784
300.709
300.632
300.546
300.451
300.367
300.305
300.258
303.1
303.131
303.042
302.818
302.424
301.88
301.29
300.812
300.571
300.573
300.717
300.798
300.789
300.719
300.643
300.555
300.457
300.369
300.304
300.255
303.1
303.128
303.033
302.799
302.395
301.844
301.257
300.791
300.563
300.575
300.723
300.808
300.796
300.729
300.654
300.565
300.463
300.371
300.304
300.252
303.101
303.125
303.023
302.778
302.362
301.805
301.222
300.769
300.557
300.577
300.727
300.817
300.803
300.741
300.667
300.575
300.47
300.374
300.303
300.25
303.101
303.122
303.012
302.756
302.328
301.765
301.187
300.748
300.55
300.58
300.731
300.826
300.812
300.753
300.679
300.586
300.477
300.377
300.303
300.247
303.101
303.118
303
302.731
302.291
301.723
301.151
300.727
300.545
300.583
300.733
300.833
300.821
300.765
300.693
300.598
300.485
300.381
300.303
300.245
303.101
303.114
302.987
302.705
302.252
301.678
301.114
300.706
300.54
300.586
300.735
300.84
300.831
300.778
300.706
300.609
300.494
300.384
300.304
300.242
303.101
303.108
302.971
302.675
302.21
301.632
301.076
300.686
300.536
300.589
300.736
300.846
300.841
300.792
300.72
300.621
300.502
300.388
300.305
300.24
303.1
303.102
302.954
302.644
302.165
301.584
301.038
300.667
300.534
300.592
300.738
300.852
300.852
300.805
300.734
300.634
300.511
300.393
300.305
300.238
303.1
303.095
302.936
302.609
302.117
301.534
301
300.649
300.532
300.595
300.739
300.857
300.862
300.818
300.748
300.646
300.521
300.397
300.306
300.236
303.099
303.088
302.915
302.571
302.066
301.482
300.962
300.631
300.53
300.598
300.74
300.862
300.871
300.83
300.761
300.658
300.53
300.402
300.308
300.234
303.098
303.079
302.891
302.53
302.012
301.43
300.924
300.615
300.53
300.601
300.742
300.866
300.88
300.842
300.774
300.67
300.539
300.406
300.309
300.233
303.096
303.068
302.865
302.486
301.956
301.375
300.887
300.601
300.53
300.605
300.744
300.87
300.889
300.853
300.786
300.681
300.548
300.411
300.311
300.231
303.094
303.056
302.836
302.438
301.897
301.321
300.852
300.587
300.53
300.609
300.745
300.873
300.897
300.863
300.798
300.692
300.557
300.415
300.313
300.23
303.092
303.043
302.805
302.386
301.835
301.266
300.818
300.575
300.531
300.613
300.746
300.876
300.903
300.872
300.808
300.703
300.565
300.419
300.315
300.229
303.089
303.027
302.769
302.331
301.771
301.211
300.784
300.564
300.533
300.616
300.747
300.878
300.909
300.88
300.818
300.712
300.572
300.424
300.317
300.228
303.086
303.01
302.73
302.272
301.706
301.157
300.753
300.554
300.535
300.62
300.748
300.88
300.913
300.887
300.826
300.72
300.579
300.427
300.32
300.228
303.082
302.99
302.688
302.211
301.639
301.103
300.722
300.545
300.537
300.623
300.748
300.881
300.916
300.892
300.832
300.726
300.584
300.431
300.323
300.227
303.077
302.967
302.642
302.146
301.571
301.05
300.693
300.537
300.54
300.626
300.748
300.882
300.917
300.895
300.837
300.731
300.589
300.434
300.326
300.227
303.071
302.942
302.592
302.078
301.501
300.997
300.666
300.531
300.543
300.629
300.747
300.882
300.917
300.896
300.84
300.734
300.592
300.436
300.329
300.226
303.064
302.915
302.539
302.007
301.432
300.947
300.641
300.526
300.546
300.631
300.745
300.881
300.914
300.895
300.84
300.735
300.594
300.439
300.332
300.226
303.056
302.884
302.482
301.933
301.362
300.898
300.618
300.521
300.549
300.633
300.743
300.879
300.909
300.892
300.839
300.733
300.595
300.441
300.335
300.227
303.046
302.851
302.421
301.858
301.293
300.851
300.597
300.518
300.551
300.634
300.74
300.871
300.901
300.885
300.834
300.729
300.594
300.443
300.338
300.227
303.036
302.814
302.357
301.782
301.225
300.807
300.579
300.515
300.554
300.634
300.734
300.859
300.89
300.876
300.826
300.724
300.593
300.444
300.341
300.227
303.024
302.775
302.291
301.705
301.159
300.766
300.562
300.513
300.556
300.633
300.727
300.838
300.876
300.863
300.815
300.716
300.589
300.445
300.344
300.228
303.011
302.732
302.222
301.627
301.095
300.728
300.547
300.512
300.557
300.631
300.718
300.817
300.858
300.847
300.8
300.705
300.584
300.445
300.346
300.228
302.996
302.688
302.152
301.551
301.035
300.692
300.534
300.51
300.557
300.627
300.707
300.795
300.837
300.827
300.783
300.693
300.578
300.444
300.348
300.228
302.98
302.641
302.081
301.476
300.977
300.66
300.523
300.509
300.556
300.622
300.694
300.772
300.812
300.805
300.763
300.678
300.57
300.443
300.349
300.229
302.963
302.594
302.01
301.404
300.923
300.632
300.513
300.507
300.554
300.615
300.68
300.748
300.785
300.779
300.74
300.661
300.56
300.44
300.35
300.229
302.946
302.546
301.94
301.336
300.874
300.606
300.504
300.505
300.55
300.607
300.664
300.722
300.756
300.752
300.715
300.643
300.549
300.437
300.35
300.229
302.928
302.498
301.874
301.272
300.829
300.583
300.496
300.502
300.546
300.597
300.648
300.696
300.726
300.722
300.689
300.624
300.537
300.433
300.349
300.229
302.911
302.453
301.811
301.213
300.789
300.563
300.488
300.498
300.54
300.586
300.63
300.67
300.695
300.692
300.662
300.603
300.523
300.428
300.348
300.229
302.895
302.411
301.754
301.161
300.754
300.546
300.481
300.493
300.532
300.574
300.612
300.644
300.665
300.662
300.635
300.582
300.51
300.422
300.345
300.228
302.88
302.375
301.706
301.117
300.725
300.531
300.474
300.487
300.523
300.561
300.594
300.62
300.636
300.633
300.608
300.561
300.495
300.415
300.341
300.227
302.869
302.347
301.667
301.082
300.702
300.518
300.466
300.479
300.513
300.547
300.575
300.596
300.608
300.605
300.583
300.54
300.48
300.407
300.336
300.225
302.862
302.328
301.642
301.059
300.686
300.509
300.459
300.471
300.501
300.532
300.556
300.573
300.582
300.578
300.558
300.52
300.465
300.398
300.329
300.223
302.861
302.323
301.632
301.048
300.678
300.503
300.453
300.461
300.488
300.515
300.536
300.55
300.557
300.552
300.534
300.499
300.449
300.388
300.322
300.22
302.865
302.334
301.643
301.055
300.68
300.501
300.447
300.451
300.474
300.498
300.516
300.527
300.532
300.528
300.51
300.478
300.433
300.377
300.313
300.217
302.877
302.363
301.677
301.083
300.697
300.507
300.443
300.44
300.458
300.479
300.495
300.504
300.508
300.503
300.487
300.458
300.416
300.365
300.304
300.213
302.896
302.413
301.74
301.138
300.733
300.523
300.443
300.43
300.442
300.459
300.472
300.481
300.483
300.479
300.463
300.437
300.399
300.351
300.293
300.209
302.922
302.485
301.836
301.227
300.797
300.557
300.453
300.424
300.426
300.438
300.449
300.456
300.457
300.454
300.439
300.415
300.38
300.336
300.282
300.205
302.952
302.577
301.97
301.361
300.899
300.62
300.481
300.427
300.414
300.417
300.424
300.43
300.431
300.428
300.415
300.392
300.361
300.32
300.27
300.2
302.985
302.684
302.139
301.546
301.056
300.728
300.542
300.451
300.413
300.401
300.4
300.403
300.404
300.401
300.389
300.369
300.34
300.303
300.257
300.195
303.015
302.798
302.338
301.786
301.282
300.905
300.661
300.517
300.438
300.399
300.382
300.376
300.375
300.372
300.362
300.344
300.318
300.285
300.244
300.19
303.039
302.906
302.55
302.072
301.585
301.175
300.872
300.665
300.527
300.438
300.385
300.358
300.347
300.342
300.334
300.318
300.295
300.266
300.23
300.184
303.056
302.997
302.75
302.378
301.952
301.548
301.211
300.946
300.742
300.584
300.465
300.381
300.333
300.312
300.304
300.291
300.271
300.246
300.215
300.177
303.064
303.064
302.914
302.661
302.337
301.995
301.676
301.399
301.159
300.946
300.751
300.574
300.426
300.325
300.279
300.269
300.255
300.239
300.224
300.221
303.066
303.105
303.029
302.881
302.673
302.433
302.192
301.97
301.771
301.587
301.401
301.199
300.975
300.745
300.55
300.465
300.513
300.633
300.95
302.31
303.063
303.126
303.096
303.023
302.911
302.774
302.629
302.497
302.389
302.307
302.248
302.204
302.16
302.099
302
301.849
301.747
301.919
302.568
302.846
303.057