/*--------------------------------*- C++ -*----------------------------------*\
  =========                 |
  \\      /  F ield         | OpenFOAM: The Open Source CFD Toolbox
   \\    /   O peration     | Website:  https://openfoam.org
    \\  /    A nd           | Version:  8
     \\/     M anipulation  |
\*---------------------------------------------------------------------------*/
FoamFile
{
    version     2.0;
    format      ascii;
    class       volVectorField;
    location    "1000";
    object      U;
}
// * * * * * * * * * * * * * * * * * * * * * * * * * * * * * * * * * * * * * //

dimensions      [0 1 -1 0 0 0 0];

internalField   nonuniform List<vector> 
8400
(
(-89.3754 -0.336128 1.20098e-15)
(-88.7143 -0.329044 9.74793e-16)
(-88.2595 -0.327694 7.41944e-16)
(-87.7548 -0.337692 5.01353e-16)
(-87.207 -0.363026 2.56885e-16)
(-86.5951 -0.406459 1.00423e-17)
(-85.897 -0.469723 -2.40682e-16)
(-85.0854 -0.553969 -4.92248e-16)
(-84.1284 -0.660013 -7.42851e-16)
(-82.9901 -0.788421 -9.90888e-16)
(-81.6323 -0.939382 -1.23372e-15)
(-80.0156 -1.1125 -1.46988e-15)
(-78.1002 -1.30628 -1.69899e-15)
(-75.846 -1.51822 -1.9196e-15)
(-73.2155 -1.74468 -2.13108e-15)
(-70.1791 -1.98086 -2.33454e-15)
(-66.7202 -2.22061 -2.5288e-15)
(-62.8408 -2.45583 -2.71419e-15)
(-58.566 -2.67596 -2.8856e-15)
(-53.9457 -2.86878 -3.02072e-15)
(-49.0557 -3.02065 -3.16373e-15)
(-43.9933 -3.11817 -3.32627e-15)
(-38.8726 -3.14987 -3.47922e-15)
(-33.8143 -3.10749 -3.63591e-15)
(-28.9329 -2.98843 -3.77745e-15)
(-24.325 -2.79727 -3.90368e-15)
(-20.062 -2.54615 -4.02613e-15)
(-16.1861 -2.25401 -4.21834e-15)
(-12.7141 -1.94416 -4.47252e-15)
(-9.64188 -1.64273 -4.65973e-15)
(-6.95391 -1.37456 -4.77216e-15)
(-4.6318 -1.15826 -4.85905e-15)
(-2.64749 -1.0013 -4.87539e-15)
(-0.946112 -0.901058 -4.82018e-15)
(0.650384 -0.807278 -4.49391e-15)
(2.0476 -0.592464 -3.55002e-15)
(3.11155 -0.41725 -2.63074e-15)
(4.09346 -0.31292 -1.92108e-15)
(5.00726 -0.275903 -1.3898e-15)
(5.82784 -0.292014 -1.22525e-15)
(6.55691 -0.32214 -1.28091e-15)
(7.22716 -0.344793 -1.43078e-15)
(7.87314 -0.356677 -1.60394e-15)
(8.51578 -0.360534 -1.77056e-15)
(9.1648 -0.360618 -1.9179e-15)
(9.82085 -0.360786 -2.04634e-15)
(10.4813 -0.361393 -2.16649e-15)
(11.1441 -0.361118 -2.26656e-15)
(11.8066 -0.356448 -2.33911e-15)
(12.4551 -0.343697 -2.39892e-15)
(-87.4459 -0.750517 -1.72628e-15)
(-86.7346 -0.71402 -1.93623e-15)
(-86.2329 -0.689573 -2.14048e-15)
(-85.6817 -0.694985 -2.33922e-15)
(-85.0859 -0.741574 -2.5297e-15)
(-84.4234 -0.837354 -2.71083e-15)
(-83.6722 -0.987372 -2.88449e-15)
(-82.8065 -1.19469 -3.04886e-15)
(-81.7965 -1.46099 -3.2037e-15)
(-80.6092 -1.78706 -3.3489e-15)
(-79.2097 -2.17265 -3.4841e-15)
(-77.5616 -2.61584 -3.60998e-15)
(-75.6282 -3.11205 -3.7279e-15)
(-73.3731 -3.65395 -3.83876e-15)
(-70.7623 -4.23134 -3.94413e-15)
(-67.7692 -4.83104 -4.04654e-15)
(-64.3792 -5.43558 -4.14684e-15)
(-60.5945 -6.02363 -4.24707e-15)
(-56.4386 -6.56784 -4.3506e-15)
(-51.9588 -7.03714 -4.45112e-15)
(-47.2271 -7.39846 -4.53629e-15)
(-42.3375 -7.62043 -4.63274e-15)
(-37.4005 -7.67808 -4.77369e-15)
(-32.5343 -7.55646 -4.94772e-15)
(-27.8532 -7.25421 -5.16954e-15)
(-23.4563 -6.78592 -5.41983e-15)
(-19.4177 -6.18234 -5.64693e-15)
(-15.7823 -5.48681 -5.91396e-15)
(-12.5673 -4.74962 -6.28779e-15)
(-9.76671 -4.02557 -6.67761e-15)
(-7.35613 -3.36616 -6.98278e-15)
(-5.29882 -2.81286 -7.17408e-15)
(-3.54618 -2.38292 -7.11578e-15)
(-2.04169 -2.05934 -6.71598e-15)
(-0.721267 -1.79486 -5.87665e-15)
(0.526052 -1.53135 -4.60987e-15)
(1.76722 -1.22889 -3.2494e-15)
(2.71533 -1.02671 -2.21755e-15)
(3.57725 -0.931966 -1.28697e-15)
(4.37079 -0.919075 -5.25419e-16)
(5.0912 -0.941276 -1.19742e-16)
(5.75547 -0.960169 8.24592e-18)
(6.38944 -0.965724 -5.3793e-18)
(7.01227 -0.962646 -5.49777e-17)
(7.63353 -0.957263 -1.06388e-16)
(8.25678 -0.954092 -1.82019e-16)
(8.88356 -0.951791 -2.75766e-16)
(9.51486 -0.947423 -3.78981e-16)
(10.1498 -0.93618 -4.72252e-16)
(10.7802 -0.911679 -5.54056e-16)
(-83.9574 -1.45776 -2.72749e-15)
(-83.1527 -1.41201 -2.86441e-15)
(-82.5741 -1.39082 -2.98832e-15)
(-81.9489 -1.41864 -3.09908e-15)
(-81.2779 -1.51108 -3.19618e-15)
(-80.5376 -1.68063 -3.28028e-15)
(-79.7063 -1.93597 -3.35298e-15)
(-78.7601 -2.28277 -3.41525e-15)
(-77.6729 -2.7243 -3.46876e-15)
(-76.4162 -3.26196 -3.51662e-15)
(-74.9596 -3.89547 -3.55942e-15)
(-73.2712 -4.62197 -3.59954e-15)
(-71.3181 -5.43476 -3.64176e-15)
(-69.0677 -6.32259 -3.68825e-15)
(-66.4897 -7.2688 -3.7418e-15)
(-63.5599 -8.25114 -3.8056e-15)
(-60.2647 -9.23899 -3.88125e-15)
(-56.6056 -10.1941 -3.97054e-15)
(-52.6028 -11.0695 -4.0758e-15)
(-48.3001 -11.8118 -4.19606e-15)
(-43.7662 -12.3657 -4.31114e-15)
(-39.0917 -12.6804 -4.413e-15)
(-34.3849 -12.7172 -4.53897e-15)
(-29.7626 -12.4572 -4.7189e-15)
(-25.3391 -11.9067 -4.97574e-15)
(-21.2148 -11.0981 -5.34408e-15)
(-17.4655 -10.088 -5.73564e-15)
(-14.1352 -8.94844 -6.17656e-15)
(-11.2418 -7.75476 -6.7896e-15)
(-8.77835 -6.58576 -7.57493e-15)
(-6.71749 -5.50979 -8.44343e-15)
(-5.01288 -4.58903 -9.29443e-15)
(-3.59668 -3.86679 -9.85446e-15)
(-2.3921 -3.33976 -9.77718e-15)
(-1.33362 -2.94248 -8.74948e-15)
(-0.348863 -2.59417 -7.00988e-15)
(0.586738 -2.26818 -5.45953e-15)
(1.5113 -1.96815 -4.20614e-15)
(2.28955 -1.76712 -3.39806e-15)
(3.01536 -1.65447 -2.73259e-15)
(3.69534 -1.60325 -2.22291e-15)
(4.33164 -1.58523 -2.00338e-15)
(4.93336 -1.58054 -2.02024e-15)
(5.51634 -1.58069 -2.14248e-15)
(6.09158 -1.58443 -2.22423e-15)
(6.66722 -1.59018 -2.34146e-15)
(7.24743 -1.5943 -2.5316e-15)
(7.83304 -1.5934 -2.77547e-15)
(8.42413 -1.58615 -3.03565e-15)
(9.01457 -1.56808 -3.28831e-15)
(-78.3638 -2.04048 -2.23391e-15)
(-77.4648 -1.98239 -2.32377e-15)
(-76.7902 -1.96803 -2.39758e-15)
(-76.0675 -2.02216 -2.4568e-15)
(-75.2971 -2.16109 -2.50096e-15)
(-74.4572 -2.39925 -2.53161e-15)
(-73.5287 -2.74757 -2.55307e-15)
(-72.4918 -3.21391 -2.56756e-15)
(-71.3253 -3.80358 -2.57833e-15)
(-70.0071 -4.51931 -2.58929e-15)
(-68.5132 -5.3616 -2.60319e-15)
(-66.8168 -6.32819 -2.62362e-15)
(-64.8895 -7.41242 -2.65524e-15)
(-62.7015 -8.60183 -2.70137e-15)
(-60.2246 -9.87657 -2.76528e-15)
(-57.4348 -11.2073 -2.85033e-15)
(-54.3166 -12.553 -2.95813e-15)
(-50.8682 -13.8589 -3.09053e-15)
(-47.1059 -15.0573 -3.25031e-15)
(-43.0687 -16.0709 -3.43629e-15)
(-38.8211 -16.819 -3.63142e-15)
(-34.451 -17.2278 -3.80526e-15)
(-30.0651 -17.2428 -3.95028e-15)
(-25.7801 -16.84 -4.10786e-15)
(-21.7101 -16.0329 -4.3023e-15)
(-17.9554 -14.8743 -4.6411e-15)
(-14.5911 -13.4512 -5.06022e-15)
(-11.6545 -11.8711 -5.5181e-15)
(-9.159 -10.2316 -6.15788e-15)
(-7.09262 -8.63682 -7.10409e-15)
(-5.42626 -7.16819 -8.36872e-15)
(-4.11782 -5.90241 -9.94747e-15)
(-3.09839 -4.91256 -1.15121e-14)
(-2.27179 -4.22734 -1.23466e-14)
(-1.56351 -3.76961 -1.15137e-14)
(-0.86286 -3.39369 -9.25636e-15)
(-0.201498 -3.03845 -7.34427e-15)
(0.464416 -2.71704 -5.90566e-15)
(1.14501 -2.44193 -4.97181e-15)
(1.76049 -2.25878 -4.59496e-15)
(2.35028 -2.15253 -4.51312e-15)
(2.91319 -2.10217 -4.61461e-15)
(3.45691 -2.08471 -4.96386e-15)
(3.98781 -2.08594 -5.4805e-15)
(4.50751 -2.0966 -5.79074e-15)
(5.02765 -2.11112 -6.04335e-15)
(5.55278 -2.1251 -6.40938e-15)
(6.08304 -2.13467 -6.90392e-15)
(6.61916 -2.13751 -7.42841e-15)
(7.15761 -2.13034 -7.90566e-15)
(-70.2919 -2.80304 -9.61234e-16)
(-69.2845 -2.74781 -1.03842e-15)
(-68.5023 -2.75685 -1.10362e-15)
(-67.6685 -2.85315 -1.15766e-15)
(-66.7868 -3.05104 -1.20082e-15)
(-65.8406 -3.36372 -1.2348e-15)
(-64.8168 -3.80197 -1.26291e-15)
(-63.7023 -4.37445 -1.28771e-15)
(-62.4834 -5.088 -1.31239e-15)
(-61.1446 -5.94757 -1.34084e-15)
(-59.6684 -6.9556 -1.3761e-15)
(-58.0331 -8.11193 -1.4219e-15)
(-56.2128 -9.41248 -1.48325e-15)
(-54.179 -10.8465 -1.56411e-15)
(-51.9026 -12.3944 -1.66831e-15)
(-49.3569 -14.0231 -1.79962e-15)
(-46.5224 -15.6831 -1.95969e-15)
(-43.3916 -17.3052 -2.1512e-15)
(-39.975 -18.8002 -2.37844e-15)
(-36.3064 -20.065 -2.63678e-15)
(-32.4469 -20.9909 -2.91817e-15)
(-28.484 -21.4783 -3.19125e-15)
(-24.5247 -21.4556 -3.41803e-15)
(-20.6846 -20.8934 -3.60171e-15)
(-17.0771 -19.812 -3.72417e-15)
(-13.802 -18.2846 -3.92971e-15)
(-10.9344 -16.4329 -4.26816e-15)
(-8.49575 -14.4056 -4.65151e-15)
(-6.48979 -12.3202 -5.13936e-15)
(-4.89566 -10.3071 -5.94176e-15)
(-3.67698 -8.45608 -7.19268e-15)
(-2.79347 -6.84923 -9.14348e-15)
(-2.19189 -5.58181 -1.17464e-14)
(-1.77541 -4.73653 -1.40965e-14)
(-1.49372 -4.25837 -1.40684e-14)
(-1.13439 -3.91352 -1.13839e-14)
(-0.768213 -3.57359 -9.1153e-15)
(-0.355532 -3.26112 -7.43555e-15)
(0.0811106 -3.00052 -6.40729e-15)
(0.554288 -2.79626 -6.05388e-15)
(1.03019 -2.66326 -6.41674e-15)
(1.48658 -2.59155 -7.31319e-15)
(1.94868 -2.55837 -8.50724e-15)
(2.41037 -2.55739 -9.92451e-15)
(2.86134 -2.57196 -1.0762e-14)
(3.318 -2.59281 -1.11734e-14)
(3.78147 -2.61571 -1.15732e-14)
(4.25111 -2.63652 -1.21333e-14)
(4.72635 -2.6499 -1.263e-14)
(5.20615 -2.6539 -1.28707e-14)
(-59.4341 -3.52448 -1.1115e-16)
(-58.3397 -3.46878 -1.66307e-16)
(-57.472 -3.49963 -2.14353e-16)
(-56.5512 -3.63852 -2.56077e-16)
(-55.5887 -3.89571 -2.91539e-16)
(-54.5768 -4.28049 -3.2198e-16)
(-53.5107 -4.80139 -3.50213e-16)
(-52.3859 -5.46612 -3.78208e-16)
(-51.1958 -6.28186 -4.08545e-16)
(-49.93 -7.25548 -4.44742e-16)
(-48.5742 -8.39258 -4.89496e-16)
(-47.1083 -9.69669 -5.46628e-16)
(-45.5058 -11.1684 -6.22148e-16)
(-43.7361 -12.8019 -7.21422e-16)
(-41.7667 -14.5807 -8.49842e-16)
(-39.5672 -16.4702 -1.01212e-15)
(-37.1139 -18.4131 -1.20906e-15)
(-34.3933 -20.3262 -1.44633e-15)
(-31.4125 -22.0975 -1.73173e-15)
(-28.2011 -23.5968 -2.04552e-15)
(-24.8193 -24.6852 -2.3918e-15)
(-21.3583 -25.2342 -2.74331e-15)
(-17.9273 -25.1564 -3.05548e-15)
(-14.638 -24.4197 -3.3416e-15)
(-11.6007 -23.052 -3.49493e-15)
(-8.91235 -21.1453 -3.58451e-15)
(-6.64896 -18.8656 -3.77265e-15)
(-4.81041 -16.4033 -4.05803e-15)
(-3.38878 -13.8926 -4.40439e-15)
(-2.35032 -11.491 -4.9907e-15)
(-1.64658 -9.29557 -5.95752e-15)
(-1.22655 -7.38211 -7.77502e-15)
(-1.05228 -5.84162 -1.09639e-14)
(-1.03133 -4.81449 -1.52108e-14)
(-1.22796 -4.34385 -1.69003e-14)
(-1.24366 -4.10321 -1.40125e-14)
(-1.20728 -3.83679 -1.15786e-14)
(-1.06295 -3.58202 -9.74476e-15)
(-0.852389 -3.36397 -8.5671e-15)
(-0.587374 -3.19547 -8.10654e-15)
(-0.283539 -3.07756 -8.38163e-15)
(0.0533133 -3.00341 -9.38586e-15)
(0.422696 -2.96998 -1.11199e-14)
(0.796974 -2.97233 -1.32113e-14)
(1.16544 -2.9896 -1.42952e-14)
(1.55013 -3.0143 -1.43585e-14)
(1.94582 -3.04292 -1.41257e-14)
(2.35387 -3.07188 -1.40636e-14)
(2.76283 -3.0921 -1.37837e-14)
(3.17851 -3.10477 -1.29465e-14)
(-45.9122 -4.35241 2.32071e-16)
(-44.79 -4.30455 1.874e-16)
(-43.9172 -4.36308 1.47176e-16)
(-42.9993 -4.54376 1.11961e-16)
(-42.0579 -4.84934 8.2824e-17)
(-41.0948 -5.28521 5.94973e-17)
(-40.113 -5.85882 3.95918e-17)
(-39.1123 -6.5786 2.15843e-17)
(-38.0881 -7.45357 3.40553e-18)
(-37.0297 -8.49359 -1.74872e-17)
(-35.9198 -9.70902 -4.44048e-17)
(-34.7344 -11.1094 -8.17197e-17)
(-33.4438 -12.702 -1.36324e-16)
(-32.0144 -14.4883 -2.1801e-16)
(-30.4109 -16.4552 -3.37661e-16)
(-28.6021 -18.5666 -5.02933e-16)
(-26.5668 -20.7563 -7.05348e-16)
(-24.2889 -22.9275 -9.59899e-16)
(-21.7789 -24.9433 -1.29474e-15)
(-19.0645 -26.6465 -1.65007e-15)
(-16.208 -27.8679 -2.04418e-15)
(-13.3127 -28.4438 -2.43624e-15)
(-10.4893 -28.2759 -2.77832e-15)
(-7.8388 -27.3367 -3.14845e-15)
(-5.4633 -25.6632 -3.42683e-15)
(-3.45554 -23.3589 -3.55071e-15)
(-1.89068 -20.656 -3.66477e-15)
(-0.737891 -17.7747 -3.87049e-15)
(0.0218592 -14.8709 -4.11731e-15)
(0.431398 -12.1229 -4.55548e-15)
(0.548227 -9.63927 -5.27025e-15)
(0.445451 -7.48756 -6.67e-15)
(0.162307 -5.72268 -9.59841e-15)
(-0.170289 -4.47999 -1.52472e-14)
(-0.879524 -3.99921 -1.9534e-14)
(-1.2787 -3.93963 -1.65015e-14)
(-1.58279 -3.80625 -1.38385e-14)
(-1.71748 -3.65856 -1.16309e-14)
(-1.7396 -3.52618 -9.87953e-15)
(-1.67063 -3.42506 -8.62641e-15)
(-1.53171 -3.35748 -7.836e-15)
(-1.33899 -3.32015 -7.59743e-15)
(-1.1067 -3.312 -7.90606e-15)
(-0.844656 -3.3247 -8.65866e-15)
(-0.558299 -3.34748 -8.9265e-15)
(-0.251101 -3.37718 -8.3833e-15)
(0.0698463 -3.41334 -7.48555e-15)
(0.413581 -3.45329 -6.85601e-15)
(0.747518 -3.48316 -6.39738e-15)
(1.09411 -3.50695 -5.53674e-15)
(-30.6104 -5.07254 5.45946e-16)
(-29.6414 -5.02024 5.4712e-16)
(-28.9165 -5.11591 5.39294e-16)
(-28.1487 -5.34311 5.23775e-16)
(-27.3804 -5.68654 5.03373e-16)
(-26.6239 -6.15034 4.80566e-16)
(-25.884 -6.74564 4.56252e-16)
(-25.1565 -7.48631 4.31838e-16)
(-24.4298 -8.38735 4.08382e-16)
(-23.6851 -9.46458 3.86478e-16)
(-22.8973 -10.7342 3.65599e-16)
(-22.0356 -12.2124 3.44215e-16)
(-21.0661 -13.9133 3.15923e-16)
(-19.9546 -15.8441 2.65814e-16)
(-18.6714 -17.99 1.6795e-16)
(-17.1935 -20.3074 -5.76761e-18)
(-15.5162 -22.7178 -2.01053e-16)
(-13.6238 -25.1137 -4.43759e-16)
(-11.5437 -27.3314 -8.27713e-16)
(-9.30562 -29.1904 -1.21797e-15)
(-6.96942 -30.4988 -1.65303e-15)
(-4.66491 -31.0483 -2.05829e-15)
(-2.49471 -30.7404 -2.35874e-15)
(-0.540411 -29.5583 -2.69022e-15)
(1.10775 -27.5471 -3.00765e-15)
(2.35856 -24.8118 -3.19474e-15)
(3.14465 -21.6957 -3.32107e-15)
(3.52869 -18.4222 -3.51114e-15)
(3.5476 -15.1824 -3.7642e-15)
(3.2592 -12.1631 -4.19036e-15)
(2.73342 -9.47836 -4.84469e-15)
(2.06087 -7.18475 -5.93612e-15)
(1.29737 -5.29855 -7.92374e-15)
(0.661595 -3.82568 -1.28634e-14)
(-0.573222 -3.23717 -1.96329e-14)
(-1.34046 -3.42804 -1.58558e-14)
(-1.96341 -3.48321 -1.23342e-14)
(-2.36541 -3.48909 -9.21247e-15)
(-2.61058 -3.47901 -6.39147e-15)
(-2.73137 -3.4751 -3.93097e-15)
(-2.75434 -3.48408 -1.79342e-15)
(-2.70128 -3.50617 -3.53574e-18)
(-2.59097 -3.53943 1.39336e-15)
(-2.43703 -3.58127 2.16e-15)
(-2.24913 -3.62842 2.59311e-15)
(-2.0356 -3.67787 3.09148e-15)
(-1.80305 -3.72816 3.55747e-15)
(-1.55634 -3.77486 3.98203e-15)
(-1.29751 -3.81392 4.5727e-15)
(-1.02156 -3.84611 6.37995e-15)
(-15.2059 -5.6364 1.14131e-17)
(-14.7368 -5.47077 2.389e-17)
(-14.3447 -5.5638 3.29557e-17)
(-13.8706 -5.78624 3.86471e-17)
(-13.3848 -6.11513 4.28895e-17)
(-12.9247 -6.55822 4.75276e-17)
(-12.4938 -7.13702 5.34278e-17)
(-12.0801 -7.87609 6.09683e-17)
(-11.6629 -8.79878 7.1412e-17)
(-11.2141 -9.92719 8.64054e-17)
(-10.702 -11.2808 1.07283e-16)
(-10.0892 -12.8781 1.37275e-16)
(-9.33816 -14.7341 1.76785e-16)
(-8.4136 -16.8613 2.14469e-16)
(-7.30283 -19.2305 2.07813e-16)
(-6.00394 -21.7742 5.20192e-17)
(-4.54285 -24.3972 -1.14198e-16)
(-2.9114 -26.9834 -2.97608e-16)
(-1.16244 -29.3451 -6.9426e-16)
(0.664496 -31.2849 -1.09773e-15)
(2.52171 -32.596 -1.55474e-15)
(4.23346 -33.0146 -1.95687e-15)
(5.72817 -32.4745 -2.21963e-15)
(6.94983 -30.9808 -2.47402e-15)
(7.8199 -28.6196 -2.73483e-15)
(8.28969 -25.5656 -2.94347e-15)
(8.34791 -22.0618 -3.12941e-15)
(7.99687 -18.383 -3.36848e-15)
(7.27509 -14.7844 -3.68858e-15)
(6.25677 -11.4754 -4.16866e-15)
(5.02944 -8.58921 -4.8576e-15)
(3.70042 -6.18298 -5.89731e-15)
(2.34005 -4.27171 -7.6175e-15)
(1.3275 -2.81598 -1.13637e-14)
(-0.414965 -2.13058 -2.04525e-14)
(-1.53099 -2.60913 -1.679e-14)
(-2.41529 -2.89545 -1.31337e-14)
(-3.05096 -3.09472 -1.00084e-14)
(-3.49267 -3.23925 -7.17447e-15)
(-3.78337 -3.35725 -4.56039e-15)
(-3.95376 -3.46043 -2.18333e-15)
(-4.03119 -3.55497 1.01512e-17)
(-4.03851 -3.64323 1.83825e-15)
(-3.99267 -3.72637 3.27011e-15)
(-3.90564 -3.80513 4.3414e-15)
(-3.78746 -3.87861 5.10581e-15)
(-3.64622 -3.94586 5.61947e-15)
(-3.48747 -4.00665 5.89722e-15)
(-3.31353 -4.06059 5.93402e-15)
(-3.12116 -4.10664 6.28688e-15)
(-1.29885 -6.05681 -6.85369e-17)
(-1.55386 -5.46432 -5.35894e-17)
(-1.55687 -5.58718 -3.97214e-17)
(-1.48195 -5.78218 -3.05708e-17)
(-1.33318 -6.09161 -2.50265e-17)
(-1.15681 -6.5322 -2.11229e-17)
(-0.964673 -7.12408 -1.54475e-17)
(-0.750725 -7.89467 -8.47882e-18)
(-0.503229 -8.87037 8.08442e-19)
(-0.201374 -10.0772 1.42094e-17)
(0.18295 -11.5386 3.29491e-17)
(0.691788 -13.2798 6.18837e-17)
(1.36994 -15.3179 1.10156e-16)
(2.27216 -17.6879 1.846e-16)
(3.40218 -20.3327 2.56072e-16)
(4.70596 -23.1245 1.18347e-16)
(6.12493 -25.9463 -5.64858e-17)
(7.62565 -28.6561 -2.29913e-16)
(9.13312 -31.0522 -6.12702e-16)
(10.591 -32.932 -1.0254e-15)
(11.9336 -34.0889 -1.45311e-15)
(13.098 -34.3447 -1.81084e-15)
(14.0119 -33.5788 -2.03514e-15)
(14.5979 -31.7738 -2.22336e-15)
(14.7764 -29.0251 -2.41122e-15)
(14.5019 -25.5344 -2.56948e-15)
(13.7749 -21.586 -2.70728e-15)
(12.6122 -17.491 -2.89278e-15)
(11.0727 -13.5437 -3.14379e-15)
(9.25062 -9.98006 -3.53477e-15)
(7.25731 -6.94764 -4.13036e-15)
(5.21538 -4.49525 -5.04105e-15)
(3.22195 -2.64428 -6.47331e-15)
(1.66943 -1.27213 -9.34483e-15)
(-0.529628 -0.755624 -1.88597e-14)
(-1.92532 -1.54848 -1.61507e-14)
(-2.99255 -2.09414 -1.2518e-14)
(-3.81072 -2.51311 -9.33693e-15)
(-4.40551 -2.83482 -6.32538e-15)
(-4.83284 -3.09218 -3.46631e-15)
(-5.12732 -3.303 -7.76351e-16)
(-5.31912 -3.47994 1.68518e-15)
(-5.4332 -3.63097 3.85403e-15)
(-5.48902 -3.76134 5.63779e-15)
(-5.50012 -3.87537 6.95177e-15)
(-5.4772 -3.97569 7.81413e-15)
(-5.42968 -4.06394 8.26853e-15)
(-5.36391 -4.14196 8.33531e-15)
(-5.28212 -4.21106 7.97589e-15)
(-5.18316 -4.27131 7.24094e-15)
(9.19579 -6.97605 -7.82421e-17)
(9.73369 -6.02721 -6.80689e-17)
(9.7564 -5.83716 -5.37699e-17)
(9.78137 -5.86896 -4.29201e-17)
(9.79287 -6.06803 -3.53423e-17)
(9.82645 -6.45945 -3.03919e-17)
(9.8985 -7.05297 -2.56446e-17)
(10.0139 -7.85809 -2.04302e-17)
(10.1815 -8.89083 -1.43168e-17)
(10.4163 -10.1756 -5.4603e-18)
(10.7452 -11.7427 8.07353e-18)
(11.2117 -13.6271 2.9736e-17)
(11.8663 -15.8547 6.90297e-17)
(12.7478 -18.4221 1.35228e-16)
(13.8647 -21.2752 2.07421e-16)
(15.1788 -24.2968 1.15883e-16)
(16.6088 -27.3157 -6.87037e-17)
(18.0482 -30.1301 -2.73166e-16)
(19.3905 -32.5277 -6.37278e-16)
(20.5524 -34.3034 -1.03544e-15)
(21.4736 -35.2635 -1.42348e-15)
(22.1033 -35.2379 -1.72435e-15)
(22.3859 -34.1121 -1.91059e-15)
(22.263 -31.8797 -2.05148e-15)
(21.6654 -28.653 -2.19832e-15)
(20.5641 -24.6616 -2.33563e-15)
(18.9829 -20.2291 -2.47636e-15)
(16.9537 -15.7044 -2.66248e-15)
(14.5543 -11.4217 -2.93036e-15)
(11.8993 -7.64304 -3.37564e-15)
(9.11838 -4.52734 -4.03184e-15)
(6.34233 -2.11651 -5.02976e-15)
(3.70161 -0.473388 -6.63165e-15)
(1.43996 1.14471 -1.00473e-14)
(-1.57043 1.33245 -2.05861e-14)
(-2.52849 -0.333666 -1.62709e-14)
(-3.73015 -1.1507 -1.23753e-14)
(-4.66413 -1.79988 -9.23239e-15)
(-5.35753 -2.30762 -6.35036e-15)
(-5.87857 -2.7112 -3.62376e-15)
(-6.26464 -3.03556 -1.01352e-15)
(-6.54767 -3.29922 1.4587e-15)
(-6.75235 -3.51575 3.7603e-15)
(-6.89851 -3.69537 5.80648e-15)
(-7.00061 -3.84608 7.44855e-15)
(-7.06956 -3.97377 8.61188e-15)
(-7.11476 -4.08316 9.22689e-15)
(-7.14275 -4.17849 9.25422e-15)
(-7.15581 -4.26275 8.7617e-15)
(-7.15413 -4.33734 7.96674e-15)
(22.792 -6.21495 -8.28241e-17)
(22.7095 -5.74449 -7.8406e-17)
(22.4608 -5.66716 -6.94103e-17)
(22.2651 -5.75089 -6.13274e-17)
(22.0199 -5.97747 -5.41643e-17)
(21.7597 -6.39531 -4.77974e-17)
(21.5375 -7.0365 -4.13113e-17)
(21.3849 -7.91248 -3.45333e-17)
(21.3225 -9.0329 -2.74574e-17)
(21.371 -10.4194 -1.92342e-17)
(21.5587 -12.1107 -8.89729e-18)
(21.9268 -14.1532 6.88214e-18)
(22.5255 -16.5804 3.64028e-17)
(23.3956 -19.3832 9.00553e-17)
(24.5399 -22.48 1.5213e-16)
(25.8942 -25.7078 6.20439e-17)
(27.3249 -28.8425 -1.51076e-16)
(28.667 -31.6453 -3.91787e-16)
(29.7679 -33.8941 -7.58431e-16)
(30.5222 -35.4005 -1.12432e-15)
(30.8788 -36.0012 -1.45503e-15)
(30.8105 -35.5473 -1.69983e-15)
(30.2977 -33.939 -1.84551e-15)
(29.3192 -31.1879 -1.94348e-15)
(27.8161 -27.4133 -2.04741e-15)
(25.7916 -22.8729 -2.14874e-15)
(23.304 -17.9312 -2.26584e-15)
(20.4005 -12.9754 -2.43432e-15)
(17.1648 -8.38102 -2.70565e-15)
(13.7234 -4.44014 -3.15999e-15)
(10.185 -1.35344 -3.7958e-15)
(6.6342 1.16137 -4.74051e-15)
(2.92579 3.34771 -6.44959e-15)
(-0.592862 4.13656 -1.18718e-14)
(-2.91121 2.67295 -2.05005e-14)
(-3.57386 1.11358 -1.53632e-14)
(-4.64491 -0.159824 -1.20409e-14)
(-5.61149 -1.02465 -9.44299e-15)
(-6.33693 -1.71028 -6.84564e-15)
(-6.90241 -2.2537 -4.25328e-15)
(-7.34376 -2.68688 -1.68287e-15)
(-7.69061 -3.03372 8.19037e-16)
(-7.96634 -3.31312 3.19258e-15)
(-8.1893 -3.53992 5.41504e-15)
(-8.3725 -3.72544 7.38357e-15)
(-8.52636 -3.87879 8.99678e-15)
(-8.66017 -4.0077 1.01265e-14)
(-8.7799 -4.11881 1.06592e-14)
(-8.887 -4.21669 1.05338e-14)
(-8.98229 -4.30415 9.76109e-15)
(37.4276 -5.28804 -9.50647e-17)
(37.044 -5.04018 -9.26158e-17)
(36.5236 -5.04911 -8.66348e-17)
(36.0379 -5.20204 -8.04146e-17)
(35.4638 -5.49541 -7.37964e-17)
(34.8262 -5.99396 -6.73288e-17)
(34.2088 -6.74715 -6.00096e-17)
(33.6809 -7.76561 -5.17968e-17)
(33.286 -9.04772 -4.31542e-17)
(33.0534 -10.608 -3.30759e-17)
(33.0135 -12.4886 -2.12264e-17)
(33.209 -14.7477 -4.78583e-18)
(33.6945 -17.4267 2.35363e-17)
(34.5116 -20.5041 6.91783e-17)
(35.6422 -23.8543 1.05668e-16)
(36.9703 -27.2469 -5.82132e-18)
(38.2892 -30.3958 -2.54923e-16)
(39.3638 -33.0323 -5.41844e-16)
(39.994 -34.9496 -9.13491e-16)
(40.0642 -36.0041 -1.23049e-15)
(39.5531 -36.0851 -1.49114e-15)
(38.477 -35.069 -1.68332e-15)
(36.8827 -32.8789 -1.7995e-15)
(34.8173 -29.5571 -1.85687e-15)
(32.2176 -25.1979 -1.90556e-15)
(29.1622 -20.1051 -1.92864e-15)
(25.7476 -14.6704 -1.97724e-15)
(22.0449 -9.31032 -2.13314e-15)
(18.1056 -4.45218 -2.47498e-15)
(14.0192 -0.426073 -3.13321e-15)
(9.51794 3.25998 -4.08958e-15)
(4.83739 5.83462 -5.46372e-15)
(0.398684 7.17103 -7.64443e-15)
(-3.29895 6.21387 -1.59452e-14)
(-4.11651 3.98062 -2.16317e-14)
(-4.73931 2.23099 -1.74089e-14)
(-5.81375 0.850468 -1.45086e-14)
(-6.61754 -0.261627 -1.21641e-14)
(-7.31109 -1.09853 -1.013e-14)
(-7.8702 -1.76247 -8.01246e-15)
(-8.32939 -2.28889 -5.75267e-15)
(-8.71295 -2.70716 -3.39707e-15)
(-9.03991 -3.04093 -1.00413e-15)
(-9.32471 -3.30817 1.39579e-15)
(-9.57799 -3.52318 3.72466e-15)
(-9.8089 -3.69826 5.89425e-15)
(-10.0256 -3.84345 7.79871e-15)
(-10.2325 -3.96703 9.30829e-15)
(-10.4303 -4.07526 1.03063e-14)
(-10.6199 -4.17283 1.06335e-14)
(52.7545 -4.55311 -1.17295e-16)
(52.0935 -4.39331 -1.16191e-16)
(51.2989 -4.38475 -1.12167e-16)
(50.5003 -4.49362 -1.07233e-16)
(49.5592 -4.76714 -1.01033e-16)
(48.5041 -5.30656 -9.42159e-17)
(47.4614 -6.17239 -8.55936e-17)
(46.546 -7.36256 -7.50365e-17)
(45.824 -8.85436 -6.32417e-17)
(45.3217 -10.6472 -4.90258e-17)
(45.0567 -12.7768 -3.19118e-17)
(45.0675 -15.3063 -9.82959e-18)
(45.415 -18.2821 2.30334e-17)
(46.1376 -21.659 6.59252e-17)
(47.1743 -25.2415 7.69487e-17)
(48.3215 -28.7061 -7.88298e-17)
(49.2742 -31.702 -3.66776e-16)
(49.7304 -33.9585 -7.02531e-16)
(49.4614 -35.3214 -1.05444e-15)
(48.3685 -35.7285 -1.30085e-15)
(46.4936 -35.1396 -1.48002e-15)
(43.9129 -33.4468 -1.61742e-15)
(40.805 -30.6244 -1.68744e-15)
(37.3307 -26.7707 -1.69018e-15)
(33.3271 -21.8485 -1.68701e-15)
(29.1431 -16.3153 -1.53746e-15)
(24.8304 -10.5151 -1.38166e-15)
(20.5497 -4.81938 -1.36754e-15)
(16.1251 0.304208 -1.53336e-15)
(10.7326 5.19544 -1.86535e-15)
(5.26698 8.61896 -2.75383e-15)
(0.248152 10.4556 -4.44732e-15)
(-4.05295 10.21 -9.2041e-15)
(-5.5867 7.85239 -1.70436e-14)
(-5.58143 5.22065 -1.99018e-14)
(-6.10621 3.18633 -1.67728e-14)
(-6.9809 1.63304 -1.49865e-14)
(-7.65022 0.425453 -1.40028e-14)
(-8.22214 -0.530453 -1.31968e-14)
(-8.7289 -1.27968 -1.20257e-14)
(-9.17155 -1.87299 -1.04618e-14)
(-9.56751 -2.34327 -8.5747e-15)
(-9.92801 -2.71657 -6.3941e-15)
(-10.2616 -3.01317 -4.0045e-15)
(-10.5756 -3.24962 -1.4889e-15)
(-10.8766 -3.44004 1.09898e-15)
(-11.1702 -3.59602 3.67933e-15)
(-11.4597 -3.72734 6.11472e-15)
(-11.7443 -3.84199 8.2628e-15)
(-12.025 -3.94645 9.93273e-15)
(68.0501 -3.25171 -1.56519e-16)
(67.3635 -3.14397 -1.55634e-16)
(66.4627 -3.01031 -1.5176e-16)
(65.4199 -2.88524 -1.46277e-16)
(64.1076 -2.91708 -1.38635e-16)
(62.615 -3.28944 -1.28906e-16)
(61.1615 -4.11457 -1.1585e-16)
(59.9188 -5.4078 -9.91925e-17)
(58.9473 -7.12909 -7.95388e-17)
(58.2365 -9.24157 -5.62442e-17)
(57.7764 -11.7519 -2.97519e-17)
(57.6042 -14.7133 1.33686e-18)
(57.7811 -18.1485 3.70527e-17)
(58.3002 -21.9365 6.60515e-17)
(59.0034 -25.7591 2.46573e-17)
(59.5644 -29.1796 -2.07001e-16)
(59.5955 -31.8227 -5.64068e-16)
(58.7829 -33.4816 -9.3583e-16)
(56.9142 -34.1045 -1.22792e-15)
(53.9388 -33.7404 -1.39542e-15)
(49.9886 -32.4175 -1.52515e-15)
(45.1708 -29.9973 -1.63041e-15)
(39.976 -26.6081 -1.66543e-15)
(34.7187 -22.4517 -1.67599e-15)
(28.6767 -17.0032 -1.80784e-15)
(23.4152 -11.4023 -1.45007e-15)
(18.2709 -5.60688 -9.61693e-16)
(13.8967 0.0041679 -7.40647e-16)
(7.39817 6.38113 -5.80183e-16)
(1.26901 11.3362 -8.36899e-16)
(-3.83386 13.969 -2.26132e-15)
(-6.64774 13.7377 -5.47924e-15)
(-7.97211 11.917 -1.07321e-14)
(-7.85078 8.99005 -1.74525e-14)
(-7.39296 6.09942 -1.99526e-14)
(-7.62079 3.8621 -1.95309e-14)
(-8.11551 2.19671 -1.95787e-14)
(-8.56781 0.941549 -1.9331e-14)
(-8.9852 -0.0559609 -1.84781e-14)
(-9.40103 -0.840564 -1.72913e-14)
(-9.80202 -1.46422 -1.58615e-14)
(-10.1924 -1.9598 -1.4106e-14)
(-10.5738 -2.35292 -1.19777e-14)
(-10.9477 -2.66439 -9.48901e-15)
(-11.3164 -2.91123 -6.71355e-15)
(-11.6828 -3.10811 -3.73284e-15)
(-12.05 -3.26783 -5.99969e-16)
(-12.4193 -3.40128 2.55739e-15)
(-12.789 -3.5177 5.62342e-15)
(-13.1588 -3.62484 8.46553e-15)
(85.7175 -3.00063 -2.21075e-16)
(84.9512 -2.941 -2.21692e-16)
(83.9998 -2.75555 -2.19125e-16)
(82.7883 -2.6209 -2.136e-16)
(81.1735 -2.7561 -2.04454e-16)
(79.2662 -3.27612 -1.91983e-16)
(77.3076 -4.16513 -1.73774e-16)
(75.4787 -5.35249 -1.47661e-16)
(73.8757 -6.81678 -1.13411e-16)
(72.5647 -8.63608 -7.17833e-17)
(71.614 -10.9639 -3.08233e-17)
(71.0668 -13.9482 8.08734e-19)
(70.8485 -17.5468 9.85299e-18)
(70.7273 -21.4387 -2.71593e-17)
(70.3751 -25.0991 -2.06982e-16)
(69.3601 -27.9851 -5.64902e-16)
(67.3598 -29.8106 -1.02457e-15)
(64.203 -30.539 -1.33775e-15)
(59.7533 -30.2458 -1.49759e-15)
(54.002 -29.072 -1.55364e-15)
(47.1054 -27.0313 -1.639e-15)
(38.9716 -23.8299 -1.68855e-15)
(31.1733 -20.1294 -1.66663e-15)
(23.99 -16.1662 -1.85301e-15)
(13.9999 -9.60835 -2.74745e-15)
(8.63899 -4.95675 -1.80961e-15)
(2.03837 0.672314 -3.66362e-16)
(-14.4099 13.9614 6.23119e-16)
(-10.5248 14.6786 -6.13485e-16)
(-10.9521 15.554 -1.70425e-15)
(-12.0639 15.8267 -3.52508e-15)
(-12.1046 14.5897 -6.80417e-15)
(-11.3829 12.253 -1.17497e-14)
(-10.2117 9.20623 -1.72334e-14)
(-9.3225 6.31254 -1.91429e-14)
(-9.04351 4.1009 -1.92614e-14)
(-9.05718 2.4687 -1.92686e-14)
(-9.21848 1.24394 -1.86334e-14)
(-9.48241 0.291117 -1.77392e-14)
(-9.78242 -0.472383 -1.68195e-14)
(-10.1293 -1.083 -1.57199e-14)
(-10.5055 -1.57238 -1.42691e-14)
(-10.9023 -1.96245 -1.24514e-14)
(-11.3132 -2.27183 -1.02947e-14)
(-11.7349 -2.5166 -7.86249e-15)
(-12.1664 -2.7113 -5.22101e-15)
(-12.608 -2.86914 -2.35624e-15)
(-13.0585 -3.00138 7.53595e-16)
(-13.5145 -3.1179 4.05842e-15)
(-13.9744 -3.22784 7.49634e-15)
(98.3193 -1.21899 -3.58147e-16)
(98.0247 -0.926603 -3.58093e-16)
(96.9434 -0.0278375 -3.51577e-16)
(95.4364 0.828405 -3.43236e-16)
(93.4616 0.947891 -3.3017e-16)
(91.1979 -0.00117825 -3.06104e-16)
(88.9131 -1.8969 -2.63334e-16)
(87.0442 -4.40809 -2.02017e-16)
(86.1665 -7.19707 -1.40999e-16)
(85.998 -10.1231 -1.01543e-16)
(86.0216 -13.1515 -1.16136e-16)
(85.6765 -16.2753 -2.12928e-16)
(84.4973 -19.3728 -3.93194e-16)
(82.2441 -22.2 -6.45663e-16)
(78.8534 -24.3746 -1.22538e-15)
(74.016 -25.4677 -1.59423e-15)
(68.0344 -25.5497 -1.58928e-15)
(61.0782 -24.8483 -1.54732e-15)
(53.0437 -23.4675 -1.52886e-15)
(43.8364 -21.4858 -1.50723e-15)
(33.1528 -18.5296 -1.94072e-15)
(19.4638 -14.0408 -2.17863e-15)
(9.78291 -10.668 -2.27584e-15)
(2.22616 -7.80563 -3.35698e-15)
(-18.5823 4.96803 -7.39037e-15)
(-23.3989 9.36888 -5.32781e-15)
(-21.9663 10.6635 -2.86732e-15)
(-22.5248 13.1217 -1.47416e-15)
(-20.8977 13.8862 -1.34554e-15)
(-19.7118 14.3762 -1.87645e-15)
(-18.2417 14.287 -3.37994e-15)
(-16.2604 13.0808 -6.27711e-15)
(-14.1442 10.8935 -1.02331e-14)
(-12.2452 8.18532 -1.41778e-14)
(-10.8819 5.70183 -1.51889e-14)
(-10.0493 3.82983 -1.49747e-14)
(-9.59775 2.42965 -1.55782e-14)
(-9.45645 1.35553 -1.58286e-14)
(-9.54363 0.512366 -1.61703e-14)
(-9.74589 -0.173427 -1.66991e-14)
(-10.0385 -0.72893 -1.6777e-14)
(-10.4008 -1.17645 -1.63295e-14)
(-10.8129 -1.53326 -1.54706e-14)
(-11.2619 -1.81539 -1.42518e-14)
(-11.7396 -2.03748 -1.2679e-14)
(-12.2415 -2.21293 -1.08361e-14)
(-12.7641 -2.3538 -8.67874e-15)
(-13.3035 -2.47054 -6.12985e-15)
(-13.8549 -2.57303 -3.15201e-15)
(-14.4154 -2.67133 3.03718e-16)
(138.966 -2.33126 -5.91896e-16)
(137.829 -1.94078 -6.25176e-16)
(137.651 -0.512207 -6.32751e-16)
(136.01 1.49565 -6.65598e-16)
(133.102 3.03156 -7.20213e-16)
(129.808 3.32026 -7.89287e-16)
(126.934 2.25981 -8.84725e-16)
(124.634 0.146342 -1.01746e-15)
(122.184 -2.6054 -1.17729e-15)
(118.353 -5.61765 -1.37651e-15)
(112.952 -8.65137 -1.62045e-15)
(105.74 -11.5153 -1.89786e-15)
(96.765 -14.017 -2.07982e-15)
(86.5357 -15.9682 -1.84807e-15)
(75.3284 -16.8863 -2.07447e-15)
(61.9937 -16.4219 -9.03478e-16)
(49.9295 -15.5552 -2.6166e-16)
(38.7455 -14.4268 8.50751e-18)
(27.5021 -12.8407 -9.56763e-17)
(15.9932 -10.4868 -6.39814e-16)
(0.778682 -5.21096 -3.08833e-15)
(-28.1563 4.20706 -3.06595e-15)
(-31.3608 4.32258 -1.42153e-15)
(-32.5454 4.4291 -1.00964e-15)
(-32.8097 5.00742 -1.82426e-15)
(-32.0398 5.78357 -2.98874e-15)
(-31.1722 6.5104 -3.86242e-15)
(-29.8371 7.94966 -4.66122e-15)
(-27.6152 9.42802 -4.4546e-15)
(-25.0023 10.4515 -5.11132e-15)
(-21.9807 10.6734 -6.76783e-15)
(-18.7688 9.86136 -9.67023e-15)
(-15.7791 8.18254 -1.38502e-14)
(-13.3385 6.15081 -1.88504e-14)
(-11.5435 4.3785 -2.29393e-14)
(-10.2809 3.06584 -2.68103e-14)
(-9.47344 2.04414 -3.07132e-14)
(-9.0755 1.21278 -3.29943e-14)
(-9.00014 0.533589 -3.30393e-14)
(-9.12724 -0.0253172 -3.13142e-14)
(-9.36901 -0.481257 -2.92735e-14)
(-9.71472 -0.848307 -2.80809e-14)
(-10.1377 -1.14321 -2.7053e-14)
(-10.622 -1.38058 -2.58737e-14)
(-11.1553 -1.57273 -2.42417e-14)
(-11.729 -1.73017 -2.20074e-14)
(-12.3358 -1.86213 -1.90579e-14)
(-12.9691 -1.97687 -1.53638e-14)
(-13.6229 -2.08327 -1.10976e-14)
(-14.2925 -2.19247 -6.26382e-15)
(21.4484 0.929276 -3.62825e-15)
(17.863 -0.195821 -4.20287e-15)
(16.3674 0.648475 -4.6113e-15)
(23.4813 3.49349 -4.04103e-15)
(31.6745 6.44555 -3.1261e-15)
(34.5654 7.28119 -2.73674e-15)
(34.796 5.82355 -2.45348e-15)
(33.2398 2.88922 -2.25818e-15)
(30.7862 -0.555671 -2.08324e-15)
(29.7868 -3.65157 -1.8844e-15)
(27.1151 -5.69117 -1.95681e-15)
(22.9604 -6.72401 -2.18018e-15)