/*--------------------------------*- C++ -*----------------------------------*\
  =========                 |
  \\      /  F ield         | OpenFOAM: The Open Source CFD Toolbox
   \\    /   O peration     | Website:  https://openfoam.org
    \\  /    A nd           | Version:  8
     \\/     M anipulation  |
\*---------------------------------------------------------------------------*/
FoamFile
{
    version     2.0;
    format      ascii;
    class       volScalarField;
    location    "300";
    object      nut;
}
// * * * * * * * * * * * * * * * * * * * * * * * * * * * * * * * * * * * * * //

dimensions      [0 2 -1 0 0 0 0];

internalField   nonuniform List<scalar> 
1200
(
0.000805008
0.00073862
0.00068348
0.000637022
0.000597716
0.000564282
0.000535611
0.000510664
0.000489785
0.000473321
0.000463862
0.000449322
0.000424034
0.000393715
0.00036421
0.000338131
0.00031637
0.000299094
0.000285307
0.000274004
0.000264656
0.000256869
0.000250163
0.000244178
0.000239598
0.000237038
0.000235663
0.000234294
0.000232425
0.000229478
0.000225022
0.000218524
0.000209926
0.000199983
0.000190357
0.000181716
0.000174736
0.000169937
0.000167008
0.000165353
0.000164436
0.000163926
0.00016339
0.000162413
0.000160805
0.000158724
0.000156598
0.000154794
0.0001528
0.000148346
0.000139853
0.0001279
0.000114974
0.000103931
9.59125e-05
9.05009e-05
8.72637e-05
8.558e-05
8.48194e-05
8.50718e-05
0.000468117
0.000401889
0.00035109
0.000311144
0.000279175
0.000252909
0.000230997
0.00021269
0.000197443
0.000189885
0.000194351
0.000197531
0.000193311
0.00018356
0.000171343
0.000159101
0.000148542
0.00013953
0.000131772
0.000124976
0.000118966
0.000113599
0.000108727
0.000104201
9.99719e-05
9.61827e-05
9.29553e-05
9.02663e-05
8.81821e-05
8.73359e-05
8.74378e-05
8.7743e-05
8.74067e-05
8.58474e-05
8.30678e-05
7.97484e-05
7.66238e-05
7.3754e-05
7.11388e-05
6.87477e-05
6.65351e-05
6.44443e-05
6.24506e-05
6.05573e-05
5.87793e-05
5.71314e-05
5.56143e-05
5.42243e-05
5.31391e-05
5.35583e-05
5.50204e-05
5.53915e-05
5.37561e-05
5.06637e-05
4.70687e-05
4.3929e-05
4.14014e-05
3.93846e-05
3.77262e-05
3.62897e-05
0.000468012
0.000401285
0.000350096
0.000309764
0.000277351
0.000250884
0.000228991
0.000210623
0.000195146
0.000182281
0.000173697
0.000168483
0.000163196
0.000156601
0.000149186
0.000141942
0.000135235
0.000129072
0.000123402
0.00011814
0.000113268
0.000108785
0.000104691
0.000100877
9.74055e-05
9.41125e-05
9.09554e-05
8.8012e-05
8.52615e-05
8.26827e-05
8.0302e-05
7.81094e-05
7.60664e-05
7.4057e-05
7.19645e-05
6.98762e-05
6.79475e-05
6.61747e-05
6.45299e-05
6.29877e-05
6.15333e-05
6.01686e-05
5.8894e-05
5.76953e-05
5.65563e-05
5.5466e-05
5.44224e-05
5.34108e-05
5.24229e-05
5.15362e-05
5.09522e-05
5.0496e-05
4.96916e-05
4.84411e-05
4.69789e-05
4.54409e-05
4.38566e-05
4.22683e-05
4.06579e-05
3.91031e-05
0.000468012
0.000401484
0.000350414
0.000310161
0.000277739
0.000251202
0.00022919
0.000210754
0.000195282
0.000182093
0.000171027
0.000162111
0.000154578
0.000147657
0.000141064
0.000134842
0.000129028
0.000123655
0.000118668
0.000113965
0.000109526
0.000105345
0.000101408
9.77241e-05
9.43035e-05
9.11199e-05
8.81631e-05
8.54732e-05
8.30472e-05
8.08152e-05
7.87034e-05
7.67068e-05
7.48042e-05
7.29735e-05
7.1204e-05
6.94983e-05
6.78794e-05
6.6365e-05
6.49269e-05
6.35378e-05
6.21808e-05
6.0846e-05
5.95361e-05
5.82582e-05
5.70179e-05
5.58201e-05
5.46671e-05
5.35339e-05
5.23816e-05
5.12003e-05
5.00878e-05
4.91127e-05
4.8164e-05
4.71181e-05
4.59494e-05
4.46684e-05
4.32484e-05
4.1714e-05
4.0002e-05
3.82795e-05
0.000468015
0.000401502
0.000350394
0.000310103
0.000277651
0.000251078
0.000229038
0.000210626
0.000195301
0.000182327
0.000171132
0.000161509
0.000153187
0.000145838
0.000139232
0.000133229
0.000127714
0.000122543
0.000117625
0.000113002
0.000108669
0.000104595
0.000100812
9.73681e-05
9.42288e-05
9.13595e-05
8.8771e-05
8.64826e-05
8.44e-05
8.24701e-05
8.06427e-05
7.88104e-05
7.69588e-05
7.51342e-05
7.33659e-05
7.16571e-05
6.9991e-05
6.83344e-05
6.66819e-05
6.50338e-05
6.33997e-05
6.18043e-05
6.02712e-05
5.88114e-05
5.74377e-05
5.61472e-05
5.49162e-05
5.36757e-05
5.24102e-05
5.10791e-05
4.96818e-05
4.82787e-05
4.69009e-05
4.55024e-05
4.39943e-05
4.23473e-05
4.05679e-05
3.86608e-05
3.65182e-05
3.44502e-05
0.000468012
0.00040151
0.000350406
0.000310094
0.00027763
0.000251049
0.000229013
0.000210701
0.000195676
0.000183036
0.000172089
0.000162568
0.00015424
0.000146879
0.000140272
0.000134235
0.000128638
0.000123388
0.000118414
0.000113675
0.000109178
0.000104922
0.000100901
9.711e-05
9.35725e-05
9.03062e-05
8.7334e-05
8.47205e-05
8.24129e-05
8.04286e-05
7.87853e-05
7.73819e-05
7.59827e-05
7.4559e-05
7.31136e-05
7.16546e-05
7.02017e-05
6.87714e-05
6.73448e-05
6.59043e-05
6.44407e-05
6.29599e-05
6.14893e-05
6.00275e-05
5.85217e-05
5.69161e-05
5.53056e-05
5.38178e-05
5.23761e-05
5.07557e-05
4.89586e-05
4.70414e-05
4.50777e-05
4.31044e-05
4.10809e-05
3.90304e-05
3.69883e-05
3.50469e-05
3.3102e-05
3.13928e-05
0.000468006
0.00040152
0.000350462
0.000310205
0.000277765
0.000251153
0.000229037
0.00021118
0.000197138
0.000185124
0.00017436
0.000164764
0.000156322
0.000148833
0.000142079
0.000135857
0.000130012
0.000124428
0.000119019
0.000113742
0.000108541
0.000103402
9.83646e-05
9.3571e-05
8.91678e-05
8.52295e-05
8.17889e-05
7.88769e-05
7.64078e-05
7.42593e-05
7.24104e-05
7.09028e-05
6.97302e-05
6.86948e-05
6.76579e-05
6.65492e-05
6.53651e-05
6.41412e-05
6.28798e-05
6.15811e-05
6.02374e-05
5.88487e-05
5.74547e-05
5.61212e-05
5.46217e-05
5.29357e-05
5.13711e-05
4.9882e-05
4.83944e-05
4.6933e-05
4.53841e-05
4.36818e-05
4.18469e-05
3.99722e-05
3.80917e-05
3.62491e-05
3.44365e-05
3.26948e-05
3.09467e-05
2.94145e-05
0.000468009
0.000401336
0.000350124
0.000309763
0.000277251
0.000250631
0.000228883
0.000215035
0.000204999
0.000193955
0.000181739
0.000171147
0.000161762
0.000153016
0.000144499
0.000136152
0.000128024
0.00012013
0.000112776
0.000106374
0.000100943
9.62251e-05
9.19392e-05
8.79037e-05
8.42054e-05
8.10447e-05
7.85492e-05
7.67317e-05
7.55031e-05
7.37789e-05
7.13851e-05
6.88555e-05
6.65152e-05
6.43398e-05
6.22891e-05
6.03419e-05
5.848e-05
5.66528e-05
5.48915e-05
5.32599e-05
5.1829e-05
5.05249e-05
4.94105e-05
4.8466e-05
4.78799e-05
4.84352e-05
4.86665e-05
4.7708e-05
4.6273e-05
4.46745e-05
4.29604e-05
4.11331e-05
3.92146e-05
3.72967e-05
3.54246e-05
3.3642e-05
3.19293e-05
3.03283e-05
2.87919e-05
2.75196e-05
0.000468119
0.000402016
0.000351276
0.000311416
0.000279352
0.000253805
0.00023614
0.000239097
0.000236994
0.000226557
0.000212248
0.000197087
0.00018361
0.000172218
0.000162373
0.000153476
0.000145457
0.000138292
0.000131148
0.000124103
0.000117497
0.000111533
0.000106174
0.000101291
9.67998e-05
9.34113e-05
9.24545e-05
9.25117e-05
9.13687e-05
8.68085e-05
8.05535e-05
7.42335e-05
6.85951e-05
6.39959e-05
6.03725e-05
5.749e-05
5.51261e-05
5.31441e-05
5.14454e-05
4.99699e-05
4.86809e-05
4.75605e-05
4.66436e-05
4.64398e-05
5.11233e-05
5.55628e-05
5.43945e-05
5.07378e-05
4.7004e-05
4.37241e-05
4.08886e-05
3.83483e-05
3.60156e-05
3.39542e-05
3.21909e-05
3.07323e-05
2.94933e-05
2.8435e-05
2.74789e-05
2.66907e-05
0.00080516
0.000738835
0.000683531
0.0006369
0.000597054
0.000562538
0.000531967
0.00052567
0.000515504
0.000490541
0.000459438
0.00042808
0.000398436
0.000370746
0.000344857
0.000321001
0.000300254
0.000283952
0.00027172
0.000262191
0.0002544
0.00024767
0.000241624
0.000236271
0.00023205
0.0002293
0.000224959
0.000214555
0.000191827
0.000163911
0.000144126
0.000133738
0.000129077
0.000127247
0.000126734
0.000126813
0.000127141
0.000127558
0.000128075
0.000128941
0.000129869
0.00013145
0.000134591
0.000139306
0.000139266
0.00012685
0.000105273
8.73408e-05
7.79818e-05
7.35464e-05
7.11955e-05
6.98518e-05
6.89737e-05
6.80229e-05
6.68731e-05
6.56762e-05
6.47053e-05
6.42216e-05
6.45409e-05
6.6386e-05
0.00080515
0.000739096
0.000683888
0.000637162
0.000597569
0.000564046
0.000535312
0.000510355
0.000489482
0.000472747
0.000463178
0.000449808
0.000425654
0.000395829
0.000366333
0.000340108
0.000318007
0.000300404
0.000286355
0.000274863
0.000265385
0.000257501
0.000250702
0.000244604
0.000239845
0.00023708
0.000235602
0.000234278
0.00023262
0.000229992
0.000225861
0.000219699
0.000211382
0.000201565
0.000191881
0.000183119
0.000175828
0.000170684
0.000167474
0.000165611
0.000164547
0.000163951
0.00016342
0.000162513
0.000161001
0.000159005
0.000156938
0.000155194
0.000153366
0.000149317
0.000141241
0.000129548
0.000116599
0.000105301
9.69772e-05
9.13073e-05
8.78565e-05
8.60213e-05
8.51561e-05
8.5323e-05
0.000468117
0.000402009
0.000351117
0.000311026
0.000278905
0.000252661
0.000230835
0.000212543
0.000197166
0.000188675
0.000192725
0.000196607
0.00019322
0.000183999
0.000172018
0.000159721
0.000149058
0.000139939
0.000132089
0.000125222
0.000119164
0.000113766
0.000108874
0.000104332
0.000100081
9.62495e-05
9.29486e-05
9.01591e-05
8.79076e-05
8.68444e-05
8.68808e-05
8.72892e-05
8.71696e-05
8.58687e-05
8.32948e-05
7.99994e-05
7.68553e-05
7.3958e-05
7.13174e-05
6.89049e-05
6.66746e-05
6.45698e-05
6.25659e-05
6.06623e-05
5.88707e-05
5.72067e-05
5.56742e-05
5.42715e-05
5.31405e-05
5.33876e-05
5.48649e-05
5.54308e-05
5.40051e-05
5.10424e-05
4.74768e-05
4.4288e-05
4.17124e-05
3.96569e-05
3.79695e-05
3.65137e-05
0.000468015
0.000401416
0.000350216
0.000309855
0.000277391
0.000250883
0.000228925
0.000210521
0.000195056
0.00018207
0.000173149
0.000167916
0.000162897
0.000156568
0.000149312
0.000142093
0.000135387
0.0001292
0.000123488
0.00011819
0.000113295
0.00010883
0.000104781
0.000100986
9.74332e-05
9.41094e-05
9.09727e-05
8.80411e-05
8.53021e-05
8.2723e-05
8.03646e-05
7.82037e-05
7.61858e-05
7.41951e-05
7.21212e-05
7.00164e-05
6.80556e-05
6.62471e-05
6.45711e-05
6.30031e-05
6.15264e-05
6.01394e-05
5.88445e-05
5.7632e-05
5.6487e-05
5.53967e-05
5.43581e-05
5.33567e-05
5.23799e-05
5.14875e-05
5.08872e-05
5.04557e-05
4.97181e-05
4.85267e-05
4.70971e-05
4.55865e-05
4.40269e-05
4.2461e-05
4.08721e-05
3.9334e-05
0.000468012
0.000401549
0.000350484
0.000310202
0.000277762
0.00025122
0.000229188
0.000210793
0.000195387
0.000182226
0.000171019
0.000161928
0.000154318
0.000147401
0.000140836
0.000134618
0.00012891
0.000123651
0.000118684
0.000113952
0.000109486
0.000105294
0.000101356
9.76761e-05
9.42652e-05
9.10942e-05
8.81632e-05
8.55081e-05
8.31094e-05
8.0891e-05
7.87831e-05
7.67879e-05
7.48835e-05
7.30505e-05
7.128e-05
6.95735e-05
6.79563e-05
6.64403e-05
6.49929e-05
6.35901e-05
6.22195e-05
6.08741e-05
5.95558e-05
5.82701e-05
5.70224e-05
5.58156e-05
5.46558e-05
5.35331e-05
5.2409e-05
5.12547e-05
5.01386e-05
4.91476e-05
4.82017e-05
4.71762e-05
4.60342e-05
4.47849e-05
4.33999e-05
4.19012e-05
4.02274e-05
3.85338e-05
0.000468006
0.000401518
0.000350412
0.000310108
0.000277657
0.000251103
0.000229074
0.000210707
0.00019544
0.000182499
0.000171309
0.000161665
0.00015332
0.000145968
0.000139371
0.000133374
0.000127838
0.000122598
0.000117628
0.000112996
0.000108659
0.000104583
0.000100814
9.73977e-05
9.42881e-05
9.14468e-05
8.88889e-05
8.66332e-05
8.45732e-05
8.26485e-05
8.08055e-05
7.89422e-05
7.70662e-05
7.52251e-05
7.34432e-05
7.17194e-05
7.00297e-05
6.83481e-05
6.6671e-05
6.50004e-05
6.33477e-05
6.17388e-05
6.01977e-05
5.8735e-05
5.73606e-05
5.6072e-05
5.48575e-05
5.36697e-05
5.24635e-05
5.11877e-05
4.98253e-05
4.84304e-05
4.7052e-05
4.56627e-05
4.41787e-05
4.25628e-05
4.0822e-05
3.89507e-05
3.68385e-05
3.47809e-05
0.00046801
0.000401513
0.000350388
0.00031008
0.000277621
0.000251065
0.000229038
0.000210781
0.000195793
0.000183161
0.000172213
0.000162685
0.000154354
0.000146984
0.000140358
0.000134303
0.000128687
0.000123424
0.000118423
0.000113664
0.000109154
0.000104889
0.000100862
9.707e-05
9.35401e-05
9.02958e-05
8.73699e-05
8.48327e-05
8.26043e-05
8.06854e-05
7.90867e-05
7.76869e-05
7.62613e-05
7.48066e-05
7.33319e-05
7.18462e-05
7.03679e-05
6.89092e-05
6.74506e-05
6.59775e-05
6.44816e-05
6.29736e-05
6.14783e-05
5.99948e-05
5.84836e-05
5.69075e-05
5.53371e-05
5.38953e-05
5.25206e-05
5.09655e-05
4.92149e-05
4.7321e-05
4.53658e-05
4.33986e-05
4.13819e-05
3.93332e-05
3.72819e-05
3.53257e-05
3.33609e-05
3.16273e-05
0.000468014
0.000401535
0.000350465
0.0003102
0.000277749
0.00025115
0.000229042
0.000211301
0.000197298
0.000185268
0.000174478
0.000164859
0.000156407
0.000148908
0.000142139
0.000135897
0.000130027
0.00012441
0.000118973
0.00011366
0.000108414
0.000103226
9.81483e-05
9.33395e-05
8.89428e-05
8.50493e-05
8.16844e-05
7.88637e-05
7.6466e-05
7.43758e-05
7.26e-05
7.11797e-05
7.00529e-05
6.90218e-05
6.79625e-05
6.68182e-05
6.5598e-05
6.43414e-05
6.30471e-05
6.17095e-05
6.03226e-05
5.88978e-05
5.74811e-05
5.61157e-05
5.46618e-05
5.30007e-05
5.14449e-05
4.99922e-05
4.85412e-05
4.71178e-05
4.56034e-05
4.39253e-05
4.21026e-05
4.02299e-05
3.83442e-05
3.6491e-05
3.46647e-05
3.29076e-05
3.1141e-05
2.95881e-05
0.000468012
0.000401321
0.000350121
0.000309735
0.000277221
0.000250607
0.000228975
0.000215142
0.000205079
0.000193946
0.000181694
0.000171117
0.000161723
0.000152924
0.000144341
0.000135939
0.000127764
0.000119855
0.000112528
0.000106182
0.000100809
9.61304e-05
9.18633e-05
8.78312e-05
8.4178e-05
8.10452e-05
7.85767e-05
7.67282e-05
7.53879e-05
7.36667e-05
7.13007e-05
6.87279e-05
6.63456e-05
6.41161e-05
6.20187e-05
6.00385e-05
5.81599e-05
5.63382e-05
5.4631e-05
5.31061e-05
5.18071e-05
5.05776e-05
4.9426e-05
4.83922e-05
4.76702e-05
4.81556e-05
4.85176e-05
4.76923e-05
4.63372e-05
4.47987e-05
4.31267e-05
4.13274e-05
3.94254e-05
3.7514e-05
3.56409e-05
3.38505e-05
3.2123e-05
3.04993e-05
2.89312e-05
2.76263e-05
0.000468113
0.000401945
0.00035112
0.000310961
0.000278706
0.000252873
0.000234795
0.000237076
0.000236165
0.000226634
0.00021273
0.000197604
0.000184013
0.000172553
0.000162653
0.000153814
0.0001459
0.000138491
0.000131016
0.000123841
0.000117234
0.000111325
0.000106023
0.000101172
9.6667e-05
9.35864e-05
9.28392e-05
9.30125e-05
9.17126e-05
8.74307e-05
8.14725e-05
7.52857e-05
6.95988e-05
6.48373e-05
6.10215e-05
5.79622e-05
5.54513e-05
5.33571e-05
5.15732e-05
5.00323e-05
4.86943e-05
4.75338e-05
4.65789e-05
4.62601e-05
5.05764e-05
5.5323e-05
5.45247e-05
5.09994e-05
4.72858e-05
4.39962e-05
4.11421e-05
3.85825e-05
3.62291e-05
3.41426e-05
3.235e-05
3.08612e-05
2.9594e-05
2.85116e-05
2.7534e-05
2.67269e-05
0.000805022
0.000738609
0.000683427
0.000636801
0.000596971
0.000562578
0.000531818
0.000523927
0.000515308
0.000491613
0.000461003
0.000429759
0.00040012
0.000372405
0.000346491
0.00032257
0.000301724
0.000285267
0.000272789
0.00026298
0.000254974
0.00024815
0.000242111
0.000236845
0.000232651
0.000229828
0.000225717
0.000216352
0.000195095
0.000167266
0.000146402
0.000135008
0.000129715
0.000127538
0.000126836
0.000126813
0.000127083
0.000127457
0.000127932
0.000128743
0.000129625
0.000131119
0.000134125
0.000138833
0.000139476
0.000128024
0.000106891
8.86051e-05
7.8737e-05
7.40025e-05
7.15084e-05
7.00887e-05
6.91819e-05
6.82393e-05
6.71011e-05
6.58979e-05
6.48966e-05
6.43665e-05
6.46392e-05
6.64471e-05
)
;

boundaryField
{
    wall
    {
        type            nutkWallFunction;
        Cmu             0.09;
        kappa           0.41;
        E               9.8;
        value           nonuniform List<scalar> 
1200
(
5.15241e-05
4.82507e-05
4.82409e-05
4.82408e-05
4.8241e-05
4.82409e-05
4.82405e-05
4.82407e-05
4.8251e-05
5.15333e-05
4.7643e-05
4.19944e-05
4.19375e-05
4.19566e-05
4.1958e-05
4.19586e-05
4.19597e-05
4.19423e-05
4.20076e-05
4.76551e-05
4.43951e-05
3.71301e-05
3.70359e-05
3.70667e-05
3.70643e-05
3.70652e-05
3.70706e-05
3.70379e-05
3.71511e-05
4.43963e-05
4.16399e-05
3.32589e-05
3.31265e-05
3.31654e-05
3.31591e-05
3.31578e-05
3.31679e-05
3.31243e-05
3.32916e-05
4.16283e-05
3.92945e-05
3.0127e-05
2.99495e-05
2.99881e-05
2.99789e-05
2.99758e-05
2.99876e-05
2.99366e-05
3.01587e-05
3.92464e-05
3.72891e-05
2.7528e-05
2.73298e-05
2.73623e-05
2.73493e-05
2.73443e-05
2.7352e-05
2.72997e-05
2.76378e-05
3.71627e-05
3.55606e-05
2.53418e-05
2.5144e-05
2.51659e-05
2.51492e-05
2.51428e-05
2.51441e-05
2.516e-05
2.61395e-05
3.54025e-05
3.40586e-05
2.3501e-05
2.32976e-05
2.33143e-05
2.32993e-05
2.33029e-05
2.33589e-05
2.37979e-05
2.63353e-05
3.50716e-05
3.27919e-05
2.19816e-05
2.17305e-05
2.17487e-05
2.17469e-05
2.17791e-05
2.1933e-05
2.27454e-05
2.5973e-05
3.43212e-05
3.18148e-05
2.13348e-05
2.04294e-05
2.04043e-05
2.04215e-05
2.04853e-05
2.06988e-05
2.15804e-05
2.48493e-05
3.27167e-05
3.12202e-05
2.18069e-05
1.95717e-05
1.92728e-05
1.92717e-05
1.93574e-05
1.95881e-05
2.03285e-05
2.33718e-05
3.07828e-05
3.02248e-05
2.20328e-05
1.90207e-05
1.83509e-05
1.8278e-05
1.83714e-05
1.85948e-05
1.92397e-05
2.18347e-05
2.8844e-05
2.85847e-05
2.15083e-05
1.84402e-05
1.75577e-05
1.74116e-05
1.75036e-05
1.77163e-05
1.82649e-05
2.04715e-05
2.70044e-05
2.66733e-05
2.04551e-05
1.7727e-05
1.68213e-05
1.66398e-05
1.67313e-05
1.69319e-05
1.7345e-05
1.93112e-05
2.52749e-05
2.48311e-05
1.91752e-05
1.69382e-05
1.61186e-05
1.59402e-05
1.60334e-05
1.62196e-05
1.64424e-05
1.83008e-05
2.36476e-05
2.32024e-05
1.79169e-05
1.61754e-05
1.54584e-05
1.52986e-05
1.5392e-05
1.55593e-05
1.55543e-05
1.73922e-05
2.21416e-05
2.18479e-05
1.68281e-05
1.54659e-05
1.48403e-05
1.47029e-05
1.47945e-05
1.49349e-05
1.46854e-05
1.65768e-05
2.08296e-05
2.07683e-05
1.58925e-05
1.48118e-05
1.42641e-05
1.41401e-05
1.42313e-05
1.43351e-05
1.38396e-05
1.58007e-05
1.97966e-05
1.99012e-05
1.50812e-05
1.42095e-05
1.37217e-05
1.36082e-05
1.36943e-05
1.37513e-05
1.30512e-05
1.50195e-05
1.90175e-05
1.9185e-05
1.43649e-05
1.36516e-05
1.32096e-05
1.31102e-05
1.31814e-05
1.31778e-05
1.23652e-05
1.42615e-05
1.84089e-05
1.85887e-05
1.37264e-05
1.31355e-05
1.27278e-05
1.26409e-05
1.26935e-05
1.26084e-05
1.17815e-05
1.35573e-05
1.79092e-05
1.80902e-05
1.31523e-05
1.26598e-05
1.22738e-05
1.21983e-05
1.22301e-05
1.20423e-05
1.12702e-05
1.29236e-05
1.74744e-05
1.76613e-05
1.26285e-05
1.22206e-05
1.18447e-05
1.17881e-05
1.17908e-05
1.14861e-05
1.0801e-05
1.23502e-05
1.70807e-05
1.72809e-05
1.21397e-05
1.18067e-05
1.14422e-05
1.14156e-05
1.13758e-05
1.09578e-05
1.03553e-05
1.1821e-05
1.67344e-05
1.6999e-05
1.1682e-05
1.14179e-05
1.1068e-05
1.10754e-05
1.0989e-05
1.0474e-05
9.94758e-06
1.13291e-05
1.64792e-05
1.68483e-05
1.12746e-05
1.10407e-05
1.07198e-05
1.07634e-05
1.06332e-05
1.00447e-05
9.59581e-06
1.10083e-05
1.62986e-05
1.67609e-05
1.09338e-05
1.06821e-05
1.03971e-05
1.04816e-05
1.03121e-05
9.6732e-06
9.31587e-06
1.09353e-05
1.59689e-05
1.66592e-05
1.06565e-05
1.03536e-05
1.01034e-05
1.0232e-05
1.00333e-05
9.3612e-06
9.10178e-06
1.09288e-05
1.51629e-05
1.65121e-05
1.04587e-05
1.00486e-05
9.8369e-06
1.0003e-05
9.78797e-06
9.0952e-06
8.93458e-06
1.07108e-05
1.35418e-05
1.62942e-05
1.03815e-05
9.7614e-06
9.58945e-06
9.78785e-06
9.57575e-06
8.86299e-06
8.71017e-06
1.01218e-05
1.16902e-05
1.59749e-05
1.03879e-05
9.49587e-06
9.35357e-06
9.58047e-06
9.3972e-06
8.66622e-06
8.42552e-06
9.38492e-06
1.04353e-05
1.55198e-05
1.03995e-05
9.25118e-06
9.12906e-06
9.37088e-06
9.23821e-06
8.50774e-06
8.13649e-06
8.67205e-06
9.79537e-06
1.49307e-05
1.03288e-05
9.02318e-06
8.91386e-06
9.15962e-06
9.07635e-06
8.37972e-06
7.87293e-06
8.05585e-06
9.51731e-06
1.42634e-05
1.01217e-05
8.7962e-06
8.70613e-06
8.95171e-06
8.91105e-06
8.26108e-06
7.63041e-06
7.56237e-06
9.41445e-06
1.36278e-05
9.79161e-06
8.55939e-06
8.50519e-06
8.74974e-06
8.74318e-06
8.13846e-06
7.40186e-06
7.17535e-06
9.39201e-06
1.30622e-05
9.42175e-06
8.32816e-06
8.31147e-06
8.5534e-06
8.57363e-06
8.00579e-06
7.18304e-06
6.86562e-06
9.40501e-06
1.2619e-05
9.07453e-06
8.11516e-06
8.12761e-06
8.36e-06
8.40434e-06
7.8638e-06
6.97294e-06
6.60882e-06
9.43226e-06
1.23211e-05
8.75471e-06
7.91844e-06
7.95381e-06
8.16733e-06
8.23654e-06
7.7169e-06
6.77009e-06
6.3907e-06
9.46446e-06
1.21438e-05
8.46185e-06
7.73434e-06
7.78726e-06
7.97488e-06
8.06825e-06
7.56542e-06
6.58159e-06
6.20163e-06
9.50343e-06
1.20469e-05
8.1926e-06
7.56022e-06
7.62566e-06
7.78285e-06
7.89775e-06
7.40898e-06
6.41364e-06
6.03568e-06
9.56816e-06
1.19943e-05
7.94204e-06
7.39491e-06
7.46748e-06
7.59244e-06
7.72428e-06
7.2468e-06
6.26941e-06
5.88861e-06
9.63831e-06
1.19628e-05
7.70391e-06
7.2391e-06
7.31176e-06
7.40661e-06
7.54895e-06
7.08009e-06
6.12883e-06
5.76047e-06
9.75661e-06
1.19231e-05
7.47593e-06
7.09279e-06
7.15881e-06
7.22815e-06
7.37475e-06
6.91396e-06
6.00281e-06
5.65527e-06
9.98703e-06
1.18487e-05
7.25913e-06
6.9543e-06
7.00939e-06
7.05838e-06
7.20082e-06
6.75073e-06
5.89464e-06
5.65451e-06
1.03076e-05
1.17298e-05
7.05544e-06
6.8217e-06
6.86403e-06
6.89845e-06
7.02154e-06
6.56929e-06
5.82966e-06
6.25003e-06
1.0236e-05
1.158e-05
6.86639e-06
6.69369e-06
6.72327e-06
6.74774e-06
6.83279e-06
6.37328e-06
5.89363e-06
6.71533e-06
9.28563e-06
1.14294e-05
6.69165e-06
6.56996e-06
6.58655e-06
6.60305e-06
6.64286e-06
6.18637e-06
5.89788e-06
6.53013e-06
7.7286e-06
1.12994e-05
6.53088e-06
6.44916e-06
6.45008e-06
6.45524e-06
6.46471e-06
6.00369e-06
5.76578e-06
6.08604e-06
6.47233e-06
1.11439e-05
6.41427e-06
6.33162e-06
6.31123e-06
6.30337e-06
6.28832e-06
5.82278e-06
5.58407e-06
5.64207e-06
5.82925e-06
1.08015e-05
6.48437e-06
6.22897e-06
6.17208e-06
6.14368e-06
6.09109e-06
5.64476e-06
5.38532e-06
5.25219e-06
5.52382e-06
1.018e-05
6.64578e-06
6.16184e-06
6.04426e-06
5.97814e-06
5.87467e-06
5.45651e-06
5.17448e-06
4.91377e-06
5.3597e-06
9.32915e-06
6.65865e-06
6.10232e-06
5.93106e-06
5.81327e-06
5.64579e-06
5.25052e-06
4.95095e-06
4.60866e-06
5.26511e-06
8.42624e-06
6.4392e-06
5.99687e-06
5.8168e-06
5.6499e-06
5.4113e-06
5.0289e-06
4.71659e-06
4.32684e-06
5.20099e-06
7.66448e-06
6.06004e-06
5.84095e-06
5.68869e-06
5.48102e-06
5.1741e-06
4.80239e-06
4.48216e-06
4.07699e-06
5.12826e-06
7.11348e-06
5.63381e-06
5.66301e-06
5.54514e-06
5.29613e-06
4.92951e-06
4.57488e-06
4.25302e-06
3.86297e-06
5.04073e-06
6.74383e-06
5.26605e-06
5.47559e-06
5.38716e-06
5.09299e-06
4.68125e-06
4.35133e-06
4.03462e-06
3.68567e-06
4.95138e-06
6.5257e-06
4.96866e-06
5.28217e-06
5.21151e-06
4.87253e-06
4.43385e-06
4.13046e-06
3.82472e-06
3.53457e-06
4.88112e-06
6.41518e-06
4.72973e-06
5.08778e-06
5.0213e-06
4.63589e-06
4.19805e-06
3.91712e-06
3.62861e-06
3.40477e-06
4.84888e-06
6.36836e-06
4.53168e-06
4.89002e-06
4.8084e-06
4.37024e-06
3.96109e-06
3.702e-06
3.44054e-06
3.28683e-06
4.87728e-06
6.39373e-06
4.35879e-06
4.69888e-06
4.59442e-06
4.11507e-06
3.75204e-06
3.51303e-06
3.28453e-06
3.18942e-06
5.01988e-06
5.15325e-05
4.82506e-05
4.8241e-05
4.82408e-05
4.82404e-05
4.82408e-05
4.82411e-05
4.82409e-05
4.82505e-05
5.1525e-05
4.7671e-05
4.2006e-05
4.19499e-05
4.19625e-05
4.19596e-05
4.19593e-05
4.19613e-05
4.19408e-05
4.20006e-05
4.76416e-05
4.44195e-05
3.71333e-05
3.70475e-05
3.7073e-05
3.70662e-05
3.70639e-05
3.70709e-05
3.70374e-05
3.71354e-05
4.439e-05
4.16475e-05
3.32484e-05
3.31354e-05
3.3169e-05
3.31596e-05
3.31564e-05
3.31673e-05
3.31215e-05
3.32456e-05
4.16222e-05
3.92847e-05
3.01016e-05
2.99539e-05
2.99902e-05
2.99796e-05
2.99748e-05
2.99861e-05
2.99338e-05
3.00911e-05
3.92416e-05
3.72739e-05
2.75049e-05
2.73304e-05
2.73647e-05
2.73517e-05
2.73454e-05
2.73518e-05
2.72971e-05
2.75374e-05
3.71651e-05
3.55417e-05
2.53269e-05
2.51387e-05
2.51662e-05
2.51524e-05
2.51447e-05
2.51449e-05
2.51651e-05
2.59767e-05
3.53665e-05
3.40393e-05
2.34881e-05
2.32891e-05
2.33179e-05
2.33058e-05
2.33092e-05
2.33693e-05
2.38021e-05
2.6161e-05
3.49732e-05
3.27742e-05
2.19523e-05
2.17234e-05
2.17576e-05
2.17578e-05
2.17888e-05
2.19467e-05
2.27489e-05
2.59109e-05
3.43207e-05
3.17777e-05
2.12075e-05
2.04089e-05
2.04154e-05
2.04351e-05
2.04959e-05
2.07113e-05
2.1576e-05
2.48641e-05
3.27877e-05
3.11853e-05
2.16502e-05
1.95199e-05
1.92705e-05
1.92857e-05
1.93683e-05
1.95988e-05
2.03231e-05
2.34214e-05
3.08808e-05
3.02653e-05
2.19509e-05
1.89702e-05
1.83342e-05
1.82898e-05
1.8382e-05
1.86038e-05
1.92365e-05
2.18863e-05
2.89485e-05
2.86915e-05
2.15076e-05
1.84158e-05
1.75363e-05
1.74214e-05
1.7514e-05
1.77246e-05
1.82602e-05
2.05127e-05
2.71096e-05
2.6807e-05
2.05044e-05
1.77273e-05
1.68022e-05
1.66493e-05
1.67409e-05
1.69393e-05
1.73344e-05
1.93455e-05
2.53793e-05
2.49641e-05
1.92457e-05
1.69521e-05
1.61028e-05
1.59501e-05
1.60415e-05
1.62255e-05
1.64248e-05
1.83298e-05
2.37509e-05
2.33249e-05
1.79802e-05
1.61912e-05
1.54426e-05
1.53076e-05
1.53985e-05
1.55629e-05
1.55311e-05
1.74277e-05
2.22405e-05
2.19491e-05
1.688e-05
1.54819e-05
1.4832e-05
1.47082e-05
1.47992e-05
1.49354e-05
1.46582e-05
1.66027e-05
2.09212e-05
2.08498e-05
1.59338e-05
1.48259e-05
1.42612e-05
1.414e-05
1.42337e-05
1.43325e-05
1.38112e-05
1.57933e-05
1.98771e-05
1.99672e-05
1.51139e-05
1.42204e-05
1.37178e-05
1.36064e-05
1.36941e-05
1.37455e-05
1.30253e-05
1.49915e-05
1.90842e-05
1.92403e-05
1.43914e-05
1.36605e-05
1.32039e-05
1.31089e-05
1.31794e-05
1.3168e-05
1.23452e-05
1.42289e-05
1.8463e-05
1.86367e-05
1.37487e-05
1.31437e-05
1.27216e-05
1.26394e-05
1.26905e-05
1.25932e-05
1.17678e-05
1.35286e-05
1.79565e-05
1.81327e-05
1.31717e-05
1.26693e-05
1.22678e-05
1.21969e-05
1.22264e-05
1.20216e-05
1.12607e-05
1.29023e-05
1.75224e-05
1.76975e-05
1.26455e-05
1.22315e-05
1.1839e-05
1.17889e-05
1.17866e-05
1.14612e-05
1.07934e-05
1.23347e-05
1.71338e-05
1.73084e-05
1.21543e-05
1.18196e-05
1.14374e-05
1.142e-05
1.13718e-05
1.09319e-05
1.03481e-05
1.18078e-05
1.6794e-05
1.70129e-05
1.16934e-05
1.14262e-05
1.1065e-05
1.10834e-05
1.09867e-05
1.04503e-05
9.94296e-06
1.13161e-05
1.65335e-05
1.68488e-05
1.12802e-05
1.10502e-05
1.07187e-05
1.07746e-05
1.06345e-05
1.00275e-05
9.59191e-06
1.10249e-05
1.63382e-05
1.67572e-05
1.09293e-05
1.06951e-05
1.03986e-05
1.04963e-05
1.03199e-05
9.66544e-06
9.31092e-06
1.09684e-05
1.603e-05
1.66623e-05
1.06385e-05
1.03678e-05
1.01082e-05
1.02501e-05
1.00504e-05
9.36411e-06
9.0891e-06
1.09822e-05
1.53055e-05
1.65329e-05
1.04192e-05
1.00637e-05
9.84425e-06
1.0023e-05
9.81394e-06
9.10653e-06
8.91e-06
1.07652e-05
1.37752e-05
1.63346e-05
1.03253e-05
9.77821e-06
9.59796e-06
9.80774e-06
9.6085e-06
8.88171e-06
8.68804e-06
1.02109e-05
1.19124e-05
1.60361e-05
1.03285e-05
9.51294e-06
9.36285e-06
9.59778e-06
9.43361e-06
8.69365e-06
8.40492e-06
9.50235e-06
1.05807e-05
1.56024e-05
1.03535e-05
9.26706e-06
9.1388e-06
9.38454e-06
9.27247e-06
8.54427e-06
8.11229e-06
8.7967e-06
9.87434e-06
1.50303e-05
1.03081e-05
9.03763e-06
8.92337e-06
9.17079e-06
9.10689e-06
8.419e-06
7.84673e-06
8.16825e-06
9.55585e-06
1.43694e-05
1.01292e-05
8.81086e-06
8.7152e-06
8.96109e-06
8.9379e-06
8.29904e-06
7.60113e-06
7.65252e-06
9.43101e-06
1.37285e-05
9.819e-06
8.57514e-06
8.51388e-06
8.75739e-06
8.76665e-06
8.17281e-06
7.3694e-06
7.24238e-06
9.39674e-06
1.31528e-05
9.44968e-06
8.3412e-06
8.31977e-06
8.55891e-06
8.59394e-06
8.03558e-06
7.14844e-06
6.91278e-06
9.40335e-06
1.26875e-05
9.10002e-06
8.12397e-06
8.13551e-06
8.36272e-06
8.42147e-06
7.88923e-06
6.9393e-06
6.64019e-06
9.42696e-06
1.23668e-05
8.7771e-06
7.92305e-06
7.96095e-06
8.16723e-06
8.25017e-06
7.73829e-06
6.74253e-06
6.41048e-06
9.45629e-06
1.21713e-05
8.48159e-06
7.73559e-06
7.79321e-06
7.97212e-06
8.07804e-06
7.58251e-06
6.56569e-06
6.21284e-06
9.49235e-06
1.20614e-05
8.21025e-06
7.55891e-06
7.63031e-06
7.77774e-06
7.90358e-06
7.42114e-06
6.41219e-06
6.04045e-06
9.5532e-06
1.20002e-05
7.95803e-06
7.39155e-06
7.47088e-06
7.58542e-06
7.72606e-06
7.25372e-06
6.2809e-06
5.88839e-06
9.62029e-06
1.19646e-05
7.71856e-06
7.2338e-06
7.31399e-06
7.39816e-06
7.54737e-06
7.08269e-06
6.1458e-06
5.75576e-06
9.73251e-06
1.19264e-05
7.48946e-06
7.08573e-06
7.15993e-06
7.21881e-06
7.37047e-06
6.91356e-06
6.008e-06
5.64658e-06
9.95329e-06
1.18575e-05
7.27136e-06
6.94608e-06
7.00939e-06
7.04851e-06
7.19429e-06
6.74859e-06
5.88386e-06
5.62903e-06
1.02768e-05
1.17455e-05
7.06599e-06
6.81308e-06
6.86292e-06
6.88818e-06
7.01459e-06
6.57072e-06
5.804e-06
6.18605e-06
1.02572e-05
1.16016e-05
6.87505e-06
6.68534e-06
6.72103e-06
6.73739e-06
6.82901e-06
6.37835e-06
5.86261e-06
6.69225e-06
9.37458e-06
1.1455e-05
6.69861e-06
6.56255e-06
6.5845e-06
6.59533e-06
6.64583e-06
6.19598e-06
5.88352e-06
6.54858e-06
7.84575e-06
1.13297e-05
6.5364e-06
6.4433e-06
6.451e-06
6.4552e-06
6.47561e-06
6.01934e-06
5.76656e-06
6.11838e-06
6.56154e-06
1.11874e-05
6.41265e-06
6.32705e-06
6.31618e-06
6.3114e-06
6.30832e-06
5.84276e-06
5.59396e-06
5.67653e-06
5.88218e-06
1.08736e-05
6.46385e-06
6.22339e-06
6.17919e-06
6.1584e-06
6.11869e-06
5.66888e-06
5.40195e-06
5.28547e-06
5.55627e-06
1.02805e-05
6.63031e-06
6.15464e-06
6.04999e-06
5.99626e-06
5.90715e-06
5.48425e-06
5.19581e-06
4.94484e-06
5.38233e-06
9.44629e-06
6.66711e-06
6.09896e-06
5.93513e-06
5.83181e-06
5.6804e-06
5.28069e-06
4.97537e-06
4.6374e-06
5.28249e-06
8.5401e-06
6.47142e-06
6.00167e-06
5.82185e-06
5.66846e-06
5.44667e-06
5.06027e-06
4.74286e-06
4.35304e-06
5.21656e-06
7.75984e-06
6.10635e-06
5.8524e-06
5.69656e-06
5.5011e-06
5.21022e-06
4.8339e-06
4.50919e-06
4.10008e-06
5.14464e-06
7.18786e-06
5.68216e-06
5.67815e-06
5.5564e-06
5.31955e-06
4.96646e-06
4.6057e-06
4.27991e-06
3.88242e-06
5.05795e-06
6.79983e-06
5.30882e-06
5.49405e-06
5.40234e-06
5.12047e-06
4.7183e-06
4.38087e-06
4.06048e-06
3.70138e-06
4.96801e-06
6.56682e-06
5.006e-06
5.30371e-06
5.23103e-06
4.90471e-06
4.46974e-06
4.1584e-06
3.84864e-06
3.54681e-06
4.89531e-06
6.44573e-06
4.76272e-06
5.11215e-06
5.04524e-06
4.67238e-06
4.23212e-06
3.94329e-06
3.64958e-06
3.41407e-06
4.8595e-06
6.39163e-06
4.56141e-06
4.91712e-06
4.83713e-06
4.41029e-06
3.9927e-06
3.72599e-06
3.4575e-06
3.29352e-06
4.8844e-06
6.41106e-06
4.38629e-06
4.7281e-06
4.6268e-06
4.15614e-06
3.78077e-06
3.53451e-06
3.29748e-06
3.19378e-06
5.02426e-06
)
;
    }
    inlet
    {
        type            calculated;
        value           uniform 0.0381026;
    }
    outlet
    {
        type            calculated;
        value           nonuniform List<scalar> 
20
(
8.50718e-05
3.62897e-05
3.91031e-05
3.82795e-05
3.44502e-05
3.13928e-05
2.94145e-05
2.75196e-05
2.66907e-05
6.6386e-05
8.5323e-05
3.65137e-05
3.9334e-05
3.85338e-05
3.47809e-05
3.16273e-05
2.95881e-05
2.76263e-05
2.67269e-05
6.64471e-05
)
;
    }
    heatWall
    {
        type            nutkWallFunction;
        Cmu             0.09;