/*--------------------------------*- C++ -*----------------------------------*\
  =========                 |
  \\      /  F ield         | OpenFOAM: The Open Source CFD Toolbox
   \\    /   O peration     | Website:  https://openfoam.org
    \\  /    A nd           | Version:  8
     \\/     M anipulation  |
\*---------------------------------------------------------------------------*/
FoamFile
{
    version     2.0;
    format      ascii;
    class       volVectorField;
    location    "300";
    object      U;
}
// * * * * * * * * * * * * * * * * * * * * * * * * * * * * * * * * * * * * * //

dimensions      [0 1 -1 0 0 0 0];

internalField   nonuniform List<vector> 
1200
(
(16.0248 -1.14167 -0.728608)
(16.1291 -0.865733 0.010121)
(16.1681 -0.699045 0.379715)
(16.1798 -0.558886 1.21411)
(16.2578 -0.447295 2.44891)
(16.4154 -0.38639 2.79521)
(16.6359 -0.345904 2.48087)
(16.9297 -0.317975 1.94346)
(17.2113 -0.26676 2.36342)
(17.6001 0.0331924 4.6196)
(18.7929 0.64209 10.7646)
(19.2745 0.869132 16.8628)
(18.3195 0.740108 19.3902)
(16.7576 0.470869 18.9192)
(15.3475 0.203354 16.9934)
(14.4372 0.00330226 14.5453)
(13.9972 -0.100967 12.033)
(13.8591 -0.145942 9.71315)
(13.8918 -0.160792 7.95019)
(14.0178 -0.159763 6.9883)
(14.174 -0.150013 6.15963)
(14.3017 -0.138253 5.30463)
(14.3966 -0.135374 4.94667)
(14.5309 -0.140127 5.80375)
(14.8007 -0.110242 7.38308)
(15.0824 -0.0328818 7.68875)
(15.2371 0.0431362 7.02779)
(15.2421 0.0796502 5.67391)
(15.0934 0.0895796 4.66732)
(14.7765 0.109061 4.43414)
(14.275 0.15551 4.84433)
(13.6167 0.214109 5.46706)
(12.8486 0.239363 6.00211)
(12.0912 0.178648 6.36216)
(11.521 0.0320138 6.19223)
(11.2522 -0.114217 6.05637)
(11.2489 -0.198374 5.75906)
(11.3877 -0.218535 5.41467)
(11.6091 -0.205382 4.88158)
(11.8666 -0.182441 4.38918)
(12.1472 -0.166894 4.2156)
(12.4873 -0.161531 4.73936)
(12.8939 -0.163042 5.34349)
(13.3415 -0.165827 5.76322)
(13.8346 -0.169818 6.03012)
(14.3774 -0.169521 6.31031)
(14.9431 -0.150619 6.88822)
(15.4326 -0.100784 7.66957)
(15.7268 -0.0206354 8.44205)
(15.7812 0.116172 9.52531)
(15.4718 0.310289 10.9368)
(14.6098 0.446813 12.1417)
(13.3011 0.39935 12.5942)
(12.0321 0.185685 12.0595)
(11.2516 -0.0433717 10.9946)
(11.0647 -0.165979 9.71439)
(11.2367 -0.194771 8.3874)
(11.5806 -0.181053 7.08317)
(12.0016 -0.168313 6.04954)
(12.4947 -0.09902 5.20197)
(16.0033 0.413169 -0.250108)
(15.9753 0.530779 0.231374)
(15.9904 0.514268 0.446113)
(15.9998 0.491155 0.931067)
(16.0666 0.462664 1.72289)
(16.2257 0.394267 2.03959)
(16.4632 0.327538 1.73605)
(16.7768 0.271005 1.27593)
(17.116 0.288852 1.71182)
(17.4716 0.539837 3.08791)
(18.4496 1.08261 5.71169)
(19.6751 1.18682 8.60223)
(20.2923 0.932222 10.3555)
(20.307 0.556755 10.7595)
(20.0166 0.200864 10.2445)
(19.6239 -0.0674037 9.16922)
(19.2549 -0.216457 7.8226)
(18.9946 -0.287114 6.37182)
(18.8389 -0.309995 5.1687)
(18.7499 -0.302064 4.52979)
(18.6754 -0.278858 3.97604)
(18.5663 -0.250785 3.38884)
(18.4091 -0.234997 3.12803)
(18.2322 -0.252124 3.78531)
(18.1374 -0.305633 5.07732)
(18.1846 -0.315847 5.454)
(18.3627 -0.245861 5.06644)
(18.5976 -0.152472 4.19185)
(18.8141 -0.066637 3.82784)
(18.9627 0.0412221 4.08905)
(19.0312 0.14325 4.6409)
(19.0528 0.213042 5.20404)
(19.0637 0.244957 5.64548)
(19.1007 0.226331 5.98704)
(19.1373 0.149619 6.09193)
(19.0513 0.0660403 6.16789)
(18.8442 0.0055801 6.00911)
(18.6055 -0.0236861 5.65959)
(18.385 -0.0399405 5.1587)
(18.1861 -0.0501979 4.68892)
(17.9893 -0.0638184 4.41762)
(17.7775 -0.0863623 4.57591)
(17.5544 -0.128643 4.79758)
(17.3405 -0.188834 4.88935)
(17.1876 -0.262848 4.88338)
(17.1406 -0.327929 4.92704)
(17.2075 -0.338889 5.30093)
(17.3372 -0.253658 5.93622)
(17.4366 -0.0924169 6.60707)
(17.4623 0.121772 7.52296)
(17.4589 0.38009 8.66369)
(17.3977 0.569435 9.72539)
(17.2143 0.574029 10.367)
(16.9143 0.390483 10.3893)
(16.5195 0.11288 9.99034)
(16.1002 -0.126685 9.24744)
(15.8026 -0.272206 8.30828)
(15.649 -0.337243 7.30523)
(15.6384 -0.378418 6.54194)
(15.7329 -0.274393 5.80693)
(15.9466 -0.112644 -0.244158)
(15.9041 -0.17846 0.127453)
(15.9217 -0.253282 0.441862)
(15.9591 -0.289778 0.743082)
(16.0421 -0.294609 1.0125)
(16.2046 -0.329462 1.14902)
(16.4361 -0.37273 0.724022)
(16.7359 -0.403798 0.163163)
(17.104 -0.322909 0.362187)
(17.5211 -0.0184851 1.14607)
(18.275 0.622807 2.17075)
(19.3151 0.915729 3.17551)
(20.1264 0.77113 3.95327)
(20.5117 0.416807 4.25137)
(20.5425 0.0504176 4.04579)
(20.3611 -0.212254 3.46209)
(20.117 -0.370801 2.57696)
(19.8967 -0.449307 1.49547)
(19.7162 -0.478608 0.593402)
(19.6063 -0.483971 0.219704)
(19.5406 -0.473916 -0.137181)
(19.4884 -0.445841 -0.584031)
(19.4028 -0.406303 -0.792572)
(19.1974 -0.376678 -0.160451)
(19.1578 -0.358027 1.2574)
(19.1961 -0.332639 1.83446)
(19.173 -0.272709 1.46609)
(19.1218 -0.213158 0.516235)
(19.0871 -0.178814 0.0925338)
(19.0496 -0.110316 0.188949)
(18.938 0.00509025 0.642869)
(18.8001 0.109001 1.25812)
(18.7032 0.153189 1.82052)
(18.6174 0.108019 2.22496)
(18.475 -0.0122121 2.37858)
(18.2701 -0.135323 2.49027)
(18.0739 -0.221072 2.32472)
(17.9251 -0.265095 1.93125)
(17.837 -0.292797 1.49717)
(17.7951 -0.307761 1.16227)
(17.7764 -0.310087 1.02943)
(17.7749 -0.298836 1.29619)
(17.7636 -0.304464 1.66245)
(17.7143 -0.343785 1.89835)
(17.6565 -0.417879 2.01733)
(17.64 -0.492939 2.15541)
(17.6886 -0.508097 2.58869)
(17.7736 -0.415393 3.21072)
(17.8568 -0.231193 3.80301)
(17.9913 0.0252745 4.63032)
(18.2422 0.343894 5.7089)
(18.5642 0.569295 6.83722)
(18.8323 0.555194 7.68975)
(18.955 0.334762 8.03819)
(18.9308 0.0560101 8.06391)
(18.7571 -0.168567 7.81176)
(18.5221 -0.318561 7.3426)
(18.2832 -0.397658 6.73281)
(18.1029 -0.461809 6.37118)
(17.968 -0.37657 5.75547)
(15.9885 -0.00938591 -0.0984546)
(15.9796 0.0615924 0.0361891)
(16.004 0.126233 0.13551)
(16.0353 0.181298 0.10449)
(16.0884 0.218687 0.0119344)
(16.2047 0.192494 0.102977)
(16.3962 0.0857231 -0.193384)
(16.7354 -0.0624466 -0.655406)
(17.1734 -0.0178137 -0.538112)
(17.5756 0.238512 0.00741545)
(18.18 0.67547 0.505997)
(18.984 0.877119 0.742113)
(19.7102 0.76757 0.902665)
(20.1638 0.509324 0.886078)
(20.3151 0.258112 0.593868)
(20.2243 0.0809472 0.0273937)
(20.0052 -0.0680169 -0.817439)
(19.8447 -0.198352 -1.93423)
(19.7645 -0.307662 -2.88812)
(19.6636 -0.365416 -3.22902)
(19.4831 -0.381924 -3.50199)
(19.2146 -0.355015 -3.85385)
(18.9159 -0.290868 -4.10174)
(18.6624 -0.235656 -3.58217)
(18.4889 -0.194628 -2.34624)
(18.4161 -0.168839 -1.76113)
(18.4421 -0.145171 -2.06989)
(18.5921 -0.144946 -2.89603)
(18.8058 -0.164959 -3.13905)
(18.9823 -0.119078 -3.02085)
(19.0687 0.0266722 -2.72082)
(19.1138 0.194673 -2.24605)
(19.16 0.303175 -1.77927)
(19.2044 0.321085 -1.43504)
(19.2238 0.256501 -1.22859)
(19.205 0.157722 -1.07023)
(19.149 0.0530491 -1.15717)
(19.0678 -0.0333248 -1.48369)
(18.9723 -0.0985374 -1.77487)
(18.864 -0.13971 -1.9553)
(18.7403 -0.158648 -1.97547)
(18.603 -0.161066 -1.64895)
(18.4508 -0.174541 -1.17091)
(18.2843 -0.223923 -0.789709)
(18.1318 -0.324619 -0.503528)
(18.0406 -0.442871 -0.198311)
(18.0233 -0.476165 0.428168)
(18.0021 -0.365185 1.25251)
(17.8873 -0.17141 2.02118)
(17.7408 0.0615628 2.92569)
(17.7662 0.320034 3.97353)
(18.026 0.511424 5.03895)
(18.3658 0.52891 5.85068)
(18.587 0.375132 6.23953)
(18.6235 0.154461 6.42236)
(18.5166 -0.0387048 6.40787)
(18.3328 -0.190638 6.25529)
(18.1154 -0.283419 5.9845)
(17.9398 -0.368903 6.13344)
(17.7858 -0.314577 5.74876)
(15.9888 -0.00628206 -0.0717096)
(15.9761 -0.00148935 -0.0648016)
(15.9863 -0.0182229 -0.0890699)
(16.0092 -0.0581227 -0.221168)
(16.0543 -0.119197 -0.416337)
(16.1504 -0.206552 -0.308619)
(16.3303 -0.353438 -0.528455)
(16.736 -0.557653 -1.05426)
(17.3069 -0.501913 -1.10552)
(17.8305 -0.237598 -0.6976)
(18.3621 0.155552 -0.311573)
(18.9765 0.376778 -0.252362)
(19.5413 0.338295 -0.279026)
(19.9307 0.155966 -0.415013)
(20.0944 -0.030849 -0.751741)
(20.0601 -0.153548 -1.35368)
(19.9128 -0.257443 -2.21943)
(19.7183 -0.314971 -3.47023)
(19.5253 -0.321428 -4.66096)
(19.3349 -0.309364 -5.16028)
(19.1131 -0.286371 -5.49301)
(18.8836 -0.245225 -5.85666)
(18.725 -0.20608 -6.20146)
(18.6844 -0.20229 -5.96973)
(18.7382 -0.216181 -5.08741)
(18.8772 -0.252004 -4.57134)
(19.0959 -0.302517 -4.72727)
(19.3919 -0.35014 -5.19819)
(19.7028 -0.380602 -5.00199)
(19.9624 -0.311232 -4.64765)
(20.1048 -0.159275 -4.36267)
(20.1335 2.81775e-05 -3.98951)
(20.1069 0.0999092 -3.58513)
(20.0486 0.115678 -3.2709)
(19.9457 0.0550515 -3.01653)
(19.7819 -0.0376896 -2.77789)
(19.5452 -0.12416 -2.73186)
(19.2435 -0.181879 -2.92376)
(18.9107 -0.212992 -3.07295)
(18.5714 -0.229302 -3.12512)
(18.2432 -0.235927 -3.01839)
(17.9412 -0.236222 -2.57167)
(17.6633 -0.247565 -1.95235)
(17.41 -0.302342 -1.4339)
(17.2317 -0.430027 -0.996112)
(17.2011 -0.586386 -0.554773)
(17.2992 -0.604425 0.125482)
(17.3514 -0.412608 0.904208)
(17.272 -0.155239 1.57268)
(17.1088 0.103097 2.38802)
(17.0007 0.332547 3.33784)
(17.0546 0.467127 4.33751)
(17.2341 0.446484 5.1071)
(17.3769 0.300742 5.48253)
(17.3851 0.115281 5.7557)
(17.2767 -0.0322721 5.91586)
(17.1208 -0.143841 6.06948)
(16.9342 -0.201469 6.12867)
(16.8086 -0.264816 6.81144)
(16.6674 -0.227798 6.57151)
(15.9893 0.00765399 -0.0931392)
(15.9774 0.0178206 -0.162029)
(15.985 0.0430267 -0.350992)
(16.0002 0.0745687 -0.67187)
(16.0387 0.0841975 -1.10567)
(16.1239 0.0458319 -1.20385)
(16.2915 -0.126519 -1.59386)
(16.7883 -0.477316 -2.33593)
(17.5189 -0.444984 -2.73332)
(18.1587 -0.126833 -2.75267)
(18.7169 0.317418 -2.62229)
(19.2763 0.580852 -2.61434)
(19.7865 0.596717 -2.65669)
(20.1542 0.478324 -2.79966)
(20.3036 0.365442 -3.09383)
(20.2141 0.305606 -3.57866)
(19.9805 0.181929 -4.27404)
(19.7082 0.000721582 -5.40356)
(19.4356 -0.124523 -6.51381)
(19.1658 -0.14674 -6.92907)
(18.9003 -0.106621 -7.13367)
(18.6722 -0.0605435 -7.28536)
(18.5087 -0.0435738 -7.37854)
(18.4071 -0.0598649 -7.06853)
(18.3606 -0.0881004 -6.27793)
(18.3729 -0.14075 -5.61213)
(18.4514 -0.229345 -5.35171)
(18.6262 -0.30999 -5.2424)
(18.8753 -0.347502 -4.55074)
(19.1669 -0.252021 -3.9408)
(19.4307 -0.064428 -3.66732)
(19.6417 0.128926 -3.43431)
(19.778 0.262677 -3.16277)
(19.8545 0.317335 -2.95353)
(19.8654 0.30255 -2.75127)
(19.809 0.249991 -2.53258)
(19.6923 0.189287 -2.43246)
(19.5268 0.13936 -2.56241)
(19.329 0.104931 -2.66737)
(19.1072 0.0789618 -2.71881)
(18.8653 0.0568768 -2.64528)
(18.6128 0.0325119 -2.2117)
(18.3479 0.00287391 -1.59152)
(18.056 -0.0750264 -1.04045)
(17.7724 -0.257777 -0.516494)
(17.5914 -0.507616 0.0718481)
(17.5342 -0.559632 0.878105)
(17.4532 -0.309765 1.70695)
(17.1977 0.0370772 2.43085)
(16.8401 0.344296 3.27357)
(16.5618 0.548157 4.16731)
(16.4499 0.61236 5.07114)
(16.4773 0.540959 5.76125)
(16.512 0.403956 6.08162)
(16.4678 0.267144 6.3747)
(16.3477 0.173193 6.5874)
(16.2096 0.10374 6.85347)
(16.0711 0.0703381 6.98198)
(16.0348 0.013966 7.84718)
(15.9684 0.0154619 7.51511)
(15.9918 0.00698075 -0.129178)
(15.988 -0.0417569 -0.253043)
(16.0104 -0.107917 -0.423683)
(16.0329 -0.170651 -0.756667)
(16.0602 -0.245406 -1.25346)
(16.1053 -0.34161 -1.43424)
(16.2019 -0.530467 -2.0544)
(16.7736 -1.00235 -2.95058)
(17.6877 -0.955285 -3.47721)
(18.4534 -0.668687 -3.75141)
(19.0585 -0.350326 -3.88747)
(19.5661 -0.164923 -3.93927)
(20.0036 -0.122057 -4.03165)
(20.3148 -0.13656 -4.23123)
(20.4061 -0.0975573 -4.59404)
(20.2102 0.0311535 -5.17264)
(19.8159 0.0415917 -6.05555)
(19.3921 -0.00311831 -7.49839)
(19.0249 0.00526802 -8.83563)
(18.6794 0.0324237 -9.1774)
(18.2879 0.0508009 -8.98021)
(17.8485 0.035062 -8.53456)
(17.3824 -0.0211552 -8.0445)
(16.9372 -0.108371 -7.44181)
(16.547 -0.206411 -6.60545)
(16.2466 -0.311806 -5.78225)
(16.0582 -0.444878 -5.22652)
(16.0226 -0.559201 -4.71469)
(16.1405 -0.625106 -3.71316)
(16.3738 -0.528029 -2.97641)
(16.608 -0.34712 -2.81786)
(16.8264 -0.172983 -2.79672)
(17.0368 -0.0411731 -2.7329)
(17.2082 0.0201821 -2.71094)
(17.3032 0.0157831 -2.67164)
(17.3042 -0.0254972 -2.57698)
(17.2211 -0.0727979 -2.49203)
(17.0844 -0.105135 -2.56634)
(16.9263 -0.11302 -2.59637)
(16.7608 -0.106034 -2.58825)
(16.5855 -0.0908403 -2.49863)
(16.4058 -0.0882602 -1.90999)
(16.206 -0.0912344 -1.12913)
(15.9579 -0.139184 -0.454638)
(15.655 -0.334161 0.264267)
(15.4683 -0.600205 1.22194)
(15.5427 -0.56946 2.31114)
(15.6346 -0.239485 3.09814)
(15.5846 0.13213 3.67)
(15.5447 0.405778 4.38563)
(15.5851 0.553818 5.1987)
(15.7049 0.571886 6.07202)
(15.8829 0.482506 6.77094)
(16.0504 0.352525 7.0788)
(16.16 0.225289 7.37616)
(16.1902 0.125876 7.63873)
(16.1522 0.0351042 8.08316)
(16.0061 -0.023005 8.38469)
(15.8305 -0.0868798 9.41946)
(15.488 -0.0765793 8.96104)
(15.9544 0.0789776 -0.144341)
(15.9149 0.185574 -0.515362)
(15.9193 0.236581 -0.764708)
(15.932 0.253578 -1.26304)
(15.9581 0.230911 -1.9556)
(15.9996 0.140543 -2.08744)
(16.0341 -0.264204 -2.55175)
(16.7268 -1.07793 -2.75131)
(17.8363 -1.02325 -2.85408)
(18.6511 -0.52635 -4.00837)
(19.3001 0.0189346 -6.51979)
(19.88 0.302009 -9.2067)
(20.2547 0.346139 -11.5075)
(20.2257 0.315365 -12.9931)
(19.7371 0.344533 -13.5462)
(18.9002 0.370035 -13.4053)
(17.9649 0.22369 -13.0944)
(17.1334 0.0780664 -13.1003)
(16.482 0.04639 -12.9177)
(16.0007 0.0831079 -11.9307)
(15.6036 0.154293 -10.7099)
(15.226 0.21018 -9.50801)
(14.8271 0.227501 -8.39739)
(14.397 0.205424 -7.41277)
(14.0107 0.158022 -6.33689)
(13.7016 0.0690778 -5.089)
(13.4813 -0.0952902 -4.00987)
(13.3712 -0.251071 -2.868)
(13.4371 -0.337898 -1.4278)
(13.6183 -0.212974 -0.389526)
(13.6881 -0.00797186 -0.14392)
(13.6359 0.144427 -0.12838)
(13.6174 0.240464 -0.144706)
(13.6525 0.285495 -0.253053)
(13.7035 0.294681 -0.386952)
(13.7242 0.284864 -0.467379)
(13.691 0.264891 -0.477259)
(13.6277 0.239934 -0.586897)
(13.5731 0.221126 -0.669121)
(13.5574 0.202499 -0.774328)
(13.573 0.195058 -0.915677)
(13.53 0.16291 -0.282258)
(13.4873 0.124597 0.635382)
(13.2868 0.0750652 1.40497)
(12.9108 -0.0973753 2.38361)
(13.0919 -0.412397 4.2982)
(14.0149 -0.43922 6.43316)
(14.8907 -0.037308 7.66307)
(15.3488 0.366096 7.93049)
(15.5234 0.584344 8.02458)
(15.6383 0.649601 8.20225)
(15.7907 0.588808 8.58642)
(15.993 0.44998 8.97146)
(16.1435 0.318101 8.99709)
(16.1397 0.237213 8.96572)
(15.9257 0.221876 8.88795)
(15.5252 0.236239 9.18504)
(14.9576 0.274266 9.57134)
(14.3581 0.290471 11.0361)
(13.6162 0.160692 10.6913)
(16.0359 -0.438608 -0.0274202)
(16.0159 -0.530745 -0.316828)
(16.002 -0.528323 -0.269194)
(16.0016 -0.506358 -0.420551)
(15.9938 -0.483022 -0.72616)
(15.9572 -0.508117 -0.435499)
(15.8331 -0.905191 -0.31689)
(17.0268 -1.81763 2.4684)
(18.5681 -1.49312 5.57878)
(19.3272 -0.739812 6.83899)
(19.6819 -0.0653074 6.49036)
(19.9442 0.322151 5.19651)
(20.2338 0.454713 3.79238)
(20.4978 0.439307 2.52026)
(20.6676 0.420235 1.23889)
(20.6539 0.478851 -0.196584)
(20.0677 0.509831 -1.76574)
(19.6548 0.329617 -4.04808)
(19.4832 0.141894 -6.2699)
(19.2086 0.0437368 -7.50626)
(18.7484 0.0149163 -7.84971)
(18.08 0.00809222 -7.47621)
(17.2353 -0.0155524 -6.65344)
(16.286 -0.0877377 -5.72042)
(15.3466 -0.226017 -4.58159)
(14.5751 -0.393651 -3.05071)
(13.9966 -0.553681 -1.63339)
(13.5833 -0.697603 -0.177021)
(13.2489 -0.807486 1.67416)
(13.04 -0.631322 2.92163)
(12.7043 -0.311993 3.17684)
(12.2788 -0.0583511 3.08077)
(11.9598 0.0857577 2.89851)
(11.7675 0.144467 2.66469)
(11.6552 0.154694 2.4252)
(11.5725 0.147203 2.23926)
(11.493 0.140028 2.16218)
(11.4248 0.136922 2.09275)
(11.3798 0.137476 2.12308)
(11.3696 0.124692 2.18023)
(11.3551 0.133666 1.94612)
(11.2654 0.146483 2.65632)
(11.108 0.176578 3.71324)
(10.9627 0.15635 4.76125)
(11.3983 -0.13107 6.64012)
(12.3816 -0.664936 9.15061)
(13.0702 -0.900796 10.7875)
(13.4175 -0.602857 10.9836)
(13.4518 -0.135906 10.3758)
(13.3087 0.182691 9.79887)
(13.2429 0.305121 9.52067)
(13.2391 0.287682 9.65247)
(13.2202 0.206885 9.9044)
(13.0899 0.152651 9.73097)
(12.8289 0.155813 9.46213)
(12.501 0.216561 9.16288)
(12.2079 0.298587 9.51664)
(11.9765 0.390279 10.1293)
(11.9116 0.46597 11.9965)
(11.8555 0.233734 12.0256)
(16.0393 1.15888 0.184075)
(16.1401 0.884807 -0.32946)
(16.1467 0.726624 -0.205813)
(16.13 0.608152 -0.199491)
(16.0978 0.506838 -0.324939)
(15.9358 0.408271 0.171668)
(15.7909 -0.15629 1.69014)
(18.1134 -1.07247 13.5634)
(18.9261 -0.996447 23.4092)
(18.2464 -0.720287 27.0428)
(17.3962 -0.551518 26.9951)
(16.6834 -0.492299 25.4477)
(16.0189 -0.477305 23.2557)
(15.2744 -0.433488 20.7104)
(14.4676 -0.318587 17.882)
(13.7998 -0.113448 14.8454)
(13.5382 0.225585 11.28)
(13.6356 0.534535 7.22828)
(13.8674 0.686948 4.09144)
(14.1577 0.724025 2.42775)
(14.4356 0.716392 1.50065)
(14.6287 0.700376 1.06542)
(14.7201 0.682096 1.02594)
(14.6651 0.651394 1.14368)
(14.4296 0.553351 1.69801)
(13.9894 0.312902 2.81974)
(13.2099 0.0327627 3.61678)
(11.9442 -0.169743 4.57385)
(10.5076 -0.186948 6.4064)
(9.50406 0.0202492 8.00956)
(8.96743 0.218974 8.20785)
(8.80948 0.277183 7.67106)
(8.88192 0.262515 7.01972)
(9.04682 0.228948 6.38343)
(9.22463 0.19792 5.79875)
(9.3784 0.176324 5.30304)
(9.50755 0.166545 4.95463)
(9.63952 0.16684 4.68949)
(9.80337 0.173743 4.62262)
(10.0458 0.172621 4.6913)
(10.2989 0.174617 4.29897)
(10.5985 0.185022 4.96791)
(11.0386 0.16377 6.19329)
(11.6105 0.016011 7.6618)
(12.0883 -0.374114 10.1235)
(11.5123 -0.845426 13.4674)
(9.43 -0.829483 15.5295)
(7.36189 -0.257282 14.2324)
(6.36476 0.228738 11.0996)
(6.3051 0.383971 8.95956)
(6.59449 0.355185 8.09709)
(6.88428 0.268981 8.30353)
(7.0815 0.191112 9.03937)
(7.23969 0.167814 9.1888)
(7.42271 0.183088 9.09905)
(7.66749 0.215846 8.79751)
(8.07785 0.248173 9.44311)
(8.61452 0.274479 10.4318)
(9.42192 0.287278 12.8895)
(10.283 0.139429 13.2151)
(16.0737 -1.09677 -0.737485)
(16.2101 -0.860614 -0.00320813)
(16.2219 -0.721442 0.370016)
(16.2187 -0.613426 1.20579)
(16.2514 -0.514034 2.42761)
(16.3745 -0.436456 2.75966)
(16.5888 -0.385443 2.43392)
(16.9013 -0.348954 1.89115)
(17.2097 -0.301188 2.29405)
(17.5448 -0.0449647 4.34488)
(18.6962 0.557298 10.169)
(19.2978 0.821623 16.3966)
(18.4481 0.723772 19.2198)
(16.9101 0.469961 18.9558)
(15.4676 0.206806 17.1224)
(14.5011 0.00253976 14.6978)
(14.0169 -0.107146 12.1723)
(13.8504 -0.156124 9.83347)
(13.8715 -0.174163 8.05333)
(13.9918 -0.173602 7.07759)
(14.1404 -0.162532 6.24046)
(14.265 -0.148929 5.38181)
(14.3649 -0.147253 5.02049)
(14.4908 -0.156931 5.87029)
(14.7311 -0.134123 7.43916)
(15.0017 -0.0593255 7.73604)
(15.1759 0.0177648 7.06528)
(15.2188 0.0587173 5.70866)
(15.1226 0.0759443 4.70933)
(14.8562 0.0958477 4.48204)
(14.3877 0.136742 4.88979)
(13.75 0.194906 5.50461)
(12.9943 0.228983 6.03298)
(12.2259 0.184793 6.39101)
(11.6182 0.0519447 6.22738)
(11.2892 -0.0959856 6.09368)
(11.2466 -0.191309 5.79435)
(11.3606 -0.22272 5.44094)
(11.5653 -0.214554 4.89661)
(11.8153 -0.192929 4.39419)
(12.0952 -0.177774 4.21299)
(12.4279 -0.173048 4.73054)
(12.8202 -0.173401 5.33435)
(13.2599 -0.175895 5.75989)
(13.7501 -0.180411 6.03594)
(14.2938 -0.181277 6.32498)
(14.8618 -0.163898 6.90726)
(15.3586 -0.116065 7.68359)
(15.6737 -0.0394363 8.44036)
(15.7625 0.0893011 9.49754)
(15.5072 0.278 10.8867)
(14.7135 0.423586 12.107)
(13.4497 0.396971 12.6077)
(12.1729 0.200636 12.118)
(11.3406 -0.0277795 11.0726)
(11.1027 -0.159714 9.7893)
(11.242 -0.195448 8.45171)
(11.5659 -0.184916 7.13613)
(11.9761 -0.17148 6.09359)
(12.4701 -0.10555 5.24181)
(16.0293 0.459218 -0.244142)
(16.013 0.528295 0.238634)
(16.015 0.505564 0.453068)
(16.026 0.446889 0.931881)
(16.0667 0.39243 1.70828)
(16.1921 0.362106 2.01286)
(16.4147 0.319365 1.70333)
(16.749 0.276873 1.24084)
(17.1148 0.286752 1.66895)
(17.4397 0.491911 2.9887)
(18.3509 1.02387 5.48619)
(19.5925 1.16662 8.39166)
(20.2692 0.949523 10.2718)
(20.3257 0.592271 10.7929)
(20.0508 0.240055 10.3475)
(19.6608 -0.0362854 9.29612)
(19.275 -0.195335 7.9493)
(18.9942 -0.275544 6.48937)
(18.8298 -0.305393 5.27457)
(18.7404 -0.297024 4.62495)
(18.6669 -0.269677 4.06361)
(18.5668 -0.23542 3.47237)
(18.4283 -0.220538 3.20759)
(18.2518 -0.244002 3.85618)
(18.1194 -0.296098 5.13667)
(18.1256 -0.305824 5.5006)
(18.2729 -0.2453 5.0951)
(18.4974 -0.158078 4.20356)
(18.7321 -0.0678375 3.83276)
(18.8983 0.0358076 4.09885)
(18.9782 0.130309 4.66088)
(19.0058 0.199576 5.22981)
(19.0194 0.235403 5.6704)
(19.0536 0.224359 6.00855)
(19.0967 0.159048 6.11744)
(19.0431 0.0790018 6.20665)
(18.8539 0.0151867 6.05837)
(18.6227 -0.0199399 5.71428)
(18.406 -0.0348955 5.21809)
(18.213 -0.0421577 4.75316)
(18.0265 -0.0548252 4.48591)
(17.821 -0.0788351 4.64524)
(17.5957 -0.118542 4.86882)
(17.3768 -0.176758 4.96319)
(17.2158 -0.250626 4.9582)
(17.1574 -0.318535 4.99916)
(17.2064 -0.335576 5.3647)
(17.3152 -0.260242 5.98585)
(17.4086 -0.107799 6.63874)
(17.4432 0.0970936 7.53424)
(17.4511 0.349724 8.65265)
(17.4063 0.54768 9.71171)
(17.2411 0.571042 10.3732)
(16.9566 0.406586 10.4228)
(16.5809 0.139411 10.0475)
(16.1693 -0.102276 9.31928)
(15.8669 -0.253506 8.38328)
(15.7045 -0.323622 7.37616)
(15.6835 -0.363922 6.60537)
(15.7741 -0.272605 5.86468)
(15.9687 -0.0993681 -0.247628)
(15.9446 -0.202828 0.120395)
(15.9467 -0.278925 0.433558)
(15.9711 -0.34176 0.73213)
(16.0398 -0.378206 0.994468)
(16.1762 -0.376544 1.12904)
(16.3846 -0.387243 0.704769)
(16.7161 -0.402188 0.143323)
(17.1205 -0.33742 0.343143)
(17.495 -0.0827043 1.10961)
(18.1825 0.533903 2.09172)
(19.2125 0.85703 3.08246)
(20.061 0.760919 3.89402)
(20.4871 0.439154 4.23892)
(20.5439 0.0841792 4.06592)
(20.3688 -0.183 3.49103)
(20.1069 -0.346975 2.61072)
(19.8612 -0.433185 1.52902)
(19.6885 -0.470047 0.623124)
(19.5947 -0.468893 0.250666)
(19.5504 -0.448596 -0.101563)
(19.5731 -0.4165 -0.545076)
(19.5694 -0.38949 -0.75052)
(19.4194 -0.379588 -0.120435)
(19.1956 -0.369003 1.26046)
(19.1023 -0.330667 1.82187)
(19.0578 -0.261779 1.45921)
(19.0357 -0.186077 0.524285)
(19.0668 -0.122698 0.12684)
(19.0796 -0.0629841 0.253207)
(19.0112 0.0169039 0.6933)
(18.8951 0.100034 1.27472)
(18.7923 0.143879 1.80897)
(18.6979 0.108396 2.20768)
(18.559 0.00531379 2.37385)
(18.3514 -0.113813 2.50133)
(18.1356 -0.205163 2.35032)
(17.9647 -0.259255 1.96297)
(17.8569 -0.283549 1.53168)
(17.7997 -0.292968 1.19764)
(17.7744 -0.296948 1.06337)
(17.7611 -0.296027 1.32522)
(17.7375 -0.302692 1.68871)
(17.6927 -0.339356 1.92551)
(17.6497 -0.410948 2.04672)
(17.6483 -0.486919 2.18604)
(17.6972 -0.504994 2.61795)
(17.7625 -0.421283 3.2347)
(17.8246 -0.250455 3.81659)
(17.9429 -0.0106058 4.62156)
(18.1832 0.298605 5.67744)
(18.5099 0.537039 6.79869)
(18.797 0.549042 7.66311)
(18.9448 0.34943 8.0311)
(18.9444 0.0796299 8.07221)
(18.792 -0.146395 7.83016)
(18.569 -0.300039 7.36827)
(18.338 -0.383177 6.76194)
(18.1583 -0.443763 6.39855)
(18.0291 -0.374838 5.78216)
(15.9976 0.00785254 -0.0978364)
(15.996 0.0393699 0.0373015)
(16.0106 0.0766277 0.135916)
(16.0327 0.0986233 0.10196)
(16.0918 0.0987139 0.0020838)
(16.198 0.0910745 0.0910663)
(16.3757 0.0267589 -0.205625)
(16.7613 -0.0941353 -0.66557)
(17.249 -0.0478974 -0.547368)
(17.6484 0.192423 -0.0143812)
(18.1644 0.624572 0.4709)
(18.9069 0.837625 0.697356)
(19.6155 0.748093 0.864059)
(20.0701 0.506624 0.863699)
(20.2199 0.262895 0.585519)
(20.1143 0.0837909 0.0163678)
(19.9653 -0.0865703 -0.835327)
(19.902 -0.251121 -1.95265)
(19.842 -0.362413 -2.90601)
(19.6972 -0.389992 -3.24538)
(19.4605 -0.372225 -3.51575)
(19.1682 -0.318964 -3.86726)
(18.8875 -0.250667 -4.12035)
(18.6751 -0.211418 -3.60584)
(18.5197 -0.19593 -2.3736)
(18.4399 -0.163731 -1.78828)
(18.4882 -0.132661 -2.09181)
(18.681 -0.123243 -2.91006)
(18.9034 -0.124841 -3.1427)
(19.0515 -0.073315 -3.01405)
(19.1148 0.0668205 -2.69984)
(19.1549 0.225257 -2.2271)
(19.2012 0.32453 -1.76651)
(19.2482 0.330892 -1.43025)
(19.2725 0.263237 -1.22911)
(19.249 0.160643 -1.07253)
(19.1774 0.0534191 -1.16042)
(19.0854 -0.0383066 -1.4859)
(18.9804 -0.0975175 -1.77556)
(18.8588 -0.130478 -1.95465)
(18.7268 -0.142689 -1.97338)
(18.5839 -0.14178 -1.64421)
(18.4187 -0.150043 -1.16292)
(18.2371 -0.197497 -0.779321)
(18.0771 -0.296325 -0.491556)
(17.9953 -0.414152 -0.185205)
(18.0031 -0.456282 0.437855)
(18.0039 -0.362344 1.25238)
(17.9178 -0.18255 2.01065)
(17.7868 0.0384765 2.89925)
(17.7871 0.286784 3.93408)
(18.0132 0.480947 4.99666)
(18.3421 0.513041 5.81774)
(18.5775 0.376131 6.22066)
(18.6366 0.167407 6.41347)
(18.5478 -0.0209863 6.40188)
(18.3756 -0.170663 6.24926)
(18.1678 -0.265869 5.97501)
(17.9917 -0.347496 6.11421)
(17.8414 -0.311292 5.72795)
(15.9919 -0.00560814 -0.0717368)
(15.9812 -0.0214129 -0.0653395)
(15.9854 -0.0629054 -0.0913307)
(16.0029 -0.118683 -0.226556)
(16.0612 -0.18963 -0.426619)
(16.1594 -0.273045 -0.325103)
(16.3305 -0.40879 -0.55175)
(16.7765 -0.609786 -1.07768)
(17.39 -0.556212 -1.12579)
(17.9196 -0.298253 -0.718285)
(18.4217 0.0916816 -0.331741)
(19.0094 0.326259 -0.27251)
(19.567 0.301015 -0.296767)
(19.9549 0.12813 -0.427485)
(20.1199 -0.0527535 -0.75778)
(20.0889 -0.179744 -1.35614)
(19.9364 -0.28971 -2.22303)
(19.733 -0.343015 -3.47548)
(19.5392 -0.340523 -4.67462)
(19.3372 -0.3146 -5.17898)
(19.094 -0.272114 -5.51806)
(18.8648 -0.215952 -5.89097)
(18.7369 -0.180591 -6.24347)
(18.7401 -0.20044 -6.01212)
(18.8195 -0.240775 -5.12611)
(18.9655 -0.275541 -4.60299)
(19.1976 -0.310621 -4.7491)
(19.5152 -0.337728 -5.21111)
(19.8241 -0.351147 -5.00682)
(20.0485 -0.277307 -4.64608)
(20.1527 -0.129827 -4.353)
(20.1541 0.0227573 -3.97243)
(20.1095 0.113181 -3.56825)
(20.0353 0.114969 -3.25725)
(19.9149 0.0441789 -3.00446)
(19.7257 -0.0531013 -2.76316)
(19.4596 -0.131716 -2.71309)
(19.1404 -0.180859 -2.90557)
(18.8006 -0.204979 -3.05754)
(18.4571 -0.219063 -3.11188)
(18.1302 -0.224276 -3.00539)
(17.83 -0.221959 -2.55636)
(17.5463 -0.233098 -1.93355)
(17.2871 -0.289965 -1.41324)
(17.1104 -0.414875 -0.975581)
(17.0945 -0.563602 -0.537229)
(17.2266 -0.582682 0.136452)
(17.3301 -0.412669 0.904801)
(17.2908 -0.173441 1.5655)
(17.1608 0.0767155 2.36579)
(17.0607 0.305974 3.30171)
(17.0966 0.448795 4.29666)
(17.256 0.441846 5.0735)
(17.3976 0.307292 5.4597)
(17.4168 0.128253 5.73679)
(17.3174 -0.0180425 5.8904)
(17.1672 -0.12804 6.03027)
(16.9865 -0.188576 6.07441)
(16.8542 -0.248735 6.74142)
(16.7159 -0.22503 6.50759)
(15.9913 0.00216574 -0.0931545)
(15.9766 0.00127112 -0.162486)
(15.9765 0.0183327 -0.352521)
(15.9889 0.0421866 -0.675115)
(16.0421 0.0418872 -1.11211)
(16.1317 -0.00281463 -1.21374)
(16.2995 -0.20142 -1.61101)
(16.8359 -0.54876 -2.35548)
(17.5932 -0.49522 -2.75275)
(18.2289 -0.156796 -2.76885)
(18.7752 0.3076 -2.63234)
(19.3276 0.581743 -2.61682)
(19.8306 0.592459 -2.6556)
(20.1804 0.465177 -2.79683)
(20.3032 0.342631 -3.09005)
(20.1951 0.251894 -3.57447)
(19.9588 0.0950223 -4.27346)
(19.6944 -0.0746339 -5.41089)
(19.4302 -0.156804 -6.53294)
(19.1558 -0.140319 -6.95795)
(18.8812 -0.0779375 -7.16818)
(18.6595 -0.0263247 -7.31617)
(18.5165 -0.0193263 -7.39887)
(18.4389 -0.0602289 -7.07823)
(18.4088 -0.115369 -6.28089)
(18.4327 -0.171976 -5.6112)
(18.5354 -0.24523 -5.34757)
(18.7501 -0.297823 -5.23765)
(19.0199 -0.314604 -4.54705)
(19.2999 -0.208692 -3.93761)
(19.5491 -0.0224489 -3.66157)
(19.7373 0.162248 -3.42325)
(19.8493 0.283187 -3.14733)
(19.9024 0.322126 -2.93523)
(19.893 0.292843 -2.73115)
(19.8144 0.230922 -2.511)
(19.672 0.176272 -2.41024)
(19.4873 0.137986 -2.54236)
(19.2761 0.112271 -2.65086)
(19.0391 0.088788 -2.70635)
(18.7849 0.0647846 -2.63574)
(18.5218 0.0461386 -2.202)
(18.2399 0.0165224 -1.57914)
(17.9344 -0.0641414 -1.02522)
(17.6549 -0.239983 -0.500968)
(17.5081 -0.467531 0.0788297)
(17.5238 -0.530249 0.869584)
(17.5041 -0.31633 1.68538)
(17.3003 6.12023e-05 2.39885)
(16.9588 0.301675 3.24142)
(16.6628 0.518836 4.13882)
(16.5198 0.602453 5.0476)
(16.5219 0.546047 5.74333)
(16.5504 0.413753 6.06876)
(16.5103 0.276549 6.36334)
(16.3922 0.181049 6.57458)
(16.2504 0.114072 6.83587)
(16.1104 0.0807075 6.95697)
(16.0615 0.0285609 7.81054)
(15.9967 0.0231875 7.48557)
(15.9944 0.00215244 -0.12879)
(15.9899 -0.071664 -0.252518)
(16.0058 -0.133002 -0.422878)
(16.0215 -0.199464 -0.758181)
(16.0606 -0.280848 -1.2624)
(16.1025 -0.372535 -1.45173)
(16.2009 -0.603064 -2.08445)
(16.8249 -1.08086 -2.97396)
(17.7665 -1.02487 -3.49824)
(18.5267 -0.743767 -3.77348)
(19.1174 -0.422967 -3.89815)
(19.6109 -0.223653 -3.93412)
(20.0333 -0.168911 -4.02047)
(20.3206 -0.175181 -4.21804)
(20.3754 -0.140623 -4.58137)
(20.1521 -0.0641501 -5.16437)
(19.7629 -0.0908286 -6.05036)
(19.3642 -0.077833 -7.4983)
(19.0146 -0.00801854 -8.84254)
(18.664 0.0469705 -9.17852)
(18.2538 0.0743183 -8.96857)
(17.8014 0.0557038 -8.51231)
(17.3301 -0.0120526 -8.01945)
(16.8906 -0.123739 -7.42091)
(16.5118 -0.247863 -6.59325)
(16.2334 -0.359869 -5.77891)
(16.0843 -0.483262 -5.23177)
(16.1031 -0.571316 -4.73239)
(16.2529 -0.619839 -3.74466)
(16.4816 -0.509021 -3.01817)
(16.7124 -0.323356 -2.86163)
(16.9346 -0.150487 -2.83019)
(17.1303 -0.0281171 -2.75267)
(17.2789 0.0202765 -2.72101)
(17.35 0.00213721 -2.67532)
(17.3266 -0.0464914 -2.57603)
(17.2205 -0.0838287 -2.48683)
(17.07 -0.0956916 -2.5588)
(16.9045 -0.0894386 -2.58787)
(16.7288 -0.0777252 -2.57961)
(16.5485 -0.0682187 -2.48947)
(16.3638 -0.0602974 -1.89731)
(16.1477 -0.0649905 -1.11256)
(15.8904 -0.118171 -0.437633)
(15.6106 -0.299128 0.264462)
(15.4734 -0.556913 1.18924)
(15.5828 -0.554825 2.25794)
(15.681 -0.257258 3.04241)
(15.6145 0.101698 3.61415)
(15.5582 0.380331 4.33823)
(15.5884 0.541253 5.16484)
(15.7044 0.573294 6.05145)
(15.8807 0.494138 6.75959)
(16.0515 0.366266 7.07247)
(16.1667 0.237662 7.36969)
(16.2024 0.137041 7.62903)
(16.1707 0.0488977 8.06919)
(16.0388 -0.00969574 8.36952)
(15.8698 -0.0738323 9.40243)
(15.5459 -0.0700338 8.96099)
(15.9504 0.0891761 -0.147578)
(15.911 0.177968 -0.520977)
(15.9143 0.247856 -0.77206)
(15.9181 0.268245 -1.27465)
(15.959 0.23755 -1.97428)
(15.9891 0.150432 -2.11503)
(16.0209 -0.310052 -2.57371)
(16.7582 -1.10417 -2.78485)
(17.8902 -1.04475 -2.91573)
(18.7096 -0.539764 -4.16186)
(19.3587 0.0185284 -6.7511)
(19.9231 0.302799 -9.45554)
(20.2607 0.341679 -11.7028)
(20.1801 0.311043 -13.0886)
(19.6395 0.337201 -13.5422)
(18.7825 0.332501 -13.34)
(17.8767 0.164087 -12.9964)
(17.0868 0.0431854 -12.9914)
(16.4602 0.0453554 -12.8126)
(15.9843 0.101727 -11.8282)
(15.579 0.180005 -10.6123)
(15.1935 0.232528 -9.41717)
(14.7875 0.238739 -8.31401)