/*--------------------------------*- C++ -*----------------------------------*\
  =========                 |
  \\      /  F ield         | OpenFOAM: The Open Source CFD Toolbox
   \\    /   O peration     | Website:  https://openfoam.org
    \\  /    A nd           | Version:  8
     \\/     M anipulation  |
\*---------------------------------------------------------------------------*/
FoamFile
{
    version     2.0;
    format      ascii;
    class       volScalarField;
    location    "400";
    object      epsilon;
}
// * * * * * * * * * * * * * * * * * * * * * * * * * * * * * * * * * * * * * //

dimensions      [0 2 -3 0 0 0 0];

internalField   nonuniform List<scalar> 
8400
(
0.00792598
0.00776273
0.00761941
0.00748268
0.00734794
0.00721198
0.00707055
0.00691771
0.00674884
0.00656351
0.00636701
0.00617294
0.005983
0.00579556
0.00560891
0.00542168
0.00523287
0.00504169
0.00484795
0.00463945
0.00439117
0.00409356
0.00376433
0.00344349
0.0031821
0.00303258
0.00303199
0.00315904
0.0033091
0.00340225
0.00342496
0.00339812
0.00335372
0.00331654
0.00329529
0.00328324
0.00327459
0.0032785
0.0033058
0.00335256
0.00340138
0.00344033
0.00346793
0.00348258
0.00348196
0.00346656
0.00343914
0.00340283
0.0033619
0.00332154
0.00501076
0.00492641
0.00484683
0.0048039
0.00479046
0.00480306
0.00484469
0.00491932
0.00502566
0.00515551
0.00529762
0.00543018
0.00555125
0.00566431
0.00577158
0.00587322
0.00596684
0.0060473
0.00610587
0.00609806
0.00590822
0.00548199
0.0048202
0.00396779
0.00301144
0.00208414
0.00134328
0.00093915
0.000748418
0.000651406
0.000600656
0.00057156
0.000550026
0.000526711
0.000499486
0.00047268
0.000449206
0.000425496
0.000398739
0.000371504
0.000348687
0.000330919
0.000316625
0.000305283
0.00029653
0.000289727
0.000284394
0.000280074
0.000276337
0.000272876
0.00886986
0.00823387
0.00779773
0.00745037
0.00713535
0.00682951
0.00654684
0.00632675
0.0062129
0.00623087
0.0063712
0.006594
0.00685391
0.00715234
0.00749153
0.00786053
0.00822796
0.00854616
0.00875515
0.00885838
0.00885414
0.00866545
0.0082179
0.0074139
0.00617943
0.00453665
0.00259858
0.00172203
0.0014118
0.00128861
0.00122418
0.00117516
0.00113445
0.00109136
0.00102029
0.000948581
0.000893244
0.000836362
0.000763059
0.000684635
0.000622403
0.000575046
0.000535279
0.000502496
0.000477222
0.000457469
0.000441964
0.000429542
0.000418915
0.000408963
0.0131135
0.013046
0.0129753
0.0129014
0.0128238
0.0127416
0.0126535
0.0125572
0.0124492
0.0123263
0.0121517
0.0118059
0.01114
0.0101105
0.00896824
0.00813644
0.00775508
0.00799705
0.00897943
0.00938208
0.00960129
0.00972445
0.00978152
0.00979047
0.00975353
0.00961338
0.00419657
0.0027133
0.00254803
0.00243551
0.00236778
0.00232267
0.00226846
0.00219474
0.00194182
0.00177783
0.00169562
0.00160118
0.0014249
0.0012404
0.00112806
0.00104915
0.000980299
0.000923774
0.000881722
0.000848683
0.000822553
0.000801905
0.000784314
0.00076737
0.0131457
0.013119
0.0130914
0.0130628
0.0130328
0.0130014
0.0129678
0.012931
0.0128901
0.0128434
0.0127876
0.0127102
0.0125837
0.0123665
0.0120407
0.0116567
0.0112919
0.0110998
0.0109114
0.0107489
0.010613
0.0105048
0.0104183
0.010341
0.0102545
0.0101496
0.0100379
0.00952282
0.00879715
0.00787451
0.00702879
0.00645545
0.00637227
0.00522071
0.00325934
0.00310932
0.00306588
0.00301226
0.0024059
0.00193336
0.0017826
0.00166626
0.00154121
0.00146617
0.00141862
0.00138103
0.00135281
0.00133287
0.00131614
0.00129897
0.0131353
0.0130971
0.013059
0.0130213
0.0129839
0.0129473
0.0129115
0.0128761
0.0128413
0.0128064
0.0127703
0.0127302
0.0126793
0.0126045
0.0124936
0.0123492
0.012193
0.0120595
0.0119492
0.0118352
0.0117211
0.0116108
0.0115045
0.0114022
0.0113056
0.0112058
0.0110754
0.010894
0.0106332
0.0102628
0.00981809
0.00937813
0.00901232
0.00852881
0.00763975
0.00702169
0.00696614
0.00700638
0.00371689
0.00273483
0.00282928
0.00261494
0.00214125
0.00206284
0.0020298
0.00199782
0.00198251
0.00198157
0.00198197
0.00198041
0.0131313
0.013088
0.0130442
0.013
0.0129559
0.0129117
0.012868
0.0128251
0.0127835
0.0127436
0.0127054
0.0126685
0.0126309
0.0125884
0.012535
0.0124678
0.0123898
0.0123084
0.0122295
0.012155
0.0120827
0.0120099
0.0119372
0.0118644
0.011785
0.0116957
0.0115912
0.0114673
0.0113165
0.0111272
0.0108951
0.0106313
0.0103528
0.010037
0.00960375
0.00917217
0.00886483
0.00864115
0.00802234
0.00757144
0.00746615
0.00492682
0.00269009
0.00279462
0.00278171
0.00269161
0.00271536
0.00276793
0.00281213
0.00285434
0.0131245
0.0130733
0.0130215
0.0129695
0.0129179
0.0128663
0.0128151
0.0127648
0.0127159
0.0126687
0.0126238
0.0125817
0.0125421
0.0125038
0.0124641
0.0124201
0.0123707
0.0123165
0.0122589
0.0121997
0.0121395
0.0120795
0.0120191
0.0119573
0.0118921
0.0118224
0.011746
0.0116597
0.0115601
0.0114427
0.0113027
0.0111383
0.0109515
0.0107393
0.0104797
0.0101912
0.00991489
0.00966178
0.00934593
0.00898449
0.00863936
0.00784402
0.00694428
0.00660723
0.00378346
0.00325236
0.00339162
0.00350698
0.00360665
0.003715
0.0131155
0.0130536
0.0129912
0.0129288
0.0128666
0.0128048
0.0127437
0.0126841
0.0126262
0.0125704
0.0125176
0.0124682
0.0124224
0.0123801
0.01234
0.0122998
0.0122577
0.0122129
0.012165
0.0121147
0.0120622
0.0120075
0.0119508
0.0118934
0.0118353
0.0117765
0.0117159
0.0116517
0.0115814
0.0115021
0.0114104
0.011303
0.0111775
0.0110315
0.0108581
0.010658
0.0104436
0.010224
0.00998144
0.00969536
0.0093726
0.00891565
0.00830274
0.0077007
0.00661427
0.00578111
0.00525539
0.0038459
0.00402845
0.00425853
0.0131007
0.0130203
0.0129407
0.0128622
0.0127845
0.012708
0.0126337
0.0125618
0.0124924
0.0124262
0.0123636
0.0123055
0.0122525
0.0122038
0.0121589
0.012117
0.0120763
0.0120346
0.0119904
0.0119431
0.0118933
0.0118424
0.0117901
0.0117368
0.011684
0.0116326
0.0115822
0.0115319
0.0114805
0.0114259
0.0113646
0.0112936
0.0112095
0.0111092
0.0109884
0.0108454
0.0106823
0.010503
0.0103044
0.0100727
0.00980128
0.00946054
0.00900909
0.00848231
0.00779457
0.00707926
0.00641783
0.00574088
0.00537008
0.00504574
0.0130746
0.0129597
0.0128491
0.0127434
0.0126411
0.0125428
0.0124492
0.0123594
0.0122742
0.012195
0.0121224
0.0120552
0.0119942
0.0119407
0.0118935
0.0118505
0.0118097
0.011769
0.0117282
0.0116866
0.0116412
0.0115935
0.0115462
0.0115003
0.0114554
0.0114126
0.0113729
0.0113364
0.0113019
0.0112673
0.0112299
0.0111867
0.0111339
0.0110679
0.0109849
0.0108817
0.0107577
0.0106141
0.0104505
0.0102592
0.0100326
0.00975719
0.00940646
0.00898206
0.0084692
0.00790303
0.00733502
0.00680707
0.00638633
0.00605258
0.0130107
0.0128111
0.0126417
0.0124901
0.0123504
0.0122207
0.0121011
0.0119908
0.0118908
0.0117999
0.011719
0.011651
0.0115918
0.0115418
0.0115002
0.011464
0.0114319
0.0114011
0.0113662
0.0113308
0.0112941
0.0112558
0.0112182
0.011184
0.0111529
0.0111261
0.0111041
0.0110864
0.0110719
0.0110582
0.0110437
0.0110247
0.010998
0.0109596
0.0109056
0.0108324
0.0107381
0.0106233
0.0104877
0.0103269
0.0101354
0.00990569
0.00962184
0.0092792
0.00887671
0.00843091
0.00797362
0.00754088
0.00716467
0.00685748
0.0126115
0.0123577
0.0121439
0.0119478
0.0117736
0.0116188
0.0114807
0.0113612
0.0112642
0.0111854
0.0111162
0.0110627
0.011025
0.0109965
0.0109764
0.0109584
0.0109413
0.0109268
0.0109063
0.0108814
0.0108562
0.0108348
0.010817
0.0108102
0.0108061
0.0108051
0.0108088
0.0108149
0.0108228
0.0108304
0.0108386
0.0108421
0.0108364
0.0108189
0.0107857
0.0107339
0.0106611
0.0105676
0.0104533
0.0103157
0.0101511
0.00995474
0.00971736
0.00943551
0.00911155
0.00875615
0.00838993
0.00803743
0.00772015
0.00745072
0.0118135
0.0115529
0.0113269
0.0111344
0.0109774
0.0108523
0.0107545
0.0106805
0.0106264
0.0105887
0.0105628
0.0105446
0.0105319
0.0105216
0.0105113
0.0104976
0.0104792
0.0104562
0.0104314
0.0104079
0.0103892
0.0103799
0.0103831
0.0104005
0.0104272
0.0104604
0.010498
0.0105358
0.0105722
0.0106052
0.010634
0.0106576
0.0106684
0.0106655
0.0106456
0.0106068
0.0105477
0.0104678
0.0103686
0.0102478
0.0101026
0.00993056
0.00972696
0.00949012
0.0092231
0.00893458
0.00863872
0.00835167
0.00808776
0.00785542
0.0108234
0.010637
0.0104813
0.0103599
0.0102685
0.0102012
0.0101523
0.0101171
0.0100908
0.0100704
0.0100536
0.0100375
0.010021
0.0100028
0.0099826
0.00996103
0.00993979
0.00992066
0.00990779
0.00990433
0.00991363
0.00993715
0.00997461
0.0100239
0.0100812
0.0101433
0.0102075
0.01027
0.010329
0.0103839
0.0104305
0.0104672
0.0104899
0.0104975
0.0104869
0.0104575
0.0104059
0.0103333
0.010243
0.0101332
0.0100015
0.00984747
0.00966901
0.00946555
0.00924068
0.00900165
0.00875906
0.00852272
0.00830173
0.00810121
0.00996299
0.00986323
0.00978091
0.00971715
0.0096687
0.00963202
0.00960417
0.00958279
0.00956587
0.00955222
0.00954115
0.00953198
0.0095247
0.00951943
0.00951668
0.00951763
0.00952431
0.00953819
0.00956086
0.00959233
0.0096329
0.0096818
0.00973796
0.00979978
0.00986517
0.00993228
0.00999935
0.0100642
0.010125
0.0101808
0.0102286
0.0102661
0.0102911
0.0103019
0.0102959
0.0102717
0.0102277
0.0101643
0.0100836
0.00997495
0.00985245
0.00971168
0.00955137
0.00937233
0.00917957
0.00897782
0.00877491
0.00857678
0.00838875
0.0082137
0.00936991
0.00933031
0.00929847
0.00927471
0.00925786
0.00924702
0.00924121
0.00923952
0.00924134
0.00924644
0.00925441
0.0092649
0.00927798
0.00929414
0.00931398
0.00933781
0.00936572
0.00939751
0.00943348
0.00947325
0.00951695
0.00956395
0.00961343
0.00966469
0.00971711
0.00977004
0.00982261
0.00987374
0.00992167
0.00996483
0.0100019
0.0100311
0.0100501
0.0100567
0.0100494
0.0100275
0.00998921
0.00993478
0.00986422
0.00977175
0.00966005
0.00951819
0.00937293
0.00921301
0.00904405
0.00887013
0.00869616
0.00852636
0.00836295
0.00820704
0.00906016
0.00905389
0.00905024
0.00904932
0.00905094
0.00905494
0.00906119
0.00906946
0.00907948
0.00909116
0.00910434
0.00911921
0.0091359
0.00915425
0.00917418
0.00919583
0.00921939
0.00924509
0.00927312
0.0093031
0.00933511
0.00936907
0.00940463
0.00944158
0.00947973
0.00951829
0.00955611
0.00959266
0.00962734
0.00965838
0.00968421
0.0097035
0.00971549
0.00971842
0.00971033
0.00969078
0.00965881
0.00961381
0.00955522
0.00948091
0.00938954
0.0092745
0.00912225
0.00897632
0.00882371
0.00867023
0.00851756
0.00836779
0.00822169
0.00807998
0.00887135
0.00886637
0.00886118
0.00885594
0.0088511
0.00884686
0.0088433
0.00884048
0.00883863
0.00883798
0.00883834
0.00883971
0.00884231
0.00884636
0.00885221
0.00886011
0.00886993
0.00888178
0.00889613
0.00891298
0.00893227
0.00895408
0.00897825
0.00900431
0.00903181
0.00906038
0.00908924
0.00911722
0.00914336
0.00916693
0.00918732
0.00920265
0.00921187
0.00921491
0.00921029
0.00919662
0.00917412
0.00914195
0.0090984
0.00904374
0.00897687
0.00889309
0.0087846
0.00862702
0.00848329
0.00834185
0.0082029
0.00806685
0.0079333
0.00780239
0.0233494
0.0229077
0.0224798
0.0220505
0.0216156
0.0211732
0.0207238
0.020269
0.0198107
0.0193515
0.0188933
0.0184379
0.017987
0.0175413
0.017101
0.0166669
0.0162388
0.0158161
0.0153988
0.0149872
0.0145822
0.0141846
0.0137957
0.0134172
0.013051
0.0126984
0.0123606
0.012039
0.0117337
0.0114439
0.0111699
0.0109108
0.0106645
0.0104294
0.0102044
0.00998664
0.00977456
0.00956725
0.00936241
0.00915899
0.00895743
0.00875603
0.00855324
0.00832927
0.00820787
0.00816362
0.00816523
0.0081981
0.00825095
0.00831696
9.32901e-06
9.20337e-06
9.08468e-06
8.97276e-06
8.86623e-06
8.7618e-06
8.65871e-06
8.5565e-06
8.45442e-06
8.35213e-06
8.24948e-06
8.1465e-06
8.0434e-06
7.94048e-06
7.83808e-06
7.73659e-06
7.6364e-06
7.5379e-06
7.4414e-06
7.34715e-06
7.25511e-06
7.14004e-06
7.03252e-06
6.92959e-06
6.82978e-06
6.7323e-06
6.63671e-06
6.54285e-06
6.45072e-06
6.36047e-06
6.26716e-06
6.17519e-06
6.0868e-06
6.00299e-06
5.9241e-06
5.85015e-06
5.78095e-06
5.71615e-06
5.65536e-06
5.59811e-06
5.5439e-06
5.4917e-06
5.44101e-06
5.39116e-06
5.34129e-06
5.29069e-06
5.23869e-06
5.1848e-06
5.12891e-06
5.07117e-06
8.97819e-06
8.37715e-06
7.83296e-06
7.33775e-06
6.88638e-06
6.47602e-06
6.10164e-06
5.75903e-06
5.44455e-06
5.15508e-06
4.88792e-06
4.64083e-06
4.41198e-06
4.19983e-06
4.00309e-06
3.82063e-06
3.65137e-06
3.49429e-06
3.34839e-06
3.21276e-06
7.31921e-07
3.09385e-06
3.08857e-06
7.29965e-07
7.26915e-07
7.23334e-07
7.19469e-07
7.15489e-07
7.11519e-07
7.07698e-07
7.05772e-07
7.05439e-07
7.06117e-07
7.07281e-07
7.08546e-07
7.09668e-07
7.1051e-07
7.11001e-07
7.11107e-07
7.10814e-07
7.10106e-07
7.09028e-07
7.07555e-07
7.0568e-07
7.03421e-07
7.0077e-07
6.97674e-07
6.93996e-07
6.89526e-07
6.84127e-07
8.97659e-06
8.37062e-06
7.8186e-06
7.31541e-06
6.85556e-06
6.43421e-06
6.04716e-06
5.69064e-06
5.36143e-06
5.05672e-06
4.77418e-06
4.51181e-06
4.26794e-06
4.04111e-06
3.83006e-06
3.63366e-06
3.45085e-06
3.28063e-06
3.12224e-06
7.2801e-07
7.2111e-07
7.15858e-07
7.11259e-07
7.06867e-07
7.0245e-07
6.97899e-07
6.93174e-07
6.88286e-07
6.83275e-07
6.78204e-07
6.73234e-07
6.68438e-07
6.63853e-07
6.59493e-07
6.55354e-07
6.51419e-07
6.47663e-07
6.44062e-07
6.40589e-07
6.37211e-07
6.33895e-07
6.30603e-07
6.27291e-07
6.23913e-07
6.2043e-07
6.16833e-07
6.13157e-07
6.09442e-07
6.05602e-07
6.01208e-07
8.9766e-06
8.37463e-06
7.82679e-06
7.32718e-06
6.87014e-06
6.4509e-06
6.06522e-06
5.70943e-06
5.38039e-06
5.07539e-06
4.79215e-06
4.52873e-06
4.28352e-06
4.05512e-06
3.84232e-06
3.64404e-06
3.45927e-06
3.28706e-06
3.12612e-06
7.19895e-07
7.1817e-07
7.15216e-07
7.11467e-07
7.07179e-07
7.02501e-07
6.97518e-07
6.92289e-07
6.86862e-07
6.8129e-07
6.7563e-07
6.69944e-07
6.6429e-07
6.58721e-07
6.53282e-07
6.48004e-07
6.42905e-07
6.37987e-07
6.33243e-07
6.28657e-07
6.24205e-07
6.19858e-07
6.15584e-07
6.11345e-07
6.07094e-07
6.02767e-07
5.98304e-07
5.93693e-07
5.89034e-07
5.84478e-07
5.79831e-07
8.97651e-06
8.37435e-06
7.82594e-06
7.32555e-06
6.8677e-06
6.44777e-06
6.06161e-06
5.70557e-06
5.37648e-06
5.07157e-06
4.78851e-06
4.52532e-06
4.28033e-06
4.05213e-06
3.8395e-06
3.64136e-06
3.45673e-06
3.28465e-06
3.1245e-06
7.3159e-07
7.25675e-07
7.20029e-07
7.14553e-07
7.09148e-07
7.03737e-07
6.98267e-07
6.92708e-07
6.87055e-07
6.81325e-07
6.75549e-07
6.69768e-07
6.64029e-07
6.58375e-07
6.52845e-07
6.47465e-07
6.42249e-07
6.37197e-07
6.32302e-07
6.27549e-07
6.22914e-07
6.18371e-07
6.13889e-07
6.09442e-07
6.05005e-07
6.00543e-07
5.95992e-07
5.91281e-07
5.86397e-07
5.81491e-07
5.76549e-07
8.97641e-06
8.37427e-06
7.82616e-06
7.32627e-06
6.86916e-06
6.45004e-06
6.06469e-06
5.70944e-06
5.38107e-06
5.07679e-06
4.79424e-06
4.53142e-06
4.28666e-06
4.05856e-06
3.84593e-06
3.64772e-06
3.46296e-06
3.29071e-06
3.13028e-06
7.29062e-07
7.2186e-07
7.16166e-07
7.11185e-07
7.06452e-07
7.01712e-07
6.96836e-07
6.91772e-07
6.8652e-07
6.81108e-07
6.75583e-07
6.70002e-07
6.64422e-07
6.58897e-07
6.53471e-07
6.4817e-07
6.43009e-07
6.37989e-07
6.33101e-07
6.28329e-07
6.23655e-07
6.19052e-07
6.14491e-07
6.09939e-07
6.05372e-07
6.00779e-07
5.96147e-07
5.91429e-07
5.86557e-07
5.81587e-07
5.76562e-07
8.97629e-06
8.37386e-06
7.82552e-06
7.32549e-06
6.86827e-06
6.44909e-06
6.06375e-06
5.70854e-06
5.38023e-06
5.07602e-06
4.7935e-06
4.53068e-06
4.28588e-06
4.05772e-06
3.84502e-06
3.64674e-06
3.46193e-06
3.28964e-06
3.1292e-06
7.28844e-07
7.21559e-07
7.15784e-07
7.10741e-07
7.0599e-07
7.01273e-07
6.9645e-07
6.91462e-07
6.86297e-07
6.8098e-07
6.75552e-07
6.70068e-07
6.64586e-07
6.59159e-07
6.53827e-07
6.48611e-07
6.43521e-07
6.38553e-07
6.33698e-07
6.28939e-07
6.24257e-07
6.19633e-07
6.15044e-07
6.10463e-07
6.05857e-07
6.012e-07
5.9649e-07
5.91726e-07
5.86847e-07
5.81862e-07
5.76805e-07
8.97618e-06
8.37347e-06
7.82489e-06
7.32481e-06
6.86768e-06
6.44875e-06
6.0638e-06
5.70906e-06
5.3812e-06
5.0774e-06
4.79521e-06
4.53262e-06
4.28797e-06
4.05989e-06
3.84722e-06
3.64892e-06
3.46406e-06
3.29172e-06
3.1312e-06
7.31675e-07
7.24563e-07
7.17996e-07
7.12022e-07
7.06501e-07
7.01253e-07
6.96119e-07
6.90989e-07
6.858e-07
6.80533e-07
6.75201e-07
6.69837e-07
6.64488e-07
6.59194e-07
6.53987e-07
6.4888e-07
6.43879e-07
6.38976e-07
6.3416e-07
6.29413e-07
6.24717e-07
6.20056e-07
6.1542e-07
6.10796e-07
6.0616e-07
6.01488e-07
5.96752e-07
5.91956e-07
5.87068e-07
5.82081e-07
5.77005e-07
8.97608e-06
8.37309e-06
7.82426e-06
7.32402e-06
6.86692e-06
6.44815e-06
6.06345e-06
5.70898e-06
5.38139e-06
5.07777e-06
4.7957e-06
4.53314e-06
4.28846e-06
4.06029e-06
3.84749e-06
3.64904e-06
3.46402e-06
3.29152e-06
3.13089e-06
7.31651e-07
7.24559e-07
7.17973e-07
7.11958e-07
7.06392e-07
7.01106e-07
6.95948e-07
6.9081e-07
6.85628e-07
6.80383e-07
6.75087e-07
6.69774e-07
6.64486e-07
6.59259e-07
6.54116e-07
6.49066e-07
6.44108e-07
6.39233e-07
6.34426e-07
6.29667e-07
6.24939e-07
6.20226e-07
6.15525e-07
6.1084e-07
6.06154e-07
6.01456e-07
5.96715e-07
5.91917e-07
5.87043e-07
5.8208e-07
5.77017e-07
8.97595e-06
8.37262e-06
7.82351e-06
7.32313e-06
6.86603e-06
6.44744e-06
6.063e-06
5.70883e-06
5.38153e-06
5.07817e-06
4.79629e-06
4.53387e-06
4.28927e-06
4.06112e-06
3.84829e-06
3.64977e-06
3.46466e-06
3.29206e-06
3.13133e-06
7.31701e-07
7.24591e-07
7.17991e-07
7.11963e-07
7.06385e-07
7.01086e-07
6.95917e-07
6.90768e-07
6.85581e-07
6.80339e-07
6.75055e-07
6.69765e-07
6.64507e-07
6.59312e-07
6.542e-07
6.49175e-07
6.44233e-07
6.39361e-07
6.34537e-07
6.29743e-07
6.24964e-07
6.20191e-07
6.15423e-07
6.10671e-07
6.05939e-07
6.01212e-07
5.96472e-07
5.91693e-07
5.86859e-07
5.81938e-07
5.76924e-07
8.97585e-06
8.37221e-06
7.82279e-06
7.32226e-06
6.86516e-06
6.44669e-06
6.06245e-06
5.70851e-06
5.38144e-06
5.07829e-06
4.79658e-06
4.53428e-06
4.28974e-06
4.06159e-06
3.84871e-06
3.6501e-06
3.46489e-06
3.29219e-06
3.13136e-06
7.31657e-07
7.24495e-07
7.17928e-07
7.1196e-07
7.06433e-07
7.01167e-07
6.96017e-07
6.90886e-07
6.85722e-07
6.80514e-07
6.75282e-07
6.7006e-07
6.64883e-07
6.59776e-07
6.54752e-07
6.4981e-07
6.44936e-07
6.40106e-07
6.35293e-07
6.30473e-07
6.25635e-07
6.20786e-07
6.15934e-07
6.11086e-07
6.06267e-07
6.01469e-07
5.96682e-07
5.91883e-07
5.87047e-07
5.82132e-07
5.77126e-07
8.97575e-06
8.37183e-06
7.82213e-06
7.32142e-06
6.86429e-06
6.4459e-06
6.0618e-06
5.70805e-06
5.38116e-06
5.07817e-06
4.7966e-06
4.53439e-06
4.28987e-06
4.0617e-06
3.84874e-06
3.65004e-06
3.46472e-06
3.29193e-06
3.13103e-06
7.29062e-07
7.2173e-07
7.15919e-07
7.10846e-07
7.06051e-07
7.01287e-07
6.96432e-07
6.91442e-07
6.8632e-07
6.81101e-07
6.75837e-07
6.70584e-07
6.65386e-07
6.60274e-07
6.55256e-07
6.50324e-07
6.45454e-07
6.40614e-07
6.35771e-07
6.30898e-07
6.25985e-07
6.21042e-07
6.16098e-07
6.11164e-07
6.06266e-07
6.01411e-07
5.96595e-07
5.91797e-07
5.86976e-07
5.82099e-07
5.77119e-07
8.97562e-06
8.37142e-06
7.82147e-06
7.3206e-06
6.86344e-06
6.44512e-06
6.06118e-06
5.70764e-06
5.38098e-06
5.07822e-06
4.79684e-06
4.53478e-06
4.29036e-06
4.06222e-06
3.84927e-06
3.65056e-06
3.46522e-06
3.29241e-06
3.13148e-06
7.29116e-07
7.2174e-07
7.1592e-07
7.10855e-07
7.06073e-07
7.01317e-07
6.96461e-07
6.91461e-07
6.86325e-07
6.81093e-07
6.75822e-07
6.7057e-07
6.65383e-07
6.6029e-07
6.55294e-07
6.50379e-07
6.45516e-07
6.40664e-07
6.35787e-07
6.30861e-07
6.2588e-07
6.20857e-07
6.15828e-07
6.10825e-07
6.05872e-07
6.00987e-07
5.9617e-07
5.91398e-07
5.86623e-07
5.81809e-07
5.76896e-07
8.97553e-06
8.37111e-06
7.82091e-06
7.31987e-06
6.8626e-06
6.44423e-06
6.06028e-06
5.70673e-06
5.38007e-06
5.07728e-06
4.79583e-06
4.53368e-06
4.28914e-06
4.06088e-06
3.84781e-06
3.64901e-06
3.46361e-06
3.29076e-06
3.12979e-06
7.28848e-07
7.21479e-07
7.15662e-07
7.10599e-07
7.05822e-07
7.01078e-07
6.96245e-07
6.91282e-07
6.86199e-07
6.81039e-07
6.7586e-07
6.70716e-07
6.65646e-07
6.60669e-07
6.55778e-07
6.50949e-07
6.46143e-07
6.41314e-07
6.36422e-07
6.31444e-07
6.26382e-07
6.2126e-07
6.16118e-07
6.11002e-07
6.05952e-07
6.00992e-07
5.96128e-07
5.91333e-07
5.86569e-07
5.8177e-07
5.76891e-07
8.97547e-06
8.37089e-06
7.82051e-06
7.31942e-06
6.86223e-06
6.44405e-06
6.06036e-06
5.7071e-06
5.38071e-06
5.07815e-06
4.79688e-06
4.53486e-06
4.29042e-06
4.06223e-06
3.84922e-06
3.65046e-06
3.46508e-06
3.29221e-06
3.13119e-06
7.29108e-07
7.21804e-07
7.16002e-07
7.10894e-07
7.06048e-07
7.01232e-07
6.96336e-07
6.91325e-07
6.86218e-07
6.81057e-07
6.75899e-07
6.70794e-07
6.65775e-07
6.60853e-07
6.56013e-07
6.51225e-07
6.4644e-07
6.41609e-07
6.36689e-07
6.31657e-07
6.2652e-07
6.21314e-07
6.16084e-07
6.10889e-07
6.05777e-07
6.00781e-07
5.95907e-07
5.9113e-07
5.86415e-07
5.81684e-07
5.76875e-07
8.97543e-06
8.37049e-06
7.81956e-06
7.31778e-06
6.85988e-06
6.441e-06
6.05665e-06
5.70279e-06
5.37588e-06
5.07288e-06
4.79129e-06
4.52903e-06
4.28445e-06
4.05621e-06
3.84323e-06
3.64456e-06
3.45931e-06
3.28658e-06
3.12576e-06
7.31674e-07
7.25779e-07
7.20032e-07
7.14402e-07
7.08843e-07
7.03314e-07
6.97788e-07
6.92263e-07
6.86757e-07
6.81302e-07
6.75936e-07
6.70692e-07
6.65585e-07
6.60613e-07
6.55749e-07
6.50948e-07
6.46155e-07
6.41311e-07
6.36373e-07
6.31318e-07
6.26158e-07
6.20934e-07
6.15699e-07
6.10519e-07
6.05449e-07
6.00527e-07
5.95761e-07
5.91135e-07
5.86589e-07
5.8208e-07
5.77526e-07
8.97543e-06
8.37045e-06
7.81984e-06
7.31874e-06
6.86165e-06
6.44351e-06
6.05974e-06
5.70626e-06
5.37954e-06
5.07661e-06
4.79497e-06
4.53259e-06
4.28783e-06
4.0594e-06
3.8462e-06
3.6473e-06
3.46178e-06
3.28876e-06
3.12699e-06
7.20063e-07
7.18276e-07
7.15228e-07
7.11354e-07
7.0693e-07
7.02132e-07
6.97087e-07
6.91892e-07
6.86629e-07
6.81368e-07
6.7617e-07
6.71079e-07
6.66123e-07
6.61301e-07
6.56591e-07
6.51945e-07
6.47305e-07
6.42611e-07
6.37824e-07
6.32928e-07
6.27939e-07
6.22904e-07
6.17885e-07
6.12954e-07
6.08174e-07
6.03589e-07
5.99212e-07
5.9504e-07
5.9101e-07
5.87076e-07
5.83197e-07
8.97544e-06
8.36638e-06
7.81134e-06
7.30647e-06
6.84641e-06
6.42619e-06
6.04116e-06
5.68712e-06
5.36042e-06
5.05796e-06
4.77716e-06
4.51592e-06
4.27252e-06
4.04561e-06
3.83405e-06
3.63685e-06
3.45307e-06
3.28178e-06
3.12239e-06
7.31521e-07
7.25698e-07
7.20209e-07
7.14832e-07
7.09506e-07
7.04212e-07
6.99033e-07
6.94043e-07
6.89224e-07
6.84556e-07
6.8004e-07
6.75694e-07
6.71539e-07
6.67583e-07
6.63807e-07
6.60167e-07
6.56598e-07
6.53033e-07
6.49416e-07
6.4572e-07
6.41948e-07
6.38135e-07
6.34342e-07
6.30645e-07
6.27114e-07
6.23801e-07
6.20736e-07
6.17913e-07
6.15319e-07
6.12902e-07
6.1066e-07
8.97723e-06
8.37321e-06
7.82609e-06
7.32942e-06
6.87821e-06
6.46925e-06
6.0973e-06
5.75759e-06
5.44602e-06
5.15911e-06
4.89396e-06
4.64819e-06
4.41993e-06
4.2077e-06
4.01031e-06
3.82672e-06
3.65604e-06
3.49737e-06
3.34991e-06
3.21235e-06
7.31885e-07
3.09401e-06
3.08911e-06
7.30083e-07
7.2705e-07
7.25197e-07
7.24346e-07
7.24058e-07
7.23942e-07
7.23777e-07
7.2351e-07
7.23181e-07
7.2285e-07
7.22548e-07
7.22258e-07
7.21918e-07
7.21443e-07
7.20748e-07
7.19777e-07
7.18522e-07
7.17017e-07
7.15337e-07
7.13584e-07
7.11861e-07
7.10255e-07
7.0883e-07
7.0758e-07
7.06516e-07
7.05661e-07
7.0508e-07
9.32702e-06
9.20061e-06
9.08132e-06
8.96885e-06
8.86198e-06
8.75706e-06
8.65313e-06
8.54968e-06
8.44637e-06
8.34304e-06
8.23974e-06
8.13665e-06
8.03411e-06
7.9325e-06
7.83218e-06
7.73348e-06
7.63662e-06
7.54171e-06
7.44872e-06
7.35753e-06
7.26719e-06
7.15282e-06
7.04542e-06
6.94232e-06
6.84235e-06
6.73917e-06
6.63696e-06
6.53824e-06
6.44411e-06
6.3547e-06
6.26948e-06
6.18769e-06
6.10848e-06
6.03116e-06
5.95513e-06
5.88e-06
5.80559e-06
5.73195e-06
5.6593e-06
5.588e-06
5.5185e-06
5.4512e-06
5.38634e-06
5.32395e-06
5.26381e-06
5.20545e-06
5.14841e-06
5.09159e-06
5.03433e-06
4.97575e-06
5.67171e-05
8.42652e-06
8.84321e-06
8.20491e-06
6.06631e-06
3.92221e-06
7.1011e-07
5.98377e-07
5.14393e-07
4.59356e-07
4.40169e-07
4.83165e-07
5.3736e-07
5.93963e-07
6.50085e-07
6.97389e-07
3.20079e-06
4.09054e-06
8.74156e-06
0.000141998
5.41692e-05
8.20746e-06
8.88776e-06
8.25063e-06
6.06898e-06
3.89559e-06
7.05351e-07
5.93626e-07
5.0928e-07
4.53095e-07
4.31748e-07
4.77948e-07
5.31769e-07
5.88849e-07
6.46789e-07
6.95935e-07
3.20719e-06
4.16212e-06
9.44479e-06
0.000155189
5.17076e-05
8.01184e-06
8.93478e-06
8.29951e-06
6.08001e-06
3.88021e-06
7.0178e-07
5.90314e-07
5.05864e-07
4.48824e-07
4.25307e-07
4.6898e-07
5.25177e-07
5.83898e-07
6.43315e-07
6.93805e-07
3.18903e-06
4.16272e-06
9.69262e-06
0.000161792
4.93319e-05
7.84043e-06
8.9833e-06
8.3518e-06
6.10049e-06
3.87689e-06
6.9953e-07
5.88442e-07
5.04012e-07
4.4627e-07
4.20559e-07
4.61607e-07
5.19061e-07
5.79174e-07
6.39994e-07
6.91783e-07
3.17197e-06
4.16432e-06
9.93327e-06
0.000168152
4.7039e-05
7.69313e-06
9.03256e-06
8.40794e-06
6.13125e-06
3.88601e-06
6.98603e-07
5.87916e-07
5.03545e-07
4.45215e-07
4.17453e-07
4.55159e-07
5.13247e-07
5.74645e-07
6.36815e-07
6.89857e-07
3.15588e-06
4.16662e-06
1.01643e-05
0.000174226
4.48287e-05
7.56891e-06
9.08193e-06
8.46832e-06
6.17273e-06
3.90733e-06
6.9889e-07
5.88539e-07
5.04183e-07
4.45297e-07
4.15582e-07
4.49352e-07
5.07672e-07
5.70274e-07
6.33752e-07
6.88011e-07
3.14062e-06
4.16926e-06
1.03831e-05
0.000179974
4.27003e-05
7.46611e-06
9.13097e-06
8.5332e-06
6.22485e-06
3.9401e-06
7.00224e-07
5.90072e-07
5.05625e-07
4.4616e-07
4.1463e-07
4.43926e-07
5.02261e-07
5.66029e-07
6.30785e-07
6.86232e-07
3.12606e-06
4.17191e-06
1.05874e-05
0.000185363
4.06531e-05
7.38238e-06
9.17944e-06
8.60274e-06
6.28695e-06
3.98291e-06
7.0238e-07
5.92248e-07
5.07571e-07
4.47494e-07
4.14427e-07
4.3874e-07
4.96953e-07
5.61879e-07
6.27895e-07
6.8451e-07
3.11208e-06
4.17429e-06
1.07751e-05
0.000190368
3.86865e-05
7.31483e-06
9.22714e-06
8.67671e-06
6.3579e-06
4.03398e-06
7.05113e-07
5.94797e-07
5.09744e-07
4.49027e-07
4.14796e-07
4.33764e-07
4.91706e-07
5.57803e-07
6.25072e-07
6.82835e-07
3.0986e-06
4.17613e-06
1.09446e-05
0.000194972
3.67992e-05
7.26033e-06
9.27407e-06
8.75472e-06
6.43613e-06
4.09122e-06
7.08169e-07
5.97469e-07
5.11886e-07
4.50489e-07
4.15426e-07
4.29079e-07
4.86525e-07
5.53789e-07
6.22304e-07
6.81199e-07
3.08553e-06
4.1772e-06
1.10946e-05
0.000199162
3.49891e-05
7.21561e-06
9.32021e-06
8.83616e-06
6.51978e-06
4.15258e-06
7.11313e-07
6.00053e-07
5.13797e-07
4.51663e-07
4.15952e-07
4.24708e-07
4.81421e-07
5.49834e-07
6.19588e-07
6.79598e-07
3.07279e-06
4.17735e-06
1.12241e-05
0.000202935
3.32542e-05
7.17781e-06
9.36568e-06
8.92048e-06
6.60696e-06
4.21614e-06
7.14345e-07
6.02384e-07
5.15322e-07
4.52379e-07
4.16051e-07
4.20644e-07
4.76409e-07
5.45942e-07
6.16923e-07
6.78033e-07
7.25632e-07
4.17646e-06
1.13327e-05
0.000206294
3.15917e-05
7.1445e-06
9.41094e-06
9.00693e-06
6.69608e-06
4.28044e-06
7.17114e-07
6.04353e-07
5.1637e-07
4.52539e-07
4.15478e-07
4.16821e-07
4.7151e-07
5.42128e-07
6.14321e-07
6.7651e-07
7.23704e-07
4.17446e-06
1.14203e-05
0.000209248
2.99989e-05
7.11405e-06
9.45623e-06
9.09467e-06
6.78609e-06
4.34444e-06
7.19515e-07
6.05897e-07
5.16895e-07
4.52113e-07
4.14135e-07
4.13182e-07
4.66762e-07
5.38418e-07
6.11797e-07
6.75038e-07
7.21815e-07
4.17133e-06
1.14872e-05
0.000211814
2.84738e-05
7.08556e-06
9.50169e-06
9.18319e-06
6.87625e-06
4.40743e-06
7.21482e-07
6.0699e-07
5.16894e-07
4.51121e-07
4.11978e-07
4.09712e-07
4.62224e-07
5.34854e-07
6.09379e-07
6.73632e-07
7.19962e-07
4.16706e-06
1.1534e-05
0.000214011
2.70141e-05
7.05863e-06
9.54742e-06
9.27215e-06
6.96604e-06
4.46891e-06
7.22981e-07
6.07636e-07
5.16399e-07
4.49621e-07
4.08946e-07
4.06438e-07
4.57969e-07
5.31487e-07
6.07093e-07
6.72307e-07
7.20299e-07
4.16172e-06
1.15615e-05
0.000215862
2.56174e-05
7.03299e-06
9.59345e-06
9.36126e-06
7.05506e-06
4.52857e-06
7.2401e-07
6.07864e-07
5.15471e-07
4.47711e-07
4.04942e-07
4.03368e-07
4.54069e-07
5.28364e-07
6.04964e-07
6.71066e-07
7.19971e-07
4.15527e-06
1.15708e-05
0.000217397
2.42812e-05
7.0085e-06
9.63972e-06
9.45026e-06
7.14293e-06
4.58628e-06
7.24605e-07
6.07731e-07
5.14208e-07
4.45533e-07
3.99929e-07
4.00438e-07
4.50557e-07
5.25519e-07
6.03007e-07
6.69915e-07
7.19186e-07
4.14766e-06
1.15631e-05
0.000218643
2.30029e-05
6.98512e-06
9.68607e-06
9.53875e-06
7.22949e-06
4.6422e-06
7.24846e-07
6.07322e-07
5.12747e-07
4.43289e-07
3.94117e-07
3.97502e-07
4.47419e-07
5.22959e-07
6.01233e-07
6.68913e-07
7.18817e-07
4.13806e-06
1.154e-05
0.000219638
2.17797e-05
6.96291e-06
9.73226e-06
9.62643e-06
7.31475e-06
4.69675e-06
7.24865e-07
6.06754e-07
5.11265e-07
4.41243e-07
3.88148e-07
3.94426e-07
4.44603e-07
5.2068e-07
5.99649e-07
6.68004e-07
7.18462e-07
4.12779e-06
1.15031e-05
0.000220418
2.06092e-05
6.94206e-06
9.77823e-06
9.71321e-06
7.39897e-06
4.75066e-06
7.24841e-07
6.06167e-07
5.09962e-07
4.39698e-07
3.83183e-07
3.91205e-07
4.42067e-07
5.18677e-07
5.98267e-07
6.67217e-07
7.18186e-07
4.11658e-06
1.14544e-05
0.000221023
1.94894e-05
6.92282e-06
9.82411e-06
9.79907e-06
7.4826e-06
4.80487e-06
7.24994e-07
6.05705e-07
5.0903e-07
4.38934e-07
3.80639e-07
3.87977e-07
4.39813e-07
5.16975e-07
5.97112e-07
6.66566e-07
7.17953e-07
4.1047e-06
1.13957e-05
0.000221494
1.84187e-05
6.90547e-06
9.87014e-06
9.88556e-06
7.5648e-06
4.86043e-06
3.06084e-06
6.05492e-07
5.08624e-07
4.39131e-07
3.81467e-07
3.84906e-07
4.37894e-07
5.15617e-07
5.96216e-07
6.66069e-07
7.1776e-07
4.09224e-06
1.13291e-05
0.000221871
1.73971e-05
6.88925e-06
9.91662e-06
9.97342e-06
7.64845e-06
4.91564e-06
3.06877e-06
6.05625e-07
5.08914e-07
4.40378e-07
3.84621e-07
3.82026e-07
4.3643e-07
5.14659e-07
5.95611e-07
6.65745e-07
7.17616e-07
4.0793e-06
1.12775e-05
0.000222134
1.6424e-05
6.87375e-06
9.96372e-06
1.00632e-05
7.73494e-06
4.97183e-06
3.08151e-06
6.06379e-07
5.09753e-07
4.42193e-07
3.88015e-07
3.79884e-07
4.35369e-07
5.14162e-07
5.95328e-07
6.65603e-07
7.17531e-07
4.06598e-06
1.12559e-05
0.000222277
1.5498e-05
6.85879e-06
1.00115e-05
1.01554e-05
7.82498e-06
5.031e-06
3.11349e-06
6.07564e-07
5.10974e-07
4.44443e-07
3.9175e-07
3.79292e-07
4.3484e-07
5.14071e-07
5.95399e-07
6.65618e-07
7.17615e-07
4.05421e-06
1.126e-05
0.000222335
1.46176e-05
6.84407e-06
1.00597e-05
1.02503e-05
7.91929e-06
5.09438e-06
3.14812e-06
6.09112e-07
5.12554e-07
4.4715e-07
3.95919e-07
3.80266e-07
4.3524e-07
5.14544e-07
5.95751e-07
6.65732e-07
7.17894e-07
4.04527e-06
1.12878e-05
0.000222343
1.37809e-05
6.82916e-06
1.01083e-05
1.03482e-05
8.01856e-06
5.16259e-06
3.18563e-06
6.11033e-07
5.14489e-07
4.5027e-07
4.00651e-07
3.828e-07
4.36614e-07
5.15594e-07
5.96376e-07
6.65943e-07
7.18365e-07
4.03907e-06
1.13403e-05
0.000222334
1.2986e-05
6.81371e-06
1.0157e-05
1.04495e-05
8.12355e-06
5.23626e-06
3.22638e-06
6.1335e-07
5.16784e-07
4.53801e-07
4.06074e-07
3.86893e-07
4.38982e-07
5.17209e-07
5.97258e-07
6.66249e-07
7.1902e-07
4.03566e-06
1.14185e-05
0.000222339
1.22311e-05
6.79741e-06
1.02059e-05
1.05547e-05