/*--------------------------------*- C++ -*----------------------------------*\
  =========                 |
  \\      /  F ield         | OpenFOAM: The Open Source CFD Toolbox
   \\    /   O peration     | Website:  https://openfoam.org
    \\  /    A nd           | Version:  8
     \\/     M anipulation  |
\*---------------------------------------------------------------------------*/
FoamFile
{
    version     2.0;
    format      ascii;
    class       volScalarField;
    location    "400";
    object      k;
}
// * * * * * * * * * * * * * * * * * * * * * * * * * * * * * * * * * * * * * //

dimensions      [0 2 -2 0 0 0 0];

internalField   nonuniform List<scalar> 
8400
(
0.00217227
0.00214527
0.00212084
0.00209611
0.00207008
0.00204228
0.00201221
0.00197928
0.00194322
0.0019044
0.00186428
0.00182419
0.00178407
0.00174366
0.00170277
0.00166122
0.0016189
0.00157576
0.00153169
0.00148231
0.00142277
0.00135165
0.00127486
0.00120408
0.00115396
0.00113869
0.00116365
0.0012102
0.0012473
0.00126323
0.00126047
0.0012472
0.00123182
0.00121986
0.00121221
0.00120628
0.00120129
0.00120022
0.00120532
0.00121477
0.00122401
0.00123111
0.00123601
0.00123813
0.00123687
0.00123235
0.00122504
0.00121568
0.00120525
0.00119485
0.00160508
0.00158755
0.00157304
0.00156776
0.00156979
0.00157771
0.00159098
0.00160917
0.00163123
0.00165555
0.00167978
0.00170129
0.00172047
0.00173788
0.00175385
0.00176845
0.00178136
0.00179177
0.00179813
0.0017841
0.00172875
0.00161848
0.00145242
0.00123814
0.000992866
0.000747694
0.000551482
0.000450914
0.000400344
0.000374757
0.000362803
0.000354693
0.000348376
0.000340527
0.000330587
0.000320981
0.000312241
0.000302324
0.0002902
0.000277653
0.000267147
0.000258613
0.000251415
0.000245541
0.000240924
0.000237305
0.000234444
0.000232107
0.00023008
0.000228169
0.00227511
0.00215665
0.00207639
0.00201627
0.00196699
0.0019241
0.00188925
0.00186795
0.00186525
0.00188199
0.00191401
0.00195534
0.00200131
0.00205231
0.00210857
0.0021684
0.00222691
0.00227591
0.00230261
0.00231858
0.00231017
0.00225928
0.00214696
0.00195197
0.0016578
0.00125927
0.000831032
0.000680234
0.000619073
0.000596733
0.000581483
0.00057092
0.000561373
0.000548791
0.000527456
0.000508285
0.000493076
0.000474031
0.000446989
0.000417873
0.000394997
0.000376283
0.00035944
0.000345262
0.00033411
0.000325247
0.000318239
0.000312609
0.000307755
0.000303144
0.00299127
0.00298094
0.00297013
0.00295883
0.00294701
0.00293453
0.00292115
0.00290664
0.00289065
0.00287285
0.00284927
0.0028095
0.00273569
0.00261482
0.0024621
0.00232215
0.00222824
0.0022408
0.00234975
0.00241804
0.00246193
0.00248603
0.00249421
0.00249004
0.00247289
0.00215204
0.00108218
0.000959473
0.000928143
0.000905114
0.000894718
0.00088708
0.000873946
0.00085369
0.000798624
0.000767404
0.000752027
0.000726083
0.000675283
0.00062406
0.000591451
0.000565262
0.000540604
0.000520473
0.000505305
0.000493091
0.000483535
0.000476052
0.000469603
0.000463321
0.00299621
0.00299214
0.00298795
0.00298359
0.00297902
0.00297421
0.00296908
0.00296351
0.00295737
0.00295047
0.00294241
0.00293202
0.00291663
0.00289196
0.00285508
0.00280954
0.00276444
0.0027343
0.002705
0.00267844
0.00265449
0.00263288
0.00261262
0.00259193
0.00256873
0.00254691
0.0024751
0.0023778
0.00222107
0.0020329
0.00185842
0.00173427
0.00170395
0.00125436
0.00111811
0.00109804
0.00108308
0.00106473
0.000931743
0.00084975
0.000811917
0.000773046
0.000737255
0.000714792
0.000699828
0.000687679
0.000679096
0.000673312
0.000668481
0.000663503
0.00299463
0.00298883
0.00298304
0.00297732
0.00297166
0.00296608
0.00296061
0.00295522
0.00294989
0.00294456
0.00293908
0.00293317
0.00292613
0.0029167
0.00290348
0.00288639
0.00286752
0.00285046
0.00283494
0.00281858
0.00280158
0.00278426
0.00276681
0.00274948
0.00273191
0.00270953
0.00267975
0.00263959
0.00258094
0.00250019
0.00240534
0.00231144
0.002235
0.00210618
0.00196285
0.00186058
0.00187457
0.00164922
0.00115459
0.00110907
0.00112168
0.00100283
0.000929205
0.000911328
0.000899093
0.00088972
0.000887189
0.000888395
0.000889821
0.000890957
0.00299402
0.00298744
0.00298077
0.00297407
0.00296734
0.00296062
0.00295395
0.00294739
0.002941
0.00293484
0.00292893
0.00292322
0.00291752
0.00291139
0.0029042
0.00289553
0.00288551
0.00287483
0.00286399
0.00285322
0.00284247
0.0028314
0.00281973
0.00280703
0.00279276
0.00277629
0.00275673
0.00273295
0.0027027
0.00266349
0.00261495
0.00255977
0.00250235
0.00243435
0.00235403
0.00227674
0.00222336
0.00215902
0.00207745
0.00206036
0.0020049
0.00122527
0.00110542
0.00114172
0.00109899
0.00108857
0.0010992
0.00111314
0.0011256
0.00113866
0.00299299
0.00298522
0.00297735
0.00296944
0.00296153
0.00295365
0.0029458
0.00293808
0.00293054
0.00292325
0.00291626
0.00290965
0.00290343
0.00289745
0.00289143
0.00288502
0.00287799
0.00287031
0.00286209
0.00285343
0.00284441
0.0028351
0.00282545
0.00281543
0.00280472
0.00279294
0.00277965
0.00276421
0.00274574
0.00272309
0.00269533
0.00266241
0.00262516
0.00258254
0.00253292
0.00247964
0.00242971
0.0023809
0.0023296
0.00228162
0.00222749
0.00207927
0.00199239
0.00182112
0.0012436
0.00123854
0.00127843
0.00129003
0.00131503
0.0013416
0.0029916
0.00298217
0.00297267
0.00296316
0.00295364
0.00294417
0.0029348
0.00292561
0.00291666
0.00290799
0.0028997
0.00289188
0.00288459
0.00287778
0.00287133
0.002865
0.00285855
0.00285177
0.00284458
0.00283698
0.00282902
0.00282082
0.00281234
0.00280364
0.00279471
0.00278547
0.00277567
0.00276488
0.00275257
0.00273804
0.0027206
0.00269975
0.00267531
0.00264695
0.00261394
0.00257681
0.0025379
0.00249819
0.0024565
0.00241167
0.00236152
0.00228686
0.00220125
0.0020907
0.00191667
0.00179827
0.00162008
0.00136663
0.00142389
0.00146778
0.00298936
0.00297711
0.00296494
0.00295291
0.00294101
0.00292926
0.00291776
0.00290657
0.00289572
0.00288532
0.00287545
0.00286619
0.0028576
0.00284971
0.00284243
0.00283555
0.0028289
0.0028222
0.00281529
0.00280819
0.00280085
0.00279334
0.0027858
0.00277827
0.0027708
0.00276336
0.00275587
0.00274808
0.00273956
0.00272987
0.00271845
0.00270483
0.00268852
0.00266912
0.00264616
0.00261957
0.00258998
0.00255808
0.00252363
0.00248549
0.00244233
0.00238796
0.00231998
0.00223572
0.00212695
0.00201365
0.00188516
0.00177537
0.0017098
0.00163062
0.0029854
0.00296785
0.00295095
0.00293455
0.00291874
0.00290347
0.00288881
0.00287477
0.00286138
0.00284875
0.002837
0.00282614
0.00281614
0.00280709
0.00279901
0.00279169
0.00278496
0.0027786
0.00277226
0.00276583
0.0027594
0.00275294
0.00274666
0.00274077
0.0027352
0.00272982
0.00272456
0.00271935
0.00271394
0.00270792
0.00270079
0.00269212
0.00268145
0.00266831
0.00265222
0.00263289
0.00261033
0.00258484
0.00255644
0.00252443
0.00248776
0.00244376
0.0023894
0.00232301
0.00224205
0.00215127
0.00205383
0.00196413
0.00188947
0.00182671
0.00297553
0.00294477
0.00291866
0.00289508
0.0028732
0.0028528
0.00283378
0.00281602
0.0027996
0.00278466
0.00277126
0.00275943
0.00274927
0.00274066
0.00273343
0.00272716
0.00272153
0.00271638
0.00271172
0.00270702
0.00270256
0.00269848
0.00269485
0.00269177
0.00268912
0.00268671
0.00268451
0.00268239
0.00268013
0.00267746
0.00267401
0.00266932
0.00266299
0.00265456
0.00264345
0.00262934
0.00261207
0.00259167
0.00256819
0.00254116
0.00250988
0.00247295
0.00242826
0.00237447
0.00231067
0.00223884
0.0021627
0.00208915
0.0020233
0.00196802
0.00291403
0.00287437
0.00284036
0.00280949
0.00278125
0.0027559
0.00273329
0.00271323
0.00269613
0.00268201
0.00267033
0.00266076
0.00265326
0.00264765
0.00264402
0.00264185
0.00264064
0.00263931
0.00263737
0.00263583
0.00263475
0.0026343
0.00263498
0.00263669
0.00263808
0.0026396
0.00264107
0.00264222
0.00264307
0.00264347
0.00264316
0.00264176
0.00263882
0.00263389
0.00262641
0.00261604
0.00260259
0.00258595
0.0025662
0.00254308
0.00251609
0.00248441
0.00244665
0.00240195
0.00235015
0.00229253
0.00223179
0.00217197
0.00211681
0.0020689
0.00278728
0.00274507
0.00270813
0.00267653
0.00265033
0.00262911
0.00261227
0.00259935
0.00258976
0.00258283
0.00257793
0.00257464
0.00257264
0.00257144
0.00257055
0.00256953
0.0025683
0.00256701
0.00256559
0.00256474
0.00256511
0.00256705
0.00257078
0.00257598
0.0025817
0.00258785
0.00259397
0.00259947
0.00260443
0.00260857
0.00261163
0.00261308
0.00261251
0.00260989
0.00260472
0.00259678
0.00258586
0.00257179
0.00255471
0.00253452
0.00251074
0.00248288
0.00245021
0.00241227
0.00236918
0.00232196
0.00227259
0.00222374
0.00217791
0.00213681
0.00262573
0.00259466
0.00256876
0.00254838
0.00253291
0.00252143
0.00251299
0.00250683
0.0025023
0.0024989
0.00249622
0.00249401
0.00249205
0.00249017
0.00248833
0.00248664
0.00248536
0.0024849
0.0024856
0.00248785
0.00249195
0.00249801
0.00250588
0.00251512
0.00252518
0.00253554
0.0025457
0.00255522
0.00256403
0.00257171
0.00257774
0.0025816
0.00258336
0.00258291
0.00257973
0.00257333
0.00256358
0.0025511
0.00253582
0.00251756
0.00249602
0.00247103
0.00244216
0.00240922
0.00237252
0.00233298
0.00229212
0.00225168
0.00221321
0.00217776
0.00248303
0.0024662
0.00245241
0.0024417
0.00243358
0.00242746
0.00242285
0.0024194
0.00241684
0.00241497
0.00241368
0.00241288
0.00241256
0.00241279
0.00241368
0.0024154
0.00241816
0.00242208
0.00242731
0.00243394
0.00244197
0.00245121
0.00246144
0.00247234
0.00248361
0.00249493
0.00250602
0.00251656
0.00252629
0.00253493
0.00254207
0.00254733
0.00255039
0.002551
0.00254893
0.00254393
0.00253582
0.00252488
0.00251045
0.00249281
0.00247283
0.00244995
0.00242386
0.00239456
0.00236264
0.00232885
0.00229432
0.00226017
0.00222729
0.0021963
0.00238356
0.00237687
0.00237152
0.00236757
0.00236487
0.0023632
0.00236244
0.00236245
0.00236313
0.00236439
0.0023662
0.00236856
0.00237146
0.00237496
0.00237908
0.00238386
0.00238936
0.00239554
0.00240239
0.00240986
0.00241795
0.0024265
0.00243541
0.0024446
0.00245398
0.00246334
0.00247251
0.00248136
0.0024896
0.00249693
0.00250301
0.00250758
0.00251045
0.00251119
0.0025095
0.00250528
0.00249839
0.00248877
0.0024763
0.00246103
0.0024414
0.00241907
0.00239502
0.00236841
0.00234004
0.00231057
0.0022807
0.00225116
0.0022224
0.00219471
0.00233096
0.00232986
0.00232925
0.00232915
0.00232954
0.0023304
0.00233169
0.00233335
0.00233537
0.0023377
0.00234036
0.00234335
0.00234668
0.00235035
0.0023544
0.00235878
0.00236352
0.00236863
0.00237413
0.00237996
0.00238613
0.00239263
0.00239939
0.00240637
0.00241347
0.00242058
0.00242753
0.00243419
0.00244039
0.00244592
0.00245057
0.00245401
0.00245604
0.00245645
0.00245494
0.00245134
0.00244566
0.00243776
0.00242737
0.00241456
0.00239855
0.0023783
0.0023535
0.00232881
0.00230283
0.00227641
0.00224992
0.00222367
0.00219781
0.00217248
0.00229699
0.00229597
0.00229499
0.00229408
0.0022933
0.0022927
0.0022923
0.00229212
0.00229217
0.00229247
0.00229303
0.00229388
0.00229503
0.00229651
0.00229833
0.00230055
0.00230318
0.0023062
0.00230965
0.00231355
0.0023179
0.00232265
0.00232773
0.0023331
0.00233867
0.00234432
0.0023499
0.00235527
0.00236031
0.0023648
0.00236858
0.00237148
0.00237329
0.00237384
0.00237302
0.00237061
0.00236653
0.00236073
0.00235301
0.00234331
0.00233137
0.0023163
0.00229554
0.00226905
0.00224434
0.00221971
0.00219541
0.00217137
0.00214751
0.00212394
0.0044171
0.00436169
0.00430745
0.00425251
0.00419634
0.00413874
0.00407971
0.00401946
0.00395822
0.00389629
0.00383393
0.00377137
0.00370877
0.00364629
0.003584
0.00352193
0.00346012
0.00339857
0.00333733
0.0032765
0.00321621
0.00315666
0.0030981
0.00304081
0.00298506
0.0029311
0.00287916
0.00282932
0.00278168
0.00273625
0.00269294
0.00265161
0.00261205
0.00257398
0.00253711
0.00250116
0.0024658
0.00243077
0.00239583
0.0023608
0.00232556
0.00229003
0.00225389
0.00221015
0.00219943
0.00219605
0.00219953
0.00220778
0.00221885
0.00223187
2.3838e-05
2.36186e-05
2.34098e-05
2.32128e-05
2.30253e-05
2.28422e-05
2.26622e-05
2.24842e-05
2.23074e-05
2.21308e-05
2.19544e-05
2.17777e-05
2.16008e-05
2.14238e-05
2.12468e-05
2.10701e-05
2.08941e-05
2.07195e-05
2.05468e-05
2.03765e-05
2.02097e-05
1.99875e-05
1.97777e-05
1.95804e-05
1.93913e-05
1.92084e-05
1.90304e-05
1.88562e-05
1.86853e-05
1.85173e-05
1.83496e-05
1.81827e-05
1.80185e-05
1.78587e-05
1.77048e-05
1.75578e-05
1.74181e-05
1.72858e-05
1.71608e-05
1.70424e-05
1.69296e-05
1.68207e-05
1.6715e-05
1.66116e-05
1.65093e-05
1.64073e-05
1.63044e-05
1.61987e-05
1.60868e-05
1.59631e-05
2.32334e-05
2.21758e-05
2.11964e-05
2.02868e-05
1.94412e-05
1.86571e-05
1.79285e-05
1.72499e-05
1.66164e-05
1.60234e-05
1.54672e-05
1.49442e-05
1.44516e-05
1.39871e-05
1.35485e-05
1.31344e-05
1.27433e-05
1.23739e-05
1.2025e-05
1.16954e-05
1.15844e-05
1.13544e-05
1.12021e-05
1.12758e-05
1.13071e-05
1.13078e-05
1.12867e-05
1.12507e-05
1.12046e-05
1.11527e-05
1.11055e-05
1.10691e-05
1.1045e-05
1.10316e-05
1.10259e-05
1.10248e-05
1.10255e-05
1.10257e-05
1.10235e-05
1.10179e-05
1.10083e-05
1.0995e-05
1.09771e-05
1.0954e-05
1.09253e-05
1.08909e-05
1.08515e-05
1.08101e-05
1.077e-05
1.07285e-05
2.32312e-05
2.21661e-05
2.11731e-05
2.02483e-05
1.93855e-05
1.85792e-05
1.78243e-05
1.7116e-05
1.645e-05
1.58226e-05
1.52303e-05
1.46703e-05
1.41402e-05
1.36378e-05
1.31614e-05
1.27094e-05
1.22805e-05
1.18735e-05
1.14878e-05
1.13794e-05
1.12711e-05
1.11718e-05
1.10815e-05
1.10012e-05
1.09267e-05
1.08548e-05
1.07836e-05
1.07116e-05
1.06385e-05
1.05641e-05
1.04895e-05
1.04156e-05
1.03434e-05
1.02735e-05
1.02064e-05
1.0142e-05
1.00803e-05
1.00214e-05
9.96477e-06
9.91019e-06
9.85719e-06
9.80535e-06
9.75419e-06
9.70315e-06
9.65131e-06
9.59705e-06
9.53834e-06
9.47478e-06
9.4118e-06
9.36315e-06
2.32314e-05
2.21739e-05
2.11891e-05
2.02716e-05
1.94147e-05
1.86128e-05
1.78609e-05
1.71544e-05
1.64892e-05
1.58616e-05
1.52684e-05
1.47069e-05
1.41746e-05
1.36695e-05
1.319e-05
1.27345e-05
1.23017e-05
1.18906e-05
1.15007e-05
1.1349e-05
1.12348e-05
1.11433e-05
1.10628e-05
1.0987e-05
1.09126e-05
1.08377e-05
1.07613e-05
1.06829e-05
1.06024e-05
1.05201e-05
1.04365e-05
1.03521e-05
1.02677e-05
1.01839e-05
1.01013e-05
1.00204e-05
9.94165e-06
9.86514e-06
9.79095e-06
9.71898e-06
9.64902e-06
9.58073e-06
9.51378e-06
9.44799e-06
9.38336e-06
9.31955e-06
9.25478e-06
9.18508e-06
9.10856e-06
9.0392e-06
2.32314e-05
2.21739e-05
2.11886e-05
2.02698e-05
1.94113e-05
1.86079e-05
1.78547e-05
1.71473e-05
1.64816e-05
1.58538e-05
1.52607e-05
1.46994e-05
1.41674e-05
1.36628e-05
1.31837e-05
1.27286e-05
1.22962e-05
1.18854e-05
1.14959e-05
1.13987e-05
1.13033e-05
1.12108e-05
1.11214e-05
1.10346e-05
1.09495e-05
1.08652e-05
1.07811e-05
1.06965e-05
1.06112e-05
1.0525e-05
1.04384e-05
1.03515e-05
1.02648e-05
1.0179e-05
1.00944e-05
1.00115e-05
9.93056e-06
9.85169e-06
9.77495e-06
9.70026e-06
9.62743e-06
9.5561e-06
9.48573e-06
9.41575e-06
9.34594e-06
9.27691e-06
9.20943e-06
9.14153e-06
9.06713e-06
8.99256e-06
2.32313e-05
2.21743e-05
2.11898e-05
2.02721e-05
1.9415e-05
1.8613e-05
1.78613e-05
1.71553e-05
1.64909e-05
1.58643e-05
1.52723e-05
1.4712e-05
1.41808e-05
1.36767e-05
1.3198e-05
1.27431e-05
1.23107e-05
1.18999e-05
1.151e-05
1.13971e-05
1.12853e-05
1.11815e-05
1.10867e-05
1.09993e-05
1.09168e-05
1.08371e-05
1.07581e-05
1.06788e-05
1.05984e-05
1.05168e-05
1.0434e-05
1.03504e-05
1.02666e-05
1.01831e-05
1.01005e-05
1.00191e-05
9.93934e-06
9.86126e-06
9.78491e-06
9.71025e-06
9.63715e-06
9.56547e-06
9.49485e-06
9.42461e-06
9.35384e-06
9.28217e-06
9.21085e-06
9.14106e-06
9.06835e-06
8.99359e-06
2.32313e-05
2.21742e-05
2.11896e-05
2.02717e-05
1.94142e-05
1.86119e-05
1.78598e-05
1.71535e-05
1.64889e-05
1.58622e-05
1.52701e-05
1.47097e-05
1.41785e-05
1.36744e-05
1.31955e-05
1.27406e-05
1.23082e-05
1.18973e-05
1.15074e-05
1.13945e-05
1.12825e-05
1.11779e-05
1.10822e-05
1.09938e-05
1.09108e-05
1.08308e-05
1.07522e-05
1.06735e-05
1.05941e-05
1.05136e-05
1.04321e-05
1.03499e-05
1.02676e-05
1.01855e-05
1.01043e-05
1.00243e-05
9.94562e-06
9.86849e-06
9.79284e-06
9.71855e-06
9.64543e-06
9.57333e-06
9.50219e-06
9.43181e-06
9.3615e-06
9.29009e-06
9.21744e-06
9.14541e-06
9.07238e-06
8.99767e-06
2.32312e-05
2.21741e-05
2.11894e-05
2.02714e-05
1.9414e-05
1.86119e-05
1.78602e-05
1.71544e-05
1.64904e-05
1.58644e-05
1.5273e-05
1.47132e-05
1.41825e-05
1.36788e-05
1.32003e-05
1.27455e-05
1.23133e-05
1.19024e-05
1.15126e-05
1.14111e-05
1.13077e-05
1.12052e-05
1.11064e-05
1.10124e-05
1.0923e-05
1.08373e-05
1.07541e-05
1.06723e-05
1.05911e-05
1.05099e-05
1.04285e-05
1.0347e-05
1.02658e-05
1.01851e-05
1.01054e-05
1.00267e-05
9.94935e-06
9.87326e-06
9.79842e-06
9.72468e-06
9.65179e-06
9.57949e-06
9.50764e-06
9.43632e-06
9.36552e-06
9.29443e-06
9.22195e-06
9.14897e-06
9.07531e-06
9.00042e-06
2.32312e-05
2.21739e-05
2.11891e-05
2.02709e-05
1.94134e-05
1.86112e-05
1.78595e-05
1.71539e-05
1.64902e-05
1.58644e-05
1.52732e-05
1.47136e-05
1.4183e-05
1.36793e-05
1.32007e-05
1.27458e-05
1.23133e-05
1.19022e-05
1.15122e-05
1.14109e-05
1.13079e-05
1.12057e-05
1.11067e-05
1.10123e-05
1.09224e-05
1.08361e-05
1.07525e-05
1.06705e-05
1.05891e-05
1.05079e-05
1.04269e-05
1.03459e-05
1.02653e-05
1.01854e-05
1.01065e-05
1.00286e-05
9.95184e-06
9.87619e-06
9.80155e-06
9.7278e-06
9.65474e-06
9.58215e-06
9.50977e-06
9.43754e-06
9.36568e-06
9.29405e-06
9.2217e-06
9.14861e-06
9.07474e-06
8.99983e-06
2.32311e-05
2.21736e-05
2.11886e-05
2.02702e-05
1.94125e-05
1.86103e-05
1.78587e-05
1.71534e-05
1.64899e-05
1.58646e-05
1.52738e-05
1.47145e-05
1.41842e-05
1.36807e-05
1.32023e-05
1.27474e-05
1.2315e-05
1.19038e-05
1.15137e-05
1.14122e-05
1.13089e-05
1.12064e-05
1.11072e-05
1.10126e-05
1.09225e-05
1.08361e-05
1.07523e-05
1.06701e-05
1.05887e-05
1.05075e-05
1.04266e-05
1.03458e-05
1.02656e-05
1.01861e-05
1.01075e-05
1.003e-05
9.95358e-06
9.87807e-06
9.80333e-06
9.72918e-06
9.65552e-06
9.58226e-06
9.50928e-06
9.4364e-06
9.36369e-06
9.29132e-06
9.21881e-06
9.14584e-06
9.07216e-06
8.99754e-06
2.32311e-05
2.21735e-05
2.11881e-05
2.02694e-05
1.94115e-05
1.86093e-05
1.78578e-05
1.71526e-05
1.64894e-05
1.58643e-05
1.52738e-05
1.47148e-05
1.41847e-05
1.36814e-05
1.3203e-05
1.27482e-05
1.23157e-05
1.19044e-05
1.15141e-05
1.14121e-05
1.13079e-05
1.12049e-05
1.11059e-05
1.10118e-05
1.09223e-05
1.08365e-05
1.07532e-05
1.06715e-05
1.05905e-05
1.05099e-05
1.04296e-05
1.03498e-05
1.02705e-05
1.01921e-05
1.01146e-05
1.00381e-05
9.96257e-06
9.88773e-06
9.81332e-06
9.73907e-06
9.66489e-06
9.59076e-06
9.51679e-06
9.44293e-06
9.36914e-06
9.29565e-06
9.22232e-06
9.14881e-06
9.07482e-06
9e-06
2.3231e-05
2.21732e-05
2.11876e-05
2.02687e-05
1.94105e-05
1.86081e-05
1.78566e-05
1.71515e-05
1.64884e-05
1.58635e-05
1.52732e-05
1.47145e-05
1.41845e-05
1.36813e-05
1.32029e-05
1.2748e-05
1.23154e-05
1.1904e-05
1.15135e-05
1.13997e-05
1.12866e-05
1.11811e-05
1.10847e-05
1.09959e-05
1.09123e-05
1.08318e-05
1.07528e-05
1.0674e-05
1.0595e-05
1.05156e-05
1.04359e-05
1.03563e-05
1.02773e-05
1.0199e-05
1.01217e-05
1.00454e-05
9.96987e-06
9.89491e-06
9.82018e-06
9.74535e-06
9.67031e-06
9.59509e-06
9.51987e-06
9.44483e-06
9.37002e-06
9.2956e-06
9.22159e-06
9.14773e-06
9.07366e-06
8.99893e-06
2.3231e-05
2.2173e-05
2.11871e-05
2.02678e-05
1.94095e-05
1.86069e-05
1.78555e-05
1.71505e-05
1.64878e-05
1.58632e-05
1.52732e-05
1.47148e-05
1.41852e-05
1.36822e-05
1.3204e-05
1.27493e-05
1.23167e-05
1.19054e-05
1.15148e-05
1.14006e-05
1.12869e-05
1.1181e-05
1.10844e-05
1.09955e-05
1.0912e-05
1.08317e-05
1.07527e-05
1.0674e-05
1.0595e-05
1.05155e-05
1.04359e-05
1.03564e-05
1.02775e-05
1.01995e-05
1.01225e-05
1.00464e-05
9.97095e-06
9.89587e-06
9.82078e-06
9.74541e-06
9.66959e-06
9.59344e-06
9.51716e-06
9.4411e-06
9.36548e-06
9.2905e-06
9.21616e-06
9.14231e-06
9.06854e-06
8.99428e-06
2.32309e-05
2.21728e-05
2.11865e-05
2.02669e-05
1.94082e-05
1.86054e-05
1.78536e-05
1.71485e-05
1.64855e-05
1.58608e-05
1.52707e-05
1.47121e-05
1.41823e-05
1.36791e-05
1.32007e-05
1.27457e-05
1.2313e-05
1.19015e-05
1.15108e-05
1.13967e-05
1.12831e-05
1.11773e-05
1.10808e-05
1.0992e-05
1.09085e-05
1.08284e-05
1.07497e-05
1.06714e-05
1.0593e-05
1.05144e-05
1.04358e-05
1.03576e-05
1.02801e-05
1.02035e-05
1.01279e-05
1.0053e-05
9.97846e-06
9.9039e-06
9.82887e-06
9.75313e-06
9.67659e-06
9.59938e-06
9.52182e-06
9.44438e-06
9.36747e-06
9.29137e-06
9.21618e-06
9.14176e-06
9.06774e-06
8.99348e-06
2.32309e-05
2.21725e-05
2.1186e-05
2.02662e-05
1.94075e-05
1.86049e-05
1.78536e-05
1.71489e-05
1.64865e-05
1.58623e-05
1.52727e-05
1.47145e-05
1.41851e-05
1.36821e-05
1.32039e-05
1.27491e-05
1.23165e-05
1.1905e-05
1.15143e-05
1.14003e-05
1.12877e-05
1.11827e-05
1.10865e-05
1.09975e-05
1.09134e-05
1.08324e-05
1.07527e-05
1.06736e-05
1.05946e-05
1.05156e-05
1.04369e-05
1.03589e-05
1.02818e-05
1.02057e-05
1.01305e-05
1.00561e-05
9.9819e-06
9.90742e-06
9.83216e-06
9.75589e-06
9.67858e-06
9.60043e-06
9.52185e-06
9.44342e-06
9.36566e-06
9.28894e-06
9.21349e-06
9.13913e-06
9.0655e-06
8.99199e-06
2.32309e-05
2.21719e-05
2.11843e-05
2.02631e-05
1.94029e-05
1.85987e-05
1.7846e-05
1.714e-05
1.64764e-05
1.58512e-05
1.52608e-05
1.47019e-05
1.41719e-05
1.36687e-05
1.31903e-05
1.27354e-05
1.23028e-05
1.18915e-05
1.15011e-05
1.14028e-05
1.13062e-05
1.12128e-05
1.11223e-05
1.1034e-05
1.09472e-05
1.08615e-05
1.07764e-05
1.06918e-05
1.06078e-05
1.05246e-05
1.04424e-05
1.03617e-05
1.02826e-05
1.02052e-05
1.01291e-05
1.0054e-05
9.97938e-06
9.90455e-06
9.82902e-06
9.75248e-06
9.67495e-06
9.59668e-06
9.51817e-06
9.44007e-06
9.36296e-06
9.28735e-06
9.21347e-06
9.14126e-06
9.07036e-06
9.00016e-06
2.32309e-05
2.21718e-05
2.11846e-05
2.02645e-05
1.94058e-05
1.86032e-05
1.78517e-05
1.71468e-05
1.64839e-05
1.58591e-05
1.52688e-05
1.47098e-05
1.41796e-05
1.36759e-05
1.31971e-05
1.27418e-05
1.23086e-05
1.18967e-05
1.15056e-05
1.13535e-05
1.12388e-05
1.11468e-05
1.10652e-05
1.09881e-05
1.09121e-05
1.08357e-05
1.07583e-05
1.06799e-05
1.0601e-05
1.0522e-05
1.04435e-05
1.03661e-05
1.029e-05
1.02155e-05
1.01423e-05
1.00701e-05
9.99834e-06
9.9264e-06
9.85386e-06
9.78042e-06
9.70617e-06
9.63146e-06
9.5569e-06
9.48321e-06
9.41111e-06
9.34126e-06
9.27394e-06
9.20927e-06
9.14714e-06
9.08708e-06
2.32309e-05
2.21644e-05
2.11688e-05
2.02413e-05
1.93764e-05
1.85692e-05
1.78147e-05
1.7108e-05
1.64445e-05
1.582e-05
1.52307e-05
1.46735e-05
1.41455e-05
1.36445e-05
1.31688e-05
1.27168e-05
1.22873e-05
1.18791e-05
1.14921e-05
1.13987e-05
1.13067e-05
1.12155e-05
1.11283e-05
1.10467e-05
1.09661e-05
1.08866e-05
1.0809e-05
1.07336e-05
1.06605e-05
1.05896e-05
1.0521e-05
1.04548e-05
1.03912e-05
1.03301e-05
1.02715e-05
1.02148e-05
1.01595e-05
1.01048e-05
1.00501e-05
9.99512e-06
9.93966e-06
9.88401e-06
9.82874e-06
9.77459e-06
9.7224e-06
9.67292e-06
9.62673e-06
9.58415e-06
9.54549e-06
9.51105e-06
2.32339e-05
2.21762e-05
2.1195e-05
2.02832e-05
1.94358e-05
1.86509e-05
1.7923e-05
1.72462e-05
1.66153e-05
1.60254e-05
1.54722e-05
1.49521e-05
1.44618e-05
1.39989e-05
1.35612e-05
1.31471e-05
1.27552e-05
1.23845e-05
1.2034e-05
1.17021e-05
1.15901e-05
1.13602e-05
1.12082e-05
1.12822e-05
1.13141e-05
1.13231e-05
1.13218e-05
1.13166e-05
1.13097e-05
1.13017e-05
1.12925e-05
1.12824e-05
1.12717e-05
1.12609e-05
1.12502e-05
1.12394e-05
1.1228e-05
1.12153e-05
1.12005e-05
1.11831e-05
1.11628e-05
1.114e-05
1.11152e-05
1.10895e-05
1.1064e-05
1.10398e-05
1.10177e-05
1.09989e-05
1.0984e-05
1.09754e-05
2.38335e-05
2.36156e-05
2.34084e-05
2.32119e-05
2.30246e-05
2.28415e-05
2.26608e-05
2.24816e-05
2.23034e-05
2.21258e-05
2.19485e-05
2.17713e-05
2.15943e-05
2.1418e-05
2.12425e-05
2.10683e-05
2.08959e-05
2.07257e-05
2.05578e-05
2.03925e-05
2.02298e-05
2.00113e-05
1.98027e-05
1.96052e-05
1.94162e-05
1.92307e-05
1.90473e-05
1.88668e-05
1.86904e-05
1.85191e-05
1.83534e-05
1.81932e-05
1.8038e-05
1.7887e-05
1.77395e-05
1.75946e-05
1.74518e-05
1.73105e-05
1.71707e-05
1.70325e-05
1.68963e-05
1.67626e-05
1.66319e-05
1.65046e-05
1.63806e-05
1.62601e-05
1.61419e-05
1.60255e-05
1.59092e-05
1.57913e-05
7.8428e-05
2.18291e-05
2.28852e-05
2.18286e-05
1.78477e-05
1.33242e-05
1.10677e-05
9.33821e-06
8.03178e-06
7.15308e-06
6.7601e-06
7.28486e-06
8.29092e-06
9.25708e-06
1.01464e-05
1.08786e-05
1.15956e-05
1.35356e-05
2.17217e-05
0.000139557
7.60522e-05
2.14639e-05
2.29633e-05
2.19185e-05
1.78763e-05
1.32966e-05
1.10184e-05
9.29118e-06
7.98136e-06
7.08735e-06
6.6593e-06
7.22592e-06
8.24028e-06
9.19591e-06
1.01003e-05
1.08567e-05
1.16049e-05
1.36776e-05
2.29214e-05
0.000149465
7.37181e-05
2.11433e-05
2.30449e-05
2.20152e-05
1.7924e-05
1.32968e-05
1.09896e-05
9.26596e-06
7.95491e-06
7.04958e-06
6.59424e-06
7.09027e-06
8.13448e-06
9.11796e-06
1.00454e-05
1.08223e-05
1.15592e-05
1.36759e-05
2.3368e-05
0.000154355
7.14362e-05
2.08653e-05
2.31279e-05
2.21183e-05
1.79914e-05
1.33246e-05
1.09801e-05
9.25993e-06
7.94789e-06
7.03239e-06
6.54756e-06
6.98866e-06
8.0435e-06
9.04486e-06
9.99292e-06
1.07895e-05
1.15161e-05
1.36773e-05
2.38068e-05
0.000159057
6.91997e-05
2.06296e-05
2.32113e-05
2.22285e-05
1.80788e-05
1.33788e-05
1.09883e-05
9.27036e-06
7.95669e-06
7.03195e-06
6.52094e-06
6.90475e-06
7.95936e-06
8.9753e-06
9.94268e-06
1.07582e-05
1.14754e-05
1.36811e-05
2.42344e-05
0.000163555
6.70103e-05
2.04334e-05
2.32942e-05
2.23458e-05
1.81853e-05
1.34572e-05
1.10113e-05
9.29352e-06
7.97682e-06
7.04299e-06
6.50869e-06
6.83236e-06
7.87905e-06
8.90818e-06
9.89423e-06
1.07281e-05
1.14369e-05
1.36867e-05
2.4647e-05
0.000167828
6.48691e-05
2.02722e-05
2.33761e-05
2.24699e-05
1.83091e-05
1.35563e-05
1.10458e-05
9.32537e-06
8.0038e-06
7.06055e-06
6.50626e-06
6.76794e-06
7.801e-06
8.84267e-06
9.84719e-06
1.06992e-05
1.14001e-05
1.36934e-05
2.50407e-05
0.000171861
6.2777e-05
2.01407e-05
2.34565e-05
2.26004e-05
1.84477e-05
1.36719e-05
1.10881e-05
9.36196e-06
8.03342e-06
7.08035e-06
6.50992e-06
6.70868e-06
7.7241e-06
8.7782e-06
9.80123e-06
1.06711e-05
1.13649e-05
1.37006e-05
2.54123e-05
0.000175642
6.07344e-05
2.00334e-05
2.35354e-05
2.27364e-05
1.8598e-05
1.37993e-05
1.11344e-05
9.39971e-06
8.06206e-06
7.09855e-06
6.51564e-06
6.65314e-06
7.6476e-06
8.71434e-06
9.75607e-06
1.06437e-05
1.13311e-05
1.37075e-05
2.57586e-05
0.00017916
5.87412e-05
1.99447e-05
2.36129e-05
2.28768e-05
1.87566e-05
1.39342e-05
1.11814e-05
9.43553e-06
8.08674e-06
7.11198e-06
6.51897e-06
6.60056e-06
7.57113e-06
8.65088e-06
9.71154e-06
1.06169e-05
1.12984e-05
1.37137e-05
2.60771e-05
0.000182409
5.67968e-05
1.98694e-05
2.36893e-05
2.30207e-05
1.89203e-05
1.40725e-05
1.12261e-05
9.46705e-06
8.10521e-06
7.11819e-06
6.5156e-06
6.55055e-06
7.49477e-06
8.58777e-06
9.66759e-06
1.05906e-05
1.12667e-05
1.37188e-05
2.63658e-05
0.000185386
5.49005e-05
1.98033e-05
2.3765e-05
2.31667e-05
1.90863e-05
1.42107e-05
1.1266e-05
9.49249e-06
8.11598e-06
7.11562e-06
6.50209e-06
6.50228e-06
7.41895e-06
8.52517e-06
9.62427e-06
1.0565e-05
1.12706e-05
1.37225e-05
2.66234e-05
0.000188094
5.30516e-05
1.97432e-05
2.38406e-05
2.3314e-05
1.92523e-05
1.43464e-05
1.12995e-05
9.5108e-06
8.1182e-06
7.1034e-06
6.47587e-06
6.45479e-06
7.34421e-06
8.46343e-06
9.58178e-06
1.054e-05
1.12641e-05
1.37247e-05
2.68491e-05
0.000190536
5.1249e-05
1.96868e-05
2.39164e-05
2.34617e-05
1.94169e-05
1.44779e-05
1.13253e-05
9.52151e-06
8.11175e-06
7.08163e-06
6.43525e-06
6.40707e-06
7.27127e-06
8.40311e-06
9.54042e-06
1.05157e-05
1.12509e-05
1.3725e-05
2.70428e-05
0.000192721
4.94921e-05
1.96332e-05
2.39925e-05
2.36092e-05
1.95789e-05
1.46039e-05
1.13428e-05
9.52466e-06
8.09707e-06
7.05105e-06
6.37926e-06
6.35817e-06
7.20101e-06
8.34491e-06
9.5006e-06
1.04924e-05
1.12331e-05
1.37232e-05
2.72046e-05
0.000194659
4.77797e-05
1.95815e-05
2.40691e-05
2.37561e-05
1.97376e-05
1.4724e-05
1.13519e-05
9.52081e-06
8.07521e-06
7.01326e-06
6.30772e-06
6.30744e-06
7.13446e-06
8.28971e-06
9.46283e-06
1.04712e-05
1.12239e-05
1.37177e-05
2.73356e-05
0.000196364
4.61108e-05
1.95317e-05
2.41462e-05
2.39019e-05
1.98927e-05
1.48381e-05
1.1353e-05
9.51103e-06
8.04787e-06
6.97075e-06
6.22229e-06
6.25463e-06
7.07272e-06
8.2384e-06
9.42764e-06
1.04513e-05
1.12166e-05
1.37108e-05
2.7437e-05
0.000197853
4.44842e-05
1.94839e-05
2.42236e-05
2.40464e-05
2.00441e-05
1.49469e-05
1.13475e-05
9.49686e-06
8.01736e-06
6.92697e-06
6.12798e-06
6.20001e-06
7.01668e-06
8.19172e-06
9.3954e-06
1.04329e-05
1.12084e-05
1.37024e-05
2.75101e-05
0.00019914
4.28989e-05
1.94385e-05
2.43012e-05
2.41894e-05
2.0192e-05
1.50515e-05
1.1337e-05
9.48022e-06
7.98645e-06
6.88614e-06
6.03424e-06
6.14443e-06
6.96679e-06
8.15007e-06
9.36636e-06
1.04164e-05
1.12013e-05
1.36918e-05
2.75563e-05
0.000200243
4.13538e-05
1.93963e-05
2.43786e-05
2.43308e-05
2.03371e-05
1.51535e-05
1.13235e-05
9.46333e-06
7.95818e-06
6.85276e-06
5.95464e-06
6.08942e-06
6.92298e-06
8.11351e-06
9.34067e-06
1.04018e-05
1.11954e-05
1.36791e-05
2.75777e-05
0.000201182
3.98482e-05
1.93583e-05
2.44557e-05
2.44706e-05
2.04803e-05
1.52549e-05
1.13092e-05
9.44841e-06
7.93551e-06
6.83097e-06
5.90404e-06
6.03676e-06
6.88486e-06
8.08193e-06
9.31837e-06
1.03892e-05
1.11906e-05
1.36646e-05
2.75763e-05
0.000201977
3.83816e-05
1.93248e-05
2.45328e-05
2.46092e-05
2.06225e-05
1.53576e-05
1.12959e-05
9.4375e-06
7.9209e-06
6.82374e-06
5.89314e-06
5.98757e-06
6.852e-06
8.05523e-06
9.29961e-06
1.03787e-05
1.11869e-05
1.36484e-05
2.75545e-05
0.00020265
3.69538e-05
1.92958e-05
2.46105e-05
2.47477e-05
2.07638e-05
1.54637e-05
1.12846e-05
9.43221e-06
7.91603e-06
6.83222e-06
5.92297e-06
5.94127e-06
6.82407e-06
8.0335e-06
9.28458e-06
1.03706e-05
1.11841e-05
1.36306e-05
2.7515e-05
0.000203223
3.55648e-05
1.92714e-05
2.46892e-05
2.48886e-05
2.09068e-05
1.55706e-05
1.13253e-05
9.43513e-06
7.9233e-06
6.85433e-06
5.97165e-06
5.89672e-06
6.80159e-06
8.01705e-06
9.27362e-06
1.0365e-05
1.11824e-05
1.36115e-05
2.74932e-05
0.000203686
3.42172e-05
1.92483e-05
2.47687e-05
2.50328e-05
2.10555e-05
1.56844e-05
1.13815e-05
9.44529e-06
7.9378e-06
6.88409e-06
6.02357e-06
5.86688e-06
6.7823e-06
8.00661e-06
9.26713e-06
1.03621e-05
1.11817e-05
1.35913e-05
2.75185e-05
0.000204029
3.2911e-05
1.92258e-05
2.48492e-05
2.51809e-05
2.12111e-05
1.58029e-05
1.14581e-05
9.46412e-06
7.95835e-06
6.92108e-06
6.08242e-06
5.86046e-06
6.77044e-06
8.0006e-06
9.26575e-06
1.0362e-05
1.11834e-05
1.35747e-05
2.75849e-05
0.000204273
3.16454e-05
1.92034e-05
2.49303e-05
2.53336e-05
2.13749e-05
1.59307e-05
1.15412e-05
9.48898e-06
7.98481e-06
6.96547e-06
6.14993e-06
5.87757e-06
6.77116e-06
8.00312e-06
9.26905e-06
1.03638e-05
1.11884e-05
1.35654e-05
2.76881e-05
0.000204439
3.04197e-05