/*--------------------------------*- C++ -*----------------------------------*\
  =========                 |
  \\      /  F ield         | OpenFOAM: The Open Source CFD Toolbox
   \\    /   O peration     | Website:  https://openfoam.org
    \\  /    A nd           | Version:  8
     \\/     M anipulation  |
\*---------------------------------------------------------------------------*/
FoamFile
{
    version     2.0;
    format      ascii;
    class       volScalarField;
    location    "400";
    object      p_rgh;
}
// * * * * * * * * * * * * * * * * * * * * * * * * * * * * * * * * * * * * * //

dimensions      [1 -1 -2 0 0 0 0];

internalField   nonuniform List<scalar> 
8400
(
8675.65
18927.9
27753.5
34948.3
41179.1
46812.2
51847.6
56084.4
59344.5
61620.1
63045.3
63651.7
63247.6
61630.5
58916.8
55794.9
53697.2
54981.2
62767.8
79319.7
103203
129682
154388
174928
190475
201085
207333
210393
211547
211713
211544
211540
211976
212836
213961
215328
217047
219112
221322
223457
225438
227249
228866
230284
231525
232621
233607
234526
235431
236361
7756.53
19422.9
28434.1
35353
41396.5
47062.8
52255.9
56623.5
59888.2
62064.1
63435.5
64163
63900.7
62126
58697.2
54200.9
50005.6
48543.8
54016.1
70499.8
96607.3
125604
152179
174067
190672
202068
208533
211398
212210
211957
211393
211112
211460
212407
213646
215033
216737
218847
221147
223349
225385
227254
228907
230329
231555
232624
233572
234440
235274
236111
10699.3
24021.8
31425.1
36951
42171.6
47519.8
52660.6
57052.3
60364.1
62680.5
64402.1
65654.8
65708.3
63589.3
58895.2
52278.6
45227.3
40157.1
43458.6
61855
92594.5
125068
153711
177211
195313
207928
213965
214865
213986
212704
211395
210474
210506
211698
213363
214791
216284
218347
220840
223247
225444
227447
229166
230593
231801
232837
233742
234561
235342
236117
4142.97
17715.1
27122.5
33812
39960.2
46128.7
51917.7
56798.8
60507.2
63184.2
65283.5
66717.5
66534.8
63805.5
58365.4
51010.9
43477.4
37668.8
41091.4
63478.7
96776.4
128584
155784
178438
196621
210016
216767
217537
215443
212727
209848
207688
207779
210608
213483
214364
214800
216692
219982
223072
225536
227672
229450
230862
232036
233010
233831
234567
235268
235972
-16767
4757.19
21177.8
30651
37658.4
44090.1
50030.3
55166.6
59311.1
62541.9
65077
66677
66487.6
63920.4
59049.2
52390.7
45343.9
41934.1
52145.1
78078.8
108483
135567
158278
177535
193684
206158
213735
215618
213761
210636
207805
206868
209316
213470
214631
212211
210837
214079
219970
223818
225844
227947
229935
231358
232476
233349
234056
234689
235299
235921
-3753.56
7653.51
19785.8
27912.9
33869.1
39265.3
44332.4
48907.5
52947.6
56538.2
59734.8
62359.1
64026.8
64503.2
63870.8
62710.1
62571.6
66421.8
77878.8
96408.7
116876
135603
152009
166704
179912
191187
199570
204255
205959
206166
206223
207310
210035
212633
211773
209224
211278
217909
223389
224599
225164
228086
230880
232025
232926
233665
234243
234768
235273
235807
-5053.78
5440.65
16483.3
24785.9
31325.2
37194.8
42600
47455.7
51782.9
55704
59331.1
62683.1
65679.8
68239.4
70433.5
72686.4
75893.1
81317.4
90024.8
101724
114902
128240
141137
153413
164906
175242
183854
190320
194817
198021
200772
203744
207033
209716
210891
211913
215237
219914
222777
224034
227037
230948
232273
232204
233194
234070
234494
234882
235267
235717
-1642.26
8268.05
18421.6
26285.7
32631.7
38260.9
43356.5
47927.8
52064.2
55903.5
59560.6
63104.7
66568.1
69986.5
73473.4
77281.7
81808.8
87528.7
94808.2
103613
113444
123729
134080
144183
153769
162613
170497
177302
183144
188334
193238
198100
202859
207108
210557
213677
217227
220865
223656
226045
228952
231242
231951
233146
234349
234532
234471
234862
235226
235622
-67.8144
10084.7
19554.8
26913.2
33022.9
38483.8
43426.9
47905.5
52033.2
55936.5
59714.8
63446.7
67208.1
71086.8
75197.1
79679.4
84689.3
90377.7
96846.9
104074
111879
119998
128214
136365
144307
151938
159228
166209
172940
179504
185965
192318
198422
204038
209005
213443
217628
221510
224829
227664
230107
231807
232854
233946
234442
234474
234829
235126
235184
235402
1948.58
12411.2
21401.2
28379.2
34277.3
39555.9
44326.4
48680.7
52744.6
56633.8
60438.8
64239.2
68116.8
72160.9
76460.6
81092
86107.2
91528.8
97349.7
103527
109985
116631
123396
130238
137135
144083
151100
158212
165423
172716
180039
187285
194294
200891
206947
212435
217403
221811
225561
228633
231047
232788
233964
234743
234988
235037
235199
235153
235219
235634
3555.64
14539.3
23141
29827.6
35537.1
40620.4
45210.6
49434.8
53418.8
57265.1
61056.6
64868.1
68772.7
72842.9
77145.9
81728.5
86601.9
91742.4
97104.1
102638
108305
114089
120001
126077
132364
138907
145733
152852
160244
167858
175605
183359
190965
198266
205120
211412
217060
221987
226131
229475
232045
233896
235110
235807
236074
236118
236065
235908
235918
236177
5948.27
16385.3
24368.1
30841.1
36417.3
41354.6
45821.6
49959.9
53884.7
57688.4
61449.8
65239.4
69123
73162.5
77413.7
81912.7
86658.4
91614.1
96722.9
101932
107214
112578
118067
123754
129720
136029
142718
149788
157213
164932
172858
180874
188840
196601
203990
210834
216984
222331
226817
230425
233185
235168
236467
237202
237506
237523
237381
237191
237110
237184
6855.17
17018.2
24751.2
31184.1
36714.6
41605.5
46043.5
50165.4
54078
57870.3
61621.6
65403.7
69278.8
73303.2
77529.2
81990.2
86682.9
91570.1
96598.3
101719
106908
112174
117560
123135
128989
135194
141795
148798
156179
163887
171843
179947
188075
196080
203771
210937
217396
223029
227766
231586
234518
236637
238036
238836
239168
239168
238975
238718
238513
238425
6886.31
16601.6
24433.5
30977.5
36591.8
41555.3
46057.7
50235
54192.4
58017.1
61785.4
65569
69432.4
73434
77626.7
82044.7
86689.8
91532.2
96528.7
101641
106850
112166
117629
123298
129240
135514
142154
149174
156557
164265
172236
180381
188589
196706
204519
211800
218380
224153
229034
232985
236040
238262
239742
240592
240939
240917
240665
240316
239981
239744
6492.57
15644.8
23504.4
30163.7
35932.8
41051.9
45701.9
50020.2
54114.3
58069.7
61958
65845.3
69793.4
73860.1
78096.3
82536.6
87189.2
92037.2
97048.5
102194
107457
112846
118393
124150
130177
136529
143239
150321
157760
165519
173539
181737
189998
198154
205985
213270
219866
225672
230591
234585
237696
239972
241493
242365
242704
242640
242312
241857
241393
241012
6185.07
14818.8
22568.8
29291.6
35203.3
40488
45305.4
49787.7
54042.4
58155.8
62199.5
66236.3
70323.3
74512.3
78847.5
83358.7
88053.9
92922.8
97943.4
103097
108376
113796
119394
125224
131345
137808
144646
151864
159442
167331
175463
183743
192044
200195
207992
215238
221789
227528
232361
236292
239388
241674
243201
244065
244372
244245
243825
243253
242659
242142
5956.99
14130.8
21722.2
28462.3
34483.6
39915.6
44887.3
49516.1
53904.9
58141.4
62301.2
66450.7
70648.9
74946.4
79383
83984.3
88756.4
93691.2
98770.6
103980
109317
114798
120466
126376
132590
139163
146128
153492
161229
169281
177562
185958
194323
202489
210265
217470
223960
229613
234346
238155
241089
243257
244755
245607
245871
245666
245137
244440
243716
243073
5889.23
13662.1
21078.9
27797.5
33893.8
39451
44566.4
49337.7
53857.2
58208.5
62468.1
66705
70980.4
75348
79849.6
84512.6
89347.8
94351.6
99510.8
104815
110263
115869
121667
127708
134046
140735
147815
155297
163157
171334
179733
188223
196647
204829
212583
219736
226144
231699
236334
240034
242819
244782
246101
246894
247137
246859
246209
245377
244529
243782
5951.89
13368.7
20622
27296
33429.3
39072.3
44298.2
49187.5
53820.7
58273.9
62620.3
66928.1
71258.9
75667.1
80196
84874.8
89719.9
94737.8
99925.5
105281
110806
116516
122439
128613
135085
141901
149097
156689
164657
172940
181435
189999
198469
206667
214413
221542
227910
233411
237981
241601
244296
246139
247265
247891
248086
247762
246988
245996
245013
244178
6174.43
13354.2
20498.3
27128
33265
38944.6
44226.5
49180.5
53880.6
58398.5
62803.2
67160.5
71530.2
75965
80508.7
85191.4
90031.7
95042.8
100231
105602
111164
116935
122940
129213
135795
142727
150042
157753
165841
174243
182845
191497
200025
208256
216019
223153
229513
234983
239491
243019
245599
247307
248256
248662
248735
248427
247603
246477
245360
244435
251784
251784
251784
251784
251784
251783
251783
251783
251783
251783
251783
251783
251783
251783
251783
251783
251783
251783
251783
251783
251783
251783
251783
251783
251783
251783
251783
251783
251783
251783
251783
251783
251783
251783
251783
251783
251783
251783
251783
251783
251783
251783
251783
251783
251783
251783
251783
251783
251783
251782
251783
251783
251783
251783
251783
251783
251783
251783
251783
251783
251783
251783
251783
251783
251783
251783
251783
251783
251783
251783
251783
251783
251783
251783
251783
251783
251783
251783
251783
251783
251783
251783
251783
251783
251783
251783
251783
251783
251783
251783
251783
251783
251783
251783
251783
251783
251782
251782
251782
251782
251783
251783
251784
251784
251783
251783
251783
251783
251783
251783
251783
251783
251783
251783
251783
251783
251783
251783
251783
251783
251783
251783
251783
251783
251783
251783
251783
251783
251783
251783
251783
251783
251783
251783
251783
251783
251783
251783
251783
251783
251783
251783
251783
251783
251783
251783
251782
251782
251782
251782
251783
251783
251783
251783
251783
251783
251783
251783
251783
251783
251783
251783
251783
251783
251783
251783
251783
251783
251783
251783
251783
251783
251783
251783
251783
251783
251783
251783
251783
251783
251783
251783
251783
251783
251783
251783
251783
251783
251783
251783
251783
251783
251783
251783
251783
251783
251782
251782
251782
251782
251783
251783
251783
251783
251783
251783
251783
251783
251783
251783
251783
251783
251783
251783
251783
251783
251783
251783
251783
251783
251783
251783
251783
251783
251783
251783
251783
251783
251783
251783
251783
251783
251783
251783
251783
251783
251783
251783
251783
251783
251783
251783
251783
251783
251783
251783
251782
251782
251782
251782
251783
251783
251783
251783
251783
251783
251783
251783
251783
251783
251783
251783
251783
251783
251783
251783
251783
251783
251783
251783
251783
251783
251783
251783
251783
251783
251783
251783
251783
251783
251783
251783
251783
251783
251783
251783
251783
251783
251783
251783
251783
251783
251783
251783
251783
251783
251783
251782
251782
251782
251783
251783
251783
251783
251783
251783
251783
251783
251783
251783
251783
251783
251783
251783
251783
251783
251783
251783
251783
251783
251783
251783
251783
251783
251783
251783
251783
251783
251783
251783
251783
251783
251783
251783
251783
251783
251783
251783
251783
251783
251783
251783
251783
251783
251783
251783
251783
251782
251782
251782
251783
251783
251783
251783
251783
251783
251783
251783
251783
251783
251783
251783
251783
251783
251783
251783
251783
251783
251783
251783
251783
251783
251783
251783
251783
251783
251783
251783
251783
251783
251783
251783
251783
251783
251783
251783
251783
251783
251783
251783
251783
251783
251783
251783
251783
251783
251783
251782
251782
251782
251783
251783
251783
251783
251783
251783
251783
251783
251783
251783
251783
251783
251783
251783
251783
251783
251783
251783
251783
251783
251783
251783
251783
251783
251783
251783
251783
251783
251783
251783
251783
251783
251783
251783
251783
251783
251783
251783
251783
251783
251783
251783
251783
251783
251783
251783
251783
251783
251782
251782
251783
251783
251783
251783
251783
251783
251783
251783
251783
251783
251783
251783
251783
251783
251783
251783
251783
251783
251783
251783
251783
251783
251783
251783
251783
251783
251783
251783
251783
251783
251783
251783
251783
251783
251783
251783
251783
251783
251783
251783
251783
251783
251783
251783
251783
251783
251783
251783
251782
251782
251783
251783
251783
251783
251783
251783
251783
251783
251783
251783
251783
251783
251783
251783
251783
251783
251783
251783
251783
251783
251783
251783
251783
251783
251783
251783
251783
251783
251783
251783
251783
251783
251783
251783
251783
251783
251783
251783
251783
251783
251783
251783
251783
251783
251783
251783
251783
251783
251782
251782
251783
251783
251783
251783
251783
251783
251783
251783
251783
251783
251783
251783
251783
251783
251783
251783
251783
251783
251783
251783
251783
251783
251783
251783
251783
251783
251783
251783
251783
251783
251783
251783
251783
251783
251783
251783
251783
251783
251783
251783
251783
251783
251783
251783
251783
251783
251783
251783
251783
251782
251783
251783
251783
251783
251783
251783
251783
251783
251783
251783
251783
251783
251783
251783
251783
251783
251783
251783
251783
251783
251783
251783
251783
251783
251783
251783
251783
251783
251783
251783
251783
251783
251783
251783
251783
251783
251783
251783
251783
251783
251783
251783
251783
251783
251783
251783
251783
251783
251783
251782
251783
251783
251783
251783
251783
251783
251783
251783
251783
251783
251783
251783
251783
251783
251783
251783
251783
251783
251783
251783
251783
251783
251783
251783
251783
251783
251783
251783
251783
251783
251783
251783
251783
251783
251783
251783
251783
251783
251783
251783
251783
251783
251783
251783
251783
251783
251783
251783
251783
251782
251783
251783
251783
251783
251783
251783
251783
251783
251783
251783
251783
251783
251783
251783
251783
251783
251783
251783
251783
251783
251783
251783
251783
251783
251783
251783
251783
251783
251783
251783
251783
251783
251783
251783
251783
251783
251783
251783
251783
251783
251783
251783
251783
251783
251783
251783
251783
251783
251783
251783
251783
251783
251783
251783
251783
251783
251783
251783
251783
251783
251783
251783
251783
251783
251783
251783
251783
251783
251783
251783
251783
251783
251783
251783
251783
251783
251783
251783
251783
251783
251783
251783
251783
251783
251783
251783
251783
251783
251783
251783
251783
251783
251783
251783
251783
251783
251783
251783
251783
251783
251783
251783
251783
251783
251783
251783
251783
251783
251783
251783
251783
251783
251783
251783
251783
251783
251783
251783
251783
251783
251783
251783
251783
251783
251783
251783
251783
251783
251783
251783
251783
251783
251783
251783
251783
251783
251783
251783
251783
251783
251783
251783
251783
251783
251783
251783
251783
251783
251783
251783
251783
251783
251783
251783
251783
251783
251783
251783
251783
251783
251783
251783
251783
251783
251783
251783
251783
251783
251783
251783
251783
251783
251783
251783
251783
251783
251783
251783
251783
251783
251783
251783
251783
251783
251783
251783
251783
251783
251783
251783
251783
251783
251783
251783
251783
251783
251783
251783
251783
251783
251783
251783
251783
251783
251783
251783
251783
251783
251783
251783
251783
251783
251783
251783
251783
251783
251783
251783
251783
251783
251783
251783
251783
251783
251783
251783
251783
251783
251783
251783
251783
251783
251783
251783
251783
251783
251783
251783
251783
251783
251783
251783
251783
251783
251783
251783
251783
251783
251783
251783
251784
251784
251784
251784
251783
251783
251783
251783
251783
251783
251783
251783
251783
251783
251783
251783
251783
251783
251783
251783
251783
251783
251783
251783
251783
251783
251783
251783
251783
251783
251783
251783
251783
251783
251783
251783
251783
251783
251783
251783
251783
251783
251783
251783
251783
251783
251783
251783
251783
251783
251491
251502
251503
251511
251512
251516
251517
251518
251518
251519
251518
251518
251518
251519
251520
251522
251523
251527
251528
251534
251490
251501
251502
251510
251511
251515
251516
251518
251518
251518
251518
251518
251518
251518
251519
251521
251522
251526
251527
251533
251489
251500
251501
251509
251510
251514
251515
251517
251517
251518
251517
251517
251517
251518
251519
251521
251522
251526
251527
251533
251488
251499
251500
251508
251510
251514
251515
251517
251517
251517
251517
251517
251517
251518
251519
251521
251522
251526
251527
251533
251487
251498
251500
251507
251509
251513
251514
251516
251517
251517
251517
251517
251517
251518
251518
251520
251522
251525
251527
251533
251486
251497
251499
251507
251509
251513
251514
251516
251517
251517
251517
251517
251517
251518
251518
251520
251521
251525
251526
251533
251485
251496
251499
251506
251508
251513
251514
251516
251516
251517
251517
251517
251517
251518
251518
251520
251521
251525
251526
251532
251484
251496
251498
251506
251508
251512
251514
251516
251516
251517
251517
251517
251517
251517
251518
251520
251521
251525
251526
251532
251484
251495
251498
251505
251508
251512
251514
251516
251516
251517
251517
251517
251517
251517
251518
251520
251521
251525
251526
251532
251483
251495
251497
251505
251507
251512
251513
251515
251516
251517
251516
251517
251517
251517
251518
251519
251520
251524
251525
251532
251483
251494
251497
251505
251507
251512
251513
251515
251516
251516
251516
251516
251516
251517
251517
251519
251520
251524
251525
251532
251482
251494
251496
251504
251507
251511
251513
251515
251515
251516
251516
251516
251516
251516
251517
251519
251520
251524
251525
251531
251482
251493
251496
251504
251506
251511
251513
251515
251515
251516
251516
251516
251516
251516
251517
251519
251519
251524
251524
251531
251481
251493
251496
251504
251506
251511
251512
251514
251515
251515
251515
251515
251515
251516
251516
251518
251519
251523
251524
251531
251481
251493
251495
251503
251506
251510
251512
251514
251514
251515
251515
251515
251515
251515
251516
251518
251519
251523
251524
251531
251480
251492
251495
251503
251506
251510
251512
251513
251514
251514
251514
251514
251514
251515
251516
251518
251519
251523
251524
251531
251480
251492
251495
251503
251505
251510
251511
251513
251514
251514
251514
251514
251514
251515
251515
251517
251518
251523
251524
251531
251480
251492
251495
251503
251505
251510
251511
251513
251513
251514
251513
251513
251514
251514
251515
251517
251518
251523
251524
251531
251480
251492
251495
251503
251505
251510
251511
251513
251513
251513
251513
251513
251513
251514
251515
251517
251518
251523
251524
251531
251480
251492
251495
251503
251506
251510
251511
251513
251513
251513
251513
251513
251513
251514
251515
251517
251519
251523
251524
251531
251480
251493
251496
251504
251506
251510
251511
251513
251513
251514
251513
251513
251514
251515
251515
251518
251519
251523
251524
251531
251481
251493
251496
251504
251506
251510
251512
251513
251514
251514
251514
251514
251514
251515
251516
251518
251519
251524
251525
251532
251481
251494
251497
251505
251507
251511
251512
251514
251514
251514
251514
251514
251515
251515
251516
251519
251520
251524
251525
251532
251482
251494
251498
251505
251508
251512
251513
251514
251515
251515
251515
251515
251515
251516
251517
251519
251520
251525
251526
251533
251483
251495
251499
251506
251509
251512
251514
251515
251516
251516
251516
251516
251516
251517
251518
251520
251521
251526
251527
251534
251484
251496
251500
251507
251510
251513
251515
251516
251517
251517
251517
251517
251517
251518
251519
251521
251522
251527
251528
251535
251485
251497
251501
251508
251511
251515
251516
251517
251518
251518
251518
251518
251518
251519
251520
251522
251523
251528
251529
251536
251486
251499
251502
251510
251512
251516
251517
251519
251519
251519
251519
251519
251519
251520
251521
251524
251525
251529
251530
251537
251487
251500
251504
251511
251514
251517
251519
251520
251521
251521
251521
251521
251521
251522
251522
251525
251526
251531
251532
251539
251489
251502
251506
251513
251516
251519
251520
251522
251522
251522
251522
251522
251522
251523
251524
251527
251528
251532
251533
251540
251491
251504
251508
251515
251518
251521
251522
251523
251524
251524
251524
251524
251524
251525
251526
251528
251530
251534
251535
251542
251493
251506
251510
251517
251520
251523
251524
251525
251526
251526
251526
251526
251526
251527
251528
251530
251532
251536
251537
251544
251495
251508
251512
251519
251522
251525
251527
251528
251528
251528
251528
251528
251528
251529
251530
251533
251534
251539
251539
251546
251498
251511
251515
251522
251525
251528
251529
251530
251530
251531
251530
251530
251531
251532
251532
251535
251536
251541
251542
251549
251501
251513
251518
251525
251527
251530
251532
251533
251533
251533
251533
251533
251533
251534
251535
251538
251539
251544
251544
251551
251504
251516
251521
251528
251530
251533
251535
251536
251536
251536
251536
251536
251536
251537
251538
251541
251542
251546
251547
251554
251507
251520
251524
251531
251534
251537
251538
251539
251539
251539
251539
251539
251539
251540
251541
251544
251545
251549
251550
251557
251511
251523
251527
251534
251537
251540
251541
251542
251542
251542
251542
251542
251543
251544
251544
251547
251548
251552
251553
251560
251515
251527
251531
251538
251541
251543
251545
251545
251546
251546
251546
251546
251546
251547
251548
251550
251551
251556
251556
251563
251519
251530
251535
251542
251544
251547
251548
251549
251549
251550
251549
251550
251550
251551
251551
251554
251555
251559
251560
251567
251523
251534
251539
251546
251548
251551
251552
251553
251553
251553
251553
251553
251554
251555
251555
251558
251558
251563
251564
251570
251527
251539
251544
251550
251553
251555
251556
251557
251557
251557
251557
251557
251558
251559
251559
251562
251562
251567
251567
251574
251532
251543
251548
251554
251557
251559
251561
251561
251561
251561
251561
251561
251562
251563
251563
251566
251567
251571
251572
251578
251537
251548
251553
251559
251562
251564
251565
251565
251566
251566
251566
251566
251566
251567
251568
251570
251571
251576
251576
251583
251543
251553
251558
251564
251567
251569
251570
251570
251570
251570
251570
251570
251571
251571
251572
251575
251575
251580
251580
251587
251548
251559
251564
251569
251572
251574
251575
251575
251575
251575
251575
251575
251575
251576
251577
251580
251580
251585
251585
251592
251555
251565
251569
251575
251578
251579
251580
251580
251580
251580
251580
251580
251580
251581
251582
251585
251585
251590
251590
251597
251561
251571
251575
251581
251583
251585
251585
251585
251585
251585
251585
251585
251585
251586
251587
251590
251591
251595
251596
251602
251568
251577
251582
251587
251589
251591
251591
251591
251591
251590
251590
251590
251591
251592
251593
251595
251596
251601
251601
251608
251575
251584
251589
251594
251596
251597
251597
251597
251596
251596
251596
251596
251596
251597
251599
251601
251602
251607
251607
251614
251583
251591
251596
251601
251603
251604
251604
251603
251602
251602
251602
251602
251602
251604
251605
251607
251608
251613
251614
251620
251591
251599
251603
251608
251610
251611
251610
251610
251609
251608
251608
251608
251609
251610
251611
251614
251615
251620
251620
251627
251599
251607
251611
251616
251617
251618
251618
251617
251616
251615
251615
251615
251615
251617
251618
251621
251622
251627
251627
251634
251608
251615
251620
251624
251625
251626
251625
251624
251623
251622
251622
251622
251622
251624
251625
251628
251629
251634
251635
251641
251618
251624
251628
251632
251634
251634
251633
251632
251630
251629
251629
251629
251630
251631
251633
251635
251637
251642
251643
251649
251627
251633
251637
251641
251642
251642
251641
251640
251638
251637
251637
251637
251638
251639
251641
251644
251645
251650
251651
251657
251637
251643
251646
251650
251651
251651
251650
251649
251647
251646
251645
251645
251646
251648
251649
251652
251654
251659
251660
251666
251648
251652
251656
251659
251661
251660
251659
251658
251656
251655
251654
251654
251655
251656
251658
251661
251664
251668
251669
251675
251658
251662
251665
251669
251670
251670
251669
251667
251665
251664
251663
251663
251664
251666
251668
251671
251673
251678
251679
251684
251668
251672
251675
251678
251680
251680
251679
251677
251675
251674
251673
251673
251674
251676
251678
251681
251684
251688
251690
251695
251679
251682
251685
251688
251689
251690
251689
251687
251685
251684
251683
251683
251684
251686
251688
251691
251694
251699
251700
251705
251689
251692
251694
251697
251699
251700
251699
251697
251696
251694
251694
251694
251695
251697
251699
251702
251705
251710
251711
251716
251699
251702
251704
251706
251708
251709
251709
251708
251706
251705
251704
251705
251706
251708
251710
251713
251717
251721
251722
251726
251709
251711
251713
251715
251718
251719
251719
251718
251717
251716
251715
251716
251717
251719
251721
251724
251728
251732
251734
251737
251718
251720
251721
251724
251726
251728
251729
251728
251727
251727
251726
251727
251728
251730
251733
251736
251739
251743
251745
251748
251726
251728
251729
251731
251734
251736
251737
251738
251738
251737
251737
251738
251739
251741
251744
251747
251750
251753
251755
251758
251734
251735
251736
251738
251741
251743
251746
251747
251747
251747
251747
251748
251749
251751
251754
251757
251760
251763
251765
251767
251741
251742
251743
251744
251747
251750
251752
251755
251756
251757
251757
251758
251759
251762
251764
251767
251770
251773
251774
251776
251747
251748
251748
251750
251752
251755
251758
251761
251763
251765
251766
251767
251769
251771
251773
251776
251779
251781
251782
251783
251752
251753
251754
251755
251756
251759
251762
251766
251769
251772
251774
251775
251777
251779
251781
251784
251786
251788
251789
251790
251757
251757
251758
251759
251760
251762
251765
251769
251773
251776
251780
251782
251784
251786
251788
251790
251792
251794
251795
251795
251761
251761
251762
251762
251763
251765
251767
251771
251775
251779
251783
251787
251789
251791
251793
251795
251797
251798
251799
251800
251764
251765
251765
251765
251766
251767
251769
251772
251775
251780
251784
251789
251793
251795
251797
251799
251800
251801
251802
251803
251767
251767
251768
251768
251769
251770
251771
251772
251775
251778
251783
251787
251792
251797
251800
251802
251803
251804
251804
251805
251769
251769
251770
251770
251771
251772
251772
251773
251775
251777
251780
251783
251787
251791
251795
251800
251803
251804
251804
251804
251771
251771
251772
251772
251773
251773
251774
251775
251776
251777
251778
251779
251781
251783
251785
251787
251791
251794
251798
251799
251773
251773
251773
251773
251774
251775
251775
251776
251777
251778
251778
251779
251780
251781
251782
251783
251784
251786
251789
251794
251774
251774
251774
251775
251775
251776
251776
251777
251778
251778
251779
251780
251780
251781
251782
251782
251783
251784
251785
251789
251775
251775
251775
251776
251776
251777
251777
251778
251778
251779
251779
251780
251781
251781
251782
251782
251782
251783
251783
251784
251776
251776
251776
251777
251777
251777
251778
251778
251779
251779
251780
251780
251781
251781
251782
251782
251782
251783
251783
251783
251777
251777
251777
251777
251778
251778
251778
251779
251779
251780
251780
251780
251781
251781
251782
251782
251782
251782
251783
251783
251777
251777
251778
251778
251778
251778
251779
251779
251780
251780
251780
251781
251781
251781
251782
251782
251782
251782
251782
251783
251778
251778
251778
251778
251779
251779
251779
251779
251780
251780
251780
251781
251781
251781
251782
251782
251782
251782
251782
251782
251778
251778
251778
251779
251779
251779
251779
251780
251780
251780
251781
251781
251781
251781
251781
251782
251782
251782
251782
251782
251779
251779
251779
251779
251779
251779
251780
251780
251780
251780
251781
251781
251781
251781
251781
251782
251782
251782
251782
251782
251779
251779
251779
251779
251779
251780
251780
251780
251780
251781
251781
251781
251781
251781
251781
251782
251782
251782
251782
251782
251779
251779
251779
251780
251780
251780
251780
251780
251780
251781
251781
251781
251781
251781
251781
251782
251782
251782
251782
251782
251780
251780
251780
251780
251780
251780
251780
251780
251781
251781
251781
251781
251781
251781
251781
251782
251782
251782
251782
251782
251780
251780
251780
251780
251780
251780
251780
251780
251781
251781
251781
251781
251781
251781
251781
251782
251782
251782
251782
251782
251780
251780
251780
251780
251780
251780
251780
251781
251781
251781
251781
251781
251781
251781
251781
251782
251782
251782
251782
251782
251780
251780
251780
251780
251780
251780
251781
251781
251781
251781
251781
251781
251781
251781
251781
251782
251782
251782
251782
251782
251780
251780
251780
251780
251780
251780
251781
251781
251781
251781
251781
251781
251781
251781
251781
251782
251782
251782
251782
251782
251780
251780
251780
251780
251780
251781
251781
251781
251781
251781
251781
251781
251781
251781
251781
251782
251782
251782
251782
251782
251780
251780
251780
251780
251781
251781
251781
251781
251781
251781
251781
251781
251781
251781
251782
251782
251782
251782
251782
251782
251780
251780
251780
251781
251781
251781
251781
251781
251781
251781
251781
251781
251781
251782
251782
251782
251782
251782
251782
251782
251781
251781
251781
251781
251781
251781
251781
251781
251781
251781
251781
251781
251782
251782
251782
251782
251782
251782
251782
251782
251781
251781
251781
251781
251781
251781
251781
251781
251781
251781
251781
251781
251782
251782
251782
251782
251782
251782
251782
251782
251781
251781
251781
251781
251781
251781
251781
251781
251781
251781
251781
251782
251782
251782
251782
251782
251782
251782
251782
251782
251781
251781
251781
251781
251781
251781
251781
251781
251781
251781
251782
251782
251782
251782
251782
251782
251782
251782
251782
251782
251781
251781
251781
251781
251781
251781
251781
251781
251781
251782
251782
251782
251782
251782
251782
251782
251782
251782
251782
251783
251781
251781
251781
251781
251781
251781
251781
251781
251782
251782
251782
251782
251782
251782
251782
251782
251782
251782
251782
251783
251781
251781
251781
251781
251781
251781
251781
251782
251782
251782
251782
251782
251782
251782
251782
251782
251782
251782
251782
251783
251781
251781
251781
251781
251781
251781
251782
251782
251782
251782
251782
251782
251782
251782
251782
251782
251782
251782
251783
251783
251781
251781
251781
251781
251781
251782
251782
251782
251782
251782
251782
251782
251782
251782
251782
251782
251782
251782
251783
251783
251781
251781
251781
251781
251782
251782
251782
251782
251782
251782
251782
251782
251782
251782
251782
251782
251782
251783
251783
251783
251782
251782
251782
251782
251782
251782
251782
251782
251782
251782
251782
251782
251782
251782
251782
251782
251782
251783
251783
251783
251782
251782
251782
251782
251782
251782
251782
251782
251782
251782
251782
251782
251782
251782
251782
251782
251783
251783
251783