/*--------------------------------*- C++ -*----------------------------------*\
  =========                 |
  \\      /  F ield         | OpenFOAM: The Open Source CFD Toolbox
   \\    /   O peration     | Website:  https://openfoam.org
    \\  /    A nd           | Version:  8
     \\/     M anipulation  |
\*---------------------------------------------------------------------------*/
FoamFile
{
    version     2.0;
    format      ascii;
    class       surfaceScalarField;
    location    "400";
    object      phi;
}
// * * * * * * * * * * * * * * * * * * * * * * * * * * * * * * * * * * * * * //

dimensions      [1 0 -1 0 0 0 0];

internalField   nonuniform List<scalar> 
16360
(
-2.01817
-0.0477665
-1.9695
-0.0486703
-1.92673
-0.0427681
-1.89043
-0.0363174
-1.85944
-0.0309899
-1.83346
-0.0259634
-1.81343
-0.0200239
-1.80072
-0.012713
-1.79619
-0.00454286
-1.79964
0.00344934
-1.81013
0.0104926
-1.82668
0.0165532
-1.84851
0.0218187
-1.87453
0.0260271
-1.90234
0.0278119
-1.92764
0.0252873
-1.94423
0.0165776
-1.94281
-0.0014269
-1.90954
-0.0332587
-1.82985
-0.0796922
-1.70317
-0.126666
-1.54682
-0.156327
-1.38012
-0.166674
-1.21724
-0.162852
-1.06881
-0.148417
-0.945851
-0.122966
-0.86157
-0.0842588
-0.814562
-0.0470063
-0.793032
-0.0215143
-0.786433
-0.00658994
-0.785992
-0.000451445
-0.784951
-0.00107464
-0.77929
-0.00567278
-0.768924
-0.0103599
-0.756461
-0.0124534
-0.742514
-0.0139444
-0.724856
-0.0176659
-0.702474
-0.0223827
-0.67762
-0.0248112
-0.653814
-0.0238125
-0.632025
-0.0218095
-0.612116
-0.0199386
-0.594341
-0.0177774
-0.578891
-0.0154348
-0.56555
-0.0133245
-0.553954
-0.0116041
-0.543607
-0.0103651
-0.53393
-0.00967475
-0.524335
-0.00958399
-0.010319
-0.513986
-1.56349
-0.0785913
-1.52921
-0.0829732
-1.50442
-0.0675733
-1.48458
-0.0561536
-1.46666
-0.0488939
-1.45001
-0.042611
-1.4357
-0.0343403
-1.42525
-0.0231654
-1.41947
-0.0103245
-1.4179
0.0018852
-1.42007
0.0126812
-1.42648
0.0229739
-1.43819
0.0335429
-1.456
0.0438767
-1.47894
0.0507775
-1.50328
0.0496239
-1.52316
0.03647
-1.53035
0.00579445
-1.50914
-0.0544509
-1.44348
-0.145365
-1.34058
-0.2296
-1.2255
-0.271459
-1.11315
-0.279045
-1.00848
-0.267547
-0.912177
-0.244743
-0.826458
-0.208685
-0.771518
-0.139179
-0.748246
-0.0702704
-0.744288
-0.0254173
-0.750738
-0.000101207
-0.759107
0.00796236
-0.762988
0.00284477
-0.758958
-0.00968618
-0.748536
-0.0207374
-0.737092
-0.0238736
-0.725425
-0.0256085
-0.708991
-0.0340668
-0.685837
-0.045555
-0.659607
-0.0510608
-0.636017
-0.0474377
-0.61501
-0.0428294
-0.59549
-0.0394817
-0.578139
-0.0351488
-0.563422
-0.0301819
-0.550913
-0.0258193
-0.540196
-0.0222821
-0.530814
-0.0197113
-0.522235
-0.0182188
-0.513906
-0.0178866
-0.0188163
-0.505432
-0.607611
-0.100118
-0.632547
-0.0580512
-0.660331
-0.0397991
-0.684629
-0.0318484
-0.704133
-0.0293762
-0.719169
-0.027573
-0.730114
-0.0233966
-0.736787
-0.0165035
-0.738538
-0.0085585
-0.734543
-0.00207966
-0.723796
0.00194499
-0.708262
0.007437
-0.694174
0.0194527
-0.68817
0.0378481
-0.694229
0.0567999
-0.712426
0.0678187
-0.737508
0.0615553
-0.766542
0.0348126
-0.756749
-0.0642298
-0.692106
-0.209966
-0.630444
-0.291228
-0.588721
-0.313126
-0.570364
-0.297365
-0.573166
-0.264744
-0.588666
-0.229226
-0.591142
-0.206226
-0.592839
-0.137497
-0.615202
-0.0479596
-0.648455
0.00781243
-0.678304
0.0297108
-0.70218
0.0318262
-0.716534
0.0172042
-0.717295
-0.00893218
-0.707116
-0.0309262
-0.698103
-0.0328897
-0.69255
-0.0312073
-0.680204
-0.0464302
-0.656403
-0.069366
-0.627086
-0.0803775
-0.60413
-0.0703962
-0.584108
-0.0628277
-0.564226
-0.0593354
-0.546893
-0.0524657
-0.533048
-0.0440506
-0.521484
-0.0374255
-0.511704
-0.0320735
-0.503262
-0.0281248
-0.495619
-0.0258752
-0.48822
-0.0252853
-0.0263616
-0.480692
1.2933
-0.0440794
1.23295
0.00228629
1.17766
0.0154948
1.12012
0.025707
1.05663
0.0341193
0.987435
0.0415984
0.914804
0.0492256
0.840857
0.0574553
0.766225
0.0661039
0.689265
0.0748979
0.607173
0.0840315
0.520986
0.0936322
0.437872
0.102577
0.367304
0.108394
0.316951
0.107145
0.292867
0.0919438
0.296987
0.0575011
0.384022
-0.0522174
0.486496
-0.166799
0.492212
-0.215698
0.447231
-0.246259
0.386171
-0.252067
0.317882
-0.22908
0.235446
-0.182331
0.122519
-0.116303
-0.059402
-0.0242914
-0.241825
0.0449806
-0.346475
0.0567021
-0.430674
0.092007
-0.510548
0.109586
-0.578456
0.0997369
-0.624937
0.0636936
-0.634097
0.000188987
-0.61446
-0.0506223
-0.614412
-0.0329546
-0.629239
-0.0163785
-0.632338
-0.0433315
-0.613975
-0.0876995
-0.57977
-0.11459
-0.559914
-0.0902819
-0.542761
-0.0799537
-0.522676
-0.0793476
-0.506127
-0.0690045
-0.494391
-0.0557601
-0.484459
-0.0473683
-0.476412
-0.0401038
-0.469878
-0.0346332
-0.464022
-0.0317566
-0.45826
-0.0310675
-0.032412
-0.452223
3.22317
0.0324105
3.18226
0.0431924
3.13631
0.0614456
3.08833
0.0736996
3.03746
0.0849828
2.98177
0.0972862
2.91958
0.11142
2.84944
0.127611
2.77005
0.14552
2.68044
0.164505
2.58088
0.183586
2.47364
0.200867
2.36301
0.213181
2.25509
0.216299
2.15706
0.205144
2.07462
0.174341
2.01379
0.118355
1.9193
0.0423526
1.77785
-0.0253263
1.63264
-0.0704829
1.48386
-0.0974742
1.33514
-0.103334
1.19228
-0.0862175
1.0575
-0.0475738
0.933817
0.00738957
0.8403
0.0691855
0.759302
0.125972
0.647478
0.168496
0.535814
0.203653
0.422307
0.223102
0.300726
0.221314
0.162281
0.202091
-0.0233206
0.185741
-0.233727
0.159754
-0.397739
0.131106
-0.496322
0.0821488
-0.538946
-0.000720948
-0.528138
-0.0984816
-0.492184
-0.150484
-0.489142
-0.0933517
-0.485872
-0.0831951
-0.467476
-0.0977306
-0.45222
-0.0842961
-0.443873
-0.06409
-0.435637
-0.0555828
-0.43
-0.0457876
-0.426063
-0.0385675
-0.422261
-0.0355681
-0.418338
-0.0350154
-0.0368601
-0.413893
2.22628
0.0715061
2.20016
0.0693057
2.19005
0.0715613
2.18722
0.0765203
2.18996
0.0822447
2.19738
0.0898699
2.20853
0.100266
2.22221
0.113931
2.23676
0.130978
2.25025
0.151017
2.26086
0.172976
2.26698
0.194744
2.2674
0.212777
2.26148
0.222245
2.24862
0.21802
2.22676
0.196195
2.18911
0.155982
2.12739
0.104049
2.04735
0.0546796
1.95836
0.0184962
1.86156
-0.000685974
1.76033
-0.0020871
1.6597
0.0144451
1.56445
0.0476951
1.4773
0.0945275
1.3957
0.150743
1.31425
0.207422
1.22601
0.256751
1.13371
0.295963
1.03623
0.320587
0.9289
0.328615
0.807438
0.323559
0.678815
0.314332
0.544967
0.293511
0.41639
0.259648
0.2873
0.211246
0.121743
0.164851
-0.105557
0.12879
-0.304602
0.0486271
-0.390231
-0.00763542
-0.405936
-0.067489
-0.383845
-0.119801
-0.376986
-0.0911542
-0.379421
-0.061679
-0.373162
-0.0618826
-0.371041
-0.0479046
-0.370523
-0.0391003
-0.368747
-0.037373
-0.366943
-0.0368615
-0.0394081
-0.36438
1.96901
0.122723
1.9288
0.109524
1.89578
0.104588
1.86953
0.102764
1.8492
0.102564
1.8349
0.104172
1.82705
0.108116
1.82628
0.114713
1.83313
0.124134
1.84775
0.136407
1.86952
0.151219
1.89679
0.167485
1.92676
0.182812
1.95555
0.193463
1.9783
0.195267
1.98945
0.185042
1.98315
0.162254
1.95644
0.130758
1.91257
0.0985695
1.85714
0.0739459
1.79433
0.0621139
1.72727
0.0649494
1.65905
0.0826501
1.59254
0.114203
1.53011
0.157001
1.47325
0.20761
1.42004
0.260625
1.36637
0.310427
1.30981
0.352533
1.24731
0.383081
1.17547
0.400432
1.0931
0.405957
1.00468
0.402784
0.90875
0.38944
0.804182
0.364208
0.689013
0.326409
0.570063
0.283825
0.459149
0.239667
0.325486
0.182276
0.177234
0.14062
-0.00756263
0.117334
-0.185226
0.057775
-0.28709
0.0106261
-0.309353
-0.0394337
-0.292321
-0.078901
-0.296025
-0.0441904
-0.300958
-0.0341853
-0.300081
-0.038278
-0.301078
-0.0358604
-0.0396881
-0.300774
1.64502
0.163273
1.60871
0.145828
1.57947
0.133822
1.55605
0.126185
1.53762
0.121006
1.52379
0.117998
1.51456
0.117361
1.51021
0.119072
1.51136
0.122993
1.51877
0.128996
1.5331
0.136905
1.55434
0.146257
1.58124
0.155914
1.61085
0.163857
1.63863
0.167487
1.65915
0.164511
1.66723
0.154169
1.65967
0.138319
1.63671
0.121518
1.60141
0.10925
1.55784
0.105693
1.50993
0.112864
1.46142
0.131192
1.41556
0.160051
1.37462
0.197911
1.33979
0.242447
1.31011
0.290313
1.28295
0.337609
1.25508
0.380414
1.22292
0.415259
1.18331
0.440047
1.13479
0.45449
1.07816
0.459408
1.01288
0.454699
0.938252
0.438854
0.854104
0.410581
0.763938
0.373975
0.670097
0.33352
0.562159
0.29024
0.450514
0.252263
0.349394
0.218426
0.237936
0.169221
0.11792
0.13059
-0.0312906
0.109769
-0.156438
0.0462823
-0.213078
0.0124309
-0.225183
-0.02214
-0.214036
-0.0494325
-0.219009
-0.0308554
-0.0369038
-0.221788
1.32868
0.204096
1.29578
0.17873
1.26929
0.160312
1.24841
0.147055
1.23235
0.137077
1.22048
0.129883
1.21247
0.125384
1.20828
0.123269
1.20811
0.123158
1.21235
0.124758
1.22142
0.127839
1.23554
0.132131
1.25428
0.137159
1.27607
0.142057
1.29804
0.14553
1.31634
0.146222
1.32703
0.143486
1.32725
0.138096
1.31629
0.132466
1.29563
0.129901
1.26808
0.133257
1.23673
0.144193
1.2046
0.163307
1.17434
0.190314
1.14804
0.224227
1.127
0.263502
1.11123
0.306078
1.09941
0.349432
1.08914
0.390684
1.07738
0.427023
1.06117
0.456265
1.03844
0.477221
1.00837
0.489503
0.970376
0.492708
0.923688
0.485518
0.867432
0.466822
0.802474
0.438941
0.730144
0.40584
0.650068
0.370301
0.568136
0.334162
0.489642
0.296896
0.403441
0.2554
0.316682
0.217365
0.242819
0.183653
0.154278
0.134838
0.068421
0.0982557
-0.0281273
0.0743427
-0.101084
0.0235438
-0.124276
-0.0076954
-0.0355319
-0.125715
0.985359
0.241866
0.958374
0.205718
0.938051
0.180645
0.922826
0.162283
0.911959
0.147941
0.904683
0.137169
0.900487
0.129582
0.899171
0.12459
0.900692
0.121659
0.90508
0.120398
0.9124
0.12053
0.922683
0.121846
0.9357
0.124142
0.95063
0.127099
0.965898
0.130208
0.979256
0.132823
0.988196
0.134518
0.990749
0.135547
0.986185
0.137066
0.975162
0.140907
0.959426
0.148977
0.941103
0.162532
0.922311
0.182114
0.904997
0.207626
0.890785
0.23844
0.880785
0.273508
0.875397
0.311468
0.87412
0.350687
0.875533
0.389267
0.877441
0.425125
0.877404
0.456315
0.873269
0.48133
0.863598
0.499153
0.847432
0.508893
0.823747
0.509227
0.79146
0.499114
0.750664
0.479739
0.702587
0.453907
0.648831
0.424025
0.592003
0.390959
0.533803
0.35507
0.4722
0.316997
0.411313
0.278265
0.355945
0.239027
0.29524
0.195533
0.238094
0.155402
0.193488
0.118982
0.140687
0.0763472
0.0888737
0.0440549
0.0194
0.033892
0.626403
0.280281
0.606436
0.22568
0.59266
0.19441
0.584199
0.170772
0.579685
0.152465
0.577935
0.138924
0.578375
0.12914
0.580753
0.122202
0.584892
0.117511
0.590627
0.114661
0.597801
0.113344
0.606279
0.113348
0.615865
0.114562
0.626123
0.116883
0.636226
0.120141
0.645054
0.124048
0.651309
0.12828
0.653957
0.132832
0.652685
0.138271
0.648015
0.145583
0.641031
0.155947
0.633191
0.170388
0.625862
0.189476
0.62026
0.21322
0.617458
0.241201
0.618229
0.272716
0.622886
0.306824
0.63117
0.342421
0.642204
0.378234
0.654525
0.41279
0.666344
0.444497
0.675867
0.471819
0.681628
0.493392
0.68254
0.50798
0.677564
0.514202
0.665688
0.510967
0.646706
0.498706
0.621411
0.479199
0.591119
0.454305
0.557147
0.424911
0.520526
0.391683
0.481832
0.355694
0.44271
0.317398
0.404489
0.277239
0.36488
0.235134
0.327146
0.193153
0.293883
0.152251
0.258844
0.111363
0.227831
0.075054
0.0422813
0.204981
0.244943
0.291763
0.239446
0.231192
0.237983
0.195874
0.239691
0.169068
0.242869
0.149298
0.246999
0.134789
0.252043
0.124085
0.257923
0.116334
0.264438
0.111038
0.271317
0.107829
0.278308
0.106395
0.285214
0.106502
0.291812
0.107978
0.297916
0.110749
0.303273
0.11472
0.307604
0.119675
0.31062
0.125288
0.312204
0.131327
0.312567
0.137905
0.312504
0.145686
0.312993
0.155505
0.314963
0.168431
0.318884
0.185541
0.325186
0.206885
0.334395
0.23195
0.346787
0.260305
0.362345
0.291258
0.380749
0.324017
0.401349
0.357654
0.423131
0.391017
0.44486
0.422765
0.465248
0.451429
0.483218
0.475418
0.497916
0.493249
0.508448
0.503671
0.513897
0.505529
0.513867
0.498732
0.508713
0.484338
0.49919
0.463805
0.486044
0.438049
0.469975
0.407761
0.451736
0.373937
0.432043
0.33709
0.411483
0.297803
0.389936
0.256692
0.368291
0.214812
0.347142
0.173375
0.325427
0.13306
0.305034
0.0954592
0.0610081
0.286323
-0.136603
0.253821
-0.121207
0.215769
-0.109411
0.184106
-0.0996065
0.159238
-0.0907419
0.140415
-0.0821667
0.126195
-0.0736269
0.115507
-0.0650407
0.107727
-0.0564822
0.102483
-0.0481779
0.0995106
-0.0404408
0.0986012
-0.0336149
0.0996181
-0.0281342
0.102476
-0.0244051
0.10705
-0.022634
0.113009
-0.0226628
0.119745
-0.0239998
0.12659
-0.0258829
0.133143
-0.0273058
0.139311
-0.0271444
0.1455
-0.0242317
0.15256
-0.0171187
0.161322
-0.00438008
0.172809
0.014306
0.188203
0.0380466
0.208261
0.0654285
0.232959
0.0952081
0.261488
0.126466
0.292776
0.158466
0.325674
0.190536
0.358945
0.221996
0.391318
0.252065
0.42137
0.280376
0.447094
0.306882
0.466713
0.330711
0.479829
0.350975
0.485266
0.367256
0.482429
0.379652
0.471941
0.388373
0.455095
0.393727
0.4327
0.396118
0.405367
0.396032
0.374008
0.39384
0.339281
0.389826
0.301831
0.38407
0.262454
0.376721
0.222147
0.367979
0.182103
0.357791
0.143258
0.34662
0.106652
0.073095
0.334543
-0.506521
0.209616
-0.479108
0.188327
-0.460528
0.165505
-0.447329
0.146024
-0.437193
0.130258
-0.42899
0.117967
-0.422164
0.10867
-0.416414
0.101971
-0.41151
0.0975569
-0.40719
0.0951612
-0.403128
0.0945424
-0.398946
0.0954734
-0.394178
0.0977387
-0.38826
0.101109
-0.38061
0.105289
-0.370826
0.109894
-0.358772
0.11453
-0.344647
0.118964
-0.328688
0.123306
-0.311182
0.128009
-0.292384
0.133804
-0.272547
0.141534
-0.251778
0.152089
-0.229757
0.166197
-0.205737
0.184268
-0.179023
0.206268
-0.149254
0.231724
-0.116349
0.259902
-0.0805686
0.289914
-0.0423371
0.320707
-0.00207145
0.351032
0.0393495
0.379951
0.0798338
0.40659
0.11817
0.428352
0.15416
0.44384
0.187278
0.452155
0.217554
0.452147
0.245177
0.444323
0.269662
0.430623
0.29105
0.411296
0.309558
0.386846
0.325369
0.3582
0.338605
0.326051
0.349319
0.291109
0.357454
0.254296
0.362915
0.216672
0.365681
0.179348
0.365699
0.143261
0.363067
0.109294
0.0782083
0.35796
-0.846507
0.169938
-0.816391
0.158259
-0.794253
0.143371
-0.777354
0.129141
-0.763808
0.11674
-0.752405
0.10657
-0.742363
0.0986247
-0.733154
0.092759
-0.724381
0.0887783
-0.715688
0.0864662
-0.70672
0.0855989
-0.69716
0.0859342
-0.686662
0.0872352
-0.674865
0.0892801
-0.661442
0.0918361
-0.64622
0.0946562
-0.629213
0.0975529
-0.610669
0.100447
-0.590877
0.103517
-0.570084
0.107202
-0.548396
0.11211
-0.525764
0.118908
-0.50191
0.128254
-0.476349
0.140668
-0.448525
0.156458
-0.417909
0.175651
-0.38417
0.197985
-0.34718
0.222953
-0.307098
0.249838
-0.264224
0.277799
-0.219042
0.305808
-0.171891
0.332805
-0.122938
0.357662
-0.0730559
0.378469
-0.0230843
0.393862
0.0260066
0.40307
0.0721233
0.40605
0.113796
0.402651
0.151299
0.393106
0.186187
0.376398
0.218483
0.354551
0.24788
0.328795
0.27437
0.29954
0.297857
0.2676
0.31811
0.234028
0.334834
0.199952
0.347791
0.166406
0.356823
0.13424
0.361971
0.104157
0.0767269
0.363466
-1.14935
0.134405
-1.11912
0.128021
-1.09433
0.118586
-1.07374
0.108567
-1.0562
0.0992084
-1.04075
0.0911221
-1.02666
0.0845441
-1.01338
0.0795024
-1.00048
0.0759117
-0.987599
0.0736245
-0.974442
0.072473
-0.96076
0.0722704
-0.946329
0.0728192
-0.93096
0.0739269
-0.914523
0.0754126
-0.896973
0.0771078
-0.87839
0.0789344
-0.858905
0.0809191
-0.838626
0.0832326
-0.817599
0.0861982
-0.795734
0.0902724
-0.772759
0.0959549
-0.748236
0.103729
-0.721593
0.114017
-0.692234
0.127087
-0.659575
0.142991
-0.623164
0.161573
-0.582724
0.182512
-0.538172
0.205295
-0.489602
0.229253
-0.437324
0.253551
-0.38175
0.277209
-0.323221
0.299095
-0.262541
0.317799
-0.200747
0.332102
-0.138958
0.341277
-0.0781912
0.345264
-0.0195299
0.343994
0.0358903
0.337671
0.0857916
0.326486
0.129385
0.310961
0.169764
0.288384
0.207361
0.2619
0.241739
0.2332
0.272412
0.203348
0.29885
0.173519
0.320609
0.144662
0.337441
0.117418
0.349393
0.0922199
0.0693841
0.356745
-1.41122
0.101507
-1.38126
0.098047
-1.35486
0.0921952
-1.33172
0.0854487
-1.31128
0.0787592
-1.29286
0.0727152
-1.27589
0.0676039
-1.25989
0.0635248
-1.24445
0.0604732
-1.22921
0.0583813
-1.21386
0.0571381
-1.19819
0.0566058
-1.18202
0.0566409
-1.16522
0.0571074
-1.14772
0.05789
-1.12948
0.0588853
-1.11056
0.0600277
-1.09099
0.0613485
-1.07077
0.0630026
-1.04979
0.0652208
-1.02784
0.0683155
-1.00458
0.0726634
-0.979478
0.0786245
-0.951941
0.0865027
-0.921351
0.096497
-0.887067
0.108696
-0.848499
0.123029
-0.805226
0.139263
-0.756975
0.157033
-0.703637
0.17586
-0.64526
0.195143
-0.582079
0.21407
-0.514647
0.231684
-0.443851
0.246988
-0.370851
0.259103
-0.297047
0.267476
-0.223714
0.271905
-0.151934
0.272232
-0.082547
0.268316
-0.0167071
0.260621
0.0439524
0.250263
0.0960941
0.236212
0.142442
0.215515
0.185877
0.189759
0.22548
0.163747
0.260206
0.138796
0.289387
0.115497
0.312741
0.0940809
0.330375
0.0746012
0.0571015
0.34267
-1.63832
0.0693201
-1.60802
0.0677744
-1.58021
0.0643759
-1.55495
0.0601807
-1.53203
0.0558259
-1.51107
0.0517393
-1.49165
0.0481657
-1.47337
0.0452214
-1.45586
0.0429303
-1.43877
0.0412644
-1.42182
0.0401649
-1.40477
0.03955
-1.38745
0.0393305
-1.36971
0.0394087
-1.35149
0.0396911
-1.33275
0.0401319
-1.31346
0.0407195
-1.29359
0.0414691
-1.27308
0.0424715
-1.25178
0.0438947
-1.22941
0.0459468
-1.2056
0.0488586
-1.17982
0.052854
-1.15145
0.0581433
-1.11983
0.064873
-1.08426
0.0731097
-1.04408
0.0828224
-0.998714
0.0938746
-0.947729
0.106054
-0.890852
0.119019
-0.828059
0.132334
-0.759513
0.145502
-0.685704
0.157886
-0.607516
0.168798
-0.526106
0.177673
-0.442731
0.184132
-0.358728
0.187929
-0.275447
0.188937
-0.194259
0.187124
-0.116416
0.182763
-0.0424302
0.176238
0.0259562
0.167815
0.0839924
0.157453
0.134523
0.139212
0.181665
0.116615
0.223287
0.0971879
0.258405
0.0803926
0.286809
0.0656878
0.308827
0.0525903
0.0409176
0.325009
-1.8363
0.0360353
-1.80408
0.0355507
-1.77368
0.0339542
-1.74543
0.031893
-1.71932
0.0296969
-1.69517
0.0275888
-1.67269
0.0257009
-1.65157
0.0241052
-1.63147
0.0228269
-1.61206
0.0218577
-1.59306
0.0211729
-1.57423
0.0207303
-1.55539
0.0204782
-1.53639
0.0203828
-1.51712
0.0204123
-1.49751
0.0205301
-1.47753
0.0207227
-1.4571
0.0210176
-1.43609
0.0214654
-1.41432
0.0221404
-1.39149
0.0231337
-1.36721
0.0245637
-1.34091
0.0265576
-1.31198
0.0292144
-1.2797
0.032599
-1.24336
0.0367521
-1.20221
0.04168
-1.15562
0.0472968
-1.10305
0.0534786
-1.04415
0.060097
-0.97874
0.066936
-0.906958
0.0737199
-0.829239
0.0801592
-0.746333
0.0859216
-0.659328
0.0906879
-0.56946
0.0942602
-0.478016
0.096505
-0.386394
0.097324
-0.29601
0.0967312
-0.208158
0.0949053
-0.123963
0.0920164
-0.044455
0.0882756
0.0288219
0.0841715
0.092189
0.0758482
0.145579
0.063237
0.192649
0.0501397
0.232011
0.0410412
0.263802
0.033904
0.288778
0.0276249
0.0219701
0.3077
-1.99968
-1.96414
-1.93019
-1.89829
-1.86857
-1.84096
-1.81524
-1.79112
-1.7683
-1.74645
-1.72529
-1.70459
-1.68412
-1.66374
-1.64333
-1.6228
-1.60207
-1.58104
-1.55957
-1.53743
-1.5143
-1.48973
-1.46316
-1.43395
-1.40135
-1.36457
-1.32291
-1.27564
-1.22215
-1.16205
-1.09512
-1.02138
-0.941218
-0.8553
-0.764594
-0.670324
-0.573825
-0.476505
-0.379784
-0.284893
-0.192877
-0.104605
-0.0204329
0.0554263
0.118667
0.168816
0.209863
0.243752
0.271378
0.293341
0.00812548
-0.000167391
0.00818533
-5.47911e-05
0.00822864
-3.76899e-05
0.00824928
-1.55156e-05
0.00825559
-1.24481e-06
0.0082545
6.1575e-06
0.0082493
1.01968e-05
0.00824151
1.27457e-05
0.00823193
1.4477e-05
0.00822117
1.5639e-05
0.00820967
1.63367e-05
0.00819779
1.66702e-05
0.00818578
1.67555e-05
0.00817381
1.66899e-05
0.00816195
1.65344e-05
0.00815027
1.63247e-05
0.00813879
1.60911e-05
0.00812748
1.58915e-05
0.00811616
1.58675e-05
0.00810531
1.53623e-05
0.00809485
1.49324e-05
0.00808539
1.38752e-05
0.00807665
1.30584e-05
0.00806827
1.26322e-05
0.00806003
1.24251e-05
0.00805185
1.22773e-05
0.00804375
1.21295e-05
0.00803575
1.1943e-05
0.00802792
1.16938e-05
0.00802033
1.13706e-05
0.00801312
1.09345e-05
0.00800638
1.03917e-05
0.00800023
9.74393e-06
0.00799478
8.98582e-06
0.00799012
8.1091e-06
0.00798641
7.09687e-06
0.00798379
5.92733e-06
0.00798246
4.57384e-06
0.00798264
2.99703e-06
0.00798459
1.15849e-06
0.00798859
-9.77075e-07
0.00799498
-3.43262e-06
0.00800413
-6.26298e-06
0.00801654
-9.65324e-06
0.00803292
-1.39283e-05
0.00805413
-1.93241e-05
0.00808103
-2.53366e-05
0.00811469
-3.01155e-05
0.00815834
-3.23662e-05
-3.95491e-05
0.00822325
0.00788198
-8.62453e-05
0.00787472
-3.79014e-05
0.00785668
-1.00418e-05
0.00785192
-1.56943e-06
0.00785462
5.15885e-06
0.00786025
9.59493e-06
0.0078675
1.19587e-05
0.00787597
1.32118e-05
0.00788528
1.40261e-05
0.007895
1.46915e-05
0.00790478
1.52258e-05
0.00791447
1.55792e-05
0.00792401
1.57374e-05
0.00793341
1.57335e-05
0.00794271
1.56103e-05
0.00795195
1.53858e-05
0.00796125
1.50407e-05
0.0079708
1.45148e-05
0.0079811
1.36696e-05
0.00799179
1.2682e-05
0.00800309
1.14736e-05
0.00801419
1.04157e-05
0.00802438
1.03249e-05
0.00803405
1.02915e-05
0.00804357
1.0098e-05
0.0080531
9.81192e-06
0.00806269
9.44715e-06
0.0080724
9.01152e-06
0.00808222
8.51576e-06
0.00809212
7.98776e-06
0.00810204
7.40445e-06
0.00811198
6.72821e-06
0.00812196
5.91709e-06
0.00813203
4.92935e-06
0.0081423
3.72175e-06
0.0081529
2.24978e-06
0.008164
4.61636e-07
0.00817579
-1.69771e-06
0.00818847
-4.28943e-06
0.00820227
-7.38661e-06
0.00821745
-1.10655e-05
0.00823428
-1.53851e-05
0.00825312
-2.04026e-05
0.00827449
-2.62735e-05
0.00829922
-3.35192e-05
0.00832864
-4.34682e-05
0.00836415
-5.82894e-05
0.00840521
-7.94259e-05
0.00844576
-0.000104208
-0.000125849
0.00847249
0.00789211
-1.61479e-05
0.00787777
-1.51013e-05
0.00788271
-6.48696e-06
0.00789185
-2.57342e-06
0.00790494
1.52608e-07
0.00791943
3.09882e-06
0.00793375
5.58157e-06
0.00794749
7.33113e-06
0.0079607
8.60615e-06
0.00797339
9.71021e-06
0.00798552
1.07203e-05
0.00799707
1.1568e-05
0.00800811
1.21752e-05
0.00801872
1.25259e-05
0.008029
1.26563e-05
0.00803905
1.26069e-05
0.00804891
1.23911e-05
0.00805861
1.19589e-05
0.00806786
1.14723e-05
0.00807652
1.09028e-05
0.00808496
9.68066e-06
0.00809282
9.00755e-06
0.00810087
8.62202e-06
0.00810914
8.26859e-06
0.00811752
7.84462e-06
0.00812598
7.3417e-06
0.00813454
6.76257e-06
0.00814319
6.10985e-06
0.00815196
5.38547e-06
0.00816089
4.5968e-06
0.00816998
3.74378e-06
0.00817927
2.76466e-06
0.00818881
1.59224e-06
0.00819868
1.69466e-07
0.00820896
-1.56159e-06
0.00821976
-3.65904e-06
0.00823119
-6.19168e-06
0.0082434
-9.23396e-06
0.00825652
-1.28593e-05
0.00827073
-1.71544e-05
0.00828623
-2.22378e-05
0.00830325
-2.8269e-05
0.00832202
-3.53979e-05
0.00834266
-4.36413e-05
0.00836528
-5.28279e-05
0.00839057
-6.30241e-05
0.00842082
-7.57983e-05
0.00845957
-9.52695e-05
0.00850477
-0.000125325
-0.000161781
0.00853127
0.00795337
-7.46531e-06
0.00795739
-1.08763e-05
0.00796668
-7.49658e-06
0.00797553
-3.49881e-06
0.00798389
-3.35417e-07
0.00799215
2.6472e-06
0.00800016
5.32265e-06
0.00800776
7.39493e-06
0.00801509
8.88345e-06
0.00802234
9.98647e-06
0.00802965
1.08589e-05
0.00803707
1.15327e-05
0.00804459
1.19703e-05
0.00805221
1.21485e-05
0.00805995
1.20904e-05
0.00806783
1.18434e-05
0.00807582
1.14552e-05
0.00808378
1.09869e-05
0.00809167
1.04681e-05
0.00809945
9.80845e-06
0.00810706
8.53827e-06
0.00811462
7.7699e-06
0.00812235
7.13284e-06
0.00813034
6.4148e-06
0.00813853
5.66897e-06
0.00814688
4.89072e-06
0.00815535
4.06816e-06
0.00816394
3.18695e-06
0.00817264
2.22908e-06
0.00818151
1.17484e-06
0.00819059
1.79459e-09
0.00819994
-1.34563e-06
0.0082096
-2.92797e-06
0.0082196
-4.80466e-06
0.00823001
-7.04402e-06
0.0082409
-9.7212e-06
0.00825234
-1.29226e-05
0.00826445
-1.67393e-05
0.00827733
-2.12631e-05
0.00829113
-2.65889e-05
0.00830601
-3.28414e-05
0.00832226
-4.02388e-05
0.0083402
-4.91624e-05
0.00836012
-6.01069e-05
0.00838185
-7.33345e-05
0.00840466
-8.84138e-05
0.00842856
-0.000104655
0.00845742
-0.00012344
0.008497
-0.000149984
-0.000186852
0.00852613
0.00795475
-1.76967e-07
0.00795396
-1.88018e-06
0.0079563
-1.62701e-06
0.00796064
3.51724e-08
0.00796663
1.51419e-06
0.00797409
2.95104e-06
0.00798264
4.50336e-06
0.0079917
5.98641e-06
0.00800095
7.22524e-06
0.00801026
8.18126e-06
0.00801964
8.91374e-06
0.00802908
9.46384e-06
0.00803853
9.82192e-06
0.00804795
9.96602e-06
0.00805731
9.89542e-06
0.00806664
9.63183e-06
0.00807594
9.20506e-06
0.00808527
8.63991e-06
0.00809464
7.98956e-06
0.00810392
7.17084e-06
0.00811264
6.21458e-06
0.00812139
5.31357e-06
0.00813032
4.42784e-06
0.00813931
3.53689e-06
0.00814835
2.63358e-06
0.00815742
1.70376e-06
0.00816654
7.29291e-07
0.00817569
-3.09824e-07
0.0081849
-1.43834e-06
0.00819421
-2.6863e-06
0.00820364
-4.08988e-06
0.00821323
-5.70015e-06
0.00822302
-7.57627e-06
0.00823304
-9.78779e-06
0.00824333
-1.24139e-05
0.00825397
-1.55427e-05
0.00826503
-1.92721e-05
0.0082766
-2.37094e-05
0.00828878
-2.89739e-05
0.00830168
-3.51832e-05
0.00831539
-4.24388e-05
0.00833004
-5.08368e-05
0.0083459
-6.05827e-05
0.00836346
-7.21998e-05
0.00838317
-8.65585e-05
0.00840443
-0.000104312
0.00842516
-0.000124911
0.00844552
-0.000147229
0.00847395
-0.000173274
-0.000207695
0.00849974
0.00795944
2.40098e-06
0.00796438
1.37124e-06
0.00797116
-2.04984e-07
0.00797927
-1.98501e-07
0.00798814
4.63021e-07
0.00799738
1.47234e-06
0.00800681
2.77996e-06
0.00801623
4.22592e-06
0.00802544
5.59188e-06
0.00803439
6.73546e-06
0.00804313
7.62427e-06
0.00805169
8.27245e-06
0.00806012
8.69236e-06
0.00806844
8.88608e-06
0.00807665
8.85599e-06
0.00808478
8.61543e-06
0.00809284
8.19096e-06
0.00810083
7.62591e-06
0.00810856
7.09744e-06
0.00811569
6.6175e-06
0.00812278
5.49289e-06
0.00813012
4.27729e-06
0.00813764
3.12047e-06
0.00814533
1.95404e-06
0.0081532
7.66579e-07
0.00816124
-4.42162e-07
0.00816944
-1.68653e-06
0.00817778
-2.99025e-06
0.00818627
-4.38283e-06
0.00819493
-5.89938e-06
0.00820376
-7.5832e-06
0.00821279
-9.48804e-06
0.00822204
-1.16789e-05
0.00823152
-1.42316e-05
0.00824127
-1.72334e-05
0.00825133
-2.07826e-05
0.00826174
-2.498e-05
0.00827258
-2.99428e-05
0.00828393
-3.5813e-05
0.0082959
-4.27633e-05
0.00830857
-5.09827e-05
0.00832194
-6.06101e-05
0.008336
-7.16973e-05
0.00835095
-8.43489e-05
0.00836748
-9.9097e-05
0.00838617
-0.000117072
0.00840547
-0.00013905
0.00842244
-0.000164122
0.00844276
-0.000191688
-0.000224791
0.00846322
0.00796054
3.87202e-06
0.0079664
3.6834e-06
0.00797262
1.75066e-06
0.00797919
1.09859e-06
0.00798619
1.25249e-06
0.00799355
1.86527e-06
0.00800126
2.76191e-06
0.00800931
3.82243e-06
0.00801758
4.88892e-06
0.008026
5.83014e-06
0.00803449
6.57185e-06
0.00804304
7.09027e-06
0.00805165
7.3884e-06
0.00806031
7.47377e-06
0.00806899
7.35073e-06
0.0080777
7.02598e-06
0.00808644
6.50797e-06
0.00809526
5.79228e-06
0.00810424
4.9591e-06
0.00811304
4.38624e-06
0.00812158
3.33156e-06
0.00813006
2.08422e-06
0.00813854
8.48931e-07
0.00814702
-4.20248e-07
0.00815551
-1.72278e-06
0.008164
-3.05257e-06
0.0081725
-4.42344e-06
0.00818102
-5.8621e-06
0.00818958
-7.4008e-06
0.00819819
-9.07725e-06
0.00820688
-1.09367e-05
0.00821566
-1.30343e-05
0.00822456
-1.54378e-05
0.0082336
-1.82272e-05
0.0082428
-2.14958e-05
0.00825218
-2.5347e-05
0.00826179
-2.98878e-05
0.00827165
-3.52352e-05
0.00828183
-4.15166e-05
0.00829241
-4.88923e-05
0.00830352
-5.75871e-05
0.00831523
-6.78746e-05
0.00832746
-7.9964e-05
0.00834
-9.38842e-05
0.00835299
-0.000109682
0.00836739
-0.000127933
0.00838338
-0.000149833
0.00839776
-0.000175676
0.0084126
-0.000204482
-0.00023732
0.00842769
0.00796137
4.50823e-06
0.00796843
4.77676e-06
0.00797561
2.73655e-06
0.00798294
1.62233e-06
0.00799069
1.28045e-06
0.00799882
1.47808e-06
0.00800725
2.03132e-06
0.00801591
2.79458e-06
0.00802473
3.63479e-06
0.00803363
4.43421e-06
0.00804255
5.09877e-06
0.00805144
5.57483e-06
0.00806029
5.84414e-06
0.00806911
5.90644e-06
0.00807789
5.76698e-06
0.00808661
5.43426e-06
0.00809527
4.92321e-06
0.00810379
4.25745e-06
0.00811201
3.58867e-06
0.00811977
3.19321e-06
0.00812742
2.04292e-06
0.00813513
6.56806e-07
0.00814292
-7.45009e-07
0.00815077
-2.17128e-06
0.00815865
-3.61412e-06
0.00816655
-5.07649e-06
0.00817446
-6.57749e-06
0.00818239
-8.14723e-06
0.00819034
-9.82119e-06
0.00819834
-1.16386e-05
0.00820638
-1.36463e-05
0.00821449
-1.59017e-05
0.00822267
-1.84736e-05
0.00823093
-2.14444e-05
0.00823929
-2.49102e-05
0.00824776
-2.89766e-05
0.00825635
-3.37633e-05
0.0082651
-3.94082e-05
0.00827402
-4.60452e-05
0.00828312
-5.38001e-05
0.00829248
-6.28269e-05
0.00830225
-7.33788e-05
0.00831252
-8.58037e-05
0.00832306
-0.000100366
0.00833347
-0.00011709
0.00834414
-0.000136042
0.00835612
-0.000157926
0.00836754
-0.000183625
0.00837852
-0.000212791
-0.000245546
0.00838918
0.0079618
4.71247e-06
0.00796941
5.28736e-06
0.00797692
3.37447e-06
0.00798423
2.13332e-06
0.00799174
1.55793e-06
0.00799945
1.49845e-06
0.00800734
1.81669e-06
0.00801541
2.35387e-06
0.00802363
2.98196e-06
0.00803198
3.59349e-06
0.00804042
4.10056e-06
0.00804892
4.44683e-06
0.00805748
4.60543e-06
0.00806609
4.56854e-06
0.00807472
4.34075e-06
0.00808336
3.9344e-06
0.008092
3.36456e-06
0.00810061
2.64417e-06
0.00810917
1.87342e-06
0.00811753
1.39766e-06
0.00812574
2.02679e-07
0.00813392
-1.25413e-06
0.00814212
-2.75074e-06
0.00815029
-4.25601e-06
0.00815841
-5.75839e-06
0.00816648
-7.2678e-06
0.00817447
-8.81142e-06
0.00818239
-1.04241e-05
0.00819025
-1.21437e-05
0.00819805
-1.40109e-05
0.00820582
-1.60735e-05
0.00821355
-1.83901e-05
0.00822126
-2.10314e-05
0.00822894
-2.40802e-05
0.0082366
-2.76305e-05
0.00824425
-3.17841e-05
0.0082519
-3.66618e-05
0.00825957
-4.24158e-05
0.00826726
-4.92119e-05
0.00827497
-5.72008e-05
0.00828267
-6.65029e-05
0.00829042
-7.72599e-05
0.00829841
-8.97401e-05
0.00830664
-0.000104373
0.00831472
-0.000121401
0.00832238
-0.000140826
0.00833052
-0.000162874
0.00833844
-0.000188313
0.00834586
-0.000217283
-0.000249813
0.00835269
0.00796204
4.68075e-06
0.00796997
5.48906e-06
0.00797772
3.76431e-06
0.00798518
2.49126e-06
0.00799277
1.72732e-06
0.00800059
1.41743e-06
0.00800861
1.46359e-06
0.00801685
1.74188e-06
0.00802526
2.13552e-06
0.00803382
2.54197e-06
0.00804249
2.8814e-06
0.00805122
3.0993e-06
0.00806
3.16343e-06
0.00806878
3.05882e-06
0.00807756
2.78428e-06
0.0080863
2.35061e-06
0.00809498
1.77434e-06
0.00810356
1.07153e-06
0.00811193
3.52033e-07
0.00811999
-1.01857e-07
0.00812788
-1.32542e-06
0.00813571
-2.8244e-06
0.00814354
-4.40494e-06
0.00815133
-5.97964e-06
0.00815907
-7.53142e-06
0.00816673
-9.07645e-06
0.00817431
-1.06467e-05
0.0081818
-1.22807e-05