/*--------------------------------*- C++ -*----------------------------------*\
  =========                 |
  \\      /  F ield         | OpenFOAM: The Open Source CFD Toolbox
   \\    /   O peration     | Website:  https://openfoam.org
    \\  /    A nd           | Version:  8
     \\/     M anipulation  |
\*---------------------------------------------------------------------------*/
FoamFile
{
    version     2.0;
    format      ascii;
    class       volScalarField;
    location    "400";
    object      T;
}
// * * * * * * * * * * * * * * * * * * * * * * * * * * * * * * * * * * * * * //

dimensions      [0 0 0 1 0 0 0];

internalField   nonuniform List<scalar> 
8400
(
297.028
296.882
296.735
296.591
296.453
296.326
296.219
296.138
296.093
296.087
296.119
296.181
296.267
296.374
296.501
296.644
296.803
296.973
297.152
297.322
297.456
297.538
297.563
297.534
297.454
297.333
297.186
297.045
296.94
296.875
296.84
296.824
296.815
296.809
296.802
296.797
296.795
296.793
296.79
296.786
296.783
296.781
296.779
296.778
296.776
296.773
296.769
296.764
296.758
296.749
298.294
298.131
297.948
297.755
297.553
297.347
297.152
296.988
296.879
296.837
296.863
296.95
297.087
297.271
297.494
297.748
298.019
298.286
298.525
298.72
298.853
298.921
298.926
298.87
298.75
298.567
298.333
298.096
297.914
297.794
297.718
297.668
297.627
297.583
297.534
297.486
297.446
297.411
297.372
297.332
297.299
297.278
297.265
297.258
297.256
297.259
297.264
297.27
297.277
297.284
299.425
299.267
299.111
298.936
298.73
298.483
298.205
297.921
297.676
297.516
297.472
297.537
297.681
297.896
298.177
298.502
298.834
299.12
299.306
299.392
299.467
299.527
299.562
299.558
299.495
299.354
299.113
298.853
298.681
298.593
298.54
298.496
298.454
298.409
298.343
298.27
298.211
298.156
298.084
297.994
297.913
297.852
297.805
297.77
297.747
297.733
297.726
297.725
297.726
297.728
300.001
300.001
300
299.999
299.998
299.996
299.994
299.991
299.986
299.979
299.958
299.861
299.578
299.052
298.487
298.199
298.24
298.574
299.018
299.226
299.355
299.455
299.545
299.628
299.7
299.759
299.54
299.304
299.229
299.191
299.17
299.16
299.144
299.119
299.056
298.993
298.959
298.929
298.871
298.774
298.678
298.609
298.547
298.491
298.45
298.421
298.399
298.385
298.373
298.363
300.005
300.005
300.006
300.008
300.01
300.013
300.015
300.019
300.022
300.026
300.029
300.026
299.998
299.917
299.78
299.63
299.51
299.461
299.43
299.427
299.451
299.499
299.561
299.626
299.686
299.736
299.78
299.799
299.792
299.757
299.714
299.685
299.7
299.675
299.492
299.457
299.459
299.465
299.425
299.35
299.295
299.261
299.221
299.172
299.138
299.112
299.091
299.075
299.061
299.047
300.001
300.001
300
300
300.001
300.001
300.002
300.003
300.004
300.006
300.008
300.011
300.009
299.995
299.964
299.922
299.88
299.854
299.844
299.84
299.843
299.854
299.87
299.888
299.907
299.923
299.935
299.943
299.946
299.941
299.928
299.912
299.898
299.879
299.822
299.775
299.769
299.773
299.686
299.621
299.629
299.632
299.609
299.581
299.566
299.553
299.54
299.53
299.52
299.51
300.002
300.002
300.001
300.001
300.002
300.002
300.002
300.002
300.002
300.002
300.002
300.003
300.003
300.001
299.995
299.984
299.972
299.963
299.957
299.957
299.96
299.964
299.969
299.975
299.98
299.984
299.988
299.99
299.992
299.991
299.987
299.98
299.969
299.954
299.929
299.899
299.877
299.859
299.837
299.814
299.804
299.769
299.728
299.721
299.71
299.694
299.684
299.674
299.663
299.652
300.001
300.001
300.001
300.001
300.001
300.001
300.001
300.001
300.001
300.001
300.001
300.001
300.001
300
299.999
299.996
299.993
299.991
299.989
299.989
299.99
299.992
299.994
299.996
299.998
300
300.001
300.003
300.004
300.004
300.003
300
299.993
299.983
299.967
299.948
299.928
299.908
299.889
299.867
299.848
299.828
299.813
299.807
299.725
299.674
299.661
299.649
299.634
299.624
300.001
300.001
300.001
300.001
300.001
300.001
300.001
300.001
300.001
300.001
300.001
300.001
300
300
299.999
299.999
299.998
299.997
299.997
299.997
299.998
299.999
300
300.001
300.002
300.004
300.005
300.006
300.006
300.007
300.007
300.005
300.001
299.994
299.983
299.969
299.953
299.936
299.918
299.899
299.88
299.863
299.847
299.835
299.816
299.797
299.788
299.679
299.654
299.666
300
300
300
300
300
300
300.001
300.001
300.001
300.001
300.001
300.001
300
300
300
300
299.999
299.999
299.999
299.999
300
300.001
300.001
300.002
300.003
300.004
300.005
300.005
300.006
300.007
300.007
300.006
300.003
299.998
299.99
299.98
299.966
299.952
299.936
299.92
299.904
299.888
299.874
299.862
299.85
299.836
299.825
299.801
299.787
299.782
300
300
300
300
300
300
300
300
300
300.001
300.001
300.001
300.001
300
300
300
300
300
300
300
300
300.001
300.001
300.002
300.003
300.003
300.004
300.005
300.005
300.006
300.006
300.006
300.004
300
299.994
299.985
299.974
299.962
299.949
299.935
299.921
299.908
299.895
299.884
299.872
299.861
299.849
299.836
299.823
299.811
300
300
300
300
300
300
300
300
300
300
300.001
300.001
300.001
300.001
300
300
300
300
300
300
300.001
300.001
300.001
300.002
300.002
300.003
300.004
300.004
300.005
300.005
300.005
300.005
300.003
300
299.995
299.988
299.979
299.968
299.957
299.946
299.934
299.923
299.911
299.9
299.889
299.878
299.865
299.852
299.837
299.821
300
300
300
300
300
300
300
300
300
300
300
300
300
300
300
300
300
300
300
300.001
300.001
300.002
300.002
300.002
300.003
300.003
300.004
300.004
300.005
300.005
300.005
300.004
300.003
300
299.995
299.989
299.981
299.972
299.963
299.953
299.943
299.933
299.923
299.913
299.901
299.889
299.874
299.858
299.84
299.819
300.001
300.001
300.001
300.001
300.001
300.001
300.001
300.001
300.001
300.001
300.001
300.001
300.001
300.001
300.001
300.001
300.001
300.002
300.002
300.002
300.002
300.003
300.003
300.003
300.004
300.004
300.004
300.005
300.005
300.005
300.005
300.004
300.002
299.999
299.994
299.988
299.981
299.974
299.966
299.958
299.949
299.941
299.931
299.921
299.909
299.895
299.878
299.859
299.836
299.81
300.002
300.002
300.002
300.002
300.002
300.002
300.002
300.002
300.002
300.002
300.002
300.002
300.002
300.002
300.002
300.003
300.003
300.003
300.003
300.003
300.003
300.003
300.003
300.004
300.004
300.004
300.004
300.004
300.003
300.003
300.002
300.001
299.999
299.996
299.992
299.987
299.981
299.974
299.967
299.96
299.953
299.945
299.936
299.925
299.912
299.896
299.877
299.854
299.827
299.795
300.002
300.001
300.001
300.001
300.002
300.002
300.002
300.002
300.002
300.003
300.003
300.003
300.003
300.003
300.003
300.003
300.003
300.003
300.003
300.003
300.003
300.003
300.003
300.003
300.003
300.002
300.002
300.001
300.001
300
299.999
299.997
299.995
299.992
299.988
299.984
299.979
299.973
299.968
299.961
299.954
299.947
299.937
299.925
299.911
299.893
299.871
299.844
299.812
299.775
299.991
299.991
299.992
299.992
299.993
299.994
299.995
299.996
299.996
299.997
299.998
299.999
300
300
300.001
300.001
300.002
300.002
300.002
300.002
300.002
300.002
300.002
300.002
300.001
300
299.999
299.998
299.997
299.996
299.994
299.992
299.99
299.987
299.984
299.98
299.975
299.971
299.965
299.96
299.953
299.945
299.935
299.922
299.905
299.885
299.859
299.829
299.793
299.751
299.962
299.961
299.962
299.962
299.963
299.965
299.966
299.968
299.97
299.972
299.974
299.976
299.978
299.98
299.982
299.984
299.986
299.988
299.989
299.99
299.991
299.991
299.991
299.991
299.99
299.99
299.989
299.987
299.986
299.984
299.982
299.98
299.977
299.974
299.971
299.968
299.964
299.96
299.956
299.952
299.946
299.94
299.929
299.914
299.895
299.871
299.843
299.809
299.769
299.723
299.907
299.902
299.899
299.895
299.893
299.891
299.89
299.889
299.89
299.891
299.893
299.895
299.898
299.902
299.906
299.91
299.914
299.918
299.921
299.925
299.928
299.93
299.932
299.934
299.935
299.935
299.935
299.934
299.933
299.932
299.931
299.93
299.928
299.927
299.926
299.925
299.924
299.923
299.923
299.922
299.921
299.92
299.915
299.9
299.879
299.852
299.82
299.783
299.739
299.689
299.813
299.796
299.781
299.766
299.751
299.738
299.725
299.713
299.703
299.695
299.689
299.684
299.682
299.682
299.683
299.685
299.689
299.694
299.7
299.706
299.711
299.717
299.722
299.726
299.73
299.733
299.735
299.737
299.74
299.742
299.745
299.749
299.754
299.76
299.768
299.777
299.788
299.801
299.814
299.829
299.844
299.859
299.872
299.875
299.853
299.824
299.789
299.748
299.701
299.648
303.149
303.147
303.146
303.144
303.142
303.141
303.139
303.138
303.136
303.135
303.133
303.132
303.13
303.129
303.127
303.126
303.124
303.123
303.122
303.12
303.119
303.118
303.116
303.115
303.114
303.113
303.112
303.11
303.109
303.108
303.107
303.106
303.105
303.104
303.103
303.102
303.101
303.1
303.099
303.098
303.097
303.096
303.095
303.095
303.094
303.093
303.092
303.092
303.091
303.091
303.15
303.15
303.15
303.15
303.15
303.15
303.15
303.15
303.149
303.149
303.149
303.149
303.149
303.149
303.149
303.148
303.148
303.148
303.148
303.148
303.147
303.147
303.147
303.146
303.146
303.145
303.145
303.145
303.144
303.144
303.144
303.143
303.143
303.142
303.142
303.141
303.141
303.14
303.14
303.14
303.139
303.139
303.139
303.138
303.138
303.138
303.137
303.137
303.137
303.136
303.15
303.15
303.15
303.15
303.15
303.15
303.15
303.15
303.15
303.15
303.15
303.15
303.15
303.15
303.15
303.15
303.15
303.15
303.15
303.15
303.15
303.15
303.15
303.15
303.15
303.15
303.149
303.149
303.149
303.149
303.149
303.149
303.149
303.149
303.149
303.149
303.148
303.148
303.148
303.148
303.148
303.148
303.148
303.148
303.147
303.147
303.147
303.147
303.147
303.147
303.15
303.15
303.15
303.15
303.15
303.15
303.15
303.15
303.15
303.15
303.15
303.15
303.15
303.15
303.15
303.15
303.15
303.15
303.15
303.15
303.15
303.15
303.15
303.15
303.15
303.15
303.15
303.15
303.15
303.15
303.15
303.15
303.15
303.15
303.15
303.15
303.15
303.15
303.15
303.15
303.15
303.15
303.15
303.15
303.15
303.15
303.15
303.15
303.149
303.149
303.15
303.15
303.15
303.15
303.15
303.15
303.15
303.15
303.15
303.15
303.15
303.15
303.15
303.15
303.15
303.15
303.15
303.15
303.15
303.15
303.15
303.15
303.15
303.15
303.15
303.15
303.15
303.15
303.15
303.15
303.15
303.15
303.15
303.15
303.15
303.15
303.15
303.15
303.15
303.15
303.15
303.15
303.15
303.15
303.15
303.15
303.15
303.15
303.15
303.15
303.15
303.15
303.15
303.15
303.15
303.15
303.15
303.15
303.15
303.15
303.15
303.15
303.15
303.15
303.15
303.15
303.15
303.15
303.15
303.15
303.15
303.15
303.15
303.15
303.15
303.15
303.15
303.15
303.15
303.15
303.15
303.15
303.15
303.15
303.15
303.15
303.15
303.15
303.15
303.15
303.15
303.15
303.15
303.15
303.15
303.15
303.15
303.15
303.15
303.15
303.15
303.15
303.15
303.15
303.15
303.15
303.15
303.15
303.15
303.15
303.15
303.15
303.15
303.15
303.15
303.15
303.15
303.15
303.15
303.15
303.15
303.15
303.15
303.15
303.15
303.15
303.15
303.15
303.15
303.15
303.15
303.15
303.15
303.15
303.15
303.15
303.15
303.15
303.15
303.15
303.15
303.15
303.15
303.15
303.15
303.15
303.15
303.15
303.15
303.15
303.15
303.15
303.15
303.15
303.15
303.15
303.15
303.15
303.15
303.15
303.15
303.15
303.15
303.15
303.15
303.15
303.15
303.15
303.15
303.15
303.15
303.15
303.15
303.15
303.15
303.15
303.15
303.15
303.15
303.15
303.15
303.15
303.15
303.15
303.15
303.15
303.15
303.15
303.15
303.15
303.15
303.15
303.15
303.15
303.15
303.15
303.15
303.15
303.15
303.15
303.15
303.15
303.15
303.15
303.15
303.15
303.15
303.15
303.15
303.15
303.15
303.15
303.15
303.15
303.15
303.15
303.15
303.15
303.15
303.15
303.15
303.15
303.15
303.15
303.15
303.15
303.15
303.15
303.15
303.15
303.15
303.15
303.15
303.15
303.15
303.15
303.15
303.15
303.15
303.15
303.15
303.15
303.15
303.15
303.15
303.15
303.15
303.15
303.15
303.15
303.15
303.15
303.15
303.15
303.15
303.15
303.15
303.15
303.15
303.15
303.15
303.15
303.15
303.15
303.15
303.15
303.15
303.15
303.15
303.15
303.15
303.15
303.15
303.15
303.15
303.15
303.15
303.15
303.15
303.15
303.15
303.15
303.15
303.15
303.15
303.15
303.15
303.15
303.15
303.15
303.15
303.15
303.15
303.15
303.15
303.15
303.15
303.15
303.15
303.15
303.15
303.15
303.15
303.15
303.15
303.15
303.15
303.15
303.15
303.15
303.15
303.15
303.15
303.15
303.15
303.15
303.15
303.15
303.15
303.15
303.15
303.15
303.15
303.15
303.15
303.15
303.15
303.15
303.15
303.15
303.15
303.15
303.15
303.15
303.15
303.15
303.15
303.15
303.15
303.15
303.15
303.15
303.15
303.15
303.15
303.15
303.15
303.15
303.15
303.15
303.15
303.15
303.15
303.15
303.15
303.15
303.15
303.15
303.15
303.15
303.15
303.15
303.15
303.15
303.15
303.15
303.15
303.15
303.15
303.15
303.15
303.15
303.15
303.15
303.15
303.15
303.15
303.15
303.15
303.15
303.15
303.15
303.15
303.15
303.15
303.15
303.15
303.15
303.15
303.15
303.15
303.15
303.15
303.15
303.15
303.15
303.15
303.15
303.15
303.15
303.15
303.15
303.15
303.15
303.15
303.15
303.15
303.15
303.15
303.15
303.15
303.15
303.15
303.15
303.15
303.15
303.15
303.15
303.15
303.15
303.15
303.15
303.15
303.15
303.15
303.15
303.15
303.15
303.15
303.15
303.15
303.15
303.15
303.15
303.15
303.15
303.15
303.15
303.15
303.15
303.15
303.15
303.15
303.15
303.15
303.15
303.15
303.15
303.15
303.15
303.15
303.15
303.15
303.15
303.15
303.15
303.15
303.15
303.15
303.15
303.15
303.15
303.15
303.15
303.15
303.15
303.15
303.15
303.15
303.15
303.15
303.15
303.15
303.15
303.15
303.15
303.15
303.15
303.15
303.15
303.15
303.15
303.15
303.15
303.15
303.15
303.15
303.15
303.15
303.15
303.15
303.15
303.15
303.15
303.15
303.15
303.15
303.15
303.15
303.15
303.15
303.15
303.15
303.15
303.15
303.15
303.15
303.15
303.15
303.15
303.15
303.15
303.15
303.15
303.15
303.15
303.15
303.15
303.15
303.15
303.15
303.15
303.15
303.15
303.15
303.15
303.15
303.15
303.15
303.15
303.15
303.15
303.15
303.15
303.15
303.15
303.15
303.15
303.15
303.15
303.15
303.15
303.15
303.15
303.15
303.15
303.15
303.15
303.15
303.15
303.15
303.15
303.15
303.15
303.15
303.15
303.15
303.15
303.15
303.15
303.15
303.15
303.15
303.15
303.15
303.15
303.15
303.15
303.15
303.15
303.15
303.15
303.15
303.15
303.15
303.15
303.15
303.15
303.15
303.15
303.15
303.15
303.15
303.15
303.15
303.15
303.15
303.15
303.15
303.15
303.15
303.15
303.15
303.15
303.15
303.15
303.15
303.15
303.15
303.15
303.15
303.15
303.15
303.15
303.15
303.15
303.15
303.15
303.15
303.15
303.15
303.15
303.15
303.15
303.15
303.15
303.15
303.15
303.15
303.15
303.15
303.15
303.15
303.15
303.15
303.15
303.15
303.15
303.15
303.15
303.15
303.15
303.15
303.15
303.15
303.15
303.15
303.15
303.15
303.15
303.15
303.15
303.15
303.149
303.149
303.149
303.149
303.149
303.149
303.149
303.15
303.15
303.15
303.15
303.15
303.15
303.15
303.15
303.15
303.15
303.15
303.15
303.15
303.15
303.15
303.15
303.15
303.15
303.15
303.15
303.15
303.15
303.15
303.15
303.15
303.15
303.149
303.149
303.149
303.149
303.149
303.149
303.149
303.149
303.149
303.148
303.148
303.148
303.148
303.148
303.148
303.147
303.147
303.147
303.147
303.147
303.146
303.146
303.146
303.145
303.15
303.15
303.15
303.15
303.15
303.15
303.15
303.15
303.149
303.149
303.149
303.149
303.149
303.149
303.149
303.148
303.148
303.148
303.148
303.148
303.147
303.147
303.147
303.146
303.146
303.145
303.145
303.145
303.144
303.144
303.143
303.143
303.142
303.142
303.141
303.141
303.14
303.14
303.139
303.139
303.138
303.138
303.137
303.137
303.136
303.136
303.135
303.135
303.134
303.133
303.149
303.147
303.146
303.144
303.142
303.141
303.139
303.138
303.136
303.135
303.133
303.132
303.13
303.129
303.127
303.126
303.124
303.123
303.121
303.12
303.119
303.117
303.116
303.115
303.114
303.113
303.111
303.11
303.109
303.108
303.107
303.106
303.105
303.104
303.103
303.102
303.101
303.1
303.099
303.098
303.097
303.096
303.095
303.094
303.093
303.092
303.091
303.09
303.089
303.089
299.833
296.729
294.608
293.635
293.278
293.178
293.161
293.162
293.163
293.161
293.158
293.149
293.146
293.18
293.313
293.627
294.189
294.983
295.891
296.622
299.843
296.715
294.588
293.62
293.271
293.176
293.162
293.164
293.165
293.162
293.159
293.15
293.146
293.179
293.307
293.606
294.14
294.892
295.754
296.469
299.853
296.701
294.568
293.606
293.264
293.175
293.163
293.166
293.167
293.163
293.16
293.151
293.146
293.177
293.3
293.59
294.104
294.829
295.663
296.367
299.861
296.686
294.549
293.592
293.258
293.174
293.165
293.169
293.169
293.164
293.161
293.151
293.146
293.176
293.295
293.574
294.07
294.77
295.577
296.269
299.87
296.671
294.53
293.579
293.252
293.174
293.167
293.171
293.17
293.165
293.161
293.152
293.146
293.174
293.29
293.559
294.039
294.713
295.494
296.175
299.877
296.657
294.513
293.567
293.248
293.174
293.169
293.174
293.172
293.165
293.162
293.153
293.146
293.173
293.285
293.546
294.008
294.66
295.416
296.084
299.884
296.643
294.497
293.557
293.244
293.174
293.172
293.176
293.174
293.166
293.162
293.153
293.147
293.172
293.28
293.533
293.98
294.609
295.342
295.997
299.891
296.629
294.484
293.549
293.242
293.176
293.174
293.179
293.176
293.166
293.162
293.153
293.147
293.171
293.276
293.52
293.953
294.562
295.272
295.915
299.896
296.617
294.473
293.542
293.241
293.177
293.177
293.181
293.177
293.167
293.162
293.154
293.147
293.17
293.272
293.509
293.928
294.517
295.206
295.837
299.902
296.607
294.465
293.538
293.24
293.179
293.18
293.184
293.179
293.168
293.162
293.154
293.147
293.169
293.269
293.499
293.905
294.475
295.144
295.764
299.906
296.598
294.46
293.536
293.241
293.182
293.182
293.186
293.181
293.168
293.162
293.154
293.147
293.169
293.265
293.489
293.883
294.436
295.086
295.695
299.912
296.592
294.458
293.536
293.243
293.184
293.185
293.189
293.183
293.169
293.162
293.154
293.147
293.168
293.263
293.48
293.862
294.4
295.033
295.63
299.917
296.589
294.458
293.538
293.246
293.187
293.189
293.192
293.185
293.17
293.162
293.154
293.147
293.168
293.26
293.472
293.844
294.366
294.983
295.57
299.923
296.591
294.462
293.541
293.249
293.191
293.192
293.195
293.187
293.171
293.163
293.155
293.148
293.167
293.258
293.465
293.827
294.335
294.937
295.514
299.931
296.596
294.467
293.546
293.253
293.194
293.195
293.198
293.189
293.172
293.163
293.155
293.148
293.167
293.256
293.458
293.811
294.307
294.894
295.462
299.941
296.605
294.476
293.551
293.257
293.198
293.199
293.201
293.192
293.174
293.163
293.155
293.148
293.167
293.255
293.453
293.797
294.28
294.855
295.414
299.953
296.617
294.486
293.558
293.261
293.201
293.202
293.205
293.194
293.175
293.163
293.154
293.148
293.167
293.254
293.448
293.785
294.256
294.819
295.369
299.967
296.633
294.499
293.566
293.266
293.205
293.206
293.208
293.197
293.176
293.163
293.154
293.148
293.167
293.253
293.445
293.773
294.235
294.786
295.328
299.984
296.652
294.514
293.575
293.271
293.21
293.21
293.212
293.2
293.177
293.162
293.154
293.148
293.167
293.253
293.441
293.764
294.215
294.756
295.29
300.004
296.674
294.531
293.585
293.277
293.214
293.214
293.216
293.203
293.178
293.161
293.153
293.148
293.168
293.253
293.439
293.755
294.198
294.729
295.255
300.026
296.699
294.55
293.596
293.283
293.219
293.219
293.219
293.205
293.179
293.159
293.153
293.148
293.168
293.253
293.438
293.748
294.182
294.705
295.223
300.051
296.728
294.572
293.608
293.29
293.223
293.223
293.223
293.208
293.18
293.158
293.152
293.147
293.169
293.254
293.437
293.742
294.169
294.683
295.193
300.077
296.76
294.595
293.621
293.298
293.229
293.228
293.227
293.211
293.181
293.157
293.152
293.147
293.169
293.256
293.437
293.737
294.157
294.663
295.165
300.106
296.795
294.621
293.636
293.305
293.234
293.232
293.231
293.213
293.182
293.158
293.151
293.147
293.17
293.257
293.437
293.733
294.146
294.645
295.14
300.138
296.834
294.65
293.652
293.314
293.24
293.237
293.235
293.216
293.183
293.158
293.15
293.147
293.172
293.259
293.439
293.731
294.138
294.63
295.116
300.172
296.876
294.68
293.668
293.323
293.246
293.242
293.239
293.219
293.185
293.158
293.15
293.148
293.173
293.263
293.441
293.729
294.13
294.616
295.093
300.209
296.921
294.714
293.687
293.332
293.252
293.247
293.243
293.221
293.186
293.159
293.149
293.148
293.176
293.266
293.444
293.729
294.124
294.603
295.072
300.248
296.971
294.75
293.707
293.342
293.258
293.253
293.248
293.224
293.188
293.16
293.149
293.15
293.179
293.271
293.448
293.729
294.119
294.592
295.051
300.29
297.024
294.79
293.728
293.353
293.265
293.258
293.252
293.227
293.19
293.161
293.15
293.152
293.184
293.277
293.453
293.731
294.115
294.581
295.031
300.335
297.082
294.832
293.752
293.365
293.272
293.264
293.257
293.23
293.192
293.163
293.151
293.155
293.189
293.283
293.458
293.733
294.112
294.572
295.012
300.383
297.144
294.879
293.777
293.378
293.28
293.27
293.262
293.234
293.194
293.165
293.153
293.158
293.194
293.29
293.464
293.736
294.11
294.563
294.993
300.434
297.211
294.929
293.805
293.391
293.288
293.276
293.267
293.238
293.196
293.167
293.156
293.163
293.201
293.297
293.471
293.739
294.108
294.555
294.975
300.488
297.283
294.983
293.835
293.406
293.297
293.283
293.272
293.242
293.2
293.17
293.159
293.167
293.208
293.305
293.477
293.742
294.106
294.547
294.956
300.545
297.36
295.042
293.868
293.422
293.306
293.289
293.278
293.247
293.203
293.173
293.163
293.173
293.215
293.312
293.484
293.746
294.105
294.539
294.938
300.606
297.443
295.106
293.904
293.44
293.315
293.296
293.284
293.252
293.207
293.177
293.168
293.178
293.222
293.32
293.491
293.75
294.104
294.531
294.919
300.67
297.532
295.175
293.943
293.459
293.325
293.304
293.291
293.258
293.212
293.181
293.173
293.184
293.229
293.328
293.498
293.754
294.103
294.522
294.9
300.737
297.627
295.25
293.986
293.48
293.336
293.312
293.298
293.264
293.217
293.186
293.178
293.19
293.237
293.336
293.504
293.757
294.102
294.514
294.881
300.806
297.727
295.33
294.032
293.502
293.348
293.32
293.305
293.271
293.223
293.191
293.183
293.196
293.244
293.343
293.511
293.761
294.101
294.505
294.861
300.879
297.834
295.417
294.083
293.527
293.36
293.328
293.313
293.279
293.23
293.196
293.189
293.203
293.251
293.35
293.517
293.764
294.099
294.496
294.841
300.955
297.947
295.51
294.138
293.553
293.373
293.337
293.322
293.287
293.237
293.202
293.194
293.209
293.258
293.358
293.523
293.767
294.098
294.487
294.82
301.033
298.066
295.61
294.198
293.583
293.388
293.347
293.33
293.296
293.246
293.208
293.2
293.215
293.265
293.365
293.529
293.77
294.096
294.477
294.799
301.113
298.192
295.718
294.263
293.615
293.403
293.357
293.34
293.305
293.255
293.216
293.207
293.222
293.272
293.372
293.535
293.773
294.093
294.466
294.777
301.195
298.324
295.832
294.334
293.65
293.42
293.367
293.35
293.316
293.265
293.224
293.214
293.229
293.28
293.379
293.541
293.776
294.091
294.455
294.755
301.28
298.463
295.955
294.411
293.689
293.438
293.379
293.36
293.327
293.276
293.233
293.221
293.237
293.288
293.387
293.547
293.779
294.088
294.443
294.732
301.366
298.608
296.087
294.495
293.731
293.458
293.391
293.371
293.339
293.288
293.244
293.23
293.245
293.296
293.395
293.553
293.782
294.085
294.431
294.708
301.454
298.759
296.227
294.587
293.778
293.479
293.403
293.383
293.352
293.302
293.256
293.24
293.255
293.306
293.404
293.56
293.785
294.082
294.418
294.684
301.542
298.917
296.376
294.686
293.83
293.503
293.417
293.395
293.365
293.317
293.27
293.251
293.265
293.316
293.413
293.568
293.789
294.079
294.404
294.659
301.632
299.081
296.536
294.795
293.887
293.53
293.431
293.407
293.38
293.333
293.286
293.265
293.278
293.328
293.424
293.577
293.793
294.076
294.391
294.634
301.722
299.251
296.705
294.913
293.951
293.559
293.447
293.421
293.395
293.351
293.304
293.28
293.292
293.342
293.437
293.586
293.797
294.073
294.376
294.608
301.812
299.428
296.886
295.043
294.022
293.593
293.464
293.435
293.411
293.37
293.323
293.298
293.309
293.357
293.451
293.597
293.803
294.071
294.362
294.582
301.902
299.61
297.079
295.185
294.102
293.63
293.482
293.449
293.428
293.391
293.346
293.319
293.328
293.375
293.466
293.609
293.809
294.068
294.346
294.555
301.994
299.797
297.284
295.34
294.192
293.672
293.503
293.465
293.446
293.412
293.37
293.342
293.35
293.395
293.484
293.623
293.816
294.066
294.331
294.528
302.087
299.989
297.504
295.511
294.293
293.721
293.525
293.481
293.464
293.435
293.396
293.368
293.374
293.418
293.504
293.638
293.825
294.063
294.315
294.5
302.178
300.187
297.737
295.7
294.409
293.777
293.551
293.498
293.483
293.459
293.424
293.397
293.401
293.442
293.525
293.655
293.834
294.061
294.298
294.472
302.268
300.39
297.987
295.908
294.54
293.843
293.581
293.515
293.502
293.483
293.453
293.428
293.431
293.47
293.549
293.672
293.844
294.059
294.281
294.444
302.357
300.599
298.254
296.14
294.691
293.921
293.615
293.535
293.521
293.508
293.483
293.462
293.462
293.499
293.574
293.691
293.854
294.057
294.264
294.415
302.444
300.814
298.539
296.397
294.866
294.014
293.656
293.555
293.54
293.532
293.514
293.496
293.495
293.529
293.6
293.711
293.865
294.054
294.246
294.386
302.529
301.033
298.844
296.684
295.069
294.125
293.706
293.579
293.559
293.556
293.544
293.53
293.529
293.561
293.627
293.732
293.876
294.051
294.227
294.357
302.61
301.256
299.169
297.004
295.306
294.261
293.769
293.606
293.578
293.578
293.573
293.564
293.564
293.593
293.655
293.753
293.886
294.047
294.208
294.327
302.689
301.482
299.515
297.363
295.584
294.429
293.848
293.639
293.597
293.6
293.601
293.597
293.599
293.626
293.683
293.773
293.895
294.042
294.188
294.297
302.762
301.708
299.882
297.764
295.912
294.637
293.951
293.68
293.617
293.619
293.627
293.628
293.632
293.657
293.71
293.793
293.904
294.036
294.168
294.267
302.831
301.932
300.268
298.209
296.298
294.897
294.088
293.737
293.64
293.637
293.65
293.657
293.664
293.687
293.735
293.81
293.91
294.029
294.147
294.236
302.893
302.149
300.666
298.703
296.753
295.223
294.27
293.816
293.669
293.653
293.669
293.682
293.693
293.714
293.758
293.825
293.915
294.02
294.125
294.205
302.948
302.356
301.071
299.241
297.285
295.633
294.518
293.931
293.71
293.669
293.684
293.703
293.717
293.738
293.777
293.838
293.917
294.009
294.102
294.174
302.995
302.546
301.474
299.819
297.902
296.147
294.855
294.102
293.774
293.689
293.696
293.719
293.737
293.756
293.793
293.846
293.916
293.997
294.079
294.143
303.031
302.712
301.86
300.423
298.601
296.782
295.312
294.359
293.881
293.72
293.704
293.728
293.751
293.77
293.803
293.851
293.912
293.982
294.054
294.112
303.059
302.853
302.213
301.028
299.373
297.551
295.924
294.743
294.064
293.779
293.715
293.731
293.758
293.778
293.808
293.851
293.904
293.966
294.029
294.08
303.077
302.962
302.518
301.605
300.188
298.452
296.724
295.31
294.376
293.902
293.742
293.73
293.756
293.78
293.808
293.846
293.893
293.947
294.002
294.048
303.088
303.04
302.761
302.116
300.999
299.456
297.725
296.118
294.892
294.148
293.817
293.736
293.75
293.776
293.803
293.837
293.879
293.926
293.975
294.016
303.093
303.09
302.937
302.53
301.737
300.495
298.905
297.21
295.708
294.621
294.011
293.777
293.743
293.767
293.792
293.824
293.861
293.903
293.946
293.983
303.093
303.118
303.049
302.827
302.337
301.465
300.171
298.571
296.908
295.468
294.462
293.933
293.759
293.751
293.776
293.806
293.84
293.878
293.916
293.949
303.092
303.13
303.109
303.01
302.757
302.244
301.364
300.077
298.49
296.835
295.4
294.405
293.899
293.75
293.756
293.784
293.816
293.85
293.885
293.915
303.089
303.134
303.135
303.102
303
302.762
302.29
301.477
300.266
298.729
297.07
295.574
294.49
293.91
293.74
293.76
293.789
293.821
293.853
293.88
303.085
303.135
303.144
303.137
303.108
303.029
302.847
302.482
301.832
300.817
299.446
297.852
296.259
294.924
294.068
293.78
293.79
293.814
293.84
293.865
303.082
303.133
303.146
303.147
303.142
303.125
303.081
302.981
302.776
302.396
301.777
300.874
299.702
298.276
296.636
295.112
294.423
294.26
294.26
294.827
303.078
303.132
303.145
303.149
303.149
303.147
303.141
303.127
303.096
303.036
302.931
302.759
302.521
302.226
301.853
301.163
299.529
297.426
295.693
296.219
303.074
303.13
303.145
303.149
303.15
303.149
303.148
303.146
303.143
303.136
303.124
303.106
303.078
303.039
302.986
302.899
302.763
302.523
301.356
299.39
303.071
303.128
303.144
303.149
303.15
303.15
303.149
303.149
303.147
303.145
303.141
303.136
303.128
303.116
303.098
303.066
302.994
302.801
302.243
300.668
303.068
303.126
303.143
303.148
303.15
303.15
303.15
303.149
303.149
303.147
303.145
303.142
303.136
303.129
303.118
303.102
303.074
303.008
302.807
302.223
303.065
303.125
303.143
303.148
303.15
303.15
303.15
303.15
303.149
303.149
303.147
303.145
303.141
303.135
303.126
303.114
303.097
303.074
303.041
302.966
303.062
303.123
303.142
303.148
303.15
303.15
303.15
303.15
303.15
303.149
303.148
303.147
303.144
303.139
303.132
303.121
303.105
303.084
303.058
303.026
303.06
303.122
303.141
303.148
303.15
303.15
303.15
303.15
303.15
303.15
303.149
303.148
303.146
303.142
303.136
303.126
303.112
303.091
303.064
303.029
303.057
303.12
303.14
303.148
303.149
303.15
303.15
303.15
303.15
303.15
303.149
303.149
303.147
303.144
303.139
303.131
303.117
303.096
303.068
303.03
303.055
303.119
303.14
303.147
303.149
303.15
303.15
303.15
303.15
303.15
303.15
303.149
303.148
303.146
303.142
303.134
303.121
303.101
303.072
303.031
303.054
303.118
303.139
303.147
303.149
303.15
303.15
303.15
303.15
303.15
303.15
303.149
303.149
303.147
303.143
303.137
303.124
303.105
303.075
303.032
303.052
303.117
303.139
303.147
303.149
303.15
303.15
303.15
303.15
303.15
303.15
303.15
303.149
303.148
303.145
303.139
303.127
303.108
303.077
303.033
303.051
303.116
303.138
303.147
303.149
303.15
303.15
303.15
303.15
303.15
303.15
303.15
303.149
303.148
303.146
303.14
303.13
303.11
303.079
303.034
303.05
303.116
303.138
303.147
303.149
303.15
303.15
303.15
303.15
303.15
303.15
303.15
303.149
303.149
303.146
303.141
303.131
303.113
303.081
303.035
303.049
303.115
303.137
303.146
303.149
303.15
303.15
303.15
303.15
303.15
303.15
303.15
303.15
303.149
303.147
303.143
303.133
303.115
303.083
303.035
303.048
303.115
303.137
303.146
303.149
303.15
303.15
303.15
303.15
303.15
303.15
303.15
303.15
303.149
303.147
303.143
303.134
303.117
303.085
303.036
303.048
303.114
303.137
303.146
303.149
303.15
303.15
303.15
303.15
303.15
303.15
303.15
303.15
303.149
303.148
303.144
303.136
303.118
303.086
303.037
303.048
303.114
303.137
303.146
303.149
303.15
303.15
303.15
303.15
303.15
303.15
303.15
303.15
303.149
303.148
303.145
303.137
303.119
303.087
303.037
303.047
303.114
303.137