/*--------------------------------*- C++ -*----------------------------------*\
  =========                 |
  \\      /  F ield         | OpenFOAM: The Open Source CFD Toolbox
   \\    /   O peration     | Website:  https://openfoam.org
    \\  /    A nd           | Version:  8
     \\/     M anipulation  |
\*---------------------------------------------------------------------------*/
FoamFile
{
    version     2.0;
    format      ascii;
    class       volScalarField;
    location    "600";
    object      epsilon;
}
// * * * * * * * * * * * * * * * * * * * * * * * * * * * * * * * * * * * * * //

dimensions      [0 2 -3 0 0 0 0];

internalField   nonuniform List<scalar> 
8400
(
0.863168
0.831789
0.802238
0.774444
0.748347
0.723877
0.700967
0.679554
0.659574
0.640964
0.623658
0.607588
0.592685
0.578877
0.566088
0.554245
0.54327
0.533091
0.523634
0.514825
0.506594
0.498873
0.491598
0.484706
0.47814
0.471846
0.465774
0.459878
0.454115
0.448449
0.442846
0.437277
0.43172
0.426153
0.420561
0.414934
0.409265
0.40355
0.39779
0.391989
0.386155
0.380304
0.374455
0.368629
0.362858
0.357183
0.351658
0.346358
0.341372
0.336825
0.0203657
0.0204463
0.0205491
0.0206734
0.0208185
0.0209839
0.0211693
0.0213741
0.021598
0.0218401
0.0221001
0.0223771
0.0226702
0.0229787
0.0233015
0.0236374
0.0239853
0.0243439
0.024712
0.025088
0.0254706
0.0258582
0.0262492
0.0266422
0.0270354
0.0274275
0.027817
0.0282022
0.0285817
0.0289541
0.029318
0.0296722
0.0300155
0.0303468
0.0306651
0.0309697
0.0312598
0.0315349
0.0317943
0.0320377
0.0322649
0.032476
0.0326711
0.0328504
0.0330143
0.0331635
0.0332985
0.0334205
0.0335307
0.0336307
0.0159381
0.0160977
0.0162716
0.01646
0.0166628
0.0168801
0.0171118
0.0173579
0.0176183
0.0178929
0.0181816
0.018484
0.0188
0.0191289
0.0194704
0.0198238
0.0201882
0.0205628
0.0209468
0.021339
0.0217383
0.0221435
0.0225532
0.0229663
0.0233812
0.0237966
0.024211
0.024623
0.0250312
0.0254342
0.0258306
0.0262191
0.0265986
0.026968
0.0273261
0.0276723
0.0280058
0.028326
0.0286322
0.0289244
0.0292026
0.029467
0.0297181
0.0299567
0.030184
0.0304016
0.0306113
0.0308161
0.0310191
0.0312251
0.0135297
0.0136423
0.0137647
0.0138966
0.014038
0.0141888
0.014349
0.0145188
0.0146982
0.0148871
0.0150856
0.0152937
0.0155112
0.0157377
0.015973
0.0162167
0.0164682
0.016727
0.0169924
0.0172637
0.01754
0.0178206
0.0181045
0.0183908
0.0186786
0.0189668
0.0192544
0.0195405
0.0198242
0.0201045
0.0203805
0.0206515
0.0209167
0.0211754
0.021427
0.0216712
0.0219074
0.0221355
0.0223553
0.0225669
0.0227707
0.0229672
0.0231569
0.0233411
0.0235213
0.0236991
0.0238772
0.0240586
0.0242472
0.0244473
0.0116401
0.0117013
0.0117675
0.0118388
0.011915
0.011996
0.0120817
0.0121723
0.0122677
0.012368
0.0124731
0.012583
0.0126975
0.0128164
0.0129395
0.0130666
0.0131973
0.0133313
0.0134681
0.0136073
0.0137486
0.0138913
0.014035
0.0141793
0.0143237
0.0144677
0.0146109
0.0147528
0.014893
0.0150312
0.015167
0.0153001
0.0154304
0.0155575
0.0156815
0.0158021
0.0159195
0.0160335
0.0161443
0.0162521
0.0163573
0.0164602
0.0165615
0.016662
0.0167626
0.0168647
0.0169701
0.0170803
0.0171985
0.0173273
0.0104338
0.0104595
0.0104883
0.0105199
0.010554
0.0105906
0.0106294
0.0106706
0.0107139
0.0107594
0.0108069
0.0108563
0.0109076
0.0109605
0.0110148
0.0110704
0.011127
0.0111845
0.0112428
0.0113015
0.0113604
0.0114194
0.0114782
0.0115368
0.0115949
0.0116524
0.0117091
0.0117649
0.0118197
0.0118736
0.0119264
0.0119782
0.0120288
0.0120785
0.0121272
0.0121749
0.0122217
0.0122677
0.0123129
0.0123576
0.0124019
0.012446
0.0124902
0.012535
0.0125808
0.0126284
0.0126782
0.0127314
0.0127888
0.0128525
0.00993862
0.00993117
0.00992685
0.00992579
0.00992782
0.0099327
0.00994018
0.00994999
0.00996192
0.00997574
0.00999126
0.0100083
0.0100265
0.0100459
0.0100661
0.0100872
0.0101089
0.010131
0.0101534
0.010176
0.0101986
0.0102213
0.0102439
0.0102663
0.0102885
0.0103104
0.010332
0.0103532
0.0103742
0.0103948
0.0104153
0.0104354
0.0104554
0.0104752
0.0104949
0.0105144
0.0105338
0.0105531
0.0105724
0.0105918
0.0106112
0.0106308
0.0106507
0.0106709
0.0106918
0.0107136
0.0107363
0.0107608
0.0107867
0.0108151
0.0101909
0.0101304
0.0100763
0.0100291
0.00998849
0.0099536
0.00992414
0.00989945
0.00987914
0.00986274
0.0098498
0.00984011
0.00983325
0.009829
0.00982707
0.0098272
0.00982913
0.00983265
0.00983751
0.00984352
0.0098505
0.0098583
0.00986679
0.00987582
0.00988526
0.00989502
0.009905
0.00991514
0.00992545
0.00993587
0.00994636
0.00995686
0.00996735
0.00997784
0.00998831
0.00999871
0.010009
0.0100193
0.0100294
0.0100395
0.0100494
0.0100593
0.0100691
0.0100787
0.0100883
0.0100977
0.0101067
0.0101158
0.0101249
0.0101336
0.0111101
0.0109809
0.0108709
0.0107727
0.0106842
0.0106036
0.010531
0.010465
0.0104053
0.0103514
0.0103028
0.0102593
0.0102206
0.0101864
0.0101566
0.0101307
0.0101086
0.0100902
0.0100752
0.0100631
0.0100539
0.0100474
0.0100433
0.0100413
0.0100411
0.0100425
0.0100453
0.0100492
0.0100541
0.0100599
0.0100665
0.0100739
0.0100818
0.0100902
0.0100989
0.0101077
0.0101165
0.0101255
0.0101345
0.0101433
0.0101521
0.0101607
0.0101687
0.0101764
0.0101836
0.0101893
0.0101946
0.0101975
0.010199
0.0101984
0.0122729
0.0120943
0.0119738
0.0118616
0.0117596
0.0116619
0.0115708
0.0114862
0.011407
0.0113306
0.0112578
0.011186
0.0111168
0.011051
0.0109872
0.0109261
0.0108683
0.0108135
0.0107612
0.0107126
0.0106682
0.0106291
0.0105959
0.0105679
0.0105443
0.0105247
0.0105083
0.0104946
0.0104833
0.0104743
0.010468
0.0104649
0.0104651
0.0104682
0.0104727
0.0104775
0.0104825
0.0104885
0.0104955
0.0105035
0.0105128
0.0105237
0.0105359
0.0105495
0.0105629
0.0105768
0.0105923
0.0106073
0.0106251
0.0106371
0.0130109
0.0128411
0.0127655
0.0126733
0.0126036
0.0125267
0.0124432
0.0123703
0.0123217
0.0122716
0.0122347
0.012181
0.012114
0.0120619
0.0120105
0.0119533
0.011903
0.0118507
0.0117818
0.0117072
0.0116356
0.0115672
0.0115041
0.0114501
0.0114026
0.0113643
0.011334
0.0113086
0.0112838
0.0112525
0.0112102
0.0111601
0.0111167
0.0110969
0.0110937
0.0110795
0.0110455
0.0110105
0.0109861
0.0109552
0.0109067
0.0108709
0.0108642
0.0108559
0.0108364
0.0108591
0.0108365
0.0108409
0.0109067
0.0109154
0.013127
0.0130792
0.0130359
0.0129937
0.0129533
0.0129143
0.012875
0.0128347
0.0127935
0.0127519
0.0127104
0.0126705
0.0126323
0.0125947
0.0125576
0.0125212
0.0124854
0.0124503
0.0124154
0.01238
0.0123441
0.0123079
0.0122716
0.0122356
0.0122005
0.0121663
0.0121326
0.0120996
0.0120668
0.0120337
0.012
0.0119667
0.0119352
0.0119055
0.011876
0.0118458
0.0118161
0.0117875
0.011759
0.01173
0.0117026
0.0116768
0.011651
0.011626
0.0116011
0.0115779
0.0115553
0.0115365
0.0115177
0.0114997
0.0131455
0.0131188
0.0130926
0.0130663
0.0130401
0.0130144
0.0129884
0.0129635
0.0129381
0.0129128
0.0128882
0.0128636
0.0128387
0.0128137
0.0127888
0.0127637
0.0127387
0.0127139
0.0126894
0.0126653
0.0126415
0.0126177
0.012594
0.01257
0.0125457
0.0125211
0.0124964
0.0124717
0.0124472
0.0124227
0.0123984
0.0123745
0.012351
0.0123278
0.0123048
0.0122818
0.0122589
0.012236
0.0122131
0.0121903
0.0121678
0.0121455
0.0121234
0.0121016
0.0120804
0.0120597
0.0120397
0.0120199
0.0120007
0.0119806
0.0131531
0.0131347
0.0131164
0.0130977
0.0130792
0.0130607
0.0130423
0.0130239
0.0130056
0.0129874
0.012969
0.0129507
0.0129325
0.0129141
0.0128956
0.0128769
0.0128581
0.0128394
0.0128208
0.0128022
0.0127837
0.0127651
0.0127466
0.0127282
0.0127098
0.0126914
0.012673
0.0126546
0.0126365
0.0126185
0.0126006
0.0125829
0.0125652
0.0125476
0.0125299
0.0125121
0.0124942
0.0124763
0.0124584
0.0124405
0.0124227
0.0124049
0.0123874
0.0123701
0.0123531
0.0123364
0.01232
0.0123036
0.0122871
0.0122707
0.0131566
0.0131421
0.0131277
0.0131133
0.0130989
0.0130842
0.0130697
0.0130554
0.013041
0.0130265
0.013012
0.0129976
0.0129833
0.0129688
0.0129542
0.0129395
0.0129247
0.01291
0.0128955
0.012881
0.0128666
0.0128521
0.0128377
0.0128233
0.0128089
0.0127945
0.01278
0.0127655
0.0127511
0.0127368
0.0127226
0.0127084
0.0126942
0.0126798
0.0126653
0.0126509
0.0126365
0.0126221
0.0126078
0.0125935
0.0125792
0.0125651
0.0125512
0.0125373
0.0125235
0.01251
0.0124963
0.0124827
0.0124691
0.0124552
0.0131598
0.0131486
0.0131374
0.0131261
0.0131147
0.0131033
0.0130918
0.0130802
0.0130684
0.0130566
0.0130448
0.013033
0.0130212
0.0130094
0.0129975
0.0129856
0.0129737
0.0129618
0.0129499
0.012938
0.012926
0.012914
0.012902
0.01289
0.012878
0.0128661
0.0128542
0.0128424
0.0128305
0.0128187
0.0128068
0.0127949
0.0127829
0.0127708
0.0127588
0.0127468
0.0127348
0.0127229
0.012711
0.0126991
0.0126873
0.0126756
0.012664
0.0126523
0.0126408
0.0126295
0.0126185
0.0126074
0.0125965
0.0125857
0.0131604
0.0131499
0.0131394
0.0131288
0.0131181
0.0131074
0.0130966
0.0130859
0.0130751
0.0130643
0.0130536
0.013043
0.0130325
0.0130221
0.0130117
0.0130013
0.0129909
0.0129805
0.01297
0.0129594
0.0129488
0.0129383
0.0129278
0.0129175
0.0129072
0.0128971
0.0128873
0.0128776
0.0128681
0.0128587
0.0128494
0.0128401
0.012831
0.012822
0.0128132
0.0128045
0.012796
0.0127876
0.0127794
0.0127715
0.0127638
0.0127564
0.0127493
0.0127427
0.0127367
0.0127312
0.0127265
0.0127228
0.0127197
0.0127175
0.0131629
0.0131551
0.0131473
0.0131394
0.0131314
0.0131234
0.0131156
0.0131079
0.0131003
0.0130929
0.0130859
0.0130792
0.013073
0.0130671
0.0130615
0.0130561
0.0130507
0.0130455
0.0130408
0.0130364
0.0130322
0.0130282
0.0130242
0.0130208
0.0130181
0.0130163
0.0130154
0.0130152
0.0130159
0.0130174
0.0130201
0.0130239
0.0130287
0.0130343
0.0130406
0.0130477
0.0130557
0.0130643
0.0130735
0.0130832
0.0130936
0.0131046
0.0131162
0.0131289
0.013143
0.0131593
0.0131779
0.0131995
0.0132239
0.0132522
0.0131904
0.0132115
0.0132335
0.0132563
0.0132804
0.0133068
0.0133362
0.0133687
0.0134045
0.0134444
0.0134898
0.0135424
0.013658
0.0138187
0.0139831
0.0141173
0.0141973
0.0142281
0.0142975
0.0144021
0.0145227
0.0146397
0.0147352
0.0148114
0.0148855
0.0149719
0.0150809
0.0152046
0.0153338
0.0154642
0.0155986
0.0157387
0.0158808
0.0160215
0.0161619
0.0163054
0.0164491
0.016586
0.0167105
0.0168212
0.0169394
0.0170651
0.0171926
0.017316
0.0174339
0.0175502
0.0176667
0.0177848
0.0179064
0.018034
0.572231
0.551954
0.53342
0.516793
0.500458
0.484316
0.468818
0.454296
0.440865
0.428449
0.416845
0.405786
0.394961
0.384874
0.375518
0.366659
0.358097
0.349707
0.341498
0.333973
0.326764
0.319678
0.312655
0.305776
0.299136
0.29259
0.286038
0.279598
0.273303
0.267158
0.261161
0.255308
0.249597
0.244024
0.238573
0.233217
0.227927
0.222686
0.217472
0.212236
0.206928
0.201695
0.196592
0.191645
0.186955
0.182577
0.178569
0.174873
0.171443
0.168152
1.14672
1.10489
1.06578
1.02912
0.994618
0.961993
0.930983
0.90147
0.873355
0.846549
0.820975
0.796563
0.773246
0.750965
0.729663
0.709289
0.689791
0.671126
0.653248
0.636117
0.619695
0.603945
0.588834
0.57433
0.560403
0.547025
0.534169
0.52181
0.509925
0.498492
0.487491
0.4769
0.466702
0.456879
0.447416
0.438297
0.429508
0.421037
0.412872
0.404971
0.397302
0.389849
0.382594
0.375519
0.368599
0.361808
0.355104
0.348429
0.341673
0.334637
1.12227
1.04696
0.978261
0.915374
0.8578
0.805054
0.756725
0.712355
0.671541
0.633929
0.599203
0.567088
0.537338
0.509735
0.484085
0.460215
0.437971
0.417213
0.397817
0.37967
0.362672
0.346731
0.331764
0.317697
0.30446
0.291991
0.280235
0.269138
0.258653
0.248736
0.239347
0.230448
0.222005
0.213985
0.206358
0.199096
0.192171
0.185561
0.179241
0.173213
0.167471
0.161995
0.156771
0.151781
0.147012
0.142449
0.138077
0.133882
0.129847
0.125952
1.12217
1.04661
0.977463
0.914203
0.856255
0.803101
0.754266
0.709321
0.667885
0.629621
0.594228
0.561442
0.531025
0.502767
0.47648
0.451995
0.42916
0.407838
0.387907
0.369255
0.351782
0.335396
0.320015
0.305562
0.29197
0.279175
0.26712
0.255753
0.245025
0.234892
0.225312
0.21625
0.207669
0.199538
0.191831
0.184519
0.177579
0.170987
0.164722
0.158766
0.1531
0.147708
0.142573
0.137682
0.133021
0.128578
0.124342
0.120302
0.116448
0.11277
1.12217
1.04715
0.978584
0.915839
0.858311
0.805466
0.756839
0.712016
0.670635
0.632372
0.596941
0.564087
0.533581
0.505218
0.478817
0.45421
0.431251
0.409803
0.389747
0.370971
0.353377
0.336873
0.321377
0.306814
0.293116
0.28022
0.268068
0.256608
0.245793
0.235577
0.22592
0.216784
0.208136
0.199942
0.192175
0.184806
0.177812
0.171169
0.164857
0.158856
0.153147
0.147714
0.142541
0.137614
0.132919
0.128444
0.124177
0.120107
0.116225
0.112519
1.12217
1.04716
0.978569
0.915752
0.858132
0.805196
0.756489
0.711604
0.670179
0.631891
0.59645
0.5636
0.533108
0.504769
0.478395
0.453821
0.430896
0.409485
0.389465
0.370725
0.353166
0.336696
0.321232
0.306699
0.293029
0.280158
0.268031
0.256593
0.245798
0.2356
0.225959
0.216838
0.208203
0.200021
0.192263
0.184904
0.177917
0.171281
0.164974
0.158976
0.15327
0.147839
0.142666
0.137738
0.133041
0.128562
0.12429
0.120213
0.116321
0.112604
1.12217
1.0472
0.978689
0.91597
0.858456
0.805626
0.757018
0.71222
0.670868
0.632638
0.597242
0.564423
0.533952
0.505622
0.479251
0.454671
0.431736
0.410309
0.39027
0.37151
0.353927
0.337432
0.321942
0.307384
0.293687
0.28079
0.268637
0.257173
0.246352
0.236129
0.226464
0.217319
0.20866
0.200455
0.192676
0.185294
0.178286
0.171629
0.165302
0.159284
0.153558
0.148107
0.142915
0.137967
0.13325
0.12875
0.124456
0.120357
0.116442
0.112701
1.12217
1.04721
0.978713
0.916003
0.858489
0.805648
0.75702
0.712197
0.670818
0.632562
0.59714
0.564299
0.533808
0.505462
0.479078
0.45449
0.431549
0.410119
0.39008
0.37132
0.35374
0.33725
0.321766
0.307213
0.293523
0.280633
0.268487
0.257031
0.246217
0.236001
0.226343
0.217205
0.208552
0.200353
0.192579
0.185203
0.178201
0.171548
0.165224
0.15921
0.153486
0.148037
0.142846
0.137898
0.133179
0.128678
0.124381
0.120278
0.116357
0.112609
1.12217
1.04721
0.978731
0.916038
0.858542
0.805722
0.757116
0.712316
0.67096
0.632725
0.597323
0.5645
0.534025
0.505693
0.47932
0.454741
0.431806
0.410381
0.390344
0.371585
0.354004
0.337511
0.322023
0.307466
0.29377
0.280874
0.26872
0.257256
0.246434
0.236209
0.226542
0.217394
0.208732
0.200523
0.192739
0.185353
0.17834
0.171677
0.165342
0.159316
0.153581
0.14812
0.142917
0.137956
0.133224
0.128709
0.124397
0.120279
0.116342
0.112576
1.12217
1.04722
0.978738
0.91605
0.85856
0.805742
0.757137
0.712335
0.670974
0.632732
0.597323
0.564491
0.534007
0.505667
0.479286
0.454699
0.431757
0.410326
0.390283
0.37152
0.353936
0.33744
0.32195
0.30739
0.293694
0.280797
0.268642
0.257178
0.246356
0.236131
0.226464
0.217317
0.208655
0.200447
0.192663
0.185277
0.178264
0.1716
0.165265
0.159238
0.153502
0.148038
0.142832
0.137868
0.133132
0.128612
0.124295
0.12017
0.116226
0.112452
1.12217
1.04722
0.978741
0.916056
0.858569
0.805755
0.757153
0.712355
0.670998
0.63276
0.597355
0.564526
0.534046
0.505709
0.479332
0.454748
0.431809
0.41038
0.390339
0.371577
0.353994
0.337498
0.322008
0.307448
0.29375
0.280851
0.268695
0.257228
0.246403
0.236176
0.226506
0.217355
0.208689
0.200477
0.192689
0.185299
0.178281
0.171612
0.165271
0.159238
0.153495
0.148025
0.142811
0.137839
0.133095
0.128565
0.124238
0.120102
0.116146
0.112361
1.12217
1.04722
0.978741
0.916057
0.858569
0.805755
0.757153
0.712355
0.670997
0.632759
0.597354
0.564525
0.534045
0.505707
0.479329
0.454745
0.431805
0.410376
0.390335
0.371572
0.353988
0.337492
0.322001
0.30744
0.293741
0.280841
0.268683
0.257215
0.246388
0.236159
0.226487
0.217334
0.208666
0.200451
0.192661
0.185268
0.178246
0.171574
0.16523
0.159193
0.153445
0.147969
0.14275
0.137771
0.13302
0.128483
0.124147
0.120002
0.116037
0.112241
1.12217
1.04722
0.978738
0.916051
0.85856
0.805743
0.757137
0.712334
0.670973
0.63273
0.59732
0.564487
0.534002
0.505661
0.479279
0.454691
0.431748
0.410315
0.390272
0.371507
0.353921
0.337424
0.321931
0.30737
0.29367
0.280769
0.268611
0.257142
0.246315
0.236086
0.226413
0.21726
0.208592
0.200378
0.192587
0.185193
0.178171
0.171497
0.165151
0.159113
0.153363
0.147884
0.142661
0.137678
0.132922
0.12838
0.124038
0.119886
0.115913
0.112109
1.12217
1.04721
0.978731
0.916038
0.858543
0.805723
0.757116
0.712316
0.670958
0.632722
0.597319
0.564494
0.534017
0.505683
0.479308
0.454727
0.43179
0.410363
0.390324
0.371562
0.353979
0.337483
0.321991
0.307429
0.293728
0.280825
0.268665
0.257193
0.246363
0.23613
0.226453
0.217296
0.208623
0.200403
0.192607
0.185208
0.17818
0.1715
0.165147
0.159101
0.153344
0.147857
0.142626
0.137634
0.132868
0.128315
0.123963
0.119799
0.115814
0.111997
1.12217
1.04721
0.978714
0.916004
0.858489
0.805648
0.75702
0.712196
0.670816
0.632558
0.597134
0.56429
0.533797
0.505449
0.479063
0.454473
0.431529
0.410097
0.390055
0.371292
0.353709
0.337214
0.321725
0.307167
0.29347
0.280573
0.268417
0.256951
0.246127
0.2359
0.226229
0.217078
0.208412
0.200198
0.192408
0.185013
0.17799
0.171315
0.164967
0.158924
0.15317
0.147685
0.142455
0.137464
0.132699
0.128145
0.123791
0.119625
0.115636
0.111814
1.12217
1.0472
0.97869
0.915971
0.858457
0.805627
0.757018
0.712219
0.670865
0.632633
0.597235
0.564413
0.533938
0.505605
0.47923
0.454648
0.431709
0.410279
0.390237
0.371472
0.353884
0.337384
0.321888
0.307321
0.293616
0.280709
0.268543
0.257067
0.246232
0.235995
0.226314
0.217152
0.208475
0.200251
0.192451
0.185046
0.178013
0.171328
0.164969
0.158916
0.15315
0.147655
0.142414
0.137411
0.132634
0.128067
0.1237
0.119521
0.115517
0.111681
1.12217
1.04716
0.97857
0.915753
0.858134
0.805197
0.756489
0.711602
0.670175
0.631885
0.596442
0.563588
0.533093
0.50475
0.478374
0.453796
0.430868
0.409453
0.389429
0.370685
0.353121
0.336644
0.321173
0.306632
0.292951
0.28007
0.267929
0.256477
0.245666
0.235452
0.225793
0.216653
0.207996
0.199792
0.192009
0.184623
0.177606
0.170936
0.164591
0.158551
0.152798
0.147314
0.142082
0.137089
0.132319
0.12776
0.123398
0.119222
0.115223
0.111388
1.12217
1.04715
0.978585
0.915841
0.858313
0.805467
0.756839
0.712015
0.670631
0.632365
0.596931
0.564073
0.533563
0.505196
0.478791
0.45418
0.431216
0.409765
0.389704
0.370923
0.353322
0.336811
0.321307
0.306734
0.293025
0.280115
0.267949
0.256474
0.245641
0.235406
0.225729
0.216572
0.2079
0.199682
0.191887
0.184489
0.177463
0.170784
0.164432
0.158386
0.152627
0.147139
0.141905
0.136911
0.132141
0.127583
0.123226
0.119058
0.11507
0.111254
1.12217
1.04661
0.977463
0.914204
0.856255
0.8031
0.754264
0.709318
0.66788
0.629612
0.594217
0.561426
0.531006
0.502745
0.476455
0.451966
0.429128
0.407804
0.38787
0.369215
0.351738
0.335347
0.31996
0.305501
0.291901
0.279098
0.267034
0.255658
0.24492
0.234777
0.225189
0.216119
0.207531
0.199394
0.19168
0.184361
0.177413
0.170812
0.164538
0.158572
0.152896
0.147494
0.14235
0.137451
0.132785
0.128343
0.124115
0.120097
0.116287
0.112692
1.12227
1.04696
0.978257
0.91537
0.857794
0.805048
0.756719
0.712349
0.671535
0.633923
0.599198
0.567085
0.537338
0.509739
0.484094
0.460231
0.437995
0.417246
0.397861
0.379726
0.362742
0.346815
0.331864
0.317814
0.304598
0.292154
0.280425
0.269362
0.258918
0.24905
0.23972
0.230892
0.222534
0.214616
0.207112
0.199996
0.193246
0.186842
0.180766
0.175002
0.169535
0.164353
0.159446
0.154805
0.150427
0.146311
0.142461
0.138897
0.135658
0.132834
1.14673
1.10489
1.06578
1.02912
0.994615
0.961987
0.930973
0.901456
0.873335
0.846525
0.820947
0.79653
0.77321
0.750924
0.729617
0.709236
0.68973
0.671053
0.653162
0.636015
0.619573
0.6038
0.588663
0.574129
0.560168
0.546751
0.533853
0.521446
0.509508
0.498015
0.486945
0.476277
0.465992
0.45607
0.446494
0.437247
0.428311
0.419671
0.411313
0.403221
0.395381
0.387778
0.380399
0.373231
0.366257
0.359464
0.352836
0.346356
0.340004
0.333753
0.303492
0.0355726
0.0338066
0.045615
0.052943
0.0511053
0.0415946
0.0294656
0.0192243
0.0125714
0.00894466
0.00739001
0.0077434
0.00964113
0.0107514
0.0105317
0.0100774
0.0102931
0.0121833
0.105959
0.29601
0.0341812
0.0335762
0.0456427
0.0529724
0.0509091
0.041061
0.0286823
0.0183878
0.0118298
0.00831533
0.00681852
0.0072856
0.00938761
0.0106112
0.0104202
0.009972
0.0102245
0.0122387
0.111253
0.288685
0.0328632
0.0333486
0.04564
0.0529661
0.0506898
0.0405268
0.0279232
0.0175952
0.0111427
0.00774231
0.00629896
0.00675127
0.00896163
0.0103939
0.0103169
0.00989545
0.0101569
0.0122354
0.114948
0.281506
0.0316269
0.033122
0.0456055
0.0529242
0.0504504
0.0399976
0.0271945
0.0168515
0.0105125
0.00722598
0.00583019
0.00627252
0.00854951
0.0101722
0.0102123
0.0098207
0.0100917
0.0122352
0.118731
0.274477
0.0304753
0.0328951
0.0455387
0.052848
0.0501947
0.0394794
0.0265021
0.0161606
0.00994045
0.00676609
0.0054128
0.00583804
0.00815611
0.00994891
0.0101067
0.00974763
0.0100291
0.0122382
0.122609
0.267597
0.0294085
0.0326665
0.04544
0.0527395
0.0499263
0.0389772
0.0258506
0.0155248
0.00942604
0.00636054
0.00504503
0.00544388
0.00778339
0.00972647
0.0100002
0.00967615
0.0099689
0.0122444
0.126586
0.260866
0.0284253
0.0324351
0.04531
0.0526006
0.0496489
0.038495
0.0252427
0.0149444
0.0089671
0.00600591
0.00472349
0.00508743
0.00743182
0.00950657
0.00989331
0.00960615
0.00991098
0.0122537
0.130664
0.254281
0.0275228
0.0322002
0.04515
0.0524337
0.0493652
0.0380359
0.0246801
0.0144182
0.00856018
0.00569779
0.00444395
0.00476613
0.0071011
0.0092906
0.00978624
0.00953755
0.00985527
0.0122662
0.134846
0.247841
0.0266974
0.0319611
0.044962
0.0522415
0.0490782
0.0376016
0.0241625
0.0139439
0.00820094
0.00543115
0.00420151
0.00447752
0.00679075
0.00907952
0.00967937
0.00947029
0.00980166
0.0122817
0.139134
0.241544
0.0259445
0.0317176
0.0447481
0.0520266
0.0487901
0.0371933
0.023689
0.0135179
0.00788459
0.00520079
0.00399087
0.00421846
0.00650003
0.00887407
0.009573
0.00940431
0.00975006
0.0123004
0.143529
0.235387
0.0252592
0.0314698
0.044511
0.0517917
0.0485026
0.036811
0.0232572
0.0131362
0.00760615
0.00500174
0.0038072
0.00398604
0.00622805
0.00867476
0.00946744
0.00933959
0.00970037
0.0123221
0.148032
0.229369
0.0246362
0.0312183
0.0442534
0.0515397
0.0482172
0.0364538
0.0228645
0.0127945
0.00736088
0.00482946
0.00364606
0.00377729
0.00597394
0.00848198
0.00936295
0.0092761
0.00965251
0.0123467
0.152646
0.223485
0.0240705
0.0309636
0.0439783
0.0512732
0.047935
0.0361206
0.0225076
0.0124886
0.00714439
0.00467996
0.0035037
0.00358965
0.00573683
0.008296
0.00925981
0.00921387
0.00960641
0.0123744
0.157372
0.217732
0.0235567
0.0307068
0.0436888
0.0509948
0.0476567
0.03581
0.0221834
0.0122144
0.00695287
0.00454991
0.00337702
0.0034208
0.00551595
0.0081171
0.00915828
0.00915289
0.00956203
0.0124051
0.162211
0.212108
0.0230901
0.030449
0.0433877
0.0507071
0.0473828
0.0355203
0.0218888
0.0119685
0.00678317
0.00443666
0.00326351
0.00326867
0.00531063
0.00794552
0.00905862
0.00909322
0.00951931
0.0124388
0.167166
0.206607
0.0226663
0.0301915
0.0430781
0.0504125
0.0471139
0.0352499
0.021621
0.0117478
0.00663279
0.00433816
0.00316133
0.0031315
0.00512029
0.00778153
0.00896111
0.00903488
0.00947824
0.0124756
0.172241
0.201228
0.0222812
0.0299355
0.0427627
0.050113
0.0468503
0.0349974
0.0213779
0.0115502
0.00649988
0.00425292
0.00306915
0.00300775
0.00494442
0.0076254
0.00886601
0.00897793
0.00943879
0.0125155
0.177438
0.195965
0.0219314
0.0296825
0.0424442
0.0498109
0.0465926
0.0347619
0.0211578
0.011374
0.00638317
0.00417987
0.00298611
0.0028961
0.0047825
0.00747738
0.00877356
0.00892241
0.00940096
0.0125588
0.182761
0.190816
0.0216141
0.0294336
0.0421248
0.0495079
0.0463412
0.0345424
0.0209596
0.0112183
0.00628184
0.00411828
0.00291171
0.00279538
0.00463403
0.00733772
0.00868402
0.00886835
0.00936472
0.0126054
0.188215
0.185778
0.0213268
0.0291902
0.0418068
0.0492057
0.0460966
0.0343388
0.0207827
0.0110824
0.00619542
0.00406758
0.00284569
0.00270453
0.00449852
0.00720661
0.00859759
0.0088158
0.00933006
0.0126555
0.193804
0.180847
0.0210676
0.0289533
0.041492
0.0489058
0.0458592
0.0341508
0.0206269
0.0109663
0.00612366
0.00402734
0.002788
0.00262249
0.00437544
0.00708423
0.00851446
0.00876477
0.00929698
0.0127092
0.199535
0.176021
0.0208351
0.0287239
0.0411819
0.0486094
0.0456297
0.0339786
0.0204925
0.0108701
0.00606643
0.00399716
0.00273875
0.00254804
0.00426428
0.00697074
0.00843479
0.00871525
0.00926542
0.0127668
0.205411
0.171296
0.0206281
0.0285028
0.0408777
0.0483175
0.0454086
0.0338226
0.0203798
0.0107941
0.00602365
0.00397663
0.00269824
0.00247986
0.00416457
0.00686629
0.00835873
0.00866725
0.00923537
0.0128283
0.21144
0.16667
0.0204458
0.0282905
0.0405805
0.048031
0.0451964
0.0336834
0.0202894
0.0107386
0.00599524
0.00396539
0.00266708
0.0024166
0.0040759
0.00677104
0.0082864
0.00862075
0.0092068
0.0128939
0.217629
0.162141
0.0202869
0.0280887
0.0402907
0.0477507
0.0449936
0.0335615
0.0202221
0.0107039
0.00598118
0.00396319
0.00264634
0.00235673
0.00399806
0.00668518
0.00821795
0.00857577
0.00917969
0.0129638
0.223984
0.157704
0.0201502
0.0278931
0.0400099
0.0474824
0.0447999
0.0334557
0.0201784
0.0106906
0.00598159
0.00397005
0.00263775
0.00229828
0.00393105
0.00660896
0.00815347
0.00853231
0.00915404
0.0130383
0.230514
0.153362
0.0200345
0.0277038
0.0397382
0.0472275
0.0446261
0.0333642
0.0201462
0.0106994
0.00599686
0.0039864
0.00264397
0.00223843
0.00387519
0.00654267
0.00809306
0.00849035
0.00912983
0.0131175
0.237226
0.149142
0.0199242
0.0275206
0.0394757
0.0469867
0.0444733
0.0332976
0.020134
0.0107129
0.00602379
0.00401332
0.0026686
0.00217271
0.00383146
0.00648647
0.00803673
0.00844989
0.00910706
0.0132018
0.244128
0.145042
0.019819
0.0273431
0.039222
0.0467603
0.0443427
0.0332574
0.0201441
0.0107402
0.00605404
0.004046
0.00271646
0.00209212
0.00379848
0.00643983
0.00798443
0.00841092
0.00908571
0.0132913
0.251231
0.141061
0.0197186
0.0271708
0.0389769
0.0465487
0.0442355
0.0332454
0.020178
0.0107819
0.00609288
0.00408737
0.00277252
0.00201241
0.00377586
0.00640221
0.00793612
0.00837343
0.00906582
0.0133865
0.258546
0.137198
0.0196225
0.027003
0.0387396
0.046352
0.0441532
0.0332636
0.0202376
0.0108394
0.00614082
0.00413953
0.00284794
0.00197472
0.00375751
0.00637317
0.00789197
0.00833743
0.00904744
0.0135259
0.265986
0.133451
0.0195303
0.0268388
0.0385094
0.0461704
0.0440972
0.0333144
0.0203251
0.0109142
0.00619855
0.00420182
0.00294049
0.00199395
0.00375901
0.00634987
0.00784872
0.00830311
0.00903093
0.0137151
0.273545
0.12982
0.0194415
0.0266772
0.0382852
0.0460038
0.0440692
0.0334005
0.0204434
0.0110082
0.00626695
0.00427419
0.00305118
0.00208211
0.00378266
0.00633262
0.00780691
0.00827071
0.00901901
0.0139565
0.281221
0.126305
0.0193554
0.026517
0.0380658
0.0458521
0.0440709
0.0335254
0.0205959
0.0111239
0.00634746
0.00435758
0.00318398
0.00224404
0.00382971
0.00632141
0.00776666
0.00824039
0.00901244
0.0142567
0.289011
0.122905
0.0192715
0.026357
0.0378498
0.045715
0.0441041
0.0336927
0.0207869
0.0112644
0.00644168
0.00445249
0.00333861
0.00247276
0.00390015
0.00631601
0.00772806
0.0082123
0.00901209
0.0146226
0.29691
0.119621
0.0191891
0.0261959
0.0376356
0.045592
0.0441706
0.0339061
0.0210205
0.0114329
0.00655096
0.00455825
0.00350982
0.00274903
0.00399265
0.00631605
0.0076912
0.00818659
0.00901899
0.015061
0.304916
0.116452
0.0191078
0.0260323
0.0374217
0.0454825
0.044272
0.0341694
0.021301
0.0116324
0.0066764
0.00467356
0.00369011
0.00304707
0.00410485
0.00632109
0.00765616
0.00816344
0.00903437
0.0155788
0.313023
0.1134
0.0190267
0.0258647
0.0372059
0.0453854
0.0444097
0.0344864
0.021633
0.011866
0.00681912
0.00479716
0.00387304
0.0033432
0.00423366
0.00633065
0.00762311
0.00814309
0.00905975
0.0161838
0.321227
0.110464
0.0189455
0.0256916
0.0369863
0.0452996
0.0445847
0.034861
0.0220213
0.0121375
0.00698062
0.00492841
0.00405472
0.00362246
0.0043757
0.00634433
0.0075922
0.00812586
0.00909698
0.0168842
0.329523
0.107644
0.0188634
0.0255114
0.0367605
0.0452232
0.0447979
0.0352969
0.0224712
0.0124512
0.00716289
0.00506727
0.00423369
0.00387998
0.00452758
0.00636175
0.00756368
0.00811217
0.00914829
0.0176897
0.337905
0.104941
0.01878
0.0253224
0.0365259
0.0451544
0.04505
0.0357983
0.0229888
0.0128123
0.0073686
0.00521424
0.00441009
0.00411789
0.00468607
0.00638264
0.00753782
0.00810258
0.00921639
0.0186109
0.346368
0.102355
0.0186945
0.0251229
0.0362797
0.0450904
0.0453409
0.0363693
0.0235809
0.0132268
0.00760111
0.00537019
0.00458458
0.00434072
0.0048482
0.00640677
0.00751493
0.00809779
0.00930451
0.0196598
0.354903
0.0998874
0.0186065
0.024911
0.0360185
0.045028
0.0456704
0.0370143
0.0242551
0.0137021
0.00786466
0.00553642
0.0047578
0.00455211
0.00501133
0.00643403
0.00749541
0.00809871
0.00941657
0.0208499
0.363504
0.0975379
0.0185154
0.0246847
0.0357387
0.0449634
0.0460373
0.0377375
0.02502
0.0142469
0.00816455
0.00571468
0.00493022
0.00475397
0.00517311
0.0064644
0.00747976
0.00810653
0.00955733
0.022197
0.372163
0.0953079
0.0184208
0.0244421
0.0354362
0.0448916
0.0464398
0.0385432
0.0258853
0.0148714
0.00850747
0.00590737
0.00510229
0.00495416
0.00533145
0.00649796
0.00746863
0.00812286
0.00973259
0.0237193
0.380871
0.0931992
0.0183221
0.0241809
0.0351063
0.0448069
0.046875
0.0394358
0.0268621
0.0155882
0.00890192
0.0061179
0.00527247
0.00514195
0.00548491
0.00653495
0.00746287
0.00814974
0.00994948
0.0254381
0.389617
0.0912138
0.018219
0.0238988
0.034744
0.0447021
0.0473388
0.0404191
0.0279626
0.016412
0.00935874
0.00635141
0.00544184
0.00531279
0.00563285
0.00657581
0.00746356
0.00818991
0.0102168
0.0273784
0.398391
0.0893546
0.0181113
0.0235936
0.0343432
0.0445688
0.0478252
0.0414967
0.0292012
0.0173611
0.00989182
0.0066152
0.00561509
0.00547727
0.00577523
0.00662121
0.0074722
0.00824695
0.0105457
0.0295701
0.407179
0.0876252
0.0179986
0.0232627
0.0338973
0.0443966
0.0483265
0.0426713
0.0305936
0.0184574
0.0105189
0.00691883
0.00579612
0.00563748
0.00591261
0.00667214
0.00749082
0.00832575
0.0109501
0.0320492
0.415969
0.0860303
0.0178811
0.0229036
0.0333992
0.0441734
0.0488317
0.0439441
0.0321576
0.0197276
0.0112628
0.00727523
0.00599023
0.00579554
0.00604638
0.00673009
0.00752227
0.00843286
0.0114479
0.034859
0.424742
0.0845756
0.0177588
0.022514
0.0328407
0.0438843
0.0493267
0.045314
0.0339123
0.0212041
0.0121532
0.00770226
0.00620525
0.00595484
0.0061789
0.00679736
0.00757063
0.0085772
0.0120619
0.0380512
0.433479
0.0832681
0.0176325
0.0220919
0.0322131
0.043512
0.0497921
0.0467757
0.0358778
0.0229258
0.0132287
0.0082246
0.0064527
0.00612032
0.0063137
0.00687734
0.00764164
0.00877087
0.0128217
0.0416868
0.442158
0.0821162
0.017503