/*--------------------------------*- C++ -*----------------------------------*\
  =========                 |
  \\      /  F ield         | OpenFOAM: The Open Source CFD Toolbox
   \\    /   O peration     | Website:  https://openfoam.org
    \\  /    A nd           | Version:  8
     \\/     M anipulation  |
\*---------------------------------------------------------------------------*/
FoamFile
{
    version     2.0;
    format      ascii;
    class       volScalarField;
    location    "600";
    object      k;
}
// * * * * * * * * * * * * * * * * * * * * * * * * * * * * * * * * * * * * * //

dimensions      [0 2 -2 0 0 0 0];

internalField   nonuniform List<scalar> 
8400
(
0.0479619
0.0468648
0.0458257
0.0448427
0.0439144
0.0430388
0.0422144
0.0414391
0.0407114
0.0400293
0.0393908
0.0387938
0.0382361
0.0377152
0.0372286
0.0367737
0.0363477
0.0359479
0.0355717
0.0352162
0.0348789
0.0345571
0.0342485
0.0339506
0.0336612
0.0333784
0.0331003
0.0328251
0.0325514
0.0322778
0.0320031
0.0317265
0.0314471
0.0311643
0.0308776
0.0305868
0.0302919
0.0299929
0.02969
0.0293836
0.0290744
0.0287631
0.0284508
0.0281387
0.0278286
0.0275227
0.0272238
0.026936
0.026664
0.0264145
0.00404967
0.00406619
0.00408553
0.00410753
0.00413209
0.00415908
0.00418839
0.00421991
0.00425351
0.00428907
0.00432647
0.00436555
0.00440615
0.00444814
0.00449134
0.00453557
0.00458066
0.00462643
0.00467269
0.00471925
0.00476594
0.00481255
0.00485892
0.00490485
0.00495019
0.00499477
0.00503845
0.00508106
0.00512247
0.00516256
0.00520123
0.00523837
0.0052739
0.00530771
0.00533976
0.00537001
0.00539843
0.00542499
0.00544965
0.00547245
0.00549342
0.00551258
0.00552996
0.00554564
0.00555972
0.0055723
0.00558345
0.00559329
0.00560195
0.00560962
0.00345115
0.00347806
0.00350697
0.00353783
0.0035706
0.00360521
0.00364163
0.00367979
0.00371962
0.00376105
0.00380403
0.00384843
0.00389417
0.00394113
0.00398921
0.00403825
0.00408813
0.0041387
0.00418978
0.00424123
0.00429288
0.00434456
0.00439608
0.00444729
0.00449801
0.00454809
0.00459737
0.00464568
0.00469289
0.00473887
0.0047835
0.00482668
0.00486831
0.00490829
0.00494657
0.00498312
0.00501789
0.00505084
0.00508199
0.00511138
0.00513906
0.00516507
0.00518952
0.00521257
0.00523438
0.00525515
0.00527513
0.00529465
0.00531412
0.00533403
0.00307997
0.00309966
0.00312087
0.00314351
0.00316755
0.00319292
0.00321961
0.00324758
0.0032768
0.00330721
0.00333879
0.00337147
0.00340518
0.00343985
0.00347541
0.00351174
0.00354875
0.00358632
0.00362433
0.00366267
0.0037012
0.0037398
0.00377832
0.00381664
0.00385464
0.0038922
0.00392919
0.0039655
0.00400103
0.00403569
0.00406941
0.0041021
0.0041337
0.00416415
0.00419344
0.00422155
0.00424843
0.00427411
0.00429862
0.004322
0.00434432
0.00436564
0.00438613
0.00440593
0.00442524
0.00444432
0.00446347
0.0044831
0.00450363
0.00452578
0.00277053
0.00278171
0.00279377
0.00280666
0.00282033
0.00283475
0.0028499
0.00286575
0.00288229
0.00289949
0.00291732
0.00293574
0.00295472
0.00297419
0.00299413
0.00301444
0.00303508
0.00305598
0.00307708
0.0030983
0.00311956
0.00314079
0.00316191
0.00318287
0.0032036
0.00322404
0.00324413
0.00326383
0.00328307
0.00330185
0.00332013
0.00333787
0.00335506
0.0033717
0.00338778
0.00340331
0.00341827
0.00343271
0.00344665
0.00346014
0.0034732
0.00348595
0.00349846
0.00351084
0.00352326
0.0035359
0.003549
0.00356281
0.00357774
0.00359415
0.00256799
0.00257287
0.0025783
0.00258422
0.00259058
0.00259735
0.00260449
0.00261197
0.00261977
0.00262787
0.00263624
0.00264485
0.00265367
0.00266267
0.0026718
0.00268106
0.00269039
0.00269977
0.00270917
0.00271855
0.00272788
0.00273712
0.00274624
0.00275524
0.0027641
0.00277279
0.0027813
0.00278962
0.00279774
0.00280567
0.00281341
0.00282094
0.00282829
0.00283545
0.00284245
0.00284926
0.00285592
0.00286244
0.00286884
0.00287513
0.00288135
0.00288755
0.00289376
0.00290003
0.00290647
0.00291314
0.0029202
0.00292771
0.00293599
0.00294511
0.00248454
0.00248342
0.00248287
0.00248289
0.00248347
0.00248454
0.00248607
0.00248797
0.00249023
0.00249278
0.00249558
0.0024986
0.0025018
0.00250516
0.00250863
0.00251218
0.0025158
0.00251947
0.00252316
0.00252686
0.00253054
0.00253418
0.00253779
0.00254135
0.00254486
0.00254832
0.00255173
0.00255507
0.00255836
0.0025616
0.00256481
0.00256796
0.00257108
0.00257417
0.00257723
0.00258027
0.00258328
0.00258629
0.00258927
0.00259226
0.00259527
0.00259831
0.00260136
0.00260449
0.0026077
0.00261105
0.00261452
0.00261829
0.00262229
0.00262669
0.00252561
0.00251549
0.00250653
0.00249873
0.00249203
0.00248629
0.00248151
0.00247753
0.00247432
0.00247175
0.00246977
0.00246833
0.00246736
0.0024668
0.00246662
0.00246676
0.00246719
0.00246787
0.00246875
0.00246981
0.002471
0.0024723
0.00247371
0.0024752
0.00247676
0.00247836
0.00247999
0.00248165
0.00248332
0.00248501
0.00248671
0.0024884
0.00249009
0.00249178
0.00249347
0.00249515
0.00249683
0.0024985
0.00250015
0.00250182
0.00250349
0.00250511
0.00250672
0.00250835
0.00250988
0.00251144
0.0025129
0.00251442
0.00251578
0.00251719
0.00267477
0.00265401
0.00263641
0.00262054
0.00260624
0.00259314
0.00258132
0.00257056
0.00256082
0.00255206
0.00254418
0.00253711
0.00253087
0.00252538
0.0025206
0.00251648
0.00251298
0.00251005
0.00250766
0.00250576
0.00250431
0.00250329
0.00250267
0.00250241
0.00250243
0.00250268
0.00250315
0.00250381
0.00250465
0.00250563
0.00250672
0.00250792
0.00250922
0.00251058
0.002512
0.00251345
0.00251493
0.00251642
0.00251795
0.00251951
0.00252101
0.00252249
0.002524
0.0025253
0.00252658
0.00252765
0.00252862
0.00252914
0.00252945
0.00252936
0.00285948
0.00283202
0.00281431
0.00279656
0.00278071
0.00276538
0.00275122
0.00273798
0.00272512
0.00271276
0.00270071
0.00268888
0.00267743
0.00266656
0.00265622
0.00264633
0.00263692
0.0026281
0.00261986
0.00261219
0.0026052
0.0025991
0.00259394
0.00258956
0.00258575
0.00258239
0.00257946
0.00257706
0.00257518
0.0025737
0.00257251
0.00257171
0.00257141
0.00257154
0.00257185
0.00257224
0.00257281
0.00257361
0.00257458
0.00257569
0.00257706
0.00257897
0.00258107
0.00258332
0.00258609
0.00258826
0.00259171
0.00259436
0.00259746
0.00259981
0.00297531
0.00294924
0.00294101
0.00292527
0.00291464
0.00290157
0.00288962
0.0028815
0.00287274
0.0028661
0.00285859
0.00284991
0.00283944
0.00282979
0.0028217
0.00281294
0.00280342
0.0027949
0.00278726
0.00277907
0.00276968
0.00276014
0.00275176
0.0027447
0.00273782
0.00273001
0.0027212
0.00271302
0.002707
0.0027018
0.00269436
0.00268463
0.00267647
0.00267141
0.00266651
0.00266055
0.00265607
0.00265264
0.00264753
0.00264306
0.00264004
0.00263616
0.00263264
0.00263304
0.00262945
0.00263224
0.00262642
0.00263746
0.00263858
0.00264514
0.00299334
0.00298588
0.00297937
0.00297297
0.002967
0.00296118
0.0029552
0.00294915
0.00294298
0.00293673
0.00293043
0.00292414
0.00291806
0.00291228
0.0029066
0.00290095
0.00289542
0.00289003
0.00288465
0.00287916
0.00287362
0.00286814
0.00286273
0.0028573
0.00285178
0.00284619
0.00284067
0.00283537
0.00283021
0.00282499
0.00281965
0.0028144
0.00280936
0.00280444
0.00279959
0.00279488
0.00279019
0.00278544
0.00278078
0.00277615
0.00277156
0.00276727
0.00276291
0.00275903
0.00275458
0.00275098
0.0027475
0.00274417
0.00274096
0.00273806
0.00299618
0.00299215
0.00298817
0.00298417
0.00298023
0.00297626
0.00297242
0.00296852
0.00296468
0.00296085
0.00295703
0.00295323
0.00294942
0.00294562
0.00294182
0.002938
0.00293415
0.0029303
0.00292649
0.00292274
0.00291904
0.00291534
0.00291163
0.00290789
0.00290414
0.0029004
0.00289665
0.00289291
0.00288917
0.00288543
0.00288172
0.00287805
0.00287441
0.0028708
0.00286719
0.00286356
0.00285994
0.00285633
0.00285275
0.00284916
0.00284558
0.00284202
0.00283852
0.00283509
0.00283176
0.00282846
0.00282524
0.00282202
0.00281885
0.0028157
0.00299735
0.00299455
0.00299177
0.00298898
0.00298619
0.00298339
0.00298055
0.00297775
0.00297495
0.00297214
0.00296932
0.00296647
0.00296363
0.00296082
0.00295801
0.0029552
0.00295238
0.00294955
0.00294672
0.00294389
0.00294107
0.00293823
0.00293537
0.00293251
0.00292966
0.00292683
0.00292401
0.0029212
0.0029184
0.00291563
0.00291289
0.00291015
0.00290742
0.00290468
0.00290191
0.00289914
0.00289635
0.00289357
0.0028908
0.002888
0.0028852
0.00288242
0.0028797
0.002877
0.00287437
0.00287175
0.00286914
0.00286653
0.00286389
0.00286124
0.00299786
0.00299567
0.00299347
0.0029913
0.0029891
0.00298692
0.0029847
0.00298249
0.0029803
0.00297811
0.0029759
0.00297369
0.00297149
0.00296928
0.00296706
0.00296483
0.00296259
0.00296035
0.00295812
0.0029559
0.00295368
0.00295147
0.00294925
0.00294704
0.00294484
0.00294265
0.00294045
0.00293824
0.00293604
0.00293383
0.00293164
0.00292945
0.00292724
0.00292503
0.00292281
0.00292058
0.00291836
0.00291613
0.0029139
0.00291166
0.00290944
0.00290723
0.00290505
0.00290289
0.00290074
0.00289861
0.00289649
0.00289439
0.00289226
0.00289012
0.00299834
0.00299664
0.00299494
0.00299323
0.0029915
0.00298975
0.00298799
0.00298624
0.0029845
0.00298274
0.00298096
0.00297917
0.00297737
0.00297557
0.00297377
0.00297195
0.00297013
0.0029683
0.00296646
0.00296462
0.00296276
0.00296091
0.00295907
0.00295724
0.00295541
0.00295358
0.00295175
0.00294993
0.00294811
0.00294629
0.00294447
0.00294264
0.00294081
0.00293897
0.00293714
0.0029353
0.00293346
0.00293161
0.00292976
0.00292791
0.00292607
0.00292424
0.00292242
0.00292062
0.00291884
0.00291707
0.0029153
0.00291358
0.00291186
0.00291012
0.00299842
0.00299682
0.00299525
0.00299363
0.00299201
0.0029904
0.00298879
0.00298717
0.00298554
0.0029839
0.00298225
0.0029806
0.00297898
0.00297736
0.00297575
0.00297414
0.00297253
0.00297094
0.00296936
0.00296778
0.0029662
0.00296463
0.00296306
0.00296149
0.00295993
0.00295838
0.00295685
0.00295534
0.00295384
0.00295236
0.0029509
0.00294946
0.00294804
0.00294665
0.00294527
0.0029439
0.00294254
0.00294119
0.00293985
0.00293854
0.00293726
0.00293603
0.00293485
0.00293372
0.00293266
0.00293169
0.0029308
0.00293001
0.00292933
0.00292873
0.00299882
0.00299763
0.00299645
0.00299526
0.00299407
0.00299287
0.0029917
0.00299057
0.00298946
0.00298835
0.00298724
0.00298615
0.00298511
0.00298413
0.0029832
0.00298231
0.00298142
0.00298055
0.00297974
0.002979
0.00297836
0.00297778
0.00297724
0.00297675
0.00297635
0.00297606
0.00297588
0.0029758
0.00297583
0.00297595
0.00297619
0.00297654
0.002977
0.00297754
0.00297814
0.00297881
0.00297953
0.0029803
0.00298111
0.00298196
0.00298292
0.00298407
0.00298541
0.00298691
0.0029886
0.00299052
0.00299279
0.00299547
0.00299854
0.00300192
0.00300282
0.00300574
0.00300869
0.0030117
0.00301482
0.00301813
0.0030217
0.00303419
0.00304954
0.0030626
0.0030696
0.00306764
0.00307034
0.00307929
0.00309285
0.00310837
0.0031229
0.00313451
0.00314557
0.0031578
0.0031716
0.00318637
0.0032029
0.0032216
0.00324126
0.00326085
0.00328033
0.00329966
0.00331841
0.00333652
0.00335426
0.0033715
0.00338752
0.00340153
0.00341349
0.00342694
0.0034424
0.00345898
0.00347582
0.00349227
0.00350866
0.00352526
0.00354212
0.00355901
0.00357576
0.00359236
0.00360878
0.00362511
0.00364152
0.00365822
0.036338
0.0355738
0.0348447
0.0341933
0.0335832
0.0329869
0.0323883
0.0317802
0.0312003
0.0306441
0.0301028
0.029569
0.0290384
0.0285529
0.028101
0.0276681
0.0272483
0.0268435
0.0264643
0.0261093
0.0257557
0.0253954
0.0250265
0.0246567
0.0242923
0.0239307
0.0235719
0.0232182
0.0228695
0.022525
0.0221839
0.0218448
0.021506
0.0211649
0.0208182
0.0204614
0.0201023
0.0197441
0.0193882
0.0190388
0.0187042
0.0183912
0.0180998
0.017831
0.0175843
0.0173566
0.0171409
0.0169299
0.0167142
0.01648
0.0589323
0.0574899
0.0561249
0.0548303
0.0535978
0.0524192
0.0512867
0.0501971
0.049148
0.0481373
0.047163
0.0462236
0.0453173
0.0444427
0.0435984
0.0427831
0.0419956
0.0412346
0.0404991
0.0397879
0.0391001
0.0384347
0.0377908
0.0371675
0.0365641
0.0359798
0.0354138
0.0348654
0.034334
0.0338189
0.0333194
0.032835
0.0323652
0.0319095
0.0314673
0.0310383
0.030622
0.0302182
0.0298264
0.0294449
0.0290722
0.0287076
0.0283505
0.0279999
0.0276548
0.0273141
0.0269756
0.0266363
0.0262908
0.0259285
0.0580914
0.0554622
0.0530082
0.0507112
0.0485618
0.0465501
0.0446681
0.0429046
0.0412499
0.0396951
0.0382322
0.0368539
0.0355538
0.0343258
0.0331647
0.0320655
0.0310239
0.0300359
0.0290977
0.028206
0.0273577
0.02655
0.0257804
0.0250463
0.0243457
0.0236764
0.0230365
0.0224243
0.0218381
0.0212762
0.0207373
0.02022
0.0197229
0.0192451
0.018785
0.0183417
0.0179141
0.0175011
0.0171017
0.0167161
0.0163446
0.0159865
0.0156409
0.0153073
0.0149849
0.0146732
0.0143714
0.0140787
0.0137944
0.0135171
0.0580877
0.0554498
0.0529795
0.0506681
0.0485037
0.046475
0.0445714
0.0427828
0.0411002
0.0395152
0.0380204
0.0366089
0.0352747
0.0340122
0.0328162
0.0316823
0.0306062
0.029584
0.0286122
0.0276875
0.026807
0.025968
0.0251678
0.0244042
0.023675
0.0229782
0.0223119
0.0216743
0.0210638
0.0204789
0.0199182
0.0193804
0.0188642
0.0183685
0.0178923
0.0174347
0.0169948
0.0165717
0.0161645
0.0157726
0.0153951
0.0150315
0.0146811
0.0143434
0.0140179
0.013704
0.0134013
0.0131094
0.0128278
0.0125563
0.0580878
0.0554687
0.05302
0.0507286
0.0485813
0.0465662
0.0446727
0.0428912
0.041213
0.0396303
0.038136
0.0367238
0.0353878
0.0341226
0.0329234
0.0317857
0.0307055
0.0296789
0.0287025
0.0277731
0.0268879
0.0260441
0.0252391
0.0244708
0.0237369
0.0230354
0.0223646
0.0217226
0.0211078
0.0205187
0.019954
0.0194123
0.0188924
0.0183933
0.0179137
0.0174528
0.0170097
0.0165835
0.0161733
0.0157785
0.0153982
0.0150319
0.0146789
0.0143387
0.0140106
0.0136943
0.0133893
0.0130951
0.0128114
0.0125376
0.0580878
0.0554692
0.0530195
0.0507254
0.0485746
0.0465558
0.044659
0.0428746
0.0411943
0.0396101
0.0381151
0.0367026
0.0353669
0.0341023
0.0329041
0.0317676
0.0306886
0.0296635
0.0286887
0.0277609
0.0268772
0.0260349
0.0252315
0.0244646
0.0237322
0.0230321
0.0223625
0.0217217
0.021108
0.02052
0.0199563
0.0194155
0.0188965
0.0183981
0.0179192
0.017459
0.0170164
0.0165907
0.016181
0.0157865
0.0154065
0.0150404
0.0146875
0.0143473
0.0140192
0.0137027
0.0133974
0.0131028
0.0128185
0.0125439
0.0580878
0.0554706
0.0530238
0.0507334
0.0485868
0.0465724
0.0446798
0.0428994
0.0412225
0.0396414
0.0381488
0.0367384
0.0354041
0.0341407
0.0329433
0.0318072
0.0307285
0.0297033
0.0287282
0.0278
0.0269158
0.0260729
0.0252687
0.024501
0.0237677
0.0230667
0.0223962
0.0217544
0.0211398
0.0205508
0.019986
0.0194442
0.0189242
0.0184247
0.0179449
0.0174836
0.01704
0.0166132
0.0162024
0.0158069
0.0154258
0.0150586
0.0147045
0.0143631
0.0140338
0.0137161
0.0134094
0.0131133
0.0128274
0.0125511
0.0580878
0.055471
0.0530247
0.0507347
0.048588
0.0465732
0.0446798
0.0428984
0.0412204
0.0396381
0.0381444
0.0367329
0.0353977
0.0341335
0.0329353
0.0317987
0.0307196
0.0296941
0.0287189
0.0277906
0.0269064
0.0260635
0.0252595
0.024492
0.0237589
0.0230581
0.0223879
0.0217464
0.0211321
0.0205434
0.0199789
0.0194374
0.0189177
0.0184185
0.0179389
0.0174779
0.0170346
0.016608
0.0161974
0.0158019
0.015421
0.0150538
0.0146998
0.0143583
0.0140289
0.0137109
0.013404
0.0131075
0.0128211
0.0125443
0.0580878
0.0554712
0.0530254
0.050736
0.0485901
0.0465761
0.0446836
0.0429032
0.0412262
0.0396449
0.0381522
0.0367416
0.0354073
0.0341439
0.0329464
0.0318104
0.0307318
0.0297068
0.0287318
0.0278038
0.0269198
0.026077
0.025273
0.0245054
0.0237722
0.0230713
0.0224008
0.0217591
0.0211445
0.0205555
0.0199907
0.0194488
0.0189286
0.018429
0.0179489
0.0174874
0.0170435
0.0166163
0.0162051
0.015809
0.0154274
0.0150594
0.0147047
0.0143624
0.014032
0.0137131
0.0134051
0.0131076
0.01282
0.0125418
0.0580878
0.0554712
0.0530256
0.0507364
0.0485907
0.0465769
0.0446844
0.0429039
0.0412268
0.0396452
0.0381522
0.0367412
0.0354065
0.0341427
0.0329448
0.0318085
0.0307295
0.0297041
0.0287289
0.0278006
0.0269163
0.0260733
0.0252692
0.0245015
0.0237681
0.0230671
0.0223965
0.0217547
0.0211401
0.020551
0.0199861
0.0194442
0.018924
0.0184243
0.0179442
0.0174826
0.0170386
0.0166114
0.0162
0.0158038
0.015422
0.0150539
0.0146988
0.0143562
0.0140256
0.0137062
0.0133978
0.0130996
0.0128114
0.0125326
0.0580878
0.0554713
0.0530258
0.0507367
0.0485911
0.0465774
0.0446851
0.0429047
0.0412277
0.0396463
0.0381535
0.0367427
0.0354082
0.0341446
0.0329469
0.0318107
0.0307319
0.0297067
0.0287316
0.0278035
0.0269193
0.0260764
0.0252722
0.0245045
0.0237712
0.0230701
0.0223995
0.0217576
0.0211428
0.0205536
0.0199886
0.0194465
0.0189261
0.0184262
0.0179459
0.017484
0.0170398
0.0166122
0.0162005
0.0158038
0.0154216
0.015053
0.0146974
0.0143542
0.0140229
0.0137029
0.0133937
0.0130947
0.0128056
0.0125258
0.0580878
0.0554713
0.0530258
0.0507367
0.0485911
0.0465774
0.0446851
0.0429047
0.0412277
0.0396463
0.0381534
0.0367427
0.0354081
0.0341445
0.0329468
0.0318106
0.0307318
0.0297066
0.0287314
0.0278032
0.026919
0.0260761
0.0252719
0.0245041
0.0237707
0.0230696
0.0223989
0.0217569
0.021142
0.0205527
0.0199876
0.0194453
0.0189248
0.0184247
0.0179442
0.0174821
0.0170376
0.0166098
0.0161978
0.0158008
0.0154182
0.0150492
0.0146932
0.0143495
0.0140176
0.013697
0.0133871
0.0130874
0.0127975
0.0125168
0.0580878
0.0554713
0.0530257
0.0507365
0.0485908
0.0465769
0.0446844
0.0429039
0.0412267
0.0396451
0.038152
0.036741
0.0354062
0.0341424
0.0329445
0.0318081
0.0307291
0.0297037
0.0287284
0.0278
0.0269157
0.0260726
0.0252683
0.0245004
0.0237669
0.0230656
0.0223949
0.0217528
0.0211378
0.0205485
0.0199833
0.019441
0.0189204
0.0184203
0.0179396
0.0174774
0.0170328
0.0166048
0.0161927
0.0157955
0.0154127
0.0150434
0.014687
0.014343
0.0140108
0.0136897
0.0133792
0.013079
0.0127884
0.012507
0.0580879
0.0554712
0.0530255
0.0507361
0.0485901
0.0465761
0.0446836
0.0429031
0.0412261
0.0396447
0.0381519
0.0367412
0.0354068
0.0341433
0.0329458
0.0318098
0.0307311
0.029706
0.0287309
0.0278028
0.0269186
0.0260756
0.0252714
0.0245036
0.02377
0.0230687
0.0223979
0.0217557
0.0211406
0.020551
0.0199857
0.0194432
0.0189223
0.0184219
0.0179409
0.0174784
0.0170334
0.016605
0.0161924
0.0157948
0.0154114
0.0150415
0.0146846
0.0143399
0.0140069
0.0136851
0.0133738
0.0130726
0.0127811
0.0124987
0.0580879
0.0554711
0.0530248
0.0507348
0.0485881
0.0465733
0.0446798
0.0428983
0.0412202
0.0396378
0.038144
0.0367324
0.0353971
0.0341328
0.0329346
0.0317979
0.0307187
0.0296931
0.0287177
0.0277893
0.0269049
0.0260618
0.0252575
0.0244897
0.0237561
0.0230549
0.0223841
0.0217421
0.0211271
0.0205377
0.0199726
0.0194302
0.0189095
0.0184093
0.0179286
0.0174662
0.0170214
0.0165931
0.0161806
0.015783
0.0153997
0.0150299
0.0146729
0.0143281
0.013995
0.013673
0.0133614
0.0130599
0.0127679
0.012485
0.0580879
0.0554708
0.053024
0.0507336
0.0485869
0.0465725
0.0446797
0.0428992
0.0412222
0.0396409
0.0381483
0.0367377
0.0354034
0.0341398
0.0329423
0.0318061
0.0307273
0.029702
0.0287267
0.0277983
0.0269138
0.0260706
0.025266
0.0244979
0.023764
0.0230623
0.0223911
0.0217486
0.0211332
0.0205433
0.0199776
0.0194347
0.0189135
0.0184127
0.0179313
0.0174683
0.0170228
0.0165939
0.0161807
0.0157824
0.0153984
0.0150278
0.01467
0.0143244
0.0139904
0.0136674
0.0133549
0.0130523
0.0127592
0.012475
0.0580879
0.0554693
0.0530197
0.0507256
0.0485747
0.0465559
0.0446589
0.0428744
0.0411939
0.0396097
0.0381145
0.0367019
0.035366
0.0341014
0.032903
0.0317664
0.0306874
0.0296621
0.0286871
0.027759
0.0268751
0.0260324
0.0252286
0.0244612
0.0237281
0.0230273
0.022357
0.0217154
0.0211008
0.0205118
0.0199469
0.0194049
0.0188845
0.0183845
0.0179039
0.0174417
0.0169969
0.0165686
0.016156
0.0157583
0.0153747
0.0150046
0.0146473
0.014302
0.0139683
0.0136455
0.0133331
0.0130306
0.0127375
0.0124533
0.0580879
0.0554689
0.0530202
0.0507288
0.0485815
0.0465663
0.0446727
0.042891
0.0412126
0.0396297
0.0381353
0.0367229
0.0353867
0.0341214
0.0329221
0.0317843
0.0307039
0.0296771
0.0287005
0.0277709
0.0268853
0.0260411
0.0252356
0.0244667
0.0237321
0.0230298
0.0223581
0.0217152
0.0210993
0.0205092
0.0199432
0.0194001
0.0188787
0.0183778
0.0178964
0.0174333
0.0169877
0.0165588
0.0161456
0.0157473
0.0153633
0.0149927
0.0146351
0.0142896
0.0139558
0.013633
0.0133208
0.0130187
0.0127263
0.0124433
0.0580878
0.05545
0.0529797
0.0506683
0.0485038
0.046475
0.0445713
0.0427826
0.0410998
0.0395146
0.0380196
0.036608
0.0352736
0.034011
0.032815
0.031681
0.0306047
0.0295824
0.0286105
0.0276856
0.0268049
0.0259656
0.0251651
0.0244011
0.0236714
0.0229741
0.0223072
0.0216691
0.0210581
0.0204727
0.0199115
0.0193731
0.0188564
0.0183602
0.0178835
0.0174253
0.0169846
0.0165606
0.0161526
0.0157597
0.0153814
0.0150169
0.0146656
0.0143272
0.0140012
0.0136871
0.0133848
0.0130943
0.0128159
0.0125504
0.0580915
0.0554624
0.0530084
0.0507114
0.0485619
0.0465501
0.0446679
0.0429043
0.0412495
0.0396947
0.0382317
0.0368535
0.0355534
0.0343256
0.0331647
0.032066
0.0310248
0.0300373
0.0290997
0.0282087
0.0273612
0.0265544
0.0257856
0.0250526
0.0243532
0.0236853
0.0230472
0.0224371
0.0218534
0.0212946
0.0207595
0.0202467
0.0197551
0.0192836
0.0188314
0.0183975
0.0179811
0.0175816
0.0171984
0.0168308
0.0164784
0.0161409
0.0158181
0.0155097
0.0152159
0.0149371
0.0146739
0.0144281
0.0142029
0.0140052
0.0589323
0.0574901
0.056125
0.0548304
0.0535979
0.0524192
0.0512865
0.0501967
0.0491475
0.0481366
0.0471621
0.0462225
0.045316
0.0444412
0.0435966
0.042781
0.041993
0.0412315
0.0404953
0.0397834
0.0390947
0.0384283
0.0377833
0.0371588
0.0365539
0.035968
0.0354001
0.0348495
0.0343156
0.0337977
0.0332949
0.0328069
0.0323328
0.0318721
0.0314244
0.0309889
0.0305652
0.0301527
0.029751
0.0293595
0.0289776
0.0286049
0.0282409
0.0278849
0.0275364
0.0271948
0.0268594
0.0265294
0.026204
0.0258818
0.0242176
0.00568094
0.00551826
0.00675325
0.00746304
0.00728301
0.00633182
0.00500948
0.00374791
0.00280985
0.00223036
0.00195565
0.00201307
0.00237908
0.00259895
0.00258584
0.00251693
0.00254637
0.00283524
0.0118545
0.0238214
0.00553406
0.00549089
0.00675081
0.0074606
0.00726092
0.00627666
0.00492179
0.00364151
0.00270231
0.00212888
0.00185723
0.0019341
0.00233782
0.00257595
0.0025666
0.00249791
0.00253313
0.00284219
0.0122525
0.0234306
0.00539337
0.00546382
0.00674553
0.0074551
0.0072371
0.0062219
0.00483687
0.00354012
0.00260155
0.00203505
0.00176591
0.00183841
0.00226529
0.00253945
0.00254861
0.0024844
0.00252134
0.00284127
0.0125274
0.0230441
0.00526007
0.00543681
0.00673723
0.00744648
0.00721169
0.00616792
0.00475528
0.00344435
0.00250804
0.00194922
0.00168228
0.00175229
0.00219472
0.00250222
0.0025304
0.00247114
0.00250993
0.00284084
0.012806
0.022662
0.0051348
0.00540979
0.00672597
0.00743494
0.00718507
0.00611531
0.00467767
0.0033547
0.00242205
0.00187149
0.00160636
0.00167315
0.00212682
0.00246468
0.00251202
0.00245813
0.00249891
0.00284092
0.0130886
0.0222846
0.00501785
0.00538267
0.00671188
0.00742074
0.0071576
0.00606448
0.00460445
0.00327146
0.00234361
0.00180172
0.00153805
0.00160013
0.00206192
0.00242719
0.00249351
0.00244538
0.00248829
0.00284152
0.0133755
0.0219118
0.00490925
0.0053554
0.00669514
0.00740416
0.00712961
0.00601579
0.00453589
0.00319472
0.00227255
0.00173955
0.001477
0.0015329
0.00200008
0.00239002
0.00247495
0.00243288
0.00247805
0.00284264
0.0136667
0.0215439
0.00480885
0.00532796
0.00667595
0.00738545
0.00710137
0.00596948
0.00447212
0.00312437
0.00220849
0.00168445
0.00142272
0.00147123
0.00194129
0.00235339
0.00245639
0.00242063
0.00246818
0.00284429
0.0139623
0.021181
0.00471634
0.00530032
0.00665454
0.00736488
0.0070731
0.00592565
0.00441307
0.00306014
0.00215092
0.00163577
0.00137453
0.00141488
0.0018855
0.00231744
0.00243787
0.0024086
0.00245867
0.00284645
0.0142625
0.0208231
0.00463129
0.00527249
0.00663113
0.00734266
0.00704496
0.00588435
0.00435861
0.00300166
0.00209929
0.00159283
0.00133166
0.00136342
0.00183264
0.00228229
0.00241944
0.00239679
0.00244949
0.0028491
0.014567
0.02047
0.00455318
0.00524447
0.00660597
0.00731903
0.00701704
0.0058455
0.00430848
0.00294848
0.00205297
0.00155494
0.00129342
0.00131647
0.00178259
0.002248
0.00240114
0.00238518
0.00244063
0.00285225
0.014876
0.0201217
0.00448149
0.00521631
0.00657929
0.00729421
0.00698944
0.00580902
0.00426239
0.00290015
0.00201141
0.00152149
0.00125914
0.00127358
0.00173522
0.00221463
0.002383
0.00237378
0.00243207
0.00285587
0.0151894
0.0197779
0.00441574
0.00518808
0.00655135
0.00726841
0.00696225
0.00577479
0.00422005
0.00285621
0.00197406
0.00149192
0.00122821
0.00123433
0.00169043
0.00218222
0.00236505
0.00236259
0.0024238
0.00285997
0.0155071
0.0194385
0.00435547
0.00515989
0.00652245
0.00724186
0.00693551
0.00574267
0.00418115
0.00281625
0.00194047
0.00146575
0.00120012
0.00119837
0.00164812
0.00215083
0.00234734
0.00235161
0.00241583
0.00286455
0.0158293
0.0191035
0.00430025
0.00513188
0.00649283
0.00721478
0.00690929
0.00571252
0.00414542
0.0027799
0.00191027
0.00144263
0.00117449
0.00116539
0.0016082
0.00212049
0.00232991
0.00234085
0.00240814
0.00286962
0.0161559
0.0187726
0.00424968
0.00510416
0.00646279
0.00718736
0.00688363
0.00568422
0.00411262
0.00274691
0.00188317
0.00142226
0.00115099
0.00113507
0.00157062
0.00209125
0.00231281
0.00233032
0.00240074
0.00287519
0.016487
0.0184459
0.0042034
0.00507689
0.00643254
0.00715978
0.00685856
0.00565767
0.00408257
0.00271705
0.00185898
0.00140444
0.00112937
0.0011071
0.00153534
0.00206317
0.00229607
0.00232003
0.00239363
0.00288125
0.0168227
0.0181231
0.00416107
0.00505017
0.00640229
0.00713219
0.0068341
0.00563277
0.00405516
0.00269021
0.00183756
0.00138901
0.0011095
0.0010812
0.00150232
0.00203632
0.00227974
0.00230999
0.0023868
0.00288782
0.0171632
0.0178042
0.0041224
0.00502412
0.00637222
0.0071047
0.00681029
0.0056095
0.00403033
0.00266632
0.00181883
0.00137584
0.00109128
0.00105717
0.00147155
0.00201077
0.00226386
0.00230019
0.00238025
0.00289492
0.0175085
0.0174891
0.0040872
0.00499883
0.00634249
0.00707745
0.00678718
0.00558785
0.00400806
0.00264538
0.00180276
0.00136485
0.00107471
0.00103483
0.00144304
0.00198659
0.00224848
0.00229065
0.00237396
0.00290255
0.017859
0.0171776
0.00405532
0.0049744
0.00631324
0.00705055
0.00676483
0.00556786
0.00398839
0.00262741
0.00178933
0.00135595
0.0010598
0.00101407
0.00141678
0.00196385
0.00223363
0.00228136
0.00236795
0.00291074
0.0182147
0.0168697
0.00402668
0.00495092
0.0062846
0.00702412
0.00674332
0.00554957
0.00397138
0.00261244
0.0017785
0.00134905
0.00104666
0.000994736
0.00139281
0.00194265
0.00221936
0.00227233
0.00236219
0.00291949
0.0185759
0.0165651
0.00400124
0.00492847
0.00625668
0.00699824
0.00672271
0.00553305
0.0039571
0.00260053
0.00177028
0.00134411
0.00103548
0.000976616
0.00137114
0.00192306
0.0022057
0.00226357
0.0023567
0.00292884
0.018943
0.016264
0.003979
0.00490711
0.00622957
0.00697298
0.00670306
0.00551838
0.00394564
0.00259174
0.00176468
0.0013411
0.00102662
0.000959405
0.00135178
0.00190515
0.00219271
0.00225507
0.00235146
0.00293881
0.0193161
0.0159662
0.0039599
0.00488694
0.0062033
0.00694839
0.00668441
0.00550562
0.00393709
0.00258617
0.00176172
0.00134003
0.00102058
0.000942754
0.00133476
0.001889
0.0021804
0.00224684
0.00234647
0.00294943
0.0196956
0.0156718
0.00394374
0.00486759
0.00617796
0.00692501
0.00666673
0.00549465
0.00393157
0.00258392
0.00176153
0.00134103
0.00101809
0.000926223
0.00132012
0.00187468
0.00216881
0.00223888
0.00234174
0.00296072
0.0200818
0.0153805
0.00393056
0.00484895
0.00615357
0.00690299
0.0066511
0.00548534
0.00392738
0.00258512
0.00176428
0.00134433
0.00102006
0.000909024
0.00130796
0.00186227
0.00215795
0.00223119
0.00233726
0.00297273
0.0204751
0.0150948
0.00391803
0.00483095
0.00613008
0.00688236
0.00663761
0.00547882
0.00392599
0.0025871
0.00176895
0.00135031
0.00102758
0.000889615
0.0012985
0.00185178
0.00214785
0.00222378
0.00233303
0.00298549
0.0208758
0.0148146
0.00390609
0.00481351
0.00610743
0.00686313
0.00662638
0.00547527
0.00392756
0.0025914
0.00177475
0.00135764
0.00104044
0.000867316
0.0012915
0.00184313
0.00213848
0.00221664
0.00232907
0.00299904
0.0212843
0.01454
0.00389467
0.00479654
0.00608555
0.00684531
0.00661756
0.00547493
0.00393236
0.00259817
0.00178242
0.0013675
0.00105559
0.000849476
0.00128614
0.00183623
0.00212984
0.00220977
0.00232537
0.00301413
0.0217005
0.014271
0.0038837
0.00477991
0.00606433
0.00682892
0.00661129
0.00547807
0.00394067
0.00260768
0.00179205
0.00137987
0.00107574
0.000844877
0.00128236
0.00183064
0.0021219
0.00220318
0.00232195
0.00303634
0.0221195
0.0140077
0.00387313
0.00476353
0.00604369
0.00681397
0.00660775
0.00548495
0.00395282
0.00262014
0.00180373
0.00139454
0.00109994
0.000854989
0.00128291
0.00182626
0.00211415
0.0021969
0.00231894
0.0030661
0.0225412
0.0137502
0.00386287
0.00474727
0.00602352
0.00680047
0.0066071
0.0054959
0.00396916
0.00263585
0.00181759
0.00141142
0.00112845
0.00088218
0.00128845
0.00182316
0.00210668
0.00219096
0.00231677
0.0031038
0.0229655
0.0134987
0.00385286
0.00473099
0.0060037
0.00678841
0.00660954
0.00551129
0.00399012
0.00265517
0.00183384
0.00143061
0.0011618
0.000927167
0.00129937
0.00182137
0.00209949
0.00218539
0.00231557
0.00315029
0.0233921
0.0132534
0.00384305
0.00471455
0.00598408
0.00677776
0.00661524
0.00553149
0.00401618
0.00267851
0.00185269
0.00145205
0.00119952
0.000987231
0.00131574
0.00182085
0.00209261
0.00218022
0.00231551
0.00320644
0.0238208
0.0130145
0.00383335
0.00469781
0.00596451
0.00676849
0.00662436
0.00555686
0.00404779
0.00270624
0.0018743
0.0014755
0.00124011
0.00105651
0.00133723
0.00182153
0.00208604
0.00217548
0.00231678
0.00327301
0.0242513
0.0127822
0.00382368
0.00468058
0.0059448
0.00676053
0.00663706
0.00558777
0.00408543
0.00273875
0.00189881
0.00150062
0.00128181
0.00112824
0.00136323
0.00182331
0.00207981
0.0021712
0.0023196
0.0033507
0.0246835
0.0125565
0.00381398
0.00466269
0.00592473
0.00675377
0.00665344
0.00562458
0.00412955
0.00277645
0.00192637
0.00152716
0.00132325
0.00119712
0.00139292
0.00182605
0.00207394
0.00216743
0.00232425
0.00344021
0.0251169
0.0123377
0.00380415
0.00464395
0.00590409
0.00674808
0.00667361
0.00566762
0.00418067
0.0028198
0.00195721
0.00155499
0.00136371
0.00126036
0.00142543
0.00182966
0.00206845
0.00216424
0.00233105
0.00354226
0.0255515
0.0121259
0.00379412
0.00462415
0.0058826
0.00674328
0.00669761
0.00571723
0.00423934
0.00286935
0.00199167
0.00158413
0.00140301
0.00131746
0.00145984
0.00183401
0.00206338
0.00216169
0.00234039
0.00365762
0.0259868
0.0119214