/*--------------------------------*- C++ -*----------------------------------*\
  =========                 |
  \\      /  F ield         | OpenFOAM: The Open Source CFD Toolbox
   \\    /   O peration     | Website:  https://openfoam.org
    \\  /    A nd           | Version:  8
     \\/     M anipulation  |
\*---------------------------------------------------------------------------*/
FoamFile
{
    version     2.0;
    format      ascii;
    class       volScalarField;
    location    "600";
    object      p;
}
// * * * * * * * * * * * * * * * * * * * * * * * * * * * * * * * * * * * * * //

dimensions      [1 -1 -2 0 0 0 0];

internalField   nonuniform List<scalar> 
8400
(
42397.3
78080.7
114641
150033
184149
216817
247950
277547
305619
332232
357488
381491
404314
426033
446720
466418
485193
503099
520218
536613
552328
567421
581962
596022
609675
622985
636002
648776
661359
673791
686085
698242
710278
722251
734248
746343
758588
771041
783795
796987
810767
825321
840923
857943
876795
897862
921660
950012
987772
1.03823e+06
40497.7
76146.3
112880
148488
182763
215537
246712
276303
304347
330926
356114
380045
402805
424453
445065
464692
483401
501253
518306
534617
550239
565230
579660
593603
607127
620286
633125
645702
658072
670269
682297
694153
705870
717516
729167
740867
752647
764567
776719
789193
802088
815562
829840
845160
861751
879831
899662
922121
949450
983518
42227.7
79495.7
117130
153280
187882
220823
252052
281622
309587
336073
361158
384976
407647
429232
449794
469408
488127
506013
523122
539504
555207
570289
584827
598893
612545
625831
638804
651530
664066
676448
688683
700787
712807
724811
736856
748977
761220
773661
786382
799454
812983
827147
842140
858149
875394
894106
914524
937122
962661
991158
39216.9
76782.5
115042
151777
186763
219888
251151
280625
308420
334704
359587
383199
405654
427037
447403
466831
485377
503098
520036
536221
551700
566537
580807
594576
607896
620812
633379
645665
657733
669616
681327
692888
704345
715746
727123
738505
749945
761501
773218
785144
797379
810054
823293
837252
852131
868125
885480
904476
925519
948718
41267.2
81243.4
120950
158554
194012
227307
258554
287916
315545
341640
366347
389805
412128
433407
453707
473106
491668
509424
526400
542628
558157
573059
587411
601273
614690
627703
640376
652785
664992
677029
688917
700687
712376
724017
735632
747257
758941
770718
782610
794666
806959
819551
832523
846007
860124
874988
890715
907423
925188
944173
38607.6
80029.7
120937
159325
195156
228521
259614
288717
316053
341831
366234
389408
411470
432502
452581
471763
490098
507619
524345
540307
555560
570180
584242
597796
610885
623557
635883
647938
659778
671436
682940
694323
705615
716837
728013
739176
750361
761584
772873
784272
795818
807547
819553
831938
844785
858215
872236
886921
902052
917949
40359.9
85150.7
127704
166826
202818
236038
266818
295542
322489
347912
372019
394952
416835
437732
457715
476839
495136
512627
529330
545281
560542
575185
589276
602863
615989
628712
641102
653226
665131
676852
688421
699869
711217
722480
733677
744833
755963
767080
778206
789356
800531
811776
823172
834760
846636
858852
871493
884416
897545
910973
40035.3
87460.1
131059
170435
206206
239003
269283
297505
323991
349020
372806
395491
417176
437929
457791
476791
494952
512292
528832
544608
559678
574111
587970
601313
614196
626688
638856
650758
662440
673943
685303
696550
707702
718775
729789
740761
751699
762620
773532
784420
795291
806199
817170
828246
839537
851024
862766
874587
886428
898265
44131.2
94242
137785
176672
211718
243748
273338
300975
327012
351725
375316
397939
419666
440531
460544
479714
498045
515538
532199
548050
563141
577538
591314
604545
617307
629678
641724
653502
665060
676443
687687
698818
709849
720800
731687
742524
753320
764080
774794
785449
796064
806655
817229
827904
838708
849702
860809
871961
882967
893876
50823.5
102366
144107
182256
216462
247575
276315
303182
328562
352734
375895
398173
419639
440320
460223
479357
497709
515251
531973
547887
563030
577461
591256
604496
617266
629648
641707
653500
665074
676475
687741
698888
709929
720880
731764
742598
753384
764113
774770
785353
795861
806290
816695
827164
837743
848556
859397
870124
880569
890852
45948.9
102212
145598
183814
217999
248994
277571
304250
329433
353420
376425
398563
419891
440432
460206
479228
497484
514947
531607
547476
562589
577005
590800
604050
616839
629244
641331
653154
664761
676201
687512
698709
709800
720806
731746
742633
753467
764237
774930
785539
796059
806505
816930
827401
838006
848828
859788
870647
881250
891599
35297.4
98764.3
145161
183643
218081
249331
278006
304654
329721
353542
376358
398302
419434
439788
459392
478261
496383
513737
530312
546112
561167
575539
589302
602533
615311
627713
639801
651626
663239
674687
686002
697201
708298
719317
730280
741195
752070
762900
773669
784376
795017
805601
816179
826799
837558
848469
859484
870397
881083
891544
31068.3
91618.6
143527
185912
222927
256413
286777
314468
339904
363561
385813
406937
427128
446498
465104
482965
500072
516415
532006
546886
561123
574802
588009
600824
613321
625565
637608
649480
661198
672778
684233
695574
706822
717999
729121
740199
751250
762288
773334
784416
795539
806720
817969
829320
840791
852366
863949
875406
886630
897538
9582.37
72164.7
129916
177211
217961
254729
287869
317364
343561
366991
388214
407769
426095
443507
460194
476227
491617
506383
520560
534205
547399
560240
572832
585272
597640
609988
622331
634644
646889
659026
671031
682891
694607
706186
717648
729030
740384
751776
763290
774998
786927
799094
811479
824083
836835
849663
862395
874878
886998
898590
23519.3
79384.7
141208
194888
241192
282843
320143
352515
379966
402974
422263
438672
453042
466097
478352
490122
501604
512940
524236
535556
546952
558482
570219
582248
594638
607394
620445
633666
646908
660030
672917
685483
697676
709480
720928
732105
743130
754162
765381
776937
788941
801446
814437
827834
841491
855189
868636
881560
893778
905022
-25647.4
40711.3
109505
169313
222436
271452
315849
354254
386002
411174
430360
444559
454994
462864
469190
474802
480385
486493
493502
501571
510716
520931
532253
544748
558437
573228
588905
605167
621681
638123
654212
669715
684463
698376
711473
723857
735701
747257
758844
770779
783347
796691
810818
825547
840639
855697
870194
883535
895385
905385
24901.8
76957.9
147784
213970
273241
328545
379205
423140
458818
485626
503782
514255
518485
517992
514233
508667
502776
497940
495113
494654
496603
500983
507900
517468
529693
544402
561236
579680
599137
619021
638807
658039
676356
693524
709447
724139
737743
750579
763134
775998
789711
804570
820635
837716
855392
872993
889615
904189
915693
922898
-70674
9049.61
98603.3
178199
251020
319863
383511
439350
485021
519043
541157
552426
554546
549053
537518
521995
505118
489674
477413
468594
463045
460884
462508
468236
478033
491619
508576
528260
549832
572424
595258
617677
639173
659378
678022
694954
710264
724376
738032
752252
767975
785739
805670
827577
850795
874256
896432
915491
929505
936672
2196.34
53887.1
128581
210018
290300
367427
439185
502340
553469
590068
611492
619679
617176
605198
584850
558533
530319
505508
486720
472625
461747
454152
450985
453308
460935
473088
489142
508346
529789
552525
575567
597991
619164
638771
656528
672066
685287
696717
707551
719734
734951
753842
776539
802953
832471
863490
893728
920462
940353
949016
34769.5
88134.4
159159
240221
323452
404731
479714
544012
593892
626802
642142
641912
630795
612110
586572
555942
523866
495123
473816
459361
449001
442367
440451
444343
453696
467375
484839
505336
527810
551492
575503
598746
620259
639560
656591
671374
683936
694643
704533
715450
729946
749472
773905
802906
835882
870871
905008
935395
959216
971749
4.20194e+06
4.20142e+06
4.20117e+06
4.20107e+06
4.20102e+06
4.20098e+06
4.20095e+06
4.20093e+06
4.20092e+06
4.20091e+06
4.2009e+06
4.20089e+06
4.20089e+06
4.20088e+06
4.20088e+06
4.20088e+06
4.20087e+06
4.20087e+06
4.20087e+06
4.20088e+06
4.20088e+06
4.20088e+06
4.20088e+06
4.20088e+06
4.20088e+06
4.20088e+06
4.20088e+06
4.20088e+06
4.20088e+06
4.20088e+06
4.20089e+06
4.20089e+06
4.20089e+06
4.20089e+06
4.20089e+06
4.2009e+06
4.2009e+06
4.2009e+06
4.20091e+06
4.20091e+06
4.20091e+06
4.20091e+06
4.20091e+06
4.20091e+06
4.2009e+06
4.20088e+06
4.20086e+06
4.20083e+06
4.20078e+06
4.2007e+06
4.20024e+06
4.20053e+06
4.20062e+06
4.20065e+06
4.20068e+06
4.2007e+06
4.20071e+06
4.20072e+06
4.20073e+06
4.20073e+06
4.20073e+06
4.20074e+06
4.20074e+06
4.20074e+06
4.20074e+06
4.20074e+06
4.20074e+06
4.20075e+06
4.20075e+06
4.20075e+06
4.20076e+06
4.20076e+06
4.20076e+06
4.20077e+06
4.20077e+06
4.20077e+06
4.20077e+06
4.20077e+06
4.20077e+06
4.20077e+06
4.20078e+06
4.20078e+06
4.20078e+06
4.20078e+06
4.20079e+06
4.20079e+06
4.20079e+06
4.2008e+06
4.2008e+06
4.20081e+06
4.20081e+06
4.20081e+06
4.20081e+06
4.20081e+06
4.2008e+06
4.20079e+06
4.20077e+06
4.20074e+06
4.2007e+06
4.20065e+06
4.2006e+06
4.20074e+06
4.20081e+06
4.20081e+06
4.2008e+06
4.20079e+06
4.20078e+06
4.20076e+06
4.20075e+06
4.20074e+06
4.20073e+06
4.20072e+06
4.20071e+06
4.20071e+06
4.2007e+06
4.2007e+06
4.2007e+06
4.20069e+06
4.20069e+06
4.20069e+06
4.20069e+06
4.20069e+06
4.2007e+06
4.2007e+06
4.2007e+06
4.2007e+06
4.2007e+06
4.20069e+06
4.20069e+06
4.2007e+06
4.2007e+06
4.2007e+06
4.2007e+06
4.2007e+06
4.20071e+06
4.20071e+06
4.20071e+06
4.20072e+06
4.20072e+06
4.20073e+06
4.20073e+06
4.20073e+06
4.20073e+06
4.20073e+06
4.20073e+06
4.20072e+06
4.20071e+06
4.20068e+06
4.20065e+06
4.20061e+06
4.20052e+06
4.20055e+06
4.20056e+06
4.20056e+06
4.20055e+06
4.20054e+06
4.20054e+06
4.20054e+06
4.20054e+06
4.20054e+06
4.20054e+06
4.20054e+06
4.20054e+06
4.20054e+06
4.20054e+06
4.20054e+06
4.20054e+06
4.20055e+06
4.20055e+06
4.20055e+06
4.20056e+06
4.20056e+06
4.20056e+06
4.20057e+06
4.20057e+06
4.20057e+06
4.20057e+06
4.20057e+06
4.20057e+06
4.20058e+06
4.20058e+06
4.20058e+06
4.20058e+06
4.20059e+06
4.20059e+06
4.2006e+06
4.2006e+06
4.20061e+06
4.20062e+06
4.20062e+06
4.20063e+06
4.20063e+06
4.20064e+06
4.20064e+06
4.20064e+06
4.20064e+06
4.20063e+06
4.20061e+06
4.2006e+06
4.20057e+06
4.20046e+06
4.20048e+06
4.20049e+06
4.20051e+06
4.20052e+06
4.20052e+06
4.20052e+06
4.20052e+06
4.20052e+06
4.20052e+06
4.20051e+06
4.20051e+06
4.20051e+06
4.2005e+06
4.2005e+06
4.2005e+06
4.2005e+06
4.2005e+06
4.2005e+06
4.2005e+06
4.2005e+06
4.2005e+06
4.2005e+06
4.2005e+06
4.2005e+06
4.2005e+06
4.2005e+06
4.2005e+06
4.2005e+06
4.2005e+06
4.20051e+06
4.20051e+06
4.20051e+06
4.20051e+06
4.20052e+06
4.20052e+06
4.20053e+06
4.20054e+06
4.20054e+06
4.20055e+06
4.20056e+06
4.20057e+06
4.20057e+06
4.20058e+06
4.20058e+06
4.20058e+06
4.20058e+06
4.20057e+06
4.20056e+06
4.20055e+06
4.20037e+06
4.20038e+06
4.20039e+06
4.20039e+06
4.20039e+06
4.20038e+06
4.20038e+06
4.20038e+06
4.20037e+06
4.20037e+06
4.20037e+06
4.20036e+06
4.20036e+06
4.20036e+06
4.20036e+06
4.20036e+06
4.20036e+06
4.20036e+06
4.20036e+06
4.20036e+06
4.20037e+06
4.20037e+06
4.20037e+06
4.20037e+06
4.20037e+06
4.20038e+06
4.20038e+06
4.20038e+06
4.20038e+06
4.20038e+06
4.20039e+06
4.20039e+06
4.20039e+06
4.2004e+06
4.20041e+06
4.20042e+06
4.20042e+06
4.20043e+06
4.20044e+06
4.20045e+06
4.20046e+06
4.20047e+06
4.20048e+06
4.20049e+06
4.2005e+06
4.20051e+06
4.20051e+06
4.20051e+06
4.20051e+06
4.20051e+06
4.20028e+06
4.20029e+06
4.20029e+06
4.20029e+06
4.2003e+06
4.2003e+06
4.2003e+06
4.2003e+06
4.2003e+06
4.2003e+06
4.2003e+06
4.2003e+06
4.20029e+06
4.20029e+06
4.20029e+06
4.20029e+06
4.20029e+06
4.20029e+06
4.2003e+06
4.2003e+06
4.2003e+06
4.2003e+06
4.2003e+06
4.2003e+06
4.2003e+06
4.2003e+06
4.2003e+06
4.2003e+06
4.2003e+06
4.20031e+06
4.20031e+06
4.20031e+06
4.20032e+06
4.20032e+06
4.20033e+06
4.20034e+06
4.20035e+06
4.20036e+06
4.20037e+06
4.20039e+06
4.2004e+06
4.20041e+06
4.20042e+06
4.20044e+06
4.20045e+06
4.20046e+06
4.20047e+06
4.20048e+06
4.20049e+06
4.20049e+06
4.20019e+06
4.20019e+06
4.20019e+06
4.20019e+06
4.20019e+06
4.20019e+06
4.20019e+06
4.20019e+06
4.20019e+06
4.20019e+06
4.20018e+06
4.20018e+06
4.20018e+06
4.20018e+06
4.20018e+06
4.20018e+06
4.20018e+06
4.20018e+06
4.20018e+06
4.20018e+06
4.20018e+06
4.20018e+06
4.20018e+06
4.20018e+06
4.20019e+06
4.20019e+06
4.20019e+06
4.20019e+06
4.20019e+06
4.20019e+06
4.2002e+06
4.2002e+06
4.20021e+06
4.20022e+06
4.20023e+06
4.20024e+06
4.20025e+06
4.20026e+06
4.20028e+06
4.20029e+06
4.20031e+06
4.20033e+06
4.20034e+06
4.20036e+06
4.20038e+06
4.20039e+06
4.20041e+06
4.20042e+06
4.20044e+06
4.20046e+06
4.20009e+06
4.20009e+06
4.2001e+06
4.2001e+06
4.2001e+06
4.2001e+06
4.2001e+06
4.20009e+06
4.20009e+06
4.20009e+06
4.20009e+06
4.20009e+06
4.20009e+06
4.20009e+06
4.20009e+06
4.20009e+06
4.20009e+06
4.20009e+06
4.2001e+06
4.2001e+06
4.2001e+06
4.2001e+06
4.2001e+06
4.2001e+06
4.2001e+06
4.2001e+06
4.2001e+06
4.2001e+06
4.2001e+06
4.20011e+06
4.20011e+06
4.20012e+06
4.20013e+06
4.20014e+06
4.20015e+06
4.20016e+06
4.20017e+06
4.20019e+06
4.2002e+06
4.20022e+06
4.20024e+06
4.20026e+06
4.20028e+06
4.2003e+06
4.20032e+06
4.20034e+06
4.20036e+06
4.20039e+06
4.20041e+06
4.20043e+06
4.2e+06
4.2e+06
4.2e+06
4.2e+06
4.2e+06
4.2e+06
4.2e+06
4.2e+06
4.19999e+06
4.19999e+06
4.19999e+06
4.19999e+06
4.19999e+06
4.19999e+06
4.19999e+06
4.19999e+06
4.19999e+06
4.19999e+06
4.19999e+06
4.19999e+06
4.2e+06
4.2e+06
4.2e+06
4.2e+06
4.2e+06
4.2e+06
4.2e+06
4.2e+06
4.2e+06
4.20001e+06
4.20001e+06
4.20002e+06
4.20003e+06
4.20004e+06
4.20005e+06
4.20007e+06
4.20008e+06
4.2001e+06
4.20012e+06
4.20014e+06
4.20016e+06
4.20018e+06
4.20021e+06
4.20023e+06
4.20026e+06
4.20028e+06
4.20031e+06
4.20034e+06
4.20037e+06
4.2004e+06
4.1999e+06
4.1999e+06
4.1999e+06
4.1999e+06
4.1999e+06
4.1999e+06
4.1999e+06
4.1999e+06
4.1999e+06
4.1999e+06
4.1999e+06
4.1999e+06
4.19989e+06
4.19989e+06
4.19989e+06
4.1999e+06
4.1999e+06
4.1999e+06
4.1999e+06
4.1999e+06
4.1999e+06
4.1999e+06
4.1999e+06
4.1999e+06
4.1999e+06
4.1999e+06
4.1999e+06
4.1999e+06
4.1999e+06
4.19991e+06
4.19992e+06
4.19992e+06
4.19993e+06
4.19995e+06
4.19996e+06
4.19998e+06
4.2e+06
4.20002e+06
4.20004e+06
4.20006e+06
4.20008e+06
4.20011e+06
4.20014e+06
4.20016e+06
4.20019e+06
4.20023e+06
4.20026e+06
4.2003e+06
4.20033e+06
4.20037e+06
4.1998e+06
4.1998e+06
4.1998e+06
4.1998e+06
4.1998e+06
4.1998e+06
4.1998e+06
4.1998e+06
4.1998e+06
4.1998e+06
4.1998e+06
4.1998e+06
4.1998e+06
4.1998e+06
4.1998e+06
4.1998e+06
4.19981e+06
4.19981e+06
4.19981e+06
4.19981e+06
4.19981e+06
4.19981e+06
4.19981e+06
4.19981e+06
4.19981e+06
4.19981e+06
4.19981e+06
4.19981e+06
4.19981e+06
4.19982e+06
4.19983e+06
4.19983e+06
4.19985e+06
4.19986e+06
4.19988e+06
4.19989e+06
4.19991e+06
4.19993e+06
4.19996e+06
4.19998e+06
4.20001e+06
4.20004e+06
4.20007e+06
4.2001e+06
4.20014e+06
4.20017e+06
4.20021e+06
4.20025e+06
4.2003e+06
4.20034e+06
4.1997e+06
4.1997e+06
4.1997e+06
4.19971e+06
4.19971e+06
4.19971e+06
4.1997e+06
4.1997e+06
4.1997e+06
4.1997e+06
4.1997e+06
4.1997e+06
4.1997e+06
4.1997e+06
4.1997e+06
4.1997e+06
4.1997e+06
4.1997e+06
4.1997e+06
4.1997e+06
4.1997e+06
4.1997e+06
4.1997e+06
4.1997e+06
4.1997e+06
4.1997e+06
4.1997e+06
4.1997e+06
4.19971e+06
4.19971e+06
4.19972e+06
4.19973e+06
4.19974e+06
4.19976e+06
4.19978e+06
4.1998e+06
4.19982e+06
4.19984e+06
4.19987e+06
4.1999e+06
4.19993e+06
4.19996e+06
4.19999e+06
4.20003e+06
4.20007e+06
4.20011e+06
4.20015e+06
4.2002e+06
4.20025e+06
4.2003e+06
4.1996e+06
4.1996e+06
4.19961e+06
4.19961e+06
4.19961e+06
4.19961e+06
4.19961e+06
4.19961e+06
4.19961e+06
4.19962e+06
4.19962e+06
4.19962e+06
4.19962e+06
4.19962e+06
4.19962e+06
4.19962e+06
4.19962e+06
4.19962e+06
4.19962e+06
4.19962e+06
4.19962e+06
4.19962e+06
4.19962e+06
4.19962e+06
4.19962e+06
4.19962e+06
4.19962e+06
4.19962e+06
4.19962e+06
4.19963e+06
4.19964e+06
4.19965e+06
4.19966e+06
4.19968e+06
4.1997e+06
4.19972e+06
4.19974e+06
4.19977e+06
4.1998e+06
4.19983e+06
4.19986e+06
4.19989e+06
4.19993e+06
4.19997e+06
4.20001e+06
4.20006e+06
4.20011e+06
4.20016e+06
4.20022e+06
4.20027e+06
4.1995e+06
4.1995e+06
4.19951e+06
4.19951e+06
4.19951e+06
4.19951e+06
4.1995e+06
4.1995e+06
4.19949e+06
4.19949e+06
4.19949e+06
4.19949e+06
4.19949e+06
4.19949e+06
4.19949e+06
4.19949e+06
4.19949e+06
4.1995e+06
4.1995e+06
4.1995e+06
4.1995e+06
4.1995e+06
4.1995e+06
4.19949e+06
4.19949e+06
4.1995e+06
4.1995e+06
4.1995e+06
4.19951e+06
4.19951e+06
4.19952e+06
4.19954e+06
4.19955e+06
4.19957e+06
4.19959e+06
4.19961e+06
4.19964e+06
4.19967e+06
4.1997e+06
4.19973e+06
4.19976e+06
4.1998e+06
4.19984e+06
4.19989e+06
4.19994e+06
4.19999e+06
4.20004e+06
4.2001e+06
4.20016e+06
4.20023e+06
4.19939e+06
4.1994e+06
4.19942e+06
4.19943e+06
4.19944e+06
4.19944e+06
4.19945e+06
4.19945e+06
4.19945e+06
4.19945e+06
4.19944e+06
4.19944e+06
4.19944e+06
4.19944e+06
4.19944e+06
4.19944e+06
4.19944e+06
4.19944e+06
4.19944e+06
4.19944e+06
4.19944e+06
4.19943e+06
4.19943e+06
4.19943e+06
4.19943e+06
4.19943e+06
4.19943e+06
4.19943e+06
4.19943e+06
4.19944e+06
4.19945e+06
4.19946e+06
4.19948e+06
4.1995e+06
4.19952e+06
4.19954e+06
4.19957e+06
4.19959e+06
4.19963e+06
4.19966e+06
4.1997e+06
4.19974e+06
4.19978e+06
4.19983e+06
4.19988e+06
4.19993e+06
4.19999e+06
4.20006e+06
4.20013e+06
4.2002e+06
4.19925e+06
4.19928e+06
4.19929e+06
4.19929e+06
4.19928e+06
4.19927e+06
4.19927e+06
4.19927e+06
4.19927e+06
4.19927e+06
4.19927e+06
4.19928e+06
4.19928e+06
4.19928e+06
4.19929e+06
4.19929e+06
4.19929e+06
4.19929e+06
4.1993e+06
4.1993e+06
4.1993e+06
4.1993e+06
4.1993e+06
4.1993e+06
4.1993e+06
4.1993e+06
4.1993e+06
4.19931e+06
4.19931e+06
4.19932e+06
4.19933e+06
4.19935e+06
4.19936e+06
4.19938e+06
4.19941e+06
4.19943e+06
4.19946e+06
4.19949e+06
4.19952e+06
4.19956e+06
4.1996e+06
4.19964e+06
4.19969e+06
4.19974e+06
4.19979e+06
4.19985e+06
4.19992e+06
4.19999e+06
4.20006e+06
4.20014e+06
4.19914e+06
4.19927e+06
4.19934e+06
4.19935e+06
4.19934e+06
4.19933e+06
4.19931e+06
4.1993e+06
4.19929e+06
4.19928e+06
4.19927e+06
4.19927e+06
4.19926e+06
4.19926e+06
4.19925e+06
4.19925e+06
4.19925e+06
4.19925e+06
4.19925e+06
4.19924e+06
4.19924e+06
4.19924e+06
4.19923e+06
4.19923e+06
4.19923e+06
4.19923e+06
4.19923e+06
4.19923e+06
4.19924e+06
4.19925e+06
4.19926e+06
4.19927e+06
4.19929e+06
4.19931e+06
4.19933e+06
4.19935e+06
4.19938e+06
4.19941e+06
4.19945e+06
4.19948e+06
4.19952e+06
4.19957e+06
4.19962e+06
4.19967e+06
4.19973e+06
4.19979e+06
4.19986e+06
4.19993e+06
4.20001e+06
4.20011e+06
4.19858e+06
4.19887e+06
4.19896e+06
4.19899e+06
4.19902e+06
4.19904e+06
4.19905e+06
4.19906e+06
4.19907e+06
4.19907e+06
4.19908e+06
4.19908e+06
4.19909e+06
4.19909e+06
4.1991e+06
4.1991e+06
4.1991e+06
4.19911e+06
4.19911e+06
4.19911e+06
4.19911e+06
4.19911e+06
4.19911e+06
4.19911e+06
4.19911e+06
4.19911e+06
4.19911e+06
4.19912e+06
4.19912e+06
4.19913e+06
4.19914e+06
4.19916e+06
4.19918e+06
4.1992e+06
4.19922e+06
4.19925e+06
4.19928e+06
4.19931e+06
4.19934e+06
4.19938e+06
4.19942e+06
4.19947e+06
4.19952e+06
4.19957e+06
4.19963e+06
4.1997e+06
4.19977e+06
4.19985e+06
4.19994e+06
4.20004e+06
4.20008e+06
4.19957e+06
4.19932e+06
4.19922e+06
4.19917e+06
4.19913e+06
4.1991e+06
4.19908e+06
4.19907e+06
4.19906e+06
4.19905e+06
4.19905e+06
4.19905e+06
4.19904e+06
4.19904e+06
4.19904e+06
4.19904e+06
4.19904e+06
4.19904e+06
4.19904e+06
4.19903e+06
4.19903e+06
4.19903e+06
4.19903e+06
4.19903e+06
4.19903e+06
4.19903e+06
4.19903e+06
4.19904e+06
4.19905e+06
4.19906e+06
4.19907e+06
4.19909e+06
4.19911e+06
4.19913e+06
4.19916e+06
4.19919e+06
4.19922e+06
4.19926e+06
4.19929e+06
4.19934e+06
4.19938e+06
4.19943e+06
4.19949e+06
4.19955e+06
4.19962e+06
4.19969e+06
4.19977e+06
4.19987e+06
4.19998e+06
4.11411e+06
4.11929e+06
4.11983e+06
4.1238e+06
4.12471e+06
4.12732e+06
4.12815e+06
4.12952e+06
4.12998e+06
4.13046e+06
4.13058e+06
4.13063e+06
4.13063e+06
4.1307e+06
4.13084e+06
4.13134e+06
4.13156e+06
4.13276e+06
4.13293e+06
4.13502e+06
4.11303e+06
4.11822e+06
4.11877e+06
4.12275e+06
4.12367e+06
4.1263e+06
4.12714e+06
4.12852e+06
4.12899e+06
4.12948e+06
4.12959e+06
4.12964e+06
4.12964e+06
4.12971e+06
4.12986e+06
4.13036e+06
4.13059e+06
4.13181e+06
4.13201e+06
4.1342e+06
4.11198e+06
4.11718e+06
4.11775e+06
4.12174e+06
4.12268e+06
4.12532e+06
4.12617e+06
4.12756e+06
4.12803e+06
4.12853e+06
4.12864e+06
4.12869e+06
4.12869e+06
4.12876e+06
4.1289e+06
4.12941e+06
4.12965e+06
4.13091e+06
4.13115e+06
4.13342e+06
4.11097e+06
4.11618e+06
4.11678e+06
4.12077e+06
4.12173e+06
4.12438e+06
4.12525e+06
4.12665e+06
4.12712e+06
4.12763e+06
4.12774e+06
4.12779e+06
4.12778e+06
4.12784e+06
4.12797e+06
4.12849e+06
4.12874e+06
4.13004e+06
4.1303e+06
4.13262e+06
4.11002e+06
4.11525e+06
4.11586e+06
4.11986e+06
4.12084e+06
4.1235e+06
4.12437e+06
4.12578e+06
4.12626e+06
4.12676e+06
4.12687e+06
4.12692e+06
4.12691e+06
4.12698e+06
4.12711e+06
4.12764e+06
4.12789e+06
4.12921e+06
4.12947e+06
4.13182e+06
4.10912e+06
4.11437e+06
4.115e+06
4.11901e+06
4.12e+06
4.12266e+06
4.12354e+06
4.12496e+06
4.12543e+06
4.12594e+06
4.12604e+06
4.12609e+06
4.12608e+06
4.12615e+06
4.12628e+06
4.12682e+06
4.12708e+06
4.12842e+06
4.12868e+06
4.13106e+06
4.10828e+06
4.11354e+06
4.1142e+06
4.1182e+06
4.11921e+06
4.12187e+06
4.12275e+06
4.12417e+06
4.12464e+06
4.12515e+06
4.12525e+06
4.1253e+06
4.12529e+06
4.12536e+06
4.12549e+06
4.12604e+06
4.1263e+06
4.12765e+06
4.12791e+06
4.13032e+06
4.10749e+06
4.11276e+06
4.11344e+06
4.11743e+06
4.11845e+06
4.12111e+06
4.122e+06
4.12342e+06
4.12389e+06
4.1244e+06
4.1245e+06
4.12454e+06
4.12453e+06
4.1246e+06
4.12472e+06
4.12528e+06
4.12554e+06
4.12691e+06
4.12716e+06
4.12959e+06
4.10674e+06
4.11201e+06
4.11271e+06
4.11669e+06
4.11773e+06
4.12038e+06
4.12128e+06
4.12269e+06
4.12317e+06
4.12367e+06
4.12377e+06
4.12382e+06
4.1238e+06
4.12387e+06
4.12399e+06
4.12454e+06
4.1248e+06
4.12618e+06
4.12643e+06
4.12888e+06
4.10602e+06
4.11129e+06
4.11201e+06
4.11598e+06
4.11704e+06
4.11968e+06
4.12058e+06
4.122e+06
4.12247e+06
4.12297e+06
4.12307e+06
4.12312e+06
4.12309e+06
4.12316e+06
4.12327e+06
4.12383e+06
4.12408e+06
4.12547e+06
4.12572e+06
4.12819e+06
4.10532e+06
4.11059e+06
4.11133e+06
4.11529e+06
4.11636e+06
4.119e+06
4.11991e+06
4.12132e+06
4.1218e+06
4.1223e+06
4.1224e+06
4.12244e+06
4.12242e+06
4.12248e+06
4.12259e+06
4.12314e+06
4.12338e+06
4.12478e+06
4.12502e+06
4.12751e+06
4.10464e+06
4.10992e+06
4.11067e+06
4.11462e+06
4.11571e+06
4.11834e+06
4.11926e+06
4.12067e+06
4.12115e+06
4.12165e+06
4.12175e+06
4.12179e+06
4.12176e+06
4.12183e+06
4.12192e+06
4.12248e+06
4.12271e+06
4.12411e+06
4.12435e+06
4.12685e+06
4.10399e+06
4.10926e+06
4.11003e+06
4.11398e+06
4.11508e+06
4.11771e+06
4.11864e+06
4.12004e+06
4.12053e+06
4.12103e+06
4.12112e+06
4.12116e+06
4.12114e+06
4.12119e+06
4.12129e+06
4.12184e+06
4.12207e+06
4.12347e+06
4.12371e+06
4.12622e+06
4.10336e+06
4.10863e+06
4.10942e+06
4.11335e+06
4.11447e+06
4.11709e+06
4.11804e+06
4.11944e+06
4.11993e+06
4.12043e+06
4.12052e+06
4.12056e+06
4.12053e+06
4.12059e+06
4.12067e+06
4.12123e+06
4.12145e+06
4.12286e+06
4.12309e+06
4.12562e+06
4.10276e+06
4.10803e+06
4.10883e+06
4.11276e+06
4.11389e+06
4.1165e+06
4.11747e+06
4.11886e+06
4.11936e+06
4.11985e+06
4.11995e+06
4.11999e+06
4.11995e+06
4.12001e+06
4.12009e+06
4.12064e+06
4.12086e+06
4.12228e+06
4.12251e+06
4.12506e+06
4.10219e+06
4.10745e+06
4.10827e+06
4.11218e+06
4.11334e+06
4.11594e+06
4.11692e+06
4.11831e+06
4.11882e+06
4.11931e+06
4.1194e+06
4.11944e+06
4.1194e+06
4.11946e+06
4.11954e+06
4.12009e+06
4.1203e+06
4.12173e+06
4.12196e+06
4.12452e+06
4.10165e+06
4.1069e+06
4.10773e+06
4.11164e+06
4.11281e+06
4.11541e+06
4.11641e+06
4.11779e+06
4.11831e+06
4.11879e+06
4.11889e+06
4.11893e+06
4.11889e+06
4.11894e+06
4.11901e+06
4.11957e+06
4.11978e+06
4.12122e+06
4.12145e+06
4.12403e+06
4.10115e+06
4.1064e+06
4.10724e+06
4.11113e+06
4.11233e+06
4.11491e+06
4.11593e+06
4.11731e+06
4.11783e+06
4.11831e+06
4.11841e+06
4.11844e+06
4.1184e+06
4.11846e+06
4.11852e+06
4.11909e+06
4.11929e+06
4.12074e+06
4.12098e+06
4.12357e+06
4.10069e+06
4.10593e+06
4.10679e+06
4.11067e+06
4.11188e+06
4.11446e+06
4.11549e+06
4.11686e+06
4.11739e+06
4.11787e+06
4.11796e+06
4.11799e+06
4.11795e+06
4.11801e+06
4.11807e+06
4.11864e+06
4.11885e+06
4.12031e+06
4.12054e+06
4.12315e+06
4.10028e+06
4.10552e+06
4.10639e+06
4.11026e+06
4.11149e+06
4.11405e+06
4.1151e+06
4.11646e+06
4.117e+06
4.11746e+06
4.11756e+06
4.11758e+06
4.11753e+06
4.11759e+06
4.11766e+06
4.11823e+06
4.11844e+06
4.11991e+06
4.12015e+06
4.12278e+06
4.09994e+06
4.10516e+06
4.10605e+06
4.1099e+06
4.11115e+06
4.1137e+06
4.11476e+06
4.1161e+06
4.11664e+06
4.1171e+06
4.11719e+06
4.11721e+06
4.11716e+06
4.11722e+06
4.11729e+06
4.11787e+06
4.11808e+06
4.11956e+06
4.11981e+06
4.12244e+06
4.09965e+06
4.10487e+06
4.10577e+06
4.10961e+06
4.11087e+06
4.1134e+06
4.11446e+06
4.11579e+06
4.11633e+06
4.11677e+06
4.11686e+06
4.11687e+06
4.11682e+06
4.11689e+06
4.11695e+06
4.11754e+06
4.11776e+06
4.11925e+06
4.1195e+06
4.12216e+06
4.09944e+06
4.10465e+06
4.10556e+06
4.10937e+06
4.11064e+06
4.11314e+06
4.11422e+06
4.11553e+06
4.11606e+06
4.11649e+06
4.11657e+06
4.11658e+06
4.11652e+06
4.11659e+06
4.11667e+06
4.11726e+06
4.11748e+06
4.11899e+06
4.11925e+06
4.12191e+06
4.09929e+06
4.10449e+06
4.1054e+06
4.10918e+06
4.11047e+06
4.11294e+06
4.11402e+06
4.11531e+06
4.11584e+06
4.11625e+06
4.11633e+06
4.11633e+06
4.11627e+06
4.11635e+06
4.11642e+06
4.11703e+06
4.11725e+06
4.11878e+06
4.11904e+06
4.12172e+06
4.0992e+06
4.10439e+06
4.1053e+06
4.10906e+06
4.11034e+06
4.11279e+06
4.11387e+06
4.11513e+06
4.11567e+06
4.11606e+06
4.11613e+06
4.11613e+06
4.11607e+06
4.11615e+06
4.11623e+06
4.11685e+06
4.11708e+06
4.11861e+06
4.11888e+06
4.12157e+06
4.09918e+06
4.10435e+06
4.10526e+06
4.10898e+06
4.11027e+06
4.11268e+06
4.11376e+06
4.11501e+06
4.11554e+06
4.11592e+06
4.11599e+06
4.11598e+06
4.11592e+06
4.116e+06
4.11609e+06
4.11671e+06
4.11695e+06
4.11849e+06
4.11877e+06
4.12147e+06
4.09922e+06
4.10437e+06
4.10527e+06
4.10896e+06
4.11025e+06
4.11262e+06
4.11371e+06
4.11492e+06
4.11546e+06
4.11583e+06
4.11591e+06
4.11589e+06
4.11582e+06
4.11591e+06
4.116e+06
4.11664e+06
4.11688e+06
4.11843e+06
4.11871e+06
4.12142e+06
4.09932e+06
4.10444e+06
4.10535e+06
4.10899e+06
4.11029e+06
4.11262e+06
4.1137e+06
4.11489e+06
4.11543e+06
4.11579e+06
4.11587e+06
4.11586e+06
4.11579e+06
4.11589e+06
4.11598e+06
4.11662e+06
4.11686e+06
4.11842e+06
4.11871e+06
4.12141e+06
4.09948e+06
4.10458e+06
4.10548e+06
4.10909e+06
4.11038e+06
4.11268e+06
4.11376e+06
4.11493e+06
4.11546e+06
4.11581e+06
4.1159e+06
4.11589e+06
4.11584e+06
4.11593e+06
4.11602e+06
4.11665e+06
4.1169e+06
4.11846e+06
4.11875e+06
4.12147e+06
4.09972e+06
4.10479e+06
4.10569e+06
4.10925e+06
4.11054e+06
4.1128e+06
4.11387e+06
4.11502e+06
4.11554e+06
4.1159e+06
4.11599e+06
4.11599e+06
4.11594e+06
4.11602e+06
4.11611e+06
4.11674e+06
4.117e+06
4.11856e+06
4.11886e+06
4.12157e+06
4.10003e+06
4.10507e+06
4.10597e+06
4.10948e+06
4.11077e+06
4.11298e+06
4.11405e+06
4.11517e+06
4.11569e+06
4.11603e+06
4.11613e+06
4.11613e+06
4.11607e+06
4.11616e+06
4.11625e+06
4.11689e+06
4.11714e+06
4.11871e+06
4.11902e+06
4.12174e+06
4.10043e+06
4.10543e+06
4.10633e+06
4.10979e+06
4.11107e+06
4.11324e+06
4.1143e+06
4.11538e+06
4.1159e+06
4.11622e+06
4.11632e+06
4.1163e+06
4.11623e+06
4.11633e+06
4.11642e+06
4.11708e+06
4.11734e+06
4.11892e+06
4.11924e+06
4.12196e+06
4.10093e+06
4.10588e+06
4.10678e+06
4.11017e+06
4.11146e+06
4.11357e+06
4.11462e+06
4.11567e+06
4.11616e+06
4.11647e+06
4.11656e+06
4.11652e+06
4.11646e+06
4.11657e+06
4.11666e+06
4.11733e+06
4.1176e+06
4.11918e+06
4.11952e+06
4.12224e+06
4.10151e+06
4.10642e+06
4.10732e+06
4.11065e+06
4.11192e+06
4.11398e+06
4.11501e+06
4.11602e+06
4.1165e+06
4.11679e+06
4.11686e+06
4.11681e+06
4.11675e+06
4.11687e+06
4.11695e+06
4.11764e+06
4.11792e+06
4.11952e+06
4.11986e+06
4.12258e+06
4.10221e+06
4.10706e+06
4.10795e+06
4.11122e+06
4.11248e+06
4.11447e+06
4.11548e+06
4.11645e+06
4.11691e+06
4.11717e+06
4.11724e+06
4.11717e+06
4.11712e+06
4.11724e+06
4.11732e+06
4.11803e+06
4.11831e+06
4.11993e+06
4.12026e+06
4.123e+06
4.103e+06
4.1078e+06
4.10868e+06
4.11188e+06
4.11312e+06
4.11506e+06
4.11604e+06
4.11696e+06
4.1174e+06
4.11764e+06
4.11769e+06
4.11761e+06
4.11757e+06
4.11769e+06
4.11777e+06
4.11851e+06
4.11879e+06
4.12041e+06
4.12075e+06
4.12349e+06
4.10391e+06
4.10864e+06
4.10952e+06
4.11264e+06
4.11386e+06
4.11573e+06
4.11668e+06
4.11757e+06
4.11798e+06
4.1182e+06
4.11823e+06
4.11814e+06
4.1181e+06
4.11823e+06
4.1183e+06
4.11907e+06
4.11934e+06
4.12099e+06
4.12132e+06
4.12407e+06
4.10493e+06
4.10959e+06
4.11046e+06
4.1135e+06
4.1147e+06
4.1165e+06
4.11742e+06
4.11826e+06
4.11865e+06
4.11884e+06
4.11886e+06
4.11876e+06
4.11872e+06
4.11886e+06
4.11893e+06
4.11973e+06
4.11999e+06
4.12166e+06
4.12197e+06
4.12473e+06
4.10607e+06
4.11065e+06
4.11151e+06
4.11446e+06
4.11564e+06
4.11737e+06
4.11826e+06
4.11905e+06
4.11941e+06
4.11958e+06
4.11959e+06
4.11948e+06
4.11945e+06
4.11958e+06
4.11966e+06
4.12048e+06
4.12073e+06
4.12241e+06
4.12271e+06
4.12547e+06
4.10733e+06
4.11183e+06
4.11268e+06
4.11553e+06
4.11668e+06
4.11834e+06
4.11919e+06
4.11993e+06
4.12027e+06
4.12043e+06
4.12042e+06
4.1203e+06
4.12028e+06
4.12042e+06
4.1205e+06
4.12133e+06
4.12156e+06
4.12327e+06
4.12355e+06
4.12631e+06
4.10871e+06
4.11313e+06
4.11396e+06
4.11672e+06
4.11784e+06
4.11941e+06
4.12023e+06
4.12093e+06
4.12124e+06
4.12137e+06
4.12136e+06
4.12124e+06
4.12122e+06
4.12136e+06
4.12144e+06
4.12228e+06
4.1225e+06
4.12421e+06
4.12447e+06
4.12724e+06
4.11023e+06
4.11455e+06
4.11536e+06
4.11802e+06
4.1191e+06
4.12059e+06
4.12137e+06
4.12202e+06
4.12231e+06
4.12243e+06
4.1224e+06
4.12228e+06
4.12227e+06
4.1224e+06
4.12249e+06
4.12333e+06
4.12353e+06
4.12526e+06
4.12549e+06
4.12826e+06
4.11188e+06
4.11609e+06
4.11689e+06
4.11944e+06
4.12048e+06
4.12189e+06
4.12262e+06
4.12322e+06
4.12349e+06
4.12359e+06
4.12355e+06
4.12343e+06
4.12342e+06
4.12355e+06
4.12364e+06
4.12448e+06
4.12466e+06
4.12641e+06
4.12661e+06
4.12937e+06
4.11366e+06
4.11777e+06
4.11854e+06
4.12098e+06
4.12197e+06
4.12329e+06
4.12398e+06
4.12453e+06
4.12476e+06
4.12485e+06
4.12481e+06
4.12468e+06
4.12468e+06
4.1248e+06
4.12489e+06
4.12573e+06
4.1259e+06
4.12765e+06
4.12782e+06
4.13058e+06
4.11559e+06
4.11958e+06
4.12033e+06
4.12265e+06
4.12359e+06
4.12482e+06