/*--------------------------------*- C++ -*----------------------------------*\
  =========                 |
  \\      /  F ield         | OpenFOAM: The Open Source CFD Toolbox
   \\    /   O peration     | Website:  https://openfoam.org
    \\  /    A nd           | Version:  8
     \\/     M anipulation  |
\*---------------------------------------------------------------------------*/
FoamFile
{
    version     2.0;
    format      ascii;
    class       volScalarField;
    location    "600";
    object      p_rgh;
}
// * * * * * * * * * * * * * * * * * * * * * * * * * * * * * * * * * * * * * //

dimensions      [1 -1 -2 0 0 0 0];

internalField   nonuniform List<scalar> 
8400
(
29904.6
65695.5
102226
137600
171711
204406
235607
265309
293538
320356
345846
370092
393166
415145
436105
456105
475223
493526
511087
527962
544202
559857
574980
589633
603873
617749
631309
644596
657654
670526
683248
695858
708402
720948
733575
746353
759345
772623
786292
800495
815397
831195
848143
866590
886972
909714
935336
965616
1.00533e+06
1.05775e+06
28158.2
63833.3
100508
136077
170342
203134
234378
264082
292286
319062
344488
368666
391673
413581
434471
454406
473463
491703
509189
525978
542121
557668
572677
587208
601312
615036
628423
641519
654371
667019
679495
691833
704085
716317
728597
740975
753499
766236
779280
792744
806750
821452
837047
853777
871910
891690
913378
937811
967158
1.00327e+06
30305.4
67595.7
105153
141244
175816
208763
240056
269733
297862
324542
349862
373934
396850
418688
439522
459426
478468
496711
514210
531023
547200
562794
577863
592467
606656
620475
633975
647207
660223
673065
685766
698367
710923
723501
736158
748943
761911
775138
788717
802750
817358
832702
848973
866385
885177
905585
927848
952397
979983
1.01061e+06
27376.9
64860.2
102994
139640
174584
207716
239049
268656
296646
323153
348286
372160
394878
416528
437180
456911
475780
493843
511150
527747
543682
559012
573796
588091
601943
615399
628509
641328
653908
666288
678498
690577
702574
714543
726527
738568
750715
763033
775586
788449
801723
815537
830039
845402
861831
879537
898740
919717
942821
968284
30038.8
69964.3
109541
147031
182420
215716
247036
276524
304334
330636
355563
379246
401794
423302
443842
463492
482310
500338
517619
534198
550129
565472
580286
594624
608532
622060
635262
648197
660915
673453
685844
698124
710339
722534
734745
747012
759379
771893
784600
797558
810843
824541
838757
853619
869265
885819
903388
922087
942011
963337
27611.8
68867.7
109583
147819
183561
216916
248097
277340
304851
330828
355434
378810
401070
422304
442594
462002
480583
498375
515414
531742
547411
562480
577011
591051
604646
617847
630714
643306
655668
667838
679847
691734
703541
715303
727054
738830
750670
762608
774682
786942
799444
812257
825474
839209
853570
868656
884533
901204
918608
936946
29847.8
74495.3
116826
155758
191660
224883
255772
284655
311791
337407
361688
384777
406800
427840
447974
467263
485752
503473
520459
536748
552393
567451
581975
596011
609608
622819
635704
648315
660695
672881
684907
696811
708626
720381
732104
743826
755571
767363
779228
791195
803297
815590
828154
841071
854433
868312
882792
897798
913264
929294
29434.3
76661.8
119952
159117
194852
227727
258192
286641
313364
338602
362555
385364
407148
427991
447954
467088
485429
503009
519853
535994
551479
566359
580687
594516
607899
620895
633560
645945
658095
670052
681855
693541
705141
716683
728193
739697
751212
762757
774348
786001
797741
809619
821693
834034
846726
859826
873386
887344
901573
916143
33478.8
83521.4
126756
165546
200739
233041
262969
290938
317251
342144
365814
388416
410051
430793
450695
469801
488143
505740
522605
538758
554238
569095
583388
597172
610504
623444
636050
648373
660459
672351
684089
695707
707232
718691
730106
741496
752877
764258
775648
787054
798503
810031
821689
833571
845742
858291
871215
884503
898015
911774
39088.3
90278.6
131743
170019
204707
236459
265889
293414
319328
343871
367231
389561
410961
431498
451224
470186
488411
505914
522698
538779
554192
568989
583227
596962
610253
623162
635744
648043
660103
671968
683680
695273
706771
718200
729583
740940
752282
763615
774945
786277
797626
809023
820532
832239
844227
856596
869310
882319
895527
908934
34458
89398.4
132459
170845
205608
237365
266768
294243
320092
344560
367849
390113
411458
431950
451632
470543
488712
506156
522887
538919
554283
569031
583226
596928
610196
623087
635653
647938
659986
671843
683550
695141
706641
718076
729469
740839
752197
763549
774900
786253
797621
809037
820563
832284
844294
856684
869468
882572
895911
909430
22983.8
84290.7
130471
169143
204173
236280
265919
293526
319441
343932
367214
389452
410764
431226
450884
469767
487903
505308
522001
537994
553318
568026
582185
595856
609099
621971
634523
646799
658844
670703
682417
694015
705519
716958
728360
739741
751110
762476
773846
785228
796635
808104
819696
831486
843572
856015
868831
881954
895325
908886
17994.3
75334
125635
167031
203652
237313
268374
297100
323824
348858
372457
394840
416189
436634
456250
475071
493101
510336
526780
542459
557418
571727
585469
598725
611573
624084
636317
648320
660134
671796
683337
694784
706163
717499
728810
740111
751412
762729
774081
785492
796987
808607
820401
832434
844768
857440
870445
883740
897270
910930
-4357.64
53112.3
107385
151711
190213
225713
258683
289107
317168
343138
367293
389921
411302
431675
451195
469927
487868
504997
521302
536789
551495
565493
578882
591777
604287
616507
628506
640333
652024
663607
675110
686551
697944
709300
720628
731941
743262
754618
766052
777606
789315
801220
813356
825771
838485
851504
864787
878268
891881
905463
7675.58
56158.7
112105
159993
201206
239159
274575
307191
336968
364054
388692
411200
431955
451335
469637
487043
503641
519464
534520
548814
562378
575288
587661
599635
611345
622895
634351
645751
657122
668476
679813
691120
702375
713560
724673
735730
746765
757829
768993
780327
791893
803738
815893
828378
841169
854209
867380
880529
893513
906050
-42529.9
13474.1
73298.1
123518
167496
208906
248277
285008
318728
349324
376815
401384
423378
443218
461309
477991
493535
508142
521930
534965
547314
559100
570508
581734
592938
604221
615647
627260
639080
651095
663252
675472
687674
699799
711816
723712
735499
747229
758997
770909
783070
795543
808366
821514
834931
848480
861912
874913
887184
898280
5527.87
44040.5
102043
153733
198440
240603
281191
319572
355156
387578
416604
442202
464531
483847
500463
514772
527239
538330
548371
557508
565859
573662
581277
589057
597219
605867
615076
624927
635468
646662
658385
670480
682809
695266
707754
720176
732473
744678
756906
769311
782029
795147
808717
822721
837083
851553
865717
878978
890600
899316
-89505.2
-26975.4
44901.8
104177
155762
204126
250418
294470
335756
373691
407848
438125
464562
487124
505847
521040
533355
543633
552390
559673
565567
570484
575116
580088
585620
591748
598618
606474
615491
625600
636562
648151
660255
672811
685640
698462
711123
723702
736403
749452
762989
777092
791854
807357
823472
839796
855738
870413
882690
891070
-14407.1
15473.5
66653.7
122095
174819
223910
270456
315184
357622
396781
431958
463207
490687
513956
532612
546891
557826
567048
575102
581192
584991
587145
589089
592001
595709
599681
604036
609437
616508
625134
634669
644637
655056
666212
677962
689614
700757
711580
722590
734350
747031
760542
775100
791166
808718
827149
845671
863342
878483
888753
11847.9
39335.9
82838.1
135699
188959
239450
287144
332525
375192
414098
448525
478403
504426
526632
544221
557108
566207
573240
579771
585255
588532
590028
591086
593286
596837
600840
605174
610403
617235
625875
635703
646011
656543
667508
679064
690750
701971
712727
723428
734686
747080
760679
775456
791746
809688
828684
847626
865522
881298
891690
4.21174e+06
4.21122e+06
4.21097e+06
4.21087e+06
4.21082e+06
4.21078e+06
4.21075e+06
4.21074e+06
4.21072e+06
4.21071e+06
4.21071e+06
4.2107e+06
4.21069e+06
4.21069e+06
4.21069e+06
4.21068e+06
4.21068e+06
4.21068e+06
4.21068e+06
4.21068e+06
4.21067e+06
4.21067e+06
4.21067e+06
4.21067e+06
4.21067e+06
4.21067e+06
4.21067e+06
4.21067e+06
4.21067e+06
4.21067e+06
4.21066e+06
4.21066e+06
4.21066e+06
4.21065e+06
4.21065e+06
4.21064e+06
4.21063e+06
4.21062e+06
4.21061e+06
4.2106e+06
4.21058e+06
4.21057e+06
4.21055e+06
4.21052e+06
4.21049e+06
4.21045e+06
4.21041e+06
4.21035e+06
4.21028e+06
4.21017e+06
4.21014e+06
4.21042e+06
4.21052e+06
4.21055e+06
4.21058e+06
4.2106e+06
4.21061e+06
4.21062e+06
4.21063e+06
4.21063e+06
4.21064e+06
4.21064e+06
4.21064e+06
4.21064e+06
4.21064e+06
4.21064e+06
4.21065e+06
4.21065e+06
4.21065e+06
4.21065e+06
4.21065e+06
4.21065e+06
4.21065e+06
4.21066e+06
4.21066e+06
4.21066e+06
4.21066e+06
4.21066e+06
4.21066e+06
4.21065e+06
4.21065e+06
4.21065e+06
4.21065e+06
4.21064e+06
4.21064e+06
4.21063e+06
4.21062e+06
4.21061e+06
4.2106e+06
4.21059e+06
4.21058e+06
4.21056e+06
4.21054e+06
4.21052e+06
4.21049e+06
4.21046e+06
4.21041e+06
4.21036e+06
4.2103e+06
4.21022e+06
4.21059e+06
4.21073e+06
4.2108e+06
4.21081e+06
4.2108e+06
4.21079e+06
4.21077e+06
4.21076e+06
4.21075e+06
4.21074e+06
4.21073e+06
4.21072e+06
4.21072e+06
4.21071e+06
4.2107e+06
4.2107e+06
4.2107e+06
4.21069e+06
4.21069e+06
4.21069e+06
4.21069e+06
4.21069e+06
4.21068e+06
4.21068e+06
4.21068e+06
4.21068e+06
4.21068e+06
4.21068e+06
4.21068e+06
4.21067e+06
4.21067e+06
4.21067e+06
4.21066e+06
4.21066e+06
4.21065e+06
4.21065e+06
4.21064e+06
4.21063e+06
4.21062e+06
4.21061e+06
4.2106e+06
4.21058e+06
4.21056e+06
4.21054e+06
4.21052e+06
4.21048e+06
4.21045e+06
4.2104e+06
4.21035e+06
4.21028e+06
4.21062e+06
4.21064e+06
4.21065e+06
4.21065e+06
4.21064e+06
4.21064e+06
4.21064e+06
4.21063e+06
4.21063e+06
4.21063e+06
4.21064e+06
4.21064e+06
4.21064e+06
4.21064e+06
4.21064e+06
4.21064e+06
4.21064e+06
4.21064e+06
4.21064e+06
4.21064e+06
4.21065e+06
4.21065e+06
4.21065e+06
4.21065e+06
4.21065e+06
4.21065e+06
4.21065e+06
4.21065e+06
4.21065e+06
4.21065e+06
4.21065e+06
4.21065e+06
4.21065e+06
4.21064e+06
4.21064e+06
4.21063e+06
4.21063e+06
4.21062e+06
4.21061e+06
4.2106e+06
4.21059e+06
4.21058e+06
4.21056e+06
4.21055e+06
4.21052e+06
4.2105e+06
4.21047e+06
4.21043e+06
4.21039e+06
4.21034e+06
4.21065e+06
4.21066e+06
4.21068e+06
4.2107e+06
4.21071e+06
4.21071e+06
4.21071e+06
4.21071e+06
4.21071e+06
4.21071e+06
4.21071e+06
4.21071e+06
4.2107e+06
4.2107e+06
4.2107e+06
4.21069e+06
4.21069e+06
4.21069e+06
4.21069e+06
4.21069e+06
4.21069e+06
4.21069e+06
4.21069e+06
4.21069e+06
4.21069e+06
4.21069e+06
4.21068e+06
4.21068e+06
4.21068e+06
4.21068e+06
4.21068e+06
4.21067e+06
4.21067e+06
4.21067e+06
4.21066e+06
4.21066e+06
4.21065e+06
4.21064e+06
4.21064e+06
4.21063e+06
4.21062e+06
4.21061e+06
4.2106e+06
4.21058e+06
4.21056e+06
4.21054e+06
4.21052e+06
4.21049e+06
4.21045e+06
4.21042e+06
4.21066e+06
4.21067e+06
4.21067e+06
4.21068e+06
4.21068e+06
4.21067e+06
4.21067e+06
4.21067e+06
4.21066e+06
4.21066e+06
4.21066e+06
4.21066e+06
4.21065e+06
4.21065e+06
4.21065e+06
4.21065e+06
4.21065e+06
4.21065e+06
4.21065e+06
4.21065e+06
4.21065e+06
4.21065e+06
4.21066e+06
4.21066e+06
4.21066e+06
4.21066e+06
4.21066e+06
4.21066e+06
4.21066e+06
4.21066e+06
4.21066e+06
4.21065e+06
4.21065e+06
4.21065e+06
4.21065e+06
4.21064e+06
4.21064e+06
4.21064e+06
4.21063e+06
4.21063e+06
4.21062e+06
4.21061e+06
4.2106e+06
4.21059e+06
4.21058e+06
4.21056e+06
4.21054e+06
4.21052e+06
4.2105e+06
4.21048e+06
4.21067e+06
4.21067e+06
4.21068e+06
4.21068e+06
4.21068e+06
4.21068e+06
4.21069e+06
4.21069e+06
4.21069e+06
4.21069e+06
4.21069e+06
4.21069e+06
4.21068e+06
4.21068e+06
4.21068e+06
4.21068e+06
4.21068e+06
4.21068e+06
4.21068e+06
4.21068e+06
4.21068e+06
4.21068e+06
4.21068e+06
4.21068e+06
4.21068e+06
4.21068e+06
4.21068e+06
4.21068e+06
4.21068e+06
4.21068e+06
4.21068e+06
4.21068e+06
4.21067e+06
4.21067e+06
4.21067e+06
4.21067e+06
4.21066e+06
4.21066e+06
4.21066e+06
4.21065e+06
4.21065e+06
4.21064e+06
4.21064e+06
4.21063e+06
4.21062e+06
4.21061e+06
4.2106e+06
4.21058e+06
4.21057e+06
4.21055e+06
4.21067e+06
4.21067e+06
4.21068e+06
4.21068e+06
4.21068e+06
4.21068e+06
4.21068e+06
4.21068e+06
4.21067e+06
4.21067e+06
4.21067e+06
4.21067e+06
4.21067e+06
4.21067e+06
4.21066e+06
4.21066e+06
4.21066e+06
4.21066e+06
4.21066e+06
4.21066e+06
4.21066e+06
4.21066e+06
4.21067e+06
4.21067e+06
4.21067e+06
4.21067e+06
4.21067e+06
4.21067e+06
4.21067e+06
4.21067e+06
4.21067e+06
4.21066e+06
4.21066e+06
4.21066e+06
4.21066e+06
4.21066e+06
4.21066e+06
4.21066e+06
4.21066e+06
4.21066e+06
4.21066e+06
4.21066e+06
4.21065e+06
4.21065e+06
4.21065e+06
4.21064e+06
4.21064e+06
4.21063e+06
4.21062e+06
4.21061e+06
4.21067e+06
4.21067e+06
4.21068e+06
4.21068e+06
4.21068e+06
4.21068e+06
4.21068e+06
4.21068e+06
4.21068e+06
4.21068e+06
4.21068e+06
4.21068e+06
4.21068e+06
4.21068e+06
4.21067e+06
4.21067e+06
4.21068e+06
4.21068e+06
4.21068e+06
4.21068e+06
4.21068e+06
4.21068e+06
4.21068e+06
4.21068e+06
4.21068e+06
4.21068e+06
4.21068e+06
4.21068e+06
4.21068e+06
4.21068e+06
4.21068e+06
4.21068e+06
4.21068e+06
4.21068e+06
4.21068e+06
4.21068e+06
4.21068e+06
4.21068e+06
4.21068e+06
4.21068e+06
4.21068e+06
4.21069e+06
4.21069e+06
4.21069e+06
4.21069e+06
4.21069e+06
4.21069e+06
4.21069e+06
4.21069e+06
4.21069e+06
4.21067e+06
4.21067e+06
4.21068e+06
4.21068e+06
4.21068e+06
4.21068e+06
4.21068e+06
4.21068e+06
4.21068e+06
4.21068e+06
4.21067e+06
4.21067e+06
4.21067e+06
4.21067e+06
4.21067e+06
4.21067e+06
4.21067e+06
4.21067e+06
4.21067e+06
4.21067e+06
4.21067e+06
4.21067e+06
4.21068e+06
4.21068e+06
4.21068e+06
4.21068e+06
4.21068e+06
4.21068e+06
4.21068e+06
4.21068e+06
4.21068e+06
4.21068e+06
4.21068e+06
4.21068e+06
4.21068e+06
4.21068e+06
4.21068e+06
4.21069e+06
4.21069e+06
4.2107e+06
4.2107e+06
4.2107e+06
4.21071e+06
4.21071e+06
4.21072e+06
4.21072e+06
4.21073e+06
4.21074e+06
4.21074e+06
4.21075e+06
4.21067e+06
4.21067e+06
4.21068e+06
4.21068e+06
4.21068e+06
4.21068e+06
4.21068e+06
4.21068e+06
4.21068e+06
4.21068e+06
4.21067e+06
4.21067e+06
4.21067e+06
4.21067e+06
4.21067e+06
4.21067e+06
4.21067e+06
4.21067e+06
4.21067e+06
4.21067e+06
4.21068e+06
4.21068e+06
4.21068e+06
4.21068e+06
4.21068e+06
4.21068e+06
4.21068e+06
4.21068e+06
4.21068e+06
4.21068e+06
4.21068e+06
4.21068e+06
4.21068e+06
4.21069e+06
4.21069e+06
4.21069e+06
4.2107e+06
4.2107e+06
4.21071e+06
4.21071e+06
4.21072e+06
4.21073e+06
4.21074e+06
4.21074e+06
4.21075e+06
4.21076e+06
4.21078e+06
4.21079e+06
4.2108e+06
4.21082e+06
4.21067e+06
4.21067e+06
4.21068e+06
4.21068e+06
4.21068e+06
4.21068e+06
4.21068e+06
4.21068e+06
4.21068e+06
4.21068e+06
4.21068e+06
4.21068e+06
4.21068e+06
4.21068e+06
4.21068e+06
4.21068e+06
4.21068e+06
4.21068e+06
4.21068e+06
4.21068e+06
4.21068e+06
4.21068e+06
4.21068e+06
4.21069e+06
4.21069e+06
4.21069e+06
4.21069e+06
4.21069e+06
4.21069e+06
4.21069e+06
4.21069e+06
4.21069e+06
4.21069e+06
4.2107e+06
4.2107e+06
4.2107e+06
4.21071e+06
4.21072e+06
4.21072e+06
4.21073e+06
4.21074e+06
4.21075e+06
4.21076e+06
4.21078e+06
4.21079e+06
4.21081e+06
4.21082e+06
4.21084e+06
4.21086e+06
4.21088e+06
4.21067e+06
4.21067e+06
4.21068e+06
4.21068e+06
4.21068e+06
4.21068e+06
4.21068e+06
4.21068e+06
4.21067e+06
4.21067e+06
4.21067e+06
4.21067e+06
4.21067e+06
4.21067e+06
4.21067e+06
4.21067e+06
4.21067e+06
4.21067e+06
4.21067e+06
4.21067e+06
4.21067e+06
4.21067e+06
4.21067e+06
4.21067e+06
4.21067e+06
4.21068e+06
4.21068e+06
4.21068e+06
4.21068e+06
4.21068e+06
4.21068e+06
4.21068e+06
4.21069e+06
4.21069e+06
4.2107e+06
4.2107e+06
4.21071e+06
4.21072e+06
4.21073e+06
4.21074e+06
4.21075e+06
4.21077e+06
4.21078e+06
4.2108e+06
4.21082e+06
4.21084e+06
4.21086e+06
4.21089e+06
4.21091e+06
4.21094e+06
4.21067e+06
4.21067e+06
4.21068e+06
4.21068e+06
4.21068e+06
4.21068e+06
4.21069e+06
4.21069e+06
4.21069e+06
4.21069e+06
4.21069e+06
4.21069e+06
4.21069e+06
4.21069e+06
4.21069e+06
4.21069e+06
4.21069e+06
4.21069e+06
4.21069e+06
4.21069e+06
4.21069e+06
4.21069e+06
4.21069e+06
4.21069e+06
4.2107e+06
4.2107e+06
4.2107e+06
4.2107e+06
4.2107e+06
4.2107e+06
4.2107e+06
4.2107e+06
4.21071e+06
4.21071e+06
4.21072e+06
4.21072e+06
4.21073e+06
4.21074e+06
4.21075e+06
4.21077e+06
4.21078e+06
4.2108e+06
4.21082e+06
4.21084e+06
4.21086e+06
4.21088e+06
4.21091e+06
4.21094e+06
4.21098e+06
4.21101e+06
4.21066e+06
4.21067e+06
4.21067e+06
4.21068e+06
4.21068e+06
4.21067e+06
4.21067e+06
4.21067e+06
4.21066e+06
4.21066e+06
4.21066e+06
4.21066e+06
4.21066e+06
4.21066e+06
4.21066e+06
4.21066e+06
4.21066e+06
4.21066e+06
4.21066e+06
4.21066e+06
4.21067e+06
4.21067e+06
4.21067e+06
4.21067e+06
4.21067e+06
4.21067e+06
4.21067e+06
4.21068e+06
4.21068e+06
4.21068e+06
4.21068e+06
4.21069e+06
4.21069e+06
4.2107e+06
4.21071e+06
4.21071e+06
4.21073e+06
4.21074e+06
4.21075e+06
4.21077e+06
4.21078e+06
4.2108e+06
4.21083e+06
4.21085e+06
4.21088e+06
4.21091e+06
4.21094e+06
4.21098e+06
4.21102e+06
4.21106e+06
4.21065e+06
4.21066e+06
4.21068e+06
4.2107e+06
4.21071e+06
4.21071e+06
4.21071e+06
4.21071e+06
4.21071e+06
4.21071e+06
4.21071e+06
4.21071e+06
4.21071e+06
4.2107e+06
4.2107e+06
4.2107e+06
4.2107e+06
4.2107e+06
4.2107e+06
4.2107e+06
4.2107e+06
4.2107e+06
4.2107e+06
4.2107e+06
4.2107e+06
4.2107e+06
4.2107e+06
4.2107e+06
4.2107e+06
4.2107e+06
4.21071e+06
4.21071e+06
4.21072e+06
4.21072e+06
4.21073e+06
4.21074e+06
4.21075e+06
4.21076e+06
4.21078e+06
4.21079e+06
4.21081e+06
4.21083e+06
4.21086e+06
4.21088e+06
4.21092e+06
4.21095e+06
4.21099e+06
4.21103e+06
4.21108e+06
4.21113e+06
4.21062e+06
4.21064e+06
4.21065e+06
4.21065e+06
4.21064e+06
4.21064e+06
4.21064e+06
4.21064e+06
4.21063e+06
4.21064e+06
4.21064e+06
4.21064e+06
4.21064e+06
4.21064e+06
4.21064e+06
4.21065e+06
4.21065e+06
4.21065e+06
4.21066e+06
4.21066e+06
4.21066e+06
4.21067e+06
4.21067e+06
4.21067e+06
4.21067e+06
4.21067e+06
4.21067e+06
4.21068e+06
4.21068e+06
4.21068e+06
4.21069e+06
4.21069e+06
4.2107e+06
4.21071e+06
4.21071e+06
4.21073e+06
4.21074e+06
4.21075e+06
4.21077e+06
4.21079e+06
4.21081e+06
4.21083e+06
4.21086e+06
4.21089e+06
4.21093e+06
4.21097e+06
4.21101e+06
4.21106e+06
4.21111e+06
4.21117e+06
4.2106e+06
4.21073e+06
4.2108e+06
4.21081e+06
4.2108e+06
4.21079e+06
4.21078e+06
4.21076e+06
4.21075e+06
4.21074e+06
4.21073e+06
4.21072e+06
4.21072e+06
4.21071e+06
4.21071e+06
4.21071e+06
4.21071e+06
4.21071e+06
4.21071e+06
4.2107e+06
4.2107e+06
4.2107e+06
4.2107e+06
4.2107e+06
4.2107e+06
4.2107e+06
4.2107e+06
4.2107e+06
4.2107e+06
4.21071e+06
4.21071e+06
4.21071e+06
4.21072e+06
4.21073e+06
4.21074e+06
4.21075e+06
4.21076e+06
4.21077e+06
4.21079e+06
4.21081e+06
4.21083e+06
4.21086e+06
4.21089e+06
4.21092e+06
4.21096e+06
4.211e+06
4.21105e+06
4.2111e+06
4.21116e+06
4.21123e+06
4.21014e+06
4.21042e+06
4.21052e+06
4.21055e+06
4.21058e+06
4.2106e+06
4.21061e+06
4.21062e+06
4.21063e+06
4.21063e+06
4.21064e+06
4.21064e+06
4.21064e+06
4.21065e+06
4.21065e+06
4.21065e+06
4.21066e+06
4.21066e+06
4.21066e+06
4.21067e+06
4.21067e+06
4.21067e+06
4.21067e+06
4.21068e+06
4.21068e+06
4.21068e+06
4.21068e+06
4.21068e+06
4.21068e+06
4.21069e+06
4.21069e+06
4.2107e+06
4.21071e+06
4.21071e+06
4.21072e+06
4.21074e+06
4.21075e+06
4.21076e+06
4.21078e+06
4.2108e+06
4.21083e+06
4.21085e+06
4.21088e+06
4.21092e+06
4.21096e+06
4.211e+06
4.21106e+06
4.21112e+06
4.21119e+06
4.21127e+06
4.21174e+06
4.21122e+06
4.21097e+06
4.21087e+06
4.21082e+06
4.21078e+06
4.21076e+06
4.21074e+06
4.21072e+06
4.21071e+06
4.21071e+06
4.2107e+06
4.2107e+06
4.21069e+06
4.21069e+06
4.21069e+06
4.21069e+06
4.21069e+06
4.21069e+06
4.21069e+06
4.21069e+06
4.21069e+06
4.21069e+06
4.21069e+06
4.21069e+06
4.2107e+06
4.2107e+06
4.2107e+06
4.2107e+06
4.2107e+06
4.21071e+06
4.21071e+06
4.21072e+06
4.21073e+06
4.21074e+06
4.21075e+06
4.21076e+06
4.21078e+06
4.21079e+06
4.21081e+06
4.21084e+06
4.21086e+06
4.2109e+06
4.21093e+06
4.21097e+06
4.21102e+06
4.21107e+06
4.21114e+06
4.21121e+06
4.21131e+06
4.10695e+06
4.11218e+06
4.11269e+06
4.11668e+06
4.11758e+06
4.12017e+06
4.12102e+06
4.12237e+06
4.12285e+06
4.12332e+06
4.12345e+06
4.1235e+06
4.1235e+06
4.12357e+06
4.1237e+06
4.1242e+06
4.12442e+06
4.12563e+06
4.12579e+06
4.12789e+06
4.10581e+06
4.11105e+06
4.11158e+06
4.11557e+06
4.11648e+06
4.11909e+06
4.11994e+06
4.1213e+06
4.12178e+06
4.12225e+06
4.12237e+06
4.12242e+06
4.12243e+06
4.1225e+06
4.12264e+06
4.12315e+06
4.12337e+06
4.1246e+06
4.1248e+06
4.12699e+06
4.1047e+06
4.10995e+06
4.11049e+06
4.1145e+06
4.11543e+06
4.11805e+06
4.1189e+06
4.12027e+06
4.12074e+06
4.12122e+06
4.12134e+06
4.12139e+06
4.12139e+06
4.12146e+06
4.1216e+06
4.12211e+06
4.12235e+06
4.12362e+06
4.12385e+06
4.12613e+06
4.10362e+06
4.10889e+06
4.10945e+06
4.11347e+06
4.11441e+06
4.11704e+06
4.1179e+06
4.11928e+06
4.11975e+06
4.12023e+06
4.12035e+06
4.12039e+06
4.12039e+06
4.12046e+06
4.12059e+06
4.12111e+06
4.12136e+06
4.12266e+06
4.12292e+06
4.12525e+06
4.10258e+06
4.10787e+06
4.10846e+06
4.11249e+06
4.11344e+06
4.11608e+06
4.11694e+06
4.11833e+06
4.1188e+06
4.11929e+06
4.1194e+06
4.11944e+06
4.11944e+06
4.11951e+06
4.11964e+06
4.12017e+06
4.12043e+06
4.12175e+06
4.12201e+06
4.12438e+06
4.10159e+06
4.1069e+06
4.10751e+06
4.11154e+06
4.11251e+06
4.11517e+06
4.11603e+06
4.11743e+06
4.1179e+06
4.11839e+06
4.11849e+06
4.11854e+06
4.11853e+06
4.1186e+06
4.11874e+06
4.11928e+06
4.11954e+06
4.12088e+06
4.12114e+06
4.12355e+06
4.10065e+06
4.10597e+06
4.10661e+06
4.11064e+06
4.11163e+06
4.11429e+06
4.11517e+06
4.11657e+06
4.11703e+06
4.11753e+06
4.11763e+06
4.11768e+06
4.11767e+06
4.11774e+06
4.11788e+06
4.11843e+06
4.11869e+06
4.12006e+06
4.12032e+06
4.12275e+06
4.09976e+06
4.10509e+06
4.10575e+06
4.10978e+06
4.11079e+06
4.11345e+06
4.11434e+06
4.11575e+06
4.11622e+06
4.11671e+06
4.11681e+06
4.11686e+06
4.11685e+06
4.11693e+06
4.11706e+06
4.11762e+06
4.11789e+06
4.11927e+06
4.11953e+06
4.12199e+06
4.0989e+06
4.10424e+06
4.10493e+06
4.10896e+06
4.10999e+06
4.11266e+06
4.11355e+06
4.11496e+06
4.11544e+06
4.11594e+06
4.11604e+06
4.11609e+06
4.11608e+06
4.11615e+06
4.11628e+06
4.11685e+06
4.11712e+06
4.11851e+06
4.11878e+06
4.12126e+06
4.09809e+06
4.10344e+06
4.10414e+06
4.10817e+06
4.10922e+06
4.11189e+06
4.1128e+06
4.11422e+06
4.1147e+06
4.1152e+06
4.1153e+06
4.11535e+06
4.11534e+06
4.11541e+06
4.11554e+06
4.11611e+06
4.11638e+06
4.11779e+06
4.11806e+06
4.12056e+06
4.09731e+06
4.10266e+06
4.10339e+06
4.10742e+06
4.10849e+06
4.11117e+06
4.11209e+06
4.11351e+06
4.114e+06
4.1145e+06
4.1146e+06
4.11466e+06
4.11464e+06
4.11471e+06
4.11484e+06
4.11541e+06
4.11567e+06
4.1171e+06
4.11737e+06
4.11989e+06
4.09657e+06
4.10192e+06
4.10268e+06
4.1067e+06
4.1078e+06
4.11047e+06
4.11141e+06
4.11284e+06
4.11333e+06
4.11384e+06
4.11394e+06
4.11399e+06
4.11398e+06
4.11405e+06
4.11417e+06
4.11474e+06
4.115e+06
4.11644e+06
4.1167e+06
4.11925e+06
4.09586e+06
4.10122e+06
4.102e+06
4.10601e+06
4.10714e+06
4.10981e+06
4.11077e+06
4.11219e+06
4.1127e+06
4.1132e+06
4.11331e+06
4.11336e+06
4.11334e+06
4.11342e+06
4.11353e+06
4.11411e+06
4.11436e+06
4.11581e+06
4.11607e+06
4.11863e+06
4.0952e+06
4.10055e+06
4.10135e+06
4.10536e+06
4.10651e+06
4.10918e+06
4.11015e+06
4.11158e+06
4.11209e+06
4.1126e+06
4.11271e+06
4.11276e+06
4.11274e+06
4.11281e+06
4.11292e+06
4.1135e+06
4.11375e+06
4.11521e+06
4.11547e+06
4.11805e+06
4.09457e+06
4.09992e+06
4.10074e+06
4.10475e+06
4.10591e+06
4.10858e+06
4.10958e+06
4.111e+06
4.11152e+06
4.11203e+06
4.11214e+06
4.11219e+06
4.11217e+06
4.11224e+06
4.11234e+06
4.11293e+06
4.11317e+06
4.11463e+06
4.1149e+06
4.11749e+06
4.09398e+06
4.09933e+06
4.10017e+06
4.10416e+06
4.10535e+06
4.10802e+06
4.10903e+06
4.11045e+06
4.11098e+06
4.11149e+06
4.1116e+06
4.11165e+06
4.11162e+06
4.1117e+06
4.11179e+06
4.11238e+06
4.11262e+06
4.1141e+06
4.11436e+06
4.11697e+06
4.09343e+06
4.09878e+06
4.09964e+06
4.10362e+06
4.10483e+06
4.10749e+06
4.10851e+06
4.10994e+06
4.11047e+06
4.11097e+06
4.11108e+06
4.11113e+06
4.11111e+06
4.11118e+06
4.11128e+06
4.11187e+06
4.11211e+06
4.11359e+06
4.11385e+06
4.11648e+06
4.09293e+06
4.09827e+06
4.09914e+06
4.10312e+06
4.10435e+06
4.10699e+06
4.10804e+06
4.10945e+06
4.10999e+06
4.11049e+06
4.1106e+06
4.11065e+06
4.11062e+06
4.1107e+06
4.11079e+06
4.11138e+06
4.11162e+06
4.11312e+06
4.11338e+06
4.11603e+06
4.09247e+06
4.0978e+06
4.0987e+06
4.10266e+06
4.1039e+06
4.10654e+06
4.1076e+06
4.109e+06
4.10955e+06
4.11004e+06
4.11015e+06
4.1102e+06
4.11017e+06
4.11024e+06
4.11034e+06
4.11094e+06
4.11117e+06
4.11268e+06
4.11295e+06
4.11561e+06
4.09206e+06
4.09739e+06
4.09829e+06
4.10224e+06
4.10351e+06
4.10612e+06
4.10719e+06
4.10859e+06
4.10914e+06
4.10962e+06
4.10973e+06
4.10978e+06
4.10975e+06
4.10982e+06
4.10991e+06
4.11052e+06
4.11076e+06
4.11227e+06
4.11255e+06
4.11523e+06
4.09171e+06
4.09702e+06
4.09794e+06
4.10187e+06
4.10315e+06
4.10575e+06
4.10683e+06
4.10821e+06
4.10876e+06
4.10924e+06
4.10935e+06
4.10939e+06
4.10936e+06
4.10944e+06
4.10953e+06
4.11014e+06
4.11038e+06
4.11191e+06
4.11219e+06
4.11488e+06
4.0914e+06
4.09671e+06
4.09764e+06
4.10155e+06
4.10285e+06
4.10542e+06
4.10651e+06
4.10787e+06
4.10843e+06
4.1089e+06
4.109e+06
4.10904e+06
4.10901e+06
4.10909e+06
4.10918e+06
4.1098e+06
4.11004e+06
4.11158e+06
4.11187e+06
4.11457e+06
4.09116e+06
4.09646e+06
4.0974e+06
4.10128e+06
4.10259e+06
4.10514e+06
4.10624e+06
4.10758e+06
4.10813e+06
4.10859e+06
4.10869e+06
4.10873e+06
4.10869e+06
4.10878e+06
4.10887e+06
4.1095e+06
4.10974e+06
4.1113e+06
4.11159e+06
4.11431e+06
4.09097e+06
4.09626e+06
4.0972e+06
4.10106e+06
4.10238e+06
4.1049e+06
4.106e+06
4.10732e+06
4.10788e+06
4.10832e+06
4.10842e+06
4.10845e+06
4.10842e+06
4.1085e+06
4.1086e+06
4.10924e+06
4.10949e+06
4.11105e+06
4.11135e+06
4.11408e+06
4.09084e+06
4.09612e+06
4.09706e+06
4.10089e+06
4.10221e+06
4.1047e+06
4.10582e+06
4.10711e+06
4.10767e+06
4.1081e+06
4.1082e+06
4.10822e+06
4.10819e+06
4.10828e+06
4.10838e+06
4.10902e+06
4.10928e+06
4.11086e+06
4.11116e+06
4.1139e+06
4.09077e+06
4.09603e+06
4.09697e+06
4.10077e+06
4.10209e+06
4.10456e+06
4.10567e+06
4.10695e+06
4.10751e+06
4.10793e+06
4.10802e+06
4.10804e+06
4.108e+06
4.1081e+06
4.1082e+06
4.10886e+06
4.10912e+06
4.11071e+06
4.11102e+06
4.11377e+06
4.09076e+06
4.096e+06
4.09694e+06
4.1007e+06
4.10203e+06
4.10446e+06
4.10557e+06
4.10683e+06
4.1074e+06
4.1078e+06
4.1079e+06
4.10791e+06
4.10787e+06
4.10797e+06
4.10808e+06
4.10874e+06
4.10901e+06
4.11061e+06
4.11092e+06
4.11369e+06
4.09081e+06
4.09603e+06
4.09697e+06
4.1007e+06
4.10203e+06
4.10442e+06
4.10553e+06
4.10676e+06
4.10733e+06
4.10773e+06
4.10783e+06
4.10784e+06
4.1078e+06
4.1079e+06
4.10802e+06
4.10868e+06
4.10896e+06
4.11056e+06
4.11089e+06
4.11366e+06
4.09094e+06
4.09613e+06
4.09707e+06
4.10075e+06
4.10208e+06
4.10444e+06
4.10555e+06
4.10676e+06
4.10732e+06
4.10771e+06
4.10782e+06
4.10783e+06
4.1078e+06
4.1079e+06
4.10801e+06
4.10868e+06
4.10896e+06
4.11057e+06
4.1109e+06
4.11368e+06
4.09113e+06
4.09629e+06
4.09723e+06
4.10087e+06
4.10221e+06
4.10452e+06
4.10563e+06
4.10681e+06
4.10737e+06
4.10775e+06
4.10787e+06
4.10789e+06
4.10786e+06
4.10796e+06
4.10807e+06
4.10874e+06
4.10903e+06
4.11064e+06
4.11098e+06
4.11376e+06
4.09141e+06
4.09654e+06
4.09748e+06
4.10107e+06
4.1024e+06
4.10467e+06
4.10577e+06
4.10693e+06
4.10748e+06
4.10786e+06
4.10797e+06
4.10799e+06
4.10796e+06
4.10806e+06
4.10817e+06
4.10886e+06
4.10915e+06
4.11077e+06
4.11112e+06
4.11391e+06
4.09177e+06
4.09686e+06
4.09781e+06
4.10135e+06
4.10267e+06
4.1049e+06
4.10599e+06
4.10711e+06
4.10766e+06
4.10801e+06
4.10813e+06
4.10813e+06
4.10809e+06
4.1082e+06
4.10833e+06
4.10903e+06
4.10933e+06
4.11096e+06
4.11132e+06
4.11411e+06
4.09223e+06
4.09728e+06
4.09822e+06
4.1017e+06
4.10303e+06
4.1052e+06
4.10628e+06
4.10737e+06
4.1079e+06
4.10824e+06
4.10834e+06
4.10833e+06
4.10829e+06
4.10842e+06
4.10855e+06
4.10927e+06
4.10958e+06
4.11122e+06
4.11159e+06
4.11439e+06
4.09279e+06
4.09779e+06
4.09873e+06
4.10215e+06
4.10347e+06
4.10559e+06
4.10665e+06
4.1077e+06
4.10822e+06
4.10854e+06
4.10863e+06
4.10861e+06
4.10858e+06
4.10871e+06
4.10884e+06
4.10958e+06
4.1099e+06
4.11155e+06
4.11194e+06
4.11473e+06
4.09345e+06
4.0984e+06
4.09934e+06
4.1027e+06
4.104e+06
4.10607e+06
4.10711e+06
4.10813e+06
4.10862e+06
4.10893e+06
4.10901e+06
4.10897e+06
4.10895e+06
4.1091e+06
4.10922e+06
4.10998e+06
4.1103e+06
4.11197e+06
4.11235e+06
4.11516e+06
4.09422e+06
4.09912e+06
4.10006e+06
4.10334e+06
4.10464e+06
4.10664e+06
4.10766e+06
4.10864e+06
4.10912e+06
4.1094e+06
4.10948e+06
4.10943e+06
4.10942e+06
4.10957e+06
4.10969e+06
4.11047e+06
4.11079e+06
4.11247e+06
4.11285e+06
4.11566e+06
4.09512e+06
4.09995e+06
4.10088e+06
4.1041e+06
4.10537e+06
4.10731e+06
4.10831e+06
4.10925e+06
4.10971e+06
4.10998e+06
4.11005e+06
4.10999e+06
4.10998e+06
4.11014e+06
4.11025e+06
4.11105e+06
4.11137e+06
4.11306e+06
4.11344e+06
4.11626e+06
4.09613e+06
4.1009e+06
4.10182e+06
4.10496e+06
4.10621e+06
4.10809e+06
4.10906e+06
4.10996e+06
4.1104e+06
4.11065e+06
4.11071e+06
4.11064e+06
4.11064e+06
4.1108e+06
4.11091e+06
4.11174e+06
4.11204e+06
4.11376e+06
4.11412e+06
4.11695e+06
4.09727e+06
4.10197e+06
4.10288e+06
4.10593e+06
4.10717e+06
4.10897e+06
4.10992e+06
4.11078e+06
4.1112e+06
4.11143e+06
4.11148e+06
4.1114e+06
4.11141e+06
4.11157e+06
4.11168e+06
4.11253e+06
4.11282e+06
4.11455e+06
4.1149e+06
4.11774e+06
4.09855e+06
4.10317e+06
4.10407e+06
4.10703e+06
4.10824e+06
4.10997e+06
4.11089e+06
4.1117e+06
4.1121e+06
4.11231e+06
4.11235e+06
4.11227e+06
4.11228e+06
4.11245e+06
4.11256e+06
4.11342e+06
4.1137e+06
4.11545e+06
4.11579e+06
4.11863e+06
4.09996e+06
4.10449e+06
4.10538e+06
4.10825e+06
4.10943e+06
4.11109e+06
4.11197e+06
4.11274e+06
4.11311e+06
4.1133e+06
4.11334e+06
4.11325e+06
4.11327e+06
4.11344e+06
4.11355e+06
4.11443e+06
4.11469e+06
4.11646e+06
4.11677e+06
4.11962e+06
4.10151e+06
4.10595e+06
4.10683e+06
4.1096e+06
4.11075e+06
4.11233e+06
4.11317e+06
4.11389e+06
4.11424e+06
4.11441e+06
4.11444e+06
4.11435e+06
4.11438e+06
4.11454e+06
4.11466e+06
4.11554e+06
4.1158e+06
4.11758e+06
4.11787e+06
4.12071e+06
4.10322e+06
4.10756e+06
4.10842e+06
4.11108e+06
4.11219e+06
4.11369e+06
4.11449e+06
4.11516e+06
4.11549e+06
4.11564e+06
4.11565e+06
4.11556e+06
4.1156e+06
4.11576e+06
4.11588e+06
4.11677e+06
4.11701e+06
4.11881e+06
4.11907e+06
4.12192e+06
4.10508e+06
4.10931e+06
4.11015e+06
4.11271e+06
4.11377e+06
4.11518e+06
4.11593e+06
4.11655e+06
4.11685e+06
4.11698e+06
4.11698e+06