/*--------------------------------*- C++ -*----------------------------------*\
  =========                 |
  \\      /  F ield         | OpenFOAM: The Open Source CFD Toolbox
   \\    /   O peration     | Website:  https://openfoam.org
    \\  /    A nd           | Version:  8
     \\/     M anipulation  |
\*---------------------------------------------------------------------------*/
FoamFile
{
    version     2.0;
    format      ascii;
    class       volScalarField;
    location    "600";
    object      T;
}
// * * * * * * * * * * * * * * * * * * * * * * * * * * * * * * * * * * * * * //

dimensions      [0 0 0 1 0 0 0];

internalField   nonuniform List<scalar> 
8400
(
301.836
301.832
301.836
301.838
301.841
301.844
301.847
301.85
301.853
301.856
301.859
301.862
301.865
301.868
301.871
301.873
301.876
301.878
301.879
301.881
301.882
301.883
301.883
301.884
301.884
301.883
301.883
301.882
301.881
301.881
301.88
301.879
301.878
301.877
301.877
301.876
301.876
301.876
301.877
301.878
301.879
301.88
301.882
301.883
301.885
301.888
301.89
301.892
301.893
301.894
302.182
302.178
302.18
302.181
302.183
302.185
302.187
302.19
302.193
302.196
302.199
302.202
302.205
302.209
302.212
302.216
302.219
302.222
302.226
302.229
302.232
302.235
302.238
302.24
302.242
302.245
302.246
302.248
302.249
302.25
302.251
302.251
302.25
302.249
302.247
302.245
302.242
302.237
302.232
302.225
302.217
302.208
302.197
302.185
302.171
302.155
302.137
302.118
302.098
302.075
302.484
302.48
302.483
302.484
302.486
302.488
302.491
302.493
302.496
302.499
302.502
302.505
302.508
302.511
302.514
302.517
302.52
302.522
302.525
302.527
302.528
302.529
302.53
302.529
302.529
302.527
302.524
302.521
302.516
302.51
302.503
302.494
302.484
302.472
302.458
302.442
302.424
302.404
302.382
302.357
302.33
302.3
302.268
302.233
302.196
302.157
302.116
302.074
302.031
301.987
302.581
302.579
302.584
302.587
302.59
302.593
302.596
302.599
302.601
302.604
302.606
302.607
302.609
302.61
302.61
302.61
302.609
302.608
302.606
302.602
302.598
302.593
302.586
302.579
302.569
302.558
302.546
302.531
302.515
302.496
302.476
302.453
302.428
302.4
302.37
302.337
302.302
302.264
302.223
302.18
302.135
302.088
302.038
301.987
301.935
301.881
301.827
301.772
301.718
301.665
302.256
302.26
302.269
302.277
302.284
302.291
302.296
302.301
302.305
302.308
302.311
302.312
302.313
302.313
302.311
302.309
302.305
302.301
302.294
302.286
302.277
302.266
302.253
302.238
302.221
302.202
302.18
302.157
302.131
302.103
302.072
302.04
302.004
301.967
301.928
301.886
301.843
301.798
301.751
301.703
301.654
301.603
301.553
301.502
301.451
301.4
301.35
301.302
301.256
301.212
301.506
301.515
301.528
301.54
301.551
301.561
301.57
301.578
301.584
301.59
301.595
301.598
301.6
301.602
301.602
301.6
301.598
301.594
301.588
301.581
301.572
301.561
301.548
301.534
301.517
301.499
301.479
301.456
301.433
301.407
301.38
301.351
301.321
301.289
301.257
301.223
301.189
301.153
301.118
301.082
301.047
301.011
300.977
300.942
300.909
300.877
300.846
300.817
300.79
300.765
300.684
300.693
300.706
300.717
300.728
300.737
300.746
300.755
300.762
300.769
300.775
300.78
300.784
300.788
300.791
300.793
300.794
300.794
300.793
300.79
300.787
300.782
300.776
300.769
300.761
300.751
300.741
300.73
300.717
300.704
300.69
300.676
300.661
300.645
300.63
300.614
300.598
300.582
300.566
300.551
300.536
300.521
300.507
300.494
300.482
300.47
300.46
300.45
300.442
300.436
300.196
300.201
300.208
300.214
300.221
300.226
300.232
300.237
300.242
300.247
300.252
300.256
300.26
300.263
300.267
300.27
300.272
300.275
300.276
300.278
300.279
300.279
300.279
300.278
300.277
300.276
300.274
300.272
300.27
300.267
300.264
300.262
300.259
300.256
300.253
300.25
300.247
300.244
300.242
300.239
300.237
300.235
300.234
300.233
300.232
300.232
300.232
300.233
300.234
300.236
300.04
300.041
300.043
300.046
300.048
300.05
300.052
300.054
300.056
300.058
300.06
300.061
300.063
300.065
300.067
300.069
300.07
300.072
300.074
300.075
300.077
300.078
300.079
300.08
300.081
300.082
300.083
300.084
300.084
300.085
300.086
300.086
300.087
300.088
300.088
300.089
300.09
300.09
300.091
300.092
300.093
300.094
300.096
300.097
300.099
300.1
300.102
300.105
300.108
300.111
300.01
300.009
300.009
300.01
300.011
300.011
300.012
300.013
300.013
300.014
300.014
300.015
300.015
300.016
300.016
300.017
300.017
300.018
300.019
300.019
300.02
300.02
300.021
300.022
300.022
300.022
300.023
300.023
300.024
300.024
300.025
300.025
300.025
300.026
300.026
300.026
300.027
300.027
300.028
300.028
300.029
300.03
300.03
300.031
300.032
300.033
300.034
300.035
300.037
300.038
300.001
300.002
300.002
300.002
300.002
300.003
300.003
300.004
300.004
300.005
300.006
300.007
300.007
300.008
300.009
300.009
300.01
300.011
300.011
300.011
300.012
300.012
300.013
300.013
300.013
300.013
300.014
300.014
300.014
300.014
300.014
300.014
300.014
300.014
300.014
300.014
300.014
300.014
300.014
300.014
300.014
300.014
300.014
300.013
300.013
300.013
300.013
300.014
300.014
300.016
300.001
300.001
300.001
300.002
300.002
300.002
300.003
300.003
300.004
300.004
300.005
300.006
300.006
300.007
300.008
300.008
300.009
300.009
300.01
300.01
300.011
300.011
300.012
300.012
300.013
300.013
300.013
300.013
300.014
300.014
300.014
300.014
300.014
300.014
300.015
300.015
300.015
300.015
300.016
300.016
300.016
300.016
300.016
300.017
300.017
300.017
300.017
300.018
300.018
300.018
300.002
300.003
300.003
300.003
300.004
300.004
300.005
300.005
300.006
300.007
300.007
300.008
300.009
300.009
300.01
300.011
300.011
300.012
300.013
300.013
300.014
300.014
300.015
300.015
300.016
300.016
300.016
300.017
300.017
300.017
300.017
300.017
300.018
300.018
300.018
300.018
300.018
300.018
300.019
300.019
300.019
300.019
300.02
300.02
300.02
300.021
300.021
300.021
300.022
300.022
300.006
300.007
300.008
300.008
300.008
300.009
300.009
300.01
300.01
300.011
300.011
300.012
300.013
300.013
300.014
300.015
300.016
300.016
300.017
300.018
300.018
300.019
300.019
300.02
300.02
300.021
300.021
300.021
300.021
300.022
300.022
300.022
300.022
300.022
300.022
300.022
300.023
300.023
300.023
300.024
300.024
300.024
300.025
300.025
300.026
300.026
300.027
300.028
300.028
300.029
300.004
300.005
300.005
300.004
300.004
300.004
300.005
300.005
300.006
300.006
300.007
300.008
300.009
300.01
300.012
300.013
300.014
300.015
300.016
300.017
300.019
300.02
300.021
300.021
300.022
300.023
300.024
300.024
300.025
300.025
300.026
300.026
300.026
300.027
300.028
300.028
300.029
300.03
300.03
300.031
300.032
300.033
300.034
300.034
300.035
300.036
300.037
300.038
300.039
300.039
300.015
300.019
300.02
300.022
300.023
300.025
300.026
300.027
300.028
300.029
300.03
300.032
300.033
300.035
300.036
300.038
300.039
300.041
300.042
300.044
300.045
300.046
300.047
300.048
300.049
300.049
300.049
300.05
300.05
300.05
300.05
300.05
300.05
300.05
300.05
300.05
300.05
300.051
300.051
300.051
300.052
300.052
300.053
300.053
300.053
300.054
300.054
300.054
300.055
300.055
300.004
300.004
300.002
300
299.998
299.996
299.995
299.993
299.992
299.991
299.991
299.99
299.991
299.991
299.991
299.992
299.993
299.994
299.995
299.996
299.996
299.997
299.997
299.998
299.998
299.998
299.998
299.997
299.997
299.997
299.997
299.996
299.996
299.997
299.997
299.998
299.998
299.999
300.001
300.002
300.004
300.006
300.008
300.01
300.012
300.014
300.017
300.019
300.022
300.023
300.028
300.032
300.035
300.037
300.039
300.041
300.043
300.045
300.046
300.048
300.05
300.052
300.054
300.057
300.061
300.064
300.068
300.072
300.076
300.08
300.084
300.087
300.091
300.094
300.097
300.1
300.103
300.106
300.108
300.111
300.114
300.117
300.12
300.124
300.127
300.131
300.135
300.139
300.143
300.147
300.151
300.155
300.159
300.162
300.165
300.168
300.17
300.172
300.174
300.175
300.009
300.013
300.015
300.016
300.018
300.019
300.02
300.021
300.022
300.023
300.025
300.028
300.033
300.039
300.046
300.052
300.059
300.066
300.075
300.085
300.096
300.106
300.115
300.125
300.135
300.147
300.16
300.173
300.185
300.197
300.21
300.223
300.237
300.249
300.262
300.274
300.286
300.297
300.307
300.317
300.326
300.335
300.342
300.349
300.355
300.36
300.364
300.368
300.371
300.374
302.547
302.552
302.559
302.568
302.577
302.587
302.596
302.606
302.616
302.625
302.632
302.637
302.638
302.639
302.639
302.637
302.634
302.63
302.624
302.619
302.613
302.608
302.602
302.595
302.588
302.58
302.572
302.563
302.553
302.543
302.531
302.519
302.505
302.49
302.473
302.455
302.436
302.415
302.392
302.368
302.343
302.317
302.29
302.263
302.236
302.208
302.181
302.152
302.124
302.095
303.148
303.145
303.143
303.14
303.137
303.135
303.132
303.13
303.127
303.125
303.123
303.12
303.118
303.116
303.113
303.111
303.109
303.107
303.105
303.102
303.1
303.098
303.096
303.094
303.092
303.09
303.088
303.086
303.084
303.082
303.08
303.079
303.077
303.075
303.073
303.071
303.069
303.068
303.066
303.064
303.062
303.061
303.059
303.057
303.056
303.054
303.053
303.052
303.051
303.05
303.15
303.15
303.15
303.15
303.15
303.15
303.15
303.149
303.149
303.149
303.149
303.149
303.148
303.148
303.148
303.148
303.148
303.147
303.147
303.147
303.146
303.146
303.146
303.146
303.145
303.145
303.145
303.144
303.144
303.144
303.143
303.143
303.143
303.142
303.142
303.142
303.141
303.141
303.141
303.141
303.14
303.14
303.14
303.14
303.139
303.139
303.139
303.139
303.138
303.138
303.15
303.15
303.15
303.15
303.15
303.15
303.15
303.15
303.15
303.15
303.15
303.15
303.15
303.15
303.15
303.15
303.15
303.15
303.15
303.15
303.15
303.15
303.15
303.15
303.15
303.15
303.15
303.15
303.15
303.15
303.15
303.15
303.15
303.15
303.15
303.149
303.149
303.149
303.149
303.149
303.149
303.149
303.149
303.149
303.149
303.149
303.149
303.149
303.149
303.149
303.15
303.15
303.15
303.15
303.15
303.15
303.15
303.15
303.15
303.15
303.15
303.15
303.15
303.15
303.15
303.15
303.15
303.15
303.15
303.15
303.15
303.15
303.15
303.15
303.15
303.15
303.15
303.15
303.15
303.15
303.15
303.15
303.15
303.15
303.15
303.15
303.15
303.15
303.15
303.15
303.15
303.15
303.15
303.15
303.15
303.15
303.15
303.15
303.15
303.15
303.15
303.15
303.15
303.15
303.15
303.15
303.15
303.15
303.15
303.15
303.15
303.15
303.15
303.15
303.15
303.15
303.15
303.15
303.15
303.15
303.15
303.15
303.15
303.15
303.15
303.15
303.15
303.15
303.15
303.15
303.15
303.15
303.15
303.15
303.15
303.15
303.15
303.15
303.15
303.15
303.15
303.15
303.15
303.15
303.15
303.15
303.15
303.15
303.15
303.15
303.15
303.15
303.15
303.15
303.15
303.15
303.15
303.15
303.15
303.15
303.15
303.15
303.15
303.15
303.15
303.15
303.15
303.15
303.15
303.15
303.15
303.15
303.15
303.15
303.15
303.15
303.15
303.15
303.15
303.15
303.15
303.15
303.15
303.15
303.15
303.15
303.15
303.15
303.15
303.15
303.15
303.15
303.15
303.15
303.15
303.15
303.15
303.15
303.15
303.15
303.15
303.15
303.15
303.15
303.15
303.15
303.15
303.15
303.15
303.15
303.15
303.15
303.15
303.15
303.15
303.15
303.15
303.15
303.15
303.15
303.15
303.15
303.15
303.15
303.15
303.15
303.15
303.15
303.15
303.15
303.15
303.15
303.15
303.15
303.15
303.15
303.15
303.15
303.15
303.15
303.15
303.15
303.15
303.15
303.15
303.15
303.15
303.15
303.15
303.15
303.15
303.15
303.15
303.15
303.15
303.15
303.15
303.15
303.15
303.15
303.15
303.15
303.15
303.15
303.15
303.15
303.15
303.15
303.15
303.15
303.15
303.15
303.15
303.15
303.15
303.15
303.15
303.15
303.15
303.15
303.15
303.15
303.15
303.15
303.15
303.15
303.15
303.15
303.15
303.15
303.15
303.15
303.15
303.15
303.15
303.15
303.15
303.15
303.15
303.15
303.15
303.15
303.15
303.15
303.15
303.15
303.15
303.15
303.15
303.15
303.15
303.15
303.15
303.15
303.15
303.15
303.15
303.15
303.15
303.15
303.15
303.15
303.15
303.15
303.15
303.15
303.15
303.15
303.15
303.15
303.15
303.15
303.15
303.15
303.15
303.15
303.15
303.15
303.15
303.15
303.15
303.15
303.15
303.15
303.15
303.15
303.15
303.15
303.15
303.15
303.15
303.15
303.15
303.15
303.15
303.15
303.15
303.15
303.15
303.15
303.15
303.15
303.15
303.15
303.15
303.15
303.15
303.15
303.15
303.15
303.15
303.15
303.15
303.15
303.15
303.15
303.15
303.15
303.15
303.15
303.15
303.15
303.15
303.15
303.15
303.15
303.15
303.15
303.15
303.15
303.15
303.15
303.15
303.15
303.15
303.15
303.15
303.15
303.15
303.15
303.15
303.15
303.15
303.15
303.15
303.15
303.15
303.15
303.15
303.15
303.15
303.15
303.15
303.15
303.15
303.15
303.15
303.15
303.15
303.15
303.15
303.15
303.15
303.15
303.15
303.15
303.15
303.15
303.15
303.15
303.15
303.15
303.15
303.15
303.15
303.15
303.15
303.15
303.15
303.15
303.15
303.15
303.15
303.15
303.15
303.15
303.15
303.15
303.15
303.15
303.15
303.15
303.15
303.15
303.15
303.15
303.15
303.15
303.15
303.15
303.15
303.15
303.15
303.15
303.15
303.15
303.15
303.15
303.15
303.15
303.15
303.15
303.15
303.15
303.15
303.15
303.15
303.15
303.15
303.15
303.15
303.15
303.15
303.15
303.15
303.15
303.15
303.15
303.15
303.15
303.15
303.15
303.15
303.15
303.15
303.15
303.15
303.15
303.15
303.15
303.15
303.15
303.15
303.15
303.15
303.15
303.15
303.15
303.15
303.15
303.15
303.15
303.15
303.15
303.15
303.15
303.15
303.15
303.15
303.15
303.15
303.15
303.15
303.15
303.15
303.15
303.15
303.15
303.15
303.15
303.15
303.15
303.15
303.15
303.15
303.15
303.15
303.15
303.15
303.15
303.15
303.15
303.15
303.15
303.15
303.15
303.15
303.15
303.15
303.15
303.15
303.15
303.15
303.15
303.15
303.15
303.15
303.15
303.15
303.15
303.15
303.15
303.15
303.15
303.15
303.15
303.15
303.15
303.15
303.15
303.15
303.15
303.15
303.15
303.15
303.15
303.15
303.15
303.15
303.15
303.15
303.15
303.15
303.15
303.15
303.15
303.15
303.15
303.15
303.15
303.15
303.15
303.15
303.15
303.15
303.15
303.15
303.15
303.15
303.15
303.15
303.15
303.15
303.15
303.15
303.15
303.15
303.15
303.15
303.15
303.15
303.15
303.15
303.15
303.15
303.15
303.15
303.15
303.15
303.15
303.15
303.15
303.15
303.15
303.15
303.15
303.15
303.15
303.15
303.15
303.15
303.15
303.15
303.15
303.15
303.15
303.15
303.15
303.15
303.15
303.15
303.15
303.15
303.15
303.15
303.15
303.15
303.15
303.15
303.15
303.15
303.15
303.15
303.15
303.15
303.15
303.15
303.15
303.15
303.15
303.15
303.15
303.15
303.15
303.15
303.15
303.15
303.15
303.15
303.15
303.15
303.15
303.15
303.15
303.15
303.15
303.15
303.15
303.15
303.15
303.15
303.15
303.15
303.15
303.15
303.15
303.15
303.15
303.15
303.15
303.15
303.15
303.15
303.15
303.15
303.15
303.15
303.15
303.15
303.15
303.15
303.15
303.15
303.15
303.15
303.15
303.15
303.15
303.15
303.15
303.15
303.15
303.15
303.15
303.15
303.15
303.15
303.15
303.15
303.15
303.15
303.15
303.15
303.15
303.15
303.15
303.15
303.15
303.15
303.15
303.15
303.15
303.15
303.15
303.15
303.15
303.15
303.15
303.15
303.15
303.15
303.15
303.15
303.15
303.15
303.15
303.15
303.15
303.15
303.15
303.15
303.15
303.15
303.15
303.15
303.15
303.15
303.15
303.15
303.15
303.15
303.15
303.15
303.15
303.15
303.15
303.15
303.15
303.15
303.15
303.15
303.15
303.15
303.15
303.15
303.15
303.15
303.15
303.15
303.15
303.15
303.15
303.149
303.149
303.149
303.149
303.149
303.149
303.149
303.149
303.149
303.149
303.149
303.149
303.149
303.149
303.148
303.148
303.148
303.148
303.15
303.15
303.15
303.15
303.15
303.15
303.15
303.149
303.149
303.149
303.149
303.149
303.148
303.148
303.148
303.148
303.148
303.147
303.147
303.147
303.146
303.146
303.146
303.146
303.145
303.145
303.145
303.144
303.144
303.144
303.143
303.143
303.142
303.142
303.142
303.141
303.141
303.14
303.14
303.14
303.139
303.139
303.138
303.137
303.137
303.136
303.136
303.135
303.134
303.133
303.148
303.145
303.143
303.14
303.137
303.135
303.132
303.13
303.127
303.125
303.123
303.12
303.118
303.116
303.113
303.111
303.109
303.107
303.105
303.102
303.1
303.098
303.096
303.094
303.092
303.09
303.088
303.086
303.084
303.082
303.08
303.078
303.077
303.075
303.073
303.071
303.069
303.067
303.066
303.064
303.062
303.06
303.059
303.057
303.055
303.053
303.052
303.05
303.048
303.047
303.039
302.961
302.675
302.22
301.656
301.068
300.536
300.115
299.822
299.642
299.547
299.521
299.611
299.821
300.029
300.348
300.64
300.696
300.67
300.709
303.036
302.948
302.64
302.161
301.576
300.977
300.445
300.034
299.755
299.59
299.504
299.481
299.574
299.793
300.01
300.332
300.614
300.66
300.637
300.68
303.033
302.933
302.604
302.099
301.494
300.884
300.355
299.955
299.693
299.542
299.465
299.445
299.537
299.763
299.991
300.315
300.593
300.636
300.616
300.661
303.03
302.917
302.565
302.035
301.41
300.792
300.267
299.88
299.635
299.499
299.431
299.413
299.503
299.734
299.972
300.298
300.571
300.613
300.596
300.643
303.027
302.901
302.525
301.969
301.325
300.7
300.181
299.809
299.582
299.462
299.403
299.387
299.472
299.706
299.952
300.281
300.55
300.59
300.577
300.625
303.023
302.883
302.483
301.902
301.239
300.61
300.099
299.744
299.536
299.431
299.38
299.365
299.444
299.679
299.933
300.264
300.529
300.568
300.558
300.607
303.019
302.864
302.439
301.833
301.154
300.522
300.021
299.684
299.495
299.406
299.362
299.347
299.42
299.654
299.914
300.246
300.509
300.546
300.54
300.589
303.015
302.844
302.394
301.763
301.069
300.437
299.948
299.63
299.461
299.386
299.349
299.335
299.399
299.63
299.896
300.229
300.488
300.526
300.523
300.572
303.01
302.823
302.348
301.693
300.986
300.356
299.881
299.583
299.433
299.372
299.34
299.326
299.382
299.608
299.878
300.212
300.468
300.506
300.507
300.554
303.006
302.802
302.301
301.624
300.905
300.279
299.82
299.542
299.411
299.363
299.335
299.32
299.367
299.587
299.86
300.196
300.449
300.487
300.491
300.537
303
302.779
302.253
301.554
300.827
300.208
299.765
299.508
299.395
299.358
299.333
299.316
299.355
299.568
299.843
300.179
300.429
300.468
300.476
300.519
302.995
302.756
302.205
301.486
300.753
300.141
299.716
299.48
299.384
299.356
299.333
299.315
299.346
299.551
299.826
300.163
300.411
300.451
300.461
300.502
302.989
302.732
302.157
301.419
300.681
300.08
299.674
299.458
299.378
299.358
299.335
299.314
299.338
299.534
299.81
300.147
300.392
300.434
300.447
300.484
302.983
302.707
302.108
301.354
300.614
300.024
299.637
299.441
299.375
299.362
299.338
299.315
299.332
299.519
299.795
300.131
300.375
300.418
300.434
300.467
302.977
302.682
302.06
301.29
300.551
299.974
299.607
299.429
299.376
299.367
299.342
299.315
299.328
299.506
299.78
300.115
300.358
300.403
300.421
300.45
302.971
302.657
302.013
301.23
300.492
299.93
299.582
299.421
299.38
299.374
299.346
299.316
299.324
299.493
299.765
300.1
300.341
300.388
300.409
300.433
302.964
302.631
301.966
301.172
300.438
299.89
299.561
299.417
299.385
299.382
299.35
299.316
299.321
299.482
299.751
300.086
300.325
300.375
300.397
300.416
302.958
302.606
301.921
301.116
300.388
299.856
299.545
299.416
299.392
299.39
299.355
299.317
299.318
299.471
299.738
300.071
300.31
300.362
300.386
300.399
302.951
302.581
301.877
301.064
300.343
299.826
299.533
299.418
299.401
299.399
299.36
299.317
299.316
299.461
299.726
300.058
300.295
300.35
300.375
300.382
302.944
302.556
301.834
301.015
300.301
299.801
299.525
299.421
299.41
299.408
299.364
299.317
299.314
299.452
299.713
300.045
300.281
300.339
300.365
300.365
302.937
302.531
301.793
300.97
300.264
299.779
299.519
299.427
299.421
299.417
299.369
299.317
299.312
299.444
299.702
300.032
300.268
300.328
300.355
300.349
302.93
302.508
301.755
300.928
300.231
299.762
299.516
299.434
299.432
299.426
299.374
299.317
299.311
299.437
299.691
300.02
300.256
300.318
300.345
300.333
302.924
302.485
301.719
300.889
300.202
299.748
299.516
299.443
299.443
299.435
299.379
299.318
299.309
299.43
299.681
300.009
300.244
300.309
300.335
300.317
302.917
302.463
301.685
300.854
300.177
299.737
299.518
299.453
299.454
299.444
299.384
299.319
299.308
299.424
299.672
299.998
300.234
300.301
300.326
300.301
302.911
302.443
301.654
300.823
300.156
299.729
299.522
299.463
299.466
299.453
299.39
299.321
299.306
299.418
299.663
299.988
300.224
300.293
300.317
300.286
302.906
302.425
301.626
300.796
300.139
299.724
299.528
299.474
299.478
299.462
299.395
299.323
299.305
299.413
299.655
299.979
300.215
300.286
300.309
300.271
302.9
302.408
301.602
300.773
300.125
299.722
299.535
299.486
299.49
299.471
299.402
299.326
299.304
299.408
299.647
299.97
300.206
300.28
300.3
300.256
302.896
302.394
301.581
300.755
300.115
299.723
299.544
299.499
299.502
299.48
299.408
299.33
299.302
299.404
299.64
299.963
300.199
300.274
300.292
300.242
302.891
302.381
301.564
300.74
300.109
299.727
299.554
299.512
299.514
299.489
299.415
299.335
299.3
299.401
299.634
299.956
300.192
300.269
300.284
300.228
302.888
302.371
301.551
300.731
300.107
299.733
299.566
299.526
299.526
299.499
299.423
299.341
299.299
299.398
299.629
299.95
300.186
300.264
300.277
300.215
302.885
302.364
301.542
300.726
300.109
299.741
299.579
299.54
299.539
299.509
299.431
299.347
299.299
299.395
299.624
299.944
300.181
300.26
300.269
300.202
302.884
302.359
301.537
300.725
300.115
299.753
299.593
299.554
299.552
299.519
299.44
299.355
299.303
299.394
299.62
299.94
300.177
300.256
300.261
300.189
302.883
302.357
301.537
300.73
300.125
299.766
299.608
299.569
299.565
299.53
299.449
299.363
299.31
299.395
299.618
299.936
300.173
300.252
300.254
300.177
302.883
302.358
301.541
300.74
300.139
299.783
299.625
299.585
299.578
299.542
299.46
299.373
299.322
299.397
299.617
299.932
300.169
300.248
300.247
300.166
302.884
302.362
301.551
300.755
300.157
299.802
299.643
299.601
299.592
299.554
299.471
299.384
299.335
299.401
299.617
299.93
300.167
300.245
300.239
300.155
302.886
302.37
301.565
300.775
300.18
299.824
299.662
299.617
299.606
299.567
299.484
299.397
299.351
299.407
299.618
299.928
300.164
300.242
300.232
300.144
302.889
302.38
301.585
300.8
300.207
299.848
299.683
299.634
299.621
299.581
299.498
299.411
299.368
299.415
299.621
299.928
300.162
300.239
300.225
300.134
302.893
302.394
301.609
300.831
300.238
299.876
299.705
299.651
299.636
299.596
299.513
299.426
299.384
299.425
299.625
299.928
300.161
300.236
300.218
300.124
302.898
302.41
301.638
300.867
300.273
299.906
299.728
299.669
299.651
299.611
299.529
299.442
299.401
299.436
299.631
299.929
300.16
300.233
300.211
300.115
302.904
302.43
301.672
300.908
300.313
299.938
299.753
299.688
299.667
299.627
299.547
299.46
299.419
299.45
299.638
299.931
300.159
300.23
300.204
300.106
302.91
302.452
301.71
300.954
300.357
299.974
299.779
299.707
299.683
299.645
299.567
299.48
299.437
299.464
299.647
299.934
300.159
300.227
300.196
300.097
302.918
302.477
301.753
301.005
300.405
300.012
299.806
299.727
299.7
299.663
299.587
299.501
299.457
299.481
299.658
299.938
300.159
300.223
300.189
300.089
302.926
302.505
301.8
301.061
300.457
300.053
299.835
299.747
299.717
299.681
299.609
299.525
299.479
299.5
299.67
299.943
300.158
300.22
300.182
300.082
302.935
302.534
301.85
301.121
300.513
300.097
299.866
299.768
299.735
299.701
299.633
299.55
299.503
299.52
299.684
299.949
300.159
300.216
300.175
300.074
302.944
302.565
301.904
301.185
300.573
300.144
299.898
299.79
299.753
299.721
299.657
299.577
299.53
299.543
299.7
299.956
300.159
300.212
300.168
300.067
302.954
302.598
301.96
301.253
300.636
300.193
299.932
299.813
299.771
299.741
299.683
299.606
299.559
299.568
299.717
299.963
300.159
300.208
300.161
300.061
302.964
302.631
302.019
301.324
300.703
300.245
299.967
299.836
299.79
299.762
299.709
299.637
299.588
299.595
299.737
299.972
300.159
300.203
300.154
300.054
302.974
302.666
302.079
301.398
300.774
300.301
300.005
299.861
299.809
299.783
299.737
299.669
299.62
299.625
299.758
299.981
300.159
300.198
300.147
300.048
302.983
302.701
302.141
301.474
300.847
300.359
300.045
299.886
299.828
299.804
299.764
299.702
299.654
299.656
299.781
299.991
300.158
300.193
300.14
300.042
302.993
302.736
302.204
301.553
300.924
300.42
300.087
299.913
299.848
299.825
299.792
299.737
299.69
299.69
299.805
300.001
300.158
300.187
300.132
300.036
303.003
302.77
302.268
301.634
301.004
300.485
300.131
299.941
299.867
299.845
299.819
299.772
299.729
299.726
299.831
300.012
300.156
300.181
300.125
300.031
303.012
302.805
302.332
301.716
301.086
300.553
300.179
299.97
299.887
299.865
299.846
299.808
299.768
299.764
299.858
300.023
300.155
300.174
300.117
300.025
303.02
302.838
302.395
301.801
301.172
300.625
300.229
300.002
299.908
299.884
299.871
299.842
299.808
299.803
299.885
300.034
300.153
300.167
300.11
300.02
303.028
302.87
302.459
301.886
301.262
300.701
300.284
300.036
299.929
299.902
299.895
299.876
299.848
299.842
299.913
300.044
300.15
300.159
300.102
300.015
303.035
302.902
302.521
301.973
301.355
300.782
300.343
300.073
299.951
299.919
299.917
299.907
299.887
299.881
299.94
300.054
300.146
300.151
300.095
300.01
303.042
302.932
302.583
302.061
301.452
300.869
300.408
300.114
299.974
299.935
299.936
299.935
299.923
299.919
299.966
300.063
300.142
300.142
300.087
300.005
303.048
302.96
302.644
302.151
301.554
300.964
300.481
300.16
299.999
299.951
299.953
299.959
299.955
299.954
299.991
300.071
300.137
300.132
300.079
300
303.053
302.987
302.703
302.241
301.661
301.066
300.561
300.213
300.028
299.966
299.966
299.979
299.983
299.985
300.013
300.077
300.13
300.122
300.07
299.995
303.057
303.012
302.761
302.333
301.774
301.177
300.652
300.274
300.061
299.982
299.977
299.994
300.006
300.012
300.031
300.082
300.123
300.112
300.062
299.99
303.06
303.035
302.817
302.426
301.892
301.3
300.757
300.347
300.102
299.999
299.985
300.003
300.022
300.033
300.046
300.084
300.114
300.101
300.053
299.985
303.063
303.056
302.871
302.52
302.017
301.434
300.876
300.434
300.153
300.022
299.992
300.007
300.03
300.046
300.056
300.083
300.104
300.089
300.044
299.98
303.064
303.075
302.921
302.613
302.148
301.583
301.014
300.54
300.218
300.051
299.999
300.007
300.031
300.051
300.061
300.08
300.093
300.077
300.035
299.975
303.064
303.091
302.968
302.704
302.284
301.745
301.174
300.67
300.303
300.093
300.011
300.005
300.027
300.048
300.061
300.073
300.08
300.064
300.026
299.97
303.064
303.105
303.011
302.792
302.422
301.92
301.357
300.828
300.416
300.155
300.033
300.004
300.018
300.041
300.055
300.063
300.066
300.05
300.016
299.965
303.063
303.116
303.048
302.874
302.561
302.107
301.565
301.021
300.564
300.246
300.072
300.009
300.008
300.028
300.045
300.051
300.051
300.037
300.006
299.959
303.06
303.124
303.079
302.948
302.694
302.301
301.797
301.253
300.758
300.378
300.141
300.03
300.002
300.012
300.029
300.036
300.035
300.022
299.996
299.954
303.057
303.13
303.103
303.011
302.818
302.494
302.046
301.524
301.006
300.569
300.259
300.081
300.008
299.997
300.009
300.018
300.018
300.007
299.985
299.948
303.053
303.134
303.122
303.061
302.924
302.676
302.303
301.83
301.315
300.834
300.448
300.188
300.047
299.994
299.99
299.999
300
299.992
299.974
299.942
303.049
303.136
303.134
303.098
303.01
302.836
302.55
302.153
301.677
301.184
300.737
300.388
300.154
300.029
299.982
299.979
299.982
299.977
299.963
299.935
303.044
303.136
303.141
303.123
303.072
302.963
302.767
302.466
302.07
301.611
301.143
300.722
300.386
300.155
300.022
299.969
299.963
299.961
299.951
299.928
303.038
303.136
303.145
303.137
303.112
303.052
302.935
302.737
302.448
302.077
301.651
301.213
300.806
300.464
300.206
300.039
299.956
299.945
299.938
299.92
303.033
303.135
303.147
303.144
303.134
303.106
303.047
302.938
302.762
302.511
302.191
301.82
301.426
301.038
300.682
300.376
300.13
299.958
299.926
299.911
303.027
303.134
303.148
303.148
303.144
303.133
303.109
303.06
302.974
302.839
302.651
302.41
302.126
301.814
301.489
301.162
300.841
300.516
300.136
299.908
303.021
303.133
303.148
303.149
303.148
303.145
303.136
303.119
303.086
303.031
302.948
302.834
302.69
302.523
302.34
302.148
301.955
301.759
301.525
301.003
303.016
303.131
303.148
303.149
303.149
303.148
303.146
303.141
303.132
303.114
303.087
303.047
302.995
302.934
302.866
302.798
302.736
302.686
302.658
302.666
303.01
303.13
303.148
303.149
303.149
303.149
303.149
303.148
303.145
303.141
303.133
303.122
303.106
303.085
303.061
303.033
303.003
302.97
302.931
302.877
303.005
303.128
303.148
303.149
303.15
303.15
303.15
303.149
303.149
303.148
303.145
303.142
303.135
303.126
303.113
303.095
303.069
303.033
302.981
302.9
303
303.127
303.148
303.149
303.15
303.15
303.15
303.15
303.15
303.149
303.148
303.147
303.144
303.139
303.13
303.116
303.094
303.058
303.001
302.904
302.995
303.125
303.148
303.15
303.15
303.15
303.15
303.15
303.15
303.15
303.149
303.149
303.147
303.144
303.138
303.128
303.109
303.075
303.016
302.907
302.991
303.124
303.147
303.15
303.15
303.15
303.15
303.15
303.15
303.15
303.15
303.149
303.149
303.147
303.143
303.135
303.12
303.088
303.028
302.91
302.987
303.123
303.147
303.15
303.15
303.15
303.15
303.15
303.15
303.15
303.15
303.15
303.149
303.148
303.146
303.14
303.127
303.098
303.038
302.912
302.983
303.121
303.147
303.15
303.15
303.15
303.15
303.15
303.15
303.15
303.15
303.15
303.15
303.149
303.147
303.143
303.132
303.106
303.046
302.914
302.98
303.12
303.147
303.15
303.15
303.15
303.15
303.15
303.15
303.15
303.15
303.15
303.15
303.15
303.148
303.145
303.136
303.112
303.053
302.916
302.978
303.119
303.147
303.15
303.15
303.15
303.15
303.15
303.15
303.15
303.15
303.15
303.15
303.15
303.149
303.147
303.139
303.117
303.059
302.917
302.975
303.119
303.147
303.15
303.15
303.15
303.15
303.15
303.15
303.15
303.15
303.15
303.15
303.15
303.149
303.147
303.141
303.121
303.064
302.919
302.973
303.118
303.147
303.15
303.15
303.15
303.15
303.15
303.15
303.15
303.15
303.15
303.15
303.15
303.15
303.148
303.143
303.124
303.069
302.921
302.972
303.117
303.147
303.15
303.15
303.15
303.15
303.15
303.15
303.15
303.15
303.15
303.15
303.15
303.15
303.148
303.144
303.127
303.073
302.922
302.971
303.117
303.146
303.15
303.15
303.15
303.15
303.15
303.15
303.15
303.15
303.15
303.15
303.15
303.15
303.149
303.145
303.129
303.076
302.924
302.97
303.116
303.146
303.15
303.15
303.15
303.15
303.15
303.15
303.15
303.15
303.15
303.15
303.15
303.15
303.149
303.145
303.131
303.079
302.926
302.969
303.116
303.146
303.15
303.15
303.15
303.15
303.15
303.15
303.15
303.15
303.15
303.15
303.15
303.15
303.149
303.146
303.132
303.081
302.927
302.969
303.116
303.146
303.15
303.15
303.15
303.15
303.15
303.15
303.15
303.15
303.15
303.15
303.15
303.15
303.149
303.146
303.134
303.083
302.929