/*--------------------------------*- C++ -*----------------------------------*\
  =========                 |
  \\      /  F ield         | OpenFOAM: The Open Source CFD Toolbox
   \\    /   O peration     | Website:  https://openfoam.org
    \\  /    A nd           | Version:  8
     \\/     M anipulation  |
\*---------------------------------------------------------------------------*/
FoamFile
{
    version     2.0;
    format      ascii;
    class       volScalarField;
    location    "400";
    object      alphat;
}
// * * * * * * * * * * * * * * * * * * * * * * * * * * * * * * * * * * * * * //

dimensions      [1 -1 -1 0 0 0 0];

internalField   nonuniform List<scalar> 
8400
(
0.134663
0.131706
0.128747
0.12579
0.122834
0.119903
0.117021
0.114197
0.11144
0.108753
0.106141
0.103608
0.101158
0.0987956
0.0965227
0.0943424
0.092256
0.0902646
0.0883684
0.0865669
0.084859
0.0832427
0.0817157
0.0802752
0.0789181
0.0776413
0.0764419
0.0753177
0.0742664
0.0732863
0.0723761
0.0715331
0.0707551
0.0700391
0.0693811
0.0687785
0.0682279
0.0677247
0.0672619
0.0668283
0.0664267
0.0660508
0.0656794
0.0653145
0.0649626
0.0646388
0.0643562
0.0660419
0.0667839
0.0673154
0.0626857
0.0624204
0.0621843
0.0619974
0.0618837
0.0618053
0.0617246
0.0616393
0.061548
0.0614554
0.0613641
0.061278
0.0611998
0.0611322
0.0610761
0.0610324
0.0610019
0.060985
0.0609821
0.0609933
0.0610188
0.0610583
0.0611119
0.0611792
0.0612603
0.0613553
0.0614649
0.0615905
0.0617331
0.0618927
0.0620699
0.0622648
0.0624777
0.0627097
0.0629624
0.0632357
0.0635226
0.0638216
0.0641408
0.0644623
0.0647712
0.0650693
0.065345
0.0655996
0.0658099
0.0659743
0.0658665
0.0656542
0.0656411
0.0656391
0.0601298
0.0600629
0.0600004
0.0599428
0.059891
0.0598457
0.0598071
0.0597756
0.059752
0.0597364
0.0597294
0.0597312
0.0597417
0.059761
0.0597893
0.0598265
0.0598725
0.0599273
0.0599905
0.0600615
0.0601404
0.0602273
0.0603231
0.0604287
0.0605454
0.0606746
0.0608178
0.0609755
0.061149
0.0613407
0.0615527
0.0617882
0.0620537
0.0623491
0.0626719
0.0630267
0.063411
0.0638129
0.064234
0.0646619
0.0650779
0.0654778
0.0658242
0.0661383
0.0663327
0.0663771
0.0662648
0.0662748
0.0662865
0.0662898
0.0589407
0.0589436
0.0589502
0.0589608
0.0589761
0.0589964
0.059022
0.0590529
0.0590894
0.0591311
0.059178
0.0592292
0.0592848
0.0593447
0.0594085
0.0594769
0.059549
0.0596241
0.0597018
0.059782
0.0598653
0.0599531
0.0600473
0.0601496
0.0602614
0.0603836
0.0605194
0.0606719
0.0608431
0.061037
0.0612601
0.0615179
0.0618149
0.0621523
0.0625304
0.0629547
0.0634201
0.0639092
0.0644238
0.0649522
0.065446
0.0659232
0.0662875
0.0666421
0.0666826
0.0667811
0.0668814
0.066948
0.0669782
0.0669765
0.0584693
0.0585185
0.0585701
0.0586246
0.0586825
0.0587438
0.0588081
0.0588754
0.0589451
0.0590169
0.0590905
0.0591649
0.0592398
0.0593156
0.0593914
0.0594671
0.0595419
0.0596152
0.0596873
0.0597591
0.0598321
0.0599079
0.0599871
0.060071
0.0601627
0.0602654
0.0603827
0.0605176
0.0606769
0.0608663
0.0610892
0.0613576
0.0616819
0.0620604
0.0624873
0.0629784
0.0635323
0.0641088
0.0647083
0.0653477
0.0658826
0.0664082
0.0667273
0.0669491
0.0672238
0.0674637
0.0676103
0.0676929
0.0677317
0.0677401
0.0583456
0.058427
0.0585104
0.0585961
0.058684
0.0587735
0.058863
0.0589528
0.0590424
0.0591311
0.0592192
0.0593059
0.0593895
0.059469
0.0595442
0.0596145
0.0596807
0.0597435
0.0598039
0.0598628
0.0599205
0.0599775
0.0600362
0.0600992
0.0601681
0.0602472
0.060345
0.060466
0.0606124
0.0607941
0.0610181
0.0613001
0.0616524
0.0620779
0.0625504
0.0631113
0.0637825
0.0644596
0.0650969
0.0658209
0.06634
0.066816
0.0672837
0.0676952
0.0680101
0.068257
0.0684153
0.0685025
0.0685243
0.0685169
0.0584952
0.0585967
0.058701
0.0588083
0.0589159
0.0590216
0.0591237
0.0592223
0.0593192
0.0594141
0.0595056
0.0595912
0.0596693
0.059738
0.0597998
0.0598549
0.0599038
0.0599473
0.0599868
0.0600243
0.0600616
0.0600986
0.060136
0.0601789
0.0602305
0.0602955
0.0603767
0.0604846
0.0606243
0.0608017
0.0610298
0.061329
0.0617168
0.0622272
0.0627646
0.0633884
0.0641546
0.0649085
0.0655659
0.066282
0.0669865
0.0676317
0.068186
0.0686411
0.068963
0.0691746
0.0692714
0.0693
0.0692617
0.0691856
0.0590192
0.0591033
0.059198
0.0592979
0.059396
0.0594893
0.0595764
0.0596603
0.0597426
0.0598227
0.0598972
0.0599608
0.0600156
0.0600617
0.0601001
0.0601304
0.0601505
0.0601621
0.0601715
0.0601846
0.0602048
0.0602289
0.0602513
0.0602753
0.060302
0.0603488
0.0604206
0.0605261
0.0606754
0.060862
0.0611142
0.061449
0.0618746
0.0624814
0.0630742
0.0637876
0.0645994
0.0654652
0.066359
0.0672326
0.0680417
0.0687396
0.0692908
0.0697009
0.0699614
0.0700965
0.0700863
0.0699961
0.0698345
0.06966
0.0598069
0.0598116
0.059855
0.0599108
0.0599628
0.060011
0.0600589
0.060111
0.0601635
0.0602078
0.0602424
0.0602707
0.0602999
0.0603331
0.0603569
0.0603592
0.0603417
0.0603215
0.0603167
0.0603279
0.0603438
0.0603476
0.0603401
0.0603463
0.060378
0.0604357
0.0605237
0.0606404
0.0607886
0.0609719
0.061261
0.0616671
0.062182
0.0628302
0.0636102
0.0645051
0.0654927
0.0665265
0.0675599
0.0685194
0.0693574
0.0700446
0.0705433
0.0708454
0.0709252
0.0708349
0.0705705
0.0702471
0.0698684
0.0695518
0.0605504
0.0604286
0.0603943
0.0603886
0.0603828
0.0603834
0.0603999
0.0604244
0.0604424
0.0604421
0.060434
0.0604502
0.0604822
0.0605073
0.060506
0.0604789
0.0604493
0.0604415
0.0604509
0.0604483
0.0604368
0.0604274
0.0604353
0.0604563
0.0605043
0.0605583
0.0606259
0.060746
0.0609402
0.0612165
0.0615972
0.0621042
0.0627528
0.06357
0.064551
0.0656634
0.0668457
0.0680269
0.0691598
0.0701543
0.0709487
0.0715006
0.0717579
0.0717567
0.0714733
0.0709821
0.0703135
0.0695871
0.0688939
0.0683563
0.0610725
0.0609164
0.0607937
0.0607279
0.0606727
0.060644
0.0606444
0.0606435
0.0606158
0.0605837
0.0605654
0.0605693
0.0605778
0.0605727
0.0605585
0.0605487
0.0605485
0.0605521
0.0605498
0.0605419
0.0605404
0.0605465
0.060565
0.0605896
0.0606317
0.0607066
0.0608253
0.0610106
0.0612792
0.0616532
0.0621692
0.0628569
0.063731
0.0647982
0.0660266
0.067373
0.0687412
0.0700248
0.0711636
0.0720247
0.0725603
0.0727553
0.0725569
0.072011
0.0711309
0.0699042
0.0686676
0.0671154
0.0659456
0.0645731
0.0611598
0.0610829
0.0610147
0.0609545
0.0609034
0.0608584
0.0608193
0.0607848
0.0607537
0.0607308
0.0607192
0.0607105
0.0606975
0.0606841
0.0606774
0.060676
0.0606724
0.0606642
0.0606563
0.0606543
0.0606605
0.060676
0.0607039
0.0607577
0.0608451
0.0609757
0.0611724
0.061464
0.0618766
0.0624385
0.0631881
0.0641521
0.0653395
0.0667311
0.0682446
0.069812
0.0712646
0.0724548
0.0733544
0.0737915
0.0737646
0.0732577
0.0722881
0.0707703
0.0690997
0.0664735
0.0648341
0.0611467
0.0590429
0.0616145
0.0611908
0.0611446
0.0611007
0.0610565
0.0610145
0.0609737
0.0609369
0.0609052
0.0608816
0.0608626
0.0608442
0.0608254
0.0608084
0.0607954
0.0607843
0.060773
0.060764
0.0607612
0.0607629
0.060771
0.060794
0.0608424
0.0609178
0.0610319
0.0612018
0.0614513
0.0618105
0.0623123
0.0629949
0.0638817
0.0649961
0.0663412
0.0679096
0.0696325
0.0713381
0.0729574
0.0742015
0.074907
0.0751647
0.0747099
0.073706
0.0719923
0.0700432
0.0668167
0.0647385
0.0592037
0.0594698
0.061288
0.0627279
0.0625537
0.0612039
0.0611711
0.0611404
0.0611075
0.0610739
0.0610415
0.0610128
0.0609884
0.0609678
0.060948
0.0609289
0.0609115
0.060896
0.0608813
0.0608689
0.0608627
0.0608636
0.0608709
0.0608915
0.0609402
0.0610258
0.0611539
0.0613396
0.0616073
0.0619801
0.0624856
0.0631603
0.0640481
0.0651813
0.0665367
0.0681082
0.0698576
0.0717641
0.0736424
0.075175
0.0764205
0.0768513
0.0764123
0.0754347
0.0734366
0.0711652
0.0674626
0.0651254
0.0588081
0.0602279
0.0617526
0.0628968
0.06302
0.0630789
0.0632808
0.0612125
0.061188
0.0611639
0.061139
0.0611132
0.0610896
0.0610677
0.0610472
0.0610272
0.061008
0.0609906
0.0609744
0.0609595
0.0609501
0.0609509
0.060962
0.0609908
0.0610523
0.0611636
0.0613395
0.0615987
0.0619601
0.0624469
0.0630806
0.0638838
0.0648872
0.0661261
0.0676439
0.0694097
0.0712559
0.0731613
0.0750512
0.0769472
0.0783401
0.0788167
0.0789602
0.0775029
0.0751356
0.0722896
0.0679893
0.0650752
0.0582605
0.0607742
0.0620911
0.0631331
0.063399
0.0633898
0.0634262
0.0635882
0.063879
0.061216
0.0611955
0.0611742
0.0611534
0.0611329
0.0611147
0.0610975
0.0610805
0.0610641
0.0610493
0.0610362
0.0610259
0.0610257
0.0610481
0.0611013
0.0611971
0.061375
0.0616579
0.0620788
0.0626724
0.0634612
0.0644559
0.0656575
0.0670553
0.0686389
0.0704105
0.0723883
0.0746338
0.0768621
0.0786049
0.080101
0.0813671
0.0825186
0.081745
0.0797153
0.0780029
0.0727368
0.0684909
0.0633689
0.0567862
0.0603972
0.061929
0.0629256
0.0631321
0.0630031
0.0627988
0.0626242
0.062476
0.0623435
0.0622128
0.061221
0.0612059
0.0611895
0.0611733
0.0611578
0.0611428
0.0611282
0.0611149
0.0611047
0.0610995
0.0611029
0.061121
0.0611967
0.0613976
0.0617623
0.0623001
0.0631215
0.0642459
0.0657216
0.067572
0.069743
0.0721443
0.0746521
0.0771465
0.0795454
0.0818184
0.0839981
0.0863396
0.0873397
0.0869031
0.0865118
0.0862713
0.0859427
0.0780119
0.0729722
0.0697949
0.056008
0.0558917
0.0586957
0.060732
0.0619998
0.0618115
0.0615279
0.0611296
0.0606805
0.0601612
0.0595949
0.0589771
0.058321
0.0576477
0.0612201
0.0612042
0.0611891
0.0611765
0.0611682
0.0611659
0.0611726
0.0611927
0.061232
0.0612989
0.0614039
0.0615564
0.0622528
0.0638079
0.066103
0.0688248
0.0720917
0.0757751
0.0798801
0.0842765
0.0885808
0.0924439
0.0955996
0.0979374
0.0994686
0.100239
0.100324
0.10084
0.0931237
0.0876074
0.0849238
0.0842323
0.0829866
0.0500328
0.0522494
0.0550236
0.0578392
0.0599067
0.0600262
0.0597122
0.0593575
0.0588732
0.0583522
0.0577533
0.0571158
0.0564506
0.0557726
0.0551044
0.0544781
0.0539356
0.0612259
0.0612298
0.061248
0.0612869
0.0613527
0.0614528
0.061596
0.0617926
0.0620547
0.0623941
0.0628169
0.0633126
0.0704325
0.0827907
0.0945104
0.10533
0.111428
0.116045
0.120501
0.124179
0.12656
0.127618
0.127399
0.126009
0.123381
0.118967
0.112067
0.10941
0.0567524
0.0520081
0.0540976
0.0575566
0.06049
0.0624939
0.062813
0.0626629
0.0632375
0.063934
0.0646043
0.0652777
0.0659895
0.0667987
0.0677062
0.0687519
0.069949
0.0713068
0.072814
0.074447
0.0761487
0.077816
0.0620593
0.0628578
0.0636616
0.0644719
0.0652859
0.0661012
0.0669143
0.0677186
0.0684986
0.0692154
0.0697728
0.0699214
0.288064
0.553639
0.251286
0.226577
0.197341
0.186287
0.17632
0.169548
0.163435
0.158103
0.153102
0.148396
0.143869
0.13946
0.135101
0.131138
0.130125
0.136514
0.151613
0.167347
0.175029
0.17531
0.176294
0.180512
0.185074
0.189568
0.194063
0.198491
0.203047
0.20789
0.212872
0.218023
0.223293
0.228604
0.23385
0.238884
0.243522
0.247537
0.27115
0.267805
0.264601
0.261529
0.258572
0.255713
0.252937
0.250237
0.24761
0.245052
0.242561
0.240135
0.237771
0.235467
0.233222
0.231034
0.228901
0.226821
0.224792
0.222812
0.22088
0.218994
0.217152
0.215354
0.213598
0.211883
0.210208
0.208574
0.206978
0.205421
0.203901
0.202417
0.200969
0.199556
0.198175
0.196827
0.19551
0.194222
0.192963
0.191727
0.19051
0.189311
0.188128
0.186959
0.185801
0.184651
0.183503
0.182348
0.181163
0.179908
0.269204
0.26303
0.257136
0.251498
0.246108
0.240956
0.236034
0.231328
0.226822
0.222506
0.218366
0.214393
0.210577
0.206909
0.203382
0.199986
0.196715
0.193562
0.19052
0.187583
0.184745
0.181999
0.179342
0.176769
0.174277
0.17186
0.169517
0.167245
0.165041
0.162903
0.160827
0.158811
0.156851
0.154946
0.153091
0.151281
0.149515
0.147788
0.146096
0.144445
0.142833
0.14126
0.139725
0.138224
0.136758
0.135324
0.133923
0.132562
0.131244
0.129963
0.269196
0.263003
0.25707
0.251395
0.245965
0.240767
0.235785
0.231007
0.22642
0.222012
0.217772
0.213692
0.209762
0.205975
0.202323
0.1988
0.195398
0.192111
0.188933
0.185859
0.182883
0.179999
0.177205
0.174495
0.171865
0.169314
0.166837
0.164432
0.162097
0.159829
0.157626
0.155485
0.153404
0.15138
0.149412
0.147496
0.14563
0.143811
0.142038
0.140309
0.138622
0.136975
0.135368
0.133801
0.132271
0.130777
0.129313
0.127879
0.126485
0.125165
0.269197
0.263048
0.257169
0.251546
0.246163
0.241004
0.236054
0.2313
0.226731
0.222335
0.218104
0.214028
0.210099
0.20631
0.202654
0.199125
0.195715
0.192419
0.189231
0.186146
0.183158
0.180262
0.177455
0.174731
0.172089
0.169523
0.167033
0.164614
0.162265
0.159983
0.157766
0.155612
0.153518
0.151481
0.1495
0.14757
0.145691
0.14386
0.142074
0.140332
0.138632
0.136973
0.135354
0.133775
0.132236
0.130738
0.129278
0.127845
0.126435
0.125077
0.269197
0.263049
0.257168
0.251538
0.246146
0.240977
0.236018
0.231256
0.226679
0.222279
0.218044
0.213965
0.210036
0.206248
0.202594
0.199067
0.19566
0.192369
0.189185
0.186104
0.183121
0.180231
0.177428
0.17471
0.172072
0.169512
0.167026
0.164612
0.162267
0.15999
0.157777
0.155626
0.153535
0.151501
0.149523
0.147596
0.145719
0.14389
0.142106
0.140366
0.138668
0.13701
0.135392
0.133811
0.132268
0.130764
0.129302
0.127879
0.126479
0.125114
0.269197
0.263052
0.257178
0.251558
0.246177
0.24102
0.236073
0.231322
0.226757
0.222366
0.218139
0.214069
0.210146
0.206363
0.202713
0.19919
0.195787
0.192497
0.189315
0.186235
0.183253
0.180363
0.17756
0.174841
0.172203
0.169641
0.167154
0.164738
0.162392
0.160112
0.157896
0.155743
0.153649
0.151612
0.14963
0.1477
0.145819
0.143986
0.142199
0.140455
0.138753
0.137092
0.135471
0.133888
0.132342
0.13083
0.129357
0.127924
0.126523
0.125152
0.269197
0.263053
0.25718
0.251562
0.246181
0.241023
0.236073
0.23132
0.226751
0.222356
0.218126
0.214052
0.210126
0.20634
0.202688
0.199162
0.195757
0.192467
0.189284
0.186204
0.183222
0.180332
0.17753
0.174812
0.172174
0.169613
0.167127
0.164712
0.162366
0.160086
0.157871
0.155718
0.153625
0.151588
0.149606
0.147676
0.145795
0.143962
0.142175
0.140431
0.138729
0.137067
0.135445
0.133863
0.132319
0.130809
0.129333
0.127895
0.126492
0.125119
0.269197
0.263054
0.257182
0.251565
0.246186
0.24103
0.236083
0.231333
0.226767
0.222375
0.218148
0.214077
0.210153
0.20637
0.202721
0.199198
0.195795
0.192507
0.189326
0.186248
0.183268
0.180379
0.177579
0.174862
0.172225
0.169665
0.167178
0.164763
0.162417
0.160137
0.15792
0.155766
0.15367
0.151632
0.149648
0.147715
0.145833
0.143997
0.142207
0.140461
0.138756
0.137092
0.135466
0.13388
0.132331
0.130819
0.129341
0.127897
0.126487
0.125109
0.269197
0.263054
0.257183
0.251566
0.246188
0.241033
0.236086
0.231335
0.226768
0.222376
0.218147
0.214075
0.21015
0.206365
0.202715
0.19919
0.195787
0.192497
0.189316
0.186238
0.183257
0.180368
0.177567
0.17485
0.172212
0.169652
0.167166
0.16475
0.162403
0.160122
0.157905
0.15575
0.153653
0.151614
0.149628
0.147695
0.145811
0.143974
0.142183
0.140436
0.13873
0.137065
0.135439
0.133851
0.1323
0.130786
0.129306
0.12786
0.126447
0.125065
0.269197
0.263054
0.257183
0.251567
0.246189
0.241034
0.236088
0.231337
0.226771
0.222379
0.218151
0.214078
0.210154
0.20637
0.20272
0.199196
0.195794
0.192505
0.189325
0.186247
0.183267
0.180379
0.177579
0.174863
0.172226
0.169666
0.16718
0.164764
0.162417
0.160136
0.157918
0.155761
0.153664
0.151622
0.149635
0.1477
0.145815
0.143976
0.142183
0.140434
0.138726
0.13706
0.135432
0.133841
0.132288
0.13077
0.129288
0.127838
0.12642
0.125033
0.269197
0.263054
0.257183
0.251567
0.24619
0.241034
0.236088
0.231337
0.226771
0.222378
0.21815
0.214077
0.210153
0.206369
0.202718
0.199195
0.195792
0.192504
0.189324
0.186246
0.183267
0.180379
0.177579
0.174863
0.172227
0.169667
0.167181
0.164765
0.162417
0.160135
0.157916
0.155758
0.153659
0.151617
0.149628
0.147692
0.145804
0.143965
0.14217
0.140419
0.13871
0.137041
0.135411
0.133819
0.132264
0.130743
0.129258
0.127805
0.126383
0.124991
0.269197
0.263054
0.257183
0.251567
0.246189
0.241033
0.236087
0.231335
0.226768
0.222375
0.218145
0.214072
0.210146
0.206361
0.20271
0.199186
0.195782
0.192493
0.189313
0.186236
0.183256
0.180368
0.177568
0.174852
0.172216
0.169656
0.167169
0.164753
0.162404
0.160121
0.157902
0.155743
0.153643
0.151599
0.149609
0.147671
0.145783
0.143942
0.142146
0.140394
0.138684
0.137014
0.135383
0.133789
0.132232
0.13071
0.129222
0.127766
0.126341
0.124945
0.269197
0.263054
0.257183
0.251566
0.246188
0.241032
0.236085
0.231333
0.226766
0.222373
0.218145
0.214072
0.210147
0.206363
0.202713
0.19919
0.195788
0.1925
0.189321
0.186245
0.183266
0.18038
0.177581
0.174865
0.17223
0.16967
0.167183
0.164767
0.162418
0.160134
0.157913
0.155753
0.153652
0.151606
0.149615
0.147675
0.145785
0.143941
0.142144
0.140389
0.138677
0.137005
0.135371
0.133775
0.132215
0.13069
0.129197
0.127737
0.126307
0.124906
0.269197
0.263054
0.257181
0.251563
0.246183
0.241024
0.236075
0.23132
0.22675
0.222354
0.218122
0.214045
0.210118
0.206331
0.202678
0.199152
0.195748
0.192458
0.189277
0.1862
0.18322
0.180333
0.177533
0.174817
0.172181
0.169621
0.167134
0.164717
0.162368
0.160084
0.157863
0.155703
0.153601
0.151555
0.149563
0.147623
0.145732
0.143889
0.142091
0.140336
0.138624
0.136951
0.135317
0.133721
0.13216
0.130633
0.12914
0.127678
0.126245
0.124841
0.269197
0.263053
0.257179
0.25156
0.24618
0.241023
0.236075
0.231323
0.226756
0.222362
0.218133
0.21406
0.210135
0.206351
0.202701
0.199177
0.195774
0.192486
0.189307
0.18623
0.183251
0.180364
0.177564
0.174848
0.172211
0.169651
0.167162
0.164744
0.162393
0.160107
0.157884
0.155722
0.153617
0.151569
0.149574
0.147631
0.145737
0.143891
0.14209
0.140333
0.138617
0.136941
0.135304
0.133704
0.132139
0.130609
0.12911
0.127643
0.126205
0.124794
0.269197
0.26305
0.257169
0.25154
0.246149
0.24098
0.23602
0.231256
0.226678
0.222274
0.218037
0.213956
0.210024
0.206234
0.202579
0.199052
0.195647
0.192357
0.189176
0.186098
0.183119
0.180232
0.177434
0.174718
0.172083
0.169523
0.167036
0.16462
0.16227
0.159986
0.157764
0.155603
0.1535
0.151453
0.14946
0.147518
0.145626
0.143781
0.141981
0.140225
0.13851
0.136835
0.135199
0.1336
0.132036
0.130506
0.129007
0.127539
0.1261
0.124688
0.269197
0.263049
0.25717
0.251549
0.246166
0.241007
0.236056
0.231301
0.226729
0.22233
0.218096
0.214017
0.210085
0.206295
0.202638
0.199108
0.195699
0.192405
0.18922
0.186138
0.183154
0.180262
0.177459
0.174739
0.172098
0.169533
0.167042
0.16462
0.162266
0.159977
0.15775
0.155584
0.153477
0.151425
0.149428
0.147482
0.145586
0.143737
0.141934
0.140175
0.138458
0.136781
0.135143
0.133543
0.131978
0.130447
0.128949
0.127482
0.126046
0.124639
0.269197
0.263004
0.257072
0.251399
0.245969
0.24077
0.235788
0.231008
0.226418
0.222007
0.217764
0.213681
0.209749
0.20596
0.202307
0.198784
0.195383
0.192098
0.188923
0.185852
0.18288
0.180001
0.17721
0.174504
0.171878
0.169328
0.166851
0.164445
0.162107
0.159834
0.157624
0.155475
0.153385
0.151351
0.149373
0.147447
0.145571
0.143744
0.141964
0.140229
0.138538
0.13689
0.135283
0.133717
0.132191
0.130705
0.129258
0.127851
0.126488
0.125173
0.269205
0.263033
0.257142
0.251506
0.246117
0.240964
0.236042
0.231335
0.226829
0.22251
0.218369
0.214394
0.210576
0.206907
0.203379
0.199983
0.196714
0.193563
0.190525
0.187592
0.18476
0.182022
0.179373
0.176809
0.174325
0.171918
0.169585
0.167322
0.165127
0.162997
0.160931
0.158927
0.156983
0.155096
0.153266
0.15149
0.149766
0.148095
0.146474
0.144902
0.14338
0.141908
0.140485
0.139113
0.137794
0.136531
0.135328
0.134194
0.133146
0.132219
0.271147
0.267804
0.264603
0.261532
0.258576
0.255717
0.252939
0.250237
0.247607
0.245047
0.242554
0.240126
0.237762
0.235459
0.233216
0.23103
0.228899
0.226822
0.224795
0.222817
0.220886
0.219
0.217158
0.215357
0.213598
0.211878
0.210197
0.208555
0.206949
0.20538
0.203847
0.202347
0.200881
0.199447
0.198044
0.19667
0.195325
0.194006
0.192714
0.191446
0.190202
0.18898
0.187779
0.186597
0.185432
0.184282
0.183146
0.18202
0.180901
0.179786
0.132397
0.0623777
0.066091
0.0821075
0.10012
0.114171
0.120194
0.116846
0.106719
0.0957667
0.0870442
0.0786723
0.0759405
0.0717633
0.0670673
0.0616753
0.0569302
0.0533338
0.0788813
0.298676
0.131234
0.0620499
0.0664904
0.0828354
0.101038
0.115098
0.120938
0.117283
0.106884
0.0958543
0.0870845
0.0781983
0.0772212
0.0715127
0.0666497
0.0612584
0.0567334
0.0531197
0.0784086
0.300867
0.130081
0.0617341
0.0669031
0.0835726
0.10196
0.116025
0.121683
0.117731
0.107081
0.0959932
0.0871592
0.0776564
0.077279
0.0711653
0.0660991
0.0607338
0.0564834
0.0527914
0.0775506
0.30325
0.12892
0.0614475
0.0673281
0.0843174
0.102886
0.116951
0.122428
0.118193
0.107318
0.0961864
0.0872653
0.0769862
0.0754002
0.0707639
0.0653981
0.0601305
0.0561853
0.0523068
0.0761665
0.30593
0.127759
0.0611939
0.0677645
0.0850672
0.103811
0.117875
0.123175
0.118673
0.1076
0.0964395
0.0874162
0.0762772
0.0745678
0.0706618
0.0645507
0.0594794
0.0558375
0.0516041
0.0749508
0.308832
0.126598
0.0609766
0.0682108
0.08582
0.104735
0.118793
0.123923
0.119176
0.107936
0.0967577
0.0876078
0.0755452
0.0730332
0.0700131
0.0635201
0.0587891
0.0554168
0.050592
0.0749237
0.311768
0.125437
0.0607988
0.0686658
0.0865736
0.105652
0.119703
0.124673
0.119706
0.108331
0.0971459
0.087847
0.0748498
0.0758446
0.0684366
0.0623537
0.058055
0.0548759
0.0491774
0.0763084
0.314734
0.124277
0.0606641
0.069128
0.0873259
0.106562
0.120604
0.125425
0.120267
0.108794
0.097606
0.0881147
0.0740891
0.0777976
0.0666533
0.0611805
0.0572556
0.0541429
0.0477107
0.0791872
0.317724
0.123117
0.0605767
0.0695967
0.0880747
0.107459
0.121493
0.126179
0.12086
0.109328
0.0981482
0.0884127
0.0732798
0.0735357
0.0649475
0.0599664
0.0563435
0.0531203
0.0470584
0.0834793
0.320722
0.121956
0.0605435
0.0700771
0.0888318
0.108352
0.122357
0.126887
0.121423
0.109923
0.0988352
0.0886946
0.0725131
0.0667677
0.0631289
0.0586859
0.0552523
0.0517087
0.0476416
0.0891641
0.323717
0.120752
0.0606749
0.0706092
0.0896091
0.109218
0.123159
0.127553
0.122025
0.110637
0.0996436
0.0890843
0.0720012
0.0613424
0.0603222
0.0571085
0.0538139
0.0498119
0.0498058
0.0961628
0.326694
0.119549
0.0608552
0.07112
0.0903565
0.110061
0.123963
0.128261
0.122709
0.111451
0.100557
0.0896834
0.0721034
0.059611
0.0583259
0.0552357
0.0519515
0.0478523
0.0537246
0.104363
0.329637
0.118373
0.0610299
0.0716048
0.0910688
0.110878
0.124769
0.129014
0.123479
0.11237
0.101586
0.0904621
0.0718948
0.0489174
0.055576
0.0528786
0.049617
0.0472184
0.0592065
0.113607
0.332529
0.117228
0.0611967
0.0720587
0.0917406
0.111665
0.125577
0.129816
0.124338
0.113399
0.102759
0.0915339
0.0721912
0.0422614
0.0520954
0.0502018
0.0477952
0.0484461
0.0661311
0.123707
0.335351
0.116114
0.0613529
0.0724764
0.0923653
0.112418
0.126389
0.130668
0.125289
0.114528
0.10404
0.0928658
0.0737998
0.0445821
0.0489479
0.0480885
0.0473759
0.0517344
0.0743161
0.134446
0.338087
0.115035
0.0614956
0.0728516
0.0929363
0.113132
0.127201
0.131579
0.126347
0.115783
0.105473
0.0944722
0.0761255
0.0501412
0.0473123
0.0474529
0.0489165
0.0569854
0.0835313
0.145588
0.34072
0.113992
0.0616221
0.0731775
0.0934458
0.1138
0.128011
0.132543
0.127509
0.117167
0.107066
0.0963604
0.0787432
0.0544185
0.0479567
0.0488876
0.0525473
0.0639171
0.0935155
0.156891
0.343233
0.112987
0.0617294
0.0734472
0.0938848
0.114417
0.128817
0.133567
0.128781
0.118682
0.108823
0.0985544
0.081902
0.0593115
0.0510415
0.0524991
0.058075
0.0721627
0.103997
0.168125
0.345612
0.112023
0.0618139
0.0736527
0.0942425
0.114971
0.129613
0.13465
0.130172
0.12034
0.110748
0.101055
0.0856425
0.0650895
0.0562537
0.058028
0.0651333
0.0813334
0.114713
0.179089
0.347842
0.111101
0.0618725
0.0737862
0.0945079
0.115451
0.13039
0.13579
0.131686
0.122152
0.112842
0.103839
0.0899004
0.0716249
0.0630554
0.0650353
0.0732968
0.0910595
0.125424
0.189615
0.349909
0.110225
0.0619021
0.0738392
0.0946691
0.115846
0.13114
0.136982
0.133326
0.124125
0.115102
0.106862
0.0945535
0.0786588
0.0708701
0.0730393
0.0821498
0.101014
0.135926
0.199575
0.351802
0.109396
0.0618997
0.0738027
0.094712
0.116141
0.131851
0.138221
0.135094
0.126264
0.117518
0.110064
0.099461
0.0859317
0.0791926
0.0815952
0.0913255
0.110927
0.146052
0.20888
0.353511
0.108618
0.061863
0.0736676
0.0946217
0.116318
0.132506
0.139496
0.136988
0.128575
0.120084
0.113382
0.104482
0.0932195
0.0876321
0.0903339
0.100524
0.120587
0.155679
0.217474
0.355026
0.107895
0.0617903
0.073425
0.0943821
0.116358
0.133087
0.140793
0.139003
0.131065
0.122798
0.116762
0.10949
0.100345
0.0959131
0.0989741
0.109516
0.129839
0.164722
0.225335
0.35634
0.10723
0.0616803
0.0730661
0.0939757
0.116236
0.133569
0.142093
0.14113
0.133738
0.125667
0.120168
0.11439
0.107185
0.103858
0.107319
0.118141
0.13858
0.173128
0.232463
0.357448
0.106628
0.0615324
0.0725822
0.0933828
0.115926
0.133924
0.143372
0.143355
0.136599
0.128707
0.123584
0.119119
0.113661
0.111364
0.115243
0.126295
0.146751
0.180878
0.238878
0.358345
0.106094
0.0613475
0.0719653
0.092582
0.115395
0.134115
0.144597
0.145659
0.139649
0.131942
0.127023
0.123648
0.119742
0.118385
0.122681
0.133926
0.154326
0.187977
0.244615
0.359029
0.105633
0.0611282
0.0712084
0.09155
0.114607
0.134098
0.145727
0.148013
0.142887
0.135402
0.130517
0.127977
0.125426
0.124918
0.129614
0.141019
0.161314
0.194447
0.249719
0.359496
0.105252
0.0608786
0.070307
0.0902627
0.113518
0.133818
0.146706
0.150378
0.146301
0.139121
0.134125
0.132136
0.130739
0.130992
0.136055
0.147591
0.167741
0.20033
0.254244
0.359747
0.104957
0.0606048
0.0692598
0.0886959
0.11208
0.13321
0.147466
0.152699
0.14987
0.143132
0.137925
0.136182
0.135728
0.13666
0.142049
0.153683
0.173657
0.20568
0.25825
0.359779
0.104757
0.0603159
0.0680709
0.0868276
0.110238
0.132196
0.14792
0.1549
0.153554
0.147456
0.142012
0.140207
0.14046
0.141997
0.147657
0.159355
0.179124
0.210561
0.261799
0.359591
0.104659
0.0600238
0.0667513
0.08464
0.107934
0.130683
0.147959
0.156878
0.157284
0.152097
0.146486
0.14434
0.14502
0.14709
0.15296
0.164683
0.184216
0.215044
0.264958
0.359181
0.104671
0.0597439
0.0653218
0.0821249
0.105109
0.128567
0.147448
0.158497
0.160958
0.157027
0.151442
0.148743
0.149522
0.152042
0.158052
0.169755
0.189017
0.219209
0.267793
0.358544
0.104801
0.0594944
0.0638152
0.0792894
0.101709
0.12573
0.146224
0.159577
0.16442
0.162169
0.156942
0.15361
0.154116
0.156966
0.163038
0.174667
0.193619
0.223142
0.27037
0.357671
0.105057
0.0592954
0.0622782
0.0761643
0.097696
0.12205
0.144095
0.15989
0.167452
0.16737
0.162988
0.159141
0.159005
0.161985
0.168034
0.179527
0.198123
0.226936
0.272758
0.35655
0.105444
0.0591679
0.0607711
0.0728132
0.0930592
0.117411
0.140846
0.159151
0.169749
0.17238
0.16948
0.165497
0.164456
0.167142
0.173173
0.184458
0.202641
0.230688
0.27502
0.355161
0.105969
0.0591311
0.0593651
0.0693422
0.0878368
0.111724
0.136249
0.15702
0.170914
0.176814
0.176154
0.172713
0.170922
0.172748
0.178619
0.189603
0.207299
0.234501
0.277213
0.353478
0.106633
0.0592001
0.0581348
0.0659038
0.0821405
0.104958
0.130095
0.153116
0.170446
0.180138
0.182539
0.180484
0.178423
0.1797
0.184589
0.195131
0.212231
0.238466
0.279373
0.35146
0.107436
0.0593834
0.0571461
0.0626911
0.0761826
0.0971818
0.122236
0.147056
0.167758
0.181658
0.187987
0.188376
0.186677
0.187059
0.191301
0.201209
0.217554
0.242645
0.281503
0.349054
0.108375
0.0596817
0.0564426
0.0599115
0.0702939
0.0886265
0.112654
0.138511
0.162212
0.180495
0.191549
0.195657
0.195561
0.195547
0.198914
0.207961
0.223333
0.247044
0.283555
0.346188
0.109443
0.0600878
0.0560345
0.0577406
0.0649069
0.079741
0.101568
0.127328
0.153216
0.175647
0.191948
0.20105
0.204183
0.204826
0.207286
0.215384
0.229532
0.251585
0.285421
0.342764
0.11063
0.0605881
0.0558953
0.0562676
0.0604756
0.071223
0.0895446
0.113694
0.140418
0.166142
0.187655
0.202748
0.211033
0.214426
0.216753
0.223276
0.235968
0.256076
0.286915
0.338652
0.111924
0.0611665
0.0559699
0.0554635
0.0573226
0.0639391
0.0775997
0.0983428
0.12398
0.151358
0.177139
0.198344
0.213127
0.221553
0.22615
0.231185
0.242268
0.260195
0.287765
0.333676
0.113309
0.0618071
0.0561915
0.0551951
0.0554924
0.0586421
0.067148
0.0827421
0.104937
0.131534
0.159587
0.185923
0.207697
0.223098
0.232296
0.238244
0.247833
0.263461
0.287596
0.327595
0.114768
0.0624966
0.0564984
0.0552817
0.0547385
0.0555718
0.0595673
0.0690634
0.0854518
0.108193
0.135334
0.164199
0.191813
0.215301
0.232587
0.243573
0.251791
0.265208
0.285909
0.320075
0.116282
0.0632253
0.0568465
0.0555583
0.0546703
0.0543163
0.0553702
0.0595064
0.0688353
0.0847309
0.106966
0.134027
0.16368
0.193191
0.219572
0.240157
0.253841
0.264487
0.282009
0.310633
0.117833
0.0639857
0.0572104
0.0559131
0.0549376
0.0541402
0.0538211
0.0547288
0.0582188
0.066145
0.080044
0.100283
0.126079
0.155847
0.187305
0.217448
0.242662
0.259754
0.274851
0.298522
0.119402
0.0647715
0.0575788
0.0562886
0.0553246
0.0544278
0.0536665
0.0532891
0.0537941
0.056124
0.0616927
0.0720596
0.0883417
0.110863
0.139222
0.172322
0.208068
0.242776
0.262628
0.282551
0.120971
0.0655761
0.0579478
0.0566631
0.0557358
0.0548519
0.0540065
0.0532878
0.0528417
0.0529781
0.0542343
0.0574226
0.0636181
0.0740481
0.0900177
0.112923
0.144168
0.184793
0.234722
0.261829
0.122522
0.0663922
0.0583162
0.0570311
0.0561418
0.0552952
0.0544599
0.0536834
0.0530127
0.0525689
0.0525658
0.0533306
0.0552977
0.0589115
0.0645242
0.0724198
0.0831394
0.098574
0.125772
0.200732
0.12404
0.0672122
0.0586838
0.0573917
0.0565364
0.055729
0.0549221
0.0541532
0.0534343
0.0528232
0.0524284
0.0524441
0.0531915
0.0550994
0.0586231
0.0640934
0.0715674
0.0808086
0.0914018
0.103202
0.125512
0.0680285
0.0590505
0.0577458
0.0569188
0.0561479
0.0553708
0.0546251
0.0539069
0.0532461
0.0526941
0.052356
0.0524421
0.0533107
0.0554911
0.0596332
0.0663538
0.0760752
0.0890398
0.106256
0.126925
0.0688332
0.0594154
0.058094
0.0572902
0.0565517
0.0558014
0.055081
0.0543784
0.0537129
0.0531062
0.0526119
0.0523533
0.0525834
0.0537713
0.0566772
0.0623465
0.0719433
0.0865823
0.108656
0.128271
0.0696197
0.0597782
0.0584369
0.0576512
0.0569419
0.0562148
0.0555173
0.0548322
0.0541769
0.0535572
0.0529998
0.0525744
0.0524407
0.0529668
0.0548702
0.0594283
0.0684706
0.0841407
0.110386
0.129543
0.070382
0.0601385
0.0587753
0.0580036
0.0573199
0.0566129
0.0559358
0.0552664
0.0546238
0.0540066
0.0534264
0.0529241
0.0525917
0.0527022
0.053859
0.0574002
0.0656507
0.0818727
0.111717
0.130737
0.0711154
0.0604956
0.0591095
0.0583494
0.057688
0.056997
0.0563378
0.0556833
0.0550513
0.0544414
0.053855
0.0533187
0.0528795
0.0527379
0.0533635
0.0560503
0.0634165
0.0798397
0.112786
0.131851
0.0718171
0.0608502
0.0594399
0.0586892
0.0580488
0.0573711
0.056726
0.0560853
0.0554619
0.0548604
0.0542726