/*--------------------------------*- C++ -*----------------------------------*\
  =========                 |
  \\      /  F ield         | OpenFOAM: The Open Source CFD Toolbox
   \\    /   O peration     | Website:  https://openfoam.org
    \\  /    A nd           | Version:  8
     \\/     M anipulation  |
\*---------------------------------------------------------------------------*/
FoamFile
{
    version     2.0;
    format      ascii;
    class       volScalarField;
    location    "400";
    object      epsilon;
}
// * * * * * * * * * * * * * * * * * * * * * * * * * * * * * * * * * * * * * //

dimensions      [0 2 -3 0 0 0 0];

internalField   nonuniform List<scalar> 
8400
(
0.174923
0.164878
0.155264
0.146066
0.13727
0.12886
0.120825
0.113171
0.105904
0.09903
0.0925488
0.0864571
0.0807477
0.0754106
0.070434
0.0658046
0.0615078
0.0575281
0.0538489
0.0504535
0.047325
0.0444468
0.0418022
0.039375
0.0371496
0.035111
0.0332446
0.0315372
0.0299763
0.0285503
0.027249
0.0260624
0.0249816
0.0239987
0.023106
0.022296
0.0215624
0.0208986
0.0202977
0.0197541
0.0192613
0.0188115
0.0183992
0.0180171
0.0176594
0.0173214
0.0170021
0.0167222
0.0167687
0.0169175
0.015967
0.0157607
0.0155377
0.0153139
0.0150986
0.0149003
0.014727
0.0145751
0.0144414
0.0143212
0.0142121
0.0141117
0.0140186
0.0139321
0.013852
0.0137784
0.0137116
0.0136518
0.0135991
0.0135539
0.0135164
0.013487
0.013466
0.0134535
0.0134499
0.0134554
0.0134701
0.0134945
0.0135288
0.0135736
0.0136293
0.0136966
0.013776
0.013868
0.0139732
0.0140923
0.0142259
0.0143741
0.0145357
0.0147109
0.0148992
0.0150957
0.0152976
0.0155014
0.0157052
0.0159016
0.0160829
0.0162515
0.016351
0.0164301
0.0130592
0.0130055
0.0129524
0.0129004
0.0128499
0.0128013
0.0127549
0.0127111
0.0126702
0.0126324
0.0125981
0.0125675
0.0125409
0.0125185
0.0125006
0.0124875
0.0124794
0.0124764
0.0124785
0.012486
0.012499
0.0125177
0.0125421
0.0125724
0.012609
0.0126522
0.0127025
0.0127604
0.0128268
0.0129027
0.0129892
0.0130869
0.0131972
0.013322
0.013463
0.0136209
0.0137975
0.0139941
0.0142101
0.0144437
0.0146948
0.0149584
0.015231
0.0155042
0.0157731
0.0160248
0.0162547
0.0164332
0.0165809
0.0167112
0.011952
0.0119398
0.0119287
0.0119189
0.0119108
0.0119045
0.0119
0.0118977
0.0118976
0.0119001
0.0119053
0.0119133
0.0119242
0.011938
0.0119548
0.0119746
0.0119973
0.0120231
0.0120518
0.0120836
0.0121183
0.012156
0.0121968
0.0122412
0.0122894
0.0123422
0.0124001
0.0124645
0.0125363
0.0126166
0.0127072
0.0128104
0.0129282
0.0130632
0.0132181
0.0133951
0.0135967
0.0138249
0.0140785
0.0143545
0.0146539
0.0149688
0.0152941
0.0156165
0.0159293
0.016203
0.0164448
0.0166704
0.0168701
0.0170484
0.0114179
0.0114338
0.011451
0.0114695
0.0114893
0.0115105
0.0115331
0.0115574
0.0115833
0.011611
0.0116405
0.0116718
0.0117048
0.0117393
0.0117752
0.0118125
0.011851
0.0118906
0.0119312
0.0119726
0.0120148
0.0120578
0.012102
0.0121478
0.0121958
0.0122468
0.0123015
0.0123612
0.0124276
0.0125031
0.0125896
0.0126898
0.0128072
0.0129462
0.0131104
0.0133018
0.0135224
0.0137776
0.0140675
0.0143834
0.0147265
0.0150836
0.0154503
0.015811
0.016134
0.0164404
0.0167336
0.0170044
0.0172477
0.0174617
0.0111654
0.0112013
0.0112383
0.0112766
0.011316
0.0113564
0.0113979
0.0114404
0.0114841
0.0115288
0.0115745
0.0116209
0.0116677
0.0117149
0.0117622
0.0118093
0.011856
0.011902
0.0119471
0.0119913
0.0120345
0.0120772
0.0121197
0.0121621
0.0122051
0.0122497
0.0122974
0.0123496
0.0124079
0.0124752
0.0125551
0.0126512
0.0127684
0.0129114
0.0130856
0.0132932
0.0135353
0.0138197
0.0141483
0.014504
0.0148924
0.0152862
0.015671
0.016059
0.0164424
0.0168085
0.0171508
0.0174617
0.0177363
0.0179745
0.0110695
0.0111201
0.0111724
0.0112261
0.011281
0.0113366
0.011393
0.01145
0.0115072
0.0115644
0.0116214
0.0116779
0.0117337
0.0117884
0.0118416
0.0118929
0.011942
0.0119888
0.0120332
0.0120754
0.0121157
0.0121542
0.0121912
0.0122274
0.0122635
0.0123002
0.0123389
0.0123821
0.0124325
0.0124936
0.0125691
0.0126633
0.0127821
0.012931
0.0131198
0.0133496
0.0136213
0.0139429
0.0143137
0.0147036
0.0151214
0.0155653
0.0160202
0.0164741
0.0169152
0.0173331
0.0177164
0.0180543
0.0183422
0.0185805
0.011203
0.0112486
0.0113
0.0113555
0.0114138
0.011474
0.0115351
0.0115966
0.0116577
0.0117178
0.0117767
0.0118342
0.0118898
0.011943
0.0119933
0.0120405
0.0120844
0.0121251
0.0121626
0.0121972
0.0122295
0.0122597
0.0122884
0.0123158
0.012343
0.0123711
0.0124032
0.0124401
0.0124852
0.0125425
0.0126138
0.0127079
0.0128344
0.0129984
0.0132141
0.013472
0.0137776
0.014136
0.0145486
0.0150105
0.0155104
0.0160342
0.0165664
0.0170906
0.017588
0.0180409
0.0184369
0.0187667
0.0190298
0.0192255
0.0117143
0.0117042
0.0117179
0.0117433
0.0117758
0.0118135
0.011855
0.0118989
0.0119439
0.0119893
0.0120342
0.0120778
0.012119
0.0121572
0.0121931
0.012227
0.0122582
0.0122859
0.0123102
0.0123321
0.0123525
0.0123718
0.0123905
0.0124093
0.0124288
0.012449
0.0124746
0.0125061
0.0125463
0.0126044
0.012681
0.0127854
0.0129274
0.0131144
0.0133541
0.0136583
0.0140306
0.0144711
0.0149758
0.015536
0.0161358
0.0167524
0.0173622
0.0179389
0.0184636
0.0189144
0.0192774
0.0195413
0.0197134
0.0197996
0.0124559
0.0123437
0.0123019
0.0122792
0.0122652
0.0122585
0.0122595
0.0122687
0.0122839
0.0123031
0.0123235
0.0123417
0.0123587
0.0123756
0.0123934
0.0124108
0.0124256
0.0124361
0.0124443
0.0124539
0.0124659
0.0124768
0.0124858
0.0124949
0.0125061
0.0125216
0.0125443
0.0125769
0.0126219
0.0126848
0.0127745
0.0129018
0.0130792
0.0133172
0.0136249
0.014013
0.014486
0.015042
0.0156699
0.0163523
0.0170621
0.0177651
0.0184331
0.0190266
0.0195217
0.0198902
0.0201212
0.0202099
0.0201847
0.020047
0.0130192
0.0128551
0.0127673
0.0127129
0.0126682
0.0126286
0.012597
0.0125778
0.0125682
0.0125634
0.01256
0.0125561
0.0125535
0.0125539
0.0125554
0.0125559
0.0125546
0.0125532
0.012554
0.0125574
0.0125617
0.0125658
0.0125704
0.012578
0.0125895
0.0126077
0.0126337
0.0126712
0.0127279
0.0128129
0.012937
0.0131126
0.0133548
0.0136785
0.0140962
0.0146158
0.015238
0.0159512
0.0167317
0.0175501
0.018363
0.0191176
0.0197737
0.0202807
0.0206159
0.0207542
0.0206839
0.0204269
0.020043
0.0194619
0.013119
0.0130644
0.0130146
0.0129679
0.0129234
0.0128824
0.0128462
0.0128148
0.0127879
0.0127649
0.0127447
0.012728
0.012715
0.0127047
0.0126954
0.0126865
0.0126787
0.0126732
0.0126698
0.0126676
0.0126664
0.0126668
0.0126695
0.0126769
0.0126898
0.0127112
0.0127472
0.0128045
0.012892
0.0130226
0.0132121
0.0134774
0.0138368
0.0143066
0.0148973
0.015609
0.0164345
0.0173445
0.0182902
0.0192208
0.020064
0.0207495
0.0212299
0.021455
0.0213978
0.0210772
0.0204335
0.0195921
0.0185745
0.0167529
0.0131413
0.0131105
0.0130805
0.0130513
0.0130228
0.0129953
0.0129689
0.0129438
0.0129198
0.0128975
0.0128774
0.0128595
0.0128435
0.0128288
0.012815
0.0128027
0.0127923
0.0127834
0.0127759
0.0127699
0.0127663
0.0127659
0.0127703
0.0127822
0.0128065
0.0128479
0.0129145
0.0130182
0.0131738
0.0133997
0.0137165
0.0141446
0.0147024
0.0154046
0.0162533
0.0172282
0.0183025
0.0194075
0.02045
0.0213592
0.0220223
0.0223722
0.0223523
0.021986
0.0211721
0.0201527
0.01855
0.0169747
0.016074
0.0156425
0.0131499
0.0131287
0.0131075
0.0130867
0.0130664
0.0130465
0.0130268
0.0130075
0.0129887
0.0129709
0.0129542
0.0129385
0.0129235
0.0129093
0.0128962
0.0128844
0.0128739
0.0128649
0.012858
0.0128542
0.0128549
0.0128631
0.0128833
0.0129201
0.012981
0.0130768
0.0132217
0.0134338
0.0137356
0.0141531
0.0147097
0.0154221
0.0162996
0.0173464
0.0185382
0.019803
0.0210829
0.0222345
0.0231044
0.0236337
0.0236466
0.0232164
0.0221761
0.0209546
0.0189722
0.0175007
0.0166255
0.0161524
0.0157891
0.0154964
0.0131555
0.0131398
0.013124
0.0131081
0.0130924
0.0130766
0.0130609
0.0130454
0.0130302
0.0130156
0.0130015
0.0129878
0.0129748
0.0129626
0.0129514
0.0129416
0.0129341
0.0129302
0.0129317
0.0129418
0.0129659
0.0130101
0.0130826
0.0131952
0.0133621
0.0136003
0.0139317
0.0143829
0.0149866
0.015774
0.016755
0.017922
0.0192546
0.0207312
0.0222447
0.0236142
0.0247757
0.0254459
0.0254722
0.0249364
0.0234965
0.0219266
0.019309
0.01788
0.0169684
0.0164574
0.0161167
0.0158268
0.0155816
0.0153994
0.0131575
0.013144
0.0131306
0.0131173
0.0131043
0.0130914
0.0130787
0.0130662
0.013054
0.0130423
0.0130309
0.0130201
0.0130101
0.0130012
0.0129948
0.0129937
0.0130002
0.0130191
0.0130588
0.013128
0.0132392
0.0134076
0.0136504
0.0139872
0.0144394
0.0150308
0.0157885
0.0167445
0.0179403
0.0193889
0.0210223
0.0227546
0.0245187
0.0262708
0.027598
0.0282338
0.0283207
0.0272296
0.025333
0.0230228
0.0193677
0.0177878
0.0168881
0.0163584
0.0159909
0.015671
0.0153722
0.0150871
0.0148158
0.0145594
0.0131609
0.0131507
0.0131404
0.0131303
0.0131201
0.0131099
0.0130999
0.01309
0.0130804
0.0130713
0.0130633
0.0130569
0.0130532
0.0130538
0.0130695
0.0131128
0.0131936
0.0133284
0.0135413
0.0138525
0.014292
0.0148866
0.0156625
0.0166409
0.0178378
0.019265
0.0209328
0.0228518
0.0250594
0.027391
0.0294998
0.0312341
0.0326376
0.0337583
0.032698
0.0304944
0.0279763
0.0230356
0.0193103
0.0173179
0.0162792
0.0157395
0.0152904
0.0148963
0.0145208
0.0141457
0.0137582
0.0133529
0.012924
0.0124701
0.0131601
0.0131493
0.013139
0.0131294
0.0131207
0.0131131
0.0131073
0.0131038
0.0131036
0.0131084
0.0131201
0.0131415
0.0131766
0.0132297
0.0134142
0.0137593
0.0143083
0.0150731
0.0161039
0.0174199
0.019076
0.0210952
0.0234766
0.026185
0.0291563
0.0323056
0.0355282
0.0386821
0.0417998
0.0432467
0.0426765
0.0411398
0.0396155
0.0384522
0.0275756
0.0214772
0.0180339
0.0162199
0.0152963
0.0146607
0.01413
0.0136665
0.0132379
0.0128339
0.0124336
0.0120279
0.011614
0.0111928
0.0107698
0.0103547
0.0131642
0.0131629
0.0131663
0.0131759
0.0131933
0.0132202
0.0132587
0.0133114
0.0133821
0.0134752
0.0135961
0.0137509
0.0139454
0.0141824
0.0159457
0.018307
0.0219703
0.0263292
0.0312775
0.0367581
0.0427677
0.0490933
0.055473
0.0615831
0.067083
0.0716154
0.0747002
0.0753825
0.074866
0.0571613
0.0384323
0.0282541
0.0231057
0.020405
0.0188178
0.0177169
0.016853
0.01629
0.0159683
0.0158204
0.0158053
0.0158999
0.0160971
0.0163949
0.0168035
0.0173367
0.0180132
0.0188535
0.0198766
0.0210906
0.0136867
0.0142255
0.0147834
0.0153606
0.0159573
0.0165741
0.0172114
0.0178698
0.018549
0.0192473
0.0199601
0.0206736
0.0213508
0.0219192
0.0773483
0.107022
0.146464
0.171558
0.193368
0.207045
0.21565
0.218917
0.218088
0.213823
0.207005
0.198351
0.188483
0.177865
0.166839
0.157222
0.152571
0.157607
0.172601
0.191351
0.207101
0.22081
0.23541
0.251328
0.26853
0.286836
0.306196
0.326874
0.34925
0.373596
0.400369
0.429929
0.462504
0.498146
0.536592
0.577145
1.14672
1.10488
1.06577
1.02911
0.9946
0.961964
0.93094
0.901412
0.873281
0.846463
0.820881
0.796465
0.773148
0.75087
0.729571
0.709199
0.689703
0.671036
0.653154
0.636016
0.619587
0.60383
0.588714
0.57421
0.560287
0.546919
0.53408
0.521744
0.509886
0.498481
0.487507
0.476942
0.466765
0.456958
0.447502
0.438383
0.429587
0.421103
0.412919
0.404993
0.3973
0.389824
0.38255
0.375459
0.368529
0.361731
0.355025
0.348347
0.341594
0.334566
1.12226
1.04694
0.978232
0.91534
0.85776
0.805005
0.756667
0.712291
0.671476
0.633867
0.59915
0.567048
0.537312
0.509724
0.484087
0.460226
0.437987
0.417229
0.397829
0.379677
0.362673
0.346727
0.331758
0.317692
0.304462
0.292005
0.280264
0.269185
0.25872
0.248822
0.239449
0.230562
0.222126
0.214108
0.206477
0.199206
0.192269
0.185644
0.179308
0.173266
0.167509
0.162021
0.156787
0.151791
0.147018
0.142454
0.138081
0.133882
0.129835
0.125919
1.12216
1.04659
0.977436
0.914173
0.856219
0.803057
0.754213
0.709262
0.667823
0.62956
0.594172
0.561393
0.530986
0.502739
0.47646
0.45198
0.429148
0.407825
0.387891
0.369234
0.351755
0.335365
0.319982
0.305532
0.291945
0.279161
0.26712
0.255769
0.245058
0.234941
0.225377
0.216326
0.207753
0.199626
0.191918
0.184601
0.177652
0.17105
0.164773
0.158805
0.153127
0.147724
0.14258
0.137683
0.133018
0.128574
0.124341
0.120309
0.116463
0.112781
1.12216
1.04713
0.978557
0.915809
0.858274
0.80542
0.756784
0.711954
0.670569
0.632306
0.596879
0.564032
0.533534
0.505181
0.478787
0.454186
0.431228
0.409779
0.389718
0.370937
0.353337
0.336829
0.321332
0.306771
0.293079
0.280193
0.268055
0.256611
0.245812
0.235613
0.225971
0.216848
0.208208
0.200018
0.192251
0.184878
0.177877
0.171225
0.164902
0.158889
0.15317
0.147728
0.142548
0.137615
0.132916
0.128437
0.124166
0.120097
0.116221
0.112518
1.12216
1.04714
0.978542
0.91572
0.858093
0.805148
0.756431
0.711539
0.67011
0.631823
0.596388
0.563546
0.533065
0.504735
0.478371
0.453803
0.430881
0.409468
0.389444
0.370699
0.353134
0.336658
0.321192
0.30666
0.292995
0.280133
0.268017
0.256594
0.245815
0.235632
0.226006
0.216896
0.208269
0.200091
0.192334
0.184971
0.177978
0.171333
0.165016
0.159009
0.153293
0.147854
0.142675
0.137743
0.133045
0.128566
0.124292
0.120212
0.116322
0.112606
1.12216
1.04718
0.978661
0.915937
0.858416
0.805577
0.756959
0.712155
0.6708
0.632572
0.597183
0.564374
0.533914
0.505597
0.479236
0.454664
0.431732
0.410306
0.390263
0.371496
0.353907
0.337406
0.321913
0.307353
0.29366
0.28077
0.268626
0.257176
0.246369
0.23616
0.226507
0.217373
0.208722
0.200521
0.192742
0.185357
0.178344
0.17168
0.165344
0.159317
0.153583
0.148125
0.142927
0.137974
0.133255
0.128756
0.124463
0.120363
0.116448
0.112707
1.12216
1.04719
0.978684
0.915968
0.858445
0.805594
0.756957
0.712128
0.670748
0.632494
0.597082
0.564252
0.533776
0.505445
0.479074
0.454496
0.43156
0.410131
0.390089
0.371324
0.353737
0.337239
0.321749
0.307194
0.293505
0.28062
0.268481
0.257035
0.246233
0.236029
0.226383
0.217254
0.208608
0.200414
0.19264
0.185262
0.178255
0.171596
0.165265
0.159243
0.153513
0.148058
0.142862
0.137911
0.13319
0.128688
0.124392
0.120288
0.116367
0.112618
1.12216
1.04719
0.978701
0.916001
0.858496
0.805665
0.75705
0.712243
0.670886
0.632655
0.597264
0.564455
0.533997
0.505682
0.479324
0.454757
0.431829
0.410406
0.390367
0.371602
0.354014
0.337513
0.322019
0.307457
0.29376
0.280866
0.268717
0.257261
0.246449
0.236235
0.226577
0.217438
0.208783
0.200578
0.192796
0.185408
0.178392
0.171723
0.165383
0.159351
0.153611
0.148145
0.142938
0.137975
0.133242
0.128725
0.124413
0.120294
0.116356
0.112589
1.12216
1.04719
0.978706
0.916011
0.85851
0.805681
0.757066
0.712257
0.670896
0.63266
0.597263
0.564448
0.533983
0.505662
0.479299
0.454726
0.431793
0.410365
0.390321
0.371552
0.35396
0.337455
0.321957
0.307391
0.293691
0.280794
0.268642
0.257184
0.246369
0.236154
0.226496
0.217356
0.208701
0.200497
0.192715
0.185329
0.178313
0.171646
0.165307
0.159276
0.153535
0.148068
0.142859
0.137894
0.133157
0.128635
0.124317
0.12019
0.116244
0.112468
1.12216
1.04719
0.978708
0.916015
0.858516
0.805691
0.757078
0.712274
0.670916
0.632686
0.597294
0.564485
0.534026
0.505711
0.479354
0.454786
0.431857
0.410433
0.390391
0.371624
0.354032
0.337527
0.322027
0.307458
0.293755
0.280854
0.268698
0.257235
0.246416
0.236196
0.226534
0.21739
0.208731
0.200523
0.192738
0.185348
0.178329
0.171659
0.165315
0.15928
0.153534
0.148061
0.142845
0.137872
0.133126
0.128595
0.124266
0.120127
0.116168
0.112379
1.12216
1.04719
0.978707
0.916013
0.858514
0.805687
0.757074
0.71227
0.670913
0.632683
0.597293
0.564485
0.534029
0.505716
0.47936
0.454794
0.431866
0.410443
0.390402
0.371634
0.354041
0.337534
0.322031
0.30746
0.293753
0.280849
0.268689
0.257223
0.2464
0.236177
0.226512
0.217366
0.208704
0.200494
0.192707
0.185316
0.178295
0.171622
0.165276
0.159238
0.153489
0.148012
0.142791
0.137811
0.133058
0.128518
0.12418
0.120032
0.116062
0.112261
1.12216
1.04719
0.978703
0.916005
0.858502
0.805671
0.757054
0.712246
0.670886
0.632653
0.59726
0.56445
0.533991
0.505676
0.479318
0.45475
0.431821
0.410395
0.390352
0.371583
0.353987
0.337478
0.321973
0.307399
0.293689
0.280782
0.26862
0.257152
0.246327
0.236103
0.226436
0.21729
0.208628
0.200418
0.192632
0.18524
0.17822
0.171548
0.165202
0.159163
0.153412
0.147933
0.142709
0.137725
0.132967
0.128421
0.124076
0.119919
0.115941
0.11213
1.12216
1.04719
0.978695
0.915991
0.858482
0.805648
0.757031
0.712225
0.67087
0.632644
0.597259
0.564458
0.534009
0.505704
0.479355
0.454796
0.431874
0.410455
0.390417
0.37165
0.354057
0.337548
0.322042
0.307466
0.293754
0.280843
0.268677
0.257203
0.246374
0.236145
0.226474
0.217322
0.208656
0.200442
0.192651
0.185255
0.17823
0.171552
0.165201
0.159156
0.153399
0.147913
0.14268
0.137687
0.132919
0.128363
0.124005
0.119836
0.115844
0.112019
1.12216
1.04718
0.978676
0.915955
0.858426
0.805571
0.756932
0.712103
0.670726
0.632479
0.597075
0.564257
0.533793
0.505476
0.479117
0.454549
0.431622
0.410198
0.390158
0.37139
0.353797
0.337288
0.321784
0.307211
0.293501
0.280594
0.268432
0.256963
0.246138
0.235914
0.226248
0.217103
0.208443
0.200235
0.19245
0.185061
0.178042
0.17137
0.165024
0.158984
0.153231
0.147747
0.142517
0.137524
0.132756
0.128197
0.123837
0.119664
0.115667
0.111836
1.12216
1.04717
0.978651
0.91592
0.858393
0.805549
0.756928
0.712124
0.670774
0.632555
0.597177
0.564382
0.533938
0.505637
0.479291
0.454732
0.43181
0.41039
0.390349
0.371579
0.353981
0.337466
0.321954
0.307371
0.293651
0.280733
0.268559
0.257079
0.246243
0.236008
0.226331
0.217175
0.208505
0.200287
0.192493
0.185094
0.178066
0.171385
0.165029
0.158979
0.153216
0.147722
0.142481
0.137477
0.132695
0.128124
0.12375
0.119562
0.115549
0.111702
1.12216
1.04713
0.978531
0.915702
0.858068
0.805118
0.756398
0.711507
0.670084
0.631807
0.596385
0.56356
0.533097
0.504786
0.478438
0.453885
0.430975
0.409569
0.389547
0.370798
0.353222
0.336731
0.321243
0.306685
0.29299
0.280096
0.267947
0.25649
0.245677
0.235465
0.22581
0.216675
0.208025
0.199827
0.192052
0.184671
0.17766
0.170995
0.164655
0.158619
0.152869
0.147386
0.142154
0.137159
0.132385
0.127819
0.12345
0.119265
0.115255
0.11141
1.12216
1.04712
0.978545
0.915789
0.858246
0.805387
0.756748
0.711919
0.67054
0.632288
0.596876
0.564046
0.533569
0.505235
0.478859
0.454274
0.431327
0.409886
0.389826
0.37104
0.353428
0.336902
0.321381
0.306791
0.293066
0.280143
0.267968
0.256487
0.245652
0.235419
0.225745
0.216594
0.207928
0.199717
0.19193
0.184539
0.177519
0.170846
0.164499
0.158457
0.152702
0.147215
0.141981
0.136984
0.13221
0.127645
0.12328
0.119102
0.115103
0.111275
1.12216
1.04659
0.977423
0.91415
0.856188
0.803019
0.754173
0.709223
0.66779
0.629537
0.594164
0.561403
0.531015
0.502786
0.476526
0.452062
0.429241
0.407926
0.387993
0.369333
0.351844
0.335438
0.320033
0.305557
0.291941
0.279125
0.267052
0.255669
0.244929
0.234788
0.225204
0.216139
0.207558
0.199429
0.191722
0.184411
0.17747
0.170876
0.164608
0.158647
0.152974
0.147573
0.142429
0.137528
0.132857
0.128408
0.124171
0.120142
0.11632
0.112713
1.12226
1.04693
0.978217
0.915317
0.857728
0.804969
0.75663
0.712257
0.671447
0.633848
0.599144
0.567057
0.53734
0.509771
0.484155
0.460315
0.438094
0.417353
0.397968
0.379826
0.362828
0.346884
0.331915
0.317846
0.304613
0.292156
0.280419
0.269351
0.258907
0.249043
0.23972
0.230901
0.222553
0.214647
0.207153
0.200048
0.193308
0.186913
0.180846
0.175088
0.169626
0.164448
0.159541
0.154898
0.150514
0.146389
0.142527
0.138948
0.135693
0.132851
1.14672
1.10488
1.06576
1.0291
0.994583
0.961946
0.930927
0.901409
0.873294
0.846496
0.820936
0.796541
0.773244
0.750982
0.729694
0.709328
0.689832
0.671158
0.653264
0.63611
0.619657
0.603873
0.588723
0.574177
0.560207
0.546785
0.533883
0.521477
0.509542
0.498053
0.48699
0.476329
0.466051
0.456136
0.446567
0.437325
0.428393
0.419757
0.4114
0.403308
0.395465
0.387856
0.380468
0.373287
0.366298
0.359487
0.352839
0.346339
0.339967
0.333696
0.130498
0.0123687
0.0149499
0.0285046
0.0529788
0.0812263
0.0969818
0.0885034
0.0634028
0.0416702
0.0310972
0.0232376
0.0198499
0.0160625
0.0129327
0.0110413
0.0099923
0.0090618
0.0321439
1.57844
0.127214
0.0122416
0.015182
0.0291397
0.0542049
0.0828978
0.0985071
0.089329
0.0636224
0.0418232
0.0313671
0.0230889
0.0197591
0.0156478
0.0125104
0.0107927
0.00990957
0.00915488
0.0336976
1.62157
0.123984
0.0121291
0.0154225
0.029788
0.0554457
0.0845758
0.100035
0.0901861
0.0639301
0.0420875
0.03171
0.0229473
0.0172206
0.0148973
0.0120473
0.0105373
0.00983208
0.00931669
0.0360816
1.66707
0.120791
0.0120387
0.0156714
0.0304482
0.0566976
0.0862553
0.101564
0.0910842
0.0643433
0.0424853
0.0321625
0.0229485
0.0175832
0.0141623
0.0115731
0.0102919
0.0097702
0.00958608
0.0398401
1.71382
0.117656
0.0119713
0.0159282
0.0311184
0.0579565
0.0879317
0.103095
0.0920294
0.0648668
0.0430029
0.032672
0.0229229
0.0173511
0.0133985
0.011111
0.0100644
0.00973501
0.0100319
0.045543
1.7611
0.114576
0.0119287
0.0161923
0.0317968
0.0592178
0.0896003
0.104629
0.0930382
0.0655274
0.0436685
0.0332739
0.022954
0.0162747
0.0125957
0.0106823
0.00986355
0.00974405
0.0107766
0.0536587
1.80868
0.111549
0.0119122
0.0164633
0.0324811
0.0604765
0.091254
0.106164
0.0941131
0.0663285
0.0444809
0.0339656
0.0230652
0.0143579
0.0118463
0.0103007
0.00970069
0.00982668
0.0120413
0.0647185
1.85633
0.108575
0.0119228
0.0167403
0.0331688
0.0617274
0.0928883
0.107704
0.0952694
0.067287
0.0454492
0.0347539
0.0232929
0.01215
0.0111573
0.0099708
0.00959296
0.0100324
0.0141243
0.0792873
1.90374
0.105656
0.0119614
0.0170225
0.0338567
0.0629637
0.094496
0.109248
0.0965203
0.0684216
0.0465873
0.0356556
0.023694
0.0107958
0.0105391
0.00970342
0.00956784
0.0104457
0.0173616
0.0979617
1.9507
0.102792
0.0120285
0.0173076
0.034536
0.0641725
0.096077
0.110834
0.0979293
0.0697578
0.0478797
0.0367093
0.0243272
0.0101251
0.0100446
0.00951546
0.00966903
0.011211
0.0221678
0.121244
1.99689
0.100019
0.0121029
0.0175806
0.0351879
0.065349
0.0976656
0.112525
0.099532
0.0712924
0.0493229
0.0379279
0.0250846
0.0097815
0.00988757
0.00948722
0.00999539
0.0126033
0.0289925
0.149498
2.04204
0.0973531
0.012175
0.0178385
0.0358062
0.0664862
0.0992609
0.114328
0.101345
0.0730413
0.0509341
0.0393472
0.0261207
0.00898211
0.00971671
0.00967308
0.0106917
0.0149952
0.038255
0.182853
2.08584
0.0947956
0.0122437
0.0180782
0.0363842
0.0675761
0.100861
0.116253
0.103385
0.0750244
0.052734
0.041029
0.0279258
0.0109746
0.00989954
0.0102333
0.0120315
0.0187371
0.0503448
0.221143
2.12804
0.0923455
0.0123082
0.0182964
0.0369149
0.0686097
0.102461
0.118308
0.105672
0.0772646
0.0547346
0.0429382
0.0301689
0.0140934
0.0106846
0.0113997
0.0142977
0.0241994
0.0655202
0.263886
2.16836
0.0900024
0.0123676
0.0184895
0.0373905
0.0695771
0.104056
0.120498
0.108228
0.0797987
0.0569884
0.0451505
0.0327956
0.0169205
0.0122991
0.0134302
0.0177922
0.0316967
0.0838468
0.310302
2.20655
0.0877661
0.0124208
0.0186538
0.0378026
0.070467
0.105638
0.122827
0.111063
0.0826325
0.0594874
0.0476541
0.0359451
0.0204936
0.0149778
0.0165848
0.0227823
0.0414193
0.105166
0.359374
2.24238
0.0856366
0.0124669
0.0187854
0.0381422
0.0712663
0.1072
0.125302
0.114207
0.0858072
0.062257
0.0504404
0.0396124
0.024942
0.0189039
0.0210713
0.0294435
0.0533852
0.1291
0.409945
2.27564
0.083614
0.0125048
0.0188804
0.0383998
0.071959
0.108724
0.12792
0.117678
0.0893603
0.0653286
0.0535051
0.0437596
0.0302639
0.024141
0.0269891
0.037813
0.0674263
0.155091
0.46082
2.30617
0.0816989
0.0125337
0.0189348
0.0385652
0.072529
0.110194
0.130675
0.121493
0.0933264
0.0687312
0.0568346
0.0483169
0.0363714
0.0306098
0.034298
0.0477741
0.08321
0.182465
0.510863
2.33381
0.0798916
0.0125525
0.0189441
0.0386271
0.0729565
0.111589
0.133558
0.125668
0.0977458
0.0724983
0.0604099
0.0531848
0.043101
0.0381097
0.0428239
0.0590734
0.100287
0.210496
0.559072
2.35846
0.0781935
0.0125605
0.0189042
0.0385734
0.073218
0.11288
0.136555
0.13022
0.102665
0.0766742
0.064218
0.0582527
0.0502474
0.0463657
0.0522938
0.0713638
0.118148
0.238475
0.604628
2.38002
0.0766061
0.0125567
0.0188108
0.0383914
0.0732871
0.114033
0.139641
0.135159
0.108137
0.0813174
0.0682621
0.0634182
0.0575985
0.055079
0.0623849
0.0842553
0.136282
0.265765
0.646916
2.39847
0.0751316
0.0125405
0.0186595
0.0380673
0.0731339
0.115004
0.142782
0.140494
0.114219
0.0865037
0.0725696
0.0686029
0.0649631
0.0639673
0.0727714
0.0973641
0.154225
0.291839
0.685538
2.41378
0.0737731
0.0125115
0.0184464
0.0375866
0.0727237
0.115739
0.14593
0.146222
0.120975
0.0923302
0.0771994
0.0737635
0.0721884
0.0727935
0.0831621
0.110351
0.171591
0.316303
0.720302
2.42596
0.0725346
0.0124693
0.0181679
0.0369347
0.0720177
0.116172
0.149021
0.152331
0.128475
0.0989183
0.0822488
0.0789016
0.0791708
0.0813826
0.0933253
0.122948
0.188093
0.338911
0.751207
2.43507
0.0714213
0.0124142
0.0178213
0.0360973
0.0709728
0.116225
0.151969
0.158791
0.136789
0.106416
0.0878612
0.0840722
0.0858629
0.0896298
0.103104
0.134972
0.20356
0.359569
0.778428
2.44114
0.07044
0.0123469
0.017405
0.0350615
0.0695426
0.115803
0.154662
0.165546
0.145984
0.115001
0.0942334
0.0893945
0.0922792
0.0975012
0.112419
0.146335
0.217934
0.378325
0.802297
2.44425
0.0695987
0.0122689
0.0169191
0.0338169
0.0676792
0.114796
0.156953
0.172503
0.156114
0.124878
0.101625
0.0950638
0.0985038
0.105036
0.121277
0.157042
0.231275
0.395377
0.82329
2.44445
0.0689068
0.0121826
0.0163662
0.0323576
0.0653356
0.113077
0.158652
0.179516
0.167203
0.136275
0.110367
0.101368
0.104703
0.112346
0.129767
0.167198
0.243759
0.411059
0.842013
2.4418
0.0683757
0.0120913
0.0157518
0.0306845
0.0624709
0.110505
0.159519
0.186362
0.179221
0.149433
0.120873
0.108709
0.111144
0.119626
0.138066
0.177009
0.255682
0.425848
0.859195
2.43633
0.0680181
0.0119996
0.0150852
0.0288081
0.0590559
0.106935
0.15926
0.192718
0.192046
0.164578
0.133638
0.11763
0.118229
0.127167
0.146455
0.186793
0.267473
0.440365
0.875679
2.42802
0.0678481
0.0119133
0.01438
0.0267513
0.0550826
0.102222
0.157521
0.198128
0.205406
0.181875
0.149238
0.128851
0.126547
0.135389
0.155336
0.196999
0.2797
0.455382
0.892403
2.41681
0.0678811
0.0118394
0.0136544
0.0245523
0.0505746
0.0962503
0.153909
0.201977
0.21881
0.201343
0.168286
0.14329
0.13693
0.144885
0.165275
0.208241
0.293106
0.471826
0.910379
2.40255
0.0681333
0.0117862
0.0129309
0.0222659
0.0455989
0.0889565
0.148012
0.203478
0.231451
0.222718
0.191342
0.162074
0.150543
0.1565
0.17706
0.221342
0.308629
0.490775
0.930642
2.38502
0.0686213
0.0117625
0.0122355
0.0199635
0.0402767
0.0803706
0.139464
0.201682
0.242112
0.245261
0.218716
0.186478
0.168985
0.171442
0.191784
0.237398
0.327432
0.51344
0.954168
2.36386
0.0693612
0.0117772
0.0115959
0.0177295
0.0347877
0.0706588
0.128032
0.19556
0.249109
0.267502
0.250136
0.217689
0.194375
0.191602
0.21094
0.257828
0.350906
0.541095
0.981757
2.33857
0.0703681
0.0118386
0.0110391
0.015654
0.0293642
0.0601588
0.11375
0.184173
0.250319
0.286984
0.284238
0.256241
0.22913
0.221362
0.236494
0.284388
0.380615
0.574962
1.01387
2.30846
0.0716544
0.0119532
0.0105878
0.0138225
0.0242697
0.0493902
0.0970504
0.166961
0.243427
0.300125
0.31796
0.300944
0.27307
0.259244
0.270795
0.319078
0.418152
0.61601
1.05041
2.27264
0.0732298
0.0121252
0.0102573
0.0123033
0.0197601
0.0390127
0.078867
0.144134
0.226461
0.302438
0.346213
0.349128
0.327485
0.309651
0.316272
0.363872
0.464864
0.664679
1.09055
2.22995
0.0750992
0.0123556
0.0100527
0.0111368
0.0160368
0.0297203
0.0606015
0.117034
0.198677
0.289311
0.361387
0.393892
0.389444
0.373325
0.374811
0.420228
0.521431
0.720546
1.13252
2.17893
0.0772627
0.0126428
0.00996739
0.0103284
0.0132049
0.0220838
0.0438944
0.0882591
0.161599
0.257844
0.354663
0.42368
0.45062
0.448058
0.447236
0.488339
0.587317
0.781949
1.17349
2.11778
0.0797145
0.0129826
0.00998442
0.00984825
0.0112558
0.0163999
0.0301913
0.06124
0.119616
0.209285
0.319283
0.423374
0.494345
0.525132
0.53713
0.566213
0.660112
0.845604
1.20943
2.04425
0.0824425
0.01337
0.0100798
0.00963782
0.010081
0.0126268
0.0202723
0.039186
0.0792824
0.150798
0.255862
0.380248
0.495126
0.574073
0.615372
0.648412
0.734772
0.906226
1.23513
1.95559
0.0854282
0.0138001
0.0102281
0.00962264
0.00950704
0.0104485
0.0140338
0.0238345
0.0469299
0.0941977
0.176449
0.295708
0.436775
0.569096
0.664982
0.725138
0.802844
0.956191
1.24406
1.84842
0.0886469
0.0142686
0.0104075
0.00972875
0.00933963
0.00941896
0.0106962
0.0148774
0.0257378
0.0506842
0.101212
0.18952
0.320069
0.480017
0.63828
0.762566
0.851243
0.985081
1.22832
1.71855
0.092068
0.0147721
0.010603
0.00989729
0.00940406
0.00909775
0.00925946
0.0105804
0.0146235
0.0248354
0.0481131
0.0958506
0.182083
0.316545
0.493788
0.685775
0.851517
0.978528
1.17805
1.56054
0.0956558
0.0153078
0.010806
0.0100911
0.00957473
0.00913662
0.00885937
0.00898121
0.0100344
0.0131961
0.0210465
0.0389426
0.0766559
0.148813
0.271635
0.453691
0.681821
0.911942
1.07944
1.36658
0.0993707
0.0158724
0.011013
0.010292
0.00978166
0.00931748
0.00891053
0.00863494
0.00864619
0.00927768
0.0112231
0.0159482
0.0265457
0.0492358
0.0954152
0.183428
0.337898
0.582554
0.901219
1.12253
0.103171
0.0164623
0.0112225
0.0104933
0.00999581
0.0095381
0.00910763
0.00873258
0.00845867
0.00838349
0.00868918
0.00970949
0.0120594
0.0169212
0.026668
0.0462506
0.0864309
0.171701
0.362594
0.778713
0.107013
0.017073
0.0114343
0.0106933
0.0102084
0.00976424
0.00933707
0.00894411
0.00860068
0.00834655
0.00825441
0.00845306
0.00914852
0.010653
0.0134146
0.0180335
0.025259
0.0360362
0.052138
0.0814381
0.110855
0.0176994
0.0116481
0.0108921
0.0104178
0.00998761
0.00956907
0.00917766
0.00881669
0.00850513
0.00827772
0.00820593
0.00841793
0.00913219
0.0107075
0.0137146
0.0190324
0.0279359
0.0422273
0.0653389
0.114658
0.0183359
0.0118639
0.0110898
0.010624
0.0102068
0.00979713
0.00941221
0.00904953
0.00871914
0.00843606
0.008238
0.00820182
0.00847636
0.00934221
0.011317
0.015379
0.0233855
0.0389174
0.0710351
0.118386
0.0189768
0.0120817
0.0112872
0.0108276
0.0104221
0.0100201
0.00964226
0.00928256
0.0089479
0.0086438
0.00838892
0.0082274
0.00825539
0.00868197
0.00993961
0.012972
0.0199023
0.0356911
0.0751927
0.122007
0.0196164
0.0123013
0.0114846
0.0110293
0.0106342
0.0102383
0.00986679
0.00951075
0.00917645
0.00886516
0.00858536
0.0083619
0.00825364
0.00841234
0.00918328
0.011423
0.0173102
0.0327921
0.0783875
0.125495
0.0202496
0.0125227
0.0116825
0.0112298
0.0108438
0.0104525
0.0100862
0.00973316
0.00940023
0.00908666
0.00879559
0.00854164
0.00835783
0.00835423
0.00879659
0.0104427
0.0154054
0.0302965
0.0809588
0.128829
0.0208715
0.0127455
0.0118813
0.0114295
0.0110515
0.0106637
0.0103014
0.00995033
0.00961846