/*--------------------------------*- C++ -*----------------------------------*\
  =========                 |
  \\      /  F ield         | OpenFOAM: The Open Source CFD Toolbox
   \\    /   O peration     | Website:  https://openfoam.org
    \\  /    A nd           | Version:  8
     \\/     M anipulation  |
\*---------------------------------------------------------------------------*/
FoamFile
{
    version     2.0;
    format      ascii;
    class       volScalarField;
    location    "400";
    object      k;
}
// * * * * * * * * * * * * * * * * * * * * * * * * * * * * * * * * * * * * * //

dimensions      [0 2 -2 0 0 0 0];

internalField   nonuniform List<scalar> 
8400
(
0.0162138
0.0155676
0.0149362
0.0143197
0.0137177
0.0131314
0.0125616
0.0120097
0.0114765
0.0109632
0.0104703
0.00999838
0.00954767
0.00911833
0.00871034
0.00832356
0.00795773
0.00761243
0.00728719
0.00698141
0.00669443
0.00642556
0.00617402
0.00593902
0.00571975
0.0055154
0.00532517
0.00514832
0.00498412
0.00483191
0.00469109
0.00456101
0.00444107
0.00433074
0.00422941
0.00413654
0.0040516
0.00397402
0.00390308
0.00383803
0.00377847
0.00372353
0.00367215
0.00362372
0.00357791
0.00353468
0.00349431
0.00351054
0.00353511
0.00356487
0.00334219
0.00331349
0.00328374
0.0032551
0.00322917
0.00320586
0.00318508
0.00316642
0.00314952
0.00313403
0.00311974
0.00310652
0.00309427
0.003083
0.00307271
0.00306343
0.00305522
0.00304812
0.00304215
0.00303736
0.00303378
0.00303145
0.00303041
0.00303066
0.00303226
0.00303521
0.00303958
0.00304542
0.00305281
0.0030618
0.00307246
0.00308486
0.00309908
0.00311517
0.00313326
0.0031534
0.0031755
0.0031995
0.00322548
0.00325298
0.00328158
0.00331076
0.00333989
0.00336861
0.00339612
0.00342157
0.00343821
0.00345062
0.00346082
0.00346913
0.00296029
0.00295255
0.00294498
0.00293765
0.00293062
0.00292397
0.00291772
0.00291194
0.00290667
0.00290196
0.00289784
0.00289436
0.00289154
0.00288942
0.00288804
0.00288742
0.00288759
0.00288855
0.00289032
0.00289289
0.00289629
0.00290054
0.00290566
0.00291172
0.00291876
0.00292687
0.00293613
0.00294663
0.00295848
0.00297186
0.00298695
0.00300389
0.00302299
0.00304448
0.00306846
0.00309513
0.0031246
0.00315675
0.0031915
0.00322833
0.00326674
0.00330602
0.00334483
0.00338275
0.00341696
0.00344528
0.00346697
0.00348622
0.00350216
0.00351599
0.00280382
0.00280245
0.00280131
0.00280042
0.00279983
0.00279956
0.00279965
0.0028001
0.00280096
0.00280224
0.00280396
0.00280612
0.00280872
0.00281176
0.00281525
0.00281919
0.00282358
0.00282839
0.00283361
0.00283924
0.00284529
0.0028518
0.00285883
0.00286646
0.00287477
0.00288384
0.00289386
0.00290501
0.00291747
0.00293145
0.00294733
0.00296549
0.00298629
0.00301002
0.003037
0.00306763
0.00310203
0.00314
0.00318141
0.00322559
0.00327141
0.00331841
0.00336353
0.00340788
0.00344289
0.00347491
0.00350338
0.00352908
0.00355096
0.00356963
0.00272943
0.00273248
0.00273574
0.00273922
0.00274294
0.00274691
0.00275112
0.00275558
0.0027603
0.00276528
0.00277053
0.002776
0.00278168
0.00278755
0.0027936
0.00279979
0.00280612
0.00281254
0.00281904
0.00282562
0.00283232
0.00283919
0.00284627
0.00285364
0.00286145
0.00286987
0.00287906
0.00288927
0.00290083
0.00291416
0.00292958
0.00294766
0.00296908
0.0029943
0.00302358
0.00305751
0.00309629
0.00313952
0.00318718
0.00323865
0.00329044
0.00334336
0.00339187
0.00343694
0.00347898
0.00351813
0.00355321
0.00358403
0.00361062
0.00363317
0.00269617
0.00270239
0.0027088
0.00271539
0.00272218
0.00272912
0.00273618
0.00274337
0.0027507
0.00275813
0.00276565
0.00277321
0.00278076
0.00278824
0.00279563
0.00280288
0.00280997
0.0028169
0.00282366
0.00283027
0.00283674
0.00284312
0.0028495
0.00285599
0.00286267
0.00286978
0.00287769
0.00288668
0.00289699
0.00290919
0.00292386
0.0029418
0.00296388
0.0029907
0.00302225
0.00305976
0.00310387
0.00315291
0.0032059
0.00326396
0.0033204
0.00337606
0.00343023
0.00348303
0.00353256
0.00357815
0.00361859
0.00365356
0.00368276
0.00370721
0.00268798
0.00269646
0.00270521
0.00271419
0.00272331
0.00273248
0.00274164
0.00275078
0.00275991
0.00276898
0.00277793
0.00278668
0.00279516
0.00280329
0.00281106
0.00281844
0.00282541
0.00283198
0.00283815
0.00284401
0.00284963
0.00285504
0.00286027
0.00286553
0.00287099
0.00287683
0.0028833
0.00289092
0.00290015
0.00291151
0.00292576
0.0029439
0.00296702
0.00299657
0.00303137
0.00307296
0.00312278
0.00317795
0.00323618
0.00329783
0.00336209
0.00342747
0.00349141
0.00355233
0.003608
0.0036579
0.00370071
0.00373661
0.00376523
0.00378753
0.00271624
0.00272371
0.00273211
0.00274114
0.00275044
0.00275985
0.00276923
0.00277856
0.00278779
0.00279685
0.00280561
0.00281396
0.00282185
0.00282924
0.0028361
0.00284239
0.00284805
0.00285311
0.00285775
0.00286213
0.00286639
0.0028705
0.00287439
0.00287818
0.00288198
0.00288638
0.00289185
0.00289868
0.0029075
0.00291864
0.00293299
0.00295196
0.00297687
0.00301049
0.00304973
0.00309672
0.00315152
0.00321357
0.00328231
0.00335589
0.00343178
0.00350709
0.00357908
0.00364601
0.00370559
0.00375662
0.00379735
0.00382869
0.00385098
0.00386589
0.00279604
0.00279495
0.0027976
0.00280194
0.00280704
0.00281265
0.00281872
0.00282516
0.00283174
0.00283816
0.00284429
0.00285011
0.00285566
0.00286094
0.00286573
0.00286977
0.00287301
0.00287577
0.0028785
0.00288132
0.00288409
0.00288644
0.00288843
0.00289077
0.0028938
0.00289754
0.00290263
0.00290909
0.00291732
0.00292848
0.00294432
0.0029662
0.00299506
0.00303232
0.00307885
0.00313555
0.00320223
0.00327768
0.00336015
0.00344664
0.00353396
0.00361864
0.003697
0.00376594
0.00382277
0.00386669
0.00389633
0.0039139
0.00392048
0.00392013
0.00290107
0.00288507
0.00287937
0.00287658
0.0028748
0.00287403
0.00287454
0.0028762
0.00287841
0.00288065
0.00288284
0.00288536
0.00288811
0.00289069
0.00289273
0.00289412
0.00289513
0.00289617
0.00289735
0.00289841
0.00289953
0.00290057
0.0029018
0.00290337
0.00290582
0.00290892
0.00291318
0.00291985
0.00292974
0.00294369
0.00296324
0.00299021
0.00302638
0.00307361
0.00313282
0.00320438
0.00328723
0.00337918
0.0034776
0.00357796
0.00367543
0.00376494
0.00384197
0.0039033
0.00394594
0.00396929
0.00397342
0.00396155
0.0039393
0.0039105
0.0029787
0.00295609
0.002943
0.00293515
0.00292864
0.00292337
0.00291972
0.00291747
0.0029157
0.00291437
0.00291354
0.00291317
0.00291309
0.002913
0.00291284
0.00291265
0.00291251
0.00291243
0.00291246
0.00291267
0.00291314
0.00291376
0.00291474
0.00291621
0.00291856
0.00292247
0.00292835
0.00293716
0.00295019
0.00296905
0.00299585
0.00303275
0.00308184
0.00314498
0.00322276
0.00331491
0.00341894
0.00353054
0.00364517
0.00375578
0.00385603
0.00393975
0.00400131
0.004037
0.00404528
0.00402367
0.00398115
0.00391137
0.00384053
0.00374486
0.00299223
0.00298413
0.00297677
0.00296995
0.00296361
0.00295782
0.00295271
0.00294826
0.00294441
0.0029412
0.0029386
0.00293646
0.00293465
0.00293314
0.00293191
0.00293084
0.00292986
0.00292902
0.00292844
0.00292814
0.00292815
0.00292857
0.00292956
0.00293171
0.00293531
0.00294094
0.00294985
0.00296351
0.00298359
0.00301225
0.00305224
0.00310617
0.00317631
0.003264
0.00336826
0.00348715
0.0036152
0.00374483
0.00386937
0.00397839
0.00406398
0.00411859
0.00413833
0.0041163
0.004062
0.0039541
0.00384494
0.00365632
0.00349832
0.00339393
0.00299553
0.0029909
0.0029864
0.00298198
0.0029777
0.00297356
0.00296964
0.00296599
0.00296267
0.00295966
0.0029569
0.00295439
0.00295214
0.00295013
0.00294828
0.00294659
0.00294517
0.00294408
0.00294326
0.00294277
0.0029429
0.00294403
0.00294636
0.0029505
0.00295741
0.00296822
0.00298459
0.00300869
0.00304315
0.00309066
0.00315414
0.00323596
0.00333793
0.00345978
0.00359707
0.00374517
0.00389295
0.00402776
0.00414163
0.00421987
0.00425598
0.0042395
0.00417985
0.00404885
0.00391093
0.00364887
0.00350864
0.00340727
0.00335436
0.00330442
0.00299684
0.00299361
0.00299045
0.00298728
0.00298413
0.00298107
0.00297812
0.00297531
0.00297266
0.00297015
0.00296777
0.00296554
0.00296344
0.00296146
0.00295966
0.00295816
0.00295697
0.00295611
0.00295583
0.00295657
0.00295873
0.00296278
0.0029696
0.00298033
0.00299637
0.00301965
0.00305268
0.00309862
0.00316082
0.0032417
0.00334362
0.00346733
0.00361293
0.0037756
0.00394355
0.00410948
0.00425214
0.00435424
0.00441011
0.00440087
0.00433346
0.00418066
0.00401453
0.00370831
0.00357089
0.00347276
0.00341603
0.00337036
0.00333379
0.00330802
0.00299769
0.0029953
0.00299291
0.00299049
0.00298806
0.00298569
0.00298336
0.00298108
0.00297887
0.00297673
0.00297469
0.00297273
0.00297087
0.00296924
0.00296798
0.00296713
0.00296697
0.00296803
0.0029709
0.00297634
0.0029854
0.00299924
0.00301938
0.0030477
0.00308637
0.00313812
0.0032063
0.00329498
0.00340704
0.00354158
0.00369853
0.00387426
0.00406612
0.00425717
0.00442323
0.0045615
0.00462901
0.00461899
0.00453301
0.00434964
0.00413072
0.00377564
0.00361876
0.00351981
0.00345756
0.00341226
0.0033765
0.00334695
0.00332515
0.00331321
0.002998
0.00299596
0.00299391
0.00299188
0.0029899
0.00298798
0.00298611
0.00298426
0.00298248
0.00298077
0.00297915
0.00297767
0.00297652
0.00297605
0.00297662
0.00297883
0.00298391
0.00299296
0.00300773
0.00303007
0.00306198
0.00310544
0.0031625
0.00323518
0.00332565
0.00343657
0.00357125
0.00373438
0.0039227
0.00412398
0.00433485
0.00454543
0.00475161
0.00489535
0.0049548
0.00495743
0.00479452
0.00456198
0.00423251
0.0038196
0.003613
0.00350614
0.0034437
0.00339481
0.00335303
0.00331393
0.00327761
0.00324323
0.00321053
0.0031793
0.00299851
0.00299698
0.00299541
0.00299386
0.00299232
0.00299079
0.00298929
0.00298783
0.00298649
0.00298533
0.0029845
0.00298421
0.00298564
0.0029906
0.00300127
0.00301931
0.00304849
0.0030912
0.00315138
0.00323195
0.00333514
0.00346192
0.00361218
0.00378499
0.00397919
0.00419398
0.00442959
0.00469223
0.00494203
0.0051539
0.00533657
0.00548357
0.00559473
0.00542109
0.00516007
0.00487347
0.00418155
0.00379047
0.00355647
0.00342593
0.00335608
0.00329496
0.00324015
0.00318775
0.00313572
0.00308169
0.00302484
0.00296448
0.00290022
0.00283236
0.00299838
0.00299676
0.00299521
0.00299381
0.00299261
0.0029917
0.0029912
0.00299128
0.00299223
0.00299441
0.00299831
0.00300449
0.00302547
0.00306919
0.00314562
0.00325076
0.00339274
0.00357011
0.00378881
0.00404757
0.00434244
0.00466499
0.00500455
0.00534958
0.00568889
0.0060114
0.00630673
0.00659759
0.00659068
0.00650219
0.00635949
0.00621849
0.00605691
0.00463342
0.0040098
0.00363149
0.00341176
0.00329294
0.00320099
0.00312557
0.00305934
0.00299643
0.00293599
0.00287597
0.0028151
0.00275262
0.00268856
0.00262352
0.00255882
0.00249652
0.00299901
0.00299897
0.0029998
0.00300186
0.00300546
0.00301098
0.00301887
0.0030297
0.00304417
0.00306308
0.0030872
0.00311695
0.00331072
0.00361981
0.00410093
0.0046388
0.00522681
0.00583921
0.00648537
0.00713714
0.00777193
0.00836161
0.0088807
0.00930579
0.00961061
0.00975066
0.00966533
0.0095935
0.0068856
0.00575964
0.00481668
0.00425987
0.00394918
0.00377218
0.00363175
0.00351972
0.00344854
0.00340907
0.00339289
0.00339469
0.00341152
0.00344264
0.00348739
0.00354658
0.00362164
0.00371422
0.00382583
0.00395775
0.00410996
0.00427978
0.00307867
0.0031588
0.00324066
0.00332426
0.00340952
0.0034964
0.00358482
0.0036746
0.00376526
0.00385547
0.00394194
0.004016
0.00828364
0.0116353
0.0147247
0.0164467
0.0179558
0.0188811
0.0195018
0.0197888
0.0198287
0.0196502
0.0193008
0.0188156
0.0182291
0.0175687
0.0168566
0.0161331
0.0155646
0.0154758
0.0160659
0.017155
0.0183597
0.0193467
0.0201836
0.0210888
0.0220483
0.0230566
0.0241136
0.0252049
0.026339
0.0275367
0.0288029
0.0301486
0.0315856
0.0331184
0.0347426
0.0364432
0.0381896
0.0399325
0.0589323
0.0574893
0.0561238
0.0548289
0.0535962
0.0524173
0.0512845
0.0501945
0.0491451
0.048134
0.0471595
0.0462199
0.0453136
0.0444392
0.043595
0.04278
0.0419926
0.0412318
0.0404963
0.0397852
0.0390973
0.0384318
0.0377878
0.0371646
0.0365613
0.0359772
0.0354116
0.0348639
0.0343333
0.0338192
0.0333209
0.0328378
0.0323691
0.0319144
0.0314731
0.0310446
0.0306286
0.0302245
0.0298323
0.0294498
0.029076
0.0287104
0.0283522
0.0280008
0.0276552
0.027314
0.0269754
0.0266362
0.0262909
0.0259288
0.0580909
0.0554604
0.0530056
0.0507082
0.0485585
0.0465465
0.0446642
0.0429005
0.0412456
0.0396907
0.0382279
0.0368498
0.0355499
0.0343224
0.0331617
0.0320631
0.0310219
0.0300343
0.0290964
0.0282048
0.0273566
0.026549
0.0257793
0.0250453
0.0243447
0.0236757
0.0230361
0.0224245
0.0218389
0.0212778
0.0207398
0.0202233
0.0197271
0.0192498
0.0187901
0.0183469
0.0179191
0.0175057
0.0171056
0.0167196
0.0163475
0.0159888
0.0156427
0.0153086
0.0149858
0.0146738
0.0143719
0.0140796
0.0137961
0.0135199
0.0580873
0.0554483
0.0529772
0.0506655
0.0485008
0.0464719
0.0445682
0.0427795
0.0410967
0.0395117
0.0380169
0.0366056
0.0352716
0.0340093
0.0328137
0.0316802
0.0306043
0.0295823
0.0286107
0.0276861
0.0268056
0.0259665
0.0251663
0.0244027
0.0236736
0.022977
0.0223109
0.0216738
0.021064
0.0204798
0.0199199
0.0193829
0.0188674
0.0183723
0.0178966
0.0174392
0.0169993
0.0165759
0.0161684
0.0157759
0.0153979
0.0150337
0.0146828
0.0143446
0.0140187
0.0137044
0.0134013
0.0131089
0.0128273
0.0125568
0.0580874
0.0554672
0.0530178
0.050726
0.0485785
0.0465632
0.0446695
0.0428878
0.0412094
0.0396266
0.0381324
0.0367203
0.0353845
0.0341196
0.0329207
0.0317833
0.0307033
0.0296769
0.0287006
0.0277713
0.0268861
0.0260421
0.0252371
0.0244688
0.0237349
0.0230336
0.0223631
0.0217215
0.0211074
0.020519
0.0199551
0.0194142
0.018895
0.0183964
0.0179173
0.0174567
0.0170136
0.0165872
0.0161767
0.0157814
0.0154006
0.0150338
0.0146803
0.0143397
0.0140114
0.0136951
0.0133901
0.0130957
0.0128114
0.0125377
0.0580874
0.0554677
0.0530173
0.0507228
0.0485717
0.0465527
0.0446557
0.0428711
0.0411907
0.0396065
0.0381114
0.0366991
0.0353636
0.0340993
0.0329014
0.0317653
0.0306866
0.0296617
0.028687
0.0277593
0.0268756
0.0260333
0.0252298
0.0244628
0.0237304
0.0230304
0.0223611
0.0217207
0.0211076
0.0205203
0.0199572
0.0194172
0.0188988
0.018401
0.0179226
0.0174626
0.01702
0.0165942
0.0161841
0.0157892
0.0154088
0.0150422
0.0146889
0.0143483
0.0140199
0.0137033
0.0133981
0.0131037
0.0128191
0.0125445
0.0580874
0.0554691
0.0530216
0.0507308
0.0485839
0.0465693
0.0446765
0.0428959
0.0412189
0.0396377
0.0381452
0.036735
0.035401
0.034138
0.0329409
0.0318052
0.0307269
0.0297019
0.028727
0.0277989
0.0269147
0.0260717
0.0252674
0.0244997
0.0237663
0.0230654
0.0223951
0.0217536
0.0211395
0.0205511
0.019987
0.0194458
0.0189264
0.0184275
0.017948
0.017487
0.0170434
0.0166165
0.0162054
0.0158095
0.0154281
0.0150605
0.0147062
0.0143645
0.0140349
0.0137169
0.0134102
0.0131142
0.0128283
0.012552
0.0580874
0.0554694
0.0530224
0.050732
0.0485851
0.04657
0.0446764
0.0428948
0.0412168
0.0396344
0.0381408
0.0367296
0.0353947
0.0341309
0.0329333
0.0317971
0.0307184
0.0296933
0.0287183
0.0277901
0.0269059
0.026063
0.0252589
0.0244912
0.023758
0.0230573
0.0223871
0.0217459
0.0211319
0.0205437
0.0199799
0.019439
0.0189198
0.0184211
0.0179419
0.017481
0.0170377
0.0166111
0.0162002
0.0158045
0.0154232
0.0150557
0.0147015
0.0143598
0.0140303
0.0137122
0.0134051
0.0131087
0.0128223
0.0125454
0.0580874
0.0554696
0.053023
0.0507332
0.048587
0.0465728
0.0446801
0.0428995
0.0412224
0.0396411
0.0381486
0.0367383
0.0354044
0.0341414
0.0329445
0.0318091
0.030731
0.0297064
0.0287317
0.0278039
0.0269199
0.026077
0.0252729
0.0245052
0.0237719
0.0230709
0.0224005
0.0217589
0.0211445
0.0205559
0.0199916
0.0194502
0.0189305
0.0184313
0.0179516
0.0174903
0.0170464
0.0166192
0.0162079
0.0158116
0.0154297
0.0150615
0.0147065
0.0143641
0.0140337
0.0137147
0.0134067
0.0131091
0.0128214
0.0125433
0.0580874
0.0554696
0.0530233
0.0507336
0.0485876
0.0465735
0.0446808
0.0429001
0.0412229
0.0396413
0.0381485
0.0367379
0.0354036
0.0341404
0.0329431
0.0318074
0.030729
0.0297041
0.0287293
0.0278012
0.026917
0.0260739
0.0252696
0.0245018
0.0237682
0.0230671
0.0223965
0.0217547
0.0211402
0.0205515
0.019987
0.0194455
0.0189257
0.0184265
0.0179467
0.0174853
0.0170414
0.0166142
0.0162028
0.0158064
0.0154244
0.0150562
0.014701
0.0143583
0.0140275
0.0137082
0.0133997
0.0131015
0.0128132
0.0125343
0.0580874
0.0554697
0.0530234
0.0507338
0.0485879
0.0465739
0.0446814
0.0429008
0.0412237
0.0396424
0.0381497
0.0367394
0.0354054
0.0341424
0.0329454
0.03181
0.0307318
0.0297072
0.0287325
0.0278046
0.0269205
0.0260775
0.0252733
0.0245054
0.0237718
0.0230705
0.0223998
0.0217579
0.0211432
0.0205542
0.0199895
0.0194477
0.0189277
0.0184282
0.0179482
0.0174866
0.0170424
0.0166149
0.0162032
0.0158065
0.0154242
0.0150555
0.0146998
0.0143566
0.0140253
0.0137052
0.0133959
0.0130969
0.0128077
0.0125278
0.0580874
0.0554697
0.0530233
0.0507338
0.0485879
0.0465739
0.0446813
0.0429007
0.0412236
0.0396423
0.0381497
0.0367393
0.0354054
0.0341424
0.0329455
0.0318101
0.030732
0.0297074
0.0287328
0.0278049
0.0269208
0.0260778
0.0252735
0.0245055
0.0237718
0.0230704
0.0223995
0.0217574
0.0211425
0.0205533
0.0199884
0.0194465
0.0189262
0.0184266
0.0179463
0.0174845
0.0170402
0.0166125
0.0162005
0.0158036
0.0154209
0.0150519
0.0146959
0.0143523
0.0140204
0.0136997
0.0133898
0.01309
0.0128
0.0125191
0.0580874
0.0554696
0.0530232
0.0507335
0.0485875
0.0465733
0.0446806
0.0428998
0.0412225
0.039641
0.0381482
0.0367377
0.0354036
0.0341405
0.0329434
0.0318079
0.0307297
0.0297049
0.0287302
0.0278022
0.0269179
0.0260748
0.0252704
0.0245023
0.0237684
0.0230669
0.0223958
0.0217536
0.0211385
0.0205492
0.0199841
0.0194421
0.0189218
0.018422
0.0179417
0.0174798
0.0170354
0.0166075
0.0161955
0.0157984
0.0154157
0.0150464
0.0146902
0.0143462
0.0140139
0.0136928
0.0133823
0.0130819
0.0127911
0.0125095
0.0580874
0.0554695
0.053023
0.0507331
0.0485868
0.0465725
0.0446797
0.042899
0.0412219
0.0396406
0.0381481
0.036738
0.0354043
0.0341416
0.032945
0.0318098
0.030732
0.0297076
0.0287331
0.0278054
0.0269214
0.0260784
0.025274
0.0245059
0.023772
0.0230703
0.0223991
0.0217567
0.0211414
0.0205518
0.0199865
0.0194442
0.0189236
0.0184235
0.0179429
0.0174807
0.0170359
0.0166077
0.0161953
0.0157979
0.0154146
0.0150449
0.0146881
0.0143435
0.0140105
0.0136886
0.0133772
0.0130759
0.0127841
0.0125014
0.0580874
0.0554693
0.0530223
0.0507318
0.0485847
0.0465695
0.0446758
0.0428941
0.041216
0.0396337
0.0381402
0.0367292
0.0353946
0.0341312
0.0329339
0.0317982
0.0307199
0.0296951
0.0287203
0.0277923
0.0269081
0.026065
0.0252605
0.0244923
0.0237584
0.0230568
0.0223856
0.0217432
0.021128
0.0205386
0.0199734
0.0194312
0.0189108
0.0184109
0.0179304
0.0174684
0.0170239
0.0165959
0.0161836
0.0157863
0.0154032
0.0150335
0.0146767
0.014332
0.013999
0.0136769
0.0133652
0.0130635
0.0127712
0.0124879
0.0580874
0.055469
0.0530214
0.0507305
0.0485835
0.0465687
0.0446757
0.042895
0.041218
0.0396368
0.0381445
0.0367345
0.0354009
0.0341383
0.0329417
0.0318066
0.0307287
0.0297042
0.0287295
0.0278016
0.0269173
0.0260741
0.0252693
0.0245009
0.0237666
0.0230645
0.0223928
0.0217499
0.0211342
0.0205442
0.0199784
0.0194357
0.0189146
0.0184141
0.0179331
0.0174705
0.0170253
0.0165967
0.0161839
0.0157859
0.0154021
0.0150317
0.0146741
0.0143287
0.0139947
0.0136716
0.0133589
0.0130561
0.0127626
0.012478
0.0580874
0.0554676
0.0530171
0.0507225
0.0485712
0.0465521
0.0446549
0.0428702
0.0411897
0.0396056
0.0381108
0.0366988
0.0353636
0.0340999
0.0329026
0.031767
0.0306889
0.0296645
0.0286901
0.0277625
0.0268788
0.0260362
0.0252321
0.0244644
0.0237309
0.0230297
0.0223588
0.0217168
0.0211019
0.0205127
0.0199478
0.0194058
0.0188856
0.0183859
0.0179057
0.0174438
0.0169994
0.0165715
0.0161593
0.0157619
0.0153787
0.0150088
0.0146517
0.0143065
0.0139729
0.01365
0.0133374
0.0130346
0.0127411
0.0124564
0.0580874
0.0554671
0.0530176
0.0507257
0.048578
0.0465625
0.0446686
0.0428868
0.0412084
0.0396256
0.0381316
0.0367198
0.0353844
0.0341201
0.0329218
0.031785
0.0307056
0.0296797
0.0287038
0.0277746
0.0268892
0.026045
0.0252393
0.0244701
0.023735
0.0230323
0.0223601
0.0217167
0.0211005
0.0205101
0.0199441
0.019401
0.0188798
0.0183792
0.0178981
0.0174354
0.0169903
0.0165618
0.016149
0.0157511
0.0153674
0.0149972
0.0146397
0.0142943
0.0139605
0.0136376
0.0133252
0.0130228
0.0127299
0.0124464
0.0580873
0.0554482
0.0529771
0.0506652
0.0485003
0.0464712
0.0445672
0.0427784
0.0410956
0.0395106
0.0380159
0.0366049
0.0352714
0.0340097
0.0328147
0.0316817
0.0306065
0.029585
0.0286137
0.0276893
0.0268088
0.0259695
0.0251688
0.0244044
0.0236743
0.0229764
0.0223091
0.0216705
0.0210591
0.0204735
0.0199121
0.0193738
0.0188573
0.0183614
0.0178851
0.0174273
0.0169871
0.0165636
0.016156
0.0157635
0.0153855
0.0150213
0.0146703
0.014332
0.014006
0.0136918
0.0133893
0.0130984
0.0128195
0.0125534
0.058091
0.0554606
0.0530058
0.0507083
0.0485584
0.0465463
0.0446638
0.0429001
0.0412453
0.0396905
0.0382279
0.0368501
0.0355507
0.0343237
0.0331638
0.0320659
0.0310256
0.0300388
0.0291017
0.028211
0.0273636
0.0265567
0.0257876
0.0250542
0.0243542
0.0236858
0.0230471
0.0224365
0.0218524
0.0212935
0.0207583
0.0202456
0.0197543
0.0192833
0.0188316
0.0183983
0.0179825
0.0175837
0.017201
0.0168339
0.016482
0.0161449
0.0158223
0.0155141
0.0152203
0.0149413
0.0146778
0.0144315
0.0142057
0.0140071
0.0589318
0.0574891
0.0561237
0.0548289
0.0535961
0.0524173
0.0512844
0.0501945
0.0491452
0.0481344
0.0471604
0.0462213
0.0453156
0.0444417
0.0435981
0.0427834
0.0419964
0.0412356
0.0405001
0.0397885
0.0391001
0.0384337
0.0377886
0.0371638
0.0365586
0.0359723
0.0354041
0.0348534
0.0343194
0.0338014
0.0332988
0.032811
0.0323373
0.0318771
0.0314297
0.0309947
0.0305715
0.0301595
0.0297581
0.0293669
0.0289853
0.0286128
0.0282487
0.0278926
0.0275439
0.0272019
0.026866
0.0265354
0.0262093
0.0258863
0.0138918
0.00293559
0.00332208
0.00511289
0.00769706
0.0101771
0.0114093
0.0107453
0.00869045
0.00667294
0.00549505
0.00451569
0.00410045
0.00358576
0.00311053
0.00275609
0.00251885
0.00232167
0.00531849
0.0725295
0.0136555
0.00291279
0.00335786
0.0051924
0.00782121
0.0103229
0.0115342
0.0108154
0.00871219
0.00668818
0.00552008
0.00448761
0.00412539
0.00353298
0.00304977
0.00271564
0.00250404
0.00232888
0.00542919
0.073783
0.0134217
0.00289199
0.00339485
0.00527315
0.00794623
0.0104688
0.011659
0.0108878
0.00874122
0.00671408
0.00555251
0.00445827
0.00385271
0.00343882
0.00298039
0.00267177
0.00248873
0.00234212
0.00558715
0.0751066
0.0131885
0.00287449
0.00343299
0.00535497
0.00807182
0.0106143
0.0117837
0.0109633
0.00877903
0.00675247
0.00559534
0.00443909
0.00384544
0.00334345
0.00290559
0.00262731
0.00247432
0.00236482
0.00581833
0.0764884
0.0129574
0.00286051
0.00347219
0.0054376
0.00819757
0.0107592
0.0119083
0.0110423
0.0088262
0.00680236
0.00564433
0.00441611
0.00379883
0.00324968
0.00282847
0.00258399
0.0024622
0.0024029
0.00617101
0.0779029
0.0127284
0.00285034
0.00351237
0.00552082
0.00832304
0.010903
0.0120329
0.0111261
0.00888479
0.00686605
0.00570229
0.00439784
0.00364104
0.00313631
0.00275112
0.00254317
0.00245405
0.00246596
0.00669711
0.0793227
0.0125015
0.00284422
0.00355343
0.00560435
0.00844779
0.0110452
0.0121574
0.011215
0.00895522
0.00694346
0.00576909
0.00438813
0.00348511
0.00300714
0.00267661
0.00250627
0.00245238
0.00256995
0.00742265
0.080742
0.0122766
0.00284233
0.00359524
0.00568792
0.00857135
0.0111855
0.0122821
0.01131
0.00903887
0.00703519
0.00584451
0.00438726
0.00324698
0.00288009
0.00260848
0.00247509
0.00246131
0.00274157
0.00836929
0.0821542
0.0120537
0.00284488
0.00363769
0.00577118
0.00869314
0.0113234
0.0124068
0.011412
0.00913707
0.00714244
0.00592983
0.00440063
0.00297566
0.00276309
0.00254759
0.00245206
0.00248766
0.00301874
0.00955163
0.0835525
0.0118331
0.00285206
0.00368066
0.00585379
0.00881255
0.0114582
0.0125316
0.0115217
0.00925085
0.0072661
0.00602637
0.00443565
0.00274593
0.00265945
0.0024957
0.002441
0.00254272
0.00343217
0.0109821
0.0849298
0.0116146
0.00286398
0.00372363
0.00593457
0.00892845
0.0115903
0.0126598
0.0116443
0.00938232
0.00740486
0.00613901
0.00448823
0.00258695
0.00257925
0.00245826
0.00244932
0.00264608
0.00401328
0.0126643
0.0862784
0.0114016
0.00287675
0.00376439
0.00601139
0.00904047
0.0117226
0.0127962
0.0117826
0.00953152
0.00755919
0.00627379
0.00458322
0.00244374
0.00251418
0.00244116
0.00248898
0.00282895
0.00478795
0.014591
0.0875908
0.0111953
0.002889
0.00380249
0.00608355
0.009148
0.011855
0.0129413
0.0119378
0.00969974
0.00773082
0.0064342
0.00473207
0.00244697
0.00247717
0.00245669
0.00258031
0.00314126
0.0057661
0.0167417
0.0888594
0.0109961
0.00290056
0.00383747
0.00615032
0.00925034
0.0119873
0.0130955
0.0121111
0.00988843
0.00792142
0.00662106
0.00492857
0.00257739
0.00249161
0.00252643
0.00276071
0.00361601
0.00695203
0.0190838
0.090077
0.0108041
0.00291125
0.00386883
0.00621085
0.00934668
0.0121192
0.0132595
0.0123034
0.0100991
0.00813306
0.00683869
0.00519558
0.00290058
0.00259122
0.00268386
0.00306612
0.00427658
0.00833693
0.0215738
0.0912366
0.0106193
0.0029209
0.00389602
0.00626425
0.00943608
0.0122502
0.0134335
0.0125159
0.010333
0.00836646
0.00708622
0.00552436
0.00338535
0.00281131
0.00296267
0.0035255
0.00513078
0.00989882
0.0241599
0.0923317
0.010442
0.00292932
0.00391848
0.00630955
0.00951743
0.0123796
0.0136178
0.01275
0.0105923
0.00862341
0.00736293
0.00589819
0.00389076
0.00317978
0.00338953
0.00415398
0.00616907
0.0116045
0.0267868
0.0933565
0.0102724
0.00293632
0.00393561
0.00634567
0.00958943
0.0125064
0.0138123
0.0130067
0.010879
0.00890573
0.00766914
0.00632236
0.00447432
0.00370711
0.00397525
0.00494891
0.00736667
0.013413
0.0293995
0.0943056
0.0101106
0.00294172
0.00394678
0.00637142
0.0096506
0.0126295
0.0140167
0.0132869
0.0111952
0.00921514
0.00800381
0.00679343
0.00513842
0.00438228
0.00471137
0.00589103
0.00868804
0.0152797
0.0319481
0.0951745
0.00995695
0.00294533
0.00395133
0.0063855
0.00969919
0.0127472
0.0142303
0.0135916
0.0115431
0.00955338
0.00836461
0.00730245
0.00586771
0.00517693
0.00557327
0.00694914
0.0100921
0.0171605
0.0343896
0.0959595
0.00981163
0.00294697
0.00394858
0.00638649
0.00973315
0.0128576
0.0144521
0.0139215
0.0119252
0.00992255
0.00874883
0.00783772
0.0066393
0.00605372
0.00652672
0.008086
0.0115372
0.0190147
0.0366904
0.0966576
0.00967496
0.00294647
0.00393784
0.00637285
0.00975012
0.012958
0.0146804
0.0142768
0.0123438
0.0103253
0.00915425
0.00838737
0.00742973
0.00697472
0.00753464
0.00926371
0.0129848
0.0208074
0.0388264
0.0972666
0.00954728
0.0029437
0.00391838
0.00634287
0.00974735
0.0130453
0.0149128
0.0146574
0.0128018
0.0107651
0.0095799
0.00894093
0.0082182
0.0079068
0.00856239
0.0104478
0.014402
0.0225113
0.0407825
0.0977854
0.00942902
0.00293855
0.00388952
0.00629471
0.00972163
0.0131156
0.0151462
0.0150628
0.0133019
0.0112468
0.010027
0.00949071
0.00898816
0.00882417
0.00958102
0.0116096
0.0157632
0.0241068
0.0425525
0.0982132
0.00932068
0.00293098
0.0038506
0.00622643
0.00966926
0.0131639
0.0153763
0.0154914
0.0138472
0.0117764
0.0104996
0.0100329
0.00972828
0.00970896
0.0105688
0.0127276
0.0170502
0.0255823
0.0441376
0.0985501
0.00922287
0.00292099
0.00380105
0.006136
0.00958604
0.0131844
0.0155974
0.0159407
0.0144403
0.0123615
0.0110051
0.0105683
0.0104327
0.0105508
0.0115114
0.013788
0.0182527
0.0269336
0.0455459
0.0987966
0.00913631
0.00290868
0.00374039
0.00602133
0.00946722
0.0131698
0.0158021
0.0164066
0.0150834
0.013011
0.0115547
0.011103
0.011101
0.0113459
0.0124021
0.014784
0.0193675
0.028164
0.0467907
0.0989536
0.00906183
0.0028943
0.00366836
0.00588044
0.00930757
0.0131116
0.0159808
0.0168827
0.0157778
0.0137349
0.0121634
0.0116484
0.0117383
0.0120966
0.0132403
0.0157156
0.0203981
0.029283
0.0478909
0.0990221
0.0090004
0.0028782
0.00358501
0.00571158
0.00910148
0.0129995
0.016121
0.0173596
0.0165227
0.0145439
0.0128499
0.0122223
0.0123556
0.012811
0.0140321
0.0165894
0.0213545
0.0303064
0.0488692
0.0990029
0.00895311
0.00286094
0.00349079
0.00551348
0.00884316
0.0128216
0.0162069
0.0178236
0.0173138
0.015448
0.0136369
0.0128496
0.0129706
0.0135026
0.0147892
0.0174178
0.0222529
0.0312559
0.0497527
0.0988962
0.00892114
0.00284327
0.00338668
0.00528568
0.00852712
0.0125647
0.0162188
0.0182553
0.0181417
0.0164552
0.01455
0.0135627
0.0136089
0.0141909
0.0155296
0.0182199
0.0231157
0.0321592
0.0505717
0.0987017
0.0089058
0.00282616
0.00327437
0.00502893
0.00814877
0.0122143
0.0161323
0.0186278
0.0189889
0.0175687
0.0156164
0.0144026
0.0143063
0.0149028
0.0162783
0.0190213
0.0239719
0.0330493
0.0513595
0.0984173
0.00890848
0.00281081
0.00315634
0.00474569
0.00770535
0.0117559
0.0159188
0.0189049
0.0198266
0.0187827
0.0168616
0.0154183
0.015111
0.015674
0.0170682
0.0198555
0.0248575
0.0339652
0.052151
0.0980396
0.00893055
0.00279862
0.00303595
0.00444062
0.00719723
0.0111764
0.0155461
0.0190399
0.0206098
0.0200758
0.0183035
0.0166643
0.0160861
0.0165519
0.0179429
0.0207647
0.025816
0.0349501
0.0529815
0.0975623
0.0089734
0.00279113
0.00291741
0.00412108
0.00662942
0.0104668
0.0149804
0.0189746
0.0212731
0.021403
0.019943
0.0181944
0.0173115
0.017599
0.0189582
0.021802
0.0268986
0.036051
0.0538836
0.0969763
0.00903828
0.00278987
0.00280556
0.00379726
0.00601318
0.00962579
0.0141908
0.0186415
0.0217263
0.0226851
0.0217486
0.0200474
0.0188826
0.0188992
0.0201845
0.023031
0.0281622
0.0373143
0.0548836
0.0962681
0.00912625
0.00279626
0.00270553
0.003482
0.00536736
0.00866415
0.013156
0.0179695
0.0218543
0.0237978
0.0236367
0.02222
0.0209011
0.0206524
0.021706
0.0245237
0.0296658
0.0387814
0.0559962
0.0954195
0.00923809
0.0028114
0.00262204
0.00318982
0.00471873
0.0076091
0.0118746
0.0168957
0.0215225
0.0245651
0.0254495
0.024617
0.0233134
0.0227956
0.0236124
0.0263528
0.0314626
0.0404804
0.0572184
0.0944056
0.00937419
0.00283593
0.00255876
0.00293517
0.00410052
0.00650736
0.0103763
0.0153848
0.0205954
0.0247644
0.0269506
0.0270891
0.0261156
0.0254193
0.0259787
0.0285776
0.0335876
0.0424167
0.0585237
0.0931942
0.00953448
0.00286994
0.00251747
0.00272995
0.00354842
0.00542402
0.00873206
0.0134548
0.0189698
0.0241445
0.0277958
0.0293254
0.0291499
0.0285379
0.028839
0.0312229
0.0360427
0.0445627
0.0598568
0.091743
0.00971837
0.00291295
0.00249769
0.00258093
0.00309408
0.00443499
0.00705651
0.011203
0.0166279
0.0224865
0.0275662
0.0308319
0.032041
0.0319983
0.0321594
0.0342546
0.0387803
0.0468481
0.0611305
0.0899981
0.00992476
0.0029641
0.00249671