/*--------------------------------*- C++ -*----------------------------------*\
  =========                 |
  \\      /  F ield         | OpenFOAM: The Open Source CFD Toolbox
   \\    /   O peration     | Website:  https://openfoam.org
    \\  /    A nd           | Version:  8
     \\/     M anipulation  |
\*---------------------------------------------------------------------------*/
FoamFile
{
    version     2.0;
    format      ascii;
    class       volScalarField;
    location    "400";
    object      p;
}
// * * * * * * * * * * * * * * * * * * * * * * * * * * * * * * * * * * * * * //

dimensions      [1 -1 -2 0 0 0 0];

internalField   nonuniform List<scalar> 
8400
(
34571.2
78611
122639
167884
215197
265260
318704
376131
438102
505143
577723
656236
741022
832315
930330
1.03518e+06
1.1469e+06
1.26541e+06
1.39059e+06
1.52224e+06
1.66017e+06
1.8042e+06
1.95414e+06
2.10979e+06
2.27096e+06
2.43739e+06
2.60873e+06
2.78441e+06
2.96363e+06
3.1453e+06
3.32784e+06
3.50944e+06
3.68788e+06
3.86058e+06
4.02469e+06
4.17713e+06
4.31484e+06
4.43491e+06
4.53497e+06
4.61342e+06
4.66924e+06
4.70257e+06
4.71475e+06
4.70795e+06
4.68578e+06
4.65383e+06
4.62081e+06
4.58824e+06
4.54318e+06
4.46495e+06
36492.3
78150.4
121011
165414
212041
261499
314362
371186
432527
498918
570828
648645
732714
823281
920552
1.02462e+06
1.13545e+06
1.25295e+06
1.37697e+06
1.50731e+06
1.64379e+06
1.78619e+06
1.93432e+06
2.08799e+06
2.247e+06
2.41113e+06
2.58005e+06
2.75322e+06
2.92986e+06
3.10893e+06
3.28897e+06
3.46819e+06
3.64442e+06
3.81514e+06
3.97751e+06
4.12849e+06
4.26518e+06
4.38484e+06
4.48493e+06
4.56393e+06
4.62108e+06
4.65659e+06
4.67185e+06
4.66928e+06
4.65265e+06
4.62715e+06
4.59848e+06
4.56505e+06
4.51363e+06
4.43411e+06
38761.5
78409.2
120016
163287
208842
257247
309081
364928
425347
490871
561958
639010
722367
812279
908901
1.01225e+06
1.12226e+06
1.23879e+06
1.36169e+06
1.49076e+06
1.62579e+06
1.76655e+06
1.91283e+06
2.06441e+06
2.22114e+06
2.38279e+06
2.54906e+06
2.71953e+06
2.89356e+06
3.07011e+06
3.24775e+06
3.42478e+06
3.59894e+06
3.76775e+06
3.9285e+06
4.07815e+06
4.21379e+06
4.3328e+06
4.4328e+06
4.51225e+06
4.57047e+06
4.60776e+06
4.62563e+06
4.6267e+06
4.61485e+06
4.59424e+06
4.56641e+06
4.52678e+06
4.46791e+06
4.3913e+06
38630.8
76315.6
116485
158402
202635
249749
300338
355012
414334
478829
548951
625113
707630
796717
892480
994876
1.1038e+06
1.21911e+06
1.3406e+06
1.46804e+06
1.60118e+06
1.73977e+06
1.88357e+06
2.03241e+06
2.18612e+06
2.34463e+06
2.5077e+06
2.67493e+06
2.84577e+06
3.01931e+06
3.19414e+06
3.36849e+06
3.54022e+06
3.70699e+06
3.86609e+06
4.01442e+06
4.14911e+06
4.26774e+06
4.36808e+06
4.44861e+06
4.50876e+06
4.54896e+06
4.57073e+06
4.57678e+06
4.57024e+06
4.55083e+06
4.51723e+06
4.46878e+06
4.40698e+06
4.3356e+06
38788.9
75308
114237
154781
197595
243308
292572
346016
404224
467710
536911
612226
693956
782271
877235
978786
1.08677e+06
1.20098e+06
1.32114e+06
1.44697e+06
1.57816e+06
1.71444e+06
1.85561e+06
2.00155e+06
2.15217e+06
2.3074e+06
2.46712e+06
2.63111e+06
2.79881e+06
2.96929e+06
3.14123e+06
3.31285e+06
3.48204e+06
3.64652e+06
3.80374e+06
3.95041e+06
4.08367e+06
4.20135e+06
4.30151e+06
4.38268e+06
4.4447e+06
4.48812e+06
4.51417e+06
4.5236e+06
4.51545e+06
4.48955e+06
4.44856e+06
4.39561e+06
4.33451e+06
4.27032e+06
37242.7
72614.1
110277
149461
190903
235309
283388
335780
393046
455696
524150
598781
679877
767607
861991
962932
1.07021e+06
1.18352e+06
1.30252e+06
1.42685e+06
1.55618e+06
1.69024e+06
1.82882e+06
1.97181e+06
2.11925e+06
2.27118e+06
2.42756e+06
2.58823e+06
2.75291e+06
2.92072e+06
3.09018e+06
3.25941e+06
3.42629e+06
3.5887e+06
3.7443e+06
3.88944e+06
4.02099e+06
4.13736e+06
4.23728e+06
4.31919e+06
4.38295e+06
4.42815e+06
4.4531e+06
4.45781e+06
4.44323e+06
4.41135e+06
4.36582e+06
4.31125e+06
4.2532e+06
4.19764e+06
36310.6
71114.7
107569
145354
185456
228658
275681
327149
383594
445507
513324
587425
668076
755431
849466
950026
1.05684e+06
1.16954e+06
1.28775e+06
1.41104e+06
1.53902e+06
1.67132e+06
1.80777e+06
1.94823e+06
2.09271e+06
2.24138e+06
2.39437e+06
2.55171e+06
2.71329e+06
2.8785e+06
3.04573e+06
3.21299e+06
3.37807e+06
3.53872e+06
3.69304e+06
3.83719e+06
3.96749e+06
4.08263e+06
4.18168e+06
4.26198e+06
4.32163e+06
4.36085e+06
4.37955e+06
4.37821e+06
4.35827e+06
4.32214e+06
4.27412e+06
4.22005e+06
4.16691e+06
4.12161e+06
34988.6
69361.1
104414
140862
179861
222146
268368
319105
374891
436230
503574
577307
657659
744740
838517
938817
1.04535e+06
1.15774e+06
1.27555e+06
1.39837e+06
1.52583e+06
1.65744e+06
1.79302e+06
1.93227e+06
2.07515e+06
2.2217e+06
2.37205e+06
2.52641e+06
2.68487e+06
2.84743e+06
3.01267e+06
3.17849e+06
3.34251e+06
3.50214e+06
3.65539e+06
3.79877e+06
3.92744e+06
4.03887e+06
4.13151e+06
4.20392e+06
4.25538e+06
4.28638e+06
4.29772e+06
4.29027e+06
4.26565e+06
4.22672e+06
4.17821e+06
4.12706e+06
4.08131e+06
4.04876e+06
34944.1
68719.4
101875
137155
175400
217100
262785
313009
368329
429279
496307
569742
649771
736458
829784
929615
1.03568e+06
1.1476e+06
1.26493e+06
1.3873e+06
1.51469e+06
1.6467e+06
1.78296e+06
1.92284e+06
2.06593e+06
2.21218e+06
2.36163e+06
2.51453e+06
2.671e+06
2.83124e+06
2.99465e+06
3.15928e+06
3.32279e+06
3.48221e+06
3.63421e+06
3.7751e+06
3.89992e+06
4.00504e+06
4.08835e+06
4.14927e+06
4.18861e+06
4.20816e+06
4.21019e+06
4.19669e+06
4.16921e+06
4.1305e+06
4.08493e+06
4.04066e+06
4.00653e+06
3.9907e+06
35568.4
69072.4
100377
135027
172948
214360
259765
309754
364907
425747
492685
565983
645790
732165
825079
924393
1.02986e+06
1.14118e+06
1.25798e+06
1.3798e+06
1.50675e+06
1.63925e+06
1.77696e+06
1.91893e+06
2.06425e+06
2.21251e+06
2.36345e+06
2.51699e+06
2.67331e+06
2.83275e+06
2.99536e+06
3.15968e+06
3.32349e+06
3.48338e+06
3.63487e+06
3.77265e+06
3.89123e+06
3.98639e+06
4.05585e+06
4.10026e+06
4.12276e+06
4.12783e+06
4.11972e+06
4.10161e+06
4.07435e+06
4.04068e+06
4.00327e+06
3.97231e+06
3.95611e+06
3.96152e+06
31627.4
68113.4
101346
136398
174396
215749
261065
311000
366177
427110
494169
567568
647389
733626
826186
924906
1.02963e+06
1.14024e+06
1.25667e+06
1.37884e+06
1.50691e+06
1.64132e+06
1.78162e+06
1.92706e+06
2.07662e+06
2.22937e+06
2.38459e+06
2.54167e+06
2.70034e+06
2.86069e+06
3.02276e+06
3.1861e+06
3.34927e+06
3.50882e+06
3.65914e+06
3.79293e+06
3.90319e+06
3.98494e+06
4.03618e+06
4.05955e+06
4.06103e+06
4.04914e+06
4.03061e+06
4.01112e+06
3.98885e+06
3.96749e+06
3.94502e+06
3.9352e+06
3.94229e+06
3.96164e+06
22830.1
64820.2
102629
139540
178709
221271
267938
319387
376210
438835
507490
582221
662924
749386
841387
938819
1.04179e+06
1.15064e+06
1.26585e+06
1.38796e+06
1.51748e+06
1.65479e+06
1.7996e+06
1.95101e+06
2.10782e+06
2.26846e+06
2.43111e+06
2.59407e+06
2.75616e+06
2.91692e+06
3.07674e+06
3.23669e+06
3.39707e+06
3.55516e+06
3.70403e+06
3.83359e+06
3.93447e+06
4.00049e+06
4.03018e+06
4.02905e+06
4.00679e+06
3.97878e+06
3.95222e+06
3.93783e+06
3.92597e+06
3.92456e+06
3.922e+06
3.92988e+06
3.95256e+06
3.97478e+06
16258.7
62886
108135
150510
193900
240584
291440
346997
407660
473659
544958
621263
702106
787003
875677
968290
1.06558e+06
1.16882e+06
1.27964e+06
1.39959e+06
1.52989e+06
1.67124e+06
1.82355e+06
1.98565e+06
2.15546e+06
2.33014e+06
2.50611e+06
2.67942e+06
2.84657e+06
3.00576e+06
3.15825e+06
3.30847e+06
3.461e+06
3.6152e+06
3.76184e+06
3.88642e+06
3.97688e+06
4.02536e+06
4.03202e+06
4.00717e+06
3.96286e+06
3.92696e+06
3.89898e+06
3.89889e+06
3.90105e+06
3.91627e+06
3.9332e+06
3.94433e+06
3.96104e+06
3.99487e+06
26950
78351.4
131780
181972
231950
285011
342334
404227
470795
541894
616978
695137
775247
856250
937593
1.01981e+06
1.10484e+06
1.19579e+06
1.29625e+06
1.40962e+06
1.53874e+06
1.68517e+06
1.84878e+06
2.02777e+06
2.21883e+06
2.417e+06
2.61571e+06
2.80697e+06
2.98239e+06
3.13623e+06
3.27055e+06
3.39695e+06
3.53013e+06
3.67472e+06
3.81555e+06
3.93142e+06
4.00903e+06
4.03794e+06
4.02363e+06
3.9845e+06
3.9279e+06
3.90233e+06
3.88408e+06
3.89628e+06
3.91202e+06
3.92123e+06
3.94091e+06
3.96921e+06
4.00006e+06
4.02889e+06
12910.1
84200.8
150659
211271
271028
334113
401914
474455
551390
631964
714828
798029
879140
955722
1.02629e+06
1.09161e+06
1.1553e+06
1.2235e+06
1.30381e+06
1.40339e+06
1.52764e+06
1.67951e+06
1.85892e+06
2.06311e+06
2.28695e+06
2.52264e+06
2.75945e+06
2.98302e+06
3.17538e+06
3.31981e+06
3.41771e+06
3.49565e+06
3.59059e+06
3.71785e+06
3.84434e+06
3.9406e+06
4.00081e+06
4.00733e+06
3.97952e+06
3.94886e+06
3.90266e+06
3.89793e+06
3.90031e+06
3.89838e+06
3.91694e+06
3.94185e+06
3.97026e+06
3.99555e+06
4.01631e+06
4.03326e+06
50584
131417
209577
282070
353039
427896
508489
594626
685462
779494
874226
965963
1.04993e+06
1.1209e+06
1.1746e+06
1.21064e+06
1.23518e+06
1.26043e+06
1.3014e+06
1.37177e+06
1.48136e+06
1.63496e+06
1.83237e+06
2.06944e+06
2.3387e+06
2.62939e+06
2.92648e+06
3.2076e+06
3.43812e+06
3.57284e+06
3.60916e+06
3.60376e+06
3.63784e+06
3.74498e+06
3.84262e+06
3.90032e+06
3.94138e+06
3.93444e+06
3.91552e+06
3.92035e+06
3.91e+06
3.88943e+06
3.90151e+06
3.91879e+06
3.94134e+06
3.96211e+06
3.98044e+06
3.99583e+06
4.0096e+06
4.02339e+06
22585.5
145159
246246
335797
424319
518634
620588
729690
844602
962944
1.08065e+06
1.19163e+06
1.2876e+06
1.35803e+06
1.39122e+06
1.38274e+06
1.34303e+06
1.29521e+06
1.26866e+06
1.28792e+06
1.36864e+06
1.51687e+06
1.73087e+06
2.0038e+06
2.3259e+06
2.68518e+06
3.06546e+06
3.43962e+06
3.75047e+06
3.88458e+06
3.83441e+06
3.71388e+06
3.67369e+06
3.77108e+06
3.83357e+06
3.84846e+06
3.88833e+06
3.90439e+06
3.8865e+06
3.87599e+06
3.89529e+06
3.90837e+06
3.92635e+06
3.93996e+06
3.95199e+06
3.96387e+06
3.97663e+06
3.99005e+06
4.004e+06
4.01881e+06
89282.4
220089
328946
428087
528884
638776
759691
891180
1.03172e+06
1.17825e+06
1.3253e+06
1.46428e+06
1.58253e+06
1.66123e+06
1.67162e+06
1.5971e+06
1.45624e+06
1.29192e+06
1.1602e+06
1.10084e+06
1.13357e+06
1.26187e+06
1.47906e+06
1.77437e+06
2.13698e+06
2.55756e+06
3.02568e+06
3.52174e+06
3.97119e+06
4.13105e+06
3.99377e+06
3.7737e+06
3.68261e+06
3.77021e+06
3.84312e+06
3.83317e+06
3.81984e+06
3.84413e+06
3.8667e+06
3.88963e+06
3.91047e+06
3.92293e+06
3.93356e+06
3.94263e+06
3.95186e+06
3.96247e+06
3.97487e+06
3.98855e+06
4.00264e+06
4.01685e+06
39657.3
267182
407448
526283
652475
793107
950005
1.12369e+06
1.31317e+06
1.51489e+06
1.72142e+06
1.91987e+06
2.09028e+06
2.19952e+06
2.18115e+06
2.00244e+06
1.70967e+06
1.38281e+06
1.12166e+06
973036
947749
1.03776e+06
1.22951e+06
1.51087e+06
1.87433e+06
2.31658e+06
2.83394e+06
3.41231e+06
3.95464e+06
4.20661e+06
4.12318e+06
3.8487e+06
3.66033e+06
3.66808e+06
3.7597e+06
3.80813e+06
3.84218e+06
3.869e+06
3.88642e+06
3.9008e+06
3.91364e+06
3.92425e+06
3.93475e+06
3.94549e+06
3.95672e+06
3.96861e+06
3.98116e+06
3.99408e+06
4.00674e+06
4.0189e+06
179758
360322
472699
584768
712170
857172
1.01994e+06
1.19982e+06
1.39447e+06
1.59854e+06
1.80208e+06
1.98897e+06
2.13598e+06
2.2146e+06
2.17274e+06
1.98309e+06
1.67735e+06
1.35777e+06
1.12759e+06
1.01237e+06
1.01316e+06
1.11223e+06
1.2933e+06
1.54501e+06
1.8635e+06
2.24998e+06
2.70575e+06
3.22162e+06
3.74571e+06
4.0869e+06
4.08477e+06
3.91643e+06
3.78167e+06
3.75388e+06
3.78593e+06
3.81832e+06
3.84378e+06
3.86416e+06
3.88082e+06
3.8961e+06
3.91056e+06
3.92346e+06
3.93552e+06
3.94716e+06
3.95853e+06
3.96975e+06
3.9809e+06
3.99181e+06
4.00169e+06
4.01021e+06
4.56978e+06
4.56926e+06
4.56901e+06
4.56891e+06
4.56885e+06
4.56881e+06
4.56877e+06
4.56874e+06
4.56871e+06
4.56868e+06
4.56866e+06
4.56863e+06
4.56861e+06
4.56859e+06
4.56857e+06
4.56856e+06
4.56855e+06
4.56854e+06
4.56853e+06
4.56852e+06
4.56851e+06
4.5685e+06
4.56848e+06
4.56847e+06
4.56846e+06
4.56845e+06
4.56844e+06
4.56843e+06
4.56842e+06
4.56842e+06
4.56843e+06
4.56844e+06
4.56845e+06
4.56846e+06
4.56848e+06
4.56849e+06
4.5685e+06
4.5685e+06
4.56851e+06
4.5685e+06
4.56849e+06
4.56847e+06
4.56845e+06
4.56842e+06
4.56838e+06
4.56834e+06
4.5683e+06
4.56824e+06
4.56817e+06
4.56808e+06
4.56808e+06
4.56837e+06
4.56846e+06
4.56849e+06
4.56851e+06
4.56853e+06
4.56853e+06
4.56852e+06
4.56852e+06
4.5685e+06
4.56849e+06
4.56847e+06
4.56846e+06
4.56844e+06
4.56843e+06
4.56842e+06
4.56841e+06
4.56841e+06
4.5684e+06
4.56839e+06
4.56838e+06
4.56838e+06
4.56837e+06
4.56836e+06
4.56834e+06
4.56833e+06
4.56832e+06
4.56832e+06
4.56831e+06
4.56832e+06
4.56832e+06
4.56833e+06
4.56834e+06
4.56835e+06
4.56837e+06
4.56838e+06
4.56839e+06
4.5684e+06
4.5684e+06
4.5684e+06
4.56839e+06
4.56837e+06
4.56835e+06
4.56832e+06
4.56829e+06
4.56825e+06
4.5682e+06
4.56815e+06
4.56809e+06
4.56802e+06
4.56844e+06
4.56858e+06
4.56865e+06
4.56865e+06
4.56864e+06
4.56862e+06
4.56859e+06
4.56857e+06
4.56854e+06
4.56851e+06
4.56848e+06
4.56846e+06
4.56843e+06
4.56841e+06
4.56839e+06
4.56838e+06
4.56836e+06
4.56835e+06
4.56834e+06
4.56833e+06
4.56832e+06
4.56831e+06
4.5683e+06
4.56829e+06
4.56827e+06
4.56826e+06
4.56825e+06
4.56824e+06
4.56824e+06
4.56824e+06
4.56824e+06
4.56825e+06
4.56826e+06
4.56827e+06
4.56829e+06
4.5683e+06
4.56831e+06
4.56832e+06
4.56832e+06
4.56831e+06
4.5683e+06
4.56829e+06
4.56827e+06
4.56824e+06
4.56821e+06
4.56818e+06
4.56814e+06
4.5681e+06
4.56805e+06
4.568e+06
4.56836e+06
4.56839e+06
4.5684e+06
4.56839e+06
4.56838e+06
4.56837e+06
4.56836e+06
4.56834e+06
4.56833e+06
4.56831e+06
4.56829e+06
4.56827e+06
4.56825e+06
4.56824e+06
4.56823e+06
4.56822e+06
4.56821e+06
4.5682e+06
4.5682e+06
4.56819e+06
4.56818e+06
4.56818e+06
4.56817e+06
4.56816e+06
4.56815e+06
4.56814e+06
4.56813e+06
4.56812e+06
4.56812e+06
4.56812e+06
4.56813e+06
4.56813e+06
4.56815e+06
4.56816e+06
4.56817e+06
4.56819e+06
4.5682e+06
4.56821e+06
4.56821e+06
4.56821e+06
4.5682e+06
4.56818e+06
4.56817e+06
4.56815e+06
4.56812e+06
4.56809e+06
4.56806e+06
4.56803e+06
4.568e+06
4.56796e+06
4.5683e+06
4.56831e+06
4.56833e+06
4.56834e+06
4.56835e+06
4.56834e+06
4.56834e+06
4.56832e+06
4.5683e+06
4.56828e+06
4.56826e+06
4.56824e+06
4.56822e+06
4.5682e+06
4.56818e+06
4.56817e+06
4.56816e+06
4.56815e+06
4.56814e+06
4.56814e+06
4.56813e+06
4.56812e+06
4.56811e+06
4.5681e+06
4.56809e+06
4.56807e+06
4.56806e+06
4.56806e+06
4.56805e+06
4.56805e+06
4.56806e+06
4.56806e+06
4.56807e+06
4.56808e+06
4.5681e+06
4.56811e+06
4.56812e+06
4.56813e+06
4.56813e+06
4.56813e+06
4.56812e+06
4.56811e+06
4.5681e+06
4.56808e+06
4.56806e+06
4.56804e+06
4.56801e+06
4.56799e+06
4.56797e+06
4.56794e+06
4.56821e+06
4.56822e+06
4.56822e+06
4.56822e+06
4.56822e+06
4.56821e+06
4.56819e+06
4.56818e+06
4.56816e+06
4.56813e+06
4.56811e+06
4.56809e+06
4.56807e+06
4.56805e+06
4.56804e+06
4.56803e+06
4.56802e+06
4.56801e+06
4.568e+06
4.568e+06
4.56799e+06
4.56799e+06
4.56798e+06
4.56797e+06
4.56796e+06
4.56795e+06
4.56795e+06
4.56794e+06
4.56794e+06
4.56794e+06
4.56794e+06
4.56795e+06
4.56796e+06
4.56797e+06
4.56798e+06
4.568e+06
4.56801e+06
4.56802e+06
4.56802e+06
4.56802e+06
4.56802e+06
4.56801e+06
4.568e+06
4.56799e+06
4.56797e+06
4.56796e+06
4.56795e+06
4.56793e+06
4.56792e+06
4.56791e+06
4.56812e+06
4.56812e+06
4.56812e+06
4.56813e+06
4.56812e+06
4.56812e+06
4.56811e+06
4.56809e+06
4.56808e+06
4.56806e+06
4.56804e+06
4.56802e+06
4.568e+06
4.56798e+06
4.56797e+06
4.56795e+06
4.56795e+06
4.56794e+06
4.56793e+06
4.56793e+06
4.56792e+06
4.56792e+06
4.56791e+06
4.5679e+06
4.56789e+06
4.56789e+06
4.56788e+06
4.56787e+06
4.56787e+06
4.56787e+06
4.56787e+06
4.56787e+06
4.56788e+06
4.56789e+06
4.56791e+06
4.56792e+06
4.56793e+06
4.56794e+06
4.56794e+06
4.56794e+06
4.56794e+06
4.56794e+06
4.56793e+06
4.56792e+06
4.56792e+06
4.56791e+06
4.5679e+06
4.5679e+06
4.5679e+06
4.56789e+06
4.56802e+06
4.56802e+06
4.56803e+06
4.56802e+06
4.56802e+06
4.56801e+06
4.568e+06
4.56798e+06
4.56796e+06
4.56794e+06
4.56792e+06
4.5679e+06
4.56788e+06
4.56786e+06
4.56784e+06
4.56783e+06
4.56782e+06
4.56782e+06
4.56781e+06
4.56781e+06
4.5678e+06
4.5678e+06
4.5678e+06
4.56779e+06
4.56778e+06
4.56778e+06
4.56777e+06
4.56776e+06
4.56776e+06
4.56776e+06
4.56776e+06
4.56777e+06
4.56777e+06
4.56779e+06
4.5678e+06
4.56781e+06
4.56782e+06
4.56783e+06
4.56784e+06
4.56784e+06
4.56784e+06
4.56784e+06
4.56784e+06
4.56784e+06
4.56784e+06
4.56784e+06
4.56785e+06
4.56785e+06
4.56786e+06
4.56787e+06
4.56793e+06
4.56793e+06
4.56793e+06
4.56792e+06
4.56792e+06
4.56791e+06
4.5679e+06
4.56789e+06
4.56787e+06
4.56785e+06
4.56782e+06
4.5678e+06
4.56778e+06
4.56777e+06
4.56775e+06
4.56774e+06
4.56773e+06
4.56773e+06
4.56772e+06
4.56772e+06
4.56772e+06
4.56772e+06
4.56771e+06
4.56771e+06
4.5677e+06
4.5677e+06
4.56769e+06
4.56768e+06
4.56768e+06
4.56768e+06
4.56768e+06
4.56768e+06
4.56769e+06
4.5677e+06
4.56771e+06
4.56772e+06
4.56773e+06
4.56774e+06
4.56775e+06
4.56776e+06
4.56776e+06
4.56777e+06
4.56777e+06
4.56778e+06
4.56778e+06
4.56779e+06
4.5678e+06
4.56782e+06
4.56783e+06
4.56785e+06
4.56783e+06
4.56783e+06
4.56783e+06
4.56782e+06
4.56782e+06
4.56781e+06
4.5678e+06
4.56778e+06
4.56776e+06
4.56774e+06
4.56772e+06
4.5677e+06
4.56768e+06
4.56766e+06
4.56764e+06
4.56763e+06
4.56762e+06
4.56762e+06
4.56762e+06
4.56762e+06
4.56762e+06
4.56761e+06
4.56761e+06
4.56761e+06
4.5676e+06
4.5676e+06
4.56759e+06
4.56759e+06
4.56758e+06
4.56758e+06
4.56758e+06
4.56759e+06
4.56759e+06
4.5676e+06
4.56761e+06
4.56762e+06
4.56763e+06
4.56764e+06
4.56765e+06
4.56766e+06
4.56767e+06
4.56768e+06
4.56769e+06
4.5677e+06
4.56772e+06
4.56773e+06
4.56775e+06
4.56777e+06
4.5678e+06
4.56782e+06
4.56773e+06
4.56773e+06
4.56773e+06
4.56772e+06
4.56772e+06
4.56771e+06
4.5677e+06
4.56768e+06
4.56766e+06
4.56764e+06
4.56762e+06
4.5676e+06
4.56757e+06
4.56756e+06
4.56754e+06
4.56753e+06
4.56752e+06
4.56752e+06
4.56752e+06
4.56752e+06
4.56752e+06
4.56752e+06
4.56752e+06
4.56752e+06
4.56751e+06
4.56751e+06
4.5675e+06
4.5675e+06
4.56749e+06
4.56749e+06
4.56749e+06
4.56749e+06
4.5675e+06
4.56751e+06
4.56752e+06
4.56753e+06
4.56754e+06
4.56755e+06
4.56756e+06
4.56757e+06
4.56758e+06
4.5676e+06
4.56761e+06
4.56763e+06
4.56765e+06
4.56768e+06
4.5677e+06
4.56773e+06
4.56776e+06
4.5678e+06
4.56763e+06
4.56763e+06
4.56763e+06
4.56762e+06
4.56762e+06
4.56761e+06
4.5676e+06
4.56758e+06
4.56756e+06
4.56754e+06
4.56752e+06
4.5675e+06
4.56748e+06
4.56746e+06
4.56744e+06
4.56743e+06
4.56743e+06
4.56742e+06
4.56742e+06
4.56742e+06
4.56743e+06
4.56743e+06
4.56743e+06
4.56743e+06
4.56743e+06
4.56742e+06
4.56742e+06
4.56741e+06
4.56741e+06
4.56741e+06
4.5674e+06
4.56741e+06
4.56741e+06
4.56742e+06
4.56742e+06
4.56743e+06
4.56744e+06
4.56746e+06
4.56747e+06
4.56748e+06
4.5675e+06
4.56752e+06
4.56754e+06
4.56756e+06
4.56759e+06
4.56762e+06
4.56766e+06
4.56769e+06
4.56773e+06
4.56777e+06
4.56753e+06
4.56753e+06
4.56753e+06
4.56753e+06
4.56752e+06
4.56751e+06
4.5675e+06
4.56748e+06
4.56746e+06
4.56744e+06
4.56741e+06
4.56739e+06
4.56737e+06
4.56735e+06
4.56733e+06
4.56732e+06
4.56731e+06
4.56731e+06
4.56731e+06
4.56731e+06
4.56732e+06
4.56732e+06
4.56732e+06
4.56732e+06
4.56732e+06
4.56732e+06
4.56731e+06
4.56731e+06
4.56731e+06
4.5673e+06
4.5673e+06
4.5673e+06
4.56731e+06
4.56731e+06
4.56732e+06
4.56733e+06
4.56734e+06
4.56735e+06
4.56737e+06
4.56739e+06
4.56741e+06
4.56743e+06
4.56746e+06
4.56749e+06
4.56752e+06
4.56756e+06
4.5676e+06
4.56765e+06
4.56769e+06
4.56774e+06
4.56742e+06
4.56742e+06
4.56743e+06
4.56743e+06
4.56742e+06
4.56742e+06
4.5674e+06
4.56739e+06
4.56737e+06
4.56735e+06
4.56732e+06
4.5673e+06
4.56728e+06
4.56726e+06
4.56725e+06
4.56724e+06
4.56723e+06
4.56723e+06
4.56723e+06
4.56723e+06
4.56724e+06
4.56724e+06
4.56724e+06
4.56725e+06
4.56725e+06
4.56724e+06
4.56724e+06
4.56723e+06
4.56723e+06
4.56723e+06
4.56722e+06
4.56722e+06
4.56723e+06
4.56723e+06
4.56724e+06
4.56725e+06
4.56726e+06
4.56727e+06
4.56729e+06
4.56731e+06
4.56733e+06
4.56736e+06
4.56739e+06
4.56742e+06
4.56746e+06
4.56751e+06
4.56756e+06
4.56761e+06
4.56766e+06
4.56772e+06
4.56732e+06
4.56732e+06
4.56732e+06
4.56732e+06
4.56732e+06
4.56731e+06
4.56729e+06
4.56727e+06
4.56725e+06
4.56722e+06
4.5672e+06
4.56717e+06
4.56715e+06
4.56713e+06
4.56712e+06
4.56711e+06
4.5671e+06
4.5671e+06
4.5671e+06
4.56711e+06
4.56711e+06
4.56712e+06
4.56712e+06
4.56713e+06
4.56713e+06
4.56713e+06
4.56712e+06
4.56712e+06
4.56712e+06
4.56711e+06
4.56711e+06
4.56711e+06
4.56711e+06
4.56712e+06
4.56712e+06
4.56713e+06
4.56715e+06
4.56716e+06
4.56718e+06
4.56721e+06
4.56723e+06
4.56726e+06
4.5673e+06
4.56734e+06
4.56739e+06
4.56744e+06
4.56749e+06
4.56755e+06
4.56761e+06
4.56768e+06
4.5672e+06
4.56722e+06
4.56724e+06
4.56725e+06
4.56725e+06
4.56724e+06
4.56723e+06
4.56722e+06
4.56719e+06
4.56717e+06
4.56715e+06
4.56712e+06
4.5671e+06
4.56708e+06
4.56706e+06
4.56705e+06
4.56705e+06
4.56704e+06
4.56704e+06
4.56705e+06
4.56705e+06
4.56706e+06
4.56706e+06
4.56706e+06
4.56706e+06
4.56706e+06
4.56706e+06
4.56705e+06
4.56705e+06
4.56704e+06
4.56704e+06
4.56704e+06
4.56704e+06
4.56704e+06
4.56705e+06
4.56706e+06
4.56707e+06
4.56709e+06
4.56711e+06
4.56713e+06
4.56716e+06
4.56719e+06
4.56723e+06
4.56728e+06
4.56733e+06
4.56738e+06
4.56744e+06
4.56751e+06
4.56758e+06
4.56765e+06
4.56707e+06
4.5671e+06
4.56711e+06
4.5671e+06
4.56708e+06
4.56707e+06
4.56705e+06
4.56704e+06
4.56702e+06
4.56699e+06
4.56697e+06
4.56695e+06
4.56693e+06
4.56692e+06
4.56691e+06
4.5669e+06
4.5669e+06
4.5669e+06
4.5669e+06
4.56691e+06
4.56691e+06
4.56692e+06
4.56693e+06
4.56693e+06
4.56693e+06
4.56693e+06
4.56693e+06
4.56693e+06
4.56693e+06
4.56692e+06
4.56692e+06
4.56692e+06
4.56692e+06
4.56692e+06
4.56693e+06
4.56694e+06
4.56696e+06
4.56697e+06
4.567e+06
4.56702e+06
4.56706e+06
4.56709e+06
4.56714e+06
4.56719e+06
4.56724e+06
4.5673e+06
4.56737e+06
4.56744e+06
4.56752e+06
4.5676e+06
4.56695e+06
4.56709e+06
4.56716e+06
4.56716e+06
4.56714e+06
4.56712e+06
4.56709e+06
4.56706e+06
4.56703e+06
4.567e+06
4.56697e+06
4.56694e+06
4.56691e+06
4.56689e+06
4.56687e+06
4.56686e+06
4.56685e+06
4.56685e+06
4.56685e+06
4.56685e+06
4.56686e+06
4.56686e+06
4.56687e+06
4.56687e+06
4.56687e+06
4.56687e+06
4.56686e+06
4.56686e+06
4.56685e+06
4.56685e+06
4.56685e+06
4.56684e+06
4.56684e+06
4.56685e+06
4.56685e+06
4.56686e+06
4.56688e+06
4.5669e+06
4.56692e+06
4.56695e+06
4.56698e+06
4.56702e+06
4.56706e+06
4.56712e+06
4.56717e+06
4.56724e+06
4.56731e+06
4.56739e+06
4.56747e+06
4.56757e+06
4.5664e+06
4.56668e+06
4.56677e+06
4.5668e+06
4.56682e+06
4.56683e+06
4.56683e+06
4.56682e+06
4.56681e+06
4.56679e+06
4.56677e+06
4.56676e+06
4.56674e+06
4.56673e+06
4.56672e+06
4.56671e+06
4.56671e+06
4.56671e+06
4.56671e+06
4.56672e+06
4.56673e+06
4.56673e+06
4.56674e+06
4.56674e+06
4.56674e+06
4.56674e+06
4.56674e+06
4.56674e+06
4.56674e+06
4.56673e+06
4.56673e+06
4.56673e+06
4.56673e+06
4.56674e+06
4.56674e+06
4.56675e+06
4.56677e+06
4.56679e+06
4.56681e+06
4.56684e+06
4.56688e+06
4.56692e+06
4.56697e+06
4.56702e+06
4.56708e+06
4.56715e+06
4.56723e+06
4.56731e+06
4.5674e+06
4.5675e+06
4.5679e+06
4.56738e+06
4.56713e+06
4.56703e+06
4.56696e+06
4.56692e+06
4.56687e+06
4.56684e+06
4.56681e+06
4.56678e+06
4.56675e+06
4.56672e+06
4.5667e+06
4.56668e+06
4.56666e+06
4.56665e+06
4.56664e+06
4.56664e+06
4.56664e+06
4.56665e+06
4.56665e+06
4.56666e+06
4.56666e+06
4.56666e+06
4.56667e+06
4.56666e+06
4.56666e+06
4.56666e+06
4.56665e+06
4.56665e+06
4.56665e+06
4.56664e+06
4.56664e+06
4.56665e+06
4.56666e+06
4.56667e+06
4.56668e+06
4.5667e+06
4.56672e+06
4.56675e+06
4.56679e+06
4.56683e+06
4.56688e+06
4.56694e+06
4.567e+06
4.56707e+06
4.56715e+06
4.56723e+06
4.56733e+06
4.56745e+06
4.36085e+06
4.36761e+06
4.36848e+06
4.37309e+06
4.37458e+06
4.37747e+06
4.37884e+06
4.38034e+06
4.38102e+06
4.38129e+06
4.38132e+06
4.38113e+06
4.38097e+06
4.38118e+06
4.381e+06
4.38282e+06
4.38197e+06
4.38663e+06
4.38516e+06
4.39572e+06
4.35883e+06
4.36555e+06
4.36643e+06
4.37099e+06
4.37246e+06
4.37528e+06
4.37658e+06
4.37796e+06
4.37849e+06
4.3786e+06
4.3785e+06
4.37819e+06
4.378e+06
4.37821e+06
4.37807e+06
4.38002e+06
4.37934e+06
4.38408e+06
4.38292e+06
4.39379e+06
4.35691e+06
4.36364e+06
4.36455e+06
4.36907e+06
4.37054e+06
4.37329e+06
4.37454e+06
4.37581e+06
4.37621e+06
4.3762e+06
4.37602e+06
4.37564e+06
4.37545e+06
4.37562e+06
4.37546e+06
4.37752e+06
4.37706e+06
4.38183e+06
4.38087e+06
4.39206e+06
4.35519e+06
4.36191e+06
4.36285e+06
4.36733e+06
4.3688e+06
4.3715e+06
4.37271e+06
4.37389e+06
4.3742e+06
4.37411e+06
4.37389e+06
4.37348e+06
4.37333e+06
4.37344e+06
4.37328e+06
4.37539e+06
4.37517e+06
4.37992e+06
4.37896e+06
4.39027e+06
4.35366e+06
4.36037e+06
4.36134e+06
4.36578e+06
4.36726e+06
4.3699e+06
4.37109e+06
4.37222e+06
4.37248e+06
4.37238e+06
4.37216e+06
4.37173e+06
4.37165e+06
4.37171e+06
4.37157e+06
4.37366e+06
4.37367e+06
4.37834e+06
4.37732e+06
4.38867e+06
4.35234e+06
4.35904e+06
4.36003e+06
4.36443e+06
4.36591e+06
4.3685e+06
4.36967e+06
4.37076e+06
4.37103e+06
4.37098e+06
4.3708e+06
4.37036e+06
4.37028e+06
4.37035e+06
4.3703e+06
4.37233e+06
4.37249e+06
4.37696e+06
4.37592e+06
4.38729e+06
4.35125e+06
4.35793e+06
4.35894e+06
4.36328e+06
4.36476e+06
4.36729e+06
4.36845e+06
4.36954e+06
4.36985e+06
4.36989e+06
4.36977e+06
4.36929e+06
4.36914e+06
4.36935e+06
4.3694e+06
4.37134e+06
4.37157e+06
4.37566e+06
4.37469e+06
4.38606e+06
4.35042e+06
4.35708e+06
4.3581e+06
4.36235e+06
4.36383e+06
4.36628e+06
4.36744e+06
4.36852e+06
4.36891e+06
4.36907e+06
4.36903e+06
4.36858e+06
4.36839e+06
4.36869e+06
4.36882e+06
4.37063e+06
4.37079e+06
4.37439e+06
4.37354e+06
4.38492e+06
4.34987e+06
4.3565e+06
4.35752e+06
4.36168e+06
4.36314e+06
4.36551e+06
4.36665e+06
4.36771e+06
4.36816e+06
4.36843e+06
4.3685e+06
4.36817e+06
4.36798e+06
4.36833e+06
4.36847e+06
4.37008e+06
4.37005e+06
4.37312e+06
4.37244e+06
4.38388e+06
4.34963e+06
4.35623e+06
4.35724e+06
4.36129e+06
4.36271e+06
4.36497e+06
4.36606e+06
4.36708e+06
4.36755e+06
4.36787e+06
4.368e+06
4.36781e+06
4.36772e+06
4.36812e+06
4.36817e+06
4.3695e+06
4.36919e+06
4.37189e+06
4.3714e+06
4.38294e+06
4.34974e+06
4.35629e+06
4.35728e+06
4.36121e+06
4.36257e+06
4.36468e+06
4.36569e+06
4.36659e+06
4.36701e+06
4.36732e+06
4.36743e+06
4.36734e+06
4.36739e+06
4.36781e+06
4.36775e+06
4.36876e+06
4.36819e+06
4.37075e+06
4.37045e+06
4.38212e+06
4.35023e+06
4.35672e+06
4.35769e+06
4.36147e+06
4.36274e+06
4.36468e+06
4.36554e+06
4.36628e+06
4.36656e+06
4.36674e+06
4.36674e+06
4.3667e+06
4.36684e+06
4.36722e+06
4.36708e+06
4.36781e+06
4.36717e+06
4.36979e+06
4.36961e+06
4.38148e+06
4.35115e+06
4.35756e+06
4.3585e+06
4.36211e+06
4.36327e+06
4.36499e+06
4.36567e+06
4.36618e+06
4.36625e+06
4.36619e+06
4.36597e+06
4.36585e+06
4.36609e+06
4.36641e+06
4.36617e+06
4.36676e+06
4.36619e+06
4.36907e+06
4.369e+06
4.38109e+06
4.35254e+06
4.35885e+06
4.35975e+06
4.36317e+06
4.3642e+06
4.3657e+06
4.36615e+06
4.36639e+06
4.36618e+06
4.36581e+06
4.36529e+06
4.36496e+06
4.36523e+06
4.36546e+06
4.36515e+06
4.3658e+06
4.36535e+06
4.36871e+06
4.36876e+06
4.38105e+06
4.35443e+06
4.36064e+06
4.36149e+06
4.36471e+06
4.3656e+06
4.36685e+06
4.36706e+06
4.36701e+06
4.36649e+06
4.36577e+06
4.36489e+06
4.36426e+06
4.36446e+06
4.36457e+06
4.36432e+06
4.36514e+06
4.36491e+06
4.36886e+06
4.36906e+06
4.38151e+06
4.35687e+06
4.36295e+06
4.36375e+06
4.36678e+06
4.36753e+06
4.36853e+06
4.36851e+06
4.36816e+06
4.36732e+06
4.36626e+06
4.36503e+06
4.36409e+06
4.36411e+06
4.36414e+06
4.36401e+06
4.36507e+06
4.36514e+06
4.36971e+06
4.37007e+06
4.38261e+06
4.35988e+06
4.36582e+06
4.36658e+06
4.36941e+06
4.37003e+06
4.3708e+06
4.37056e+06
4.36995e+06
4.36884e+06
4.36748e+06
4.36596e+06
4.36477e+06
4.36459e+06
4.36454e+06
4.36457e+06
4.36586e+06
4.36629e+06
4.37142e+06
4.37195e+06
4.38446e+06
4.36349e+06
4.36928e+06
4.37e+06
4.37264e+06
4.37314e+06
4.37371e+06
4.37329e+06
4.37246e+06
4.37114e+06
4.36956e+06
4.36784e+06
4.36648e+06
4.36615e+06
4.36605e+06
4.36624e+06
4.36772e+06
4.36852e+06
4.37408e+06
4.37476e+06
4.38714e+06
4.36771e+06
4.37334e+06
4.37402e+06
4.37649e+06
4.37688e+06
4.37729e+06
4.37672e+06
4.37574e+06
4.37429e+06
4.37258e+06
4.37077e+06
4.36934e+06
4.3689e+06
4.36879e+06
4.36912e+06
4.37075e+06
4.3719e+06
4.37773e+06
4.37854e+06
4.39065e+06
4.37253e+06
4.37799e+06
4.37865e+06
4.38094e+06
4.38126e+06
4.38153e+06
4.38087e+06
4.37981e+06
4.37829e+06
4.37654e+06
4.37474e+06
4.37333e+06
4.37285e+06
4.37275e+06
4.37321e+06
4.37494e+06
4.37639e+06
4.38235e+06
4.38324e+06
4.39498e+06
4.37796e+06
4.38323e+06
4.38387e+06
4.38601e+06
4.38627e+06
4.38643e+06
4.38572e+06
4.38462e+06
4.3831e+06
4.3814e+06
4.37969e+06
4.37837e+06
4.3779e+06
4.37784e+06
4.37841e+06
4.3802e+06
4.38189e+06
4.38784e+06
4.38879e+06
4.40007e+06
4.38396e+06
4.38904e+06
4.38966e+06
4.39165e+06
4.39186e+06
4.39195e+06
4.39122e+06
4.39012e+06
4.38866e+06
4.38706e+06
4.3855e+06
4.38432e+06
4.3839e+06
4.3839e+06
4.38456e+06
4.3864e+06
4.38826e+06
4.39409e+06
4.39507e+06
4.40584e+06
4.39051e+06
4.39539e+06
4.39599e+06
4.39784e+06
4.39802e+06
4.39804e+06
4.39731e+06
4.39625e+06
4.39488e+06
4.39341e+06
4.39203e+06
4.39102e+06
4.39067e+06
4.39075e+06
4.3915e+06
4.39335e+06
4.39534e+06
4.40099e+06
4.40198e+06
4.41219e+06
4.39757e+06
4.40224e+06
4.40282e+06
4.40453e+06
4.40467e+06
4.40464e+06
4.40393e+06
4.40291e+06
4.40164e+06
4.40033e+06
4.39914e+06
4.3983e+06
4.39805e+06
4.39821e+06
4.39904e+06
4.40091e+06
4.40298e+06
4.40841e+06
4.40939e+06
4.41903e+06
4.4051e+06
4.40955e+06
4.4101e+06
4.41168e+06
4.41178e+06
4.4117e+06
4.41099e+06
4.41002e+06
4.40886e+06
4.4077e+06
4.4067e+06
4.40603e+06
4.40588e+06
4.40613e+06
4.40704e+06
4.40893e+06
4.41104e+06
4.41624e+06
4.41722e+06
4.42628e+06
4.41306e+06
4.41727e+06
4.41779e+06
4.41922e+06
4.41928e+06
4.41914e+06
4.41844e+06
4.41751e+06
4.41644e+06
4.41543e+06
4.4146e+06
4.41409e+06
4.41403e+06
4.41438e+06
4.41537e+06
4.41728e+06
4.41942e+06
4.42438e+06
4.42536e+06
4.43386e+06
4.42138e+06
4.42534e+06
4.42583e+06
4.42711e+06
4.42712e+06
4.42692e+06
4.42621e+06
4.4253e+06
4.42431e+06
4.42342e+06
4.42274e+06
4.42237e+06
4.42241e+06
4.42286e+06
4.42393e+06
4.42586e+06
4.42803e+06
4.43277e+06
4.43375e+06
4.44171e+06
4.43e+06
4.43371e+06
4.43415e+06
4.43529e+06
4.43524e+06
4.43497e+06
4.43424e+06
4.43335e+06
4.43241e+06
4.43161e+06
4.43106e+06
4.43081e+06
4.43094e+06
4.4315e+06
4.43264e+06
4.43461e+06
4.43681e+06
4.44134e+06
4.44234e+06
4.44978e+06
4.43888e+06
4.44232e+06
4.44272e+06
4.4437e+06
4.44359e+06
4.44325e+06
4.44249e+06
4.44159e+06
4.44069e+06
4.43995e+06
4.43949e+06
4.43936e+06
4.43958e+06
4.44023e+06
4.44146e+06
4.44347e+06
4.4457e+06