/*--------------------------------*- C++ -*----------------------------------*\
  =========                 |
  \\      /  F ield         | OpenFOAM: The Open Source CFD Toolbox
   \\    /   O peration     | Website:  https://openfoam.org
    \\  /    A nd           | Version:  8
     \\/     M anipulation  |
\*---------------------------------------------------------------------------*/
FoamFile
{
    version     2.0;
    format      ascii;
    class       volScalarField;
    location    "400";
    object      T;
}
// * * * * * * * * * * * * * * * * * * * * * * * * * * * * * * * * * * * * * //

dimensions      [0 0 0 1 0 0 0];

internalField   nonuniform List<scalar> 
8400
(
300.368
300.37
300.37
300.369
300.366
300.363
300.357
300.351
300.342
300.333
300.321
300.308
300.293
300.276
300.258
300.237
300.215
300.19
300.165
300.137
300.108
300.079
300.048
300.017
299.986
299.955
299.925
299.897
299.87
299.846
299.824
299.806
299.791
299.78
299.774
299.772
299.776
299.784
299.798
299.817
299.84
299.868
299.899
299.933
299.968
300.004
300.038
300.066
300.077
300.085
300.342
300.341
300.34
300.339
300.336
300.333
300.329
300.323
300.317
300.31
300.301
300.291
300.28
300.267
300.254
300.238
300.222
300.204
300.185
300.166
300.145
300.124
300.102
300.081
300.06
300.039
300.019
300.001
299.984
299.969
299.956
299.945
299.937
299.931
299.929
299.929
299.933
299.939
299.949
299.961
299.976
299.994
300.012
300.032
300.052
300.071
300.087
300.098
300.104
300.109
300.269
300.265
300.264
300.262
300.26
300.257
300.254
300.25
300.245
300.24
300.234
300.227
300.219
300.21
300.2
300.19
300.179
300.166
300.154
300.141
300.127
300.113
300.099
300.086
300.073
300.061
300.049
300.039
300.029
300.022
300.015
300.01
300.007
300.006
300.007
300.009
300.013
300.019
300.027
300.036
300.046
300.057
300.069
300.08
300.091
300.101
300.108
300.112
300.114
300.117
300.149
300.147
300.149
300.15
300.151
300.151
300.151
300.151
300.15
300.149
300.148
300.145
300.142
300.139
300.135
300.13
300.125
300.119
300.113
300.106
300.099
300.093
300.086
300.079
300.073
300.067
300.062
300.057
300.053
300.051
300.049
300.048
300.048
300.049
300.051
300.055
300.059
300.064
300.07
300.076
300.083
300.09
300.098
300.104
300.11
300.113
300.116
300.117
300.118
300.12
300.033
300.035
300.041
300.046
300.052
300.057
300.061
300.066
300.07
300.073
300.077
300.079
300.082
300.083
300.085
300.085
300.085
300.085
300.084
300.082
300.081
300.079
300.076
300.074
300.072
300.07
300.069
300.068
300.067
300.067
300.067
300.068
300.07
300.072
300.075
300.079
300.083
300.087
300.092
300.097
300.102
300.107
300.111
300.114
300.116
300.117
300.118
300.118
300.119
300.119
299.929
299.937
299.949
299.96
299.971
299.982
299.993
300.002
300.012
300.02
300.029
300.036
300.043
300.049
300.054
300.058
300.062
300.065
300.067
300.068
300.069
300.07
300.07
300.07
300.07
300.07
300.07
300.07
300.07
300.071
300.073
300.075
300.077
300.08
300.084
300.088
300.092
300.096
300.101
300.105
300.109
300.112
300.115
300.116
300.117
300.118
300.118
300.117
300.117
300.116
299.866
299.879
299.897
299.914
299.93
299.945
299.96
299.973
299.986
299.998
300.009
300.018
300.027
300.035
300.041
300.047
300.051
300.055
300.058
300.06
300.061
300.062
300.063
300.063
300.063
300.063
300.064
300.065
300.066
300.068
300.07
300.073
300.076
300.08
300.084
300.089
300.093
300.098
300.103
300.107
300.11
300.113
300.115
300.116
300.117
300.116
300.116
300.114
300.113
300.11
299.879
299.892
299.909
299.925
299.94
299.955
299.969
299.981
299.993
300.003
300.013
300.021
300.028
300.034
300.039
300.043
300.046
300.048
300.05
300.051
300.052
300.052
300.053
300.053
300.053
300.054
300.055
300.056
300.058
300.06
300.063
300.067
300.071
300.076
300.081
300.086
300.091
300.097
300.102
300.107
300.111
300.113
300.115
300.115
300.115
300.113
300.111
300.108
300.105
300.101
299.957
299.962
299.97
299.978
299.986
299.994
300.001
300.007
300.013
300.019
300.023
300.027
300.031
300.034
300.036
300.038
300.039
300.04
300.04
300.041
300.041
300.041
300.042
300.042
300.043
300.044
300.045
300.047
300.05
300.053
300.057
300.061
300.066
300.071
300.077
300.084
300.09
300.096
300.102
300.107
300.111
300.113
300.113
300.112
300.11
300.107
300.103
300.099
300.094
300.089
300.004
300.004
300.007
300.009
300.011
300.014
300.016
300.018
300.019
300.021
300.023
300.024
300.025
300.026
300.027
300.027
300.028
300.029
300.029
300.03
300.031
300.031
300.032
300.033
300.034
300.036
300.038
300.041
300.044
300.048
300.052
300.058
300.064
300.07
300.077
300.084
300.09
300.097
300.102
300.107
300.11
300.11
300.109
300.106
300.101
300.096
300.091
300.085
300.08
300.075
300.002
300.004
300.006
300.007
300.008
300.01
300.011
300.012
300.012
300.013
300.013
300.014
300.014
300.015
300.016
300.016
300.017
300.019
300.02
300.021
300.023
300.024
300.026
300.027
300.029
300.032
300.035
300.038
300.042
300.047
300.052
300.058
300.064
300.071
300.078
300.084
300.09
300.096
300.101
300.104
300.105
300.103
300.1
300.094
300.088
300.082
300.077
300.073
300.069
300.066
300.002
300.002
300.003
300.003
300.004
300.004
300.004
300.004
300.005
300.005
300.006
300.006
300.007
300.008
300.009
300.011
300.013
300.015
300.017
300.019
300.021
300.024
300.026
300.028
300.03
300.032
300.035
300.039
300.043
300.048
300.054
300.06
300.066
300.072
300.078
300.083
300.088
300.092
300.095
300.095
300.094
300.091
300.086
300.079
300.074
300.071
300.07
300.071
300.07
300.068
300.003
300.004
300.004
300.004
300.004
300.004
300.004
300.005
300.005
300.005
300.006
300.007
300.008
300.009
300.011
300.013
300.016
300.019
300.021
300.024
300.026
300.029
300.031
300.032
300.034
300.036
300.038
300.041
300.045
300.05
300.056
300.062
300.068
300.073
300.077
300.08
300.082
300.083
300.083
300.081
300.078
300.074
300.071
300.068
300.071
300.075
300.086
300.087
300.076
300.066
300.002
300.002
300.002
300.002
300.003
300.003
300.004
300.005
300.005
300.006
300.007
300.008
300.01
300.012
300.014
300.017
300.021
300.025
300.028
300.032
300.035
300.037
300.038
300.039
300.04
300.041
300.041
300.043
300.046
300.051
300.057
300.064
300.069
300.073
300.074
300.073
300.071
300.069
300.066
300.063
300.063
300.063
300.07
300.077
300.099
300.109
300.102
300.09
300.079
300.073
300.005
300.006
300.006
300.007
300.007
300.008
300.008
300.007
300.007
300.007
300.008
300.008
300.01
300.013
300.016
300.02
300.026
300.031
300.037
300.042
300.045
300.048
300.049
300.048
300.047
300.045
300.044
300.043
300.044
300.048
300.055
300.062
300.067
300.069
300.067
300.063
300.058
300.055
300.053
300.054
300.066
300.077
300.108
300.123
300.121
300.111
300.099
300.088
300.082
300.084
299.997
299.995
299.993
299.992
299.992
299.991
299.992
299.992
299.993
299.994
299.996
299.999
300.002
300.007
300.014
300.021
300.03
300.039
300.048
300.056
300.061
300.063
300.063
300.061
300.056
300.051
300.045
300.04
300.037
300.039
300.046
300.055
300.062
300.063
300.06
300.055
300.051
300.056
300.066
300.08
300.122
300.133
300.129
300.12
300.109
300.098
300.089
300.085
300.089
300.107
300.005
300.007
300.01
300.014
300.016
300.018
300.02
300.02
300.02
300.02
300.02
300.021
300.022
300.025
300.03
300.037
300.047
300.058
300.069
300.078
300.084
300.086
300.084
300.078
300.07
300.059
300.047
300.035
300.026
300.024
300.031
300.044
300.054
300.053
300.06
300.065
300.068
300.106
300.145
300.152
300.14
300.127
300.114
300.102
300.09
300.083
300.083
300.093
300.117
300.161
299.986
299.978
299.972
299.968
299.965
299.963
299.962
299.962
299.963
299.965
299.969
299.974
299.981
299.991
300.003
300.019
300.038
300.059
300.08
300.097
300.109
300.114
300.113
300.107
300.095
300.079
300.059
300.036
300.014
300.011
300.018
300.031
300.04
300.027
300.1
300.148
300.159
300.147
300.131
300.116
300.101
300.086
300.073
300.066
300.065
300.073
300.094
300.13
300.187
300.267
300.011
300.02
300.035
300.052
300.067
300.08
300.091
300.1
300.105
300.109
300.111
300.112
300.114
300.118
300.123
300.131
300.139
300.15
300.163
300.171
300.173
300.168
300.158
300.143
300.122
300.095
300.058
300.007
299.921
299.951
299.974
299.929
299.886
299.892
299.922
299.945
299.956
299.959
299.959
299.96
299.964
299.973
299.989
300.013
300.048
300.095
300.158
300.239
300.341
300.465
299.969
299.945
299.923
299.898
299.871
299.839
299.804
299.764
299.718
299.663
299.594
299.502
299.36
299.102
298.857
298.81
298.755
298.753
298.794
298.882
299.014
299.173
299.347
299.518
299.672
299.798
299.887
299.933
299.939
299.903
299.828
299.733
299.657
299.628
299.633
299.649
299.671
299.698
299.732
299.773
299.825
299.887
299.959
300.042
300.136
300.243
300.361
300.492
300.634
300.787
303.149
303.148
303.146
303.145
303.144
303.142
303.141
303.14
303.139
303.138
303.136
303.135
303.134
303.133
303.132
303.131
303.13
303.128
303.127
303.126
303.125
303.124
303.123
303.122
303.121
303.12
303.119
303.118
303.117
303.116
303.115
303.114
303.113
303.113
303.112
303.111
303.11
303.109
303.108
303.107
303.106
303.105
303.105
303.104
303.103
303.102
303.102
303.101
303.101
303.1
303.15
303.15
303.15
303.15
303.15
303.15
303.15
303.15
303.15
303.15
303.149
303.149
303.149
303.149
303.149
303.149
303.149
303.149
303.148
303.148
303.148
303.148
303.148
303.148
303.148
303.147
303.147
303.147
303.147
303.147
303.147
303.147
303.146
303.146
303.146
303.146
303.146
303.146
303.145
303.145
303.145
303.145
303.145
303.145
303.145
303.144
303.144
303.144
303.144
303.144
303.15
303.15
303.15
303.15
303.15
303.15
303.15
303.15
303.15
303.15
303.15
303.15
303.15
303.15
303.15
303.15
303.15
303.15
303.15
303.15
303.15
303.15
303.15
303.15
303.15
303.15
303.15
303.15
303.15
303.15
303.15
303.15
303.15
303.15
303.15
303.15
303.15
303.15
303.15
303.15
303.15
303.15
303.15
303.15
303.15
303.15
303.15
303.15
303.15
303.15
303.15
303.15
303.15
303.15
303.15
303.15
303.15
303.15
303.15
303.15
303.15
303.15
303.15
303.15
303.15
303.15
303.15
303.15
303.15
303.15
303.15
303.15
303.15
303.15
303.15
303.15
303.15
303.15
303.15
303.15
303.15
303.15
303.15
303.15
303.15
303.15
303.15
303.15
303.15
303.15
303.15
303.15
303.15
303.15
303.15
303.15
303.15
303.15
303.15
303.15
303.15
303.15
303.15
303.15
303.15
303.15
303.15
303.15
303.15
303.15
303.15
303.15
303.15
303.15
303.15
303.15
303.15
303.15
303.15
303.15
303.15
303.15
303.15
303.15
303.15
303.15
303.15
303.15
303.15
303.15
303.15
303.15
303.15
303.15
303.15
303.15
303.15
303.15
303.15
303.15
303.15
303.15
303.15
303.15
303.15
303.15
303.15
303.15
303.15
303.15
303.15
303.15
303.15
303.15
303.15
303.15
303.15
303.15
303.15
303.15
303.15
303.15
303.15
303.15
303.15
303.15
303.15
303.15
303.15
303.15
303.15
303.15
303.15
303.15
303.15
303.15
303.15
303.15
303.15
303.15
303.15
303.15
303.15
303.15
303.15
303.15
303.15
303.15
303.15
303.15
303.15
303.15
303.15
303.15
303.15
303.15
303.15
303.15
303.15
303.15
303.15
303.15
303.15
303.15
303.15
303.15
303.15
303.15
303.15
303.15
303.15
303.15
303.15
303.15
303.15
303.15
303.15
303.15
303.15
303.15
303.15
303.15
303.15
303.15
303.15
303.15
303.15
303.15
303.15
303.15
303.15
303.15
303.15
303.15
303.15
303.15
303.15
303.15
303.15
303.15
303.15
303.15
303.15
303.15
303.15
303.15
303.15
303.15
303.15
303.15
303.15
303.15
303.15
303.15
303.15
303.15
303.15
303.15
303.15
303.15
303.15
303.15
303.15
303.15
303.15
303.15
303.15
303.15
303.15
303.15
303.15
303.15
303.15
303.15
303.15
303.15
303.15
303.15
303.15
303.15
303.15
303.15
303.15
303.15
303.15
303.15
303.15
303.15
303.15
303.15
303.15
303.15
303.15
303.15
303.15
303.15
303.15
303.15
303.15
303.15
303.15
303.15
303.15
303.15
303.15
303.15
303.15
303.15
303.15
303.15
303.15
303.15
303.15
303.15
303.15
303.15
303.15
303.15
303.15
303.15
303.15
303.15
303.15
303.15
303.15
303.15
303.15
303.15
303.15
303.15
303.15
303.15
303.15
303.15
303.15
303.15
303.15
303.15
303.15
303.15
303.15
303.15
303.15
303.15
303.15
303.15
303.15
303.15
303.15
303.15
303.15
303.15
303.15
303.15
303.15
303.15
303.15
303.15
303.15
303.15
303.15
303.15
303.15
303.15
303.15
303.15
303.15
303.15
303.15
303.15
303.15
303.15
303.15
303.15
303.15
303.15
303.15
303.15
303.15
303.15
303.15
303.15
303.15
303.15
303.15
303.15
303.15
303.15
303.15
303.15
303.15
303.15
303.15
303.15
303.15
303.15
303.15
303.15
303.15
303.15
303.15
303.15
303.15
303.15
303.15
303.15
303.15
303.15
303.15
303.15
303.15
303.15
303.15
303.15
303.15
303.15
303.15
303.15
303.15
303.15
303.15
303.15
303.15
303.15
303.15
303.15
303.15
303.15
303.15
303.15
303.15
303.15
303.15
303.15
303.15
303.15
303.15
303.15
303.15
303.15
303.15
303.15
303.15
303.15
303.15
303.15
303.15
303.15
303.15
303.15
303.15
303.15
303.15
303.15
303.15
303.15
303.15
303.15
303.15
303.15
303.15
303.15
303.15
303.15
303.15
303.15
303.15
303.15
303.15
303.15
303.15
303.15
303.15
303.15
303.15
303.15
303.15
303.15
303.15
303.15
303.15
303.15
303.15
303.15
303.15
303.15
303.15
303.15
303.15
303.15
303.15
303.15
303.15
303.15
303.15
303.15
303.15
303.15
303.15
303.15
303.15
303.15
303.15
303.15
303.15
303.15
303.15
303.15
303.15
303.15
303.15
303.15
303.15
303.15
303.15
303.15
303.15
303.15
303.15
303.15
303.15
303.15
303.15
303.15
303.15
303.15
303.15
303.15
303.15
303.15
303.15
303.15
303.15
303.15
303.15
303.15
303.15
303.15
303.15
303.15
303.15
303.15
303.15
303.15
303.15
303.15
303.15
303.15
303.15
303.15
303.15
303.15
303.15
303.15
303.15
303.15
303.15
303.15
303.15
303.15
303.15
303.15
303.15
303.15
303.15
303.15
303.15
303.15
303.15
303.15
303.15
303.15
303.15
303.15
303.15
303.15
303.15
303.15
303.15
303.15
303.15
303.15
303.15
303.15
303.15
303.15
303.15
303.15
303.15
303.15
303.15
303.15
303.15
303.15
303.15
303.15
303.15
303.15
303.15
303.15
303.15
303.15
303.15
303.15
303.15
303.15
303.15
303.15
303.15
303.15
303.15
303.15
303.15
303.15
303.15
303.15
303.15
303.15
303.15
303.15
303.15
303.15
303.15
303.15
303.15
303.15
303.15
303.15
303.15
303.15
303.15
303.15
303.15
303.15
303.15
303.15
303.15
303.15
303.15
303.15
303.15
303.15
303.15
303.15
303.15
303.15
303.15
303.15
303.15
303.15
303.15
303.15
303.15
303.15
303.15
303.15
303.15
303.15
303.15
303.15
303.15
303.15
303.15
303.15
303.15
303.15
303.15
303.15
303.15
303.15
303.15
303.15
303.15
303.15
303.15
303.15
303.15
303.15
303.15
303.15
303.15
303.15
303.15
303.15
303.15
303.15
303.15
303.15
303.15
303.15
303.15
303.15
303.15
303.15
303.15
303.15
303.15
303.15
303.15
303.15
303.15
303.15
303.15
303.15
303.15
303.15
303.15
303.15
303.15
303.15
303.15
303.15
303.15
303.15
303.15
303.15
303.15
303.15
303.15
303.15
303.15
303.15
303.15
303.15
303.15
303.15
303.15
303.15
303.15
303.15
303.15
303.15
303.15
303.15
303.15
303.15
303.15
303.15
303.15
303.15
303.15
303.15
303.15
303.15
303.15
303.15
303.15
303.15
303.15
303.15
303.15
303.15
303.15
303.15
303.15
303.15
303.15
303.15
303.15
303.15
303.15
303.15
303.15
303.15
303.15
303.15
303.15
303.15
303.15
303.15
303.15
303.15
303.15
303.15
303.15
303.15
303.15
303.15
303.15
303.15
303.15
303.15
303.15
303.15
303.15
303.15
303.15
303.15
303.15
303.15
303.15
303.15
303.149
303.149
303.149
303.149
303.149
303.149
303.149
303.149
303.15
303.15
303.15
303.15
303.15
303.15
303.15
303.15
303.15
303.15
303.149
303.149
303.149
303.149
303.149
303.149
303.149
303.149
303.148
303.148
303.148
303.148
303.148
303.148
303.148
303.147
303.147
303.147
303.147
303.147
303.147
303.146
303.146
303.146
303.146
303.146
303.145
303.145
303.145
303.145
303.145
303.144
303.144
303.144
303.143
303.143
303.143
303.142
303.142
303.141
303.149
303.148
303.146
303.145
303.144
303.142
303.141
303.14
303.139
303.138
303.136
303.135
303.134
303.133
303.132
303.131
303.13
303.128
303.127
303.126
303.125
303.124
303.123
303.122
303.121
303.12
303.119
303.118
303.117
303.116
303.115
303.114
303.113
303.112
303.112
303.111
303.11
303.109
303.108
303.107
303.106
303.105
303.104
303.104
303.103
303.102
303.101
303.1
303.099
303.098
303.099
303.15
303.15
303.124
303.043
302.846
302.454
301.793
300.848
299.766
298.913
298.548
298.528
298.647
298.813
298.727
298.272
298.161
299.081
299.818
303.1
303.15
303.15
303.123
303.039
302.837
302.435
301.761
300.803
299.711
298.862
298.509
298.498
298.636
298.781
298.649
298.223
298.198
299.108
299.823
303.1
303.15
303.15
303.122
303.035
302.827
302.415
301.728
300.757
299.658
298.814
298.475
298.476
298.623
298.747
298.595
298.203
298.231
299.126
299.825
303.1
303.15
303.15
303.12
303.03
302.816
302.394
301.694
300.71
299.606
298.769
298.444
298.456
298.61
298.709
298.542
298.188
298.267
299.142
299.825
303.101
303.15
303.149
303.118
303.025
302.804
302.372
301.659
300.663
299.556
298.728
298.417
298.44
298.596
298.668
298.492
298.179
298.306
299.159
299.824
303.101
303.151
303.149
303.116
303.02
302.792
302.349
301.623
300.617
299.509
298.691
298.394
298.424
298.578
298.623
298.445
298.175
298.346
299.173
299.823
303.102
303.151
303.148
303.114
303.014
302.778
302.324
301.585
300.57
299.464
298.658
298.374
298.428
298.556
298.577
298.403
298.176
298.388
299.186
299.821
303.102
303.151
303.148
303.112
303.007
302.764
302.299
301.547
300.525
299.422
298.63
298.357
298.423
298.528
298.531
298.365
298.18
298.432
299.196
299.818
303.102
303.151
303.147
303.11
303.001
302.749
302.273
301.509
300.481
299.384
298.606
298.344
298.407
298.498
298.486
298.331
298.188
298.475
299.204
299.815
303.103
303.151
303.147
303.107
302.993
302.734
302.246
301.472
300.438
299.35
298.585
298.331
298.39
298.465
298.443
298.302
298.199
298.515
299.209
299.811
303.103
303.151
303.146
303.104
302.986
302.718
302.22
301.435
300.398
299.317
298.565
298.318
298.368
298.43
298.402
298.276
298.215
298.549
299.212
299.807
303.104
303.151
303.145
303.102
302.978
302.703
302.193
301.399
300.36
299.287
298.546
298.304
298.34
298.393
298.363
298.255
298.235
298.577
299.213
299.803
303.104
303.151
303.144
303.099
302.971
302.687
302.167
301.365
300.325
299.259
298.528
298.29
298.312
298.355
298.325
298.238
298.255
298.598
299.212
299.798
303.104
303.15
303.143
303.095
302.963
302.671
302.142
301.332
300.292
299.235
298.513
298.276
298.281
298.319
298.291
298.227
298.272
298.611
299.209
299.792
303.105
303.15
303.142
303.092
302.955
302.655
302.117
301.301
300.262
299.213
298.498
298.262
298.261
298.286
298.263
298.219
298.286
298.618
299.204
299.787
303.105
303.15
303.141
303.089
302.947
302.64
302.093
301.272
300.235
299.195
298.485
298.249
298.243
298.259
298.24
298.213
298.293
298.619
299.196
299.781
303.105
303.15
303.14
303.086
302.939
302.625
302.071
301.245
300.212
299.181
298.474
298.236
298.227
298.238
298.221
298.206
298.295
298.614
299.187
299.775
303.105
303.149
303.139
303.083
302.932
302.611
302.05
301.221
300.193
299.17
298.465
298.223
298.212
298.219
298.205
298.198
298.291
298.604
299.176
299.769
303.105
303.149
303.138
303.08
302.925
302.598
302.031
301.201
300.178
299.163
298.459
298.21
298.198
298.203
298.19
298.188
298.282
298.59
299.164
299.763
303.105
303.149
303.137
303.077
302.918
302.586
302.013
301.183
300.167
299.161
298.455
298.197
298.183
298.188
298.175
298.175
298.269
298.573
299.151
299.757
303.105
303.148
303.136
303.074
302.912
302.575
301.999
301.17
300.161
299.164
298.454
298.185
298.167
298.172
298.16
298.161
298.254
298.554
299.137
299.751
303.105
303.148
303.135
303.072
302.907
302.566
301.987
301.16
300.161
299.172
298.457
298.173
298.151
298.156
298.144
298.146
298.236
298.533
299.123
299.746
303.105
303.148
303.134
303.07
302.902
302.559
301.979
301.155
300.166
299.185
298.464
298.162
298.133
298.14
298.128
298.129
298.217
298.512
299.109
299.741
303.105
303.147
303.133
303.068
302.899
302.554
301.974
301.156
300.177
299.205
298.476
298.154
298.116
298.122
298.112
298.112
298.198
298.491
299.096
299.737
303.105
303.147
303.133
303.067
302.897
302.552
301.974
301.162
300.194
299.232
298.495
298.149
298.098
298.104
298.095
298.096
298.18
298.471
299.084
299.733
303.104
303.146
303.132
303.067
302.897
302.553
301.979
301.175
300.22
299.267
298.521
298.148
298.08
298.086
298.078
298.08
298.164
298.453
299.073
299.73
303.104
303.146
303.132
303.067
302.899
302.558
301.99
301.196
300.254
299.311
298.556
298.153
298.064
298.068
298.062
298.066
298.15
298.439
299.065
299.727
303.103
303.146
303.132
303.069
302.904
302.568
302.007
301.225
300.297
299.365
298.603
298.167
298.05
298.051
298.047
298.054
298.139
298.429
299.059
299.725
303.103
303.145
303.133
303.071
302.91
302.582
302.032
301.264
300.352
299.43
298.661
298.192
298.042
298.036
298.035
298.046
298.134
298.425
299.056
299.723
303.102
303.145
303.133
303.075
302.92
302.601
302.066
301.314
300.418
299.509
298.735
298.232
298.043
298.025
298.026
298.042
298.135
298.428
299.057
299.722
303.102
303.145
303.135
303.079
302.932
302.627
302.108
301.375
300.498
299.602
298.825
298.291
298.056
298.021
298.023
298.045
298.144
298.44
299.063
299.721
303.101
303.145
303.136
303.085
302.948
302.658
302.161
301.451
300.594
299.711
298.934
298.371
298.089
298.028
298.03
298.057
298.164
298.462
299.073
299.722
303.1
303.145
303.138
303.092
302.966
302.695
302.224
301.54
300.705
299.838
299.062
298.477
298.147
298.05
298.05
298.082
298.196
298.495
299.09
299.722
303.099
303.145
303.139
303.099
302.986
302.739
302.297
301.645
300.836
299.983
299.212
298.611
298.236
298.096
298.089
298.125
298.245
298.543
299.113
299.724
303.098
303.145
303.141
303.107
303.009
302.787
302.381
301.766
300.986
300.149
299.383
298.773
298.363
298.173
298.153
298.189
298.313
298.605
299.142
299.726
303.096
303.144
303.143
303.116
303.033
302.839
302.473
301.903
301.157
300.338
299.575
298.96
298.528
298.291
298.25
298.279
298.402
298.681
299.179
299.728
303.095
303.144
303.145
303.124
303.056
302.893
302.573
302.054
301.351
300.552
299.79
299.169
298.727
298.463
298.38
298.398
298.512
298.771
299.223
299.732
303.093
303.144
303.147
303.131
303.079
302.947
302.677
302.217
301.566
300.794
300.031
299.396
298.942
298.659
298.542
298.544
298.642
298.874
299.273
299.735
303.092
303.144
303.148
303.137
303.1
302.999
302.78
302.388
301.801
301.067
300.304
299.645
299.169
298.872
298.727
298.711
298.787
298.985
299.328
299.739
303.09
303.143
303.149
303.142
303.117
303.045
302.878
302.559
302.05
301.371
300.616
299.926
299.411
299.089
298.924
298.89
298.941
299.1
299.386
299.744
303.088
303.143
303.149
303.146
303.13
303.083
302.964
302.722
302.304
301.701
300.975
300.255
299.68
299.313
299.12
299.07
299.096
299.216
299.446
299.749
303.086
303.142
303.15
303.148
303.14
303.111
303.035
302.866
302.548
302.046
301.38
300.649
300.001
299.556
299.326
299.241
299.245
299.329
299.506
299.755
303.083
303.141
303.15
303.149
303.145
303.13
303.087
302.981
302.764
302.382
301.818
301.118
300.408
299.846
299.52
299.396
299.382
299.434
299.564
299.76
303.081
303.14
303.15
303.15
303.148
303.142
303.121
303.064
302.934
302.679
302.254
301.65
300.936
300.256
299.768
299.539
299.504
299.529
299.618
299.766
303.078
303.14
303.149
303.15
303.15
303.147
303.139
303.114
303.049
302.907
302.636
302.192
301.572
300.851
300.189
299.757
299.611
299.613
299.667
299.772
303.076
303.139
303.149
303.15
303.15
303.149
303.147
303.138
303.113
303.05
302.914
302.655
302.224
301.609
300.877
300.189
299.755
299.688
299.711
299.778
303.073
303.138
303.149
303.15
303.15
303.15
303.149
303.147
303.14
303.12
303.07
302.961
302.746
302.371
301.8
301.063
300.301
299.783
299.753
299.784
303.071
303.137
303.149
303.15
303.15
303.15
303.15
303.149
303.148
303.143
303.131
303.102
303.035
302.896
302.632
302.182
301.501
300.628
299.855
299.801
303.068
303.136
303.149
303.15
303.15
303.15
303.15
303.15
303.15
303.149
303.146
303.14
303.128
303.101
303.044
302.928
302.696
302.247
301.411
300.089
303.065
303.135
303.149
303.15
303.15
303.15
303.15
303.15
303.15
303.15
303.149
303.147
303.143
303.136
303.125
303.108
303.083
303.045
302.983
302.84
303.063
303.134
303.148
303.15
303.15
303.15
303.15
303.15
303.15
303.15
303.149
303.149
303.147
303.143
303.136
303.124
303.107
303.082
303.05
303.007
303.061
303.133
303.148
303.15
303.15
303.15
303.15
303.15
303.15
303.15
303.15
303.149
303.148
303.146
303.142
303.133
303.119
303.096
303.061
303.01
303.058
303.132
303.148
303.15
303.15
303.15
303.15
303.15
303.15
303.15
303.15
303.15
303.149
303.148
303.145
303.139
303.127
303.106
303.07
303.012
303.056
303.132
303.148
303.15
303.15
303.15
303.15
303.15
303.15
303.15
303.15
303.15
303.15
303.149
303.147
303.142
303.133
303.113
303.077
303.013
303.055
303.131
303.148
303.15
303.15
303.15
303.15
303.15
303.15
303.15
303.15
303.15
303.15
303.149
303.148
303.145
303.137
303.119
303.083
303.014
303.053
303.13
303.148
303.15
303.15
303.15
303.15
303.15
303.15
303.15
303.15
303.15
303.15
303.15
303.149
303.146
303.14
303.124
303.088
303.015
303.051
303.13
303.148
303.15
303.15
303.15
303.15
303.15
303.15
303.15
303.15
303.15
303.15
303.15
303.149
303.147
303.142
303.127
303.092
303.016
303.05
303.129
303.148
303.15
303.15
303.15
303.15
303.15
303.15
303.15
303.15
303.15
303.15
303.15
303.149
303.148
303.144
303.13
303.096
303.017
303.049
303.129
303.147
303.15
303.15
303.15
303.15
303.15
303.15
303.15
303.15
303.15
303.15
303.15
303.15
303.148
303.145
303.132
303.099
303.018
303.048
303.128
303.147
303.15
303.15
303.15
303.15
303.15
303.15
303.15
303.15
303.15
303.15
303.15
303.15
303.149
303.146
303.134
303.101
303.018
303.047
303.128
303.147
303.15
303.15
303.15
303.15
303.15
303.15
303.15
303.15
303.15
303.15
303.15
303.15
303.149
303.146
303.136
303.103
303.019
303.047
303.127
303.147
303.15
303.15
303.15
303.15
303.15
303.15
303.15
303.15
303.15
303.15
303.15
303.15
303.149
303.147
303.137
303.105
303.02
303.046
303.127
303.147
303.15
303.15
303.15
303.15
303.15
303.15
303.15
303.15
303.15
303.15
303.15
303.15
303.149
303.147
303.138
303.106
303.021
303.046
303.127
303.147
303.15
303.15
303.15
303.15
303.15
303.15
303.15
303.15
303.15
303.15
303.15
303.15
303.149
303.147
303.139
303.108
303.021
303.046
303.127
303.147
303.15
303.15
303.15
303.15
303.15
303.15
303.15
303.15
303.15
303.15
303.15
303.15
303.15
303.148
303.14
303.109
303.022
303.046
303.127
303.147
303.15
303.15
303.15
303.15
303.15
303.15
303.15
303.15
303.15
303.15
303.15
303.15
303.15
303.148
303.14
303.11
303.023
303.046
303.127
303.147
303.15
303.15
303.15
303.15
303.15
303.15
303.15
303.15
303.15
303.15
303.15
303.15
303.15
303.148
303.141
303.111
303.023
303.046
303.127
303.147
303.15
303.15
303.15
303.15
303.15
303.15
303.15
303.15
303.15
303.15
303.15
303.15
303.15
303.148
303.141
303.112
303.024
303.046
303.127
303.147
303.15
303.15
303.15
303.15
303.15
303.15
303.15
303.15
303.15
303.15
303.15
303.15
303.15
303.148
303.141
303.112
303.025
303.046
303.127
303.147
303.15
303.15
303.15
303.15
303.15
303.15
303.15
303.15
303.15
303.15
303.15
303.15
303.15
303.148
303.142
303.113
303.025
303.047
303.127
303.147
303.15
303.15
303.15
303.15
303.15
303.15
303.15
303.15
303.15
303.15
303.15
303.15
303.15
303.149
303.142
303.114
303.026
303.047
303.127
303.147
303.15
303.15
303.15
303.15
303.15
303.15
303.15
303.15
303.15
303.15
303.15
303.15
303.15
303.149
303.142
303.114
303.027
303.047
303.127
303.147
303.15
303.15
303.15
303.15
303.15
303.15
303.15
303.15
303.15
303.15
303.15
303.15
303.15
303.149
303.143
303.115
303.027
303.048
303.127
303.147
303.15
303.15
303.15
303.15
303.15
303.15
303.15
303.15
303.15
303.15
303.15
303.15
303.15
303.149
303.143
303.115
303.028
303.048
303.127
303.147
303.15
303.15
303.15
303.15
303.15
303.15
303.15
303.15
303.15
303.15
303.15
303.15
303.15
303.149
303.143
303.115
303.029
303.049
303.127
303.147
303.15
303.15
303.15
303.15
303.15
303.15
303.15
303.15
303.15
303.15
303.15
303.15
303.15
303.149
303.143
303.116
303.029
303.049
303.128
303.147
303.15
303.15
303.15
303.15
303.15
303.15
303.15
303.15
303.15
303.15
303.15
303.15
303.15
303.149
303.143
303.116
303.03
303.05
303.128
303.147
303.15
303.15
303.15
303.15
303.15
303.15
303.15
303.15
303.15
303.15
303.15
303.15
303.15
303.149
303.143
303.117
303.031
303.05
303.128
303.147
303.15
303.15
303.15
303.15
303.15
303.15
303.15
303.15
303.15
303.15
303.15
303.15
303.15
303.149
303.143
303.117
303.032
303.051
303.128
303.147
303.15
303.15
303.15
303.15
303.15
303.15
303.15
303.15
303.15
303.15
303.15
303.15
303.15
303.149
303.144
303.117
303.032
303.051
303.128
303.147
303.15
303.15
303.15
303.15
303.15
303.15
303.15
303.15
303.15
303.15
303.15
303.15
303.15
303.149
303.144
303.118
303.033
303.052
303.128
303.147
303.15
303.15
303.15
303.15
303.15
303.15
303.15
303.15
303.15
303.15
303.15
303.15
303.15
303.149
303.144
303.118
303.034
303.052
303.129
303.147
303.15
303.15
303.15
303.15
303.15
303.15
303.15
303.15
303.15
303.15
303.15
303.15
303.15
303.149
303.144
303.118
303.034
303.053
303.129
303.147
303.15
303.15
303.15
303.15
303.15
303.15
303.15
303.15
303.15
303.15
303.15
303.15
303.15
303.149
303.144
303.119
303.035
303.053
303.129
303.147
303.15
303.15
303.15
303.15
303.15
303.15
303.15
303.15
303.15
303.15
303.15
303.15
303.15
303.149
303.144
303.119
303.036
303.054
303.129
303.147
303.15
303.15
303.15
303.15
303.15
303.15
303.15
303.15
303.15
303.15
303.15
303.15
303.15
303.149
303.144
303.119
303.036
303.055
303.129
303.148
303.15
303.15
303.15
303.15
303.15
303.15
303.15
303.15
303.15
303.15
303.15
303.15
303.15
303.149
303.144
303.12
303.037
303.055
303.13
303.148
303.15
303.15
303.15
303.15
303.15
303.15
303.15
303.15
303.15
303.15
303.15
303.15
303.15
303.149
303.144
303.12
303.038
303.056
303.13
303.148
303.15
303.15
303.15
303.15
303.15
303.15
303.15
303.15
303.15
303.15
303.15
303.15
303.15
303.149
303.144
303.12
303.038
303.056
303.13
303.148
303.15
303.15
303.15
303.15
303.15
303.15
303.15
303.15
303.15
303.15
303.15
303.15
303.15
303.149
303.144
303.12
303.039
303.057
303.13
303.148
303.15
303.15
303.15
303.15
303.15
303.15
303.15
303.15
303.15
303.15
303.15
303.15
303.15
303.149
303.144
303.121
303.04
303.057
303.131
303.148
303.15
303.15
303.15
303.15
303.15
303.15
303.15
303.15
303.15
303.15
303.15
303.15
303.15
303.149
303.145
303.121
303.041
303.058
303.131
303.148
303.15
303.15
303.15
303.15
303.15
303.15
303.15
303.15
303.15
303.15
303.15
303.15
303.15
303.149
303.145
303.121
303.041
303.059
303.131
303.148
303.15
303.15
303.15