/*--------------------------------*- C++ -*----------------------------------*\
  =========                 |
  \\      /  F ield         | OpenFOAM: The Open Source CFD Toolbox
   \\    /   O peration     | Website:  https://openfoam.org
    \\  /    A nd           | Version:  8
     \\/     M anipulation  |
\*---------------------------------------------------------------------------*/
FoamFile
{
    version     2.0;
    format      ascii;
    class       volVectorField;
    location    "400";
    object      U;
}
// * * * * * * * * * * * * * * * * * * * * * * * * * * * * * * * * * * * * * //

dimensions      [0 1 -1 0 0 0 0];

internalField   nonuniform List<vector> 
8400
(
(-109.333 -0.105954 2.24269e-16)
(-109.343 -0.0895995 2.11709e-16)
(-109.353 -0.0819996 2.00617e-16)
(-109.357 -0.0794404 1.89993e-16)
(-109.346 -0.0813476 1.81745e-16)
(-109.313 -0.0876955 1.76045e-16)
(-109.25 -0.0986936 1.70944e-16)
(-109.15 -0.114615 1.67158e-16)
(-109.005 -0.135692 1.64613e-16)
(-108.808 -0.162138 1.62351e-16)
(-108.549 -0.194194 1.61605e-16)
(-108.219 -0.232122 1.62561e-16)
(-107.809 -0.276192 1.63688e-16)
(-107.31 -0.326577 1.65393e-16)
(-106.711 -0.383315 1.67577e-16)
(-106.003 -0.446401 1.69351e-16)
(-105.177 -0.515832 1.72098e-16)
(-104.222 -0.591584 1.75899e-16)
(-103.131 -0.673576 1.79154e-16)
(-101.895 -0.761631 1.82436e-16)
(-100.505 -0.855545 1.8574e-16)
(-98.9536 -0.955158 1.89019e-16)
(-97.2324 -1.06039 1.92152e-16)
(-95.3341 -1.17122 1.95037e-16)
(-93.2511 -1.28769 1.97709e-16)
(-90.9762 -1.40985 2.00102e-16)
(-88.502 -1.53772 2.02981e-16)
(-85.8212 -1.67121 2.05013e-16)
(-82.9266 -1.81004 2.05853e-16)
(-79.8112 -1.95397 2.07061e-16)
(-76.4695 -2.10262 2.08012e-16)
(-72.8977 -2.25513 2.08649e-16)
(-69.0938 -2.41023 2.09483e-16)
(-65.0585 -2.56625 2.09703e-16)
(-60.7964 -2.72079 2.08963e-16)
(-56.3159 -2.87088 2.08285e-16)
(-51.6307 -3.01341 2.07409e-16)
(-46.7604 -3.14495 2.06385e-16)
(-41.7312 -3.26129 2.05271e-16)
(-36.575 -3.35826 2.04328e-16)
(-31.3312 -3.43225 2.03223e-16)
(-26.0472 -3.4802 2.02671e-16)
(-20.7777 -3.49942 2.02358e-16)
(-15.5862 -3.48724 2.01236e-16)
(-10.5382 -3.44243 2.01009e-16)
(-5.69204 -3.36873 2.02845e-16)
(-0.930557 -3.26315 2.0699e-16)
(4.012 -2.91182 2.25241e-16)
(6.74834 -2.3296 2.5552e-16)
(9.02762 -1.77305 2.90334e-16)
(-101.854 0.103394 4.9502e-16)
(-101.694 0.104445 4.81098e-16)
(-101.546 0.0892919 4.66578e-16)
(-101.381 0.0641193 4.5118e-16)
(-101.195 0.0294027 4.35928e-16)
(-100.984 -0.0151477 4.20986e-16)
(-100.743 -0.0701867 4.05148e-16)
(-100.464 -0.136404 3.89065e-16)
(-100.142 -0.214404 3.72676e-16)
(-99.7663 -0.304688 3.56006e-16)
(-99.3305 -0.407758 3.39489e-16)
(-98.8259 -0.524139 3.23224e-16)
(-98.2444 -0.654231 3.07043e-16)
(-97.5775 -0.798213 2.91156e-16)
(-96.8169 -0.956017 2.75589e-16)
(-95.9546 -1.12748 2.5985e-16)
(-94.9831 -1.31237 2.44868e-16)
(-93.8954 -1.51029 2.3092e-16)
(-92.6849 -1.72071 2.17143e-16)
(-91.3451 -1.94295 2.03884e-16)
(-89.8699 -2.17642 1.91177e-16)
(-88.2535 -2.42071 1.79042e-16)
(-86.49 -2.67561 1.68038e-16)
(-84.574 -2.94107 1.57437e-16)
(-82.4996 -3.21719 1.49854e-16)
(-80.2611 -3.50413 1.42198e-16)
(-77.8522 -3.80202 1.36202e-16)
(-75.2661 -4.11098 1.30553e-16)
(-72.4965 -4.4308 1.24489e-16)
(-69.5373 -4.76087 1.20041e-16)
(-66.3832 -5.10012 1.16592e-16)
(-63.0303 -5.44647 1.12844e-16)
(-59.4769 -5.79633 1.09003e-16)
(-55.7239 -6.14491 1.04793e-16)
(-51.7758 -6.48626 1.00056e-16)
(-47.6413 -6.81324 9.58597e-17)
(-43.3346 -7.11731 9.20918e-17)
(-38.8755 -7.38891 8.87771e-17)
(-34.2898 -7.6176 8.66336e-17)
(-29.6098 -7.79261 8.45089e-17)
(-24.8747 -7.90337 8.2081e-17)
(-20.1303 -7.94053 8.1432e-17)
(-15.4275 -7.89758 8.17254e-17)
(-10.8269 -7.76967 8.14332e-17)
(-6.3944 -7.55248 8.20213e-17)
(-2.20694 -7.24189 8.5061e-17)
(1.77485 -6.7272 8.91746e-17)
(5.20053 -5.77347 1.0489e-16)
(7.73145 -4.69035 1.26013e-16)
(10.126 -3.56751 1.48879e-16)
(-91.7482 -0.358784 1.55383e-16)
(-91.4216 -0.357678 1.48097e-16)
(-91.1427 -0.374796 1.40734e-16)
(-90.8431 -0.405521 1.32694e-16)
(-90.5228 -0.450571 1.25163e-16)
(-90.177 -0.511318 1.18402e-16)
(-89.8003 -0.589403 1.11184e-16)
(-89.3866 -0.686323 1.03985e-16)
(-88.9292 -0.803309 9.6895e-17)
(-88.421 -0.941364 8.99598e-17)
(-87.855 -1.10134 8.34109e-17)
(-87.2244 -1.28388 7.72357e-17)
(-86.5221 -1.48924 7.11955e-17)
(-85.7412 -1.71738 6.52626e-17)
(-84.875 -1.96803 5.93905e-17)
(-83.9172 -2.24068 5.35613e-17)
(-82.8625 -2.53461 4.79785e-17)
(-81.7057 -2.84878 4.26712e-17)
(-80.4423 -3.18196 3.74401e-17)
(-79.068 -3.53299 3.22673e-17)
(-77.5788 -3.90093 2.71733e-17)
(-75.9709 -4.28512 2.22168e-17)
(-74.2403 -4.68525 1.74885e-17)
(-72.3828 -5.10133 1.31073e-17)
(-70.3936 -5.53373 9.18126e-18)
(-68.2675 -5.98315 5.70316e-18)
(-65.9987 -6.45025 2.88135e-18)
(-63.5805 -6.93555 6.25645e-20)
(-61.0062 -7.43926 -3.07927e-18)
(-58.2689 -7.96056 -5.53311e-18)
(-55.3632 -8.49706 -7.30642e-18)
(-52.2849 -9.04446 -8.61519e-18)
(-49.0313 -9.59661 -9.25979e-18)
(-45.6038 -10.1457 -1.01295e-17)
(-42.0074 -10.6817 -1.16995e-17)
(-38.2515 -11.192 -1.2961e-17)
(-34.3506 -11.6616 -1.409e-17)
(-30.3259 -12.0742 -1.50764e-17)
(-26.2053 -12.412 -1.59436e-17)
(-22.0222 -12.6565 -1.65497e-17)
(-17.8168 -12.7878 -1.73766e-17)
(-13.638 -12.7886 -1.76845e-17)
(-9.53487 -12.6475 -1.72065e-17)
(-5.56625 -12.3561 -1.77728e-17)
(-1.77122 -11.8986 -1.91465e-17)
(1.70658 -11.238 -1.93894e-17)
(4.75616 -10.1719 -1.88939e-17)
(7.14533 -8.89451 -1.5613e-17)
(9.50201 -7.45585 -8.78722e-18)
(11.7769 -5.99685 -9.82576e-19)
(-80.1288 -0.435787 1.36417e-16)
(-79.6936 -0.468124 1.31373e-16)
(-79.3251 -0.515321 1.26492e-16)
(-78.9327 -0.577113 1.21096e-16)
(-78.52 -0.656324 1.16182e-16)
(-78.0828 -0.755635 1.12003e-16)
(-77.6162 -0.877426 1.07498e-16)
(-77.1144 -1.02359 1.02982e-16)
(-76.5712 -1.19555 9.84371e-17)
(-75.9803 -1.39444 9.35146e-17)
(-75.3359 -1.62112 8.8936e-17)
(-74.6319 -1.87608 8.48815e-17)
(-73.8625 -2.15943 8.07046e-17)
(-73.0223 -2.47092 7.65744e-17)
(-72.1062 -2.80999 7.24837e-17)
(-71.1095 -3.17572 6.77446e-17)
(-70.0285 -3.56681 6.352e-17)
(-68.8602 -3.98166 6.00763e-17)
(-67.6018 -4.41863 5.62008e-17)
(-66.2513 -4.8762 5.23391e-17)
(-64.8064 -5.35318 4.85213e-17)
(-63.265 -5.84881 4.47962e-17)
(-61.6244 -6.36301 4.12314e-17)
(-59.8811 -6.89653 3.7852e-17)
(-58.031 -7.45078 3.46394e-17)
(-56.0688 -8.02766 3.16236e-17)
(-53.9879 -8.62919 2.92497e-17)
(-51.7809 -9.25709 2.67378e-17)
(-49.4403 -9.91201 2.36851e-17)
(-46.9584 -10.5929 2.11603e-17)
(-44.3281 -11.2965 1.90194e-17)
(-41.545 -12.0165 1.7314e-17)
(-38.6074 -12.7441 1.60296e-17)
(-35.5173 -13.4682 1.48595e-17)
(-32.2801 -14.1744 1.33917e-17)
(-28.9065 -14.8444 1.20171e-17)
(-25.4128 -15.4566 1.086e-17)
(-21.8222 -15.9869 9.86429e-18)
(-18.1659 -16.409 9.62399e-18)
(-14.4808 -16.6966 9.33029e-18)
(-10.8049 -16.8219 8.52593e-18)
(-7.19744 -16.7599 7.98968e-18)
(-3.70152 -16.4949 8.6645e-18)
(-0.381547 -16.0026 9.22352e-18)
(2.71413 -15.2153 8.55062e-18)
(5.27154 -14.1461 7.74337e-18)
(7.52825 -12.8161 5.96339e-18)
(9.69173 -11.2431 5.16707e-18)
(11.8034 -9.54312 5.46495e-18)
(13.7608 -7.84071 6.71316e-18)
(-67.9557 -1.01782 1.19537e-16)
(-67.4168 -1.05497 1.16044e-16)
(-66.9804 -1.10432 1.12601e-16)
(-66.523 -1.17018 1.08833e-16)
(-66.049 -1.25767 1.05447e-16)
(-65.5535 -1.37079 1.02588e-16)
(-65.0314 -1.51256 9.9506e-17)
(-64.4769 -1.68518 9.63875e-17)
(-63.8843 -1.89024 9.32312e-17)
(-63.2479 -2.12898 8.96217e-17)
(-62.5625 -2.40214 8.63322e-17)
(-61.8231 -2.71002 8.35769e-17)
(-61.0252 -3.05247 8.05533e-17)
(-60.1644 -3.42886 7.74657e-17)
(-59.2371 -3.83801 7.42903e-17)
(-58.2404 -4.27832 7.05662e-17)
(-57.1722 -4.74767 6.71147e-17)
(-56.0312 -5.24375 6.41743e-17)
(-54.8168 -5.76428 6.0934e-17)
(-53.5286 -6.30725 5.76476e-17)
(-52.166 -6.87123 5.43681e-17)
(-50.7278 -7.45562 5.11376e-17)
(-49.2121 -8.06096 4.80503e-17)
(-47.6159 -8.68898 4.51294e-17)
(-45.9342 -9.34242 4.23793e-17)
(-44.1611 -10.0243 3.98304e-17)
(-42.2889 -10.7378 3.80516e-17)
(-40.3093 -11.4861 3.60667e-17)
(-38.2128 -12.2709 3.33902e-17)
(-35.9912 -13.0908 3.11525e-17)
(-33.6374 -13.9411 2.91996e-17)
(-31.147 -14.8133 2.75826e-17)
(-28.5183 -15.6959 2.67125e-17)
(-25.755 -16.574 2.59923e-17)
(-22.8652 -17.4289 2.46936e-17)
(-19.8644 -18.2342 2.34161e-17)
(-16.7693 -18.9622 2.23738e-17)
(-13.6012 -19.5817 2.15881e-17)
(-10.3975 -20.0562 2.09946e-17)
(-7.20832 -20.349 2.07776e-17)
(-4.0531 -20.4235 2.13533e-17)
(-1.01693 -20.2427 2.09412e-17)
(1.85995 -19.7748 2.12601e-17)
(4.44261 -18.9724 2.28326e-17)
(6.66181 -17.8932 2.31161e-17)
(8.72799 -16.5385 2.34157e-17)
(10.6929 -14.9315 2.36667e-17)
(12.5402 -13.1254 2.39763e-17)
(14.2668 -11.2106 2.55645e-17)
(15.796 -9.2908 2.67269e-17)
(-55.6227 -1.30151 8.2112e-17)
(-55.0224 -1.36379 8.14812e-17)
(-54.5405 -1.43452 8.06481e-17)
(-54.0403 -1.52359 7.913e-17)
(-53.5282 -1.63811 7.76077e-17)
(-52.9987 -1.78283 7.64047e-17)
(-52.4464 -1.96095 7.47696e-17)
(-51.8654 -2.17468 7.28281e-17)
(-51.2501 -2.42561 7.05988e-17)
(-50.5954 -2.71489 6.75988e-17)
(-49.8965 -3.0431 6.47876e-17)
(-49.1494 -3.41026 6.25159e-17)
(-48.3504 -3.8158 5.98236e-17)
(-47.4962 -4.25857 5.69653e-17)
(-46.5846 -4.73667 5.40235e-17)
(-45.6142 -5.2476 5.04577e-17)
(-44.5851 -5.78841 4.72817e-17)
(-43.498 -6.35608 4.49092e-17)
(-42.3545 -6.94786 4.2248e-17)
(-41.1556 -7.56171 3.95708e-17)
(-39.9019 -8.19678 3.69367e-17)
(-38.5927 -8.85371 3.43752e-17)
(-37.2257 -9.53476 3.19492e-17)
(-35.7969 -10.2428 2.96621e-17)
(-34.2996 -10.982 2.75493e-17)
(-32.7257 -11.757 2.56616e-17)
(-31.0664 -12.5724 2.44524e-17)
(-29.3129 -13.4316 2.30839e-17)
(-27.4559 -14.3363 2.11784e-17)
(-25.4866 -15.2846 1.93041e-17)
(-23.3992 -16.2683 1.76544e-17)
(-21.1904 -17.2768 1.63156e-17)
(-18.8593 -18.2968 1.54606e-17)
(-16.4104 -19.3107 1.52711e-17)
(-13.8517 -20.2968 1.47676e-17)
(-11.2161 -21.2123 1.3737e-17)
(-8.51862 -22.0268 1.28433e-17)
(-5.7701 -22.7062 1.20857e-17)
(-3.01073 -23.1982 1.13309e-17)
(-0.325588 -23.4461 1.10094e-17)
(2.29448 -23.3997 1.17817e-17)
(4.67725 -23.0212 1.17557e-17)
(6.81555 -22.33 1.1259e-17)
(8.80102 -21.3169 1.24932e-17)
(10.6606 -19.9907 1.29665e-17)
(12.3814 -18.3836 1.33325e-17)
(13.9438 -16.539 1.31624e-17)
(15.3364 -14.5072 1.2577e-17)
(16.5562 -12.367 1.39369e-17)
(17.5483 -10.2178 1.48307e-17)
(-43.3285 -1.93154 3.68016e-17)
(-42.6592 -1.98946 3.72548e-17)
(-42.1537 -2.04985 3.7581e-17)
(-41.6389 -2.13371 3.77694e-17)
(-41.1196 -2.24951 3.79646e-17)
(-40.5879 -2.40186 3.83283e-17)
(-40.037 -2.59384 3.86567e-17)
(-39.4608 -2.82756 3.8696e-17)
(-38.8535 -3.10452 3.84014e-17)
(-38.2101 -3.42559 3.77442e-17)
(-37.526 -3.79096 3.69023e-17)
(-36.7974 -4.20015 3.61635e-17)
(-36.0213 -4.65183 3.53404e-17)
(-35.1957 -5.14384 3.42597e-17)
(-34.3196 -5.67311 3.29879e-17)
(-33.3939 -6.23567 3.12055e-17)
(-32.4212 -6.82715 2.95665e-17)
(-31.4049 -7.44335 2.86172e-17)
(-30.3489 -8.08091 2.76115e-17)
(-29.2563 -8.73829 2.65005e-17)
(-28.1291 -9.41629 2.53519e-17)
(-26.9667 -10.1177 2.41557e-17)
(-25.7643 -10.8485 2.29724e-17)
(-24.5153 -11.6142 2.17566e-17)
(-23.2089 -12.4222 2.06071e-17)
(-21.8355 -13.2781 1.96012e-17)
(-20.3836 -14.1876 1.90569e-17)
(-18.8435 -15.1537 1.88626e-17)
(-17.2071 -16.1765 1.80943e-17)
(-15.4692 -17.2514 1.6729e-17)
(-13.6307 -18.3602 1.54051e-17)
(-11.6909 -19.4907 1.41254e-17)
(-9.64681 -20.6283 1.32195e-17)
(-7.50377 -21.7524 1.34834e-17)
(-5.25694 -22.8459 1.34333e-17)
(-2.98644 -23.8306 1.27337e-17)
(-0.691329 -24.6825 1.20496e-17)
(1.6297 -25.3637 1.17608e-17)
(3.90475 -25.8009 1.071e-17)
(5.99531 -25.9315 1.01219e-17)
(7.98524 -25.7441 1.12604e-17)
(9.8817 -25.2211 1.14574e-17)
(11.6494 -24.3495 1.05728e-17)
(13.2521 -23.1253 1.12818e-17)
(14.6749 -21.5709 1.14243e-17)
(15.899 -19.7205 1.13126e-17)
(16.914 -17.6198 1.06547e-17)
(17.7091 -15.3241 9.26577e-18)
(18.2846 -12.9153 9.06934e-18)
(18.6127 -10.5027 8.48731e-18)
(-31.2052 -2.36682 3.12421e-17)
(-30.5211 -2.40879 3.04469e-17)
(-30.0358 -2.456 2.96076e-17)
(-29.5476 -2.54411 2.8295e-17)
(-29.0589 -2.67367 2.73612e-17)
(-28.5604 -2.84674 2.7254e-17)
(-28.045 -3.06565 2.71559e-17)
(-27.5054 -3.3323 2.70646e-17)
(-26.9352 -3.64797 2.68599e-17)
(-26.3288 -4.01321 2.64295e-17)
(-25.6812 -4.42768 2.59066e-17)
(-24.9887 -4.89005 2.56838e-17)
(-24.2493 -5.39783 2.55607e-17)
(-23.4623 -5.94729 2.51398e-17)
(-22.6291 -6.53348 2.44424e-17)
(-21.7533 -7.15018 2.33988e-17)
(-20.84 -7.79054 2.22764e-17)
(-19.8953 -8.44834 2.17852e-17)
(-18.9257 -9.1192 2.16423e-17)
(-17.9373 -9.80195 2.13854e-17)
(-16.9353 -10.4998 2.10741e-17)
(-15.922 -11.2172 2.06804e-17)
(-14.8847 -11.9688 2.02365e-17)
(-13.8174 -12.7637 1.96416e-17)
(-12.6975 -13.6162 1.89173e-17)
(-11.5156 -14.5338 1.80791e-17)
(-10.2564 -15.5236 1.75624e-17)
(-8.91155 -16.5883 1.82683e-17)
(-7.47347 -17.7275 1.8431e-17)
(-5.94163 -18.9333 1.76062e-17)
(-4.33862 -20.1594 1.66718e-17)
(-2.65456 -21.3993 1.58356e-17)
(-0.883634 -22.6364 1.45703e-17)
(0.962449 -23.8443 1.43159e-17)
(2.90905 -25.017 1.46377e-17)
(4.77124 -26.0158 1.42699e-17)
(6.61014 -26.8479 1.38221e-17)
(8.43151 -27.474 1.37376e-17)
(10.2211 -27.8427 1.28885e-17)
(11.9522 -27.9021 1.32727e-17)
(13.5862 -27.6098 1.40322e-17)
(15.0789 -26.9367 1.40478e-17)
(16.3892 -25.8712 1.33814e-17)
(17.4716 -24.4145 1.383e-17)
(18.3036 -22.5947 1.3495e-17)
(18.8642 -20.4491 1.3726e-17)
(19.1538 -18.0317 1.37602e-17)
(19.1729 -15.4083 1.31094e-17)
(18.9357 -12.6711 1.27189e-17)
(18.4455 -9.95006 1.16134e-17)
(-19.5419 -3.01737 2.10979e-17)
(-18.9088 -2.98348 2.10205e-17)
(-18.4763 -2.98483 2.05449e-17)
(-18.0499 -3.05763 1.93607e-17)
(-17.6176 -3.18057 1.81814e-17)
(-17.1754 -3.35409 1.79193e-17)
(-16.7159 -3.5815 1.78478e-17)
(-16.2313 -3.86521 1.74906e-17)
(-15.7137 -4.20657 1.68285e-17)
(-15.156 -4.606 1.54494e-17)
(-14.553 -5.06259 1.39594e-17)
(-13.9019 -5.5738 1.35476e-17)
(-13.2027 -6.13567 1.3675e-17)
(-12.4575 -6.74277 1.36574e-17)
(-11.6699 -7.3881 1.34184e-17)
(-10.8456 -8.06212 1.23239e-17)
(-9.99105 -8.7534 1.0723e-17)
(-9.113 -9.45198 1.00953e-17)
(-8.21779 -10.1518 1.02624e-17)
(-7.31367 -10.8508 1.03122e-17)
(-6.41038 -11.555 1.0361e-17)
(-5.53034 -12.2619 1.03864e-17)
(-4.63288 -13.0096 1.03937e-17)
(-3.72241 -13.8062 1.0319e-17)
(-2.76124 -14.6755 1.00719e-17)
(-1.74624 -15.6269 9.86415e-18)
(-0.658922 -16.6703 8.91297e-18)
(0.507643 -17.8062 9.38378e-18)
(1.76603 -19.0354 1.05454e-17)
(3.1258 -20.3555 1.0504e-17)
(4.50606 -21.6688 1.02315e-17)
(5.94276 -22.9936 1.02166e-17)
(7.43521 -24.3022 9.57178e-18)
(8.96769 -25.5584 9.07682e-18)
(10.5219 -26.7218 9.52309e-18)
(12.0778 -27.7499 9.59114e-18)
(13.6145 -28.5961 9.50963e-18)
(15.1073 -29.204 9.74243e-18)
(16.5257 -29.5134 9.73611e-18)
(17.836 -29.4693 1.01764e-17)
(18.9913 -29.0241 1.09797e-17)
(19.9379 -28.144 1.0867e-17)
(20.6263 -26.8198 1.05312e-17)
(21.0003 -25.058 1.12831e-17)
(21.036 -22.8962 1.15865e-17)
(20.7141 -20.3777 1.19148e-17)
(20.0461 -17.5602 1.29362e-17)
(19.0578 -14.5298 1.37438e-17)
(17.7934 -11.3876 1.54253e-17)
(16.2931 -8.30885 1.74514e-17)
(-8.35052 -3.51159 8.61482e-18)
(-8.16903 -3.21475 9.2316e-18)
(-7.72729 -3.23387 9.47752e-18)
(-7.37028 -3.331 8.96006e-18)
(-6.99036 -3.47519 7.13097e-18)
(-6.59691 -3.67082 6.3695e-18)
(-6.18558 -3.92496 7.29657e-18)
(-5.74935 -4.24142 8.18692e-18)
(-5.28019 -4.62243 8.71574e-18)
(-4.77042 -5.06852 8.53235e-18)
(-4.21495 -5.57794 6.67373e-18)
(-3.61282 -6.14657 5.49972e-18)
(-2.96585 -6.76842 5.96232e-18)
(-2.27783 -7.43625 6.53193e-18)
(-1.55333 -8.1413 6.94125e-18)
(-0.797224 -8.87169 7.45754e-18)
(-0.0133695 -9.61176 6.48447e-18)
(0.793878 -10.3487 5.00828e-18)
(1.62214 -11.0773 5.1315e-18)
(2.46517 -11.7988 5.19459e-18)
(3.35229 -12.5338 5.27633e-18)
(4.20351 -13.2419 5.2834e-18)
(5.06203 -13.989 5.29531e-18)
(5.90401 -14.7797 5.23187e-18)
(6.76547 -15.6451 5.00305e-18)
(7.65655 -16.5999 5.15196e-18)
(8.59801 -17.6594 4.13783e-18)
(9.60086 -18.828 3.94751e-18)
(10.6716 -20.1006 4.79934e-18)
(11.8123 -21.4596 5.08792e-18)
(13.02 -22.8753 5.11398e-18)
(14.2852 -24.3086 5.40876e-18)
(15.5875 -25.7117 5.01534e-18)
(16.8985 -27.0348 4.33863e-18)
(18.1876 -28.2301 4.67898e-18)
(19.4239 -29.2511 4.75457e-18)
(20.5824 -30.0495 4.63303e-18)
(21.6344 -30.568 4.83984e-18)
(22.543 -30.7421 4.94998e-18)
(23.27 -30.5129 5.40944e-18)
(23.7602 -29.8278 6.63413e-18)
(23.9524 -28.6506 6.46222e-18)
(23.7898 -26.9764 5.41583e-18)
(23.2026 -24.8169 5.55048e-18)
(22.1624 -22.2167 6.11407e-18)
(20.6638 -19.2336 7.45697e-18)
(18.7213 -15.9086 1.03264e-17)
(16.4268 -12.38 1.29571e-17)
(13.8715 -8.71924 1.66723e-17)
(11.111 -5.18872 2.62408e-17)
(2.70296 -4.57353 6.55236e-18)
(2.0342 -3.25725 7.03311e-18)
(2.35352 -3.17106 7.45081e-18)
(2.66239 -3.29594 9.44942e-18)
(2.95962 -3.48148 8.65607e-18)
(3.31276 -3.72754 5.48191e-18)
(3.72251 -4.0401 5.21819e-18)
(4.1825 -4.42035 5.87054e-18)
(4.68566 -4.86765 6.1537e-18)
(5.22606 -5.37986 7.72155e-18)
(5.8002 -5.95297 7.48758e-18)
(6.40572 -6.58174 5.59979e-18)
(7.04167 -7.25933 5.26381e-18)
(7.70598 -7.9777 5.53161e-18)
(8.39485 -8.72701 5.51593e-18)
(9.10686 -9.49568 6.3808e-18)
(9.84408 -10.27 6.67547e-18)
(10.6056 -11.0377 5.70389e-18)
(11.3874 -11.7927 5.33029e-18)
(12.183 -12.5361 5.21008e-18)
(12.9841 -13.2738 5.1513e-18)
(13.787 -14.0184 5.10712e-18)
(14.5902 -14.7893 5.07415e-18)
(15.3944 -15.6091 5.00825e-18)
(16.2067 -16.5026 4.86161e-18)
(17.0356 -17.4919 5.07146e-18)
(17.8921 -18.594 4.59291e-18)
(18.7871 -19.817 4.09129e-18)
(19.7282 -21.1553 4.48885e-18)
(20.7176 -22.5869 4.62973e-18)
(21.7483 -24.0727 4.58202e-18)
(22.8037 -25.5615 4.83647e-18)
(23.8554 -26.9934 4.22344e-18)
(24.8636 -28.3084 3.61862e-18)
(25.7827 -29.454 3.6946e-18)
(26.5678 -30.3818 3.46311e-18)
(27.1882 -31.0429 2.96337e-18)
(27.6101 -31.3776 3.21878e-18)
(27.7901 -31.3154 3.64962e-18)
(27.6914 -30.7943 4.63518e-18)
(27.2488 -29.756 5.9758e-18)
(26.3955 -28.1658 5.47165e-18)
(25.0615 -26.0219 3.55024e-18)
(23.1743 -23.3557 3.12739e-18)
(20.6767 -20.1981 5.22367e-18)
(17.6301 -16.654 8.58354e-18)
(13.9856 -12.6646 1.83808e-17)
(10.0383 -8.52339 2.93843e-17)
(5.92433 -4.10464 4.14769e-17)
(1.52231 -0.165987 8.64454e-17)
(13.8072 -3.51874 6.38756e-18)
(13.6902 -3.12647 6.48372e-18)
(13.759 -3.04946 6.26057e-18)
(13.9075 -3.12681 6.80811e-18)
(14.0876 -3.29635 7.33417e-18)
(14.3062 -3.55319 6.69338e-18)
(14.5718 -3.89816 6.33075e-18)
(14.8878 -4.32981 6.22174e-18)
(15.2553 -4.84555 5.86695e-18)
(15.6739 -5.44184 6.36165e-18)
(16.1428 -6.11298 6.78282e-18)
(16.6609 -6.85063 6.16217e-18)
(17.2268 -7.64384 5.84227e-18)
(17.8372 -8.47917 5.76193e-18)
(18.4881 -9.34028 5.46345e-18)
(19.1768 -10.2086 5.88896e-18)
(19.9011 -11.0669 6.26939e-18)
(20.6565 -11.9019 5.79481e-18)
(21.435 -12.7065 5.54299e-18)
(22.2271 -13.4803 5.40357e-18)
(23.0224 -14.2304 5.31101e-18)
(23.812 -14.9717 5.24095e-18)
(24.5894 -15.7285 5.1741e-18)
(25.3505 -16.5285 5.09742e-18)
(26.0958 -17.4029 4.94294e-18)
(26.8309 -18.3808 5.17503e-18)
(27.5639 -19.4836 4.74266e-18)
(28.3029 -20.7204 4.00666e-18)
(29.0544 -22.0841 4.09709e-18)
(29.8187 -23.5469 4.04367e-18)
(30.5839 -25.0597 3.88845e-18)
(31.3259 -26.5561 4.07835e-18)
(32.0042 -27.9596 3.50924e-18)
(32.5617 -29.1975 3.07354e-18)
(32.9316 -30.2109 2.82792e-18)
(33.0504 -30.9488 2.07872e-18)
(32.8861 -31.3649 8.81215e-19)
(32.3978 -31.3953 1.28745e-18)
(31.5333 -30.9606 3.06173e-18)
(30.2656 -30.0011 6.48542e-18)
(28.5107 -28.4484 8.24311e-18)
(26.2231 -26.292 6.19313e-18)
(23.2816 -23.51 1.50583e-18)
(19.6799 -20.2135 1.54099e-19)
(15.2128 -16.3279 7.1951e-18)
(10.2371 -12.1365 1.83224e-17)
(4.35042 -7.21813 5.05641e-17)
(-1.41379 -2.56883 9.16085e-17)
(-7.52301 3.07345 1.44414e-16)
(-14.5797 6.88272 4.40591e-16)
(26.7908 -3.3855 6.09562e-18)
(26.4417 -3.23169 6.13851e-18)
(26.2227 -3.25029 5.74367e-18)
(26.1585 -3.41068 6.06725e-18)
(26.1792 -3.66162 6.67051e-18)
(26.2562 -3.99403 6.35472e-18)
(26.3872 -4.40898 6.15967e-18)
(26.5727 -4.90541 6.09246e-18)
(26.8118 -5.48091 5.64676e-18)
(27.1043 -6.13239 5.97226e-18)
(27.451 -6.85523 6.47199e-18)
(27.8534 -7.64231 6.11848e-18)
(28.3127 -8.48334 5.90078e-18)
(28.8294 -9.36426 5.8122e-18)
(29.4029 -10.2671 5.37917e-18)
(30.0311 -11.1718 5.6616e-18)
(30.709 -12.0591 6.09636e-18)
(31.428 -12.9133 5.73959e-18)
(32.1764 -13.7234 5.52297e-18)
(32.9405 -14.4859 5.37756e-18)
(33.7041 -15.2074 5.26635e-18)
(34.4506 -15.9055 5.16827e-18)
(35.1654 -16.6069 5.0721e-18)
(35.8375 -17.3463 4.96623e-18)
(36.4597 -18.1614 4.80719e-18)
(37.0302 -19.0877 5.03266e-18)
(37.5526 -20.1527 4.54981e-18)
(38.0328 -21.3681 3.9504e-18)
(38.4747 -22.724 4.02693e-18)
(38.8742 -24.1841 4.04347e-18)
(39.2127 -25.6843 4.01898e-18)
(39.4587 -27.1389 4.271e-18)
(39.559 -28.4505 4.14851e-18)
(39.4358 -29.5312 3.76428e-18)
(38.9884 -30.3109 2.51925e-18)
(38.1235 -30.7343 2.30514e-19)
(36.8187 -30.7634 -2.79893e-18)
(35.0219 -30.3244 -6.78911e-19)
(32.672 -29.3282 5.42823e-18)
(29.7728 -27.7279 1.47036e-17)
(26.1868 -25.4192 1.57764e-17)
(22.002 -22.4996 8.92268e-18)
(16.8672 -18.8117 -3.89565e-18)
(11.1797 -14.7709 -5.91787e-18)
(4.10324 -9.88694 1.98623e-17)
(-2.78399 -5.17958 5.82107e-17)
(-11.5753 1.23696 1.68047e-16)
(-17.9897 5.44381 3.40832e-16)
(-20.7209 6.87506 4.62595e-16)
(-20.9606 6.87654 5.55857e-16)
(39.1496 -2.14571 5.7722e-18)
(38.9696 -2.17535 5.79669e-18)
(38.82 -2.31472 5.54647e-18)
(38.7727 -2.5607 5.75386e-18)
(38.7878 -2.88825 6.12341e-18)
(38.8306 -3.2947 5.92631e-18)
(38.8973 -3.78515 5.80574e-18)
(38.9926 -4.36223 5.76871e-18)
(39.1206 -5.02618 5.38945e-18)
(39.2865 -5.77547 5.56875e-18)
(39.4976 -6.60622 6.01258e-18)
(39.7623 -7.51106 5.80109e-18)
(40.0896 -8.47802 5.65449e-18)
(40.4873 -9.48978 5.58101e-18)
(40.9601 -10.5244 5.07823e-18)
(41.5076 -11.5574 5.34707e-18)
(42.1232 -12.563 5.80863e-18)
(42.7947 -13.5177 5.46779e-18)
(43.5045 -14.4032 5.25994e-18)
(44.2298 -15.2107 5.11555e-18)
(44.9439 -15.9439 4.9982e-18)
(45.6193 -16.6209 4.88967e-18)
(46.2293 -17.2723 4.77977e-18)
(46.749 -17.9387 4.65967e-18)
(47.1594 -18.6666 4.49599e-18)
(47.4491 -19.501 4.84807e-18)
(47.6137 -20.4782 4.51884e-18)
(47.6552 -21.6171 3.71434e-18)
(47.5761 -22.9086 3.74121e-18)
(47.3677 -24.306 3.80642e-18)
(47.0039 -25.7271 3.92136e-18)
(46.454 -27.0645 4.71158e-18)
(45.6593 -28.198 4.78227e-18)
(44.5189 -29.0257 3.90694e-18)
(42.8653 -29.4521 -4.30974e-19)
(40.5614 -29.4122 -7.08972e-18)
(37.6323 -28.8919 -1.45266e-17)
(33.9834 -27.7774 -4.47529e-18)
(29.5717 -25.9784 1.69716e-17)
(24.4788 -23.4856 4.34838e-17)
(18.3817 -20.0546 3.60032e-17)
(11.9591 -16.1821 1.10807e-17)
(3.89006 -11.1449 -2.52654e-17)
(-3.62119 -6.5358 -2.35334e-17)
(-13.88 -0.191669 7.0513e-17)
(-20.1869 3.72742 1.93535e-16)
(-23.3888 5.51454 2.68812e-16)
(-24.2748 5.96001 3.18989e-16)
(-24.4913 5.88235 3.77357e-16)
(-24.3976 5.478 4.58445e-16)
(54.6824 -3.43493 5.34701e-18)
(54.0377 -3.49211 5.36215e-18)
(53.5094 -3.62217 5.25926e-18)
(53.109 -3.83862 5.29789e-18)
(52.7905 -4.12662 5.41939e-18)
(52.5181 -4.48625 5.32797e-18)
(52.2873 -4.92424 5.27248e-18)
(52.1044 -5.44632 5.26488e-18)
(51.9754 -6.05672 4.84941e-18)
(51.9074 -6.75844 5.03456e-18)
(51.9098 -7.5522 5.56136e-18)
(51.9936 -8.43454 5.35858e-18)
(52.17 -9.39595 5.213e-18)
(52.448 -10.4196 5.13243e-18)
(52.8312 -11.4808 4.6145e-18)
(53.3157 -12.5487 4.76578e-18)
(53.8889 -13.5895 5.22498e-18)
(54.5289 -14.5691 5.00211e-18)
(55.2059 -15.4584 4.84381e-18)
(55.8841 -16.2388 4.71481e-18)
(56.5221 -16.9074 4.59518e-18)
(57.0749 -17.4793 4.47313e-18)
(57.4974 -17.987 4.34169e-18)
(57.7465 -18.4764 4.19434e-18)
(57.7849 -19.0012 4.00655e-18)
(57.5853 -19.6168 4.28797e-18)
(57.1319 -20.3718 3.9196e-18)
(56.4223 -21.2983 3.22744e-18)
(55.4618 -22.3935 3.2709e-18)
(54.231 -23.5952 3.67391e-18)
(52.7008 -24.803 4.38312e-18)
(50.8796 -25.8971 5.92788e-18)
(48.7356 -26.7432 6.60835e-18)
(46.1413 -27.23 4.6526e-18)
(42.7401 -27.1747 -1.23573e-17)
(38.3731 -26.5099 -3.28292e-17)
(33.2248 -25.2958 -5.06978e-17)
(27.003 -23.2704 -3.19902e-18)
(19.9016 -20.4174 7.15643e-17)
(12.1204 -16.792 1.42184e-16)
(2.75275 -11.6634 8.11051e-17)
(-5.26947 -7.00107 -3.79698e-18)
(-16.9588 0.067734 -9.52656e-17)
(-22.7529 3.24476 -4.58243e-17)
(-26.0184 4.66913 1.29901e-17)
(-27.2199 5.04424 6.79729e-17)
(-27.575 5.1076 1.18274e-16)
(-27.5706 5.00185 1.59684e-16)
(-27.2771 4.80472 2.02254e-16)
(-26.7595 4.55309 2.54329e-16)
(63.3988 -0.199235 4.5257e-18)
(63.2075 -0.418957 4.54953e-18)
(63.0901 -0.728145 4.18692e-18)
(63.0722 -1.1185 4.35085e-18)
(63.1225 -1.58136 4.80144e-18)
(63.1973 -2.12159 4.68459e-18)
(63.2859 -2.74707 4.61782e-18)
(63.39 -3.46469 4.59995e-18)
(63.5112 -4.28025 4.22906e-18)
(63.6522 -5.19814 4.31527e-18)
(63.8196 -6.22 4.75351e-18)
(64.0238 -7.3427 4.65098e-18)
(64.2785 -8.55608 4.59931e-18)
(64.5979 -9.83964 4.5944e-18)
(64.9919 -11.1596 4.20588e-18)
(65.4605 -12.4734 4.29623e-18)
(65.9913 -13.7345 4.67707e-18)
(66.5594 -14.8951 4.51257e-18)
(67.128 -15.9129 4.38183e-18)
(67.6498 -16.7566 4.25383e-18)
(68.0665 -17.4156 4.1087e-18)
(68.3118 -17.9019 3.93393e-18)
(68.316 -18.2484 3.72428e-18)
(68.0119 -18.5058 3.48364e-18)
(67.3401 -18.7344 3.20061e-18)
(66.2532 -19.0012 3.37817e-18)
(64.7209 -19.3724 2.98121e-18)
(62.7378 -19.9063 2.38712e-18)
(60.3144 -20.6191 2.62532e-18)
(57.3649 -21.4073 4.852e-18)
(53.8963 -22.174 8.15308e-18)
(50.0899 -22.84 1.25188e-17)
(46.0486 -23.2931 1.38587e-17)
(41.5835 -23.4174 4.81194e-18)
(35.6306 -22.7184 -6.69683e-17)
(28.4228 -21.2675 -1.31167e-16)
(20.5326 -19.3345 -1.68798e-16)
(10.7238 -16.0384 4.93076e-17)
(0.874657 -11.8467 3.06996e-16)
(-9.19771 -6.80756 4.72246e-16)
(-22.0896 0.921436 1.47479e-16)
(-26.9749 3.46464 -1.33172e-17)
(-29.4428 4.32846 -4.61083e-17)
(-30.436 4.4547 -2.96038e-17)
(-30.7181 4.40389 -1.28562e-17)
(-30.6505 4.30453 -4.16156e-18)
(-30.3249 4.23071 2.51524e-18)
(-29.7932 4.18195 8.6903e-18)
(-29.0966 4.09896 1.49741e-17)
(-28.2918 3.92897 1.64207e-17)
(86.795 -3.91011 4.3124e-18)
(85.8571 -4.06554 4.3235e-18)
(85.0708 -4.24739 3.86749e-18)
(84.3671 -4.46129 4.03924e-18)
(83.6967 -4.71763 4.59755e-18)
(83.0252 -5.03059 4.44314e-18)
(82.348 -5.41322 4.3616e-18)
(81.6708 -5.87836 4.33938e-18)
(81.001 -6.43899 4.20643e-18)
(80.3495 -7.10762 4.17896e-18)
(79.7336 -7.89514 4.30218e-18)
(79.1766 -8.80887 4.31376e-18)
(78.7072 -9.84887 4.33776e-18)
(78.3549 -11.0014 4.39068e-18)
(78.1348 -12.2269 4.07293e-18)
(78.0418 -13.469 4.11814e-18)
(78.0489 -14.667 4.35315e-18)
(78.1092 -15.752 4.11085e-18)
(78.1545 -16.6661 3.83424e-18)
(78.1064 -17.3608 3.50057e-18)
(77.8702 -17.8127 3.09694e-18)
(77.3396 -18.0268 2.61169e-18)
(76.4107 -18.0304 2.06731e-18)
(74.99 -17.8706 1.49679e-18)
(72.9994 -17.6038 9.34064e-19)
(70.3776 -17.2989 1.0213e-18)
(67.0813 -17.0341 8.4742e-19)
(63.1006 -16.905 7.75422e-19)
(58.4222 -16.9535 2.72367e-18)
(52.5487 -16.9189 1.55523e-17)
(45.9002 -16.827 3.09104e-17)
(39.2276 -16.8128 4.36463e-17)
(33.0306 -16.8694 3.97908e-17)
(26.8393 -16.7904 -8.71402e-18)
(16.5532 -14.9234 -3.3697e-16)
(6.10456 -12.3847 -5.29061e-16)
(-3.8637 -9.61464 -5.72138e-16)
(-19.0144 -3.49335 4.22797e-16)
(-28.0524 1.33711 1.17317e-15)
(-32.2688 3.53181 1.2721e-15)
(-33.8775 4.16801 1.10487e-15)
(-34.0837 4.04808 8.57995e-16)
(-34.1348 3.87675 6.66088e-16)
(-33.9343 3.74896 5.16553e-16)
(-33.4791 3.68969 3.89917e-16)
(-32.8261 3.68652 2.64607e-16)
(-32.0361 3.69826 1.31142e-16)
(-31.1657 3.6806 -5.69036e-18)
(-30.2558 3.58949 -1.41286e-16)
(-29.3309 3.38843 -2.83768e-16)
(79.2067 2.26592 4.72693e-18)
(79.2534 1.7898 4.74673e-18)
(79.6101 1.26084 4.29897e-18)
(80.097 0.712945 4.51258e-18)
(80.6448 0.117107 5.06216e-18)
(81.203 -0.545216 4.90097e-18)
(81.7544 -1.2867 4.80547e-18)
(82.2931 -2.12243 4.77138e-18)
(82.8141 -3.06892 4.6104e-18)
(83.3127 -4.14177 4.65098e-18)
(83.7834 -5.35334 4.79566e-18)
(84.2174 -6.70936 4.76252e-18)
(84.5993 -8.20464 4.7373e-18)
(84.8956 -9.81518 4.73805e-18)
(85.0279 -11.4629 4.07668e-18)
(84.9729 -13.0459 3.60357e-18)
(84.6682 -14.4921 2.79824e-18)
(84.1314 -15.7179 1.6423e-18)
(83.3232 -16.6849 2.33157e-19)
(82.1762 -17.339 -1.36178e-18)
(80.5941 -17.6543 -3.11811e-18)
(78.4618 -17.6355 -4.96174e-18)
(75.6888 -17.3105 -6.71116e-18)
(72.2126 -16.7245 -8.06655e-18)
(67.9972 -15.9255 -8.7447e-18)
(63.013 -14.9731 -7.50829e-18)
(57.2186 -13.9333 -5.0761e-18)
(50.5885 -12.9089 4.85103e-19)
(42.7853 -11.8409 1.42567e-17)
(30.9266 -10.0328 9.44218e-17)
(19.6563 -8.63624 1.69841e-16)
(10.2908 -7.8257 2.06692e-16)
(3.48555 -7.67122 1.44346e-16)
(-2.1318 -7.55726 -1.37489e-16)
(-23.8862 -1.27131 -1.738e-15)
(-33.1162 2.09785 -2.16926e-15)
(-37.393 3.70075 -2.18692e-15)
(-38.9181 4.1533 -1.99748e-15)
(-38.9818 3.94443 -1.69971e-15)
(-38.7185 3.61702 -1.44036e-15)
(-38.2762 3.32583 -1.30641e-15)
(-37.6235 3.06948 -1.24555e-15)
(-36.8556 2.91855 -1.20759e-15)
(-36.0029 2.8763 -1.15029e-15)
(-35.0719 2.87668 -1.07339e-15)
(-34.0819 2.8721 -9.90741e-16)
(-33.0534 2.82311 -9.0421e-16)
(-32.01 2.70656 -8.05687e-16)
(-30.9846 2.52353 -6.86111e-16)
(-29.9954 2.26874 -5.35974e-16)
(132.833 -4.95394 5.30311e-18)
(131.48 -5.22325 5.30778e-18)
(130.367 -5.38715 4.92565e-18)
(129.185 -5.50205 4.97849e-18)
(127.863 -5.61403 5.39144e-18)
(126.382 -5.74476 5.30936e-18)
(124.721 -5.90776 5.2511e-18)
(122.853 -6.11619 5.22223e-18)
(120.738 -6.3836 4.77977e-18)
(118.328 -6.72395 4.82136e-18)
(115.565 -7.15177 5.2695e-18)
(112.373 -7.68272 5.16188e-18)
(108.649 -8.33748 5.07582e-18)
(104.139 -9.17557 5.00901e-18)
(98.5543 -10.1379 -1.78168e-18)
(93.1098 -11.0035 -6.4593e-18)
(87.3248 -11.7663 -1.43175e-17)
(81.7425 -12.3518 -2.24645e-17)
(76.4009 -12.7816 -3.08381e-17)
(70.9389 -12.9993 -3.88237e-17)
(65.1199 -12.991 -4.64195e-17)
(58.8352 -12.7426 -5.27766e-17)
(52.0753 -12.2647 -5.69e-17)
(44.8911 -11.5559 -5.70913e-17)
(37.3575 -10.6149 -5.20593e-17)
(29.5046 -9.4201 -3.77082e-17)
(21.2673 -7.91631 -1.13121e-17)
(12.5928 -5.99886 3.9138e-17)
(-0.0292482 -2.75917 1.40919e-16)
(-34.8624 4.8319 7.53451e-16)
(-47.5484 6.37655 1.22765e-15)
(-49.8697 5.81763 1.40654e-15)
(-48.962 4.83032 1.38412e-15)
(-47.9847 4.27451 1.25231e-15)
(-47.0285 3.94471 1.06819e-15)
(-46.055 3.59947 9.02538e-16)
(-45.2718 3.17825 8.86854e-16)