/*--------------------------------*- C++ -*----------------------------------*\
  =========                 |
  \\      /  F ield         | OpenFOAM: The Open Source CFD Toolbox
   \\    /   O peration     | Website:  https://openfoam.org
    \\  /    A nd           | Version:  8
     \\/     M anipulation  |
\*---------------------------------------------------------------------------*/
FoamFile
{
    version     2.0;
    format      ascii;
    class       volScalarField;
    location    "200";
    object      p;
}
// * * * * * * * * * * * * * * * * * * * * * * * * * * * * * * * * * * * * * //

dimensions      [1 -1 -2 0 0 0 0];

internalField   nonuniform List<scalar> 
1200
(
778194
775649
772859
770729
768818
762106
757573
755676
739179
722588
715879
718951
725148
729314
730252
728575
725737
723050
717603
709459
700561
694068
691263
690118
685534
671306
659905
651278
644845
639800
635510
631296
626589
621503
615475
609768
603830
597755
590716
583355
575601
567472
557445
545366
532867
522180
511713
493782
464349
429127
393521
359674
324998
286778
244721
198958
151742
104239
60421.3
18553.9
770715
772300
770976
769121
767468
761477
755963
752156
736581
719666
713393
718274
724529
728629
729737
728395
725852
723292
717513
708944
699945
693184
690196
688735
684078
670417
659884
651253
644884
639980
635951
632005
627200
621847
615568
609897
604022
597839
590668
583328
575631
567457
557473
545095
532317
521297
510417
492275
462924
428466
394598
360829
325520
287013
244920
199101
151811
104245
60422.5
17842
772692
773951
773081
770871
767771
761676
754353
748029
735870
723903
719473
721945
726461
729618
730274
728860
726409
723912
717247
707817
698461
691352
687737
686210
683381
672125
661030
652031
645720
640373
635732
631339
626041
620353
614282
608754
603104
597089
590359
583457
575982
567782
557636
544128
530150
518945
508434
491079
463377
430391
396696
363103
327562
288634
246117
199802
152181
104315
60456.4
16074.4
772652
772809
771893
769952
766482
759698
751795
744911
735065
724934
720404
722139
726166
728909
729277
727724
725180
723249
716463
707118
698382
691745
687444
684799
681687
672267
661739
652535
646038
640613
635720
630963
625603
619957
614108
608751
603345
597453
590838
583968
576360
567946
557813
543376
527818
515565
505055
488878
463188
432274
399580
365966
329863
290651
248106
201553
153589
105159
61056.2
14165.4
772739
772942
772322
770970
767178
758866
749933
742267
733940
726150
723041
724727
728202
730303
730042
728355
725961
724013
715864
706320
698489
692775
688447
685035
680934
672634
662632
653679
646994
641181
635736
630503
625042
619347
613599
608309
603098
597440
591158
584346
576588
568146
558494
543140
525753
512371
501530
486128
462206
433105
401441
368034
331762
292352
249686
203057
155182
106331
62073.7
12622.8
772730
773112
772372
771480
767322
757091
747546
740397
733715
727104
724594
726193
729158
730698
730026
728560
726761
725610
716046
705278
697940
693641
690661
687252
682215
674066
664160
655153
647973
641616
635724
630195
624722
619096
613421
608088
603078
597701
591703
584936
577079
568933
560160
543653
524482
510243
499040
483514
460517
432701
401910
368745
332341
292884
250741
204824
157557
108540
63885.8
12160.2
772603
773212
772293
771959
767584
754711
743190
735155
729472
723661
722041
724280
727971
729796
729305
728977
728677
729980
718514
705436
698372
694817
693157
690415
685464
677541
666839
657221
649298
642329
636015
630304
624746
619140
613470
608017
602988
597747
591947
585319
577466
570452
563164
544112
521121
506155
495101
479651
457250
430536
401105
368995
332964
293500
251735
206538
160043
111017
66007.4
12235.4
772605
773991
773745
774002
769171
752873
741256
734061
728362
718498
708649
711868
720855
727258
728971
729559
728878
731442
721460
707936
700990
698044
697488
695149
689934
681515
669152
658844
650395
642976
636392
630475
624707
619032
613336
607811
602747
597675
592163
586062
578507
573225
567106
545100
518915
502945
491925
476378
454186
428362
400131
368883
333038
293340
251803
207474
162344
114187
69306
13944.8
771508
771697
772393
776644
771837
748141
732762
727064
724234
715900
704898
709126
719279
725972
727343
728310
728957
735036
723106
707406
701539
700228
701618
699415
693937
684627
670339
659383
650828
643349
636662
630750
624844
619113
613447
607925
602743
597718
592438
586948
579834
575528
571583
544555
511945
497200
488119
472682
450473
425582
398757
368641
333282
293536
251918
207984
163734
116352
71478.3
16500.6
779426
775414
774814
784152
779937
751808
734264
727022
724694
717486
706339
709107
718715
725591
727158
728409
727982
738291
726301
708379
702228
701171
703000
700142
694240
686345
670340
659038
650533
643490
636910
630809
624782
618982
613300
607773
602527
597408
592147
586862
580071
576710
574827
549494
516542
497879
486058
470394
448214
423912
397954
368595
333489
293629
251959
208282
164550
117706
72981.5
18898
780667
774256
772428
768392
763842
760077
757004
755359
736763
719530
714093
718255
724923
729315
730397
729094
726810
724472
718724
709724
701119
695154
691618
688033
681769
670086
660282
653040
646514
640218
634609
630023
625490
620594
615423
609575
603766
597469
590851
583835
575977
566800
556796
544996
532550
521515
510148
491750
462814
427780
392227
358648
324304
286638
244957
199475
152599
105298
61533.6
19740.6
771460
771057
770447
767997
765135
760351
756479
753571
736867
719078
712919
718136
724504
728653
729867
728902
726890
724699
718581
709004
700182
693909
690455
686847
680371
669130
660454
653330
646352
640104
634934
630524
625872
620774
615346
609593
603974
597956
591219
583987
575967
566733
556538
544356
531686
520500
508928
490503
461680
427228
393285
359810
324807
286794
245014
199498
152621
105210
61353.4
18850.4
773080
773199
772394
770365
767528
760968
754952
749244
735560
722448
718151
721510
726243
729538
730474
729556
727655
725636
718665
707912
698589
691814
688165
684813
679929
670739
661956
654459
646836
640329
635024
630238
625074
619635
614009
608419
603272
597713
591061
583966
576117
567018
556617
543328
529604
518432
507291
489559
462142
429037
395281
361810
326661
288349
246137
200178
153015
105253
61077.5
17144.2
772706
772680
771606
769999
766917
759446
752367
745912
734965
723992
719720
722282
726366
729165
729803
728779
726728
725324
718077
707089
698185
691779
687719
683644
678812
670775
662364
654550
646320
640246
635305
630318
624959
619452
613674
608219
603500
598332
591568
584256
576333
567263
556787
542584
527374
515290
504153
487516
461943
430782
398077
364568
328879
290211
247799
201611
154221
105992
61302.4
15270.3
772781
772925
772344
771220
767706
758732
750012
742697
733601
725072
722103
724641
728308
730578
730660
729544
727681
726807
718596
707112
698675
692921
688848
684389
678844
671259
662770
654774
646093
640152
635252
630035
624506
618976
613168
607758
603113
598270
591899
584709
576506
567504
557484
542434
525306
512107
500758
484971
461076
431614
399867
366465
330628
291801
249135
202771
155365
106892
61864.8
13759.9
772863
773114
772844
772245
768366
757511
748199
741568
733949
726493
724036
726174
729349
731139
730801
729703
728109
728099
718402
705523
697444
693134
690524
686640
680752
672829
663713
655125
646160
640190
635312
629958
624372
618960
613242
607770
602961
598301
592258
585362
577044
568234
559142
542957
523887
509662
498008
482374
459564
431385
400463
367265
331288
292432
250129
204286
157280
108772
63397.7
13183.5
772923
773293
772790
773082
769060
755001
743645
736107
729833
723560
721857
724076
727630
729548
729367
729477
729783
732661
720722
705648
697919
694346
693005
690216
684890
676745
666153
656338
647013
640656
635627
630137
624475
619059
613419
607853
602744
597969
592200
585580
577498
569618
562170
543589
520611
505255
493860
478719
456749
429611
399808
367400
331662
292960
251136
205939
159379
110796
64994.3
13115.6
773141
774785
774222
775391
771818
754863
744502
738077
731735
720916
709758
712040
720761
727296
729232
729945
729600
733623
723346
707873
700248
697325
696900
694671
689157
680047
667703
657270
648168
641236
635918
630363
624573
619018
613388
607799
602514
597572
592093
586264
578944
572346
565879
544016
517601
501240
490262
475641
454289
428114
399400
367606
331722
292807
251333
206986
161350
113256
67404.8
14138.9
771570
772685
772398
777256
773214
749006
734835
729472
726339
717634
706342
710142
720278
726988
728389
729436
730589
737729
724673
707115
700678
699344
700654
698804
693216
683044
668849
657784
648738
641712
636037
630502
624719
619088
613490
607977
602661
597525
591969
586401
580135
574463
570485
544741
511627
495510
486394
472405
451290
425942
398436
367521
331833
292824
251537
207765
162741
114901
68606.6
15702.8
778459
776343
774184
783132
778408
748728
733195
727099
724730
717308
705443
707491
717403
724908
727165
728926
729838
741622
728529
708072
701099
700030
701801
699416
693463
684738
668913
657481
648511
641743
636191
630564
624759
619073
613440
607955
602685
597462
591617
585682
580345
575572
572375
547493
515079
495960
484337
470371
449297
424542
397877
367653
332083
292853
251598
208218
163628
115953
69437.4
17097.5
)
;

boundaryField
{
    wall
    {
        type            calculated;
        value           nonuniform List<scalar> 
1200
(
776914
770332
772503
772630
772720
772665
772440
772324
771474
779937
776340
772941
774331
772869
772951
773115
773178
773590
771175
774952
773058
771252
773431
772042
772311
772131
772037
773504
772374
775159
771921
769691
771125
769932
770846
771092
771383
773272
776319
784767
771428
768663
767875
766254
766913
766791
766835
767785
771120
780743
763190
762055
762048
759823
758927
756868
754577
751844
747689
753325
757947
755693
754063
751500
749894
747217
742973
739589
731722
734764
755904
751378
747417
744401
742056
739821
734681
731956
725863
726982
740401
736357
736035
735116
734115
733624
729298
726537
723167
724688
724072
719917
724644
725414
726703
727442
723717
717124
715023
717603
716720
713631
720142
720756
723530
724906
722157
707969
704137
706837
719289
718340
722167
722069
724783
726220
724385
711789
708551
709895
725258
724540
726574
726067
728158
729057
728130
720982
718708
719331
729312
728618
729662
728780
730171
730458
729905
727333
725413
725905
730184
729676
730182
729010
729734
729614
729269
728924
726792
727140
728322
728147
728523
727186
727753
727968
728739
729438
727755
728137
725207
725337
725795
724397
725085
726080
728144
728559
728172
727050
722339
722586
723042
722220
722590
724359
728672
730381
733736
736632
717043
716974
716516
715662
714459
714851
717399
720539
722330
725176
709331
708908
707748
707139
705905
705160
705313
707992
707554
708534
700280
699819
698380
698486
698389
698204
698594
701378
701986
702801
693511
692814
691109
691734
692702
693915
695054
698416
700691
701748
691073
690056
687506
687301
688232
690738
693231
697790
702130
703624
691167
689672
686903
685367
685341
687554
690502
695397
699752
700514
687438
685960
685122
683132
681972
682935
685731
690330
694341
694628
671917
671084
672821
673024
673327
674671
677917
682260
685466
687146
659719
659596
660558
661427
662572
664374
667168
669889
671095
671065
650398
650204
650802
651516
653135
655157
657662
659650
660179
659821
644001
644130
645152
645903
647469
648891
650463
651538
651873
651542
639582
639900
640384
640805
641720
642339
643185
643868
644176
644360
635962
636448
636078
635930
635995
635933
636217
636635
636978
637267
631940
632740
631891
631285
630747
630312
630396
630531
630873
630933
627151
627862
626535
625920
625316
624898
624892
624775
624904
624792
621974
622385
620725
620203
619534
619163
619189
619039
619123
618937
615506
615670
614424
614321
613819
613510
613501
613309
613423
613232
609866
610038
608923
609019
608596
608250
608104
607816
607896
607682
603861
604039
603016
603265
603097
603142
603120
602867
602780
602440
597913
597784
596773
596998
597020
597400
597641
597733
597818
597366
590664
590393
590007
590456
590779
591423
591821
592202
592688
592412
583121
582995
583203
583822
584160
584719
585182
585954
587235
587478
575408
575457
575911
576378
576630
577101
577445
578265
579668
579934
567809
567821
568162
568295
568467
569282
570862
573663
576039
577297
557762
557947
558148
558335
559004
560668
563651
567714
572049
576090
545540
545471
544537
543775
543497
544001
544358
545659
544410
550478
533022
532637
530426
528036
525980
524776
521376
519571
512142
517248
522521
521698
519190
515689
512495
510530
506611
503795
498063
498841
512506
511159
508991
505489
501899
499550
495726
492754
488983
486924
494794
493149
491832
489553
486696
484077
480119
476738
472812
470398
465098
463529
463988
463812
462775
460989
457503
454119
450047
447661
429787
429073
431067
433023
433863
433359
431008
428472
425389
423589
394173
395242
397409
400332
402238
402636
401765
400489
398910
397988
360190
361335
363752
366668
368833
369493
369804
369523
369200
369066
325347
325879
328015
330366
332343
332881
333621
333706
334011
334197
286847
287124
288778
290882
292636
293122
293769
293611
293892
294021
244601
244872
246106
248261
249962
251054
252035
252040
252103
252139
198700
198899
199611
201512
203192
205093
206840
207719
208088
208307
151313
151397
151755
153249
155075
157680
160370
162839
164230
165009
103711
103758
103844
104727
106042
108408
111121
114650
117088
118600
59856.7
59942.3
60136.4
60916.5
62166
64097.3
66488.8
70231.3
72920.4
74780
17951.3
17332.7
15539.6
13616.5
12062.6
11652.7
11802
13864.8
16928.3
19852.4
781946
771844
773269
772729
772800
772928
773086
773421
771604
777948
773559
770416
772819
772620
772916
773110
773327
775186
773206
776805
772224
770170
772043
771457
772354
773085
773047
774462
772414
773839
767196
767428
770112
770019
771344
772633
773657
776118
777574
782513
761231
763941
767424
767144
767970
768896
769806
773209
773919
777595
758993
759773
760595
759322
758671
757731
755132
755899
749429
747205
756628
756748
755243
752662
750051
748523
743858
746145
735869
732693
755126
754348
749856
746422
742910
742140
736580
740095
730668
727139
735538
737092
735395
734915
733427
734041
730012
733424
727397
724738
718047
718828
721707
723512
724520
726160
723506
722159
718507
717194
713255
712682
717482
719367
721614
723728
721736
710387
707101
704947
717921
718070
721289
722352
724586
726149
723951
712147
710682
706705
724816
724493
726130
726465
728353
729441
727449
720692
720740
716787
729319
728665
729494
729294
730711
731358
729417
727284
727407
724594
730467
729928
730567
730070
730969
731185
729390
729342
728817
727183
729348
729150
729893
729317
730145
730270
729713
730123
729915
729199
727341
727405
728270
727510
728554
728776
730326
729969
731349
730771
725184
725405
726507
726348
728222
729348
733986
734725
739037
743279
719284
719120
719396
718870
719997
719610
721860
724293
725450
729559
709853
709039
707984
707063
707526
705661
705788
707832
706962
707857
701399
700307
698680
698084
698774
697204
697708
699873
700239
700518
695711
694278
692072
691802
692993
692884
694122
696962
698895
699457
691807
690594
688412
687880
689066
690467
692947
696603
700150
701179
686983
685909
684129
683094
684091
686350
690142
694426
698471
699045
679865
678489
678191
677378
677814
680037
684628
688763
692813
693076
669475
668463
670043
670026
670574
672225
676366
679301
682204
683937
660468
660743
662429
662680
662836
663495
665814
666963
668090
668187
653920
654381
655688
655573
655325
655115
655886
656463
656986
656698
647359
647107
647404
646454
645625
645234
645842
647026
647692
647503
640436
640183
640312
640049
639624
639467
639806
640349
640886
640873
634158
634437
634671
635089
635010
635108
635436
635680
635722
635835
629380
629789
629684
629990
629807
629847
630057
630311
630379
630441
624929
625210
624580
624636
624245
624202
624340
624509
624660
624748
620124
620236
619263
619201
618799
618900
619020
619015
619078
619119
615392
615245
613867
613456
612956
613157
613397
613418
613514
613508
609478
609452
608250
607948
607478
607613
607774
607797
608006
608046
603735
603957
603360
603578
603120
602901
602621
602396
602624
602772
597312
598012
598029
598785
598696
598607
598083
597517
597426
597504
590902
591494
591413
591946
592283
592541
592334
592057
591719
591352
584068
584320
584220
584395
584895
585581
585724
586375
586113
585066
576170
576141
576188
576310
576464
577025
577525
579191
580300
580482
566463
566369
566637
566911
567185
567892
569217
571916
573950
574984
556479
556064
556105
556265
556980
558645
561691
565267
570006
571109
544821
543980
542919
542187
542084
542618
543339
543457
544881
546508
532395
531366
529328
527158
525083
523592
520355
516947
511433
514374
521174
520099
518187
515167
511984
509374
504799
500391
494647
494999
509355
508186
506735
503719
500389
497497
493234
489433
485530
483472
490738
489629
488807
486841
484403
481811
478251
475281
472275
470368
462065
461075
461531
461319
460507
459093
456497
454356
451716
449850
427120
426621
428360
430033
430856
430727
429139
428004
426135
424865
391577
392642
394568
397326
399070
399737
399148
399043
398284
397844
358134
359305
361162
363865
365666
366517
366590
366965
366962
367182
323958
324449
326209
328375
330046
330748
331005
331054
331104
331375
286571
286683
288205
289977
291516
292194
292691
292536
292469
292461
245078
245062
246147
247642
248859
249815
250836
251095
251352
251419
199735
199700
200368
201651
202635
204016
205637
206740
207661
208193
153029
153035
153442
154562
155472
157158
159053
160856
162245
163169
105826
105698
105725
106426
107182
108905
110693
112793
114166
115059
62098.8
61834.4
61399.4
61444.7
61775.1
63188
64513.4
66480
67164.9
67639.3
20343.6
19360.4
17680.4
15821.2
14322.4
13693
13549.9
14219.3
15275.3
16143.3
)
;
    }
    inlet
    {
        type            calculated;
        value           nonuniform List<scalar> 
20
(
778194
770715
772692
772652
772739
772730
772603
772605
771508
779426
780667
771460
773080
772706
772781
772863
772923
773141
771570
778459
)
;
    }
    outlet
    {
        type            calculated;
        value           nonuniform List<scalar> 
20
(
-97.7572
-293.387
-488.829
-684.14
-879.382
-1074.72
-1270.01
-1465.32
-1660.81
-1856.57
-97.7589
-293.39
-488.835
-684.149
-879.392
-1074.74
-1270.02
-1465.33
-1660.82
-1856.58
)
;
    }
    heatWall
    {
        type            calculated;
        value           nonuniform List<scalar> 
240
(
779329
778361
775316
776245
774716
774086
784054
783034
779839
778311
751711
748631
734167
733098
726924
727001
724596
724632
717388
717211
706241
705345
709010
707394
718617
717305
725494
724810
727060
727067
728311
728829
727885
729740
738193
741524
726203
728431
708281
707975
702130
701001
701073
699932
702902
701703
700044
699318
694142
693365
686247
684640
670242
668815
658940
657384
650435
648414
643392
641645
636812
636093
630712
630466
624684
624661
618884
618976
613202
613342
607675
607857
602429
602587
597310
597365
592050
591519
586764
585584
579973
580247
576612
575474
574729
572277
549396
547395
516444
514981
497782
495862
485960
484240
470296
470273
448116
449200
423814
424444
397856
397780
368497
367555
333391
331985
293531
292755
251861
251501
208184
208120
164452
163530
117609
115855
72883.8
69339.7
18800.3
16999.8
778291
780765
775746
774353
772956
772526
770827
768489
768915
763940
762204
760175
757671
757102
755774
755456
739277
736860
722686
719628
715977
714191
719049
718353
725246
725021
729412
729413
730350
730494
728673
729192
725835
726908
723147
724570
717700
718821
709557
709822
700659
701216
694166
695252
691361
691715
690215
688131
685632
681867
671404
670183
660002
660380
651376
653138
644943
646612
639898
640315
635607
634707
631393
630121
626687
625588
621600
620692
615573
615520
609866
609673
603928
603864
597853
597567
590813
590949
583452
583932
575698
576075
567570
566897
557543
556894
545464
545094
532965
532648
522278
521613
511810
510246
493879
491848
464447
462911
429225
427878
393619
392325
359772
358746
325096
324402
286876
286736
244819
245055
199056
199573
151840
152697
104337
105395
60519.1
61631.3
18651.7
19838.3
)
;
    }
}


// ************************************************************************* //
