/*--------------------------------*- C++ -*----------------------------------*\
  =========                 |
  \\      /  F ield         | OpenFOAM: The Open Source CFD Toolbox
   \\    /   O peration     | Website:  https://openfoam.org
    \\  /    A nd           | Version:  8
     \\/     M anipulation  |
\*---------------------------------------------------------------------------*/
FoamFile
{
    version     2.0;
    format      ascii;
    class       surfaceScalarField;
    location    "200";
    object      phi;
}
// * * * * * * * * * * * * * * * * * * * * * * * * * * * * * * * * * * * * * //

dimensions      [1 0 -1 0 0 0 0];

internalField   nonuniform List<scalar> 
2860
(
1.60711
-0.0211457
-1.46618
1.62318
-0.00603859
-0.634387
1.63719
-0.0092665
-0.387377
1.66247
-0.0117907
1.02836
1.70294
0.00417584
4.25336
1.74118
0.0150502
5.92884
1.79876
0.0958582
8.15675
1.83801
0.242371
13.7958
1.76931
0.259601
19.9953
1.62538
0.165716
22.14
1.49625
0.0428593
20.484
1.41834
-0.0394803
17.3688
1.37772
-0.0699043
14.433
1.35425
-0.0740163
12.0592
1.34107
-0.0714081
10.1807
1.34206
-0.0746146
8.48006
1.36294
-0.0866232
6.72775
1.39991
-0.0991082
5.01148
1.43011
-0.0897243
3.75131
1.43826
-0.0633232
3.22527
1.42382
-0.0409744
2.57876
1.38285
-0.0201264
1.63109
1.31369
0.00796101
1.21997
1.21793
0.0586062
2.6074
1.13815
0.0847331
5.74535
1.10396
0.028349
6.7101
1.09704
-0.0145569
6.03936
1.09584
-0.0225713
4.17669
1.09392
-0.024069
2.49157
1.09896
-0.0315718
1.97751
1.12227
-0.0460246
2.63384
1.16811
-0.0633134
3.57916
1.23486
-0.0723159
4.3967
1.31261
-0.0669612
5.1609
1.38409
-0.0530931
5.30776
1.43929
-0.040212
5.51671
1.47449
-0.0311595
5.52173
1.49511
-0.0231762
5.61198
1.50738
-0.019765
5.38197
1.51695
-0.0231496
4.88488
1.52881
-0.0324294
4.41322
1.55113
-0.0432876
4.60787
1.58206
-0.052796
4.77429
1.60392
-0.040207
4.81893
1.5972
-0.000602078
4.96326
1.54966
0.0653424
5.54959
1.44654
0.147888
7.07566
1.28292
0.202254
9.04156
1.09788
0.182922
10.1413
0.968436
0.0917248
10.4597
0.935735
-0.019354
10.4005
0.978928
-0.0918132
10.0419
1.06367
-0.125104
9.58582
1.16549
-0.133734
8.90763
1.2689
-0.128563
8.17054
1.3643
-0.114652
7.42074
1.4467
-0.0973211
6.5682
1.5141
-0.0787396
5.69322
1.568
-0.0668291
4.83321
-0.0338936
3.97021
1.58864
-0.0251537
-0.443374
1.59982
-0.00449472
0.331979
1.61216
-0.0139825
0.684091
1.63533
-0.025127
1.40039
1.67543
-0.00421903
2.92395
1.71518
0.00983549
3.78483
1.77424
0.0845956
3.98732
1.87074
0.21801
4.86763
1.94827
0.221991
6.79125
1.98164
0.109375
7.98758
1.98823
-0.0243888
7.86662
1.99278
-0.0984149
7.29467
2.00654
-0.127669
6.75974
2.02887
-0.131044
6.30552
2.05563
-0.125229
5.88387
2.08393
-0.124222
5.33325
2.11349
-0.133082
4.55607
2.14799
-0.146297
3.61189
2.18072
-0.130653
2.87281
2.20063
-0.0910518
2.67491
2.20121
-0.0529439
2.45655
2.18232
-0.0185691
2.06275
2.14578
0.0256715
1.89072
2.10468
0.0817797
2.69922
2.07421
0.109595
4.47328
2.02936
0.0617516
5.04881
1.97385
0.011657
4.59345
1.92372
-0.0213839
3.28781
1.87936
-0.0468152
2.26345
1.83467
-0.0606792
1.93338
1.78857
-0.0696888
2.19058
1.7433
-0.0785942
2.68845
1.70094
-0.0809885
3.11411
1.66658
-0.0746238
3.42999
1.63924
-0.0677509
3.27604
1.61891
-0.0604127
3.1959
1.60488
-0.0539615
2.99272
1.5994
-0.0459745
2.73556
1.602
-0.0452132
2.251
1.6115
-0.053307
1.72665
1.62613
-0.0661157
1.41382
1.65351
-0.0804209
1.75942
1.69916
-0.095838
2.25866
1.75416
-0.07542
2.7268
1.80065
-0.0103981
3.27277
1.82402
0.081807
4.00283
1.81555
0.187265
5.18168
1.76598
0.260861
6.49481
1.67592
0.250629
7.24556
1.55942
0.160714
7.60266
1.45302
0.0354776
7.81575
1.39368
-0.0786998
7.87176
1.38598
-0.153309
7.83834
1.41554
-0.190904
7.59219
1.46606
-0.202397
7.2422
1.52377
-0.194171
6.76673
1.57959
-0.176206
6.06322
1.62894
-0.151264
5.3138
1.67108
-0.13649
4.61208
-0.0741159
3.87817
1.58423
-0.0122306
-0.222594
1.59357
-0.00662019
0.254703
1.60925
-0.0202363
0.689058
1.63629
-0.0437333
0.988651
1.68
-0.0435167
1.08979
1.72676
-0.0115697
1.52541
1.77697
0.0599879
1.35845
1.8516
0.167836
1.18647
1.91271
0.179885
1.99243
1.93509
0.0914622
3.05898
1.92779
-0.0182274
3.71029
1.91383
-0.0891923
3.76475
1.90681
-0.125371
3.64625
1.90924
-0.135993
3.45169
1.91941
-0.133483
3.13288
1.93583
-0.133689
2.56375
1.95544
-0.142603
1.69026
1.98858
-0.170508
0.505966
2.0274
-0.17103
-0.511607
2.05939
-0.138772
-0.773992
2.07513
-0.099597
-0.942175
2.07426
-0.0582012
-1.17454
2.06615
-0.000664209
-1.31363
2.06784
0.0604805
-0.514978
2.08925
0.0938858
1.32247
2.09672
0.0500424
2.06096
2.09314
-0.00185306
1.59093
2.07501
-0.0325405
0.365079
2.04779
-0.0491498
-0.246471
2.01754
-0.0610713
-0.301359
1.98163
-0.0682378
-0.0320627
1.94378
-0.0696125
0.421287
1.91217
-0.0688478
0.817285
1.88919
-0.0621638
1.1099
1.86856
-0.0559948
1.18876
1.8508
-0.0513475
1.30978
1.83685
-0.0494827
1.16175
1.82903
-0.0457854
0.765175
1.82566
-0.0458886
0.326351
1.82236
-0.0524909
-0.0090199
1.81453
-0.0624854
-0.152677
1.80916
-0.0806445
0.179807
1.81855
-0.110939
0.632424
1.84303
-0.101899
0.991721
1.86332
-0.0281779
1.28359
1.87331
0.0835856
1.69439
1.88385
0.200911
2.64234
1.89386
0.276279
3.92936
1.89323
0.2614
4.94292
1.87977
0.168729
5.76931
1.84743
0.0539087
6.43448
1.79585
-0.0462834
6.9296
1.74253
-0.115609
7.21989
1.7037
-0.158047
7.28166
1.68504
-0.181574
7.29582
1.68237
-0.188538
7.14052
1.68813
-0.185691
6.65093
1.69714
-0.169617
6.04252
1.70711
-0.163867
5.57007
-0.088949
4.80951
1.59189
-0.00971063
-0.0301287
1.59966
-0.0188732
0.0514927
1.61354
-0.0311396
0.223304
1.63972
-0.0667648
0.18015
1.68613
-0.0924186
-0.119341
1.73489
-0.0532201
-0.00344825
1.78155
0.0208937
-0.285894
1.84503
0.111332
-0.680253
1.90236
0.131075
-0.398049
1.92943
0.0703263
0.230554
1.93328
-0.0178696
0.587379
1.92517
-0.0822859
0.509165
1.91746
-0.120214
0.388043
1.91243
-0.134825
0.223536
1.90794
-0.134041
-0.0971324
1.9065
-0.136728
-0.721511
1.92038
-0.155067
-1.64504
1.96244
-0.202381
-2.91452
2.00188
-0.203432
-3.96617
2.01789
-0.157752
-4.10311
2.00804
-0.104425
-4.04093
1.98215
-0.0558006
-3.98901
1.95669
-0.00177041
-3.9981
1.94541
0.0485808
-3.24716
1.95613
0.0730564
-1.602
1.95464
0.0449728
-0.745366
1.93546
0.00636576
-1.04172
1.90781
-0.0161705
-2.09672
1.8773
-0.0204928
-2.25995
1.84078
-0.0225274
-2.07673
1.8028
-0.0263827
-1.87662
1.7682
-0.0300866
-1.55293
1.73662
-0.0327342
-1.2267
1.70984
-0.0306669
-0.974272
1.6872
-0.0272356
-0.750546
1.66852
-0.0242722
-0.451337
1.64944
-0.0254629
-0.56393
1.63337
-0.0277769
-1.14564
1.62322
-0.031495
-1.65901
1.61875
-0.0390533
-1.88888
1.61657
-0.0517487
-1.90558
1.6215
-0.0792736
-1.50453
1.64795
-0.133226
-0.882881
1.68386
-0.137821
-0.404424
1.70809
-0.0576961
-0.137168
1.72546
0.0623876
0.10576
1.75739
0.180715
0.86234
1.80156
0.253223
2.00876
1.83637
0.241343
3.0422
1.85101
0.155259
4.02393
1.84482
0.0489957
4.81636
1.822
-0.0315908
5.51894
1.78812
-0.0735598
6.15416
1.74889
-0.0919733
6.70011
1.70849
-0.10909
7.26696
1.66872
-0.129552
7.50445
1.62972
-0.150972
7.15103
1.59294
-0.15542
6.4835
1.55782
-0.166116
6.06251
-0.0981445
5.05019
1.59086
-0.00730033
-0.0236884
1.59614
-0.0235694
-0.0119424
1.60698
-0.0395325
-0.035762
1.6385
-0.0916136
-0.236508
1.69444
-0.140711
-0.654869
1.74996
-0.102067
-0.672197
1.79976
-0.0204825
-0.739945
1.85252
0.0640102
-0.958093
1.89774
0.0902864
-0.747133
1.917
0.0612872
-0.162894
1.91995
-0.00142963
0.31721
1.914
-0.0588571
0.284007
1.91003
-0.098482
0.089805
1.90936
-0.118975
-0.230436
1.90924
-0.125331
-0.747845
1.9156
-0.140173
-1.5875
1.94141
-0.177264
-2.75035
2.00081
-0.261287
-4.49277
2.05485
-0.262634
-6.07673
2.0756
-0.18139
-6.56545
2.061
-0.090273
-6.68743
2.02452
-0.0218233
-6.73398
1.98324
0.0279192
-6.84298
1.95185
0.0669312
-6.35647
1.93319
0.0829927
-5.10149
1.91118
0.0618997
-4.26487
1.87716
0.0333245
-4.26231
1.83562
0.0181903
-4.79328
1.79155
0.0139738
-4.19045
1.74408
0.01073
-3.48541
1.69649
0.00404813
-3.09253
1.65225
-0.00324967
-2.72485
1.61183
-0.00845985
-2.32947
1.57637
-0.0097549
-2.04909
1.54648
-0.00887285
-1.73352
1.52093
-0.00697037
-1.33349
1.49536
-0.00891511
-1.3063
1.47043
-0.0125437
-1.84767
1.44938
-0.0161613
-2.36228
1.43269
-0.0244698
-2.62262
1.41962
-0.0416628
-2.54827
1.42106
-0.0890288
-2.04475
1.46189
-0.184908
-1.22505
1.51841
-0.204981
-0.614411
1.5558
-0.103763
-0.246429
1.57524
0.0276381
-0.0631018
1.60303
0.144411
0.475616
1.64605
0.21647
1.33155
1.68619
0.213436
2.19585
1.70606
0.145713
3.21912
1.7065
0.0576579
4.23214
1.69688
-0.00375596
5.31392
1.67862
-0.0170243
6.3654
1.64763
-0.00785388
7.2851
1.602
-0.0185102
8.15984
1.54498
-0.0532821
8.55613
1.48026
-0.096648
8.27277
1.41396
-0.120599
7.4952
1.34262
-0.141795
7.08071
-0.094111
5.69098
1.58975
-0.00438738
-0.0767386
1.59512
-0.0247203
-0.0782129
1.60304
-0.0493933
-0.378721
1.63981
-0.127296
-0.907186
1.70666
-0.204758
-1.64943
1.76677
-0.15978
-1.9737
1.81358
-0.062589
-2.37593
1.85593
0.0251357
-2.93339
1.89281
0.056627
-2.91184
1.91028
0.0504344
-2.48406
1.91112
0.00943537
-2.17015
1.90733
-0.0397381
-2.22486
1.90976
-0.0802175
-2.49976
1.92162
-0.104983
-2.97462
1.94065
-0.119997
-3.62093
1.96369
-0.148175
-4.38693
1.98986
-0.200692
-5.15653
2.0396
-0.322688
-6.43619
2.09422
-0.33804
-7.56871
2.13254
-0.242556
-7.57919
2.14414
-0.124862
-7.18197
2.1242
-0.0199209
-6.78319
2.08004
0.0596841
-6.62497
2.02844
0.11138
-6.29708
1.97927
0.128749
-5.55928
1.92747
0.114081
-4.94463
1.86786
0.0971317
-4.75238
1.80801
0.0849225
-4.80426
1.75264
0.0722579
-3.78213
1.69688
0.062495
-2.91891
1.64112
0.0517781
-2.63323
1.58876
0.0397981
-2.45457
1.54014
0.0310436
-2.19935
1.49528
0.0260819
-2.08383
1.4553
0.0229989
-1.93904
1.41959
0.0213626
-1.69137
1.3847
0.0195985
-1.57627
1.3493
0.0166272
-1.99481
1.31751
0.0112241
-2.40074
1.29349
-0.00626617
-2.70501
1.28136
-0.0410767
-2.5783
1.29968
-0.127853
-1.85198
1.38234
-0.284253
-0.748119
1.46132
-0.291209
0.10318
1.49421
-0.135522
0.684562
1.50944
0.0157669
1.05964
1.53067
0.123723
1.63371
1.56428
0.179767
2.24392
1.59929
0.173002
2.7584
1.62368
0.113481
3.51555
1.63208
0.0388244
4.33941
1.62699
-0.0037075
5.22248
1.61388
0.00929395
6.0169
1.5961
0.0435037
6.66694
1.56788
0.0487546
7.51489
1.51785
0.020541
8.15188
1.44176
-0.0247958
8.25761
1.35038
-0.059636
7.6957
1.24526
-0.0926698
7.35543
-0.0807231
5.83436
1.58871
-0.00317821
-0.186341
1.59382
-0.0241664
-0.248535
1.59723
-0.0559864
-0.582501
1.63911
-0.170062
-1.36382
1.72201
-0.284369
-2.30108
1.7941
-0.221886
-2.47879
1.84361
-0.104312
-2.82471
1.87717
-0.00636308
-3.34324
1.90209
0.0327382
-3.51732
1.90967
0.0509267
-3.48715
1.90932
0.0472397
-3.60503
1.91215
-0.0135986
-3.98152
1.92091
-0.0720178
-4.33629
1.92361
-0.100359
-4.61687
1.90685
-0.104741
-4.8847
1.86524
-0.115633
-5.23411
1.80309
-0.153534
-5.82097
1.77439
-0.31446
-7.24579
1.7751
-0.359077
-8.45426
1.78061
-0.263763
-8.48625
1.78445
-0.142287
-8.08425
1.78277
-0.0353117
-7.63636
1.77661
0.0505659
-7.37801
1.76773
0.110694
-7.149
1.7566
0.138142
-6.7651
1.74021
0.136185
-6.32015
1.71437
0.132335
-5.96327
1.68375
0.122595
-5.45987
1.64883
0.106347
-4.01525
1.6072
0.09448
-2.89747
1.56151
0.0824128
-2.57188
1.51678
0.0691035
-2.38794
1.47346
0.0595314
-2.13131
1.43161
0.0530806
-2.00355
1.39234
0.0476225
-1.90228
1.35667
0.0428505
-1.7232
1.32416
0.0392932
-1.48147
1.29366
0.034045
-1.60004
1.26913
0.0231928
-1.7621
1.25754
-0.00841641
-1.92892
1.26173
-0.0630099
-1.851
1.30484
-0.189513
-0.945545
1.42566
-0.387612
0.507958
1.53682
-0.378123
1.69758
1.59262
-0.181175
2.43175
1.60722
0.00267056
2.96669
1.61645
0.107088
3.53878
1.6372
0.144964
3.85576
1.66388
0.130735
3.95295
1.68224
0.0823182
4.37837
1.67613
0.0344981
5.06588
1.64003
0.0245833
5.95883
1.5868
0.0593295
6.72826
1.53333
0.101112
7.11394
1.48007
0.113941
7.6555
1.41253
0.0989039
8.20628
1.31733
0.0656608
8.59479
1.19952
0.0320497
8.34209
1.05403
0.00251685
8.33013
-0.0383876
6.63519
1.5818
0.00129196
-0.313117
1.5819
-0.0228433
-0.824526
1.58159
-0.0519605
-1.12234
1.63182
-0.224502
-1.80371
1.73513
-0.383004
-2.33766
1.80846
-0.266031
-2.41558
1.86107
-0.0763394
-4.43408
1.91324
0.0644298
-8.12483
1.95034
0.118133
-11.8128
1.93351
0.125534
-14.0362
1.86531
0.0925594
-14.289
1.78273
0.00929338
-13.1057
1.70158
-0.0545352
-11.4727
1.61761
-0.080198
-10.0275
1.52843
-0.0792415
-8.93115
1.44012
-0.0886945
-8.08124
1.37154
-0.138647
-7.68669
1.35345
-0.331863
-8.4735
1.34049
-0.365562
-9.30261
1.31798
-0.258625
-8.77808
1.316
-0.151727
-7.90541
1.34647
-0.0687514
-7.23295
1.39799
-0.00263398
-6.78712
1.45172
0.0570976
-6.48471
1.49871
0.0932071
-6.03338
1.53561
0.104815
-5.18859
1.55469
0.119444
-4.39686
1.56217
0.121286
-3.52592
1.55854
0.117126
-2.18255
1.54284
0.115025
-1.1317
1.51886
0.103258
-0.886787
1.49422
0.0868288
-0.86618
1.47033
0.0755878
-0.814315
1.44797
0.0669016
-0.833333
1.42761
0.0579538
-0.888462
1.40974
0.0497327
-0.889879
1.39539
0.0457359
-0.726137
1.38378
0.0407865
-0.652852
1.37491
0.027446
-0.603231
1.37331
-0.010322
-0.727858
1.36869
-0.0713777
-0.856
1.41444
-0.1993
0.373844
1.52392
-0.434583
2.67264
1.61747
-0.431142
4.52126
1.65781
-0.217184
5.64204
1.65545
-0.0218949
6.40658
1.63782
0.0856275
6.79591
1.62471
0.114745
6.5899
1.60895
0.100845
5.97295
1.57647
0.0687159
5.67562
1.52059
0.0465771
5.74133
1.45046
0.0619852
6.25715
1.38601
0.108954
6.99629
1.33887
0.146747
7.36029
1.3015
0.15814
7.8064
1.25392
0.151171
8.24944
1.17699
0.13529
8.89046
1.07066
0.118252
9.25171
0.922776
0.112144
10.1239
0.032619
9.11666
1.59296
-0.00434518
-0.0307971
1.58308
-0.0248276
-0.667118
1.56463
-0.0323459
-0.694616
1.65296
-0.247589
-0.323378
1.79058
-0.378642
2.62552
1.87099
-0.282859
5.85787
1.89776
-0.134002
6.17669
1.91143
-0.0317517
4.35944
1.93507
0.0072824
2.15652
1.94969
0.0154791
0.4186
1.90594
0.0245502
-0.605781
1.90409
0.0360657
-1.44346
1.93375
0.0364183
-2.6327
1.95383
0.0328099
-3.92742
1.93275
0.0357892
-5.03963
1.85277
0.0357896
-5.84876
1.68561
0.0338368
-6.64419
1.51201
-0.155004
-7.60651
1.36191
-0.204568
-8.58158
1.22432
-0.130685
-8.10872
1.12619
-0.0716738
-6.9958
1.08442
-0.0376971
-5.93256
1.09796
-0.0129714
-4.98603
1.13939
0.0232902
-4.53413
1.19092
0.0542688
-4.06161
1.2447
0.070905
-2.93077
1.27821
0.0986294
-1.98067
1.29702
0.111851
-0.993119
1.30097
0.117529
0.375569
1.3022
0.110115
1.39201
1.30327
0.095745
1.65509
1.30116
0.0824605
1.66127
1.29747
0.0720944
1.60154
1.29478
0.063432
1.4908
1.29409
0.0541908
1.3545
1.29596
0.0445283
1.2378
1.30327
0.037259
1.24787
1.32309
0.0319246
1.38336
1.36618
0.0212562
1.84195
1.42301
-0.00718963
2.55571
1.46208
-0.0530891
2.72452
1.48124
-0.169825
4.03885
1.47779
-0.393081
6.23842
1.43492
-0.395694
7.49031
1.35774
-0.174219
7.8063
1.27328
0.0243244
8.47266
1.21707
0.0986197
8.95471
1.18972
0.0941217
8.25617
1.16599
0.068124
6.73972
1.13263
0.0429281
5.72335
1.09272
0.0314439
5.38579
1.05901
0.0525359
5.87709
1.04418
0.0919001
6.78576
1.05185
0.112901
7.08597
1.07378
0.115225
7.19714
1.09564
0.111148
7.24648
1.10425
0.108356
7.95668
1.09838
0.106898
8.97147
1.07749
0.113745
11.0283
0.048139
11.3927
1.60642
0.577032
1.59134
0.016256
1.5864
0.445322
1.71303
4.40519
1.8052
17.0305
1.76554
27.2713
1.70883
30.8126
1.67657
30.5427
1.63951
28.4116
1.5729
25.0713
1.4806
21.3072
1.37776
17.8591
1.27058
14.6745
1.16466
11.7296
1.07046
8.91876
0.981982
6.30757
0.894427
3.23076
0.895108
-1.81654
0.834929
-7.19854
0.733167
-7.24755
0.650486
-5.37951
0.60573
-3.47267
0.613129
-1.49414
0.654016
-0.574692
0.688863
0.143428
0.742427
1.8528
0.823582
2.90785
0.905571
3.77532
0.983366
4.89346
1.05205
5.62162
1.11099
5.48046
1.16392
5.10519
1.21409
4.71377
1.26617
4.39185
1.32287
4.19067
1.38234
4.08641
1.43934
4.05572
1.48851
4.0847
1.52362
4.49149
1.52828
5.3464
1.47715
5.17874
1.33723
6.27692
1.06293
10.4082
0.704364
13.2614
0.460517
12.3559
0.422022
12.3742
0.478849
12.6367
0.528461
10.0979
0.547973
6.59649
0.543784
4.56464
0.537536
4.08647
0.560129
5.21644
0.621097
6.83603
0.706806
7.29239
0.800179
7.25561
0.890429
6.93507
0.974645
7.53394
1.05933
8.86548
1.15162
11.5961
12.8479
1.61892
-0.00377949
1.62729
0.0048181
1.64749
0.000123059
1.66815
-0.0282396
1.69909
-0.0307774
1.73652
-0.00343502
1.79392
0.0767667
1.84125
0.224582
1.7795
0.251146
1.63701
0.168295
1.50458
0.0513578
1.42326
-0.0346931
1.38144
-0.0681514
1.35845
-0.0740566
1.3462
-0.0727746
1.34797
-0.0767194
1.36977
-0.0890431
1.41035
-0.102778
1.44557
-0.094902
1.455
-0.0663051
1.43922
-0.0388382
1.40044
-0.0117951
1.3375
0.01339
1.24239
0.0536171
1.15638
0.0843
1.11284
0.037546
1.09996
-0.00948799
1.09818
-0.0224399
1.09777
-0.0196582
1.10204
-0.0241083
1.1212
-0.042688
1.16275
-0.0624357
1.2254
-0.0728369
1.2998
-0.0691486
1.37193
-0.0553455
1.42939
-0.0429609
1.46866
-0.0350773
1.49243
-0.0308172
1.50738
-0.0276016
1.51947
-0.027795
1.53343
-0.0328039
1.55463
-0.0423168
1.58534
-0.0500861
1.60923
-0.0387629
1.60661
-0.00362003
1.5655
0.0563949
1.47094
0.13654
1.3144
0.195899
1.12954
0.186287
0.991644
0.102676
0.948588
-0.00968375
0.985156
-0.0856109
1.06581
-0.12097
1.16562
-0.131305
1.26862
-0.127486
1.36437
-0.114886
1.44841
-0.098803
1.517
-0.0802979
1.57438
-0.0672462
-0.0336927
1.59699
-0.00466557
1.60121
-0.0115841
1.61586
-0.0192647
1.63694
-0.0452607
1.67293
-0.048315
1.7105
-0.0126673
1.76722
0.0722852
1.86779
0.218254
1.94612
0.23248
1.97806
0.122621
1.98212
-0.0133461
1.98505
-0.0913275
1.99685
-0.1236
2.01774
-0.129702
2.04316
-0.12639
2.06992
-0.126655
2.098
-0.135491
2.13456
-0.151095
2.17219
-0.13821
2.1951
-0.0944909
2.19846
-0.050248
2.18254
-0.00933341
2.15121
0.031584
2.11146
0.078302
2.07967
0.100858
2.03945
0.0592016
1.99006
0.0120291
1.94501
-0.0210118
1.90319
-0.0332818
1.85843
-0.0424476
1.81011
-0.0574689
1.76226
-0.072222
1.71765
-0.0782923
1.68064
-0.0747247
1.6525
-0.064572
1.63058
-0.056616
1.6158
-0.054008
1.60907
-0.0538257
1.61076
-0.0529127
1.62036
-0.0554836
1.63585
-0.0626526
1.65923
-0.0767662
1.69963
-0.0911673
1.74963
-0.072315
1.79414
-0.0136564
1.82101
0.0682855
1.82053
0.16867
1.78061
0.248065
1.69907
0.249386
1.5876
0.169428
1.4798
0.0495612
1.41399
-0.0650255
1.39999
-0.1433
1.42507
-0.184424
1.47291
-0.19807
1.52911
-0.191754
1.58527
-0.175502
1.63454
-0.151166
1.67924
-0.134129
-0.0734996
1.58923
-0.00421173
1.59542
-0.0165399
1.60963
-0.0308807
1.63412
-0.0615355
1.67906
-0.0743915
1.72123
-0.0424474
1.77055
0.042333
1.85221
0.164519
1.91495
0.183348
1.93643
0.0993342
1.92764
-0.0090433
1.91302
-0.0830012
1.90415
-0.12134
1.90415
-0.134145
1.91097
-0.134411
1.92285
-0.13679
1.93778
-0.145872
1.9791
-0.175185
2.03248
-0.172474
2.07194
-0.130727
2.09033
-0.0825637
2.08883
-0.0350704
2.08328
0.0195441
2.08028
0.0708905
2.08754
0.0900725
2.08944
0.0519205
2.08416
0.00608429
2.07095
-0.020588
2.04659
-0.0278583
2.02319
-0.0401566
1.9945
-0.0566798
1.95856
-0.0677589
1.92335
-0.0714355
1.89534
-0.0671009
1.8736
-0.0558003
1.85489
-0.0476644
1.84133
-0.0472092
1.83368
-0.0497626
1.82819
-0.0500054
1.82214
-0.0518845
1.81915
-0.0595208
1.81941
-0.0802666
1.82923
-0.109517
1.8486
-0.10075
1.86575
-0.0304747
1.87882
0.0739712
1.89374
0.184907
1.90608
0.263817
1.90614
0.261282
1.89227
0.178066
1.8613
0.0654812
1.81195
-0.0353068
1.759
-0.106504
1.7191
-0.150877
1.69858
-0.175457
1.69407
-0.183686
1.69964
-0.182361
1.70793
-0.1678
1.71984
-0.160282
-0.0880675
1.59273
-0.00894429
1.60061
-0.0217277
1.61222
-0.0459033
1.63811
-0.0871566
1.6881
-0.113308
1.73215
-0.0775801
1.78191
0.0119626
1.84989
0.111957
1.90868
0.131959
1.93083
0.0732173
1.92896
-0.0138912
1.92088
-0.0782517
1.91311
-0.116332
1.90829
-0.131225
1.90557
-0.131563
1.90921
-0.136149
1.92703
-0.157101
1.96707
-0.210122
2.00319
-0.205091
2.01451
-0.147814
2.00194
-0.0859098
1.97579
-0.0327816
1.9538
0.0196252
1.94596
0.0629233
1.95021
0.0737521
1.94418
0.0451743
1.92525
0.015189
1.90163
-0.000582818
1.86744
0.000936484
1.82726
-0.00375537
1.78793
-0.0168358
1.75246
-0.0284755
1.72112
-0.0332106
1.69575
-0.0324956
1.6758
-0.027442
1.65577
-0.0231628
1.63661
-0.0207302
1.6243
-0.0235979
1.61765
-0.0285915
1.61366
-0.0391371
1.61109
-0.0528878
1.61475
-0.083759
1.63893
-0.13765
1.67573
-0.140342
1.70536
-0.0576692
1.73295
0.0612807
1.77017
0.173564
1.81368
0.245168
1.84752
0.241459
1.86136
0.164075
1.85538
0.0603662
1.83323
-0.022548
1.8003
-0.0688448
1.76268
-0.0896077
1.72372
-0.105061
1.68503
-0.123322
1.64818
-0.143807
1.61215
-0.150087
1.58042
-0.160789
-0.0966572
1.59109
-0.00996056
1.59596
-0.026683
1.60616
-0.0548057
1.63874
-0.115182
1.69761
-0.163273
1.75245
-0.119797
1.80249
-0.0298781
1.85729
0.0597854
1.90364
0.0853373
1.92019
0.0506137
1.91648
-0.0141118
1.91
-0.0691229
1.90692
-0.106863
1.90858
-0.123654
1.91123
-0.126033
1.91996
-0.137806
1.9482
-0.174518
2.00769
-0.261673
2.06015
-0.252906
2.0755
-0.161363
2.05619
-0.0653421
2.01721
0.00352258
1.97676
0.0521321
1.94685
0.0848615
1.9255
0.0894545
1.9002
0.0648185
1.86496
0.0407041
1.8249
0.0320769
1.7781
0.0300439
1.72809
0.0232847
1.67992
0.00931619
1.63531
-0.00296968
1.59456
-0.00892865
1.55989
-0.0108326
1.5309
-0.0112082
1.50416
-0.0114622
1.47849
-0.00787911
1.45672
-0.00668149
1.43795
-0.00910437
1.42158
-0.0221909
1.40844
-0.0433497
1.41072
-0.0937078
1.44968
-0.189518
1.50732
-0.209717
1.54832
-0.109702
1.5797
0.0287229
1.61748
0.146256
1.66119
0.215754
1.69871
0.213956
1.71696
0.150888
1.71692
0.0655203
1.70647
0.00182684
1.68866
-0.0168179
1.66035
-0.010249
1.61791
-0.0177855
1.56364
-0.0483753
1.50243
-0.0895434
1.43816
-0.115152
1.37189
-0.137989
-0.0926068
1.59041
-0.00959791
1.59322
-0.0324313
1.60221
-0.0596374
1.64075
-0.147584
1.70941
-0.223758
1.76903
-0.169703
1.81467
-0.0705885
1.85756
0.0148811
1.89375
0.0404486
1.91043
0.0245719
1.91077
-0.0206086
1.90832
-0.0607079
1.91332
-0.090448
1.92861
-0.108216
1.95128
-0.118894
1.97658
-0.144194
2.0037
-0.198059
2.05308
-0.32117
2.10871
-0.324485
2.14443
-0.21933
2.14963
-0.0953868
2.12164
0.0106386
2.0721
0.0891252
2.01743
0.134494
1.96465
0.142472
1.90946
0.124878
1.84874
0.108475
1.79026
0.0997487
1.73216
0.0851218
1.67419
0.0722642
1.61894
0.0561162
1.56731
0.0412636
1.51873
0.0313465
1.47489
0.026343
1.43602
0.0212777
1.40016
0.0166246
1.36449
0.0182593
1.33117
0.0223771
1.30115
0.0188866
1.27896
-0.00338899
1.26946
-0.0473644
1.29128
-0.134075
1.37524
-0.284882
1.46537
-0.298283
1.50195
-0.142243
1.51933
0.0172408
1.54171
0.128368
1.57496
0.183551
1.6091
0.177072
1.63237
0.119796
1.64113
0.0454433
1.63666
-0.00119564
1.62406
0.00542673
1.60761
0.0366646
1.58178
0.0451079
1.53558
0.0216947
1.46498
-0.0197287
1.37729
-0.0539714
1.27909
-0.0874431
-0.0773961
1.59018
-0.00656708
1.59237
-0.0374953
1.59611
-0.0579324
1.64062
-0.182734
1.72602
-0.301049
1.7975
-0.236971
1.84488
-0.115707
1.87751
-0.016488
1.90018
0.0171426
1.90799
0.02276
1.91074
0.00384368
1.91896
-0.0441389
1.93083
-0.0842854
1.93247
-0.100601
1.91251
-0.100452
1.86659
-0.111216
1.80298
-0.154336
1.77478
-0.319535
1.77971
-0.34576
1.78697
-0.237387
1.78937
-0.109681
1.78424
-0.000565316
1.77458
0.0853826
1.76354
0.139806
1.75046
0.159226
1.73175
0.154816
1.70506
0.147272
1.67386
0.136659
1.63458
0.114001
1.58914
0.0997554
1.54321
0.0852978
1.49835
0.0690747
1.4541
0.056948
1.41205
0.0504586
1.37306
0.0437358
1.33748
0.0363024
1.30391
0.0335456
1.27469
0.0368526
1.25197
0.0314875
1.24378
-0.00210488
1.25414
-0.0695398
1.30102
-0.188548
1.42597
-0.376624
1.53632
-0.375857
1.59228
-0.188556
1.60955
-0.00104712
1.62035
0.108027
1.64154
0.147487
1.669
0.133407
1.68887
0.0839365
1.68696
0.033136
1.65535
0.019239
1.60417
0.0517802
1.55121
0.0940098
1.49846
0.1097
1.43292
0.0975576
1.34214
0.0675822
1.22791
0.0356966
1.08983
0.00614378
-0.0339934
1.58208
0.011964
1.58185
-0.0319785
1.57995
-0.0510701
1.63155
-0.217062
1.73618
-0.367403
1.80996
-0.262905
1.86297
-0.0760577
1.91628
0.0672529
1.95059
0.11931
1.92901
0.117848
1.85907
0.0651293
1.77506
-0.0193837
1.69135
-0.0737725
1.6042
-0.0903975
1.51336
-0.0856859
1.42381
-0.094809
1.35682
-0.1467
1.33919
-0.340472
1.32967
-0.358177
1.31291
-0.24225
1.31816
-0.129165
1.35346
-0.0411804
1.40462
0.0311266
1.45714
0.0851339
1.50277
0.113708
1.53649
0.122913
1.55496
0.130219
1.56144
0.128348
1.55303
0.11266
1.53183
0.108765
1.50777
0.102069
1.48436
0.0866274
1.46142
0.0727007
1.44027
0.0635353
1.42149
0.0543336
1.40536
0.0441445
1.39026
0.0372389
1.37768
0.0374406
1.36691
0.0346213
1.36485
0.00737735
1.3728
-0.0633605
1.4141
-0.185607
1.52024
-0.418954
1.61433
-0.435089
1.65726
-0.226511
1.65935
-0.0291816
1.64531
0.0834982
1.63528
0.11627
1.62369
0.103642
1.59552
0.069907
1.54356
0.04378
1.47426
0.0553036
1.40702
0.101541
1.35709
0.141281
1.31864
0.154385
1.27212
0.148347
1.19819
0.134721
1.09365
0.12053
0.950342
0.116065
0.0368237
1.58938
0.0142043
1.58309
-0.00974574
1.56156
-0.0127312
1.63981
-0.211238
1.7861
-0.362012
1.86628
-0.279347
1.89653
-0.137398
1.91289
-0.0337322
1.941
0.00906485
1.95182
0.0202425
1.91376
0.0291006
1.92086
0.03369
1.94896
0.0329659
1.96075
0.0308349
1.9304
0.0333247
1.83881
0.0313587
1.66467
0.0224807
1.48631
-0.168675
1.33883
-0.201272
1.20698
-0.120993
1.11661
-0.0602137
1.08385
-0.0239337
1.10081
0.00763994
1.14385
0.0384351
1.19576
0.0563785
1.2454
0.0678491
1.28061
0.0990026
1.3085
0.111857
1.31021
0.113606
1.30187
0.106688
1.3008
0.0946387
1.29973
0.0823618
1.29675
0.0709191
1.29412
0.0617715
1.29271
0.0528778
1.29332
0.0428655
1.29828
0.0339029
1.31446
0.0291161
1.3503
0.025111
1.40283
0.00659399
1.44738
-0.0425744
1.47201
-0.154117
1.48146
-0.370337
1.44559
-0.395464
1.37047
-0.193756
1.28774
0.0113449
1.23063
0.097116
1.2047
0.0962833
1.1847
0.0720654
1.15429
0.0453
1.11573
0.0300328
1.08022
0.0476758
1.06119
0.0873021
1.06591
0.110759
1.0867
0.114206
1.10858
0.109699
1.11776
0.107394
1.11099
0.107973
1.09063
0.116132
0.0515581
1.59818
1.59498
1.575
1.70239
1.80595
1.7712
1.71322
1.67908
1.64305
1.57909
1.48685
1.38403
1.27868
1.17546
1.0819
0.993015
0.896912
0.878357
0.815983
0.717968
0.642697
0.608757
0.611982
0.652406
0.69466
0.747686
0.822621
0.902374
0.977014
1.04355
1.10219
1.15478
1.20398
1.25441
1.30895
1.36679
1.42378
1.47558
1.51496
1.52523
1.48492
1.35548
1.09695
0.74094
0.481805
0.43007
0.484531
0.538051
0.56486
0.566288
0.560632
0.578328
0.633324
0.715869
0.808468
0.898962
0.982995
1.06523
1.15552
)
;

boundaryField
{
    wall
    {
        type            calculated;
        value           nonuniform List<scalar> 
1200
(
1.47185
0.450411
0.217108
0.0273251
0.0219759
0.0756639
0.188126
0.318481
0.0350846
-0.596206
0.624355
-0.344688
-0.261947
-0.0470072
0.0113864
0.0739008
0.242798
0.8232
0.679049
-0.0260186
0.382638
-0.691796
-0.698476
-0.226288
0.0332762
0.380627
0.58574
1.11864
0.69345
-0.472719
-1.04186
-1.41025
-0.99713
-0.183393
0.229939
0.906194
1.36469
1.80781
0.258039
-4.7794
-4.29802
-2.95568
-1.0942
0.121938
0.647325
1.64665
2.29776
2.33298
-2.76744
-17.5013
-5.98214
-3.81942
-1.55078
-0.00359774
0.665486
1.97129
2.46875
2.38645
-5.92145
-27.5145
-8.3102
-4.0351
-1.38407
0.278422
0.731493
2.37123
2.81685
4.35351
-6.1458
-30.8899
-14.0775
-4.93971
-1.21102
0.673314
0.95265
2.93001
3.34118
8.00183
-4.27693
-30.5422
-20.1862
-6.83118
-2.01145
0.389573
0.742673
2.90863
3.5163
11.6903
-2.06929
-28.3672
-22.1618
-7.96461
-3.06347
-0.23669
0.152701
2.47749
3.47911
13.9784
-0.323098
-24.9892
-20.3977
-7.80595
-3.70912
-0.591642
-0.336639
2.15846
3.56763
14.3119
0.717562
-21.1904
-17.2514
-7.24028
-3.75997
-0.508028
-0.301536
2.20956
3.95258
13.1653
1.41863
-17.7203
-14.3225
-6.71575
-3.64147
-0.38555
-0.107611
2.47914
4.3193
11.5364
2.51209
-14.5309
-11.9617
-6.27082
-3.44911
-0.219744
0.215195
2.94874
4.60956
10.0913
3.79435
-11.5909
-10.0961
-5.85687
-3.13478
0.102212
0.739276
3.59652
4.88622
8.9949
4.94565
-8.78875
-8.40644
-5.31197
-2.57071
0.72609
1.58453
4.37184
5.2432
8.14262
5.80426
-6.18331
-6.66201
-4.53918
-1.7004
1.64371
2.74671
5.15377
5.83604
7.74036
6.63887
-3.1094
-4.94934
-3.59923
-0.514926
2.90441
4.49227
6.44784
7.26624
8.50898
7.60324
1.66085
-3.69178
-2.86466
0.513142
3.95918
6.08194
7.58945
8.47456
9.32204
8.57075
7.05417
-3.1701
-2.66708
0.789707
4.10605
6.56832
7.60207
8.50191
8.79546
8.11845
7.21863
-2.52334
-2.44511
0.973023
4.05551
6.68793
7.20503
8.09787
7.91677
7.0139
5.39053
-1.56998
-2.04542
1.21498
4.01246
6.73652
6.80123
7.65341
7.23589
5.9433
3.47973
-1.15876
-1.87192
1.34813
4.02467
6.85459
6.63733
7.39332
6.78873
4.98285
1.47381
-2.57027
-2.68129
0.534629
3.27035
6.36948
6.30428
7.15857
6.48461
4.52652
0.557095
-5.75031
-4.4677
-1.32817
1.61213
5.11022
5.56268
6.7669
6.03129
4.049
-0.123988
-6.70427
-5.03736
-2.0567
0.751924
4.26996
4.94422
6.31442
5.18304
2.91096
-1.8355
-6.01789
-4.56422
-1.5738
1.0527
4.26932
4.74819
5.95388
4.39066
1.96806
-2.89033
-4.15292
-3.23897
-0.335723
2.10813
4.80046
4.79737
5.45284
3.51966
0.983847
-3.74545
-2.46561
-2.19635
0.276069
2.26184
4.20005
3.77925
4.01607
2.17535
-0.380012
-4.85374
-1.95098
-1.85958
0.332054
2.07471
3.49964
2.92298
2.90711
1.12672
-1.38834
-5.58019
-2.61112
-2.12082
0.0665402
1.87275
3.10969
2.64129
2.58692
0.889915
-1.64864
-5.44366
-3.56169
-2.62789
-0.392425
1.54801
2.74221
2.46387
2.40337
0.873134
-1.65481
-5.07567
-4.39113
-3.06305
-0.797821
1.22218
2.34559
2.20846
2.14614
0.822156
-1.59434
-4.69184
-5.17169
-3.388
-1.09943
0.969552
2.06363
2.09286
2.0184
0.841958
-1.48461
-4.38052
-5.32615
-3.23409
-1.17993
0.744434
1.74507
1.94715
1.91694
0.898562
-1.35003
-4.19319
-5.53171
-3.15539
-1.30111
0.442939
1.34174
1.69875
1.73736
0.900861
-1.23446
-4.10134
-5.52577
-2.95587
-1.15229
0.558962
1.3153
1.58264
1.49428
0.734013
-1.24673
-4.07546
-5.60942
-2.70723
-0.757485
1.14371
1.85734
2.00101
1.61315
0.65775
-1.39432
-4.10196
-5.37447
-2.22812
-0.322281
1.65477
2.368
2.40516
1.7747
0.607886
-1.87884
-4.50535
-4.87129
-1.70595
0.0115035
1.87988
2.62472
2.71084
1.94267
0.731327
-2.61569
-5.35824
-4.39264
-1.39472
0.156843
1.897
2.55124
2.58987
1.86875
0.868952
-2.78191
-5.1807
-4.5869
-1.74966
-0.174208
1.49828
2.05307
1.87252
0.964132
-0.409838
-4.08751
-6.30683
-4.75242
-2.26121
-0.626718
0.878718
1.23596
0.764781
-0.525331
-2.73516
-6.27646
-10.527
-4.80058
-2.74653