/*--------------------------------*- C++ -*----------------------------------*\
  =========                 |
  \\      /  F ield         | OpenFOAM: The Open Source CFD Toolbox
   \\    /   O peration     | Website:  https://openfoam.org
    \\  /    A nd           | Version:  8
     \\/     M anipulation  |
\*---------------------------------------------------------------------------*/
FoamFile
{
    version     2.0;
    format      ascii;
    class       volScalarField;
    location    "1000";
    object      alphat;
}
// * * * * * * * * * * * * * * * * * * * * * * * * * * * * * * * * * * * * * //

dimensions      [1 -1 -1 0 0 0 0];

internalField   nonuniform List<scalar> 
8400
(
0.0764075
0.0753778
0.0743726
0.0733921
0.0724402
0.0715207
0.070637
0.0697897
0.0689798
0.0682089
0.0674769
0.0667842
0.0661302
0.0655143
0.0649357
0.0643913
0.0638805
0.0634021
0.0629518
0.0625291
0.0621283
0.0617507
0.0614036
0.0609795
0.0620877
0.0623659
0.062777
0.0632652
0.0638033
0.0643629
0.064924
0.0654824
0.0660569
0.0666412
0.0672528
0.0678886
0.0685586
0.0692357
0.0699238
0.0706157
0.0713062
0.0719993
0.0726935
0.0733883
0.0740924
0.0748054
0.0755247
0.076247
0.0769711
0.0777008
0.0603813
0.0604067
0.0604318
0.0604579
0.0604848
0.0605119
0.0605401
0.0605694
0.0605988
0.0606303
0.0606632
0.0606972
0.0607328
0.0607708
0.0608118
0.0608538
0.0608972
0.0609426
0.0609855
0.0610256
0.0610643
0.0610904
0.0611002
0.0610433
0.0609516
0.0608999
0.0608532
0.0607949
0.060736
0.0606812
0.06063
0.0605794
0.0605367
0.0604873
0.0604399
0.060395
0.0603517
0.0603083
0.0602602
0.0602172
0.0601749
0.0601294
0.0600866
0.0600476
0.0600067
0.0599641
0.0599207
0.0598814
0.0598536
0.0598554
0.0603715
0.0603984
0.060425
0.0604523
0.0604809
0.0605096
0.0605384
0.0605686
0.0605997
0.0606327
0.0606669
0.0607041
0.0607447
0.0607877
0.060835
0.0608876
0.0609445
0.0610034
0.0610633
0.0611191
0.0611686
0.0611996
0.061202
0.0611358
0.0610466
0.0609721
0.0608821
0.0607991
0.0607117
0.0606326
0.0605569
0.0604825
0.0604181
0.0603647
0.0603058
0.0602618
0.0602078
0.0601541
0.0601054
0.0600569
0.0600078
0.0599553
0.0599016
0.0598499
0.0598
0.0597481
0.059693
0.0596405
0.059591
0.0595369
0.0603756
0.0604041
0.0604322
0.06046
0.0604886
0.0605171
0.0605457
0.0605757
0.0606057
0.0606379
0.0606725
0.060709
0.0607494
0.0607943
0.0608468
0.0609079
0.0609737
0.0610464
0.0611247
0.0611976
0.0612609
0.0612914
0.0612728
0.0612047
0.0611111
0.0609921
0.0608478
0.0606966
0.0605287
0.0603821
0.0602444
0.0601225
0.0600286
0.0599495
0.0598778
0.0598242
0.0597799
0.0597261
0.0596724
0.0596233
0.0595664
0.059503
0.0594424
0.0593821
0.0593205
0.0592565
0.0591889
0.059124
0.059061
0.0589944
0.0603988
0.060428
0.0604576
0.0604858
0.060514
0.0605428
0.060571
0.0605997
0.0606271
0.0606564
0.0606892
0.0607218
0.0607601
0.0608065
0.0608609
0.0609287
0.0610042
0.0610902
0.0611843
0.0612712
0.0613433
0.0613675
0.0613342
0.0612677
0.0611531
0.0609628
0.060697
0.0603918
0.060029
0.0597288
0.059431
0.0591958
0.0590341
0.0589171
0.0588433
0.0587892
0.0587471
0.0586998
0.0586483
0.0585903
0.0585282
0.0584652
0.0584035
0.0583345
0.0582556
0.0581767
0.0580939
0.0580005
0.0579013
0.0577985
0.0604442
0.0604732
0.0605029
0.0605317
0.0605599
0.0605877
0.0606132
0.0606403
0.0606671
0.0606905
0.0607165
0.0607461
0.0607829
0.0608277
0.0608831
0.0609555
0.0610393
0.0611414
0.0612509
0.0613453
0.0614263
0.061427
0.0614092
0.0613235
0.0611457
0.0608425
0.0603598
0.0597315
0.0589065
0.0582466
0.0574989
0.0570702
0.0567859
0.0566595
0.0565721
0.0565395
0.0565933
0.0565389
0.056498
0.0564501
0.0564084
0.0563445
0.0562899
0.0562111
0.056083
0.055976
0.0557599
0.0555153
0.0552639
0.0549872
0.0605218
0.0605444
0.0605712
0.0605976
0.0606238
0.0606488
0.0606698
0.0606916
0.0607164
0.0607373
0.0607589
0.0607833
0.0608134
0.0608539
0.0609109
0.0609939
0.061087
0.0612019
0.0613321
0.0614195
0.0614978
0.0615202
0.0614838
0.0613534
0.0610824
0.0605683
0.0596579
0.0583853
0.0564481
0.0549714
0.0528112
0.0526483
0.0521511
0.052355
0.0520858
0.0516835
0.0513063
0.0542637
0.0537905
0.0546713
0.0581133
0.0495875
0.0546994
0.0644244
0.0373068
0.0615381
0.0367688
0.0406243
0.0439908
0.0452124
0.0606591
0.0606556
0.0606685
0.0606868
0.0607042
0.0607232
0.0607423
0.0607537
0.0607713
0.0607877
0.0608041
0.0608254
0.0608501
0.0608959
0.0609507
0.0610481
0.0611529
0.061275
0.0614072
0.0615266
0.0616123
0.0616202
0.0615484
0.0613442
0.0609075
0.0600155
0.0582743
0.0556948
0.0511571
0.0485304
0.0415672
0.0474282
0.0484474
0.0487539
0.0489685
0.048442
0.0478976
0.0479429
0.048191
0.0480708
0.0479469
0.0475483
0.0475172
0.0475639
0.0469066
0.0473644
0.0472332
0.0472376
0.0471622
0.0470347
0.0608747
0.0608227
0.0608003
0.0607951
0.0607997
0.0608032
0.0608201
0.0608259
0.060834
0.0608414
0.0608473
0.0608683
0.0608924
0.0609454
0.0610093
0.061107
0.0612392
0.0613879
0.0615398
0.0616683
0.0617507
0.0617208
0.0615804
0.0612384
0.0605296
0.058948
0.055534
0.0503634
0.0405008
0.0466481
0.047844
0.0480916
0.0482328
0.0483392
0.0484566
0.0485666
0.0486921
0.0488408
0.0488778
0.0489012
0.0489792
0.0490781
0.0491924
0.0493484
0.049433
0.0494466
0.0493933
0.0492736
0.0490865
0.048827
0.061116
0.06102
0.0609518
0.0609098
0.0609066
0.060894
0.0608925
0.0608937
0.0608929
0.0608967
0.0609059
0.0609189
0.0609461
0.0610035
0.0610922
0.0612167
0.061377
0.0615542
0.0617278
0.0618531
0.0619156
0.0617922
0.0615323
0.0609707
0.0597683
0.0568182
0.0498481
0.0468645
0.0504856
0.0511996
0.0515517
0.0516891
0.0517792
0.0518936
0.0520666
0.0522967
0.0525482
0.0527551
0.0528766
0.052953
0.0530371
0.0531348
0.0532217
0.0532557
0.053241
0.0531772
0.0530593
0.0528775
0.0526158
0.05227
0.0611695
0.0611095
0.0610608
0.0610218
0.0609963
0.0609776
0.0609652
0.0609546
0.06095
0.0609507
0.0609544
0.0609722
0.0610144
0.0610902
0.0612146
0.0613834
0.0615837
0.0617928
0.0619804
0.0620645
0.0620735
0.0617754
0.0613135
0.0603891
0.0582446
0.0523018
0.0515109
0.0536835
0.0549768
0.0558308
0.0561253
0.0563043
0.056485
0.0566729
0.0568846
0.0571275
0.0573823
0.057603
0.0577737
0.0579094
0.0580312
0.0581424
0.0582088
0.0582485
0.0582519
0.0582198
0.0581451
0.0580101
0.0578056
0.0575317
0.0611942
0.0611523
0.0611192
0.0610882
0.0610599
0.0610398
0.0610251
0.0610122
0.0610021
0.0610003
0.0610074
0.0610398
0.0611115
0.061234
0.0614181
0.0616452
0.0618974
0.0621269
0.0623009
0.0622626
0.0621795
0.0615506
0.0607388
0.0591585
0.0549222
0.054403
0.0560393
0.0577791
0.0591737
0.0598402
0.0602052
0.0604948
0.0607535
0.0610054
0.0612676
0.0615341
0.0617955
0.0620302
0.0622402
0.0624303
0.0625982
0.0627428
0.0628733
0.0629892
0.0630907
0.0631723
0.0632203
0.0632309
0.063206
0.0631353
0.0612062
0.0611759
0.0611486
0.061123
0.0611
0.0610819
0.0610631
0.0610487
0.0610399
0.0610452
0.0610749
0.0611451
0.0612759
0.0614837
0.0617625
0.06207
0.0623633
0.0625524
0.0626609
0.0623191
0.0621381
0.060859
0.0594065
0.0563865
0.0565302
0.057723
0.0592481
0.0608164
0.0617621
0.0622758
0.0626278
0.0629344
0.0632308
0.0635147
0.0637944
0.0640686
0.0643365
0.0645936
0.0648386
0.06507
0.0652893
0.0655047
0.0657275
0.0659525
0.0661815
0.0664054
0.0666214
0.0668348
0.0670392
0.0672238
0.061214
0.0611909
0.0611666
0.0611452
0.061126
0.0611084
0.0610931
0.0610833
0.0610828
0.0611121
0.0611918
0.0613497
0.061602
0.0619579
0.0623623
0.0627327
0.063006
0.0629763
0.0629578
0.06189
0.0618022
0.0591042
0.0562243
0.0575128
0.0585503
0.0595543
0.0607416
0.0616082
0.0620771
0.0623498
0.0625651
0.0627839
0.0630239
0.0632704
0.0635214
0.0637752
0.0640312
0.0642896
0.0645499
0.0648117
0.0650739
0.0653466
0.0656403
0.0659519
0.0662789
0.0666212
0.0669827
0.0673585
0.0677431
0.0681425
0.0612173
0.0611985
0.0611801
0.0611622
0.0611464
0.0611307
0.0611162
0.0611215
0.0611502
0.0612627
0.0614802
0.0618314
0.0623056
0.0628804
0.0633608
0.0636774
0.0637539
0.0629822
0.0629646
0.0600971
0.0610652
0.0541116
0.0579265
0.0584636
0.0588339
0.0593293
0.0597104
0.0598419
0.0598173
0.0597724
0.0597783
0.0598432
0.0599591
0.0601183
0.0603074
0.0605128
0.0607344
0.0609751
0.0612324
0.0615029
0.0617827
0.0620786
0.062402
0.0627473
0.0631154
0.0635107
0.0639309
0.0643733
0.0648467
0.0653595
0.0612222
0.0612069
0.0611913
0.0611747
0.0611601
0.0611462
0.0611329
0.0612191
0.0613514
0.0617402
0.0623136
0.0630435
0.0638234
0.0645918
0.0647062
0.0646706
0.0642914
0.0610613
0.0623307
0.0543725
0.0557477
0.0576869
0.0573595
0.0571399
0.0569101
0.0566126
0.0562077
0.0557493
0.0553402
0.0550396
0.0548667
0.0548029
0.0548145
0.0548856
0.0550033
0.0551552
0.0553346
0.0555378
0.0557635
0.0560092
0.0562728
0.0565487
0.0568382
0.0571431
0.0574669
0.0578103
0.0581732
0.0585634
0.0589905
0.0594561
0.0612224
0.0612079
0.061193
0.0611804
0.0611693
0.061158
0.0611503
0.0617694
0.0622273
0.0634831
0.0648648
0.0660115
0.0667639
0.067268
0.0649119
0.0643115
0.0643689
0.0515549
0.0534282
0.0563983
0.0559638
0.0552937
0.0546708
0.0539378
0.0531513
0.0523688
0.0516667
0.0511046
0.0507114
0.0504828
0.0503856
0.0503821
0.050438
0.0505313
0.0506545
0.0508013
0.050963
0.0511372
0.0513247
0.0515243
0.0517351
0.0519397
0.0521013
0.0522497
0.0523875
0.0525141
0.0526345
0.0527567
0.052883
0.0530156
0.0612284
0.0612187
0.0612087
0.0611979
0.0611878
0.0611787
0.0611716
0.0656456
0.066471
0.0699236
0.072282
0.0717555
0.0702004
0.0694008
0.0552303
0.0472003
0.0543714
0.0559194
0.0544843
0.0541546
0.0538792
0.0533875
0.0529665
0.0526855
0.0525983
0.052735
0.0530784
0.0535722
0.0541448
0.0547322
0.0552847
0.0557796
0.0562149
0.0565944
0.0569247
0.0572142
0.0574698
0.0576961
0.0578957
0.0580719
0.0582247
0.0583345
0.0582605
0.0580942
0.0578343
0.0574744
0.0570136
0.0564431
0.055744
0.0548989
0.0612383
0.0612354
0.0612362
0.0612392
0.0612412
0.0612433
0.0612696
0.13523
0.0963348
0.0888966
0.0839246
0.0675119
0.055421
0.0501038
0.0574212
0.057908
0.0604625
0.0622286
0.0633051
0.0654454
0.06783
0.0705138
0.0735509
0.0767662
0.0800052
0.0831117
0.0859529
0.0884504
0.0905834
0.0923669
0.0938356
0.0950337
0.0960134
0.0968159
0.0974727
0.0980137
0.0984602
0.0988233
0.0991128
0.0993353
0.099491
0.0995993
0.099353
0.0989376
0.0983365
0.097533
0.0965058
0.095201
0.0935518
0.0914784
0.137284
0.138578
0.140206
0.141502
0.143053
0.14553
0.149682
0.157143
0.165686
0.16636
0.156026
0.152372
0.150261
0.14838
0.146529
0.153311
0.166586
0.174929
0.179493
0.186704
0.194195
0.201221
0.208001
0.214239
0.219734
0.224406
0.228223
0.231219
0.233477
0.235077
0.236108
0.236657
0.236812
0.236647
0.236221
0.235581
0.234765
0.233803
0.232716
0.231515
0.230213
0.228825
0.22755
0.226274
0.224997
0.223723
0.222447
0.221166
0.219889
0.218613
0.27115
0.267775
0.264549
0.261467
0.25851
0.255658
0.252895
0.250212
0.247605
0.245069
0.2426
0.240194
0.237847
0.235556
0.233319
0.231134
0.228999
0.226915
0.224879
0.222892
0.220954
0.219062
0.217215
0.215413
0.213652
0.211931
0.21025
0.208606
0.206999
0.205428
0.203893
0.202395
0.200931
0.199504
0.198111
0.196754
0.195431
0.194141
0.192885
0.191655
0.190449
0.189261
0.18809
0.186933
0.185785
0.184645
0.183505
0.182356
0.181177
0.17992
0.269184
0.262965
0.257046
0.251402
0.246019
0.240884
0.23599
0.231317
0.226849
0.222569
0.218465
0.214521
0.210729
0.207076
0.203555
0.20016
0.196884
0.193722
0.190669
0.187722
0.184874
0.182121
0.179455
0.176873
0.17437
0.17194
0.169581
0.167289
0.165063
0.1629
0.1608
0.15876
0.15678
0.154857
0.152989
0.151173
0.149406
0.147684
0.146003
0.144363
0.142766
0.141208
0.139687
0.138201
0.136748
0.135328
0.133942
0.132599
0.131302
0.130035
0.26918
0.262944
0.256989
0.251309
0.245885
0.240702
0.235744
0.230994
0.226436
0.222059
0.217847
0.213791
0.20988
0.206105
0.202459
0.198935
0.195529
0.192236
0.189051
0.185969
0.182986
0.180097
0.177296
0.17458
0.171943
0.169381
0.166893
0.164474
0.162123
0.159838
0.157616
0.155458
0.153361
0.151323
0.149345
0.147422
0.145554
0.143737
0.141969
0.140248
0.138571
0.136936
0.135342
0.133787
0.132268
0.130783
0.129324
0.127894
0.126516
0.125236
0.26918
0.262991
0.257089
0.251462
0.246085
0.240941
0.236014
0.231288
0.226748
0.222382
0.218178
0.214124
0.210213
0.206435
0.202784
0.199254
0.19584
0.192538
0.189343
0.18625
0.183256
0.180355
0.177541
0.174812
0.172162
0.169588
0.167086
0.164655
0.16229
0.159992
0.157758
0.155586
0.153477
0.151427
0.149436
0.147501
0.145621
0.143792
0.142013
0.14028
0.13859
0.136942
0.135334
0.133765
0.132238
0.130752
0.129299
0.127864
0.126446
0.1251
0.26918
0.262991
0.257088
0.251453
0.246068
0.240915
0.235979
0.231245
0.226698
0.222327
0.218119
0.214063
0.21015
0.206373
0.202723
0.199195
0.195784
0.192485
0.189294
0.186206
0.183217
0.18032
0.177511
0.174787
0.172141
0.169572
0.167075
0.164648
0.162288
0.159993
0.157763
0.155596
0.153491
0.151445
0.149458
0.147528
0.145652
0.143827
0.14205
0.14032
0.138632
0.136985
0.135375
0.133803
0.132267
0.130772
0.129322
0.127907
0.126502
0.125137
0.26918
0.262994
0.257098
0.251473
0.246099
0.240958
0.236035
0.231312
0.226777
0.222415
0.218215
0.214166
0.210259
0.206486
0.20284
0.199315
0.195907
0.192611
0.189421
0.186334
0.183345
0.180448
0.177639
0.174913
0.172267
0.169696
0.167197
0.164768
0.162406
0.160109
0.157877
0.155708
0.153601
0.151554
0.149566
0.147634
0.145756
0.143929
0.14215
0.140415
0.138723
0.137072
0.135459
0.133883
0.13234
0.130831
0.129362
0.127938
0.126539
0.125168
0.26918
0.262994
0.257099
0.251476
0.246102
0.240961
0.236036
0.231311
0.226772
0.222406
0.218202
0.214149
0.210238
0.206462
0.202813
0.199285
0.195875
0.192577
0.189387
0.186299
0.183309
0.180412
0.177603
0.174877
0.172231
0.16966
0.167162
0.164733
0.162371
0.160076
0.157845
0.155677
0.153572
0.151527
0.149542
0.147612
0.145736
0.143911
0.142133
0.140399
0.138706
0.137053
0.135438
0.133861
0.132319
0.130809
0.129333
0.127898
0.126496
0.125124
0.269179
0.262994
0.2571
0.251479
0.246107
0.240969
0.236046
0.231324
0.226788
0.222425
0.218223
0.214173
0.210264
0.20649
0.202843
0.199318
0.19591
0.192615
0.189426
0.18634
0.183352
0.180456
0.177647
0.174922
0.172275
0.169704
0.167205
0.164776
0.162414
0.160118
0.157887
0.155719
0.153614
0.15157
0.149584
0.147655
0.145779
0.143953
0.142173
0.140437
0.138742
0.137084
0.135462
0.133877
0.13233
0.130817
0.129335
0.127889
0.126478
0.1251
0.269179
0.262994
0.2571
0.25148
0.246109
0.240971
0.236048
0.231326
0.226789
0.222425
0.218222
0.21417
0.210259
0.206483
0.202835
0.199308
0.195899
0.192602
0.189413
0.186326
0.183337
0.180439
0.17763
0.174904
0.172256
0.169684
0.167184
0.164754
0.162391
0.160095
0.157864
0.155697
0.153593
0.15155
0.149566
0.147638
0.145763
0.143937
0.142158
0.140421
0.138724
0.137065
0.13544
0.13385
0.132296
0.130778
0.129293
0.127842
0.126425
0.125042
0.269179
0.262994
0.257101
0.25148
0.24611
0.240973
0.23605
0.231328
0.226791
0.222427
0.218224
0.214172
0.210262
0.206486
0.202837
0.199312
0.195903
0.192607
0.189419
0.186332
0.183343
0.180446
0.177637
0.17491
0.172262
0.16969
0.16719
0.164759
0.162396
0.1601
0.157869
0.155703
0.1536
0.151557
0.149574
0.147647
0.145773
0.143948
0.142167
0.140429
0.138729
0.137066
0.135438
0.133843
0.132282
0.130757
0.129265
0.127808
0.126384
0.124995
0.269179
0.262994
0.257101
0.251481
0.246111
0.240973
0.23605
0.231328
0.226791
0.222426
0.218223
0.21417
0.210259
0.206482
0.202834
0.199308
0.195899
0.192603
0.189415
0.186328
0.183339
0.180441
0.177631
0.174904
0.172256
0.169682
0.167182
0.16475
0.162387
0.160091
0.15786
0.155694
0.153592
0.151551
0.149569
0.147643
0.14577
0.143945
0.142164
0.140424
0.138722
0.137055
0.135423
0.133823
0.132256
0.130724
0.129225
0.127762
0.126332
0.124936
0.269179
0.262994
0.257101
0.251481
0.24611
0.240972
0.236049
0.231325
0.226787
0.222422
0.218217
0.214163
0.21025
0.206473
0.202823
0.199297
0.195888
0.192591
0.189402
0.186314
0.183324
0.180426
0.177615
0.174886
0.172237
0.169663
0.167161
0.164729
0.162366
0.160069
0.157839
0.155674
0.153572
0.151533
0.149553
0.147628
0.145756
0.143931
0.142151
0.14041
0.138705
0.137035
0.135398
0.133794
0.132222
0.130683
0.129179
0.12771
0.126275
0.124874
0.269179
0.262994
0.257101
0.25148
0.246109
0.240971
0.236047
0.231324
0.226785
0.22242
0.218215
0.214161
0.21025
0.206473
0.202824
0.199299
0.195891
0.192595
0.189407
0.18632
0.18333
0.180432
0.177621
0.174893
0.172243
0.169669
0.167167
0.164735
0.162371
0.160074
0.157844
0.155679
0.153578
0.15154
0.149561
0.147638
0.145766
0.14394
0.142158
0.140415
0.138707
0.137032
0.13539
0.133779
0.132201
0.130655
0.129144
0.127668
0.126226
0.124818
0.269179
0.262994
0.2571
0.251478
0.246105
0.240964
0.236038
0.231311
0.226769
0.2224
0.218191
0.214133
0.210218
0.206438
0.202787
0.199259
0.195849
0.192551
0.189361
0.186272
0.183281
0.180381
0.177569
0.174839
0.172189
0.169613
0.16711
0.164678
0.162314
0.160017
0.157788
0.155625
0.153526
0.15149
0.149514
0.147592
0.145721
0.143897
0.142115
0.140371
0.138661
0.136984
0.135338
0.133724
0.132141
0.130592
0.129076
0.127595
0.126149
0.124737
0.269179
0.262994
0.257099
0.251476
0.246104
0.240964
0.236039
0.231314
0.226774
0.222407
0.218201
0.214146
0.210233
0.206456
0.202807
0.199282
0.195873
0.192577
0.189388
0.1863
0.183308
0.180408
0.177595
0.174864
0.172212
0.169635
0.167131
0.164696
0.162331
0.160034
0.157804
0.155641
0.153542
0.151506
0.149529
0.147606
0.145734
0.143908
0.142122
0.140374
0.13866
0.136978
0.135326
0.133705
0.132115
0.130559
0.129036
0.127547
0.126094
0.124675
0.26918
0.262992
0.25709
0.251458
0.246075
0.240922
0.235985
0.231247
0.226696
0.222318
0.218102
0.214039
0.21012
0.206337
0.202684
0.199155
0.195744
0.192446
0.189255
0.186167
0.183175
0.180274
0.177461
0.174731
0.172079
0.169503
0.166999
0.164566
0.162203
0.159908
0.157681
0.155521
0.153426
0.151393
0.149419
0.147499
0.14563
0.143805
0.14202
0.140272
0.138558
0.136875
0.135222
0.133599
0.132007
0.130448
0.128923
0.127432
0.125977
0.124556
0.26918
0.262992
0.257094
0.251469
0.246094
0.240951
0.236022
0.231292
0.226746
0.222372
0.218159
0.214097
0.210178
0.206394
0.20274
0.199209
0.195795
0.192493
0.189298
0.186205
0.183207
0.180301
0.177482
0.174746
0.172089
0.169507
0.166998
0.16456
0.162193
0.159894
0.157665
0.155502
0.153404
0.151369
0.149391
0.147468
0.145595
0.143767
0.141979
0.140227
0.138509
0.136822
0.135165
0.133539
0.131944
0.130383
0.128857
0.127367
0.125914
0.124498
0.26918
0.262949
0.256997
0.251321
0.2459
0.240717
0.235755
0.231
0.226435
0.222047
0.217826
0.213759
0.209839
0.206058
0.202408
0.198883
0.195478
0.192186
0.189001
0.185919
0.182933
0.18004
0.177234
0.174511
0.171867
0.1693
0.166806
0.164384
0.162033
0.159752
0.15754
0.155395
0.153316
0.151299
0.149341
0.147439
0.145586
0.14378
0.142015
0.140288
0.138596
0.136937
0.135311
0.133718
0.132161
0.130643
0.129167
0.127736
0.126355
0.12503
0.269189
0.26298
0.25707
0.251432
0.24605
0.240912
0.236011
0.231328
0.226847
0.222554
0.218435
0.214479
0.210675
0.207016
0.203492
0.200098
0.196825
0.193669
0.190622
0.187679
0.184834
0.182082
0.179418
0.176837
0.174335
0.171909
0.169556
0.167275
0.165063
0.162922
0.160851
0.158848
0.156913
0.155044
0.153237
0.151488
0.149795
0.148151
0.146552
0.144996
0.143477
0.141997
0.140554
0.139152
0.137796
0.136493
0.135251
0.134083
0.13301
0.132066
0.271131
0.267774
0.264569
0.261501
0.258553
0.255708
0.252945
0.250259
0.247644
0.245096
0.242614
0.240193
0.237833
0.235531
0.233285
0.231095
0.228957
0.226871
0.224836
0.222848
0.220907
0.219011
0.217158
0.215347
0.213578
0.211849
0.21016
0.20851
0.2069
0.205329
0.203797
0.202303
0.200845
0.199421
0.19803
0.196668
0.195332
0.194019
0.192728
0.191455
0.1902
0.188961
0.187739
0.186533
0.185346
0.184176
0.183023
0.181886
0.180763
0.179649
0.122386
0.0622399
0.048365
0.0465048
0.045683
0.0451489
0.044515
0.0439593
0.0433751
0.0428279
0.0422781
0.041749
0.0412381
0.040762
0.0404604
0.0406761
0.0428118
0.0501254
0.0680965
0.104492
0.123251
0.0628316
0.0486276
0.0467303
0.0459016
0.0453868
0.0447545
0.0442092
0.0436224
0.0430767
0.0425219
0.0419825
0.0414669
0.0409618
0.0406008
0.0405916
0.0422016
0.0485928
0.0663286
0.105066
0.124032
0.0633842
0.0488846
0.0469518
0.0461149
0.0456183
0.044983
0.0444441
0.04385
0.0433018
0.0427405
0.0421977
0.0416805
0.0411609
0.0407705
0.0406088
0.0418332
0.0474235
0.064846
0.105583
0.12476
0.0638992
0.0491343
0.0471692
0.0463223
0.0458418
0.0452034
0.0446727
0.0440742
0.0435257
0.0429627
0.0424162
0.041902
0.0413737
0.0409682
0.0406995
0.0416348
0.0465432
0.0636215
0.10601
0.125419
0.0643752
0.0493767
0.047383
0.046527
0.046062
0.045423
0.0448975
0.0442998
0.0437501
0.0431885
0.042639
0.0421307
0.0415945
0.0411833
0.0408336
0.0415519
0.0458847
0.0626078
0.106371
0.126018
0.0648182
0.0496124
0.0475967
0.0467323
0.0462828
0.0456415
0.0451228
0.0445241
0.0439757
0.0434156
0.0428637
0.0423619
0.0418168
0.0414037
0.0409908
0.0415434
0.0453892
0.0617548
0.106673
0.126563
0.0652325
0.0498472
0.0478121
0.0469398
0.0465029
0.0458567
0.0453449
0.0447434
0.044196
0.0436372
0.0430843
0.0425868
0.0420336
0.0416193
0.0411557
0.0415804
0.0450139
0.0610253
0.106933
0.127069
0.0656221
0.0500818
0.0480253
0.0471473
0.0467169
0.0460666
0.0455567
0.044952
0.0444053
0.043849
0.0432948
0.0428024
0.0422415
0.0418275
0.0413232
0.041649
0.0447335
0.0604037
0.107175
0.127536
0.0659876
0.0503139
0.0482359
0.0473501
0.0469215
0.0462639
0.0457554
0.0451484
0.0446024
0.0440518
0.043497
0.0430113
0.0424444
0.0420321
0.0414965
0.0417457
0.0445369
0.059895
0.107415
0.127962
0.0663281
0.0505386
0.0484418
0.047543
0.0471161
0.0464515
0.0459441
0.0453367
0.0447947
0.0442509
0.0436987
0.0432214
0.04265
0.0422417
0.0416809
0.0418709
0.0444185
0.0595058
0.10766
0.128348
0.0666452
0.0507561
0.0486424
0.0477307
0.0473049
0.0466341
0.0461312
0.0455264
0.0449907
0.0444563
0.0439077
0.0434394
0.0428654
0.0424606
0.0418794
0.0420227
0.0443682
0.0592322
0.107903
0.128699
0.0669413
0.0509701
0.048842
0.0479183
0.047495
0.0468224
0.0463239
0.0457256
0.0451977
0.0446724
0.0441282
0.0436671
0.0430894
0.0426873
0.0420878
0.0421925
0.0443704
0.059051
0.10813
0.129022
0.0672237
0.0511835
0.0490426
0.048112
0.0476923
0.0470196
0.046528
0.045937
0.0454154
0.0448982
0.0443556
0.0438983
0.0433159
0.0429134
0.0422967
0.0423693
0.0444056
0.0589248
0.108336
0.129326
0.0674967
0.0513985
0.0492485
0.0483129
0.0478982
0.0472267
0.0467411
0.0461564
0.0456381
0.0451248
0.0445808
0.044124
0.043534
0.04313
0.0424983
0.0425437
0.044457
0.058823
0.108522
0.129615
0.0677606
0.0516146
0.0494562
0.0485195
0.0481085
0.0474379
0.0469574
0.0463752
0.0458567
0.0453443
0.0447958
0.0443362
0.0437384
0.043333
0.0426886
0.0427124
0.0445178
0.0587325
0.108698
0.129887
0.068012
0.0518278
0.0496638
0.0487255
0.0483173
0.0476487
0.0471694
0.0465874
0.0460675
0.0455525
0.0449975
0.0445352
0.0439301
0.0435246
0.0428715
0.0428795
0.0445897
0.0586571
0.108874
0.130133
0.0682474
0.0520349
0.0498666
0.0489276
0.0485223
0.0478549
0.047376
0.0467937
0.0462707
0.0457523
0.0451915
0.0447268
0.0441162
0.043713
0.0430549
0.0430513
0.0446788
0.0586114
0.109055
0.130349
0.0684659
0.0522346
0.0500651
0.0491264
0.048725
0.0480597
0.0475814
0.0469984
0.0464729
0.0459519
0.0453859
0.0449204
0.0443069
0.0439068
0.0432456
0.0432332
0.0447898
0.0586082
0.109239
0.130536
0.0686744
0.0524314
0.0502623
0.0493269
0.0489307
0.048268
0.0477913
0.0472088
0.0466814
0.0461583
0.0455884
0.0451234
0.0445077
0.0441099
0.0434463
0.0434253
0.044922
0.0586465
0.109416
0.130708
0.0688806
0.0526302
0.0504643
0.0495344
0.0491434
0.0484844
0.04801
0.0474282
0.0468986
0.0463741
0.0458013
0.0453362
0.0447178
0.0443213
0.0436539
0.0436231
0.0450685
0.0587109
0.109579
0.130877
0.0690933
0.0528363
0.0506745
0.0497506
0.0493643
0.0487089
0.0482355
0.0476538
0.0471214
0.0465955
0.0460199
0.0455539
0.0449328
0.0445357
0.0438621
0.0438209
0.0452212
0.0587813
0.109731
0.131053
0.0693143
0.0530507
0.0508925
0.0499736
0.0495895
0.0489359
0.0484613
0.0478787
0.0473429
0.0468159
0.0462377
0.0457708
0.0451469
0.0447476
0.0440674
0.0440163
0.0453744
0.0588468
0.109879
0.131235
0.06954
0.0532702
0.0511135
0.0501971
0.0498121
0.049158
0.0486801
0.0480957
0.0475573
0.0470305
0.0464503
0.0459835
0.0453574
0.0449562
0.0442707
0.0442109
0.0455292
0.0589124
0.110037
0.131417
0.0697635
0.0534892
0.0513324
0.0504163
0.050027
0.0493706
0.0488884
0.0483031
0.047764
0.0472381
0.0466581
0.0461936
0.0455666
0.0451652
0.0444764
0.0444094
0.0456916
0.058994
0.110212
0.131591
0.0699784
0.0537043
0.0515473
0.0506291
0.0502338
0.0495751
0.0490893
0.0485046
0.0479663
0.0474436
0.0468665
0.0464059
0.0457793
0.0453796
0.0446894
0.0446172
0.0458681
0.0591071
0.110406
0.131754
0.0701867
0.0539161
0.0517596
0.050839
0.0504382
0.0497779
0.0492901
0.0487077
0.0481714
0.0476541
0.047081
0.0466242
0.0459994
0.0456026
0.0449122
0.044836
0.0460608
0.0592585
0.110612
0.131915
0.0703945
0.0541287
0.0519748
0.0510535
0.050648
0.0499872
0.0494991
0.0489194
0.0483856
0.0478734
0.047303
0.0468494
0.046227
0.0458327
0.0451424
0.045063
0.0462663
0.0594414
0.110818
0.132081
0.0706189
0.0543466
0.0521987
0.0512789
0.050869
0.0502089
0.0497204
0.0491423
0.0486098
0.0481001
0.0475302
0.0470788
0.0464577
0.0460645
0.0453743
0.0452921
0.0464773
0.0596382
0.111015
0.132263
0.0708591
0.0545769
0.0524337
0.0515163
0.0511024
0.0504428
0.0499517
0.0493737
0.0488398
0.0483293
0.0477579
0.0473066
0.0466852
0.0462921
0.0456025
0.0455178
0.0466865
0.0598296
0.111199
0.132467
0.0710997
0.0548191
0.0526766
0.0517614
0.0513433
0.0506828
0.0501872
0.0496077
0.0490696
0.0485559
0.0479814
0.0475286
0.0469059
0.0465132
0.0458245
0.0457378
0.0468905
0.0600063
0.111374
0.132687
0.0713226
0.0550609
0.05292
0.0520069
0.0515841
0.0509218
0.0504214
0.0498392
0.0492955
0.0487781
0.0482004
0.0477455
0.0471218
0.04673
0.0460425
0.0459541
0.0470922
0.0601725
0.111548
0.132908
0.0715123
0.0552939
0.0531571
0.0522464
0.0518191
0.0511563
0.050652
0.0500674
0.0495192
0.0489994
0.0484191
0.0479626
0.0473389
0.0469481
0.0462617
0.0461719
0.0472977
0.0603401
0.111727
0.133112
0.0716667
0.0555156
0.0533853
0.0524779
0.0520483
0.0513878
0.0508817
0.0502966
0.0497465
0.049226
0.0486441
0.0481872
0.0475638
0.047173
0.0464872
0.0463956
0.0475117
0.0605204
0.111911
0.133287
0.0717996
0.0557304
0.0536073
0.0527052
0.052277
0.0516216
0.0511162
0.0505335
0.0499837
0.0494635
0.048881
0.0484237
0.0477997
0.0474072
0.0467209
0.0466256
0.0477347
0.0607168
0.112094
0.133433
0.071937
0.0559471
0.0538303
0.0529363
0.0525124
0.0518636
0.0513609
0.0507823
0.0502332
0.0497134
0.0491301
0.0486709
0.0480446
0.0476482
0.0469593
0.0468583
0.0479624
0.0609214
0.112269
0.133562
0.0721053
0.0561743
0.0540626
0.0531783
0.0527588
0.0521171
0.0516171
0.0510419
0.050492
0.0499716
0.049386
0.0489224
0.0482923
0.0478898
0.0471962
0.0470881
0.0481881
0.0611178
0.112429
0.133697
0.0723159
0.0564165
0.0543083
0.0534334
0.0530163
0.0523802
0.0518804
0.0513057
0.050753
0.0502302
0.0496399
0.0491705
0.0485355
0.0481253
0.0474261
0.0473113
0.0484057
0.0612898
0.112577
0.133857
0.0725592
0.0566713
0.054566
0.0536979
0.05328
0.052646
0.0521423
0.0515652
0.051008
0.0504808
0.0498848
0.0494097
0.0487696
0.048352
0.0476481
0.0475277
0.0486135
0.0614328
0.112722
0.134048
0.0728127
0.0569309
0.0548296
0.053965
0.0535424
0.0529061
0.0523955
0.0518148
0.0512521
0.0507202
0.0501195
0.04964
0.0489956
0.0485727
0.0478659
0.0477412
0.0488156
0.0615577
0.112875
0.134266
0.073051
0.0571859
0.0550913
0.0542276
0.0537968
0.0531557
0.0526378
0.0520539
0.0514862
0.0509513
0.0503484
0.0498664
0.0492199
0.0487943
0.0480867
0.0479589
0.0490207
0.0616854
0.113045
0.134496
0.0732561
0.0574297
0.055346
0.0544814
0.0540416
0.0533963
0.0528729
0.0522872
0.0517169
0.051182
0.0505794
0.0500972
0.0494508
0.0490247
0.0483174
0.0481873
0.0492375
0.0618361
0.113236
0.13472
0.0734257
0.0576621
0.0555927
0.0547275
0.0542805
0.0536338
0.0531077
0.0525227
0.0519528
0.0514207
0.05082
0.0503392
0.0496942
0.0492686
0.0485621
0.0484298
0.0494706
0.0620218
0.113444
0.134927
0.0735737
0.0578884
0.055835
0.0549711
0.0545205
0.0538756
0.0533493
0.0527676
0.0522004
0.0516721
0.0510737
0.0505945
0.0499515
0.0495261
0.0488202
0.0486855
0.0497194
0.0622427
0.113662
0.135116
0.0737214
0.0581161
0.0560785
0.055219
0.0547678
0.0541269
0.0536021
0.0530247
0.0524603
0.0519351
0.0513382
0.0508603
0.0502186
0.0497924
0.049087
0.0489497
0.0499789
0.0624888
0.113883
0.135294
0.0738864
0.0583517
0.056329
0.0554762
0.0550257
0.0543891
0.0538653
0.0532915
0.0527282
0.0522041
0.0516076
0.0511299
0.0504887
0.0500613
0.0493566
0.049217
0.0502426
0.0627451
0.114101
0.135473
0.0740769
0.0585986
0.0565895
0.055744
0.0552931
0.0546592
0.0541349
0.0535623
0.0529974
0.0524726
0.0518756
0.0513972
0.050756
0.0503278
0.0496245
0.0494831
0.0505053
0.0629989
0.114315
0.135663
0.0742903
0.0588564
0.0568595
0.0560199
0.0555661
0.0549328
0.0544056
0.0538316
0.0532633
0.0527369
0.0521387
0.0516594
0.0510186
0.0505908
0.0498896
0.0497466
0.0507651
0.0632449
0.114525
0.135868
0.0745173
0.0591222
0.057136
0.0562998
0.0558411
0.0552068
0.0546746
0.054098
0.0535258
0.0529979
0.0523983
0.0519187
0.0512794
0.0508523
0.0501531
0.0500085
0.0510233
0.0634833
0.114731
0.136086
0.0747479
0.0593918
0.057415
0.0565809
0.0561166
0.0554805
0.0549429
0.054364
0.0537889
0.05326
0.0526599
0.0521806
0.0515429
0.0511157
0.0504174
0.0502706
0.0512816
0.0637149
0.114932
0.136313
0.074974
0.0596618
0.0576946
0.0568626
0.0563931
0.0557558
0.055214
0.0546346
0.0540579
0.0535288
0.0529289
0.0524497
0.0518122
0.0513829
0.050684
0.0505337
0.0515397
0.0639374
0.115126
0.136542
0.0751908
0.0599309
0.057974
0.0571454
0.056672
0.0560356
0.055492
0.0549138
0.0543366
0.0538081
0.0532082
0.0527272
0.0520876
0.051654
0.0509526
0.0507966
0.0517956
0.0641466
0.115315
0.136768
0.0753967
0.0601992
0.0582535
0.0574298
0.0569547
0.0563218
0.0557781
0.0552023
0.0546254
0.0540973
0.0534956
0.0530103
0.0523666
0.0519268
0.0512211
0.0510575
0.0520471
0.0643398
0.115503
0.136989
0.0755929
0.0604669
0.058533
0.0577161
0.0572414
0.0566134
0.0560706
0.0554977
0.0549207
0.0543913
0.0537857
0.0532946
0.0526459
0.0521988
0.0514875
0.0513163
0.0522948
0.0645198
0.115695
0.1372
0.0757816
0.0607342
0.0588125
0.0580038
0.0575303
0.0569076
0.0563656
0.0557951
0.0552167
0.0546841
0.0540736
0.0535766
0.0529228
0.0524687
0.0517529
0.051576
0.0525427
0.0646957
0.1159