/*--------------------------------*- C++ -*----------------------------------*\
  =========                 |
  \\      /  F ield         | OpenFOAM: The Open Source CFD Toolbox
   \\    /   O peration     | Website:  https://openfoam.org
    \\  /    A nd           | Version:  8
     \\/     M anipulation  |
\*---------------------------------------------------------------------------*/
FoamFile
{
    version     2.0;
    format      ascii;
    class       volScalarField;
    location    "1000";
    object      k;
}
// * * * * * * * * * * * * * * * * * * * * * * * * * * * * * * * * * * * * * //

dimensions      [0 2 -2 0 0 0 0];

internalField   nonuniform List<scalar> 
8400
(
0.00490193
0.00476668
0.00463627
0.00451058
0.00438996
0.00427464
0.00416477
0.00406038
0.00396147
0.00386801
0.00377989
0.00369702
0.00361923
0.00354636
0.00347823
0.00341456
0.00335514
0.0032997
0.00324791
0.00319954
0.00315419
0.00311176
0.00307248
0.00303425
0.00303518
0.00305275
0.00308135
0.00311829
0.00316223
0.00321139
0.00326397
0.00331887
0.00337583
0.00343456
0.00349566
0.00355943
0.00362629
0.00369588
0.00376792
0.0038419
0.00391726
0.00399376
0.00407134
0.00415003
0.00423016
0.00431196
0.00439549
0.0044806
0.00456714
0.0046551
0.0029088
0.00291109
0.00291341
0.00291576
0.00291817
0.00292062
0.00292314
0.00292573
0.00292837
0.00293112
0.00293396
0.0029369
0.00293997
0.00294318
0.00294656
0.00295006
0.00295373
0.00295752
0.0029613
0.00296501
0.00296857
0.0029715
0.00297346
0.00297285
0.00296867
0.00296395
0.00295884
0.00295347
0.002948
0.00294262
0.00293736
0.00293206
0.00292704
0.00292205
0.00291723
0.00291257
0.00290803
0.00290359
0.00289912
0.00289474
0.00289046
0.00288608
0.0028818
0.00287761
0.00287337
0.00286916
0.00286497
0.00286116
0.00285847
0.00285859
0.00290811
0.00291062
0.00291315
0.00291572
0.00291833
0.00292098
0.00292366
0.0029264
0.00292921
0.00293214
0.00293515
0.00293833
0.00294169
0.00294528
0.00294914
0.0029533
0.00295779
0.00296257
0.00296755
0.00297252
0.00297728
0.00298119
0.00298345
0.00298244
0.00297785
0.00297228
0.00296529
0.0029577
0.00294968
0.00294156
0.00293351
0.00292568
0.00291837
0.00291168
0.00290528
0.00289948
0.00289386
0.0028884
0.00288316
0.00287797
0.00287284
0.00286769
0.00286252
0.00285738
0.00285223
0.00284701
0.00284173
0.00283649
0.00283133
0.00282611
0.00290838
0.00291109
0.00291381
0.00291652
0.00291925
0.00292197
0.00292472
0.00292752
0.00293034
0.00293326
0.00293628
0.00293943
0.00294281
0.00294648
0.00295058
0.0029552
0.00296029
0.00296596
0.00297208
0.00297829
0.0029842
0.00298887
0.00299095
0.00298954
0.00298471
0.00297721
0.00296705
0.0029549
0.00294105
0.00292692
0.00291261
0.00289924
0.00288707
0.00287648
0.00286715
0.00285922
0.0028524
0.00284595
0.0028398
0.00283397
0.00282795
0.00282168
0.00281547
0.00280925
0.00280296
0.00279659
0.00279007
0.0027835
0.00277693
0.0027704
0.00291008
0.002913
0.00291592
0.0029188
0.00292165
0.00292449
0.00292729
0.00293008
0.00293282
0.00293561
0.0029385
0.00294144
0.00294463
0.00294822
0.00295231
0.00295719
0.00296276
0.00296916
0.00297631
0.00298368
0.00299054
0.00299565
0.00299751
0.00299567
0.00299006
0.00297944
0.00296307
0.00294152
0.0029151
0.00288775
0.00285868
0.00283267
0.00280989
0.00279169
0.00277747
0.00276626
0.0027575
0.00274992
0.00274279
0.00273557
0.00272825
0.00272091
0.0027134
0.00270558
0.00269746
0.00268921
0.00268049
0.00267109
0.00266113
0.00265082
0.00291387
0.00291691
0.00291996
0.00292298
0.00292594
0.00292881
0.00293157
0.00293427
0.00293691
0.00293943
0.00294198
0.00294464
0.00294757
0.00295089
0.00295484
0.00295978
0.00296575
0.00297293
0.00298105
0.00298938
0.00299705
0.00300184
0.00300381
0.00300157
0.00299357
0.00297759
0.00295027
0.00291033
0.00285681
0.0028009
0.00273589
0.00268304
0.0026382
0.00260722
0.00258592
0.00257138
0.00256322
0.00255477
0.00254565
0.00253672
0.00252807
0.00251888
0.00250956
0.00249897
0.00248659
0.00247379
0.002455
0.00243349
0.00240913
0.00238221
0.00292105
0.00292359
0.00292646
0.00292935
0.0029322
0.00293493
0.00293746
0.00293991
0.0029423
0.00294452
0.00294667
0.00294888
0.00295137
0.00295432
0.00295811
0.00296328
0.00296968
0.00297753
0.00298678
0.00299565
0.00300346
0.00300893
0.0030108
0.00300702
0.00299477
0.00296903
0.0029214
0.00284592
0.00273303
0.00261781
0.00246242
0.00236623
0.00228759
0.00224935
0.00223101
0.00220374
0.00215983
0.00214402
0.00209966
0.00220952
0.00222257
0.00203909
0.00211146
0.00214572
0.00142371
0.00164928
0.00138637
0.00157685
0.00164569
0.0016686
0.00293452
0.00293464
0.00293634
0.00293848
0.00294068
0.00294284
0.00294492
0.00294679
0.00294867
0.00295037
0.00295201
0.0029538
0.00295581
0.00295857
0.00296215
0.00296771
0.00297479
0.00298329
0.0029931
0.0030032
0.0030121
0.0030178
0.00301848
0.00301127
0.00299133
0.0029485
0.00286284
0.00271755
0.00247642
0.00226151
0.00188773
0.00181728
0.00182526
0.00184215
0.0018599
0.00185489
0.00181885
0.00178245
0.00177535
0.00178268
0.00178122
0.001773
0.00177479
0.00177825
0.00177076
0.0017863
0.00178229
0.00178003
0.00177289
0.00176055
0.00295738
0.00295186
0.00295055
0.00295063
0.00295144
0.00295236
0.00295353
0.00295454
0.00295568
0.00295667
0.00295756
0.00295893
0.0029606
0.00296328
0.00296709
0.00297287
0.00298095
0.00299107
0.0030025
0.00301404
0.00302361
0.00302836
0.00302601
0.00301219
0.00297902
0.00290573
0.00274702
0.00246492
0.001971
0.00184608
0.00183901
0.00184471
0.00185235
0.00186001
0.0018681
0.00187693
0.00188653
0.00189986
0.00191339
0.00192321
0.00193165
0.00193979
0.00194796
0.00195472
0.00195699
0.00195488
0.00194771
0.00193538
0.00191762
0.00189435
0.00298519
0.00297358
0.00296786
0.00296482
0.0029636
0.00296287
0.00296255
0.0029625
0.00296265
0.00296288
0.00296332
0.00296412
0.00296565
0.00296853
0.0029733
0.00298046
0.00299038
0.0030027
0.00301624
0.00302898
0.0030383
0.0030398
0.00303133
0.00300599
0.00294953
0.00281889
0.00251161
0.00213514
0.00208523
0.00208569
0.00209951
0.00211434
0.00212746
0.00213965
0.00215311
0.00216968
0.00218961
0.0022106
0.00222864
0.00224224
0.00225294
0.00226185
0.00226784
0.0022697
0.0022674
0.00226062
0.00224879
0.00223123
0.00220719
0.00217652
0.00299331
0.00298699
0.00298188
0.00297789
0.00297488
0.00297272
0.00297123
0.0029701
0.00296945
0.00296911
0.00296904
0.00296966
0.00297151
0.00297521
0.00298172
0.00299142
0.00300435
0.00301971
0.0030355
0.00304848
0.00305547
0.00304966
0.00302991
0.00298487
0.00288604
0.00263754
0.00235354
0.00232776
0.00234877
0.0023954
0.00243884
0.00247331
0.00250183
0.00252667
0.00254999
0.00257351
0.00259786
0.00262158
0.00264257
0.00266013
0.00267447
0.00268586
0.00269336
0.00269771
0.0026984
0.00269529
0.00268774
0.00267482
0.00265604
0.00263103
0.00299594
0.0029919
0.00298829
0.00298506
0.00298226
0.00297997
0.00297809
0.00297657
0.00297537
0.00297461
0.00297444
0.00297543
0.00297841
0.00298439
0.00299435
0.00300819
0.00302564
0.00304466
0.00306198
0.00307226
0.00307289
0.00305213
0.00301233
0.00293278
0.00274774
0.00253772
0.00252118
0.00255904
0.00263316
0.00270787
0.00277003
0.00282014
0.00286133
0.00289674
0.00292881
0.00295871
0.00298712
0.00301376
0.00303813
0.00305988
0.00307877
0.00309487
0.003109
0.00312146
0.00313214
0.00314066
0.00314628
0.00314869
0.00314751
0.00314182
0.0029971
0.0029942
0.00299146
0.00298891
0.00298658
0.00298451
0.00298261
0.00298103
0.00297981
0.00297919
0.00297971
0.00298229
0.00298826
0.00299896
0.00301525
0.00303568
0.00305891
0.0030806
0.00309627
0.00309665
0.00308376
0.00303359
0.00295867
0.00281188
0.00265787
0.00265081
0.00268913
0.00276738
0.0028538
0.00292894
0.00298958
0.00303874
0.00308037
0.00311662
0.00314945
0.00318014
0.00320915
0.00323677
0.00326307
0.0032879
0.00331137
0.00333362
0.00335617
0.00337933
0.00340303
0.00342679
0.0034505
0.00347411
0.003497
0.00351858
0.00299783
0.0029956
0.00299338
0.00299129
0.0029893
0.00298747
0.00298582
0.00298441
0.00298348
0.00298377
0.00298644
0.00299327
0.00300606
0.00302617
0.00305313
0.00308193
0.00311033
0.00312885
0.00313436
0.00310816
0.00307133
0.00296297
0.00282055
0.00271027
0.00270777
0.00273636
0.00279366
0.00286142
0.00292191
0.00296927
0.00300558
0.0030351
0.00306116
0.00308548
0.00310917
0.00313278
0.00315661
0.0031808
0.00320544
0.00323056
0.00325613
0.0032823
0.00331069
0.00334154
0.00337463
0.00340997
0.0034477
0.00348757
0.00352941
0.0035734
0.00299814
0.00299628
0.00299448
0.00299273
0.0029911
0.00298952
0.00298807
0.00298721
0.00298752
0.00299106
0.00300022
0.00301765
0.00304494
0.00308205
0.00312419
0.00315825
0.00318454
0.00317954
0.00315714
0.00306809
0.00299648
0.00274826
0.00269499
0.0026936
0.00270326
0.0027248
0.00275064
0.00277074
0.00278093
0.0027835
0.00278302
0.00278294
0.00278534
0.00279122
0.00280045
0.00281254
0.00282746
0.002845
0.00286491
0.00288701
0.00291109
0.00293728
0.0029664
0.00299838
0.00303327
0.00307128
0.00311244
0.0031568
0.0032048
0.00325688
0.00299861
0.00299714
0.00299566
0.00299414
0.00299268
0.00299126
0.00298992
0.00299127
0.00299641
0.00301137
0.00303952
0.00308233
0.00313745
0.0032001
0.00325222
0.00326756
0.0032705
0.00317932
0.00309965
0.00286637
0.00263694
0.00262051
0.0026103
0.0025937
0.00257441
0.00255085
0.00252107
0.00248521
0.00244694
0.00241094
0.00238083
0.00235824
0.00234319
0.00233511
0.00233313
0.00233619
0.00234354
0.00235457
0.00236885
0.00238603
0.00240586
0.00242811
0.00245221
0.00247811
0.00250597
0.00253596
0.00256822
0.00260319
0.0026414
0.00268335
0.00299855
0.00299707
0.00299564
0.00299434
0.00299315
0.00299204
0.0029911
0.00300705
0.00303374
0.00308898
0.00317148
0.00326686
0.00335897
0.00343731
0.00343599
0.00333433
0.00329967
0.00291577
0.00254588
0.00251181
0.00249366
0.00245986
0.00241856
0.00236746
0.00230867
0.00224552
0.0021824
0.0021238
0.00207363
0.00203427
0.00200588
0.00198737
0.00197704
0.00197316
0.00197443
0.00197962
0.00198781
0.00199843
0.00201106
0.0020254
0.00204125
0.00205814
0.00207347
0.00208715
0.00209937
0.0021103
0.00212026
0.00212968
0.00213903
0.00214886
0.00299912
0.00299819
0.00299726
0.00299634
0.00299545
0.0029946
0.00299383
0.00311301
0.00323985
0.00343072
0.00365094
0.00379053
0.00382819
0.00381004
0.0034114
0.00257002
0.00243878
0.00243147
0.00239006
0.00235204
0.00232008
0.00228483
0.00224812
0.00221418
0.00218765
0.00217284
0.00217212
0.00218553
0.00221116
0.00224582
0.00228581
0.00232792
0.00236986
0.00241
0.00244751
0.00248198
0.00251338
0.00254177
0.00256721
0.00258986
0.00260982
0.00262677
0.00263301
0.00262788
0.00261157
0.00258422
0.00254592
0.00249652
0.00243568
0.00236259
0.0029999
0.00299964
0.0029995
0.00299935
0.00299917
0.00299895
0.00299933
0.00475104
0.00553869
0.00575464
0.00573043
0.00493018
0.00388249
0.00305735
0.00281259
0.00272902
0.00275286
0.00283824
0.00293062
0.00305689
0.0032221
0.00342416
0.00366779
0.00395271
0.00427367
0.00462051
0.00497986
0.00533738
0.00568021
0.00599883
0.00628697
0.00654175
0.0067635
0.00695404
0.00711632
0.00725368
0.00736913
0.00746542
0.00754481
0.00760907
0.00765951
0.00769775
0.00770137
0.00766634
0.00759459
0.00748618
0.00733924
0.00714953
0.00691104
0.00661404
0.0149765
0.0151049
0.0152437
0.0153194
0.015421
0.0156414
0.0160717
0.0168684
0.018096
0.0191473
0.019107
0.0187525
0.0183348
0.0179104
0.0174847
0.0176911
0.0188793
0.0205038
0.022026
0.0236494
0.0254553
0.0273633
0.0293441
0.0313499
0.0333172
0.0351802
0.0368814
0.0383795
0.0396524
0.040693
0.0415075
0.0421104
0.042523
0.042768
0.0428688
0.0428468
0.0427209
0.0425076
0.0422202
0.0418691
0.0414628
0.0410084
0.0405466
0.0400876
0.0396317
0.0391786
0.0387279
0.0382793
0.0378328
0.0373877
0.0589322
0.057483
0.0561126
0.0548155
0.0535827
0.0524057
0.0512761
0.0501907
0.0491465
0.048141
0.0471722
0.0462378
0.045336
0.0444652
0.0436237
0.0428101
0.0420232
0.0412618
0.0405251
0.039812
0.0391218
0.0384536
0.0378066
0.0371801
0.0365734
0.0359859
0.0354169
0.0348658
0.0343322
0.0338154
0.0333149
0.0328301
0.0323604
0.0319052
0.0314639
0.031036
0.0306208
0.0302179
0.029827
0.0294457
0.029073
0.0287082
0.0283508
0.028
0.0276549
0.0273141
0.0269758
0.0266369
0.0262918
0.0259305
0.0580868
0.0554467
0.0529861
0.0506867
0.048538
0.0465295
0.0446528
0.0428961
0.0412491
0.0397022
0.0382469
0.0368755
0.0355811
0.0343577
0.0331996
0.0321021
0.0310608
0.0300719
0.0291317
0.0282372
0.0273854
0.0265737
0.0257995
0.0250606
0.0243551
0.023681
0.0230368
0.0224209
0.0218318
0.021268
0.020728
0.0202105
0.019714
0.0192372
0.0187785
0.0183367
0.0179105
0.0174986
0.0171
0.0167155
0.0163447
0.015987
0.0156417
0.0153084
0.0149864
0.0146752
0.0143739
0.0140813
0.0137955
0.013515
0.0580838
0.0554362
0.0529599
0.0506464
0.0484826
0.046457
0.0445581
0.0427755
0.0410994
0.0395211
0.0380326
0.0366269
0.0352975
0.0340387
0.0328453
0.0317128
0.030637
0.0296141
0.0286409
0.0277141
0.0268309
0.0259887
0.0251851
0.0244178
0.0236849
0.0229845
0.0223148
0.0216744
0.0210617
0.0204753
0.0199137
0.0193756
0.0188597
0.0183647
0.0178895
0.017433
0.0169941
0.0165719
0.0161654
0.015774
0.0153969
0.0150335
0.0146832
0.0143455
0.0140201
0.0137065
0.0134046
0.0131142
0.0128345
0.012563
0.058084
0.0554554
0.0530009
0.0507074
0.0485608
0.0465487
0.0446598
0.042884
0.041212
0.0396357
0.0381476
0.0367409
0.0354094
0.0341478
0.032951
0.0318147
0.0307347
0.0297075
0.0287298
0.0277984
0.0269106
0.0260638
0.0252555
0.0244836
0.0237461
0.0230413
0.0223673
0.0217226
0.0211057
0.0205152
0.0199497
0.0194078
0.0188883
0.0183898
0.0179112
0.0174515
0.0170094
0.0165841
0.0161747
0.0157803
0.0154003
0.0150341
0.0146811
0.0143408
0.0140126
0.013696
0.0133906
0.0130964
0.0128136
0.0125405
0.058084
0.0554558
0.0530004
0.0507042
0.0485541
0.0465383
0.044646
0.0428673
0.0411931
0.0396153
0.0381262
0.036719
0.0353877
0.0341266
0.0329307
0.0317955
0.0307169
0.0296912
0.028715
0.0277852
0.026899
0.0260538
0.0252471
0.0244767
0.0237407
0.0230372
0.0223645
0.0217211
0.0211054
0.020516
0.0199516
0.0194107
0.0188921
0.0183945
0.0179167
0.0174577
0.0170162
0.0165914
0.0161824
0.0157884
0.0154086
0.0150425
0.0146895
0.0143492
0.0140212
0.0137049
0.0133996
0.0131047
0.0128205
0.0125463
0.058084
0.0554572
0.0530046
0.0507122
0.0485663
0.0465548
0.0446666
0.0428917
0.0412209
0.0396458
0.0381591
0.0367538
0.0354239
0.0341638
0.0329687
0.0318339
0.0307556
0.0297299
0.0287536
0.0278235
0.0269368
0.026091
0.0252836
0.0245125
0.0237757
0.0230713
0.0223977
0.0217534
0.0211368
0.0205464
0.019981
0.0194392
0.0189196
0.0184211
0.0179424
0.0174824
0.01704
0.0166142
0.0162041
0.0158089
0.0154279
0.0150605
0.0147061
0.0143643
0.0140347
0.0137169
0.0134104
0.0131144
0.0128286
0.0125526
0.0580839
0.0554575
0.0530055
0.0507135
0.0485675
0.0465555
0.0446665
0.0428904
0.0412183
0.0396418
0.0381537
0.0367472
0.0354162
0.0341553
0.0329594
0.0318241
0.0307454
0.0297195
0.0287431
0.027813
0.0269264
0.0260807
0.0252735
0.0245026
0.0237661
0.023062
0.0223888
0.0217447
0.0211285
0.0205385
0.0199735
0.0194321
0.018913
0.0184149
0.0179366
0.0174769
0.0170348
0.0166092
0.0161993
0.0158042
0.0154232
0.0150557
0.0147013
0.0143592
0.0140292
0.0137109
0.0134039
0.0131076
0.0128214
0.0125448
0.0580839
0.0554578
0.0530062
0.0507148
0.0485695
0.0465583
0.04467
0.0428947
0.0412233
0.0396477
0.0381604
0.0367546
0.0354244
0.0341642
0.032969
0.0318344
0.0307563
0.029731
0.028755
0.0278253
0.0269389
0.0260934
0.0252863
0.0245154
0.0237787
0.0230745
0.0224011
0.0217569
0.0211403
0.0205501
0.0199849
0.0194432
0.0189238
0.0184253
0.0179467
0.0174866
0.017044
0.0166178
0.0162072
0.0158113
0.0154295
0.0150611
0.0147057
0.0143627
0.0140317
0.0137122
0.013404
0.0131064
0.012819
0.0125412
0.058084
0.0554579
0.0530066
0.0507153
0.0485702
0.0465589
0.0446704
0.0428948
0.041223
0.0396469
0.0381591
0.0367528
0.0354221
0.0341614
0.0329659
0.031831
0.0307526
0.029727
0.0287509
0.027821
0.0269345
0.0260889
0.0252816
0.0245106
0.0237738
0.0230696
0.0223961
0.0217518
0.0211354
0.0205452
0.01998
0.0194384
0.0189191
0.0184208
0.0179422
0.0174821
0.0170395
0.0166133
0.0162025
0.0158064
0.0154243
0.0150555
0.0146995
0.014356
0.0140245
0.0137045
0.0133955
0.0130973
0.0128092
0.0125307
0.058084
0.055458
0.0530067
0.0507156
0.0485704
0.0465591
0.0446706
0.0428949
0.0412231
0.0396469
0.0381591
0.0367529
0.0354223
0.0341618
0.0329665
0.0318318
0.0307537
0.0297284
0.0287525
0.0278229
0.0269365
0.026091
0.0252838
0.0245128
0.0237761
0.0230718
0.0223983
0.021754
0.0211375
0.0205473
0.0199821
0.0194405
0.0189211
0.0184227
0.017944
0.0174838
0.017041
0.0166144
0.0162033
0.0158067
0.0154239
0.0150545
0.0146978
0.0143534
0.014021
0.0137001
0.0133903
0.0130911
0.012802
0.0125225
0.058084
0.055458
0.0530068
0.0507155
0.0485703
0.0465588
0.04467
0.0428941
0.0412221
0.0396458
0.0381578
0.0367514
0.0354207
0.0341602
0.0329649
0.0318303
0.0307522
0.029727
0.0287512
0.0278216
0.0269353
0.0260898
0.0252825
0.0245115
0.0237748
0.0230705
0.022397
0.0217527
0.0211361
0.0205459
0.0199807
0.0194391
0.0189197
0.0184213
0.0179425
0.0174822
0.0170392
0.0166124
0.0162009
0.0158039
0.0154206
0.0150506
0.0146932
0.0143481
0.0140149
0.0136932
0.0133825
0.0130824
0.0127925
0.0125122
0.058084
0.055458
0.0530067
0.0507152
0.0485697
0.0465579
0.0446688
0.0428926
0.0412202
0.0396435
0.0381551
0.0367485
0.0354175
0.0341567
0.0329612
0.0318264
0.0307483
0.029723
0.0287471
0.0278174
0.026931
0.0260854
0.0252781
0.024507
0.0237702
0.0230658
0.0223923
0.021748
0.0211315
0.0205413
0.0199761
0.0194346
0.0189153
0.018417
0.0179383
0.017478
0.0170349
0.016608
0.0161962
0.0157989
0.0154152
0.0150446
0.0146867
0.014341
0.0140071
0.0136847
0.0133734
0.0130726
0.012782
0.012501
0.058084
0.055458
0.0530065
0.0507147
0.0485689
0.0465568
0.0446675
0.0428912
0.0412187
0.0396421
0.0381539
0.0367475
0.0354168
0.0341564
0.0329612
0.0318269
0.0307491
0.0297242
0.0287486
0.0278191
0.026933
0.0260875
0.0252803
0.0245093
0.0237725
0.0230681
0.0223946
0.0217502
0.0211336
0.0205434
0.0199782
0.0194366
0.0189172
0.0184188
0.0179399
0.0174794
0.017036
0.0166086
0.0161963
0.0157984
0.015414
0.0150426
0.0146838
0.0143372
0.0140024
0.013679
0.0133667
0.0130649
0.0127733
0.0124912
0.058084
0.0554579
0.0530059
0.0507134
0.0485667
0.0465536
0.0446633
0.0428858
0.0412121
0.0396343
0.038145
0.0367375
0.0354059
0.0341447
0.0329488
0.0318139
0.0307357
0.0297104
0.0287345
0.0278048
0.0269185
0.0260729
0.0252657
0.0244947
0.0237579
0.0230537
0.0223803
0.0217361
0.0211198
0.0205298
0.0199649
0.0194236
0.0189046
0.0184065
0.0179279
0.0174676
0.0170244
0.0165972
0.0161849
0.0157869
0.0154023
0.0150308
0.0146717
0.0143248
0.0139896
0.0136659
0.0133531
0.0130509
0.0127588
0.0124763
0.0580841
0.0554576
0.0530051
0.0507122
0.0485654
0.0465526
0.0446629
0.0428861
0.0412135
0.0396366
0.0381483
0.0367418
0.035411
0.0341505
0.0329554
0.031821
0.0307432
0.0297181
0.0287424
0.0278128
0.0269265
0.0260807
0.0252733
0.024502
0.023765
0.0230604
0.0223865
0.021742
0.0211253
0.0205349
0.0199696
0.019428
0.0189086
0.01841
0.0179309
0.0174701
0.0170262
0.0165982
0.0161852
0.0157863
0.0154009
0.0150284
0.0146683
0.0143203
0.0139841
0.0136593
0.0133454
0.0130421
0.0127488
0.0124651
0.0580841
0.0554563
0.0530009
0.0507043
0.0485532
0.046536
0.0446418
0.042861
0.0411846
0.0396047
0.0381137
0.0367051
0.0353728
0.0341112
0.0329153
0.0317804
0.0307025
0.0296776
0.0287022
0.027773
0.0268872
0.0260421
0.0252354
0.0244649
0.0237286
0.0230249
0.022352
0.0217084
0.0210927
0.0205034
0.0199391
0.0193984
0.0188799
0.0183822
0.017904
0.0174438
0.0170006
0.0165732
0.0161607
0.0157622
0.0153771
0.0150049
0.0146451
0.0142973
0.0139612
0.0136365
0.0133227
0.0130194
0.0127261
0.0124423
0.0580841
0.055456
0.0530016
0.0507077
0.0485601
0.0465463
0.0446553
0.0428771
0.0412027
0.039624
0.0381338
0.0367253
0.0353926
0.0341304
0.0329335
0.0317975
0.0307183
0.0296919
0.0287149
0.0277841
0.0268966
0.0260499
0.0252416
0.0244696
0.0237319
0.0230268
0.0223526
0.0217078
0.0210909
0.0205006
0.0199353
0.0193937
0.0188743
0.0183757
0.0178966
0.0174357
0.0169917
0.0165635
0.0161503
0.0157512
0.0153655
0.0149927
0.0146324
0.0142843
0.013948
0.0136232
0.0133095
0.0130066
0.0127141
0.0124315
0.0580841
0.0554373
0.0529612
0.0506473
0.0484824
0.0464549
0.0445537
0.0427684
0.0410895
0.0395084
0.0380175
0.0366098
0.035279
0.0340194
0.0328259
0.0316938
0.0306188
0.0295969
0.0286246
0.0276986
0.0268161
0.0259744
0.025171
0.024404
0.0236713
0.0229711
0.0223018
0.021662
0.02105
0.0204645
0.019904
0.0193672
0.0188526
0.0183588
0.0178844
0.0174283
0.0169892
0.0165661
0.016158
0.0157642
0.0153842
0.0150173
0.0146634
0.0143223
0.0139936
0.0136774
0.0133736
0.0130822
0.0128035
0.0125384
0.0580878
0.0554498
0.0529903
0.0506907
0.0485408
0.0465299
0.04465
0.0428896
0.0412386
0.039688
0.0382293
0.0368553
0.0355593
0.0343351
0.0331774
0.0320812
0.0310418
0.0300552
0.0291177
0.0282257
0.0273764
0.026567
0.0257952
0.0250586
0.0243555
0.0236842
0.0230429
0.0224304
0.0218451
0.0212859
0.0207514
0.0202402
0.0197511
0.0192826
0.0188335
0.0184025
0.0179885
0.0175905
0.0172075
0.0168391
0.0164848
0.0161444
0.015818
0.0155058
0.0152084
0.0149262
0.0146606
0.0144131
0.0141872
0.0139895
0.0589288
0.0574825
0.0561155
0.0548203
0.0535883
0.0524114
0.0512811
0.0501941
0.0491478
0.04814
0.0471685
0.0462315
0.0453273
0.0444543
0.0436111
0.0427961
0.0420082
0.0412461
0.0405087
0.0397951
0.0391042
0.0384354
0.0377878
0.0371608
0.0365538
0.0359659
0.0353968
0.0348456
0.0343117
0.0337944
0.033293
0.0328065
0.0323342
0.0318752
0.0314287
0.0309939
0.0305702
0.0301569
0.0297535
0.0293597
0.0289751
0.0285994
0.0282325
0.0278739
0.0275235
0.0271806
0.0268447
0.026515
0.0261905
0.0258696
0.0121964
0.00317122
0.00188388
0.00173648
0.00167399
0.00163735
0.00159143
0.00155343
0.00151272
0.0014757
0.00143896
0.00140368
0.00137059
0.00133785
0.0013148
0.00131159
0.00141002
0.00184467
0.0034424
0.0088768
0.012345
0.00322452
0.00190328
0.00175259
0.00168907
0.00165343
0.00160725
0.00156976
0.00152884
0.00149192
0.001455
0.00141925
0.00138597
0.00135185
0.00132651
0.00131358
0.00138788
0.00176371
0.0032998
0.0089517
0.0124796
0.00327453
0.00192232
0.00176858
0.00170405
0.00166939
0.00162284
0.00158574
0.00154451
0.00150748
0.00147034
0.00143418
0.00140079
0.0013656
0.00133899
0.00131911
0.00137563
0.00170284
0.00318131
0.00901799
0.0126046
0.0033216
0.00194112
0.00178452
0.00171898
0.00168517
0.00163819
0.00160145
0.00155989
0.00152278
0.00148542
0.00144883
0.00141542
0.00137933
0.00135205
0.00132705
0.0013703
0.00165746
0.00308396
0.00907593
0.0127191
0.00336569
0.0019596
0.0018004
0.00173387
0.00170085
0.00165348
0.00161701
0.00157517
0.0015379
0.00150039
0.00146334
0.00142997
0.00139309
0.00136549
0.00133658
0.00136987
0.00162403
0.00300455
0.0091276
0.012824
0.00340706
0.00197779
0.00181629
0.00174883
0.00171651
0.00166874
0.00163252
0.0015904
0.00155298
0.00151529
0.00147781
0.0014445
0.00140687
0.00137915
0.00134715
0.00137285
0.0015998
0.00293996
0.00917377
0.01292
0.003446
0.00199583
0.00183222
0.00176392
0.00173221
0.00168403
0.001648
0.00160558
0.00156798
0.00153013
0.00149222
0.00145894
0.00142061
0.00139285
0.00135835
0.0013782
0.00158258
0.00288739
0.00921536
0.0130083
0.00348271
0.00201375
0.00184816
0.00177914
0.00174787
0.0016993
0.00166336
0.00162062
0.00158282
0.00154483
0.0015065
0.00147326
0.00143425
0.0014065
0.00136994
0.00138522
0.00157081
0.00284469
0.00925352
0.0130893
0.00351739
0.00203155
0.0018641
0.00179439
0.00176342
0.00171442
0.00167851
0.00163545
0.00159745
0.00155935
0.00152062
0.00148745
0.00144782
0.0014201
0.00138181
0.00139348
0.00156339
0.00281041
0.00928945
0.0131637
0.0035502
0.00204916
0.00188002
0.00180956
0.00177882
0.00172937
0.00169343
0.00165009
0.0016119
0.00157373
0.00153468
0.0015016
0.0014614
0.00143375
0.00139399
0.0014028
0.0015596
0.0027836
0.00932408
0.0132317
0.00358127
0.00206656
0.00189587
0.00182468
0.00179406
0.00174418
0.00170821
0.00166464
0.00162631
0.00158814
0.00154881
0.00151584
0.00147515
0.00144755
0.00140654
0.00141304
0.00155889
0.00276353
0.00935781
0.013294
0.00361079
0.00208386
0.00191171
0.00183982
0.00180927
0.00175901
0.001723
0.00167928
0.00164085
0.00160272
0.00156316
0.0015303
0.00148914
0.00146158
0.00141946
0.00142407
0.00156077
0.00274939
0.00939066
0.0133517
0.00363911
0.00210112
0.0019276
0.00185511
0.00182459
0.00177399
0.00173796
0.00169415
0.00165563
0.00161756
0.00157777
0.00154498
0.00150337
0.00147579
0.00143267
0.0014357
0.00156472
0.00274011
0.00942248
0.0134055
0.00366655
0.00211843
0.00194368
0.00187064
0.00184011
0.00178923
0.00175316
0.00170929
0.00167066
0.00163261
0.00159258
0.00155979
0.00151772
0.00149007
0.00144605
0.00144775
0.00157027
0.00273462
0.00945323
0.0134565
0.00369328
0.00213585
0.00195993
0.00188643
0.00185586
0.00180472
0.0017686
0.00172463
0.00168585
0.00164778
0.00160746
0.00157461
0.00153206
0.00150432
0.00145948
0.00146004
0.00157704
0.002732
0.00948306
0.0135052
0.00371939
0.00215336
0.00197635
0.00190242
0.00187178
0.00182042
0.00178417
0.00174009
0.00170113
0.00166296
0.00162231
0.00158935
0.00154633
0.00151848
0.00147291
0.00147253
0.00158477
0.00273167
0.00951231
0.0135513
0.0037448
0.00217089
0.00199286
0.00191856
0.0018878
0.00183624
0.00179984
0.00175562
0.00171643
0.00167811
0.00163712
0.00160401
0.00156054
0.0015326
0.00148641
0.00148524
0.00159338
0.00273339
0.00954135
0.0135948
0.00376948
0.00218837
0.00200942
0.00193478
0.00190392
0.00185218
0.00181562
0.00177124
0.00173181
0.00169332
0.00165196
0.0016187
0.00157482
0.00154679
0.00150006
0.00149823
0.00160283
0.00273713
0.00957035
0.0136354
0.0037935
0.00220582
0.00202603
0.00195115
0.00192019
0.0018683
0.00183158
0.00178706
0.00174736
0.00170869
0.00166697
0.00163356
0.00158929
0.00156117
0.00151396
0.00151155
0.00161312
0.00274283
0.00959918
0.0136735
0.00381703
0.00222329
0.00204277
0.00196773
0.0019367
0.0018847
0.00184783
0.00180316
0.00176319
0.00172433
0.00168226
0.00164868
0.00160403
0.0015758
0.00152813
0.00152518
0.00162415
0.00275023
0.00962766
0.0137096
0.0038404
0.00224092
0.00205975
0.00198462
0.00195351
0.00190144
0.0018644
0.00181958
0.00177932
0.00174024
0.00169782
0.00166405
0.00161904
0.00159065
0.00154252
0.00153906
0.00163577
0.00275888
0.00965574
0.0137445
0.00386382
0.0022588
0.00207703
0.00200183
0.00197063
0.00191847
0.00188123
0.00183625
0.00179567
0.00175638
0.0017136
0.00167962
0.00163424
0.00160567
0.00155707
0.00155313
0.00164784
0.0027684
0.00968363
0.0137789
0.00388743
0.00227697
0.00209459
0.00201931
0.00198798
0.0019357
0.00189821
0.00185303
0.00181213
0.00177262
0.00172949
0.00169531
0.00164957
0.00162081
0.00157176
0.00156736
0.00166029
0.00277862
0.00971172
0.0138127
0.00391121
0.00229537
0.00211238
0.002037
0.00200544
0.00195301
0.00191521
0.00186983
0.00182862
0.00178891
0.00174545
0.0017111
0.00166503
0.00163608
0.00158661
0.00158179
0.00167313
0.00278963
0.00974046
0.013846
0.00393507
0.00231396
0.00213033
0.0020548
0.00202294
0.00197033
0.0019322
0.00188663
0.00184512
0.00180524
0.00176152
0.00172702
0.00168066
0.00165155
0.00160172
0.00159652
0.00168646
0.00280168
0.00977016
0.013879
0.00395882
0.00233272
0.00214843
0.00207273
0.00204051
0.0019877
0.00194923
0.00190349
0.00186172
0.00182171
0.00177777
0.00174316
0.00169654
0.00166731
0.00161715
0.00161162
0.00170032
0.00281501
0.00980081
0.0139127
0.00398195
0.00235168
0.00216676
0.00209087
0.00205826
0.00200524
0.00196645
0.00192055
0.00187854
0.00183843
0.00179428
0.00175957
0.00171274
0.00168339
0.00163292
0.00162708
0.00171474
0.00282966
0.00983208
0.0139471
0.00400499
0.00237094
0.00218542
0.00210936
0.00207633
0.00202311
0.00198399
0.00193793
0.00189567
0.00185545
0.00181109
0.00177627
0.00172922
0.00169974
0.00164898
0.00164286
0.00172963
0.00284536
0.00986351
0.0139829
0.00402822
0.00239055
0.00220449
0.00212826
0.00209479
0.00204137
0.00200189
0.00195565
0.00191312
0.00187276
0.00182815
0.0017932
0.00174592
0.00171629
0.00166524
0.00165885
0.00174484
0.00286169
0.00989475
0.0140204
0.00405149
0.00241054
0.00222394
0.00214756
0.00211364
0.00205999
0.00202013
0.00197368
0.00193083
0.00189027
0.00184539
0.00181027
0.00176274
0.00173294
0.00168162
0.00167496
0.00176026
0.00287825
0.00992572
0.0140594
0.0040744
0.00243071
0.00224368
0.00216716
0.00213278
0.00207889
0.00203862
0.00199194
0.00194873
0.00190794
0.00186277
0.00182744
0.00177964
0.00174967
0.00169808
0.00169116
0.00177586
0.00289486
0.00995657
0.0140994
0.00409647
0.00245089
0.00226356
0.00218692
0.00215207
0.00209796
0.00205729
0.00201037
0.0019668
0.00192577
0.00188029
0.00184475
0.00179668
0.00176653
0.00171467
0.00170751
0.00179167
0.0029116
0.00998757
0.0141393
0.00411743
0.00247099
0.00228347
0.00220675
0.00217148
0.0021172
0.00207615
0.00202902
0.00198511
0.00194385
0.00189807
0.00186231
0.00181398
0.00178363
0.0017315
0.00172408
0.00180779
0.00292872
0.0100189
0.0141782
0.00413747
0.00249104
0.00230341
0.00222667
0.00219105
0.00213668
0.0020953
0.002048
0.00200379
0.00196232
0.00191624
0.00188024
0.00183164
0.00180105
0.00174863
0.00174095
0.00182429
0.00294641
0.0100506
0.0142157
0.00415726
0.00251121
0.00232351
0.00224683
0.00221094
0.00215653
0.00211487
0.00206745
0.00202294
0.00198125
0.00193488
0.00189862
0.00184971
0.00181883
0.00176608
0.00175809
0.00184116
0.00296465
0.0100823
0.0142519
0.0041777
0.00253175
0.00234396
0.0022674
0.00223128
0.00217687
0.00213497
0.00208742
0.0020426
0.00200067
0.00195396
0.00191739
0.00186812
0.0018369
0.00178377
0.00177545
0.0018583
0.00298315
0.0101137
0.014288
0.00419942
0.00255283
0.00236491
0.00228851
0.00225216
0.00219775
0.00215555
0.00210784
0.00206267
0.00202046
0.00197336
0.00193642
0.00188676
0.00185513
0.00180161
0.00179293
0.00187557
0.00300149
0.0101448
0.014325
0.00422253
0.00257451
0.00238644
0.00231017
0.00227353
0.00221906
0.0021765
0.00212855
0.00208297
0.00204043
0.00199289
0.00195556
0.00190549
0.00187344
0.00181951
0.00181048
0.00189288
0.00301937
0.0101758
0.0143639
0.00424658
0.00259669
0.00240845
0.00233227
0.00229525
0.00224062
0.0021976
0.00214937
0.00210333
0.00206042
0.00201245
0.00197472
0.00192423
0.00189178
0.00183748
0.00182812
0.00191022
0.0030368
0.0102071
0.0144049
0.00427081
0.00261912
0.00243079
0.00235461
0.0023171
0.00226223
0.0022187
0.00217016
0.00212365
0.00208038
0.002032
0.00199392
0.00194306
0.00191026