/*--------------------------------*- C++ -*----------------------------------*\
  =========                 |
  \\      /  F ield         | OpenFOAM: The Open Source CFD Toolbox
   \\    /   O peration     | Website:  https://openfoam.org
    \\  /    A nd           | Version:  8
     \\/     M anipulation  |
\*---------------------------------------------------------------------------*/
FoamFile
{
    version     2.0;
    format      ascii;
    class       volScalarField;
    location    "1000";
    object      nut;
}
// * * * * * * * * * * * * * * * * * * * * * * * * * * * * * * * * * * * * * //

dimensions      [0 2 -1 0 0 0 0];

internalField   nonuniform List<scalar> 
8400
(
7.67375e-05
7.57024e-05
7.46926e-05
7.37076e-05
7.27513e-05
7.18276e-05
7.09398e-05
7.00885e-05
6.92749e-05
6.85005e-05
6.77652e-05
6.70694e-05
6.64124e-05
6.57939e-05
6.52128e-05
6.46661e-05
6.41533e-05
6.36732e-05
6.32214e-05
6.27973e-05
6.23954e-05
6.20167e-05
6.16689e-05
6.12436e-05
6.23574e-05
6.2637e-05
6.30502e-05
6.35407e-05
6.40814e-05
6.46435e-05
6.5207e-05
6.57679e-05
6.63448e-05
6.69316e-05
6.75458e-05
6.81845e-05
6.88574e-05
6.95375e-05
7.02287e-05
7.09236e-05
7.16171e-05
7.23132e-05
7.30104e-05
7.37083e-05
7.44155e-05
7.51316e-05
7.58541e-05
7.65796e-05
7.73069e-05
7.80398e-05
6.06441e-05
6.06691e-05
6.06942e-05
6.07202e-05
6.07471e-05
6.07741e-05
6.08023e-05
6.08315e-05
6.08608e-05
6.08922e-05
6.09251e-05
6.09591e-05
6.09947e-05
6.10328e-05
6.10739e-05
6.1116e-05
6.11597e-05
6.12053e-05
6.12485e-05
6.12891e-05
6.13282e-05
6.13549e-05
6.13652e-05
6.13085e-05
6.12167e-05
6.11649e-05
6.11183e-05
6.10599e-05
6.1001e-05
6.09459e-05
6.08945e-05
6.08437e-05
6.08007e-05
6.0751e-05
6.07035e-05
6.06584e-05
6.0615e-05
6.05714e-05
6.05232e-05
6.04799e-05
6.04375e-05
6.03918e-05
6.03488e-05
6.03097e-05
6.02686e-05
6.02259e-05
6.01823e-05
6.01429e-05
6.0115e-05
6.01168e-05
6.06347e-05
6.06612e-05
6.06879e-05
6.07152e-05
6.07438e-05
6.07725e-05
6.08014e-05
6.08315e-05
6.08626e-05
6.08957e-05
6.09298e-05
6.09671e-05
6.10078e-05
6.10508e-05
6.10983e-05
6.11511e-05
6.12082e-05
6.12674e-05
6.13276e-05
6.13839e-05
6.14338e-05
6.14652e-05
6.14679e-05
6.14017e-05
6.13123e-05
6.12376e-05
6.11474e-05
6.10642e-05
6.09766e-05
6.08972e-05
6.08211e-05
6.07464e-05
6.06817e-05
6.06281e-05
6.0569e-05
6.05248e-05
6.04707e-05
6.04168e-05
6.03679e-05
6.03192e-05
6.02698e-05
6.02172e-05
6.01632e-05
6.01113e-05
6.00613e-05
6.00092e-05
5.99538e-05
5.99012e-05
5.98516e-05
5.97972e-05
6.06383e-05
6.06666e-05
6.06948e-05
6.07227e-05
6.07514e-05
6.078e-05
6.08086e-05
6.08387e-05
6.08687e-05
6.0901e-05
6.09357e-05
6.09722e-05
6.10127e-05
6.10578e-05
6.11105e-05
6.11718e-05
6.12379e-05
6.13111e-05
6.13898e-05
6.14631e-05
6.15269e-05
6.15578e-05
6.15393e-05
6.14711e-05
6.13772e-05
6.12578e-05
6.1113e-05
6.09613e-05
6.07928e-05
6.06457e-05
6.05074e-05
6.0385e-05
6.02908e-05
6.02114e-05
6.01394e-05
6.00857e-05
6.00413e-05
5.99873e-05
5.99334e-05
5.98841e-05
5.9827e-05
5.97634e-05
5.97026e-05
5.9642e-05
5.95803e-05
5.95161e-05
5.94482e-05
5.93831e-05
5.932e-05
5.92531e-05
6.06609e-05
6.06901e-05
6.07198e-05
6.07482e-05
6.07764e-05
6.08054e-05
6.08337e-05
6.08624e-05
6.08899e-05
6.09194e-05
6.09522e-05
6.0985e-05
6.10234e-05
6.107e-05
6.11246e-05
6.11928e-05
6.12687e-05
6.13552e-05
6.14498e-05
6.15373e-05
6.16099e-05
6.16343e-05
6.16011e-05
6.15344e-05
6.14194e-05
6.12284e-05
6.09616e-05
6.06552e-05
6.02912e-05
5.99899e-05
5.9691e-05
5.94549e-05
5.92928e-05
5.91754e-05
5.91015e-05
5.90473e-05
5.90052e-05
5.89577e-05
5.8906e-05
5.88478e-05
5.87856e-05
5.87225e-05
5.86606e-05
5.85914e-05
5.85122e-05
5.84332e-05
5.83501e-05
5.82564e-05
5.8157e-05
5.80539e-05
6.07059e-05
6.0735e-05
6.07648e-05
6.07938e-05
6.08221e-05
6.085e-05
6.08755e-05
6.09028e-05
6.09297e-05
6.09532e-05
6.09793e-05
6.10091e-05
6.1046e-05
6.1091e-05
6.11468e-05
6.12195e-05
6.13039e-05
6.14065e-05
6.15167e-05
6.16117e-05
6.16932e-05
6.16942e-05
6.16764e-05
6.15904e-05
6.1412e-05
6.11076e-05
6.06231e-05
5.99923e-05
5.91643e-05
5.85021e-05
5.77518e-05
5.7322e-05
5.7037e-05
5.69104e-05
5.6823e-05
5.67904e-05
5.68446e-05
5.67901e-05
5.67491e-05
5.67012e-05
5.66595e-05
5.65954e-05
5.65408e-05
5.64619e-05
5.63335e-05
5.62262e-05
5.60094e-05
5.57642e-05
5.55121e-05
5.52346e-05
6.07832e-05
6.08059e-05
6.08329e-05
6.08595e-05
6.08857e-05
6.09108e-05
6.0932e-05
6.09538e-05
6.09788e-05
6.09998e-05
6.10215e-05
6.1046e-05
6.10763e-05
6.1117e-05
6.11744e-05
6.12579e-05
6.13517e-05
6.14672e-05
6.15982e-05
6.16862e-05
6.17651e-05
6.17877e-05
6.17514e-05
6.16205e-05
6.13485e-05
6.08323e-05
5.99185e-05
5.8641e-05
5.66965e-05
5.52148e-05
5.30467e-05
5.28848e-05
5.23866e-05
5.25921e-05
5.23217e-05
5.19176e-05
5.15389e-05
5.45099e-05
5.40342e-05
5.4919e-05
5.8377e-05
4.98128e-05
5.49485e-05
6.47193e-05
3.74792e-05
6.18254e-05
3.69408e-05
4.08142e-05
4.41961e-05
4.54232e-05
6.09207e-05
6.09172e-05
6.09303e-05
6.09486e-05
6.09661e-05
6.09852e-05
6.10044e-05
6.10158e-05
6.10335e-05
6.105e-05
6.10665e-05
6.10879e-05
6.11128e-05
6.11589e-05
6.12141e-05
6.13121e-05
6.14176e-05
6.15405e-05
6.16736e-05
6.17938e-05
6.18801e-05
6.18882e-05
6.18162e-05
6.16113e-05
6.11729e-05
6.02775e-05
5.85296e-05
5.59404e-05
5.13853e-05
4.875e-05
4.17586e-05
4.76501e-05
4.86748e-05
4.89826e-05
4.91976e-05
4.86682e-05
4.81215e-05
4.8168e-05
4.84179e-05
4.82969e-05
4.81722e-05
4.77717e-05
4.77403e-05
4.77871e-05
4.71266e-05
4.75864e-05
4.74543e-05
4.74584e-05
4.73823e-05
4.72538e-05
6.11371e-05
6.10848e-05
6.10624e-05
6.10571e-05
6.10618e-05
6.10653e-05
6.10822e-05
6.10881e-05
6.10961e-05
6.11037e-05
6.11096e-05
6.11307e-05
6.1155e-05
6.12084e-05
6.12728e-05
6.13711e-05
6.15042e-05
6.16538e-05
6.18067e-05
6.19361e-05
6.20191e-05
6.19893e-05
6.18484e-05
6.15051e-05
6.07937e-05
5.9206e-05
5.5779e-05
5.05891e-05
4.0687e-05
4.68686e-05
4.80726e-05
4.83221e-05
4.8464e-05
4.85706e-05
4.86882e-05
4.87984e-05
4.89243e-05
4.90738e-05
4.91109e-05
4.91343e-05
4.92125e-05
4.93115e-05
4.94261e-05
4.95827e-05
4.96673e-05
4.96806e-05
4.96267e-05
4.95059e-05
4.93175e-05
4.90561e-05
6.13793e-05
6.12829e-05
6.12144e-05
6.11722e-05
6.1169e-05
6.11563e-05
6.11548e-05
6.11559e-05
6.11551e-05
6.11589e-05
6.11682e-05
6.11814e-05
6.12088e-05
6.12666e-05
6.13559e-05
6.14812e-05
6.16426e-05
6.18209e-05
6.19956e-05
6.21217e-05
6.21848e-05
6.20611e-05
6.18003e-05
6.12366e-05
6.00297e-05
5.70685e-05
5.00715e-05
4.70825e-05
5.07269e-05
5.14473e-05
5.18024e-05
5.19411e-05
5.20317e-05
5.21465e-05
5.23202e-05
5.25511e-05
5.28037e-05
5.30115e-05
5.31334e-05
5.32101e-05
5.32943e-05
5.33922e-05
5.34792e-05
5.35131e-05
5.34979e-05
5.34333e-05
5.33143e-05
5.31311e-05
5.28675e-05
5.25194e-05
6.14331e-05
6.13727e-05
6.13238e-05
6.12846e-05
6.1259e-05
6.12401e-05
6.12277e-05
6.12169e-05
6.12123e-05
6.1213e-05
6.12168e-05
6.12347e-05
6.12772e-05
6.13536e-05
6.14788e-05
6.16487e-05
6.18502e-05
6.20606e-05
6.22494e-05
6.23342e-05
6.23435e-05
6.20444e-05
6.15809e-05
6.06532e-05
5.85009e-05
5.25358e-05
5.17511e-05
5.39409e-05
5.52441e-05
5.61048e-05
5.64025e-05
5.65833e-05
5.67654e-05
5.69545e-05
5.71672e-05
5.74112e-05
5.76672e-05
5.78889e-05
5.80603e-05
5.81966e-05
5.83187e-05
5.84303e-05
5.84967e-05
5.85363e-05
5.85392e-05
5.85065e-05
5.84309e-05
5.82946e-05
5.80885e-05
5.78125e-05
6.14578e-05
6.14156e-05
6.13823e-05
6.13512e-05
6.13227e-05
6.13024e-05
6.12876e-05
6.12746e-05
6.12645e-05
6.12627e-05
6.12698e-05
6.13025e-05
6.13747e-05
6.1498e-05
6.16832e-05
6.19117e-05
6.21654e-05
6.23964e-05
6.25715e-05
6.25334e-05
6.24504e-05
6.18192e-05
6.10045e-05
5.94188e-05
5.51676e-05
5.46561e-05
5.63075e-05
5.80597e-05
5.9465e-05
6.01379e-05
6.05068e-05
6.07994e-05
6.10601e-05
6.13138e-05
6.15776e-05
6.18456e-05
6.21083e-05
6.23442e-05
6.25553e-05
6.27463e-05
6.29148e-05
6.30599e-05
6.31909e-05
6.3307e-05
6.34087e-05
6.34902e-05
6.3538e-05
6.35482e-05
6.35225e-05
6.34508e-05
6.14697e-05
6.14392e-05
6.14117e-05
6.13859e-05
6.13628e-05
6.13445e-05
6.13255e-05
6.13111e-05
6.13022e-05
6.13076e-05
6.13374e-05
6.14081e-05
6.15398e-05
6.17489e-05
6.20294e-05
6.23388e-05
6.26337e-05
6.28241e-05
6.29336e-05
6.25908e-05
6.24096e-05
6.11256e-05
5.96683e-05
5.66383e-05
5.67929e-05
5.79984e-05
5.95351e-05
6.11154e-05
6.207e-05
6.25895e-05
6.29458e-05
6.32556e-05
6.35546e-05
6.38407e-05
6.41222e-05
6.43981e-05
6.46675e-05
6.49259e-05
6.51722e-05
6.54047e-05
6.56251e-05
6.58414e-05
6.60651e-05
6.62911e-05
6.6521e-05
6.67458e-05
6.69625e-05
6.71767e-05
6.73817e-05
6.75668e-05
6.14773e-05
6.1454e-05
6.14295e-05
6.14079e-05
6.13886e-05
6.13708e-05
6.13553e-05
6.13455e-05
6.1345e-05
6.13746e-05
6.14549e-05
6.16137e-05
6.18676e-05
6.22255e-05
6.26322e-05
6.3005e-05
6.328e-05
6.32508e-05
6.32328e-05
6.2161e-05
6.20739e-05
5.93655e-05
5.6476e-05
5.77802e-05
5.8829e-05
5.98417e-05
6.10393e-05
6.19147e-05
6.23901e-05
6.26676e-05
6.28864e-05
6.31079e-05
6.33502e-05
6.35987e-05
6.38514e-05
6.41069e-05
6.43643e-05
6.46242e-05
6.48859e-05
6.5149e-05
6.54125e-05
6.56866e-05
6.59817e-05
6.62947e-05
6.66233e-05
6.69672e-05
6.73304e-05
6.77079e-05
6.80942e-05
6.84955e-05
6.14803e-05
6.14612e-05
6.14425e-05
6.14244e-05
6.14085e-05
6.13927e-05
6.13781e-05
6.13836e-05
6.14126e-05
6.15259e-05
6.17448e-05
6.2098e-05
6.25749e-05
6.31528e-05
6.36362e-05
6.39551e-05
6.40327e-05
6.32583e-05
6.32417e-05
6.03623e-05
6.13374e-05
5.43558e-05
5.81976e-05
5.87416e-05
5.91172e-05
5.96193e-05
6.00068e-05
6.01433e-05
6.01223e-05
6.008e-05
6.0088e-05
6.01547e-05
6.0272e-05
6.04326e-05
6.06231e-05
6.08297e-05
6.10527e-05
6.12947e-05
6.15533e-05
6.18252e-05
6.21065e-05
6.24039e-05
6.27289e-05
6.3076e-05
6.3446e-05
6.38432e-05
6.42656e-05
6.47102e-05
6.51859e-05
6.57013e-05
6.14852e-05
6.14696e-05
6.14538e-05
6.14371e-05
6.14224e-05
6.14083e-05
6.13949e-05
6.14817e-05
6.16149e-05
6.2006e-05
6.25828e-05
6.33168e-05
6.41009e-05
6.48735e-05
6.49895e-05
6.49551e-05
6.45753e-05
6.13316e-05
6.2609e-05
5.4616e-05
5.60057e-05
5.79591e-05
5.76326e-05
5.74152e-05
5.7188e-05
5.68931e-05
5.64903e-05
5.60333e-05
5.56251e-05
5.53251e-05
5.51529e-05
5.50897e-05
5.51021e-05
5.51739e-05
5.52924e-05
5.54452e-05
5.56257e-05
5.58299e-05
5.60569e-05
5.63038e-05
5.65688e-05
5.68462e-05
5.71372e-05
5.74437e-05
5.77691e-05
5.81144e-05
5.84791e-05
5.88713e-05
5.93007e-05
5.97687e-05
6.14847e-05
6.14694e-05
6.14539e-05
6.1441e-05
6.14298e-05
6.14186e-05
6.14114e-05
6.20342e-05
6.24955e-05
6.37584e-05
6.51479e-05
6.63013e-05
6.70585e-05
6.75659e-05
6.52003e-05
6.45993e-05
6.46583e-05
5.17865e-05
5.36757e-05
5.66641e-05
5.62294e-05
5.55583e-05
5.49351e-05
5.42018e-05
5.3415e-05
5.26321e-05
5.19298e-05
5.13676e-05
5.09746e-05
5.07463e-05
5.06496e-05
5.06467e-05
5.07033e-05
5.07973e-05
5.09213e-05
5.10689e-05
5.12315e-05
5.14067e-05
5.15951e-05
5.17958e-05
5.20078e-05
5.22134e-05
5.23759e-05
5.2525e-05
5.26636e-05
5.27908e-05
5.29118e-05
5.30347e-05
5.31617e-05
5.3295e-05
6.1491e-05
6.14812e-05
6.14718e-05
6.14618e-05
6.14526e-05
6.14444e-05
6.14382e-05
6.59327e-05
6.67638e-05
7.02341e-05
7.26058e-05
7.20798e-05
7.052e-05
6.97178e-05
5.54811e-05
4.74186e-05
5.46268e-05
5.61836e-05
5.47432e-05
5.44139e-05
5.41392e-05
5.36476e-05
5.32273e-05
5.2948e-05
5.28636e-05
5.3004e-05
5.33518e-05
5.38503e-05
5.44274e-05
5.50189e-05
5.55751e-05
5.6073e-05
5.65109e-05
5.68925e-05
5.72247e-05
5.75157e-05
5.77727e-05
5.80002e-05
5.82009e-05
5.8378e-05
5.85316e-05
5.8642e-05
5.85676e-05
5.84004e-05
5.81392e-05
5.77773e-05
5.73142e-05
5.67406e-05
5.60378e-05
5.51883e-05
6.14999e-05
6.14957e-05
6.14953e-05
6.14969e-05
6.1497e-05
6.14966e-05
6.15191e-05
0.000135771
9.67421e-05
8.92947e-05
8.43178e-05
6.78377e-05
5.56924e-05
5.03496e-05
5.77012e-05
5.81877e-05
6.07532e-05
6.25284e-05
6.3612e-05
6.57652e-05
6.81645e-05
7.08649e-05
7.39207e-05
7.7156e-05
8.04151e-05
8.3541e-05
8.63996e-05
8.89123e-05
9.1058e-05
9.28518e-05
9.43287e-05
9.55336e-05
9.65186e-05
9.73254e-05
9.79858e-05
9.85297e-05
9.89785e-05
9.93436e-05
9.96346e-05
9.98582e-05
0.000100015
0.000100124
9.98761e-05
9.94585e-05
9.88543e-05
9.80465e-05
9.7014e-05
9.57023e-05
9.40444e-05
9.19602e-05
0.000137936
0.00013923
0.000140862
0.000142161
0.000143715
0.000146201
0.000150369
0.000157865
0.000166455
0.00016715
0.000156787
0.000153128
0.000151013
0.000149125
0.000147262
0.000154075
0.000167412
0.000175798
0.000180389
0.000187643
0.000195178
0.000202246
0.000209068
0.000215344
0.000220872
0.000225573
0.000229414
0.000232428
0.0002347
0.000236309
0.000237345
0.000237898
0.000238054
0.000237888
0.00023746
0.000236817
0.000235997
0.00023503
0.000233937
0.00023273
0.000231421
0.000230026
0.000228744
0.000227461
0.000226178
0.000224897
0.000223614
0.000222327
0.000221043
0.00021976
0.000272578
0.000269185
0.000265942
0.000262844
0.000259871
0.000257004
0.000254226
0.000251529
0.000248908
0.000246359
0.000243877
0.000241458
0.000239098
0.000236796
0.000234547
0.00023235
0.000230204
0.000228108
0.000226062
0.000224065
0.000222116
0.000220214
0.000218358
0.000216545
0.000214775
0.000213046
0.000211355
0.000209703
0.000208087
0.000206508
0.000204965
0.000203458
0.000201987
0.000200552
0.000199152
0.000197788
0.000196458
0.000195161
0.000193898
0.000192662
0.000191449
0.000190255
0.000189078
0.000187915
0.000186761
0.000185615
0.000184469
0.000183314
0.000182128
0.000180865
0.000270602
0.00026435
0.0002584
0.000252726
0.000247314
0.000242153
0.000237233
0.000232535
0.000228043
0.000223741
0.000219615
0.000215651
0.000211838
0.000208167
0.000204627
0.000201214
0.00019792
0.000194742
0.000191674
0.000188711
0.000185848
0.00018308
0.0001804
0.000177805
0.000175288
0.000172845
0.000170474
0.00016817
0.000165932
0.000163758
0.000161647
0.000159596
0.000157605
0.000155673
0.000153794
0.000151969
0.000150193
0.000148462
0.000146771
0.000145123
0.000143517
0.000141951
0.000140422
0.000138929
0.000137468
0.00013604
0.000134647
0.000133297
0.000131994
0.000130719
0.000270597
0.000264329
0.000258342
0.000252632
0.00024718
0.00024197
0.000236985
0.00023221
0.000227629
0.000223228
0.000218994
0.000214917
0.000210985
0.00020719
0.000203525
0.000199983
0.000196559
0.000193248
0.000190046
0.000186949
0.00018395
0.000181045
0.00017823
0.000175499
0.000172848
0.000170274
0.000167772
0.00016534
0.000162977
0.000160679
0.000158447
0.000156277
0.000154168
0.00015212
0.000150131
0.000148198
0.00014632
0.000144494
0.000142717
0.000140987
0.000139301
0.000137658
0.000136055
0.000134491
0.000132965
0.000131472
0.000130005
0.000128568
0.000127182
0.000125896
0.000270598
0.000264376
0.000258443
0.000252786
0.000247381
0.00024221
0.000237257
0.000232506
0.000227942
0.000223553
0.000219327
0.000215252
0.00021132
0.000207522
0.000203852
0.000200303
0.000196872
0.000193552
0.00019034
0.000187231
0.000184221
0.000181304
0.000178477
0.000175733
0.000173069
0.000170481
0.000167966
0.000165522
0.000163145
0.000160835
0.000158589
0.000156406
0.000154285
0.000152225
0.000150223
0.000148278
0.000146388
0.00014455
0.000142761
0.000141019
0.00013932
0.000137663
0.000136047
0.00013447
0.000132935
0.00013144
0.00012998
0.000128538
0.000127112
0.000125759
0.000270598
0.000264377
0.000258442
0.000252778
0.000247364
0.000242184
0.000237222
0.000232463
0.000227892
0.000223498
0.000219268
0.000215191
0.000211257
0.000207459
0.00020379
0.000200244
0.000196815
0.000193499
0.000190291
0.000187187
0.000184182
0.00018127
0.000178446
0.000175707
0.000173048
0.000170465
0.000167955
0.000165515
0.000163142
0.000160836
0.000158594
0.000156416
0.000154299
0.000152243
0.000150246
0.000148305
0.000146419
0.000144584
0.000142798
0.000141059
0.000139362
0.000137706
0.000136088
0.000134507
0.000132964
0.000131461
0.000130003
0.00012858
0.000127168
0.000125796
0.000270598
0.000264379
0.000258452
0.000252797
0.000247395
0.000242228
0.000237278
0.000232531
0.000227971
0.000223586
0.000219364
0.000215294
0.000211367
0.000207574
0.000203908
0.000200365
0.000196939
0.000193625
0.000190419
0.000187316
0.00018431
0.000181398
0.000178575
0.000175835
0.000173174
0.00017059
0.000168078
0.000165636
0.000163261
0.000160953
0.000158709
0.000156528
0.00015441
0.000152352
0.000150353
0.000148411
0.000146524
0.000144687
0.000142898
0.000141155
0.000139454
0.000137794
0.000136173
0.000134588
0.000133037
0.00013152
0.000130044
0.000128612
0.000127205
0.000125827
0.000270597
0.000264379
0.000258453
0.0002528
0.000247398
0.00024223
0.000237279
0.000232529
0.000227966
0.000223578
0.000219351
0.000215277
0.000211346
0.000207549
0.000203881
0.000200335
0.000196907
0.000193592
0.000190384
0.00018728
0.000184275
0.000181362
0.000178538
0.000175798
0.000173138
0.000170554
0.000168042
0.0001656
0.000163227
0.000160919
0.000158676
0.000156497
0.000154381
0.000152325
0.000150329
0.00014839
0.000146504
0.000144669
0.000142882
0.000141139
0.000139437
0.000137775
0.000136151
0.000134566
0.000133016
0.000131498
0.000130014
0.000128571
0.000127162
0.000125783
0.000270597
0.000264379
0.000258454
0.000252803
0.000247404
0.000242238
0.000237289
0.000232542
0.000227982
0.000223596
0.000219373
0.000215301
0.000211372
0.000207577
0.000203911
0.000200368
0.000196942
0.000193629
0.000190424
0.000187322
0.000184317
0.000181406
0.000178583
0.000175843
0.000173183
0.000170598
0.000168086
0.000165644
0.000163269
0.000160961
0.000158718
0.000156539
0.000154423
0.000152368
0.000150372
0.000148432
0.000146546
0.000144711
0.000142922
0.000141177
0.000139472
0.000137806
0.000136176
0.000134583
0.000133027
0.000131506
0.000130016
0.000128562
0.000127144
0.000125759
0.000270597
0.000264379
0.000258455
0.000252804
0.000247406
0.00024224
0.000237292
0.000232544
0.000227984
0.000223596
0.000219371
0.000215298
0.000211367
0.000207571
0.000203903
0.000200358
0.000196931
0.000193617
0.000190411
0.000187307
0.000184302
0.00018139
0.000178565
0.000175825
0.000173163
0.000170578
0.000168065
0.000165622
0.000163247
0.000160938
0.000158696
0.000156517
0.000154402
0.000152348
0.000150354
0.000148416
0.000146531
0.000144695
0.000142907
0.000141161
0.000139455
0.000137787
0.000136154
0.000134555
0.000132993
0.000131467
0.000129974
0.000128515
0.000127091
0.0001257
0.000270597
0.000264379
0.000258455
0.000252805
0.000247407
0.000242242
0.000237294
0.000232546
0.000227986
0.000223599
0.000219374
0.0002153
0.000211369
0.000207573
0.000203906
0.000200361
0.000196935
0.000193622
0.000190416
0.000187314
0.000184309
0.000181397
0.000178572
0.000175831
0.00017317
0.000170584
0.00016807
0.000165627
0.000163252
0.000160943
0.000158701
0.000156523
0.000154409
0.000152356
0.000150362
0.000148425
0.000146541
0.000144706
0.000142916
0.000141168
0.00013946
0.000137788
0.000136152
0.000134548
0.000132979
0.000131445
0.000129946
0.000128481
0.00012705
0.000125653
0.000270597
0.000264379
0.000258455
0.000252805
0.000247407
0.000242242
0.000237294
0.000232546
0.000227985
0.000223598
0.000219372
0.000215298
0.000211366
0.00020757
0.000203902
0.000200358
0.000196931
0.000193618
0.000190412
0.00018731
0.000184304
0.000181392
0.000178567
0.000175825
0.000173163
0.000170576
0.000168062
0.000165618
0.000163243
0.000160934
0.000158692
0.000156514
0.000154401
0.000152349
0.000150357
0.000148421
0.000146537
0.000144703
0.000142913
0.000141164
0.000139452
0.000137777
0.000136136
0.000134528
0.000132953
0.000131412
0.000129906
0.000128435
0.000126998
0.000125595
0.000270597
0.000264379
0.000258455
0.000252805
0.000247406
0.000242241
0.000237292
0.000232544
0.000227982
0.000223593
0.000219366
0.000215291
0.000211358
0.00020756
0.000203892
0.000200346
0.000196919
0.000193605
0.000190399
0.000187296
0.000184289
0.000181376
0.00017855
0.000175807
0.000173144
0.000170557
0.000168042
0.000165597
0.000163221
0.000160912
0.00015867
0.000156494
0.000154381
0.000152331
0.00015034
0.000148406
0.000146524
0.000144689
0.000142899
0.000141149
0.000139436
0.000137757
0.000136111
0.000134498
0.000132918
0.000131372
0.00012986
0.000128382
0.00012694
0.000125531
0.000270597
0.000264379
0.000258455
0.000252805
0.000247405
0.00024224
0.00023729
0.000232542
0.00022798
0.000223591
0.000219364
0.000215289
0.000211357
0.00020756
0.000203893
0.000200349
0.000196923
0.00019361
0.000190404
0.000187302
0.000184296
0.000181383
0.000178557
0.000175814
0.000173151
0.000170563
0.000168047
0.000165602
0.000163226
0.000160917
0.000158675
0.000156499
0.000154387
0.000152338
0.000150349
0.000148415
0.000146533
0.000144699
0.000142907
0.000141154
0.000139437
0.000137754
0.000136103
0.000134484
0.000132897
0.000131344
0.000129824
0.00012834
0.000126891
0.000125476
0.000270597
0.000264379
0.000258454
0.000252802
0.000247401
0.000242233
0.000237281
0.000232529
0.000227963
0.000223571
0.00021934
0.000215261
0.000211325
0.000207525
0.000203855
0.000200308
0.00019688
0.000193565
0.000190358
0.000187253
0.000184246
0.000181331
0.000178504
0.00017576
0.000173096
0.000170507
0.000167991
0.000165545
0.000163168
0.00016086
0.000158619
0.000156444
0.000154335
0.000152288
0.000150301
0.000148369
0.000146489
0.000144655
0.000142863
0.00014111
0.000139391
0.000137705
0.000136051
0.000134428
0.000132837
0.000131279
0.000129756
0.000128267
0.000126813
0.000125394
0.000270597
0.000264379
0.000258453
0.000252801
0.0002474
0.000242233
0.000237282
0.000232532
0.000227969
0.000223578
0.00021935
0.000215274
0.000211341
0.000207543
0.000203876
0.000200331
0.000196905
0.000193591
0.000190385
0.000187281
0.000184274
0.000181358
0.00017853
0.000175785
0.000173119
0.000170529
0.000168011
0.000165564
0.000163186
0.000160877
0.000158635
0.00015646
0.000154351
0.000152304
0.000150316
0.000148384
0.000146502
0.000144666
0.000142871
0.000141114
0.00013939
0.000137699
0.000136039
0.000134409
0.000132811
0.000131246
0.000129715
0.000128219
0.000126758
0.000125332
0.000270597
0.000264377
0.000258444
0.000252783
0.000247371
0.000242191
0.000237228
0.000232465
0.00022789
0.000223489
0.000219251
0.000215166
0.000211226
0.000207424
0.000203751
0.000200204
0.000196775
0.00019346
0.000190252
0.000187147
0.000184139
0.000181224
0.000178396
0.000175651
0.000172985
0.000170395
0.000167878
0.000165433
0.000163057
0.00016075
0.000158512
0.00015634
0.000154234
0.000152191
0.000150206
0.000148276
0.000146397
0.000144562
0.000142768
0.000141011
0.000139288
0.000137596
0.000135934
0.000134303
0.000132703
0.000131135
0.000129602
0.000128104
0.00012664
0.000125212
0.000270598
0.000264377
0.000258448
0.000252793
0.000247391
0.00024222
0.000237266
0.00023251
0.00022794
0.000223543
0.000219308
0.000215224
0.000211285
0.000207481
0.000203808
0.000200258
0.000196826
0.000193507
0.000190295
0.000187185
0.000184172
0.000181251
0.000178417
0.000175666
0.000172995
0.000170399
0.000167877
0.000165427
0.000163047
0.000160737
0.000158495
0.000156321
0.000154212
0.000152166
0.000150178
0.000148245
0.000146362
0.000144524
0.000142727
0.000140966
0.000139239
0.000137543
0.000135877
0.000134242
0.000132639
0.00013107
0.000129535
0.000128037
0.000126577
0.000125154
0.000270598
0.000264334
0.000258351
0.000252645
0.000247195
0.000241984
0.000236997
0.000232216
0.000227627
0.000223217
0.000218973
0.000214885
0.000210944
0.000207143
0.000203474
0.000199931
0.000196507
0.000193198
0.000189996
0.000186898
0.000183897
0.000180988
0.000178167
0.00017543
0.000172772
0.000170191
0.000167684
0.00016525
0.000162886
0.000160593
0.000158369
0.000156213
0.000154123
0.000152096
0.000150128
0.000148215
0.000146353
0.000144537
0.000142763
0.000141027
0.000139326
0.000137658
0.000136023
0.000134422
0.000132857
0.000131331
0.000129847
0.000128409
0.00012702
0.000125689
0.000270607
0.000264365
0.000258424
0.000252756
0.000247346
0.000242181
0.000237254
0.000232546
0.000228042
0.000223726
0.000219585
0.000215608
0.000211785
0.000208106
0.000204564
0.000201151
0.000197862
0.000194688
0.000191626
0.000188667
0.000185807
0.000183041
0.000180363
0.000177768
0.000175253
0.000172815
0.000170449
0.000168156
0.000165933
0.00016378
0.000161698
0.000159685
0.000157739
0.00015586
0.000154043
0.000152286
0.000150583
0.000148931
0.000147324
0.000145759
0.000144233
0.000142744
0.000141294
0.000139885
0.000138522
0.000137211
0.000135963
0.000134789
0.00013371
0.000132761
0.000272559
0.000269184
0.000265962
0.000262878
0.000259915
0.000257054
0.000254277
0.000251576
0.000248947
0.000246386
0.00024389
0.000241457
0.000239084
0.00023677
0.000234513
0.00023231
0.000230162
0.000228065
0.000226018
0.00022402
0.000222068
0.000220162
0.0002183
0.00021648
0.000214701
0.000212963
0.000211265
0.000209606
0.000207987
0.000206408
0.000204868
0.000203366
0.000201901
0.000200469
0.000199071
0.000197701
0.000196358
0.000195039
0.000193741
0.000192461
0.000191199
0.000189954
0.000188725
0.000187513
0.000186319
0.000185143
0.000183984
0.000182841
0.000181712
0.000180592
0.000123025
6.25671e-05
4.86196e-05
4.67497e-05
4.59236e-05
4.53867e-05
4.47495e-05
4.41908e-05
4.36036e-05
4.30535e-05
4.25008e-05
4.19688e-05
4.14553e-05
4.09767e-05
4.06735e-05
4.08903e-05
4.30371e-05
5.0389e-05
6.84538e-05
0.000105037
0.000123896
6.31618e-05
4.88836e-05
4.69764e-05
4.61434e-05
4.56258e-05
4.49902e-05
4.4442e-05
4.38521e-05
4.33035e-05
4.27458e-05
4.22037e-05
4.16853e-05
4.11775e-05
4.08147e-05
4.08054e-05
4.24238e-05
4.88485e-05
6.66766e-05
0.000105614
0.000124681
6.37174e-05
4.9142e-05
4.71991e-05
4.63578e-05
4.58585e-05
4.52199e-05
4.46782e-05
4.40809e-05
4.35299e-05
4.29656e-05
4.242e-05
4.19e-05
4.13777e-05
4.09852e-05
4.08227e-05
4.20535e-05
4.7673e-05
6.51862e-05
0.000106133
0.000125412
6.4235e-05
4.9393e-05
4.74176e-05
4.65662e-05
4.60833e-05
4.54415e-05
4.4908e-05
4.43064e-05
4.37549e-05
4.3189e-05
4.26396e-05
4.21226e-05
4.15916e-05
4.1184e-05
4.09138e-05
4.1854e-05
4.67881e-05
6.39554e-05
0.000106563
0.000126074
6.47136e-05
4.96367e-05
4.76326e-05
4.6772e-05
4.63046e-05
4.56622e-05
4.51339e-05
4.45331e-05
4.39805e-05
4.34159e-05
4.28636e-05
4.23526e-05
4.18135e-05
4.14002e-05
4.10486e-05
4.17707e-05
4.61261e-05
6.29364e-05
0.000106926
0.000126676
6.51589e-05
4.98736e-05
4.78474e-05
4.69784e-05
4.65266e-05
4.58819e-05
4.53604e-05
4.47586e-05
4.42073e-05
4.36442e-05
4.30894e-05
4.2585e-05
4.20371e-05
4.16217e-05
4.12066e-05
4.17621e-05
4.5628e-05
6.20789e-05
0.00010723
0.000127224
6.55753e-05
5.01097e-05
4.80639e-05
4.7187e-05
4.67478e-05
4.60983e-05
4.55837e-05
4.49791e-05
4.44288e-05
4.3867e-05
4.33112e-05
4.28111e-05
4.2255e-05
4.18385e-05
4.13725e-05
4.17993e-05
4.52507e-05
6.13457e-05
0.000107491
0.000127733
6.5967e-05
5.03455e-05
4.82783e-05
4.73957e-05
4.6963e-05
4.63092e-05
4.57967e-05
4.51888e-05
4.46392e-05
4.408e-05
4.35228e-05
4.30279e-05
4.24639e-05
4.20478e-05
4.15409e-05
4.18683e-05
4.49689e-05
6.07207e-05
0.000107734
0.000128203
6.63344e-05
5.05788e-05
4.849e-05
4.75994e-05
4.71686e-05
4.65076e-05
4.59964e-05
4.53862e-05
4.48373e-05
4.42839e-05
4.37261e-05
4.32378e-05
4.2668e-05
4.22535e-05
4.1715e-05
4.19655e-05
4.47713e-05
6.02094e-05
0.000107976
0.000128631
6.66767e-05
5.08047e-05
4.8697e-05
4.77934e-05
4.73642e-05
4.66961e-05
4.61861e-05
4.55755e-05
4.50307e-05
4.4484e-05
4.39288e-05
4.3449e-05
4.28747e-05
4.24642e-05
4.19004e-05
4.20913e-05
4.46523e-05
5.98183e-05
0.000108222
0.000129019
6.69955e-05
5.10233e-05
4.88986e-05
4.79821e-05
4.7554e-05
4.68797e-05
4.63741e-05
4.57662e-05
4.52277e-05
4.46905e-05
4.41389e-05
4.36682e-05
4.30911e-05
4.26843e-05
4.20999e-05
4.2244e-05
4.46017e-05
5.95432e-05
0.000108466
0.000129371
6.72931e-05
5.12385e-05
4.90992e-05
4.81707e-05
4.77451e-05
4.7069e-05
4.65679e-05
4.59665e-05
4.54358e-05
4.49077e-05
4.43606e-05
4.38971e-05
4.33164e-05
4.29121e-05
4.23094e-05
4.24147e-05
4.46039e-05
5.9361e-05
0.000108695
0.000129696
6.7577e-05
5.1453e-05
4.93008e-05
4.83654e-05
4.79435e-05
4.72673e-05
4.6773e-05
4.61789e-05
4.56546e-05
4.51347e-05
4.45892e-05
4.41295e-05
4.3544e-05
4.31394e-05
4.25195e-05
4.25924e-05
4.46393e-05
5.92342e-05
0.000108901
0.000130002
6.78514e-05
5.16692e-05
4.95079e-05
4.85674e-05
4.81505e-05
4.74754e-05
4.69872e-05
4.63995e-05
4.58784e-05
4.53624e-05
4.48156e-05
4.43564e-05
4.37633e-05
4.33572e-05
4.27221e-05
4.27678e-05
4.4691e-05
5.91319e-05
0.000109089
0.000130292
6.81167e-05
5.18863e-05
4.97167e-05
4.87751e-05
4.83619e-05
4.76878e-05
4.72047e-05
4.66194e-05
4.60983e-05
4.55832e-05
4.50317e-05
4.45697e-05
4.39687e-05
4.35613e-05
4.29135e-05
4.29374e-05
4.47521e-05
5.90409e-05
0.000109265
0.000130566
6.83694e-05
5.21007e-05
4.99254e-05
4.89821e-05
4.85718e-05
4.78996e-05
4.74178e-05
4.68328e-05
4.63101e-05
4.57924e-05
4.52345e-05
4.47697e-05
4.41614e-05
4.37538e-05
4.30973e-05
4.31053e-05
4.48244e-05
5.89651e-05
0.000109442
0.000130813
6.86061e-05
5.23089e-05
5.01292e-05
4.91853e-05
4.87779e-05
4.8107e-05
4.76256e-05
4.70401e-05
4.65144e-05
4.59932e-05
4.54295e-05
4.49624e-05
4.43486e-05
4.39432e-05
4.32817e-05
4.3278e-05
4.49139e-05
5.89192e-05
0.000109624
0.00013103
6.88257e-05
5.25097e-05
5.03287e-05
4.93851e-05
4.89816e-05
4.83129e-05
4.7832e-05
4.72459e-05
4.67177e-05
4.61939e-05
4.56249e-05
4.5157e-05
4.45403e-05
4.4138e-05
4.34734e-05
4.34608e-05
4.50256e-05
5.89159e-05
0.000109809
0.000131218
6.90353e-05
5.27075e-05
5.0527e-05
4.95867e-05
4.91884e-05
4.85222e-05
4.8043e-05
4.74575e-05
4.69273e-05
4.64014e-05
4.58285e-05
4.53611e-05
4.47421e-05
4.43422e-05
4.36751e-05
4.3654e-05
4.51584e-05
5.89545e-05
0.000109987
0.000131391
6.92427e-05
5.29073e-05
5.07301e-05
4.97953e-05
4.94022e-05
4.87397e-05
4.82628e-05
4.7678e-05
4.71456e-05
4.66183e-05
4.60425e-05
4.5575e-05
4.49533e-05
4.45548e-05
4.38838e-05
4.38528e-05
4.53058e-05
5.90192e-05
0.000110151
0.000131561
6.94565e-05
5.31145e-05
5.09414e-05
5.00127e-05
4.96243e-05
4.89655e-05
4.84895e-05
4.79048e-05
4.73696e-05
4.68409e-05
4.62623e-05
4.57938e-05
4.51694e-05
4.47703e-05
4.40931e-05
4.40516e-05
4.54592e-05
5.909e-05
0.000110303
0.000131738
6.96786e-05
5.333e-05
5.11605e-05
5.02368e-05
4.98506e-05
4.91937e-05
4.87166e-05
4.81309e-05
4.75922e-05
4.70625e-05
4.64813e-05
4.60118e-05
4.53846e-05
4.49833e-05
4.42995e-05
4.42481e-05
4.56133e-05
5.91558e-05
0.000110453
0.000131921
6.99055e-05
5.35506e-05
5.13827e-05
5.04615e-05
5.00744e-05
4.94169e-05
4.89365e-05
4.83491e-05
4.78078e-05
4.72782e-05
4.66949e-05
4.62257e-05
4.55963e-05
4.5193e-05
4.45039e-05
4.44437e-05
4.57688e-05
5.92218e-05
0.000110611
0.000132104
7.01302e-05
5.37709e-05
5.16027e-05