/*--------------------------------*- C++ -*----------------------------------*\
  =========                 |
  \\      /  F ield         | OpenFOAM: The Open Source CFD Toolbox
   \\    /   O peration     | Website:  https://openfoam.org
    \\  /    A nd           | Version:  8
     \\/     M anipulation  |
\*---------------------------------------------------------------------------*/
FoamFile
{
    version     2.0;
    format      ascii;
    class       volScalarField;
    location    "1000";
    object      p;
}
// * * * * * * * * * * * * * * * * * * * * * * * * * * * * * * * * * * * * * //

dimensions      [1 -1 -2 0 0 0 0];

internalField   nonuniform List<scalar> 
8400
(
144429
297699
466231
647691
846929
1.06738e+06
1.3115e+06
1.58094e+06
1.87623e+06
2.19644e+06
2.53933e+06
2.90087e+06
3.27523e+06
3.65453e+06
4.02902e+06
4.38751e+06
4.71765e+06
5.00689e+06
5.24374e+06
5.41879e+06
5.52629e+06
5.56562e+06
5.54489e+06
5.49003e+06
5.42852e+06
5.33597e+06
5.15794e+06
4.9396e+06
4.74278e+06
4.61502e+06
4.56819e+06
4.5796e+06
4.60998e+06
4.62562e+06
4.61171e+06
4.57418e+06
4.53113e+06
4.50112e+06
4.49347e+06
4.50576e+06
4.52733e+06
4.54589e+06
4.55361e+06
4.5497e+06
4.53904e+06
4.52854e+06
4.52334e+06
4.5248e+06
4.53081e+06
4.53799e+06
132024
278868
440845
615896
808629
1.02247e+06
1.25986e+06
1.52234e+06
1.81043e+06
2.12318e+06
2.45843e+06
2.81231e+06
3.17909e+06
3.55106e+06
3.91871e+06
4.27114e+06
4.59633e+06
4.88209e+06
5.1175e+06
5.29391e+06
5.40645e+06
5.45598e+06
5.45129e+06
5.41188e+06
5.35652e+06
5.25966e+06
5.09423e+06
4.90017e+06
4.72821e+06
4.61563e+06
4.57046e+06
4.57358e+06
4.5933e+06
4.60283e+06
4.59043e+06
4.56061e+06
4.52739e+06
4.50489e+06
4.50012e+06
4.51082e+06
4.52845e+06
4.54333e+06
4.54931e+06
4.54597e+06
4.53735e+06
4.52897e+06
4.52489e+06
4.52603e+06
4.53052e+06
4.53539e+06
120219
259179
412038
578191
762276
967675
1.19682e+06
1.45114e+06
1.73108e+06
2.03576e+06
2.36312e+06
2.70939e+06
3.06898e+06
3.43438e+06
3.79619e+06
4.14366e+06
4.465e+06
4.74821e+06
4.98255e+06
5.16004e+06
5.27637e+06
5.33284e+06
5.33834e+06
5.31043e+06
5.25767e+06
5.15791e+06
5.00826e+06
4.84283e+06
4.70026e+06
4.60634e+06
4.56462e+06
4.55984e+06
4.56901e+06
4.5733e+06
4.56459e+06
4.5454e+06
4.52473e+06
4.51135e+06
4.50944e+06
4.51735e+06
4.52947e+06
4.53956e+06
4.54374e+06
4.54178e+06
4.53638e+06
4.5311e+06
4.52845e+06
4.52887e+06
4.53111e+06
4.53329e+06
102030
228502
368754
523123
695997
890607
1.10926e+06
1.35325e+06
1.62305e+06
1.91786e+06
2.23572e+06
2.5732e+06
2.9249e+06
3.28347e+06
3.63969e+06
3.98311e+06
4.30237e+06
4.58519e+06
4.82097e+06
5.00241e+06
5.12551e+06
5.19168e+06
5.20987e+06
5.19344e+06
5.13836e+06
5.03418e+06
4.89758e+06
4.75812e+06
4.64469e+06
4.57303e+06
4.54156e+06
4.53682e+06
4.54222e+06
4.54542e+06
4.54147e+06
4.53168e+06
4.52111e+06
4.51481e+06
4.51488e+06
4.52022e+06
4.52786e+06
4.5344e+06
4.53772e+06
4.53771e+06
4.53567e+06
4.53334e+06
4.53193e+06
4.53158e+06
4.53169e+06
4.53145e+06
86447.2
200279
327317
469360
630640
814143
1.02204e+06
1.25553e+06
1.51501e+06
1.7998e+06
2.10807e+06
2.4368e+06
2.7808e+06
3.13262e+06
3.48332e+06
3.82287e+06
4.14056e+06
4.42365e+06
4.66134e+06
4.84707e+06
4.97721e+06
5.05349e+06
5.08415e+06
5.07027e+06
5.00699e+06
4.90345e+06
4.78095e+06
4.66642e+06
4.58176e+06
4.53446e+06
4.51709e+06
4.51666e+06
4.52167e+06
4.52533e+06
4.52548e+06
4.52269e+06
4.51918e+06
4.51771e+06
4.51919e+06
4.52282e+06
4.52738e+06
4.53152e+06
4.5344e+06
4.53583e+06
4.53612e+06
4.53573e+06
4.53504e+06
4.53407e+06
4.53269e+06
4.53077e+06
70427.8
171050
285008
415140
565379
738492
936458
1.16028e+06
1.41025e+06
1.68589e+06
1.98563e+06
2.30672e+06
2.64435e+06
2.99081e+06
3.33697e+06
3.67331e+06
3.99032e+06
4.27472e+06
4.51537e+06
4.70648e+06
4.84472e+06
4.9305e+06
4.96435e+06
4.94524e+06
4.87918e+06
4.78076e+06
4.67368e+06
4.5838e+06
4.52722e+06
4.50406e+06
4.49989e+06
4.50262e+06
4.50654e+06
4.51013e+06
4.51354e+06
4.516e+06
4.51697e+06
4.51841e+06
4.52093e+06
4.52354e+06
4.52664e+06
4.52975e+06
4.53255e+06
4.53483e+06
4.5364e+06
4.53706e+06
4.53694e+06
4.53582e+06
4.53389e+06
4.5313e+06
57565.7
146193
248429
368098
508758
672946
862404
1.07798e+06
1.31983e+06
1.58757e+06
1.87993e+06
2.1947e+06
2.52777e+06
2.87093e+06
3.21428e+06
3.54823e+06
3.86505e+06
4.15165e+06
4.39612e+06
4.59278e+06
4.73559e+06
4.82134e+06
4.85216e+06
4.83175e+06
4.76838e+06
4.67914e+06
4.59009e+06
4.52648e+06
4.49768e+06
4.49587e+06
4.50001e+06
4.5013e+06
4.50223e+06
4.50487e+06
4.50994e+06
4.51539e+06
4.518e+06
4.51902e+06
4.52086e+06
4.52341e+06
4.52649e+06
4.5296e+06
4.53245e+06
4.5348e+06
4.53643e+06
4.53702e+06
4.53685e+06
4.53572e+06
4.53378e+06
4.53111e+06
48427.2
126514
219115
330779
464265
621787
804810
1.01415e+06
1.2499e+06
1.51167e+06
1.79834e+06
2.10814e+06
2.4381e+06
2.78006e+06
3.12331e+06
3.45718e+06
3.77419e+06
4.06358e+06
4.31021e+06
4.50588e+06
4.64583e+06
4.72836e+06
4.75717e+06
4.7386e+06
4.68211e+06
4.60634e+06
4.53953e+06
4.50425e+06
4.49833e+06
4.50417e+06
4.50757e+06
4.5061e+06
4.50378e+06
4.50425e+06
4.50756e+06
4.51323e+06
4.51797e+06
4.51958e+06
4.52078e+06
4.52324e+06
4.52633e+06
4.52944e+06
4.5323e+06
4.53467e+06
4.53636e+06
4.5369e+06
4.53662e+06
4.53543e+06
4.53344e+06
4.53072e+06
45040.4
116452
202805
309805
438969
592259
771068
976250
1.208e+06
1.46603e+06
1.74918e+06
2.05525e+06
2.38173e+06
2.72321e+06
3.06852e+06
3.40538e+06
3.72305e+06
4.01199e+06
4.25778e+06
4.44926e+06
4.58165e+06
4.65661e+06
4.68218e+06
4.66717e+06
4.62068e+06
4.56254e+06
4.52149e+06
4.50904e+06
4.5105e+06
4.5104e+06
4.50931e+06
4.50824e+06
4.50696e+06
4.50747e+06
4.50998e+06
4.51398e+06
4.51773e+06
4.5198e+06
4.52124e+06
4.52332e+06
4.52595e+06
4.52869e+06
4.5312e+06
4.5332e+06
4.53459e+06
4.53516e+06
4.53492e+06
4.53383e+06
4.53194e+06
4.52931e+06
42108.6
115796
202566
308445
435976
587152
763508
966028
1.19524e+06
1.45125e+06
1.73341e+06
2.03987e+06
2.36738e+06
2.71078e+06
3.05889e+06
3.39874e+06
3.71764e+06
4.00373e+06
4.24333e+06
4.42444e+06
4.5429e+06
4.60468e+06
4.62428e+06
4.61302e+06
4.57829e+06
4.54044e+06
4.52195e+06
4.518e+06
4.51492e+06
4.51321e+06
4.51126e+06
4.50962e+06
4.50855e+06
4.50887e+06
4.51076e+06
4.51374e+06
4.51678e+06
4.5191e+06
4.521e+06
4.52304e+06
4.52531e+06
4.52757e+06
4.5296e+06
4.53122e+06
4.53232e+06
4.53275e+06
4.53243e+06
4.53135e+06
4.52955e+06
4.52707e+06
39282.1
123175
216379
325703
456228
609981
788214
992013
1.22231e+06
1.47995e+06
1.76511e+06
2.07611e+06
2.4086e+06
2.7548e+06
3.10296e+06
3.44011e+06
3.75378e+06
4.0324e+06
4.26142e+06
4.42727e+06
4.52519e+06
4.56733e+06
4.57804e+06
4.56979e+06
4.54718e+06
4.52926e+06
4.52394e+06
4.51939e+06
4.51649e+06
4.515e+06
4.51286e+06
4.51112e+06
4.5103e+06
4.51059e+06
4.51198e+06
4.51414e+06
4.51649e+06
4.51859e+06
4.52048e+06
4.52236e+06
4.52424e+06
4.52603e+06
4.52763e+06
4.52888e+06
4.52968e+06
4.5299e+06
4.52946e+06
4.52837e+06
4.52666e+06
4.52433e+06
47367
152189
258918
377743
516535
677441
861122
1.06867e+06
1.30181e+06
1.56247e+06
1.85183e+06
2.16821e+06
2.50551e+06
2.8527e+06
3.19583e+06
3.52172e+06
3.82048e+06
4.08484e+06
4.29838e+06
4.44568e+06
4.517e+06
4.53494e+06
4.53758e+06
4.53359e+06
4.52454e+06
4.5227e+06
4.51961e+06
4.51701e+06
4.51656e+06
4.51482e+06
4.51269e+06
4.51126e+06
4.51074e+06
4.51109e+06
4.51218e+06
4.51381e+06
4.51568e+06
4.51752e+06
4.51926e+06
4.52091e+06
4.52247e+06
4.5239e+06
4.52513e+06
4.52605e+06
4.52654e+06
4.5265e+06
4.52591e+06
4.52476e+06
4.52305e+06
4.52078e+06
77621.9
216257
342091
475367
627181
799273
991160
1.20344e+06
1.43876e+06
1.701e+06
1.99341e+06
2.31509e+06
2.65726e+06
3.00316e+06
3.33333e+06
3.63252e+06
3.9002e+06
4.14016e+06
4.32973e+06
4.45735e+06
4.49706e+06
4.4937e+06
4.49723e+06
4.50435e+06
4.5107e+06
4.51112e+06
4.51256e+06
4.51469e+06
4.51452e+06
4.51296e+06
4.51161e+06
4.51096e+06
4.51091e+06
4.51144e+06
4.51246e+06
4.51384e+06
4.5154e+06
4.51698e+06
4.51849e+06
4.51988e+06
4.52114e+06
4.52222e+06
4.5231e+06
4.52369e+06
4.52388e+06
4.52361e+06
4.52286e+06
4.52158e+06
4.51982e+06
4.51758e+06
101542
303168
460370
616509
789997
980963
1.18586e+06
1.40347e+06
1.63665e+06
1.89313e+06
2.18209e+06
2.50641e+06
2.8546e+06
3.2e+06
3.51098e+06
3.76073e+06
3.97335e+06
4.17752e+06
4.32609e+06
4.4366e+06
4.44221e+06
4.43733e+06
4.4589e+06
4.48066e+06
4.4913e+06
4.50043e+06
4.50756e+06
4.50995e+06
4.50986e+06
4.50925e+06
4.50898e+06
4.5091e+06
4.5095e+06
4.51022e+06
4.51122e+06
4.51246e+06
4.51381e+06
4.51517e+06
4.51645e+06
4.51761e+06
4.51861e+06
4.51943e+06
4.52005e+06
4.52036e+06
4.5203e+06
4.51981e+06
4.51883e+06
4.51736e+06
4.51548e+06
4.51315e+06
174234
436921
631682
821187
1.02797e+06
1.24878e+06
1.47334e+06
1.69333e+06
1.90832e+06
2.13362e+06
2.39505e+06
2.70872e+06
3.06323e+06
3.41847e+06
3.71961e+06
3.89256e+06
4.02372e+06
4.19378e+06
4.27442e+06
4.3753e+06
4.36837e+06
4.39806e+06
4.42463e+06
4.44976e+06
4.47787e+06
4.49407e+06
4.50079e+06
4.50322e+06
4.50458e+06
4.50571e+06
4.50675e+06
4.50775e+06
4.5088e+06
4.50993e+06
4.51112e+06
4.51241e+06
4.51373e+06
4.51499e+06
4.51613e+06
4.51709e+06
4.51788e+06
4.51848e+06
4.51884e+06
4.51889e+06
4.51858e+06
4.51783e+06
4.51662e+06
4.51499e+06
4.51295e+06
4.5105e+06
207902
592091
859261
1.1097e+06
1.37576e+06
1.64868e+06
1.90636e+06
2.12205e+06
2.27877e+06
2.40763e+06
2.5781e+06
2.83835e+06
3.18475e+06
3.56838e+06
3.90937e+06
3.98658e+06
4.01853e+06
4.19429e+06
4.2133e+06
4.30956e+06
4.36349e+06
4.33645e+06
4.39725e+06
4.44383e+06
4.47035e+06
4.48378e+06
4.49062e+06
4.49491e+06
4.49825e+06
4.50089e+06
4.50295e+06
4.50461e+06
4.50609e+06
4.50748e+06
4.50879e+06
4.51007e+06
4.51128e+06
4.5124e+06
4.51336e+06
4.51415e+06
4.51476e+06
4.51514e+06
4.51526e+06
4.51506e+06
4.51448e+06
4.51347e+06
4.51202e+06
4.51012e+06
4.50776e+06
4.50499e+06
298495
748621
1.06434e+06
1.36946e+06
1.70813e+06
2.06931e+06
2.41103e+06
2.65418e+06
2.71343e+06
2.64839e+06
2.63072e+06
2.76224e+06
3.05231e+06
3.46767e+06
3.95384e+06
3.99426e+06
3.93934e+06
4.15328e+06
4.26807e+06
4.20744e+06
4.29865e+06
4.35856e+06
4.40631e+06
4.4395e+06
4.45976e+06
4.47288e+06
4.48213e+06
4.48901e+06
4.49423e+06
4.49816e+06
4.50118e+06
4.50359e+06
4.50563e+06
4.50743e+06
4.50904e+06
4.51048e+06
4.51179e+06
4.51294e+06
4.51392e+06
4.51469e+06
4.51525e+06
4.51556e+06
4.5156e+06
4.51529e+06
4.51457e+06
4.51342e+06
4.51177e+06
4.5096e+06
4.50692e+06
4.50383e+06
331446
1.01844e+06
1.49244e+06
1.92987e+06
2.40032e+06
2.89502e+06
3.3558e+06
3.61408e+06
3.44363e+06
3.01472e+06
2.70386e+06
2.62582e+06
2.78348e+06
3.18382e+06
3.81034e+06
4.11026e+06
3.97176e+06
3.96648e+06
4.17417e+06
4.25681e+06
4.32041e+06
4.36855e+06
4.40312e+06
4.42934e+06
4.44899e+06
4.46376e+06
4.47481e+06
4.48305e+06
4.48924e+06
4.49391e+06
4.49753e+06
4.50043e+06
4.50281e+06
4.50482e+06
4.50652e+06
4.508e+06
4.50925e+06
4.5103e+06
4.51113e+06
4.51172e+06
4.51204e+06
4.51209e+06
4.5118e+06
4.51112e+06
4.51001e+06
4.50843e+06
4.50633e+06
4.50364e+06
4.50035e+06
4.49661e+06
449109
1.15612e+06
1.63527e+06
2.07516e+06
2.55133e+06
3.05259e+06
3.50797e+06
3.74062e+06
3.60841e+06
3.16756e+06
2.82823e+06
2.69243e+06
2.73864e+06
2.97517e+06
3.40652e+06
3.87275e+06
4.01591e+06
4.08302e+06
4.19274e+06
4.26706e+06
4.31981e+06
4.36269e+06
4.39653e+06
4.42324e+06
4.444e+06
4.45981e+06
4.47173e+06
4.48073e+06
4.48761e+06
4.4929e+06
4.49704e+06
4.50034e+06
4.50303e+06
4.50525e+06
4.50712e+06
4.50871e+06
4.51004e+06
4.51116e+06
4.51206e+06
4.51273e+06
4.51315e+06
4.5133e+06
4.51313e+06
4.51258e+06
4.51162e+06
4.5102e+06
4.50826e+06
4.50565e+06
4.50217e+06
4.49781e+06
500365
1.18856e+06
1.68389e+06
2.0855e+06
2.48814e+06
2.91016e+06
3.30279e+06
3.53589e+06
3.44188e+06
3.15407e+06
2.94965e+06
2.88873e+06
2.97914e+06
3.21043e+06
3.53944e+06
3.85334e+06
4.01768e+06
4.10169e+06
4.18864e+06
4.26255e+06
4.31803e+06
4.36151e+06
4.39543e+06
4.42165e+06
4.44184e+06
4.45731e+06
4.46918e+06
4.47832e+06
4.48539e+06
4.49089e+06
4.49524e+06
4.49873e+06
4.50156e+06
4.50389e+06
4.50582e+06
4.50743e+06
4.50877e+06
4.50986e+06
4.5107e+06
4.51127e+06
4.51156e+06
4.51151e+06
4.51108e+06
4.51022e+06
4.50888e+06
4.50697e+06
4.5044e+06
4.50086e+06
4.49578e+06
4.48905e+06
4.99539e+06
4.99488e+06
4.99462e+06
4.99451e+06
4.99445e+06
4.99441e+06
4.99437e+06
4.99435e+06
4.99434e+06
4.99433e+06
4.99433e+06
4.99434e+06
4.99434e+06
4.99435e+06
4.99435e+06
4.99436e+06
4.99436e+06
4.99436e+06
4.99436e+06
4.99436e+06
4.99436e+06
4.99435e+06
4.99435e+06
4.99436e+06
4.99437e+06
4.99438e+06
4.9944e+06
4.99443e+06
4.99446e+06
4.99449e+06
4.99452e+06
4.99456e+06
4.99459e+06
4.99462e+06
4.99464e+06
4.99466e+06
4.99467e+06
4.99468e+06
4.99468e+06
4.99468e+06
4.99468e+06
4.99467e+06
4.99467e+06
4.99467e+06
4.99466e+06
4.99465e+06
4.99464e+06
4.99462e+06
4.99458e+06
4.99452e+06
4.9937e+06
4.99398e+06
4.99407e+06
4.99409e+06
4.99411e+06
4.99412e+06
4.99413e+06
4.99414e+06
4.99414e+06
4.99415e+06
4.99416e+06
4.99417e+06
4.99419e+06
4.9942e+06
4.99421e+06
4.99422e+06
4.99423e+06
4.99423e+06
4.99423e+06
4.99423e+06
4.99423e+06
4.99423e+06
4.99423e+06
4.99424e+06
4.99425e+06
4.99427e+06
4.99429e+06
4.99431e+06
4.99434e+06
4.99438e+06
4.99442e+06
4.99445e+06
4.99449e+06
4.99452e+06
4.99454e+06
4.99456e+06
4.99457e+06
4.99458e+06
4.99458e+06
4.99458e+06
4.99458e+06
4.99457e+06
4.99457e+06
4.99456e+06
4.99456e+06
4.99455e+06
4.99455e+06
4.99453e+06
4.9945e+06
4.99447e+06
4.99406e+06
4.99419e+06
4.99426e+06
4.99425e+06
4.99423e+06
4.99421e+06
4.99419e+06
4.99418e+06
4.99417e+06
4.99416e+06
4.99416e+06
4.99416e+06
4.99416e+06
4.99417e+06
4.99417e+06
4.99418e+06
4.99418e+06
4.99418e+06
4.99418e+06
4.99417e+06
4.99417e+06
4.99417e+06
4.99416e+06
4.99417e+06
4.99418e+06
4.99419e+06
4.99421e+06
4.99424e+06
4.99427e+06
4.9943e+06
4.99434e+06
4.99437e+06
4.99441e+06
4.99444e+06
4.99446e+06
4.99448e+06
4.99449e+06
4.99449e+06
4.9945e+06
4.9945e+06
4.99449e+06
4.99449e+06
4.99449e+06
4.99449e+06
4.99449e+06
4.99448e+06
4.99448e+06
4.99447e+06
4.99446e+06
4.99444e+06
4.99398e+06
4.994e+06
4.99401e+06
4.99399e+06
4.99397e+06
4.99396e+06
4.99395e+06
4.99395e+06
4.99395e+06
4.99396e+06
4.99396e+06
4.99397e+06
4.99398e+06
4.99399e+06
4.994e+06
4.99401e+06
4.99402e+06
4.99402e+06
4.99403e+06
4.99403e+06
4.99403e+06
4.99403e+06
4.99403e+06
4.99404e+06
4.99405e+06
4.99406e+06
4.99409e+06
4.99412e+06
4.99415e+06
4.99419e+06
4.99422e+06
4.99426e+06
4.9943e+06
4.99433e+06
4.99435e+06
4.99437e+06
4.99438e+06
4.99438e+06
4.99439e+06
4.99439e+06
4.99439e+06
4.99439e+06
4.99439e+06
4.99439e+06
4.99439e+06
4.9944e+06
4.9944e+06
4.99441e+06
4.99441e+06
4.9944e+06
4.99392e+06
4.99393e+06
4.99394e+06
4.99394e+06
4.99394e+06
4.99394e+06
4.99393e+06
4.99393e+06
4.99393e+06
4.99393e+06
4.99393e+06
4.99394e+06
4.99395e+06
4.99395e+06
4.99396e+06
4.99397e+06
4.99397e+06
4.99397e+06
4.99397e+06
4.99397e+06
4.99396e+06
4.99396e+06
4.99396e+06
4.99397e+06
4.99398e+06
4.994e+06
4.99402e+06
4.99405e+06
4.99408e+06
4.99412e+06
4.99416e+06
4.99419e+06
4.99423e+06
4.99425e+06
4.99428e+06
4.99429e+06
4.9943e+06
4.99431e+06
4.99431e+06
4.99431e+06
4.99431e+06
4.99431e+06
4.99432e+06
4.99432e+06
4.99433e+06
4.99434e+06
4.99436e+06
4.99437e+06
4.99438e+06
4.99439e+06
4.99383e+06
4.99383e+06
4.99383e+06
4.99382e+06
4.99381e+06
4.9938e+06
4.99379e+06
4.99378e+06
4.99378e+06
4.99378e+06
4.99378e+06
4.99379e+06
4.99379e+06
4.9938e+06
4.99381e+06
4.99382e+06
4.99382e+06
4.99382e+06
4.99383e+06
4.99383e+06
4.99383e+06
4.99383e+06
4.99383e+06
4.99384e+06
4.99385e+06
4.99387e+06
4.9939e+06
4.99393e+06
4.99396e+06
4.994e+06
4.99404e+06
4.99408e+06
4.99411e+06
4.99414e+06
4.99417e+06
4.99418e+06
4.99419e+06
4.9942e+06
4.9942e+06
4.99421e+06
4.99421e+06
4.99421e+06
4.99422e+06
4.99423e+06
4.99425e+06
4.99427e+06
4.99429e+06
4.99431e+06
4.99433e+06
4.99435e+06
4.99374e+06
4.99374e+06
4.99373e+06
4.99372e+06
4.99372e+06
4.99371e+06
4.9937e+06
4.9937e+06
4.9937e+06
4.9937e+06
4.9937e+06
4.99371e+06
4.99372e+06
4.99373e+06
4.99374e+06
4.99374e+06
4.99375e+06
4.99375e+06
4.99375e+06
4.99375e+06
4.99375e+06
4.99375e+06
4.99376e+06
4.99377e+06
4.99378e+06
4.9938e+06
4.99383e+06
4.99386e+06
4.99389e+06
4.99393e+06
4.99397e+06
4.99401e+06
4.99404e+06
4.99407e+06
4.99409e+06
4.99411e+06
4.99412e+06
4.99412e+06
4.99413e+06
4.99413e+06
4.99413e+06
4.99414e+06
4.99415e+06
4.99417e+06
4.99419e+06
4.99422e+06
4.99425e+06
4.99428e+06
4.99431e+06
4.99434e+06
4.99364e+06
4.99364e+06
4.99363e+06
4.99362e+06
4.99361e+06
4.9936e+06
4.99359e+06
4.99359e+06
4.99358e+06
4.99358e+06
4.99358e+06
4.99359e+06
4.9936e+06
4.9936e+06
4.99361e+06
4.99362e+06
4.99362e+06
4.99362e+06
4.99363e+06
4.99363e+06
4.99363e+06
4.99363e+06
4.99364e+06
4.99365e+06
4.99366e+06
4.99369e+06
4.99371e+06
4.99375e+06
4.99379e+06
4.99383e+06
4.99387e+06
4.9939e+06
4.99394e+06
4.99396e+06
4.99399e+06
4.994e+06
4.99401e+06
4.99402e+06
4.99402e+06
4.99403e+06
4.99404e+06
4.99405e+06
4.99406e+06
4.99409e+06
4.99412e+06
4.99415e+06
4.99419e+06
4.99423e+06
4.99427e+06
4.99431e+06
4.99354e+06
4.99354e+06
4.99353e+06
4.99352e+06
4.99351e+06
4.9935e+06
4.99349e+06
4.99349e+06
4.99348e+06
4.99348e+06
4.99349e+06
4.99349e+06
4.9935e+06
4.99351e+06
4.99351e+06
4.99352e+06
4.99353e+06
4.99353e+06
4.99353e+06
4.99353e+06
4.99354e+06
4.99354e+06
4.99355e+06
4.99356e+06
4.99358e+06
4.9936e+06
4.99363e+06
4.99367e+06
4.99371e+06
4.99375e+06
4.99379e+06
4.99382e+06
4.99386e+06
4.99388e+06
4.9939e+06
4.99392e+06
4.99393e+06
4.99394e+06
4.99394e+06
4.99395e+06
4.99396e+06
4.99397e+06
4.99399e+06
4.99402e+06
4.99406e+06
4.9941e+06
4.99414e+06
4.99419e+06
4.99424e+06
4.99429e+06
4.99344e+06
4.99344e+06
4.99343e+06
4.99342e+06
4.99341e+06
4.9934e+06
4.99339e+06
4.99338e+06
4.99338e+06
4.99338e+06
4.99338e+06
4.99338e+06
4.99339e+06
4.9934e+06
4.9934e+06
4.99341e+06
4.99341e+06
4.99342e+06
4.99342e+06
4.99342e+06
4.99343e+06
4.99343e+06
4.99344e+06
4.99346e+06
4.99348e+06
4.9935e+06
4.99353e+06
4.99357e+06
4.99361e+06
4.99365e+06
4.99369e+06
4.99373e+06
4.99376e+06
4.99379e+06
4.99381e+06
4.99382e+06
4.99383e+06
4.99384e+06
4.99385e+06
4.99385e+06
4.99387e+06
4.99389e+06
4.99391e+06
4.99395e+06
4.99399e+06
4.99404e+06
4.99409e+06
4.99415e+06
4.99421e+06
4.99426e+06
4.99334e+06
4.99334e+06
4.99333e+06
4.99332e+06
4.99331e+06
4.9933e+06
4.99329e+06
4.99328e+06
4.99327e+06
4.99327e+06
4.99327e+06
4.99328e+06
4.99328e+06
4.99329e+06
4.9933e+06
4.9933e+06
4.99331e+06
4.99331e+06
4.99332e+06
4.99332e+06
4.99332e+06
4.99333e+06
4.99334e+06
4.99336e+06
4.99338e+06
4.99341e+06
4.99344e+06
4.99348e+06
4.99352e+06
4.99356e+06
4.9936e+06
4.99364e+06
4.99367e+06
4.9937e+06
4.99372e+06
4.99373e+06
4.99374e+06
4.99375e+06
4.99375e+06
4.99377e+06
4.99378e+06
4.9938e+06
4.99384e+06
4.99388e+06
4.99392e+06
4.99398e+06
4.99404e+06
4.99411e+06
4.99417e+06
4.99424e+06
4.99324e+06
4.99324e+06
4.99323e+06
4.99322e+06
4.99321e+06
4.9932e+06
4.99319e+06
4.99318e+06
4.99317e+06
4.99317e+06
4.99317e+06
4.99317e+06
4.99318e+06
4.99319e+06
4.99319e+06
4.9932e+06
4.99321e+06
4.99321e+06
4.99322e+06
4.99322e+06
4.99323e+06
4.99324e+06
4.99325e+06
4.99327e+06
4.99329e+06
4.99332e+06
4.99335e+06
4.99339e+06
4.99344e+06
4.99348e+06
4.99352e+06
4.99356e+06
4.99359e+06
4.99361e+06
4.99363e+06
4.99364e+06
4.99365e+06
4.99366e+06
4.99367e+06
4.99368e+06
4.9937e+06
4.99372e+06
4.99376e+06
4.99381e+06
4.99386e+06
4.99392e+06
4.99399e+06
4.99407e+06
4.99414e+06
4.99422e+06
4.99314e+06
4.99314e+06
4.99313e+06
4.99312e+06
4.99311e+06
4.99309e+06
4.99308e+06
4.99307e+06
4.99307e+06
4.99306e+06
4.99306e+06
4.99306e+06
4.99307e+06
4.99307e+06
4.99308e+06
4.99308e+06
4.99309e+06
4.99309e+06
4.9931e+06
4.9931e+06
4.99311e+06
4.99312e+06
4.99314e+06
4.99316e+06
4.99318e+06
4.99321e+06
4.99325e+06
4.99329e+06
4.99333e+06
4.99338e+06
4.99342e+06
4.99345e+06
4.99349e+06
4.99351e+06
4.99353e+06
4.99354e+06
4.99355e+06
4.99356e+06
4.99357e+06
4.99358e+06
4.99361e+06
4.99364e+06
4.99368e+06
4.99373e+06
4.99379e+06
4.99386e+06
4.99394e+06
4.99402e+06
4.9941e+06
4.99418e+06
4.99304e+06
4.99303e+06
4.99303e+06
4.99302e+06
4.99301e+06
4.993e+06
4.99299e+06
4.99298e+06
4.99297e+06
4.99297e+06
4.99297e+06
4.99297e+06
4.99298e+06
4.99298e+06
4.99299e+06
4.993e+06
4.993e+06
4.99301e+06
4.99302e+06
4.99302e+06
4.99303e+06
4.99304e+06
4.99306e+06
4.99308e+06
4.9931e+06
4.99314e+06
4.99317e+06
4.99322e+06
4.99326e+06
4.9933e+06
4.99334e+06
4.99338e+06
4.99341e+06
4.99343e+06
4.99345e+06
4.99346e+06
4.99347e+06
4.99348e+06
4.99349e+06
4.9935e+06
4.99353e+06
4.99356e+06
4.99361e+06
4.99366e+06
4.99373e+06
4.99381e+06
4.99389e+06
4.99398e+06
4.99407e+06
4.99416e+06
4.99293e+06
4.99293e+06
4.99293e+06
4.99292e+06
4.9929e+06
4.99289e+06
4.99287e+06
4.99286e+06
4.99285e+06
4.99284e+06
4.99284e+06
4.99284e+06
4.99284e+06
4.99285e+06
4.99285e+06
4.99286e+06
4.99287e+06
4.99287e+06
4.99288e+06
4.99289e+06
4.9929e+06
4.99291e+06
4.99293e+06
4.99296e+06
4.99298e+06
4.99302e+06
4.99306e+06
4.9931e+06
4.99315e+06
4.99319e+06
4.99323e+06
4.99327e+06
4.9933e+06
4.99332e+06
4.99334e+06
4.99335e+06
4.99336e+06
4.99337e+06
4.99338e+06
4.9934e+06
4.99343e+06
4.99347e+06
4.99352e+06
4.99358e+06
4.99365e+06
4.99374e+06
4.99383e+06
4.99392e+06
4.99402e+06
4.99412e+06
4.99282e+06
4.99283e+06
4.99284e+06
4.99284e+06
4.99283e+06
4.99282e+06
4.99281e+06
4.99281e+06
4.9928e+06
4.99279e+06
4.99279e+06
4.99279e+06
4.99279e+06
4.99279e+06
4.9928e+06
4.9928e+06
4.99281e+06
4.99281e+06
4.99282e+06
4.99283e+06
4.99284e+06
4.99285e+06
4.99287e+06
4.99289e+06
4.99292e+06
4.99295e+06
4.99299e+06
4.99303e+06
4.99308e+06
4.99312e+06
4.99316e+06
4.99319e+06
4.99322e+06
4.99325e+06
4.99326e+06
4.99327e+06
4.99328e+06
4.99329e+06
4.99331e+06
4.99333e+06
4.99336e+06
4.9934e+06
4.99345e+06
4.99352e+06
4.99359e+06
4.99368e+06
4.99378e+06
4.99388e+06
4.99399e+06
4.99409e+06
4.99268e+06
4.9927e+06
4.99271e+06
4.99269e+06
4.99267e+06
4.99265e+06
4.99264e+06
4.99263e+06
4.99262e+06
4.99261e+06
4.99261e+06
4.99262e+06
4.99262e+06
4.99263e+06
4.99264e+06
4.99264e+06
4.99265e+06
4.99266e+06
4.99267e+06
4.99268e+06
4.9927e+06
4.99271e+06
4.99273e+06
4.99276e+06
4.99279e+06
4.99283e+06
4.99287e+06
4.99291e+06
4.99296e+06
4.993e+06
4.99304e+06
4.99308e+06
4.99311e+06
4.99313e+06
4.99315e+06
4.99316e+06
4.99317e+06
4.99318e+06
4.9932e+06
4.99322e+06
4.99325e+06
4.9933e+06
4.99336e+06
4.99343e+06
4.99351e+06
4.9936e+06
4.9937e+06
4.99381e+06
4.99393e+06
4.99404e+06
4.99256e+06
4.99269e+06
4.99276e+06
4.99275e+06
4.99273e+06
4.9927e+06
4.99268e+06
4.99265e+06
4.99263e+06
4.99262e+06
4.99261e+06
4.9926e+06
4.9926e+06
4.9926e+06
4.9926e+06
4.9926e+06
4.99261e+06
4.99261e+06
4.99262e+06
4.99263e+06
4.99264e+06
4.99265e+06
4.99267e+06
4.9927e+06
4.99273e+06
4.99276e+06
4.9928e+06
4.99284e+06
4.99289e+06
4.99293e+06
4.99297e+06
4.993e+06
4.99303e+06
4.99305e+06
4.99307e+06
4.99308e+06
4.99309e+06
4.9931e+06
4.99312e+06
4.99314e+06
4.99318e+06
4.99323e+06
4.99329e+06
4.99336e+06
4.99344e+06
4.99354e+06
4.99365e+06
4.99376e+06
4.99388e+06
4.994e+06
4.992e+06
4.99229e+06
4.99237e+06
4.99239e+06
4.99241e+06
4.99241e+06
4.99241e+06
4.99241e+06
4.99241e+06
4.99241e+06
4.99242e+06
4.99242e+06
4.99243e+06
4.99243e+06
4.99244e+06
4.99245e+06
4.99246e+06
4.99247e+06
4.99248e+06
4.99249e+06
4.99251e+06
4.99252e+06
4.99255e+06
4.99257e+06
4.99261e+06
4.99264e+06
4.99269e+06
4.99273e+06
4.99277e+06
4.99281e+06
4.99285e+06
4.99289e+06
4.99291e+06
4.99294e+06
4.99295e+06
4.99297e+06
4.99298e+06
4.99299e+06
4.99301e+06
4.99304e+06
4.99308e+06
4.99313e+06
4.99319e+06
4.99326e+06
4.99335e+06
4.99345e+06
4.99356e+06
4.99368e+06
4.99381e+06
4.99394e+06
4.9935e+06
4.99299e+06
4.99272e+06
4.99262e+06
4.99255e+06
4.9925e+06
4.99246e+06
4.99243e+06
4.99241e+06
4.9924e+06
4.99239e+06
4.99238e+06
4.99238e+06
4.99238e+06
4.99238e+06
4.99239e+06
4.99239e+06
4.9924e+06
4.99241e+06
4.99242e+06
4.99243e+06
4.99245e+06
4.99247e+06
4.9925e+06
4.99253e+06
4.99257e+06
4.99261e+06
4.99265e+06
4.99269e+06
4.99273e+06
4.99277e+06
4.9928e+06
4.99283e+06
4.99285e+06
4.99286e+06
4.99288e+06
4.99289e+06
4.99291e+06
4.99293e+06
4.99295e+06
4.99299e+06
4.99304e+06
4.99311e+06
4.99318e+06
4.99327e+06
4.99337e+06
4.99348e+06
4.9936e+06
4.99374e+06
4.99388e+06
5.00176e+06
5.00221e+06
5.00246e+06
5.00297e+06
5.00339e+06
5.00396e+06
5.0045e+06
5.00511e+06
5.00571e+06
5.00635e+06
5.00698e+06
5.0076e+06
5.0082e+06
5.00878e+06
5.00931e+06
5.00979e+06
5.01018e+06
5.01053e+06
5.01073e+06
5.01091e+06
5.00228e+06
5.00271e+06
5.00294e+06
5.00342e+06
5.0038e+06
5.00432e+06
5.00481e+06
5.00537e+06
5.0059e+06
5.00648e+06
5.00703e+06
5.00759e+06
5.00812e+06
5.00863e+06
5.00908e+06
5.0095e+06
5.00983e+06
5.01014e+06
5.0103e+06
5.01048e+06
5.00273e+06
5.00313e+06
5.00335e+06
5.00379e+06
5.00414e+06
5.00462e+06
5.00506e+06
5.00557e+06
5.00605e+06
5.00657e+06
5.00707e+06
5.00757e+06
5.00803e+06
5.00848e+06
5.00887e+06
5.00923e+06
5.00952e+06
5.00979e+06
5.00993e+06
5.0101e+06
5.0031e+06
5.00349e+06
5.00368e+06
5.0041e+06
5.00442e+06
5.00486e+06
5.00526e+06
5.00573e+06
5.00617e+06
5.00664e+06
5.00708e+06
5.00753e+06
5.00794e+06
5.00833e+06
5.00867e+06
5.00899e+06
5.00923e+06
5.00948e+06
5.0096e+06
5.00976e+06
5.00341e+06
5.00378e+06
5.00396e+06
5.00436e+06
5.00465e+06
5.00506e+06
5.00542e+06
5.00585e+06
5.00624e+06
5.00667e+06
5.00707e+06
5.00747e+06
5.00784e+06
5.00819e+06
5.00848e+06
5.00877e+06
5.00898e+06
5.0092e+06
5.00931e+06
5.00947e+06
5.00366e+06
5.00403e+06
5.0042e+06
5.00457e+06
5.00483e+06
5.00522e+06
5.00554e+06
5.00594e+06
5.0063e+06
5.00669e+06
5.00705e+06
5.00741e+06
5.00773e+06
5.00804e+06
5.0083e+06
5.00856e+06
5.00875e+06
5.00895e+06
5.00905e+06
5.00921e+06
5.00387e+06
5.00422e+06
5.00438e+06
5.00474e+06
5.00497e+06
5.00534e+06
5.00563e+06
5.006e+06
5.00633e+06
5.00669e+06
5.00701e+06
5.00734e+06
5.00762e+06
5.00791e+06
5.00814e+06
5.00838e+06
5.00854e+06
5.00874e+06
5.00882e+06
5.00898e+06
5.00404e+06
5.00438e+06
5.00452e+06
5.00486e+06
5.00508e+06
5.00542e+06
5.0057e+06
5.00604e+06
5.00634e+06
5.00667e+06
5.00696e+06
5.00726e+06
5.00752e+06
5.00778e+06
5.00799e+06
5.00821e+06
5.00835e+06
5.00854e+06
5.00862e+06
5.00877e+06
5.00417e+06
5.00449e+06
5.00463e+06
5.00496e+06
5.00516e+06
5.00549e+06
5.00574e+06
5.00607e+06
5.00634e+06
5.00665e+06
5.00691e+06
5.00718e+06
5.00742e+06
5.00766e+06
5.00784e+06
5.00805e+06
5.00818e+06
5.00836e+06
5.00844e+06
5.00859e+06
5.00426e+06
5.00458e+06
5.00471e+06
5.00502e+06
5.00522e+06
5.00553e+06
5.00577e+06
5.00607e+06
5.00633e+06
5.00661e+06
5.00685e+06
5.0071e+06
5.00731e+06
5.00753e+06
5.00771e+06
5.0079e+06
5.00803e+06
5.0082e+06
5.00827e+06
5.00842e+06
5.00432e+06
5.00463e+06
5.00476e+06
5.00507e+06
5.00526e+06
5.00556e+06
5.00578e+06
5.00607e+06
5.0063e+06
5.00656e+06
5.00678e+06
5.00701e+06
5.0072e+06
5.00741e+06
5.00757e+06
5.00776e+06
5.00788e+06
5.00804e+06
5.00811e+06
5.00826e+06
5.00436e+06
5.00467e+06
5.00479e+06
5.00509e+06
5.00527e+06
5.00556e+06
5.00577e+06
5.00604e+06
5.00625e+06
5.0065e+06
5.00669e+06
5.00691e+06
5.00709e+06
5.00729e+06
5.00744e+06
5.00762e+06
5.00773e+06
5.0079e+06
5.00796e+06
5.00811e+06
5.00439e+06
5.00469e+06
5.00481e+06
5.0051e+06
5.00527e+06
5.00555e+06
5.00574e+06
5.00599e+06
5.00619e+06
5.00642e+06
5.0066e+06
5.00681e+06
5.00697e+06
5.00716e+06
5.0073e+06
5.00748e+06
5.00759e+06
5.00775e+06
5.00782e+06
5.00797e+06
5.0044e+06
5.00469e+06
5.00481e+06
5.00509e+06
5.00525e+06
5.00552e+06
5.0057e+06
5.00593e+06
5.00611e+06
5.00633e+06
5.0065e+06
5.0067e+06
5.00685e+06
5.00704e+06
5.00717e+06
5.00735e+06
5.00745e+06
5.00762e+06
5.00768e+06
5.00783e+06
5.00439e+06
5.00469e+06
5.0048e+06
5.00507e+06
5.00522e+06
5.00547e+06
5.00564e+06
5.00587e+06
5.00603e+06
5.00624e+06
5.0064e+06
5.00659e+06
5.00674e+06
5.00692e+06
5.00705e+06
5.00722e+06
5.00733e+06
5.00749e+06
5.00755e+06
5.0077e+06
5.00438e+06
5.00467e+06
5.00478e+06
5.00504e+06
5.00518e+06
5.00542e+06
5.00558e+06
5.0058e+06
5.00595e+06
5.00615e+06
5.0063e+06
5.00649e+06
5.00663e+06
5.00681e+06
5.00694e+06
5.00711e+06
5.0072e+06
5.00736e+06
5.00742e+06
5.00757e+06
5.00436e+06
5.00465e+06
5.00475e+06
5.00501e+06
5.00514e+06
5.00537e+06
5.00552e+06
5.00573e+06
5.00588e+06
5.00607e+06
5.00622e+06
5.0064e+06
5.00653e+06
5.00671e+06
5.00683e+06
5.00699e+06
5.00708e+06
5.00723e+06
5.00729e+06
5.00743e+06
5.00433e+06
5.00462e+06
5.00471e+06
5.00497e+06
5.00509e+06
5.00532e+06
5.00546e+06
5.00566e+06
5.0058e+06
5.00599e+06
5.00613e+06
5.00631e+06
5.00644e+06
5.0066e+06
5.00672e+06
5.00687e+06
5.00696e+06
5.0071e+06
5.00716e+06
5.0073e+06
5.0043e+06
5.00458e+06
5.00467e+06
5.00492e+06
5.00504e+06
5.00526e+06
5.00539e+06
5.00559e+06
5.00572e+06
5.00591e+06
5.00604e+06
5.00621e+06
5.00634e+06
5.00649e+06
5.0066e+06
5.00675e+06
5.00683e+06
5.00698e+06
5.00703e+06
5.00717e+06
5.00425e+06
5.00453e+06
5.00462e+06
5.00486e+06
5.00497e+06
5.00519e+06
5.00531e+06
5.00551e+06
5.00564e+06
5.00582e+06
5.00595e+06
5.00611e+06
5.00623e+06
5.00638e+06
5.00649e+06
5.00663e+06
5.00671e+06
5.00685e+06
5.0069e+06
5.00704e+06
5.00419e+06
5.00446e+06
5.00455e+06
5.00479e+06
5.0049e+06
5.0051e+06
5.00523e+06
5.00542e+06
5.00555e+06
5.00572e+06
5.00585e+06
5.00601e+06
5.00612e+06
5.00627e+06
5.00637e+06
5.00651e+06
5.00658e+06
5.00672e+06
5.00677e+06
5.00692e+06
5.00412e+06
5.00439e+06
5.00447e+06
5.0047e+06
5.00481e+06
5.00501e+06
5.00514e+06
5.00532e+06
5.00545e+06
5.00562e+06
5.00574e+06
5.0059e+06
5.00601e+06
5.00616e+06
5.00626e+06
5.00639e+06
5.00647e+06
5.00661e+06
5.00665e+06
5.0068e+06
5.00403e+06
5.0043e+06
5.00438e+06
5.00461e+06
5.00472e+06
5.00492e+06
5.00504e+06
5.00523e+06
5.00535e+06
5.00552e+06
5.00564e+06
5.0058e+06
5.00591e+06
5.00605e+06
5.00614e+06
5.00628e+06
5.00635e+06
5.00649e+06
5.00653e+06
5.00668e+06
5.00394e+06
5.00421e+06
5.00429e+06
5.00452e+06
5.00462e+06
5.00483e+06
5.00494e+06
5.00513e+06
5.00525e+06
5.00542e+06
5.00554e+06
5.00569e+06
5.0058e+06
5.00594e+06
5.00603e+06
5.00616e+06
5.00623e+06
5.00637e+06
5.00641e+06
5.00655e+06
5.00385e+06
5.00411e+06
5.00419e+06
5.00442e+06
5.00453e+06
5.00473e+06
5.00485e+06
5.00503e+06
5.00515e+06
5.00532e+06
5.00543e+06
5.00558e+06
5.00568e+06
5.00582e+06
5.00591e+06
5.00604e+06
5.00611e+06
5.00624e+06
5.00629e+06
5.00642e+06
5.00375e+06
5.00402e+06
5.0041e+06
5.00433e+06
5.00443e+06
5.00464e+06
5.00475e+06
5.00494e+06