/*--------------------------------*- C++ -*----------------------------------*\
  =========                 |
  \\      /  F ield         | OpenFOAM: The Open Source CFD Toolbox
   \\    /   O peration     | Website:  https://openfoam.org
    \\  /    A nd           | Version:  8
     \\/     M anipulation  |
\*---------------------------------------------------------------------------*/
FoamFile
{
    version     2.0;
    format      ascii;
    class       volScalarField;
    location    "1000";
    object      p_rgh;
}
// * * * * * * * * * * * * * * * * * * * * * * * * * * * * * * * * * * * * * //

dimensions      [1 -1 -2 0 0 0 0];

internalField   nonuniform List<scalar> 
8400
(
120458
263773
420491
588688
772729
975929
1.20094e+06
1.44974e+06
1.7234e+06
2.02204e+06
2.34463e+06
2.68879e+06
3.05058e+06
3.42431e+06
3.80256e+06
4.17624e+06
4.53488e+06
4.86711e+06
5.16151e+06
5.40744e+06
5.59633e+06
5.72297e+06
5.78767e+06
5.80115e+06
5.78118e+06
5.72857e+06
5.62276e+06
5.46708e+06
5.2897e+06
5.12888e+06
5.0144e+06
4.95431e+06
4.93554e+06
4.93464e+06
4.93051e+06
4.91292e+06
4.88389e+06
4.85331e+06
4.83173e+06
4.8246e+06
4.83034e+06
4.8423e+06
4.85284e+06
4.85701e+06
4.85417e+06
4.84724e+06
4.84046e+06
4.83706e+06
4.83801e+06
4.84239e+06
110143
247917
398954
561563
739955
937370
1.15641e+06
1.39898e+06
1.66614e+06
1.95795e+06
2.27344e+06
2.61029e+06
2.96464e+06
3.33095e+06
3.702e+06
4.06895e+06
4.42157e+06
4.74883e+06
5.0397e+06
5.2841e+06
5.47414e+06
5.60558e+06
5.67954e+06
5.7046e+06
5.69402e+06
5.64586e+06
5.54762e+06
5.40657e+06
5.24863e+06
5.10635e+06
5.00368e+06
4.94674e+06
4.92477e+06
4.9189e+06
4.91221e+06
4.89637e+06
4.87276e+06
4.84882e+06
4.83249e+06
4.82769e+06
4.83292e+06
4.8428e+06
4.85124e+06
4.8544e+06
4.85188e+06
4.8461e+06
4.84049e+06
4.83752e+06
4.83784e+06
4.84039e+06
100471
231492
374637
529431
700163
890038
1.1016e+06
1.3367e+06
1.59631e+06
1.88051e+06
2.18835e+06
2.51762e+06
2.86458e+06
3.22384e+06
3.5883e+06
3.94933e+06
4.29689e+06
4.62011e+06
4.90815e+06
5.15132e+06
5.34213e+06
5.4768e+06
5.5567e+06
5.58968e+06
5.58515e+06
5.54007e+06
5.44989e+06
5.32552e+06
5.19016e+06
5.06975e+06
4.98166e+06
4.92964e+06
4.90551e+06
4.89558e+06
4.88773e+06
4.87572e+06
4.85992e+06
4.84472e+06
4.83483e+06
4.8325e+06
4.83653e+06
4.84337e+06
4.84905e+06
4.85116e+06
4.84949e+06
4.84563e+06
4.84174e+06
4.83934e+06
4.83878e+06
4.83937e+06
85046.3
205243
337406
481777
642435
822504
1.02441e+06
1.24989e+06
1.49992e+06
1.77458e+06
2.07301e+06
2.39317e+06
2.73155e+06
3.08296e+06
3.44052e+06
3.79581e+06
4.13914e+06
4.45972e+06
4.74682e+06
4.99105e+06
5.1853e+06
5.32597e+06
5.41463e+06
5.45775e+06
5.45863e+06
5.41466e+06
5.33018e+06
5.22003e+06
5.10581e+06
5.00774e+06
4.9374e+06
4.89567e+06
4.87555e+06
4.86703e+06
4.86171e+06
4.85513e+06
4.84695e+06
4.83937e+06
4.83483e+06
4.83439e+06
4.83737e+06
4.84181e+06
4.84555e+06
4.84732e+06
4.84693e+06
4.84514e+06
4.84297e+06
4.84112e+06
4.83972e+06
4.83852e+06
72027.3
181341
301976
435401
585573
755490
947476
1.16314e+06
1.4034e+06
1.66835e+06
1.95722e+06
2.26821e+06
2.59804e+06
2.9417e+06
3.29246e+06
3.64214e+06
3.98151e+06
4.29991e+06
4.58654e+06
4.83228e+06
5.03034e+06
5.17742e+06
5.27506e+06
5.32502e+06
5.32676e+06
5.2831e+06
5.20434e+06
5.10809e+06
5.01458e+06
4.93936e+06
4.88868e+06
4.8602e+06
4.84729e+06
4.84278e+06
4.84132e+06
4.83995e+06
4.83784e+06
4.83589e+06
4.83526e+06
4.83625e+06
4.83859e+06
4.84147e+06
4.84401e+06
4.84564e+06
4.84617e+06
4.84573e+06
4.84462e+06
4.84301e+06
4.841e+06
4.83855e+06
58328
156175
265265
387997
528096
688400
871092
1.07764e+06
1.30886e+06
1.5649e+06
1.84508e+06
2.14784e+06
2.47024e+06
2.8074e+06
3.15252e+06
3.4976e+06
3.83391e+06
4.15107e+06
4.43824e+06
4.68651e+06
4.88946e+06
5.04347e+06
5.14689e+06
5.19833e+06
5.19939e+06
5.15722e+06
5.08575e+06
5.00425e+06
4.93161e+06
4.8792e+06
4.84781e+06
4.8318e+06
4.82526e+06
4.82406e+06
4.8258e+06
4.82863e+06
4.83094e+06
4.83266e+06
4.83463e+06
4.83655e+06
4.83878e+06
4.84104e+06
4.84315e+06
4.84489e+06
4.84602e+06
4.84636e+06
4.84587e+06
4.84448e+06
4.84229e+06
4.83938e+06
47552.4
135021
233626
346862
478136
630093
804744
1.00342e+06
1.22685e+06
1.47516e+06
1.74785e+06
2.04361e+06
2.35998e+06
2.69229e+06
3.03345e+06
3.37527e+06
3.70959e+06
4.02648e+06
4.31512e+06
4.56662e+06
4.77364e+06
4.93027e+06
5.03386e+06
5.08458e+06
5.08623e+06
5.04821e+06
4.98674e+06
4.92234e+06
4.87202e+06
4.84198e+06
4.82768e+06
4.82079e+06
4.81762e+06
4.8176e+06
4.82072e+06
4.82582e+06
4.83029e+06
4.83287e+06
4.8347e+06
4.83657e+06
4.83878e+06
4.84105e+06
4.84319e+06
4.84498e+06
4.84613e+06
4.8464e+06
4.84583e+06
4.84437e+06
4.84214e+06
4.83916e+06
39979
118153
207901
313802
438379
584023
752568
945263
1.16278e+06
1.40525e+06
1.6722e+06
1.96253e+06
2.27438e+06
2.60352e+06
2.94286e+06
3.28365e+06
3.61752e+06
3.93528e+06
4.22548e+06
4.47773e+06
4.68402e+06
4.83882e+06
4.94031e+06
4.99023e+06
4.99412e+06
4.96311e+06
4.91519e+06
4.87101e+06
4.84323e+06
4.83001e+06
4.82481e+06
4.82182e+06
4.81924e+06
4.81831e+06
4.81978e+06
4.82389e+06
4.82906e+06
4.83263e+06
4.83456e+06
4.83651e+06
4.8387e+06
4.84098e+06
4.84311e+06
4.84488e+06
4.84603e+06
4.84625e+06
4.84563e+06
4.84414e+06
4.84186e+06
4.83885e+06
37193.8
109382
193183
294704
415162
556777
721365
910169
1.12387e+06
1.36265e+06
1.62605e+06
1.91285e+06
2.22119e+06
2.54793e+06
2.88674e+06
3.22852e+06
3.56343e+06
3.88164e+06
4.17175e+06
4.4223e+06
4.62448e+06
4.77362e+06
4.87004e+06
4.9179e+06
4.92461e+06
4.90283e+06
4.87143e+06
4.84748e+06
4.83556e+06
4.82933e+06
4.82521e+06
4.82283e+06
4.82125e+06
4.82091e+06
4.82229e+06
4.8254e+06
4.82929e+06
4.83244e+06
4.8345e+06
4.83635e+06
4.8383e+06
4.84028e+06
4.8421e+06
4.84355e+06
4.84445e+06
4.84464e+06
4.84405e+06
4.84265e+06
4.84048e+06
4.8376e+06
34212.5
109177
193371
293788
412768
552542
715032
901566
1.11296e+06
1.34963e+06
1.61144e+06
1.89751e+06
2.20594e+06
2.53351e+06
2.87392e+06
3.21781e+06
3.55442e+06
3.87241e+06
4.15977e+06
4.40443e+06
4.59738e+06
4.73552e+06
4.8223e+06
4.8653e+06
4.87396e+06
4.86219e+06
4.84706e+06
4.83754e+06
4.83193e+06
4.82841e+06
4.82565e+06
4.8236e+06
4.82228e+06
4.82202e+06
4.82313e+06
4.8255e+06
4.82851e+06
4.83132e+06
4.83358e+06
4.83554e+06
4.83738e+06
4.83908e+06
4.84057e+06
4.84171e+06
4.84237e+06
4.84242e+06
4.84177e+06
4.8404e+06
4.83834e+06
4.83562e+06
29941.6
114215
204199
307677
429535
572112
737041
925571
1.13863e+06
1.377e+06
1.64106e+06
1.93032e+06
2.24271e+06
2.57382e+06
2.91616e+06
3.25984e+06
3.59378e+06
3.90671e+06
4.18653e+06
4.4204e+06
4.59862e+06
4.72008e+06
4.79227e+06
4.82701e+06
4.83593e+06
4.8335e+06
4.83088e+06
4.82882e+06
4.82715e+06
4.82604e+06
4.82477e+06
4.8236e+06
4.82286e+06
4.8229e+06
4.82388e+06
4.82575e+06
4.82809e+06
4.83043e+06
4.83253e+06
4.83437e+06
4.836e+06
4.83743e+06
4.83861e+06
4.83947e+06
4.8399e+06
4.83978e+06
4.83906e+06
4.83772e+06
4.8358e+06
4.83328e+06
34610.1
136984
239830
352591
482938
633546
805420
999516
1.217e+06
1.45916e+06
1.72709e+06
2.02073e+06
2.33755e+06
2.67149e+06
3.01313e+06
3.3512e+06
3.67488e+06
3.97509e+06
4.24062e+06
4.45841e+06
4.61643e+06
4.71666e+06
4.77116e+06
4.79656e+06
4.80584e+06
4.81167e+06
4.81596e+06
4.81853e+06
4.82067e+06
4.82184e+06
4.82203e+06
4.82182e+06
4.8218e+06
4.82226e+06
4.82333e+06
4.82496e+06
4.82691e+06
4.82893e+06
4.83082e+06
4.83249e+06
4.83393e+06
4.83513e+06
4.83607e+06
4.83669e+06
4.83689e+06
4.8366e+06
4.83578e+06
4.83443e+06
4.83256e+06
4.83018e+06
61392.1
191367
311387
438158
581943
745290
928159
1.13076e+06
1.3543e+06
1.60075e+06
1.87233e+06
2.16999e+06
2.4908e+06
2.82623e+06
3.16295e+06
3.48636e+06
3.78723e+06
4.06249e+06
4.30296e+06
4.49776e+06
4.62957e+06
4.70711e+06
4.74579e+06
4.7673e+06
4.78073e+06
4.79134e+06
4.80024e+06
4.80766e+06
4.81316e+06
4.81637e+06
4.81807e+06
4.81912e+06
4.82007e+06
4.82117e+06
4.82255e+06
4.8242e+06
4.82602e+06
4.82785e+06
4.82956e+06
4.83105e+06
4.8323e+06
4.83328e+06
4.834e+06
4.83439e+06
4.83438e+06
4.83392e+06
4.83299e+06
4.83159e+06
4.82973e+06
4.82745e+06
75238.5
259078
407125
555604
721322
905991
1.10734e+06
1.32367e+06
1.55501e+06
1.80397e+06
2.07531e+06
2.3731e+06
2.69562e+06
3.03127e+06
3.35976e+06
3.65722e+06
3.91782e+06
4.15247e+06
4.35192e+06
4.51489e+06
4.61415e+06
4.67374e+06
4.70735e+06
4.73512e+06
4.75466e+06
4.77e+06
4.78542e+06
4.79714e+06
4.80468e+06
4.80952e+06
4.81267e+06
4.81495e+06
4.81682e+06
4.81854e+06
4.82025e+06
4.82201e+06
4.82379e+06
4.8255e+06
4.82707e+06
4.82841e+06
4.82951e+06
4.83034e+06
4.83088e+06
4.83109e+06
4.83091e+06
4.8303e+06
4.82923e+06
4.82772e+06
4.8258e+06
4.82349e+06
140324
371400
550675
728421
925049
1.14093e+06
1.36972e+06
1.60459e+06
1.84086e+06
2.08057e+06
2.33433e+06
2.61546e+06
2.92883e+06
3.26199e+06
3.58459e+06
3.84717e+06
4.04991e+06
4.23347e+06
4.37638e+06
4.49982e+06
4.57076e+06
4.62786e+06
4.67021e+06
4.69906e+06
4.72994e+06
4.75451e+06
4.77368e+06
4.78746e+06
4.79665e+06
4.80305e+06
4.80772e+06
4.8113e+06
4.81421e+06
4.8167e+06
4.81893e+06
4.82101e+06
4.82294e+06
4.82471e+06
4.82625e+06
4.82752e+06
4.82851e+06
4.82922e+06
4.8296e+06
4.82963e+06
4.82927e+06
4.82849e+06
4.82726e+06
4.82562e+06
4.8236e+06
4.82122e+06
151878
483162
722354
951784
1.20197e+06
1.47098e+06
1.74591e+06
2.00915e+06
2.24224e+06
2.44274e+06
2.63454e+06
2.8535e+06
3.12326e+06
3.43997e+06
3.7685e+06
3.99865e+06
4.13611e+06
4.27882e+06
4.37749e+06
4.46869e+06
4.54781e+06
4.58677e+06
4.63323e+06
4.67788e+06
4.71563e+06
4.74377e+06
4.76377e+06
4.77789e+06
4.78824e+06
4.79598e+06
4.80183e+06
4.80637e+06
4.81003e+06
4.81306e+06
4.81565e+06
4.81792e+06
4.81992e+06
4.82167e+06
4.82314e+06
4.82433e+06
4.82522e+06
4.82578e+06
4.82601e+06
4.82587e+06
4.82533e+06
4.82435e+06
4.82293e+06
4.82107e+06
4.8188e+06
4.81616e+06
237457
614324
888279
1.15658e+06
1.45971e+06
1.79824e+06
2.1518e+06
2.47903e+06
2.71882e+06
2.84807e+06
2.91594e+06
3.00124e+06
3.16236e+06
3.42257e+06
3.7735e+06
4.0091e+06
4.11141e+06
4.24205e+06
4.37578e+06
4.43405e+06
4.49282e+06
4.56056e+06
4.62073e+06
4.6707e+06
4.70808e+06
4.73512e+06
4.7554e+06
4.77065e+06
4.78228e+06
4.79126e+06
4.79825e+06
4.80376e+06
4.8082e+06
4.81187e+06
4.81494e+06
4.81756e+06
4.81981e+06
4.82172e+06
4.8233e+06
4.82456e+06
4.82547e+06
4.82603e+06
4.82624e+06
4.82605e+06
4.82543e+06
4.82436e+06
4.8228e+06
4.82073e+06
4.81818e+06
4.81526e+06
230743
797023
1.19636e+06
1.56742e+06
1.97634e+06
2.42993e+06
2.90202e+06
3.31628e+06
3.53074e+06
3.50386e+06
3.35144e+06
3.21243e+06
3.18144e+06
3.3158e+06
3.64742e+06
3.97459e+06
4.1224e+06
4.17781e+06
4.28428e+06
4.39747e+06
4.48738e+06
4.56143e+06
4.62035e+06
4.66591e+06
4.70062e+06
4.72724e+06
4.74785e+06
4.76384e+06
4.77627e+06
4.78594e+06
4.79355e+06
4.79961e+06
4.80449e+06
4.80849e+06
4.8118e+06
4.81456e+06
4.81687e+06
4.81877e+06
4.82028e+06
4.82142e+06
4.82217e+06
4.82254e+06
4.82249e+06
4.82201e+06
4.82105e+06
4.81961e+06
4.81765e+06
4.81512e+06
4.81201e+06
4.80847e+06
337250
909254
1.30353e+06
1.6733e+06
2.08892e+06
2.55676e+06
3.04199e+06
3.45816e+06
3.68491e+06
3.66239e+06
3.50106e+06
3.33324e+06
3.24138e+06
3.27055e+06
3.4547e+06
3.75448e+06
4.0017e+06
4.1658e+06
4.29713e+06
4.4077e+06
4.49488e+06
4.56343e+06
4.61804e+06
4.66173e+06
4.69613e+06
4.72314e+06
4.74433e+06
4.76093e+06
4.77396e+06
4.78421e+06
4.79234e+06
4.79885e+06
4.80411e+06
4.80842e+06
4.81198e+06
4.81493e+06
4.81738e+06
4.8194e+06
4.82103e+06
4.82227e+06
4.82313e+06
4.82363e+06
4.82373e+06
4.82341e+06
4.82264e+06
4.82139e+06
4.81962e+06
4.81718e+06
4.81388e+06
4.80975e+06
411544
978410
1.38785e+06
1.73098e+06
2.09047e+06
2.49194e+06
2.9142e+06
3.28998e+06
3.50766e+06
3.53722e+06
3.46662e+06
3.38865e+06
3.36978e+06
3.4433e+06
3.61488e+06
3.84362e+06
4.04908e+06
4.19977e+06
4.31773e+06
4.41729e+06
4.49905e+06
4.56528e+06
4.61863e+06
4.66127e+06
4.69502e+06
4.72158e+06
4.74244e+06
4.75885e+06
4.77182e+06
4.78212e+06
4.79036e+06
4.79701e+06
4.8024e+06
4.80683e+06
4.81047e+06
4.81349e+06
4.81597e+06
4.818e+06
4.81959e+06
4.82077e+06
4.82154e+06
4.82189e+06
4.82178e+06
4.82119e+06
4.82007e+06
4.81837e+06
4.81598e+06
4.81264e+06
4.8078e+06
4.80138e+06
5.3176e+06
5.31709e+06
5.31683e+06
5.31673e+06
5.31667e+06
5.31662e+06
5.31659e+06
5.31657e+06
5.31656e+06
5.31655e+06
5.31655e+06
5.31655e+06
5.31655e+06
5.31655e+06
5.31655e+06
5.31655e+06
5.31655e+06
5.31655e+06
5.31655e+06
5.31654e+06
5.31654e+06
5.31653e+06
5.31652e+06
5.3165e+06
5.31649e+06
5.31648e+06
5.31647e+06
5.31647e+06
5.31646e+06
5.31646e+06
5.31646e+06
5.31646e+06
5.31646e+06
5.31646e+06
5.31646e+06
5.31645e+06
5.31645e+06
5.31644e+06
5.31642e+06
5.3164e+06
5.31638e+06
5.31635e+06
5.31632e+06
5.31629e+06
5.31625e+06
5.3162e+06
5.31615e+06
5.31609e+06
5.31601e+06
5.31591e+06
5.316e+06
5.31629e+06
5.31638e+06
5.3164e+06
5.31642e+06
5.31644e+06
5.31645e+06
5.31645e+06
5.31646e+06
5.31647e+06
5.31648e+06
5.31649e+06
5.31649e+06
5.3165e+06
5.31651e+06
5.31652e+06
5.31652e+06
5.31652e+06
5.31652e+06
5.31652e+06
5.31651e+06
5.3165e+06
5.3165e+06
5.31649e+06
5.31648e+06
5.31647e+06
5.31646e+06
5.31645e+06
5.31645e+06
5.31645e+06
5.31645e+06
5.31645e+06
5.31645e+06
5.31645e+06
5.31645e+06
5.31645e+06
5.31644e+06
5.31643e+06
5.31642e+06
5.3164e+06
5.31637e+06
5.31635e+06
5.31632e+06
5.31628e+06
5.31625e+06
5.3162e+06
5.31615e+06
5.3161e+06
5.31603e+06
5.31595e+06
5.31646e+06
5.31659e+06
5.31666e+06
5.31666e+06
5.31664e+06
5.31663e+06
5.31661e+06
5.3166e+06
5.31658e+06
5.31658e+06
5.31657e+06
5.31657e+06
5.31657e+06
5.31657e+06
5.31657e+06
5.31657e+06
5.31657e+06
5.31657e+06
5.31656e+06
5.31656e+06
5.31655e+06
5.31654e+06
5.31652e+06
5.31651e+06
5.3165e+06
5.31649e+06
5.31648e+06
5.31647e+06
5.31647e+06
5.31647e+06
5.31647e+06
5.31647e+06
5.31647e+06
5.31647e+06
5.31647e+06
5.31646e+06
5.31646e+06
5.31645e+06
5.31643e+06
5.31641e+06
5.31639e+06
5.31637e+06
5.31634e+06
5.3163e+06
5.31627e+06
5.31623e+06
5.31619e+06
5.31614e+06
5.31608e+06
5.31602e+06
5.31648e+06
5.3165e+06
5.31651e+06
5.3165e+06
5.31649e+06
5.31648e+06
5.31647e+06
5.31647e+06
5.31647e+06
5.31647e+06
5.31648e+06
5.31648e+06
5.31649e+06
5.3165e+06
5.3165e+06
5.31651e+06
5.31651e+06
5.31651e+06
5.31651e+06
5.31651e+06
5.3165e+06
5.3165e+06
5.31649e+06
5.31648e+06
5.31647e+06
5.31646e+06
5.31645e+06
5.31645e+06
5.31645e+06
5.31645e+06
5.31645e+06
5.31645e+06
5.31645e+06
5.31646e+06
5.31646e+06
5.31645e+06
5.31645e+06
5.31644e+06
5.31642e+06
5.31641e+06
5.31639e+06
5.31636e+06
5.31634e+06
5.31631e+06
5.31628e+06
5.31624e+06
5.31621e+06
5.31616e+06
5.31612e+06
5.31607e+06
5.31651e+06
5.31653e+06
5.31654e+06
5.31655e+06
5.31655e+06
5.31655e+06
5.31655e+06
5.31655e+06
5.31655e+06
5.31655e+06
5.31655e+06
5.31655e+06
5.31655e+06
5.31656e+06
5.31656e+06
5.31656e+06
5.31656e+06
5.31656e+06
5.31656e+06
5.31655e+06
5.31654e+06
5.31653e+06
5.31652e+06
5.31651e+06
5.3165e+06
5.31649e+06
5.31648e+06
5.31648e+06
5.31647e+06
5.31647e+06
5.31647e+06
5.31648e+06
5.31648e+06
5.31648e+06
5.31648e+06
5.31648e+06
5.31647e+06
5.31646e+06
5.31645e+06
5.31643e+06
5.31641e+06
5.31639e+06
5.31637e+06
5.31634e+06
5.31631e+06
5.31628e+06
5.31625e+06
5.31622e+06
5.31618e+06
5.31615e+06
5.31653e+06
5.31653e+06
5.31653e+06
5.31653e+06
5.31652e+06
5.31651e+06
5.31651e+06
5.3165e+06
5.3165e+06
5.3165e+06
5.3165e+06
5.3165e+06
5.3165e+06
5.31651e+06
5.31651e+06
5.31652e+06
5.31652e+06
5.31652e+06
5.31652e+06
5.31651e+06
5.31651e+06
5.3165e+06
5.31649e+06
5.31648e+06
5.31647e+06
5.31646e+06
5.31646e+06
5.31645e+06
5.31645e+06
5.31645e+06
5.31645e+06
5.31646e+06
5.31646e+06
5.31647e+06
5.31647e+06
5.31647e+06
5.31646e+06
5.31645e+06
5.31644e+06
5.31643e+06
5.31641e+06
5.31639e+06
5.31637e+06
5.31635e+06
5.31633e+06
5.3163e+06
5.31628e+06
5.31626e+06
5.31623e+06
5.31621e+06
5.31653e+06
5.31653e+06
5.31653e+06
5.31653e+06
5.31653e+06
5.31652e+06
5.31652e+06
5.31652e+06
5.31652e+06
5.31652e+06
5.31652e+06
5.31653e+06
5.31653e+06
5.31654e+06
5.31654e+06
5.31655e+06
5.31655e+06
5.31655e+06
5.31654e+06
5.31654e+06
5.31653e+06
5.31652e+06
5.31651e+06
5.3165e+06
5.31649e+06
5.31649e+06
5.31648e+06
5.31648e+06
5.31647e+06
5.31648e+06
5.31648e+06
5.31648e+06
5.31649e+06
5.31649e+06
5.31649e+06
5.31649e+06
5.31648e+06
5.31648e+06
5.31647e+06
5.31645e+06
5.31644e+06
5.31642e+06
5.3164e+06
5.31638e+06
5.31637e+06
5.31635e+06
5.31633e+06
5.31632e+06
5.3163e+06
5.31628e+06
5.31654e+06
5.31654e+06
5.31653e+06
5.31653e+06
5.31652e+06
5.31652e+06
5.31651e+06
5.31651e+06
5.31651e+06
5.31651e+06
5.31651e+06
5.31651e+06
5.31651e+06
5.31652e+06
5.31652e+06
5.31652e+06
5.31652e+06
5.31652e+06
5.31652e+06
5.31652e+06
5.31651e+06
5.3165e+06
5.31649e+06
5.31648e+06
5.31647e+06
5.31647e+06
5.31646e+06
5.31646e+06
5.31646e+06
5.31646e+06
5.31647e+06
5.31647e+06
5.31648e+06
5.31648e+06
5.31648e+06
5.31648e+06
5.31648e+06
5.31648e+06
5.31647e+06
5.31646e+06
5.31644e+06
5.31643e+06
5.31641e+06
5.3164e+06
5.31639e+06
5.31638e+06
5.31637e+06
5.31636e+06
5.31635e+06
5.31634e+06
5.31654e+06
5.31654e+06
5.31653e+06
5.31653e+06
5.31652e+06
5.31652e+06
5.31651e+06
5.31651e+06
5.31651e+06
5.31651e+06
5.31651e+06
5.31652e+06
5.31652e+06
5.31652e+06
5.31653e+06
5.31653e+06
5.31653e+06
5.31653e+06
5.31653e+06
5.31653e+06
5.31652e+06
5.31651e+06
5.3165e+06
5.31649e+06
5.31649e+06
5.31648e+06
5.31647e+06
5.31647e+06
5.31647e+06
5.31648e+06
5.31648e+06
5.31649e+06
5.31649e+06
5.3165e+06
5.3165e+06
5.3165e+06
5.3165e+06
5.31649e+06
5.31649e+06
5.31648e+06
5.31647e+06
5.31645e+06
5.31644e+06
5.31643e+06
5.31643e+06
5.31642e+06
5.31642e+06
5.31642e+06
5.31642e+06
5.31642e+06
5.31654e+06
5.31654e+06
5.31653e+06
5.31653e+06
5.31652e+06
5.31652e+06
5.31651e+06
5.31651e+06
5.31651e+06
5.31651e+06
5.31651e+06
5.31651e+06
5.31651e+06
5.31652e+06
5.31652e+06
5.31652e+06
5.31653e+06
5.31653e+06
5.31652e+06
5.31652e+06
5.31651e+06
5.3165e+06
5.31649e+06
5.31649e+06
5.31648e+06
5.31647e+06
5.31647e+06
5.31647e+06
5.31647e+06
5.31648e+06
5.31648e+06
5.31649e+06
5.3165e+06
5.3165e+06
5.3165e+06
5.31651e+06
5.3165e+06
5.3165e+06
5.31649e+06
5.31649e+06
5.31648e+06
5.31647e+06
5.31646e+06
5.31646e+06
5.31645e+06
5.31645e+06
5.31646e+06
5.31646e+06
5.31647e+06
5.31648e+06
5.31654e+06
5.31654e+06
5.31653e+06
5.31653e+06
5.31652e+06
5.31652e+06
5.31651e+06
5.31651e+06
5.31651e+06
5.31651e+06
5.31651e+06
5.31651e+06
5.31651e+06
5.31652e+06
5.31652e+06
5.31652e+06
5.31652e+06
5.31652e+06
5.31652e+06
5.31651e+06
5.31651e+06
5.3165e+06
5.31649e+06
5.31648e+06
5.31648e+06
5.31647e+06
5.31647e+06
5.31647e+06
5.31647e+06
5.31648e+06
5.31649e+06
5.31649e+06
5.3165e+06
5.31651e+06
5.31651e+06
5.31652e+06
5.31651e+06
5.31651e+06
5.31651e+06
5.3165e+06
5.3165e+06
5.31649e+06
5.31649e+06
5.31649e+06
5.31649e+06
5.31649e+06
5.3165e+06
5.31651e+06
5.31653e+06
5.31655e+06
5.31654e+06
5.31654e+06
5.31653e+06
5.31653e+06
5.31652e+06
5.31652e+06
5.31651e+06
5.31651e+06
5.31651e+06
5.31651e+06
5.31651e+06
5.31651e+06
5.31651e+06
5.31652e+06
5.31652e+06
5.31652e+06
5.31653e+06
5.31652e+06
5.31652e+06
5.31652e+06
5.31651e+06
5.3165e+06
5.3165e+06
5.31649e+06
5.31648e+06
5.31648e+06
5.31648e+06
5.31648e+06
5.31648e+06
5.31649e+06
5.3165e+06
5.3165e+06
5.31651e+06
5.31652e+06
5.31653e+06
5.31653e+06
5.31653e+06
5.31653e+06
5.31652e+06
5.31652e+06
5.31651e+06
5.31651e+06
5.31651e+06
5.31652e+06
5.31652e+06
5.31653e+06
5.31655e+06
5.31657e+06
5.31659e+06
5.31661e+06
5.31654e+06
5.31654e+06
5.31653e+06
5.31653e+06
5.31652e+06
5.31652e+06
5.31651e+06
5.31651e+06
5.31651e+06
5.3165e+06
5.3165e+06
5.3165e+06
5.3165e+06
5.31651e+06
5.31651e+06
5.31651e+06
5.31651e+06
5.31651e+06
5.31651e+06
5.3165e+06
5.3165e+06
5.31649e+06
5.31648e+06
5.31648e+06
5.31647e+06
5.31647e+06
5.31647e+06
5.31647e+06
5.31647e+06
5.31648e+06
5.31649e+06
5.3165e+06
5.31651e+06
5.31652e+06
5.31652e+06
5.31653e+06
5.31653e+06
5.31653e+06
5.31653e+06
5.31653e+06
5.31652e+06
5.31652e+06
5.31653e+06
5.31654e+06
5.31655e+06
5.31656e+06
5.31659e+06
5.31661e+06
5.31664e+06
5.31667e+06
5.31653e+06
5.31653e+06
5.31653e+06
5.31653e+06
5.31653e+06
5.31652e+06
5.31652e+06
5.31652e+06
5.31652e+06
5.31652e+06
5.31652e+06
5.31652e+06
5.31652e+06
5.31652e+06
5.31653e+06
5.31653e+06
5.31653e+06
5.31653e+06
5.31652e+06
5.31652e+06
5.31651e+06
5.31651e+06
5.3165e+06
5.31649e+06
5.31649e+06
5.31649e+06
5.31649e+06
5.31649e+06
5.31649e+06
5.3165e+06
5.31651e+06
5.31652e+06
5.31653e+06
5.31654e+06
5.31654e+06
5.31655e+06
5.31655e+06
5.31655e+06
5.31655e+06
5.31655e+06
5.31655e+06
5.31655e+06
5.31656e+06
5.31657e+06
5.31658e+06
5.31661e+06
5.31663e+06
5.31667e+06
5.3167e+06
5.31674e+06
5.31653e+06
5.31653e+06
5.31653e+06
5.31653e+06
5.31652e+06
5.31651e+06
5.31651e+06
5.3165e+06
5.31649e+06
5.31649e+06
5.31649e+06
5.31649e+06
5.31649e+06
5.31649e+06
5.31649e+06
5.31649e+06
5.3165e+06
5.31649e+06
5.31649e+06
5.31649e+06
5.31648e+06
5.31648e+06
5.31647e+06
5.31647e+06
5.31646e+06
5.31646e+06
5.31646e+06
5.31647e+06
5.31648e+06
5.31648e+06
5.31649e+06
5.31651e+06
5.31652e+06
5.31652e+06
5.31653e+06
5.31654e+06
5.31654e+06
5.31654e+06
5.31654e+06
5.31655e+06
5.31655e+06
5.31656e+06
5.31657e+06
5.31658e+06
5.3166e+06
5.31663e+06
5.31666e+06
5.3167e+06
5.31674e+06
5.31679e+06
5.31651e+06
5.31653e+06
5.31654e+06
5.31655e+06
5.31655e+06
5.31655e+06
5.31655e+06
5.31655e+06
5.31654e+06
5.31654e+06
5.31654e+06
5.31654e+06
5.31654e+06
5.31654e+06
5.31654e+06
5.31654e+06
5.31654e+06
5.31653e+06
5.31653e+06
5.31652e+06
5.31652e+06
5.31651e+06
5.3165e+06
5.3165e+06
5.31649e+06
5.31649e+06
5.31649e+06
5.3165e+06
5.3165e+06
5.31651e+06
5.31652e+06
5.31653e+06
5.31654e+06
5.31655e+06
5.31656e+06
5.31656e+06
5.31656e+06
5.31657e+06
5.31657e+06
5.31657e+06
5.31658e+06
5.31658e+06
5.3166e+06
5.31661e+06
5.31664e+06
5.31667e+06
5.31671e+06
5.31675e+06
5.3168e+06
5.31686e+06
5.31648e+06
5.3165e+06
5.31651e+06
5.3165e+06
5.31649e+06
5.31648e+06
5.31647e+06
5.31647e+06
5.31646e+06
5.31646e+06
5.31646e+06
5.31647e+06
5.31647e+06
5.31647e+06
5.31648e+06
5.31648e+06
5.31648e+06
5.31648e+06
5.31648e+06
5.31648e+06
5.31648e+06
5.31647e+06
5.31647e+06
5.31646e+06
5.31646e+06
5.31646e+06
5.31647e+06
5.31647e+06
5.31648e+06
5.31649e+06
5.3165e+06
5.31651e+06
5.31652e+06
5.31653e+06
5.31654e+06
5.31655e+06
5.31655e+06
5.31656e+06
5.31656e+06
5.31656e+06
5.31657e+06
5.31658e+06
5.3166e+06
5.31662e+06
5.31665e+06
5.31668e+06
5.31673e+06
5.31678e+06
5.31684e+06
5.3169e+06
5.31646e+06
5.31659e+06
5.31666e+06
5.31666e+06
5.31664e+06
5.31663e+06
5.31661e+06
5.31659e+06
5.31658e+06
5.31657e+06
5.31656e+06
5.31655e+06
5.31655e+06
5.31655e+06
5.31654e+06
5.31654e+06
5.31654e+06
5.31653e+06
5.31653e+06
5.31652e+06
5.31652e+06
5.31651e+06
5.3165e+06
5.3165e+06
5.31649e+06
5.31649e+06
5.31649e+06
5.3165e+06
5.31651e+06
5.31651e+06
5.31652e+06
5.31653e+06
5.31654e+06
5.31655e+06
5.31656e+06
5.31657e+06
5.31657e+06
5.31658e+06
5.31658e+06
5.31658e+06
5.31659e+06
5.3166e+06
5.31662e+06
5.31665e+06
5.31668e+06
5.31672e+06
5.31676e+06
5.31682e+06
5.31689e+06
5.31696e+06
5.316e+06
5.31628e+06
5.31637e+06
5.3164e+06
5.31642e+06
5.31644e+06
5.31645e+06
5.31645e+06
5.31646e+06
5.31646e+06
5.31646e+06
5.31647e+06
5.31647e+06
5.31648e+06
5.31648e+06
5.31648e+06
5.31649e+06
5.31649e+06
5.31648e+06
5.31648e+06
5.31648e+06
5.31648e+06
5.31647e+06
5.31647e+06
5.31647e+06
5.31647e+06
5.31647e+06
5.31648e+06
5.31649e+06
5.3165e+06
5.31651e+06
5.31652e+06
5.31653e+06
5.31654e+06
5.31655e+06
5.31655e+06
5.31656e+06
5.31656e+06
5.31657e+06
5.31658e+06
5.31659e+06
5.3166e+06
5.31662e+06
5.31665e+06
5.31668e+06
5.31672e+06
5.31677e+06
5.31684e+06
5.31691e+06
5.31699e+06
5.3176e+06
5.31708e+06
5.31683e+06
5.31672e+06
5.31667e+06
5.31662e+06
5.31659e+06
5.31657e+06
5.31655e+06
5.31654e+06
5.31654e+06
5.31653e+06
5.31653e+06
5.31652e+06
5.31652e+06
5.31652e+06
5.31652e+06
5.31652e+06
5.31651e+06
5.31651e+06
5.3165e+06
5.3165e+06
5.31649e+06
5.31649e+06
5.31649e+06
5.31649e+06
5.31649e+06
5.31649e+06
5.3165e+06
5.31651e+06
5.31652e+06
5.31653e+06
5.31654e+06
5.31655e+06
5.31656e+06
5.31656e+06
5.31657e+06
5.31657e+06
5.31658e+06
5.31659e+06
5.3166e+06
5.31661e+06
5.31663e+06
5.31666e+06
5.31669e+06
5.31674e+06
5.31679e+06
5.31686e+06
5.31694e+06
5.31704e+06
5.3133e+06
5.31373e+06
5.31398e+06
5.31448e+06
5.31488e+06
5.31542e+06
5.31592e+06
5.31649e+06
5.31704e+06
5.31762e+06
5.31818e+06
5.31875e+06
5.31928e+06
5.31979e+06
5.32026e+06
5.32069e+06
5.32104e+06
5.32137e+06
5.32155e+06
5.32174e+06
5.31377e+06
5.31418e+06
5.31441e+06
5.31488e+06
5.31525e+06
5.31575e+06
5.3162e+06
5.31672e+06
5.31721e+06
5.31774e+06
5.31824e+06
5.31874e+06
5.31921e+06
5.31967e+06
5.32007e+06
5.32046e+06
5.32076e+06
5.32106e+06
5.32122e+06
5.3214e+06
5.31416e+06
5.31456e+06
5.31478e+06
5.31522e+06
5.31555e+06
5.31602e+06
5.31643e+06
5.3169e+06
5.31735e+06
5.31782e+06
5.31827e+06
5.31872e+06
5.31914e+06
5.31955e+06
5.31991e+06
5.32025e+06
5.32052e+06
5.32079e+06
5.32093e+06
5.32111e+06
5.3145e+06
5.31489e+06
5.31509e+06
5.31551e+06
5.31581e+06
5.31624e+06
5.31661e+06
5.31705e+06
5.31746e+06
5.31789e+06
5.31829e+06
5.3187e+06
5.31907e+06
5.31944e+06
5.31976e+06
5.32007e+06
5.3203e+06
5.32055e+06
5.32068e+06
5.32086e+06
5.31479e+06
5.31517e+06
5.31536e+06
5.31575e+06
5.31603e+06
5.31643e+06
5.31677e+06
5.31718e+06
5.31754e+06
5.31794e+06
5.3183e+06
5.31867e+06
5.319e+06
5.31934e+06
5.31962e+06
5.3199e+06
5.32012e+06
5.32035e+06
5.32047e+06
5.32064e+06
5.31504e+06
5.3154e+06
5.31558e+06
5.31595e+06
5.31621e+06
5.31659e+06
5.3169e+06
5.31727e+06
5.31761e+06
5.31797e+06
5.3183e+06
5.31864e+06
5.31894e+06
5.31925e+06
5.3195e+06
5.31976e+06
5.31996e+06
5.32018e+06
5.32029e+06
5.32046e+06
5.31525e+06
5.3156e+06
5.31576e+06
5.31612e+06
5.31636e+06
5.31672e+06
5.317e+06
5.31735e+06
5.31766e+06
5.318e+06
5.31829e+06
5.31861e+06
5.31888e+06
5.31916e+06
5.3194e+06
5.31964e+06
5.31982e+06
5.32003e+06
5.32013e+06
5.3203e+06
5.31542e+06
5.31576e+06
5.31592e+06
5.31626e+06
5.31649e+06
5.31682e+06
5.31709e+06
5.31742e+06
5.3177e+06
5.31801e+06
5.31829e+06
5.31858e+06
5.31883e+06
5.31909e+06
5.3193e+06
5.31953e+06
5.3197e+06
5.3199e+06
5.32e+06
5.32017e+06
5.31556e+06
5.31589e+06
5.31604e+06
5.31638e+06
5.31659e+06
5.31691e+06
5.31716e+06
5.31747e+06
5.31773e+06
5.31802e+06
5.31827e+06
5.31855e+06
5.31878e+06
5.31902e+06
5.31922e+06
5.31944e+06
5.31959e+06
5.31979e+06
5.31988e+06
5.32005e+06
5.31568e+06
5.316e+06
5.31615e+06
5.31647e+06
5.31667e+06
5.31698e+06
5.31721e+06
5.31751e+06
5.31775e+06
5.31802e+06
5.31826e+06
5.31851e+06
5.31873e+06
5.31896e+06
5.31915e+06
5.31936e+06
5.3195e+06
5.31969e+06
5.31978e+06
5.31995e+06
5.31578e+06
5.3161e+06
5.31624e+06
5.31655e+06
5.31674e+06
5.31704e+06
5.31726e+06
5.31753e+06
5.31776e+06
5.31802e+06
5.31824e+06
5.31848e+06
5.31868e+06
5.3189e+06
5.31908e+06
5.31928e+06
5.31942e+06
5.31961e+06
5.3197e+06
5.31986e+06
5.31586e+06
5.31618e+06
5.31631e+06
5.31661e+06
5.3168e+06
5.31708e+06
5.31729e+06
5.31755e+06
5.31776e+06
5.31801e+06
5.31821e+06
5.31845e+06
5.31864e+06
5.31885e+06
5.31902e+06
5.31922e+06
5.31935e+06
5.31953e+06
5.31962e+06
5.31979e+06
5.31593e+06
5.31624e+06
5.31637e+06
5.31667e+06
5.31684e+06
5.31711e+06
5.31731e+06
5.31756e+06
5.31776e+06
5.318e+06
5.31819e+06
5.31842e+06
5.3186e+06
5.3188e+06
5.31896e+06
5.31916e+06
5.31928e+06
5.31947e+06
5.31955e+06
5.31972e+06
5.31599e+06
5.3163e+06
5.31642e+06
5.31671e+06
5.31688e+06
5.31714e+06
5.31732e+06
5.31757e+06
5.31776e+06
5.31799e+06
5.31817e+06
5.31839e+06
5.31856e+06
5.31876e+06
5.31891e+06
5.3191e+06
5.31922e+06
5.31941e+06
5.31949e+06
5.31965e+06
5.31604e+06
5.31634e+06
5.31647e+06
5.31675e+06
5.31691e+06
5.31716e+06
5.31734e+06
5.31758e+06
5.31776e+06
5.31798e+06
5.31816e+06
5.31836e+06
5.31853e+06
5.31872e+06
5.31887e+06
5.31905e+06
5.31917e+06
5.31935e+06
5.31943e+06
5.31959e+06
5.31608e+06
5.31638e+06
5.3165e+06
5.31678e+06
5.31693e+06
5.31718e+06
5.31735e+06
5.31758e+06
5.31775e+06
5.31797e+06
5.31814e+06
5.31834e+06
5.3185e+06
5.31869e+06
5.31883e+06
5.31901e+06
5.31912e+06
5.3193e+06
5.31937e+06
5.31954e+06
5.31612e+06
5.31642e+06
5.31653e+06
5.3168e+06
5.31695e+06
5.3172e+06
5.31736e+06
5.31759e+06
5.31775e+06
5.31796e+06
5.31813e+06
5.31832e+06
5.31847e+06
5.31866e+06
5.31879e+06
5.31897e+06
5.31908e+06
5.31925e+06
5.31933e+06
5.31949e+06
5.31614e+06
5.31644e+06
5.31655e+06
5.31682e+06
5.31697e+06
5.31721e+06
5.31737e+06
5.31759e+06
5.31775e+06
5.31795e+06
5.31811e+06
5.3183e+06
5.31845e+06
5.31863e+06
5.31876e+06
5.31893e+06
5.31904e+06
5.31921e+06
5.31928e+06
5.31945e+06
5.31616e+06
5.31646e+06
5.31657e+06
5.31683e+06
5.31697e+06
5.31721e+06
5.31737e+06
5.31758e+06
5.31774e+06
5.31794e+06
5.3181e+06
5.31828e+06
5.31842e+06
5.3186e+06
5.31873e+06
5.3189e+06
5.319e+06
5.31917e+06
5.31924e+06
5.31941e+06
5.31617e+06
5.31646e+06
5.31658e+06
5.31684e+06
5.31698e+06
5.31721e+06
5.31736e+06
5.31758e+06
5.31773e+06
5.31793e+06
5.31808e+06
5.31826e+06
5.3184e+06
5.31858e+06
5.3187e+06
5.31887e+06
5.31897e+06
5.31914e+06
5.31921e+06
5.31938e+06
5.31618e+06
5.31647e+06
5.31658e+06
5.31684e+06
5.31697e+06
5.31721e+06
5.31736e+06
5.31757e+06
5.31772e+06
5.31792e+06
5.31806e+06
5.31825e+06
5.31838e+06
5.31855e+06
5.31867e+06
5.31884e+06
5.31894e+06
5.31911e+06
5.31918e+06
5.31935e+06
5.31618e+06
5.31647e+06
5.31657e+06
5.31683e+06
5.31697e+06
5.3172e+06
5.31735e+06
5.31756e+06
5.31771e+06
5.3179e+06
5.31805e+06
5.31823e+06
5.31836e+06
5.31853e+06
5.31865e+06
5.31882e+06
5.31892e+06
5.31908e+06
5.31915e+06
5.31932e+06
5.31617e+06
5.31646e+06
5.31657e+06
5.31683e+06
5.31696e+06
5.31719e+06
5.31734e+06
5.31755e+06
5.3177e+06
5.31789e+06
5.31803e+06
5.31821e+06
5.31834e+06
5.31851e+06
5.31863e+06
5.31879e+06
5.31889e+06
5.31906e+06
5.31913e+06
5.31929e+06
5.31617e+06
5.31646e+06
5.31657e+06
5.31683e+06
5.31696e+06
5.31719e+06
5.31733e+06
5.31754e+06
5.31768e+06
5.31788e+06
5.31802e+06
5.31819e+06
5.31832e+06
5.31849e+06
5.31861e+06
5.31877e+06
5.31887e+06
5.31903e+06
5.3191e+06
5.31927e+06
5.31617e+06
5.31646e+06
5.31656e+06
5.31682e+06
5.31695e+06
5.31718e+06
5.31732e+06
5.31753e+06
5.31767e+06
5.31786e+06
5.318e+06
5.31817e+06
5.3183e+06
5.31847e+06
5.31858e+06
5.31875e+06
5.31884e+06
5.31901e+06
5.31908e+06
5.31925e+06
5.31616e+06
5.31645e+06
5.31656e+06
5.31681e+06
5.31695e+06
5.31717e+06
5.31731e+06
5.31752e+06
5.31765e+06
5.31784e+06
5.31798e+06
5.31815e+06