/*--------------------------------*- C++ -*----------------------------------*\
  =========                 |
  \\      /  F ield         | OpenFOAM: The Open Source CFD Toolbox
   \\    /   O peration     | Website:  https://openfoam.org
    \\  /    A nd           | Version:  8
     \\/     M anipulation  |
\*---------------------------------------------------------------------------*/
FoamFile
{
    version     2.0;
    format      ascii;
    class       volScalarField;
    location    "1000";
    object      T;
}
// * * * * * * * * * * * * * * * * * * * * * * * * * * * * * * * * * * * * * //

dimensions      [0 0 0 1 0 0 0];

internalField   nonuniform List<scalar> 
8400
(
300.032
299.991
299.982
299.967
299.954
299.94
299.927
299.914
299.902
299.891
299.881
299.873
299.867
299.864
299.864
299.868
299.877
299.891
299.911
299.936
299.967
300.001
300.039
300.076
300.114
300.126
300.141
300.155
300.166
300.17
300.169
300.165
300.16
300.159
300.16
300.163
300.166
300.169
300.17
300.169
300.168
300.168
300.168
300.17
300.172
300.173
300.175
300.176
300.177
300.178
300.146
300.115
300.109
300.1
300.09
300.081
300.071
300.061
300.051
300.041
300.031
300.022
300.015
300.008
300.004
300.002
300.003
300.009
300.018
300.031
300.048
300.069
300.091
300.114
300.134
300.145
300.156
300.167
300.175
300.179
300.178
300.175
300.172
300.171
300.172
300.175
300.178
300.18
300.181
300.181
300.181
300.181
300.182
300.184
300.186
300.188
300.189
300.191
300.192
300.193
300.163
300.14
300.138
300.133
300.127
300.121
300.114
300.107
300.1
300.093
300.085
300.079
300.072
300.067
300.063
300.061
300.061
300.063
300.069
300.078
300.09
300.104
300.119
300.134
300.145
300.153
300.161
300.17
300.177
300.18
300.181
300.18
300.179
300.179
300.181
300.184
300.186
300.189
300.19
300.191
300.192
300.193
300.195
300.197
300.199
300.202
300.204
300.206
300.208
300.21
300.139
300.124
300.125
300.122
300.119
300.116
300.112
300.108
300.103
300.099
300.095
300.091
300.087
300.084
300.083
300.082
300.084
300.087
300.093
300.101
300.111
300.122
300.133
300.143
300.15
300.156
300.164
300.172
300.179
300.185
300.189
300.192
300.195
300.198
300.202
300.206
300.209
300.212
300.215
300.217
300.22
300.222
300.226
300.229
300.233
300.236
300.24
300.244
300.248
300.252
300.103
300.095
300.097
300.097
300.096
300.094
300.092
300.09
300.088
300.086
300.084
300.083
300.082
300.082
300.083
300.085
300.089
300.095
300.102
300.111
300.121
300.13
300.14
300.147
300.152
300.159
300.167
300.178
300.19
300.204
300.217
300.23
300.243
300.253
300.262
300.269
300.275
300.28
300.285
300.29
300.295
300.301
300.307
300.313
300.32
300.326
300.334
300.342
300.352
300.361
300.067
300.064
300.067
300.068
300.068
300.068
300.067
300.066
300.065
300.064
300.064
300.065
300.066
300.068
300.072
300.077
300.084
300.093
300.102
300.113
300.124
300.133
300.141
300.147
300.154
300.162
300.175
300.195
300.222
300.257
300.297
300.337
300.371
300.397
300.414
300.426
300.434
300.441
300.449
300.458
300.467
300.478
300.489
300.502
300.515
300.53
300.55
300.573
300.599
300.628
300.036
300.037
300.039
300.041
300.042
300.043
300.042
300.042
300.042
300.042
300.042
300.044
300.047
300.052
300.058
300.066
300.076
300.087
300.099
300.112
300.123
300.133
300.141
300.148
300.156
300.169
300.193
300.236
300.303
300.391
300.501
300.607
300.682
300.726
300.728
300.731
300.736
300.755
300.735
300.729
300.755
300.769
300.805
300.885
301.029
301.185
301.214
301.201
301.184
301.165
300.013
300.016
300.018
300.02
300.021
300.022
300.021
300.021
300.021
300.021
300.023
300.025
300.029
300.035
300.044
300.054
300.068
300.082
300.096
300.11
300.123
300.134
300.143
300.151
300.163
300.186
300.235
300.334
300.497
300.707
300.975
301.216
301.268
301.254
301.218
301.184
301.204
301.269
301.314
301.301
301.287
301.279
301.271
301.264
301.255
301.242
301.224
301.202
301.176
301.146
300.002
300.004
300.006
300.006
300.007
300.006
300.005
300.005
300.004
300.005
300.006
300.009
300.015
300.022
300.033
300.046
300.062
300.078
300.095
300.111
300.125
300.136
300.146
300.158
300.178
300.225
300.335
300.567
300.95
301.375
301.539
301.593
301.595
301.575
301.547
301.524
301.515
301.518
301.517
301.506
301.491
301.474
301.458
301.44
301.419
301.395
301.368
301.338
301.304
301.265
300
300
300
299.999
299.998
299.996
299.994
299.993
299.992
299.993
299.994
299.998
300.005
300.014
300.027
300.043
300.061
300.079
300.097
300.114
300.129
300.142
300.155
300.174
300.216
300.319
300.572
301.129
301.551
301.743
301.825
301.861
301.868
301.861
301.846
301.83
301.818
301.811
301.803
301.793
301.779
301.764
301.745
301.723
301.699
301.671
301.639
301.604
301.565
301.521
300
299.998
299.996
299.994
299.991
299.989
299.986
299.985
299.984
299.984
299.986
299.991
299.999
300.01
300.026
300.044
300.064
300.084
300.103
300.121
300.138
300.155
300.175
300.213
300.306
300.545
301.164
301.598
301.815
301.968
302.07
302.127
302.156
302.166
302.166
302.162
302.157
302.152
302.147
302.139
302.127
302.113
302.096
302.075
302.052
302.025
301.995
301.961
301.923
301.88
299.997
299.993
299.99
299.987
299.984
299.981
299.978
299.976
299.975
299.975
299.978
299.985
299.995
300.01
300.029
300.051
300.074
300.096
300.117
300.137
300.158
300.182
300.221
300.303
300.524
301.13
301.572
301.807
302.018
302.188
302.308
302.385
302.432
302.458
302.472
302.478
302.481
302.48
302.477
302.472
302.464
302.453
302.439
302.423
302.404
302.383
302.359
302.332
302.302
302.268
299.989
299.983
299.979
299.976
299.973
299.969
299.966
299.964
299.963
299.965
299.971
299.981
299.996
300.016
300.04
300.068
300.095
300.12
300.144
300.168
300.198
300.241
300.321
300.519
301.113
301.518
301.758
301.999
302.221
302.399
302.528
302.615
302.671
302.707
302.728
302.74
302.747
302.75
302.75
302.747
302.742
302.734
302.725
302.714
302.701
302.686
302.67
302.651
302.63
302.607
299.981
299.972
299.967
299.962
299.957
299.952
299.949
299.948
299.951
299.957
299.969
299.986
300.007
300.035
300.067
300.103
300.136
300.166
300.197
300.229
300.286
300.369
300.555
301.123
301.482
301.701
301.95
302.197
302.417
302.591
302.718
302.804
302.861
302.897
302.919
302.933
302.941
302.945
302.946
302.945
302.942
302.938
302.932
302.925
302.918
302.909
302.899
302.888
302.876
302.862
299.961
299.944
299.935
299.93
299.927
299.926
299.927
299.933
299.944
299.961
299.984
300.012
300.044
300.079
300.122
300.17
300.212
300.249
300.299
300.344
300.488
300.675
301.224
301.467
301.667
301.905
302.155
302.394
302.599
302.758
302.871
302.946
302.995
303.025
303.044
303.056
303.062
303.066
303.068
303.068
303.067
303.064
303.062
303.058
303.054
303.05
303.045
303.04
303.034
303.027
299.955
299.944
299.942
299.939
299.934
299.928
299.926
299.933
299.956
299.993
300.038
300.086
300.133
300.178
300.231
300.297
300.351
300.389
300.513
300.56
301.052
301.351
301.487
301.673
301.89
302.128
302.367
302.583
302.76
302.892
302.984
303.043
303.08
303.102
303.116
303.124
303.128
303.131
303.132
303.133
303.133
303.132
303.131
303.129
303.128
303.126
303.124
303.122
303.119
303.117
299.92
299.88
299.854
299.839
299.835
299.844
299.873
299.926
300.003
300.093
300.185
300.27
300.342
300.396
300.441
300.547
300.613
300.604
301.069
301.33
301.435
301.568
301.733
301.926
302.142
302.366
302.576
302.756
302.895
302.995
303.061
303.102
303.126
303.141
303.149
303.154
303.157
303.159
303.16
303.16
303.16
303.16
303.16
303.16
303.159
303.159
303.158
303.158
303.157
303.157
299.936
299.937
299.968
300.012
300.061
300.111
300.162
300.216
300.316
300.433
300.566
300.697
300.804
300.852
300.765
301.041
301.279
301.369
301.46
301.574
301.7
301.85
302.024
302.215
302.413
302.602
302.767
302.899
302.996
303.062
303.103
303.129
303.143
303.152
303.157
303.159
303.161
303.162
303.163
303.163
303.164
303.164
303.164
303.164
303.164
303.164
303.165
303.165
303.165
303.166
299.88
299.811
299.747
299.669
299.567
299.429
299.222
298.994
299.737
300.561
301.239
301.699
301.932
301.965
301.866
301.715
301.643
301.67
301.776
301.902
302.045
302.202
302.366
302.53
302.682
302.815
302.922
303.002
303.057
303.093
303.114
303.127
303.134
303.138
303.14
303.141
303.142
303.142
303.143
303.143
303.144
303.144
303.145
303.145
303.146
303.146
303.147
303.147
303.148
303.149
301.431
301.299
301.221
301.14
301.061
300.987
300.932
300.936
301.099
301.456
301.857
302.144
302.295
302.329
302.282
302.198
302.139
302.16
302.247
302.357
302.472
302.587
302.695
302.792
302.874
302.94
302.989
303.023
303.045
303.059
303.067
303.072
303.075
303.077
303.078
303.079
303.08
303.081
303.082
303.083
303.084
303.085
303.086
303.087
303.088
303.089
303.09
303.091
303.092
303.092
303.149
303.148
303.146
303.145
303.144
303.142
303.141
303.14
303.139
303.138
303.136
303.135
303.134
303.133
303.132
303.131
303.13
303.128
303.127
303.126
303.125
303.124
303.123
303.122
303.121
303.12
303.119
303.118
303.117
303.116
303.115
303.114
303.113
303.113
303.112
303.111
303.11
303.109
303.108
303.107
303.106
303.105
303.105
303.104
303.103
303.102
303.102
303.101
303.101
303.1
303.15
303.15
303.15
303.15
303.15
303.15
303.15
303.15
303.15
303.15
303.149
303.149
303.149
303.149
303.149
303.149
303.149
303.149
303.148
303.148
303.148
303.148
303.148
303.148
303.148
303.147
303.147
303.147
303.147
303.147
303.147
303.147
303.146
303.146
303.146
303.146
303.146
303.146
303.145
303.145
303.145
303.145
303.145
303.145
303.145
303.144
303.144
303.144
303.144
303.144
303.15
303.15
303.15
303.15
303.15
303.15
303.15
303.15
303.15
303.15
303.15
303.15
303.15
303.15
303.15
303.15
303.15
303.15
303.15
303.15
303.15
303.15
303.15
303.15
303.15
303.15
303.15
303.15
303.15
303.15
303.15
303.15
303.15
303.15
303.15
303.15
303.15
303.15
303.15
303.15
303.15
303.15
303.15
303.15
303.15
303.15
303.15
303.15
303.15
303.15
303.15
303.15
303.15
303.15
303.15
303.15
303.15
303.15
303.15
303.15
303.15
303.15
303.15
303.15
303.15
303.15
303.15
303.15
303.15
303.15
303.15
303.15
303.15
303.15
303.15
303.15
303.15
303.15
303.15
303.15
303.15
303.15
303.15
303.15
303.15
303.15
303.15
303.15
303.15
303.15
303.15
303.15
303.15
303.15
303.15
303.15
303.15
303.15
303.15
303.15
303.15
303.15
303.15
303.15
303.15
303.15
303.15
303.15
303.15
303.15
303.15
303.15
303.15
303.15
303.15
303.15
303.15
303.15
303.15
303.15
303.15
303.15
303.15
303.15
303.15
303.15
303.15
303.15
303.15
303.15
303.15
303.15
303.15
303.15
303.15
303.15
303.15
303.15
303.15
303.15
303.15
303.15
303.15
303.15
303.15
303.15
303.15
303.15
303.15
303.15
303.15
303.15
303.15
303.15
303.15
303.15
303.15
303.15
303.15
303.15
303.15
303.15
303.15
303.15
303.15
303.15
303.15
303.15
303.15
303.15
303.15
303.15
303.15
303.15
303.15
303.15
303.15
303.15
303.15
303.15
303.15
303.15
303.15
303.15
303.15
303.15
303.15
303.15
303.15
303.15
303.15
303.15
303.15
303.15
303.15
303.15
303.15
303.15
303.15
303.15
303.15
303.15
303.15
303.15
303.15
303.15
303.15
303.15
303.15
303.15
303.15
303.15
303.15
303.15
303.15
303.15
303.15
303.15
303.15
303.15
303.15
303.15
303.15
303.15
303.15
303.15
303.15
303.15
303.15
303.15
303.15
303.15
303.15
303.15
303.15
303.15
303.15
303.15
303.15
303.15
303.15
303.15
303.15
303.15
303.15
303.15
303.15
303.15
303.15
303.15
303.15
303.15
303.15
303.15
303.15
303.15
303.15
303.15
303.15
303.15
303.15
303.15
303.15
303.15
303.15
303.15
303.15
303.15
303.15
303.15
303.15
303.15
303.15
303.15
303.15
303.15
303.15
303.15
303.15
303.15
303.15
303.15
303.15
303.15
303.15
303.15
303.15
303.15
303.15
303.15
303.15
303.15
303.15
303.15
303.15
303.15
303.15
303.15
303.15
303.15
303.15
303.15
303.15
303.15
303.15
303.15
303.15
303.15
303.15
303.15
303.15
303.15
303.15
303.15
303.15
303.15
303.15
303.15
303.15
303.15
303.15
303.15
303.15
303.15
303.15
303.15
303.15
303.15
303.15
303.15
303.15
303.15
303.15
303.15
303.15
303.15
303.15
303.15
303.15
303.15
303.15
303.15
303.15
303.15
303.15
303.15
303.15
303.15
303.15
303.15
303.15
303.15
303.15
303.15
303.15
303.15
303.15
303.15
303.15
303.15
303.15
303.15
303.15
303.15
303.15
303.15
303.15
303.15
303.15
303.15
303.15
303.15
303.15
303.15
303.15
303.15
303.15
303.15
303.15
303.15
303.15
303.15
303.15
303.15
303.15
303.15
303.15
303.15
303.15
303.15
303.15
303.15
303.15
303.15
303.15
303.15
303.15
303.15
303.15
303.15
303.15
303.15
303.15
303.15
303.15
303.15
303.15
303.15
303.15
303.15
303.15
303.15
303.15
303.15
303.15
303.15
303.15
303.15
303.15
303.15
303.15
303.15
303.15
303.15
303.15
303.15
303.15
303.15
303.15
303.15
303.15
303.15
303.15
303.15
303.15
303.15
303.15
303.15
303.15
303.15
303.15
303.15
303.15
303.15
303.15
303.15
303.15
303.15
303.15
303.15
303.15
303.15
303.15
303.15
303.15
303.15
303.15
303.15
303.15
303.15
303.15
303.15
303.15
303.15
303.15
303.15
303.15
303.15
303.15
303.15
303.15
303.15
303.15
303.15
303.15
303.15
303.15
303.15
303.15
303.15
303.15
303.15
303.15
303.15
303.15
303.15
303.15
303.15
303.15
303.15
303.15
303.15
303.15
303.15
303.15
303.15
303.15
303.15
303.15
303.15
303.15
303.15
303.15
303.15
303.15
303.15
303.15
303.15
303.15
303.15
303.15
303.15
303.15
303.15
303.15
303.15
303.15
303.15
303.15
303.15
303.15
303.15
303.15
303.15
303.15
303.15
303.15
303.15
303.15
303.15
303.15
303.15
303.15
303.15
303.15
303.15
303.15
303.15
303.15
303.15
303.15
303.15
303.15
303.15
303.15
303.15
303.15
303.15
303.15
303.15
303.15
303.15
303.15
303.15
303.15
303.15
303.15
303.15
303.15
303.15
303.15
303.15
303.15
303.15
303.15
303.15
303.15
303.15
303.15
303.15
303.15
303.15
303.15
303.15
303.15
303.15
303.15
303.15
303.15
303.15
303.15
303.15
303.15
303.15
303.15
303.15
303.15
303.15
303.15
303.15
303.15
303.15
303.15
303.15
303.15
303.15
303.15
303.15
303.15
303.15
303.15
303.15
303.15
303.15
303.15
303.15
303.15
303.15
303.15
303.15
303.15
303.15
303.15
303.15
303.15
303.15
303.15
303.15
303.15
303.15
303.15
303.15
303.15
303.15
303.15
303.15
303.15
303.15
303.15
303.15
303.15
303.15
303.15
303.15
303.15
303.15
303.15
303.15
303.15
303.15
303.15
303.15
303.15
303.15
303.15
303.15
303.15
303.15
303.15
303.15
303.15
303.15
303.15
303.15
303.15
303.15
303.15
303.15
303.15
303.15
303.15
303.15
303.15
303.15
303.15
303.15
303.15
303.15
303.15
303.15
303.15
303.15
303.15
303.15
303.15
303.15
303.15
303.15
303.15
303.15
303.15
303.15
303.15
303.15
303.15
303.15
303.15
303.15
303.15
303.15
303.15
303.15
303.15
303.15
303.15
303.15
303.15
303.15
303.15
303.15
303.15
303.15
303.15
303.15
303.15
303.15
303.15
303.15
303.15
303.15
303.15
303.15
303.15
303.15
303.15
303.15
303.15
303.15
303.15
303.15
303.15
303.15
303.15
303.15
303.15
303.15
303.15
303.15
303.15
303.15
303.15
303.15
303.15
303.15
303.15
303.15
303.15
303.15
303.15
303.15
303.15
303.15
303.15
303.15
303.15
303.15
303.15
303.15
303.15
303.15
303.15
303.15
303.15
303.15
303.15
303.15
303.15
303.15
303.15
303.15
303.15
303.15
303.15
303.15
303.15
303.15
303.15
303.15
303.15
303.15
303.15
303.15
303.15
303.15
303.15
303.15
303.15
303.15
303.15
303.15
303.15
303.15
303.15
303.15
303.15
303.15
303.15
303.15
303.15
303.15
303.15
303.15
303.149
303.149
303.149
303.149
303.149
303.149
303.149
303.149
303.15
303.15
303.15
303.15
303.15
303.15
303.15
303.15
303.15
303.15
303.149
303.149
303.149
303.149
303.149
303.149
303.149
303.149
303.148
303.148
303.148
303.148
303.148
303.148
303.148
303.147
303.147
303.147
303.147
303.147
303.147
303.146
303.146
303.146
303.146
303.146
303.145
303.145
303.145
303.145
303.145
303.144
303.144
303.144
303.143
303.143
303.143
303.142
303.142
303.141
303.149
303.148
303.146
303.145
303.144
303.142
303.141
303.14
303.139
303.138
303.136
303.135
303.134
303.133
303.132
303.131
303.13
303.128
303.127
303.126
303.125
303.124
303.123
303.122
303.121
303.12
303.119
303.118
303.117
303.116
303.115
303.114
303.113
303.112
303.112
303.111
303.11
303.109
303.108
303.107
303.106
303.105
303.104
303.104
303.103
303.102
303.101
303.1
303.099
303.098
303.02
303.115
303.145
303.149
303.15
303.15
303.15
303.15
303.15
303.15
303.15
303.15
303.15
303.15
303.15
303.148
303.143
303.127
303.082
302.983
303.019
303.115
303.145
303.149
303.15
303.15
303.15
303.15
303.15
303.15
303.15
303.15
303.15
303.15
303.15
303.149
303.144
303.129
303.084
302.984
303.018
303.115
303.145
303.149
303.15
303.15
303.15
303.15
303.15
303.15
303.15
303.15
303.15
303.15
303.15
303.149
303.145
303.131
303.087
302.985
303.018
303.114
303.144
303.149
303.15
303.15
303.15
303.15
303.15
303.15
303.15
303.15
303.15
303.15
303.15
303.149
303.146
303.132
303.088
302.985
303.017
303.114
303.144
303.149
303.15
303.15
303.15
303.15
303.15
303.15
303.15
303.15
303.15
303.15
303.15
303.149
303.146
303.133
303.09
302.986
303.017
303.114
303.144
303.149
303.15
303.15
303.15
303.15
303.15
303.15
303.15
303.15
303.15
303.15
303.15
303.149
303.146
303.134
303.091
302.987
303.017
303.114
303.144
303.149
303.15
303.15
303.15
303.15
303.15
303.15
303.15
303.15
303.15
303.15
303.15
303.149
303.147
303.135
303.093
302.987
303.016
303.113
303.144
303.149
303.15
303.15
303.15
303.15
303.15
303.15
303.15
303.15
303.15
303.15
303.15
303.149
303.147
303.135
303.094
302.988
303.016
303.113
303.144
303.149
303.15
303.15
303.15
303.15
303.15
303.15
303.15
303.15
303.15
303.15
303.15
303.149
303.147
303.136
303.094
302.988
303.016
303.113
303.144
303.149
303.15
303.15
303.15
303.15
303.15
303.15
303.15
303.15
303.15
303.15
303.15
303.149
303.147
303.137
303.095
302.989
303.016
303.113
303.144
303.149
303.15
303.15
303.15
303.15
303.15
303.15
303.15
303.15
303.15
303.15
303.15
303.15
303.147
303.137
303.096
302.99
303.017
303.113
303.144
303.149
303.15
303.15
303.15
303.15
303.15
303.15
303.15
303.15
303.15
303.15
303.15
303.15
303.147
303.137
303.097
302.99
303.017
303.113
303.144
303.149
303.15
303.15
303.15
303.15
303.15
303.15
303.15
303.15
303.15
303.15
303.15
303.15
303.148
303.138
303.097
302.991
303.017
303.113
303.144
303.149
303.15
303.15
303.15
303.15
303.15
303.15
303.15
303.15
303.15
303.15
303.15
303.15
303.148
303.138
303.098
302.991
303.017
303.114
303.144
303.149
303.15
303.15
303.15
303.15
303.15
303.15
303.15
303.15
303.15
303.15
303.15
303.15
303.148
303.138
303.098
302.992
303.018
303.114
303.144
303.149
303.15
303.15
303.15
303.15
303.15
303.15
303.15
303.15
303.15
303.15
303.15
303.15
303.148
303.138
303.099
302.992
303.018
303.114
303.144
303.149
303.15
303.15
303.15
303.15
303.15
303.15
303.15
303.15
303.15
303.15
303.15
303.15
303.148
303.139
303.099
302.993
303.018
303.114
303.144
303.149
303.15
303.15
303.15
303.15
303.15
303.15
303.15
303.15
303.15
303.15
303.15
303.15
303.148
303.139
303.1
302.994
303.019
303.114
303.144
303.149
303.15
303.15
303.15
303.15
303.15
303.15
303.15
303.15
303.15
303.15
303.15
303.15
303.148
303.139
303.1
302.994
303.019
303.114
303.144
303.149
303.15
303.15
303.15
303.15
303.15
303.15
303.15
303.15
303.15
303.15
303.15
303.15
303.148
303.139
303.1
302.995
303.02
303.114
303.144
303.149
303.15
303.15
303.15
303.15
303.15
303.15
303.15
303.15
303.15
303.15
303.15
303.15
303.148
303.139
303.101
302.995
303.02
303.115
303.144
303.149
303.15
303.15
303.15
303.15
303.15
303.15
303.15
303.15
303.15
303.15
303.15
303.15
303.148
303.139
303.101
302.996
303.021
303.115
303.144
303.149
303.15
303.15
303.15
303.15
303.15
303.15
303.15
303.15
303.15
303.15
303.15
303.15
303.148
303.139
303.101
302.997
303.021
303.115
303.144
303.149
303.15
303.15
303.15
303.15
303.15
303.15
303.15
303.15
303.15
303.15
303.15
303.15
303.148
303.14
303.102
302.997
303.022
303.115
303.144
303.149
303.15
303.15
303.15
303.15
303.15
303.15
303.15
303.15
303.15
303.15
303.15
303.15
303.148
303.14
303.102
302.998
303.022
303.115
303.145
303.149
303.15
303.15
303.15
303.15
303.15
303.15
303.15
303.15
303.15
303.15
303.15
303.15
303.148
303.14
303.102
302.998
303.023
303.115
303.145
303.149
303.15
303.15
303.15
303.15
303.15
303.15
303.15
303.15
303.15
303.15
303.15
303.15
303.148
303.14
303.103
302.999
303.023
303.116
303.145
303.149
303.15
303.15
303.15
303.15
303.15
303.15
303.15
303.15
303.15
303.15
303.15
303.15
303.148
303.14
303.103
302.999
303.024
303.116
303.145
303.149
303.15
303.15
303.15
303.15
303.15
303.15
303.15
303.15
303.15
303.15
303.15
303.15
303.148
303.14
303.103
303
303.024
303.116
303.145
303.149
303.15
303.15
303.15
303.15
303.15
303.15
303.15
303.15
303.15
303.15
303.15
303.15
303.148
303.14
303.104
303.001
303.025
303.116
303.145
303.149
303.15
303.15
303.15
303.15
303.15
303.15
303.15
303.15
303.15
303.15
303.15
303.15
303.148
303.14
303.104
303.001
303.025
303.117
303.145
303.149
303.15
303.15
303.15
303.15
303.15
303.15
303.15
303.15
303.15
303.15
303.15
303.15
303.148
303.14
303.104
303.002
303.026
303.117
303.145
303.149
303.15
303.15
303.15
303.15
303.15
303.15
303.15
303.15
303.15
303.15
303.15
303.15
303.148
303.14
303.105
303.002
303.026
303.117
303.145
303.149
303.15
303.15
303.15
303.15
303.15
303.15
303.15
303.15
303.15
303.15
303.15
303.15
303.148
303.14
303.105
303.003
303.027
303.117
303.145
303.149
303.15
303.15
303.15
303.15
303.15
303.15
303.15
303.15
303.15
303.15
303.15
303.15
303.148
303.141
303.105
303.004
303.027
303.117
303.145
303.149
303.15
303.15
303.15
303.15
303.15
303.15
303.15
303.15
303.15
303.15
303.15
303.15
303.148
303.141
303.105
303.004
303.028
303.118
303.145
303.149
303.15
303.15
303.15
303.15
303.15
303.15
303.15
303.15
303.15
303.15
303.15
303.15
303.148
303.141
303.106
303.005
303.028
303.118
303.145
303.149
303.15
303.15
303.15
303.15
303.15
303.15
303.15
303.15
303.15
303.15
303.15
303.15
303.148
303.141
303.106
303.005
303.029
303.118
303.145
303.149
303.15
303.15
303.15
303.15
303.15
303.15
303.15
303.15
303.15
303.15
303.15
303.15
303.148
303.141
303.106
303.006
303.029
303.118
303.145
303.149
303.15
303.15
303.15
303.15
303.15
303.15
303.15
303.15
303.15
303.15
303.15
303.15
303.148
303.141
303.107
303.007
303.03
303.119
303.145
303.149
303.15
303.15
303.15
303.15
303.15
303.15
303.15
303.15
303.15
303.15
303.15
303.15
303.148
303.141
303.107
303.007
303.03
303.119
303.145
303.149
303.15
303.15
303.15
303.15
303.15
303.15
303.15
303.15
303.15
303.15
303.15
303.15
303.148
303.141
303.107
303.008
303.031
303.119
303.145
303.149
303.15
303.15
303.15
303.15
303.15
303.15
303.15
303.15
303.15
303.15
303.15
303.15
303.148
303.141
303.107
303.008
303.031
303.119
303.145
303.149
303.15
303.15
303.15
303.15
303.15
303.15
303.15
303.15
303.15
303.15
303.15
303.15
303.148
303.141
303.108
303.009
303.032
303.12
303.145
303.149
303.15
303.15
303.15
303.15
303.15
303.15
303.15
303.15
303.15
303.15
303.15
303.15
303.148
303.141
303.108
303.01
303.032
303.12
303.146
303.149
303.15
303.15
303.15
303.15
303.15
303.15
303.15
303.15
303.15
303.15
303.15
303.15
303.148
303.141
303.108
303.01
303.033
303.12
303.146
303.149
303.15
303.15
303.15
303.15
303.15
303.15
303.15
303.15
303.15
303.15
303.15
303.15
303.149
303.141
303.109
303.011
303.033
303.12
303.146
303.149
303.15
303.15
303.15
303.15
303.15
303.15
303.15
303.15
303.15
303.15
303.15
303.15
303.149
303.142
303.109
303.012
303.034
303.12
303.146
303.149
303.15
303.15
303.15
303.15
303.15
303.15
303.15
303.15
303.15
303.15
303.15
303.15
303.149
303.142
303.109
303.012
303.034
303.121
303.146
303.15
303.15
303.15
303.15
303.15
303.15
303.15
303.15
303.15
303.15
303.15
303.15
303.15
303.149
303.142
303.109
303.013
303.035
303.121
303.146
303.15
303.15
303.15
303.15
303.15
303.15
303.15
303.15
303.15
303.15
303.15
303.15
303.15
303.149
303.142
303.11
303.013
303.036
303.121
303.146
303.15
303.15
303.15
303.15
303.15
303.15
303.15
303.15
303.15
303.15
303.15
303.15
303.15
303.149
303.142
303.11
303.014
303.036
303.121
303.146
303.15
303.15
303.15
303.15
303.15
303.15
303.15
303.15
303.15
303.15
303.15
303.15
303.15
303.149
303.142
303.11
303.015
303.037
303.122
303.146
303.15
303.15
303.15
303.15
303.15
303.15
303.15
303.15
303.15
303.15
303.15
303.15
303.15
303.149
303.142
303.11
303.015
303.037
303.122
303.146
303.15
303.15
303.15
303.15
303.15
303.15
303.15
303.15
303.15
303.15
303.15
303.15
303.15
303.149
303.142
303.111
303.016
303.038
303.122
303.146
303.15
303.15
303.15
303.15
303.15
303.15
303.15
303.15
303.15
303.15
303.15
303.15
303.15
303.149
303.142
303.111
303.017
303.038
303.122
303.146
303.15
303.15
303.15
303.15
303.15
303.15
303.15
303.15
303.15
303.15
303.15
303.15
303.15
303.149
303.142
303.111
303.017
303.039
303.123
303.146
303.15
303.15
303.15
303.15
303.15
303.15
303.15
303.15
303.15
303.15
303.15
303.15
303.15
303.149
303.142
303.112
303.018
303.039
303.123
303.146
303.15
303.15
303.15
303.15
303.15
303.15
303.15
303.15
303.15
303.15
303.15
303.15
303.15
303.149
303.142
303.112
303.018
303.04
303.123
303.146
303.15
303.15
303.15
303.15
303.15
303.15
303.15
303.15
303.15
303.15
303.15
303.15
303.15
303.149
303.142
303.112
303.019
303.04
303.123
303.146
303.15
303.15
303.15
303.15
303.15
303.15
303.15
303.15
303.15
303.15
303.15
303.15
303.15
303.149
303.142
303.112
303.02
303.041
303.124
303.146
303.15
303.15
303.15
303.15
303.15
303.15
303.15
303.15
303.15
303.15
303.15
303.15
303.15
303.149
303.143
303.113
303.02
303.041
303.124
303.146
303.15
303.15
303.15
303.15
303.15
303.15
303.15
303.15
303.15
303.15
303.15
303.15
303.15
303.149
303.143
303.113
303.021
303.042
303.124
303.146
303.15
303.15
303.15
303.15
303.15
303.15
303.15
303.15
303.15
303.15
303.15
303.15
303.15
303.149
303.143
303.113
303.022
303.042
303.124
303.146
303.15
303.15
303.15
303.15
303.15
303.15
303.15
303.15
303.15
303.15
303.15
303.15
303.15
303.149
303.143
303.114
303.022
303.043
303.124
303.147
303.15
303.15
303.15
303.15
303.15
303.15
303.15
303.15
303.15
303.15
303.15
303.15
303.15
303.149
303.143
303.114
303.023
303.044
303.125
303.147
303.15
303.15
303.15
303.15
303.15
303.15
303.15
303.15
303.15
303.15
303.15
303.15
303.15
303.149
303.143
303.114
303.024
303.044
303.125
303.147
303.15
303.15
303.15
303.15
303.15
303.15
303.15
303.15
303.15
303.15
303.15
303.15
303.15
303.149
303.143
303.114
303.024
303.045
303.125
303.147
303.15
303.15
303.15
303.15
303.15
303.15
303.15
303.15
303.15
303.15
303.15
303.15
303.15
303.149
303.143
303.115
303.025
303.045
303.125
303.147
303.15
303.15
303.15
303.15
303.15
303.15
303.15
303.15
303.15
303.15
303.15
303.15
303.15
303.149
303.143
303.115
303.026
303.046
303.126
303.147
303.15
303.15
303.15
303.15
303.15
303.15
303.15
303.15
303.15
303.15
303.15
303.15
303.15
303.149
303.143
303.115
303.026
303.046
303.126
303.147
303.15
303.15
303.15
303.15
303.15
303.15
303.15
303.15
303.15
303.15
303.15
303.15
303.15
303.149
303.143
303.116
303.027
303.047
303.126
303.147
303.15
303.15
303.15
303.15
303.15
303.15
303.15
303.15
303.15
303.15
303.15
303.15
303.15
303.149
303.143
303.116
303.028
303.047
303.126
303.147
303.15
303.15
303.15
303.15
303.15
303.15
303.15
303.15
303.15
303.15
303.15
303.15
303.15
303.149
303.143
303.116
303.028
303.048
303.127
303.147
303.15
303.15
303.15
303.15
303.15
303.15
303.15
303.15
303.15
303.15
303.15
303.15
303.15
303.149
303.143
303.116
303.029
303.048
303.127
303.147
303.15
303.15
303.15
303.15
303.15
303.15
303.15
303.15
303.15
303.15
303.15
303.15
303.15
303.149
303.143
303.117
303.03
303.049
303.127
303.147
303.15
303.15
303.15
303.15
303.15
303.15
303.15
303.15
303.15
303.15
303.15
303.15
303.15
303.149
303.144
303.117
303.03
303.05
303.127
303.147
303.15
303.15
303.15
303.15
303.15
303.15
303.15
303.15
303.15
303.15
303.15
303.15
303.15
303.149
303.144
303.117
303.031
303.05
303.127
303.147
303.15
303.15
303.15
303.15
303.15
303.15
303.15
303.15
303.15
303.15
303.15
303.15
303.15
303.149
303.144
303.117
303.032
303.051
303.128
303.147
303.15
303.15
303.15
303.15
303.15
303.15
303.15
303.15
303.15
303.15
303.15
303.15
303.15
303.149
303.144
303.118
303.032
303.051
303.128
303.147
303.15
303.15
303.15
303.15
303.15
303.15
303.15
303.15
303.15
303.15
303.15
303.15
303.15
303.149
303.144
303.118
303.033
303.052
303.128
303.147
303.15
303.15
303.15
303.15
303.15
303.15
303.15
303.15
303.15
303.15
303.15
303.15
303.15
303.149
303.144
303.118
303.034
303.052
303.128
303.147
303.15
303.15
303.15
303.15
303.15
303.15
303.15
303.15
303.15
303.15
303.15
303.15
303.15
303.149
303.144
303.119
303.034
303.053
303.129
303.147
303.15
303.15
303.15
303.15
303.15
303.15
303.15
303.15
303.15
303.15
303.15
303.15
303.15
303.149
303.144
303.119
303.035
303.054
303.129
303.147
303.15
303.15
303.15
303.15
303.15
303.15
303.15
303.15
303.15
303.15
303.15
303.15
303.15
303.149
303.144
303.119
303.036
303.054
303.129
303.147
303.15
303.15
303.15
303.15
303.15
303.15
303.15
303.15
303.15
303.15
303.15
303.15
303.15
303.149
303.144
303.119
303.036
303.055
303.129
303.147
303.15
303.15
303.15
303.15
303.15
303.15
303.15
303.15
303.15
303.15
303.15
303.15
303.15
303.149
303.144
303.12
303.037
303.055
303.13
303.148
303.15
303.15
303.15
303.15
303.15
303.15
303.15
303.15
303.15
303.15
303.15
303.15
303.15
303.149
303.144
303.12
303.038
303.056
303.13
303.148
303.15
303.15
303.15
303.15
303.15
303.15
303.15
303.15
303.15
303.15
303.15
303.15
303.15
303.149
303.144
303.12
303.038
303.056
303.13
303.148
303.15
303.15
303.15
303.15
303.15
303.15
303.15
303.15
303.15
303.15
303.15
303.15
303.15
303.149
303.144
303.121
303.039
303.057
303.13
303.148
303.15
303.15
303.15
303.15
303.15
303.15
303.15
303.15
303.15
303.15
303.15
303.15
303.15
303.149
303.144
303.121
303.04
303.058
303.131
303.148
303.15
303.15
303.15
303.15
303.15
303.15
303.15
303.15
303.15
303.15
303.15
303.15
303.15
303.149
303.144
303.121
303.041
303.058
303.131
303.148
303.15
303.15
303.15
303.15
303.15
303.15
303.15
303.15
303.15
303.15
303.15
303.15
303.15
303.149
303.145
303.121
303.041
303.059
303.131
303.148
303.15
303.15
303.15
303.15
303.15
303.15
303.15
303.15
303.15
303.15
303.15
303.15
303.15
303.149
303.145
303.122
303.042
303.059
303.131
303.148
303.15
303.15
303.15
303.15
303.15
303.15
303.15
303.15
303.15
303.15
303.15
303.15
303.15
303.149
303.145
303.122
303.043
303.06
303.131
303.148
303.15
303.15
303.15
303.15
303.15
303.15
303.15
303.15
303.15
303.15
303.15
303.15
303.15
303.149
303.145
303.122
303.043
303.06
303.132
303.148
303.15
303.15
303.15
303.15
303.15
303.15
303.15
303.15
303.15
303.15
303.15
303.15
303.15
303.149