/*--------------------------------*- C++ -*----------------------------------*\
  =========                 |
  \\      /  F ield         | OpenFOAM: The Open Source CFD Toolbox
   \\    /   O peration     | Website:  https://openfoam.org
    \\  /    A nd           | Version:  8
     \\/     M anipulation  |
\*---------------------------------------------------------------------------*/
FoamFile
{
    version     2.0;
    format      ascii;
    class       volScalarField;
    location    "800";
    object      k;
}
// * * * * * * * * * * * * * * * * * * * * * * * * * * * * * * * * * * * * * //

dimensions      [0 2 -2 0 0 0 0];

internalField   nonuniform List<scalar> 
1200
(
0.0505472
0.0428478
0.0369112
0.0322398
0.0284973
0.0254524
0.022942
0.0208479
0.0190826
0.0175806
0.0162919
0.0151776
0.0142076
0.0133578
0.012609
0.0119457
0.0113553
0.0108274
0.0103534
0.00992631
0.00953998
0.00918941
0.00887029
0.00857897
0.00831231
0.00806761
0.00784252
0.007635
0.00744329
0.00726582
0.00710123
0.00694831
0.006806
0.00667334
0.0065495
0.00643372
0.00632532
0.0062237
0.00612832
0.00603868
0.00595434
0.00587489
0.00579998
0.00572926
0.00566244
0.00559923
0.00553939
0.00548269
0.00542891
0.00537786
0.00532935
0.00528322
0.00523933
0.00519752
0.00515766
0.00511964
0.00508335
0.00504868
0.00501555
0.00498383
0.0434539
0.0320527
0.0244795
0.0192386
0.0154837
0.0127112
0.0106115
0.00898669
0.00770571
0.00667921
0.00584479
0.00515789
0.00458603
0.00410514
0.00369708
0.00334798
0.00304709
0.00278601
0.00255806
0.00235792
0.00218126
0.00202459
0.00188503
0.00176018
0.00164808
0.00154705
0.00145571
0.00137287
0.00129752
0.00122878
0.00116593
0.00110832
0.00105539
0.00100666
0.000961706
0.000920151
0.00088167
0.000845975
0.00081281
0.000781945
0.000753175
0.000726321
0.000701221
0.00067773
0.000655718
0.000635068
0.000615674
0.00059744
0.000580278
0.000564108
0.00054886
0.000534466
0.000520868
0.000508009
0.00049584
0.000484313
0.000473379
0.000462971
0.000452969
0.000442396
0.0434334
0.0319432
0.0243158
0.0190352
0.0152511
0.0124595
0.0103484
0.00871752
0.00743414
0.00640784
0.00557541
0.00489171
0.00432383
0.00384742
0.0034441
0.00309986
0.00280384
0.00254757
0.00232432
0.00212871
0.00195642
0.00180392
0.00166833
0.00154727
0.00143874
0.00134111
0.00125296
0.00117312
0.0011006
0.00103452
0.000974157
0.000918875
0.000868123
0.000821424
0.00077836
0.000738568
0.000701726
0.000667553
0.000635798
0.000606244
0.000578695
0.000552975
0.000528926
0.000506409
0.000485297
0.000465477
0.000446846
0.000429312
0.000412792
0.000397209
0.000382494
0.000368585
0.000355425
0.000342961
0.000331146
0.000319935
0.000309288
0.000299168
0.000289534
0.000280333
0.0434334
0.0319682
0.0243515
0.0190751
0.0152907
0.0124965
0.0103817
0.00874693
0.00745988
0.00643023
0.00559483
0.00490854
0.00433843
0.00386009
0.00345511
0.00310945
0.00281221
0.00255488
0.00233071
0.00213432
0.00196134
0.00180824
0.00167213
0.00155061
0.00144168
0.00134369
0.00125522
0.00117511
0.00110233
0.00103603
0.000975474
0.000920014
0.000869102
0.000822258
0.000779064
0.000739153
0.000702204
0.000667933
0.000636089
0.00060645
0.000578818
0.000553018
0.000528893
0.000506301
0.000485116
0.000465224
0.000446524
0.000428922
0.000412334
0.000396685
0.000381906
0.000367933
0.000354709
0.000342183
0.000330306
0.000319034
0.000308327
0.000298148
0.000288464
0.000279242
0.0434334
0.0319682
0.024348
0.019069
0.015283
0.0124882
0.0103735
0.00873924
0.00745289
0.00642401
0.00558937
0.00490378
0.00433431
0.00385653
0.00345204
0.00310681
0.00280994
0.00255292
0.00232903
0.00213286
0.00196008
0.00180716
0.0016712
0.0015498
0.00144098
0.00134308
0.0012547
0.00117466
0.00110195
0.0010357
0.000975187
0.000919768
0.000868891
0.000822079
0.000778912
0.000739025
0.000702097
0.000667844
0.000636016
0.000606392
0.000578773
0.000552983
0.000528867
0.000506284
0.000485106
0.000465221
0.000446526
0.000428929
0.000412346
0.000396701
0.000381924
0.000367954
0.000354733
0.000342208
0.000330333
0.000319062
0.000308356
0.000298178
0.000288494
0.000279273
0.0434334
0.0319683
0.024348
0.019069
0.015283
0.0124882
0.0103735
0.00873925
0.0074529
0.00642401
0.00558938
0.00490379
0.00433431
0.00385653
0.00345205
0.00310681
0.00280994
0.00255293
0.00232903
0.00213286
0.00196009
0.00180716
0.0016712
0.0015498
0.00144098
0.00134308
0.0012547
0.00117466
0.00110195
0.0010357
0.000975187
0.000919767
0.000868891
0.000822078
0.000778911
0.000739025
0.000702096
0.000667843
0.000636015
0.00060639
0.000578771
0.000552982
0.000528866
0.000506282
0.000485105
0.00046522
0.000446525
0.000428928
0.000412344
0.000396699
0.000381923
0.000367953
0.000354731
0.000342207
0.000330331
0.00031906
0.000308355
0.000298177
0.000288493
0.000279271
0.0434334
0.0319682
0.0243515
0.0190751
0.0152907
0.0124965
0.0103817
0.00874693
0.00745987
0.00643022
0.00559483
0.00490854
0.00433843
0.00386009
0.00345511
0.00310945
0.00281221
0.00255488
0.00233071
0.00213432
0.00196134
0.00180824
0.00167213
0.00155061
0.00144168
0.00134369
0.00125522
0.00117511
0.00110233
0.00103603
0.000975473
0.000920012
0.0008691
0.000822256
0.000779062
0.000739152
0.000702202
0.000667931
0.000636087
0.000606447
0.000578816
0.000553016
0.00052889
0.000506298
0.000485112
0.000465221
0.00044652
0.000428918
0.00041233
0.000396681
0.000381901
0.000367928
0.000354704
0.000342177
0.0003303
0.000319028
0.00030832
0.000298141
0.000288456
0.000279235
0.0434334
0.0319432
0.0243158
0.0190352
0.0152511
0.0124596
0.0103484
0.00871754
0.00743416
0.00640785
0.00557542
0.00489171
0.00432384
0.00384742
0.0034441
0.00309986
0.00280385
0.00254757
0.00232432
0.00212871
0.00195642
0.00180392
0.00166833
0.00154727
0.00143875
0.00134111
0.00125296
0.00117312
0.0011006
0.00103452
0.000974156
0.000918874
0.000868121
0.000821422
0.000778358
0.000738565
0.000701723
0.00066755
0.000635794
0.000606237
0.00057868
0.000552948
0.000528886
0.000506352
0.000485221
0.000465379
0.000446727
0.000429173
0.000412633
0.000397031
0.000382298
0.000368371
0.000355194
0.000342713
0.000330881
0.000319653
0.000308991
0.000298854
0.000289204
0.000279994
0.0434539
0.0320528
0.0244796
0.0192387
0.0154838
0.0127114
0.0106117
0.00898699
0.00770606
0.0066796
0.00584523
0.00515835
0.00458651
0.00410564
0.00369757
0.00334846
0.00304757
0.00278647
0.00255851
0.00235835
0.00218168
0.00202499
0.00188541
0.00176055
0.00164843
0.00154739
0.00145604
0.00137318
0.00129781
0.00122906
0.0011662
0.00110857
0.00105563
0.00100688
0.000961906
0.000920335
0.000881839
0.000846129
0.000812948
0.000782071
0.000753292
0.000726433
0.000701331
0.000677841
0.000655833
0.000635188
0.000615798
0.000597567
0.000580409
0.000564243
0.000548998
0.000534608
0.000521013
0.000508159
0.000495995
0.000484473
0.000473543
0.000463139
0.000453135
0.000442533
0.0505472
0.0428478
0.0369111
0.0322397
0.0284972
0.0254523
0.0229419
0.0208477
0.0190825
0.0175805
0.0162918
0.0151775
0.0142075
0.0133577
0.0126089
0.0119456
0.0113552
0.0108273
0.0103534
0.00992623
0.00953991
0.00918933
0.00887022
0.00857891
0.00831225
0.00806755
0.00784246
0.00763494
0.00744323
0.00726576
0.00710118
0.00694826
0.00680595
0.0066733
0.00654945
0.00643367
0.00632528
0.00622366
0.00612828
0.00603864
0.00595429
0.00587485
0.00579993
0.00572921
0.00566239
0.00559919
0.00553935
0.00548265
0.00542886
0.00537781
0.0053293
0.00528317
0.00523927
0.00519746
0.00515761
0.00511959
0.00508329
0.00504862
0.00501548
0.00498376
0.0505472
0.0428477
0.0369109
0.0322394
0.0284969
0.0254521
0.0229417
0.0208476
0.0190823
0.0175804
0.0162917
0.0151774
0.0142074
0.0133576
0.0126088
0.0119455
0.0113551
0.0108273
0.0103534
0.00992623
0.00953991
0.00918934
0.00887023
0.00857892
0.00831226
0.00806756
0.00784246
0.00763495
0.00744323
0.00726577
0.00710118
0.00694826
0.00680595
0.00667329
0.00654945
0.00643366
0.00632527
0.00622365
0.00612826
0.00603862
0.00595427
0.00587482
0.00579991
0.00572919
0.00566236
0.00559916
0.00553932
0.00548261
0.00542883
0.00537777
0.00532926
0.00528314
0.00523924
0.00519743
0.00515757
0.00511956
0.00508326
0.00504859
0.00501546
0.00498374
0.0434539
0.0320528
0.0244796
0.0192386
0.0154837
0.0127111
0.0106114
0.00898652
0.00770549
0.00667897
0.00584457
0.0051577
0.0045859
0.00410507
0.00369707
0.00334801
0.00304717
0.00278611
0.00255817
0.00235803
0.00218137
0.00202469
0.00188511
0.00176026
0.00164815
0.00154712
0.00145578
0.00137294
0.00129759
0.00122887
0.00116603
0.00110843
0.00105551
0.00100678
0.000961831
0.00092028
0.000881802
0.000846108
0.000812941
0.000782074
0.000753302
0.000726446
0.000701344
0.000677851
0.000655838
0.000635187
0.000615792
0.000597557
0.000580395
0.000564227
0.000548982
0.000534593
0.000521
0.000508149
0.000495988
0.000484468
0.000473541
0.00046314
0.000453144
0.000442564
0.0434334
0.0319432
0.0243159
0.0190353
0.0152512
0.0124596
0.0103484
0.0087175
0.00743411
0.00640781
0.00557537
0.00489166
0.00432379
0.00384738
0.00344406
0.00309982
0.00280381
0.00254754
0.00232429
0.00212868
0.00195639
0.0018039
0.00166831
0.00154724
0.00143872
0.00134109
0.00125294
0.0011731
0.00110058
0.0010345
0.000974139
0.000918857
0.000868105
0.000821406
0.000778343
0.000738551
0.000701709
0.000667536
0.000635782
0.000606227
0.000578677
0.000552955
0.000528906
0.000506388
0.000485276
0.000465455
0.000446823
0.000429289
0.000412768
0.000397184
0.000382469
0.00036856
0.0003554
0.000342936
0.00033112
0.000319909
0.000309262
0.000299141
0.000289507
0.000280305
0.0434334
0.0319682
0.0243515
0.0190751
0.0152907
0.0124964
0.0103817
0.0087469
0.00745984
0.00643019
0.0055948
0.00490851
0.00433841
0.00386006
0.00345509
0.00310943
0.0028122
0.00255487
0.0023307
0.0021343
0.00196133
0.00180823
0.00167212
0.0015506
0.00144167
0.00134368
0.00125522
0.0011751
0.00110233
0.00103603
0.000975468
0.000920008
0.000869095
0.000822252
0.000779058
0.000739147
0.000702198
0.000667927
0.000636083
0.000606443
0.000578812
0.000553012
0.000528886
0.000506294
0.000485108
0.000465217
0.000446516
0.000428914
0.000412326
0.000396677
0.000381897
0.000367924
0.000354701
0.000342174
0.000330297
0.000319025
0.000308318
0.000298139
0.000288454
0.000279232
0.0434334
0.0319683
0.0243481
0.019069
0.0152831
0.0124882
0.0103735
0.00873922
0.00745286
0.00642398
0.00558934
0.00490376
0.00433428
0.0038565
0.00345202
0.00310679
0.00280992
0.00255291
0.00232901
0.00213285
0.00196007
0.00180715
0.00167118
0.00154979
0.00144097
0.00134307
0.00125469
0.00117465
0.00110194
0.00103569
0.000975178
0.000919758
0.000868882
0.000822069
0.000778903
0.000739016
0.000702088
0.000667835
0.000636007
0.000606382
0.000578763
0.000552974
0.000528858
0.000506274
0.000485097
0.000465211
0.000446517
0.000428919
0.000412336
0.00039669
0.000381914
0.000367944
0.000354723
0.000342198
0.000330322
0.000319051
0.000308345
0.000298167
0.000288483
0.000279262
0.0434334
0.0319683
0.0243481
0.019069
0.0152831
0.0124882
0.0103735
0.00873923
0.00745287
0.00642399
0.00558935
0.00490377
0.00433429
0.00385651
0.00345203
0.00310679
0.00280992
0.00255291
0.00232901
0.00213285
0.00196007
0.00180715
0.00167119
0.00154979
0.00144097
0.00134307
0.00125469
0.00117465
0.00110194
0.00103569
0.000975178
0.000919759
0.000868882
0.00082207
0.000778903
0.000739016
0.000702088
0.000667835
0.000636007
0.000606382
0.000578763
0.000552974
0.000528857
0.000506274
0.000485096
0.000465211
0.000446516
0.000428919
0.000412335
0.00039669
0.000381913
0.000367943
0.000354722
0.000342197
0.000330321
0.000319051
0.000308345
0.000298167
0.000288482
0.000279261
0.0434334
0.0319682
0.0243515
0.0190751
0.0152907
0.0124964
0.0103816
0.00874689
0.00745984
0.00643019
0.00559481
0.00490852
0.00433841
0.00386007
0.0034551
0.00310943
0.0028122
0.00255487
0.0023307
0.00213431
0.00196133
0.00180824
0.00167212
0.0015506
0.00144167
0.00134368
0.00125522
0.0011751
0.00110233
0.00103603
0.000975468
0.000920008
0.000869095
0.000822252
0.000779058
0.000739147
0.000702198
0.000667926
0.000636082
0.000606443
0.000578811
0.000553011
0.000528885
0.000506292
0.000485107
0.000465216
0.000446515
0.000428912
0.000412324
0.000396675
0.000381895
0.000367922
0.000354698
0.000342171
0.000330294
0.000319021
0.000308314
0.000298135
0.00028845
0.000279228
0.0434334
0.0319432
0.0243159
0.0190353
0.0152512
0.0124596
0.0103485
0.00871753
0.00743414
0.00640783
0.0055754
0.00489168
0.00432381
0.00384739
0.00344407
0.00309983
0.00280382
0.00254755
0.0023243
0.00212869
0.0019564
0.0018039
0.00166832
0.00154725
0.00143873
0.00134109
0.00125294
0.00117311
0.00110058
0.0010345
0.000974142
0.00091886
0.000868108
0.000821408
0.000778344
0.000738552
0.00070171
0.000667536
0.000635781
0.000606223
0.000578666
0.000552935
0.000528872
0.000506338
0.000485207
0.000465366
0.000446714
0.000429161
0.000412621
0.00039702
0.000382287
0.000368361
0.000355184
0.000342704
0.000330872
0.000319645
0.000308982
0.000298845
0.000289195
0.000279985
0.0434539
0.0320529
0.0244797
0.0192388
0.0154839
0.0127115
0.0106118
0.00898704
0.00770605
0.00667955
0.00584515
0.00515827
0.00458645
0.00410558
0.00369754
0.00334845
0.00304756
0.00278647
0.0025585
0.00235832
0.00218164
0.00202493
0.00188533
0.00176046
0.00164833
0.00154729
0.00145593
0.00137307
0.00129771
0.00122897
0.00116612
0.00110851
0.00105558
0.00100684
0.00096188
0.000920318
0.00088183
0.000846126
0.00081295
0.000782075
0.0007533
0.000726443
0.000701342
0.000677854
0.000655847
0.000635203
0.000615815
0.000597585
0.000580426
0.00056426
0.000549016
0.000534626
0.000521032
0.000508178
0.000496013
0.000484489
0.000473557
0.000463151
0.000453145
0.000442535
0.0505473
0.0428477
0.0369109
0.0322394
0.0284969
0.0254521
0.0229417
0.0208475
0.0190823
0.0175803
0.0162916
0.0151774
0.0142074
0.0133576
0.0126088
0.0119455
0.0113551
0.0108272
0.0103533
0.00992617
0.00953985
0.00918928
0.00887017
0.00857886
0.0083122
0.0080675
0.00784241
0.00763489
0.00744318
0.00726571
0.00710112
0.0069482
0.00680589
0.00667324
0.00654939
0.00643361
0.00632521
0.00622359
0.00612821
0.00603856
0.00595422
0.00587477
0.00579985
0.00572913
0.0056623
0.0055991
0.00553926
0.00548255
0.00542877
0.00537771
0.0053292
0.00528307
0.00523916
0.00519735
0.00515749
0.00511947
0.00508317
0.00504849
0.00501536
0.00498363
)
;

boundaryField
{
    wall
    {
        type            kqRWallFunction;
        value           nonuniform List<scalar> 
1200
(
0.0505472
0.0434539
0.0434334
0.0434334
0.0434334
0.0434334
0.0434334
0.0434334
0.0434539
0.0505472
0.0428478
0.0320527
0.0319432
0.0319682
0.0319682
0.0319683
0.0319682
0.0319432
0.0320528
0.0428478
0.0369112
0.0244795
0.0243158
0.0243515
0.024348
0.024348
0.0243515
0.0243158
0.0244796
0.0369111
0.0322398
0.0192386
0.0190352
0.0190751
0.019069
0.019069
0.0190751
0.0190352
0.0192387
0.0322397
0.0284973
0.0154837
0.0152511
0.0152907
0.015283
0.015283
0.0152907
0.0152511
0.0154838
0.0284972
0.0254524
0.0127112
0.0124595
0.0124965
0.0124882
0.0124882
0.0124965
0.0124596
0.0127114
0.0254523
0.022942
0.0106115
0.0103484
0.0103817
0.0103735
0.0103735
0.0103817
0.0103484
0.0106117
0.0229419
0.0208479
0.00898669
0.00871752
0.00874693
0.00873924
0.00873925
0.00874693
0.00871754
0.00898699
0.0208477
0.0190826
0.00770571
0.00743414
0.00745988
0.00745289
0.0074529
0.00745987
0.00743416
0.00770606
0.0190825
0.0175806
0.00667921
0.00640784
0.00643023
0.00642401
0.00642401
0.00643022
0.00640785
0.0066796
0.0175805
0.0162919
0.00584479
0.00557541
0.00559483
0.00558937
0.00558938
0.00559483
0.00557542
0.00584523
0.0162918
0.0151776
0.00515789
0.00489171
0.00490854
0.00490378
0.00490379
0.00490854
0.00489171
0.00515835
0.0151775
0.0142076
0.00458603
0.00432383
0.00433843
0.00433431
0.00433431
0.00433843
0.00432384
0.00458651
0.0142075
0.0133578
0.00410514
0.00384742
0.00386009
0.00385653
0.00385653
0.00386009
0.00384742
0.00410564
0.0133577
0.012609
0.00369708
0.0034441
0.00345511
0.00345204
0.00345205
0.00345511
0.0034441
0.00369757
0.0126089
0.0119457
0.00334798
0.00309986
0.00310945
0.00310681
0.00310681
0.00310945
0.00309986
0.00334846
0.0119456
0.0113553
0.00304709
0.00280384
0.00281221
0.00280994
0.00280994
0.00281221
0.00280385
0.00304757
0.0113552
0.0108274
0.00278601
0.00254757
0.00255488
0.00255292
0.00255293
0.00255488
0.00254757
0.00278647
0.0108273
0.0103534
0.00255806
0.00232432
0.00233071
0.00232903
0.00232903
0.00233071
0.00232432
0.00255851
0.0103534
0.00992631
0.00235792
0.00212871
0.00213432
0.00213286
0.00213286
0.00213432
0.00212871
0.00235835
0.00992623
0.00953998
0.00218126
0.00195642
0.00196134
0.00196008
0.00196009
0.00196134
0.00195642
0.00218168
0.00953991
0.00918941
0.00202459
0.00180392
0.00180824
0.00180716
0.00180716
0.00180824
0.00180392
0.00202499
0.00918933
0.00887029
0.00188503
0.00166833
0.00167213
0.0016712
0.0016712
0.00167213
0.00166833
0.00188541
0.00887022
0.00857897
0.00176018
0.00154727
0.00155061
0.0015498
0.0015498
0.00155061
0.00154727
0.00176055
0.00857891
0.00831231
0.00164808
0.00143874
0.00144168
0.00144098
0.00144098
0.00144168
0.00143875
0.00164843
0.00831225
0.00806761
0.00154705
0.00134111
0.00134369
0.00134308
0.00134308
0.00134369
0.00134111
0.00154739
0.00806755
0.00784252
0.00145571
0.00125296
0.00125522
0.0012547
0.0012547
0.00125522
0.00125296
0.00145604
0.00784246
0.007635
0.00137287
0.00117312
0.00117511
0.00117466
0.00117466
0.00117511
0.00117312
0.00137318
0.00763494
0.00744329
0.00129752
0.0011006
0.00110233
0.00110195
0.00110195
0.00110233
0.0011006
0.00129781
0.00744323
0.00726582
0.00122878
0.00103452
0.00103603
0.0010357
0.0010357
0.00103603
0.00103452
0.00122906
0.00726576
0.00710123
0.00116593
0.000974157
0.000975474
0.000975187
0.000975187
0.000975473
0.000974156
0.0011662
0.00710118
0.00694831
0.00110832
0.000918875
0.000920014
0.000919768
0.000919767
0.000920012
0.000918874
0.00110857
0.00694826
0.006806
0.00105539
0.000868123
0.000869102
0.000868891
0.000868891
0.0008691
0.000868121
0.00105563
0.00680595
0.00667334
0.00100666
0.000821424
0.000822258
0.000822079
0.000822078
0.000822256
0.000821422
0.00100688
0.0066733
0.0065495
0.000961706
0.00077836
0.000779064
0.000778912
0.000778911
0.000779062
0.000778358
0.000961906
0.00654945
0.00643372
0.000920151
0.000738568
0.000739153
0.000739025
0.000739025
0.000739152
0.000738565
0.000920335
0.00643367
0.00632532
0.00088167
0.000701726
0.000702204
0.000702097
0.000702096
0.000702202
0.000701723
0.000881839
0.00632528
0.0062237
0.000845975
0.000667553
0.000667933
0.000667844
0.000667843
0.000667931
0.00066755
0.000846129
0.00622366
0.00612832
0.00081281
0.000635798
0.000636089
0.000636016
0.000636015
0.000636087
0.000635794
0.000812948
0.00612828
0.00603868
0.000781945
0.000606244
0.00060645
0.000606392
0.00060639
0.000606447
0.000606237
0.000782071
0.00603864
0.00595434
0.000753175
0.000578695
0.000578818
0.000578773
0.000578771
0.000578816
0.00057868
0.000753292
0.00595429
0.00587489
0.000726321
0.000552975
0.000553018
0.000552983
0.000552982
0.000553016
0.000552948
0.000726433
0.00587485
0.00579998
0.000701221
0.000528926
0.000528893
0.000528867
0.000528866
0.00052889
0.000528886
0.000701331
0.00579993
0.00572926
0.00067773
0.000506409
0.000506301
0.000506284
0.000506282
0.000506298
0.000506352
0.000677841
0.00572921
0.00566244
0.000655718
0.000485297
0.000485116
0.000485106
0.000485105
0.000485112
0.000485221
0.000655833
0.00566239
0.00559923
0.000635068
0.000465477
0.000465224
0.000465221
0.00046522
0.000465221
0.000465379
0.000635188
0.00559919
0.00553939
0.000615674
0.000446846
0.000446524
0.000446526
0.000446525
0.00044652
0.000446727
0.000615798
0.00553935
0.00548269
0.00059744
0.000429312
0.000428922
0.000428929
0.000428928
0.000428918
0.000429173
0.000597567
0.00548265
0.00542891
0.000580278
0.000412792
0.000412334
0.000412346
0.000412344
0.00041233
0.000412633
0.000580409
0.00542886
0.00537786
0.000564108
0.000397209
0.000396685
0.000396701
0.000396699
0.000396681
0.000397031
0.000564243
0.00537781
0.00532935
0.00054886
0.000382494
0.000381906
0.000381924
0.000381923
0.000381901
0.000382298
0.000548998
0.0053293
0.00528322
0.000534466
0.000368585
0.000367933
0.000367954
0.000367953
0.000367928
0.000368371
0.000534608
0.00528317
0.00523933
0.000520868
0.000355425
0.000354709
0.000354733
0.000354731
0.000354704
0.000355194
0.000521013
0.00523927
0.00519752
0.000508009
0.000342961
0.000342183
0.000342208
0.000342207
0.000342177
0.000342713
0.000508159
0.00519746
0.00515766
0.00049584
0.000331146
0.000330306
0.000330333
0.000330331
0.0003303
0.000330881
0.000495995
0.00515761
0.00511964
0.000484313
0.000319935
0.000319034
0.000319062
0.00031906
0.000319028
0.000319653
0.000484473
0.00511959
0.00508335
0.000473379
0.000309288
0.000308327
0.000308356
0.000308355
0.00030832
0.000308991
0.000473543
0.00508329
0.00504868
0.000462971
0.000299168
0.000298148
0.000298178
0.000298177
0.000298141
0.000298854
0.000463139
0.00504862
0.00501555
0.000452969
0.000289534
0.000288464
0.000288494
0.000288493
0.000288456
0.000289204
0.000453135
0.00501548
0.00498383
0.000442396
0.000280333
0.000279242
0.000279273
0.000279271
0.000279235
0.000279994
0.000442533
0.00498376
0.0505472
0.0434539
0.0434334
0.0434334
0.0434334
0.0434334
0.0434334
0.0434334
0.0434539
0.0505473
0.0428477
0.0320528
0.0319432
0.0319682
0.0319683
0.0319683
0.0319682
0.0319432
0.0320529
0.0428477
0.0369109
0.0244796
0.0243159
0.0243515
0.0243481
0.0243481
0.0243515
0.0243159
0.0244797
0.0369109
0.0322394
0.0192386
0.0190353
0.0190751
0.019069
0.019069
0.0190751
0.0190353
0.0192388
0.0322394
0.0284969
0.0154837
0.0152512
0.0152907
0.0152831
0.0152831
0.0152907
0.0152512
0.0154839
0.0284969
0.0254521
0.0127111
0.0124596
0.0124964
0.0124882
0.0124882
0.0124964
0.0124596
0.0127115
0.0254521
0.0229417
0.0106114
0.0103484
0.0103817
0.0103735
0.0103735
0.0103816
0.0103485
0.0106118
0.0229417
0.0208476
0.00898652
0.0087175
0.0087469
0.00873922
0.00873923
0.00874689
0.00871753
0.00898704
0.0208475
0.0190823
0.00770549
0.00743411
0.00745984
0.00745286
0.00745287
0.00745984
0.00743414
0.00770605
0.0190823
0.0175804
0.00667897
0.00640781
0.00643019
0.00642398
0.00642399
0.00643019
0.00640783
0.00667955
0.0175803
0.0162917
0.00584457
0.00557537
0.0055948
0.00558934
0.00558935
0.00559481
0.0055754
0.00584515
0.0162916
0.0151774
0.0051577
0.00489166
0.00490851
0.00490376
0.00490377
0.00490852
0.00489168
0.00515827
0.0151774
0.0142074
0.0045859
0.00432379
0.00433841
0.00433428
0.00433429
0.00433841
0.00432381
0.00458645
0.0142074
0.0133576
0.00410507
0.00384738
0.00386006
0.0038565
0.00385651
0.00386007
0.00384739
0.00410558
0.0133576
0.0126088
0.00369707
0.00344406
0.00345509
0.00345202
0.00345203
0.0034551
0.00344407
0.00369754
0.0126088
0.0119455
0.00334801
0.00309982
0.00310943
0.00310679
0.00310679
0.00310943
0.00309983
0.00334845
0.0119455
0.0113551
0.00304717
0.00280381
0.0028122
0.00280992
0.00280992
0.0028122
0.00280382
0.00304756
0.0113551
0.0108273
0.00278611
0.00254754
0.00255487
0.00255291
0.00255291
0.00255487
0.00254755
0.00278647
0.0108272
0.0103534
0.00255817
0.00232429
0.0023307
0.00232901
0.00232901
0.0023307
0.0023243
0.0025585
0.0103533
0.00992623
0.00235803
0.00212868
0.0021343
0.00213285
0.00213285
0.00213431
0.00212869
0.00235832
0.00992617
0.00953991
0.00218137
0.00195639
0.00196133
0.00196007
0.00196007
0.00196133
0.0019564
0.00218164
0.00953985
0.00918934
0.00202469
0.0018039
0.00180823
0.00180715
0.00180715
0.00180824
0.0018039
0.00202493
0.00918928
0.00887023
0.00188511
0.00166831
0.00167212
0.00167118
0.00167119
0.00167212
0.00166832
0.00188533
0.00887017
0.00857892
0.00176026
0.00154724
0.0015506
0.00154979
0.00154979
0.0015506
0.00154725
0.00176046
0.00857886
0.00831226
0.00164815
0.00143872
0.00144167
0.00144097
0.00144097
0.00144167
0.00143873
0.00164833
0.0083122
0.00806756
0.00154712
0.00134109
0.00134368
0.00134307
0.00134307
0.00134368
0.00134109
0.00154729
0.0080675
0.00784246
0.00145578
0.00125294
0.00125522
0.00125469
0.00125469
0.00125522
0.00125294
0.00145593
0.00784241
0.00763495
0.00137294
0.0011731
0.0011751
0.00117465
0.00117465
0.0011751
0.00117311
0.00137307
0.00763489
0.00744323
0.00129759
0.00110058
0.00110233
0.00110194
0.00110194
0.00110233
0.00110058
0.00129771
0.00744318
0.00726577
0.00122887
0.0010345
0.00103603
0.00103569
0.00103569
0.00103603
0.0010345
0.00122897
0.00726571
0.00710118
0.00116603
0.000974139
0.000975468
0.000975178
0.000975178
0.000975468
0.000974142
0.00116612
0.00710112
0.00694826
0.00110843
0.000918857
0.000920008
0.000919758
0.000919759
0.000920008
0.00091886
0.00110851
0.0069482
0.00680595
0.00105551
0.000868105
0.000869095
0.000868882
0.000868882
0.000869095
0.000868108
0.00105558
0.00680589
0.00667329
0.00100678
0.000821406
0.000822252
0.000822069
0.00082207
0.000822252
0.000821408
0.00100684
0.00667324
0.00654945
0.000961831
0.000778343
0.000779058
0.000778903
0.000778903
0.000779058
0.000778344
0.00096188
0.00654939
0.00643366
0.00092028
0.000738551
0.000739147
0.000739016
0.000739016
0.000739147
0.000738552
0.000920318
0.00643361
0.00632527
0.000881802
0.000701709
0.000702198
0.000702088
0.000702088
0.000702198
0.00070171
0.00088183
0.00632521
0.00622365
0.000846108
0.000667536
0.000667927
0.000667835
0.000667835
0.000667926
0.000667536
0.000846126
0.00622359
0.00612826
0.000812941
0.000635782
0.000636083
0.000636007
0.000636007
0.000636082
0.000635781
0.00081295
0.00612821
0.00603862
0.000782074
0.000606227
0.000606443
0.000606382
0.000606382
0.000606443
0.000606223
0.000782075
0.00603856
0.00595427
0.000753302
0.000578677
0.000578812
0.000578763
0.000578763
0.000578811
0.000578666
0.0007533
0.00595422
0.00587482
0.000726446
0.000552955
0.000553012
0.000552974
0.000552974
0.000553011
0.000552935
0.000726443
0.00587477
0.00579991
0.000701344
0.000528906
0.000528886
0.000528858
0.000528857
0.000528885
0.000528872
0.000701342
0.00579985
0.00572919
0.000677851
0.000506388
0.000506294
0.000506274
0.000506274
0.000506292
0.000506338
0.000677854
0.00572913
0.00566236
0.000655838
0.000485276
0.000485108
0.000485097
0.000485096
0.000485107
0.000485207
0.000655847
0.0056623
0.00559916
0.000635187
0.000465455
0.000465217
0.000465211
0.000465211
0.000465216
0.000465366
0.000635203
0.0055991
0.00553932
0.000615792
0.000446823
0.000446516
0.000446517
0.000446516
0.000446515
0.000446714
0.000615815
0.00553926
0.00548261
0.000597557
0.000429289
0.000428914
0.000428919
0.000428919
0.000428912
0.000429161
0.000597585
0.00548255
0.00542883
0.000580395
0.000412768
0.000412326
0.000412336
0.000412335
0.000412324
0.000412621
0.000580426
0.00542877
0.00537777
0.000564227
0.000397184
0.000396677
0.00039669
0.00039669
0.000396675
0.00039702
0.00056426
0.00537771
0.00532926
0.000548982
0.000382469
0.000381897
0.000381914
0.000381913
0.000381895
0.000382287
0.000549016
0.0053292
0.00528314
0.000534593
0.00036856
0.000367924
0.000367944
0.000367943
0.000367922
0.000368361
0.000534626
0.00528307
0.00523924
0.000521
0.0003554
0.000354701
0.000354723
0.000354722
0.000354698
0.000355184
0.000521032
0.00523916
0.00519743
0.000508149
0.000342936
0.000342174
0.000342198
0.000342197
0.000342171
0.000342704
0.000508178
0.00519735
0.00515757
0.000495988
0.00033112
0.000330297
0.000330322
0.000330321
0.000330294
0.000330872
0.000496013
0.00515749
0.00511956
0.000484468
0.000319909
0.000319025
0.000319051
0.000319051
0.000319021
0.000319645
0.000484489
0.00511947
0.00508326
0.000473541
0.000309262
0.000308318
0.000308345
0.000308345
0.000308314
0.000308982
0.000473557
0.00508317
0.00504859
0.00046314
0.000299141
0.000298139
0.000298167
0.000298167
0.000298135
0.000298845
0.000463151
0.00504849
0.00501546
0.000453144
0.000289507
0.000288454
0.000288483
0.000288482
0.00028845
0.000289195
0.000453145
0.00501536
0.00498374
0.000442564
0.000280305
0.000279232
0.000279262
0.000279261
0.000279228
0.000279985
0.000442535
0.00498363
)
;
    }
    inlet
    {
        type            turbulentIntensityKineticEnergyInlet;
        intensity       0.05;
        value           uniform 0.06;
    }
    outlet
    {
        type            inletOutlet;
        inletValue      uniform 0.003;
        value           nonuniform List<scalar> 
20
(
0.00498383
0.000442396
0.000280333
0.000279242
0.000279273
0.000279271
0.000279235
0.000279994
0.000442533
0.00498376
0.00498374
0.000442564
0.000280305
0.000279232
0.000279262
0.000279261
0.000279228
0.000279985
0.000442535
0.00498363
)
;
    }
    heatWall
    {
        type            kqRWallFunction;
        value           nonuniform List<scalar> 
240
(
0.0505472
0.0505473
0.0428478
0.0428477
0.0369111
0.0369109
0.0322397
0.0322394
0.0284972
0.0284969
0.0254523
0.0254521
0.0229419
0.0229417
0.0208477
0.0208475
0.0190825
0.0190823
0.0175805
0.0175803
0.0162918
0.0162916
0.0151775
0.0151774
0.0142075
0.0142074
0.0133577
0.0133576
0.0126089
0.0126088
0.0119456
0.0119455
0.0113552
0.0113551
0.0108273
0.0108272
0.0103534
0.0103533
0.00992623
0.00992617
0.00953991
0.00953985
0.00918933
0.00918928
0.00887022
0.00887017
0.00857891
0.00857886
0.00831225
0.0083122
0.00806755
0.0080675
0.00784246
0.00784241
0.00763494
0.00763489
0.00744323
0.00744318
0.00726576
0.00726571
0.00710118
0.00710112
0.00694826
0.0069482
0.00680595
0.00680589
0.0066733
0.00667324
0.00654945
0.00654939
0.00643367
0.00643361
0.00632528
0.00632521
0.00622366
0.00622359
0.00612828
0.00612821
0.00603864
0.00603856
0.00595429
0.00595422
0.00587485
0.00587477
0.00579993
0.00579985
0.00572921
0.00572913
0.00566239
0.0056623
0.00559919
0.0055991
0.00553935
0.00553926
0.00548265
0.00548255
0.00542886
0.00542877
0.00537781
0.00537771
0.0053293
0.0053292
0.00528317
0.00528307
0.00523927
0.00523916
0.00519746
0.00519735
0.00515761
0.00515749
0.00511959
0.00511947
0.00508329
0.00508317
0.00504862
0.00504849
0.00501548
0.00501536
0.00498376
0.00498363
0.0505472
0.0505472
0.0428478
0.0428477
0.0369112
0.0369109
0.0322398
0.0322394
0.0284973
0.0284969
0.0254524
0.0254521
0.022942
0.0229417
0.0208479
0.0208476
0.0190826
0.0190823
0.0175806
0.0175804
0.0162919
0.0162917
0.0151776
0.0151774
0.0142076
0.0142074
0.0133578
0.0133576
0.012609
0.0126088
0.0119457
0.0119455
0.0113553
0.0113551
0.0108274
0.0108273
0.0103534
0.0103534
0.00992631
0.00992623
0.00953998
0.00953991
0.00918941
0.00918934
0.00887029
0.00887023
0.00857897
0.00857892
0.00831231