/*--------------------------------*- C++ -*----------------------------------*\
  =========                 |
  \\      /  F ield         | OpenFOAM: The Open Source CFD Toolbox
   \\    /   O peration     | Website:  https://openfoam.org
    \\  /    A nd           | Version:  8
     \\/     M anipulation  |
\*---------------------------------------------------------------------------*/
FoamFile
{
    version     2.0;
    format      ascii;
    class       volScalarField;
    location    "800";
    object      nut;
}
// * * * * * * * * * * * * * * * * * * * * * * * * * * * * * * * * * * * * * //

dimensions      [0 2 -1 0 0 0 0];

internalField   nonuniform List<scalar> 
1200
(
0.000201954
0.000185938
0.000172577
0.000161287
0.000151637
0.000143308
0.000136057
0.000129699
0.000124086
0.000119103
0.000114654
0.000110664
0.000107069
0.000103818
0.000100866
9.8177e-05
9.57201e-05
9.34687e-05
9.14001e-05
8.94949e-05
8.77361e-05
8.61089e-05
8.46006e-05
8.31998e-05
8.18965e-05
8.0682e-05
7.95485e-05
7.8489e-05
7.74973e-05
7.65679e-05
7.56957e-05
7.48763e-05
7.41055e-05
7.33798e-05
7.26957e-05
7.20503e-05
7.14407e-05
7.08645e-05
7.03194e-05
6.98032e-05
6.9314e-05
6.88501e-05
6.84097e-05
6.79914e-05
6.75937e-05
6.72154e-05
6.68553e-05
6.65122e-05
6.61852e-05
6.58732e-05
6.55755e-05
6.52911e-05
6.50193e-05
6.47593e-05
6.45106e-05
6.42724e-05
6.40442e-05
6.38254e-05
6.36156e-05
6.34141e-05
0.00011703
0.000100512
8.78387e-05
7.78703e-05
6.98588e-05
6.32961e-05
5.78326e-05
5.32212e-05
4.92823e-05
4.58825e-05
4.29209e-05
4.032e-05
3.80192e-05
3.59707e-05
3.41361e-05
3.24845e-05
3.09904e-05
2.9633e-05
2.83949e-05
2.72614e-05
2.62204e-05
2.52612e-05
2.43749e-05
2.35539e-05
2.27915e-05
2.20819e-05
2.14202e-05
2.08017e-05
2.02228e-05
1.96799e-05
1.917e-05
1.86904e-05
1.82386e-05
1.78126e-05
1.74103e-05
1.703e-05
1.66701e-05
1.63291e-05
1.60059e-05
1.5699e-05
1.54075e-05
1.51303e-05
1.48666e-05
1.46155e-05
1.43762e-05
1.4148e-05
1.39303e-05
1.37224e-05
1.35239e-05
1.33342e-05
1.31527e-05
1.29791e-05
1.28129e-05
1.26538e-05
1.25013e-05
1.23551e-05
1.22149e-05
1.20798e-05
1.19487e-05
1.18084e-05
0.000117003
0.00010034
8.75445e-05
7.74574e-05
6.93323e-05
6.26665e-05
5.71112e-05
5.24181e-05
4.84061e-05
4.49408e-05
4.19202e-05
3.92658e-05
3.69164e-05
3.48232e-05
3.29475e-05
3.12576e-05
2.97277e-05
2.83366e-05
2.70665e-05
2.59026e-05
2.48322e-05
2.38448e-05
2.29312e-05
2.20835e-05
2.12949e-05
2.05597e-05
1.98725e-05
1.9229e-05
1.86251e-05
1.80573e-05
1.75226e-05
1.70182e-05
1.65415e-05
1.60904e-05
1.5663e-05
1.52574e-05
1.4872e-05
1.45053e-05
1.41561e-05
1.38232e-05
1.35055e-05
1.32019e-05
1.29117e-05
1.26338e-05
1.23677e-05
1.21125e-05
1.18676e-05
1.16324e-05
1.14064e-05
1.11891e-05
1.09799e-05
1.07784e-05
1.05842e-05
1.0397e-05
1.02163e-05
1.00419e-05
9.87339e-06
9.7105e-06
9.55288e-06
9.39986e-06
0.000117003
0.000100379
8.76088e-05
7.75386e-05
6.94222e-05
6.27593e-05
5.7203e-05
5.25064e-05
4.84898e-05
4.50192e-05
4.19931e-05
3.93333e-05
3.69786e-05
3.48805e-05
3.30001e-05
3.13059e-05
2.9772e-05
2.83772e-05
2.71037e-05
2.59366e-05
2.48634e-05
2.38733e-05
2.29572e-05
2.21073e-05
2.13166e-05
2.05794e-05
1.98905e-05
1.92453e-05
1.86398e-05
1.80706e-05
1.75345e-05
1.70287e-05
1.65508e-05
1.60986e-05
1.56701e-05
1.52634e-05
1.4877e-05
1.45094e-05
1.41594e-05
1.38255e-05
1.35069e-05
1.32024e-05
1.29112e-05
1.26325e-05
1.23654e-05
1.21092e-05
1.18633e-05
1.16272e-05
1.14001e-05
1.11817e-05
1.09714e-05
1.07688e-05
1.05736e-05
1.03852e-05
1.02033e-05
1.00277e-05
9.85803e-06
9.69395e-06
9.53521e-06
9.38156e-06
0.000117003
0.000100379
8.76025e-05
7.75261e-05
6.94048e-05
6.27385e-05
5.71804e-05
5.24833e-05
4.84671e-05
4.49974e-05
4.19726e-05
3.93143e-05
3.69611e-05
3.48644e-05
3.29855e-05
3.12926e-05
2.976e-05
2.83663e-05
2.70939e-05
2.59278e-05
2.48555e-05
2.38662e-05
2.29508e-05
2.21015e-05
2.13115e-05
2.05748e-05
1.98864e-05
1.92416e-05
1.86365e-05
1.80677e-05
1.75319e-05
1.70264e-05
1.65488e-05
1.60969e-05
1.56685e-05
1.52621e-05
1.48759e-05
1.45085e-05
1.41585e-05
1.38249e-05
1.35064e-05
1.3202e-05
1.29109e-05
1.26323e-05
1.23653e-05
1.21092e-05
1.18634e-05
1.16273e-05
1.14003e-05
1.11819e-05
1.09717e-05
1.07691e-05
1.05739e-05
1.03856e-05
1.02038e-05
1.00282e-05
9.8585e-06
9.69443e-06
9.53571e-06
9.38207e-06
0.000117003
0.000100379
8.76025e-05
7.75261e-05
6.94048e-05
6.27385e-05
5.71804e-05
5.24834e-05
4.84671e-05
4.49974e-05
4.19726e-05
3.93143e-05
3.69611e-05
3.48645e-05
3.29855e-05
3.12926e-05
2.976e-05
2.83664e-05
2.70939e-05
2.59278e-05
2.48555e-05
2.38662e-05
2.29508e-05
2.21015e-05
2.13115e-05
2.05748e-05
1.98864e-05
1.92416e-05
1.86365e-05
1.80677e-05
1.75319e-05
1.70264e-05
1.65488e-05
1.60969e-05
1.56685e-05
1.52621e-05
1.48759e-05
1.45085e-05
1.41585e-05
1.38249e-05
1.35063e-05
1.3202e-05
1.29109e-05
1.26323e-05
1.23652e-05
1.21091e-05
1.18633e-05
1.16272e-05
1.14003e-05
1.11819e-05
1.09717e-05
1.07691e-05
1.05739e-05
1.03855e-05
1.02037e-05
1.00282e-05
9.85847e-06
9.69441e-06
9.53568e-06
9.38205e-06
0.000117003
0.000100379
8.76087e-05
7.75386e-05
6.94222e-05
6.27593e-05
5.72029e-05
5.25064e-05
4.84898e-05
4.50192e-05
4.19931e-05
3.93333e-05
3.69786e-05
3.48805e-05
3.30001e-05
3.13059e-05
2.9772e-05
2.83772e-05
2.71037e-05
2.59367e-05
2.48634e-05
2.38733e-05
2.29572e-05
2.21073e-05
2.13166e-05
2.05794e-05
1.98905e-05
1.92452e-05
1.86398e-05
1.80706e-05
1.75344e-05
1.70287e-05
1.65508e-05
1.60986e-05
1.56701e-05
1.52634e-05
1.4877e-05
1.45094e-05
1.41593e-05
1.38255e-05
1.35069e-05
1.32024e-05
1.29112e-05
1.26324e-05
1.23653e-05
1.21092e-05
1.18633e-05
1.16271e-05
1.14001e-05
1.11816e-05
1.09713e-05
1.07688e-05
1.05735e-05
1.03851e-05
1.02033e-05
1.00276e-05
9.85793e-06
9.69384e-06
9.53509e-06
9.38143e-06
0.000117003
0.00010034
8.75445e-05
7.74575e-05
6.93323e-05
6.26666e-05
5.71113e-05
5.24181e-05
4.84061e-05
4.49408e-05
4.19202e-05
3.92659e-05
3.69164e-05
3.48233e-05
3.29475e-05
3.12576e-05
2.97277e-05
2.83366e-05
2.70665e-05
2.59026e-05
2.48322e-05
2.38448e-05
2.29312e-05
2.20835e-05
2.12949e-05
2.05597e-05
1.98725e-05
1.9229e-05
1.86251e-05
1.80573e-05
1.75226e-05
1.70182e-05
1.65415e-05
1.60904e-05
1.5663e-05
1.52573e-05
1.48719e-05
1.45053e-05
1.41561e-05
1.38231e-05
1.35053e-05
1.32016e-05
1.29112e-05
1.26331e-05
1.23667e-05
1.21112e-05
1.1866e-05
1.16306e-05
1.14042e-05
1.11866e-05
1.0977e-05
1.07753e-05
1.05808e-05
1.03932e-05
1.02122e-05
1.00375e-05
9.86864e-06
9.70541e-06
9.54743e-06
9.39419e-06
0.00011703
0.000100512
8.78388e-05
7.78705e-05
6.98592e-05
6.32966e-05
5.78332e-05
5.3222e-05
4.92834e-05
4.58838e-05
4.29225e-05
4.03218e-05
3.80212e-05
3.59728e-05
3.41384e-05
3.24868e-05
3.09928e-05
2.96355e-05
2.83974e-05
2.72639e-05
2.62229e-05
2.52637e-05
2.43774e-05
2.35564e-05
2.2794e-05
2.20844e-05
2.14225e-05
2.08041e-05
2.02251e-05
1.96821e-05
1.91721e-05
1.86925e-05
1.82406e-05
1.78145e-05
1.74121e-05
1.70317e-05
1.66717e-05
1.63306e-05
1.60072e-05
1.57003e-05
1.54087e-05
1.51315e-05
1.48678e-05
1.46167e-05
1.43774e-05
1.41493e-05
1.39317e-05
1.37239e-05
1.35254e-05
1.33358e-05
1.31544e-05
1.29808e-05
1.28147e-05
1.26556e-05
1.25033e-05
1.23572e-05
1.2217e-05
1.2082e-05
1.19508e-05
1.18102e-05
0.000201954
0.000185938
0.000172577
0.000161287
0.000151637
0.000143307
0.000136057
0.000129698
0.000124086
0.000119102
0.000114654
0.000110664
0.000107069
0.000103817
0.000100865
9.81766e-05
9.57197e-05
9.34683e-05
9.13998e-05
8.94946e-05
8.77357e-05
8.61086e-05
8.46003e-05
8.31994e-05
8.18962e-05
8.06817e-05
7.95482e-05
7.84887e-05
7.7497e-05
7.65676e-05
7.56954e-05
7.4876e-05
7.41052e-05
7.33795e-05
7.26954e-05
7.205e-05
7.14405e-05
7.08643e-05
7.03192e-05
6.9803e-05
6.93138e-05
6.88498e-05
6.84094e-05
6.79911e-05
6.75934e-05
6.72151e-05
6.6855e-05
6.65119e-05
6.61849e-05
6.5873e-05
6.55752e-05
6.52908e-05
6.5019e-05
6.4759e-05
6.45102e-05
6.4272e-05
6.40438e-05
6.3825e-05
6.36152e-05
6.34137e-05
0.000201954
0.000185938
0.000172577
0.000161287
0.000151636
0.000143307
0.000136056
0.000129698
0.000124085
0.000119102
0.000114653
0.000110663
0.000107069
0.000103817
0.000100865
9.81765e-05
9.57196e-05
9.34683e-05
9.13998e-05
8.94946e-05
8.77358e-05
8.61086e-05
8.46003e-05
8.31995e-05
8.18963e-05
8.06818e-05
7.95483e-05
7.84888e-05
7.74971e-05
7.65676e-05
7.56954e-05
7.4876e-05
7.41052e-05
7.33795e-05
7.26954e-05
7.20499e-05
7.14404e-05
7.08642e-05
7.03191e-05
6.98029e-05
6.93137e-05
6.88497e-05
6.84093e-05
6.79909e-05
6.75932e-05
6.72149e-05
6.68548e-05
6.65117e-05
6.61847e-05
6.58727e-05
6.5575e-05
6.52906e-05
6.50187e-05
6.47588e-05
6.451e-05
6.42718e-05
6.40436e-05
6.38248e-05
6.3615e-05
6.34135e-05
0.00011703
0.000100512
8.78388e-05
7.78703e-05
6.98589e-05
6.32961e-05
5.78323e-05
5.32207e-05
4.92816e-05
4.58817e-05
4.29201e-05
4.03193e-05
3.80187e-05
3.59704e-05
3.4136e-05
3.24846e-05
3.09908e-05
2.96335e-05
2.83955e-05
2.72621e-05
2.6221e-05
2.52618e-05
2.43755e-05
2.35544e-05
2.2792e-05
2.20824e-05
2.14207e-05
2.08023e-05
2.02234e-05
1.96806e-05
1.91708e-05
1.86912e-05
1.82396e-05
1.78136e-05
1.74114e-05
1.70312e-05
1.66713e-05
1.63304e-05
1.60072e-05
1.57003e-05
1.54088e-05
1.51316e-05
1.48679e-05
1.46168e-05
1.43775e-05
1.41493e-05
1.39316e-05
1.37238e-05
1.35253e-05
1.33356e-05
1.31542e-05
1.29806e-05
1.28146e-05
1.26555e-05
1.25032e-05
1.23571e-05
1.2217e-05
1.20821e-05
1.1951e-05
1.18106e-05
0.000117003
0.00010034
8.75446e-05
7.74576e-05
6.93324e-05
6.26666e-05
5.71112e-05
5.2418e-05
4.8406e-05
4.49406e-05
4.192e-05
3.92657e-05
3.69162e-05
3.4823e-05
3.29473e-05
3.12574e-05
2.97275e-05
2.83364e-05
2.70663e-05
2.59024e-05
2.4832e-05
2.38446e-05
2.2931e-05
2.20833e-05
2.12948e-05
2.05595e-05
1.98724e-05
1.92288e-05
1.86249e-05
1.80572e-05
1.75225e-05
1.7018e-05
1.65413e-05
1.60903e-05
1.56628e-05
1.52572e-05
1.48718e-05
1.45051e-05
1.41559e-05
1.3823e-05
1.35052e-05
1.32017e-05
1.29114e-05
1.26336e-05
1.23674e-05
1.21122e-05
1.18673e-05
1.16321e-05
1.14061e-05
1.11887e-05
1.09795e-05
1.0778e-05
1.05838e-05
1.03966e-05
1.02159e-05
1.00415e-05
9.87297e-06
9.71007e-06
9.55244e-06
9.3994e-06
0.000117003
0.000100379
8.76088e-05
7.75386e-05
6.94222e-05
6.27592e-05
5.72029e-05
5.25063e-05
4.84897e-05
4.50191e-05
4.1993e-05
3.93332e-05
3.69785e-05
3.48804e-05
3.3e-05
3.13058e-05
2.97719e-05
2.83771e-05
2.71037e-05
2.59366e-05
2.48633e-05
2.38733e-05
2.29572e-05
2.21072e-05
2.13166e-05
2.05794e-05
1.98904e-05
1.92452e-05
1.86397e-05
1.80705e-05
1.75344e-05
1.70286e-05
1.65508e-05
1.60986e-05
1.567e-05
1.52634e-05
1.4877e-05
1.45094e-05
1.41593e-05
1.38255e-05
1.35068e-05
1.32024e-05
1.29112e-05
1.26324e-05
1.23653e-05
1.21091e-05
1.18632e-05
1.1627e-05
1.14e-05
1.11816e-05
1.09713e-05
1.07687e-05
1.05734e-05
1.0385e-05
1.02032e-05
1.00276e-05
9.85788e-06
9.69379e-06
9.53505e-06
9.38139e-06
0.000117003
0.000100379
8.76025e-05
7.75262e-05
6.94048e-05
6.27385e-05
5.71803e-05
5.24833e-05
4.8467e-05
4.49973e-05
4.19725e-05
3.93142e-05
3.6961e-05
3.48643e-05
3.29854e-05
3.12925e-05
2.97599e-05
2.83662e-05
2.70938e-05
2.59277e-05
2.48554e-05
2.38661e-05
2.29507e-05
2.21014e-05
2.13114e-05
2.05747e-05
1.98863e-05
1.92415e-05
1.86364e-05
1.80676e-05
1.75318e-05
1.70263e-05
1.65487e-05
1.60968e-05
1.56685e-05
1.5262e-05
1.48758e-05
1.45084e-05
1.41584e-05
1.38248e-05
1.35063e-05
1.32019e-05
1.29108e-05
1.26322e-05
1.23651e-05
1.2109e-05
1.18632e-05
1.16271e-05
1.14001e-05
1.11818e-05
1.09715e-05
1.0769e-05
1.05737e-05
1.03854e-05
1.02036e-05
1.0028e-05
9.85833e-06
9.69426e-06
9.53553e-06
9.38189e-06
0.000117003
0.000100379
8.76026e-05
7.75262e-05
6.94048e-05
6.27385e-05
5.71804e-05
5.24833e-05
4.8467e-05
4.49974e-05
4.19725e-05
3.93142e-05
3.6961e-05
3.48644e-05
3.29854e-05
3.12925e-05
2.97599e-05
2.83663e-05
2.70938e-05
2.59277e-05
2.48554e-05
2.38661e-05
2.29507e-05
2.21015e-05
2.13114e-05
2.05747e-05
1.98863e-05
1.92415e-05
1.86364e-05
1.80676e-05
1.75318e-05
1.70263e-05
1.65487e-05
1.60968e-05
1.56685e-05
1.5262e-05
1.48758e-05
1.45084e-05
1.41584e-05
1.38248e-05
1.35063e-05
1.32019e-05
1.29108e-05
1.26321e-05
1.23651e-05
1.2109e-05
1.18632e-05
1.16271e-05
1.14001e-05
1.11818e-05
1.09715e-05
1.0769e-05
1.05737e-05
1.03854e-05
1.02036e-05
1.0028e-05
9.85831e-06
9.69424e-06
9.53551e-06
9.38188e-06
0.000117003
0.000100379
8.76088e-05
7.75386e-05
6.94222e-05
6.27592e-05
5.72028e-05
5.25063e-05
4.84897e-05
4.50191e-05
4.1993e-05
3.93332e-05
3.69785e-05
3.48804e-05
3.3e-05
3.13058e-05
2.9772e-05
2.83772e-05
2.71037e-05
2.59366e-05
2.48634e-05
2.38733e-05
2.29572e-05
2.21072e-05
2.13166e-05
2.05794e-05
1.98904e-05
1.92452e-05
1.86397e-05
1.80705e-05
1.75344e-05
1.70286e-05
1.65508e-05
1.60986e-05
1.567e-05
1.52633e-05
1.4877e-05
1.45094e-05
1.41593e-05
1.38255e-05
1.35068e-05
1.32024e-05
1.29112e-05
1.26324e-05
1.23653e-05
1.21091e-05
1.18632e-05
1.1627e-05
1.14e-05
1.11815e-05
1.09713e-05
1.07687e-05
1.05734e-05
1.0385e-05
1.02032e-05
1.00275e-05
9.85783e-06
9.69373e-06
9.53498e-06
9.38132e-06
0.000117003
0.00010034
8.75447e-05
7.74576e-05
6.93325e-05
6.26667e-05
5.71113e-05
5.24181e-05
4.84061e-05
4.49407e-05
4.19201e-05
3.92657e-05
3.69163e-05
3.48231e-05
3.29474e-05
3.12575e-05
2.97276e-05
2.83365e-05
2.70664e-05
2.59024e-05
2.48321e-05
2.38447e-05
2.2931e-05
2.20833e-05
2.12948e-05
2.05595e-05
1.98724e-05
1.92289e-05
1.8625e-05
1.80572e-05
1.75225e-05
1.7018e-05
1.65414e-05
1.60903e-05
1.56628e-05
1.52572e-05
1.48718e-05
1.45051e-05
1.41559e-05
1.3823e-05
1.35051e-05
1.32014e-05
1.2911e-05
1.2633e-05
1.23665e-05
1.2111e-05
1.18659e-05
1.16304e-05
1.14041e-05
1.11864e-05
1.09769e-05
1.07751e-05
1.05806e-05
1.03931e-05
1.02121e-05
1.00373e-05
9.8685e-06
9.70527e-06
9.54728e-06
9.39404e-06
0.00011703
0.000100512
8.7839e-05
7.78707e-05
6.98595e-05
6.3297e-05
5.78335e-05
5.32222e-05
4.92834e-05
4.58837e-05
4.29222e-05
4.03215e-05
3.80209e-05
3.59726e-05
3.41382e-05
3.24867e-05
3.09928e-05
2.96354e-05
2.83973e-05
2.72638e-05
2.62226e-05
2.52633e-05
2.43769e-05
2.35558e-05
2.27933e-05
2.20836e-05
2.14217e-05
2.08033e-05
2.02243e-05
1.96814e-05
1.91715e-05
1.86919e-05
1.82402e-05
1.78141e-05
1.74118e-05
1.70315e-05
1.66716e-05
1.63306e-05
1.60072e-05
1.57003e-05
1.54088e-05
1.51316e-05
1.48679e-05
1.46168e-05
1.43776e-05
1.41495e-05
1.39319e-05
1.37241e-05
1.35256e-05
1.3336e-05
1.31546e-05
1.2981e-05
1.28149e-05
1.26559e-05
1.25035e-05
1.23574e-05
1.22172e-05
1.20822e-05
1.1951e-05
1.18102e-05
0.000201954
0.000185938
0.000172577
0.000161287
0.000151636
0.000143307
0.000136056
0.000129698
0.000124085
0.000119102
0.000114653
0.000110663
0.000107068
0.000103817
0.000100865
9.81763e-05
9.57194e-05
9.3468e-05
9.13995e-05
8.94943e-05
8.77355e-05
8.61084e-05
8.46e-05
8.31992e-05
8.1896e-05
8.06815e-05
7.9548e-05
7.84885e-05
7.74968e-05
7.65673e-05
7.56951e-05
7.48757e-05
7.41049e-05
7.33792e-05
7.26951e-05
7.20496e-05
7.14401e-05
7.08639e-05
7.03188e-05
6.98025e-05
6.93133e-05
6.88494e-05
6.84089e-05
6.79906e-05
6.75929e-05
6.72146e-05
6.68544e-05
6.65114e-05
6.61843e-05
6.58723e-05
6.55746e-05
6.52901e-05
6.50183e-05
6.47583e-05
6.45095e-05
6.42713e-05
6.4043e-05
6.38242e-05
6.36144e-05
6.34129e-05
)
;

boundaryField
{
    wall
    {
        type            nutkWallFunction;
        Cmu             0.09;
        kappa           0.41;
        E               9.8;
        value           nonuniform List<scalar> 
1200
(
1.45301e-05
1.35454e-05
1.35424e-05
1.35424e-05
1.35424e-05
1.35424e-05
1.35424e-05
1.35424e-05
1.35454e-05
1.45301e-05
1.34572e-05
1.17545e-05
1.17357e-05
1.174e-05
1.174e-05
1.174e-05
1.174e-05
1.17357e-05
1.17545e-05
1.34572e-05
1.25548e-05
1.03592e-05
1.03265e-05
1.03337e-05
1.0333e-05
1.0333e-05
1.03337e-05
1.03265e-05
1.03592e-05
1.25548e-05
1.17865e-05
9.24633e-06
9.19991e-06
9.20904e-06
9.20764e-06
9.20764e-06
9.20904e-06
9.19992e-06
9.24635e-06
1.17865e-05
1.11252e-05
8.34061e-06
8.28068e-06
8.29093e-06
8.28894e-06
8.28894e-06
8.29092e-06
8.28069e-06
8.34064e-06
1.11252e-05
1.05507e-05
7.59006e-06
7.51761e-06
7.52829e-06
7.52589e-06
7.5259e-06
7.52829e-06
7.51762e-06
7.59012e-06
1.05507e-05
1.00477e-05
6.95855e-06
6.87468e-06
6.88535e-06
6.88273e-06
6.88273e-06
6.88535e-06
6.87469e-06
6.95863e-06
1.00477e-05
9.6042e-06
6.42027e-06
6.32599e-06
6.33637e-06
6.33366e-06
6.33366e-06
6.33637e-06
6.326e-06
6.42037e-06
9.60418e-06
9.21075e-06
5.95626e-06
5.85247e-06
5.86239e-06
5.8597e-06
5.8597e-06
5.86239e-06
5.85247e-06
5.95639e-06
9.21072e-06
8.85975e-06
5.55231e-06
5.43981e-06
5.44919e-06
5.44659e-06
5.44659e-06
5.44919e-06
5.43982e-06
5.55247e-06
8.85973e-06
8.54506e-06
5.19759e-06
5.07709e-06
5.08588e-06
5.08341e-06
5.08341e-06
5.08588e-06
5.07709e-06
5.19778e-06
8.54503e-06
8.26164e-06
4.8837e-06
4.75581e-06
4.76401e-06
4.76169e-06
4.76169e-06
4.76401e-06
4.75581e-06
4.88392e-06
8.26161e-06
8.00533e-06
4.60404e-06
4.46928e-06
4.4769e-06
4.47475e-06
4.47476e-06
4.4769e-06
4.46929e-06
4.60428e-06
8.0053e-06
7.77266e-06
4.35335e-06
4.21219e-06
4.21925e-06
4.21727e-06
4.21727e-06
4.21925e-06
4.21219e-06
4.35361e-06
7.77263e-06
7.56073e-06
4.12739e-06
3.98022e-06
3.98675e-06
3.98493e-06
3.98493e-06
3.98675e-06
3.98022e-06
4.12767e-06
7.5607e-06
7.36707e-06
3.92272e-06
3.76987e-06
3.7759e-06
3.77424e-06
3.77424e-06
3.7759e-06
3.76987e-06
3.92301e-06
7.36704e-06
7.1896e-06
3.73649e-06
3.57825e-06
3.58381e-06
3.5823e-06
3.5823e-06
3.58381e-06
3.57825e-06
3.73679e-06
7.18957e-06
7.02652e-06
3.56634e-06
3.40296e-06
3.40809e-06
3.40672e-06
3.40672e-06
3.40809e-06
3.40296e-06
3.56666e-06
7.02649e-06
6.87629e-06
3.41032e-06
3.242e-06
3.24673e-06
3.24548e-06
3.24548e-06
3.24673e-06
3.242e-06
3.41064e-06
6.87626e-06
6.73758e-06
3.26676e-06
3.09367e-06
3.09803e-06
3.0969e-06
3.0969e-06
3.09803e-06
3.09367e-06
3.26708e-06
6.73756e-06
6.60923e-06
3.13425e-06
2.95654e-06
2.96055e-06
2.95953e-06
2.95953e-06
2.96055e-06
2.95654e-06
3.13457e-06
6.60921e-06
6.49023e-06
3.01158e-06
2.82938e-06
2.83307e-06
2.83215e-06
2.83215e-06
2.83307e-06
2.82939e-06
3.0119e-06
6.49021e-06
6.37969e-06
2.89773e-06
2.71114e-06
2.71453e-06
2.71369e-06
2.7137e-06
2.71453e-06
2.71114e-06
2.89805e-06
6.37967e-06
6.27683e-06
2.7918e-06
2.60091e-06
2.60401e-06
2.60326e-06
2.60326e-06
2.60401e-06
2.60091e-06
2.79212e-06
6.2768e-06
6.18095e-06
2.69302e-06
2.49788e-06
2.50073e-06
2.50005e-06
2.50005e-06
2.50073e-06
2.49788e-06
2.69334e-06
6.18093e-06
6.09144e-06
2.60071e-06
2.40138e-06
2.40398e-06
2.40338e-06
2.40338e-06
2.40398e-06
2.40138e-06
2.60102e-06
6.09142e-06
6.00777e-06
2.51428e-06
2.3108e-06
2.31317e-06
2.31263e-06
2.31263e-06
2.31317e-06
2.3108e-06
2.51459e-06
6.00774e-06
5.92943e-06
2.4332e-06
2.22561e-06
2.22776e-06
2.22728e-06
2.22728e-06
2.22776e-06
2.22561e-06
2.43351e-06
5.92941e-06
5.85599e-06
2.35702e-06
2.14533e-06
2.14728e-06
2.14685e-06
2.14685e-06
2.14728e-06
2.14533e-06
2.35732e-06
5.85597e-06
5.78707e-06
2.28534e-06
2.06955e-06
2.07131e-06
2.07092e-06
2.07092e-06
2.07131e-06
2.06954e-06
2.28563e-06
5.78705e-06
5.7223e-06
2.21778e-06
1.99789e-06
1.99948e-06
1.99914e-06
1.99913e-06
1.99948e-06
1.99789e-06
2.21806e-06
5.72228e-06
5.66137e-06
2.15402e-06
1.93003e-06
1.93145e-06
1.93115e-06
1.93115e-06
1.93145e-06
1.93003e-06
2.1543e-06
5.66135e-06
5.60399e-06
2.09377e-06
1.86568e-06
1.86694e-06
1.86667e-06
1.86667e-06
1.86693e-06
1.86567e-06
2.09404e-06
5.60397e-06
5.5499e-06
2.03678e-06
1.80455e-06
1.80566e-06
1.80542e-06
1.80542e-06
1.80566e-06
1.80455e-06
2.03704e-06
5.54988e-06
5.49886e-06
1.9828e-06
1.74642e-06
1.74738e-06
1.74717e-06
1.74717e-06
1.74738e-06
1.74641e-06
1.98305e-06
5.49884e-06
5.45065e-06
1.93163e-06
1.69106e-06
1.69189e-06
1.69171e-06
1.69171e-06
1.69188e-06
1.69106e-06
1.93186e-06
5.45063e-06
5.40508e-06
1.88306e-06
1.63828e-06
1.63898e-06
1.63882e-06
1.63882e-06
1.63898e-06
1.63828e-06
1.88328e-06
5.40506e-06
5.36195e-06
1.83693e-06
1.58791e-06
1.58848e-06
1.58834e-06
1.58834e-06
1.58847e-06
1.5879e-06
1.83713e-06
5.36193e-06
5.32112e-06
1.79306e-06
1.53977e-06
1.54022e-06
1.54011e-06
1.54011e-06
1.54022e-06
1.53977e-06
1.79325e-06
5.3211e-06
5.28241e-06
1.75133e-06
1.49373e-06
1.49406e-06
1.49397e-06
1.49396e-06
1.49405e-06
1.49372e-06
1.7515e-06
5.28239e-06
5.2457e-06
1.71157e-06
1.44966e-06
1.44986e-06
1.44978e-06
1.44978e-06
1.44985e-06
1.44963e-06
1.71174e-06
5.24568e-06
5.21086e-06
1.67369e-06
1.40742e-06
1.40749e-06
1.40744e-06
1.40743e-06
1.40749e-06
1.40738e-06
1.67385e-06
5.21084e-06
5.17776e-06
1.63755e-06
1.36691e-06
1.36685e-06
1.36681e-06
1.36681e-06
1.36685e-06
1.36684e-06
1.63771e-06
5.17774e-06
5.14629e-06
1.60306e-06
1.32802e-06
1.32783e-06
1.3278e-06
1.3278e-06
1.32783e-06
1.32792e-06
1.60323e-06
5.14627e-06
5.11636e-06
1.57012e-06
1.29066e-06
1.29033e-06
1.29032e-06
1.29031e-06
1.29033e-06
1.29052e-06
1.5703e-06
5.11634e-06
5.08787e-06
1.53865e-06
1.25473e-06
1.25427e-06
1.25426e-06
1.25426e-06
1.25426e-06
1.25455e-06
1.53884e-06
5.08785e-06
5.06073e-06
1.50856e-06
1.22016e-06
1.21956e-06
1.21956e-06
1.21956e-06
1.21955e-06
1.21994e-06
1.50875e-06
5.06071e-06
5.03486e-06
1.47977e-06
1.18687e-06
1.18612e-06
1.18614e-06
1.18613e-06
1.18611e-06
1.1866e-06
1.47998e-06
5.03484e-06
5.01018e-06
1.45222e-06
1.15479e-06
1.15389e-06
1.15391e-06
1.15391e-06
1.15388e-06
1.15448e-06
1.45243e-06
5.01016e-06
4.98663e-06
1.42584e-06
1.12385e-06
1.1228e-06
1.12283e-06
1.12283e-06
1.12279e-06
1.1235e-06
1.42606e-06
4.98661e-06
4.96414e-06
1.40056e-06
1.094e-06
1.0928e-06
1.09283e-06
1.09283e-06
1.09279e-06
1.0936e-06
1.40079e-06
4.96411e-06
4.94264e-06
1.37634e-06
1.06518e-06
1.06381e-06
1.06386e-06
1.06385e-06
1.0638e-06
1.06473e-06
1.37658e-06
4.94262e-06
4.92209e-06
1.35311e-06
1.03733e-06
1.0358e-06
1.03585e-06
1.03585e-06
1.03579e-06
1.03684e-06
1.35336e-06
4.92206e-06
4.90242e-06
1.33082e-06
1.01041e-06
1.00872e-06
1.00877e-06
1.00877e-06
1.0087e-06
1.00987e-06
1.33108e-06
4.9024e-06
4.88359e-06
1.30943e-06
9.84377e-07
9.82507e-07
9.82567e-07
9.82563e-07
9.82494e-07
9.83787e-07
1.30971e-06
4.88357e-06
4.86555e-06
1.2889e-06
9.59179e-07
9.57133e-07
9.57196e-07
9.57193e-07
9.57118e-07
9.5854e-07
1.28918e-06
4.86553e-06
4.84827e-06
1.26916e-06
9.3478e-07
9.32554e-07
9.32621e-07
9.32618e-07
9.32539e-07
9.34091e-07
1.26946e-06
4.84824e-06
4.83168e-06
1.25013e-06
9.11138e-07
9.08733e-07
9.08803e-07
9.08799e-07
9.08716e-07
9.10398e-07
1.25044e-06
4.83165e-06
4.81578e-06
1.23161e-06
8.88208e-07
8.85634e-07
8.85707e-07
8.85703e-07
8.85616e-07
8.87414e-07
1.23192e-06
4.81575e-06
4.8005e-06
1.21179e-06
8.65898e-07
8.63226e-07
8.633e-07
8.63297e-07
8.63207e-07
8.65069e-07
1.21204e-06
4.80047e-06
1.45301e-05
1.35454e-05
1.35424e-05
1.35424e-05
1.35424e-05
1.35424e-05
1.35424e-05
1.35424e-05
1.35454e-05
1.45301e-05
1.34572e-05
1.17545e-05
1.17357e-05
1.174e-05
1.174e-05
1.174e-05
1.174e-05
1.17357e-05
1.17545e-05
1.34572e-05
1.25548e-05
1.03592e-05
1.03266e-05
1.03337e-05
1.0333e-05
1.0333e-05
1.03337e-05
1.03266e-05
1.03592e-05
1.25548e-05
1.17864e-05
9.24633e-06
9.19993e-06
9.20904e-06
9.20765e-06
9.20765e-06
9.20904e-06
9.19994e-06
9.24637e-06
1.17864e-05
1.11251e-05
8.34061e-06
8.2807e-06
8.29092e-06
8.28894e-06
8.28895e-06
8.29092e-06
8.28071e-06
8.34068e-06
1.11251e-05
1.05506e-05
7.59006e-06
7.51762e-06
7.52828e-06
7.52589e-06
7.5259e-06
7.52828e-06
7.51763e-06
7.59016e-06
1.05506e-05
1.00476e-05
6.95852e-06
6.87468e-06
6.88534e-06
6.88272e-06
6.88273e-06
6.88534e-06
6.87469e-06
6.95866e-06
1.00476e-05
9.60413e-06
6.42021e-06
6.32598e-06
6.33636e-06
6.33365e-06
6.33366e-06
6.33636e-06
6.32599e-06
6.42039e-06
9.60413e-06
9.21068e-06
5.95618e-06
5.85246e-06
5.86238e-06
5.85969e-06
5.8597e-06
5.86238e-06
5.85247e-06
5.95639e-06
9.21068e-06
8.85969e-06
5.55221e-06
5.4398e-06
5.44918e-06
5.44658e-06
5.44658e-06
5.44918e-06
5.43981e-06
5.55245e-06
8.85969e-06
8.545e-06
5.19749e-06
5.07707e-06
5.08587e-06
5.0834e-06
5.0834e-06
5.08587e-06
5.07708e-06
5.19775e-06
8.545e-06
8.26159e-06
4.88361e-06
4.75579e-06
4.76399e-06
4.76168e-06
4.76168e-06
4.764e-06
4.7558e-06
4.88388e-06
8.26158e-06
8.00528e-06
4.60397e-06
4.46926e-06
4.47689e-06
4.47474e-06
4.47474e-06
4.47689e-06
4.46927e-06
4.60425e-06
8.00527e-06
7.77261e-06
4.35331e-06
4.21216e-06
4.21924e-06
4.21725e-06
4.21726e-06
4.21924e-06
4.21217e-06
4.35358e-06
7.7726e-06
7.56069e-06
4.12738e-06
3.98019e-06
3.98674e-06
3.98492e-06
3.98492e-06
3.98674e-06
3.9802e-06
4.12765e-06
7.56067e-06
7.36703e-06
3.92274e-06
3.76984e-06
3.77589e-06
3.77423e-06
3.77423e-06
3.77589e-06
3.76985e-06
3.923e-06
7.36702e-06
7.18956e-06
3.73653e-06
3.57822e-06
3.5838e-06
3.58229e-06
3.58229e-06
3.58381e-06
3.57823e-06
3.73678e-06
7.18955e-06
7.02649e-06
3.56641e-06
3.40293e-06
3.40808e-06
3.40671e-06
3.40671e-06
3.40808e-06
3.40294e-06
3.56665e-06
7.02647e-06
6.87626e-06
3.4104e-06
3.24197e-06
3.24672e-06
3.24547e-06
3.24547e-06
3.24672e-06
3.24198e-06
3.41063e-06
6.87624e-06
6.73756e-06
3.26684e-06
3.09365e-06
3.09802e-06
3.09689e-06
3.09689e-06
3.09802e-06
3.09366e-06
3.26706e-06
6.73754e-06
6.60921e-06
3.13433e-06
2.95652e-06
2.96054e-06
2.95952e-06
2.95952e-06
2.96054e-06
2.95653e-06
3.13454e-06
6.60919e-06
6.49021e-06
3.01166e-06
2.82936e-06
2.83306e-06
2.83213e-06
2.83214e-06
2.83306e-06
2.82937e-06
3.01186e-06
6.49019e-06
6.37967e-06
2.89781e-06
2.71112e-06
2.71452e-06
2.71368e-06
2.71368e-06
2.71452e-06
2.71113e-06
2.89799e-06
6.37965e-06
6.27681e-06
2.79187e-06
2.60088e-06
2.604e-06
2.60325e-06
2.60325e-06
2.604e-06
2.60089e-06
2.79205e-06
6.27679e-06
6.18093e-06
2.69308e-06
2.49786e-06
2.50072e-06
2.50004e-06
2.50004e-06
2.50072e-06
2.49787e-06
2.69325e-06
6.18091e-06
6.09142e-06
2.60077e-06
2.40136e-06
2.40398e-06
2.40336e-06
2.40337e-06
2.40398e-06
2.40137e-06
2.60092e-06
6.0914e-06
6.00775e-06
2.51434e-06
2.31078e-06
2.31317e-06
2.31262e-06
2.31262e-06
2.31317e-06
2.31079e-06
2.51448e-06
6.00773e-06
5.92941e-06
2.43327e-06
2.22558e-06
2.22776e-06
2.22726e-06
2.22727e-06
2.22776e-06
2.22559e-06
2.4334e-06
5.92939e-06
5.85597e-06
2.3571e-06
2.14531e-06
2.14728e-06
2.14684e-06
2.14684e-06
2.14728e-06
2.14531e-06
2.35722e-06
5.85595e-06
5.78705e-06
2.28543e-06
2.06952e-06
2.07131e-06
2.07091e-06
2.07091e-06
2.07131e-06
2.06953e-06
2.28554e-06
5.78703e-06
5.72228e-06
2.21788e-06
1.99787e-06
1.99947e-06
1.99912e-06
1.99912e-06
1.99947e-06
1.99787e-06
2.21798e-06
5.72226e-06
5.66135e-06
2.15414e-06
1.93001e-06
1.93145e-06
1.93114e-06
1.93114e-06
1.93145e-06
1.93002e-06
2.15422e-06
5.66133e-06
5.60397e-06
2.0939e-06
1.86565e-06
1.86693e-06
1.86665e-06
1.86665e-06
1.86693e-06
1.86566e-06
2.09398e-06
5.60395e-06
5.54988e-06
2.03692e-06
1.80453e-06
1.80565e-06
1.80541e-06
1.80541e-06
1.80565e-06
1.80453e-06
2.03699e-06
5.54986e-06
5.49884e-06
1.98296e-06
1.74639e-06
1.74737e-06
1.74716e-06
1.74716e-06
1.74737e-06
1.7464e-06
1.98301e-06
5.49882e-06
5.45063e-06
1.93179e-06
1.69104e-06
1.69188e-06
1.69169e-06
1.69169e-06
1.69188e-06
1.69104e-06
1.93184e-06
5.45061e-06
5.40505e-06
1.88323e-06
1.63826e-06
1.63897e-06
1.63881e-06
1.63881e-06
1.63897e-06
1.63826e-06
1.88326e-06
5.40503e-06
5.36193e-06
1.8371e-06
1.58788e-06
1.58847e-06
1.58833e-06
1.58833e-06
1.58847e-06
1.58788e-06
1.83712e-06
5.3619e-06
5.32109e-06
1.79324e-06
1.53975e-06
1.54021e-06
1.54009e-06
1.54009e-06
1.54021e-06
1.53975e-06
1.79325e-06
5.32107e-06
5.28239e-06
1.7515e-06
1.49371e-06
1.49405e-06
1.49395e-06
1.49395e-06
1.49405e-06
1.4937e-06
1.7515e-06
5.28236e-06
5.24567e-06
1.71175e-06
1.44963e-06
1.44985e-06
1.44977e-06
1.44977e-06
1.44985e-06
1.44961e-06
1.71175e-06
5.24565e-06
5.21083e-06
1.67386e-06
1.40739e-06
1.40748e-06
1.40742e-06
1.40742e-06
1.40748e-06
1.40735e-06
1.67386e-06
5.2108e-06
5.17773e-06
1.63773e-06
1.36688e-06
1.36684e-06
1.36679e-06
1.36679e-06
1.36684e-06
1.36682e-06
1.63773e-06
5.1777e-06
5.14626e-06
1.60324e-06
1.32799e-06
1.32782e-06
1.32779e-06
1.32778e-06
1.32782e-06
1.3279e-06
1.60325e-06
5.14624e-06
5.11633e-06
1.57031e-06
1.29062e-06
1.29032e-06
1.2903e-06
1.2903e-06
1.29032e-06
1.2905e-06
1.57032e-06
5.1163e-06
5.08784e-06
1.53883e-06
1.25469e-06
1.25426e-06
1.25425e-06
1.25424e-06
1.25425e-06
1.25453e-06
1.53886e-06
5.08781e-06
5.06069e-06
1.50874e-06
1.22012e-06
1.21954e-06
1.21954e-06
1.21954e-06
1.21954e-06
1.21991e-06
1.50878e-06
5.06067e-06
5.03482e-06
1.47996e-06
1.18683e-06
1.18611e-06
1.18612e-06
1.18611e-06
1.1861e-06
1.18658e-06
1.48e-06
5.03479e-06
5.01014e-06
1.45241e-06
1.15474e-06
1.15388e-06
1.15389e-06
1.15389e-06
1.15387e-06
1.15446e-06
1.45246e-06
5.01012e-06
4.98659e-06
1.42603e-06
1.12381e-06
1.12279e-06
1.12281e-06
1.12281e-06
1.12278e-06
1.12348e-06
1.42609e-06
4.98656e-06
4.9641e-06
1.40077e-06
1.09395e-06
1.09278e-06
1.09281e-06
1.09281e-06
1.09277e-06
1.09358e-06
1.40082e-06
4.96407e-06
4.9426e-06
1.37655e-06
1.06513e-06
1.0638e-06
1.06384e-06
1.06383e-06
1.06379e-06
1.06471e-06
1.37661e-06
4.94257e-06
4.92205e-06
1.35333e-06
1.03728e-06
1.03578e-06
1.03583e-06
1.03583e-06
1.03578e-06
1.03682e-06
1.35339e-06
4.92201e-06
4.90238e-06
1.33106e-06
1.01036e-06
1.0087e-06
1.00875e-06
1.00875e-06
1.00869e-06
1.00985e-06
1.33111e-06
4.90234e-06
4.88355e-06
1.30969e-06
9.84321e-07
9.82487e-07
9.82543e-07
9.82541e-07
9.8248e-07
9.83768e-07
1.30974e-06
4.88351e-06
4.86551e-06
1.28918e-06
9.59121e-07
9.57112e-07
9.57172e-07
9.57171e-07
9.57104e-07
9.58521e-07
1.28921e-06
4.86547e-06
4.84822e-06
1.26945e-06
9.3472e-07
9.32532e-07
9.32596e-07
9.32594e-07
9.32524e-07
9.34071e-07
1.26948e-06
4.84818e-06
4.83164e-06
1.25044e-06
9.11076e-07
9.0871e-07
9.08777e-07
9.08776e-07
9.08701e-07
9.10377e-07
1.25046e-06
4.8316e-06
4.81574e-06
1.23194e-06
8.88144e-07
8.85611e-07
8.85681e-07
8.85679e-07
8.85601e-07
8.87393e-07
1.23194e-06
4.81569e-06
4.80046e-06
1.2121e-06
8.65831e-07
8.63201e-07
8.63274e-07
8.63272e-07
8.63191e-07
8.65047e-07
1.21205e-06
4.8004e-06
)
;
    }
    inlet
    {
        type            calculated;
        value           uniform 0.00952565;
    }
    outlet
    {
        type            calculated;
        value           nonuniform List<scalar> 
20
(
6.34141e-05
1.18084e-05
9.39986e-06
9.38156e-06
9.38207e-06
9.38205e-06
9.38143e-06
9.39419e-06
1.18102e-05
6.34137e-05
6.34135e-05
1.18106e-05
9.3994e-06
9.38139e-06
9.38189e-06
9.38188e-06
9.38132e-06
9.39404e-06
1.18102e-05
6.34129e-05
)
;
    }
    heatWall
    {
        type            nutkWallFunction;