/*--------------------------------*- C++ -*----------------------------------*\
  =========                 |
  \\      /  F ield         | OpenFOAM: The Open Source CFD Toolbox
   \\    /   O peration     | Website:  https://openfoam.org
    \\  /    A nd           | Version:  8
     \\/     M anipulation  |
\*---------------------------------------------------------------------------*/
FoamFile
{
    version     2.0;
    format      ascii;
    class       volScalarField;
    location    "800";
    object      p;
}
// * * * * * * * * * * * * * * * * * * * * * * * * * * * * * * * * * * * * * //

dimensions      [1 -1 -2 0 0 0 0];

internalField   nonuniform List<scalar> 
1200
(
464.325
256.536
168.607
138.289
118.104
101.184
87.5432
76.2105
66.3669
57.6355
49.7993
42.714
36.2771
30.3956
24.9894
19.9944
15.3613
11.049
7.01531
3.22417
-0.349608
-3.72909
-6.94175
-10.0119
-12.9528
-15.778
-18.5066
-21.1521
-23.7229
-26.2305
-28.686
-31.0965
-33.4695
-35.8127
-38.1313
-40.4294
-42.7113
-44.9825
-47.2488
-49.5117
-51.772
-54.0342
-56.3003
-58.5707
-60.8475
-63.1349
-65.436
-67.7501
-70.0752
-72.413
-74.767
-77.1373
-79.5248
-81.9287
-84.3483
-86.7871
-89.2533
-91.7685
-94.3719
-97.7506
-173.067
-147.603
-141.252
-135.343
-134.361
-137.184
-141.411
-146.141
-151.063
-155.975
-160.766
-165.375
-169.765
-173.936
-177.9
-181.672
-185.266
-188.692
-191.97
-195.115
-198.136
-201.044
-203.855
-206.582
-209.23
-211.807
-214.325
-216.791
-219.21
-221.589
-223.936
-226.254
-228.549
-230.827
-233.09
-235.342
-237.585
-239.824
-242.064
-244.305
-246.55
-248.801
-251.06
-253.326
-255.6
-257.886
-260.188
-262.503
-264.831
-267.171
-269.529
-271.904
-274.295
-276.704
-279.128
-281.57
-284.037
-286.538
-289.088
-291.805
-296.821
-239.124
-232.576
-245.793
-260.895
-275.568
-289.336
-301.891
-313.202
-323.377
-332.556
-340.856
-348.37
-355.191
-361.41
-367.106
-372.341
-377.169
-381.641
-385.804
-389.695
-393.345
-396.788
-400.052
-403.156
-406.12
-408.966
-411.708
-414.36
-416.935
-419.444
-421.898
-424.305
-426.675
-429.013
-431.325
-433.617
-435.894
-438.162
-440.424
-442.683
-444.944
-447.208
-449.476
-451.749
-454.032
-456.328
-458.636
-460.955
-463.286
-465.634
-467.998
-470.379
-472.777
-475.19
-477.619
-480.068
-482.533
-484.986
-487.277
-491.503
-469.159
-475.797
-493.489
-507.344
-517.633
-526.245
-533.701
-540.204
-545.996
-551.272
-556.142
-560.672
-564.911
-568.902
-572.678
-576.264
-579.677
-582.936
-586.058
-589.057
-591.948
-594.743
-597.452
-600.084
-602.649
-605.155
-607.61
-610.019
-612.39
-614.728
-617.038
-619.326
-621.596
-623.851
-626.095
-628.331
-630.563
-632.795
-635.027
-637.262
-639.503
-641.751
-644.006
-646.271
-648.548
-650.84
-653.146
-655.464
-657.797
-660.148
-662.515
-664.9
-667.301
-669.719
-672.153
-674.6
-677.052
-679.468
-681.655
-683.078
-663.651
-660.137
-669.591
-679.702
-689.071
-698.571
-707.886
-716.626
-724.714
-732.18
-739.059
-745.387
-751.212
-756.583
-761.552
-766.167
-770.464
-774.479
-778.246
-781.797
-785.158
-788.353
-791.403
-794.325
-797.135
-799.85
-802.48
-805.038
-807.534
-809.977
-812.374
-814.733
-817.061
-819.364
-821.647
-823.913
-826.17
-828.42
-830.666
-832.911
-835.159
-837.412
-839.671
-841.938
-844.217
-846.509
-848.813
-851.13
-853.461
-855.808
-858.172
-860.553
-862.95
-865.364
-867.793
-870.233
-872.669
-875.046
-877.123
-878.255
-858.83
-855.321
-864.78
-874.895
-884.268
-893.764
-903.071
-911.807
-919.893
-927.355
-934.23
-940.557
-946.381
-951.752
-956.723
-961.338
-965.636
-969.652
-973.419
-976.971
-980.334
-983.53
-986.581
-989.503
-992.315
-995.03
-997.66
-1000.22
-1002.72
-1005.16
-1007.56
-1009.92
-1012.24
-1014.55
-1016.83
-1019.1
-1021.35
-1023.6
-1025.85
-1028.09
-1030.34
-1032.59
-1034.85
-1037.12
-1039.4
-1041.69
-1043.99
-1046.3
-1048.63
-1050.98
-1053.34
-1055.72
-1058.11
-1060.52
-1062.95
-1065.39
-1067.83
-1070.2
-1072.29
-1077.03
-1054.69
-1061.32
-1079.01
-1092.86
-1103.16
-1111.78
-1119.23
-1125.74
-1131.54
-1136.81
-1141.68
-1146.21
-1150.46
-1154.45
-1158.23
-1161.81
-1165.22
-1168.48
-1171.6
-1174.6
-1177.49
-1180.28
-1182.99
-1185.62
-1188.19
-1190.69
-1193.15
-1195.56
-1197.93
-1200.27
-1202.58
-1204.87
-1207.14
-1209.39
-1211.63
-1213.87
-1216.1
-1218.33
-1220.56
-1222.8
-1225.04
-1227.28
-1229.54
-1231.8
-1234.08
-1236.38
-1238.68
-1241
-1243.33
-1245.68
-1248.05
-1250.43
-1252.83
-1255.25
-1257.68
-1260.13
-1262.58
-1265
-1267.19
-1272.71
-1215.04
-1208.5
-1221.71
-1236.81
-1251.49
-1265.24
-1277.77
-1289.06
-1299.24
-1308.42
-1316.71
-1324.23
-1331.06
-1337.28
-1342.98
-1348.22
-1353.05
-1357.52
-1361.69
-1365.57
-1369.23
-1372.67
-1375.93
-1379.03
-1382
-1384.84
-1387.58
-1390.23
-1392.81
-1395.32
-1397.77
-1400.18
-1402.55
-1404.89
-1407.2
-1409.49
-1411.77
-1414.03
-1416.29
-1418.55
-1420.81
-1423.07
-1425.33
-1427.6
-1429.88
-1432.18
-1434.48
-1436.8
-1439.13
-1441.48
-1443.85
-1446.23
-1448.62
-1451.04
-1453.47
-1455.92
-1458.39
-1460.85
-1463.14
-1539.31
-1513.83
-1507.5
-1501.6
-1500.63
-1503.47
-1507.69
-1512.4
-1517.32
-1522.24
-1527.02
-1531.62
-1536.01
-1540.18
-1544.14
-1547.91
-1551.51
-1554.93
-1558.21
-1561.35
-1564.37
-1567.28
-1570.09
-1572.81
-1575.46
-1578.04
-1580.56
-1583.02
-1585.44
-1587.82
-1590.17
-1592.49
-1594.78
-1597.06
-1599.32
-1601.57
-1603.81
-1606.05
-1608.29
-1610.52
-1612.77
-1615.01
-1617.26
-1619.52
-1621.8
-1624.08
-1626.38
-1628.69
-1631.01
-1633.35
-1635.71
-1638.08
-1640.47
-1642.88
-1645.31
-1647.75
-1650.22
-1652.72
-1655.28
-1658.01
-1292.31
-1500.01
-1587.97
-1618.29
-1638.48
-1655.41
-1669.04
-1680.34
-1690.18
-1698.92
-1706.76
-1713.83
-1720.27
-1726.16
-1731.57
-1736.57
-1741.2
-1745.52
-1749.55
-1753.34
-1756.91
-1760.29
-1763.5
-1766.57
-1769.5
-1772.33
-1775.06
-1777.7
-1780.27
-1782.78
-1785.24
-1787.65
-1790.02
-1792.36
-1794.68
-1796.97
-1799.25
-1801.53
-1803.79
-1806.05
-1808.31
-1810.57
-1812.84
-1815.11
-1817.38
-1819.67
-1821.97
-1824.29
-1826.61
-1828.95
-1831.3
-1833.67
-1836.06
-1838.46
-1840.89
-1843.33
-1845.8
-1848.32
-1850.93
-1854.33
463.666
256.441
168.525
138.24
118.105
101.179
87.554
76.2734
66.4604
57.7266
49.894
42.8139
36.3603
30.4489
25.0157
20.0048
15.3625
11.0406
7.00359
3.21873
-0.348739
-3.72867
-6.94095
-10.003
-12.9381
-15.7655
-18.4949
-21.139
-23.7125
-26.2239
-28.6807
-31.0924
-33.466
-35.8072
-38.1226
-40.4187
-42.7005
-44.9711
-47.2324
-49.4894
-51.7458
-54.0031
-56.2646
-58.5344
-60.8137
-63.1018
-65.3988
-67.7078
-70.033
-72.3744
-74.7301
-77.1014
-79.4886
-81.8936
-84.3186
-86.7635
-89.2302
-91.7387
-94.3379
-97.7257
-173.163
-147.676
-141.414
-135.454
-134.397
-137.205
-141.419
-146.11
-151.013
-155.933
-160.724
-165.325
-169.727
-173.922
-177.911
-181.698
-185.3
-188.736
-192.019
-195.161
-198.18
-201.091
-203.903
-206.625
-209.269
-211.849
-214.367
-216.832
-219.253
-221.635
-223.983
-226.303
-228.599
-230.876
-233.137
-235.388
-237.632
-239.872
-242.108
-244.345
-246.586
-248.833
-251.088
-253.353
-255.629
-257.915
-260.212
-262.522
-264.848
-267.192
-269.55
-271.924
-274.314
-276.723
-279.151
-281.598
-284.064
-286.558
-289.102
-291.821
-296.95
-239.456
-233.017
-246.166
-261.145
-275.731
-289.437
-301.93
-313.203
-323.367
-332.532
-340.814
-348.326
-355.161
-361.396
-367.102
-372.343
-377.179
-381.66
-385.827
-389.72
-393.376
-396.822
-400.083
-403.185
-406.152
-408.997
-411.738
-414.39
-416.966
-419.475
-421.929
-424.337
-426.704
-429.04
-431.352
-433.644
-435.921
-438.187
-440.446
-442.703
-444.96
-447.221
-449.488
-451.764
-454.047
-456.339
-458.642
-460.961
-463.295
-465.643
-468.007
-470.386
-472.783
-475.198
-477.632
-480.081
-482.539
-484.986
-487.278
-491.594
-469.269
-475.916
-493.559
-507.333
-517.574
-526.178
-533.635
-540.146
-545.958
-551.243
-556.111
-560.644
-564.895
-568.899
-572.683
-576.271
-579.689
-582.954
-586.083
-589.088
-591.983
-594.78
-597.488
-600.12
-602.686
-605.19
-607.643
-610.051
-612.42
-614.756
-617.066
-619.352
-621.619
-623.873
-626.116
-628.354
-630.587
-632.817
-635.049
-637.284
-639.523
-641.769
-644.025
-646.291
-648.568
-650.856
-653.159
-655.478
-657.813
-660.163
-662.528
-664.911
-667.311
-669.73
-672.165
-674.613
-677.058
-679.467
-681.654
-683.162
-663.771
-660.332
-669.785
-679.809
-689.095
-698.563
-707.876
-716.621
-724.716
-732.182
-739.051
-745.37
-751.191
-756.565
-761.537
-766.15
-770.449
-774.471
-778.249
-781.809
-785.177
-788.377
-791.43
-794.354
-797.166
-799.879
-802.508
-805.064
-807.557
-809.996
-812.391
-814.749
-817.075
-819.377
-821.66
-823.928
-826.186
-828.436
-830.682
-832.928
-835.175
-837.427
-839.686
-841.954
-844.232
-846.52
-848.821
-851.139
-853.471
-855.818
-858.18
-860.559
-862.955
-865.369
-867.799
-870.238
-872.668
-875.038
-877.117
-878.331
-858.942
-855.509
-864.967
-874.995
-884.282
-893.751
-903.067
-911.813
-919.905
-927.369
-934.237
-940.552
-946.369
-951.741
-956.712
-961.324
-965.623
-969.645
-973.423
-976.984
-980.352
-983.553
-986.606
-989.531
-992.343
-995.057
-997.687
-1000.24
-1002.74
-1005.17
-1007.57
-1009.93
-1012.26
-1014.56
-1016.84
-1019.11
-1021.37
-1023.62
-1025.87
-1028.11
-1030.36
-1032.61
-1034.87
-1037.14
-1039.42
-1041.7
-1044
-1046.32
-1048.65
-1050.99
-1053.35
-1055.73
-1058.12
-1060.53
-1062.96
-1065.4
-1067.83
-1070.2
-1072.28
-1077.1
-1054.78
-1061.42
-1079.07
-1092.84
-1103.08
-1111.7
-1119.17
-1125.69
-1131.51
-1136.8
-1141.67
-1146.2
-1150.45
-1154.44
-1158.22
-1161.81
-1165.22
-1168.49
-1171.62
-1174.62
-1177.51
-1180.31
-1183.02
-1185.65
-1188.22
-1190.72
-1193.17
-1195.58
-1197.95
-1200.28
-1202.59
-1204.88
-1207.15
-1209.4
-1211.65
-1213.89
-1216.12
-1218.35
-1220.58
-1222.82
-1225.06
-1227.3
-1229.56
-1231.83
-1234.1
-1236.39
-1238.69
-1241.01
-1243.35
-1245.7
-1248.06
-1250.44
-1252.84
-1255.26
-1257.7
-1260.14
-1262.59
-1265
-1267.19
-1272.8
-1215.34
-1208.91
-1222.06
-1237.04
-1251.62
-1265.33
-1277.83
-1289.11
-1299.26
-1308.43
-1316.71
-1324.22
-1331.05
-1337.28
-1342.98
-1348.21
-1353.05
-1357.53
-1361.69
-1365.59
-1369.24
-1372.68
-1375.95
-1379.05
-1382.02
-1384.86
-1387.6
-1390.26
-1392.83
-1395.34
-1397.79
-1400.2
-1402.57
-1404.91
-1407.22
-1409.52
-1411.79
-1414.06
-1416.32
-1418.58
-1420.83
-1423.09
-1425.36
-1427.63
-1429.91
-1432.2
-1434.51
-1436.83
-1439.16
-1441.51
-1443.87
-1446.25
-1448.65
-1451.06
-1453.49
-1455.94
-1458.4
-1460.85
-1463.14
-1539.29
-1513.83
-1507.58
-1501.66
-1500.61
-1503.42
-1507.66
-1512.39
-1517.3
-1522.21
-1527
-1531.61
-1536
-1540.18
-1544.15
-1547.93
-1551.52
-1554.95
-1558.23
-1561.37
-1564.39
-1567.3
-1570.11
-1572.83
-1575.48
-1578.06
-1580.58
-1583.04
-1585.46
-1587.84
-1590.19
-1592.51
-1594.81
-1597.08
-1599.35
-1601.6
-1603.84
-1606.08
-1608.32
-1610.56
-1612.8
-1615.04
-1617.29
-1619.56
-1621.83
-1624.11
-1626.41
-1628.72
-1631.04
-1633.38
-1635.74
-1638.11
-1640.5
-1642.91
-1645.34
-1647.78
-1650.25
-1652.74
-1655.29
-1658.02
-1292.89
-1500.12
-1588.03
-1618.34
-1638.47
-1655.39
-1669.03
-1680.34
-1690.16
-1698.88
-1706.71
-1713.79
-1720.24
-1726.13
-1731.55
-1736.56
-1741.19
-1745.51
-1749.54
-1753.33
-1756.89
-1760.27
-1763.48
-1766.55
-1769.48
-1772.31
-1775.04
-1777.69
-1780.26
-1782.77
-1785.23
-1787.64
-1790.01
-1792.36
-1794.68
-1796.97
-1799.26
-1801.52
-1803.79
-1806.05
-1808.3
-1810.56
-1812.83
-1815.1
-1817.38
-1819.66
-1821.96
-1824.27
-1826.6
-1828.94
-1831.29
-1833.66
-1836.05
-1838.45
-1840.87
-1843.32
-1845.78
-1848.29
-1850.9
-1854.3
)
;

boundaryField
{
    wall
    {
        type            calculated;
        value           nonuniform List<scalar> 
1200
(
464.654
-173.019
-296.757
-491.458
-683.036
-878.217
-1077
-1272.67
-1539.32
-1292.03
256.584
-147.566
-238.957
-469.105
-663.591
-858.775
-1054.64
-1214.89
-1513.83
-1499.96
168.647
-141.171
-232.356
-475.737
-660.039
-855.226
-1061.26
-1208.3
-1507.46
-1587.94
138.313
-135.287
-245.606
-493.454
-669.493
-864.685
-1078.98
-1221.54
-1501.58
-1618.27
118.103
-134.343
-260.769
-507.35
-679.647
-874.844
-1092.88
-1236.7
-1500.64
-1638.48
101.186
-137.173
-275.486
-517.663
-689.059
-884.261
-1103.2
-1251.43
-1503.49
-1655.42
87.5383
-141.407
-289.286
-526.278
-698.575
-893.771
-1111.83
-1265.2
-1507.71
-1669.04
76.1793
-146.156
-301.871
-533.734
-707.892
-903.073
-1119.27
-1277.73
-1512.4
-1680.34
66.3202
-151.087
-313.202
-540.234
-716.629
-911.804
-1125.76
-1289.04
-1517.32
-1690.19
57.5899
-155.996
-323.381
-546.016
-724.713
-919.888
-1131.55
-1299.23
-1522.25
-1698.95
49.7516
-160.788
-332.569
-551.287
-732.179
-927.348
-1136.82
-1308.41
-1527.04
-1706.78
42.6636
-165.4
-340.878
-556.158
-739.062
-934.226
-1141.69
-1316.71
-1531.63
-1713.85
36.2349
-169.784
-348.392
-560.685
-745.396
-940.559
-1146.22
-1324.23
-1536.01
-1720.29
30.3683
-173.943
-355.207
-564.919
-751.222
-946.387
-1150.46
-1331.06
-1540.18
-1726.18
24.9758
-177.895
-361.418
-568.903
-756.591
-951.758
-1154.45
-1337.29
-1544.14
-1731.58
19.9888
-181.66
-367.107
-572.675
-761.56
-956.728
-1158.23
-1342.99
-1547.91
-1736.58
15.3605
-185.249
-372.339
-576.26
-766.175
-961.345
-1161.81
-1348.22
-1551.5
-1741.21
11.0532
-188.67
-377.164
-579.671
-770.471
-965.643
-1165.22
-1353.05
-1554.92
-1745.52
7.02131
-191.946
-381.632
-582.927
-774.483
-969.655
-1168.48
-1357.52
-1558.19
-1749.55
3.22708
-195.091
-385.793
-586.045
-778.244
-973.418
-1171.59
-1361.68
-1561.33
-1753.34
-0.349877
-198.113
-389.682
-589.042
-781.791
-976.966
-1174.59
-1365.57
-1564.35
-1756.92
-3.72914
-201.02
-393.33
-591.931
-785.149
-980.325
-1177.48
-1369.22
-1567.26
-1760.3
-6.94199
-203.83
-396.771
-594.724
-788.341
-983.519
-1180.27
-1372.66
-1570.08
-1763.51
-10.0163
-206.56
-400.036
-597.434
-791.39
-986.569
-1182.98
-1375.92
-1572.8
-1766.57
-12.9602
-209.211
-403.141
-600.067
-794.31
-989.49
-1185.61
-1379.02
-1575.45
-1769.51
-15.7843
-211.787
-406.105
-602.63
-797.12
-992.3
-1188.17
-1381.99
-1578.03
-1772.34
-18.5126
-214.304
-408.95
-605.137
-799.835
-995.016
-1190.68
-1384.83
-1580.55
-1775.07
-21.1588
-216.771
-411.693
-607.593
-802.466
-997.647
-1193.13
-1387.57
-1583.01
-1777.71
-23.7282
-219.189
-414.344
-610.003
-805.025
-1000.21
-1195.54
-1390.22
-1585.43
-1780.27
-26.234
-221.567
-416.919
-612.375
-807.523
-1002.71
-1197.92
-1392.8
-1587.81
-1782.79
-28.6888
-223.912
-419.429
-614.714
-809.967
-1005.15
-1200.26
-1395.31
-1590.16
-1785.24
-31.0986
-226.23
-421.882
-617.024
-812.364
-1007.55
-1202.57
-1397.76
-1592.47
-1787.65
-33.4713
-228.524
-424.289
-619.313
-814.725
-1009.91
-1204.86
-1400.17
-1594.77
-1790.02
-35.8155
-230.802
-426.66
-621.584
-817.054
-1012.24
-1207.13
-1402.54
-1597.04
-1792.36
-38.1356
-233.066
-428.999
-623.84
-819.358
-1014.54
-1209.38
-1404.87
-1599.3
-1794.68
-40.4347
-235.319
-431.312
-626.084
-821.64
-1016.82
-1211.62
-1407.18
-1601.55
-1796.97
-42.7165
-237.561
-433.603
-628.32
-823.906
-1019.09
-1213.86
-1409.47
-1603.79
-1799.25
-44.9881
-239.8
-435.88
-630.551
-826.162
-1021.35
-1216.09
-1411.75
-1606.03
-1801.53
-47.2568
-242.041
-438.149
-632.784
-828.412
-1023.6
-1218.32
-1414.02
-1608.27
-1803.79
-49.5226
-244.285
-440.412
-635.016
-830.657
-1025.84
-1220.55
-1416.28
-1610.51
-1806.05
-51.7849
-246.531
-442.673
-637.251
-832.902
-1028.08
-1222.79
-1418.53
-1612.75
-1808.31
-54.0495
-248.785
-444.936
-639.493
-835.152
-1030.33
-1225.03
-1420.79
-1615
-1810.57
-56.3181
-251.046
-447.202
-641.742
-837.405
-1032.59
-1227.27
-1423.05
-1617.25
-1812.84
-58.5889
-253.313
-449.469
-643.997
-839.664
-1034.84
-1229.53
-1425.32
-1619.51
-1815.11
-60.8645
-255.586
-451.742
-646.261
-841.93
-1037.11
-1231.79
-1427.59
-1621.78
-1817.39
-63.1515
-257.872
-454.025
-648.538
-844.21
-1039.39
-1234.07
-1429.87
-1624.07
-1819.68
-65.4547
-260.176
-456.323
-650.832
-846.504
-1041.68
-1236.37
-1432.17
-1626.37
-1821.98
-67.7714
-262.494
-458.633
-653.14
-848.809
-1043.98
-1238.67
-1434.47
-1628.68
-1824.29
-70.0964
-264.822
-460.952
-655.458
-851.125
-1046.29
-1240.99
-1436.79
-1631
-1826.61
-72.4325
-267.161
-463.282
-657.79
-853.455
-1048.62
-1243.32
-1439.12
-1633.34
-1828.95
-74.7857
-269.519
-465.629
-660.14
-855.803
-1050.97
-1245.67
-1441.47
-1635.7
-1831.31
-77.1555
-271.893
-467.994
-662.509
-858.168
-1053.33
-1248.04
-1443.84
-1638.07
-1833.68
-79.5432
-274.286
-470.376
-664.894
-860.55
-1055.71
-1250.42
-1446.22
-1640.46
-1836.07
-81.9466
-276.694
-472.773
-667.296
-862.948
-1058.11
-1252.82
-1448.61
-1642.87
-1838.47
-84.3634
-279.117
-475.185
-669.714
-865.362
-1060.52
-1255.24
-1451.03
-1645.29
-1840.89
-86.7991
-281.557
-477.613
-672.146
-867.79
-1062.95
-1257.68
-1453.46
-1647.74
-1843.33
-89.2651
-284.023
-480.061
-674.594
-870.23
-1065.39
-1260.13
-1455.92
-1650.21
-1845.81
-91.7836
-286.528
-482.53
-677.049
-872.669
-1067.82
-1262.58
-1458.39
-1652.72
-1848.33
-94.3891
-289.081
-484.986
-679.469
-875.05
-1070.21
-1265
-1460.85
-1655.27
-1850.95
-97.7632
-291.798
-487.276
-681.655
-877.127
-1072.29
-1267.19
-1463.14
-1658
-1854.34
463.337
-173.212
-297.015
-491.639
-683.205
-878.369
-1077.13
-1272.84
-1539.28
-1293.17
256.394
-147.713
-239.622
-469.324
-663.831
-858.998
-1054.82
-1215.49
-1513.83
-1500.17
168.485
-141.495
-233.237
-475.975
-660.43
-855.603
-1061.47
-1209.11
-1507.63
-1588.07
138.216
-135.51
-246.352
-493.595
-669.883
-865.061
-1079.1
-1222.24
-1501.68
-1618.36
118.105
-134.415
-261.27
-507.328
-679.863
-875.045
-1092.83
-1237.15
-1500.61
-1638.47
101.176
-137.215
-275.813
-517.544
-689.107
-884.289
-1103.04
-1251.68
-1503.4
-1655.38
87.559
-141.423
-289.487
-526.145
-698.558
-893.745
-1111.65
-1265.37
-1507.64
-1669.03
76.3045
-146.096
-301.95
-533.602
-707.87
-903.065
-1119.14
-1277.87
-1512.38
-1680.34
66.507
-150.988
-313.204
-540.116
-716.618
-911.816
-1125.67
-1289.13
-1517.29
-1690.15
57.7722
-155.912
-323.362
-545.938
-724.717
-919.911
-1131.49
-1299.27
-1522.2
-1698.85
49.9417
-160.702
-332.52
-551.228
-732.183
-927.376
-1136.79
-1308.43
-1526.99
-1706.69
42.8643
-165.3
-340.792
-556.096
-739.047
-934.241
-1141.67
-1316.72
-1531.6
-1713.77
36.4025
-169.707
-348.304
-560.631
-745.361
-940.55
-1146.2
-1324.22
-1536
-1720.22
30.4761
-173.915
-355.145
-564.886
-751.181
-946.364
-1150.44
-1331.04
-1540.18
-1726.12
25.0293
-177.916
-361.389
-568.898
-756.557
-951.736
-1154.44
-1337.27
-1544.16
-1731.55
20.0104
-181.71
-367.1
-572.685
-761.53
-956.706
-1158.22
-1342.97
-1547.94
-1736.55
15.3633
-185.317
-372.344
-576.275
-766.142
-961.317
-1161.81
-1348.21
-1551.53
-1741.19
11.0364
-188.758
-377.185
-579.695
-770.442
-965.616
-1165.22
-1353.04
-1554.97
-1745.5
6.99757
-192.043
-381.669
-582.963
-774.467
-969.641
-1168.49
-1357.53
-1558.24
-1749.54
3.2158
-195.185
-385.838
-586.095
-778.25
-973.425
-1171.62
-1361.7
-1561.39
-1753.32
-0.348492
-198.202
-389.733
-589.102
-781.815
-976.989
-1174.63
-1365.59
-1564.4
-1756.89
-3.72864
-201.115
-393.391
-592
-785.186
-980.361
-1177.53
-1369.25
-1567.31
-1760.26
-6.94073
-203.928
-396.838
-594.798
-788.389
-983.564
-1180.32
-1372.69
-1570.12
-1763.47
-9.9986
-206.646
-400.098
-597.506
-791.443
-986.619
-1183.03
-1375.96
-1572.84
-1766.54
-12.9308
-209.289
-403.2
-600.138
-794.369
-989.545
-1185.67
-1379.06
-1575.49
-1769.47
-15.7592
-211.869
-406.167
-602.704
-797.182
-992.358
-1188.23
-1382.02
-1578.07
-1772.3
-18.489
-214.388
-409.012
-605.208
-799.894
-995.071
-1190.73
-1384.87
-1580.59
-1775.03
-21.1324
-216.852
-411.752
-607.659
-802.523
-997.7
-1193.19
-1387.61
-1583.06
-1777.68
-23.7071
-219.275
-414.405
-610.067
-805.078
-1000.26
-1195.59
-1390.27
-1585.48
-1780.26
-26.2204
-221.658
-416.981
-612.435
-807.568
-1002.74
-1197.96
-1392.84
-1587.85
-1782.77
-28.678
-224.007
-419.49
-614.77
-810.006
-1005.18
-1200.29
-1395.35
-1590.2
-1785.22
-31.0903
-226.327
-421.945
-617.079
-812.401
-1007.58
-1202.6
-1397.8
-1592.52
-1787.64
-33.4643
-228.624
-424.353
-619.365
-814.757
-1009.93
-1204.89
-1400.21
-1594.82
-1790.01
-35.8044
-230.9
-426.719
-621.631
-817.082
-1012.26
-1207.16
-1402.58
-1597.1
-1792.36
-38.1183
-233.161
-429.054
-623.884
-819.383
-1014.56
-1209.41
-1404.92
-1599.36
-1794.68
-40.4134
-235.411
-431.365
-626.127
-821.666
-1016.85
-1211.66
-1407.24
-1601.62
-1796.98
-42.6953
-237.656
-433.658
-628.365
-823.936
-1019.12
-1213.89
-1409.53
-1603.86
-1799.26
-44.9656
-239.896
-435.935
-630.599
-826.194
-1021.38
-1216.13
-1411.81
-1606.1
-1801.52
-47.2244
-242.131
-438.199
-632.829
-828.443
-1023.63
-1218.36
-1414.07
-1608.33
-1803.79
-49.4785
-244.365
-440.457
-635.06
-830.691
-1025.88
-1220.59
-1416.34
-1610.57
-1806.04
-51.7329
-246.605
-442.713
-637.295
-832.937
-1028.12
-1222.83
-1418.59
-1612.81
-1808.3
-53.9877
-248.849
-444.968
-639.533
-835.183
-1030.37
-1225.07
-1420.85
-1615.06
-1810.56
-56.2469
-251.101
-447.227
-641.778
-837.434
-1032.62
-1227.31
-1423.11
-1617.31
-1812.82
-58.5162
-253.366
-449.495
-644.034
-839.693
-1034.88
-1229.57
-1425.37
-1619.57
-1815.09
-60.7968
-255.643
-451.771
-646.301
-841.962
-1037.15
-1231.84
-1427.65
-1621.84
-1817.37
-63.0853
-257.93
-454.055
-648.578
-844.239
-1039.43
-1234.11
-1429.92
-1624.12
-1819.66
-65.3801
-260.224
-456.344
-650.864
-846.525
-1041.71
-1236.4
-1432.21
-1626.42
-1821.95
-67.6865
-262.531
-458.645
-653.165
-848.825
-1044.01
-1238.7
-1434.52
-1628.73
-1824.26
-70.0117
-264.857
-460.964
-655.484
-851.144
-1046.33
-1241.02
-1436.84
-1631.06
-1826.59
-72.3549
-267.202
-463.3
-657.82
-853.477
-1048.66
-1243.36
-1439.17
-1633.4
-1828.93
-74.7114
-269.56
-465.648
-660.17
-855.823
-1051
-1245.7
-1441.52
-1635.75
-1831.28
-77.0832
-271.934
-468.011
-662.535
-858.184
-1053.36
-1248.07
-1443.88
-1638.13
-1833.65
-79.4702
-274.324
-470.389
-664.916
-860.562
-1055.73
-1250.45
-1446.26
-1640.52
-1836.04
-81.8757
-276.732
-472.786
-667.316
-862.958
-1058.13
-1252.85
-1448.66
-1642.93
-1838.45
-84.3035
-279.162
-475.203
-669.735
-865.371
-1060.54
-1255.27
-1451.07
-1645.35
-1840.87
-86.7514
-281.612
-477.638
-672.172
-867.802
-1062.96
-1257.7
-1453.5
-1647.8
-1843.31
-89.2184
-284.078
-480.087
-674.619
-870.241
-1065.4
-1260.15
-1455.95
-1650.26
-1845.77
-91.7235
-286.568
-482.542
-677.061
-872.668
-1067.83
-1262.59
-1458.4
-1652.75
-1848.28
-94.3207
-289.109
-484.987
-679.466
-875.034
-1070.2
-1265
-1460.85
-1655.3
-1850.89
-97.7132
-291.828
-487.278
-681.653
-877.113
-1072.28
-1267.19
-1463.15
-1658.03
-1854.29
)
;
    }
    inlet
    {
        type            calculated;
        value           nonuniform List<scalar> 
20
(
464.325
-173.067
-296.821
-491.503
-683.078
-878.255
-1077.03
-1272.71
-1539.31
-1292.31
463.666
-173.163
-296.95
-491.594
-683.162
-878.331
-1077.1
-1272.8
-1539.29
-1292.89
)
;
    }
    outlet
    {
        type            calculated;
        value           nonuniform List<scalar> 
20
(
-97.5912
-292.76
-487.93
-683.102
-878.274
-1073.45
-1268.62
-1463.79
-1658.97
-1854.23
-97.5912
-292.76
-487.93
-683.102
-878.274
-1073.45
-1268.62
-1463.79
-1658.97
-1854.23
)
;
    }
    heatWall
    {
        type            calculated;
        value           nonuniform List<scalar> 
240
(
-1389.9
-1390.47
-1597.6
-1597.7
-1685.56
-1685.62
-1715.88
-1715.92
-1736.06
-1736.06
-1752.99
-1752.98
-1766.62
-1766.62
-1777.93
-1777.93
-1787.77
-1787.75
-1796.51
-1796.47
-1804.34
-1804.3
-1811.42
-1811.38
-1817.86
-1817.82
-1823.75
-1823.72
-1829.16
-1829.14
-1834.16
-1834.14
-1838.79
-1838.78
-1843.11
-1843.1
-1847.14
-1847.13
-1850.93
-1850.91
-1854.5
-1854.48
-1857.88
-1857.86
-1861.09
-1861.07
-1864.15
-1864.14
-1867.09
-1867.07
-1869.92
-1869.9
-1872.65
-1872.63
-1875.29
-1875.28
-1877.86
-1877.85
-1880.37
-1880.36
-1882.83
-1882.82
-1885.24
-1885.23
-1887.61
-1887.6
-1889.95
-1889.95
-1892.27
-1892.27
-1894.56
-1894.56
-1896.84
-1896.85
-1899.12
-1899.11
-1901.38
-1901.38
-1903.64
-1903.64
-1905.9
-1905.89
-1908.16
-1908.15
-1910.43
-1910.42
-1912.7
-1912.69
-1914.97
-1914.97
-1917.26
-1917.25
-1919.57
-1919.55
-1921.88
-1921.86
-1924.2
-1924.19
-1926.54
-1926.53
-1928.89
-1928.88
-1931.26
-1931.25
-1933.65
-1933.64
-1936.05
-1936.04
-1938.48
-1938.46
-1940.92
-1940.91
-1943.39
-1943.37
-1945.91
-1945.88
-1948.52
-1948.49
-1951.92
-1951.89
561.911
561.253
354.122
354.028
266.193
266.112
235.875
235.826
215.69
215.691
198.771
198.766
185.13
185.141
173.798
173.861
163.954
164.048
155.223
155.314
147.387
147.482
140.302
140.402
133.865
133.948
127.983
128.037
122.577
122.604
117.582
117.593
112.949
112.951
108.637
108.629
104.604
104.592
100.813
100.807
97.2389
97.2398
93.8595
93.8599
90.6469
90.6477
87.5768
87.5858
84.636
84.6507
81.811
81.8234
79.0824
79.0941
76.4369
76.45
73.8663
73.8767
71.3587
71.3654
68.9033
68.9086
66.4929
66.497
64.1199
64.1234
61.7768
61.7823
59.4583
59.467
57.1602
57.171
54.8784
54.8892
52.6073
52.6187
50.3411
50.3575
48.0783
48.1005
45.818
45.8442
43.5559
43.587
41.2898
41.3255
39.0195
39.0558
36.7427
36.7766
34.4554
34.4885
32.1544
32.1916
29.8403
29.8827
27.5153
27.5575
25.1776
25.2162
22.8237
22.8606
20.4534
20.4893
18.066
18.1022
15.6621
15.6973
13.2426
13.2723
10.8039
10.8275
8.3377
8.36086
5.82259
5.85244
3.21925
3.25327
-0.159372
-0.134506
)
;
    }
}


// ************************************************************************* //
