/*--------------------------------*- C++ -*----------------------------------*\
  =========                 |
  \\      /  F ield         | OpenFOAM: The Open Source CFD Toolbox
   \\    /   O peration     | Website:  https://openfoam.org
    \\  /    A nd           | Version:  8
     \\/     M anipulation  |
\*---------------------------------------------------------------------------*/
FoamFile
{
    version     2.0;
    format      ascii;
    class       surfaceScalarField;
    location    "800";
    object      phi;
}
// * * * * * * * * * * * * * * * * * * * * * * * * * * * * * * * * * * * * * //

dimensions      [1 0 -1 0 0 0 0];

internalField   nonuniform List<scalar> 
2860
(
0.40079
-0.00186807
0.00150771
0.400718
0.00137742
0.00173797
0.400705
0.00139522
0.0019376
0.400359
0.00169833
0.00205671
0.399814
0.0018131
0.00205129
0.399213
0.00176885
0.00206161
0.398602
0.0016748
0.0020348
0.39799
0.00157341
0.00187879
0.397383
0.00147412
0.0016455
0.396784
0.00138003
0.001417
0.396193
0.00129277
0.00117836
0.395611
0.00121293
0.000925628
0.395037
0.00114039
0.000713487
0.394472
0.00107462
0.000575998
0.393915
0.00101493
0.000506633
0.393366
0.000960684
0.000477631
0.392824
0.000911363
0.00047267
0.39229
0.00086651
0.000492827
0.391763
0.000825507
0.000522442
0.391243
0.000787869
0.000536976
0.390729
0.000753325
0.000535869
0.390221
0.0007217
0.00053607
0.38972
0.000692737
0.000535556
0.389224
0.000666122
0.000514366
0.388734
0.000641656
0.000478388
0.38825
0.000619242
0.000447805
0.387771
0.000598712
0.000419059
0.387298
0.000579859
0.000386641
0.386829
0.000562565
0.000361026
0.386366
0.000546731
0.000345156
0.385907
0.000532192
0.000332974
0.385453
0.000518799
0.00032417
0.385003
0.000506456
0.000317174
0.384558
0.000495058
0.00030531
0.384117
0.0004845
0.000285738
0.38368
0.000474703
0.000261276
0.383247
0.000465597
0.00023717
0.382818
0.000457113
0.000211795
0.382393
0.000449176
0.000174011
0.381971
0.000441753
0.000121338
0.381553
0.000434719
5.86341e-05
0.381139
0.000428115
-1.65458e-05
0.380727
0.00042189
-0.000103782
0.380319
0.000416024
-0.000192802
0.379915
0.000410518
-0.000275331
0.379513
0.000405343
-0.000355822
0.379115
0.000400463
-0.000447195
0.378719
0.00039583
-0.000552164
0.378327
0.000391429
-0.000656828
0.377937
0.000387274
-0.00075221
0.37755
0.000383346
-0.000843288
0.377166
0.000379657
-0.000931956
0.376784
0.000376168
-0.00102148
0.376405
0.000372851
-0.00110834
0.376028
0.00036971
-0.0011807
0.375654
0.000366589
-0.00123697
0.375283
0.000362982
-0.00129189
0.374918
0.000356872
-0.00136433
0.374567
0.000342769
-0.00144775
0.000239367
-0.00150678
0.398245
-0.00315946
0.000226688
0.398234
-4.24098e-05
0.000423437
0.398035
-5.69799e-05
0.000839265
0.398041
-4.30734e-05
0.00112805
0.398113
-5.07876e-06
0.00122696
0.398212
-4.86093e-05
0.00128819
0.398326
-0.00010839
0.00131606
0.398443
-0.000153963
0.0012502
0.398556
-0.000186407
0.00113541
0.398664
-0.000209624
0.00103978
0.398764
-0.000225596
0.000940267
0.398856
-0.000235703
0.000822446
0.398941
-0.000240917
0.000731725
0.399018
-0.000242123
0.000701581
0.399089
-0.000240219
0.000730875
0.399154
-0.000235942
0.000796268
0.399214
-0.000229782
0.000883018
0.399268
-0.000222135
0.000992949
0.399318
-0.000213467
0.00111435
0.399364
-0.000204299
0.00123035
0.399406
-0.000194772
0.00134017
0.399444
-0.000184823
0.00145623
0.39948
-0.000174553
0.00157558
0.399513
-0.000164201
0.00168038
0.399543
-0.000153821
0.00177482
0.399572
-0.000143292
0.00187438
0.399598
-0.000132647
0.00197447
0.399622
-0.000121996
0.0020707
0.399645
-0.000111301
0.00217214
0.399667
-0.000100525
0.00228069
0.399687
-8.97599e-05
0.00239203
0.399706
-7.90759e-05
0.00250745
0.399723
-6.84841e-05
0.00262574
0.39974
-5.80322e-05
0.00274097
0.399756
-4.77789e-05
0.00285104
0.399772
-3.7742e-05
0.00295868
0.399786
-2.79241e-05
0.00306906
0.3998
-1.83391e-05
0.00318093
0.399814
-9.04812e-06
0.00328408
0.399827
-1.21564e-07
0.00337536
0.39984
8.49374e-06
0.00345822
0.399852
1.68388e-05
0.00352939
0.399864
2.4893e-05
0.00358921
0.399876
3.26872e-05
0.00364688
0.399888
4.02792e-05
0.00370921
0.399899
4.76663e-05
0.00377186
0.399911
5.48234e-05
0.00382237
0.399922
6.17038e-05
0.00385834
0.399933
6.83317e-05
0.00389262
0.399943
7.4778e-05
0.00393286
0.399954
8.10482e-05
0.00397443
0.399965
8.71853e-05
0.00401456
0.399976
9.3152e-05
0.00405064
0.399986
9.89361e-05
0.00408617
0.399997
0.000104578
0.00413096
0.400007
0.000109848
0.00418764
0.400018
0.00011397
0.00424405
0.400031
0.000114263
0.00428229
0.400049
0.000102145
0.00430569
2.89462e-05
0.00433288
0.396066
-0.000919995
0.000291591
0.396271
0.000520615
0.0011245
0.396444
0.000778704
0.00222836
0.396751
0.000805786
0.00316315
0.397113
0.000871728
0.00379128
0.39746
0.00088415
0.00420154
0.397775
0.000864336
0.00445501
0.39806
0.000838371
0.00455679
0.398317
0.000810319
0.00456278
0.398548
0.00078008
0.00454196
0.398757
0.000748838
0.00448415
0.398946
0.000717778
0.00438067
0.399117
0.000687866
0.00427361
0.399273
0.000659516
0.00419938
0.399415
0.000632713
0.0041665
0.399546
0.000607407
0.00416006
0.399666
0.000583631
0.00416877
0.399778
0.000561368
0.00419721
0.399882
0.000540381
0.00424484
0.399979
0.000520365
0.00430297
0.400069
0.000501345
0.00436854
0.400155
0.000483471
0.00444666
0.400236
0.000466692
0.0045328
0.400313
0.000450837
0.00461244
0.400386
0.000435894
0.00468835
0.400457
0.000421991
0.00476956
0.400525
0.000409089
0.00484975
0.40059
0.000397076
0.00492597
0.400654
0.000385989
0.00500466
0.400716
0.000375844
0.00508503
0.400777
0.000366512
0.00516446
0.400836
0.000357895
0.00524575
0.400895
0.000349953
0.00532732
0.400952
0.000342598
0.00540402
0.401009
0.000335733
0.0054751
0.401066
0.000329313
0.00554356
0.401122
0.000323316
0.00561446
0.401178
0.000317708
0.005687
0.401233
0.000312386
0.00575284
0.401289
0.000307227
0.00581076
0.401345
0.000302358
0.00586331
0.4014
0.000297739
0.005906
0.401456
0.00029333
0.00593988
0.401512
0.000289165
0.00597353
0.401568
0.000285274
0.00601229
0.401624
0.000281622
0.00605188
0.401681
0.000278157
0.00608063
0.401737
0.000274809
0.00609754
0.401794
0.000271596
0.006115
0.401851
0.000268582
0.00613854
0.401909
0.000265751
0.00616338
0.401967
0.000263122
0.00618525
0.402025
0.000260633
0.00620265
0.402084
0.00025827
0.00621923
0.402143
0.000256072
0.00624186
0.402203
0.000253813
0.00627431
0.402262
0.000250808
0.00630713
0.402322
0.00024507
0.00632364
0.402375
0.000232163
0.00632515
0.000196114
0.00632834
0.397417
-0.000487829
0.000206059
0.397741
1.97014e-05
0.000483731
0.39807
0.000135844
0.000787521
0.398347
9.67739e-05
0.000974256
0.398601
9.44823e-05
0.00096143
0.398818
7.93529e-05
0.000830036
0.399001
5.1179e-05
0.000680267
0.39916
2.42095e-05
0.00053171
0.399302
8.14047e-07
0.0004018
0.399431
-1.89201e-05
0.000320809
0.39955
-3.51952e-05
0.00026341
0.39966
-4.8207e-05
0.000202017
0.399764
-5.79636e-05
0.000148317
0.399862
-6.48034e-05
0.000121156
0.399955
-6.93476e-05
0.000126969
0.400043
-7.20947e-05
0.000151684
0.400127
-7.34044e-05
0.000182274
0.400207
-7.35679e-05
0.000222083
0.400284
-7.29361e-05
0.000277024
0.400358
-7.18422e-05
0.000347713
0.400429
-7.03683e-05
0.000430558
0.400498
-6.84804e-05
0.000524113
0.400565
-6.62616e-05
0.000623455
0.40063
-6.39005e-05
0.000719784
0.400694
-6.14083e-05
0.000815598
0.400756
-5.86883e-05
0.000914047
0.400816
-5.57929e-05
0.00100808
0.400876
-5.27986e-05
0.00109657
0.400935
-4.96344e-05
0.00118281
0.400992
-4.6274e-05
0.00126348
0.40105
-4.28079e-05
0.00133839
0.401106
-3.92816e-05
0.00141211
0.401162
-3.57084e-05
0.00148297
0.401218
-3.21544e-05
0.00154746
0.401274
-2.86813e-05
0.0016069
0.401329
-2.53018e-05
0.00166478
0.401384
-2.19877e-05
0.00172578
0.401439
-1.87225e-05
0.00178932
0.401495
-1.55808e-05
0.00184952
0.40155
-1.26128e-05
0.00190838
0.401605
-9.73954e-06
0.00196749
0.401661
-6.96625e-06
0.00202054
0.401717
-4.32073e-06
0.00206853
0.401773
-1.75892e-06
0.0021178
0.401829
7.85956e-07
0.00217095
0.401886
3.32183e-06
0.00222416
0.401943
5.7777e-06
0.0022674
0.402
8.08865e-06
0.00230155
0.402058
1.03009e-05
0.00233801
0.402116
1.24958e-05
0.00237955
0.402175
1.46647e-05
0.00242116
0.402234
1.67994e-05
0.00245741
0.402293
1.88523e-05
0.00248803
0.402353
2.08388e-05
0.00251631
0.402413
2.28204e-05
0.00254571
0.402474
2.46793e-05
0.00258103
0.402534
2.60221e-05
0.00261556
0.402593
2.571e-05
0.0026338
0.402648
2.07825e-05
0.002634
2.13731e-06
0.00263388
0.397416
6.26266e-07
0.000192552
0.397461
1.44915e-06
0.000493227
0.397661
2.20435e-06
0.00098045
0.397861
3.08576e-06
0.00146716
0.398093
4.11833e-06
0.00173762
0.398334
5.39071e-06
0.00179823
0.398565
6.37569e-06
0.0017768
0.398782
7.06723e-06
0.00174868
0.398984
7.51755e-06
0.00173291
0.39917
8.20598e-06
0.00173643
0.399342
8.77417e-06
0.00174027
0.3995
9.09984e-06
0.00172049
0.399645
9.52597e-06
0.00167642
0.39978
1.0173e-05
0.00162477
0.399904
1.09293e-05
0.00158249
0.400019
1.17304e-05
0.0015449
0.400126
1.25236e-05
0.00150429
0.400226
1.32957e-05
0.00146769
0.40032
1.40223e-05
0.00144853
0.400408
1.4661e-05
0.00145514
0.400492
1.52335e-05
0.0014839
0.400571
1.57959e-05
0.00152994
0.400647
1.63339e-05
0.00158852
0.40072
1.67801e-05
0.00165352
0.40079
1.7174e-05
0.00172545
0.400857
1.75924e-05
0.00180193
0.400923
1.7986e-05
0.0018754
0.400986
1.83216e-05
0.0019454
0.401048
1.86894e-05
0.00201128
0.401109
1.91226e-05
0.00206738
0.401168
1.95718e-05
0.00211558
0.401227
2.00303e-05
0.00216135
0.401285
2.04944e-05
0.00220279
0.401342
2.09209e-05
0.00223806
0.401399
2.12811e-05
0.00227034
0.401455
2.15735e-05
0.00230335
0.401511
2.18452e-05
0.00234058
0.401567
2.21384e-05
0.00238062
0.401623
2.23884e-05
0.00241981
0.401678
2.25645e-05
0.00246148
0.401734
2.27277e-05
0.00250509
0.40179
2.28531e-05
0.0025438
0.401846
2.29102e-05
0.00257924
0.401903
2.2925e-05
0.00261632
0.401959
2.29693e-05
0.00265537
0.402016
2.30756e-05
0.00269225
0.402073
2.31501e-05
0.0027192
0.402131
2.31337e-05
0.00273932
0.402189
2.30798e-05
0.00276272
0.402247
2.3061e-05
0.00278965
0.402305
2.30642e-05
0.00281552
0.402364
2.30444e-05
0.00283525
0.402424
2.29711e-05
0.00285011
0.402484
2.2879e-05
0.00286282
0.402544
2.28296e-05
0.00287392
0.402604
2.28486e-05
0.00288867
0.402664
2.2949e-05
0.00290233
0.402723
2.31187e-05
0.00290111
0.402774
2.33793e-05
0.00288243
2.35405e-05
0.00286605
0.397416
0.000488977
0.000173245
0.397461
-1.71e-05
0.000452485
0.397661
-0.000131794
0.000922373
0.397862
-9.09698e-05
0.00139197
0.398093
-8.66262e-05
0.00164338
0.398334
-6.8865e-05
0.00167857
0.398565
-3.87268e-05
0.00164531
0.398782
-1.02788e-05
0.001633
0.398984
1.41381e-05
0.00164546
0.39917
3.53455e-05
0.00167185
0.399342
5.28809e-05
0.00170374
0.3995
6.66738e-05
0.00172096
0.399645
7.73491e-05
0.00170974
0.399779
8.54837e-05
0.00168079
0.399903
9.15079e-05
0.00165401
0.400019
9.58075e-05
0.00162677
0.400126
9.86491e-05
0.00159272
0.400226
0.000100309
0.00155944
0.40032
0.00010109
0.00154163
0.400408
0.000101225
0.00154916
0.400492
0.000100844
0.00157786
0.400571
0.000100033
0.00162132
0.400647
9.88617e-05
0.00167534
0.40072
9.73657e-05
0.00173649
0.40079
9.56265e-05
0.00180461
0.400857
9.37197e-05
0.00187519
0.400923
9.15979e-05
0.00194291
0.400986
8.92566e-05
0.00200888
0.401048
8.6798e-05
0.00206948
0.401109
8.42701e-05
0.00211784
0.401169
8.16702e-05
0.00215762
0.401227
7.90204e-05
0.00219463
0.401285
7.63245e-05
0.00222696
0.401342
7.35774e-05
0.00225424
0.401399
7.07955e-05
0.00228093
0.401455
6.79881e-05
0.00231106
0.401511
6.52135e-05
0.0023466
0.401567
6.25349e-05
0.00238464
0.401623
5.99022e-05
0.00242358
0.401679
5.7302e-05
0.00246789
0.401735
5.47801e-05
0.00251555
0.40179
5.22852e-05
0.00256058
0.401846
4.97981e-05
0.00260566
0.401903
4.73456e-05
0.00265492
0.401959
4.497e-05
0.00270697
0.402016
4.26999e-05
0.00275587
0.402073
4.04339e-05
0.00279585
0.402131
3.81282e-05
0.00283181
0.402188
3.58358e-05
0.00287185
0.402247
3.36151e-05
0.00291352
0.402305
3.1456e-05
0.00295242
0.402364
2.92875e-05
0.00298493
0.402423
2.7103e-05
0.00301338
0.402483
2.49516e-05
0.00303945
0.402543
2.28923e-05
0.00306181
0.402604
2.10851e-05
0.00308524
0.402664
1.99423e-05
0.00310537
0.402722
2.05756e-05
0.00311001
0.402774
2.59479e-05
0.00309688
4.48189e-05
0.00308427
0.397416
0.000921214
0.000151455
0.397741
-0.000518315
0.000378198
0.39807
-0.000774961
0.000647209
0.398346
-0.000800415
0.000809534
0.398601
-0.000864657
0.000769917
0.398818
-0.000875132
0.000592353
0.399001
-0.000853423
0.000390743
0.39916
-0.000826855
0.000248128
0.399302
-0.000797945
0.000153377
0.399431
-0.000766352
8.84716e-05
0.39955
-0.000733848
6.06626e-05
0.399661
-0.000701815
5.42842e-05
0.399765
-0.000670841
4.41554e-05
0.399863
-0.000641218
3.25268e-05
0.399956
-0.000613041
3.43471e-05
0.400044
-0.000586356
4.22978e-05
0.400128
-0.000561259
4.85564e-05
0.400208
-0.000537719
5.83708e-05
0.400285
-0.000515542
8.20621e-05
0.400359
-0.000494538
0.00012568
0.40043
-0.000474677
0.000184208
0.400499
-0.000455978
0.000251857
0.400566
-0.00043841
0.000325281
0.400631
-0.000421942
0.000402684
0.400695
-0.000406494
0.000483119
0.400757
-0.000392023
0.000561488
0.400817
-0.000378582
0.000636406
0.400877
-0.000366158
0.00071113
0.400936
-0.000354642
0.000780083
0.400993
-0.000343966
0.000835992
0.401051
-0.000334084
0.000883699
0.401107
-0.000324938
0.000929018
0.401163
-0.000316494
0.000970438
0.401219
-0.000308695
0.00100833
0.401275
-0.000301459
0.00104704
0.40133
-0.000294738
0.00109053
0.401385
-0.000288442
0.00113893
0.401441
-0.000282475
0.00118716
0.401496
-0.000276848
0.00123522
0.401551
-0.000271534
0.00128812
0.401607
-0.000266483
0.00134265
0.401662
-0.000261741
0.00139456
0.401718
-0.000257296
0.00144728
0.401774
-0.000253113
0.00150398
0.401831
-0.000249148
0.0015618
0.401887
-0.000245357
0.00161375
0.401945
-0.000241837
0.00165696
0.402002
-0.000238593
0.00169847
0.40206
-0.000235569
0.00174499
0.402118
-0.000232705
0.00179223
0.402176
-0.000229995
0.00183624
0.402235
-0.000227508
0.00187598
0.402295
-0.000225215
0.00191444
0.402355
-0.000223054
0.00195226
0.402415
-0.000220967
0.00198755
0.402475
-0.000218696
0.00202375
0.402536
-0.000215545
0.00205525
0.402595
-0.000209532
0.00207124
0.40265
-0.000196029
0.00207111
-0.000158897
0.00206917
0.396066
0.00316013
0.000185874
0.396272
4.38983e-05
0.000941798
0.396445
6.09966e-05
0.00196361
0.396752
4.96774e-05
0.00283826
0.397114
1.42503e-05
0.00340529
0.39746
6.10732e-05
0.00371448
0.397775
0.000123967
0.00391629
0.39806
0.000171438
0.00408642
0.398316
0.000205599
0.00419865
0.398548
0.000230749
0.00424547
0.398756
0.000248347
0.00426933
0.398945
0.000259559
0.00428032
0.399116
0.000265637
0.00426707
0.399272
0.000267655
0.00424192
0.399415
0.000266566
0.00422406
0.399546
0.000263115
0.0042086
0.399667
0.000257786
0.00419283
0.399778
0.000251017
0.00418356
0.399882
0.000243279
0.0041871
0.399979
0.000234956
0.00420493
0.400069
0.000226209
0.00423278
0.400155
0.000217102
0.00426789
0.400236
0.000207724
0.00430837
0.400313
0.000198146
0.00435376
0.400386
0.000188456
0.00440299
0.400457
0.000178704
0.00445163
0.400525
0.000168829
0.00450219
0.40059
0.000158824
0.00455989
0.400654
0.000148766
0.00461763
0.400716
0.00013871
0.00466761
0.400777
0.000128691
0.00471491
0.400836
0.00011873
0.00476515
0.400894
0.00010883
0.00481731
0.400952
9.90293e-05
0.00487135
0.401009
8.93834e-05
0.00492997
0.401066
7.99012e-05
0.00499635
0.401122
7.06244e-05
0.00506846
0.401178
6.16118e-05
0.00513854
0.401233
5.28406e-05
0.00520734
0.401289
4.43108e-05
0.00527961
0.401344
3.6032e-05
0.00535106
0.4014
2.79446e-05
0.00541948
0.401456
2.00424e-05
0.00548852
0.401512
1.23264e-05
0.00556066
0.401568
4.80573e-06
0.00563256
0.401624
-2.48638e-06
0.00569638
0.401681
-9.62767e-06
0.00575191
0.401738
-1.66514e-05
0.00580744
0.401795
-2.35313e-05
0.00586816
0.401852
-3.02394e-05
0.0059283
0.40191
-3.67744e-05
0.00598403
0.401968
-4.3207e-05
0.00603697
0.402027
-4.95168e-05
0.00608977
0.402086
-5.56571e-05
0.00614167
0.402145
-6.15903e-05
0.00619095
0.402205
-6.70644e-05
0.00623934
0.402265
-7.12788e-05
0.00627918
0.402325
-7.15251e-05
0.00630108
0.402378
-5.8921e-05
0.00630818
1.55805e-05
0.00631299
0.398245
0.00186768
-3.34528e-05
0.398234
-0.00137891
-1.14396e-05
0.398035
-0.00139657
0.000208111
0.398042
-0.00169975
0.000353548
0.398114
-0.00181494
0.000333698
0.398213
-0.00177096
0.000235201
0.398326
-0.00167719
0.000171635
0.398443
-0.0015761
0.000163903
0.398557
-0.0014768
0.000144364
0.398664
-0.00138234
9.24803e-05
0.398764
-0.00129463
5.42524e-05
0.398856
-0.0012143
3.94135e-05
0.398941
-0.00114123
3.41519e-05
0.399019
-0.00107494
4.58649e-05
0.39909
-0.00101476
8.31755e-05
0.399155
-0.000960091
0.000132612
0.399214
-0.00091041
0.000188238
0.399269
-0.00086521
0.000252283
0.399318
-0.000823959
0.000322887
0.399364
-0.000786185
0.000394632
0.399406
-0.000751572
0.000463233
0.399445
-0.000719875
0.000528942
0.399481
-0.000690837
0.000591483
0.399514
-0.000664229
0.00065195
0.399544
-0.000639823
0.000709747
0.399573
-0.000617427
0.000761602
0.399599
-0.00059691
0.000814182
0.399624
-0.000578136
0.00087556
0.399647
-0.000560931
0.00093851
0.399668
-0.000545144
0.00099523
0.399689
-0.00053064
0.00105087
0.399708
-0.000517303
0.00111108
0.399726
-0.000505033
0.00117557
0.399743
-0.000493716
0.00124356
0.399759
-0.000483235
0.00131602
0.399774
-0.000473513
0.00139583
0.399789
-0.00046446
0.00147989
0.399803
-0.000455992
0.00155877
0.399817
-0.000448067
0.00163406
0.39983
-0.000440638
0.00171068
0.399843
-0.000433661
0.00178419
0.399855
-0.000427128
0.00185457
0.399867
-0.000421005
0.00192584
0.399879
-0.000415258
0.00200043
0.399891
-0.000409865
0.00207504
0.399902
-0.000404782
0.00214105
0.399913
-0.000400001
0.0022003
0.399924
-0.000395516
0.00226187
0.399935
-0.000391291
0.00232999
0.399946
-0.000387288
0.00239798
0.399957
-0.000383489
0.00246194
0.399968
-0.000379915
0.00252583
0.399978
-0.000376536
0.00259187
0.399989
-0.00037331
0.00265824
0.399999
-0.000370208
0.00272401
0.40001
-0.000367061
0.00278952
0.400021
-0.000363356
0.00284474
0.400034
-0.000357057
0.0028807
0.400053
-0.000342433
0.00290313
-0.000237252
0.00292421
0.400788
0.00130503
0.400717
0.00155291
0.400704
0.00171037
0.400357
0.00181387
0.399813
0.00180539
0.399212
0.00176202
0.3986
0.00174922
0.397989
0.00175093
0.397383
0.00169483
0.396783
0.00157492
0.396193
0.00145189
0.39561
0.00134437
0.395037
0.00124624
0.394472
0.00116852
0.393915
0.0011174
0.393365
0.00107753
0.392824
0.0010438
0.392289
0.0010177
0.391762
0.000994041
0.391242
0.000964702
0.390728
0.000926865
0.39022
0.000883841
0.389719
0.000837195
0.389223
0.000789553
0.388733
0.000740948
0.388249
0.000689089
0.38777
0.000643187
0.387297
0.0006122
0.386828
0.000587717
0.386365
0.00056103
0.385906
0.000536802
0.385452
0.00052024
0.385002
0.000510705
0.384556
0.000506105
0.384115
0.000505554
0.383678
0.000511178
0.383246
0.000518621
0.382817
0.000517087
0.382391
0.000508811
0.38197
0.000498965
0.381552
0.000483117
0.381137
0.000462715
0.380726
0.000442162
0.380318
0.000423917
0.379914
0.000404575
0.379512
0.000374833
0.379114
0.000338093
0.378718
0.000304422
0.378326
0.000277537
0.377936
0.00024986
0.377549
0.000217175
0.377165
0.000185104
0.376783
0.000155618
0.376404
0.000126121
0.376027
9.62882e-05
0.375653
6.5729e-05
0.375283
2.27479e-05
0.374918
-4.09814e-05
0.374568
-0.000115476
-0.000178726
0.400785
-0.00186425
0.400705
0.00138294
0.400692
0.00139545
0.400347
0.00169795
0.399805
0.00181287
0.399204
0.00176706
0.398593
0.00167168
0.397983
0.00157055
0.397377
0.00147247
0.396778
0.0013797
0.396188
0.0012938
0.395607
0.00121516
0.395035
0.00114327
0.39447
0.00107751
0.393914
0.00101742
0.393365
0.000962516
0.392824
0.000912341
0.39229
0.000866442
0.391762
0.000824589
0.391242
0.000786585
0.390728
0.000752041
0.39022
0.000720514
0.389719
0.000691705
0.389223
0.000665447
0.388734
0.000641488
0.38825
0.000619497
0.387771
0.000599267
0.387297
0.000580668
0.386829
0.000563503
0.386365
0.000547592
0.385907
0.000532852
0.385452
0.000519207
0.385003
0.000506553
0.384557
0.000494814
0.384116
0.000483937
0.383679
0.000473852
0.383247
0.00046449
0.382817
0.000455796
0.382392
0.000447743
0.381971
0.000440304
0.381553
0.000433442
0.381138
0.000427056
0.380727
0.000421119
0.380319
0.000415584
0.379915
0.000410383
0.379513
0.000405486
0.379115
0.000400879
0.378719
0.000396562
0.378327
0.000392509
0.377937
0.000388663
0.37755
0.000385003
0.377166
0.000381484
0.376784
0.000378111
0.376405
0.000374867
0.376028
0.000371654
0.375655
0.000368362
0.375284
0.000364579
0.374919
0.000358307
0.374568
0.000343946
0.00023939
0.398245
-0.00315724
0.398235
-4.19474e-05
0.398034
-5.81877e-05
0.398039
-4.32959e-05
0.39811
-5.3412e-06
0.398209
-5.17489e-05
0.398322
-0.000113973
0.398439
-0.000159371
0.398553
-0.000190103
0.398661
-0.000211246
0.398761
-0.0002249
0.398853
-0.000232801
0.398939
-0.00023667
0.399017
-0.000237614
0.399088
-0.000236221
0.399153
-0.000232891
0.399213
-0.00022803
0.399267
-0.000221947
0.399317
-0.000214697
0.399363
-0.000206265
0.399405
-0.000196887
0.399444
-0.000186917
0.399479
-0.000176503
0.399512
-0.000165651
0.399543
-0.000154509
0.399571
-0.000143328
0.399597
-0.000132198
0.399622
-0.000121118
0.399645
-0.000110203
0.399666
-9.95485e-05
0.399686
-8.91091e-05
0.399705
-7.88505e-05
0.399723
-6.87973e-05
0.39974
-5.8935e-05
0.399756
-4.92335e-05
0.399771
-3.96965e-05
0.399786
-3.03343e-05
0.3998
-2.11411e-05
0.399813
-1.20749e-05
0.399826
-3.1069e-06
0.399839
5.73959e-06
0.399852
1.4418e-05
0.399864
2.29394e-05
0.399875
3.12733e-05
0.399887
3.93681e-05
0.399898
4.72175e-05
0.39991
5.48452e-05
0.399921
6.22881e-05
0.399932
6.95348e-05
0.399942
7.65283e-05
0.399953
8.32715e-05
0.399964
8.97246e-05
0.399974
9.59295e-05
0.399985
0.000101878
0.399995
0.000107437
0.400006
0.000112464
0.400017
0.000116338
0.400029
0.00011643
0.400047
0.000103996
3.02555e-05
0.396068
-0.000920754
0.396276
0.000518226
0.396446
0.000777943
0.39675
0.00080687
0.397111
0.000872242
0.397455
0.000881323
0.39777
0.00085862
0.398054
0.000832916
0.398311
0.000806654
0.398542
0.000778596
0.398751
0.000749889
0.39894
0.000721382
0.399111
0.000693055
0.399268
0.000665009
0.399411
0.000637633
0.399542
0.000611253
0.399663
0.000586011
0.399775
0.000561978
0.399879
0.000539392
0.399976
0.000518492
0.400067
0.000499173
0.400152
0.000481182
0.400233
0.000464448
0.400311
0.00044903
0.400384
0.000434814
0.400455
0.000421539
0.400523
0.000409125
0.400588
0.000397564
0.400652
0.000386695
0.400714
0.000376395
0.400775
0.000366692
0.400834
0.000357589
0.400893
0.000349033
0.40095
0.000341029
0.401007
0.000333595
0.401064
0.000326699
0.40112
0.000320285
0.401176
0.000314314
0.401232
0.000308818
0.401287
0.000303827
0.401343
0.000299249
0.401398
0.000295051
0.401454
0.000291214
0.40151
0.000287663
0.401566
0.000284326
0.401622
0.000281162
0.401679
0.000278206
0.401735
0.000275495
0.401792
0.000272984
0.40185
0.000270575
0.401907
0.000268259
0.401965
0.000265998
0.402024
0.000263826
0.402082
0.000261712
0.402142
0.000259498
0.402201
0.000257039
0.402261
0.000253816
0.40232
0.000247909
0.402373
0.000234733
0.000198517
0.397417
-0.000488657
0.397741
1.78379e-05
0.398069
0.000134578
0.398344
9.63841e-05
0.398597
9.36934e-05
0.398815
7.62089e-05
0.398998
4.60801e-05
0.399157
1.91745e-05
0.399299
-2.41353e-06
0.399429
-2.02613e-05
0.399548
-3.44133e-05
0.399659
-4.51603e-05
0.399763
-5.34814e-05
0.399861
-6.00133e-05
0.399954
-6.49672e-05
0.400042
-6.85366e-05
0.400126
-7.09653e-05
0.400207
-7.24555e-05
0.400284
-7.30235e-05
0.400358
-7.26648e-05
0.400429
-7.15513e-05
0.400498
-6.99194e-05
0.400565
-6.78651e-05
0.40063
-6.53555e-05
0.400693
-6.24984e-05
0.400755
-5.94919e-05
0.400816
-5.63687e-05
0.400876
-5.31248e-05
0.400934
-4.98964e-05
0.400992
-4.67635e-05
0.401049
-4.36692e-05
0.401106
-4.05965e-05
0.401162
-3.75649e-05
0.401217
-3.45325e-05
0.401273
-3.14542e-05
0.401328
-2.83354e-05
0.401384
-2.52205e-05
0.401439
-2.21382e-05
0.401494
-1.903e-05
0.401549
-1.58649e-05
0.401605
-1.26745e-05
0.40166
-9.48321e-06
0.401716
-6.28106e-06
0.401772
-3.11866e-06
0.401829
-6.546e-08
0.401885
2.86584e-06
0.401942
5.73238e-06
0.402
8.59425e-06
0.402057
1.14059e-05
0.402115
1.40877e-05
0.402174
1.66526e-05
0.402233
1.91085e-05
0.402292
2.14981e-05
0.402352
2.37937e-05
0.402412
2.5884e-05
0.402473
2.76902e-05
0.402533
2.89324e-05
0.402592
2.85622e-05
0.402647
2.35534e-05
4.88015e-06
0.397416
-3.50119e-07
0.397463
-3.91662e-07
0.397662
-3.99453e-08
0.39786
5.5276e-07
0.39809
1.29199e-06
0.39833
1.94097e-06
0.398562
2.911e-06
0.398779
4.56492e-06
0.398981
6.35654e-06
0.399167
7.88532e-06
0.399339
9.44882e-06
0.399497
1.11312e-05
0.399643
1.25321e-05
0.399777
1.35118e-05
0.399901
1.41996e-05
0.400016
1.46791e-05
0.400124
1.50092e-05
0.400224
1.52289e-05
0.400318
1.53989e-05
0.400407
1.55714e-05
0.400491
1.57373e-05
0.40057
1.58627e-05
0.400646
1.59683e-05
0.400719
1.61348e-05
0.400789
1.63355e-05
0.400856
1.64952e-05
0.400922
1.66761e-05
0.400985
1.69192e-05
0.401047
1.71313e-05
0.401108
1.72809e-05
0.401167
1.74265e-05
0.401226
1.75788e-05
0.401284
1.77375e-05
0.401341
1.79438e-05
0.401398
1.82265e-05
0.401454
1.85812e-05
0.40151
1.89521e-05
0.401566
1.9291e-05
0.401622
1.96574e-05
0.401677
2.00751e-05
0.401733
2.05065e-05
0.401789
2.09693e-05
0.401845
2.148e-05
0.401902
2.20023e-05
0.401958
2.2458e-05
0.402015
2.28376e-05
0.402072
2.32042e-05
0.40213
2.36213e-05
0.402187
2.40319e-05
0.402246
2.43634e-05
0.402304
2.46317e-05
0.402363
2.48842e-05
0.402423
2.51528e-05
0.402482
2.54091e-05
0.402543
2.56027e-05
0.402603
2.57359e-05
0.402663
2.5851e-05
0.402721
2.60371e-05
0.402773
2.63318e-05
2.64684e-05
0.397417
0.00048793
0.397463
-1.86473e-05
0.397662
-0.000134756
0.39786
-9.53304e-05
0.39809
-9.11153e-05
0.398331
-7.22629e-05
0.398562
-4.0005e-05
0.398779
-9.85637e-06
0.398981
1.53284e-05
0.399168
3.61972e-05
0.39934
5.34024e-05
0.399497
6.73776e-05
0.399643
7.83916e-05
0.399777
8.6843e-05
0.399901
9.31468e-05
0.400016
9.76601e-05
0.400124
0.000100749
0.400224
0.000102674
0.400318
0.000103574
0.400407
0.000103553
0.400491
0.00010277
0.40057
0.000101386
0.400646
9.95329e-05
0.400719
9.73506e-05
0.400789
9.48958e-05
0.400856
9.22076e-05
0.400922
8.94385e-05
0.400985
8.66772e-05
0.401047
8.38858e-05
0.401108
8.10739e-05
0.401167
7.82954e-05
0.401226
7.55639e-05
0.401284
7.28998e-05
0.401341
7.0329e-05
0.401398
6.78487e-05
0.401454
6.54525e-05
0.40151
6.30815e-05
0.401566
6.06745e-05
0.401622
5.82845e-05
0.401678
5.5926e-05
0.401734
5.35701e-05
0.40179
5.12706e-05
0.401846
4.90404e-05
0.401902
4.68445e-05
0.401958
4.46478e-05
0.402015
4.24268e-05
0.402072
4.02487e-05
0.40213
3.81751e-05
0.402187
3.61501e-05
0.402246
3.41143e-05
0.402304
3.20811e-05
0.402363
3.01261e-05
0.402422
2.82616e-05
0.402482
2.64626e-05
0.402542
2.47484e-05
0.402603
2.31983e-05
0.402663
2.2166e-05
0.402721
2.28642e-05
0.402773
2.8369e-05
4.72394e-05
0.397417
0.000920279
0.397741
-0.000518643
0.398069
-0.000778078
0.398344
-0.000805947
0.398597
-0.000870015
0.398815
-0.000878133
0.398998
-0.000853878
0.399158
-0.000825038
0.3993
-0.000795532
0.39943
-0.000764873
0.399549
-0.00073354
0.39966
-0.000702225
0.399764
-0.000671434
0.399862
-0.000641501
0.399955
-0.000612752
0.400043
-0.000585404
0.400127
-0.000559485
0.400208
-0.000535053
0.400285
-0.000512248
0.400359
-0.000491155
0.40043
-0.000471669
0.400499
-0.000453626
0.400566
-0.00043691
0.400631
-0.000421396
0.400694
-0.000407007
0.400756
-0.000393648
0.400817
-0.000381129
0.400877
-0.000369323
0.400935
-0.000358219
0.400993
-0.000347779
0.40105
-0.000337947
0.401107
-0.000328679
0.401163
-0.000319913
0.401219
-0.000311621
0.401274
-0.000303808
0.40133
-0.000296448
0.401385
-0.000289562
0.40144
-0.000283187
0.401495
-0.000277256
0.401551
-0.000271735
0.401606
-0.000266614
0.401662
-0.000261802
0.401718
-0.000257271
0.401774
-0.000253017
0.40183
-0.000249027
0.401887
-0.000245318
0.401944
-0.000241823
0.402001
-0.000238475
0.402059
-0.000235302
0.402117
-0.000232333
0.402176
-0.000229553
0.402235
-0.000226865
0.402294
-0.000224264
0.402354
-0.000221762
0.402414
-0.000219282
0.402475
-0.000216674
0.402535
-0.00021336
0.402594
-0.000207269
0.402649
-0.000193587
-0.000156505
0.396069
0.00315623
0.396277
4.25031e-05
0.396448
5.96837e-05
0.396751
4.68212e-05
0.397112
1.12291e-05
0.397456
6.00675e-05
0.397771
0.000125408
0.398055
0.000174551
0.398312
0.000208721
0.398543
0.000232592
0.398752
0.000248679
0.398941
0.000258747
0.399112
0.000264344
0.399268
0.000266587
0.399411
0.00026611
0.399542
0.000263431
0.399663
0.000259059
0.399775
0.000253311
0.399879
0.000246304
0.399976
0.000238133
0.400067
0.000229047
0.400152
0.000219315
0.400233
0.000209121
0.400311
0.00019862
0.400384
0.000187913
0.400455
0.000177107
0.400523
0.000166381
0.400588
0.000155829
0.400652
0.000145461
0.400714
0.000135296
0.400775
0.00012535
0.400834
0.000115633
0.400893
0.000106171
0.40095
9.69416e-05
0.401007
8.78915e-05
0.401064
7.90099e-05
0.40112
7.0259e-05
0.401176
6.15898e-05
0.401232
5.30335e-05
0.401287
4.45944e-05
0.401343
3.62716e-05
0.401399
2.81311e-05
0.401454
2.01768e-05
0.40151
1.2399e-05
0.401566
4.79973e-06
0.401623
-2.63962e-06
0.401679
-9.86829e-06
0.401736
-1.6874e-05
0.401793
-2.36926e-05
0.401851
-3.03538e-05
0.401909
-3.68609e-05
0.401967
-4.31429e-05
0.402026
-4.92159e-05
0.402085
-5.50953e-05
0.402144
-6.06981e-05
0.402204
-6.5866e-05
0.402264
-6.99249e-05
0.402323
-7.01061e-05
0.402377
-5.73235e-05
1.75001e-05
0.398246
0.00186271
0.398236
-0.00138428
0.398036
-0.00139748
0.398041
-0.00170051
0.398113
-0.00181582
0.398212
-0.00177068
0.398326
-0.00167548
0.398443
-0.00157367
0.398557
-0.00147462
0.398664
-0.00138105
0.398764
-0.00129432
0.398856
-0.00121474
0.398941
-0.00114198
0.399019
-0.00107552
0.39909
-0.00101493
0.399155
-0.000959746
0.399215
-0.000909461
0.399269
-0.000863644
0.399319
-0.000821979
0.399365
-0.000784165
0.399407
-0.000749823
0.399445
-0.000718568
0.399481
-0.000690079
0.399514
-0.000664066
0.399545
-0.000640286
0.399573
-0.000618512
0.399599
-0.000598491
0.399624
-0.000580007
0.399647
-0.000562921
0.399668
-0.000547115