/*--------------------------------*- C++ -*----------------------------------*\
  =========                 |
  \\      /  F ield         | OpenFOAM: The Open Source CFD Toolbox
   \\    /   O peration     | Website:  https://openfoam.org
    \\  /    A nd           | Version:  8
     \\/     M anipulation  |
\*---------------------------------------------------------------------------*/
FoamFile
{
    version     2.0;
    format      ascii;
    class       volScalarField;
    location    "900";
    object      nut;
}
// * * * * * * * * * * * * * * * * * * * * * * * * * * * * * * * * * * * * * //

dimensions      [0 2 -1 0 0 0 0];

internalField   nonuniform List<scalar> 
8400
(
0.000127049
0.000125409
0.000123782
0.000122167
0.000120562
0.000118968
0.000117383
0.000115807
0.000114241
0.000112685
0.000111141
0.000109608
0.000108088
0.000106581
0.000105089
0.000103612
0.000102151
0.000100706
9.92774e-05
9.78667e-05
9.64742e-05
9.51005e-05
9.37465e-05
9.24129e-05
9.11002e-05
8.98091e-05
8.85402e-05
8.72944e-05
8.60726e-05
8.48758e-05
8.37048e-05
8.25609e-05
8.14447e-05
8.03572e-05
7.92994e-05
7.82722e-05
7.72766e-05
7.63138e-05
7.53849e-05
7.44912e-05
7.36342e-05
7.28153e-05
7.20359e-05
7.12973e-05
7.06011e-05
6.9949e-05
6.93429e-05
6.87847e-05
6.82762e-05
6.78187e-05
6.12249e-05
6.12333e-05
6.12419e-05
6.12509e-05
6.12599e-05
6.12689e-05
6.12778e-05
6.12865e-05
6.1295e-05
6.13034e-05
6.13117e-05
6.132e-05
6.13285e-05
6.13373e-05
6.13466e-05
6.13565e-05
6.13667e-05
6.13774e-05
6.13885e-05
6.13999e-05
6.1412e-05
6.14249e-05
6.14387e-05
6.14534e-05
6.14688e-05
6.14849e-05
6.15018e-05
6.15196e-05
6.15388e-05
6.15596e-05
6.15823e-05
6.1607e-05
6.1634e-05
6.16633e-05
6.1695e-05
6.17294e-05
6.17669e-05
6.1808e-05
6.18533e-05
6.19039e-05
6.19606e-05
6.20246e-05
6.2097e-05
6.21792e-05
6.22732e-05
6.23817e-05
6.25076e-05
6.26547e-05
6.28269e-05
6.30281e-05
6.02864e-05
6.03038e-05
6.03213e-05
6.03388e-05
6.0356e-05
6.0373e-05
6.03896e-05
6.04057e-05
6.04215e-05
6.0437e-05
6.04521e-05
6.04672e-05
6.04822e-05
6.04974e-05
6.05127e-05
6.05283e-05
6.05441e-05
6.056e-05
6.05761e-05
6.05925e-05
6.06092e-05
6.06264e-05
6.06441e-05
6.06622e-05
6.06806e-05
6.06994e-05
6.07188e-05
6.07391e-05
6.07603e-05
6.0783e-05
6.08071e-05
6.08328e-05
6.08603e-05
6.08896e-05
6.0921e-05
6.09548e-05
6.09915e-05
6.10317e-05
6.10762e-05
6.11259e-05
6.11817e-05
6.12448e-05
6.13167e-05
6.13998e-05
6.14972e-05
6.16123e-05
6.17498e-05
6.19152e-05
6.21154e-05
6.23579e-05
5.97607e-05
5.9781e-05
5.98013e-05
5.98215e-05
5.98414e-05
5.98609e-05
5.98799e-05
5.98984e-05
5.99167e-05
5.99346e-05
5.99523e-05
5.997e-05
5.99876e-05
6.00053e-05
6.00232e-05
6.00413e-05
6.00595e-05
6.0078e-05
6.00966e-05
6.01155e-05
6.01347e-05
6.0154e-05
6.01736e-05
6.01933e-05
6.02133e-05
6.02336e-05
6.02544e-05
6.0276e-05
6.02986e-05
6.03221e-05
6.03468e-05
6.03727e-05
6.03997e-05
6.04279e-05
6.04578e-05
6.04897e-05
6.0524e-05
6.05614e-05
6.06021e-05
6.06468e-05
6.06962e-05
6.07516e-05
6.08149e-05
6.08891e-05
6.09773e-05
6.10836e-05
6.12137e-05
6.13755e-05
6.15795e-05
6.1838e-05
5.93808e-05
5.94067e-05
5.94325e-05
5.94578e-05
5.94824e-05
5.95064e-05
5.95297e-05
5.95525e-05
5.95749e-05
5.9597e-05
5.96188e-05
5.96405e-05
5.96621e-05
5.96838e-05
5.97055e-05
5.97276e-05
5.97498e-05
5.97724e-05
5.97953e-05
5.98184e-05
5.98416e-05
5.98647e-05
5.98877e-05
5.99109e-05
5.99343e-05
5.99583e-05
5.9983e-05
6.00084e-05
6.00346e-05
6.00616e-05
6.00893e-05
6.01177e-05
6.01468e-05
6.01768e-05
6.02081e-05
6.02411e-05
6.02761e-05
6.0313e-05
6.03517e-05
6.03924e-05
6.04359e-05
6.04837e-05
6.05377e-05
6.05999e-05
6.06729e-05
6.0761e-05
6.0871e-05
6.10133e-05
6.12032e-05
6.14599e-05
5.90087e-05
5.90445e-05
5.90801e-05
5.91147e-05
5.91482e-05
5.91804e-05
5.92117e-05
5.92421e-05
5.9272e-05
5.93013e-05
5.93301e-05
5.93586e-05
5.93868e-05
5.9415e-05
5.94432e-05
5.94718e-05
5.95008e-05
5.95303e-05
5.95601e-05
5.959e-05
5.96197e-05
5.96492e-05
5.96785e-05
5.97081e-05
5.97384e-05
5.97694e-05
5.98013e-05
5.9834e-05
5.98673e-05
5.99012e-05
5.99355e-05
5.99702e-05
6.00054e-05
6.00414e-05
6.00789e-05
6.01177e-05
6.01576e-05
6.01978e-05
6.02382e-05
6.02791e-05
6.03216e-05
6.03668e-05
6.04153e-05
6.0468e-05
6.05266e-05
6.05953e-05
6.06818e-05
6.07978e-05
6.09634e-05
6.12055e-05
5.85728e-05
5.86129e-05
5.86551e-05
5.86981e-05
5.87413e-05
5.87842e-05
5.88267e-05
5.88686e-05
5.891e-05
5.89508e-05
5.89911e-05
5.90308e-05
5.907e-05
5.91091e-05
5.91483e-05
5.9188e-05
5.92283e-05
5.92693e-05
5.93106e-05
5.93516e-05
5.93921e-05
5.94321e-05
5.94721e-05
5.95127e-05
5.95541e-05
5.95965e-05
5.96398e-05
5.96836e-05
5.9728e-05
5.97727e-05
5.98174e-05
5.98622e-05
5.99076e-05
5.99542e-05
6.00022e-05
6.00506e-05
6.00983e-05
6.01449e-05
6.01909e-05
6.02375e-05
6.02849e-05
6.03328e-05
6.03805e-05
6.04283e-05
6.04781e-05
6.05331e-05
6.06012e-05
6.0694e-05
6.08327e-05
6.10542e-05
5.83876e-05
5.83656e-05
5.83551e-05
5.83578e-05
5.83722e-05
5.83964e-05
5.84282e-05
5.84659e-05
5.8508e-05
5.85534e-05
5.86011e-05
5.86504e-05
5.87008e-05
5.87522e-05
5.8805e-05
5.88594e-05
5.89155e-05
5.89729e-05
5.90306e-05
5.90878e-05
5.91442e-05
5.91998e-05
5.92555e-05
5.93118e-05
5.93692e-05
5.94274e-05
5.94861e-05
5.9545e-05
5.96037e-05
5.96619e-05
5.97197e-05
5.97778e-05
5.98371e-05
5.98979e-05
5.99585e-05
6.00165e-05
6.00713e-05
6.0125e-05
6.01798e-05
6.02353e-05
6.02893e-05
6.03403e-05
6.03877e-05
6.04342e-05
6.04816e-05
6.05315e-05
6.05891e-05
6.0667e-05
6.07844e-05
6.09927e-05
5.93563e-05
5.91843e-05
5.9023e-05
5.8884e-05
5.87697e-05
5.86798e-05
5.86125e-05
5.85654e-05
5.85371e-05
5.85252e-05
5.85272e-05
5.8539e-05
5.85586e-05
5.85852e-05
5.86197e-05
5.86639e-05
5.87183e-05
5.87813e-05
5.88496e-05
5.89193e-05
5.89876e-05
5.90544e-05
5.91213e-05
5.919e-05
5.92612e-05
5.93335e-05
5.94051e-05
5.94748e-05
5.95422e-05
5.96078e-05
5.96737e-05
5.97433e-05
5.98182e-05
5.98942e-05
5.99637e-05
6.0023e-05
6.0078e-05
6.01381e-05
6.02044e-05
6.02687e-05
6.03245e-05
6.03733e-05
6.0418e-05
6.04655e-05
6.0514e-05
6.05626e-05
6.06139e-05
6.06844e-05
6.07932e-05
6.10129e-05
6.09454e-05
6.07829e-05
6.0624e-05
6.04656e-05
6.03102e-05
6.01566e-05
6.00057e-05
5.98606e-05
5.97333e-05
5.96281e-05
5.95472e-05
5.94736e-05
5.93899e-05
5.92934e-05
5.91976e-05
5.91237e-05
5.90905e-05
5.91028e-05
5.91491e-05
5.92077e-05
5.92591e-05
5.9297e-05
5.93314e-05
5.93774e-05
5.94399e-05
5.95099e-05
5.95748e-05
5.96279e-05
5.96693e-05
5.9705e-05
5.97487e-05
5.98154e-05
5.99045e-05
5.99933e-05
6.00574e-05
6.00977e-05
6.01396e-05
6.02024e-05
6.02764e-05
6.03395e-05
6.03856e-05
6.04289e-05
6.04698e-05
6.05182e-05
6.0564e-05
6.06098e-05
6.06551e-05
6.07251e-05
6.08492e-05
6.10843e-05
6.1427e-05
6.13505e-05
6.12786e-05
6.12108e-05
6.11447e-05
6.10782e-05
6.10112e-05
6.0945e-05
6.08821e-05
6.08236e-05
6.07671e-05
6.07097e-05
6.06482e-05
6.05816e-05
6.05118e-05
6.04426e-05
6.0378e-05
6.03208e-05
6.02711e-05
6.02274e-05
6.01867e-05
6.01474e-05
6.01111e-05
6.00817e-05
6.00616e-05
6.00503e-05
6.00447e-05
6.00416e-05
6.00406e-05
6.00446e-05
6.00598e-05
6.00902e-05
6.01321e-05
6.01755e-05
6.02131e-05
6.02481e-05
6.02888e-05
6.03374e-05
6.03863e-05
6.04288e-05
6.04678e-05
6.05074e-05
6.05477e-05
6.05889e-05
6.06272e-05
6.06679e-05
6.07128e-05
6.07949e-05
6.09502e-05
6.12452e-05
6.1464e-05
6.14263e-05
6.1389e-05
6.13521e-05
6.13153e-05
6.12782e-05
6.12409e-05
6.12043e-05
6.1168e-05
6.11326e-05
6.10976e-05
6.10625e-05
6.10268e-05
6.09902e-05
6.0953e-05
6.09158e-05
6.0879e-05
6.08431e-05
6.08082e-05
6.07741e-05
6.07406e-05
6.07079e-05
6.06771e-05
6.06487e-05
6.06226e-05
6.05977e-05
6.05732e-05
6.05494e-05
6.05281e-05
6.05114e-05
6.05001e-05
6.04935e-05
6.04899e-05
6.04887e-05
6.04912e-05
6.04992e-05
6.05134e-05
6.05317e-05
6.05508e-05
6.05704e-05
6.05937e-05
6.06215e-05
6.06502e-05
6.0679e-05
6.0707e-05
6.07408e-05
6.07912e-05
6.09e-05
6.11172e-05
6.15317e-05
6.14754e-05
6.14502e-05
6.1425e-05
6.14e-05
6.13748e-05
6.13497e-05
6.13246e-05
6.12999e-05
6.12756e-05
6.12515e-05
6.12275e-05
6.12033e-05
6.11788e-05
6.11539e-05
6.11286e-05
6.11033e-05
6.10781e-05
6.10532e-05
6.10284e-05
6.10037e-05
6.09792e-05
6.09553e-05
6.09326e-05
6.0911e-05
6.08897e-05
6.08677e-05
6.08451e-05
6.08231e-05
6.08033e-05
6.0786e-05
6.07705e-05
6.07554e-05
6.07409e-05
6.07283e-05
6.07192e-05
6.07138e-05
6.07113e-05
6.07103e-05
6.07112e-05
6.07158e-05
6.07257e-05
6.07397e-05
6.07554e-05
6.07725e-05
6.07938e-05
6.08264e-05
6.08952e-05
6.10652e-05
6.1411e-05
6.20429e-05
6.14822e-05
6.1464e-05
6.14455e-05
6.1427e-05
6.14084e-05
6.13898e-05
6.13714e-05
6.13531e-05
6.1335e-05
6.13169e-05
6.12987e-05
6.12802e-05
6.12615e-05
6.12425e-05
6.12233e-05
6.1204e-05
6.11848e-05
6.11656e-05
6.11464e-05
6.11269e-05
6.11076e-05
6.10889e-05
6.1071e-05
6.10534e-05
6.10352e-05
6.1016e-05
6.09966e-05
6.09783e-05
6.09616e-05
6.09461e-05
6.09303e-05
6.09139e-05
6.0898e-05
6.08841e-05
6.08726e-05
6.08627e-05
6.08538e-05
6.08457e-05
6.08398e-05
6.08377e-05
6.08393e-05
6.08433e-05
6.085e-05
6.08617e-05
6.08825e-05
6.09255e-05
6.10482e-05
6.13738e-05
6.19858e-05
6.29976e-05
6.14846e-05
6.14688e-05
6.14529e-05
6.14369e-05
6.14212e-05
6.14057e-05
6.13905e-05
6.13754e-05
6.13602e-05
6.13449e-05
6.13294e-05
6.13138e-05
6.1298e-05
6.12822e-05
6.12664e-05
6.12508e-05
6.12352e-05
6.12196e-05
6.12038e-05
6.1188e-05
6.11723e-05
6.11572e-05
6.11426e-05
6.11278e-05
6.11122e-05
6.10961e-05
6.10805e-05
6.10663e-05
6.1053e-05
6.10397e-05
6.10256e-05
6.10114e-05
6.09983e-05
6.09867e-05
6.09761e-05
6.09658e-05
6.09559e-05
6.09469e-05
6.09397e-05
6.09349e-05
6.09323e-05
6.09323e-05
6.0938e-05
6.09525e-05
6.09804e-05
6.10663e-05
6.1349e-05
6.20634e-05
6.32004e-05
6.48491e-05
6.14883e-05
6.14765e-05
6.14644e-05
6.14524e-05
6.14405e-05
6.14288e-05
6.14173e-05
6.14056e-05
6.13937e-05
6.13816e-05
6.13693e-05
6.13569e-05
6.13445e-05
6.13321e-05
6.13199e-05
6.13077e-05
6.12956e-05
6.12833e-05
6.12707e-05
6.12581e-05
6.12456e-05
6.12333e-05
6.1221e-05
6.12083e-05
6.1195e-05
6.11817e-05
6.1169e-05
6.11568e-05
6.11447e-05
6.11319e-05
6.11184e-05
6.11051e-05
6.10924e-05
6.10801e-05
6.10677e-05
6.10553e-05
6.10432e-05
6.10324e-05
6.10234e-05
6.1017e-05
6.10142e-05
6.10184e-05
6.10338e-05
6.10631e-05
6.11119e-05
6.137e-05
6.21335e-05
6.38262e-05
6.59223e-05
6.84215e-05
6.14876e-05
6.14748e-05
6.1462e-05
6.14496e-05
6.14374e-05
6.14255e-05
6.14137e-05
6.14016e-05
6.13892e-05
6.13765e-05
6.13638e-05
6.13511e-05
6.13386e-05
6.13263e-05
6.13143e-05
6.13024e-05
6.12906e-05
6.12786e-05
6.12663e-05
6.1254e-05
6.12419e-05
6.12299e-05
6.12179e-05
6.12057e-05
6.11933e-05
6.11814e-05
6.11701e-05
6.11592e-05
6.11483e-05
6.11372e-05
6.11264e-05
6.11166e-05
6.1108e-05
6.11002e-05
6.10933e-05
6.10881e-05
6.10854e-05
6.10859e-05
6.10905e-05
6.11009e-05
6.11192e-05
6.11487e-05
6.11931e-05
6.12556e-05
6.13428e-05
6.24305e-05
6.46676e-05
6.8736e-05
7.20125e-05
7.48064e-05
6.1492e-05
6.14842e-05
6.14765e-05
6.14692e-05
6.14621e-05
6.14551e-05
6.14479e-05
6.14406e-05
6.1433e-05
6.14253e-05
6.14175e-05
6.14098e-05
6.14022e-05
6.13946e-05
6.13872e-05
6.138e-05
6.13728e-05
6.13656e-05
6.13584e-05
6.13515e-05
6.13448e-05
6.13384e-05
6.13323e-05
6.13263e-05
6.13207e-05
6.13157e-05
6.13111e-05
6.1307e-05
6.13032e-05
6.13001e-05
6.1298e-05
6.12972e-05
6.12978e-05
6.12998e-05
6.1304e-05
6.13113e-05
6.13227e-05
6.13392e-05
6.13623e-05
6.1394e-05
6.14372e-05
6.14946e-05
6.15697e-05
6.16654e-05
6.17886e-05
6.82676e-05
7.4609e-05
8.26488e-05
8.41317e-05
8.34015e-05
6.15552e-05
6.16094e-05
6.16618e-05
6.17127e-05
6.17619e-05
6.18092e-05
6.18545e-05
6.18976e-05
6.19386e-05
6.19777e-05
6.20153e-05
6.20505e-05
6.20795e-05
6.20983e-05
6.21102e-05
6.21198e-05
6.21277e-05
6.21374e-05
6.21544e-05
6.21847e-05
6.22292e-05
6.2286e-05
6.23528e-05
6.24268e-05
6.25048e-05
6.25833e-05
6.26587e-05
6.2728e-05
6.27889e-05
6.28399e-05
6.28802e-05
6.29095e-05
6.29282e-05
6.29373e-05
6.2939e-05
6.29353e-05
6.29275e-05
6.29164e-05
6.29054e-05
6.28963e-05
6.289e-05
6.28876e-05
6.28913e-05
6.29123e-05
6.2989e-05
0.000148725
0.00012028
0.000110905
9.56412e-05
8.07073e-05
0.000246217
0.00024423
0.000241799
0.000239275
0.000236734
0.000234187
0.000231632
0.000229065
0.000226488
0.000223907
0.000221333
0.000218777
0.000216248
0.000213758
0.000211316
0.000208932
0.00020661
0.000204347
0.000202143
0.000199996
0.000197901
0.000195862
0.000193888
0.000191983
0.000190144
0.000188362
0.000186627
0.000184937
0.000183289
0.000181687
0.000180136
0.000178645
0.000177228
0.000175903
0.000174696
0.000173637
0.000172773
0.000172164
0.000171888
0.000172053
0.000172812
0.000174375
0.000177031
0.000181206
0.000187495
0.000196898
0.000207603
0.000206659
0.000199587
0.000197641
0.000272578
0.00026921
0.000265992
0.000262912
0.000259946
0.000257077
0.000254288
0.000251574
0.000248931
0.000246357
0.000243849
0.000241405
0.000239023
0.000236701
0.000234438
0.000232231
0.000230079
0.000227981
0.000225934
0.000223937
0.00022199
0.000220089
0.000218234
0.000216424
0.000214657
0.000212932
0.000211247
0.000209603
0.000207998
0.00020643
0.0002049
0.000203406
0.000201946
0.000200521
0.00019913
0.00019777
0.000196443
0.000195146
0.000193879
0.00019264
0.00019142
0.000190218
0.000189033
0.000187863
0.000186703
0.000185551
0.0001844
0.000183239
0.000182048
0.00018079
0.000270618
0.000264408
0.000258495
0.000252844
0.000247442
0.000242275
0.000237338
0.000232616
0.000228093
0.000223758
0.000219599
0.000215605
0.000211767
0.000208075
0.000204523
0.000201101
0.000197804
0.000194623
0.000191554
0.000188591
0.000185728
0.00018296
0.000180282
0.00017769
0.000175181
0.00017275
0.000170394
0.00016811
0.000165895
0.000163744
0.000161657
0.000159629
0.000157657
0.000155739
0.000153872
0.000152051
0.000150274
0.000148537
0.000146839
0.000145178
0.000143561
0.000141983
0.000140444
0.000138941
0.000137472
0.000136037
0.000134632
0.000133257
0.000131908
0.000130581
0.000270611
0.000264381
0.000258427
0.000252738
0.000247293
0.000242078
0.000237078
0.000232281
0.000227673
0.000223243
0.000218981
0.000214878
0.000210924
0.000207112
0.000203435
0.000199886
0.000196457
0.000193144
0.00018994
0.000186841
0.000183841
0.000180936
0.000178122
0.000175394
0.000172749
0.000170183
0.000167693
0.000165276
0.000162929
0.00016065
0.000158435
0.000156283
0.000154189
0.000152153
0.000150172
0.000148244
0.000146366
0.000144537
0.000142755
0.000141018
0.000139324
0.000137672
0.00013606
0.000134488
0.000132954
0.000131457
0.000129998
0.000128574
0.000127187
0.000125839
0.000270611
0.000264427
0.000258527
0.000252889
0.000247491
0.000242315
0.000237347
0.000232573
0.000227983
0.000223566
0.000219312
0.000215213
0.00021126
0.000207447
0.000203766
0.00020021
0.000196774
0.000193452
0.000190239
0.000187128
0.000184117
0.0001812
0.000178373
0.000175632
0.000172974
0.000170395
0.000167891
0.000165461
0.0001631
0.000160807
0.000158578
0.000156412
0.000154306
0.000152257
0.000150262
0.000148321
0.00014643
0.000144588
0.000142793
0.000141043
0.000139337
0.000137672
0.000136048
0.000134463
0.000132918
0.00013141
0.000129939
0.000128505
0.000127105
0.000125741
0.000270611
0.000264428
0.000258526
0.000252881
0.000247474
0.000242288
0.00023731
0.000232528
0.000227931
0.000223509
0.000219252
0.000215151
0.000211198
0.000207385
0.000203705
0.000200152
0.00019672
0.000193401
0.000190192
0.000187086
0.00018408
0.000181168
0.000178346
0.00017561
0.000172957
0.000170382
0.000167884
0.000165458
0.000163102
0.000160813
0.000158588
0.000156426
0.000154323
0.000152277
0.000150286
0.000148348
0.00014646
0.00014462
0.000142827
0.000141079
0.000139374
0.00013771
0.000136087
0.000134503
0.000132957
0.000131449
0.000129978
0.000128542
0.000127141
0.000125774
0.000270611
0.000264432
0.000258537
0.000252901
0.000247505
0.000242331
0.000237366
0.000232596
0.00022801
0.000223597
0.000219349
0.000215255
0.000211309
0.000207502
0.000203826
0.000200277
0.000196847
0.00019353
0.000190322
0.000187217
0.000184211
0.000181299
0.000178477
0.00017574
0.000173086
0.000170511
0.000168011
0.000165583
0.000163225
0.000160934
0.000158707
0.000156543
0.000154437
0.000152388
0.000150394
0.000148452
0.000146561
0.000144718
0.000142921
0.000141169
0.00013946
0.000137793
0.000136165
0.000134576
0.000133026
0.000131512
0.000130034
0.000128593
0.000127185
0.00012581
0.000270612
0.000264433
0.000258539
0.000252905
0.000247509
0.000242334
0.000237366
0.000232593
0.000228004
0.000223588
0.000219336
0.000215239
0.00021129
0.000207479
0.000203801
0.00020025
0.000196818
0.0001935
0.00019029
0.000187185
0.000184178
0.000181266
0.000178444
0.000175708
0.000173054
0.000170479
0.00016798
0.000165553
0.000163196
0.000160906
0.000158681
0.000156517
0.000154412
0.000152364
0.00015037
0.000148429
0.000146538
0.000144695
0.000142899
0.000141147
0.000139438
0.00013777
0.000136142
0.000134553
0.000133002
0.000131487
0.000130008
0.000128564
0.000127154
0.000125776
0.000270612
0.000264433
0.000258541
0.000252908
0.000247514
0.000242342
0.000237377
0.000232607
0.00022802
0.000223607
0.000219359
0.000215265
0.000211318
0.00020751
0.000203835
0.000200286
0.000196856
0.00019354
0.000190332
0.000187228
0.000184223
0.000181312
0.000178491
0.000175756
0.000173103
0.000170529
0.00016803
0.000165603
0.000163246
0.000160955
0.000158729
0.000156564
0.000154457
0.000152408
0.000150412
0.000148469
0.000146576
0.000144731
0.000142932
0.000141178
0.000139466
0.000137795
0.000136164
0.000134571
0.000133016
0.000131497
0.000130013
0.000128564
0.000127148
0.000125764
0.000270612
0.000264434
0.000258542
0.00025291
0.000247516
0.000242344
0.000237379
0.000232609
0.000228022
0.000223608
0.000219358
0.000215263
0.000211315
0.000207506
0.00020383
0.000200279
0.000196847
0.00019353
0.000190322
0.000187217
0.00018421
0.000181299
0.000178477
0.000175742
0.000173088
0.000170514
0.000168015
0.000165588
0.000163231
0.00016094
0.000158713
0.000156547
0.00015444
0.00015239
0.000150393
0.000148449
0.000146555
0.000144709
0.00014291
0.000141154
0.000139441
0.000137769
0.000136137
0.000134542
0.000132985
0.000131464
0.000129978
0.000128526
0.000127106
0.000125719
0.000270612
0.000264434
0.000258542
0.000252911
0.000247517
0.000242345
0.000237381
0.000232611
0.000228025
0.000223612
0.000219362
0.000215268
0.00021132
0.000207512
0.000203836
0.000200285
0.000196854
0.000193538
0.00019033
0.000187225
0.00018422
0.000181309
0.000178488
0.000175753
0.0001731
0.000170526
0.000168028
0.000165601
0.000163243
0.000160952
0.000158724
0.000156558
0.00015445
0.000152398
0.000150401
0.000148456
0.00014656
0.000144713
0.000142911
0.000141154
0.000139439
0.000137764
0.00013613
0.000134533
0.000132972
0.000131448
0.000129958
0.000128502
0.000127078
0.000125685
0.000270612
0.000264434
0.000258543
0.000252911
0.000247518
0.000242346
0.000237381
0.000232611
0.000228025
0.000223611
0.000219362
0.000215267
0.000211319
0.000207511
0.000203835
0.000200284
0.000196853
0.000193537
0.000190328
0.000187224
0.000184219
0.000181308
0.000178487
0.000175752
0.0001731
0.000170526
0.000168027
0.0001656
0.000163242
0.00016095
0.000158722
0.000156554
0.000154445
0.000152393
0.000150394
0.000148448
0.000146551
0.000144702
0.000142899
0.000141139
0.000139423
0.000137746
0.000136109
0.00013451
0.000132947
0.000131419
0.000129926
0.000128466
0.000127038
0.000125641
0.000270612
0.000264434
0.000258543
0.000252911
0.000247517
0.000242345
0.000237379
0.000232609
0.000228022
0.000223608
0.000219358
0.000215262
0.000211313
0.000207504
0.000203827
0.000200275
0.000196844
0.000193526
0.000190318
0.000187213
0.000184207
0.000181296
0.000178475
0.00017574
0.000173087
0.000170513
0.000168014
0.000165586
0.000163228
0.000160935
0.000158706
0.000156538
0.000154428
0.000152375
0.000150375
0.000148428
0.00014653
0.00014468
0.000142876
0.000141115
0.000139397
0.000137719
0.000136081
0.000134479
0.000132914
0.000131384
0.000129888
0.000128425
0.000126994
0.000125593
0.000270612
0.000264435
0.000258542
0.00025291
0.000247515
0.000242343
0.000237377
0.000232607
0.00022802
0.000223607
0.000219357
0.000215262
0.000211315
0.000207506
0.00020383
0.00020028
0.00019685
0.000193533
0.000190326
0.000187222
0.000184217
0.000181307
0.000178487
0.000175752
0.0001731
0.000170526
0.000168027
0.000165599
0.00016324
0.000160947
0.000158717
0.000156548
0.000154437
0.000152382
0.000150381
0.000148432
0.000146532
0.00014468
0.000142874
0.000141111
0.000139391
0.00013771
0.000136069
0.000134464
0.000132896
0.000131363
0.000129863
0.000128395
0.000126959
0.000125552
0.000270612
0.000264434
0.000258541
0.000252907
0.00024751
0.000242335
0.000237367
0.000232594
0.000228004
0.000223587
0.000219334
0.000215236
0.000211285
0.000207474
0.000203795
0.000200242
0.000196809
0.000193491
0.000190282
0.000187176
0.00018417
0.000181259
0.000178438
0.000175703
0.000173051
0.000170476
0.000167977
0.000165549
0.000163189
0.000160896
0.000158666
0.000156496
0.000154385
0.000152331
0.000150329
0.00014838
0.00014648
0.000144628
0.000142821
0.000141058
0.000139337
0.000137656
0.000136014
0.000134409
0.00013284
0.000131305
0.000129803
0.000128333
0.000126894
0.000125485
0.000270612
0.000264434
0.000258539
0.000252904
0.000247508
0.000242333
0.000237367
0.000232596
0.000228009
0.000223596
0.000219346
0.000215252
0.000211304
0.000207495
0.000203818
0.000200267
0.000196836
0.000193519
0.000190311
0.000187207
0.000184201
0.00018129
0.000178469
0.000175734
0.00017308
0.000170505
0.000168004
0.000165575
0.000163214
0.000160919
0.000158686
0.000156515
0.000154402
0.000152344
0.000150341
0.000148389
0.000146486
0.000144631
0.000142821
0.000141055
0.00013933
0.000137646
0.000136001
0.000134392
0.000132818
0.000131279
0.000129773
0.000128297
0.000126852
0.000125436
0.000270612
0.000264431
0.000258529
0.000252884
0.000247477
0.00024229
0.000237312
0.000232529
0.000227931
0.000223508
0.000219249
0.000215146
0.000211192
0.000207377
0.000203696
0.000200142
0.000196708
0.000193389
0.000190179
0.000187074
0.000184069
0.000181158
0.000178338
0.000175603
0.000172951
0.000170376
0.000167877
0.000165449
0.00016309
0.000160796
0.000158565
0.000156395
0.000154284
0.000152228
0.000150226
0.000148275
0.000146374
0.00014452
0.000142711
0.000140946
0.000139223
0.00013754
0.000135895
0.000134287
0.000132714
0.000131175
0.000129668
0.000128192
0.000126746
0.000125327
0.000270612
0.00026443
0.000258531
0.000252893
0.000247494
0.000242318
0.000237349
0.000232574
0.000227983
0.000223564
0.000219309
0.000215208
0.000211253
0.000207438
0.000203755
0.000200198
0.00019676
0.000193438
0.000190224
0.000187114
0.000184104
0.000181188
0.000178363
0.000175623
0.000172966
0.000170386
0.000167882
0.000165449
0.000163084
0.000160786
0.000158551
0.000156376
0.00015426
0.0001522
0.000150193
0.000148239
0.000146334
0.000144476
0.000142665
0.000140897
0.000139171
0.000137485
0.000135839
0.000134229
0.000132655
0.000131115
0.000129609
0.000128134
0.000126691
0.000125278
0.000270612
0.000264385
0.000258432
0.000252742
0.000247296
0.00024208
0.000237079
0.00023228
0.000227671
0.00022324
0.000218976
0.000214871
0.000210915
0.000207102
0.000203423
0.000199872
0.000196442
0.000193128
0.000189925
0.000186827
0.000183829
0.000180926
0.000178114
0.000175389
0.000172745
0.000170181
0.000167692
0.000165274
0.000162926
0.000160644
0.000158425
0.000156268
0.000154169
0.000152127
0.00015014
0.000148205
0.000146321
0.000144485
0.000142697
0.000140954
0.000139254
0.000137598
0.000135982
0.000134408
0.000132873
0.000131378
0.000129923
0.000128509
0.00012714
0.00012582
0.000270621
0.000264415
0.000258503
0.00025285
0.000247445
0.000242275
0.000237335
0.00023261
0.000228085
0.000223748
0.000219587
0.000215592
0.000211753
0.000208061
0.000204508
0.000201087
0.00019779
0.000194613
0.000191548
0.00018859
0.000185733
0.000182973
0.000180304
0.000177721
0.000175222
0.000172801
0.000170456
0.000168183
0.000165979
0.000163841
0.000161768
0.000159756
0.000157804
0.00015591
0.000154072
0.000152288
0.000150557
0.000148878
0.000147249
0.000145671
0.000144141
0.000142662
0.000141232
0.000139853
0.000138527
0.000137256
0.000136047
0.000134908
0.000133857
0.000132929
0.000272572
0.000269213
0.000266001
0.000262919
0.000259951
0.000257081
0.000254289
0.000251572
0.000248926
0.000246349
0.000243838
0.000241392
0.000239008
0.000236684
0.00023442
0.000232212
0.000230059
0.000227961
0.000225914
0.000223917
0.000221969
0.000220068
0.000218212
0.0002164
0.00021463
0.000212902
0.000211214
0.000209564
0.000207952
0.000206376
0.000204835
0.000203328
0.000201854
0.000200411
0.000198999
0.000197616
0.000196262
0.000194934
0.000193632
0.000192355
0.000191101
0.000189869
0.000188658
0.000187467
0.000186293
0.000185135
0.000183991
0.000182858
0.000181734
0.000180613
0.000163811
9.97497e-05
0.00011011
0.000127409
0.000137613
0.00013895
0.000132935
0.000122605
0.000111231
0.000101115
9.32999e-05
8.7985e-05
8.28742e-05
7.86313e-05
7.591e-05
7.34396e-05
6.86833e-05
6.09481e-05
6.76704e-05
0.000256364
0.000162479
9.95935e-05
0.000110727
0.000128238
0.000138415
0.000139587
0.000133358
0.000122846
0.000111368
0.000101208
9.33781e-05
8.80467e-05
8.25171e-05
7.80137e-05
7.52788e-05
7.31382e-05
6.90424e-05
6.17327e-05
6.75151e-05
0.00025549
0.000161111
9.94631e-05
0.000111359
0.000129081
0.000139229
0.000140236
0.000133793
0.000123103
0.000111526
0.000101326
9.34828e-05
8.81602e-05
8.26637e-05
7.79119e-05
7.49991e-05
7.29371e-05
6.91447e-05
6.2094e-05
6.76255e-05
0.000256129
0.000159782
9.93407e-05
0.000112007
0.000129938
0.000140057
0.000140897
0.000134242
0.000123378
0.000111706
0.000101467
9.36098e-05
8.82909e-05
8.27871e-05
7.7831e-05
7.47249e-05
7.27175e-05
6.9214e-05
6.24329e-05
6.775e-05
0.000256871
0.000158453
9.9232e-05
0.000112671
0.000130811
0.000140899
0.000141572
0.000134706
0.000123672
0.000111911
0.000101633
9.37587e-05
8.84484e-05
8.29057e-05
7.7773e-05
7.44605e-05
7.24815e-05
6.92532e-05
6.27554e-05
6.78855e-05
0.000257531
0.000157126
9.91386e-05
0.000113351
0.0001317
0.000141757
0.000142263
0.000135187
0.000123987
0.000112139
0.000101821
9.39268e-05
8.86257e-05
8.30219e-05
7.77336e-05
7.42094e-05
7.22328e-05
6.92644e-05
6.30617e-05
6.80308e-05
0.000258135
0.000155804
9.90601e-05
0.000114049
0.000132606
0.000142633
0.000142971
0.000135686
0.000124323
0.00011239
0.000102029
9.41112e-05
8.8827e-05
8.31575e-05
7.7708e-05
7.39691e-05
7.19723e-05
6.92473e-05
6.33491e-05
6.81849e-05
0.000258723
0.000154486
9.89959e-05
0.000114764
0.000133531
0.000143527
0.000143697
0.000136204
0.00012468
0.000112665
0.000102253
9.43047e-05
8.90216e-05
8.32988e-05
7.76951e-05
7.37383e-05
7.17007e-05
6.92021e-05
6.36149e-05
6.83464e-05
0.000259317
0.000153174
9.89458e-05
0.000115497
0.000134476
0.000144441
0.000144443
0.000136742
0.00012506
0.00011296
0.000102492
9.45056e-05
8.92401e-05
8.34455e-05
7.76912e-05
7.35169e-05
7.14187e-05
6.9129e-05
6.38572e-05
6.85137e-05
0.000259922
0.000151867
9.89094e-05
0.000116248
0.00013544
0.000145377
0.000145209
0.000137301
0.000125462
0.000113275
0.00010274
9.46992e-05
8.94525e-05
8.35997e-05
7.76947e-05
7.33048e-05
7.11273e-05
6.90283e-05
6.40744e-05
6.86846e-05
0.000260538
0.000150565
9.88865e-05
0.000117017
0.000136426
0.000146335
0.000145999
0.000137883
0.000125887
0.000113609
0.000102993
9.48851e-05
8.96544e-05
8.37575e-05
7.77052e-05
7.31015e-05
7.0828e-05
6.89005e-05
6.42651e-05
6.88573e-05
0.000261165
0.000149269
9.8877e-05
0.000117805
0.000137433
0.000147316
0.000146813
0.00013849
0.000126334
0.00011396
0.000103244
9.50496e-05
8.98432e-05
8.39155e-05
7.77231e-05
7.2907e-05
7.05219e-05
6.8746e-05
6.44281e-05
6.90298e-05
0.000261804
0.000147977
9.88808e-05
0.000118612
0.000138462
0.000148323
0.000147652
0.000139123
0.000126806
0.000114325
0.000103489
9.51837e-05
9.00105e-05
8.40684e-05
7.77476e-05
7.2721e-05
7.021e-05
6.85656e-05
6.45619e-05
6.92004e-05
0.000262462
0.000146692
9.88981e-05
0.000119437
0.000139514
0.000149356
0.000148519
0.000139782
0.000127302
0.000114704
0.000103721
9.52738e-05
9.01426e-05
8.421e-05
7.77761e-05
7.25429e-05
6.98933e-05
6.83602e-05
6.46653e-05
6.93671e-05
0.000263144
0.000145411
9.89292e-05
0.00012028
0.000140588
0.000150415
0.000149415
0.000140471
0.000127825
0.000115094
0.000103933
9.53057e-05
9.02195e-05
8.43309e-05
7.78047e-05
7.23715e-05
6.95723e-05
6.81306e-05
6.47375e-05
6.95285e-05
0.000263858
0.000144136
9.89742e-05
0.00012114
0.000141683
0.000151501
0.000150341
0.000141193
0.000128375
0.000115496
0.000104118
9.52618e-05
9.02244e-05
8.44194e-05
7.7828e-05
7.22048e-05
6.92472e-05
6.78777e-05
6.47777e-05
6.96828e-05
0.000264613
0.000142867
9.90337e-05
0.000122016
0.0001428
0.000152614
0.0001513
0.000141949
0.000128956
0.000115908
0.000104269
9.51231e-05
9.01389e-05
8.44613e-05
7.78393e-05
7.20399e-05
6.8918e-05
6.76023e-05
6.47852e-05
6.98285e-05
0.000265418
0.000141603
9.91087e-05
0.000122906
0.000143936
0.000153754
0.000152293
0.000142743
0.00012957
0.000116332
0.000104379
9.48682e-05
8.99428e-05
8.44401e-05
7.78295e-05
7.18729e-05
6.85841e-05
6.73054e-05
6.47597e-05
6.99642e-05
0.000266284
0.000140345
9.91995e-05
0.000123807
0.000145089
0.000154921
0.000153323
0.000143579
0.000130223
0.000116768
0.000104442
9.44734e-05
8.96131e-05
8.43375e-05
7.77882e-05
7.1699e-05
6.82446e-05
6.69879e-05
6.47011e-05
7.00884e-05
0.000267221
0.000139093
9.9307e-05
0.000124718
0.000146256
0.000156113
0.00015439
0.000144462
0.000130919
0.000117218
0.000104452
9.39121e-05
8.91258e-05
8.41358e-05
7.77045e-05
7.15124e-05
6.78978e-05
6.66506e-05
6.46095e-05
7.01999e-05
0.000268239
0.000137848
9.94317e-05
0.000125633
0.000147435
0.000157331
0.000155498
0.000145398
0.000131664
0.000117686
0.000104403
9.31556e-05
8.84572e-05
8.38204e-05
7.75678e-05
7.13063e-05
6.75414e-05
6.62942e-05
6.44854e-05
7.02975e-05
0.000269351
0.000136608
9.95742e-05
0.000126551
0.000148621
0.000158571
0.000156648
0.000146391
0.000132465
0.000118174
0.00010429
9.21746e-05
8.75853e-05
8.33785e-05
7.73681e-05
7.10731e-05
6.71722e-05
6.59194e-05
6.43293e-05
7.03802e-05
0.000270573
0.000135374
9.97348e-05
0.000127464
0.00014981
0.000159833
0.000157842
0.000147447
0.000133328
0.000118687
0.000104112
9.09402e-05
8.64873e-05
8.27986e-05
7.70959e-05
7.08041e-05
6.67863e-05
6.55267e-05
6.41419e-05
7.04469e-05
0.000271919
0.000134147
9.99135e-05
0.000128369
0.000150997
0.000161114
0.000159083