/*--------------------------------*- C++ -*----------------------------------*\
  =========                 |
  \\      /  F ield         | OpenFOAM: The Open Source CFD Toolbox
   \\    /   O peration     | Website:  https://openfoam.org
    \\  /    A nd           | Version:  8
     \\/     M anipulation  |
\*---------------------------------------------------------------------------*/
FoamFile
{
    version     2.0;
    format      ascii;
    class       volScalarField;
    location    "900";
    object      p;
}
// * * * * * * * * * * * * * * * * * * * * * * * * * * * * * * * * * * * * * //

dimensions      [1 -1 -2 0 0 0 0];

internalField   nonuniform List<scalar> 
8400
(
43615.7
86277.2
129069
170004
208890
245574
280043
312387
342770
371405
398525
424365
449148
473091
496423
519411
542368
565655
589669
614845
641659
670635
702345
737411
776516
820440
870082
926466
990727
1.06411e+06
1.14795e+06
1.24374e+06
1.35312e+06
1.47791e+06
1.62012e+06
1.78194e+06
1.9657e+06
2.17379e+06
2.40869e+06
2.67283e+06
2.96854e+06
3.29788e+06
3.66241e+06
4.0629e+06
4.49877e+06
4.96686e+06
5.46017e+06
5.971e+06
6.50022e+06
7.04979e+06
43479.2
86373.6
129590
170898
210040
246851
281327
313579
343795
372207
399065
424611
449071
472666
495630
518234
540791
563657
587218
611902
638172
666536
697542
731791
769954
812806
861236
916245
978931
1.05049e+06
1.13224e+06
1.22563e+06
1.33228e+06
1.45399e+06
1.59274e+06
1.75065e+06
1.92995e+06
2.13294e+06
2.36199e+06
2.61945e+06
2.90758e+06
3.22836e+06
3.5833e+06
3.9731e+06
4.39718e+06
4.85258e+06
5.333e+06
5.83079e+06
6.34379e+06
6.87244e+06
44841.1
89105.5
133344
175352
214909
251880
286305
318342
348221
376214
402599
427639
451574
474639
497077
519160
541191
563511
586492
610541
636106
663671
693760
726953
763907
805376
852216
905382
965928
1.03502e+06
1.11395e+06
1.20416e+06
1.30726e+06
1.42503e+06
1.55936e+06
1.7123e+06
1.88597e+06
2.08261e+06
2.30452e+06
2.55399e+06
2.83326e+06
3.14426e+06
3.48852e+06
3.86678e+06
4.2786e+06
4.72152e+06
5.19026e+06
5.67785e+06
6.18015e+06
6.69464e+06
44110.6
89661.3
135148
178100
218217
255391
289727
321455
350866
378283
404020
428367
451585
473920
495621
516952
538204
559696
581780
604838
629288
655587
684235
715791
750886
790234
834639
884999
942321
1.00774e+06
1.08253e+06
1.16812e+06
1.26609e+06
1.37815e+06
1.50609e+06
1.65186e+06
1.81749e+06
2.00516e+06
2.2171e+06
2.45558e+06
2.72275e+06
3.02054e+06
3.35048e+06
3.71345e+06
4.10933e+06
4.53634e+06
4.99034e+06
5.46527e+06
5.95626e+06
6.45951e+06
45867.7
93985.4
141213
185219
225823
263047
297119
328372
357179
383917
408935
432548
455032
476641
497622
518231
538742
559456
580695
602812
626198
651282
678544
708515
741790
779034
820998
868529
922599
984320
1.05495e+06
1.1359e+06
1.22868e+06
1.33491e+06
1.45631e+06
1.59472e+06
1.75214e+06
1.93067e+06
2.1325e+06
2.35981e+06
2.61469e+06
2.89904e+06
3.2144e+06
3.56181e+06
3.94148e+06
4.35232e+06
4.79128e+06
5.25321e+06
5.73279e+06
6.22518e+06
45324.9
95780
144776
189835
230847
268008
301709
332408
360558
386586
410870
433737
455472
476332
496561
516408
536129
556000
576317
597407
619634
643409
669186
697465
728801
763817
803221
847830
898595
956612
1.02312e+06
1.09946e+06
1.1871e+06
1.28759e+06
1.40257e+06
1.53385e+06
1.68338e+06
1.85321e+06
2.04545e+06
2.26219e+06
2.50551e+06
2.7773e+06
3.07919e+06
3.41229e+06
3.77715e+06
4.17334e+06
4.5988e+06
5.04942e+06
5.51973e+06
6.00389e+06
47073.1
100980
151906
197787
238881
275684
308798
338806
366232
391530
415088
437236
458261
478422
497959
517108
536109
555215
574701
594874
616083
638716
663199
690000
719639
752706
789883
831966
879887
934710
997630
1.06995e+06
1.15305e+06
1.24844e+06
1.35775e+06
1.48274e+06
1.62532e+06
1.78746e+06
1.97119e+06
2.17856e+06
2.41165e+06
2.67245e+06
2.96272e+06
3.28353e+06
3.63562e+06
4.01914e+06
4.43298e+06
4.87402e+06
5.33693e+06
5.81477e+06
46918.3
104158
156764
203157
244078
280386
312892
342276
369098
393820
416825
438442
458959
478630
497692
516366
534875
553453
572358
591885
612362
634152
657653
683304
711599
743107
778498
818554
864180
916409
976396
1.0454e+06
1.12479e+06
1.21605e+06
1.3208e+06
1.44077e+06
1.57782e+06
1.73386e+06
1.91085e+06
2.11084e+06
2.3359e+06
2.58824e+06
2.86992e+06
3.18181e+06
3.52463e+06
3.89887e+06
4.30425e+06
4.73855e+06
5.19675e+06
5.67082e+06
48937.8
110229
163622
209787
250073
285656
317468
346222
372470
396657
419156
440289
460340
479561
498181
516407
534449
552528
570896
589836
609663
630723
653396
678109
705349
735686
769785
808420
852476
902961
961010
1.02787e+06
1.10491e+06
1.19359e+06
1.29553e+06
1.41243e+06
1.54609e+06
1.69836e+06
1.87117e+06
2.06651e+06
2.28644e+06
2.53324e+06
2.80947e+06
3.11621e+06
3.45393e+06
3.82312e+06
4.22401e+06
4.6551e+06
5.11176e+06
5.58483e+06
48826.8
112471
165612
211514
251532
286863
318452
347004
373063
397066
419384
440340
460220
479280
497746
515828
533734
551685
569934
588761
608475
629417
651961
676528
703606
733763
767659
806056
849825
899957
957579
1.02395e+06
1.10043e+06
1.18851e+06
1.28979e+06
1.40596e+06
1.5388e+06
1.69014e+06
1.8619e+06
2.05601e+06
2.2744e+06
2.51886e+06
2.79159e+06
3.09505e+06
3.43002e+06
3.79685e+06
4.19611e+06
4.62706e+06
5.08583e+06
5.56293e+06
45790.6
109210
164029
210564
250967
286670
318592
347425
373719
397926
420427
441556
461607
480840
499480
517732
535799
553905
572304
591280
611143
632228
654907
679603
706808
737100
771147
809716
853683
904058
961996
1.02879e+06
1.10585e+06
1.19472e+06
1.29702e+06
1.4145e+06
1.54893e+06
1.70219e+06
1.87618e+06
2.07283e+06
2.29398e+06
2.54145e+06
2.81724e+06
3.12377e+06
3.46173e+06
3.83171e+06
4.23462e+06
4.67014e+06
5.1346e+06
5.61786e+06
20075.9
88566.9
148792
197375
238766
275419
308261
337890
364868
389674
412709
434321
454819
474476
493536
512221
530750
549356
568291
587833
608290
630002
653358
678807
706876
738174
773404
813371
859014
911419
971820
1.04159e+06
1.12221e+06
1.21528e+06
1.32251e+06
1.44569e+06
1.58667e+06
1.74736e+06
1.92969e+06
2.13547e+06
2.36642e+06
2.62413e+06
2.9101e+06
3.22567e+06
3.5716e+06
3.94868e+06
4.35793e+06
4.79888e+06
5.26717e+06
5.7511e+06
25557.4
84785.3
146869
197872
240446
278157
312213
343062
371177
397027
421010
443472
464735
485103
504863
524279
543605
563090
582988
603572
625148
648068
672743
699655
729357
762481
799753
842025
890303
945767
1.00974e+06
1.08369e+06
1.16919e+06
1.26797e+06
1.38189e+06
1.51295e+06
1.66324e+06
1.83487e+06
2.02986e+06
2.25001e+06
2.49685e+06
2.77152e+06
3.0746e+06
3.40611e+06
3.76582e+06
4.15386e+06
4.57067e+06
5.01511e+06
5.48159e+06
5.95625e+06
-22289.6
42047.2
107994
160605
203963
242573
277915
310299
340052
367575
393227
417320
440168
462098
483435
504492
525554
546883
568730
591354
615056
640190
667179
696520
728784
764632
804846
850377
902386
962235
1.03144e+06
1.11167e+06
1.20473e+06
1.31264e+06
1.43765e+06
1.58213e+06
1.74852e+06
1.93918e+06
2.15627e+06
2.40154e+06
2.67613e+06
2.98024e+06
3.31277e+06
3.67144e+06
4.05333e+06
4.45598e+06
4.87776e+06
5.31757e+06
5.77116e+06
6.22335e+06
15950.7
61648.9
127030
182317
226638
265593
301415
334419
364823
392980
419210
443793
467026
489253
510851
532193
553625
575451
597947
621387
646075
672370
700696
731547
765498
803233
845611
893730
948947
1.01284e+06
1.08713e+06
1.17373e+06
1.27478e+06
1.39273e+06
1.5303e+06
1.69037e+06
1.87588e+06
2.08971e+06
2.33444e+06
2.61212e+06
2.92369e+06
3.26841e+06
3.64305e+06
4.04146e+06
4.45411e+06
4.86965e+06
5.27915e+06
5.68729e+06
6.10519e+06
6.52275e+06
-74270.8
-9041.28
63076.7
119026
163422
203138
240577
275875
309079
340423
370109
398296
425180
451043
476233
501122
526063
551366
577308
604166
632244
661900
693564
727738
765022
806174
852196
904403
964410
1.03407e+06
1.11542e+06
1.21079e+06
1.32287e+06
1.45475e+06
1.60981e+06
1.79163e+06
2.00394e+06
2.25042e+06
2.53446e+06
2.85868e+06
3.22425e+06
3.62978e+06
4.06974e+06
4.53142e+06
4.99061e+06
5.41075e+06
5.75779e+06
6.0601e+06
6.38685e+06
6.75738e+06
13440.3
50238.9
115504
167924
207665
243099
277061
309619
340781
370755
399691
427667
454788
481258
507373
533472
559882
586872
614653
643400
673288
704518
737351
772150
809456
850084
895197
946322
1.0053e+06
1.07423e+06
1.15549e+06
1.25186e+06
1.36665e+06
1.50365e+06
1.66709e+06
1.86174e+06
2.09295e+06
2.36664e+06
2.68896e+06
3.06576e+06
3.50144e+06
3.99642e+06
4.54272e+06
5.11623e+06
5.66511e+06
6.09532e+06
6.29135e+06
6.34228e+06
6.46433e+06
6.74477e+06
-134404
-33389.8
52733.5
105898
145958
182654
217843
251613
284212
316001
347238
378063
408571
438906
469330
500191
531817
564459
598307
633491
670060
708026
747448
788525
831724
877920
928461
985132
1.05007e+06
1.12578e+06
1.2152e+06
1.32185e+06
1.44995e+06
1.60435e+06
1.79072e+06
2.01564e+06
2.28669e+06
2.61228e+06
3.00114e+06
3.46138e+06
3.99841e+06
4.61084e+06
5.28401e+06
5.98006e+06
6.62368e+06
7.05663e+06
6.97744e+06
6.60936e+06
6.4222e+06
6.53581e+06
18031.3
60768.2
96965.7
126415
156199
187922
220105
251429
281559
310789
339596
368399
397485
427054
457379
488859
521835
556456
592746
630656
670017
710577
752173
794829
838850
884985
934530
989309
1.05161e+06
1.12416e+06
1.21019e+06
1.31356e+06
1.43883e+06
1.59138e+06
1.7776e+06
2.00506e+06
2.28252e+06
2.6196e+06
3.02635e+06
3.51198e+06
4.08215e+06
4.73409e+06
5.44863e+06
6.17811e+06
6.8316e+06
7.24503e+06
7.19113e+06
6.79872e+06
6.54732e+06
6.50614e+06
72407.7
125373
142800
159111
180680
207374
236856
266900
296362
325080
353413
381871
410927
440973
472395
505641
541034
578567
618026
659134
701555
745010
789521
835431
883279
933821
988191
1.04806e+06
1.11565e+06
1.19365e+06
1.28519e+06
1.39388e+06
1.52388e+06
1.68e+06
1.86781e+06
2.09373e+06
2.36489e+06
2.68887e+06
3.07334e+06
3.52494e+06
4.04708e+06
4.63653e+06
5.27802e+06
5.936e+06
6.54409e+06
6.97809e+06
7.01498e+06
6.80638e+06
6.68601e+06
6.70102e+06
8.14577e+06
8.14526e+06
8.14501e+06
8.14491e+06
8.14485e+06
8.1448e+06
8.14477e+06
8.14474e+06
8.14471e+06
8.14468e+06
8.14464e+06
8.14461e+06
8.14458e+06
8.14455e+06
8.14451e+06
8.14448e+06
8.14445e+06
8.14441e+06
8.14438e+06
8.14435e+06
8.14432e+06
8.14429e+06
8.14426e+06
8.14423e+06
8.1442e+06
8.14417e+06
8.14415e+06
8.14412e+06
8.1441e+06
8.14408e+06
8.14406e+06
8.14404e+06
8.14402e+06
8.144e+06
8.14398e+06
8.14395e+06
8.14392e+06
8.14389e+06
8.14385e+06
8.14381e+06
8.14377e+06
8.14373e+06
8.14368e+06
8.14364e+06
8.14359e+06
8.14353e+06
8.14347e+06
8.1434e+06
8.14332e+06
8.14321e+06
8.14408e+06
8.14436e+06
8.14446e+06
8.14449e+06
8.14451e+06
8.14452e+06
8.14453e+06
8.14452e+06
8.14451e+06
8.1445e+06
8.14448e+06
8.14445e+06
8.14443e+06
8.1444e+06
8.14437e+06
8.14434e+06
8.14432e+06
8.14429e+06
8.14426e+06
8.14423e+06
8.1442e+06
8.14417e+06
8.14414e+06
8.14411e+06
8.14409e+06
8.14406e+06
8.14404e+06
8.14401e+06
8.14399e+06
8.14397e+06
8.14395e+06
8.14393e+06
8.14391e+06
8.14389e+06
8.14387e+06
8.14385e+06
8.14382e+06
8.14379e+06
8.14375e+06
8.14371e+06
8.14367e+06
8.14363e+06
8.14358e+06
8.14354e+06
8.14349e+06
8.14344e+06
8.14338e+06
8.14332e+06
8.14324e+06
8.14316e+06
8.14444e+06
8.14457e+06
8.14464e+06
8.14465e+06
8.14463e+06
8.14461e+06
8.14459e+06
8.14457e+06
8.14454e+06
8.14451e+06
8.14447e+06
8.14444e+06
8.14441e+06
8.14437e+06
8.14434e+06
8.1443e+06
8.14427e+06
8.14423e+06
8.1442e+06
8.14417e+06
8.14414e+06
8.1441e+06
8.14407e+06
8.14404e+06
8.14401e+06
8.14399e+06
8.14396e+06
8.14394e+06
8.14391e+06
8.14389e+06
8.14387e+06
8.14385e+06
8.14383e+06
8.14381e+06
8.14379e+06
8.14376e+06
8.14374e+06
8.1437e+06
8.14367e+06
8.14363e+06
8.14359e+06
8.14355e+06
8.14351e+06
8.14346e+06
8.14342e+06
8.14337e+06
8.14332e+06
8.14326e+06
8.1432e+06
8.14313e+06
8.14436e+06
8.14439e+06
8.1444e+06
8.14439e+06
8.14438e+06
8.14437e+06
8.14436e+06
8.14434e+06
8.14432e+06
8.1443e+06
8.14428e+06
8.14426e+06
8.14423e+06
8.1442e+06
8.14417e+06
8.14414e+06
8.14411e+06
8.14408e+06
8.14405e+06
8.14403e+06
8.144e+06
8.14397e+06
8.14394e+06
8.14391e+06
8.14389e+06
8.14386e+06
8.14384e+06
8.14381e+06
8.14379e+06
8.14377e+06
8.14375e+06
8.14374e+06
8.14372e+06
8.1437e+06
8.14368e+06
8.14365e+06
8.14363e+06
8.1436e+06
8.14356e+06
8.14353e+06
8.14349e+06
8.14345e+06
8.14341e+06
8.14337e+06
8.14333e+06
8.14328e+06
8.14324e+06
8.14319e+06
8.14314e+06
8.14309e+06
8.1443e+06
8.14431e+06
8.14433e+06
8.14434e+06
8.14435e+06
8.14434e+06
8.14434e+06
8.14432e+06
8.14431e+06
8.14428e+06
8.14426e+06
8.14423e+06
8.1442e+06
8.14417e+06
8.14413e+06
8.1441e+06
8.14407e+06
8.14404e+06
8.144e+06
8.14397e+06
8.14394e+06
8.14391e+06
8.14388e+06
8.14385e+06
8.14382e+06
8.1438e+06
8.14377e+06
8.14375e+06
8.14372e+06
8.1437e+06
8.14368e+06
8.14366e+06
8.14364e+06
8.14362e+06
8.1436e+06
8.14358e+06
8.14355e+06
8.14352e+06
8.14349e+06
8.14345e+06
8.14342e+06
8.14338e+06
8.14334e+06
8.14331e+06
8.14327e+06
8.14323e+06
8.14319e+06
8.14315e+06
8.14311e+06
8.14307e+06
8.14421e+06
8.14422e+06
8.14422e+06
8.14422e+06
8.14422e+06
8.14421e+06
8.1442e+06
8.14418e+06
8.14416e+06
8.14414e+06
8.14411e+06
8.14408e+06
8.14405e+06
8.14402e+06
8.14399e+06
8.14396e+06
8.14393e+06
8.1439e+06
8.14387e+06
8.14384e+06
8.14381e+06
8.14378e+06
8.14375e+06
8.14372e+06
8.1437e+06
8.14367e+06
8.14365e+06
8.14362e+06
8.1436e+06
8.14358e+06
8.14356e+06
8.14354e+06
8.14353e+06
8.14351e+06
8.14349e+06
8.14346e+06
8.14344e+06
8.14341e+06
8.14338e+06
8.14335e+06
8.14332e+06
8.14329e+06
8.14325e+06
8.14322e+06
8.14319e+06
8.14316e+06
8.14312e+06
8.14309e+06
8.14306e+06
8.14303e+06
8.14412e+06
8.14412e+06
8.14413e+06
8.14413e+06
8.14413e+06
8.14412e+06
8.14411e+06
8.1441e+06
8.14408e+06
8.14406e+06
8.14404e+06
8.14401e+06
8.14398e+06
8.14395e+06
8.14392e+06
8.14389e+06
8.14386e+06
8.14383e+06
8.1438e+06
8.14377e+06
8.14374e+06
8.14371e+06
8.14368e+06
8.14365e+06
8.14363e+06
8.1436e+06
8.14357e+06
8.14355e+06
8.14353e+06
8.14351e+06
8.14349e+06
8.14347e+06
8.14345e+06
8.14343e+06
8.14341e+06
8.14339e+06
8.14336e+06
8.14334e+06
8.14331e+06
8.14328e+06
8.14325e+06
8.14322e+06
8.14319e+06
8.14316e+06
8.14313e+06
8.14311e+06
8.14308e+06
8.14306e+06
8.14303e+06
8.14301e+06
8.14402e+06
8.14403e+06
8.14403e+06
8.14403e+06
8.14402e+06
8.14402e+06
8.14401e+06
8.14399e+06
8.14397e+06
8.14395e+06
8.14393e+06
8.1439e+06
8.14387e+06
8.14384e+06
8.14381e+06
8.14377e+06
8.14374e+06
8.14371e+06
8.14368e+06
8.14365e+06
8.14362e+06
8.1436e+06
8.14357e+06
8.14354e+06
8.14351e+06
8.14349e+06
8.14346e+06
8.14344e+06
8.14341e+06
8.14339e+06
8.14337e+06
8.14336e+06
8.14334e+06
8.14332e+06
8.1433e+06
8.14328e+06
8.14326e+06
8.14324e+06
8.14321e+06
8.14319e+06
8.14316e+06
8.14313e+06
8.14311e+06
8.14308e+06
8.14306e+06
8.14304e+06
8.14302e+06
8.143e+06
8.14299e+06
8.14297e+06
8.14393e+06
8.14393e+06
8.14393e+06
8.14393e+06
8.14393e+06
8.14392e+06
8.14391e+06
8.1439e+06
8.14388e+06
8.14386e+06
8.14383e+06
8.14381e+06
8.14378e+06
8.14375e+06
8.14372e+06
8.14369e+06
8.14366e+06
8.14363e+06
8.1436e+06
8.14357e+06
8.14354e+06
8.14351e+06
8.14349e+06
8.14346e+06
8.14343e+06
8.1434e+06
8.14338e+06
8.14335e+06
8.14333e+06
8.14331e+06
8.14329e+06
8.14327e+06
8.14325e+06
8.14323e+06
8.14322e+06
8.1432e+06
8.14318e+06
8.14316e+06
8.14314e+06
8.14311e+06
8.14309e+06
8.14307e+06
8.14304e+06
8.14302e+06
8.14301e+06
8.14299e+06
8.14298e+06
8.14297e+06
8.14296e+06
8.14295e+06
8.14383e+06
8.14383e+06
8.14383e+06
8.14383e+06
8.14383e+06
8.14382e+06
8.14381e+06
8.1438e+06
8.14378e+06
8.14376e+06
8.14373e+06
8.14371e+06
8.14368e+06
8.14365e+06
8.14361e+06
8.14358e+06
8.14355e+06
8.14352e+06
8.1435e+06
8.14347e+06
8.14344e+06
8.14341e+06
8.14338e+06
8.14336e+06
8.14333e+06
8.1433e+06
8.14328e+06
8.14325e+06
8.14323e+06
8.1432e+06
8.14319e+06
8.14317e+06
8.14315e+06
8.14313e+06
8.14312e+06
8.1431e+06
8.14308e+06
8.14307e+06
8.14305e+06
8.14303e+06
8.14301e+06
8.14299e+06
8.14297e+06
8.14295e+06
8.14294e+06
8.14293e+06
8.14292e+06
8.14292e+06
8.14292e+06
8.14292e+06
8.14373e+06
8.14373e+06
8.14373e+06
8.14373e+06
8.14373e+06
8.14372e+06
8.14371e+06
8.1437e+06
8.14368e+06
8.14366e+06
8.14363e+06
8.14361e+06
8.14358e+06
8.14355e+06
8.14352e+06
8.14349e+06
8.14346e+06
8.14343e+06
8.1434e+06
8.14337e+06
8.14334e+06
8.14332e+06
8.14329e+06
8.14326e+06
8.14323e+06
8.14321e+06
8.14318e+06
8.14315e+06
8.14313e+06
8.14311e+06
8.14309e+06
8.14307e+06
8.14305e+06
8.14304e+06
8.14303e+06
8.14301e+06
8.14299e+06
8.14298e+06
8.14296e+06
8.14294e+06
8.14293e+06
8.14291e+06
8.1429e+06
8.14289e+06
8.14288e+06
8.14288e+06
8.14287e+06
8.14288e+06
8.14288e+06
8.14289e+06
8.14363e+06
8.14363e+06
8.14364e+06
8.14363e+06
8.14363e+06
8.14363e+06
8.14362e+06
8.1436e+06
8.14358e+06
8.14356e+06
8.14354e+06
8.14351e+06
8.14348e+06
8.14345e+06
8.14342e+06
8.14339e+06
8.14336e+06
8.14334e+06
8.14331e+06
8.14328e+06
8.14326e+06
8.14323e+06
8.1432e+06
8.14317e+06
8.14315e+06
8.14312e+06
8.14309e+06
8.14306e+06
8.14304e+06
8.14302e+06
8.143e+06
8.14298e+06
8.14296e+06
8.14295e+06
8.14294e+06
8.14292e+06
8.14291e+06
8.1429e+06
8.14288e+06
8.14287e+06
8.14285e+06
8.14284e+06
8.14283e+06
8.14283e+06
8.14282e+06
8.14282e+06
8.14283e+06
8.14283e+06
8.14284e+06
8.14286e+06
8.14353e+06
8.14353e+06
8.14354e+06
8.14354e+06
8.14353e+06
8.14353e+06
8.14352e+06
8.1435e+06
8.14348e+06
8.14346e+06
8.14343e+06
8.14341e+06
8.14338e+06
8.14334e+06
8.14331e+06
8.14328e+06
8.14325e+06
8.14323e+06
8.1432e+06
8.14317e+06
8.14315e+06
8.14312e+06
8.14309e+06
8.14307e+06
8.14304e+06
8.14301e+06
8.14298e+06
8.14296e+06
8.14293e+06
8.14291e+06
8.14289e+06
8.14287e+06
8.14286e+06
8.14285e+06
8.14283e+06
8.14282e+06
8.14281e+06
8.1428e+06
8.14279e+06
8.14278e+06
8.14277e+06
8.14276e+06
8.14275e+06
8.14275e+06
8.14275e+06
8.14276e+06
8.14277e+06
8.14278e+06
8.1428e+06
8.14282e+06
8.14343e+06
8.14343e+06
8.14344e+06
8.14344e+06
8.14344e+06
8.14343e+06
8.14342e+06
8.14341e+06
8.14339e+06
8.14337e+06
8.14335e+06
8.14332e+06
8.14329e+06
8.14327e+06
8.14324e+06
8.14321e+06
8.14318e+06
8.14315e+06
8.14312e+06
8.1431e+06
8.14307e+06
8.14305e+06
8.14302e+06
8.14299e+06
8.14296e+06
8.14293e+06
8.1429e+06
8.14288e+06
8.14285e+06
8.14283e+06
8.14281e+06
8.14279e+06
8.14278e+06
8.14276e+06
8.14275e+06
8.14274e+06
8.14273e+06
8.14272e+06
8.14271e+06
8.14271e+06
8.1427e+06
8.14269e+06
8.14269e+06
8.14269e+06
8.1427e+06
8.14271e+06
8.14272e+06
8.14274e+06
8.14276e+06
8.14279e+06
8.14333e+06
8.14333e+06
8.14334e+06
8.14334e+06
8.14333e+06
8.14332e+06
8.14331e+06
8.14329e+06
8.14327e+06
8.14325e+06
8.14322e+06
8.1432e+06
8.14317e+06
8.14314e+06
8.14311e+06
8.14308e+06
8.14305e+06
8.14302e+06
8.143e+06
8.14297e+06
8.14295e+06
8.14292e+06
8.1429e+06
8.14287e+06
8.14284e+06
8.14281e+06
8.14278e+06
8.14276e+06
8.14273e+06
8.14271e+06
8.14269e+06
8.14268e+06
8.14266e+06
8.14265e+06
8.14264e+06
8.14264e+06
8.14263e+06
8.14262e+06
8.14261e+06
8.14261e+06
8.1426e+06
8.1426e+06
8.1426e+06
8.14261e+06
8.14262e+06
8.14263e+06
8.14265e+06
8.14268e+06
8.14271e+06
8.14274e+06
8.14322e+06
8.14323e+06
8.14325e+06
8.14326e+06
8.14327e+06
8.14326e+06
8.14326e+06
8.14324e+06
8.14322e+06
8.1432e+06
8.14317e+06
8.14315e+06
8.14312e+06
8.14309e+06
8.14305e+06
8.14302e+06
8.143e+06
8.14297e+06
8.14294e+06
8.14291e+06
8.14289e+06
8.14286e+06
8.14283e+06
8.1428e+06
8.14278e+06
8.14275e+06
8.14272e+06
8.14269e+06
8.14266e+06
8.14264e+06
8.14262e+06
8.1426e+06
8.14259e+06
8.14258e+06
8.14257e+06
8.14256e+06
8.14255e+06
8.14255e+06
8.14254e+06
8.14254e+06
8.14253e+06
8.14253e+06
8.14254e+06
8.14255e+06
8.14256e+06
8.14258e+06
8.1426e+06
8.14263e+06
8.14267e+06
8.14271e+06
8.14308e+06
8.14311e+06
8.14312e+06
8.14311e+06
8.1431e+06
8.14309e+06
8.14308e+06
8.14306e+06
8.14305e+06
8.14303e+06
8.143e+06
8.14298e+06
8.14295e+06
8.14292e+06
8.1429e+06
8.14287e+06
8.14285e+06
8.14282e+06
8.1428e+06
8.14277e+06
8.14275e+06
8.14273e+06
8.1427e+06
8.14267e+06
8.14265e+06
8.14262e+06
8.14259e+06
8.14256e+06
8.14254e+06
8.14252e+06
8.1425e+06
8.14248e+06
8.14247e+06
8.14246e+06
8.14246e+06
8.14245e+06
8.14244e+06
8.14244e+06
8.14244e+06
8.14243e+06
8.14243e+06
8.14244e+06
8.14244e+06
8.14246e+06
8.14247e+06
8.1425e+06
8.14253e+06
8.14256e+06
8.1426e+06
8.14266e+06
8.14296e+06
8.1431e+06
8.14317e+06
8.14318e+06
8.14316e+06
8.14314e+06
8.14312e+06
8.14309e+06
8.14306e+06
8.14303e+06
8.143e+06
8.14297e+06
8.14293e+06
8.1429e+06
8.14287e+06
8.14283e+06
8.1428e+06
8.14278e+06
8.14275e+06
8.14272e+06
8.1427e+06
8.14267e+06
8.14264e+06
8.14261e+06
8.14258e+06
8.14255e+06
8.14252e+06
8.14249e+06
8.14247e+06
8.14244e+06
8.14242e+06
8.14241e+06
8.1424e+06
8.14239e+06
8.14238e+06
8.14237e+06
8.14237e+06
8.14236e+06
8.14236e+06
8.14236e+06
8.14236e+06
8.14236e+06
8.14237e+06
8.14239e+06
8.14241e+06
8.14243e+06
8.14247e+06
8.14251e+06
8.14256e+06
8.14262e+06
8.14241e+06
8.1427e+06
8.14279e+06
8.14282e+06
8.14284e+06
8.14285e+06
8.14286e+06
8.14285e+06
8.14284e+06
8.14282e+06
8.14281e+06
8.14278e+06
8.14276e+06
8.14273e+06
8.14271e+06
8.14268e+06
8.14266e+06
8.14263e+06
8.14261e+06
8.14259e+06
8.14256e+06
8.14254e+06
8.14251e+06
8.14248e+06
8.14246e+06
8.14243e+06
8.1424e+06
8.14237e+06
8.14235e+06
8.14233e+06
8.14231e+06
8.1423e+06
8.14228e+06
8.14228e+06
8.14227e+06
8.14226e+06
8.14226e+06
8.14226e+06
8.14225e+06
8.14225e+06
8.14226e+06
8.14226e+06
8.14227e+06
8.14229e+06
8.14231e+06
8.14234e+06
8.14238e+06
8.14242e+06
8.14248e+06
8.14255e+06
8.14391e+06
8.1434e+06
8.14314e+06
8.14304e+06
8.14299e+06
8.14294e+06
8.1429e+06
8.14287e+06
8.14284e+06
8.14281e+06
8.14278e+06
8.14275e+06
8.14271e+06
8.14268e+06
8.14265e+06
8.14262e+06
8.1426e+06
8.14257e+06
8.14254e+06
8.14252e+06
8.14249e+06
8.14246e+06
8.14244e+06
8.14241e+06
8.14238e+06
8.14235e+06
8.14232e+06
8.14229e+06
8.14227e+06
8.14224e+06
8.14223e+06
8.14221e+06
8.1422e+06
8.14219e+06
8.14218e+06
8.14218e+06
8.14217e+06
8.14217e+06
8.14217e+06
8.14217e+06
8.14217e+06
8.14218e+06
8.14219e+06
8.1422e+06
8.14223e+06
8.14226e+06
8.1423e+06
8.14235e+06
8.14241e+06
8.1425e+06
7.83021e+06
7.84186e+06
7.8429e+06
7.85183e+06
7.85427e+06
7.86011e+06
7.86274e+06
7.86592e+06
7.86756e+06
7.86878e+06
7.86929e+06
7.86946e+06
7.86942e+06
7.86975e+06
7.86951e+06
7.87178e+06
7.87087e+06
7.87675e+06
7.8746e+06
7.886e+06
7.82604e+06
7.83779e+06
7.83884e+06
7.84788e+06
7.85038e+06
7.85628e+06
7.85895e+06
7.86213e+06
7.86379e+06
7.86501e+06
7.86553e+06
7.8657e+06
7.86567e+06
7.866e+06
7.86575e+06
7.86801e+06
7.86707e+06
7.87295e+06
7.87098e+06
7.88259e+06
7.82179e+06
7.83367e+06
7.83474e+06
7.84387e+06
7.84643e+06
7.85239e+06
7.85508e+06
7.85827e+06
7.85993e+06
7.86116e+06
7.86168e+06
7.86185e+06
7.86182e+06
7.86217e+06
7.86197e+06
7.86432e+06
7.86352e+06
7.86958e+06
7.86781e+06
7.88006e+06
7.81746e+06
7.82948e+06
7.83058e+06
7.83981e+06
7.84241e+06
7.84842e+06
7.85112e+06
7.85432e+06
7.85599e+06
7.85721e+06
7.85773e+06
7.8579e+06
7.85787e+06
7.85825e+06
7.85812e+06
7.8606e+06
7.85998e+06
7.86627e+06
7.86456e+06
7.8774e+06
7.81303e+06
7.8252e+06
7.82633e+06
7.83566e+06
7.83831e+06
7.84435e+06
7.84708e+06
7.85028e+06
7.85194e+06
7.85317e+06
7.85368e+06
7.85385e+06
7.85383e+06
7.85421e+06
7.85409e+06
7.85659e+06
7.856e+06
7.86239e+06
7.86067e+06
7.87357e+06
7.80852e+06
7.82083e+06
7.82199e+06
7.83141e+06
7.83411e+06
7.84018e+06
7.84292e+06
7.84613e+06
7.84781e+06
7.84903e+06
7.84954e+06
7.8497e+06
7.84967e+06
7.85006e+06
7.84992e+06
7.85243e+06
7.85185e+06
7.85834e+06
7.85665e+06
7.86966e+06
7.80389e+06
7.81636e+06
7.81755e+06
7.82705e+06
7.8298e+06
7.83589e+06
7.83865e+06
7.84187e+06
7.84356e+06
7.84479e+06
7.84529e+06
7.84545e+06
7.84541e+06
7.84579e+06
7.84566e+06
7.84818e+06
7.84761e+06
7.85421e+06
7.85257e+06
7.86576e+06
7.79916e+06
7.81177e+06
7.81299e+06
7.82257e+06
7.82535e+06
7.83148e+06
7.83426e+06
7.8375e+06
7.83921e+06
7.84045e+06
7.84094e+06
7.84109e+06
7.84104e+06
7.84142e+06
7.84129e+06
7.84383e+06
7.84326e+06
7.84993e+06
7.8483e+06
7.86162e+06
7.79431e+06
7.80706e+06
7.80831e+06
7.81796e+06
7.82078e+06
7.82693e+06
7.82975e+06
7.83302e+06
7.83476e+06
7.836e+06
7.83649e+06
7.83662e+06
7.83657e+06
7.83695e+06
7.83681e+06
7.83936e+06
7.83879e+06
7.84551e+06
7.84384e+06
7.85728e+06
7.78936e+06
7.80223e+06
7.80352e+06
7.81322e+06
7.81608e+06
7.82225e+06
7.82511e+06
7.82842e+06
7.83019e+06
7.83143e+06
7.83191e+06
7.83204e+06
7.83198e+06
7.83236e+06
7.83222e+06
7.83479e+06
7.83421e+06
7.84099e+06
7.83928e+06
7.85285e+06
7.7843e+06
7.79731e+06
7.79862e+06
7.80838e+06
7.81127e+06
7.81747e+06
7.82037e+06
7.82372e+06
7.8255e+06
7.82675e+06
7.82722e+06
7.82733e+06
7.82727e+06
7.82765e+06
7.82752e+06
7.83012e+06
7.82954e+06
7.83639e+06
7.83466e+06
7.84837e+06
7.77917e+06
7.79231e+06
7.79365e+06
7.80344e+06
7.80636e+06
7.81258e+06
7.81552e+06
7.8189e+06
7.8207e+06
7.82194e+06
7.8224e+06
7.8225e+06
7.82244e+06
7.82282e+06
7.8227e+06
7.82534e+06
7.82477e+06
7.8317e+06
7.82995e+06
7.84382e+06
7.77399e+06
7.78724e+06
7.78861e+06
7.79844e+06
7.80139e+06
7.80762e+06
7.81059e+06
7.81399e+06
7.81579e+06
7.81701e+06
7.81746e+06
7.81754e+06
7.81747e+06
7.81785e+06
7.81775e+06
7.82043e+06
7.81989e+06
7.82691e+06
7.82516e+06
7.83919e+06
7.76877e+06
7.78214e+06
7.78354e+06
7.79339e+06
7.79637e+06
7.8026e+06
7.80559e+06
7.80898e+06
7.81075e+06
7.81194e+06
7.81237e+06
7.81245e+06
7.81237e+06
7.81276e+06
7.81266e+06
7.81539e+06
7.81487e+06
7.82202e+06
7.82028e+06
7.83449e+06
7.76355e+06
7.77703e+06
7.77846e+06
7.78832e+06
7.79132e+06
7.79754e+06
7.80052e+06
7.80387e+06
7.80559e+06
7.80675e+06
7.80715e+06
7.80722e+06
7.80714e+06
7.80754e+06
7.80744e+06
7.81022e+06
7.80973e+06
7.81701e+06
7.8153e+06
7.82971e+06
7.75834e+06
7.77192e+06
7.77339e+06
7.78324e+06
7.78626e+06
7.79245e+06
7.79539e+06
7.79868e+06
7.80032e+06
7.80142e+06
7.8018e+06
7.80186e+06
7.80178e+06
7.80219e+06
7.8021e+06
7.80493e+06
7.80447e+06
7.81188e+06
7.81021e+06
7.82483e+06
7.75317e+06
7.76684e+06
7.76834e+06
7.77818e+06
7.7812e+06
7.78734e+06
7.79022e+06
7.7934e+06
7.79494e+06
7.79597e+06
7.79632e+06
7.79637e+06
7.79631e+06
7.79674e+06
7.79667e+06
7.79955e+06
7.79912e+06
7.80666e+06
7.80501e+06
7.81984e+06
7.74805e+06
7.7618e+06
7.76334e+06
7.77315e+06
7.77617e+06
7.78222e+06
7.78501e+06
7.78806e+06
7.78947e+06
7.79043e+06
7.79074e+06
7.79078e+06
7.79073e+06
7.79121e+06
7.79116e+06
7.79412e+06
7.79371e+06
7.80138e+06
7.79975e+06
7.81478e+06
7.743e+06
7.75683e+06
7.7584e+06
7.76816e+06
7.77116e+06
7.77711e+06
7.77978e+06
7.78267e+06
7.78394e+06
7.78481e+06
7.78507e+06
7.7851e+06
7.78507e+06
7.7856e+06
7.78561e+06
7.78866e+06
7.78829e+06
7.79609e+06
7.79447e+06
7.8097e+06
7.73807e+06
7.75194e+06
7.75355e+06
7.76325e+06
7.76621e+06
7.77202e+06
7.77456e+06
7.77728e+06
7.7784e+06
7.77917e+06
7.77936e+06
7.77937e+06
7.77936e+06
7.77997e+06
7.78004e+06
7.78321e+06
7.7829e+06
7.79085e+06
7.78924e+06
7.80468e+06
7.73327e+06
7.74719e+06
7.74882e+06
7.75843e+06
7.76134e+06
7.767e+06
7.76939e+06
7.77193e+06
7.77289e+06
7.77357e+06
7.77366e+06
7.77364e+06
7.77364e+06
7.77434e+06
7.7745e+06
7.77781e+06
7.77758e+06
7.7857e+06
7.78413e+06
7.79978e+06
7.72865e+06
7.74259e+06
7.74425e+06
7.75374e+06
7.75659e+06
7.76209e+06
7.76432e+06
7.76669e+06
7.76751e+06
7.76807e+06
7.76804e+06
7.76797e+06
7.76798e+06
7.76877e+06
7.76902e+06
7.7725e+06
7.77238e+06
7.7807e+06
7.77919e+06
7.79505e+06
7.72426e+06
7.7382e+06
7.73988e+06
7.74925e+06
7.75203e+06
7.75735e+06
7.75944e+06
7.76163e+06
7.76232e+06
7.76277e+06
7.76257e+06
7.76243e+06
7.76244e+06
7.76334e+06
7.76368e+06
7.76734e+06
7.76735e+06
7.77589e+06
7.77446e+06
7.79054e+06
7.72015e+06
7.73408e+06
7.73578e+06
7.745e+06
7.74772e+06
7.75285e+06
7.75481e+06
7.75684e+06
7.75742e+06
7.75773e+06
7.75734e+06
7.75713e+06
7.75711e+06
7.7581e+06
7.75855e+06
7.7624e+06
7.76254e+06
7.77131e+06
7.76999e+06
7.78629e+06
7.71636e+06
7.73026e+06
7.732e+06
7.74108e+06
7.74373e+06
7.7487e+06
7.75054e+06
7.75243e+06
7.75289e+06
7.75305e+06
7.75245e+06
7.75216e+06
7.75209e+06
7.75317e+06
7.75372e+06
7.75777e+06
7.75805e+06
7.76705e+06
7.76584e+06
7.78234e+06
7.71295e+06
7.72682e+06
7.7286e+06
7.73754e+06
7.74015e+06
7.74495e+06
7.7467e+06
7.74845e+06
7.7488e+06
7.74879e+06
7.74796e+06
7.74761e+06
7.74748e+06
7.74865e+06
7.74932e+06
7.75356e+06
7.75397e+06
7.76317e+06
7.76208e+06
7.77876e+06
7.70997e+06
7.72379e+06
7.72563e+06
7.73445e+06
7.73704e+06
7.7417e+06
7.74338e+06
7.74501e+06
7.74524e+06
7.74501e+06
7.74397e+06
7.74359e+06
7.74342e+06
7.74469e+06
7.74551e+06
7.74991e+06
7.75043e+06
7.75979e+06
7.7588e+06
7.77563e+06
7.70747e+06
7.72122e+06
7.72312e+06
7.73182e+06
7.73442e+06
7.73896e+06
7.74061e+06
7.74213e+06
7.74226e+06
7.74182e+06
7.74062e+06
7.74026e+06
7.7401e+06
7.7415e+06
7.74244e+06
7.74696e+06
7.74753e+06
7.75698e+06
7.75608e+06
7.77301e+06
7.70546e+06
7.71914e+06
7.72111e+06
7.72969e+06
7.73232e+06
7.73675e+06
7.73842e+06
7.73987e+06
7.73993e+06
7.73935e+06
7.73815e+06
7.7379e+06
7.73781e+06
7.73927e+06
7.74023e+06
7.74477e+06
7.74534e+06
7.75481e+06
7.75396e+06
7.77095e+06
7.70397e+06
7.71757e+06
7.7196e+06
7.72805e+06
7.73073e+06
7.73507e+06
7.73678e+06
7.73821e+06
7.73828e+06
7.73773e+06
7.73679e+06
7.73671e+06
7.73667e+06
7.73803e+06
7.7389e+06
7.74335e+06
7.74386e+06
7.75329e+06
7.75246e+06
7.76948e+06
7.70304e+06
7.71653e+06
7.71861e+06
7.72692e+06
7.72965e+06
7.73392e+06
7.73569e+06
7.73712e+06
7.73726e+06
7.73688e+06
7.73638e+06
7.73639e+06
7.73637e+06
7.73759e+06
7.7383e+06
7.74262e+06
7.74304e+06
7.75238e+06
7.75157e+06
7.76859e+06
7.70267e+06
7.71607e+06
7.71818e+06
7.72634e+06
7.72912e+06
7.7333e+06
7.73512e+06
7.73655e+06
7.73678e+06
7.73659e+06
7.73641e+06
7.73646e+06
7.73642e+06
7.73765e+06
7.73823e+06
7.74245e+06
7.74279e+06
7.75204e+06
7.75122e+06
7.76822e+06
7.70291e+06
7.7162e+06
7.71834e+06
7.72633e+06
7.72916e+06
7.73323e+06
7.73509e+06
7.7365e+06
7.7368e+06
7.73676e+06
7.73679e+06
7.73683e+06
7.73676e+06
7.73807e+06
7.73857e+06
7.74273e+06
7.74302e+06
7.75219e+06
7.75134e+06
7.76832e+06
7.70377e+06
7.71692e+06
7.7191e+06
7.72689e+06
7.72975e+06
7.7337e+06
7.73556e+06
7.73693e+06
7.73728e+06
7.73737e+06
7.73754e+06
7.73759e+06
7.73747e+06
7.73883e+06
7.73923e+06
7.7434e+06
7.74367e+06
7.75276e+06
7.75183e+06
7.76879e+06
7.70527e+06
7.71826e+06
7.72045e+06
7.72801e+06
7.73087e+06
7.73466e+06
7.7365e+06
7.7378e+06
7.73819e+06
7.7384e+06
7.73866e+06
7.73869e+06
7.73853e+06
7.73993e+06
7.74019e+06
7.74442e+06
7.74468e+06
7.75368e+06
7.7526e+06
7.76954e+06
7.70742e+06
7.72021e+06
7.7224e+06
7.72968e+06