/*--------------------------------*- C++ -*----------------------------------*\
  =========                 |
  \\      /  F ield         | OpenFOAM: The Open Source CFD Toolbox
   \\    /   O peration     | Website:  https://openfoam.org
    \\  /    A nd           | Version:  8
     \\/     M anipulation  |
\*---------------------------------------------------------------------------*/
FoamFile
{
    version     2.0;
    format      ascii;
    class       surfaceScalarField;
    location    "900";
    object      phi;
}
// * * * * * * * * * * * * * * * * * * * * * * * * * * * * * * * * * * * * * //

dimensions      [1 0 -1 0 0 0 0];

internalField   nonuniform List<scalar> 
16360
(
-13.302
-0.0231301
-13.2794
-0.0225725
-13.2577
-0.0217367
-13.2372
-0.0205548
-13.2181
-0.0191037
-13.2006
-0.0174892
-13.1848
-0.0158168
-13.1707
-0.0141748
-13.1581
-0.0126302
-13.1469
-0.0112296
-13.137
-0.0100026
-13.1281
-0.00896558
-13.12
-0.00812683
-13.1126
-0.00749181
-13.1055
-0.0070659
-13.0986
-0.00685745
-13.0917
-0.006879
-13.0845
-0.00714559
-13.0768
-0.00767464
-13.0683
-0.00848688
-13.0587
-0.00960802
-13.0476
-0.0110712
-13.0346
-0.0129195
-13.0193
-0.0152075
-13.0013
-0.0180008
-12.9799
-0.0213737
-12.9545
-0.0254085
-12.9244
-0.0301945
-12.8886
-0.0358301
-12.8462
-0.0424277
-12.796
-0.0501206
-12.7369
-0.0590668
-12.6674
-0.0694489
-12.5859
-0.0814705
-12.4905
-0.0953541
-12.3792
-0.111342
-12.2495
-0.129702
-12.0988
-0.150735
-11.924
-0.174781
-11.7218
-0.20222
-11.4884
-0.233462
-11.2194
-0.268948
-10.9103
-0.309116
-10.556
-0.354381
-10.1509
-0.405119
-9.68927
-0.461669
-9.16514
-0.524149
-8.57333
-0.591813
-7.91031
-0.66301
-0.739577
-7.17072
-12.4916
-0.0480799
-12.4665
-0.0476234
-12.4422
-0.0460963
-12.4191
-0.0437249
-12.3974
-0.0407807
-12.3774
-0.0375195
-12.3592
-0.0341641
-12.3425
-0.0308901
-12.3275
-0.0278238
-12.3138
-0.0250498
-12.3012
-0.0226204
-12.2897
-0.0205671
-12.279
-0.0189079
-12.2688
-0.0176555
-12.259
-0.0168224
-12.2493
-0.0164222
-12.2397
-0.0164723
-12.2298
-0.0169952
-12.2194
-0.0180204
-12.2083
-0.0195869
-12.1961
-0.0217483
-12.1825
-0.0245756
-12.1672
-0.0281581
-12.1497
-0.0326017
-12.1297
-0.0380259
-12.1066
-0.0445624
-12.0797
-0.0523578
-12.0483
-0.06158
-12.0118
-0.0724255
-11.969
-0.0851275
-11.9191
-0.0999594
-11.8608
-0.117233
-11.7929
-0.137293
-11.7138
-0.160515
-11.6219
-0.187305
-11.5151
-0.21812
-11.3914
-0.253477
-11.2482
-0.293966
-11.0828
-0.340252
-10.8919
-0.393069
-10.6721
-0.453208
-10.4196
-0.521495
-10.13
-0.598753
-9.7987
-0.685762
-9.42064
-0.783218
-8.99067
-0.891646
-8.50379
-1.01101
-7.95561
-1.13998
-7.34264
-1.27602
-1.41808
-6.66415
-11.3715
-0.0764369
-11.3439
-0.0752366
-11.3174
-0.0726128
-11.2923
-0.068803
-11.269
-0.0641842
-11.2474
-0.0591552
-11.2275
-0.0540542
-11.2094
-0.0491365
-11.1927
-0.0445761
-11.1774
-0.0404837
-11.1632
-0.0369237
-11.1499
-0.0339323
-11.1373
-0.0315303
-11.1252
-0.0297313
-11.1134
-0.0285477
-11.1018
-0.0279947
-11.0901
-0.0280923
-11.0782
-0.028868
-11.0658
-0.0303612
-11.0527
-0.0326288
-11.0386
-0.0357503
-11.0233
-0.0398299
-11.0065
-0.0449952
-10.9877
-0.0513939
-10.9666
-0.0591905
-10.9426
-0.0685687
-10.9153
-0.0797384
-10.884
-0.0929465
-10.8479
-0.108487
-10.8062
-0.126707
-10.7581
-0.148004
-10.7024
-0.172821
-10.6381
-0.20164
-10.5636
-0.234983
-10.4775
-0.273431
-10.378
-0.31764
-10.2631
-0.368363
-10.1306
-0.426455
-9.97793
-0.492868
-9.80236
-0.56865
-9.60067
-0.654923
-9.36936
-0.752862
-9.10452
-0.863646
-8.8019
-0.988414
-8.45693
-1.1282
-8.06482
-1.28376
-7.62079
-1.45502
-7.12053
-1.64025
-6.56086
-1.83569
-2.03761
-5.94131
-10.0192
-0.105879
-9.98953
-0.104873
-9.96093
-0.101212
-9.93403
-0.0957086
-9.90911
-0.0891199
-9.88622
-0.0820831
-9.86526
-0.0750784
-9.84605
-0.068434
-9.82837
-0.0623556
-9.81199
-0.0569611
-9.79669
-0.0523118
-9.78223
-0.0484355
-9.76842
-0.0453449
-9.75506
-0.0430469
-9.742
-0.0415483
-9.72907
-0.0408601
-9.71609
-0.0410002
-9.7029
-0.0419982
-9.68932
-0.0439016
-9.67514
-0.0467824
-9.66013
-0.050742
-9.64405
-0.0559114
-9.62663
-0.0624489
-9.60754
-0.0705353
-9.58642
-0.0803746
-9.56285
-0.0922004
-9.53633
-0.106288
-9.50631
-0.122965
-9.47214
-0.14262
-9.43309
-0.165701
-9.38835
-0.192712
-9.33697
-0.224202
-9.27785
-0.26077
-9.20976
-0.303072
-9.13132
-0.351847
-9.04097
-0.40794
-8.93697
-0.472309
-8.81737
-0.54603
-8.67996
-0.630293
-8.52226
-0.726398
-8.3415
-0.835745
-8.1346
-0.959806
-7.89819
-1.10007
-7.62863
-1.25798
-7.32194
-1.43489
-6.97389
-1.63182
-6.58011
-1.84886
-6.13629
-2.08412
-5.639
-2.33303
-2.58924
-5.08737
-8.55018
-0.140207
-8.51722
-0.137836
-8.48626
-0.132162
-8.45771
-0.124247
-8.43169
-0.11515
-8.40806
-0.10574
-8.38658
-0.0966178
-8.36694
-0.0881517
-8.34885
-0.0805433
-8.33201
-0.0738871
-8.31617
-0.0682177
-8.3011
-0.0635385
-8.28659
-0.059841
-8.27247
-0.0571154
-8.25859
-0.0553554
-8.2448
-0.0545618
-8.23097
-0.0547462
-8.21697
-0.0559367
-8.20264
-0.058186
-8.18783
-0.0615781
-8.17236
-0.0662314
-8.15602
-0.0722973
-8.13859
-0.0799572
-8.11978
-0.0894209
-8.09928
-0.100933
-8.07673
-0.114782
-8.05169
-0.131315
-8.02367
-0.150942
-7.99211
-0.174138
-7.95636
-0.201439
-7.91566
-0.233435
-7.86914
-0.270767
-7.81579
-0.314139
-7.75449
-0.364334
-7.68401
-0.42224
-7.60299
-0.488864
-7.5099
-0.56533
-7.40305
-0.652886
-7.28049
-0.752898
-7.14008
-0.866868
-6.97944
-0.996426
-6.79593
-1.1433
-6.58674
-1.30923
-6.34887
-1.49584
-6.07908
-1.7047
-5.77388
-1.93709
-5.42948
-2.19333
-5.04201
-2.47166
-4.60813
-2.76692
-3.07103
-4.12635
-7.01599
-0.176196
-6.98037
-0.173449
-6.94727
-0.165245
-6.91742
-0.154089
-6.89077
-0.141801
-6.86697
-0.129576
-6.84553
-0.118107
-6.82602
-0.107742
-6.80802
-0.0986221
-6.7912
-0.0907774
-6.77528
-0.0841843
-6.76003
-0.0788005
-6.74527
-0.0745825
-6.73084
-0.0714937
-6.71661
-0.0695056
-6.70248
-0.0686019
-6.68836
-0.0687833
-6.67416
-0.0700758
-6.65977
-0.0725372
-6.6451
-0.0762619
-6.63001
-0.0813814
-6.61434
-0.0880638
-6.59789
-0.0965132
-6.58043
-0.106973
-6.56166
-0.119738
-6.54127
-0.135162
-6.51888
-0.153669
-6.49404
-0.175749
-6.46623
-0.20195
-6.43486
-0.23288
-6.39918
-0.269203
-6.35837
-0.311645
-6.31149
-0.36101
-6.25754
-0.418199
-6.19544
-0.484226
-6.12401
-0.560223
-6.04189
-0.647436
-5.9476
-0.747232
-5.83944
-0.861116
-5.71558
-0.990759
-5.57398
-1.13801
-5.41235
-1.30486
-5.2283
-1.49326
-5.01946
-1.7047
-4.78334
-1.94087
-4.5172
-2.20327
-4.21817
-2.49239
-3.88324
-2.80658
-3.50981
-3.14031
-3.48446
-3.09638
-5.45136
-0.218809
-5.4117
-0.213089
-5.37675
-0.200175
-5.3465
-0.184326
-5.32029
-0.168009
-5.29729
-0.152602
-5.27672
-0.138716
-5.25797
-0.126544
-5.24057
-0.116078
-5.22417
-0.107226
-5.2085
-0.0998731
-5.19338
-0.0939133
-5.17868
-0.0892545
-5.16429
-0.0858252
-5.15015
-0.083572
-5.13621
-0.0824614
-5.12241
-0.0824879
-5.10873
-0.0836821
-5.09513
-0.0861133
-5.08153
-0.0898904
-5.06784
-0.0951618
-5.05391
-0.102117
-5.03954
-0.110991
-5.02451
-0.122071
-5.00854
-0.13571
-4.99133
-0.152334
-4.97253
-0.172437
-4.95172
-0.196569
-4.92842
-0.225332
-4.90203
-0.259387
-4.87187
-0.299465
-4.83717
-0.346373
-4.7971
-0.401007
-4.75081
-0.464363
-4.69738
-0.537549
-4.63578
-0.621788
-4.56484
-0.718413
-4.48322
-0.828886
-4.3895
-0.954837
-4.28209
-1.09811
-4.15921
-1.26079
-4.01878
-1.44523
-3.85837
-1.65369
-3.67621
-1.88692
-3.47029
-2.14685
-3.23848
-2.43501
-2.9789
-2.75188
-2.68982
-3.09554
-2.37037
-3.45968
-3.83395
-2.0209
-3.84932
-0.264177
-3.80714
-0.255248
-3.7722
-0.235098
-3.74346
-0.213045
-3.71935
-0.19212
-3.69844
-0.173528
-3.67971
-0.157475
-3.66247
-0.14381
-3.64629
-0.132275
-3.63091
-0.122613
-3.61618
-0.114601
-3.60202
-0.108068
-3.58837
-0.102885
-3.57521
-0.098961
-3.5625
-0.0962312
-3.55022
-0.0946623
-3.53836
-0.0942621
-3.52689
-0.0950837
-3.51576
-0.0972215
-3.50488
-0.100806
-3.49414
-0.106005
-3.48336
-0.11303
-3.47231
-0.122142
-3.46076
-0.133669
-3.44845
-0.148013
-3.43511
-0.16565
-3.42045
-0.187118
-3.40412
-0.212993
-3.3857
-0.243899
-3.36468
-0.280543
-3.34048
-0.323729
-3.31246
-0.374353
-3.27997
-0.433392
-3.24233
-0.501916
-3.19876
-0.581104
-3.14833
-0.672261
-3.08998
-0.776818
-3.02249
-0.896346
-2.94461
-1.03261
-2.85498
-1.1876
-2.75209
-1.36359
-2.63398
-1.56335
-2.49759
-1.79014
-2.34175
-2.04276
-2.1644
-2.32414
-1.96371
-2.63556
-1.7385
-2.97698
-1.48832
-3.34568
-1.21461
-3.73337
-4.12686
-0.921746
-2.16828
-0.31936
-2.12625
-0.297262
-2.09682
-0.264493
-2.07474
-0.235108
-2.05707
-0.209766
-2.04207
-0.18852
-2.0287
-0.170829
-2.01642
-0.156054
-2.00498
-0.143673
-1.99425
-0.133289
-1.98421
-0.124615
-1.97484
-0.117444
-1.96611
-0.111657
-1.95795
-0.107172
-1.95025
-0.103934
-1.94292
-0.101926
-1.93585
-0.101191
-1.92897
-0.101812
-1.92218
-0.103897
-1.9154
-0.107565
-1.90852
-0.112966
-1.90138
-0.12029
-1.89383
-0.129794
-1.88572
-0.141819
-1.87693
-0.156801
-1.86734
-0.175257
-1.85682
-0.19774
-1.84516
-0.224826
-1.83208
-0.257153
-1.81722
-0.295484
-1.80018
-0.340726
-1.7805
-0.393889
-1.7577
-0.45605
-1.73121
-0.528352
-1.70031
-0.612058
-1.66405
-0.708573
-1.62135
-0.819463
-1.57101
-0.946502
-1.5117
-1.09169
-1.44199
-1.2572
-1.36055
-1.44505
-1.26605
-1.6579
-1.15488
-1.90126
-1.02604
-2.17145
-0.876981
-2.4731
-0.706005
-2.8065
-0.512319
-3.17072
-0.296499
-3.56168
-0.0614535
-3.96854
-4.37255
0.184114
-0.362508
-0.379749
-0.343125
-0.316613
-0.330878
-0.276686
-0.323293
-0.242636
-0.318883
-0.214128
-0.316334
-0.190997
-0.314942
-0.172109
-0.314352
-0.156481
-0.314396
-0.143453
-0.314967
-0.132583
-0.315983
-0.123596
-0.317287
-0.116309
-0.318635
-0.110596
-0.319747
-0.106343
-0.320382
-0.103431
-0.320433
-0.10177
-0.319961
-0.101344
-0.319156
-0.10222
-0.318228
-0.104519
-0.317295
-0.108384
-0.316345
-0.113978
-0.315277
-0.121489
-0.314003
-0.131165
-0.312515
-0.143352
-0.310877
-0.158513
-0.309119
-0.177198
-0.307148
-0.199993
-0.304725
-0.227513
-0.301508
-0.260475
-0.29714
-0.299748
-0.291303
-0.346323
-0.283716
-0.401254
-0.274035
-0.465664
-0.261704
-0.540793
-0.245888
-0.628024
-0.22557
-0.728878
-0.199697
-0.845098
-0.16717
-0.978754
-0.126585
-1.1322
-0.0759659
-1.30792
-0.0124866
-1.50858
0.0671724
-1.73741
0.163321
-1.99716
0.276204
-2.28419
0.406423
-2.6033
0.554917
-2.95514
0.72194
-3.33779
0.90463
-3.7444
1.09581
-4.15968
-4.5597
1.28312
1.4929
-0.372024
1.47987
-0.303554
1.46971
-0.266476
1.46218
-0.235054
1.45632
-0.208204
1.45135
-0.185928
1.44698
-0.167611
1.44309
-0.152451
1.43957
-0.139839
1.43631
-0.129352
1.43326
-0.120697
1.43037
-0.113661
1.42764
-0.108087
1.42506
-0.103868
1.42267
-0.100948
1.42048
-0.0993208
1.41847
-0.0990227
1.41661
-0.100117
1.41487
-0.102675
1.41325
-0.106785
1.41176
-0.112573
1.41046
-0.120241
1.40936
-0.130085
1.40843
-0.142483
1.40764
-0.157869
1.40695
-0.176712
1.40633
-0.199536
1.40573
-0.226959
1.40512
-0.259743
1.40437
-0.298799
1.40335
-0.345143
1.40201
-0.399873
1.40044
-0.464183
1.39898
-0.539429
1.39817
-0.627192
1.39879
-0.729323
1.40184
-0.847956
1.4086
-0.98549
1.42079
-1.14451
1.44052
-1.32771
1.46995
-1.53792
1.51065
-1.77794
1.56354
-2.04992
1.63384
-2.35452
1.7236
-2.69311
1.83356
-3.06523
1.96281
-3.46696
2.10566
-3.88715
2.25069
-4.30472
-4.69054
2.3817
3.40523
-0.304417
3.36978
-0.268097
3.33848
-0.23515
3.3145
-0.211049
3.29625
-0.189918
3.28176
-0.171401
3.26985
-0.155647
3.25977
-0.142348
3.25107
-0.131119
3.24336
-0.121673
3.2364
-0.113804
3.23001
-0.10736
3.22408
-0.10223
3.21851
-0.0983482
3.21325
-0.0956957
3.20826
-0.0942902
3.20346
-0.0941738
3.1988
-0.0953995
3.19421
-0.0980262
3.18961
-0.102132
3.18495
-0.107846
3.18014
-0.115375
3.17508
-0.125007
3.16965
-0.137089
3.16373
-0.152006
3.15717
-0.170183
3.14979
-0.192119
3.14138
-0.21843
3.13166
-0.249883
3.12034
-0.287379
3.10717
-0.331934
3.09195
-0.384669
3.07463
-0.44686
3.05529
-0.520021
3.03417
-0.605973
3.0118
-0.706869
2.98901
-0.825179
2.96706
-0.963655
2.94779
-1.12529
2.93345
-1.31329
2.92661
-1.53096
2.93005
-1.78138
2.94692
-2.06689
2.98115
-2.38886
3.03582
-2.74773
3.11215
-3.14155
3.20776
-3.56248
3.31273
-3.99218
3.40917
-4.40126
-4.75538
3.47404
5.19539
-0.27801
5.16682
-0.239511
5.14772
-0.216025
5.1314
-0.194699
5.11759
-0.176072
5.10582
-0.159606
5.0955
-0.145299
5.0862
-0.133047
5.07766
-0.122602
5.06969
-0.113745
5.06214
-0.106313
5.0549
-0.100183
5.04788
-0.0952677
5.04101
-0.0915227
5.03422
-0.0889394
5.02744
-0.0875365
5.02061
-0.0873461
5.01362
-0.0884034
5.00639
-0.090749
4.99878
-0.0944507
4.99063
-0.0996323
4.98179
-0.10649
4.97204
-0.115285
4.96122
-0.126321
4.94911
-0.139935
4.93548
-0.156515
4.92003
-0.17654
4.90236
-0.200614
4.88206
-0.22948
4.8587
-0.264004
4.83191
-0.305162
4.80134
-0.354082
4.7667
-0.412126
4.72778
-0.48098
4.68458
-0.562702
4.63743
-0.659735
4.5871
-0.774911
4.53489
-0.911467
4.48273
-1.07303
4.43308
-1.26351
4.38899
-1.48687
4.35419
-1.74671
4.33303
-2.04585
4.33025
-2.3861
4.34989
-2.76728
4.39298
-3.18467
4.45361
-3.62312
4.51446
-4.05307
4.54835
-4.43515
-4.73171
4.52451
7.32113
-0.199936
7.2684
-0.186771
7.21843
-0.166018
7.17555
-0.15178
7.13836
-0.138845
7.1056
-0.126829
7.07639
-0.116099
7.05005
-0.106736
7.02603
-0.0986328
7.0039
-0.0916714
6.98329
-0.0857639
6.96391
-0.0808484
6.9455
-0.0768903
6.92784
-0.0738842
6.91071
-0.071849
6.89396
-0.0708159
6.87742
-0.0708163
6.86092
-0.0718749
6.84426
-0.0740205
6.82722
-0.0773121
6.80953
-0.0818639
6.79092
-0.0878519
6.77111
-0.0955022
6.74984
-0.105078
6.72682
-0.11688
6.70171
-0.131276
6.67408
-0.148734
6.64345
-0.169841
6.60931
-0.195305
6.57122
-0.225943
6.52878
-0.262712
6.48157
-0.30678
6.42921
-0.35962
6.3714
-0.423079
6.30808
-0.499387
6.23946
-0.591185
6.16608
-0.701576
6.08887
-0.834195
6.00916
-0.993198
5.92883
-1.18316
5.85075
-1.40888
5.77918
-1.67519
5.71993
-1.98654
5.67984
-2.3459
5.66418
-2.75164
5.67177
-3.19234
5.68793
-3.63924
5.68319
-4.04821
5.62025
-4.37232
-4.57614
5.46496
8.48885
-0.1848
8.45996
-0.157861
8.44254
-0.148549
8.42795
-0.137134
8.41539
-0.126256
8.40461
-0.116034
8.39517
-0.106675
8.38668
-0.0983019
8.3789
-0.0909134
8.37165
-0.0844676
8.36478
-0.0789216
8.35818
-0.0742461
8.35173
-0.0704345
8.34534
-0.067501
8.33893
-0.0654699
8.33244
-0.0643634
8.32578
-0.0641944
8.31888
-0.0649669
8.31161
-0.0666926
8.30378
-0.0694183
8.2952
-0.0732455
8.28565
-0.0783309
8.27497
-0.0848751
8.26299
-0.0931161
8.24952
-0.103334
8.23425
-0.115869
8.21679
-0.131141
8.19666
-0.149658
8.17333
-0.172012
8.14625
-0.198894
8.11476
-0.23115
8.07799
-0.269864
8.03492
-0.316425
7.98442
-0.372557
7.92535
-0.44035
7.85652
-0.522375
7.77684
-0.621855
7.68554
-0.742821
7.5826
-0.890241
7.46951
-1.07013
7.35023
-1.28964
7.23191
-1.55679
7.12458
-1.87916
7.03899
-2.26029
6.9801
-2.69287
6.93762
-3.14991
6.87664
-3.57828
6.75106
-3.92267
6.52022
-4.14132
-4.21283
6.15713
11.48
-0.0954853
11.4201
-0.0979364
11.3599
-0.0883263
11.3066
-0.0837192
11.2585
-0.0781623
11.2147
-0.0722549
11.1746
-0.0666245
11.1377
-0.0614341
11.1034
-0.0567289
11.0714
-0.0525221
11.0413
-0.0488152
11.0128
-0.0456244
10.9854
-0.042991
10.9588
-0.0409686
10.9329
-0.0396024
10.9075
-0.038919
10.8822
-0.0389231
10.8568
-0.0395996
10.8311
-0.0409296
10.8046
-0.0429212
10.777
-0.0456305
10.7478
-0.0491607
10.7165
-0.0536544
10.6827
-0.0592975
10.6458
-0.0663233
10.6051
-0.0750118
10.5597
-0.0856875
10.5087
-0.0987225
10.4512
-0.114554
10.3861
-0.133732
10.3121
-0.156995
10.2277
-0.185342
10.1314
-0.22008
10.0217
-0.262881
9.89729
-0.315925
9.75712
-0.382157
9.60089
-0.465569
9.42951
-0.571449
9.24582
-0.706595
9.05509
-0.879431
8.86521
-1.09971
8.68564
-1.37718
8.52496
-1.71855
8.38683
-2.12212
8.26347
-2.56945
8.12407
-3.01036
7.90078
-3.35512
7.53855
-3.56078
7.01493
-3.61761
-3.52281
6.32498
10.6515
-0.089495
10.6343
-0.080689
10.6358
-0.0897494
10.6391
-0.0869637
10.6423
-0.0813873
10.6454
-0.0753766
10.6481
-0.069437
10.6505
-0.0638705
10.6525
-0.058827
10.6543
-0.0543241
10.6559
-0.0503482
10.6573
-0.0469132
10.6585
-0.0440552
10.6593
-0.0418045
10.6599
-0.0401723
10.66
-0.0391506
10.6598
-0.0387111
10.659
-0.0388137
10.6575
-0.0394365
10.6551
-0.0406054
10.6519
-0.0424031
10.6476
-0.0449647
10.6424
-0.0484796
10.6363
-0.0531855
10.6294
-0.0593458
10.6216
-0.0672224
10.613
-0.0770727
10.6034
-0.0891827
10.5928
-0.103918
10.5809
-0.12179
10.5676
-0.143523
10.5524
-0.170094
10.5351
-0.202757
10.5154
-0.243125
10.4928
-0.293329
10.4669
-0.356207
10.4368
-0.435423
10.4009
-0.535533
10.3563
-0.662055
10.2983
-0.821365
10.2187
-1.02013
10.1055
-1.26412
9.94303
-1.55613
9.71355
-1.8927
9.40224
-2.25837
8.98779
-2.5959
8.3883
-2.75574
7.57874
-2.75082
6.59296
-2.63181
-2.36485
5.43385
17.1931
0.00944065
17.1412
-0.028798
17.0853
-0.0338015
17.0334
-0.0350123
16.9858
-0.0337976
16.9417
-0.0313439
16.9007
-0.0284908
16.8624
-0.0256654
16.8266
-0.023
16.7928
-0.0204999
16.7607
-0.0181664
16.73
-0.0160484
16.7003
-0.014234
16.6713
-0.012799
16.6429
-0.0117814
16.6148
-0.0111975
16.5871
-0.0110289
16.5594
-0.0112092
16.5316
-0.0116537
16.5033
-0.0123051
16.474
-0.0131658
16.4432
-0.0143016
16.4105
-0.0158396
16.3753
-0.0179473
16.3368
-0.0207901
16.294
-0.0244875
16.246
-0.0291101
16.1916
-0.0347328
16.1292
-0.0415019
16.0572
-0.0496681
15.9733
-0.0595919
15.8749
-0.071735
15.7588
-0.0866773
15.6209
-0.105194
15.456
-0.128369
15.2575
-0.157654
15.017
-0.194895
14.7239
-0.242401
14.3649
-0.303049
13.9238
-0.380252
13.3814
-0.477667
12.716
-0.598666
11.905
-0.745116
10.9273
-0.915044
9.77052
-1.10174
8.48797
-1.31302
7.07022
-1.33814
5.54965
-1.23086
3.99651
-1.07802
-0.706791
2.33825
10.2712
0.0372245
10.2362
0.00626515
10.2015
0.000869032
10.1648
0.00174764
10.1273
0.00371531
10.0906
0.005256
10.0561
0.00595493
10.0243
0.00609063
9.99514
0.00613525
9.96833
0.00641853
9.94329
0.00704681
9.91948
0.00794777
9.89643
0.00894723
9.87382
0.00985949
9.85142
0.0105705
9.82909
0.011029
9.80671
0.0112359
9.78411
0.0113016
9.76099
0.0114056
9.7369
0.0117113
9.71131
0.0123317
9.68362
0.0132821
9.65327
0.0144288
9.61971
0.0155566
9.58234
0.0165461
9.54033
0.0174924
9.49256
0.0186644
9.43751
0.0203479
9.37329
0.0227522
9.29759
0.0260448
9.20754
0.0304125
9.09967
0.0360933
8.96964
0.0433826
8.81188
0.0526383
8.61926
0.0642893
8.38269
0.0788827
8.09062
0.0971544
7.72823
0.120022
7.27665
0.148551
6.7123
0.184057
6.00654
0.228153
5.1256
0.282441
4.0328
0.348043
2.69269
0.425328
1.07308
0.517891
-0.889532
0.649976
-2.65535
0.427693
-3.77319
-0.112897
-4.56197
-0.288327
-0.198063
-5.07127
-8.83644
-8.83013
-8.82925
-8.82752
-8.82386
-8.81867
-8.81276
-8.80666
-8.80045
-8.7939
-8.78673
-8.7787
-8.76974
-8.75995
-8.74947
-8.73854
-8.72737
-8.71612
-8.70476
-8.69312
-8.68087
-8.66765
-8.65327
-8.63773
-8.62118
-8.60368
-8.58499
-8.56461
-8.54185
-8.51582
-8.48542
-8.44929
-8.40583
-8.35314
-8.28885
-8.20994
-8.11271
-7.99264
-7.84414
-7.66007
-7.43193
-7.14974
-6.80186
-6.37675
-5.85897
-5.20885
-4.78181
-4.89512
-5.18307
-5.38159
0.406429
-0.00852489
0.4094
-0.00297936
0.411539
-0.00214878
0.41257
-0.0010402
0.412885
-0.000323138
0.412828
4.79444e-05
0.412572
0.00024685
0.412199
0.000364239
0.411754
0.000435722
0.411267
0.000478584
0.410754
0.000503571
0.410227
0.00051746
0.409694
0.000524291
0.409158
0.00052646
0.408623
0.000525441
0.408091
0.000522177
0.407564
0.000517278
0.407043
0.000511139
0.40653
0.000504014
0.406024
0.000496054
0.405528
0.000487334
0.40504
0.000477876
0.404563
0.000467659
0.404097
0.000456624
0.403643
0.000444682
0.403203
0.000431712
0.402776
0.000417562
0.402365
0.000402035
0.401971
0.000384878
0.401597
0.0003658
0.401244
0.000344489
0.400915
0.000320594
0.400613
0.000293664
0.400341
0.000263245
0.400104
0.000228358
0.399907
0.000188278
0.399756
0.000142062
0.399658
8.85737e-05
0.399621
2.64508e-05
0.399657
-4.6269e-05
0.399778
-0.000132183
0.4
-0.000234569
0.400344
-0.000357808
0.400837
-0.000508114
0.401515
-0.000694806
0.402429
-0.000932757
0.403655
-0.00124755
0.405319
-0.00168718
0.407644
-0.00235086
-0.00345464
0.41107
0.393841
-0.00447054
0.392987
-0.00214143
0.39156
-0.000738568
0.390804
-0.000300773
0.390438
2.7501e-05
0.390239
0.000230096
0.390144
0.000325832
0.390121
0.000370704
0.390148
0.000392337
0.390209
0.000401324
0.390293
0.000402949
0.390392
0.00040049
0.390504
0.00039582
0.390623
0.000389909
0.390748
0.00038324
0.390877
0.000376053
0.391008
0.000368448
0.391142
0.000360433
0.391277
0.000351951
0.391413
0.000342899
0.39155
0.000333131
0.391688
0.000322461
0.391829
0.000310669
0.391971
0.000297503
0.392117
0.000282682
0.392266
0.000265885
0.392421
0.000246746
0.392582
0.000224826
0.392752
0.000199565
0.392932
0.000170305
0.393125
0.000136405
0.393333
9.71968e-05
0.39356
5.16166e-05
0.393809
-1.59545e-06
0.394085
-6.37885e-05
0.394394
-0.000136495
0.39474
-0.000221636
0.395132
-0.00032157
0.395578
-0.000439171
0.396089
-0.000578356
0.396678
-0.000743782
0.39736
-0.000941408
0.398153
-0.00117919
0.399082
-0.00146799
0.400176
-0.00182317
0.401472
-0.00226728
0.403016
-0.00283471
0.404861
-0.00357957
0.407046
-0.00458864
-0.0059977
0.409532
0.394406
-0.000979635
0.393245
-0.000994444
0.393032
-0.000540514
0.393044
-0.000327046
0.393257
-0.000199383
0.393548
-7.54977e-05
0.393837
2.29816e-05
0.394099
9.35502e-05
0.394332
0.000145264
0.394535
0.000183627
0.394711
0.000211659
0.394865
0.000231663
0.395
0.000245511
0.39512
0.000254603
0.395228
0.000259944
0.395327
0.000262248
0.395418
0.000262014
0.395504
0.000259565
0.395586
0.000255087
0.395665
0.000248645
0.395743
0.000240197
0.395821
0.000229619
0.3959
0.000216715
0.395982
0.000201223
0.396067
0.000182812
0.396158
0.000161102
0.396255
0.000135655
0.39636
0.000105949
0.396475
7.11968e-05
0.396601
3.05113e-05
0.396741
-1.70855e-05
0.396898
-7.278e-05
0.397074
-0.00013798
0.397273
-0.000214404
0.397499
-0.000303731
0.397757
-0.000408424
0.398052
-0.000531304
0.398391
-0.000675782
0.398781
-0.000846029
0.399232
-0.00104725
0.399754
-0.00128582
0.400361
-0.00156981
0.401068
-0.00190961
0.401893
-0.00231892
0.402856
-0.00281612
0.403982
-0.00342641
0.405296
-0.00418498
0.406817
-0.00514126
0.408547
-0.00636357
-0.00794037
0.410441
0.397497
-0.000579445
0.397304
-0.000815548
0.397363
-0.000613199
0.397411
-0.000389017
0.39742
-0.000222711
0.397412
-8.16547e-05
0.397388
3.35353e-05
0.397349
0.000117853
0.397304
0.000176447
0.397257
0.000216354
0.397211
0.000242569
0.39717
0.000258615
0.397133
0.000267167
0.397103
0.000270206
0.397079
0.000269133
0.397061
0.000264903
0.39705
0.000258148
0.397046
0.000249247
0.397048
0.000238378
0.397056
0.000225554
0.397071
0.000210662
0.397093
0.000193491
0.397121
0.000173739
0.397157
0.000151009
0.397201
0.000124779
0.397254
9.45187e-05
0.397316
5.96626e-05
0.397389
1.94009e-05
0.397474
-2.71557e-05
0.397572
-8.10301e-05
0.397686
-0.000143534
0.397816
-0.000216352
0.397966
-0.000301258
0.398139
-0.000400366
0.398338
-0.000516121
0.398567
-0.000651541
0.398832
-0.000810216
0.399137
-0.00099642
0.39949
-0.0012153
0.399899
-0.00147313
0.400371
-0.00177754
0.400918
-0.00213801
0.401552
-0.00256637
0.402285
-0.00307763
0.403131
-0.00369091
0.404103
-0.00443082
0.405211
-0.00532903
0.406455
-0.00642574
0.407818
-0.00776981
-0.00941498
0.409245
0.39755
-0.000232305
0.397096
-0.000374886
0.396775
-0.000306593
0.396557
-0.000185213
0.396412
-9.10045e-05
0.396334
-1.75919e-05
0.396311
4.27278e-05
0.396325
8.9064e-05
0.396365
0.000122213
0.396422
0.000145139
0.39649
0.000160406
0.396564
0.000169755
0.396642
0.000174462
0.396722
0.000175501
0.396803
0.000173587
0.396884
0.000169202
0.396964
0.000162635
0.397045
0.000154011
0.397125
0.000143317
0.397206
0.000130422
0.397287
0.000115099
0.397369
9.70422e-05
0.397452
7.58569e-05
0.397538
5.10713e-05
0.397627
2.20225e-05
0.397719
-1.19453e-05
0.397817
-5.16411e-05
0.397921
-9.80204e-05
0.398032
-0.000152078
0.398153
-0.000215041
0.398285
-0.000288485
0.39843
-0.000374259
0.39859
-0.00047449
0.398768
-0.000591688
0.398968
-0.000728811
0.399192
-0.000889373
0.399445
-0.00107754
0.399731
-0.00129825
0.400057
-0.0015574
0.400429
-0.00186203
0.400853
-0.00222063
0.401338
-0.00264345
0.401891
-0.00314295
0.402522
-0.00373436
0.403239
-0.00443626
0.404047
-0.0052713
0.404949
-0.00626673
0.405938
-0.0074544
0.406994
-0.00886979
-0.0105487
0.408081
0.397785
-0.00011981
0.397621
-0.000224918
0.397531
-0.000231198
0.397514
-0.000182185
0.397534
-0.000124806
0.397573
-7.02645e-05
0.397621
-1.91979e-05
0.397671
2.55624e-05
0.397717
6.17819e-05
0.397758
8.94658e-05
0.397794
0.000109612
0.397826
0.000123285
0.397854
0.000131461
0.39788
0.000135026
0.397904
0.000134717
0.397927
0.000131096
0.397951
0.000124541
0.397975
0.000115264
0.398
0.000103321
0.398027
8.86243e-05
0.398057
7.09493e-05
0.398089
5.0009e-05
0.398126
2.53785e-05
0.398166
-3.4621e-06
0.398211
-3.70956e-05
0.398261
-7.62954e-05
0.398318
-0.000122028
0.398382
-0.000175316
0.398454
-0.000237351
0.398535
-0.00030957
0.398628
-0.000393713
0.398732
-0.000491842
0.398851
-0.000606374
0.398987
-0.000740147
0.399141
-0.000896491
0.399317
-0.00107933
0.399518
-0.00129328
0.399749
-0.00154377
0.400013
-0.00183721
0.400314
-0.00218117
0.40066
-0.00258462
0.401054
-0.00305815
0.401502
-0.00361431
0.40201
-0.0042679
0.402581
-0.00503631
0.403218
-0.00593976
0.403917
-0.00700115
0.404668
-0.00824543
0.405453
-0.00969815
-0.0113821
0.406239
0.397836
-5.82997e-05
0.397716
-0.000119084
0.397603
-0.00013224
0.397513
-0.000106552
0.397442
-6.7616e-05
0.397387
-2.86895e-05
0.397347
6.61949e-06
0.397322
3.64568e-05
0.39731
5.95467e-05
0.39731
7.58394e-05
0.397319
8.61028e-05
0.397336
9.12778e-05
0.39736
9.22171e-05
0.397391
8.96451e-05
0.397427
8.41315e-05
0.397467
7.60784e-05
0.397511
6.57208e-05
0.397558
5.31386e-05
0.397609
3.82602e-05
0.397662
2.08734e-05
0.397718
6.48717e-07
0.397776
-2.28645e-05
0.397837
-5.02012e-05
0.397902
-8.20036e-05
0.39797
-0.000118927
0.398041
-0.000161854
0.398117
-0.000211806
0.398199
-0.000269939
0.398286
-0.000337607
0.398379
-0.000416409
0.398481
-0.000508248
0.398591
-0.000615371
0.398713
-0.000740415
0.398846
-0.000886469
0.398993
-0.00105715
0.399156
-0.00125667
0.399339
-0.00148998
0.399543
-0.00176284
0.399771
-0.00208198
0.400028
-0.00245528
0.400317
-0.0028919
0.40064
-0.0034025
0.401003
-0.0039994
0.401406
-0.00469673
0.401852
-0.00551055
0.402339
-0.00645877
0.402863
-0.00756078
0.403415
-0.00883667
0.403979
-0.010306
-0.0119857
0.404535
0.397867
-2.75527e-05
0.397797
-6.3253e-05
0.397729
-7.85024e-05
0.39768
-7.12895e-05
0.397652
-5.31905e-05
0.397642
-3.2696e-05
0.397648
-1.31041e-05
0.397666
4.16055e-06
0.397693
1.80789e-05
0.397726
2.81914e-05
0.397763
3.45742e-05
0.397802
3.75478e-05
0.397842
3.74642e-05
0.397883
3.46387e-05
0.397923
2.93208e-05
0.397962
2.16792e-05
0.398001
1.17782e-05
0.39804
-4.28512e-07
0.398079
-1.50975e-05
0.398118
-3.24964e-05
0.398157
-5.29921e-05
0.398197
-7.70908e-05
0.398238
-0.000105368
0.39828
-0.000138479
0.398324
-0.000177174
0.398371
-0.000222359
0.398421
-0.000275095
0.398474
-0.00033661
0.398531
-0.000408341
0.398594
-0.000491979
0.398662
-0.000589527
0.398737
-0.000703346
0.39882
-0.000836213
0.398912
-0.000991372
0.399014
-0.00117261
0.399127
-0.00138433
0.399255
-0.00163168
0.399397
-0.00192059
0.399557
-0.00225799
0.399737
-0.00265186
0.399937
-0.0031114
0.400161
-0.00364713
0.40041
-0.00427099
0.400685
-0.0049964
0.400984
-0.00583822
0.401305
-0.00681243
0.401645
-0.00793573
0.401993
-0.0092247
0.402338
-0.0106943
-0.0123567
0.402661
0.397878
-8.50434e-06
0.397827
-2.59541e-05
0.397771
-3.68341e-05
0.397722
-3.60352e-05
0.397684
-2.84069e-05
0.397655
-1.84587e-05
0.397637
-8.64964e-06
0.397627
-2.41132e-07
0.397625
5.93494e-06
0.39763
9.4289e-06
0.397639
1.01635e-05
0.397654
8.28132e-06
0.397673
3.99727e-06
0.397695
-2.48129e-06
0.397721
-1.0992e-05
0.397749
-2.14445e-05
0.39778
-3.3838e-05
0.397813
-4.82785e-05
0.397848
-6.49792e-05
0.397885
-8.42581e-05
0.397925
-0.000106541
0.397965
-0.000132355
0.398008
-0.000162314
0.398053
-0.000197123
0.398099
-0.000237599
0.398148
-0.000284691
0.398199
-0.000339506
0.398252
-0.000403325
0.398308
-0.000477649
0.398367
-0.000564238
0.39843
-0.00066517
0.398496
-0.000782888
0.398567
-0.000920255
0.398643
-0.00108061
0.398725
-0.00126783
0.398813
-0.00148642
0.398909
-0.0017416
0.399013
-0.00203941
0.399125
-0.0023868
0.399248
-0.00279176
0.399381
-0.00326339
0.399526
-0.00381199
0.399681
-0.00444913
0.399847
-0.00518759
0.400021
-0.00604125
0.400202
-0.00702475
0.400384
-0.00815302
0.40056
-0.00944053
0.400722
-0.0109
-0.0125423
0.40086
0.397883
5.58914e-06
0.397841
2.4505e-06
0.397794
-3.77314e-06
0.397751
-7.37532e-06
0.397718
-9.29797e-06
0.397697
-1.04706e-05
0.397686
-1.16327e-05
0.397684
-1.33312e-05
0.397692
-1.5942e-05
0.397707
-1.96892e-05
0.397727
-2.4681e-05
0.397752
-3.09575e-05
0.397779
-3.8523e-05
0.39781
-4.73831e-05
0.397841
-5.75702e-05
0.397874
-6.91694e-05
0.397908
-8.23257e-05
0.397942
-9.72578e-05
0.397977
-0.00011427
0.398012
-0.000133752
0.398047
-0.000156178
0.398083
-0.000182107
0.398118
-0.000212179
0.398154
-0.000247127
0.39819
-0.000287793
0.398227
-0.000335142
0.398264
-0.000390293
0.398302
-0.000454541
0.39834
-0.000529403
0.39838
-0.000616659
0.39842
-0.000718405
0.398461
-0.000837099
0.398504
-0.000975617
0.398547
-0.0011373
0.398592
-0.00132604
0.398638
-0.00154633
0.398685
-0.00180338
0.398734
-0.00210318
0.398784
-0.00245262
0.398834
-0.00285959
0.398885
-0.00333301
0.398935
-0.00388295
0.398984
-0.00452063
0.39903
-0.00525836
0.399069
-0.00610938
0.3991
-0.00708751
0.399119
-0.00820669
0.399119
-0.00948013
0.399094
-0.0109194
-0.0125335
0.399038
0.397883
1.96001e-05
0.397841
3.08201e-05
0.397794
2.93708e-05
0.397751
2.14033e-05
0.397718
9.94345e-06
0.397696
-2.33455e-06
0.397685
-1.44411e-05
0.397684
-2.61983e-05
0.397691
-3.75172e-05
0.397705
-4.83927e-05
0.397725
-5.89637e-05
0.397749
-6.94499e-05
0.397775
-8.00786e-05
0.397804
-9.10719e-05
0.397835
-0.000102659
0.397866
-0.000115091
0.397897
-0.000128653
0.397929
-0.000143675
0.397961
-0.000160546
0.397992
-0.000179716
0.398023
-0.000201698
0.398054
-0.000227072
0.398084
-0.000256494
0.398114
-0.000290704
0.398143
-0.000330544
0.398171
-0.000376972
0.398198
-0.000431093
0.398224
-0.000494186
0.398249
-0.000567748
0.398273
-0.000653537
0.398295
-0.000753618
0.398316