/*--------------------------------*- C++ -*----------------------------------*\
  =========                 |
  \\      /  F ield         | OpenFOAM: The Open Source CFD Toolbox
   \\    /   O peration     | Website:  https://openfoam.org
    \\  /    A nd           | Version:  8
     \\/     M anipulation  |
\*---------------------------------------------------------------------------*/
FoamFile
{
    version     2.0;
    format      ascii;
    class       volScalarField;
    location    "900";
    object      T;
}
// * * * * * * * * * * * * * * * * * * * * * * * * * * * * * * * * * * * * * //

dimensions      [0 0 0 1 0 0 0];

internalField   nonuniform List<scalar> 
8400
(
300.366
300.364
300.369
300.372
300.376
300.38
300.384
300.388
300.392
300.395
300.399
300.403
300.406
300.409
300.412
300.414
300.416
300.417
300.418
300.418
300.418
300.417
300.416
300.413
300.41
300.407
300.402
300.397
300.391
300.384
300.376
300.367
300.357
300.347
300.336
300.323
300.311
300.297
300.283
300.268
300.252
300.236
300.22
300.204
300.188
300.173
300.159
300.147
300.138
300.131
300.422
300.418
300.42
300.421
300.422
300.424
300.425
300.426
300.428
300.429
300.431
300.432
300.433
300.434
300.435
300.436
300.436
300.436
300.436
300.435
300.434
300.433
300.431
300.429
300.426
300.423
300.419
300.414
300.409
300.404
300.397
300.391
300.383
300.375
300.366
300.357
300.347
300.337
300.326
300.314
300.302
300.29
300.277
300.264
300.252
300.239
300.228
300.218
300.21
300.204
300.379
300.373
300.373
300.373
300.373
300.372
300.372
300.372
300.372
300.372
300.372
300.372
300.372
300.372
300.372
300.372
300.372
300.371
300.371
300.37
300.369
300.367
300.366
300.364
300.362
300.359
300.356
300.353
300.35
300.346
300.342
300.337
300.332
300.326
300.321
300.314
300.308
300.301
300.294
300.286
300.278
300.27
300.262
300.254
300.246
300.239
300.232
300.227
300.223
300.222
300.289
300.283
300.283
300.282
300.281
300.281
300.28
300.28
300.279
300.279
300.279
300.278
300.278
300.278
300.278
300.277
300.277
300.277
300.276
300.276
300.275
300.274
300.273
300.272
300.271
300.269
300.268
300.266
300.264
300.262
300.259
300.256
300.254
300.25
300.247
300.244
300.24
300.236
300.232
300.228
300.224
300.22
300.216
300.212
300.209
300.207
300.205
300.206
300.208
300.212
300.198
300.193
300.193
300.192
300.192
300.191
300.191
300.191
300.191
300.191
300.191
300.191
300.19
300.19
300.19
300.19
300.19
300.19
300.19
300.19
300.19
300.19
300.189
300.189
300.189
300.188
300.187
300.187
300.186
300.185
300.184
300.182
300.181
300.18
300.178
300.176
300.174
300.172
300.171
300.169
300.167
300.165
300.164
300.164
300.164
300.165
300.168
300.173
300.18
300.189
300.127
300.122
300.123
300.123
300.123
300.123
300.123
300.123
300.124
300.124
300.124
300.124
300.124
300.124
300.125
300.125
300.125
300.125
300.125
300.126
300.126
300.126
300.126
300.126
300.126
300.126
300.126
300.126
300.126
300.126
300.125
300.125
300.124
300.124
300.123
300.123
300.122
300.121
300.12
300.12
300.119
300.119
300.119
300.12
300.122
300.125
300.13
300.138
300.148
300.162
300.077
300.073
300.075
300.075
300.075
300.076
300.076
300.077
300.077
300.078
300.078
300.078
300.078
300.079
300.079
300.079
300.08
300.08
300.08
300.081
300.081
300.081
300.081
300.082
300.082
300.082
300.083
300.083
300.083
300.083
300.084
300.084
300.084
300.084
300.084
300.084
300.084
300.083
300.083
300.084
300.084
300.084
300.085
300.087
300.089
300.093
300.099
300.108
300.12
300.136
300.043
300.04
300.041
300.042
300.043
300.043
300.044
300.044
300.044
300.045
300.045
300.046
300.046
300.046
300.047
300.047
300.047
300.048
300.048
300.048
300.049
300.049
300.05
300.05
300.05
300.051
300.051
300.052
300.052
300.053
300.053
300.053
300.054
300.054
300.054
300.055
300.055
300.055
300.056
300.056
300.057
300.058
300.06
300.061
300.064
300.068
300.075
300.084
300.097
300.115
300.021
300.018
300.019
300.019
300.02
300.02
300.021
300.021
300.022
300.022
300.023
300.023
300.023
300.024
300.024
300.024
300.025
300.025
300.025
300.026
300.026
300.027
300.027
300.027
300.028
300.028
300.029
300.029
300.03
300.03
300.031
300.031
300.032
300.032
300.033
300.034
300.034
300.035
300.036
300.037
300.038
300.039
300.04
300.042
300.045
300.049
300.056
300.066
300.08
300.1
300.008
300.006
300.006
300.007
300.007
300.008
300.008
300.009
300.009
300.01
300.01
300.01
300.011
300.011
300.011
300.012
300.012
300.012
300.013
300.013
300.013
300.013
300.014
300.014
300.014
300.015
300.015
300.015
300.016
300.016
300.017
300.017
300.018
300.018
300.019
300.019
300.02
300.021
300.022
300.023
300.024
300.025
300.027
300.029
300.032
300.036
300.043
300.054
300.071
300.094
300.002
300.003
300.003
300.004
300.004
300.004
300.005
300.005
300.006
300.006
300.006
300.006
300.007
300.007
300.007
300.007
300.007
300.008
300.008
300.008
300.008
300.008
300.008
300.008
300.009
300.009
300.009
300.009
300.009
300.009
300.009
300.009
300.009
300.01
300.01
300.011
300.011
300.012
300.013
300.014
300.015
300.016
300.018
300.02
300.024
300.029
300.037
300.05
300.069
300.096
300.005
300.006
300.006
300.006
300.007
300.007
300.007
300.008
300.008
300.008
300.009
300.009
300.009
300.01
300.01
300.01
300.01
300.01
300.011
300.011
300.011
300.011
300.012
300.012
300.012
300.012
300.012
300.012
300.012
300.012
300.013
300.013
300.013
300.013
300.013
300.013
300.013
300.014
300.014
300.014
300.014
300.015
300.016
300.018
300.022
300.027
300.037
300.052
300.076
300.109
300.004
300.005
300.005
300.006
300.007
300.007
300.008
300.009
300.009
300.01
300.011
300.011
300.012
300.013
300.013
300.014
300.015
300.015
300.016
300.016
300.017
300.017
300.018
300.018
300.019
300.019
300.02
300.02
300.021
300.021
300.021
300.022
300.022
300.021
300.021
300.021
300.02
300.019
300.018
300.017
300.016
300.016
300.016
300.018
300.022
300.028
300.041
300.061
300.092
300.134
300.014
300.016
300.018
300.02
300.021
300.023
300.024
300.025
300.027
300.028
300.028
300.029
300.03
300.031
300.032
300.032
300.033
300.033
300.034
300.034
300.035
300.035
300.036
300.036
300.036
300.036
300.036
300.036
300.036
300.035
300.034
300.033
300.032
300.031
300.029
300.027
300.025
300.023
300.021
300.019
300.018
300.018
300.019
300.021
300.025
300.035
300.053
300.084
300.127
300.18
300.005
300.004
300.003
300.002
300.002
300.002
300.002
300.002
300.002
300.003
300.003
300.003
300.004
300.004
300.005
300.006
300.006
300.007
300.007
300.008
300.009
300.009
300.01
300.011
300.011
300.012
300.013
300.013
300.014
300.015
300.015
300.016
300.017
300.018
300.019
300.021
300.022
300.024
300.025
300.027
300.027
300.028
300.027
300.029
300.035
300.052
300.084
300.132
300.192
300.257
300.026
300.032
300.037
300.042
300.047
300.052
300.056
300.059
300.063
300.066
300.069
300.072
300.074
300.077
300.079
300.081
300.084
300.086
300.088
300.09
300.092
300.094
300.096
300.098
300.1
300.102
300.104
300.105
300.107
300.108
300.109
300.109
300.11
300.109
300.107
300.105
300.1
300.094
300.086
300.075
300.062
300.049
300.04
300.039
300.055
300.094
300.156
300.233
300.312
300.386
300.003
299.999
299.994
299.99
299.988
299.986
299.984
299.983
299.982
299.981
299.979
299.978
299.977
299.977
299.976
299.975
299.975
299.974
299.974
299.973
299.973
299.972
299.971
299.971
299.97
299.969
299.968
299.966
299.965
299.963
299.961
299.959
299.956
299.954
299.951
299.948
299.946
299.945
299.946
299.951
299.963
299.983
300.017
300.066
300.132
300.216
300.319
300.424
300.521
300.598
300.043
300.052
300.061
300.072
300.083
300.094
300.103
300.112
300.12
300.127
300.134
300.141
300.148
300.154
300.16
300.166
300.172
300.178
300.183
300.189
300.194
300.2
300.205
300.21
300.216
300.223
300.229
300.236
300.244
300.252
300.261
300.27
300.28
300.292
300.304
300.318
300.333
300.35
300.37
300.392
300.415
300.439
300.461
300.477
300.482
300.475
300.577
300.713
300.858
300.958
299.999
299.996
299.993
299.99
299.988
299.985
299.983
299.98
299.978
299.976
299.974
299.971
299.969
299.968
299.966
299.965
299.963
299.962
299.961
299.959
299.957
299.954
299.952
299.949
299.946
299.942
299.939
299.934
299.93
299.924
299.918
299.911
299.901
299.89
299.876
299.859
299.836
299.808
299.773
299.727
299.669
299.594
299.496
299.366
299.18
298.927
300.318
301.299
301.705
301.847
301.43
301.416
301.412
301.412
301.411
301.409
301.409
301.409
301.41
301.412
301.415
301.418
301.422
301.426
301.43
301.435
301.439
301.444
301.45
301.456
301.461
301.467
301.471
301.475
301.478
301.479
301.48
301.479
301.477
301.472
301.465
301.456
301.443
301.427
301.407
301.382
301.351
301.314
301.271
301.221
301.165
301.107
301.053
301.016
301.021
301.116
301.423
301.8
302.027
302.122
303.147
303.143
303.139
303.135
303.131
303.127
303.123
303.12
303.116
303.112
303.109
303.105
303.102
303.098
303.095
303.092
303.088
303.085
303.082
303.079
303.075
303.072
303.069
303.066
303.063
303.06
303.057
303.054
303.051
303.048
303.045
303.043
303.04
303.037
303.034
303.032
303.029
303.026
303.024
303.021
303.018
303.016
303.013
303.011
303.009
303.007
303.004
303.003
303.001
303
303.15
303.15
303.15
303.15
303.15
303.149
303.149
303.149
303.149
303.149
303.148
303.148
303.148
303.147
303.147
303.147
303.146
303.146
303.146
303.145
303.145
303.144
303.144
303.143
303.143
303.142
303.142
303.141
303.141
303.141
303.14
303.14
303.139
303.139
303.138
303.138
303.137
303.137
303.136
303.136
303.135
303.135
303.135
303.134
303.134
303.133
303.133
303.133
303.133
303.132
303.15
303.15
303.15
303.15
303.15
303.15
303.15
303.15
303.15
303.15
303.15
303.15
303.15
303.15
303.15
303.15
303.15
303.15
303.15
303.15
303.15
303.15
303.15
303.15
303.15
303.15
303.15
303.15
303.149
303.149
303.149
303.149
303.149
303.149
303.149
303.149
303.149
303.149
303.149
303.149
303.149
303.149
303.149
303.149
303.149
303.149
303.149
303.149
303.149
303.149
303.15
303.15
303.15
303.15
303.15
303.15
303.15
303.15
303.15
303.15
303.15
303.15
303.15
303.15
303.15
303.15
303.15
303.15
303.15
303.15
303.15
303.15
303.15
303.15
303.15
303.15
303.15
303.15
303.15
303.15
303.15
303.15
303.15
303.15
303.15
303.15
303.15
303.15
303.15
303.15
303.15
303.15
303.15
303.15
303.15
303.15
303.15
303.15
303.15
303.15
303.15
303.15
303.15
303.15
303.15
303.15
303.15
303.15
303.15
303.15
303.15
303.15
303.15
303.15
303.15
303.15
303.15
303.15
303.15
303.15
303.15
303.15
303.15
303.15
303.15
303.15
303.15
303.15
303.15
303.15
303.15
303.15
303.15
303.15
303.15
303.15
303.15
303.15
303.15
303.15
303.15
303.15
303.15
303.15
303.15
303.15
303.15
303.15
303.15
303.15
303.15
303.15
303.15
303.15
303.15
303.15
303.15
303.15
303.15
303.15
303.15
303.15
303.15
303.15
303.15
303.15
303.15
303.15
303.15
303.15
303.15
303.15
303.15
303.15
303.15
303.15
303.15
303.15
303.15
303.15
303.15
303.15
303.15
303.15
303.15
303.15
303.15
303.15
303.15
303.15
303.15
303.15
303.15
303.15
303.15
303.15
303.15
303.15
303.15
303.15
303.15
303.15
303.15
303.15
303.15
303.15
303.15
303.15
303.15
303.15
303.15
303.15
303.15
303.15
303.15
303.15
303.15
303.15
303.15
303.15
303.15
303.15
303.15
303.15
303.15
303.15
303.15
303.15
303.15
303.15
303.15
303.15
303.15
303.15
303.15
303.15
303.15
303.15
303.15
303.15
303.15
303.15
303.15
303.15
303.15
303.15
303.15
303.15
303.15
303.15
303.15
303.15
303.15
303.15
303.15
303.15
303.15
303.15
303.15
303.15
303.15
303.15
303.15
303.15
303.15
303.15
303.15
303.15
303.15
303.15
303.15
303.15
303.15
303.15
303.15
303.15
303.15
303.15
303.15
303.15
303.15
303.15
303.15
303.15
303.15
303.15
303.15
303.15
303.15
303.15
303.15
303.15
303.15
303.15
303.15
303.15
303.15
303.15
303.15
303.15
303.15
303.15
303.15
303.15
303.15
303.15
303.15
303.15
303.15
303.15
303.15
303.15
303.15
303.15
303.15
303.15
303.15
303.15
303.15
303.15
303.15
303.15
303.15
303.15
303.15
303.15
303.15
303.15
303.15
303.15
303.15
303.15
303.15
303.15
303.15
303.15
303.15
303.15
303.15
303.15
303.15
303.15
303.15
303.15
303.15
303.15
303.15
303.15
303.15
303.15
303.15
303.15
303.15
303.15
303.15
303.15
303.15
303.15
303.15
303.15
303.15
303.15
303.15
303.15
303.15
303.15
303.15
303.15
303.15
303.15
303.15
303.15
303.15
303.15
303.15
303.15
303.15
303.15
303.15
303.15
303.15
303.15
303.15
303.15
303.15
303.15
303.15
303.15
303.15
303.15
303.15
303.15
303.15
303.15
303.15
303.15
303.15
303.15
303.15
303.15
303.15
303.15
303.15
303.15
303.15
303.15
303.15
303.15
303.15
303.15
303.15
303.15
303.15
303.15
303.15
303.15
303.15
303.15
303.15
303.15
303.15
303.15
303.15
303.15
303.15
303.15
303.15
303.15
303.15
303.15
303.15
303.15
303.15
303.15
303.15
303.15
303.15
303.15
303.15
303.15
303.15
303.15
303.15
303.15
303.15
303.15
303.15
303.15
303.15
303.15
303.15
303.15
303.15
303.15
303.15
303.15
303.15
303.15
303.15
303.15
303.15
303.15
303.15
303.15
303.15
303.15
303.15
303.15
303.15
303.15
303.15
303.15
303.15
303.15
303.15
303.15
303.15
303.15
303.15
303.15
303.15
303.15
303.15
303.15
303.15
303.15
303.15
303.15
303.15
303.15
303.15
303.15
303.15
303.15
303.15
303.15
303.15
303.15
303.15
303.15
303.15
303.15
303.15
303.15
303.15
303.15
303.15
303.15
303.15
303.15
303.15
303.15
303.15
303.15
303.15
303.15
303.15
303.15
303.15
303.15
303.15
303.15
303.15
303.15
303.15
303.15
303.15
303.15
303.15
303.15
303.15
303.15
303.15
303.15
303.15
303.15
303.15
303.15
303.15
303.15
303.15
303.15
303.15
303.15
303.15
303.15
303.15
303.15
303.15
303.15
303.15
303.15
303.15
303.15
303.15
303.15
303.15
303.15
303.15
303.15
303.15
303.15
303.15
303.15
303.15
303.15
303.15
303.15
303.15
303.15
303.15
303.15
303.15
303.15
303.15
303.15
303.15
303.15
303.15
303.15
303.15
303.15
303.15
303.15
303.15
303.15
303.15
303.15
303.15
303.15
303.15
303.15
303.15
303.15
303.15
303.15
303.15
303.15
303.15
303.15
303.15
303.15
303.15
303.15
303.15
303.15
303.15
303.15
303.15
303.15
303.15
303.15
303.15
303.15
303.15
303.15
303.15
303.15
303.15
303.15
303.15
303.15
303.15
303.15
303.15
303.15
303.15
303.15
303.15
303.15
303.15
303.15
303.15
303.15
303.15
303.15
303.15
303.15
303.15
303.15
303.15
303.15
303.15
303.15
303.15
303.15
303.15
303.15
303.15
303.15
303.15
303.15
303.15
303.15
303.15
303.15
303.15
303.15
303.15
303.15
303.15
303.15
303.15
303.15
303.15
303.15
303.15
303.15
303.15
303.15
303.15
303.15
303.15
303.15
303.15
303.15
303.15
303.15
303.15
303.15
303.15
303.15
303.15
303.15
303.15
303.15
303.15
303.15
303.15
303.15
303.15
303.15
303.15
303.15
303.15
303.15
303.15
303.15
303.15
303.15
303.15
303.15
303.15
303.15
303.15
303.15
303.15
303.15
303.15
303.15
303.15
303.15
303.15
303.15
303.15
303.15
303.15
303.15
303.15
303.15
303.15
303.15
303.15
303.15
303.15
303.15
303.15
303.15
303.15
303.15
303.15
303.15
303.15
303.15
303.15
303.15
303.15
303.15
303.15
303.15
303.15
303.15
303.15
303.15
303.15
303.15
303.15
303.15
303.15
303.15
303.15
303.15
303.15
303.15
303.15
303.15
303.15
303.15
303.15
303.15
303.15
303.15
303.15
303.15
303.15
303.15
303.15
303.15
303.15
303.15
303.15
303.15
303.15
303.15
303.15
303.15
303.15
303.149
303.149
303.149
303.149
303.149
303.149
303.149
303.149
303.149
303.149
303.149
303.149
303.149
303.149
303.149
303.148
303.148
303.148
303.148
303.148
303.147
303.147
303.147
303.15
303.15
303.15
303.15
303.15
303.149
303.149
303.149
303.149
303.149
303.148
303.148
303.148
303.147
303.147
303.147
303.146
303.146
303.145
303.145
303.145
303.144
303.144
303.143
303.143
303.142
303.142
303.141
303.141
303.14
303.14
303.139
303.139
303.138
303.138
303.137
303.136
303.136
303.135
303.134
303.134
303.133
303.132
303.131
303.13
303.129
303.128
303.127
303.126
303.124
303.147
303.143
303.139
303.135
303.131
303.127
303.123
303.12
303.116
303.112
303.109
303.105
303.102
303.098
303.095
303.092
303.088
303.085
303.082
303.079
303.075
303.072
303.069
303.066
303.063
303.06
303.057
303.054
303.051
303.048
303.045
303.043
303.04
303.037
303.034
303.031
303.029
303.026
303.023
303.021
303.018
303.015
303.013
303.01
303.008
303.005
303.002
303
302.997
302.995
303.033
303.126
303.098
302.983
302.77
302.456
302.078
301.703
301.393
301.172
301.034
300.983
300.979
300.966
300.928
300.883
300.797
300.621
300.408
300.301
303.035
303.126
303.094
302.974
302.753
302.43
302.047
301.671
301.365
301.149
301.014
300.964
300.958
300.939
300.895
300.839
300.749
300.586
300.398
300.305
303.036
303.125
303.09
302.963
302.734
302.403
302.015
301.639
301.337
301.125
300.993
300.946
300.941
300.921
300.873
300.811
300.719
300.566
300.393
300.308
303.037
303.124
303.085
302.952
302.714
302.375
301.982
301.606
301.308
301.102
300.973
300.927
300.923
300.903
300.851
300.784
300.691
300.546
300.389
300.311
303.038
303.124
303.08
302.941
302.693
302.346
301.948
301.572
301.279
301.078
300.953
300.909
300.905
300.885
300.83
300.758
300.664
300.528
300.384
300.314
303.039
303.123
303.075
302.928
302.672
302.315
301.913
301.539
301.251
301.055
300.934
300.891
300.888
300.867
300.81
300.733
300.638
300.51
300.38
300.318
303.04
303.122
303.069
302.915
302.649
302.284
301.877
301.505
301.222
301.033
300.915
300.873
300.87
300.849
300.789
300.709
300.614
300.494
300.377
300.321
303.041
303.121
303.063
302.901
302.625
302.252
301.841
301.471
301.194
301.011
300.896
300.856
300.852
300.831
300.77
300.686
300.592
300.48
300.375
300.325
303.042
303.119
303.057
302.887
302.601
302.218
301.804
301.436
301.166
300.989
300.877
300.839
300.835
300.814
300.751
300.665
300.571
300.467
300.373
300.33
303.044
303.118
303.05
302.872
302.575
302.184
301.767
301.402
301.139
300.968
300.859
300.822
300.818
300.796
300.732
300.644
300.552
300.455
300.371
300.334
303.045
303.116
303.043
302.856
302.549
302.149
301.729
301.368
301.112
300.947
300.842
300.806
300.801
300.779
300.714
300.625
300.534
300.445
300.371
300.339
303.046
303.114
303.036
302.839
302.521
302.114
301.691
301.335
301.086
300.927
300.825
300.79
300.785
300.762
300.696
300.607
300.518
300.436
300.371
300.344
303.047
303.113
303.028
302.822
302.493
302.077
301.653
301.301
301.06
300.907
300.808
300.775
300.769
300.745
300.679
300.59
300.504
300.428
300.371
300.35
303.047
303.11
303.019
302.804
302.464
302.04
301.615
301.268
301.034
300.888
300.792
300.76
300.753
300.728
300.662
300.573
300.491
300.422
300.373
300.355
303.048
303.108
303.011
302.785
302.434
302.003
301.577
301.235
301.01
300.87
300.776
300.745
300.738
300.712
300.645
300.558
300.479
300.417
300.375
300.361
303.049
303.106
303.001
302.765
302.403
301.965
301.538
301.203
300.986
300.852
300.76
300.731
300.723
300.696
300.629
300.544
300.469
300.413
300.377
300.367
303.05
303.103
302.992
302.745
302.371
301.926
301.5
301.172
300.963
300.834
300.745
300.717
300.709
300.68
300.613
300.531
300.461
300.41
300.38
300.373
303.051
303.1
302.982
302.724
302.339
301.887
301.462
301.141
300.94
300.817
300.73
300.703
300.695
300.664
300.598
300.519
300.453
300.409
300.384
300.38
303.051
303.097
302.971
302.702
302.306
301.848
301.424
301.11
300.918
300.801
300.715
300.69
300.681
300.649
300.583
300.507
300.447
300.408
300.388
300.386
303.052
303.094
302.96
302.68
302.273
301.809
301.387
301.081
300.897
300.785
300.7
300.676
300.667
300.634
300.569
300.497
300.442
300.409
300.392
300.393
303.053
303.091
302.948
302.657
302.239
301.769
301.35
301.052
300.877
300.769
300.685
300.663
300.654
300.619
300.556
300.488
300.438
300.41
300.397
300.399
303.053
303.087
302.936
302.633
302.204
301.73
301.314
301.024
300.857
300.754
300.671
300.65
300.641
300.605
300.543
300.48
300.436
300.412
300.402
300.406
303.054
303.083
302.924
302.609
302.17
301.691
301.279
300.997
300.838
300.739
300.656
300.636
300.628
300.591
300.53
300.472
300.434
300.415
300.407
300.412
303.054
303.079
302.911
302.584
302.135
301.652
301.244
300.971
300.82
300.725
300.642
300.623
300.615
300.577
300.519
300.466
300.433
300.418
300.412
300.419
303.054
303.075
302.898
302.559
302.1
301.614
301.211
300.947
300.803
300.711
300.628
300.61
300.602
300.563
300.508
300.461
300.433
300.422
300.418
300.425
303.054
303.071
302.884
302.534
302.065
301.577
301.179
300.924
300.786
300.698
300.615
300.596
300.589
300.55
300.498
300.457
300.434
300.426
300.423
300.431
303.054
303.066
302.87
302.508
302.03
301.54
301.148
300.902
300.771
300.686
300.603
300.584
300.577
300.537
300.489
300.454
300.435
300.43
300.429
300.437
303.054
303.061
302.855
302.482
301.995
301.505
301.119
300.881
300.757
300.674
300.592
300.57
300.564
300.525
300.482
300.452
300.438
300.434
300.434
300.443
303.054
303.055
302.841
302.456
301.962
301.471
301.092
300.862
300.744
300.663
300.582
300.555
300.552
300.514
300.475
300.451
300.44
300.439
300.44
300.448
303.054
303.049
302.825
302.43
301.929
301.439
301.066
300.845
300.732
300.654
300.573
300.535
300.54
300.504
300.47
300.451
300.443
300.444
300.445
300.453
303.054
303.043
302.81
302.404
301.897
301.408
301.043
300.829
300.72
300.645
300.567
300.508
300.529
300.495
300.467
300.452
300.447
300.448
300.45
300.458
303.053
303.037
302.794
302.378
301.866
301.38
301.022
300.815
300.71
300.637
300.562
300.506
300.519
300.489
300.465
300.453
300.45
300.453
300.454
300.462
303.053
303.031
302.779
302.353
301.836
301.353
301.002
300.802
300.701
300.63
300.558
300.504
300.51
300.484
300.464
300.455
300.454
300.457
300.459
300.467
303.052
303.025
302.764
302.329
301.808
301.328
300.983
300.79
300.692
300.624
300.555
300.501
300.502
300.48
300.464
300.458
300.458
300.462
300.464
300.471
303.051
303.018
302.749
302.307
301.782
301.304
300.966
300.778
300.684
300.618
300.553
300.5
300.496
300.478
300.465
300.461
300.463
300.466
300.468
300.475
303.05
303.012
302.735
302.285
301.757
301.282
300.95
300.767
300.676
300.613
300.551
300.5
300.492
300.478
300.467
300.465
300.467
300.47
300.472
300.478
303.05
303.007
302.722
302.265
301.735
301.262
300.935
300.757
300.668
300.608
300.55
300.501
300.49
300.479
300.47
300.469
300.471
300.475
300.476
300.482
303.049
303.001
302.71
302.247
301.714
301.244
300.922
300.747
300.661
300.604
300.549
300.503
300.49
300.481
300.474
300.473
300.475
300.479
300.48
300.485
303.048
302.997
302.699
302.231
301.696
301.228
300.91
300.739
300.655
300.6
300.549
300.505
300.491
300.484
300.478
300.477
300.48
300.482
300.485
300.488
303.047
302.992
302.69
302.217
301.681
301.215
300.899
300.731
300.649
300.597
300.549
300.509
300.493
300.487
300.482
300.481
300.484
300.486
300.489
300.49
303.047
302.989
302.683
302.207
301.669
301.204
300.891
300.724
300.644
300.594
300.549
300.512
300.497
300.491
300.487
300.486
300.488
300.49
300.493
300.492
303.046
302.987
302.678
302.199
301.661
301.196
300.883
300.718
300.639
300.592
300.55
300.516
300.501
300.496
300.491
300.49
300.492
300.493
300.497
300.493
303.046
302.986
302.676
302.196
301.656
301.191
300.878
300.713
300.635
300.59
300.551
300.52
300.505
300.5
300.496
300.494
300.496
300.496
300.5
300.493
303.045
302.986
302.676
302.196
301.656
301.189
300.875
300.709
300.632
300.588
300.553
300.524
300.509
300.504
300.5
300.498
300.499
300.5
300.502
300.493
303.045
302.987
302.68
302.202
301.661
301.192
300.875
300.706
300.629
300.587
300.554
300.527
300.513
300.509
300.504
300.502
300.502
300.502
300.504
300.492
303.045
302.991
302.688
302.213
301.673
301.2
300.878
300.705
300.626
300.586
300.556
300.531
300.518
300.513
300.508
300.505
300.505
300.505
300.505
300.49
303.045
302.996
302.7
302.231
301.691
301.214
300.885
300.706
300.625
300.585
300.557
300.535
300.521
300.517
300.512
300.509
300.508
300.506
300.506
300.488
303.045
303.002
302.716
302.255
301.718
301.235
300.896
300.709
300.624
300.585
300.559
300.538
300.525
300.52
300.515
300.512
300.51
300.508
300.505
300.484
303.046
303.011
302.737
302.287
301.753
301.263
300.912
300.714
300.624
300.585
300.56
300.541
300.529
300.524
300.518
300.514
300.512
300.509
300.504
300.481
303.046
303.021
302.763
302.328
301.799
301.302
300.936
300.724
300.626
300.584
300.561
300.544
300.532
300.527
300.521
300.517
300.513
300.509
300.502
300.477
303.046
303.034
302.793
302.377
301.856
301.352
300.968
300.738
300.63
300.585
300.562
300.546
300.535
300.53
300.524
300.519
300.514
300.509
300.5
300.472
303.046
303.047
302.828
302.435
301.926
301.415
301.012
300.76
300.636
300.585
300.563
300.548
300.537
300.532
300.526
300.52
300.515
300.508
300.497
300.467
303.046
303.061
302.867
302.502
302.01
301.496
301.07
300.79
300.647
300.587
300.563
300.55
300.54
300.534
300.528
300.522
300.515
300.507
300.493
300.463
303.045
303.076
302.908
302.577
302.109
301.594
301.146
300.834
300.664
300.591
300.563
300.55
300.541
300.536
300.529
300.522
300.515
300.505
300.49
300.458
303.044
303.09
302.951
302.658
302.222
301.714
301.244
300.896
300.692
300.598
300.564
300.55
300.542
300.536
300.53
300.522
300.514
300.503
300.486
300.453
303.042
303.103
302.993
302.743
302.347
301.857
301.37
300.982
300.735
300.612
300.565
300.549
300.541
300.536
300.53
300.522
300.513
300.5
300.482
300.448
303.038
303.114
303.033
302.829
302.482
302.021
301.528
301.1
300.802
300.638
300.569
300.547
300.539
300.534
300.528
300.52
300.51
300.497
300.478
300.444
303.034
303.123
303.068
302.91
302.62
302.204
301.719
301.259
300.904
300.685
300.581
300.546
300.536
300.531
300.526
300.518
300.508
300.494
300.474
300.439
303.029
303.13
303.096
302.982
302.755
302.398
301.943
301.465
301.053
300.766
300.61
300.548
300.532
300.527
300.522
300.515
300.504
300.49
300.469
300.435
303.023
303.134
303.118
303.043
302.877
302.591
302.189
301.719
301.264
300.901
300.67
300.562
300.528
300.521
300.517
300.51
300.5
300.485
300.465
300.431
303.016
303.136
303.134
303.088
302.979
302.769
302.442
302.013
301.542
301.11
300.787
300.603
300.53
300.514
300.511
300.504
300.494
300.48
300.46
300.427
303.009
303.137
303.143
303.119
303.055
302.918
302.678
302.324
301.88
301.408
300.992
300.701
300.554
300.509
300.503
300.497
300.488
300.474
300.455
300.423
303.001
303.136
303.147
303.137
303.104
303.027
302.874
302.617
302.247
301.79
301.311
300.901
300.632
300.516
300.494
300.489
300.481
300.468
300.45
300.419
302.993
303.134
303.149
303.146
303.132
303.095
303.013
302.855
302.592
302.213
301.74
301.243
300.825
300.573
300.488
300.48
300.473
300.462
300.444
300.415
302.984
303.133
303.15
303.15
303.145
303.13
303.094
303.014
302.862
302.603
302.218
301.723
301.195
300.759
300.522
300.47
300.464
300.454
300.439
300.411
302.975
303.13
303.15
303.151
303.15
303.145
303.132
303.099
303.028
302.887
302.639
302.252
301.732
301.161
300.697
300.481
300.456
300.446
300.432
300.406
302.967
303.128
303.15
303.151
303.151
303.149
303.145
303.134
303.107
303.045
302.92
302.686
302.302
301.759
301.144
300.654
300.476
300.444
300.427
300.401
302.958
303.126
303.149
303.151
303.151
303.151
303.149
303.145
303.135
303.112
303.058
302.945
302.727
302.351
301.793
301.142
300.652
300.494
300.439
300.401
302.95
303.123
303.149
303.151
303.151
303.151
303.15
303.149
303.145
303.136
303.114
303.066
302.964
302.761
302.396
301.829
301.154
300.707
300.522
300.43
302.941
303.121
303.148
303.151
303.151
303.151
303.151
303.15
303.149
303.145
303.136
303.116
303.074
302.984
302.802
302.46
301.9
301.218
300.788
300.552
302.933
303.118
303.148
303.151
303.151
303.151
303.151
303.15
303.15
303.148
303.144
303.136
303.117
303.079
303.002
302.845
302.535
301.989
301.327
300.873
302.925
303.116
303.148
303.15
303.151
303.151
303.151
303.151
303.15
303.15
303.148
303.144
303.135
303.117
303.082
303.015
302.885
302.621
302.101
301.449
302.918
303.113
303.147
303.15
303.151
303.151
303.151
303.15
303.15
303.15
303.149
303.147
303.142
303.132
303.113
303.078
303.018
302.918
302.734
302.303
302.911
303.111
303.147
303.15
303.15
303.15
303.15
303.15
303.15
303.15
303.15
303.149
303.146
303.14
303.128
303.103
303.061
302.992
302.893
302.75
302.905
303.109
303.146
303.15
303.15
303.15
303.15
303.15
303.15
303.15
303.15
303.149
303.148
303.144
303.136
303.119
303.085
303.024
302.925
302.776
302.899
303.107
303.146
303.15
303.15
303.15
303.15
303.15
303.15
303.15
303.15
303.15
303.149
303.147
303.142
303.129
303.102
303.048
302.949
302.78
302.894
303.105
303.146
303.15
303.15
303.15
303.15
303.15
303.15
303.15
303.15
303.15
303.149
303.148
303.145
303.136
303.114
303.066
302.968
302.784
302.89
303.103
303.145
303.15
303.15
303.15
303.15
303.15
303.15
303.15
303.15
303.15
303.15
303.149
303.147
303.14
303.122
303.079
302.983
302.787
302.886
303.102
303.145
303.15
303.15
303.15
303.15
303.15
303.15
303.15
303.15
303.15
303.15
303.149
303.148
303.143
303.129
303.09
302.996
302.79
302.882
303.1
303.145
303.15
303.15
303.15
303.15
303.15
303.15
303.15
303.15
303.15
303.15
303.15
303.148
303.145
303.133
303.098
303.006
302.793
302.879
303.099
303.145
303.15
303.15
303.15
303.15
303.15
303.15
303.15
303.15
303.15
303.15
303.15
303.149
303.146
303.136
303.105
303.015
302.795
302.877
303.098
303.144
303.15
303.15
303.15
303.15
303.15
303.15
303.15
303.15
303.15
303.15
303.15
303.149
303.147
303.139
303.11
303.022
302.798
302.875
303.097
303.144
303.15
303.15
303.15
303.15
303.15
303.15
303.15
303.15
303.15
303.15
303.15
303.149
303.148
303.14
303.114
303.029
302.8
302.874
303.096
303.144
303.15
303.15
303.15
303.15
303.15
303.15
303.15
303.15
303.15
303.15
303.15
303.15
303.148
303.142
303.117
303.034
302.802
302.873
303.096
303.144
303.15
303.15
303.15
303.15
303.15
303.15
303.15
303.15
303.15
303.15
303.15
303.15
303.148
303.143
303.12
303.038
302.805
302.872
303.096
303.144
303.15
303.15
303.15
303.15
303.15
303.15
303.15
303.15
303.15
303.15
303.15
303.15
303.149
303.144
303.122
303.042
302.807
302.872
303.095
303.144
303.15
303.15
303.15
303.15
303.15
303.15
303.15
303.15
303.15
303.15
303.15
303.15
303.149
303.144
303.124
303.046
302.809
302.872
303.095
303.144
303.15
303.15
303.15
303.15
303.15
303.15
303.15
303.15
303.15
303.15
303.15
303.15
303.149
303.145
303.126
303.049
302.811
302.872
303.095
303.144
303.15
303.15
303.15
303.15
303.15
303.15
303.15
303.15
303.15
303.15
303.15
303.15
303.149
303.145
303.127
303.051
302.814
302.873
303.095
303.144
303.149
303.15
303.15
303.15
303.15
303.15
303.15
303.15
303.15
303.15
303.15
303.15
303.149
303.146
303.128
303.054
302.816
302.873
303.095
303.144
303.149
303.15
303.15
303.15
303.15
303.15
303.15
303.15
303.15
303.15
303.15
303.15
303.149
303.146
303.129
303.056
302.818
302.874
303.095
303.144