/*--------------------------------*- C++ -*----------------------------------*\
  =========                 |
  \\      /  F ield         | OpenFOAM: The Open Source CFD Toolbox
   \\    /   O peration     | Website:  https://openfoam.org
    \\  /    A nd           | Version:  8
     \\/     M anipulation  |
\*---------------------------------------------------------------------------*/
FoamFile
{
    version     2.0;
    format      ascii;
    class       volVectorField;
    location    "900";
    object      U;
}
// * * * * * * * * * * * * * * * * * * * * * * * * * * * * * * * * * * * * * //

dimensions      [0 1 -1 0 0 0 0];

internalField   nonuniform List<vector> 
8400
(
(-133.788 -0.365553 1.71362e-15)
(-133.493 -0.361564 1.65995e-15)
(-133.275 -0.35678 1.60933e-15)
(-133.062 -0.350303 1.56102e-15)
(-132.862 -0.342346 1.51665e-15)
(-132.678 -0.333394 1.47642e-15)
(-132.511 -0.323986 1.43877e-15)
(-132.36 -0.314599 1.40438e-15)
(-132.225 -0.305616 1.37324e-15)
(-132.105 -0.297307 1.34447e-15)
(-131.999 -0.289856 1.31956e-15)
(-131.904 -0.283386 1.2985e-15)
(-131.818 -0.277987 1.27949e-15)
(-131.74 -0.273728 1.26303e-15)
(-131.668 -0.270655 1.24888e-15)
(-131.598 -0.268819 1.23609e-15)
(-131.529 -0.268289 1.22561e-15)
(-131.458 -0.269176 1.21713e-15)
(-131.383 -0.27163 1.20886e-15)
(-131.301 -0.275818 1.20099e-15)
(-131.209 -0.281911 1.19307e-15)
(-131.104 -0.290112 1.18674e-15)
(-130.982 -0.300698 1.18185e-15)
(-130.838 -0.314034 1.17327e-15)
(-130.668 -0.330554 1.15999e-15)
(-130.468 -0.350731 1.14714e-15)
(-130.23 -0.375057 1.13587e-15)
(-129.948 -0.404079 1.1215e-15)
(-129.613 -0.438427 1.10018e-15)
(-129.216 -0.478836 1.07716e-15)
(-128.747 -0.526155 1.0512e-15)
(-128.193 -0.58137 1.02036e-15)
(-127.542 -0.645608 9.84737e-16)
(-126.778 -0.720136 9.43305e-16)
(-125.884 -0.806352 8.95791e-16)
(-124.84 -0.905828 8.44323e-16)
(-123.624 -1.02038 7.89065e-16)
(-122.21 -1.15208 7.31085e-16)
(-120.569 -1.30334 6.71203e-16)
(-118.671 -1.47681 6.09688e-16)
(-116.48 -1.67543 5.46934e-16)
(-113.955 -1.90239 4.84722e-16)
(-111.052 -2.16109 4.23083e-16)
(-107.725 -2.45514 3.60595e-16)
(-103.92 -2.78836 2.98145e-16)
(-99.5865 -3.16476 2.37092e-16)
(-94.6833 -3.58746 1.76909e-16)
(-89.1677 -4.05653 1.1485e-16)
(-82.928 -4.57352 5.15031e-17)
(-75.7543 -5.16395 -1.58678e-17)
(-125.666 -0.103592 2.25704e-15)
(-125.342 -0.0991598 2.20163e-15)
(-125.099 -0.0878812 2.14714e-15)
(-124.859 -0.0706185 2.09307e-15)
(-124.634 -0.0491218 2.0401e-15)
(-124.424 -0.0252333 1.98845e-15)
(-124.232 -0.000653643 1.93721e-15)
(-124.056 0.0232311 1.88669e-15)
(-123.896 0.0453959 1.83678e-15)
(-123.751 0.0651656 1.78704e-15)
(-123.619 0.082132 1.73838e-15)
(-123.497 0.0960722 1.69086e-15)
(-123.385 0.106874 1.6435e-15)
(-123.28 0.114487 1.59667e-15)
(-123.18 0.118893 1.55032e-15)
(-123.082 0.120054 1.50396e-15)
(-122.986 0.117874 1.45842e-15)
(-122.887 0.112174 1.41372e-15)
(-122.785 0.102701 1.36889e-15)
(-122.676 0.0891559 1.32425e-15)
(-122.558 0.071176 1.27974e-15)
(-122.427 0.0482762 1.23535e-15)
(-122.28 0.0197916 1.19488e-15)
(-122.114 -0.015122 1.1578e-15)
(-121.923 -0.0574322 1.11839e-15)
(-121.703 -0.108181 1.07527e-15)
(-121.449 -0.168497 1.04009e-15)
(-121.153 -0.23967 1.00956e-15)
(-120.808 -0.323204 9.76234e-16)
(-120.405 -0.42085 9.44411e-16)
(-119.935 -0.534623 9.15052e-16)
(-119.386 -0.666812 8.85632e-16)
(-118.747 -0.819974 8.54822e-16)
(-118.003 -0.996923 8.21637e-16)
(-117.137 -1.20077 7.85365e-16)
(-116.133 -1.43502 7.47681e-16)
(-114.968 -1.70369 7.09001e-16)
(-113.621 -2.01129 6.70544e-16)
(-112.065 -2.36289 6.34428e-16)
(-110.269 -2.76398 6.00467e-16)
(-108.203 -3.22045 5.69398e-16)
(-105.828 -3.73846 5.43324e-16)
(-103.105 -4.32417 5.22054e-16)
(-99.9903 -4.98333 5.06736e-16)
(-96.4361 -5.72095 4.97527e-16)
(-92.3963 -6.54061 4.92302e-16)
(-87.8328 -7.44113 4.93543e-16)
(-82.7102 -8.41025 4.99098e-16)
(-76.9461 -9.42933 5.06869e-16)
(-70.3704 -10.513 5.17263e-16)
(-114.44 -0.852289 2.32132e-15)
(-114.076 -0.844668 2.26989e-15)
(-113.81 -0.824572 2.21791e-15)
(-113.55 -0.794021 2.16483e-15)
(-113.306 -0.756107 2.1116e-15)
(-113.08 -0.714091 2.05831e-15)
(-112.872 -0.670862 2.00394e-15)
(-112.68 -0.628685 1.94896e-15)
(-112.505 -0.589174 1.89347e-15)
(-112.344 -0.553381 1.83707e-15)
(-112.195 -0.521939 1.78082e-15)
(-112.056 -0.495206 1.72492e-15)
(-111.925 -0.473379 1.66844e-15)
(-111.801 -0.456569 1.61178e-15)
(-111.681 -0.444887 1.55499e-15)
(-111.564 -0.438487 1.49766e-15)
(-111.446 -0.437611 1.44079e-15)
(-111.328 -0.442583 1.38459e-15)
(-111.205 -0.453809 1.32817e-15)
(-111.076 -0.471815 1.27191e-15)
(-110.939 -0.497302 1.21581e-15)
(-110.79 -0.531213 1.16002e-15)
(-110.626 -0.574728 1.10533e-15)
(-110.445 -0.629217 1.05735e-15)
(-110.242 -0.696192 1.01109e-15)
(-110.012 -0.777318 9.56969e-16)
(-109.751 -0.874485 9.08931e-16)
(-109.453 -0.989897 8.70511e-16)
(-109.11 -1.12613 8.32835e-16)
(-108.714 -1.28618 7.97084e-16)
(-108.258 -1.4734 7.64988e-16)
(-107.731 -1.69155 7.35485e-16)
(-107.122 -1.94478 7.06176e-16)
(-106.417 -2.23764 6.75348e-16)
(-105.603 -2.57524 6.41239e-16)
(-104.663 -2.96338 6.03898e-16)
(-103.578 -3.40865 5.6362e-16)
(-102.328 -3.9184 5.21552e-16)
(-100.888 -4.50073 4.79734e-16)
(-99.233 -5.1645 4.39811e-16)
(-97.3324 -5.91929 4.03659e-16)
(-95.1536 -6.77517 3.7274e-16)
(-92.6604 -7.74218 3.49e-16)
(-89.813 -8.82966 3.33555e-16)
(-86.5689 -10.0454 3.27952e-16)
(-82.8852 -11.394 3.30595e-16)
(-78.7243 -12.8725 3.43427e-16)
(-74.0497 -14.4617 3.65343e-16)
(-68.791 -16.1247 3.9492e-16)
(-62.8078 -17.8314 4.327e-16)
(-100.865 -0.698969 1.4634e-15)
(-100.48 -0.688031 1.42562e-15)
(-100.193 -0.656899 1.38768e-15)
(-99.9133 -0.610595 1.34899e-15)
(-99.6526 -0.554723 1.31027e-15)
(-99.4122 -0.494542 1.27174e-15)
(-99.1916 -0.434309 1.2326e-15)
(-98.9894 -0.377094 1.19309e-15)
(-98.8037 -0.324896 1.15322e-15)
(-98.6321 -0.278898 1.1125e-15)
(-98.4723 -0.239721 1.07206e-15)
(-98.3223 -0.207647 1.03207e-15)
(-98.1799 -0.182777 9.91566e-16)
(-98.0433 -0.165139 9.50961e-16)
(-97.9105 -0.154786 9.10307e-16)
(-97.7798 -0.151826 8.69664e-16)
(-97.6494 -0.156468 8.29232e-16)
(-97.5175 -0.169018 7.89048e-16)
(-97.3823 -0.18992 7.49019e-16)
(-97.2417 -0.21983 7.09168e-16)
(-97.0936 -0.259677 6.69498e-16)
(-96.9356 -0.310691 6.3011e-16)
(-96.7651 -0.374358 5.91096e-16)
(-96.579 -0.452374 5.573e-16)
(-96.374 -0.54664 5.31332e-16)
(-96.1461 -0.659324 4.95407e-16)
(-95.8907 -0.792949 4.59439e-16)
(-95.6024 -0.950488 4.35041e-16)
(-95.2751 -1.13542 4.14775e-16)
(-94.902 -1.35174 3.96731e-16)
(-94.475 -1.60392 3.82677e-16)
(-93.9853 -1.89687 3.72457e-16)
(-93.4226 -2.23606 3.64061e-16)
(-92.7753 -2.62755 3.54441e-16)
(-92.0304 -3.0782 3.4039e-16)
(-91.1734 -3.59574 3.21621e-16)
(-90.1878 -4.18887 2.97077e-16)
(-89.0551 -4.86729 2.67325e-16)
(-87.7546 -5.64167 2.35292e-16)
(-86.2632 -6.5238 2.01901e-16)
(-84.5552 -7.52653 1.69982e-16)
(-82.6019 -8.66336 1.43605e-16)
(-80.3719 -9.94787 1.2386e-16)
(-77.8313 -11.3929 1.11777e-16)
(-74.9433 -13.0097 1.10716e-16)
(-71.6709 -14.8053 1.17275e-16)
(-67.9797 -16.7778 1.32677e-16)
(-63.8353 -18.9074 1.56921e-16)
(-59.1757 -21.1513 1.91206e-16)
(-53.8729 -23.4579 2.37771e-16)
(-86.1444 -1.41098 1.21327e-15)
(-85.7047 -1.39719 1.17616e-15)
(-85.3904 -1.35362 1.13875e-15)
(-85.0907 -1.28891 1.10049e-15)
(-84.8166 -1.21189 1.06221e-15)
(-84.5672 -1.13013 1.02422e-15)
(-84.3405 -1.04921 9.85723e-16)
(-84.1338 -0.972801 9.4701e-16)
(-83.944 -0.903074 9.08145e-16)
(-83.7681 -0.841195 8.69145e-16)
(-83.6033 -0.787705 8.30097e-16)
(-83.4474 -0.742801 7.91178e-16)
(-83.2983 -0.706526 7.5238e-16)
(-83.1541 -0.678877 7.13617e-16)
(-83.0132 -0.659887 6.74903e-16)
(-82.874 -0.649654 6.36223e-16)
(-82.7348 -0.648381 5.97852e-16)
(-82.5944 -0.65642 5.59871e-16)
(-82.451 -0.674347 5.22138e-16)
(-82.3033 -0.703023 4.8468e-16)
(-82.1494 -0.743626 4.47435e-16)
(-81.9875 -0.797651 4.10579e-16)
(-81.8152 -0.866872 3.74136e-16)
(-81.6301 -0.953336 3.40815e-16)
(-81.4292 -1.0594 3.20816e-16)
(-81.2091 -1.18779 2.92645e-16)
(-80.9657 -1.34174 2.56512e-16)
(-80.6943 -1.52501 2.30062e-16)
(-80.3896 -1.74198 2.10701e-16)
(-80.0452 -1.99753 1.94467e-16)
(-79.654 -2.2971 1.82546e-16)
(-79.2076 -2.64667 1.76697e-16)
(-78.6967 -3.05291 1.75652e-16)
(-78.1108 -3.5232 1.75837e-16)
(-77.4383 -4.06588 1.73689e-16)
(-76.6662 -4.69026 1.67913e-16)
(-75.78 -5.40669 1.56094e-16)
(-74.7636 -6.22668 1.37269e-16)
(-73.5988 -7.16301 1.13402e-16)
(-72.2659 -8.22975 8.71137e-17)
(-70.7428 -9.44217 6.13323e-17)
(-69.0052 -10.8163 3.88551e-17)
(-67.0268 -12.3683 2.19664e-17)
(-64.7793 -14.1136 1.20576e-17)
(-62.2329 -16.0657 1.05856e-17)
(-59.3572 -18.2343 1.30566e-17)
(-56.1235 -20.6187 2.03982e-17)
(-52.5035 -23.1979 3.24487e-17)
(-48.4472 -25.9222 5.13088e-17)
(-43.8391 -28.7201 8.31431e-17)
(-70.7497 -1.42653 1.0121e-15)
(-70.2798 -1.40016 9.88368e-16)
(-69.9422 -1.33133 9.64225e-16)
(-69.6255 -1.23626 9.38798e-16)
(-69.3422 -1.1291 9.12444e-16)
(-69.0891 -1.02047 8.85161e-16)
(-68.8621 -0.91715 8.56155e-16)
(-68.6564 -0.822977 8.256e-16)
(-68.4677 -0.739809 7.93557e-16)
(-68.2923 -0.668351 7.59728e-16)
(-68.1271 -0.6087 7.24996e-16)
(-67.9697 -0.560676 6.89685e-16)
(-67.8183 -0.523997 6.53147e-16)
(-67.671 -0.49839 6.15733e-16)
(-67.5266 -0.483633 5.77619e-16)
(-67.3836 -0.479626 5.38493e-16)
(-67.2411 -0.486432 4.99335e-16)
(-67.0979 -0.504348 4.6052e-16)
(-66.9529 -0.533968 4.21342e-16)
(-66.8053 -0.576218 3.82141e-16)
(-66.6536 -0.632363 3.42844e-16)
(-66.4964 -0.704004 3.03845e-16)
(-66.332 -0.793087 2.65495e-16)
(-66.158 -0.901933 2.27434e-16)
(-65.972 -1.03328 2.07931e-16)
(-65.7708 -1.19039 1.85241e-16)
(-65.5508 -1.37712 1.45936e-16)
(-65.3077 -1.59792 1.10985e-16)
(-65.0367 -1.85787 8.4656e-17)
(-64.7317 -2.16261 6.07641e-17)
(-64.3859 -2.51841 3.85181e-17)
(-63.9915 -2.93224 2.27923e-17)
(-63.5397 -3.41184 1.45451e-17)
(-63.021 -3.96582 1.2506e-17)
(-62.425 -4.60376 1.36924e-17)
(-61.7403 -5.33627 1.65019e-17)
(-60.9541 -6.17513 1.74969e-17)
(-60.0523 -7.13342 1.39163e-17)
(-59.0194 -8.22571 6.8545e-18)
(-57.8383 -9.46799 -2.74926e-18)
(-56.4904 -10.8775 -1.27476e-17)
(-54.955 -12.4723 -2.19601e-17)
(-53.2097 -14.2705 -2.96647e-17)
(-51.2313 -16.2888 -3.47571e-17)
(-48.9968 -18.5424 -3.84746e-17)
(-46.4821 -21.0433 -4.47839e-17)
(-43.6661 -23.7934 -5.08582e-17)
(-40.5304 -26.7733 -5.67494e-17)
(-37.043 -29.9293 -5.69626e-17)
(-33.1095 -33.1775 -4.05784e-17)
(-55.0815 -2.09071 3.9707e-16)
(-54.54 -2.05734 3.60253e-16)
(-54.1769 -1.96008 3.21896e-16)
(-53.8501 -1.83042 2.82451e-16)
(-53.5678 -1.69032 2.43578e-16)
(-53.3214 -1.55332 2.06273e-16)
(-53.1028 -1.42651 1.7014e-16)
(-52.9052 -1.31299 1.35562e-16)
(-52.7232 -1.21372 1.02669e-16)
(-52.5525 -1.12861 7.14868e-17)
(-52.3903 -1.05715 4.22448e-17)
(-52.2346 -0.99871 1.50243e-17)
(-52.0837 -0.952646 -1.04375e-17)
(-51.9367 -0.918393 -3.43105e-17)
(-51.7926 -0.895498 -5.6669e-17)
(-51.6507 -0.883711 -7.80425e-17)
(-51.5103 -0.883034 -9.77597e-17)
(-51.371 -0.893788 -1.1555e-16)
(-51.2323 -0.91663 -1.32218e-16)
(-51.0934 -0.952572 -1.47784e-16)
(-50.9536 -1.003 -1.62655e-16)
(-50.8114 -1.06971 -1.74689e-16)
(-50.6653 -1.15498 -1.86586e-16)
(-50.5131 -1.26156 -2.01439e-16)
(-50.3524 -1.39279 -1.9223e-16)
(-50.1801 -1.55265 -1.77952e-16)
(-49.9928 -1.7458 -1.89321e-16)
(-49.7864 -1.97751 -2.0903e-16)
(-49.5562 -2.25365 -2.20359e-16)
(-49.2965 -2.58073 -2.28039e-16)
(-49.0008 -2.966 -2.37914e-16)
(-48.6617 -3.41749 -2.48758e-16)
(-48.2716 -3.94402 -2.59046e-16)
(-47.8221 -4.55524 -2.62926e-16)
(-47.3043 -5.2617 -2.60749e-16)
(-46.7083 -6.07501 -2.50713e-16)
(-46.023 -7.00805 -2.35245e-16)
(-45.2364 -8.07518 -2.1831e-16)
(-44.3351 -9.2923 -1.98065e-16)
(-43.3048 -10.6768 -1.75909e-16)
(-42.1293 -12.2477 -1.51884e-16)
(-40.7902 -14.025 -1.32257e-16)
(-39.2665 -16.0286 -1.21833e-16)
(-37.5393 -18.2741 -1.25522e-16)
(-35.5888 -20.7777 -1.34645e-16)
(-33.3946 -23.5516 -1.52413e-16)
(-30.9434 -26.5982 -1.63125e-16)
(-28.2275 -29.8982 -1.71224e-16)
(-25.2402 -33.3944 -1.8132e-16)
(-21.9309 -36.9972 -2.00384e-16)
(-39.0121 -2.33586 7.95518e-16)
(-38.4331 -2.26475 8.18766e-16)
(-38.0643 -2.09845 8.4088e-16)
(-37.7469 -1.90574 8.58111e-16)
(-37.4834 -1.71539 8.69734e-16)
(-37.2577 -1.54116 8.7564e-16)
(-37.0581 -1.38779 8.75197e-16)
(-36.8766 -1.25579 8.68642e-16)
(-36.7074 -1.14397 8.56282e-16)
(-36.5473 -1.05066 8.38086e-16)
(-36.3944 -0.974181 8.1503e-16)
(-36.2475 -0.912992 7.87922e-16)
(-36.1061 -0.865784 7.56574e-16)
(-35.9698 -0.831498 7.21347e-16)
(-35.8385 -0.809379 6.82692e-16)
(-35.7117 -0.799018 6.40689e-16)
(-35.5891 -0.80042 5.96358e-16)
(-35.4702 -0.814029 5.50536e-16)
(-35.3544 -0.840703 5.03086e-16)
(-35.2408 -0.881692 4.54398e-16)
(-35.1284 -0.938669 4.02975e-16)
(-35.0156 -1.01381 3.59101e-16)
(-34.9005 -1.10985 3.12656e-16)
(-34.7808 -1.23009 2.53477e-16)
(-34.654 -1.37846 2.27838e-16)
(-34.5171 -1.55954 2.2566e-16)
(-34.3672 -1.77853 1.9206e-16)
(-34.2008 -2.04112 1.2803e-16)
(-34.0136 -2.35355 6.2665e-17)
(-33.801 -2.72278 5.56905e-18)
(-33.5572 -3.15658 -4.82745e-17)
(-33.2764 -3.66353 -9.72213e-17)
(-32.9523 -4.25289 -1.40315e-16)
(-32.5782 -4.93471 -1.78182e-16)
(-32.1467 -5.71994 -2.12399e-16)
(-31.6493 -6.62089 -2.44921e-16)
(-31.0765 -7.65137 -2.62595e-16)
(-30.4178 -8.82678 -2.60462e-16)
(-29.6614 -10.1641 -2.40988e-16)
(-28.7946 -11.6821 -2.08245e-16)
(-27.8031 -13.4017 -1.68839e-16)
(-26.6705 -15.3455 -1.36032e-16)
(-25.3747 -17.5349 -1.15189e-16)
(-23.903 -19.9782 -1.33442e-16)
(-22.2329 -22.7001 -1.45604e-16)
(-20.3386 -25.713 -1.49922e-16)
(-18.2137 -29.0153 -1.48984e-16)
(-15.861 -32.5827 -1.43254e-16)
(-13.296 -36.3457 -1.36679e-16)
(-10.5354 -40.1969 -1.45355e-16)
(-22.1632 -2.92668 -1.00957e-16)
(-21.5596 -2.7917 -1.15863e-16)
(-21.2246 -2.54412 -1.32256e-16)
(-20.9698 -2.29634 -1.50055e-16)
(-20.7703 -2.07264 -1.67777e-16)
(-20.6044 -1.87988 -1.84276e-16)
(-20.4593 -1.71666 -2.00649e-16)
(-20.3278 -1.5794 -2.17107e-16)
(-20.2058 -1.46454 -2.33679e-16)
(-20.0916 -1.369 -2.50443e-16)
(-19.9843 -1.29027 -2.67321e-16)
(-19.8838 -1.22638 -2.83799e-16)
(-19.7899 -1.17589 -3.00275e-16)
(-19.7022 -1.1378 -3.17514e-16)
(-19.6201 -1.1116 -3.35612e-16)
(-19.5423 -1.09717 -3.54676e-16)
(-19.4676 -1.09491 -3.74694e-16)
(-19.3945 -1.10571 -3.94818e-16)
(-19.3218 -1.13076 -4.14365e-16)
(-19.2481 -1.17154 -4.33949e-16)
(-19.1724 -1.22987 -4.6255e-16)
(-19.0935 -1.30804 -4.5971e-16)
(-19.0099 -1.40886 -4.63689e-16)
(-18.9201 -1.53564 -5.0665e-16)
(-18.8223 -1.69225 -4.79774e-16)
(-18.7152 -1.88326 -3.69567e-16)
(-18.5971 -2.11381 -2.8975e-16)
(-18.4663 -2.38959 -2.86859e-16)
(-18.3199 -2.717 -3.28648e-16)
(-18.1545 -3.10345 -3.74883e-16)
(-17.9662 -3.55748 -4.25369e-16)
(-17.7511 -4.08843 -4.73652e-16)
(-17.5051 -4.70632 -5.21517e-16)
(-17.223 -5.42204 -5.64346e-16)
(-16.8983 -6.24789 -5.98323e-16)
(-16.5234 -7.19781 -6.25309e-16)
(-16.0896 -8.28728 -6.35734e-16)
(-15.5868 -9.53323 -6.23767e-16)
(-15.0033 -10.9542 -5.85128e-16)
(-14.3251 -12.5708 -5.31941e-16)
(-13.5377 -14.4062 -4.82942e-16)
(-12.6272 -16.4876 -4.24384e-16)
(-11.5672 -18.8401 -3.72179e-16)
(-10.3676 -21.4373 -3.3834e-16)
(-8.99307 -24.3318 -3.09573e-16)
(-7.40261 -27.5398 -2.83307e-16)
(-5.59329 -31.054 -2.58382e-16)
(-3.57862 -34.8396 -2.34911e-16)
(-1.3922 -38.8045 -2.11683e-16)
(0.893448 -42.8034 -1.98337e-16)
(-3.82583 -3.40542 -4.27469e-18)
(-3.76438 -2.98575 -3.11368e-18)
(-3.50691 -2.66889 -2.09662e-18)
(-3.40002 -2.35969 -2.67005e-18)
(-3.33154 -2.09376 -6.19197e-18)
(-3.28366 -1.88134 -9.71974e-18)
(-3.25173 -1.7114 -1.20357e-17)
(-3.23109 -1.57389 -1.56064e-17)
(-3.21837 -1.46269 -2.08136e-17)
(-3.21121 -1.37367 -2.85303e-17)
(-3.20808 -1.30342 -3.94663e-17)
(-3.20693 -1.24941 -5.03856e-17)
(-3.2062 -1.20974 -6.07664e-17)
(-3.20439 -1.183 -7.39029e-17)
(-3.19981 -1.16805 -9.08409e-17)
(-3.19052 -1.16409 -1.13739e-16)
(-3.17488 -1.17115 -1.44591e-16)
(-3.15213 -1.18998 -1.80433e-16)
(-3.1223 -1.22147 -2.12784e-16)
(-3.08588 -1.26654 -2.53204e-16)
(-3.04344 -1.32647 -4.12618e-16)
(-2.99538 -1.40325 -3.90023e-16)
(-2.94156 -1.4995 -3.51669e-16)
(-2.88152 -1.61853 -6.58877e-16)
(-2.8151 -1.76463 -8.94573e-16)
(-2.74273 -1.94323 -7.30952e-16)
(-2.66479 -2.16053 -4.55962e-16)
(-2.58048 -2.42328 -2.88973e-16)
(-2.48735 -2.73913 -2.77137e-16)
(-2.3823 -3.11737 -2.9702e-16)
(-2.26324 -3.56853 -3.47376e-16)
(-2.12947 -4.10328 -3.97406e-16)
(-1.98005 -4.73224 -4.55966e-16)
(-1.81155 -5.46696 -5.23845e-16)
(-1.61779 -6.32093 -6.08444e-16)
(-1.39137 -7.30949 -6.95232e-16)
(-1.12451 -8.44948 -7.70514e-16)
(-0.807857 -9.75946 -7.96976e-16)
(-0.428511 -11.2601 -7.76467e-16)
(0.0308735 -12.974 -7.21656e-16)
(0.590866 -14.9252 -6.4608e-16)
(1.27653 -17.151 -5.66954e-16)
(2.12591 -19.7143 -4.96944e-16)
(3.07685 -22.5116 -4.36444e-16)
(4.17553 -25.6166 -3.85388e-16)
(5.47192 -29.0413 -3.40057e-16)
(6.97324 -32.7723 -3.00776e-16)
(8.65309 -36.7554 -2.68474e-16)
(10.4451 -40.8625 -2.39311e-16)
(12.226 -44.8833 -2.18059e-16)
(15.1023 -4.14334 -7.49401e-18)
(14.8927 -3.35978 -6.14349e-18)
(14.7426 -2.85064 -4.43268e-18)
(14.6678 -2.45308 -2.38258e-18)
(14.6151 -2.11512 -6.17903e-19)
(14.5686 -1.82841 -1.14141e-19)
(14.5269 -1.58574 4.33542e-19)
(14.4898 -1.37818 1.08637e-18)
(14.4562 -1.19864 1.54312e-18)
(14.4257 -1.04253 2.68631e-18)
(14.3978 -0.90685 3.62711e-18)
(14.3723 -0.789479 3.5473e-18)
(14.3486 -0.688977 3.75587e-18)
(14.3264 -0.604448 4.22448e-18)
(14.3054 -0.535457 4.78647e-18)
(14.2858 -0.482087 5.72195e-18)
(14.2683 -0.445024 5.42359e-18)
(14.2532 -0.425491 5.35611e-19)
(14.2409 -0.42503 -4.07243e-18)
(14.2317 -0.445387 2.11421e-17)
(14.2255 -0.48865 -1.7721e-17)
(14.2226 -0.557489 -6.52965e-17)
(14.223 -0.65522 -2.36009e-17)
(14.2273 -0.785674 2.14049e-17)
(14.2356 -0.953083 -5.40149e-17)
(14.2479 -1.16205 -1.69873e-16)
(14.2635 -1.41764 -2.65706e-16)
(14.2824 -1.72549 -3.02671e-16)
(14.3043 -2.09212 -3.16246e-16)
(14.3287 -2.52506 -3.16298e-16)
(14.3542 -3.03264 -3.23562e-16)
(14.3792 -3.62374 -3.32842e-16)
(14.4032 -4.30806 -3.61842e-16)
(14.4275 -5.09696 -4.08242e-16)
(14.4549 -6.00447 -4.79824e-16)
(14.4903 -7.04756 -5.55682e-16)
(14.5405 -8.2461 -6.15629e-16)
(14.6156 -9.62291 -6.45393e-16)
(14.7296 -11.2035 -6.42192e-16)
(14.9001 -13.0156 -6.11671e-16)
(15.1478 -15.0885 -5.61096e-16)
(15.4941 -17.4515 -5.04112e-16)
(15.9557 -20.1288 -4.53197e-16)
(16.5526 -23.1347 -4.02358e-16)
(17.3184 -26.4716 -3.55659e-16)
(18.2847 -30.1335 -3.13917e-16)
(19.4597 -34.0933 -2.75908e-16)
(20.8054 -38.2682 -2.43659e-16)
(22.2186 -42.4846 -2.14774e-16)
(23.5314 -46.4851 -1.95211e-16)
(34.6158 -3.72548 -9.54517e-18)
(34.0514 -3.26624 -9.04322e-18)
(33.6228 -2.93749 -8.29283e-18)
(33.3578 -2.68945 -7.1815e-18)
(33.167 -2.48399 -5.97424e-18)
(33.0124 -2.31436 -5.54401e-18)
(32.8844 -2.17837 -5.09082e-18)
(32.7774 -2.0711 -4.59873e-18)
(32.6859 -1.98758 -4.46189e-18)
(32.6056 -1.92403 -3.83481e-18)
(32.534 -1.87765 -3.04198e-18)
(32.469 -1.8461 -2.94597e-18)
(32.4093 -1.82741 -2.73788e-18)
(32.3538 -1.81996 -2.42791e-18)
(32.3015 -1.82258 -2.44636e-18)
(32.2519 -1.83462 -2.08669e-18)
(32.2047 -1.85587 -2.42847e-18)
(32.1594 -1.8865 -6.40728e-18)
(32.1157 -1.92687 -1.07718e-17)
(32.073 -1.97761 5.15972e-18)
(32.0306 -2.03981 -1.79597e-17)
(31.9879 -2.11515 -5.51083e-17)
(31.9442 -2.20592 -4.16471e-17)
(31.8985 -2.3149 -1.85391e-18)
(31.8501 -2.44536 -7.66419e-18)
(31.7975 -2.60116 -4.61005e-17)
(31.7393 -2.78708 -1.032e-16)
(31.6736 -3.00916 -1.45229e-16)
(31.5983 -3.27502 -1.74422e-16)
(31.5109 -3.59391 -1.96684e-16)
(31.4087 -3.97664 -2.20386e-16)
(31.2893 -4.43563 -2.41205e-16)
(31.1511 -4.98539 -2.73905e-16)
(30.9936 -5.64307 -3.14155e-16)
(30.8178 -6.42879 -3.52277e-16)
(30.6267 -7.3655 -3.80906e-16)
(30.4259 -8.47881 -3.94867e-16)
(30.225 -9.79674 -3.92983e-16)
(30.0379 -11.3496 -3.76273e-16)
(29.8831 -13.1694 -3.48629e-16)
(29.7839 -15.2878 -3.13773e-16)
(29.7675 -17.7345 -2.76653e-16)
(29.8634 -20.5327 -2.46991e-16)
(30.1051 -23.6929 -2.24406e-16)
(30.5307 -27.2151 -2.05207e-16)
(31.1723 -31.0825 -1.8609e-16)
(32.0332 -35.2386 -1.65216e-16)
(33.0494 -39.5457 -1.4529e-16)
(34.0607 -43.7614 -1.25548e-16)
(34.8298 -47.5721 -1.13372e-16)
(52.3299 -2.06858 -1.49636e-17)
(52.0625 -1.7268 -1.46369e-17)
(51.7721 -1.44275 -1.43026e-17)
(51.582 -1.19897 -1.34375e-17)
(51.4456 -0.974057 -1.2298e-17)
(51.3272 -0.765266 -1.19097e-17)
(51.2203 -0.575239 -1.15144e-17)
(51.1241 -0.404228 -1.11025e-17)
(51.0364 -0.251072 -1.08027e-17)
(50.9548 -0.114772 -1.03734e-17)
(50.8777 0.00534207 -9.94427e-18)
(50.8045 0.109854 -9.74133e-18)
(50.7341 0.199292 -9.49394e-18)
(50.6659 0.273999 -9.20198e-18)
(50.599 0.333998 -9.29581e-18)
(50.5326 0.378947 -8.9569e-18)
(50.466 0.40817 -9.11552e-18)
(50.3985 0.420754 -1.29718e-17)
(50.3291 0.415559 -1.73895e-17)
(50.2567 0.391074 -3.62482e-18)
(50.1801 0.345185 -1.91394e-17)
(50.0976 0.275065 -5.43182e-17)
(50.0078 0.177295 -5.94286e-17)
(49.909 0.0480555 -3.07254e-17)
(49.7994 -0.116843 -6.88827e-18)
(49.677 -0.32215 -8.58205e-19)
(49.5389 -0.573415 -2.22834e-17)
(49.3821 -0.877132 -4.63638e-17)
(49.2028 -1.24067 -7.11972e-17)
(48.9973 -1.67215 -9.57407e-17)
(48.7616 -2.18046 -1.16905e-16)
(48.4918 -2.77554 -1.36572e-16)
(48.1845 -3.46893 -1.5679e-16)
(47.8368 -4.27427 -1.7422e-16)
(47.4473 -5.20785 -1.844e-16)
(47.0173 -6.28897 -1.86021e-16)
(46.5512 -7.5406 -1.81075e-16)
(46.058 -8.99009 -1.71052e-16)
(45.5519 -10.6695 -1.57424e-16)
(45.0531 -12.6151 -1.42911e-16)
(44.5878 -14.8652 -1.30846e-16)
(44.1884 -17.4571 -1.23841e-16)
(43.8941 -20.4221 -1.22788e-16)
(43.7514 -23.7804 -1.26245e-16)
(43.8116 -27.5342 -1.28525e-16)
(44.1149 -31.6504 -1.24062e-16)
(44.6492 -36.0198 -1.12296e-16)
(45.2941 -40.4136 -9.53565e-17)
(45.7965 -44.4968 -7.84649e-17)
(45.8266 -47.9115 -6.90789e-17)
(73.992 -3.89474 -2.4202e-17)
(73.3225 -3.64299 -2.4092e-17)
(72.7094 -3.43446 -2.39104e-17)
(72.2386 -3.27104 -2.33044e-17)
(71.8535 -3.13282 -2.23369e-17)
(71.5139 -3.0129 -2.19718e-17)
(71.2082 -2.91098 -2.162e-17)
(70.9326 -2.82596 -2.12703e-17)
(70.6822 -2.75575 -2.12797e-17)
(70.4521 -2.69851 -2.08418e-17)
(70.2384 -2.65283 -2.01297e-17)
(70.0385 -2.61755 -1.99804e-17)
(69.8499 -2.59163 -1.97845e-17)
(69.6702 -2.57426 -1.95471e-17)
(69.4973 -2.5648 -1.96809e-17)
(69.3293 -2.56286 -1.94972e-17)
(69.1642 -2.56821 -1.96977e-17)
(69.0003 -2.58082 -2.30966e-17)
(68.8357 -2.6009 -2.74837e-17)
(68.6683 -2.62909 -1.33917e-17)
(68.4957 -2.66659 -2.2905e-17)
(68.3153 -2.71514 -5.78741e-17)
(68.1247 -2.77678 -8.28245e-17)
(67.9215 -2.85377 -7.83498e-17)
(67.703 -2.94864 -5.14174e-17)
(67.4662 -3.06442 -2.3145e-17)
(67.2073 -3.20494 -6.72212e-18)
(66.9223 -3.37496 -2.94079e-18)
(66.6068 -3.58032 -7.81748e-18)
(66.2563 -3.82825 -1.65452e-17)
(65.8664 -4.12772 -2.00704e-17)
(65.4327 -4.49013 -2.3475e-17)
(64.9512 -4.93006 -2.64027e-17)
(64.4184 -5.46602 -2.82929e-17)
(63.8324 -6.121 -2.82653e-17)
(63.1935 -6.92316 -2.83768e-17)
(62.5044 -7.90647 -2.96341e-17)
(61.7705 -9.11098 -3.41812e-17)
(61.001 -10.5821 -4.34777e-17)
(60.2098 -12.3688 -5.94092e-17)
(59.4174 -14.521 -8.14721e-17)
(58.655 -17.0859 -1.10005e-16)
(57.9706 -20.1035 -1.40401e-16)
(57.4308 -23.6002 -1.61454e-16)
(57.1109 -27.5703 -1.6439e-16)
(57.0569 -31.9369 -1.44201e-16)
(57.2086 -36.4817 -1.07461e-16)
(57.3368 -40.8201 -6.79922e-17)
(57.0579 -44.5041 -3.67719e-17)
(55.9464 -47.1792 -2.36496e-17)
(85.3201 0.338742 -4.48214e-17)
(85.1417 0.533401 -4.46178e-17)
(84.8701 0.687409 -4.43999e-17)
(84.6838 0.818898 -4.36163e-17)
(84.5594 0.942497 -4.25355e-17)
(84.4553 1.06025 -4.21777e-17)
(84.3602 1.16948 -4.17876e-17)
(84.2737 1.26863 -4.13765e-17)
(84.1944 1.35733 -4.14268e-17)
(84.1201 1.43534 -4.08854e-17)
(84.0495 1.50228 -4.00044e-17)
(83.9817 1.5577 -3.98157e-17)
(83.9163 1.60118 -3.9566e-17)
(83.8524 1.63242 -3.92756e-17)
(83.7893 1.65121 -3.95894e-17)
(83.7262 1.65744 -3.94043e-17)
(83.6621 1.65107 -3.94645e-17)
(83.596 1.63204 -4.29132e-17)
(83.5266 1.59999 -4.65428e-17)
(83.4522 1.55394 -3.05701e-17)
(83.3708 1.49218 -3.00677e-17)
(83.2806 1.41236 -5.90725e-17)
(83.1802 1.31164 -1.0425e-16)
(83.0679 1.18668 -1.41214e-16)
(82.9423 1.03361 -1.58394e-16)
(82.8011 0.847939 -1.53542e-16)
(82.6413 0.624544 -1.39551e-16)
(82.4592 0.357599 -1.258e-16)
(82.2502 0.0404009 -1.16852e-16)
(82.0092 -0.334931 -1.14717e-16)
(81.7298 -0.777853 -1.16443e-16)
(81.4042 -1.2999 -1.2248e-16)
(81.0233 -1.91516 -1.31874e-16)
(80.5767 -2.64056 -1.44066e-16)
(80.0526 -3.49629 -1.63018e-16)
(79.4386 -4.50645 -1.86931e-16)
(78.7219 -5.6997 -2.12131e-16)
(77.8908 -7.10985 -2.38117e-16)
(76.9383 -8.77629 -2.64783e-16)
(75.8673 -10.745 -2.91895e-16)
(74.6988 -13.0695 -3.13852e-16)
(73.4822 -15.8119 -3.25221e-16)
(72.3013 -19.0396 -3.17874e-16)
(71.2659 -22.8071 -2.80272e-16)
(70.4743 -27.1093 -2.12749e-16)
(69.9388 -31.7971 -1.2703e-16)
(69.4674 -36.462 -3.9197e-17)
(68.6629 -40.493 3.29253e-17)
(67.0088 -43.3456 8.25072e-17)
(64.0165 -44.773 1.04178e-16)
(115.825 -4.5835 -7.50004e-17)
(115.066 -4.47649 -7.51134e-17)
(114.358 -4.38524 -7.49292e-17)
(113.78 -4.29572 -7.43969e-17)
(113.287 -4.20081 -7.3649e-17)
(112.839 -4.10329 -7.34334e-17)
(112.425 -4.00692 -7.31915e-17)
(112.043 -3.91356 -7.29237e-17)
(111.69 -3.824 -7.29824e-17)
(111.36 -3.73872 -7.26278e-17)
(111.049 -3.65827 -7.20106e-17)
(110.755 -3.58334 -7.18767e-17)
(110.474 -3.51461 -7.16927e-17)
(110.204 -3.4527 -7.14835e-17)
(109.942 -3.39803 -7.16873e-17)
(109.686 -3.35085 -7.16549e-17)
(109.433 -3.31122 -7.21157e-17)
(109.18 -3.27911 -7.53363e-17)
(108.925 -3.25467 -7.78872e-17)
(108.665 -3.23838 -6.20644e-17)
(108.394 -3.23107 -4.6805e-17)
(108.109 -3.23382 -4.95495e-17)
(107.806 -3.24783 -7.80145e-17)
(107.48 -3.27444 -1.20877e-16)
(107.126 -3.31507 -1.71582e-16)
(106.739 -3.37131 -2.25945e-16)
(106.311 -3.44509 -2.80914e-16)
(105.835 -3.53879 -3.3613e-16)
(105.3 -3.65555 -3.93086e-16)
(104.698 -3.79963 -4.55921e-16)
(104.015 -3.97682 -5.15482e-16)
(103.238 -4.1951 -5.67635e-16)
(102.353 -4.46524 -6.08147e-16)
(101.344 -4.80171 -6.40094e-16)
(100.197 -5.2241 -6.64835e-16)
(98.8981 -5.75904 -6.78122e-16)
(97.4389 -6.44274 -6.69286e-16)
(95.8198 -7.32406 -6.38651e-16)
(94.0561 -8.46779 -5.85632e-16)
(92.1842 -9.95806 -5.06866e-16)
(90.266 -11.8993 -4.02053e-16)
(88.3863 -14.41 -2.75325e-16)
(86.6339 -17.6021 -1.3198e-16)
(85.0664 -21.5335 1.67842e-17)
(83.6574 -26.1309 1.50665e-16)
(82.2458 -31.0711 2.49465e-16)
(80.4097 -35.625 3.20087e-16)
(77.6971 -38.928 3.5917e-16)
(73.5913 -40.4077 3.7841e-16)
(67.5981 -40.0129 3.83935e-16)
(106.967 3.31823 -1.63759e-16)
(106.894 3.36124 -1.63467e-16)
(106.793 3.32339 -1.63216e-16)
(106.793 3.2881 -1.62375e-16)
(106.842 3.26254 -1.6115e-16)
(106.891 3.24076 -1.6054e-16)
(106.929 3.22082 -1.59946e-16)
(106.961 3.20235 -1.59376e-16)
(106.989 3.18501 -1.59319e-16)
(107.012 3.16841 -1.58776e-16)
(107.031 3.15185 -1.579e-16)
(107.046 3.13414 -1.57683e-16)
(107.059 3.11389 -1.5753e-16)
(107.069 3.08997 -1.57478e-16)
(107.076 3.06166 -1.58147e-16)
(107.081 3.02858 -1.58679e-16)
(107.082 2.99055 -1.59699e-16)
(107.078 2.94735 -1.6334e-16)
(107.066 2.89834 -1.65851e-16)
(107.046 2.842 -1.5135e-16)
(107.015 2.77594 -1.23984e-16)
(106.974 2.69711 -9.71234e-17)
(106.921 2.60203 -7.35134e-17)
(106.86 2.48712 -5.24757e-17)
(106.791 2.34909 -2.83148e-17)
(106.715 2.18501 9.88581e-19)
(106.634 1.99195 3.67294e-17)
(106.547 1.76643 7.86346e-17)
(106.453 1.50395 1.29049e-16)
(106.351 1.19852 1.90124e-16)
(106.239 0.842285 2.57125e-16)
(106.114 0.425033 3.33811e-16)
(105.974 -0.0664299 4.22131e-16)
(105.816 -0.649202 5.17554e-16)
(105.636 -1.34572 6.07764e-16)
(105.429 -2.18543 6.89638e-16)
(105.189 -3.20651 7.59734e-16)
(104.904 -4.45737 8.15501e-16)
(104.552 -5.99762 8.56243e-16)
(104.093 -7.8979 8.76541e-16)
(103.46 -10.236 8.64535e-16)
(102.54 -13.0861 8.10127e-16)
(101.172 -16.4987 7.12779e-16)
(99.1419 -20.4653 5.84014e-16)
(96.2188 -24.8626 4.37076e-16)
(92.1831 -29.3212 2.90788e-16)
(86.629 -32.9371 2.48941e-16)
(79.9288 -34.9096 2.30334e-16)
(71.7841 -34.7733 2.28821e-16)
(61.6067 -32.5131 2.27627e-16)
(173.26 -5.8039 -2.36578e-16)
(172.486 -5.80832 -2.40795e-16)
(171.822 -5.7273 -2.42763e-16)
(171.285 -5.58533 -2.4491e-16)
(170.805 -5.42431 -2.46735e-16)
(170.355 -5.2648 -2.4827e-16)
(169.935 -5.11337 -2.49381e-16)
(169.544 -4.97128 -2.50197e-16)
(169.179 -4.83771 -2.51349e-16)
(168.835 -4.71123 -2.5182e-16)
(168.509 -4.59076 -2.51834e-16)
(168.197 -4.47598 -2.52404e-16)
(167.895 -4.36703 -2.52862e-16)
(167.603 -4.26383 -2.5321e-16)
(167.317 -4.1658 -2.54095e-16)
(167.036 -4.0722 -2.54373e-16)
(166.759 -3.98228 -2.54394e-16)
(166.483 -3.89527 -2.57467e-16)
(166.206 -3.81071 -2.63837e-16)
(165.924 -3.72904 -2.7055e-16)
(165.632 -3.65154 -2.82331e-16)
(165.328 -3.57999 -3.09341e-16)
(165.005 -3.5165 -3.42359e-16)
(164.66 -3.46316 -3.71629e-16)
(164.286 -3.42143 -3.95507e-16)
(163.877 -3.39185 -4.20035e-16)
(163.424 -3.37453 -4.44509e-16)
(162.915 -3.36985 -4.69213e-16)
(162.337 -3.37893 -5.0434e-16)
(161.674 -3.40395 -5.39919e-16)
(160.908 -3.44842 -5.74809e-16)
(160.015 -3.51743 -6.12524e-16)
(158.966 -3.61812 -6.517e-16)
(157.726 -3.76043 -6.89491e-16)
(156.248 -3.95832 -7.26202e-16)
(154.476 -4.23116 -7.63057e-16)
(152.334 -4.60524 -8.0114e-16)
(149.73 -5.11525 -8.39637e-16)
(146.542 -5.80597 -8.71878e-16)
(142.62 -6.73266 -8.96744e-16)
(137.777 -7.95881 -9.15141e-16)
(131.792 -9.5488 -9.33219e-16)
(124.407 -11.5514 -9.44719e-16)
(115.346 -13.9684 -9.27321e-16)
(104.357 -16.6989 -8.74144e-16)
(91.1379 -19.3804 -7.46035e-16)
(75.3495 -21.4463 -8.34238e-17)
(61.7745 -22.6883 3.34931e-16)
(48.5773 -22.4203 6.21604e-16)
(34.4637 -20.0196 7.91197e-16)
(103.375 6.46756 -2.91897e-15)
(102.956 5.70003 -2.9121e-15)
(102.582 5.26536 -2.9062e-15)
(102.229 5.00677 -2.90551e-15)
(101.865 4.83279 -2.89994e-15)
(101.498 4.69996 -2.88708e-15)
(101.146 4.58542 -2.87142e-15)
(100.821 4.47808 -2.85353e-15)
(100.526 4.37451 -2.83125e-15)
(100.256 4.27505 -2.80357e-15)
(100.004 4.18076 -2.77083e-15)
(99.7666 4.09185 -2.73338e-15)
(99.5377 4.00733 -2.69305e-15)
(99.3144 3.92582 -2.65274e-15)
(99.0954 3.84642 -2.61422e-15)
(98.8789 3.76868 -2.57375e-15)
(98.6622 3.69201 -2.53018e-15)