/*--------------------------------*- C++ -*----------------------------------*\
  =========                 |
  \\      /  F ield         | OpenFOAM: The Open Source CFD Toolbox
   \\    /   O peration     | Website:  https://openfoam.org
    \\  /    A nd           | Version:  8
     \\/     M anipulation  |
\*---------------------------------------------------------------------------*/
FoamFile
{
    version     2.0;
    format      ascii;
    class       volScalarField;
    location    "500";
    object      epsilon;
}
// * * * * * * * * * * * * * * * * * * * * * * * * * * * * * * * * * * * * * //

dimensions      [0 2 -3 0 0 0 0];

internalField   nonuniform List<scalar> 
8400
(
0.0148545
0.0145983
0.0143219
0.0140006
0.0136281
0.0132047
0.0127361
0.0122297
0.0116943
0.0111387
0.0105708
0.00999638
0.00941963
0.00884444
0.00827479
0.00771487
0.00716815
0.00663558
0.00611281
0.0055904
0.00506598
0.00455939
0.00411605
0.00378041
0.0035521
0.00338662
0.00324156
0.00310175
0.00296628
0.00283321
0.00270194
0.00257464
0.00245027
0.00232751
0.00220268
0.0020752
0.00195182
0.00183608
0.00172841
0.00162885
0.00153638
0.00145013
0.00136923
0.00129314
0.00122162
0.00115441
0.00109133
0.00103207
0.000976281
0.000923585
0.00857591
0.00854424
0.00852741
0.00854552
0.00859073
0.00864576
0.00869248
0.00871618
0.00871031
0.0086772
0.00861768
0.0085316
0.00841839
0.00827751
0.00810887
0.00791287
0.00769067
0.00744433
0.0071183
0.00662507
0.00593737
0.00509465
0.0042397
0.00355722
0.00313397
0.00293329
0.00287881
0.00289185
0.00288435
0.0027881
0.00264624
0.00256142
0.0025399
0.00251202
0.00242098
0.00226303
0.00209302
0.00193087
0.0017778
0.00164409
0.0015319
0.00144149
0.00137071
0.00131624
0.00127453
0.0012419
0.00121487
0.00119034
0.00116548
0.00113752
0.0104771
0.00966268
0.00899853
0.00841442
0.00798704
0.00772821
0.00767774
0.00784494
0.00813539
0.00847658
0.00882132
0.00915015
0.00945804
0.00974524
0.0100168
0.0102759
0.0105083
0.0106335
0.0104901
0.0100213
0.00914065
0.00788162
0.00652781
0.00546479
0.00491736
0.00485942
0.00498323
0.00514394
0.005075
0.00449264
0.00400242
0.00392913
0.00396955
0.0039785
0.00384723
0.00364806
0.00348594
0.00333306
0.00318423
0.00304984
0.00293331
0.00283807
0.00276371
0.00270792
0.00266699
0.00263679
0.00261313
0.00259199
0.00256949
0.00254185
0.0131244
0.013072
0.0130181
0.0129627
0.012906
0.0128478
0.0127881
0.012712
0.012629
0.0125438
0.0124638
0.0123923
0.0123274
0.0122585
0.0121893
0.0121373
0.0121182
0.0121114
0.0121089
0.0121049
0.0120922
0.0120637
0.0120131
0.0119557
0.0118908
0.0117245
0.0115933
0.0114855
0.0113323
0.00724879
0.00508879
0.00519777
0.00534588
0.0054817
0.0048825
0.00447804
0.00435565
0.00421429
0.0041272
0.00404824
0.00397933
0.0039235
0.00388172
0.00385338
0.00383595
0.00382629
0.00382089
0.00381553
0.00381006
0.00380013
0.0131502
0.0131285
0.0131065
0.013084
0.013061
0.0130375
0.0130136
0.0129891
0.0129642
0.012939
0.0129138
0.0128889
0.0128647
0.012842
0.0128199
0.0127968
0.0127727
0.0127476
0.0127215
0.0126947
0.0126676
0.0126401
0.0126113
0.0125718
0.0125199
0.0124502
0.0123614
0.0122537
0.0121193
0.0115445
0.0107287
0.010125
0.00993477
0.00971115
0.00602521
0.00501608
0.00501504
0.00459189
0.00456156
0.00453347
0.00452049
0.00451112
0.00450675
0.00450802
0.00451416
0.00452352
0.00453206
0.00454066
0.00454701
0.00455241
0.0131428
0.0131131
0.0130833
0.0130536
0.0130239
0.0129942
0.0129646
0.0129351
0.0129057
0.0128762
0.0128467
0.0128172
0.0127875
0.0127575
0.0127271
0.0126968
0.0126662
0.0126353
0.0126041
0.012573
0.0125415
0.0125107
0.0124826
0.0124569
0.0124316
0.0124027
0.0123648
0.0123128
0.0122402
0.0120702
0.0117545
0.0113611
0.0109731
0.0105624
0.0096404
0.00937527
0.0066217
0.00469731
0.00470819
0.00465897
0.00468407
0.00470994
0.00473065
0.00474889
0.00476555
0.00478081
0.0047962
0.00481066
0.00482343
0.0048337
0.0131397
0.0131061
0.0130723
0.0130381
0.0130036
0.0129691
0.0129343
0.0128995
0.0128646
0.0128297
0.0127946
0.0127594
0.012724
0.0126883
0.0126523
0.0126158
0.0125791
0.0125423
0.0125053
0.012468
0.0124316
0.0123968
0.0123649
0.012337
0.0123136
0.0122936
0.0122738
0.0122488
0.012212
0.0121398
0.0119945
0.0117649
0.0114651
0.0111009
0.0105489
0.0100269
0.00895589
0.00841447
0.00485745
0.00461202
0.00461163
0.00465997
0.00469284
0.00471447
0.00473318
0.00474703
0.00475778
0.00476657
0.004775
0.00478472
0.0131337
0.0130935
0.013053
0.0130122
0.0129713
0.0129303
0.0128892
0.0128479
0.0128067
0.0127653
0.0127238
0.0126821
0.0126403
0.0125981
0.0125556
0.0125127
0.0124693
0.0124256
0.0123819
0.0123388
0.0122974
0.0122587
0.0122242
0.0121954
0.0121731
0.0121577
0.0121476
0.0121388
0.0121249
0.0120937
0.0120219
0.0118876
0.0116799
0.0113945
0.0109848
0.0104979
0.00977855
0.00908253
0.00777436
0.00607154
0.00443591
0.00447004
0.0045045
0.00453248
0.00454372
0.00454378
0.0045376
0.00452947
0.00452397
0.00452554
0.0131257
0.0130761
0.0130262
0.0129761
0.0129258
0.0128755
0.0128251
0.0127748
0.0127243
0.0126737
0.012623
0.0125722
0.0125213
0.0124702
0.012419
0.0123676
0.012316
0.0122647
0.0122142
0.0121656
0.0121201
0.0120792
0.0120445
0.0120178
0.0120004
0.0119927
0.0119935
0.0119997
0.0120052
0.0120008
0.0119704
0.0118937
0.0117534
0.0115374
0.0112188
0.0108033
0.0102351
0.0095895
0.0086736
0.00749959
0.00615306
0.00422972
0.00429157
0.00430864
0.0042977
0.00426969
0.004233
0.00419548
0.0041658
0.00415201
0.013112
0.0130459
0.01298
0.0129145
0.0128493
0.0127842
0.0127193
0.0126545
0.0125898
0.0125253
0.0124609
0.0123965
0.0123323
0.0122681
0.012204
0.0121405
0.0120777
0.0120168
0.0119589
0.0119058
0.0118595
0.0118219
0.0117952
0.0117804
0.0117782
0.0117883
0.0118087
0.0118358
0.0118634
0.0118831
0.0118824
0.0118446
0.0117521
0.0115899
0.0113376
0.0109888
0.010517
0.00994788
0.00921062
0.00829143
0.00721665
0.00589023
0.00446125
0.00412983
0.00408391
0.00401355
0.00392749
0.003838
0.00376008
0.00371144
0.0130854
0.0129851
0.0128886
0.0127947
0.0127027
0.012612
0.0125221
0.0124332
0.012345
0.0122572
0.0121699
0.0120832
0.0119973
0.0119126
0.0118296
0.0117497
0.0116741
0.011605
0.011545
0.0114969
0.0114635
0.0114472
0.0114491
0.0114679
0.0115018
0.0115475
0.0116008
0.0116575
0.0117114
0.0117554
0.0117791
0.0117691
0.01171
0.0115873
0.0113837
0.0110897
0.010689
0.0101918
0.00957007
0.00881442
0.00793561
0.00689188
0.00573651
0.00483257
0.00410204
0.00387137
0.0037394
0.0035805
0.00340778
0.00325646
0.0130112
0.0128156
0.0126543
0.0125088
0.0123707
0.0122373
0.0121066
0.0119775
0.0118501
0.0117246
0.0116013
0.0114809
0.0113651
0.0112556
0.011154
0.0110652
0.0109929
0.0109409
0.0109136
0.0109139
0.0109407
0.0109914
0.0110602
0.011141
0.0112285
0.0113186
0.0114084
0.0114941
0.0115715
0.0116347
0.0116757
0.011684
0.0116465
0.0115505
0.0113814
0.0111293
0.0107833
0.0103481
0.00981339
0.00917716
0.00844857
0.00761232
0.00669585
0.00583384
0.00505198
0.00448095
0.00408494
0.00379413
0.00356268
0.00337032
0.0124974
0.0122123
0.0119743
0.0117491
0.0115342
0.0113308
0.0111394
0.0109616
0.0108015
0.0106591
0.0105363
0.010436
0.0103585
0.0103054
0.0102767
0.0102728
0.0102942
0.0103395
0.0104045
0.0104888
0.0105889
0.0106982
0.0108141
0.0109322
0.0110492
0.0111622
0.01127
0.0113704
0.0114623
0.0115346
0.0115825
0.0115986
0.0115717
0.0114911
0.0113443
0.0111227
0.0108186
0.0104356
0.00997119
0.00942918
0.00882016
0.00814373
0.0074197
0.00671021
0.00604702
0.00547568
0.00500744
0.00463467
0.00434664
0.00413664
0.0112312
0.0109111
0.0106387
0.0104085
0.0102199
0.010072
0.00996214
0.00988667
0.0098414
0.00982158
0.00982299
0.00984213
0.00987624
0.00992372
0.00998293
0.010053
0.0101331
0.0102222
0.010319
0.0104225
0.0105319
0.0106447
0.0107589
0.0108728
0.0109843
0.0110919
0.0111942
0.0112895
0.0113756
0.0114445
0.0114913
0.0115096
0.011489
0.0114128
0.0112784
0.011078
0.0108062
0.0104667
0.0100615
0.00959784
0.00908791
0.00853867
0.0079667
0.00740588
0.00687997
0.00640881
0.00600148
0.00565972
0.00538324
0.00517255
0.0100948
0.00993578
0.00981964
0.0097444
0.00970441
0.00969319
0.00970421
0.00973196
0.00977194
0.00982057
0.0098755
0.00993518
0.00999849
0.010065
0.0101343
0.0102067
0.0102822
0.0103607
0.0104424
0.0105272
0.0106146
0.0107041
0.010795
0.0108861
0.0109764
0.0110642
0.0111481
0.0112265
0.0112963
0.0113526
0.01139
0.0114027
0.0113814
0.0113132
0.0111953
0.0109981
0.0107516
0.0104493
0.0100955
0.00969987
0.00927491
0.00883027
0.00837971
0.00794288
0.00753477
0.00716527
0.00683877
0.00655608
0.00631707
0.00612135
0.00964567
0.00962308
0.00962179
0.00963897
0.00967045
0.0097123
0.0097614
0.00981546
0.00987283
0.00993255
0.00999395
0.0100565
0.01012
0.0101845
0.0102497
0.0103159
0.0103829
0.010451
0.0105202
0.0105905
0.0106617
0.0107337
0.0108059
0.0108781
0.0109491
0.0110181
0.0110835
0.0111438
0.0111963
0.011237
0.0112618
0.0112651
0.0112395
0.0111759
0.0110688
0.0108981
0.0106674
0.0103874
0.01008
0.00974553
0.00939556
0.00903958
0.00868768
0.00835084
0.00803699
0.00775056
0.00749295
0.00726357
0.00706122
0.00688452
0.00957344
0.00960116
0.00963628
0.00967721
0.00972237
0.00977042
0.00982051
0.00987201
0.00992459
0.00997818
0.0100326
0.0100878
0.0101439
0.0102008
0.0102586
0.0103172
0.0103766
0.0104367
0.0104974
0.0105585
0.0106196
0.0106807
0.0107411
0.0108006
0.0108583
0.0109132
0.0109642
0.0110098
0.0110477
0.0110749
0.0110879
0.0110824
0.0110525
0.010992
0.0108948
0.0107495
0.0105564
0.0102926
0.010018
0.00973993
0.00945809
0.00917898
0.00890859
0.00865214
0.00841271
0.00819164
0.00798866
0.00780243
0.00763141
0.00747418
0.00959477
0.00962718
0.00966172
0.00969794
0.00973546
0.00977408
0.00981372
0.0098544
0.00989612
0.00993895
0.00998296
0.0100282
0.0100747
0.0101224
0.0101712
0.0102211
0.0102719
0.0103234
0.0103754
0.0104277
0.01048
0.0105319
0.0105828
0.0106322
0.0106793
0.0107234
0.0107631
0.0107972
0.0108239
0.0108409
0.0108453
0.0108339
0.0108027
0.0107472
0.0106628
0.0105437
0.0103876
0.0101782
0.00990431
0.00968217
0.00946334
0.00925172
0.00904937
0.00885764
0.00867702
0.00850736
0.00834767
0.00819658
0.00805279
0.00791527
0.00954252
0.00956011
0.00957883
0.00959882
0.00962024
0.00964329
0.00966814
0.00969495
0.00972379
0.00975474
0.00978774
0.00982273
0.00985967
0.00989839
0.00993874
0.00998052
0.0100235
0.0100673
0.0101118
0.0101566
0.0102012
0.0102453
0.0102882
0.0103295
0.0103684
0.0104041
0.0104357
0.0104619
0.0104814
0.0104925
0.0104932
0.0104814
0.0104544
0.0104097
0.0103445
0.0102559
0.0101412
0.00999122
0.00974038
0.00956207
0.00940048
0.0092478
0.00910233
0.00896325
0.00882999
0.00870182
0.00857782
0.00845711
0.00833891
0.00822257
0.0304535
0.029829
0.0291934
0.0285312
0.0278381
0.0271138
0.0263609
0.0255845
0.0247906
0.0239861
0.0231783
0.0223738
0.021579
0.0207998
0.020041
0.0193069
0.018601
0.0179258
0.0172831
0.016674
0.0160991
0.015558
0.0150501
0.0145742
0.0141288
0.0137122
0.0133221
0.0129564
0.0126129
0.012289
0.0119821
0.0116893
0.0114077
0.0111343
0.0108664
0.0106021
0.0103403
0.0100789
0.00976226
0.00974187
0.00979186
0.0098879
0.0100137
0.0101584
0.0103175
0.01049
0.0106763
0.0108759
0.0110875
0.011308
9.32895e-06
9.20081e-06
9.0789e-06
8.96237e-06
8.85037e-06
8.74099e-06
8.63413e-06
8.52944e-06
8.42661e-06
8.32537e-06
8.2254e-06
8.1264e-06
8.02811e-06
7.93039e-06
7.8332e-06
7.73661e-06
7.64075e-06
7.54577e-06
7.45185e-06
7.35903e-06
7.25939e-06
7.13943e-06
7.02971e-06
6.92481e-06
6.81679e-06
6.70983e-06
6.60603e-06
6.50631e-06
6.41097e-06
6.32005e-06
6.23347e-06
6.15111e-06
6.07284e-06
5.99852e-06
5.92796e-06
5.86088e-06
5.79692e-06
5.73559e-06
5.67638e-06
5.61873e-06
5.56217e-06
5.50638e-06
5.45042e-06
5.39428e-06
5.33836e-06
5.28339e-06
5.23013e-06
5.17848e-06
5.12594e-06
5.06716e-06
8.97568e-06
8.36696e-06
7.8162e-06
7.31505e-06
6.85897e-06
6.4452e-06
6.06939e-06
5.72754e-06
5.41587e-06
5.13081e-06
4.86911e-06
4.62792e-06
4.40475e-06
4.19751e-06
4.00443e-06
3.82409e-06
3.65532e-06
3.49723e-06
3.34909e-06
3.21027e-06
3.09446e-06
7.23267e-07
7.27448e-07
7.28476e-07
7.29275e-07
7.30163e-07
7.31039e-07
7.3171e-07
7.32013e-07
7.31858e-07
7.31225e-07
7.30153e-07
7.28718e-07
7.27011e-07
7.25115e-07
7.23094e-07
7.20981e-07
7.18775e-07
7.16448e-07
7.13952e-07
7.11235e-07
7.08262e-07
7.05098e-07
7.01735e-07
6.982e-07
6.94578e-07
6.91143e-07
6.8851e-07
6.87523e-07
6.88348e-07
8.97543e-06
8.36379e-06
7.80514e-06
7.29565e-06
6.83023e-06
6.40475e-06
6.01537e-06
5.65852e-06
5.33084e-06
5.02917e-06
4.75066e-06
4.49276e-06
4.25325e-06
4.03022e-06
3.82208e-06
3.6275e-06
3.44535e-06
3.27467e-06
3.11704e-06
7.30208e-07
7.23743e-07
7.17576e-07
7.11857e-07
7.06386e-07
7.01137e-07
6.96059e-07
6.91115e-07
6.86276e-07
6.81528e-07
6.76868e-07
6.72303e-07
6.67847e-07
6.63518e-07
6.5933e-07
6.55288e-07
6.51384e-07
6.47591e-07
6.43868e-07
6.40163e-07
6.36428e-07
6.32614e-07
6.28694e-07
6.24673e-07
6.20592e-07
6.16446e-07
6.12141e-07
6.07475e-07
6.02398e-07
5.97676e-07
5.95521e-07
8.97509e-06
8.36852e-06
7.81481e-06
7.30924e-06
6.84691e-06
6.42364e-06
6.03563e-06
5.67938e-06
5.35161e-06
5.04932e-06
4.76977e-06
4.5105e-06
4.26937e-06
4.04457e-06
3.83456e-06
3.63805e-06
3.45399e-06
3.28148e-06
3.12013e-06
7.3092e-07
7.24763e-07
7.18603e-07
7.12458e-07
7.06339e-07
7.00255e-07
6.94217e-07
6.88235e-07
6.82324e-07
6.76506e-07
6.70803e-07
6.65242e-07
6.59845e-07
6.54631e-07
6.49611e-07
6.44781e-07
6.40125e-07
6.35608e-07
6.31185e-07
6.26801e-07
6.224e-07
6.17933e-07
6.13364e-07
6.08702e-07
6.04005e-07
5.99408e-07
5.95049e-07
5.90862e-07
5.86382e-07
5.81211e-07
5.77114e-07
8.97484e-06
8.36845e-06
7.81483e-06
7.30889e-06
6.84602e-06
6.42228e-06
6.03395e-06
5.67755e-06
5.34976e-06
5.04755e-06
4.76812e-06
4.50898e-06
4.26798e-06
4.04328e-06
3.83336e-06
3.63695e-06
3.45299e-06
3.2806e-06
3.11934e-06
7.30836e-07
7.24739e-07
7.18651e-07
7.12581e-07
7.06538e-07
7.00525e-07
6.94548e-07
6.88612e-07
6.8273e-07
6.7692e-07
6.71202e-07
6.65602e-07
6.60141e-07
6.5484e-07
6.49711e-07
6.44753e-07
6.39952e-07
6.35276e-07
6.3068e-07
6.26116e-07
6.21533e-07
6.1689e-07
6.1215e-07
6.0728e-07
6.02262e-07
5.97155e-07
5.92172e-07
5.87604e-07
5.83392e-07
5.78772e-07
5.74405e-07
8.97487e-06
8.3687e-06
7.81585e-06
7.31089e-06
6.84907e-06
6.42638e-06
6.03906e-06
5.68356e-06
5.35653e-06
5.05489e-06
4.77584e-06
4.51689e-06
4.27591e-06
4.05109e-06
3.84096e-06
3.64426e-06
3.45998e-06
3.28726e-06
3.12566e-06
7.31772e-07
7.25618e-07
7.19472e-07
7.13339e-07
7.07221e-07
7.01124e-07
6.95055e-07
6.89025e-07
6.83051e-07
6.77154e-07
6.71358e-07
6.65686e-07
6.60161e-07
6.54803e-07
6.49622e-07
6.44618e-07
6.39774e-07
6.35056e-07
6.30422e-07
6.25822e-07
6.21208e-07
6.1655e-07
6.11836e-07
6.07065e-07
6.02214e-07
5.97231e-07
5.92139e-07
5.87199e-07
5.82732e-07
5.78303e-07
5.73973e-07
8.97498e-06
8.36901e-06
7.81642e-06
7.31176e-06
6.85022e-06
6.42776e-06
6.04062e-06
5.68525e-06
5.35831e-06
5.0567e-06
4.77759e-06
4.5185e-06
4.27731e-06
4.05225e-06
3.84185e-06
3.64488e-06
3.46034e-06
3.28739e-06
3.12562e-06
7.31779e-07
7.25649e-07
7.19549e-07
7.13482e-07
7.07451e-07
7.01455e-07
6.95494e-07
6.89571e-07
6.83696e-07
6.7788e-07
6.72141e-07
6.665e-07
6.60979e-07
6.55599e-07
6.50373e-07
6.45304e-07
6.40379e-07
6.35572e-07
6.30848e-07
6.26164e-07
6.21473e-07
6.16736e-07
6.11938e-07
6.07104e-07
6.02274e-07
5.97439e-07
5.92523e-07
5.87562e-07
5.82882e-07
5.78396e-07
5.74044e-07
8.97507e-06
8.3695e-06
7.81724e-06
7.31294e-06
6.85181e-06
6.42981e-06
6.04316e-06
5.68826e-06
5.36175e-06
5.06047e-06
4.78157e-06
4.52259e-06
4.28141e-06
4.05627e-06
3.84572e-06
3.64857e-06
3.46382e-06
3.29067e-06
3.12871e-06
3.08915e-06
7.26068e-07
7.19932e-07
7.13823e-07
7.07742e-07
7.01689e-07
6.95669e-07
6.89691e-07
6.83765e-07
6.77908e-07
6.72139e-07
6.66481e-07
6.60953e-07
6.55576e-07
6.50358e-07
6.45297e-07
6.40379e-07
6.35581e-07
6.30869e-07
6.26209e-07
6.21562e-07
6.16887e-07
6.12148e-07
6.07342e-07
6.02514e-07
5.97726e-07
5.92957e-07
5.88129e-07
5.8341e-07
5.78851e-07
5.74428e-07
8.97518e-06
8.37012e-06
7.81826e-06
7.31427e-06
6.85347e-06
6.43181e-06
6.0455e-06
5.69091e-06
5.36462e-06
5.06345e-06
4.78457e-06
4.52551e-06
4.28418e-06
4.05882e-06
3.848e-06
3.65056e-06
3.46553e-06
3.29211e-06
3.12992e-06
3.09031e-06
7.26257e-07
7.20151e-07
7.14103e-07
7.08113e-07
7.02178e-07
6.96295e-07
6.90462e-07
6.84681e-07
6.78958e-07
6.73306e-07
6.67741e-07
6.6228e-07
6.5694e-07
6.51729e-07
6.46648e-07
6.41686e-07
6.36826e-07
6.32041e-07
6.27306e-07
6.22596e-07
6.1789e-07
6.1316e-07
6.08378e-07
6.03548e-07
5.98726e-07
5.93958e-07
5.89182e-07
5.84444e-07
5.79796e-07
5.75246e-07
8.97533e-06
8.3709e-06
7.8195e-06
7.31587e-06
6.85542e-06
6.43413e-06
6.04819e-06
5.69393e-06
5.36789e-06
5.06688e-06
4.78808e-06
4.529e-06
4.28758e-06
4.06206e-06
3.85104e-06
3.65336e-06
3.46808e-06
3.29444e-06
3.13204e-06
3.09229e-06
7.26553e-07
7.20445e-07
7.14407e-07
7.08439e-07
7.02538e-07
6.96698e-07
6.90914e-07
6.85185e-07
6.79514e-07
6.73908e-07
6.6838e-07
6.62942e-07
6.57607e-07
6.52382e-07
6.47268e-07
6.4226e-07
6.37344e-07
6.32502e-07
6.27712e-07
6.22954e-07
6.1822e-07
6.13504e-07
6.08787e-07
6.04044e-07
5.99284e-07
5.94558e-07
5.89846e-07
5.85146e-07
5.80478e-07
5.75851e-07
8.97556e-06
8.37185e-06
7.82098e-06
7.31774e-06
6.85766e-06
6.43673e-06
6.05111e-06
5.69712e-06
5.37127e-06
5.07037e-06
4.79159e-06
4.53247e-06
4.29091e-06
4.0652e-06
3.85393e-06
3.65598e-06
3.47044e-06
3.29655e-06
3.13391e-06
3.09403e-06
7.26813e-07
7.20698e-07
7.14661e-07
7.087e-07
7.0281e-07
6.96985e-07
6.91219e-07
6.85508e-07
6.79854e-07
6.74261e-07
6.68737e-07
6.63292e-07
6.57936e-07
6.52673e-07
6.47504e-07
6.42429e-07
6.37441e-07
6.32532e-07
6.27689e-07
6.22899e-07
6.18154e-07
6.13455e-07
6.088e-07
6.04166e-07
5.99527e-07
5.94901e-07
5.90281e-07
5.8565e-07
5.81002e-07
5.76336e-07
8.97584e-06
8.37297e-06
7.82269e-06
7.31987e-06
6.86015e-06
6.43953e-06
6.05418e-06
5.70039e-06
5.37467e-06
5.07383e-06
4.79503e-06
4.5358e-06
4.29406e-06
4.06811e-06
3.85656e-06
3.65831e-06
3.47249e-06
3.29834e-06
3.13547e-06
3.09548e-06
7.27029e-07
7.20907e-07
7.14868e-07
7.0891e-07
7.03027e-07
6.97211e-07
6.91457e-07
6.85759e-07
6.80115e-07
6.74527e-07
6.69001e-07
6.63541e-07
6.58155e-07
6.52845e-07
6.47614e-07
6.42463e-07
6.37392e-07
6.32404e-07
6.275e-07
6.22678e-07
6.17935e-07
6.13269e-07
6.08682e-07
6.04158e-07
5.99659e-07
5.95169e-07
5.90665e-07
5.86123e-07
5.81517e-07
5.76835e-07
8.97618e-06
8.37423e-06
7.82458e-06
7.32218e-06
6.8628e-06
6.44248e-06
6.05739e-06
5.7038e-06
5.37824e-06
5.07749e-06
4.79871e-06
4.53943e-06
4.29758e-06
4.07146e-06
3.85972e-06
3.66127e-06
3.47525e-06
3.30092e-06
3.13787e-06
3.09771e-06
7.27357e-07
7.21217e-07
7.15165e-07
7.09197e-07
7.03309e-07
6.97493e-07
6.91741e-07
6.86046e-07
6.80403e-07
6.74811e-07
6.69272e-07
6.63789e-07
6.58362e-07
6.52995e-07
6.4769e-07
6.42454e-07
6.37294e-07
6.32221e-07
6.27248e-07
6.22389e-07
6.17649e-07
6.13028e-07
6.08519e-07
6.04108e-07
5.99753e-07
5.95414e-07
5.91045e-07
5.86603e-07
5.82053e-07
5.7737e-07
8.97655e-06
8.37557e-06
7.82651e-06
7.32446e-06
6.86529e-06
6.44511e-06
6.06007e-06
5.70647e-06
5.38082e-06
5.07992e-06
4.80092e-06
4.54138e-06
4.29925e-06
4.07283e-06
3.86079e-06
3.66208e-06
3.47582e-06
3.30127e-06
3.13804e-06
3.09787e-06
7.27378e-07
7.21238e-07
7.15189e-07
7.09228e-07
7.03349e-07
6.97545e-07
6.91806e-07
6.86123e-07
6.8049e-07
6.74904e-07
6.6936e-07
6.63858e-07
6.58397e-07
6.52977e-07
6.47605e-07
6.42291e-07
6.37051e-07
6.31904e-07
6.26872e-07
6.21982e-07
6.17253e-07
6.12688e-07
6.08275e-07
6.03989e-07
5.99786e-07
5.95605e-07
5.91382e-07
5.87056e-07
5.82576e-07
5.77909e-07
8.97696e-06
8.37691e-06
7.82842e-06
7.32674e-06
6.86792e-06
6.44807e-06
6.06335e-06
5.71003e-06
5.3846e-06
5.08384e-06
4.80492e-06
4.54539e-06
4.3032e-06
4.0767e-06
3.86455e-06
3.6657e-06
3.4793e-06
3.3046e-06
3.14119e-06
3.10073e-06
7.27787e-07
7.21609e-07
7.15528e-07
7.0954e-07
7.03639e-07
6.97815e-07
6.92059e-07
6.86361e-07
6.80713e-07
6.75107e-07
6.69537e-07
6.63995e-07
6.5848e-07
6.52992e-07
6.47539e-07
6.42137e-07
6.36808e-07
6.31583e-07
6.26494e-07
6.21577e-07
6.1686e-07
6.1235e-07
6.08035e-07
6.03879e-07
5.99827e-07
5.95807e-07
5.91736e-07
5.87539e-07
5.83152e-07
5.78536e-07
8.97736e-06
8.37794e-06
7.82948e-06
7.32749e-06
6.86819e-06
6.44777e-06
6.06247e-06
5.70857e-06
5.38259e-06
5.08135e-06
4.80201e-06
4.54214e-06
4.29968e-06
4.07297e-06
3.86068e-06
3.66176e-06
3.47534e-06
3.30066e-06
3.13729e-06
3.09704e-06
7.27234e-07
7.21086e-07
7.15035e-07
7.09077e-07
7.03204e-07
6.97408e-07
6.9168e-07
6.86009e-07
6.80386e-07
6.74798e-07
6.69237e-07
6.63695e-07
6.58165e-07
6.52651e-07
6.47162e-07
6.41719e-07
6.36352e-07
6.31102e-07
6.26013e-07
6.21128e-07
6.1648e-07
6.12081e-07
6.07917e-07
6.03947e-07
6.00106e-07
5.96313e-07
5.92474e-07
5.88502e-07
5.84328e-07
5.79915e-07
8.97775e-06
8.37903e-06
7.83134e-06
7.33029e-06
6.87196e-06
6.45239e-06
6.06773e-06
5.71426e-06
5.3885e-06
5.08731e-06
4.80788e-06
4.54779e-06
4.30504e-06
4.078e-06
3.86536e-06
3.66608e-06
3.47931e-06
3.30428e-06
3.14056e-06
3.09997e-06
7.27652e-07
7.21466e-07
7.15384e-07
7.09403e-07
7.03519e-07
6.97726e-07
6.92013e-07
6.86368e-07
6.80779e-07
6.75231e-07
6.69715e-07
6.64218e-07
6.58736e-07
6.5327e-07
6.47835e-07
6.42458e-07
6.37178e-07
6.32047e-07
6.27118e-07
6.22442e-07
6.18056e-07
6.13976e-07
6.10188e-07
6.06649e-07
6.0329e-07
6.00022e-07
5.96751e-07
5.93384e-07
5.89859e-07
5.86146e-07
8.97808e-06
8.37585e-06
7.82411e-06
7.31952e-06
6.85837e-06
6.43684e-06
6.05097e-06
5.69694e-06
5.37114e-06
5.07033e-06
4.79159e-06
4.53244e-06
4.29081e-06
4.06504e-06
3.8538e-06
3.65603e-06
3.4708e-06
3.29732e-06
3.13517e-06
3.09666e-06
7.27413e-07
7.21501e-07
7.15745e-07
7.10183e-07
7.04814e-07
6.99619e-07
6.94566e-07
6.8962e-07
6.84753e-07
6.79941e-07
6.75322e-07
6.70661e-07
6.6597e-07
6.61271e-07
6.56598e-07
6.51997e-07
6.47531e-07
6.43265e-07
6.3927e-07
6.35608e-07
6.32324e-07
6.29436e-07
6.26933e-07
6.24767e-07
6.22864e-07
6.21122e-07
6.19436e-07
6.17711e-07
6.15891e-07
6.13973e-07
8.98009e-06
8.38319e-06
7.8395e-06
7.34325e-06
6.89128e-06
6.48069e-06
6.10747e-06
5.76718e-06
5.45586e-06
5.16994e-06
4.90627e-06
4.66215e-06
4.43534e-06
4.22405e-06
4.02681e-06
3.84244e-06
3.66998e-06
3.50863e-06
3.3578e-06
3.21663e-06
3.13027e-06
7.29024e-07
7.22107e-07
7.17211e-07
7.1371e-07
7.11099e-07
7.08988e-07
7.07094e-07
7.05223e-07
7.03407e-07
7.13135e-07
7.18603e-07
7.21179e-07
7.21809e-07
7.21161e-07
7.1973e-07
7.17888e-07
7.15921e-07
7.14052e-07
7.12444e-07
7.11206e-07
7.10386e-07
7.09976e-07
7.09911e-07
7.10085e-07
7.10363e-07
7.10601e-07
7.10685e-07
7.10576e-07
7.10352e-07
9.32997e-06
9.20687e-06
9.08913e-06
8.97738e-06
8.87087e-06
8.76719e-06
8.66503e-06
8.56382e-06
8.46301e-06
8.3621e-06
8.26075e-06
8.15889e-06
8.05664e-06
7.95436e-06
7.85248e-06
7.75149e-06
7.65187e-06
7.55404e-06
7.45826e-06
7.36452e-06
7.24813e-06
7.13453e-06
7.02337e-06
6.91501e-06
6.80995e-06
6.70849e-06
6.61068e-06
6.5164e-06
6.42542e-06
6.33742e-06
6.25299e-06
6.17123e-06
6.09165e-06
6.01409e-06
5.93861e-06
5.86543e-06
5.79487e-06
5.72727e-06
5.66289e-06
5.60181e-06
5.5439e-06
5.48873e-06
5.43562e-06
5.38372e-06
5.33198e-06
5.27944e-06
5.22517e-06
5.16843e-06
5.10874e-06
5.04575e-06
3.16709e-06
6.98407e-07
3.40584e-06
4.0764e-06
4.1703e-06
3.71206e-06
3.17264e-06
6.88472e-07
6.30001e-07
5.82722e-07
5.55096e-07
5.46232e-07
5.57596e-07
5.70218e-07
5.85219e-07
6.11575e-07
6.43274e-07
6.70087e-07
7.1479e-07
1.03313e-05
6.90377e-07
6.95615e-07
3.43907e-06
4.12605e-06
4.19632e-06
3.69539e-06
3.14642e-06
6.81139e-07
6.19506e-07
5.70061e-07
5.41525e-07
5.33246e-07
5.49853e-07
5.62704e-07
5.78534e-07
6.07251e-07
6.41483e-07
6.69956e-07
7.17176e-07
1.08263e-05
6.40688e-07
6.93823e-07
3.47325e-06
4.17483e-06
4.21983e-06
3.67573e-06
3.12149e-06
6.7382e-07
6.09034e-07
5.57524e-07
5.28258e-07
5.22815e-07
5.40693e-07
5.55653e-07
5.7289e-07
6.02763e-07
6.38497e-07
6.68393e-07
7.18452e-07
1.1295e-05
6.19025e-07
6.93363e-07
3.50854e-06
4.22343e-06
4.2422e-06
3.65501e-06
3.10031e-06
6.66762e-07
5.98756e-07
5.45094e-07
5.14604e-07
5.09824e-07
5.30771e-07
5.48301e-07
5.67148e-07
5.98303e-07
6.35559e-07
6.66864e-07
7.19851e-07
1.17845e-05
6.09899e-07
6.93943e-07
3.54437e-06
4.27124e-06
4.26326e-06
3.63365e-06
3.08398e-06
6.60027e-07
5.88811e-07
5.33035e-07
5.01042e-07
4.95969e-07
5.20213e-07
5.40714e-07
5.61351e-07
5.9387e-07
6.32658e-07
6.65365e-07
7.21363e-07
1.22956e-05
6.06088e-07
6.95092e-07
3.58009e-06
4.31789e-06
4.28315e-06
3.61242e-06
3.07396e-06
6.53703e-07
5.79356e-07
5.21603e-07
4.88038e-07
4.82219e-07
5.09351e-07
5.32985e-07
5.55543e-07
5.89474e-07
6.29792e-07
6.63885e-07
7.22793e-07
1.28302e-05
6.04505e-07
6.96476e-07
3.61508e-06
4.36302e-06
4.30202e-06
3.59198e-06
3.07173e-06
6.47833e-07
5.7051e-07
5.10993e-07
4.75935e-07
4.69284e-07
4.98523e-07
5.25202e-07
5.49757e-07
5.8513e-07
6.26969e-07
6.62429e-07
7.24202e-07
1.33883e-05
6.03827e-07
6.97904e-07
3.64891e-06
4.40636e-06
4.32005e-06
3.57293e-06
3.07892e-06
6.42415e-07
5.62336e-07
5.01303e-07
4.64884e-07
4.57356e-07
4.87899e-07
5.17426e-07
5.4402e-07
5.80855e-07
6.24204e-07
6.61008e-07
7.25606e-07
1.39709e-05
6.03492e-07
6.99292e-07
3.68136e-06
4.44785e-06
4.33749e-06
3.55577e-06
3.06914e-06
6.37185e-07
5.54832e-07
4.92554e-07
4.54887e-07
4.46249e-07
4.77506e-07
5.09691e-07
5.38352e-07
5.76672e-07
6.21515e-07
6.59623e-07
7.24326e-07
1.45794e-05
6.03269e-07
7.00623e-07
3.71246e-06
4.48755e-06
4.3546e-06
3.54094e-06
7.25527e-07
6.32245e-07
5.4801e-07
4.8473e-07
4.45913e-07
4.35727e-07
4.67359e-07
5.02047e-07
5.32786e-07
5.72606e-07
6.18921e-07
6.58211e-07
7.2435e-07
1.52312e-05
6.03078e-07
7.01916e-07
3.74234e-06
4.52559e-06
4.37158e-06
3.52874e-06
7.23585e-07
6.27565e-07
5.41874e-07
4.77809e-07
4.37991e-07
4.25969e-07
4.57617e-07
4.94587e-07
5.2737e-07
5.68687e-07
6.1644e-07
6.56871e-07
7.24225e-07
1.59074e-05
6.02901e-07
7.0319e-07
3.77108e-06
4.56204e-06
4.38859e-06
3.51984e-06
7.20964e-07
6.23105e-07
5.36433e-07
4.71767e-07
4.31187e-07
4.17592e-07
4.48588e-07
4.87437e-07
5.22155e-07
5.6494e-07
6.14083e-07
6.55603e-07
7.24196e-07
1.66107e-05
6.0274e-07
7.04452e-07
3.79866e-06
4.5969e-06
4.4057e-06
3.51382e-06
7.18539e-07
6.1911e-07
5.31675e-07
4.66541e-07
4.25483e-07
4.11243e-07
4.4058e-07
4.80705e-07
5.17176e-07
5.61378e-07
6.11852e-07
6.54399e-07
7.24378e-07
1.73433e-05
6.02591e-07
7.05683e-07
3.82497e-06
4.63014e-06
4.42298e-06
3.51064e-06
7.16387e-07
6.15591e-07
5.2753e-07
4.61998e-07
4.20692e-07
4.07013e-07
4.33686e-07
4.74434e-07
5.12438e-07
5.57997e-07
6.09741e-07
6.53244e-07
7.24608e-07
1.8109e-05
6.02441e-07
7.06859e-07
3.84993e-06
4.6618e-06
4.44054e-06
3.51017e-06
7.14571e-07
6.12521e-07
5.23882e-07
4.57945e-07
4.16452e-07
4.04109e-07
4.27676e-07
4.68583e-07
5.0792e-07
5.54785e-07
6.07744e-07
6.5214e-07
7.25035e-07
1.89081e-05
6.02272e-07
7.0796e-07
3.87355e-06
4.69208e-06
4.45857e-06
3.51228e-06
7.1306e-07
6.09817e-07
5.20589e-07
4.5417e-07
4.12364e-07
4.01117e-07
4.22091e-07
4.6306e-07
5.03595e-07
5.51729e-07
6.05856e-07
6.51087e-07
7.23142e-07
1.97418e-05
6.02069e-07
7.08986e-07
3.89601e-06
4.72132e-06
4.47729e-06
3.51677e-06
7.11799e-07
6.07382e-07
5.17514e-07
4.505e-07
4.08149e-07
3.96858e-07
4.1651e-07
4.57784e-07
4.99447e-07
5.48826e-07
6.04077e-07
6.50072e-07
7.24173e-07
2.06188e-05
6.01832e-07
7.09953e-07
3.91761e-06
4.74993e-06
4.49683e-06
3.52331e-06
7.10722e-07
6.05121e-07
5.14549e-07
4.46833e-07
4.03736e-07
3.9107e-07
4.1079e-07
4.52735e-07
4.95485e-07
5.46082e-07
6.02407e-07
6.49097e-07
7.24776e-07
2.15367e-05
6.0157e-07
7.10886e-07
3.93866e-06
4.77824e-06
4.51715e-06
3.53147e-06
7.09755e-07
6.02952e-07
5.11623e-07
4.43135e-07
3.99223e-07
3.84459e-07
4.05103e-07
4.47953e-07
4.91728e-07
5.43497e-07
6.00837e-07
6.48155e-07
7.25033e-07
2.24965e-05
6.01297e-07
7.11799e-07
3.95939e-06
4.80641e-06
4.5381e-06
3.54078e-06
7.08827e-07
6.00812e-07
5.08694e-07
4.39406e-07
3.94752e-07
3.78189e-07
3.99784e-07
4.43497e-07
4.88186e-07
5.4106e-07
5.99347e-07
6.4733e-07
3.07487e-06
2.34722e-05
6.01019e-07
7.12694e-07
3.97989e-06
4.83447e-06
4.55941e-06
3.55075e-06
7.07882e-07
5.98652e-07
5.05728e-07
4.35637e-07
3.90372e-07
3.73136e-07
3.95089e-07
4.39394e-07
4.84841e-07
5.38739e-07
5.97905e-07
6.46484e-07
3.09086e-06
2.44961e-05
6.00737e-07
7.13558e-07
4.00018e-06
4.86238e-06
4.58084e-06
3.56104e-06
7.06877e-07
5.96437e-07
5.02694e-07
4.31794e-07
3.85999e-07
3.69272e-07
3.91052e-07
4.35604e-07
4.81647e-07
5.36487e-07
5.96476e-07
6.45602e-07
3.08871e-06
2.55658e-05
6.00443e-07
7.14378e-07
4.02029e-06
4.89017e-06
4.60228e-06
3.57141e-06
7.05789e-07
5.94144e-07
4.99563e-07
4.27823e-07
3.81469e-07
3.66119e-07
3.87494e-07
4.32039e-07
4.78542e-07
5.34258e-07
5.95032e-07
6.44689e-07
3.0901e-06
2.66801e-05
6.00127e-07
7.15151e-07
4.04034e-06
4.918e-06
4.62378e-06
3.58182e-06
7.04614e-07
5.91764e-07
4.96312e-07
4.23682e-07
3.76655e-07
3.62646e-07
3.84139e-07
4.28594e-07
4.75466e-07
5.32011e-07
5.93554e-07
6.43747e-07
3.09398e-06
2.78389e-05
5.99789e-07
7.15887e-07
4.06057e-06
4.94615e-06
4.64552e-06
3.59229e-06
7.03361e-07
5.89298e-07
4.92936e-07
4.19358e-07
3.71541e-07
3.58468e-07
3.80774e-07
4.25178e-07
4.72369e-07
5.29717e-07
5.9203e-07
6.42672e-07
3.07931e-06
2.90763e-05
5.99439e-07
7.16609e-07
4.08126e-06
4.97494e-06
4.6677e-06
3.60292e-06
7.0204e-07
5.86755e-07
4.89442e-07
4.14874e-07
3.66207e-07
3.53915e-07
3.77317e-07
4.21717e-07
4.69214e-07
5.27358e-07
5.90456e-07
6.41602e-07
3.08407e-06
3.0352e-05
5.99091e-07
7.17334e-07
4.10261e-06
5.00455e-06
4.69041e-06
3.61376e-06
7.00661e-07
5.84147e-07
4.85847e-07
4.10267e-07
3.60745e-07
3.4948e-07
3.73762e-07
4.18148e-07
4.65963e-07
5.24916e-07
5.88828e-07
6.40525e-07
3.08762e-06
3.16701e-05
5.98756e-07
7.18066e-07
4.1247e-06
5.03498e-06
4.71364e-06
3.62483e-06
6.9923e-07
5.81487e-07
4.82173e-07
4.05581e-07
3.55192e-07
3.45346e-07
3.70088e-07
4.14402e-07
4.6258e-07
5.2238e-07
5.87149e-07
6.3944e-07
3.07565e-06
3.30347e-05
5.9844e-07
7.1879e-07
4.14742e-06
5.06607e-06
4.73728e-06
3.6362e-06
6.97759e-07
5.78798e-07
4.78454e-07
4.00864e-07
3.49537e-07
3.41253e-07
3.66219e-07
4.10417e-07
4.59039e-07
5.19752e-07
5.85436e-07
6.38364e-07
3.06924e-06
3.44521e-05
5.98135e-07
7.1948e-07
4.17057e-06
5.09758e-06
4.76129e-06
3.64801e-06
6.96273e-07
5.76121e-07
4.74746e-07
3.96197e-07
3.43797e-07
3.36693e-07
3.62052e-07
4.06147e-07
4.5533e-07
5.17056e-07