/*--------------------------------*- C++ -*----------------------------------*\
  =========                 |
  \\      /  F ield         | OpenFOAM: The Open Source CFD Toolbox
   \\    /   O peration     | Website:  https://openfoam.org
    \\  /    A nd           | Version:  8
     \\/     M anipulation  |
\*---------------------------------------------------------------------------*/
FoamFile
{
    version     2.0;
    format      ascii;
    class       volScalarField;
    location    "500";
    object      k;
}
// * * * * * * * * * * * * * * * * * * * * * * * * * * * * * * * * * * * * * //

dimensions      [0 2 -2 0 0 0 0];

internalField   nonuniform List<scalar> 
8400
(
0.00328333
0.00323282
0.003179
0.00311769
0.00304801
0.00297043
0.00288598
0.00279589
0.00270146
0.00260387
0.00250403
0.00240261
0.00230019
0.00219737
0.00209482
0.00199319
0.001893
0.00179435
0.00169651
0.00159864
0.00150216
0.00141259
0.00133777
0.00128172
0.00123995
0.00120414
0.00116957
0.00113554
0.00110168
0.00106708
0.00103255
0.000999028
0.000966142
0.00093279
0.000897339
0.000860091
0.000823862
0.000789676
0.000757721
0.000728045
0.00070031
0.000674142
0.000649245
0.000625451
0.00060268
0.000580898
0.00056008
0.000540175
0.000521102
0.000502758
0.00224814
0.00224135
0.00223899
0.00224142
0.00224526
0.00224726
0.00224531
0.0022384
0.00222664
0.00221022
0.00218914
0.00216338
0.00213291
0.00209778
0.0020581
0.00201409
0.00196608
0.00191246
0.00183893
0.00173541
0.00160173
0.00145052
0.00130831
0.00120249
0.00114279
0.00112127
0.00112303
0.00112884
0.00111849
0.00108213
0.00104641
0.00102984
0.00102542
0.00101414
0.000982301
0.000931815
0.000879589
0.000828567
0.000779557
0.000736133
0.000699302
0.000669357
0.000645763
0.000627578
0.000613649
0.000602806
0.000593919
0.000585916
0.000577833
0.000568733
0.00246734
0.00233414
0.00224001
0.0021726
0.00213845
0.00213668
0.00216428
0.00220771
0.00225691
0.00230576
0.0023509
0.00239118
0.0024263
0.00245622
0.00248105
0.0024996
0.00250611
0.0024905
0.00243629
0.00233281
0.00217543
0.00197824
0.00178146
0.00164157
0.0015937
0.00161451
0.00164934
0.00166599
0.00161207
0.00144648
0.0013811
0.00137439
0.00138417
0.00137821
0.00133406
0.00127914
0.00123614
0.00119498
0.00115522
0.00111898
0.00108744
0.00106153
0.00104124
0.00102598
0.00101483
0.0010067
0.00100043
0.000994929
0.00098916
0.000982118
0.00299292
0.00298486
0.00297658
0.00296808
0.00295939
0.00295042
0.00293979
0.00292774
0.00291443
0.00290087
0.00288785
0.00287577
0.00286465
0.00285337
0.00284217
0.00283426
0.00283256
0.00283281
0.00283337
0.00283321
0.00283126
0.00282641
0.00281861
0.00280992
0.00279855
0.00277671
0.00276104
0.00274237
0.0026939
0.00175212
0.0016529
0.00168649
0.00172392
0.00172515
0.00156271
0.0014702
0.0014342
0.00139535
0.00137408
0.00135444
0.00133737
0.00132338
0.00131281
0.00130551
0.00130093
0.00129835
0.00129695
0.00129585
0.00129463
0.0012924
0.00299689
0.00299359
0.00299023
0.00298679
0.00298327
0.00297966
0.00297597
0.00297218
0.0029683
0.00296436
0.00296042
0.00295653
0.00295274
0.00294922
0.00294594
0.00294253
0.00293897
0.00293526
0.0029314
0.00292745
0.00292349
0.00291943
0.00291487
0.00290869
0.00290064
0.00289008
0.00287704
0.00286104
0.00283939
0.00272801
0.00261605
0.00253611
0.00251413
0.00248318
0.00179454
0.00161387
0.00158669
0.00147452
0.00146768
0.00146051
0.00145729
0.00145479
0.0014533
0.00145313
0.00145406
0.00145578
0.00145742
0.00145904
0.00146036
0.00146157
0.00299577
0.00299127
0.00298675
0.00298223
0.00297773
0.00297324
0.00296875
0.00296427
0.0029598
0.00295531
0.00295082
0.0029463
0.00294176
0.00293716
0.00293249
0.0029278
0.00292308
0.00291831
0.00291349
0.00290866
0.00290377
0.00289909
0.00289483
0.00289096
0.00288713
0.00288276
0.00287713
0.00286945
0.00285855
0.00282876
0.00278153
0.00272593
0.00267207
0.00261342
0.00247498
0.00243885
0.0019247
0.00149633
0.00150013
0.00148595
0.00149068
0.00149625
0.00150055
0.00150423
0.00150748
0.00151045
0.00151347
0.00151639
0.001519
0.00152116
0.00299529
0.00299021
0.00298507
0.00297988
0.00297466
0.00296941
0.00296414
0.00295885
0.00295355
0.00294823
0.00294289
0.00293752
0.00293211
0.00292665
0.00292112
0.00291551
0.00290983
0.00290411
0.00289835
0.00289257
0.00288692
0.00288155
0.00287662
0.00287232
0.00286872
0.00286566
0.00286269
0.00285903
0.00285367
0.00284199
0.0028199
0.00278656
0.00274402
0.00269218
0.00261198
0.00253563
0.00236007
0.00228139
0.00154794
0.00147725
0.00147229
0.00148296
0.00148995
0.00149437
0.00149824
0.00150115
0.00150338
0.00150527
0.00150715
0.00150935
0.00299439
0.00298829
0.00298215
0.00297596
0.00296974
0.00296351
0.00295726
0.00295099
0.00294471
0.00293841
0.00293209
0.00292573
0.00291933
0.00291288
0.00290635
0.00289974
0.00289306
0.00288632
0.00287957
0.00287292
0.0028665
0.00286049
0.00285509
0.00285052
0.00284698
0.0028445
0.00284288
0.00284157
0.00283964
0.00283491
0.00282412
0.00280447
0.00277462
0.00273372
0.0026743
0.00260297
0.00249036
0.00238086
0.00214799
0.00182464
0.00143137
0.00143878
0.00144622
0.00145241
0.00145499
0.00145524
0.00145421
0.0014529
0.00145224
0.00145311
0.00299319
0.00298567
0.0029781
0.00297049
0.00296286
0.00295521
0.00294755
0.00293988
0.0029322
0.0029245
0.00291678
0.00290902
0.00290123
0.00289339
0.0028855
0.00287757
0.00286962
0.00286169
0.00285389
0.00284636
0.00283927
0.00283288
0.0028274
0.0028231
0.00282018
0.00281876
0.00281871
0.00281959
0.00282055
0.00282008
0.00281572
0.00280464
0.0027844
0.0027532
0.00270671
0.00264544
0.00255785
0.00245602
0.00229931
0.00208596
0.00182409
0.00138308
0.00139752
0.00140128
0.00139917
0.00139352
0.00138626
0.00137912
0.00137385
0.00137215
0.00299112
0.0029811
0.00297112
0.00296118
0.00295128
0.0029414
0.00293153
0.00292169
0.00291185
0.00290203
0.00289219
0.00288236
0.00287253
0.00286268
0.00285284
0.00284303
0.00283334
0.00282392
0.00281494
0.00280665
0.00279935
0.00279335
0.00278893
0.00278631
0.00278558
0.00278674
0.00278957
0.00279359
0.00279793
0.00280125
0.00280158
0.0027964
0.00278314
0.0027596
0.00272248
0.00267054
0.00259793
0.00250803
0.00238443
0.00222114
0.00201862
0.00174339
0.0014443
0.00136059
0.00134975
0.00133424
0.00131594
0.00129742
0.0012821
0.0012739
0.00298713
0.002972
0.00295739
0.00294316
0.00292923
0.00291548
0.00290188
0.00288842
0.00287503
0.00286171
0.00284847
0.00283529
0.0028222
0.00280923
0.00279651
0.00278419
0.00277246
0.00276165
0.00275214
0.0027444
0.00273884
0.00273579
0.00273542
0.00273763
0.00274216
0.00274859
0.00275645
0.00276506
0.00277356
0.00278075
0.00278499
0.00278417
0.00277593
0.00275807
0.00272785
0.00268356
0.00262158
0.00254272
0.00243947
0.00230737
0.00214572
0.00194087
0.00170688
0.00151431
0.00135996
0.00130051
0.00127042
0.00123457
0.00119589
0.00116296
0.00297629
0.00294717
0.00292272
0.00290063
0.00287975
0.00285962
0.00283994
0.00282062
0.00280162
0.00278284
0.00276441
0.00274638
0.00272896
0.00271237
0.00269688
0.00268298
0.00267126
0.00266241
0.00265704
0.0026556
0.00265825
0.00266449
0.00267379
0.00268517
0.00269791
0.00271137
0.00272507
0.00273846
0.00275087
0.00276133
0.00276847
0.00277057
0.00276562
0.00275164
0.00272629
0.00268786
0.00263387
0.0025644
0.00247589
0.0023659
0.00223442
0.00207633
0.00189761
0.00172372
0.00156223
0.00143826
0.00135053
0.00128475
0.00123166
0.00118754
0.00290212
0.00285935
0.00282385
0.00279059
0.00275907
0.00272925
0.00270097
0.00267445
0.00264999
0.00262787
0.00260828
0.00259131
0.00257756
0.00256731
0.00256058
0.00255786
0.00255911
0.00256396
0.00257237
0.00258389
0.00259801
0.00261412
0.00263143
0.00264937
0.0026673
0.0026849
0.00270189
0.00271855
0.00273321
0.00274528
0.00275372
0.00275711
0.00275376
0.00274195
0.00271967
0.00268547
0.00263754
0.00257592
0.00249901
0.00240602
0.00229785
0.00217349
0.00203695
0.00190006
0.00176951
0.00165422
0.00155794
0.00147985
0.00141851
0.00137355
0.00270278
0.00265169
0.00260828
0.00257159
0.00254145
0.0025176
0.00249958
0.0024868
0.00247859
0.00247431
0.00247339
0.00247534
0.00247984
0.00248667
0.0024956
0.00250647
0.00251915
0.00253338
0.00254898
0.00256576
0.00258332
0.00260143
0.00261976
0.00263801
0.00265592
0.0026733
0.00268993
0.00270575
0.00271985
0.00273145
0.00273965
0.00274332
0.00274076
0.00272945
0.00270879
0.00267743
0.0026341
0.00257904
0.00251178
0.00243263
0.00234322
0.00224451
0.00213983
0.00203568
0.00193685
0.00184734
0.00176933
0.00170347
0.00165
0.00160944
0.00250804
0.0024821
0.00246346
0.00245168
0.00244569
0.00244433
0.00244652
0.00245131
0.00245798
0.00246599
0.00247498
0.00248473
0.00249509
0.00250599
0.00251744
0.00252942
0.00254194
0.00255499
0.00256854
0.00258257
0.00259699
0.00261171
0.00262658
0.00264145
0.00265613
0.00267044
0.00268421
0.00269714
0.00270863
0.00271798
0.00272443
0.00272694
0.00272403
0.00271364
0.00269527
0.00266393
0.00262423
0.00257481
0.00251591
0.00244861
0.00237489
0.0022965
0.00221618
0.00213776
0.00206419
0.00199748
0.00193858
0.00188774
0.00184491
0.00181008
0.00243542
0.00243309
0.00243429
0.00243843
0.00244474
0.00245255
0.00246134
0.00247076
0.00248055
0.00249058
0.00250075
0.00251102
0.00252139
0.00253185
0.0025424
0.00255308
0.00256388
0.00257485
0.00258598
0.00259728
0.00260871
0.00262025
0.00263183
0.00264337
0.00265475
0.00266579
0.00267631
0.002686
0.00269445
0.00270104
0.00270513
0.00270578
0.00270181
0.00269178
0.00267479
0.00264728
0.00260967
0.00256371
0.00251234
0.00245561
0.00239549
0.00233376
0.00227246
0.00221375
0.00215919
0.00210965
0.00206536
0.00202618
0.00199179
0.00196184
0.00242787
0.00243356
0.00244036
0.00244798
0.00245614
0.00246466
0.0024734
0.00248229
0.00249129
0.00250038
0.00250956
0.00251882
0.00252816
0.00253759
0.00254711
0.0025567
0.00256635
0.00257606
0.00258579
0.00259554
0.00260526
0.00261491
0.00262445
0.00263378
0.0026428
0.00265138
0.00265933
0.00266639
0.00267222
0.00267637
0.00267825
0.00267714
0.00267215
0.00266224
0.00264641
0.0026227
0.00259102
0.00254717
0.00250148
0.00245444
0.00240645
0.00235878
0.00231264
0.00226905
0.00222867
0.00219171
0.00215805
0.00212737
0.00209929
0.00207344
0.00243183
0.00243778
0.00244404
0.00245054
0.00245722
0.00246407
0.00247106
0.00247822
0.00248554
0.00249303
0.00250069
0.00250852
0.00251652
0.00252466
0.00253294
0.00254132
0.00254979
0.00255831
0.00256684
0.00257534
0.00258376
0.00259204
0.00260009
0.00260784
0.00261518
0.00262196
0.00262803
0.00263315
0.00263706
0.00263937
0.00263965
0.00263737
0.00263189
0.00262249
0.00260842
0.00258869
0.00256284
0.00252749
0.00248225
0.00244479
0.00240791
0.00237226
0.00233835
0.00230646
0.00227672
0.00224905
0.00222321
0.00219887
0.00217572
0.00215348
0.00242113
0.00242454
0.00242816
0.00243203
0.00243617
0.00244061
0.00244536
0.00245044
0.00245585
0.00246158
0.00246763
0.00247397
0.00248058
0.00248743
0.00249448
0.00250169
0.00250903
0.00251643
0.00252385
0.00253124
0.00253852
0.00254562
0.00255247
0.00255898
0.00256503
0.0025705
0.00257524
0.00257907
0.00258176
0.00258306
0.00258265
0.00258017
0.00257523
0.00256738
0.00255617
0.00254118
0.00252197
0.00249675
0.00245379
0.00242467
0.00239783
0.00237247
0.00234849
0.00232576
0.0023042
0.00228364
0.00226387
0.00224464
0.00222577
0.00220707
0.0052822
0.00520548
0.00512661
0.00504388
0.00495687
0.00486557
0.00477033
0.00467175
0.00457059
0.00446768
0.00436388
0.00426
0.00415683
0.00405505
0.00395529
0.00385808
0.00376384
0.00367291
0.00358556
0.00350194
0.00342216
0.00334623
0.00327411
0.00320573
0.00314092
0.00307951
0.0030213
0.00296605
0.00291351
0.00286339
0.00281538
0.00276911
0.00272417
0.00268017
0.00263674
0.00259365
0.00255089
0.00250832
0.00245535
0.00245634
0.00246768
0.00248603
0.0025089
0.00253475
0.00256302
0.00259365
0.00262662
0.00266177
0.00269872
0.00273685
2.38378e-05
2.36069e-05
2.33853e-05
2.31826e-05
2.29889e-05
2.27962e-05
2.26045e-05
2.24158e-05
2.22316e-05
2.20525e-05
2.18786e-05
2.17092e-05
2.15436e-05
2.13805e-05
2.12186e-05
2.10563e-05
2.08924e-05
2.07259e-05
2.05565e-05
2.03843e-05
2.02055e-05
2.00112e-05
1.97702e-05
1.95455e-05
1.93313e-05
1.91262e-05
1.89302e-05
1.87437e-05
1.85667e-05
1.83988e-05
1.82391e-05
1.80863e-05
1.79393e-05
1.77969e-05
1.76579e-05
1.75217e-05
1.73877e-05
1.72555e-05
1.71237e-05
1.69934e-05
1.68659e-05
1.67423e-05
1.66229e-05
1.65084e-05
1.63992e-05
1.62958e-05
1.61984e-05
1.6105e-05
1.60089e-05
1.58979e-05
2.32287e-05
2.2163e-05
2.11669e-05
2.02394e-05
1.93794e-05
1.85857e-05
1.78522e-05
1.71739e-05
1.65466e-05
1.5966e-05
1.54275e-05
1.49261e-05
1.44565e-05
1.40138e-05
1.35935e-05
1.31917e-05
1.28057e-05
1.24339e-05
1.20757e-05
1.17305e-05
1.14126e-05
1.13462e-05
1.1357e-05
1.13648e-05
1.13714e-05
1.13796e-05
1.13904e-05
1.14029e-05
1.14151e-05
1.14245e-05
1.14287e-05
1.14257e-05
1.14143e-05
1.13939e-05
1.13646e-05
1.13269e-05
1.1282e-05
1.12314e-05
1.11782e-05
1.11233e-05
1.10676e-05
1.10118e-05
1.09573e-05
1.09044e-05
1.08535e-05
1.08048e-05
1.07606e-05
1.07276e-05
1.07163e-05
1.07293e-05
2.32231e-05
2.21469e-05
2.11436e-05
2.02066e-05
1.93314e-05
1.85146e-05
1.77529e-05
1.70423e-05
1.63792e-05
1.57596e-05
1.51794e-05
1.46344e-05
1.41204e-05
1.36332e-05
1.31693e-05
1.27257e-05
1.23001e-05
1.18911e-05
1.14999e-05
1.1401e-05
1.12962e-05
1.1192e-05
1.10936e-05
1.10008e-05
1.09141e-05
1.08334e-05
1.07585e-05
1.06885e-05
1.06225e-05
1.05591e-05
1.04972e-05
1.04356e-05
1.03734e-05
1.03099e-05
1.02449e-05
1.01785e-05
1.01107e-05
1.00418e-05
9.97237e-06
9.90288e-06
9.83401e-06
9.76642e-06
9.70085e-06
9.63797e-06
9.57766e-06
9.51808e-06
9.45543e-06
9.3873e-06
9.32175e-06
9.2869e-06
2.32258e-05
2.2155e-05
2.11601e-05
2.02324e-05
1.93649e-05
1.85535e-05
1.77951e-05
1.70863e-05
1.64236e-05
1.58033e-05
1.52214e-05
1.46739e-05
1.41566e-05
1.36656e-05
1.31976e-05
1.27497e-05
1.23197e-05
1.19064e-05
1.15098e-05
1.14077e-05
1.13048e-05
1.12017e-05
1.10997e-05
1.09999e-05
1.09033e-05
1.08102e-05
1.07207e-05
1.06347e-05
1.05516e-05
1.04707e-05
1.03914e-05
1.03128e-05
1.02345e-05
1.0156e-05
1.00771e-05
9.99753e-06
9.91749e-06
9.83718e-06
9.75701e-06
9.67744e-06
9.59894e-06
9.52196e-06
9.44713e-06
9.37542e-06
9.30837e-06
9.2473e-06
9.19068e-06
9.13138e-06
9.06228e-06
9.00391e-06
2.32276e-05
2.21583e-05
2.11625e-05
2.02337e-05
1.93653e-05
1.85531e-05
1.77939e-05
1.70845e-05
1.64214e-05
1.58009e-05
1.5219e-05
1.46714e-05
1.41541e-05
1.36632e-05
1.31951e-05
1.27471e-05
1.23173e-05
1.19042e-05
1.15081e-05
1.14067e-05
1.13048e-05
1.1203e-05
1.11023e-05
1.10038e-05
1.09081e-05
1.08157e-05
1.07265e-05
1.06403e-05
1.05567e-05
1.04748e-05
1.03941e-05
1.03139e-05
1.02337e-05
1.01532e-05
1.0072e-05
9.99018e-06
9.90785e-06
9.82526e-06
9.74282e-06
9.66104e-06
9.58043e-06
9.50141e-06
9.42406e-06
9.34826e-06
9.27439e-06
9.20449e-06
9.14155e-06
9.0842e-06
9.02164e-06
8.96046e-06
2.3228e-05
2.21616e-05
2.11676e-05
2.02404e-05
1.93737e-05
1.85636e-05
1.78063e-05
1.70986e-05
1.64369e-05
1.58176e-05
1.52364e-05
1.46893e-05
1.4172e-05
1.36808e-05
1.32124e-05
1.27639e-05
1.23336e-05
1.19202e-05
1.15238e-05
1.1422e-05
1.13198e-05
1.12177e-05
1.11168e-05
1.10178e-05
1.09215e-05
1.08281e-05
1.07376e-05
1.06499e-05
1.05644e-05
1.04806e-05
1.03979e-05
1.03157e-05
1.02338e-05
1.01517e-05
1.00693e-05
9.9865e-06
9.90347e-06
9.82043e-06
9.73774e-06
9.65586e-06
9.57538e-06
9.497e-06
9.42124e-06
9.34796e-06
9.27615e-06
9.20531e-06
9.13768e-06
9.07647e-06
9.01546e-06
8.95432e-06
2.32281e-05
2.21641e-05
2.11718e-05
2.02453e-05
1.93791e-05
1.85692e-05
1.78121e-05
1.71044e-05
1.64426e-05
1.58229e-05
1.52412e-05
1.46934e-05
1.41754e-05
1.36834e-05
1.32142e-05
1.27651e-05
1.23344e-05
1.19207e-05
1.15243e-05
1.14206e-05
1.13202e-05
1.12197e-05
1.11203e-05
1.10229e-05
1.09279e-05
1.08357e-05
1.07461e-05
1.0659e-05
1.05739e-05
1.04901e-05
1.04072e-05
1.03247e-05
1.02422e-05
1.01594e-05
1.00763e-05
9.99288e-06
9.90924e-06
9.8257e-06
9.74261e-06
9.66035e-06
9.57936e-06
9.50023e-06
9.42378e-06
9.3507e-06
9.28068e-06
9.21211e-06
9.14436e-06
9.08041e-06
9.01834e-06
8.95653e-06
2.32286e-05
2.21666e-05
2.11761e-05
2.02509e-05
1.93856e-05
1.85765e-05
1.782e-05
1.71129e-05
1.64516e-05
1.58322e-05
1.52506e-05
1.47027e-05
1.41845e-05
1.36921e-05
1.32226e-05
1.27732e-05
1.23423e-05
1.19287e-05
1.15307e-05
1.124e-05
1.12044e-05
1.11468e-05
1.10755e-05
1.09963e-05
1.0913e-05
1.08279e-05
1.07424e-05
1.06573e-05
1.05729e-05
1.0489e-05
1.04056e-05
1.03225e-05
1.02395e-05
1.01564e-05
1.00733e-05
9.99014e-06
9.90703e-06
9.82425e-06
9.74218e-06
9.66122e-06
9.58172e-06
9.50396e-06
9.42832e-06
9.35551e-06
9.28611e-06
9.21933e-06
9.1533e-06
9.08893e-06
9.02589e-06
8.96307e-06
2.32294e-05
2.21696e-05
2.11808e-05
2.02567e-05
1.93923e-05
1.85838e-05
1.78278e-05
1.71209e-05
1.64595e-05
1.58399e-05
1.52579e-05
1.47094e-05
1.41904e-05
1.36974e-05
1.32272e-05
1.27774e-05
1.23462e-05
1.19324e-05
1.15346e-05
1.12412e-05
1.12055e-05
1.11488e-05
1.1079e-05
1.10015e-05
1.09198e-05
1.08362e-05
1.07521e-05
1.06681e-05
1.05845e-05
1.05014e-05
1.04185e-05
1.03359e-05
1.02533e-05
1.01707e-05
1.00879e-05
1.00051e-05
9.9223e-06
9.83977e-06
9.75786e-06
9.67708e-06
9.59797e-06
9.52089e-06
9.44594e-06
9.37325e-06
9.30334e-06
9.23629e-06
9.17054e-06
9.1056e-06
9.04112e-06
8.97637e-06
2.32304e-05
2.2173e-05
2.11859e-05
2.0263e-05
1.93995e-05
1.85916e-05
1.78361e-05
1.71294e-05
1.64681e-05
1.58483e-05
1.5266e-05
1.47171e-05
1.41976e-05
1.37041e-05
1.32335e-05
1.27834e-05
1.23521e-05
1.19385e-05
1.1541e-05
1.12479e-05
1.12127e-05
1.11566e-05
1.10873e-05
1.10101e-05
1.09285e-05
1.08449e-05
1.07605e-05
1.0676e-05
1.05918e-05
1.0508e-05
1.04247e-05
1.03416e-05
1.02588e-05
1.01761e-05
1.00934e-05
1.00108e-05
9.9283e-06
9.84614e-06
9.7646e-06
9.68412e-06
9.60532e-06
9.52879e-06
9.45476e-06
9.38307e-06
9.3137e-06
9.24679e-06
9.18137e-06
9.11647e-06
9.05137e-06
8.98536e-06
2.32314e-05
2.21766e-05
2.11912e-05
2.02696e-05
1.9407e-05
1.85997e-05
1.78445e-05
1.71381e-05
1.64767e-05
1.58567e-05
1.5274e-05
1.47246e-05
1.42045e-05
1.37105e-05
1.32395e-05
1.27891e-05
1.23578e-05
1.19444e-05
1.15471e-05
1.12544e-05
1.12199e-05
1.11642e-05
1.10952e-05
1.10181e-05
1.09364e-05
1.08522e-05
1.0767e-05
1.06815e-05
1.05962e-05
1.05114e-05
1.0427e-05
1.03432e-05
1.02598e-05
1.01767e-05
1.00938e-05
1.00112e-05
9.92887e-06
9.84695e-06
9.76575e-06
9.68569e-06
9.60731e-06
9.53123e-06
9.45792e-06
9.38731e-06
9.31902e-06
9.25283e-06
9.188e-06
9.12346e-06
9.05824e-06
8.99151e-06
2.32324e-05
2.21801e-05
2.11966e-05
2.02762e-05
1.94144e-05
1.86078e-05
1.7853e-05
1.71466e-05
1.64852e-05
1.58648e-05
1.52817e-05
1.47317e-05
1.4211e-05
1.37164e-05
1.3245e-05
1.27944e-05
1.2363e-05
1.19497e-05
1.15528e-05
1.12605e-05
1.12265e-05
1.11713e-05
1.11026e-05
1.10254e-05
1.09433e-05
1.08584e-05
1.07722e-05
1.06856e-05
1.05991e-05
1.05131e-05
1.04278e-05
1.03431e-05
1.02592e-05
1.01758e-05
1.00928e-05
1.00102e-05
9.92787e-06
9.84605e-06
9.76506e-06
9.68535e-06
9.60746e-06
9.53194e-06
9.45928e-06
9.3896e-06
9.32246e-06
9.25733e-06
9.19333e-06
9.12936e-06
9.06428e-06
8.99713e-06
2.32334e-05
2.21835e-05
2.12018e-05
2.02826e-05
1.94217e-05
1.86157e-05
1.78612e-05
1.71551e-05
1.64937e-05
1.58732e-05
1.52898e-05
1.47394e-05
1.42184e-05
1.37235e-05
1.32519e-05
1.28013e-05
1.23701e-05
1.19572e-05
1.15607e-05
1.12686e-05
1.1235e-05
1.118e-05
1.11112e-05
1.10337e-05
1.09509e-05
1.08651e-05
1.07777e-05
1.06898e-05
1.0602e-05
1.05148e-05
1.04285e-05
1.03431e-05
1.02586e-05
1.01748e-05
1.00917e-05
1.0009e-05
9.92672e-06
9.8449e-06
9.76395e-06
9.68443e-06
9.60692e-06
9.53196e-06
9.45999e-06
9.39118e-06
9.32515e-06
9.26116e-06
9.19816e-06
9.13489e-06
9.0701e-06
9.00273e-06
2.32343e-05
2.21867e-05
2.12065e-05
2.02884e-05
1.94281e-05
1.86225e-05
1.78681e-05
1.71618e-05
1.64999e-05
1.58789e-05
1.52947e-05
1.47436e-05
1.42219e-05
1.37264e-05
1.32543e-05
1.28034e-05
1.23723e-05
1.19595e-05
1.15633e-05
1.12716e-05
1.12387e-05
1.11841e-05
1.11154e-05
1.10377e-05
1.09544e-05
1.08678e-05
1.07794e-05
1.06904e-05
1.06016e-05
1.05135e-05
1.04264e-05
1.03405e-05
1.02557e-05
1.01719e-05
1.00887e-05
1.00061e-05
9.92381e-06
9.84208e-06
9.76124e-06
9.68192e-06
9.60478e-06
9.53044e-06
9.45929e-06
9.39148e-06
9.32663e-06
9.26387e-06
9.20201e-06
9.13963e-06
9.07536e-06
9.00804e-06
2.32352e-05
2.21895e-05
2.12107e-05
2.02936e-05
1.94343e-05
1.86294e-05
1.78757e-05
1.71699e-05
1.65085e-05
1.58876e-05
1.53035e-05
1.47523e-05
1.42305e-05
1.37349e-05
1.32629e-05
1.28122e-05
1.23814e-05
1.1969e-05
1.15731e-05
1.12812e-05
1.12481e-05
1.11933e-05
1.11241e-05
1.10456e-05
1.09612e-05
1.08734e-05
1.07837e-05
1.06933e-05
1.06032e-05
1.0514e-05
1.0426e-05
1.03394e-05
1.02541e-05
1.01699e-05
1.00866e-05
1.00037e-05
9.9213e-06
9.83947e-06
9.7586e-06
9.67935e-06
9.60248e-06
9.52866e-06
9.45833e-06
9.39155e-06
9.32791e-06
9.26647e-06
9.20589e-06
9.14463e-06
9.08125e-06
9.01452e-06
2.3236e-05
2.21914e-05
2.12129e-05
2.02955e-05
1.94355e-05
1.86296e-05
1.78748e-05
1.71677e-05
1.6505e-05
1.58829e-05
1.52976e-05
1.47454e-05
1.42228e-05
1.37267e-05
1.32544e-05
1.28037e-05
1.23731e-05
1.19611e-05
1.15656e-05
1.12746e-05
1.12423e-05
1.11881e-05
1.11192e-05
1.10407e-05
1.09562e-05
1.08679e-05
1.07777e-05
1.06868e-05
1.05963e-05
1.05068e-05
1.04187e-05
1.03322e-05
1.02471e-05
1.01632e-05
1.00802e-05
9.99771e-06
9.91571e-06
9.83436e-06
9.75411e-06
9.67565e-06
9.5998e-06
9.52731e-06
9.45863e-06
9.39384e-06
9.33245e-06
9.27348e-06
9.21552e-06
9.157e-06
9.09645e-06
9.03271e-06
2.32367e-05
2.21932e-05
2.12162e-05
2.03007e-05
1.94428e-05
1.86388e-05
1.78856e-05
1.71797e-05
1.65177e-05
1.58958e-05
1.53105e-05
1.47579e-05
1.42349e-05
1.37382e-05
1.32655e-05
1.28144e-05
1.23834e-05
1.19711e-05
1.15753e-05
1.12834e-05
1.12508e-05
1.1196e-05
1.11265e-05
1.10474e-05
1.09621e-05
1.08732e-05
1.07825e-05
1.06914e-05
1.06008e-05
1.05116e-05
1.04243e-05
1.03388e-05
1.0255e-05
1.01727e-05
1.00914e-05
1.00108e-05
9.93083e-06
9.85182e-06
9.77429e-06
9.69902e-06
9.62692e-06
9.5588e-06
9.49521e-06
9.4362e-06
9.38133e-06
9.32959e-06
9.27963e-06
9.22992e-06
9.1791e-06
9.12622e-06
2.32371e-05
2.21873e-05
2.12029e-05
2.02806e-05
1.9417e-05
1.86088e-05
1.78527e-05
1.71451e-05
1.64824e-05
1.58607e-05
1.52761e-05
1.47249e-05
1.42038e-05
1.37095e-05
1.32395e-05
1.27916e-05
1.23641e-05
1.19554e-05
1.15633e-05
1.12776e-05
1.12468e-05
1.11958e-05
1.11298e-05
1.10548e-05
1.09747e-05
1.0892e-05
1.08088e-05
1.07261e-05
1.0645e-05
1.05661e-05
1.04936e-05
1.0425e-05
1.03585e-05
1.02928e-05
1.02274e-05
1.0162e-05
1.00969e-05
1.00325e-05
9.96982e-06
9.90994e-06
9.85403e-06
9.80314e-06
9.75797e-06
9.71869e-06
9.68487e-06
9.6555e-06
9.62916e-06
9.60433e-06
9.57978e-06
9.55498e-06
2.32405e-05
2.22e-05
2.12301e-05
2.03237e-05
1.9478e-05
1.86917e-05
1.79616e-05
1.72833e-05
1.66523e-05
1.60644e-05
1.55154e-05
1.50012e-05
1.4518e-05
1.40625e-05
1.36317e-05
1.3223e-05
1.28344e-05
1.24643e-05
1.21112e-05
1.17716e-05
1.14833e-05
1.14435e-05
1.13792e-05
1.13073e-05
1.12363e-05
1.11701e-05
1.11098e-05
1.10551e-05
1.10051e-05
1.09602e-05
1.10081e-05
1.10646e-05
1.11137e-05
1.11488e-05
1.11684e-05
1.11736e-05
1.11671e-05
1.11519e-05
1.11313e-05
1.11085e-05
1.10866e-05
1.10678e-05
1.10537e-05
1.10449e-05
1.10412e-05
1.10414e-05
1.10437e-05
1.10464e-05
1.10484e-05
1.10504e-05
2.38402e-05
2.36304e-05
2.34278e-05
2.32333e-05
2.3046e-05
2.28627e-05
2.26814e-05
2.25022e-05
2.23245e-05
2.21482e-05
2.19727e-05
2.17977e-05
2.1623e-05
2.14483e-05
2.12739e-05
2.10998e-05
2.09261e-05
2.07531e-05
2.05808e-05
2.04092e-05
2.02247e-05
2.00328e-05
1.98365e-05
1.9638e-05
1.94396e-05
1.92434e-05
1.90511e-05
1.8864e-05
1.86831e-05
1.85086e-05
1.83054e-05
1.81217e-05
1.79525e-05
1.77941e-05
1.76436e-05
1.74993e-05
1.736e-05
1.72254e-05
1.70955e-05
1.69704e-05
1.68502e-05
1.6735e-05
1.66239e-05
1.65159e-05
1.64095e-05
1.63027e-05
1.61936e-05
1.60803e-05
1.59614e-05
1.58353e-05
1.07594e-05
1.08144e-05
1.21209e-05
1.36475e-05
1.38322e-05
1.27758e-05
1.15432e-05
1.07039e-05
9.78954e-06
9.04434e-06
8.60091e-06
8.45487e-06
8.6378e-06
8.90604e-06
9.16957e-06
9.55573e-06
1.0023e-05
1.04336e-05
1.11357e-05
2.53784e-05
9.97694e-06
1.07891e-05
1.22012e-05
1.37581e-05
1.38892e-05
1.27366e-05
1.14853e-05
1.05947e-05
9.62852e-06
8.84732e-06
8.38473e-06
8.23845e-06
8.50423e-06
8.7874e-06
9.06563e-06
9.48836e-06
9.99725e-06
1.0436e-05
1.11792e-05
2.62046e-05
9.65691e-06
1.07838e-05
1.22823e-05
1.38655e-05
1.39407e-05
1.26916e-05
1.14318e-05
1.04868e-05
9.46876e-06
8.65285e-06
8.17107e-06
8.02377e-06
8.34709e-06
8.67396e-06
8.97813e-06
9.4201e-06
9.95186e-06
1.04124e-05
1.11997e-05
2.69563e-05
9.51037e-06
1.07916e-05
1.23644e-05
1.39709e-05
1.39887e-05
1.26442e-05
1.13871e-05
1.03837e-05
9.31454e-06
8.46674e-06
7.96999e-06
7.83576e-06
8.19488e-06
8.5602e-06
8.89072e-06
9.35299e-06
9.90756e-06
1.03894e-05
1.12224e-05
2.7732e-05
9.44912e-06
1.08089e-05
1.24461e-05
1.40733e-05
1.40335e-05
1.25959e-05
1.13526e-05
1.02856e-05
9.16568e-06
8.28638e-06
7.7694e-06
7.63785e-06
8.03928e-06
8.44483e-06
8.80309e-06
9.2867e-06
9.86419e-06
1.03672e-05
1.12471e-05
2.85323e-05
9.42398e-06
1.08306e-05
1.25264e-05
1.41721e-05
1.40756e-05
1.25488e-05
1.13299e-05
1.01943e-05
9.02629e-06
8.11817e-06
7.57879e-06
7.43472e-06
7.87772e-06
8.32724e-06
8.71515e-06
9.22101e-06
9.82146e-06
1.03453e-05
1.12727e-05
2.93569e-05
9.41369e-06
1.08539e-05
1.26044e-05
1.4267e-05
1.41159e-05
1.25046e-05
1.13177e-05
1.0109e-05
8.89689e-06
7.96385e-06
7.40341e-06
7.24089e-06
7.71391e-06
8.20789e-06
8.62693e-06
9.15572e-06
9.77912e-06
1.03236e-05
1.12988e-05
3.02054e-05
9.40924e-06
1.08769e-05
1.26793e-05
1.43579e-05
1.41551e-05
1.24648e-05
1.13126e-05
1.00285e-05
8.77784e-06
7.82384e-06
7.24441e-06
7.06391e-06
7.55312e-06
8.08796e-06
8.53855e-06
9.09074e-06
9.73706e-06
1.03019e-05
1.13251e-05
3.10782e-05
9.4068e-06
1.08989e-05
1.27506e-05
1.44444e-05
1.41936e-05
1.24321e-05
1.13069e-05
9.95096e-06
8.66959e-06
7.69829e-06
7.10155e-06
6.90201e-06
7.39741e-06
7.96831e-06
8.45019e-06
9.02608e-06
9.69529e-06
1.02789e-05
1.13172e-05
3.19976e-05
9.40473e-06
1.09194e-05
1.28183e-05
1.45267e-05
1.42319e-05
1.24059e-05
1.13173e-05
9.87936e-06
8.57215e-06
7.58654e-06
6.97406e-06
6.75072e-06
7.24566e-06
7.84926e-06
8.36212e-06
8.96201e-06
9.65412e-06
1.02576e-05
1.13355e-05
3.2921e-05
9.40237e-06
1.09386e-05
1.28826e-05
1.4605e-05
1.42703e-05
1.23866e-05
1.12811e-05
9.81055e-06
8.48442e-06
7.48704e-06
6.86053e-06
6.60787e-06
7.09696e-06
7.73128e-06
8.2749e-06
8.89908e-06
9.61403e-06
1.02366e-05
1.13499e-05
3.38764e-05
9.3996e-06
1.09567e-05
1.29438e-05
1.46798e-05
1.43091e-05
1.2374e-05
1.12448e-05
9.74707e-06
8.40563e-06
7.39804e-06
6.75947e-06
6.47626e-06
6.95377e-06
7.61578e-06
8.18948e-06
8.838e-06
9.57554e-06
1.02164e-05
1.13622e-05
3.48618e-05
9.39655e-06
1.09743e-05
1.30022e-05
1.47513e-05
1.43482e-05
1.23674e-05
1.12121e-05
9.68958e-06
8.33471e-06
7.31792e-06
6.66982e-06
6.36307e-06
6.82205e-06
7.50514e-06
8.10705e-06
8.77946e-06
9.53904e-06
1.01974e-05
1.13742e-05
3.58767e-05
9.39341e-06
1.09914e-05
1.30583e-05
1.482e-05
1.43879e-05
1.23661e-05
1.11832e-05
9.63749e-06
8.27038e-06
7.24504e-06
6.59043e-06
6.2758e-06
6.70798e-06
7.40179e-06
8.02868e-06
8.72397e-06
9.50468e-06
1.01794e-05
1.13864e-05
3.6922e-05
9.3903e-06
1.10081e-05
1.31121e-05
1.48861e-05
1.4428e-05
1.23697e-05
1.11577e-05
9.59007e-06
8.2113e-06
7.17754e-06
6.51894e-06
6.21633e-06
6.61372e-06
7.30691e-06
7.95479e-06
8.67167e-06
9.47247e-06
1.01623e-05
1.13996e-05
3.79983e-05
9.3872e-06
1.10244e-05
1.31639e-05
1.495e-05
1.44687e-05
1.23776e-05
1.11352e-05
9.54644e-06
8.15606e-06
7.11333e-06
6.45142e-06
6.1756e-06
6.53599e-06
7.22001e-06
7.885e-06
8.62224e-06
9.44221e-06
1.01446e-05
1.13748e-05
3.91338e-05
9.38402e-06
1.104e-05
1.32139e-05
1.5012e-05
1.45104e-05
1.23896e-05
1.11151e-05
9.50568e-06
8.10324e-06
7.05035e-06
6.38352e-06
6.13197e-06
6.46739e-06
7.13963e-06
7.81871e-06
8.57517e-06
9.41351e-06
1.01295e-05
1.13933e-05
4.02669e-05
9.38063e-06
1.10548e-05
1.32624e-05
1.50729e-05
1.45532e-05
1.24051e-05
1.10969e-05
9.46675e-06
8.05154e-06
6.9871e-06
6.3125e-06
6.06391e-06
6.39747e-06
7.06406e-06
7.75577e-06
8.53042e-06
9.38618e-06
1.01147e-05
1.14119e-05
4.14385e-05
9.37695e-06
1.1069e-05
1.33099e-05
1.51333e-05
1.45972e-05
1.24235e-05
1.10798e-05
9.42871e-06
7.9999e-06
6.9227e-06
6.23811e-06
5.97513e-06
6.31666e-06
6.99103e-06
7.69597e-06
8.48839e-06
9.36064e-06
1.01003e-05
1.14289e-05
4.26476e-05
9.37302e-06
1.10826e-05
1.33569e-05
1.51935e-05
1.46426e-05
1.24441e-05
1.1063e-05
9.39072e-06
7.94758e-06
6.85664e-06
6.16059e-06
5.8899e-06
6.22919e-06
6.91918e-06
7.63819e-06
8.44853e-06
9.33684e-06
1.00871e-05
1.14175e-05
4.38831e-05
9.36891e-06
1.10958e-05
1.34038e-05
1.52541e-05
1.46889e-05
1.24661e-05
1.10458e-05
9.35219e-06
7.89424e-06
6.78888e-06
6.07949e-06
5.79047e-06
6.15939e-06
6.85248e-06
7.58307e-06
8.41023e-06
9.31391e-06
1.00746e-05
1.14251e-05
4.51502e-05
9.36469e-06
1.11087e-05
1.3451e-05
1.53151e-05
1.47359e-05
1.24887e-05
1.10277e-05
9.31265e-06
7.83981e-06
6.72012e-06
5.99791e-06
5.63009e-06
6.09861e-06
6.7932e-06
7.53262e-06
8.37457e-06
9.29208e-06
1.00606e-05
1.13973e-05
4.64858e-05
9.36039e-06
1.11212e-05
1.34985e-05
1.53766e-05
1.47833e-05
1.25115e-05
1.10081e-05
9.27163e-06
7.78379e-06
6.65056e-06
5.9223e-06
5.54677e-06
6.01249e-06
6.73454e-06
7.48411e-06
8.34053e-06
9.27109e-06
1.00471e-05
1.13813e-05
4.78447e-05
9.356e-06
1.11332e-05
1.35464e-05
1.54386e-05
1.48308e-05
1.25342e-05
1.09871e-05
9.22908e-06
7.72545e-06
6.57749e-06
5.84181e-06
5.62955e-06
5.9535e-06
6.67891e-06
7.43651e-06
8.3068e-06
9.25007e-06
1.00339e-05
1.13755e-05
4.923e-05
9.35146e-06
1.11448e-05
1.3595e-05
1.55012e-05
1.48786e-05
1.25569e-05
1.09648e-05
9.18564e-06
7.6658e-06
6.50088e-06
5.74273e-06
5.49053e-06
5.90627e-06
6.62723e-06
7.39018e-06
8.2731e-06
9.2286e-06
1.00199e-05
1.13631e-05
5.06552e-05
9.34679e-06
1.11559e-05
1.36445e-05
1.55648e-05
1.49268e-05
1.25796e-05
1.09413e-05
9.14147e-06
7.60624e-06
6.42658e-06
5.65362e-06
5.31751e-06
5.84625e-06
6.57629e-06
7.34428e-06
8.23919e-06
9.20658e-06
1.00069e-05
1.14005e-05
5.20734e-05
9.34206e-06
1.11667e-05
1.36951e-05
1.56296e-05
1.49759e-05
1.26029e-05
1.09169e-05
9.09615e-06
7.54514e-06
6.35172e-06
5.57027e-06
5.25583e-06
5.78292e-06
6.52443e-06
7.29763e-06
8.20443e-06
9.18379e-06
9.99305e-06
1.14323e-05
5.35339e-05
9.33738e-06
1.11772e-05