/*--------------------------------*- C++ -*----------------------------------*\
  =========                 |
  \\      /  F ield         | OpenFOAM: The Open Source CFD Toolbox
   \\    /   O peration     | Website:  https://openfoam.org
    \\  /    A nd           | Version:  8
     \\/     M anipulation  |
\*---------------------------------------------------------------------------*/
FoamFile
{
    version     2.0;
    format      ascii;
    class       volScalarField;
    location    "500";
    object      nut;
}
// * * * * * * * * * * * * * * * * * * * * * * * * * * * * * * * * * * * * * //

dimensions      [0 2 -1 0 0 0 0];

internalField   nonuniform List<scalar> 
8400
(
6.53153e-05
6.44325e-05
6.35074e-05
6.24829e-05
6.13538e-05
6.01383e-05
5.88561e-05
5.7526e-05
5.61649e-05
5.47831e-05
5.33842e-05
5.19717e-05
5.05518e-05
4.91338e-05
4.77286e-05
4.63459e-05
4.49922e-05
4.36693e-05
4.23756e-05
4.11436e-05
4.00879e-05
3.93881e-05
3.91315e-05
3.91102e-05
3.89551e-05
3.85329e-05
3.79791e-05
3.74144e-05
3.68246e-05
3.61706e-05
3.55134e-05
3.48885e-05
3.42855e-05
3.36449e-05
3.29006e-05
3.20827e-05
3.12977e-05
3.05667e-05
2.98962e-05
2.92872e-05
2.87292e-05
2.82058e-05
2.77066e-05
2.7226e-05
2.67596e-05
2.63076e-05
2.58695e-05
2.54449e-05
2.5033e-05
2.46311e-05
5.30409e-05
5.2916e-05
5.2909e-05
5.29115e-05
5.28137e-05
5.25711e-05
5.21976e-05
5.17357e-05
5.12281e-05
5.0668e-05
5.00495e-05
4.93718e-05
4.86363e-05
4.78477e-05
4.70125e-05
4.61386e-05
4.52357e-05
4.42181e-05
4.2756e-05
4.09126e-05
3.8889e-05
3.71685e-05
3.63352e-05
3.65841e-05
3.75045e-05
3.85753e-05
3.94286e-05
3.96577e-05
3.90354e-05
3.78001e-05
3.72409e-05
3.72651e-05
3.72588e-05
3.68481e-05
3.58708e-05
3.45313e-05
3.32682e-05
3.19995e-05
3.07649e-05
2.9664e-05
2.87303e-05
2.79735e-05
2.73806e-05
2.69303e-05
2.6591e-05
2.63337e-05
2.61316e-05
2.59562e-05
2.57836e-05
2.55917e-05
5.22947e-05
5.07454e-05
5.01847e-05
5.0487e-05
5.15296e-05
5.3167e-05
5.4908e-05
5.5916e-05
5.635e-05
5.64481e-05
5.63868e-05
5.6239e-05
5.60182e-05
5.57165e-05
5.53077e-05
5.47222e-05
5.37906e-05
5.24976e-05
5.09238e-05
4.8874e-05
4.65969e-05
4.46875e-05
4.37548e-05
4.43799e-05
4.64864e-05
4.8277e-05
4.91304e-05
4.85615e-05
4.60866e-05
4.19144e-05
4.28914e-05
4.32682e-05
4.34387e-05
4.29689e-05
4.1634e-05
4.0366e-05
3.94508e-05
3.85583e-05
3.77199e-05
3.69499e-05
3.62821e-05
3.57343e-05
3.5306e-05
3.49849e-05
3.47544e-05
3.45913e-05
3.44712e-05
3.43711e-05
3.42711e-05
3.41523e-05
6.1426e-05
6.13408e-05
6.12532e-05
6.11643e-05
6.10739e-05
6.09789e-05
6.0823e-05
6.06869e-05
6.05317e-05
6.03767e-05
6.02201e-05
6.00622e-05
5.99119e-05
5.97752e-05
5.96437e-05
5.95662e-05
5.95887e-05
5.96327e-05
5.96682e-05
5.96813e-05
5.96616e-05
5.95978e-05
5.95191e-05
5.94367e-05
5.92787e-05
5.91848e-05
5.9181e-05
5.89314e-05
5.76349e-05
3.81157e-05
4.83191e-05
4.92485e-05
5.00332e-05
4.8863e-05
4.50151e-05
4.34421e-05
4.25021e-05
4.15802e-05
4.1173e-05
4.07842e-05
4.04518e-05
4.01732e-05
3.99597e-05
3.98069e-05
3.9708e-05
3.96502e-05
3.96209e-05
3.96091e-05
3.95915e-05
3.95586e-05
6.14683e-05
6.14346e-05
6.13999e-05
6.13641e-05
6.1327e-05
6.12889e-05
6.12493e-05
6.12084e-05
6.11661e-05
6.11228e-05
6.10794e-05
6.10365e-05
6.09951e-05
6.09569e-05
6.09265e-05
6.08953e-05
6.08625e-05
6.08284e-05
6.07931e-05
6.07573e-05
6.07227e-05
6.0686e-05
6.06347e-05
6.05676e-05
6.04825e-05
6.0379e-05
6.02653e-05
6.01206e-05
5.98709e-05
5.80178e-05
5.74099e-05
5.71721e-05
5.72613e-05
5.71462e-05
4.81034e-05
4.67323e-05
4.51805e-05
4.26141e-05
4.25001e-05
4.23466e-05
4.22813e-05
4.22237e-05
4.21786e-05
4.21565e-05
4.21534e-05
4.21656e-05
4.21809e-05
4.21948e-05
4.22122e-05
4.22317e-05
6.14568e-05
6.1411e-05
6.13649e-05
6.13191e-05
6.12735e-05
6.12282e-05
6.11829e-05
6.11375e-05
6.10922e-05
6.10467e-05
6.10008e-05
6.09544e-05
6.09076e-05
6.08601e-05
6.08114e-05
6.07621e-05
6.07127e-05
6.06626e-05
6.06121e-05
6.05608e-05
6.05088e-05
6.04621e-05
6.04206e-05
6.03831e-05
6.0346e-05
6.03039e-05
6.02521e-05
6.01841e-05
6.00822e-05
5.96647e-05
5.92385e-05
5.88642e-05
5.8561e-05
5.81968e-05
5.71862e-05
5.70992e-05
5.03498e-05
4.28991e-05
4.30179e-05
4.26542e-05
4.26963e-05
4.27794e-05
4.28375e-05
4.28823e-05
4.29175e-05
4.29491e-05
4.29824e-05
4.30188e-05
4.30526e-05
4.30838e-05
6.1452e-05
6.14004e-05
6.1348e-05
6.12953e-05
6.12423e-05
6.1189e-05
6.11356e-05
6.10822e-05
6.10285e-05
6.09747e-05
6.09205e-05
6.08659e-05
6.08107e-05
6.07549e-05
6.0698e-05
6.06398e-05
6.05797e-05
6.0519e-05
6.04575e-05
6.03966e-05
6.03375e-05
6.02815e-05
6.02307e-05
6.01865e-05
6.01496e-05
6.01192e-05
6.00913e-05
6.00603e-05
6.00156e-05
5.98793e-05
5.96659e-05
5.94008e-05
5.91068e-05
5.87615e-05
5.82068e-05
5.7709e-05
5.59737e-05
5.56693e-05
4.43958e-05
4.2585e-05
4.23031e-05
4.24737e-05
4.25748e-05
4.26311e-05
4.26825e-05
4.27234e-05
4.2754e-05
4.27827e-05
4.28139e-05
4.28514e-05
6.14429e-05
6.1381e-05
6.13184e-05
6.12555e-05
6.11923e-05
6.11289e-05
6.10656e-05
6.10023e-05
6.09385e-05
6.08746e-05
6.08109e-05
6.07465e-05
6.06812e-05
6.06152e-05
6.05479e-05
6.04798e-05
6.04108e-05
6.03411e-05
6.02715e-05
6.02029e-05
6.0136e-05
6.00727e-05
6.0015e-05
5.99648e-05
5.9925e-05
5.98965e-05
5.98783e-05
5.98665e-05
5.98537e-05
5.98083e-05
5.97085e-05
5.95455e-05
5.93214e-05
5.90281e-05
5.85962e-05
5.8087e-05
5.70811e-05
5.61697e-05
5.34123e-05
4.93513e-05
4.15687e-05
4.16792e-05
4.17892e-05
4.18876e-05
4.19327e-05
4.19461e-05
4.19442e-05
4.19439e-05
4.19566e-05
4.19924e-05
6.14309e-05
6.13544e-05
6.1278e-05
6.12005e-05
6.11231e-05
6.10456e-05
6.09682e-05
6.08904e-05
6.08131e-05
6.07357e-05
6.06577e-05
6.05792e-05
6.05002e-05
6.04202e-05
6.03389e-05
6.02576e-05
6.0176e-05
6.0094e-05
6.00138e-05
5.99358e-05
5.98618e-05
5.97945e-05
5.9735e-05
5.96855e-05
5.96491e-05
5.96269e-05
5.96207e-05
5.96273e-05
5.96406e-05
5.96423e-05
5.96092e-05
5.95219e-05
5.93666e-05
5.91304e-05
5.87733e-05
5.83019e-05
5.75312e-05
5.66122e-05
5.48576e-05
5.22175e-05
4.86679e-05
4.07031e-05
4.0958e-05
4.10161e-05
4.09966e-05
4.09331e-05
4.08586e-05
4.08007e-05
4.07775e-05
4.08118e-05
6.14102e-05
6.13088e-05
6.12079e-05
6.11075e-05
6.10077e-05
6.09081e-05
6.08092e-05
6.07106e-05
6.06125e-05
6.05143e-05
6.04152e-05
6.03169e-05
6.0218e-05
6.01186e-05
6.00194e-05
5.99198e-05
5.98211e-05
5.97254e-05
5.9633e-05
5.95467e-05
5.9469e-05
5.94025e-05
5.93486e-05
5.93118e-05
5.9292e-05
5.92905e-05
5.93082e-05
5.9343e-05
5.93892e-05
5.94315e-05
5.94489e-05
5.9418e-05
5.93197e-05
5.91365e-05
5.88374e-05
5.84104e-05
5.77572e-05
5.69083e-05
5.55551e-05
5.35506e-05
5.08176e-05
4.64407e-05
4.20822e-05
4.03426e-05
4.01488e-05
3.99189e-05
3.96826e-05
3.94728e-05
3.93452e-05
3.93522e-05
6.13713e-05
6.122e-05
6.10736e-05
6.09313e-05
6.07931e-05
6.06567e-05
6.05233e-05
6.03919e-05
6.0261e-05
6.01318e-05
6.00039e-05
5.98761e-05
5.97494e-05
5.96228e-05
5.94984e-05
5.93763e-05
5.92582e-05
5.91471e-05
5.90458e-05
5.89598e-05
5.88924e-05
5.88449e-05
5.88192e-05
5.88174e-05
5.88385e-05
5.88813e-05
5.89462e-05
5.90264e-05
5.91167e-05
5.92009e-05
5.92622e-05
5.92775e-05
5.92245e-05
5.90841e-05
5.88301e-05
5.84449e-05
5.78673e-05
5.70935e-05
5.59654e-05
5.43603e-05
5.22167e-05
4.91923e-05
4.5709e-05
4.27065e-05
4.05786e-05
3.93191e-05
3.88451e-05
3.83115e-05
3.77703e-05
3.73786e-05
6.12737e-05
6.09977e-05
6.07543e-05
6.05358e-05
6.03334e-05
6.01415e-05
5.9957e-05
5.97815e-05
5.96127e-05
5.9446e-05
5.92843e-05
5.91275e-05
5.89742e-05
5.88264e-05
5.86861e-05
5.8549e-05
5.84203e-05
5.83095e-05
5.82194e-05
5.8155e-05
5.81283e-05
5.81323e-05
5.81746e-05
5.82456e-05
5.83413e-05
5.84562e-05
5.85835e-05
5.87193e-05
5.88567e-05
5.89825e-05
5.90798e-05
5.91274e-05
5.91062e-05
5.8996e-05
5.87746e-05
5.84233e-05
5.79001e-05
5.71945e-05
5.62195e-05
5.48941e-05
5.3185e-05
5.09704e-05
4.84004e-05
4.58375e-05
4.3478e-05
4.1548e-05
4.01853e-05
3.91533e-05
3.83217e-05
3.76589e-05
6.06533e-05
6.02531e-05
5.99341e-05
5.96527e-05
5.93994e-05
5.91657e-05
5.89414e-05
5.87269e-05
5.85124e-05
5.83079e-05
5.81116e-05
5.79088e-05
5.77247e-05
5.75619e-05
5.74206e-05
5.732e-05
5.72567e-05
5.72224e-05
5.72385e-05
5.72879e-05
5.73684e-05
5.74888e-05
5.76282e-05
5.77859e-05
5.795e-05
5.81232e-05
5.82982e-05
5.84979e-05
5.86563e-05
5.88046e-05
5.89222e-05
5.89851e-05
5.89787e-05
5.88844e-05
5.86812e-05
5.83544e-05
5.78717e-05
5.72255e-05
5.63679e-05
5.52544e-05
5.38778e-05
5.22077e-05
5.03289e-05
4.84219e-05
4.66025e-05
4.49769e-05
4.36243e-05
4.25262e-05
4.16633e-05
4.10472e-05
5.85379e-05
5.79992e-05
5.75523e-05
5.7182e-05
5.68798e-05
5.66369e-05
5.64448e-05
5.62954e-05
5.61818e-05
5.61007e-05
5.6051e-05
5.60305e-05
5.60401e-05
5.60796e-05
5.61481e-05
5.62435e-05
5.6365e-05
5.65064e-05
5.66679e-05
5.68464e-05
5.70289e-05
5.72185e-05
5.74116e-05
5.76042e-05
5.77963e-05
5.79872e-05
5.81744e-05
5.83639e-05
5.85275e-05
5.8672e-05
5.87846e-05
5.88488e-05
5.88443e-05
5.87493e-05
5.85525e-05
5.82396e-05
5.77875e-05
5.71939e-05
5.64343e-05
5.5491e-05
5.43755e-05
5.31e-05
5.17278e-05
5.036e-05
4.90734e-05
4.79248e-05
4.69465e-05
4.61439e-05
4.55165e-05
4.50701e-05
5.60809e-05
5.58058e-05
5.56208e-05
5.55155e-05
5.54724e-05
5.5475e-05
5.55109e-05
5.55698e-05
5.56438e-05
5.57298e-05
5.5825e-05
5.59274e-05
5.60375e-05
5.61552e-05
5.62815e-05
5.64158e-05
5.65574e-05
5.67063e-05
5.6861e-05
5.70206e-05
5.7185e-05
5.73512e-05
5.75179e-05
5.76836e-05
5.78473e-05
5.80082e-05
5.81665e-05
5.83186e-05
5.84526e-05
5.85653e-05
5.86499e-05
5.8693e-05
5.86773e-05
5.85816e-05
5.83995e-05
5.80726e-05
5.76464e-05
5.71009e-05
5.64291e-05
5.56309e-05
5.47292e-05
5.37526e-05
5.27499e-05
5.17822e-05
5.08946e-05
5.01157e-05
4.94576e-05
4.89195e-05
4.84929e-05
4.81715e-05
5.53423e-05
5.53663e-05
5.54284e-05
5.55177e-05
5.56237e-05
5.57385e-05
5.58566e-05
5.59746e-05
5.60914e-05
5.6206e-05
5.63178e-05
5.64284e-05
5.65382e-05
5.66473e-05
5.67569e-05
5.68677e-05
5.69796e-05
5.70935e-05
5.72098e-05
5.73276e-05
5.74467e-05
5.75676e-05
5.76897e-05
5.78105e-05
5.79307e-05
5.80481e-05
5.81619e-05
5.8267e-05
5.83592e-05
5.84324e-05
5.84803e-05
5.84915e-05
5.84528e-05
5.83497e-05
5.8173e-05
5.78751e-05
5.74585e-05
5.69472e-05
5.63558e-05
5.56875e-05
5.4968e-05
5.42261e-05
5.34975e-05
5.28166e-05
5.22074e-05
5.16808e-05
5.12367e-05
5.08685e-05
5.05648e-05
5.03149e-05
5.54149e-05
5.55142e-05
5.56214e-05
5.57324e-05
5.58442e-05
5.59557e-05
5.60656e-05
5.61749e-05
5.62832e-05
5.63901e-05
5.64968e-05
5.66031e-05
5.67085e-05
5.68134e-05
5.69177e-05
5.70215e-05
5.71242e-05
5.72253e-05
5.73255e-05
5.74243e-05
5.75221e-05
5.7618e-05
5.77122e-05
5.78034e-05
5.78908e-05
5.79739e-05
5.80507e-05
5.81179e-05
5.81725e-05
5.82095e-05
5.82233e-05
5.82039e-05
5.81435e-05
5.80307e-05
5.78545e-05
5.75902e-05
5.72358e-05
5.67322e-05
5.62152e-05
5.56661e-05
5.5105e-05
5.45535e-05
5.40316e-05
5.35559e-05
5.31372e-05
5.2776e-05
5.24675e-05
5.22035e-05
5.19735e-05
5.1768e-05
5.54719e-05
5.55563e-05
5.56424e-05
5.57296e-05
5.58181e-05
5.59078e-05
5.59986e-05
5.60909e-05
5.6185e-05
5.62806e-05
5.63773e-05
5.6475e-05
5.65732e-05
5.66718e-05
5.67701e-05
5.68677e-05
5.69642e-05
5.70593e-05
5.71526e-05
5.72431e-05
5.73305e-05
5.74144e-05
5.74937e-05
5.75683e-05
5.76368e-05
5.76983e-05
5.77515e-05
5.77938e-05
5.78225e-05
5.78333e-05
5.7822e-05
5.7783e-05
5.77095e-05
5.75938e-05
5.74283e-05
5.72016e-05
5.69076e-05
5.64874e-05
5.599e-05
5.5559e-05
5.51414e-05
5.47452e-05
5.43803e-05
5.40525e-05
5.3764e-05
5.35113e-05
5.32889e-05
5.30897e-05
5.29058e-05
5.273e-05
5.52861e-05
5.53398e-05
5.5397e-05
5.5458e-05
5.55229e-05
5.55921e-05
5.56653e-05
5.57423e-05
5.58225e-05
5.59055e-05
5.59911e-05
5.60788e-05
5.61677e-05
5.62574e-05
5.6347e-05
5.64361e-05
5.65243e-05
5.66105e-05
5.66944e-05
5.67753e-05
5.68527e-05
5.69255e-05
5.69932e-05
5.70552e-05
5.71104e-05
5.71575e-05
5.7195e-05
5.72213e-05
5.72341e-05
5.72312e-05
5.7209e-05
5.7164e-05
5.70922e-05
5.69884e-05
5.68477e-05
5.66684e-05
5.64461e-05
5.61532e-05
5.56342e-05
5.53347e-05
5.50464e-05
5.47778e-05
5.45339e-05
5.43136e-05
5.41158e-05
5.39373e-05
5.37734e-05
5.36184e-05
5.34678e-05
5.33171e-05
8.24582e-05
8.17573e-05
8.10246e-05
8.02514e-05
7.94362e-05
7.85814e-05
7.76924e-05
7.67759e-05
7.58402e-05
7.4894e-05
7.39446e-05
7.29998e-05
7.20666e-05
7.11502e-05
7.02556e-05
6.9386e-05
6.85439e-05
6.77308e-05
6.69476e-05
6.61941e-05
6.54699e-05
6.47739e-05
6.41049e-05
6.34617e-05
6.28418e-05
6.22442e-05
6.16677e-05
6.11101e-05
6.05703e-05
6.00466e-05
5.95366e-05
5.90382e-05
5.85484e-05
5.80639e-05
5.75825e-05
5.7105e-05
5.66364e-05
5.61817e-05
5.55799e-05
5.57414e-05
5.59699e-05
5.62538e-05
5.65738e-05
5.69226e-05
5.73026e-05
5.77153e-05
5.81593e-05
5.86298e-05
5.91189e-05
5.96156e-05
5.48204e-06
5.45121e-06
5.42122e-06
5.39687e-06
5.37424e-06
5.35063e-06
5.32616e-06
5.3019e-06
5.27875e-06
5.25721e-06
5.23749e-06
5.21954e-06
5.20314e-06
5.18783e-06
5.17294e-06
5.15771e-06
5.14142e-06
5.1235e-06
5.10362e-06
5.08176e-06
5.06151e-06
5.04809e-06
5.00412e-06
4.96509e-06
4.93384e-06
4.90667e-06
4.88216e-06
4.8598e-06
4.83938e-06
4.82061e-06
4.80306e-06
4.78618e-06
4.76938e-06
4.75209e-06
4.73388e-06
4.71447e-06
4.69385e-06
4.67217e-06
4.64906e-06
4.62558e-06
4.60276e-06
4.58147e-06
4.56277e-06
4.54695e-06
4.53399e-06
4.52359e-06
4.51517e-06
4.50778e-06
4.4998e-06
4.48909e-06
5.41034e-06
5.28364e-06
5.15897e-06
5.03989e-06
4.92794e-06
4.82352e-06
4.72586e-06
4.63461e-06
4.5498e-06
4.47146e-06
4.3993e-06
4.33259e-06
4.2702e-06
4.2108e-06
4.15301e-06
4.09558e-06
4.03761e-06
3.97862e-06
3.9187e-06
3.85773e-06
3.78814e-06
1.60194e-05
1.59576e-05
1.59571e-05
1.59582e-05
1.59617e-05
1.59728e-05
1.59931e-05
1.60206e-05
1.60505e-05
1.60762e-05
1.60914e-05
1.6091e-05
1.60712e-05
1.60305e-05
1.59687e-05
1.58887e-05
1.57949e-05
1.56966e-05
1.55971e-05
1.55001e-05
1.54088e-05
1.53249e-05
1.52502e-05
1.51846e-05
1.5127e-05
1.5078e-05
1.50431e-05
1.50329e-05
1.50513e-05
5.40788e-06
5.27795e-06
5.15489e-06
5.03694e-06
4.92415e-06
4.81693e-06
4.71539e-06
4.61953e-06
4.52931e-06
4.44461e-06
4.36512e-06
4.29021e-06
4.21904e-06
4.1506e-06
4.08385e-06
4.0179e-06
3.9521e-06
3.88613e-06
3.81849e-06
1.60208e-05
1.58679e-05
1.57104e-05
1.55595e-05
1.54188e-05
1.52902e-05
1.5175e-05
1.50729e-05
1.49824e-05
1.49008e-05
1.48249e-05
1.4751e-05
1.46756e-05
1.45958e-05
1.45095e-05
1.44155e-05
1.43144e-05
1.42071e-05
1.40953e-05
1.39813e-05
1.38681e-05
1.37583e-05
1.36544e-05
1.35584e-05
1.34712e-05
1.33927e-05
1.33195e-05
1.32458e-05
1.31656e-05
1.30849e-05
1.30343e-05
5.40936e-06
5.27883e-06
5.15656e-06
5.04039e-06
4.9292e-06
4.82297e-06
4.72195e-06
4.62635e-06
4.53623e-06
4.45147e-06
4.37173e-06
4.29642e-06
4.22469e-06
4.15556e-06
4.08806e-06
4.02134e-06
3.95477e-06
3.88805e-06
3.82124e-06
1.6024e-05
1.58698e-05
1.57152e-05
1.55634e-05
1.54174e-05
1.52792e-05
1.51499e-05
1.50298e-05
1.49176e-05
1.48117e-05
1.47096e-05
1.46086e-05
1.45063e-05
1.44007e-05
1.42902e-05
1.41742e-05
1.40528e-05
1.3927e-05
1.37984e-05
1.36693e-05
1.35423e-05
1.34198e-05
1.33038e-05
1.31959e-05
1.30974e-05
1.30097e-05
1.29336e-05
1.28663e-05
1.27978e-05
1.2717e-05
1.26428e-05
5.41035e-06
5.28043e-06
5.15769e-06
5.04128e-06
4.93006e-06
4.82378e-06
4.72262e-06
4.62683e-06
4.53656e-06
4.45168e-06
4.37186e-06
4.29645e-06
4.22462e-06
4.15539e-06
4.08778e-06
4.02097e-06
3.95437e-06
3.8877e-06
3.82105e-06
1.60231e-05
1.58705e-05
1.57178e-05
1.5568e-05
1.54237e-05
1.52868e-05
1.51582e-05
1.50378e-05
1.49247e-05
1.4817e-05
1.47124e-05
1.46085e-05
1.45029e-05
1.43938e-05
1.42799e-05
1.41605e-05
1.4036e-05
1.39072e-05
1.37759e-05
1.36445e-05
1.35153e-05
1.33908e-05
1.32727e-05
1.31622e-05
1.30593e-05
1.29636e-05
1.28764e-05
1.27996e-05
1.27308e-05
1.26563e-05
1.25801e-05
5.4105e-06
5.28187e-06
5.15953e-06
5.04323e-06
4.93217e-06
4.82613e-06
4.72519e-06
4.62958e-06
4.53942e-06
4.45461e-06
4.3748e-06
4.29936e-06
4.22744e-06
4.1581e-06
4.09038e-06
4.02348e-06
3.95686e-06
3.89025e-06
3.82375e-06
1.60454e-05
1.58932e-05
1.57411e-05
1.55921e-05
1.54482e-05
1.53113e-05
1.5182e-05
1.506e-05
1.49444e-05
1.48334e-05
1.47251e-05
1.46171e-05
1.45076e-05
1.43948e-05
1.42777e-05
1.41559e-05
1.40295e-05
1.38997e-05
1.3768e-05
1.36367e-05
1.35079e-05
1.3384e-05
1.32672e-05
1.3159e-05
1.30595e-05
1.29669e-05
1.28794e-05
1.27976e-05
1.27235e-05
1.26492e-05
1.25724e-05
5.41048e-06
5.28286e-06
5.16118e-06
5.0451e-06
4.93409e-06
4.82803e-06
4.72705e-06
4.63134e-06
4.54102e-06
4.456e-06
4.37595e-06
4.30026e-06
4.22808e-06
4.15849e-06
4.09058e-06
4.02357e-06
3.95693e-06
3.89042e-06
3.82412e-06
1.60414e-05
1.58937e-05
1.57452e-05
1.5599e-05
1.54573e-05
1.5322e-05
1.51936e-05
1.50719e-05
1.4956e-05
1.48443e-05
1.47348e-05
1.46256e-05
1.45148e-05
1.44009e-05
1.4283e-05
1.41606e-05
1.40342e-05
1.39046e-05
1.37735e-05
1.36428e-05
1.35147e-05
1.33911e-05
1.32741e-05
1.31653e-05
1.30658e-05
1.2975e-05
1.28901e-05
1.28084e-05
1.27313e-05
1.26552e-05
1.2577e-05
5.41066e-06
5.28376e-06
5.16274e-06
5.04705e-06
4.93623e-06
4.83026e-06
4.72929e-06
4.63353e-06
4.54311e-06
4.45795e-06
4.37772e-06
4.30181e-06
4.22943e-06
4.15965e-06
4.09162e-06
4.02459e-06
3.95804e-06
3.89173e-06
3.82465e-06
3.68071e-06
1.55613e-05
1.55329e-05
1.5466e-05
1.53766e-05
1.5275e-05
1.51679e-05
1.50589e-05
1.49497e-05
1.48408e-05
1.47316e-05
1.46214e-05
1.45091e-05
1.43938e-05
1.42749e-05
1.41523e-05
1.40265e-05
1.38982e-05
1.3769e-05
1.36407e-05
1.35152e-05
1.33944e-05
1.32799e-05
1.31728e-05
1.30741e-05
1.2984e-05
1.29009e-05
1.28211e-05
1.27437e-05
1.26665e-05
1.25869e-05
5.411e-06
5.28478e-06
5.16434e-06
5.04904e-06
4.93845e-06
4.83256e-06
4.73155e-06
4.63567e-06
4.54506e-06
4.45965e-06
4.37914e-06
4.30293e-06
4.23026e-06
4.16025e-06
4.09206e-06
4.025e-06
3.95856e-06
3.89248e-06
3.82574e-06
3.68014e-06
1.55601e-05
1.55337e-05
1.54697e-05
1.5383e-05
1.52836e-05
1.51777e-05
1.50692e-05
1.496e-05
1.48506e-05
1.47408e-05
1.46301e-05
1.45177e-05
1.44027e-05
1.42848e-05
1.41637e-05
1.40398e-05
1.39138e-05
1.37869e-05
1.36607e-05
1.35371e-05
1.34181e-05
1.33053e-05
1.31995e-05
1.31012e-05
1.30104e-05
1.29265e-05
1.28465e-05
1.27678e-05
1.26886e-05
1.26064e-05
5.41136e-06
5.28591e-06
5.16601e-06
5.05108e-06
4.94071e-06
4.8349e-06
4.73385e-06
4.63784e-06
4.54703e-06
4.46138e-06
4.3806e-06
4.30411e-06
4.23118e-06
4.16098e-06
4.09272e-06
4.0257e-06
3.95945e-06
3.89369e-06
3.82738e-06
3.68218e-06
1.55739e-05
1.5549e-05
1.54862e-05
1.54e-05
1.53002e-05
1.51932e-05
1.50828e-05
1.49711e-05
1.48589e-05
1.47464e-05
1.46334e-05
1.45193e-05
1.44035e-05
1.42857e-05
1.41655e-05
1.40432e-05
1.39193e-05
1.37947e-05
1.36707e-05
1.3549e-05
1.34315e-05
1.33199e-05
1.32153e-05
1.31179e-05
1.30273e-05
1.29429e-05
1.28623e-05
1.2783e-05
1.27024e-05
1.26184e-05
5.41168e-06
5.28701e-06
5.16765e-06
5.05307e-06
4.9429e-06
4.83715e-06
4.73607e-06
4.63993e-06
4.54892e-06
4.46303e-06
4.38196e-06
4.30519e-06
4.23202e-06
4.16166e-06
4.09335e-06
4.02643e-06
3.9604e-06
3.89501e-06
3.82916e-06
3.68438e-06
1.55881e-05
1.55649e-05
1.5503e-05
1.54168e-05
1.53162e-05
1.52074e-05
1.50944e-05
1.49794e-05
1.48638e-05
1.4748e-05
1.46321e-05
1.45159e-05
1.4399e-05
1.4281e-05
1.41616e-05
1.40408e-05
1.39188e-05
1.37963e-05
1.36744e-05
1.35546e-05
1.34385e-05
1.33278e-05
1.32239e-05
1.31271e-05
1.30369e-05
1.29523e-05
1.28714e-05
1.27916e-05
1.27102e-05
1.2625e-05
5.41197e-06
5.28799e-06
5.16916e-06
5.0549e-06
4.94492e-06
4.83925e-06
4.73813e-06
4.64188e-06
4.55069e-06
4.46456e-06
4.38322e-06
4.30618e-06
4.23279e-06
4.1623e-06
4.09398e-06
4.02718e-06
3.96141e-06
3.8964e-06
3.83101e-06
3.6866e-06
1.5602e-05
1.55802e-05
1.5519e-05
1.54327e-05
1.53309e-05
1.52199e-05
1.51038e-05
1.49854e-05
1.48661e-05
1.4747e-05
1.46284e-05
1.45104e-05
1.43926e-05
1.42747e-05
1.41563e-05
1.40371e-05
1.39171e-05
1.37966e-05
1.36766e-05
1.35584e-05
1.34436e-05
1.33338e-05
1.32302e-05
1.31337e-05
1.30437e-05
1.2959e-05
1.28779e-05
1.27978e-05
1.27159e-05
1.26299e-05
5.41223e-06
5.28882e-06
5.17044e-06
5.05649e-06
4.94671e-06
4.84114e-06
4.74003e-06
4.6437e-06
4.55237e-06
4.46604e-06
4.38449e-06
4.30726e-06
4.23372e-06
4.16317e-06
4.0949e-06
4.02827e-06
3.96282e-06
3.89822e-06
3.83331e-06
3.68928e-06
1.56186e-05
1.55977e-05
1.55368e-05
1.54497e-05
1.53462e-05
1.52325e-05
1.51131e-05
1.4991e-05
1.48681e-05
1.47457e-05
1.46245e-05
1.45048e-05
1.43864e-05
1.42688e-05
1.41516e-05
1.40341e-05
1.3916e-05
1.37974e-05
1.3679e-05
1.35622e-05
1.34483e-05
1.33391e-05
1.32358e-05
1.31392e-05
1.30491e-05
1.29645e-05
1.28832e-05
1.28028e-05
1.27205e-05
1.26339e-05
5.41245e-06
5.28948e-06
5.17146e-06
5.05779e-06
4.94819e-06
4.84269e-06
4.74157e-06
4.64515e-06
4.55365e-06
4.46711e-06
4.38532e-06
4.30786e-06
4.23414e-06
4.16348e-06
4.09522e-06
4.02874e-06
3.96355e-06
3.89932e-06
3.83481e-06
3.69108e-06
1.56283e-05
1.56086e-05
1.55479e-05
1.54602e-05
1.5355e-05
1.52389e-05
1.51165e-05
1.49911e-05
1.4865e-05
1.474e-05
1.46169e-05
1.44961e-05
1.43776e-05
1.42608e-05
1.4145e-05
1.40293e-05
1.39131e-05
1.37964e-05
1.36796e-05
1.3564e-05
1.3451e-05
1.33422e-05
1.32391e-05
1.31426e-05
1.30525e-05
1.29679e-05
1.28866e-05
1.28062e-05
1.27238e-05
1.2637e-05
5.41262e-06
5.28996e-06
5.17223e-06
5.05882e-06
4.94942e-06
4.84408e-06
4.74305e-06
4.64666e-06
4.55515e-06
4.46856e-06
4.38669e-06
4.30914e-06
4.23536e-06
4.16471e-06
4.09656e-06
4.03029e-06
3.96541e-06
3.90157e-06
3.83747e-06
3.69395e-06
1.56458e-05
1.56262e-05
1.55648e-05
1.54754e-05
1.53678e-05
1.52486e-05
1.51228e-05
1.49938e-05
1.48646e-05
1.47368e-05
1.46117e-05
1.44899e-05
1.43713e-05
1.42551e-05
1.41404e-05
1.40261e-05
1.39114e-05
1.37961e-05
1.36805e-05
1.35656e-05
1.34531e-05
1.33446e-05
1.32417e-05
1.31452e-05
1.30553e-05
1.29708e-05
1.28898e-05
1.28097e-05
1.27277e-05
1.26415e-05
5.41273e-06
5.29023e-06
5.17261e-06
5.05925e-06
4.94983e-06
4.8444e-06
4.74323e-06
4.64666e-06
4.55495e-06
4.46812e-06
4.386e-06
4.30822e-06
4.23426e-06
4.16353e-06
4.09539e-06
4.02925e-06
3.9646e-06
3.90106e-06
3.83728e-06
3.69401e-06
1.56416e-05
1.5623e-05
1.55618e-05
1.5472e-05
1.53631e-05
1.52422e-05
1.51144e-05
1.49834e-05
1.48524e-05
1.47234e-05
1.45979e-05
1.44762e-05
1.43585e-05
1.42437e-05
1.41307e-05
1.40184e-05
1.39057e-05
1.37923e-05
1.36784e-05
1.35651e-05
1.34539e-05
1.33467e-05
1.32451e-05
1.31501e-05
1.30619e-05
1.29794e-05
1.29007e-05
1.28233e-05
1.27447e-05
1.26624e-05
5.4128e-06
5.2904e-06
5.173e-06
5.05993e-06
4.95085e-06
4.84573e-06
4.74484e-06
4.6485e-06
4.55693e-06
4.47015e-06
4.388e-06
4.31016e-06
4.23615e-06
4.16541e-06
4.0973e-06
4.03124e-06
3.96672e-06
3.90334e-06
3.83972e-06
3.69631e-06
1.56561e-05
1.5637e-05
1.55748e-05
1.54835e-05
1.53729e-05
1.52501e-05
1.51205e-05
1.49882e-05
1.48565e-05
1.47276e-05
1.4603e-05
1.44834e-05
1.43683e-05
1.42568e-05
1.41474e-05
1.40388e-05
1.393e-05
1.38206e-05
1.37108e-05
1.36019e-05
1.34955e-05
1.33936e-05
1.3298e-05
1.32099e-05
1.31294e-05
1.30557e-05
1.2987e-05
1.29212e-05
1.28557e-05
1.27885e-05
5.41283e-06
5.28961e-06
5.17128e-06
5.05734e-06
4.94749e-06
4.84179e-06
4.7405e-06
4.6439e-06
4.55216e-06
4.46531e-06
4.38317e-06
4.30544e-06
4.23165e-06
4.16122e-06
4.09352e-06
4.02796e-06
3.96403e-06
3.90129e-06
3.83834e-06
3.69642e-06
1.56503e-05
1.56355e-05
1.55762e-05
1.54873e-05
1.53798e-05
1.52615e-05
1.51384e-05
1.50148e-05
1.48937e-05
1.47774e-05
1.46751e-05
1.45846e-05
1.45003e-05
1.44187e-05
1.43374e-05
1.42546e-05
1.41695e-05
1.40822e-05
1.39937e-05
1.39058e-05
1.38207e-05
1.37411e-05
1.36691e-05
1.36063e-05
1.3553e-05
1.35087e-05
1.34717e-05
1.34397e-05
1.34107e-05
1.3383e-05
5.41318e-06
5.291e-06
5.17438e-06
5.06244e-06
4.95488e-06
4.85199e-06
4.75414e-06
4.66156e-06
4.57435e-06
4.49251e-06
4.41588e-06
4.34417e-06
4.27689e-06
4.21344e-06
4.15316e-06
4.09539e-06
4.03954e-06
3.98509e-06
3.93156e-06
3.87716e-06
3.79138e-06
1.61667e-05
1.61387e-05
1.6044e-05
1.5921e-05
1.57917e-05
1.56681e-05
1.55556e-05
1.54562e-05
1.537e-05
1.52931e-05
1.5333e-05
1.54141e-05
1.5498e-05
1.55664e-05
1.56121e-05
1.56339e-05
1.56341e-05
1.56172e-05
1.55886e-05
1.5554e-05
1.55191e-05
1.54885e-05
1.54655e-05
1.54514e-05
1.54458e-05
1.54471e-05
1.54527e-05
1.54607e-05
1.54712e-05
5.48256e-06
5.45849e-06
5.43481e-06
5.41146e-06
5.38851e-06
5.36581e-06
5.34336e-06
5.32137e-06
5.30009e-06
5.27963e-06
5.26005e-06
5.24123e-06
5.22298e-06
5.20505e-06
5.18716e-06
5.16907e-06
5.15053e-06
5.13132e-06
5.1113e-06
5.0904e-06
5.07901e-06
5.06245e-06
5.04226e-06
5.01931e-06
4.9943e-06
4.968e-06
4.94123e-06
4.91476e-06
4.8892e-06
4.86495e-06
4.82294e-06
4.78924e-06
4.76164e-06
4.73831e-06
4.71774e-06
4.69877e-06
4.68058e-06
4.66268e-06
4.6448e-06
4.62697e-06
4.60935e-06
4.59219e-06
4.57571e-06
4.56002e-06
4.54511e-06
4.53079e-06
4.51677e-06
4.50269e-06
4.48816e-06
4.47271e-06
3.28973e-06
1.50708e-05
3.88231e-06
4.1122e-06
4.12911e-06
3.95735e-06
3.77985e-06
1.49774e-05
1.36907e-05
1.26338e-05
1.1994e-05
1.17782e-05
1.20428e-05
1.2519e-05
1.29307e-05
1.34376e-05
1.40553e-05
1.4621e-05
1.56135e-05
5.61069e-06
1.29763e-05
1.50608e-05
3.89589e-06
4.12882e-06
4.1374e-06
3.95082e-06
3.77319e-06
1.48315e-05
1.34684e-05
1.23579e-05
1.16843e-05
1.14553e-05
1.18377e-05
1.23505e-05
1.27853e-05
1.33431e-05
1.40223e-05
1.46306e-05
1.56832e-05
5.70845e-06
1.31e-05
1.50847e-05
3.90902e-06
4.14453e-06
4.14491e-06
3.94395e-06
3.76799e-06
1.46889e-05
1.32491e-05
1.20864e-05
1.13751e-05
1.10828e-05
1.15974e-05
1.21863e-05
1.26632e-05
1.32497e-05
1.39602e-05
1.45986e-05
1.57131e-05
5.78994e-06
1.31501e-05
1.51167e-05
3.92158e-06
4.15937e-06
4.15154e-06
3.93674e-06
3.76409e-06
1.45539e-05
1.30411e-05
1.1836e-05
1.11093e-05
1.08389e-05
1.13873e-05
1.20279e-05
1.25435e-05
1.3159e-05
1.39002e-05
1.45676e-05
1.57459e-05
5.87343e-06
1.31755e-05
1.51523e-05
3.93344e-06
4.17328e-06
4.15749e-06
3.92967e-06
3.76112e-06
1.44257e-05
1.28409e-05
1.15936e-05
1.08429e-05
1.0586e-05
1.11814e-05
1.18702e-05
1.24245e-05
1.307e-05
1.38419e-05
1.45379e-05
1.57822e-05
5.95887e-06
1.31879e-05
1.51882e-05
3.9446e-06
4.18636e-06
4.16308e-06
3.92329e-06
3.75832e-06
1.43079e-05
1.26565e-05
1.13715e-05
1.05923e-05
1.03164e-05
1.09654e-05
1.17093e-05
1.23048e-05
1.29818e-05
1.37847e-05
1.45089e-05
1.58229e-05
6.04547e-06
1.31936e-05
1.52232e-05
3.95517e-06
4.19875e-06
4.16856e-06
3.91783e-06
3.75298e-06
1.4197e-05
1.24869e-05
1.11705e-05
1.03648e-05
1.00552e-05
1.07425e-05
1.15446e-05
1.21838e-05
1.28936e-05
1.37276e-05
1.44798e-05
1.58653e-05
6.13321e-06
1.31959e-05
1.52567e-05
3.96523e-06
4.21058e-06
4.17423e-06
3.91369e-06
3.74085e-06
1.40896e-05
1.23317e-05
1.09896e-05
1.01602e-05
9.81924e-06
1.05236e-05
1.13782e-05
1.20614e-05
1.28048e-05
1.36701e-05
1.445e-05
1.59082e-05
6.222e-06
1.31964e-05
1.52879e-05
3.97463e-06
4.22173e-06
4.18011e-06
3.91197e-06
3.74898e-06
1.39864e-05
1.21921e-05
1.08287e-05
9.97804e-06
9.60764e-06
1.03139e-05
1.12116e-05
1.19374e-05
1.27149e-05
1.36117e-05
1.44159e-05
1.59141e-05
6.32031e-06
1.31955e-05
1.53164e-05
3.98331e-06
4.23219e-06
4.18618e-06
3.91186e-06
1.58881e-05
1.38936e-05
1.20679e-05
1.06864e-05
9.81665e-06
9.413e-06
1.01099e-05
1.10447e-05
1.1812e-05
1.2624e-05
1.35529e-05
1.43869e-05
1.59653e-05
6.40405e-06
1.3193e-05
1.53419e-05
3.99123e-06
4.24201e-06
4.19246e-06
3.91314e-06
1.58291e-05
1.38029e-05
1.19561e-05
1.05587e-05
9.67146e-06
9.22544e-06
9.90571e-06
1.08768e-05
1.16856e-05
1.25331e-05
1.34947e-05
1.43573e-05
1.60086e-05
6.49287e-06
1.31891e-05
1.5365e-05
3.9985e-06
4.25131e-06
4.19893e-06
3.91506e-06
1.57845e-05
1.37224e-05
1.18541e-05
1.04411e-05
9.53678e-06
9.03939e-06
9.70143e-06
1.07091e-05
1.15599e-05
1.24436e-05
1.34382e-05
1.43285e-05
1.60438e-05
6.58497e-06
1.31841e-05
1.53866e-05
4.0054e-06
4.2603e-06
4.20557e-06
3.91758e-06
1.5746e-05
1.36485e-05
1.17592e-05
1.03306e-05
9.40997e-06
8.86088e-06
9.5071e-06
1.05459e-05
1.14375e-05
1.23573e-05
1.33846e-05
1.43013e-05
1.60738e-05
6.67939e-06
1.31785e-05
1.54077e-05
4.01222e-06
4.2692e-06
4.21231e-06
3.92033e-06
1.57118e-05
1.35793e-05
1.16693e-05
1.02255e-05
9.29192e-06
8.70908e-06
9.33792e-06
1.0393e-05
1.13211e-05
1.22755e-05
1.33344e-05
1.4276e-05
1.61032e-05
6.77515e-06
1.31731e-05
1.5429e-05
4.01916e-06
4.27811e-06
4.21907e-06
3.92311e-06
1.56799e-05
1.35134e-05
1.15833e-05
1.01247e-05
9.18398e-06
8.60623e-06
9.20491e-06
1.02547e-05
1.12126e-05
1.2199e-05
1.32877e-05
1.42524e-05
1.6131e-05
6.87265e-06
1.31681e-05
1.54505e-05
4.02629e-06
4.28705e-06
4.22578e-06
3.9258e-06
1.56498e-05
1.34501e-05
1.15003e-05
1.0027e-05
9.0839e-06
8.55717e-06
9.10877e-06
1.01317e-05
1.11113e-05
1.21271e-05
1.3244e-05
1.42257e-05
1.6103e-05
6.98169e-06
1.31636e-05
1.54718e-05
4.03353e-06
4.29594e-06
4.23238e-06
3.92837e-06
1.56211e-05
1.3389e-05
1.14192e-05
9.93045e-06
8.98553e-06
8.52724e-06
9.03804e-06
1.00215e-05
1.1016e-05
1.20585e-05
1.32024e-05
1.42056e-05
1.61324e-05
7.07743e-06
1.31592e-05
1.54923e-05
4.04079e-06
4.30477e-06
4.23888e-06
3.93088e-06
1.55935e-05
1.33291e-05
1.1339e-05
9.83311e-06
8.88275e-06
8.46239e-06
8.96684e-06
9.9199e-06
1.0926e-05
1.19929e-05
1.31623e-05
1.41852e-05
1.61717e-05
7.17581e-06
1.31547e-05
1.55116e-05
4.04803e-06
4.31359e-06
4.24541e-06
3.93344e-06
1.55666e-05
1.32698e-05
1.1258e-05
9.73324e-06
8.77268e-06
8.3577e-06
8.86445e-06
9.81958e-06
1.08404e-05
1.19315e-05
1.31249e-05
1.41655e-05
1.62142e-05
7.27641e-06
1.31496e-05
1.55298e-05
4.05533e-06
4.32255e-06
4.2521e-06
3.93613e-06
1.55398e-05
1.321e-05
1.11752e-05
9.62942e-06
8.65292e-06
8.25562e-06
8.73537e-06
9.71539e-06
1.07557e-05
1.1873e-05
1.30907e-05
1.41466e-05
3.81556e-06
7.38386e-06
1.31441e-05
1.55474e-05
4.06285e-06
4.33179e-06
4.25906e-06
3.93897e-06
1.55124e-05
1.31491e-05
1.10904e-05
9.52167e-06
8.52113e-06
8.08728e-06
8.64218e-06
9.618e-06
1.06742e-05
1.18162e-05
1.30579e-05
1.41298e-05
3.80089e-06
7.48971e-06
1.31385e-05
1.55646e-05
4.07073e-06
4.34145e-06
4.2663e-06
3.94188e-06
1.54834e-05
1.30865e-05
1.1004e-05
9.41283e-06
8.38796e-06
7.72552e-06
8.55993e-06
9.53453e-06
1.06024e-05
1.17654e-05
1.30279e-05
1.41098e-05
3.78504e-06
7.60718e-06
1.31329e-05
1.55818e-05
4.07902e-06
4.3515e-06
4.27376e-06
3.94478e-06
1.54522e-05
1.30216e-05
1.09153e-05
9.30453e-06
8.27491e-06
7.56311e-06
8.39626e-06
9.44791e-06
1.05342e-05
1.17187e-05
1.30006e-05
1.40922e-05
3.77271e-06
7.72188e-06
1.31274e-05
1.55986e-05
4.08767e-06
4.36182e-06
4.28129e-06
3.94762e-06
1.54189e-05
1.29542e-05