/*--------------------------------*- C++ -*----------------------------------*\
  =========                 |
  \\      /  F ield         | OpenFOAM: The Open Source CFD Toolbox
   \\    /   O peration     | Website:  https://openfoam.org
    \\  /    A nd           | Version:  8
     \\/     M anipulation  |
\*---------------------------------------------------------------------------*/
FoamFile
{
    version     2.0;
    format      ascii;
    class       surfaceScalarField;
    location    "500";
    object      phi;
}
// * * * * * * * * * * * * * * * * * * * * * * * * * * * * * * * * * * * * * //

dimensions      [1 0 -1 0 0 0 0];

internalField   nonuniform List<scalar> 
16360
(
-2.42103
-0.0367821
-2.38041
-0.0406232
-2.34493
-0.0354788
-2.31673
-0.0282003
-2.29538
-0.021345
-2.27973
-0.0156449
-2.26855
-0.0111727
-2.26026
-0.00829302
-2.25327
-0.00698667
-2.24666
-0.00661588
-2.24007
-0.00658494
-2.23342
-0.00664845
-2.2267
-0.00671883
-2.21979
-0.00690697
-2.21181
-0.00798166
-2.20005
-0.0117644
-2.17875
-0.021297
-2.13739
-0.0413553
-2.06453
-0.0728662
-1.95701
-0.107514
-1.8243
-0.132705
-1.68671
-0.137595
-1.56815
-0.118561
-1.48508
-0.083066
-1.43898
-0.0461102
-1.41611
-0.0228695
-1.39499
-0.0211179
-1.35622
-0.0387689
-1.29256
-0.0636588
-1.22226
-0.0702992
-1.17238
-0.0498815
-1.13728
-0.0351015
-1.09552
-0.041759
-1.03483
-0.0606905
-0.960842
-0.0739815
-0.891179
-0.0696639
-0.830955
-0.0602148
-0.780571
-0.0503838
-0.740751
-0.0398271
-0.71042
-0.0303265
-0.688211
-0.0222126
-0.672589
-0.0156241
-0.66209
-0.0104967
-0.655397
-0.00669429
-0.651329
-0.00406967
-0.64884
-0.00248726
-0.647006
-0.00183348
-0.644992
-0.00201739
-0.642019
-0.00298164
-0.00494919
-0.63706
-1.55648
-0.0660093
-1.52443
-0.0726733
-1.5077
-0.0522197
-1.50133
-0.0345663
-1.50219
-0.0204935
-1.50786
-0.00996619
-1.51735
-0.0016846
-1.52873
0.00308124
-1.54132
0.00560612
-1.55588
0.00794088
-1.5723
0.00983875
-1.59044
0.011495
-1.61061
0.0134435
-1.6336
0.0160919
-1.65937
0.0177842
-1.68438
0.0132451
-1.69969
-0.00598396
-1.69282
-0.0482351
-1.65946
-0.106222
-1.60358
-0.163402
-1.53293
-0.20335
-1.46062
-0.209911
-1.40118
-0.177995
-1.36458
-0.119671
-1.35163
-0.0590592
-1.35085
-0.0236527
-1.34312
-0.0288456
-1.31089
-0.0710062
-1.24352
-0.131023
-1.16665
-0.147169
-1.12623
-0.0903055
-1.10701
-0.0543248
-1.07518
-0.0735824
-1.01378
-0.122099
-0.931157
-0.15661
-0.859735
-0.141083
-0.800603
-0.119353
-0.751196
-0.0997889
-0.713228
-0.0778012
-0.684824
-0.0587285
-0.66442
-0.0426119
-0.650393
-0.0296524
-0.64127
-0.019611
-0.635781
-0.0121914
-0.632792
-0.00706507
-0.631322
-0.00395154
-0.630544
-0.00261981
-0.629705
-0.00285906
-0.628116
-0.0045622
-0.00779038
-0.625279
-0.483735
-0.0905539
-0.508319
-0.0480824
-0.52944
-0.031099
-0.546842
-0.017157
-0.560253
-0.00708685
-0.570429
0.000210428
-0.57602
0.0039121
-0.579701
0.00675295
-0.58406
0.00998163
-0.587816
0.0116994
-0.590083
0.0121024
-0.590519
0.0119401
-0.588909
0.0118347
-0.587657
0.0148372
-0.590958
0.0210936
-0.599788
0.0220832
-0.609412
0.00362425
-0.621196
-0.0364452
-0.64565
-0.0817498
-0.689879
-0.119182
-0.756035
-0.137195
-0.837385
-0.128565
-0.925542
-0.089843
-1.00986
-0.0353522
-1.07111
0.00218966
-1.10348
0.00870973
-1.10972
-0.022596
-1.09192
-0.0888044
-1.04705
-0.175888
-0.997044
-0.197189
-1.00446
-0.0828817
-1.02724
-0.0315402
-1.02175
-0.0790855
-0.969963
-0.173883
-0.87209
-0.254485
-0.803281
-0.209894
-0.750223
-0.172406
-0.703484
-0.146527
-0.669744
-0.111533
-0.64548
-0.0829928
-0.628851
-0.0592389
-0.618039
-0.0404708
-0.611604
-0.0260582
-0.608317
-0.0154747
-0.607139
-0.00823935
-0.607169
-0.00392526
-0.607632
-0.00215837
-0.607886
-0.0026019
-0.607392
-0.00505321
-0.00946335
-0.605721
1.64653
-0.0448626
1.59504
0.00340809
1.54983
0.0141124
1.51013
0.0225418
1.47425
0.028797
1.44168
0.0327792
1.41032
0.0352702
1.38026
0.0368155
1.35313
0.0371151
1.32905
0.0357784
1.30849
0.0326558
1.29245
0.0279825
1.28235
0.0219348
1.28623
0.0109548
1.31652
-0.00919718
1.37625
-0.0376363
1.44869
-0.0688218
1.50751
-0.0952568
1.53586
-0.11011
1.52345
-0.106778
1.46735
-0.0810991
1.37416
-0.0353787
1.26813
0.0161996
1.16768
0.0651045
1.05729
0.112579
0.913592
0.152406
0.708136
0.182862
0.409149
0.210182
-0.0120534
0.245316
-0.427905
0.218669
-0.68258
0.171794
-0.809324
0.0952062
-0.844857
-0.0435517
-0.808153
-0.210586
-0.72421
-0.338429
-0.702496
-0.231605
-0.675581
-0.19932
-0.634788
-0.187321
-0.608868
-0.137461
-0.591982
-0.0998719
-0.581714
-0.0695093
-0.57614
-0.0460343
-0.57405
-0.0281463
-0.574396
-0.0151309
-0.576255
-0.00638512
-0.578823
-0.00135894
-0.581449
0.000470517
-0.583588
-0.000461647
-0.584774
-0.00386239
-0.00953827
-0.584708
3.9829
0.0280204
3.94721
0.0390949
3.9087
0.0526217
3.87194
0.0593055
3.83733
0.0634027
3.8045
0.0656148
3.77357
0.0661943
3.74511
0.0652779
3.71959
0.0626372
3.69739
0.0579769
3.67887
0.0511753
3.66464
0.0422174
3.65571
0.0308641
3.64943
0.0172399
3.6382
0.00202867
3.61516
-0.0145991
3.57736
-0.0310201
3.5252
-0.0431047
3.46154
-0.0464495
3.39156
-0.0367938
3.31983
-0.00936401
3.24558
0.0388797
3.1551
0.106669
3.03451
0.185695
2.88085
0.266235
2.6921
0.341162
2.46713
0.407822
2.21023
0.467088
1.9416
0.513942
1.64878
0.511486
1.3512
0.469378
1.04409
0.402299
0.653119
0.347421
0.110671
0.331864
-0.375451
0.147697
-0.570755
-0.0363016
-0.559449
-0.210627
-0.540488
-0.206277
-0.528404
-0.149542
-0.522541
-0.105723
-0.520585
-0.0714672
-0.521485
-0.0451418
-0.524605
-0.025014
-0.529207
-0.0105316
-0.534528
-0.00106517
-0.540064
0.00417623
-0.545386
0.00580135
-0.549938
0.00408656
-0.553204
-0.000593582
-0.00785555
-0.554884
2.883
0.071377
2.85116
0.0709382
2.83283
0.0709472
2.82048
0.0716609
2.81241
0.0714721
2.80736
0.0706559
2.80428
0.0692766
2.80235
0.0672105
2.80075
0.0642355
2.79861
0.0601232
2.79505
0.0547311
2.78927
0.0480044
2.78028
0.0398514
2.7673
0.0302215
2.75029
0.0190396
2.72814
0.00754255
2.69912
-0.00200173
2.66317
-0.00715238
2.62151
-0.00478694
2.57561
0.00910003
2.52916
0.0370843
2.48844
0.0795952
2.45759
0.137525
2.43284
0.210444
2.40406
0.295016
2.35916
0.386049
2.2892
0.477788
2.19216
0.564121
2.07045
0.635652
1.90711
0.674823
1.69833
0.678159
1.44921
0.651419
1.1834
0.613235
0.94953
0.565743
0.641027
0.456201
0.206321
0.398404
-0.220385
0.216088
-0.44287
0.0162116
-0.426939
-0.165482
-0.438513
-0.0941445
-0.445479
-0.0644969
-0.453468
-0.0371405
-0.462506
-0.0159675
-0.471853
-0.00119142
-0.481207
0.00828289
-0.490382
0.0133488
-0.498753
0.0141803
-0.505879
0.0112106
-0.511357
0.00487903
-0.00433598
-0.514878
2.55964
0.126302
2.51779
0.112783
2.48304
0.105693
2.45458
0.100121
2.43105
0.0950099
2.41153
0.090169
2.39525
0.0855638
2.38146
0.0809947
2.36948
0.0762156
2.35857
0.0710337
2.34796
0.0653389
2.33687
0.0590936
2.32441
0.0523112
2.30952
0.0451119
2.29077
0.0377913
2.26718
0.0311406
2.2384
0.0267778
2.20411
0.0271367
2.16456
0.0347673
2.12202
0.0516393
2.08013
0.0789714
2.0419
0.117821
2.01043
0.168995
1.98781
0.233065
1.97281
0.310018
1.96028
0.398573
1.94276
0.495319
1.91278
0.5941
1.86268
0.685753
1.77963
0.757871
1.65687
0.800923
1.49635
0.811938
1.3128
0.796778
1.11912
0.759429
0.88619
0.689126
0.66988
0.614714
0.408201
0.477772
0.0325873
0.391833
-0.268907
0.136001
-0.35144
-0.0116042
-0.354968
-0.060965
-0.369443
-0.0226668
-0.384367
-0.00105063
-0.39878
0.0132238
-0.412816
0.0223265
-0.425757
0.0262865
-0.437298
0.0257192
-0.447136
0.0210482
-0.45493
0.0126777
0.00107526
-0.460345
2.10974
0.168732
2.07207
0.150451
2.04265
0.135117
2.01891
0.12386
1.99956
0.114364
1.9837
0.106026
1.97054
0.098727
1.95933
0.0922018
1.9494
0.0861513
1.94007
0.0803662
1.93067
0.0747379
1.92051
0.0692542
1.90883
0.0639819
1.89482
0.0591263
1.87753
0.0550935
1.85606
0.0526057
1.83002
0.0528232
1.79981
0.0573365
1.76673
0.0678501
1.73251
0.085854
1.69893
0.112544
1.66784
0.148906
1.64113
0.195705
1.62054
0.253666
1.60703
0.323525
1.59991
0.405682
1.59607
0.499164
1.58986
0.600315
1.57352
0.702082
1.53738
0.794013
1.47372
0.864578
1.37979
0.905865
1.25973
0.916845
1.11878
0.900384
0.955139
0.852762
0.788074
0.781784
0.591889
0.673957
0.418489
0.565221
0.151291
0.403198
-0.0991442
0.238829
-0.240727
0.0806147
-0.266036
0.00265073
-0.289361
0.0222769
-0.31053
0.0343857
-0.329096
0.0408939
-0.345411
0.0425981
-0.359644
0.0399518
-0.371749
0.0331513
-0.381512
0.022436
0.00825316
-0.388689
1.68445
0.216227
1.64915
0.185749
1.62125
0.163008
1.59912
0.145994
1.58143
0.132059
1.56711
0.12034
1.55529
0.110544
1.54524
0.102258
1.53631
0.0950853
1.52789
0.0887771
1.51943
0.0832025
1.51036
0.078329
1.50011
0.0742252
1.48813
0.0711062
1.47386
0.0693651
1.45685
0.069613
1.43692
0.0727461
1.41436
0.0799043
1.38987
0.0923369
1.36446
0.111258
1.3393
0.137712
1.31566
0.172545
1.29492
0.216447
1.27849
0.270096
1.26765
0.334358
1.26309
0.410247
1.26402
0.498227
1.26748
0.596849
1.26823
0.701337
1.25926
0.80298
1.23349
0.890364
1.186
0.953348
1.11605
0.986797
1.02602
0.990409
0.917296
0.961487
0.795931
0.903152
0.657131
0.812752
0.517576
0.704784
0.351877
0.568895
0.175112
0.4156
-0.0156898
0.271423
-0.141209
0.128154
-0.183415
0.0644847
-0.209999
0.0609904
-0.23156
0.0624549
-0.249773
0.0608091
-0.26542
0.0556024
-0.278755
0.0464814
-0.289728
0.0334074
0.0165261
-0.297995
1.21878
0.2596
1.19064
0.213891
1.16985
0.183799
1.15376
0.162083
1.14143
0.144389
1.13181
0.129964
1.12408
0.118275
1.11765
0.10868
1.11203
0.100711
1.10671
0.0940947
1.10124
0.088675
1.09519
0.0843787
1.08814
0.0812632
1.07974
0.0795061
1.06966
0.0794358
1.05772
0.0815513
1.04394
0.0865376
1.02858
0.0952605
1.0122
0.10871
0.99556
0.1279
0.979495
0.153777
0.964874
0.187165
0.952568
0.228761
0.943453
0.279205
0.938493
0.339315
0.938551
0.410191
0.943882
0.492902
0.953421
0.587318
0.964301
0.690451
0.972016
0.795262
0.971023
0.891351
0.956393
0.967982
0.925499
1.01769
0.878468
1.03744
0.815553
1.0244
0.738848
0.979865
0.647839
0.903758
0.54796
0.804663
0.434662
0.682191
0.307559
0.542704
0.176709
0.402275
0.0347902
0.270066
-0.060139
0.159424
-0.10558
0.106421
-0.126
0.0828776
-0.142177
0.0769934
-0.155998
0.0694131
-0.167795
0.0582759
-0.177992
0.0436133
0.0249883
-0.186455
0.733352
0.301687
0.717014
0.230232
0.705862
0.194952
0.698881
0.169067
0.694687
0.148577
0.691988
0.132668
0.690182
0.120085
0.688909
0.109948
0.687838
0.101786
0.686634
0.0953054
0.684988
0.0903223
0.68263
0.0867411
0.679328
0.0845694
0.674915
0.08393
0.66929
0.0850643
0.662471
0.0883668
0.65462
0.0943874
0.646051
0.103827
0.637242
0.117525
0.628751
0.136392
0.621175
0.161351
0.615105
0.193235
0.6111
0.232765
0.609749
0.280558
0.611735
0.337327
0.617838
0.404093
0.628673
0.482061
0.644192
0.571803
0.663072
0.671561
0.682936
0.775405
0.700031
0.87426
0.710247
0.957763
0.710409
1.01753
0.699095
1.04876
0.675378
1.04812
0.639454
1.01579
0.590866
0.952345
0.531572
0.863957
0.460622
0.753146
0.377329
0.625994
0.285538
0.494068
0.18799
0.367621
0.0929253
0.254482
0.0242409
0.175115
-0.0154321
0.122552
-0.0344603
0.0960139
-0.044241
0.0791982
-0.0508563
0.0649019
-0.0566107
0.049369
0.0309988
-0.0626215
0.252707
0.305604
0.254073
0.228862
0.257417
0.191611
0.261964
0.164521
0.266526
0.144018
0.271123
0.128068
0.275837
0.115377
0.280522
0.105266
0.284971
0.0973307
0.288978
0.0913076
0.292308
0.0870027
0.294765
0.0842944
0.296187
0.0831533
0.296471
0.0836404
0.295604
0.0859222
0.29365
0.0903136
0.290774
0.0972657
0.287253
0.107344
0.283516
0.121259
0.2801
0.13981
0.277592
0.16384
0.276625
0.19421
0.277733
0.231649
0.281474
0.276818
0.288457
0.330346
0.299468
0.393076
0.315463
0.466061
0.337003
0.550267
0.363158
0.645408
0.39364
0.744919
0.426129
0.841769
0.457236
0.92666
0.483548
0.991218
0.502783
1.02952
0.513284
1.03762
0.513906
1.01516
0.503594
0.962658
0.48268
0.884873
0.450543
0.785285
0.406692
0.669846
0.352698
0.548064
0.291117
0.429199
0.224573
0.321025
0.165607
0.234087
0.119462
0.168689
0.0908132
0.124666
0.0753988
0.0946128
0.0681019
0.0721894
0.0647459
0.0527197
0.0333165
0.0624368
-0.20889
0.251191
-0.18682
0.206797
-0.169101
0.173883
-0.153623
0.149042
-0.139489
0.129894
-0.126322
0.114902
-0.114198
0.103254
-0.103346
0.0944186
-0.0939797
0.0879742
-0.0862373
0.0835643
-0.0801648
0.0809045
-0.0756668
0.079789
-0.0726092
0.0800956
-0.0708075
0.0818328
-0.070013
0.0851392
-0.0699658
0.0902752
-0.0703726
0.0976621
-0.0708714
0.107843
-0.0710759
0.121458
-0.0705343
0.139264
-0.068727
0.162045
-0.065127
0.190606
-0.0591828
0.225706
-0.0503796
0.268003
-0.0381557
0.318116
-0.021805
0.376722
-0.000301784
0.444566
0.0275304
0.522427
0.0622089
0.61073
0.104163
0.702969
0.152297
0.793632
0.203553
0.875409
0.253743
0.94103
0.300167
0.983094
0.341248
0.996539
0.374536
0.981873
0.398634
0.93856
0.41288
0.870626
0.416418
0.78175
0.408524
0.677739
0.389673
0.566905
0.361426
0.45745
0.326013
0.356439
0.289451
0.270648
0.256132
0.20201
0.230657
0.150149
0.213789
0.111482
0.204137
0.0818399
0.199322
0.0575439
0.0358061
0.196833
-0.710284
0.19897
-0.678696
0.175209
-0.655997
0.151185
-0.637321
0.130364
-0.620298
0.112876
-0.603965
0.098575
-0.587901
0.0871867
-0.571947
0.0784574
-0.556119
0.0721391
-0.540558
0.0680067
-0.525503
0.0658558
-0.511233
0.0655204
-0.498018
0.0668873
-0.48609
0.0699084
-0.475591
0.0746343
-0.466529
0.0812157
-0.458778
0.0899131
-0.452051
0.101119
-0.445904
0.115328
-0.439784
0.13313
-0.432962
0.155216
-0.424634
0.182276
-0.413923
0.21499
-0.399908
0.253994
-0.381663
0.299877
-0.3582
0.353249
-0.328414
0.414779
-0.29103
0.485048
-0.24422
0.563929
-0.188171
0.646918
-0.123359
0.728821
-0.0514493
0.803493
0.024493
0.865088
0.0994866
0.908102
0.168736
0.927287
0.231085
0.919523
0.285916
0.883728
0.331722
0.824818
0.367481
0.745988
0.392095
0.653125
0.405216
0.553786
0.407482
0.455189
0.400537
0.363376
0.387949
0.283236
0.373268
0.216694
0.35983
0.163588
0.349368
0.121944
0.34215
0.0890604
0.337442
0.0622601
0.0393158
0.333929
-1.19025
0.156518
-1.15806
0.143023
-1.13296
0.126089
-1.11197
0.109374
-1.09327
0.094173
-1.07575
0.0810607
-1.05877
0.0702051
-1.04192
0.0616095
-1.02498
0.0552079
-1.00786
0.0508955
-0.990565
0.0485594
-0.973157
0.0481113
-0.955761
0.0494872
-0.938517
0.052665
-0.921562
0.0576804
-0.904993
0.0646436
-0.888821
0.0737407
-0.872956
0.0852463
-0.857163
0.0995286
-0.841047
0.117024
-0.82406
0.138233
-0.805481
0.163701
-0.784465
0.193976
-0.760052
0.229579
-0.731201
0.271023
-0.696744
0.318805
-0.655368
0.373406
-0.605443
0.435116
-0.544864
0.503343
-0.473027
0.575084
-0.390372
0.646169
-0.298738
0.711866
-0.201086
0.767426
-0.100955
0.807977
-0.00143464
0.827771
0.0914719
0.826612
0.173489
0.801714
0.246941
0.751372
0.311317
0.681609
0.364924
0.599515
0.406583
0.512128
0.436097
0.425676
0.454455
0.345018
0.464084
0.273601
0.467869
0.212908
0.468514
0.162947
0.467872
0.122589
0.466826
0.0901054
0.465461
0.0636259
0.0414907
0.463283
-1.58706
0.119088
-1.55462
0.110574
-1.52725
0.0987218
-1.50386
0.0859846
-1.48341
0.0737251
-1.46504
0.0626925
-1.44809
0.0532521
-1.43205
0.0455694
-1.41653
0.0396874
-1.40123
0.0355879
-1.38592
0.0332438
-1.37042
0.0326174
-1.35462
0.033683
-1.3384
0.0364537
-1.3217
0.0409792
-1.30442
0.0473592
-1.28643
0.055751
-1.26754
0.0663671
-1.2475
0.0794869
-1.22593
0.0954414
-1.2023
0.11461
-1.17599
0.137389
-1.14621
0.164189
-1.11204
0.195414
-1.07245
0.231433
-1.02624
0.272594
-0.971999
0.319155
-0.908009
0.37113
-0.832475
0.427807
-0.744525
0.48714
-0.644437
0.546081
-0.533675
0.601103
-0.414697
0.648451
-0.290843
0.684128
-0.166487
0.703408
-0.0454053
0.705528
0.0657818
0.690526
0.164583
0.65257
0.254098
0.592099
0.333322
0.52029
0.400047
0.4454
0.453315
0.372409
0.493568
0.304762
0.52263
0.244534
0.542951
0.192585
0.556931
0.148964
0.566431
0.113088
0.572616
0.0839165
0.576039
0.0602015
0.0407572
0.576774
-1.90866
0.0858463
-1.87827
0.0801893
-1.85163
0.0720819
-1.82859
0.0629379
-1.80864
0.0537776
-1.79121
0.0452548
-1.77571
0.0377605
-1.76164
0.0315047
-1.74856
0.0265955
-1.73604
0.0230784
-1.72375
0.0209596
-1.71138
0.0202441
-1.69865
0.0209442
-1.68528
0.0230883
-1.67103
0.0267262
-1.65562
0.0319449
-1.63874
0.0388715
-1.62005
0.0476773
-1.59914
0.0585662
-1.57548
0.0717831
-1.54847
0.0876027
-1.5174
0.106319
-1.48143
0.128219
-1.4396
0.153587
-1.39085
0.182679
-1.33395
0.215696
-1.26753
0.252735
-1.19006
0.29366
-1.10008
0.337832
-0.996772
0.383839
-0.880275
0.429577
-0.751713
0.472544
-0.613216
0.509952
-0.46786
0.538768
-0.320143
0.555692
-0.174675
0.560061
-0.0355843
0.551442
0.0884187
0.528565
0.200936
0.479575
0.302861
0.418368
0.391192
0.357076
0.46458
0.299017
0.523178
0.246159
0.568553
0.199161
0.602935
0.158203
0.628576
0.123323
0.647332
0.0943321
0.660553
0.0706942
0.669124
0.0516337
0.0363646
0.673519
-2.18058
0.0556343
-2.15278
0.0523887
-2.12802
0.0473166
-2.10644
0.0413616
-2.08786
0.0351994
-2.07192
0.0293137
-2.05818
0.0240204
-2.04617
0.0195058
-2.03545
0.0158773
-2.02557
0.0131976
-2.01612
0.0115029
-2.00669
0.0108157
-1.9969
0.0111557
-1.98636
0.0125561
-1.9747
0.0150632
-1.9615
0.018743
-1.94631
0.0236885
-1.92864
0.0300093
-1.90793
0.0378475
-1.88351
0.047368
-1.85465
0.058747
-1.82051
0.0721705
-1.78012
0.0878317
-1.73244
0.105907
-1.6763
0.126546
-1.61045
0.149853
-1.53356
0.175841
-1.44425
0.20435
-1.34133
0.234909
-1.22412
0.266624
-1.0927
0.298159
-0.948052
0.327894
-0.792092
0.353992
-0.627746
0.374427
-0.45932
0.387266
-0.291423
0.392164
-0.128972
0.388996
0.0209722
0.378613
0.158043
0.3425
0.279163
0.297253
0.385048
0.251189
0.474375
0.209684
0.547342
0.173186
0.605568
0.140934
0.651216
0.112553
0.686412
0.0881255
0.712988
0.0677546
0.732445
0.0512377
0.745942
0.0381395
0.0280627
0.754242
-2.40606
0.0276103
-2.37977
0.0261056
-2.35606
0.0236023
-2.3353
0.0205973
-2.31753
0.0174288
-2.30256
0.0143495
-2.29007
0.0115338
-2.27966
0.00909195
-2.27088
0.00709459
-2.26327
0.00558895
-2.25636
0.00459529
-2.24967
0.00412945
-2.24273
0.00421767
-2.23505
0.00487431
-2.22612
0.00613566
-2.21541
0.00803607
-2.20235
0.0106232
-2.18629
0.0139576
-2.16656
0.0181105
-2.14235
0.0231632
-2.11281
0.0292042
-2.07697
0.0363251
-2.03375
0.0446159
-1.982
0.0541616
-1.92048
0.0650259
-1.84789
0.0772535
-1.76288
0.0908354
-1.66421
0.105666
-1.55079
0.121502
-1.42206
0.137895
-1.27811
0.154202
-1.11983
0.169627
-0.949098
0.183253
-0.768761
0.194081
-0.58277
0.201282
-0.395478
0.204881
-0.211821
0.205327
-0.0339306
0.200715
0.128958
0.179619
0.268129
0.15808
0.388066
0.131249
0.488988
0.108763
0.571938
0.0902355
0.639048
0.0738287
0.692535
0.0590696
0.734419
0.0462395
0.766557
0.0356131
0.790644
0.027151
0.808096
0.0206845
0.0162804
0.819875
-2.57729
-2.55118
-2.52757
-2.50698
-2.48955
-2.4752
-2.46367
-2.45458
-2.44748
-2.44189
-2.4373
-2.43317
-2.42896
-2.42408
-2.41795
-2.40991
-2.39929
-2.38533
-2.36722
-2.34405
-2.31485
-2.27853
-2.23391
-2.17975
-2.11473
-2.03747
-1.94664
-1.84097
-1.71947
-1.58158
-1.42737
-1.25774
-1.07449
-0.880409
-0.679123
-0.474243
-0.268922
-0.0682048
0.111422
0.2695
0.400748
0.509514
0.599751
0.673583
0.73265
0.77889
0.814505
0.841655
0.862337
0.878619
0.00812467
-0.000166583
0.00818813
-5.00291e-05
0.00823758
-3.22383e-05
0.00826197
-1.16804e-05
0.00827156
1.67422e-06
0.00827447
9.29591e-06
0.0082737
1.41736e-05
0.00826949
1.77251e-05
0.00826116
2.05545e-05
0.00824793
2.29885e-05
0.00822923
2.51405e-05
0.00820483
2.69187e-05
0.00817504
2.81426e-05
0.00814081
2.86615e-05
0.00810363
2.84157e-05
0.00806542
2.74548e-05
0.00802825
2.59341e-05
0.00799402
2.41001e-05
0.00796409
2.23501e-05
0.00793984
2.03743e-05
0.00792169
1.86414e-05
0.00790907
1.7567e-05
0.00790102
1.68521e-05
0.00789569
1.67761e-05
0.00789107
1.73378e-05
0.00788511
1.82598e-05
0.00787613
1.92579e-05
0.00786286
2.01253e-05
0.00784464
2.06679e-05
0.0078215
2.0698e-05
0.0077942
2.00693e-05
0.00776413
1.87208e-05
0.00773319
1.66576e-05
0.00770355
1.39429e-05
0.00767749
1.06953e-05
0.00765714
7.09889e-06
0.00764423
3.38639e-06
0.00763991
-1.90326e-07
0.00764458
-3.3915e-06
0.00765785
-6.02751e-06
0.00767857
-7.99587e-06
0.007705
-9.32464e-06
0.00773501
-1.01864e-05
0.00776645
-1.09477e-05
0.00779735
-1.21214e-05
0.00782615
-1.4074e-05
0.00785188
-1.646e-05
0.0078751
-1.80669e-05
0.00790091
-1.8952e-05
-2.72008e-05
0.00794399
0.00788373
-8.33348e-05
0.00787744
-3.0336e-05
0.00786351
1.95675e-06
0.00786351
1.19969e-05
0.00787147
1.83264e-05
0.00788297
2.18411e-05
0.00789611
2.36985e-05
0.00790906
2.49576e-05
0.00791983
2.59442e-05
0.0079267
2.66763e-05
0.0079285
2.71615e-05
0.00792475
2.74022e-05
0.0079157
2.73731e-05
0.00790231
2.7055e-05
0.00788617
2.64711e-05
0.00786928
2.56921e-05
0.00785385
2.48021e-05
0.00784203
2.38257e-05
0.00783576
2.28161e-05
0.00783486
2.27513e-05
0.00784004
2.22337e-05
0.00785047
2.21047e-05
0.00786408
2.22676e-05
0.00787902
2.24275e-05
0.00789377
2.217e-05
0.00790654
2.14456e-05
0.0079157
2.02405e-05
0.00792008
1.85612e-05
0.00791914
1.64457e-05
0.00791303
1.39612e-05
0.00790259
1.12063e-05
0.00788926
8.32094e-06
0.00787488
5.44469e-06
0.00786157
2.67991e-06
0.00785146
1.07939e-07
0.00784653
-2.21273e-06
0.00784835
-4.26297e-06
0.00785794
-6.06951e-06
0.00787565
-7.71536e-06
0.00790106
-9.34589e-06
0.00793304
-1.11603e-05
0.00796985
-1.34055e-05
0.00800937
-1.63652e-05
0.00804955
-2.04797e-05
0.008089
-2.65414e-05
0.00812746
-3.60445e-05
0.0081653
-5.11488e-05
0.00820096
-7.31629e-05
0.00822704
-9.9446e-05
-0.00012285
0.00822949
0.00789511
-7.72394e-06
0.00788285
-9.51591e-07
0.00789078
1.11479e-05
0.0079048
1.69657e-05
0.00792398
1.98656e-05
0.00794492
2.2025e-05
0.00796509
2.36594e-05
0.00798287
2.49856e-05
0.00799678
2.61004e-05
0.00800558
2.69332e-05
0.00800843
2.7427e-05
0.0080051
2.7601e-05
0.00799606
2.75126e-05
0.00798243
2.72344e-05
0.0079659
2.68541e-05
0.00794852
2.64725e-05
0.00793238
2.61781e-05
0.00791934
2.60245e-05
0.00791056
2.62717e-05
0.00790774
2.65541e-05
0.0079106
2.6523e-05
0.00791851
2.64559e-05
0.00792984
2.65667e-05
0.00794321
2.61238e-05
0.00795666
2.499e-05
0.00796827
2.30989e-05
0.00797645
2.04683e-05
0.00798011
1.71916e-05
0.00797878
1.34197e-05
0.00797263
9.34629e-06
0.00796252
5.18811e-06
0.00794985
1.1758e-06
0.00793643
-2.49079e-06
0.00792428
-5.69591e-06
0.00791551
-8.38924e-06
0.00791201
-1.05826e-05
0.00791531
-1.23584e-05
0.00792639
-1.38744e-05
0.00794548
-1.53632e-05
0.00797211
-1.71264e-05
0.00800509
-1.95307e-05
0.00804263
-2.2983e-05
0.00808241
-2.78435e-05
0.00812179
-3.43697e-05
0.00815834
-4.26198e-05
0.00819092
-5.28705e-05
0.0082211
-6.67838e-05
0.00825259
-8.83357e-05
0.00828365
-0.000121314
-0.000161201
0.00828864
0.00795529
4.41738e-06
0.00796313
9.47372e-06
0.00797579
1.59658e-05
0.00798918
2.14488e-05
0.00800326
2.49297e-05
0.00801758
2.74158e-05
0.00803103
2.9187e-05
0.00804239
3.03774e-05
0.00805045
3.11373e-05
0.00805403
3.15254e-05
0.0080523
3.15558e-05
0.00804501
3.12847e-05
0.00803259
3.08205e-05
0.00801612
3.0294e-05
0.00799724
2.9839e-05
0.00797791
2.95679e-05
0.00796016
2.95598e-05
0.00794579
2.98585e-05
0.00793623
3.0597e-05
0.00793209
3.13822e-05
0.00793367
3.13769e-05
0.00794023
3.11416e-05
0.00795065
3.06284e-05
0.00796312
2.9423e-05
0.00797567
2.73141e-05
0.00798648
2.42155e-05
0.00799404
2.01807e-05
0.00799731
1.53894e-05
0.00799584
1.01017e-05
0.00798985
4.62204e-06
0.00798016
-7.35156e-07
0.00796813
-5.67282e-06
0.00795548
-9.96087e-06
0.00794419
-1.34826e-05
0.00793627
-1.62278e-05
0.00793359
-1.82791e-05
0.00793762
-1.98155e-05
0.00794924
-2.11154e-05
0.00796865
-2.25351e-05
0.00799528
-2.44864e-05
0.00802791
-2.74395e-05
0.00806477
-3.19196e-05
0.00810373
-3.85872e-05
0.00814246
-4.81825e-05
0.00817826
-6.10897e-05
0.00820825
-7.69442e-05
0.00823124
-9.50064e-05
0.00825131
-0.00011638
0.00827546
-0.000146089
-0.00018694
0.00828273
0.00795562
1.40735e-05
0.00795822
2.34723e-05
0.00796368
2.75447e-05
0.00797178
3.05978e-05
0.00798265
3.21951e-05
0.00799562
3.30113e-05
0.00800927
3.34232e-05
0.00802185
3.35345e-05
0.0080317
3.34139e-05
0.0080374
3.31025e-05
0.00803797
3.26135e-05
0.00803309
3.19852e-05
0.00802312
3.13146e-05
0.00800915
3.07393e-05
0.00799278
3.03972e-05
0.00797593
3.03902e-05
0.0079606
3.07534e-05
0.00794862
3.14324e-05
0.0079416
3.23176e-05
0.0079399
3.34346e-05
0.0079433
3.37506e-05
0.0079512
3.34855e-05
0.00796239
3.2649e-05
0.00797521
3.08673e-05
0.0079879
2.79322e-05
0.00799876
2.37982e-05
0.00800638
1.85778e-05
0.00800984
1.25293e-05
0.00800876
6.01217e-06
0.0080034
-5.65238e-07
0.00799455
-6.80251e-06
0.00798348
-1.23565e-05
0.00797187
-1.69863e-05
0.00796159
-2.0584e-05
0.00795458
-2.31755e-05
0.00795259
-2.49136e-05
0.007957
-2.60786e-05
0.00796865
-2.70642e-05
0.00798764
-2.83468e-05
0.00801335
-3.04387e-05
0.00804442
-3.38412e-05
0.00807889
-3.89897e-05
0.00811463
-4.64505e-05
0.00814969
-5.70358e-05
0.0081823
-7.1753e-05
0.00821003
-9.12609e-05
0.00822964
-0.000114847
0.0082413
-0.000140934
0.00825487
-0.000170923
-0.000209604
0.00826038
0.00796029
1.87018e-05
0.00796772
3.05208e-05
0.00797733
3.36067e-05
0.00798897
3.51777e-05
0.00800246
3.57447e-05
0.00801697
3.58453e-05
0.00803122
3.57703e-05
0.0080437
3.55486e-05
0.00805293
3.51606e-05
0.00805769
3.46108e-05
0.00805721
3.39259e-05
0.00805128
3.3173e-05
0.00804038
3.24655e-05
0.00802563
3.19558e-05
0.0080086
3.17877e-05
0.00799117
3.20566e-05
0.00797524
3.27835e-05
0.00796242
3.3905e-05
0.00795386
3.53529e-05
0.00795027
3.67825e-05
0.00795186
3.69517e-05
0.00795789
3.63268e-05
0.00796714
3.49136e-05
0.00797807
3.23445e-05
0.00798902
2.84375e-05
0.0079984
2.31946e-05
0.0080049
1.67949e-05
0.00800768
9.57388e-06
0.00800641
1.97813e-06
0.00800131
-5.50158e-06
0.00799309
-1.2407e-05
0.00798294
-1.83672e-05
0.00797238
-2.31402e-05
0.00796316
-2.6638e-05
0.00795707
-2.89315e-05
0.00795575
-3.02497e-05
0.00796045
-3.09703e-05
0.00797192
-3.1592e-05
0.00799024
-3.26993e-05
0.00801482
-3.49235e-05
0.00804432
-3.88992e-05
0.00807668
-4.51027e-05
0.00810946
-5.39872e-05
0.00814046
-6.59347e-05
0.0081683
-8.16126e-05
0.00819202
-0.000102135
0.00820918
-0.000128121
0.00821686
-0.000158235
0.00822229
-0.000191054
-0.000229212
0.00822355
0.00796163
2.19507e-05
0.00796923
3.56721e-05
0.00797784
3.88839e-05
0.00798774
3.99909e-05
0.00799911
3.99903e-05
0.00801136
3.94802e-05
0.00802348
3.87809e-05
0.00803413
3.79729e-05
0.00804195
3.70503e-05
0.00804575
3.6025e-05
0.00804479
3.49479e-05
0.00803885
3.39113e-05
0.00802837
3.30489e-05
0.00801437
3.2512e-05
0.00799835
3.24343e-05
0.00798205
3.28869e-05
0.00796726
3.38436e-05
0.00795559
3.51581e-05
0.00794841
3.65783e-05
0.00794609
3.79906e-05
0.0079484
3.81157e-05
0.00795465
3.72137e-05
0.00796372
3.53295e-05
0.00797422
3.21057e-05
0.00798467
2.73907e-05
0.00799364
2.12414e-05
0.008
1.39068e-05
0.00800301
5.80093e-06
0.00800238
-2.55321e-06
0.00799833
-1.06064e-05
0.00799148
-1.78615e-05
0.00798289
-2.39324e-05
0.00797394
-2.85831e-05
0.00796621
-3.17537e-05
0.00796136
-3.35726e-05
0.00796086
-3.43517e-05
0.00796586
-3.45566e-05
0.00797701
-3.47621e-05
0.00799434
-3.5605e-05
0.00801725
-3.77619e-05
0.0080445
-4.19438e-05
0.00807424
-4.87773e-05
0.00810406
-5.89028e-05
0.00813141
-7.26012e-05
0.00815444
-8.99762e-05
0.00817275
-0.000111521
0.0081858
-0.000138235
0.00819046
-0.000170079
0.0081903
-0.000205275
-0.000244148
0.00818678
0.00796235
2.39644e-05
0.00797037
3.88882e-05
0.00797917
4.2166e-05
0.00798924
4.28874e-05
0.00800081
4.23533e-05
0.00801324
4.1282e-05
0.00802549
4.00388e-05
0.00803628
3.87563e-05
0.00804426
3.74523e-05
0.00804832
3.61382e-05
0.00804774
3.48675e-05
0.00804232
3.3741e-05
0.0080325
3.2895e-05
0.00801926
3.24764e-05
0.00800401
3.2601e-05
0.0079884
3.33144e-05
0.00797406
3.45583e-05
0.00796243
3.61605e-05
0.0079545
3.78869e-05
0.00795085
3.93895e-05
0.00795155
3.92666e-05
0.00795592
3.79435e-05
0.00796296
3.54796e-05
0.00797144
3.1539e-05
0.00798005
2.60162e-05
0.00798755
1.90267e-05
0.00799294
1.08898e-05
0.00799556
2.09022e-06
0.00799514
-6.79442e-06
0.00799183
-1.51774e-05
0.00798613
-2.25414e-05
0.00797894
-2.85012e-05
0.00797145
-3.2842e-05
0.00796507
-3.55456e-05
0.00796126
-3.68042e-05
0.00796136
-3.70083e-05
0.00796639
-3.67091e-05
0.00797695
-3.65573e-05
0.00799303
-3.72376e-05
0.00801398
-3.94282e-05
0.00803854
-4.37971e-05
0.00806503
-5.09752e-05
0.0080914
-6.17315e-05
0.00811523
-7.6575e-05
0.00813425
-9.55644e-05
0.00814761
-0.000118583
0.00815588
-0.00014604
0.00815733
-0.000178434
0.00815337
-0.000214745
-0.000254286
0.00814598
0.00796253
2.49057e-05
0.00797038
4.05727e-05
0.00797881
4.39868e-05
0.00798829
4.45298e-05
0.00799903
4.36866e-05
0.00801047
4.22702e-05
0.00802163
4.06759e-05
0.00803134
3.90657e-05
0.00803839
3.74849e-05
0.00804174
3.59563e-05
0.00804075
3.45391e-05
0.00803526
3.33391e-05
0.00802568
3.24986e-05
0.00801294
3.21582e-05
0.00799834
3.24177e-05
0.0079834
3.3294e-05
0.00796963
3.46906e-05
0.00795838
3.63804e-05
0.00795072
3.80333e-05
0.00794708
3.93609e-05
0.00794734
3.89606e-05
0.00795088
3.72117e-05
0.00795684
3.42146e-05
0.00796419
2.96656e-05
0.00797178
2.35033e-05
0.00797858
1.59011e-05
0.00798373
7.23965e-06
0.00798667
-1.94479e-06
0.00798712
-1.10376e-05
0.00798516
-1.94345e-05
0.00798117
-2.66214e-05
0.00797585
-3.22293e-05
0.00797022
-3.60762e-05
0.00796548
-3.81947e-05
0.0079629
-3.88345e-05
0.00796366
-3.8447e-05
0.0079687
-3.76416e-05
0.00797857
-3.71227e-05
0.00799329
-3.76327e-05
0.00801219
-3.98951e-05
0.00803398
-4.45401e-05
0.00805699
-5.21186e-05
0.00807938
-6.32957e-05
0.00809919
-7.86641e-05
0.0081143
-9.85276e-05
0.00812331
-0.000122693
0.00812683
-0.000150978
0.00812456
-0.000183633
0.0081173
-0.00022021
-0.000259947
0.00810679
0.00796248
2.48937e-05
0.00796988
4.08e-05
0.00797786
4.43382e-05
0.00798684
4.47664e-05
0.007997
4.36897e-05
0.00800783
4.20031e-05
0.00801844
4.01426e-05
0.00802771
3.82888e-05
0.00803451
3.65077e-05
0.00803785
3.48364e-05
0.00803713
3.334e-05
0.0080322
3.2127e-05
0.00802342
3.13352e-05
0.00801164
3.10969e-05
0.00799804
3.14908e-05
0.00798399
3.25053e-05
0.00797087
3.40113e-05
0.00795986
3.57468e-05
0.00795188
3.73598e-05
0.00794741
3.85092e-05
0.00794643
3.77732e-05
0.0079484
3.55899e-05
0.00795264
3.21004e-05
0.00795829
2.70398e-05
0.00796444
2.03961e-05
0.00797022
1.23972e-05
0.00797492
3.47166e-06
0.00797804
-5.81195e-06