/*--------------------------------*- C++ -*----------------------------------*\
  =========                 |
  \\      /  F ield         | OpenFOAM: The Open Source CFD Toolbox
   \\    /   O peration     | Website:  https://openfoam.org
    \\  /    A nd           | Version:  8
     \\/     M anipulation  |
\*---------------------------------------------------------------------------*/
FoamFile
{
    version     2.0;
    format      ascii;
    class       volScalarField;
    location    "500";
    object      T;
}
// * * * * * * * * * * * * * * * * * * * * * * * * * * * * * * * * * * * * * //

dimensions      [0 0 0 1 0 0 0];

internalField   nonuniform List<scalar> 
8400
(
299.281
299.223
299.171
299.126
299.089
299.063
299.047
299.044
299.051
299.067
299.092
299.121
299.153
299.186
299.215
299.239
299.253
299.255
299.237
299.192
299.112
298.992
298.835
298.658
298.493
298.368
298.295
298.264
298.26
298.268
298.281
298.301
298.33
298.361
298.385
298.399
298.405
298.407
298.407
298.404
298.401
298.398
298.394
298.39
298.386
298.38
298.372
298.361
298.346
298.326
299.69
299.652
299.615
299.584
299.562
299.552
299.557
299.575
299.604
299.64
299.68
299.72
299.757
299.789
299.813
299.828
299.832
299.824
299.799
299.75
299.665
299.533
299.349
299.132
298.92
298.754
298.653
298.613
298.611
298.618
298.629
298.665
298.728
298.796
298.852
298.889
298.916
298.939
298.958
298.975
298.992
299.01
299.029
299.047
299.064
299.079
299.091
299.098
299.1
299.096
299.991
299.97
299.945
299.91
299.869
299.825
299.788
299.767
299.767
299.785
299.814
299.844
299.873
299.898
299.922
299.945
299.964
299.974
299.968
299.944
299.887
299.775
299.598
299.383
299.194
299.086
299.049
299.065
299.083
299.041
298.981
299.016
299.105
299.197
299.268
299.314
299.355
299.395
299.428
299.46
299.49
299.52
299.548
299.575
299.599
299.62
299.637
299.649
299.657
299.66
300.001
300.001
300.002
300.002
300.001
300.001
300.001
300
299.999
299.998
299.997
299.997
299.997
299.997
299.996
299.995
299.994
299.994
299.994
299.994
299.995
299.995
299.992
299.988
299.982
299.967
299.953
299.944
299.933
299.602
299.271
299.312
299.407
299.502
299.545
299.581
299.63
299.677
299.714
299.748
299.779
299.808
299.834
299.856
299.875
299.891
299.903
299.912
299.918
299.921
300.006
300.006
300.007
300.008
300.009
300.011
300.012
300.013
300.015
300.016
300.017
300.019
300.02
300.022
300.024
300.028
300.033
300.038
300.044
300.05
300.056
300.062
300.068
300.074
300.078
300.079
300.076
300.07
300.06
300.024
299.947
299.879
299.844
299.808
299.697
299.714
299.767
299.816
299.852
299.885
299.912
299.934
299.952
299.967
299.979
299.988
299.994
299.998
300.001
300.003
300.002
300.002
300.002
300.001
300.002
300.002
300.002
300.002
300.002
300.003
300.003
300.003
300.003
300.004
300.004
300.004
300.004
300.004
300.004
300.005
300.006
300.008
300.012
300.017
300.025
300.033
300.041
300.047
300.051
300.049
300.03
299.998
299.958
299.91
299.852
299.82
299.814
299.875
299.908
299.942
299.965
299.982
299.994
300.003
300.01
300.014
300.017
300.019
300.02
300.02
300.003
300.003
300.003
300.003
300.003
300.004
300.004
300.004
300.004
300.004
300.004
300.004
300.004
300.004
300.004
300.004
300.004
300.004
300.004
300.004
300.004
300.004
300.004
300.006
300.009
300.013
300.019
300.025
300.032
300.037
300.036
300.025
300.003
299.97
299.925
299.878
299.839
299.819
299.92
299.963
299.983
299.998
300.007
300.013
300.017
300.019
300.02
300.021
300.021
300.021
300.002
300.002
300.002
300.002
300.002
300.002
300.002
300.003
300.003
300.003
300.003
300.003
300.003
300.003
300.003
300.003
300.003
300.003
300.003
300.003
300.003
300.003
300.003
300.004
300.004
300.006
300.009
300.013
300.019
300.024
300.028
300.027
300.018
299.998
299.968
299.928
299.885
299.849
299.849
299.889
299.987
300.001
300.009
300.014
300.016
300.017
300.018
300.017
300.016
300.016
300.002
300.002
300.002
300.002
300.002
300.002
300.002
300.002
300.002
300.002
300.002
300.002
300.002
300.002
300.003
300.003
300.003
300.003
300.003
300.003
300.003
300.003
300.003
300.003
300.003
300.003
300.004
300.007
300.011
300.016
300.02
300.023
300.021
300.011
299.991
299.962
299.925
299.887
299.863
299.858
299.889
299.992
300.006
300.011
300.013
300.013
300.012
300.01
300.008
300.006
300.001
300.002
300.002
300.002
300.002
300.002
300.002
300.001
300.001
300.001
300.001
300.001
300.002
300.002
300.002
300.002
300.002
300.002
300.003
300.003
300.003
300.003
300.003
300.003
300.002
300.002
300.003
300.004
300.006
300.01
300.015
300.018
300.019
300.015
300.004
299.983
299.955
299.921
299.891
299.868
299.864
299.898
299.971
300.007
300.01
300.009
300.006
300.002
299.998
299.993
300.001
300.001
300.001
300.001
300.001
300.001
300.001
300.001
300.001
300.001
300.001
300.001
300.001
300.001
300.001
300.001
300.002
300.002
300.002
300.002
300.003
300.003
300.003
300.002
300.002
300.002
300.002
300.003
300.004
300.007
300.011
300.015
300.017
300.016
300.01
299.996
299.975
299.948
299.918
299.889
299.868
299.867
299.895
299.941
299.995
300.008
300.005
300.001
299.995
299.988
300
300.001
300.001
300.001
300.001
300.001
300.001
300.001
300.001
300.001
300.001
300.001
300.001
300.001
300.001
300.001
300.002
300.002
300.002
300.002
300.003
300.003
300.003
300.002
300.002
300.002
300.002
300.002
300.004
300.006
300.009
300.013
300.016
300.017
300.013
300.004
299.989
299.968
299.941
299.912
299.883
299.863
299.86
299.878
299.916
299.952
299.977
299.989
299.993
299.993
300
300
300
300
300
300
300
300
300
300
300
300.001
300.001
300.001
300.001
300.001
300.002
300.002
300.002
300.002
300.003
300.003
300.003
300.002
300.002
300.002
300.002
300.002
300.004
300.006
300.009
300.012
300.015
300.016
300.015
300.009
299.998
299.982
299.96
299.932
299.901
299.871
299.85
299.845
299.857
299.88
299.906
299.928
299.946
299.957
300
300
300
300
300
300
300
300
300
300
300.001
300.001
300.001
300.001
300.002
300.002
300.002
300.002
300.003
300.003
300.003
300.003
300.003
300.003
300.003
300.003
300.003
300.004
300.005
300.007
300.01
300.012
300.015
300.017
300.016
300.012
300.004
299.992
299.973
299.948
299.917
299.884
299.854
299.834
299.828
299.833
299.846
299.862
299.879
299.893
300.003
300.002
300.002
300.002
300.002
300.002
300.003
300.003
300.003
300.003
300.003
300.004
300.004
300.004
300.005
300.005
300.005
300.005
300.006
300.006
300.006
300.006
300.006
300.006
300.006
300.006
300.006
300.007
300.008
300.01
300.012
300.014
300.016
300.018
300.017
300.015
300.009
299.998
299.982
299.96
299.931
299.897
299.865
299.838
299.821
299.813
299.814
299.821
299.831
299.842
300.007
300.006
300.006
300.006
300.007
300.007
300.007
300.008
300.008
300.009
300.009
300.01
300.01
300.011
300.011
300.011
300.012
300.012
300.012
300.012
300.012
300.012
300.012
300.012
300.012
300.011
300.012
300.012
300.013
300.014
300.015
300.016
300.018
300.019
300.019
300.017
300.012
300.002
299.988
299.968
299.941
299.91
299.878
299.85
299.828
299.815
299.808
299.808
299.812
299.819
300.013
300.012
300.012
300.013
300.013
300.013
300.014
300.014
300.015
300.016
300.016
300.017
300.018
300.018
300.019
300.019
300.02
300.02
300.02
300.02
300.02
300.02
300.02
300.02
300.019
300.019
300.019
300.019
300.019
300.019
300.019
300.02
300.02
300.021
300.02
300.018
300.014
300.005
299.992
299.973
299.949
299.921
299.893
299.867
299.845
299.83
299.82
299.817
299.818
299.823
300.019
300.018
300.019
300.019
300.02
300.02
300.021
300.021
300.022
300.023
300.023
300.024
300.025
300.026
300.026
300.027
300.027
300.028
300.028
300.028
300.028
300.028
300.027
300.027
300.026
300.026
300.025
300.024
300.024
300.023
300.023
300.022
300.022
300.021
300.02
300.018
300.013
300.006
299.992
299.975
299.955
299.931
299.908
299.886
299.867
299.854
299.845
299.841
299.841
299.846
300.023
300.022
300.023
300.024
300.024
300.025
300.025
300.026
300.027
300.028
300.028
300.029
300.03
300.03
300.031
300.031
300.032
300.032
300.032
300.032
300.031
300.031
300.03
300.029
300.028
300.027
300.026
300.025
300.023
300.022
300.021
300.02
300.018
300.017
300.015
300.013
300.009
300.004
299.992
299.976
299.959
299.941
299.923
299.906
299.893
299.883
299.876
299.874
299.875
299.88
300.012
300.013
300.015
300.016
300.017
300.019
300.02
300.022
300.023
300.024
300.025
300.026
300.027
300.028
300.029
300.029
300.029
300.029
300.028
300.028
300.027
300.025
300.023
300.022
300.019
300.017
300.015
300.012
300.009
300.007
300.005
300.003
300.001
300
299.999
299.998
299.997
299.996
299.988
299.975
299.962
299.95
299.938
299.927
299.918
299.912
299.909
299.908
299.91
299.915
303.148
303.144
303.141
303.138
303.135
303.132
303.129
303.126
303.123
303.119
303.116
303.113
303.11
303.107
303.105
303.102
303.099
303.096
303.093
303.09
303.087
303.085
303.082
303.08
303.078
303.076
303.073
303.071
303.069
303.067
303.065
303.062
303.06
303.058
303.056
303.054
303.052
303.05
303.048
303.046
303.044
303.043
303.041
303.039
303.037
303.036
303.034
303.033
303.031
303.03
303.15
303.15
303.15
303.15
303.15
303.15
303.149
303.149
303.149
303.149
303.148
303.148
303.148
303.147
303.147
303.147
303.146
303.146
303.146
303.145
303.145
303.144
303.143
303.142
303.142
303.141
303.14
303.139
303.138
303.137
303.137
303.136
303.135
303.134
303.133
303.133
303.132
303.131
303.13
303.129
303.129
303.128
303.127
303.126
303.126
303.125
303.125
303.124
303.123
303.123
303.15
303.15
303.15
303.15
303.15
303.15
303.15
303.15
303.15
303.15
303.15
303.15
303.15
303.15
303.15
303.15
303.15
303.15
303.15
303.15
303.15
303.15
303.149
303.149
303.149
303.149
303.149
303.149
303.148
303.148
303.148
303.148
303.148
303.147
303.147
303.147
303.147
303.147
303.146
303.146
303.146
303.146
303.145
303.145
303.145
303.145
303.144
303.144
303.144
303.144
303.15
303.15
303.15
303.15
303.15
303.15
303.15
303.15
303.15
303.15
303.15
303.15
303.15
303.15
303.15
303.15
303.15
303.15
303.15
303.15
303.15
303.15
303.15
303.15
303.15
303.15
303.15
303.15
303.15
303.15
303.15
303.15
303.15
303.15
303.15
303.15
303.15
303.15
303.149
303.149
303.149
303.149
303.149
303.149
303.149
303.149
303.149
303.149
303.149
303.149
303.15
303.15
303.15
303.15
303.15
303.15
303.15
303.15
303.15
303.15
303.15
303.15
303.15
303.15
303.15
303.15
303.15
303.15
303.15
303.15
303.15
303.15
303.15
303.15
303.15
303.15
303.15
303.15
303.15
303.15
303.15
303.15
303.15
303.15
303.15
303.15
303.15
303.15
303.15
303.15
303.15
303.15
303.15
303.15
303.15
303.15
303.15
303.15
303.15
303.15
303.15
303.15
303.15
303.15
303.15
303.15
303.15
303.15
303.15
303.15
303.15
303.15
303.15
303.15
303.15
303.15
303.15
303.15
303.15
303.15
303.15
303.15
303.15
303.15
303.15
303.15
303.15
303.15
303.15
303.15
303.15
303.15
303.15
303.15
303.15
303.15
303.15
303.15
303.15
303.15
303.15
303.15
303.15
303.15
303.15
303.15
303.15
303.15
303.15
303.15
303.15
303.15
303.15
303.15
303.15
303.15
303.15
303.15
303.15
303.15
303.15
303.15
303.15
303.15
303.15
303.15
303.15
303.15
303.15
303.15
303.15
303.15
303.15
303.15
303.15
303.15
303.15
303.15
303.15
303.15
303.15
303.15
303.15
303.15
303.15
303.15
303.15
303.15
303.15
303.15
303.15
303.15
303.15
303.15
303.15
303.15
303.15
303.15
303.15
303.15
303.15
303.15
303.15
303.15
303.15
303.15
303.15
303.15
303.15
303.15
303.15
303.15
303.15
303.15
303.15
303.15
303.15
303.15
303.15
303.15
303.15
303.15
303.15
303.15
303.15
303.15
303.15
303.15
303.15
303.15
303.15
303.15
303.15
303.15
303.15
303.15
303.15
303.15
303.15
303.15
303.15
303.15
303.15
303.15
303.15
303.15
303.15
303.15
303.15
303.15
303.15
303.15
303.15
303.15
303.15
303.15
303.15
303.15
303.15
303.15
303.15
303.15
303.15
303.15
303.15
303.15
303.15
303.15
303.15
303.15
303.15
303.15
303.15
303.15
303.15
303.15
303.15
303.15
303.15
303.15
303.15
303.15
303.15
303.15
303.15
303.15
303.15
303.15
303.15
303.15
303.15
303.15
303.15
303.15
303.15
303.15
303.15
303.15
303.15
303.15
303.15
303.15
303.15
303.15
303.15
303.15
303.15
303.15
303.15
303.15
303.15
303.15
303.15
303.15
303.15
303.15
303.15
303.15
303.15
303.15
303.15
303.15
303.15
303.15
303.15
303.15
303.15
303.15
303.15
303.15
303.15
303.15
303.15
303.15
303.15
303.15
303.15
303.15
303.15
303.15
303.15
303.15
303.15
303.15
303.15
303.15
303.15
303.15
303.15
303.15
303.15
303.15
303.15
303.15
303.15
303.15
303.15
303.15
303.15
303.15
303.15
303.15
303.15
303.15
303.15
303.15
303.15
303.15
303.15
303.15
303.15
303.15
303.15
303.15
303.15
303.15
303.15
303.15
303.15
303.15
303.15
303.15
303.15
303.15
303.15
303.15
303.15
303.15
303.15
303.15
303.15
303.15
303.15
303.15
303.15
303.15
303.15
303.15
303.15
303.15
303.15
303.15
303.15
303.15
303.15
303.15
303.15
303.15
303.15
303.15
303.15
303.15
303.15
303.15
303.15
303.15
303.15
303.15
303.15
303.15
303.15
303.15
303.15
303.15
303.15
303.15
303.15
303.15
303.15
303.15
303.15
303.15
303.15
303.15
303.15
303.15
303.15
303.15
303.15
303.15
303.15
303.15
303.15
303.15
303.15
303.15
303.15
303.15
303.15
303.15
303.15
303.15
303.15
303.15
303.15
303.15
303.15
303.15
303.15
303.15
303.15
303.15
303.15
303.15
303.15
303.15
303.15
303.15
303.15
303.15
303.15
303.15
303.15
303.15
303.15
303.15
303.15
303.15
303.15
303.15
303.15
303.15
303.15
303.15
303.15
303.15
303.15
303.15
303.15
303.15
303.15
303.15
303.15
303.15
303.15
303.15
303.15
303.15
303.15
303.15
303.15
303.15
303.15
303.15
303.15
303.15
303.15
303.15
303.15
303.15
303.15
303.15
303.15
303.15
303.15
303.15
303.15
303.15
303.15
303.15
303.15
303.15
303.15
303.15
303.15
303.15
303.15
303.15
303.15
303.15
303.15
303.15
303.15
303.15
303.15
303.15
303.15
303.15
303.15
303.15
303.15
303.15
303.15
303.15
303.15
303.15
303.15
303.15
303.15
303.15
303.15
303.15
303.15
303.15
303.15
303.15
303.15
303.15
303.15
303.15
303.15
303.15
303.15
303.15
303.15
303.15
303.15
303.15
303.15
303.15
303.15
303.15
303.15
303.15
303.15
303.15
303.15
303.15
303.15
303.15
303.15
303.15
303.15
303.15
303.15
303.15
303.15
303.15
303.15
303.15
303.15
303.15
303.15
303.15
303.15
303.15
303.15
303.15
303.15
303.15
303.15
303.15
303.15
303.15
303.15
303.15
303.15
303.15
303.15
303.15
303.15
303.15
303.15
303.15
303.15
303.15
303.15
303.15
303.15
303.15
303.15
303.15
303.15
303.15
303.15
303.15
303.15
303.15
303.15
303.15
303.15
303.15
303.15
303.15
303.15
303.15
303.15
303.15
303.15
303.15
303.15
303.15
303.15
303.15
303.15
303.15
303.15
303.15
303.15
303.15
303.15
303.15
303.15
303.15
303.15
303.15
303.15
303.15
303.15
303.15
303.15
303.15
303.15
303.15
303.15
303.15
303.15
303.15
303.15
303.15
303.15
303.15
303.15
303.15
303.15
303.15
303.15
303.15
303.15
303.15
303.15
303.15
303.15
303.15
303.15
303.15
303.15
303.149
303.149
303.149
303.149
303.149
303.149
303.149
303.149
303.149
303.149
303.148
303.148
303.148
303.15
303.15
303.15
303.15
303.15
303.15
303.15
303.15
303.15
303.15
303.15
303.15
303.15
303.15
303.15
303.15
303.15
303.15
303.15
303.15
303.15
303.15
303.149
303.149
303.149
303.149
303.149
303.149
303.149
303.148
303.148
303.148
303.148
303.147
303.147
303.147
303.147
303.146
303.146
303.146
303.145
303.145
303.145
303.144
303.144
303.143
303.143
303.142
303.141
303.141
303.15
303.15
303.15
303.15
303.15
303.15
303.149
303.149
303.149
303.149
303.148
303.148
303.148
303.148
303.147
303.147
303.147
303.146
303.146
303.145
303.145
303.144
303.144
303.143
303.142
303.141
303.14
303.14
303.139
303.138
303.137
303.136
303.135
303.134
303.133
303.132
303.131
303.13
303.129
303.129
303.128
303.126
303.125
303.124
303.123
303.122
303.121
303.119
303.118
303.116
303.148
303.144
303.141
303.138
303.135
303.132
303.129
303.126
303.122
303.119
303.116
303.113
303.11
303.107
303.104
303.102
303.099
303.096
303.093
303.09
303.087
303.085
303.082
303.08
303.078
303.075
303.073
303.071
303.068
303.066
303.064
303.062
303.06
303.058
303.056
303.054
303.052
303.05
303.048
303.046
303.044
303.042
303.04
303.038
303.037
303.035
303.033
303.031
303.029
303.027
301.5
299.64
297.696
296.146
295.135
294.512
294.123
293.869
293.7
293.588
293.521
293.482
293.434
293.452
293.567
293.712
293.843
293.989
294.222
294.597
301.542
299.714
297.77
296.203
295.175
294.54
294.141
293.881
293.708
293.594
293.526
293.488
293.432
293.445
293.551
293.684
293.802
293.941
294.174
294.555
301.585
299.79
297.843
296.26
295.214
294.565
294.157
293.891
293.714
293.597
293.53
293.493
293.435
293.439
293.536
293.661
293.773
293.909
294.143
294.527
301.629
299.867
297.916
296.315
295.25
294.587
294.171
293.898
293.716
293.597
293.531
293.496
293.437
293.434
293.523
293.64
293.745
293.878
294.114
294.5
301.674
299.944
297.988
296.368
295.285
294.607
294.181
293.902
293.716
293.594
293.528
293.497
293.438
293.429
293.511
293.62
293.719
293.85
294.087
294.474
301.721
300.02
298.059
296.42
295.317
294.624
294.188
293.904
293.712
293.587
293.523
293.495
293.438
293.425
293.499
293.602
293.695
293.823
294.061
294.449
301.768
300.095
298.129
296.47
295.346
294.638
294.193
293.902
293.705
293.577
293.513
293.49
293.437
293.42
293.489
293.584
293.672
293.798
294.036
294.425
301.814
300.169
298.197
296.519
295.374
294.649
294.195
293.898
293.694
293.564
293.501
293.483
293.435
293.416
293.478
293.568
293.65
293.774
294.013
294.401
301.861
300.242
298.265
296.566
295.4
294.659
294.195
293.891
293.682
293.547
293.485
293.472
293.431
293.411
293.469
293.552
293.63
293.752
293.99
294.377
301.908
300.314
298.332
296.613
295.425
294.667
294.193
293.883
293.667
293.529
293.467
293.46
293.426
293.406
293.46
293.537
293.611
293.731
293.969
294.354
301.954
300.385
298.399
296.659
295.449
294.673
294.19
293.873
293.651
293.51
293.447
293.445
293.42
293.401
293.451
293.523
293.592
293.711
293.949
294.331
301.999
300.454
298.465
296.705
295.473
294.68
294.186
293.862
293.634
293.49
293.427
293.429
293.413
293.396
293.443
293.51
293.575
293.693
293.93
294.309
302.043
300.523
298.532
296.752
295.497
294.687
294.182
293.851
293.617
293.471
293.407
293.412
293.406
293.391
293.435
293.497
293.559
293.675
293.912
294.286
302.086
300.591
298.598
296.799
295.521
294.694
294.179
293.841
293.601
293.453
293.389
293.395
293.397
293.387
293.428
293.485
293.544
293.659
293.894
294.264
302.127
300.657
298.664
296.847
295.547
294.702
294.176
293.83
293.586
293.436
293.372
293.379
293.389
293.382
293.421
293.474
293.53
293.643
293.877
294.242
302.167
300.722
298.731
296.896
295.574
294.711
294.173
293.821
293.572
293.421
293.357
293.364
293.38
293.377
293.415
293.463
293.516
293.628
293.861
294.221
302.206
300.785
298.797
296.946
295.602
294.721
294.172
293.812
293.559
293.407
293.344
293.351
293.372
293.372
293.409
293.453
293.504
293.615
293.846
294.2
302.243
300.846
298.862
296.996
295.63
294.732
294.171
293.803
293.547
293.394
293.332
293.339
293.364
293.368
293.403
293.444
293.492
293.602
293.83
294.179
302.279
300.905
298.926
297.046
295.659
294.743
294.17
293.796
293.535
293.383
293.321
293.328
293.357
293.364
293.398
293.435
293.48
293.589
293.816
294.159
302.312
300.962
298.989
297.095
295.688
294.754
294.17
293.788
293.525
293.372
293.312
293.319
293.35
293.36
293.393
293.426
293.469
293.577
293.801
294.139
302.344
301.016
299.05
297.143
295.717
294.765
294.169
293.78
293.514
293.362
293.303
293.31
293.343
293.356
293.388
293.418
293.459
293.566
293.788
294.119
302.373
301.067
299.108
297.19
295.744
294.776
294.168
293.773
293.504
293.352
293.294
293.302
293.337
293.353
293.383
293.41
293.449
293.554
293.774
294.1
302.401
301.114
299.162
297.233
295.77
294.785
294.167
293.765
293.493
293.343
293.286
293.295
293.331
293.349
293.378
293.402
293.44
293.543
293.761
294.082
302.426
301.158
299.213
297.274
295.793
294.794
294.164
293.756
293.483
293.333
293.279
293.287
293.325
293.345
293.373
293.394
293.43
293.533
293.747
294.064
302.45
301.198
299.259
297.31
295.814
294.8
294.16
293.746
293.472
293.324
293.272
293.281
293.318
293.341
293.368
293.387
293.421
293.522
293.735
294.048
302.471
301.234
299.3
297.342
295.831
294.804
294.155
293.736
293.46
293.315
293.265
293.274
293.312
293.337
293.363
293.379
293.413
293.512
293.722
294.031
302.49
301.266
299.337
297.37
295.845
294.806
294.148
293.724
293.448
293.305
293.258
293.268
293.306
293.333
293.358
293.372
293.404
293.502
293.71
294.016
302.506
301.293
299.367
297.391
295.855
294.804
294.139
293.711
293.436
293.296
293.252
293.262
293.3
293.328
293.353
293.365
293.396
293.492
293.698
294.002
302.52
301.315
299.391
297.408
295.86
294.8
294.128
293.697
293.423
293.287
293.247
293.256
293.293
293.323
293.347
293.359
293.388
293.483
293.686
293.988
302.533
301.333
299.409
297.418
295.861
294.793
294.115
293.682
293.41
293.278
293.242
293.251
293.287
293.318
293.342
293.352
293.38
293.473
293.676
293.976
302.542
301.346
299.421
297.423
295.858
294.783
294.1
293.666
293.396
293.269
293.237
293.246
293.281
293.313
293.337
293.346
293.373
293.465
293.665
293.965
302.55
301.355
299.427
297.422
295.85
294.771
294.084
293.649
293.382
293.261
293.233
293.241
293.275
293.308
293.331
293.339
293.366
293.456
293.656
293.956
302.556
301.359
299.428
297.415
295.839
294.756
294.066
293.631
293.368
293.253
293.231
293.237
293.27
293.303
293.326
293.333
293.359
293.448
293.647
293.948
302.56
301.359
299.423
297.405
295.825
294.74
294.048
293.614
293.355
293.246
293.229
293.234
293.264
293.298
293.321
293.328
293.352
293.44
293.639
293.941
302.562
301.354
299.413
297.39
295.809
294.723
294.03
293.597
293.344
293.241
293.228
293.232
293.26
293.294
293.316
293.322
293.346
293.433
293.632
293.936
302.562
301.347
299.4
297.373
295.792
294.706
294.013
293.582
293.334
293.237
293.228
293.23
293.256
293.289
293.311
293.316
293.34
293.427
293.626
293.932
302.561
301.335
299.383
297.354
295.774
294.69
293.998
293.569
293.327
293.235
293.229
293.229
293.253
293.286
293.307
293.311
293.334
293.421
293.622
293.93
302.558
301.323
299.365
297.335
295.758
294.675
293.984
293.558
293.322
293.234
293.23
293.23
293.251
293.283
293.303
293.306
293.329
293.417
293.619
293.93
302.554
301.309
299.346
297.317
295.742
294.662
293.972
293.549
293.318
293.234
293.232
293.232
293.25
293.28
293.299
293.301
293.325
293.413
293.617
293.932
302.551
301.296
299.329
297.3
295.728
294.651
293.962
293.543
293.316
293.235
293.233
293.236
293.25
293.278
293.295
293.296
293.321
293.41
293.617
293.935
302.547
301.284
299.313
297.286
295.717
294.643
293.955
293.538
293.315
293.235
293.234
293.242
293.251
293.277
293.291
293.292
293.318
293.409
293.618
293.939
302.544
301.273
299.3
297.275
295.709
294.637
293.95
293.535
293.315
293.236
293.235
293.247
293.253
293.275
293.287
293.288
293.316
293.409
293.621
293.945
302.542
301.264
299.29
297.267
295.704
294.634
293.947
293.533
293.315
293.237
293.236
293.25
293.254
293.273
293.282
293.284
293.314
293.41
293.626
293.953
302.541
301.258
299.283
297.263
295.702
294.633
293.946
293.533
293.317
293.239
293.236
293.251
293.256
293.271
293.278
293.281
293.313
293.412
293.632
293.962
302.541
301.254
299.28
297.264
295.704
294.636
293.947
293.535
293.319
293.24
293.236
293.252
293.256
293.269
293.274
293.278
293.314
293.415
293.639
293.972
302.542
301.254
299.281
297.269
295.71
294.641
293.951
293.538
293.323
293.242
293.236
293.251
293.256
293.266
293.27
293.276
293.315
293.42
293.649
293.984
302.545
301.257
299.288
297.28
295.72
294.649
293.957
293.543
293.327
293.244
293.236
293.25
293.255
293.263
293.267
293.275
293.317
293.426
293.659
293.996
302.549
301.264
299.301
297.297
295.734
294.66
293.965
293.55
293.332
293.247
293.236
293.248
293.253
293.26
293.264
293.274
293.32
293.434
293.671
294.01
302.555
301.276
299.319
297.319
295.753
294.674
293.976
293.558
293.338
293.25
293.236
293.246
293.251
293.257
293.261
293.275
293.325
293.443
293.685
294.025
302.562
301.291
299.344
297.348
295.778
294.692
293.99
293.568
293.346
293.254
293.236
293.243
293.249
293.254
293.26
293.277
293.331
293.454
293.7
294.04
302.57
301.312
299.376
297.383
295.807
294.714
294.006
293.581
293.354
293.259
293.237
293.241
293.246
293.252
293.259
293.279
293.338
293.466
293.716
294.056
302.581
301.337
299.414
297.426
295.843
294.74
294.025
293.595
293.364
293.265
293.239
293.24
293.244
293.25
293.259
293.284
293.347
293.48
293.733
294.072
302.593
301.367
299.46
297.476
295.884
294.77
294.048
293.612
293.376
293.272
293.241
293.239
293.243
293.249
293.261
293.289
293.358
293.496
293.751
294.088
302.607
301.402
299.514
297.534
295.933
294.806
294.075
293.631
293.39
293.281
293.245
293.24
293.243
293.25
293.264
293.296
293.37
293.513
293.77
294.105
302.622
301.442
299.576
297.601
295.989
294.847
294.106
293.653
293.405
293.291
293.25
293.242
293.244
293.252
293.268
293.305
293.383
293.531
293.791
294.123
302.639
301.487
299.646
297.678
296.053
294.895
294.141
293.679
293.423
293.303
293.257
293.246
293.246
293.255
293.274
293.315
293.398
293.55
293.812
294.14
302.658
301.538
299.726
297.765
296.126
294.95
294.181
293.709
293.445
293.317
293.266
293.251
293.25
293.26
293.282
293.327
293.414
293.571
293.834
294.158
302.678
301.595
299.815
297.863
296.21
295.013
294.227
293.743
293.469
293.334
293.277
293.258
293.256
293.267
293.292
293.341
293.432
293.593
293.857
294.175
302.7
301.657
299.914
297.973
296.305
295.085
294.28
293.782
293.498
293.353
293.29
293.268
293.265
293.276
293.304
293.357
293.452
293.617
293.881
294.193
302.724
301.726
300.024
298.098
296.414
295.168
294.341
293.828
293.531
293.376
293.306
293.281
293.276
293.288
293.318
293.374
293.473
293.642
293.905
294.211
302.749
301.8
300.146
298.237
296.538
295.263
294.411
293.881
293.569
293.404
293.326
293.296
293.29
293.302
293.334
293.394
293.497
293.669
293.93
294.23
302.775
301.88
300.281
298.394
296.679
295.374
294.492
293.941
293.615
293.437
293.35
293.315
293.307
293.32
293.354
293.416
293.523
293.697
293.956
294.248
302.802
301.966
300.429
298.57
296.841
295.502
294.587
294.012
293.668
293.476
293.379
293.338
293.328
293.34
293.376
293.441
293.551
293.728
293.982
294.267
302.83
302.058
300.591
298.768
297.027
295.651
294.697
294.093
293.73
293.522
293.414
293.366
293.353
293.365
293.402
293.469
293.582
293.76
294.01
294.286
302.858
302.156
300.769
298.99
297.241
295.825
294.827
294.189
293.803
293.577
293.456
293.4
293.382
293.394
293.432
293.501
293.616
293.795
294.039
294.306
302.887
302.258
300.962
299.24
297.488
296.03
294.981
294.302
293.888
293.643
293.507
293.441
293.418
293.428
293.466
293.538
293.655
293.832
294.069
294.326
302.915
302.364
301.169
299.519
297.772
296.271
295.164
294.435
293.988
293.722
293.569
293.49
293.461
293.469
293.507
293.58
293.697
293.871
294.101
294.347
302.942
302.475
301.391
299.826
298.099
296.558
295.384
294.595
294.107
293.815
293.644
293.552
293.515
293.518
293.555
293.628
293.745
293.915
294.134
294.369
302.967
302.585
301.624
300.164
298.475
296.898
295.652
294.79
294.249
293.925
293.734
293.627
293.58
293.576
293.611
293.683
293.797
293.961
294.17
294.391
302.99
302.693
301.864
300.532
298.903
297.302
295.979
295.031
294.421
294.055
293.84
293.717
293.658
293.646
293.677
293.745
293.856
294.012
294.208
294.414
303.009
302.794
302.105
300.923
299.386
297.781
296.382
295.332
294.635
294.211
293.963
293.822
293.749
293.727
293.753
293.816
293.92
294.066
294.248
294.437
303.024
302.885
302.337
301.327
299.919
298.342
296.88
295.717
294.909
294.404
294.11
293.944
293.855
293.822
293.84
293.896
293.991
294.125
294.291
294.462
303.035
302.963
302.554
301.73
300.49
298.99
297.49
296.213
295.269
294.654
294.29
294.086
293.978
293.93
293.938
293.985
294.069
294.189
294.337
294.488
303.041
303.024
302.743
302.112
301.079
299.715
298.228
296.854
295.756
294.992
294.52
294.257
294.119
294.055
294.048
294.083
294.153
294.256
294.385
294.514
303.043
303.069
302.895
302.45
301.65
300.491
299.092
297.669
296.423
295.473
294.842
294.474
294.284
294.197
294.169
294.189
294.244
294.328
294.435
294.541
303.042
303.098
303.006
302.726
302.162
301.26
300.05
298.67
297.323
296.177
295.327
294.783
294.486
294.349
294.298
294.302
294.339
294.404
294.488
294.569
303.038
303.114
303.077
302.924
302.577
301.955
301.022
299.818
298.485
297.196
296.103
295.297
294.793
294.537
294.437
294.421
294.439
294.482
294.542
294.598
303.032
303.12
303.117
303.047
302.867
302.503
301.889
300.993
299.852
298.576
297.316
296.217
295.387
294.866
294.619
294.543
294.541
294.561
294.596
294.627
303.026
303.121
303.134
303.111
303.035
302.864
302.537
302
301.217
300.199
299.007
297.761
296.597
295.652
295.019
294.707
294.645
294.641
294.651
294.656
303.019
303.119
303.14
303.138
303.113
303.052
302.921
302.68
302.283
301.696
300.892
299.875
298.704
297.491
296.375
295.484
294.896
294.742
294.717
294.692
303.013
303.116
303.141
303.146
303.141
303.125
303.087
303.013
302.88
302.661
302.328
301.842
301.174
300.311
299.328
298.353
297.449
296.461
295.41
294.969
303.006
303.113
303.141
303.148
303.148
303.145
303.137
303.121
303.092
303.044
302.968
302.858
302.7
302.465
302.132
301.702
301.23
300.755
300.138
298.444
302.999
303.11
303.139
303.148
303.149
303.149
303.147
303.144
303.138
303.128
303.112
303.09
303.06
303.021
302.972
302.915
302.861
302.791
302.703
302.59
302.993
303.107
303.138
303.147
303.149
303.15
303.149
303.148
303.146
303.142
303.136
303.126
303.114
303.097
303.076
303.051
303.021
302.985
302.937
302.877
302.987
303.104
303.137
303.147
303.149
303.15
303.15
303.149
303.148
303.146
303.143
303.137
303.129
303.117
303.1
303.079
303.051
303.015
302.969
302.907
302.982
303.101
303.135
303.146
303.149
303.15
303.15
303.15
303.149
303.148
303.146
303.142
303.137
303.127
303.114
303.094
303.067
303.029
302.98
302.912
302.977
303.098
303.134
303.146
303.149
303.15
303.15
303.15
303.15
303.149
303.148
303.146
303.141
303.134
303.123
303.105
303.079
303.041
302.988
302.915
302.973
303.095
303.133
303.146
303.149
303.15
303.15
303.15
303.15
303.149
303.149
303.147
303.144
303.139
303.13
303.114
303.089
303.051
302.995
302.918
302.969
303.093
303.131
303.145
303.149
303.15
303.15
303.15
303.15
303.15
303.149
303.148
303.146
303.142
303.134
303.12
303.097
303.059
303.002
302.92
302.965
303.091
303.13
303.145
303.149
303.15
303.15
303.15
303.15
303.15
303.15
303.149
303.147
303.144
303.138
303.125
303.103
303.066
303.007
302.922
302.962
303.089
303.129
303.144
303.149
303.15
303.15
303.15
303.15