/*--------------------------------*- C++ -*----------------------------------*\
  =========                 |
  \\      /  F ield         | OpenFOAM: The Open Source CFD Toolbox
   \\    /   O peration     | Website:  https://openfoam.org
    \\  /    A nd           | Version:  8
     \\/     M anipulation  |
\*---------------------------------------------------------------------------*/
FoamFile
{
    version     2.0;
    format      ascii;
    class       volVectorField;
    location    "500";
    object      U;
}
// * * * * * * * * * * * * * * * * * * * * * * * * * * * * * * * * * * * * * //

dimensions      [0 1 -1 0 0 0 0];

internalField   nonuniform List<vector> 
8400
(
(-24.5583 -0.305178 1.18225e-16)
(-24.0704 -0.318953 1.21679e-16)
(-23.7195 -0.295294 1.26481e-16)
(-23.4179 -0.264959 1.31812e-16)
(-23.1765 -0.237139 1.37447e-16)
(-22.9847 -0.21572 1.43016e-16)
(-22.8339 -0.200514 1.48093e-16)
(-22.7175 -0.192138 1.52881e-16)
(-22.6281 -0.191269 1.57515e-16)
(-22.5574 -0.19679 1.61693e-16)
(-22.4969 -0.206118 1.66792e-16)
(-22.4389 -0.216813 1.7305e-16)
(-22.3785 -0.228201 1.79408e-16)
(-22.3123 -0.242882 1.86257e-16)
(-22.234 -0.26859 1.93399e-16)
(-22.1274 -0.318512 2.0068e-16)
(-21.9576 -0.409096 2.08067e-16)
(-21.6565 -0.555638 2.15434e-16)
(-21.1285 -0.75223 2.2236e-16)
(-20.3006 -0.951446 2.27232e-16)
(-19.1745 -1.07952 2.2561e-16)
(-17.855 -1.0689 2.1046e-16)
(-16.5359 -0.895469 1.76636e-16)
(-15.4355 -0.6176 1.30324e-16)
(-14.6849 -0.353019 9.02823e-17)
(-14.2478 -0.194295 6.97389e-17)
(-13.9582 -0.15521 6.4652e-17)
(-13.6294 -0.203666 6.47596e-17)
(-13.1459 -0.291665 6.45385e-17)
(-12.5332 -0.339512 6.24341e-17)
(-11.9398 -0.30106 6.09722e-17)
(-11.4592 -0.259784 6.36374e-17)
(-11.0081 -0.289441 6.67576e-17)
(-10.4638 -0.361469 7.08397e-17)
(-9.80842 -0.410869 8.4446e-17)
(-9.1295 -0.394762 1.11515e-16)
(-8.51657 -0.348367 1.51498e-16)
(-7.99669 -0.298178 2.01061e-16)
(-7.5733 -0.248113 2.5778e-16)
(-7.24328 -0.205079 3.16469e-16)
(-6.9954 -0.170203 3.72397e-16)
(-6.81653 -0.143498 4.27655e-16)
(-6.69314 -0.124229 4.77512e-16)
(-6.61231 -0.111629 5.21555e-16)
(-6.56225 -0.105068 5.57559e-16)
(-6.53243 -0.104082 5.85765e-16)
(-6.51325 -0.108515 6.12523e-16)
(-6.49548 -0.118576 6.35977e-16)
(-6.46893 -0.135186 6.55243e-16)
(-6.42452 -0.160942 6.71832e-16)
(-15.7841 -0.473162 -6.76672e-17)
(-15.4039 -0.490671 -8.51949e-17)
(-15.236 -0.411372 -9.3776e-17)
(-15.1527 -0.32145 -9.32548e-17)
(-15.1349 -0.233824 -8.43829e-17)
(-15.1542 -0.158021 -7.09491e-17)
(-15.1985 -0.0940715 -5.65954e-17)
(-15.2664 -0.0454119 -4.35077e-17)
(-15.3571 -0.013307 -3.25362e-17)
(-15.4924 0.00490577 -2.07156e-17)
(-15.66 0.0139247 -6.01018e-18)
(-15.8459 0.0179615 1.17332e-17)
(-16.0458 0.0182266 3.17644e-17)
(-16.2654 0.00919461 5.58484e-17)
(-16.5092 -0.0261433 8.49693e-17)
(-16.7617 -0.116133 1.20082e-16)
(-16.9647 -0.293223 1.6053e-16)
(-16.9772 -0.581913 2.04389e-16)
(-16.7801 -0.972148 2.60529e-16)
(-16.4513 -1.39257 3.35564e-16)
(-15.9602 -1.72616 4.20846e-16)
(-15.3359 -1.85527 4.93574e-16)
(-14.6516 -1.69674 5.11294e-16)
(-14.0529 -1.26863 4.41353e-16)
(-13.6742 -0.729467 3.10299e-16)
(-13.4995 -0.335551 1.95262e-16)
(-13.3677 -0.270861 1.46059e-16)
(-13.1037 -0.519254 1.39767e-16)
(-12.6338 -0.892653 1.24647e-16)
(-12.0433 -1.05948 5.57687e-17)
(-11.49 -0.857997 -7.49993e-17)
(-11.1052 -0.651705 -1.80958e-16)
(-10.7473 -0.712246 -2.19646e-16)
(-10.2285 -0.940988 -2.5776e-16)
(-9.53831 -1.10932 -3.41985e-16)
(-8.81946 -1.03148 -4.86208e-16)
(-8.20346 -0.868509 -6.58149e-16)
(-7.69713 -0.70852 -8.31122e-16)
(-7.29056 -0.542705 -9.9766e-16)
(-6.98057 -0.396286 -1.14084e-15)
(-6.75138 -0.271472 -1.25356e-15)
(-6.5892 -0.169607 -1.32824e-15)
(-6.48036 -0.0895973 -1.37062e-15)
(-6.41221 -0.0296302 -1.38855e-15)
(-6.37332 0.0124424 -1.3838e-15)
(-6.35363 0.03886 -1.36216e-15)
(-6.34424 0.0515508 -1.32809e-15)
(-6.33704 0.0518587 -1.29623e-15)
(-6.3243 0.0399081 -1.27814e-15)
(-6.29959 0.0132033 -1.28774e-15)
(-4.02852 -0.0839465 -1.07146e-16)
(-5.19975 0.0123141 -2.381e-16)
(-5.4169 0.082509 -3.81663e-16)
(-5.70735 0.182482 -5.31357e-16)
(-5.80335 0.266213 -6.68368e-16)
(-5.87505 0.329753 -7.84616e-16)
(-5.85459 0.366507 -8.70014e-16)
(-5.71521 0.37261 -9.13197e-16)
(-5.70158 0.365522 -9.23108e-16)
(-5.74075 0.360451 -9.13942e-16)
(-5.79691 0.365154 -8.87685e-16)
(-5.83537 0.384977 -8.46415e-16)
(-5.85393 0.422446 -7.90536e-16)
(-5.87633 0.476436 -7.29263e-16)
(-5.91447 0.507131 -6.59837e-16)
(-5.9433 0.436931 -5.797e-16)
(-5.89258 0.183683 -4.62683e-16)
(-5.5613 -0.285163 -3.08666e-16)
(-5.73897 -0.807676 -1.43118e-16)
(-6.48055 -1.24926 4.96376e-17)
(-7.56531 -1.49716 2.97338e-16)
(-8.73051 -1.48562 6.11668e-16)
(-9.67224 -1.25465 9.44228e-16)
(-10.3624 -0.973276 1.21893e-15)
(-10.8226 -0.82916 1.37929e-15)
(-10.8756 -0.889503 1.41828e-15)
(-10.8337 -1.17239 1.40581e-15)
(-10.4829 -1.55109 1.36349e-15)
(-10.1785 -1.85771 1.33123e-15)
(-10.434 -1.79434 1.29605e-15)
(-10.2904 -1.12713 1.09061e-15)
(-10.1814 -0.662718 8.92059e-16)
(-10.0436 -0.964601 8.40103e-16)
(-9.60215 -1.6376 8.06195e-16)
(-8.97974 -2.04981 7.82116e-16)
(-8.24791 -1.7982 7.53269e-16)
(-7.66095 -1.4796 6.63004e-16)
(-7.20894 -1.23506 5.47157e-16)
(-6.83895 -0.960002 3.93925e-16)
(-6.57341 -0.730814 2.28342e-16)
(-6.38322 -0.540991 8.454e-17)
(-6.25497 -0.390456 -3.33099e-17)
(-6.17469 -0.274707 -1.13286e-16)
(-6.13021 -0.18957 -1.51724e-16)
(-6.11063 -0.13105 -1.59716e-16)
(-6.10655 -0.0954975 -1.45898e-16)
(-6.10986 -0.0798655 -1.26016e-16)
(-6.11353 -0.081872 -1.07019e-16)
(-6.11149 -0.10019 -8.93326e-17)
(-6.09929 -0.134808 -1.00225e-16)
(17.0034 -2.13034 9.28269e-17)
(16.2708 -1.48906 9.2407e-17)
(15.7214 -1.12608 9.18818e-17)
(15.282 -0.875355 9.05119e-17)
(14.9109 -0.689802 8.76027e-17)
(14.5869 -0.552778 8.12314e-17)
(14.3093 -0.452851 7.11726e-17)
(14.0266 -0.37882 5.20033e-17)
(13.7621 -0.32938 2.21043e-17)
(13.5101 -0.306031 -1.20239e-17)
(13.2796 -0.307157 -4.84773e-17)
(13.0851 -0.327352 -8.53441e-17)
(12.9482 -0.362283 -1.19554e-16)
(12.8318 -0.423914 -1.66459e-16)
(12.9414 -0.529873 -2.28934e-16)
(13.4147 -0.7017 -2.91337e-16)
(14.2774 -0.958544 -3.41033e-16)
(15.0952 -1.26406 -3.45944e-16)
(15.574 -1.54042 -3.02928e-16)
(15.5526 -1.68123 -2.63258e-16)
(15.0051 -1.58164 -2.07942e-16)
(14.0155 -1.18298 -1.57482e-16)
(12.7056 -0.532366 -7.20518e-17)
(11.7588 0.257116 2.28334e-18)
(11.0937 0.983749 1.22878e-16)
(10.1613 1.44023 2.66566e-16)
(8.90239 1.55434 4.46626e-16)
(6.84693 1.25394 7.19695e-16)
(3.75103 0.434616 1.18793e-15)
(-4.87033 -1.20453 2.1299e-15)
(-7.12827 -1.1505 2.02663e-15)
(-7.47133 -1.43108 1.58258e-15)
(-7.89777 -2.20221 1.24803e-15)
(-7.03841 -2.68039 9.39496e-16)
(-7.58865 -2.93801 9.16785e-16)
(-7.18151 -2.31661 1.21999e-15)
(-6.76339 -1.89007 1.423e-15)
(-6.51852 -1.61824 1.62858e-15)
(-6.19718 -1.2023 1.85027e-15)
(-6.01402 -0.880057 1.97357e-15)
(-5.88964 -0.612136 2.09389e-15)
(-5.81759 -0.401554 2.19267e-15)
(-5.78375 -0.240954 2.27282e-15)
(-5.77786 -0.124694 2.36016e-15)
(-5.79018 -0.0469232 2.43005e-15)
(-5.81249 -0.00216159 2.49206e-15)
(-5.83806 0.0140502 2.5509e-15)
(-5.86171 0.0049512 2.61267e-15)
(-5.87718 -0.0269957 2.6626e-15)
(-5.88158 -0.0800047 2.69979e-15)
(40.4538 0.801161 7.46176e-17)
(39.8867 0.96646 7.46287e-17)
(39.4199 1.05782 7.407e-17)
(39.04 1.10812 7.41593e-17)
(38.6903 1.13536 7.48124e-17)
(38.3573 1.14447 7.47381e-17)
(38.0444 1.13785 7.46372e-17)
(37.7545 1.11663 7.54296e-17)
(37.4891 1.08019 7.59457e-17)
(37.2512 1.02766 7.71646e-17)
(37.045 0.959502 7.90594e-17)
(36.8758 0.876857 7.6975e-17)
(36.7488 0.778661 5.93351e-17)
(36.6864 0.656518 1.92323e-17)
(36.6215 0.495363 -4.22935e-17)
(36.464 0.284016 -9.65567e-17)
(36.1792 0.0292131 -1.74359e-16)
(35.738 -0.236748 -2.44305e-16)
(35.1366 -0.449788 -3.06105e-16)
(34.4129 -0.517228 -3.6163e-16)
(33.6468 -0.354575 -4.1561e-16)
(32.8884 0.0748225 -4.9734e-16)
(32.1296 0.723919 -5.46158e-16)
(31.0969 1.4621 -6.43436e-16)
(29.7692 2.17499 -6.58334e-16)
(28.1121 2.78045 -7.17078e-16)
(26.1056 3.24893 -6.74781e-16)
(23.7146 3.59877 -6.28352e-16)
(20.9493 3.84329 -4.89237e-16)
(17.6239 3.84804 -2.79308e-16)
(14.7529 3.74427 -7.63088e-18)
(12.2171 3.3626 1.05078e-16)
(9.91568 2.73572 6.14326e-17)
(6.65194 1.3801 -3.07369e-16)
(-3.89413 -2.3561 -5.2256e-16)
(-5.34295 -2.628 -2.85912e-16)
(-5.11981 -2.19578 -2.00649e-16)
(-5.64141 -1.94679 3.32643e-17)
(-5.34184 -1.40574 4.49177e-16)
(-5.29474 -1.02032 6.39234e-16)
(-5.25117 -0.710567 8.75453e-16)
(-5.24981 -0.47017 1.01574e-15)
(-5.27207 -0.286533 1.1448e-15)
(-5.31114 -0.15363 1.23425e-15)
(-5.35916 -0.0640221 1.2993e-15)
(-5.41028 -0.0113859 1.36404e-15)
(-5.46437 0.00754571 1.43692e-15)
(-5.51307 -0.00377098 1.50761e-15)
(-5.55147 -0.0417973 1.54878e-15)
(-5.57421 -0.103627 1.55971e-15)
(29.2075 0.012592 7.11834e-17)
(28.8249 0.0100519 7.12209e-17)
(28.521 0.0674804 7.09015e-17)
(28.3573 0.127582 7.09672e-17)
(28.2666 0.179609 7.13579e-17)
(28.2104 0.22054 7.1294e-17)
(28.1783 0.247295 7.1232e-17)
(28.1631 0.256945 7.11695e-17)
(28.1539 0.246432 7.05909e-17)
(28.1396 0.213518 7.04829e-17)
(28.1119 0.157713 7.08532e-17)
(28.0642 0.0790985 7.06158e-17)
(27.9886 -0.0240017 7.0239e-17)
(27.8772 -0.150976 6.97982e-17)
(27.718 -0.296209 6.90614e-17)
(27.5337 -0.446974 6.87801e-17)
(27.289 -0.581324 6.9343e-17)
(26.9657 -0.661174 6.90317e-17)
(26.5646 -0.63507 6.90732e-17)
(26.105 -0.448272 6.90031e-17)
(25.5929 -0.0580525 6.85185e-17)
(25.1066 0.53927 6.32963e-17)
(24.755 1.30751 4.25095e-17)
(24.5196 2.18528 -1.27545e-18)
(24.313 3.09628 -6.33689e-17)
(24.0061 3.97098 -1.41995e-16)
(23.4713 4.76464 -2.18289e-16)
(22.6251 5.46206 -2.84099e-16)
(21.4548 6.04326 -3.15097e-16)
(19.933 6.36715 -3.09641e-16)
(18.1488 6.30016 -2.51028e-16)
(16.0516 5.82631 -1.7312e-16)
(13.6172 5.15996 -1.16359e-16)
(10.9985 4.46485 -7.20663e-17)
(7.70108 3.53283 -9.37954e-18)
(6.06553 2.95413 7.53129e-17)
(-0.708031 -0.515766 -1.07574e-15)
(-4.48251 -2.07924 -1.59902e-15)
(-4.24213 -1.49457 -1.09587e-15)
(-4.4262 -1.00355 -1.4765e-15)
(-4.47138 -0.664258 -1.76813e-15)
(-4.55041 -0.402161 -1.952e-15)
(-4.63458 -0.204814 -1.95379e-15)
(-4.72222 -0.0647034 -1.90633e-15)
(-4.80615 0.0280884 -1.857e-15)
(-4.89743 0.0780682 -1.76655e-15)
(-4.98326 0.0898647 -1.68415e-15)
(-5.05897 0.0670167 -1.6351e-15)
(-5.12004 0.0133761 -1.59732e-15)
(-5.16439 -0.0673212 -1.56505e-15)
(26.0223 1.26622 7.28455e-17)
(25.545 1.19881 7.2883e-17)
(25.0971 1.16798 7.27119e-17)
(24.7698 1.14497 7.25371e-17)
(24.5169 1.11725 7.25767e-17)
(24.3079 1.08473 7.25629e-17)
(24.1348 1.04771 7.25049e-17)
(23.9919 1.00497 7.23889e-17)
(23.8699 0.955494 7.16635e-17)
(23.7597 0.899403 7.14336e-17)
(23.6539 0.837801 7.1738e-17)
(23.5459 0.771932 7.1438e-17)
(23.4285 0.7025 7.11563e-17)
(23.293 0.630412 7.08965e-17)
(23.128 0.556313 7.04146e-17)
(22.9184 0.48624 6.99882e-17)
(22.6615 0.433427 6.98121e-17)
(22.3476 0.420181 6.95686e-17)
(21.9677 0.475401 6.93019e-17)
(21.5245 0.628486 6.92189e-17)
(21.0701 0.892915 6.97822e-17)
(20.6458 1.27575 7.01549e-17)
(20.2898 1.78299 6.90881e-17)
(20.0311 2.42253 6.357e-17)
(19.8725 3.19295 4.89827e-17)
(19.7738 4.07138 2.0544e-17)
(19.6552 5.01159 -2.35759e-17)
(19.4257 5.95139 -8.04166e-17)
(19.0125 6.80801 -1.37724e-16)
(18.3439 7.44225 -1.84645e-16)
(17.3633 7.71218 -2.04892e-16)
(16.0138 7.59353 -1.94983e-16)
(14.2936 7.22009 -1.65921e-16)
(12.3634 6.72993 -1.25768e-16)
(10.1414 5.94511 -7.64731e-17)
(8.16701 5.09023 1.38563e-18)
(5.23715 3.69751 -1.03799e-16)
(3.73497 2.88806 3.34801e-16)
(-2.97191 -1.16265 5.38554e-16)
(-3.38496 -0.974732 -2.83013e-16)
(-3.54071 -0.612445 -8.38936e-16)
(-3.70255 -0.31537 -1.8234e-15)
(-3.84265 -0.112398 -2.17537e-15)
(-3.96718 0.033129 -2.23054e-15)
(-4.10535 0.126301 -2.23095e-15)
(-4.23381 0.173281 -2.28023e-15)
(-4.35186 0.177872 -2.36568e-15)
(-4.45527 0.143737 -2.46719e-15)
(-4.54069 0.0742524 -2.54985e-15)
(-4.60727 -0.0265436 -2.614e-15)
(21.4231 1.35311 7.63998e-17)
(21.0337 1.18852 7.63264e-17)
(20.6501 1.06583 7.55748e-17)
(20.3745 0.972146 7.54396e-17)
(20.1666 0.892694 7.59535e-17)
(19.9978 0.82382 7.58493e-17)
(19.8597 0.763683 7.57224e-17)
(19.7457 0.708759 7.55521e-17)
(19.6469 0.655623 7.48532e-17)
(19.5551 0.602156 7.44862e-17)
(19.4638 0.547285 7.45703e-17)
(19.3671 0.490429 7.43029e-17)
(19.2585 0.431339 7.40674e-17)
(19.1308 0.370621 7.38723e-17)
(18.9752 0.310364 7.32511e-17)
(18.7823 0.25651 7.29287e-17)
(18.5435 0.223113 7.30208e-17)
(18.2561 0.232936 7.27849e-17)
(17.9265 0.313407 7.25442e-17)
(17.5713 0.49135 7.22778e-17)
(17.2139 0.787045 7.20658e-17)
(16.8786 1.2093 7.24746e-17)
(16.5872 1.75665 7.30575e-17)
(16.3566 2.42292 7.26942e-17)
(16.1973 3.20138 6.98131e-17)
(16.1076 4.08429 6.12922e-17)
(16.0649 5.05426 4.22867e-17)
(16.0228 6.0717 8.96636e-18)
(15.9179 7.06379 -3.81595e-17)
(15.6735 7.91566 -8.94417e-17)
(15.2087 8.49903 -1.33353e-16)
(14.4543 8.74962 -1.58947e-16)
(13.3844 8.70131 -1.63869e-16)
(12.0757 8.41995 -1.49265e-16)
(10.525 7.82616 -1.18808e-16)
(8.93242 7.02254 -6.71556e-17)
(6.97538 5.87612 -7.66053e-17)
(5.31475 4.73449 8.33486e-17)
(2.91495 3.13596 3.64381e-16)
(0.269805 1.13861 1.9857e-15)
(-2.51013 -0.435948 2.30409e-15)
(-2.64358 -0.141554 1.33778e-15)
(-2.86099 0.0717652 4.59052e-16)
(-3.071 0.202752 -4.37339e-16)
(-3.25146 0.283357 -1.00396e-15)
(-3.41319 0.315902 -1.25098e-15)
(-3.55793 0.304867 -1.43349e-15)
(-3.68461 0.252247 -1.61995e-15)
(-3.79103 0.160354 -1.77458e-15)
(-3.87581 0.0340794 -1.8643e-15)
(17.173 1.97768 7.78504e-17)
(16.7677 1.74303 7.77959e-17)
(16.4019 1.5584 7.72895e-17)
(16.1504 1.41991 7.7196e-17)
(15.9619 1.30777 7.7573e-17)
(15.8101 1.21376 7.75327e-17)
(15.6871 1.13366 7.74973e-17)
(15.5856 1.06271 7.7422e-17)
(15.4971 0.997259 7.67535e-17)
(15.4146 0.935592 7.64628e-17)
(15.3328 0.87747 7.66632e-17)
(15.2465 0.82352 7.64266e-17)
(15.1508 0.775209 7.62346e-17)
(15.0401 0.735229 7.60512e-17)
(14.9089 0.708038 7.53192e-17)
(14.752 0.700841 7.5003e-17)
(14.5657 0.724559 7.52171e-17)
(14.3494 0.793698 7.50019e-17)
(14.1077 0.92413 7.48129e-17)
(13.8498 1.12944 7.46032e-17)
(13.5882 1.418 7.4349e-17)
(13.337 1.79295 7.41281e-17)
(13.1102 2.2549 7.42875e-17)
(12.9208 2.80669 7.45609e-17)
(12.7805 3.45683 7.40518e-17)
(12.6988 4.21797 7.1997e-17)
(12.6776 5.09688 6.43378e-17)
(12.702 6.07733 4.67824e-17)
(12.7347 7.10453 1.70953e-17)
(12.7168 8.08058 -2.35186e-17)
(12.5754 8.88234 -6.82911e-17)
(12.2397 9.41327 -1.06496e-16)
(11.6659 9.64064 -1.3103e-16)
(10.8751 9.57799 -1.38436e-16)
(9.87173 9.18865 -1.27701e-16)
(8.74468 8.51733 -9.76007e-17)
(7.38449 7.52458 -8.36723e-17)
(6.03709 6.37991 -7.64581e-18)
(4.43687 4.94758 1.58151e-16)
(2.62814 3.35273 9.00817e-16)
(0.818463 1.85419 1.49231e-15)
(-1.39318 0.199278 1.07573e-15)
(-1.79056 0.316968 7.74478e-16)
(-2.06218 0.422997 4.51103e-16)
(-2.2677 0.472203 1.43621e-16)
(-2.44515 0.478811 -1.99467e-16)
(-2.60182 0.445956 -5.74297e-16)
(-2.74052 0.371937 -7.87469e-16)
(-2.85919 0.257565 -9.08527e-16)
(-2.95513 0.107296 -9.65254e-16)
(12.4689 2.39865 7.83591e-17)
(12.108 2.04244 7.83101e-17)
(11.8189 1.76576 7.76562e-17)
(11.6447 1.55421 7.76024e-17)
(11.5184 1.38244 7.81696e-17)
(11.4185 1.24086 7.81276e-17)
(11.341 1.12353 7.81231e-17)
(11.2794 1.02453 7.81324e-17)
(11.2268 0.939904 7.78823e-17)
(11.1777 0.867869 7.76184e-17)
(11.1281 0.807831 7.76654e-17)
(11.0738 0.759841 7.7685e-17)
(11.0109 0.724745 7.76722e-17)
(10.9354 0.704543 7.76817e-17)
(10.844 0.702745 7.70254e-17)
(10.7341 0.724809 7.69558e-17)
(10.6045 0.778467 7.7532e-17)
(10.4563 0.873606 7.74485e-17)
(10.2933 1.02126 7.73496e-17)
(10.1218 1.23187 7.72089e-17)
(9.95047 1.51375 7.70065e-17)
(9.7882 1.87243 7.67174e-17)
(9.64373 2.31138 7.64804e-17)
(9.52532 2.83452 7.64115e-17)
(9.44176 3.44994 7.59258e-17)
(9.40338 4.17116 7.47426e-17)
(9.42 5.01163 7.09854e-17)
(9.49336 5.96978 6.12987e-17)
(9.60775 7.01058 4.2488e-17)
(9.72625 8.05548 1.22515e-17)
(9.79335 8.99176 -2.62968e-17)
(9.74783 9.70992 -6.54168e-17)
(9.54102 10.1419 -9.7914e-17)
(9.16501 10.2667 -1.18735e-16)
(8.61466 10.0572 -1.23026e-16)
(7.92749 9.53186 -1.0904e-16)
(7.05626 8.68577 -9.39833e-17)
(6.10905 7.62113 -4.89948e-17)
(5.01112 6.31175 5.5981e-17)
(3.74739 4.8487 4.48522e-16)
(2.40991 3.39268 9.13412e-16)
(1.02155 2.03282 8.97725e-16)
(-0.476075 0.823631 2.55631e-16)
(-1.02134 0.64089 -6.88e-17)
(-1.22574 0.655926 -1.67805e-16)
(-1.37701 0.643393 -2.36827e-16)
(-1.50644 0.588479 -2.81208e-16)
(-1.62375 0.494267 -3.70806e-16)
(-1.72781 0.361881 -4.5829e-16)
(-1.81732 0.190772 -4.02578e-16)
(7.58789 2.80684 7.82526e-17)
(7.25187 2.30847 7.82818e-17)
(7.07855 1.97096 7.77675e-17)
(7.02351 1.71649 7.77056e-17)
(6.99236 1.51227 7.81648e-17)
(6.97238 1.3496 7.81039e-17)
(6.96366 1.21972 7.80946e-17)
(6.96156 1.11455 7.8125e-17)
(6.96121 1.02923 7.76006e-17)
(6.95917 0.961249 7.73678e-17)
(6.95265 0.908957 7.7711e-17)
(6.93894 0.871282 7.76666e-17)
(6.91548 0.84808 7.76398e-17)
(6.88025 0.840421 7.76509e-17)
(6.83196 0.85077 7.73642e-17)
(6.77022 0.883113 7.71256e-17)
(6.69574 0.943068 7.7135e-17)
(6.61057 1.03792 7.70449e-17)
(6.51826 1.17632 7.69554e-17)
(6.4237 1.36756 7.69335e-17)
(6.3326 1.62076 7.68984e-17)
(6.25089 1.94414 7.67465e-17)
(6.18425 2.34487 7.65848e-17)
(6.13858 2.82977 7.64395e-17)
(6.12111 3.40746 7.6226e-17)
(6.14178 4.0903 7.5716e-17)
(6.21275 4.89208 7.22527e-17)
(6.34303 5.81712 6.44897e-17)
(6.52935 6.84313 5.04038e-17)
(6.75081 7.90624 2.69201e-17)
(6.96954 8.90452 -5.74676e-18)
(7.13864 9.72751 -4.22344e-17)
(7.21368 10.2921 -7.67462e-17)
(7.17294 10.5562 -1.03364e-16)
(7.0011 10.4901 -1.16558e-16)
(6.70825 10.0984 -1.13826e-16)
(6.26528 9.38816 -1.03576e-16)
(5.72196 8.43146 -7.33684e-17)
(5.05479 7.24464 -1.53449e-18)
(4.24558 5.90077 2.3059e-16)
(3.33774 4.52557 5.70549e-16)
(2.36943 3.2188 7.2567e-16)
(1.31825 2.06705 5.29171e-16)
(0.478032 1.30395 1.98981e-16)
(-0.11145 0.850297 -1.32833e-16)
(-0.309235 0.756803 -2.12207e-16)
(-0.394016 0.685668 -2.1418e-16)
(-0.449103 0.584137 -1.34836e-16)
(-0.49429 0.448279 -1.09679e-16)
(-0.541087 0.266639 -1.2075e-16)
(2.55005 3.39828 7.80925e-17)
(2.41473 2.48788 7.83279e-17)
(2.46053 2.05181 7.81042e-17)
(2.55987 1.75399 7.8423e-17)
(2.64063 1.52757 7.91218e-17)
(2.71692 1.35452 7.94214e-17)
(2.7941 1.21828 7.98897e-17)
(2.86912 1.10833 8.03509e-17)
(2.93916 1.01992 7.96017e-17)
(3.00213 0.950578 7.94697e-17)
(3.0558 0.898359 7.97085e-17)
(3.09802 0.861944 7.95027e-17)
(3.12706 0.840965 7.94787e-17)
(3.14175 0.836235 7.94622e-17)
(3.14172 0.849763 7.84482e-17)
(3.12724 0.884822 7.77026e-17)
(3.09914 0.946182 7.74808e-17)
(3.05909 1.04014 7.682e-17)
(3.01003 1.17445 7.64465e-17)
(2.9565 1.35802 7.62517e-17)
(2.90432 1.60005 7.63547e-17)
(2.86004 1.90898 7.64563e-17)
(2.83034 2.29217 7.67532e-17)
(2.82219 2.75628 7.68137e-17)
(2.84395 3.30884 7.77848e-17)
(2.90713 3.96078 7.8049e-17)
(3.0263 4.72524 7.65802e-17)
(3.2148 5.60931 7.09291e-17)
(3.4744 6.59828 5.95288e-17)
(3.79082 7.64049 3.86175e-17)
(4.13908 8.64573 8.62412e-18)
(4.48727 9.51036 -2.36462e-17)
(4.79736 10.1489 -5.67845e-17)
(5.03993 10.5071 -8.57051e-17)
(5.19248 10.548 -1.02749e-16)
(5.25026 10.269 -1.07441e-16)
(5.18801 9.67974 -1.03435e-16)
(5.02601 8.83531 -8.03299e-17)
(4.75201 7.76807 -2.70593e-17)
(4.34996 6.54324 1.20751e-16)
(3.83969 5.26586 3.66712e-16)
(3.24788 4.03077 5.57174e-16)
(2.57593 2.92464 5.63492e-16)
(1.92371 2.06199 4.32649e-16)
(1.37571 1.43613 2.35283e-16)
(1.01081 1.04756 6.75849e-17)
(0.818731 0.806064 -3.46509e-17)
(0.740604 0.634184 -4.86304e-17)
(0.716697 0.479484 -4.77126e-17)
(0.700805 0.314903 -6.02619e-17)
(-2.4187 2.77701 7.52118e-17)
(-2.1588 2.20372 7.56683e-17)
(-1.8724 1.8748 7.70391e-17)
(-1.67853 1.61166 7.88687e-17)
(-1.49359 1.41029 8.05629e-17)
(-1.31412 1.25298 8.2597e-17)
(-1.14174 1.12778 8.35757e-17)
(-0.97915 1.02967 8.33602e-17)
(-0.829719 0.955318 8.21427e-17)
(-0.697308 0.901475 8.13661e-17)
(-0.585292 0.86538 8.06241e-17)
(-0.496065 0.845067 8.04906e-17)
(-0.43101 0.839365 7.93257e-17)
(-0.390163 0.848179 7.72363e-17)
(-0.372267 0.872586 7.51595e-17)
(-0.374731 0.915193 7.40492e-17)
(-0.39368 0.980595 7.41589e-17)
(-0.424653 1.07494 7.40193e-17)
(-0.462507 1.20554 7.28668e-17)
(-0.501263 1.3807 7.16238e-17)
(-0.534741 1.60893 7.02294e-17)
(-0.556596 1.89823 6.88391e-17)
(-0.559686 2.25606 7.33412e-17)
(-0.536423 2.68931 6.92629e-17)
(-0.477613 3.20512 7.82764e-17)
(-0.370912 3.81256 7.5387e-17)
(-0.200296 4.52227 8.21918e-17)
(0.0528309 5.34903 7.15856e-17)
(0.407768 6.30626 5.94866e-17)
(0.832744 7.29558 4.0478e-17)
(1.31559 8.2567 1.07971e-17)
(1.84174 9.10672 -1.84245e-17)
(2.37213 9.76596 -4.95094e-17)
(2.86772 10.1715 -7.90676e-17)
(3.30561 10.2828 -9.58759e-17)
(3.67635 10.0928 -1.02817e-16)
(3.95301 9.60673 -9.89172e-17)
(4.13954 8.86807 -8.13867e-17)
(4.22376 7.91408 -3.95107e-17)
(4.1903 6.80611 6.36701e-17)
(4.04521 5.63507 2.40336e-16)
(3.80277 4.48759 4.14524e-16)
(3.46976 3.44128 4.98377e-16)
(3.09246 2.57456 4.89196e-16)
(2.72888 1.90025 4.12809e-16)
(2.42772 1.4046 3.01634e-16)
(2.21994 1.04305 1.84808e-16)
(2.10115 0.768738 8.81898e-17)
(2.04451 0.541626 9.75839e-18)
(2.01434 0.332968 -3.14393e-17)
(-7.48905 2.22789 6.22506e-17)
(-7.00605 1.9356 6.31188e-17)
(-6.73587 1.66289 6.48534e-17)
(-6.52233 1.43758 6.61856e-17)
(-6.32879 1.25311 6.75583e-17)
(-6.14606 1.10299 6.89038e-17)
(-5.96804 0.983202 6.91335e-17)
(-5.79217 0.890695 6.88447e-17)
(-5.61816 0.82271 6.84278e-17)
(-5.4472 0.776816 6.75851e-17)
(-5.28157 0.750951 6.72746e-17)
(-5.12428 0.743332 6.76166e-17)
(-4.97844 0.752513 6.74311e-17)
(-4.84676 0.777688 6.71632e-17)
(-4.73128 0.819033 6.71069e-17)
(-4.63281 0.878018 6.72068e-17)
(-4.55075 0.957666 6.73059e-17)
(-4.4831 1.0626 6.65126e-17)
(-4.42632 1.19886 6.55298e-17)
(-4.37553 1.37363 6.43146e-17)
(-4.32464 1.59482 6.39261e-17)
(-4.2665 1.87034 6.4608e-17)
(-4.19262 2.20774 6.57258e-17)
(-4.09313 2.61404 6.63849e-17)
(-3.95647 3.09607 6.839e-17)
(-3.76858 3.66125 6.80505e-17)
(-3.51292 4.31803 6.82427e-17)
(-3.17119 5.07424 5.89162e-17)
(-2.72231 5.92693 4.79721e-17)
(-2.1749 6.81796 3.14559e-17)
(-1.53897 7.6949 3.60771e-18)
(-0.82036 8.49443 -2.12245e-17)
(-0.0527112 9.15138 -4.9875e-17)
(0.727391 9.5871 -8.03072e-17)
(1.42853 9.7356 -9.8758e-17)
(2.08314 9.61272 -1.12204e-16)
(2.66006 9.2115 -1.06851e-16)
(3.15818 8.56725 -9.72289e-17)
(3.56383 7.7177 -6.4687e-17)
(3.86131 6.72264 1.08121e-17)
(4.04713 5.66332 1.29562e-16)
(4.12391 4.61748 2.67596e-16)
(4.09534 3.65153 3.69776e-16)
(3.98694 2.82173 4.07118e-16)
(3.83788 2.14598 3.96791e-16)
(3.68626 1.61733 3.46131e-16)
(3.56223 1.208 2.72123e-16)
(3.47657 0.884778 1.94495e-16)
(3.42333 0.617824 1.27799e-16)
(3.3856 0.384267 8.89464e-17)
(-12.2637 1.76487 4.61589e-17)
(-11.7915 1.59946 4.70742e-17)
(-11.5211 1.40085 4.8282e-17)
(-11.2873 1.21479 4.89533e-17)
(-11.0823 1.0495 5.01271e-17)
(-10.893 0.90862 5.19236e-17)
(-10.7116 0.792702 5.3166e-17)
(-10.5333 0.701269 5.44551e-17)
(-10.3552 0.633406 5.57724e-17)
(-10.1761 0.58805 5.65558e-17)
(-9.99594 0.564037 5.79785e-17)
(-9.81534 0.560219 5.99842e-17)
(-9.63566 0.575606 6.14857e-17)
(-9.45845 0.609531 6.28721e-17)
(-9.28517 0.661908 6.42307e-17)
(-9.11695 0.733498 6.53538e-17)
(-8.95424 0.826108 6.66506e-17)
(-8.79659 0.942786 6.85531e-17)
(-8.64236 1.08783 7.00806e-17)
(-8.4886 1.26657 7.12991e-17)
(-8.33093 1.48521 7.25658e-17)
(-8.16337 1.75038 7.39206e-17)
(-7.97828 2.06877 7.5004e-17)
(-7.76619 2.44677 7.56845e-17)
(-7.51555 2.89049 7.65812e-17)
(-7.21223 3.40588 7.64956e-17)
(-6.83925 3.99874 7.61811e-17)
(-6.37724 4.67229 7.06696e-17)
(-5.80666 5.41845 6.09754e-17)
(-5.11872 6.20278 4.43892e-17)
(-4.3168 6.97997 1.94221e-17)
(-3.4105 7.69653 -6.60679e-18)
(-2.43427 8.29483 -4.09707e-17)
(-1.41921 8.71687 -7.40701e-17)
(-0.453106 8.90867 -9.5607e-17)
(0.551294 8.8475 -1.11782e-16)
(1.38861 8.52539 -1.09185e-16)
(2.15846 7.97106 -1.04704e-16)
(2.84722 7.21634 -8.54117e-17)
(3.43858 6.32854 -3.38823e-17)
(3.92052 5.38426 5.15993e-17)
(4.28406 4.45279 1.52414e-16)
(4.52566 3.58839 2.36432e-16)
(4.65955 2.8304 2.85655e-16)
(4.71469 2.19378 2.92432e-16)
(4.72397 1.67566 2.7555e-16)
(4.71521 1.25973 2.39551e-16)
(4.70385 0.924206 1.91604e-16)
(4.69314 0.647842 1.45797e-16)
(4.67645 0.412989 1.16344e-16)
(-16.2257 1.38143 4.70116e-17)
(-15.7703 1.28223 5.13199e-17)
(-15.4826 1.14562 5.61701e-17)
(-15.2264 1.00238 6.07889e-17)
(-15.0037 0.866535 6.59666e-17)
(-14.8048 0.745331 7.14036e-17)
(-14.6227 0.642018 7.60508e-17)
(-14.4518 0.557887 8.01741e-17)
(-14.2877 0.493245 8.37387e-17)
(-14.1275 0.447925 8.63457e-17)
(-13.9686 0.421554 8.87667e-17)
(-13.8095 0.413756 9.11033e-17)
(-13.6489 0.424311 9.29269e-17)
(-13.4861 0.453276 9.44803e-17)
(-13.3202 0.501076 9.57109e-17)
(-13.1502 0.568654 9.63046e-17)
(-12.9749 0.657635 9.79223e-17)
(-12.7926 0.77041 9.98751e-17)
(-12.6009 0.910144 1.01019e-16)
(-12.3968 1.08069 1.01814e-16)
(-12.1761 1.28648 1.02115e-16)
(-11.9334 1.53238 1.01785e-16)
(-11.6616 1.82341 1.00582e-16)
(-11.3519 2.16471 9.89872e-17)
(-10.9935 2.5612 9.63868e-17)
(-10.5728 3.01737 9.43062e-17)
(-10.0739 3.53652 9.18046e-17)
(-9.47802 4.1185 8.66307e-17)
(-8.76676 4.75449 7.80373e-17)
(-7.92799 5.42057 6.5031e-17)
(-6.96088 6.08078 4.56761e-17)
(-5.87627 6.69238 2.17931e-17)
(-4.7019 7.21093 -8.62147e-18)
(-3.46791 7.59404 -4.04654e-17)
(-2.23897 7.79328 -6.3656e-17)
(-0.990218 7.79397 -7.73747e-17)
(0.169978 7.56717 -7.9891e-17)
(1.21045 7.10266 -7.21348e-17)
(2.13453 6.44555 -5.66166e-17)
(2.98281 5.66064 -1.62526e-17)
(3.72801 4.83394 4.83476e-17)
(4.3464 4.02898 1.21966e-16)
(4.82403 3.28687 1.86962e-16)
(5.16768 2.63079 2.34071e-16)
(5.40195 2.06888 2.57937e-16)
(5.55805 1.59954 2.62609e-16)
(5.66346 1.21398 2.5566e-16)
(5.73572 0.899292 2.39018e-16)
(5.78243 0.641321 2.28081e-16)
(5.8027 0.427035 2.27168e-16)
(-19.4296 1.0063 4.21663e-17)
(-19.0098 0.938136 4.64355e-17)
(-18.7322 0.840449 5.10148e-17)
(-18.4812 0.731843 5.52088e-17)
(-18.2639 0.624288 5.97316e-17)
(-18.0738 0.525116 6.41151e-17)
(-17.9054 0.438466 6.76357e-17)
(-17.7535 0.366476 7.05436e-17)
(-17.6133 0.310102 7.27657e-17)
(-17.4809 0.269631 7.3613e-17)
(-17.3527 0.24505 7.46048e-17)
(-17.2259 0.236295 7.59743e-17)
(-17.0976 0.243405 7.65961e-17)
(-16.9655 0.266662 7.70493e-17)
(-16.8268 0.306698 7.75046e-17)
(-16.6789 0.364593 7.76431e-17)
(-16.5187 0.441934 7.83636e-17)
(-16.3427 0.540819 7.95276e-17)
(-16.147 0.663841 8.03876e-17)
(-15.9271 0.814017 8.09955e-17)
(-15.6777 0.994651 8.12346e-17)
(-15.3924 1.20921 8.09739e-17)
(-15.0635 1.46117 8.02146e-17)
(-14.6817 1.754 7.90803e-17)
(-14.2358 2.09097 7.7372e-17)
(-13.7128 2.47483 7.50591e-17)
(-13.0973 2.90702 7.25155e-17)
(-12.3729 3.3859 6.77012e-17)
(-11.5236 3.90369 6.12731e-17)
(-10.5387 4.44303 5.20376e-17)
(-9.41639 4.97751 3.88064e-17)
(-8.16574 5.47566 2.19654e-17)
(-6.80766 5.90446 7.55735e-19)
(-5.3711 6.23046 -2.23488e-17)
(-3.90314 6.41624 -4.28771e-17)
(-2.42331 6.4516 -5.77588e-17)
(-1.02596 6.326 -6.1609e-17)
(0.342554 5.98137 -5.31228e-17)
(1.48986 5.42954 -3.55329e-17)
(2.54747 4.75171 -2.13075e-18)
(3.52333 4.04853 4.50794e-17)
(4.36683 3.38235 9.70575e-17)
(5.04757 2.7805 1.44099e-16)
(5.56638 2.2484 1.82549e-16)
(5.9489 1.78485 2.09706e-16)
(6.22893 1.38847 2.28627e-16)
(6.43544 1.05669 2.40594e-16)
(6.58717 0.783886 2.5067e-16)
(6.6937 0.561717 2.62029e-16)
(6.75741 0.381132 2.74688e-16)
(-22.1398 0.717151 3.04775e-17)
(-21.7539 0.676122 2.99378e-17)
(-21.4968 0.613715 2.91911e-17)
(-21.2622 0.54132 2.77331e-17)
(-21.0591 0.467238 2.6749e-17)
(-20.8838 0.397257 2.62934e-17)
(-20.7324 0.335052 2.53784e-17)
(-20.6004 0.282756 2.45832e-17)
(-20.4834 0.241496 2.39422e-17)
(-20.3772 0.211798 2.29954e-17)
(-20.2776 0.193849 2.31269e-17)
(-20.1809 0.187701 2.43292e-17)
(-20.0833 0.193449 2.53888e-17)
(-19.9811 0.21137 2.67862e-17)
(-19.8705 0.24202 2.84833e-17)
(-19.7473 0.286295 3.04954e-17)
(-19.607 0.345477 3.27679e-17)
(-19.4446 0.42124 3.52308e-17)
(-19.2547 0.515618 3.78097e-17)
(-19.0314 0.630936 4.03576e-17)
(-18.768 0.769676 4.27657e-17)
(-18.4568 0.934378 4.50353e-17)
(-18.089 1.1275 4.70643e-17)
(-17.6541 1.35123 4.87904e-17)
(-17.1402 1.60746 5.01141e-17)
(-16.5337 1.89747 5.0886e-17)
(-15.8198 2.2214 5.14072e-17)
(-14.9833 2.57728 5.04749e-17)
(-14.0106 2.95919 4.7771e-17)
(-12.8928 3.35564 4.35562e-17)
(-11.6284 3.74916 3.67991e-17)
(-10.2256 4.11828 2.70731e-17)
(-8.70147 4.43934 1.45396e-17)
(-7.0829 4.68737 -8.28723e-19)
(-5.40854 4.83794 -1.86755e-17)
(-3.71791 4.88412 -3.76996e-17)
(-2.08474 4.82198 -5.36595e-17)
(-0.530711 4.63594 -5.69942e-17)
(1.00673 4.17347 -4.05522e-17)
(2.19514 3.6344 -8.90934e-18)
(3.35865 3.07469 2.59577e-17)
(4.39393 2.5708 6.17362e-17)
(5.24252 2.13688 9.45494e-17)
(5.89767 1.75782 1.22039e-16)
(6.39195 1.42001 1.4453e-16)
(6.76743 1.12158 1.60012e-16)
(7.05648 0.866403 1.77135e-16)
(7.27783 0.656 1.87742e-16)
(7.44087 0.487404 1.97959e-16)
(7.54959 0.355388 2.12144e-16)
(-24.392 0.391924 2.12971e-17)
(-24.0267 0.367282 2.06379e-17)
(-23.7815 0.327351 1.99961e-17)
(-23.5559 0.279954 1.89385e-17)
(-23.3607 0.230379 1.84982e-17)
(-23.1942 0.182579 1.87487e-17)
(-23.054 0.139252 1.86582e-17)
(-22.9365 0.102131 1.87311e-17)
(-22.8375 0.07225 1.90033e-17)
(-22.7527 0.0501654 1.94944e-17)
(-22.6778 0.0361096 2.03525e-17)
(-22.6084 0.0301261 2.14597e-17)
(-22.5397 0.0322069 2.26551e-17)
(-22.467 0.042403 2.3956e-17)
(-22.3853 0.0609243 2.52848e-17)
(-22.2891 0.0881867 2.61146e-17)
(-22.1726 0.124838 2.74932e-17)
(-22.0295 0.171768 2.95519e-17)
(-21.8529 0.230145 3.1136e-17)
(-21.6356 0.301383 3.27405e-17)
(-21.3695 0.387064 3.43582e-17)
(-21.0457 0.488827 3.59713e-17)
(-20.6543 0.608306 3.75245e-17)
(-20.1838 0.746904 3.89948e-17)
(-19.6216 0.905681 4.03309e-17)
(-18.9535 1.08523 4.14274e-17)
(-18.1646 1.28529 4.25378e-17)
(-17.2402 1.50442 4.27262e-17)
(-16.1679 1.73911 4.17169e-17)
(-14.9399 1.98296 4.00768e-17)
(-13.5555 2.22639 3.70121e-17)
(-12.0222 2.45718 3.20791e-17)
(-10.3562 2.66138 2.48212e-17)
(-8.58232 2.8246 1.45827e-17)
(-6.73567 2.93543 1.8945e-19)
(-4.86112 2.99354 -1.75682e-17)