/*--------------------------------*- C++ -*----------------------------------*\
  =========                 |
  \\      /  F ield         | OpenFOAM: The Open Source CFD Toolbox
   \\    /   O peration     | Website:  https://openfoam.org
    \\  /    A nd           | Version:  8
     \\/     M anipulation  |
\*---------------------------------------------------------------------------*/
FoamFile
{
    version     2.0;
    format      ascii;
    class       volScalarField;
    location    "1000";
    object      alphat;
}
// * * * * * * * * * * * * * * * * * * * * * * * * * * * * * * * * * * * * * //

dimensions      [1 -1 -1 0 0 0 0];

internalField   nonuniform List<scalar> 
8400
(
0.346683
0.346367
0.346049
0.345729
0.345407
0.345083
0.344756
0.344426
0.344094
0.343757
0.343418
0.343074
0.342727
0.342375
0.342019
0.341659
0.341293
0.340923
0.340547
0.340166
0.33978
0.339388
0.338991
0.338587
0.338178
0.337764
0.337345
0.336925
0.336506
0.336089
0.335676
0.335268
0.334867
0.334476
0.334096
0.333731
0.333384
0.33306
0.332762
0.332497
0.332271
0.332091
0.331969
0.331914
0.331942
0.332072
0.332329
0.332747
0.333369
0.334256
0.147186
0.147252
0.147312
0.147368
0.147422
0.147474
0.147525
0.147574
0.147622
0.147669
0.147715
0.14776
0.147805
0.147849
0.147892
0.147936
0.147981
0.148026
0.148073
0.148122
0.148174
0.148229
0.148288
0.148352
0.148423
0.148501
0.148587
0.148676
0.148769
0.148866
0.148968
0.149076
0.149191
0.149313
0.149444
0.149585
0.149738
0.149904
0.150084
0.150283
0.150501
0.150743
0.151012
0.151312
0.15165
0.152032
0.152467
0.152968
0.153548
0.15423
0.0927447
0.0929212
0.0930976
0.0932735
0.0934487
0.0936232
0.093797
0.0939702
0.0941428
0.0943148
0.0944863
0.0946574
0.094828
0.0949984
0.0951686
0.0953387
0.0955089
0.0956793
0.0958502
0.0960218
0.0961942
0.0963678
0.0965429
0.09672
0.0968997
0.0970824
0.0972668
0.0974516
0.097637
0.0978229
0.0980095
0.0981971
0.0983857
0.0985756
0.098767
0.0989601
0.0991553
0.0993529
0.0995532
0.0997569
0.0999644
0.100176
0.100394
0.100617
0.100847
0.101087
0.101336
0.101598
0.101875
0.102171
0.0871915
0.0873582
0.0875254
0.0876929
0.0878609
0.0880292
0.0881981
0.0883674
0.0885372
0.0887075
0.0888784
0.0890497
0.0892216
0.0893941
0.0895671
0.0897408
0.089915
0.09009
0.0902656
0.090442
0.0906191
0.090797
0.0909757
0.0911551
0.0913351
0.0915157
0.091697
0.0918789
0.0920615
0.0922447
0.0924286
0.0926132
0.0927985
0.0929844
0.0931711
0.0933585
0.0935467
0.0937356
0.0939254
0.0941159
0.0943073
0.0944996
0.0946929
0.0948872
0.0950826
0.0952792
0.0954771
0.0956767
0.095878
0.0960816
0.0873152
0.0874785
0.0876425
0.0878072
0.0879725
0.0881384
0.0883049
0.0884722
0.0886401
0.0888087
0.0889781
0.0891481
0.0893189
0.0894905
0.0896628
0.0898359
0.0900098
0.0901846
0.0903601
0.0905363
0.0907133
0.0908911
0.0910696
0.0912489
0.0914289
0.0916096
0.091791
0.091973
0.0921557
0.092339
0.0925228
0.0927072
0.092892
0.0930772
0.0932627
0.0934485
0.0936344
0.0938203
0.094006
0.0941915
0.0943764
0.0945607
0.0947439
0.0949258
0.095106
0.095284
0.0954593
0.0956313
0.095799
0.0959616
0.0888213
0.0889912
0.0891618
0.0893331
0.0895049
0.0896773
0.0898504
0.0900241
0.0901984
0.0903734
0.0905491
0.0907255
0.0909026
0.0910804
0.0912589
0.0914381
0.0916181
0.0917987
0.0919801
0.0921623
0.0923452
0.0925288
0.0927133
0.0928984
0.0930844
0.093271
0.0934584
0.0936465
0.0938354
0.0940249
0.094215
0.0944058
0.0945972
0.0947891
0.0949815
0.0951743
0.0953676
0.0955611
0.0957548
0.0959485
0.0961423
0.0963359
0.0965291
0.0967218
0.0969138
0.0971048
0.0972945
0.0974827
0.097669
0.0978531
0.0898174
0.0899911
0.0901655
0.0903404
0.090516
0.0906922
0.090869
0.0910465
0.0912247
0.0914035
0.0915831
0.0917635
0.0919445
0.0921264
0.092309
0.0924923
0.0926764
0.0928612
0.0930468
0.0932333
0.0934205
0.0936084
0.0937972
0.0939867
0.0941769
0.0943679
0.0945596
0.094752
0.094945
0.0951387
0.095333
0.0955277
0.0957229
0.0959185
0.0961145
0.0963106
0.0965068
0.0967029
0.0968988
0.0970944
0.0972893
0.0974833
0.0976762
0.0978676
0.098057
0.0982441
0.0984283
0.098609
0.0987855
0.0989569
0.0911689
0.0913487
0.0915292
0.0917104
0.0918922
0.0920746
0.0922576
0.0924413
0.0926256
0.0928106
0.0929963
0.0931828
0.0933699
0.0935578
0.0937464
0.0939357
0.0941258
0.0943167
0.0945084
0.0947008
0.094894
0.095088
0.0952828
0.0954784
0.0956747
0.0958717
0.0960695
0.0962681
0.0964673
0.0966671
0.0968676
0.0970687
0.0972703
0.0974724
0.0976748
0.0978776
0.0980806
0.0982836
0.0984867
0.0986895
0.0988919
0.0990938
0.0992948
0.0994947
0.0996932
0.0998899
0.100084
0.100276
0.100465
0.100651
0.0922858
0.0924706
0.0926562
0.0928424
0.0930292
0.0932166
0.0934046
0.0935933
0.0937826
0.0939727
0.0941634
0.0943549
0.0945471
0.09474
0.0949337
0.0951282
0.0953234
0.0955194
0.0957163
0.0959139
0.0961123
0.0963115
0.0965115
0.0967122
0.0969138
0.0971161
0.0973191
0.0975228
0.0977273
0.0979323
0.098138
0.0983442
0.0985509
0.0987579
0.0989653
0.0991729
0.0993807
0.0995883
0.0997957
0.100003
0.100209
0.100415
0.100619
0.100822
0.101023
0.101221
0.101417
0.101609
0.101798
0.101981
0.0935269
0.0937176
0.0939091
0.0941012
0.0942938
0.0944871
0.094681
0.0948755
0.0950707
0.0952665
0.0954631
0.0956604
0.0958585
0.0960573
0.0962568
0.0964572
0.0966583
0.0968602
0.0970629
0.0972664
0.0974707
0.0976758
0.0978817
0.0980884
0.0982959
0.0985042
0.0987132
0.0989229
0.0991333
0.0993444
0.0995561
0.0997684
0.0999811
0.100194
0.100408
0.100621
0.100835
0.101049
0.101263
0.101476
0.101688
0.1019
0.10211
0.102319
0.102526
0.10273
0.102932
0.10313
0.103324
0.103513
0.0947331
0.09493
0.0951277
0.0953259
0.0955247
0.0957242
0.0959242
0.0961249
0.0963262
0.0965283
0.096731
0.0969345
0.0971386
0.0973436
0.0975493
0.0977558
0.097963
0.0981711
0.09838
0.0985897
0.0988002
0.0990115
0.0992236
0.0994365
0.0996503
0.0998648
0.10008
0.100296
0.100513
0.10073
0.100948
0.101167
0.101386
0.101606
0.101826
0.102047
0.102267
0.102488
0.102708
0.102928
0.103148
0.103367
0.103584
0.103801
0.104015
0.104228
0.104438
0.104645
0.104848
0.105047
0.0958839
0.0960867
0.0962902
0.0964941
0.0966986
0.0969037
0.0971094
0.0973158
0.0975227
0.0977304
0.0979388
0.0981478
0.0983576
0.0985682
0.0987795
0.0989916
0.0992045
0.0994182
0.0996327
0.099848
0.100064
0.100281
0.100499
0.100717
0.100937
0.101157
0.101378
0.1016
0.101822
0.102045
0.102269
0.102493
0.102718
0.102943
0.103169
0.103394
0.10362
0.103846
0.104071
0.104296
0.10452
0.104743
0.104964
0.105184
0.105401
0.105616
0.105827
0.106033
0.106235
0.10643
0.0971825
0.0973925
0.0976032
0.0978145
0.0980263
0.0982387
0.0984518
0.0986654
0.0988797
0.0990946
0.0993102
0.0995265
0.0997436
0.0999613
0.10018
0.100399
0.100619
0.10084
0.101062
0.101284
0.101508
0.101732
0.101957
0.102183
0.10241
0.102637
0.102865
0.103095
0.103324
0.103555
0.103787
0.104019
0.104251
0.104485
0.104718
0.104953
0.105187
0.105422
0.105656
0.105891
0.106125
0.106359
0.106592
0.106824
0.107055
0.107284
0.107511
0.107735
0.107956
0.108174
0.0982369
0.0984531
0.09867
0.0988872
0.099105
0.0993233
0.0995421
0.0997615
0.0999815
0.100202
0.100423
0.100645
0.100868
0.101091
0.101315
0.10154
0.101766
0.101992
0.102219
0.102447
0.102676
0.102906
0.103136
0.103367
0.103599
0.103832
0.104066
0.1043
0.104535
0.10477
0.105007
0.105244
0.105481
0.105718
0.105956
0.106194
0.106433
0.10667
0.106908
0.107145
0.107381
0.107615
0.107848
0.108079
0.108307
0.108532
0.108752
0.108968
0.109177
0.109379
0.0998555
0.100081
0.100307
0.100534
0.100761
0.100988
0.101216
0.101445
0.101674
0.101903
0.102133
0.102364
0.102595
0.102827
0.10306
0.103293
0.103527
0.103762
0.103997
0.104233
0.10447
0.104708
0.104946
0.105185
0.105425
0.105666
0.105908
0.10615
0.106392
0.106636
0.10688
0.107125
0.10737
0.107615
0.107861
0.108107
0.108353
0.108599
0.108845
0.109091
0.109336
0.109579
0.109822
0.110064
0.110303
0.110541
0.110776
0.111009
0.111239
0.111466
0.101711
0.101952
0.102193
0.102433
0.102673
0.102913
0.103153
0.103393
0.103633
0.103873
0.104113
0.104353
0.104594
0.104834
0.105075
0.105316
0.105558
0.105799
0.106041
0.106284
0.106526
0.106769
0.107012
0.107256
0.1075
0.107744
0.107988
0.108232
0.108476
0.108719
0.108963
0.109206
0.109448
0.109689
0.109928
0.110166
0.110402
0.110635
0.110864
0.11109
0.111311
0.111527
0.111736
0.111938
0.11213
0.112313
0.112483
0.11264
0.112781
0.112905
0.108741
0.109021
0.109301
0.109579
0.109856
0.110132
0.110406
0.110678
0.11095
0.111219
0.111488
0.111755
0.112022
0.112287
0.112551
0.112814
0.113077
0.113338
0.113599
0.113858
0.114117
0.114375
0.114632
0.114888
0.115142
0.115396
0.115647
0.115897
0.116145
0.11639
0.116633
0.116871
0.117106
0.117336
0.11756
0.117778
0.117987
0.118188
0.118377
0.118554
0.118716
0.118861
0.118986
0.119088
0.119162
0.119206
0.119213
0.119179
0.119097
0.11896
0.131099
0.131504
0.131902
0.132295
0.132682
0.133065
0.133443
0.133816
0.134185
0.13455
0.134911
0.135267
0.13562
0.135969
0.136314
0.136656
0.136994
0.137329
0.137661
0.137989
0.138313
0.138634
0.138951
0.139264
0.139573
0.139876
0.140175
0.140467
0.140752
0.141029
0.141296
0.141553
0.141798
0.142028
0.142241
0.142435
0.142605
0.142748
0.14286
0.142934
0.142965
0.142943
0.142861
0.142707
0.142465
0.14212
0.141647
0.141018
0.140196
0.139127
0.197218
0.197758
0.198308
0.19886
0.199413
0.199966
0.20052
0.201074
0.201628
0.202182
0.202737
0.203293
0.203849
0.204406
0.204964
0.205522
0.206081
0.206641
0.207201
0.207762
0.208323
0.208884
0.209444
0.210004
0.210561
0.211116
0.211668
0.212215
0.212756
0.21329
0.213814
0.214327
0.214826
0.215307
0.215768
0.216203
0.216609
0.216978
0.217304
0.217578
0.21779
0.217928
0.217976
0.217915
0.217721
0.21736
0.216788
0.215942
0.214741
0.213067
0.376327
0.376762
0.377203
0.377648
0.378098
0.378553
0.379013
0.379479
0.379951
0.38043
0.380914
0.381406
0.381904
0.382408
0.38292
0.383439
0.383965
0.384498
0.385038
0.385585
0.386139
0.386701
0.38727
0.387846
0.388429
0.389019
0.389617
0.390221
0.390833
0.391451
0.392076
0.392707
0.393345
0.393988
0.394637
0.39529
0.395948
0.396609
0.397273
0.397938
0.398603
0.399267
0.399927
0.400582
0.401229
0.401864
0.402484
0.403083
0.403655
0.40419
1.08355
1.06874
1.05457
1.04097
1.02789
1.01526
1.00302
0.991132
0.979585
0.968364
0.957455
0.946845
0.936524
0.926481
0.916706
0.907189
0.897922
0.888895
0.880102
0.871533
0.863182
0.855041
0.847103
0.839362
0.831811
0.824445
0.817258
0.810244
0.803398
0.796715
0.79019
0.783819
0.777598
0.771523
0.765589
0.759794
0.754135
0.748608
0.7432
0.737895
0.732686
0.727568
0.722532
0.717569
0.712668
0.707813
0.702982
0.698138
0.693212
0.688076
1.07683
1.05216
1.02859
1.00603
0.984429
0.963764
0.944006
0.9251
0.906993
0.889635
0.872982
0.85699
0.841621
0.826839
0.812612
0.798907
0.785698
0.772956
0.760658
0.74878
0.737301
0.726201
0.715461
0.705064
0.694992
0.68523
0.675764
0.66658
0.657664
0.649004
0.640587
0.632403
0.624441
0.616687
0.609132
0.601765
0.594575
0.587552
0.580699
0.574021
0.567513
0.561168
0.554979
0.54894
0.543044
0.537284
0.531653
0.526142
0.52074
0.51543
1.0768
1.05207
1.02836
1.00568
0.983955
0.963152
0.943214
0.924088
0.905725
0.88808
0.871111
0.854779
0.839049
0.823888
0.809265
0.795152
0.781522
0.768352
0.755619
0.743301
0.731379
0.719833
0.708648
0.697805
0.68729
0.677088
0.667186
0.65757
0.648229
0.639152
0.630326
0.621743
0.613393
0.605267
0.597357
0.589656
0.582155
0.574848
0.567728
0.560788
0.554024
0.547429
0.541
0.53473
0.528616
0.522654
0.516841
0.511174
0.505649
0.500263
1.0768
1.05225
1.02876
1.00628
0.984746
0.964102
0.944292
0.925267
0.906979
0.889389
0.872456
0.856145
0.840423
0.825259
0.810625
0.796494
0.782841
0.769642
0.756875
0.744521
0.732559
0.720972
0.709742
0.698854
0.688293
0.678044
0.668095
0.658432
0.649043
0.639918
0.631046
0.622417
0.614021
0.60585
0.597895
0.590148
0.582602
0.57525
0.568085
0.561101
0.554293
0.547654
0.541181
0.534867
0.52871
0.522704
0.516847
0.511135
0.505565
0.500131
1.0768
1.05225
1.02875
1.00625
0.984678
0.963996
0.944148
0.92509
0.906775
0.889164
0.872218
0.8559
0.840176
0.825016
0.810389
0.796268
0.782628
0.769444
0.756694
0.744358
0.732415
0.720847
0.709637
0.698769
0.688227
0.677997
0.668066
0.658422
0.649051
0.639943
0.631087
0.622474
0.614093
0.605936
0.597994
0.59026
0.582725
0.575384
0.568229
0.561254
0.554453
0.54782
0.541351
0.535041
0.528885
0.522878
0.517018
0.511299
0.505718
0.500271
1.0768
1.05226
1.02879
1.00633
0.984802
0.964168
0.944369
0.925358
0.907088
0.889517
0.872607
0.85632
0.840623
0.825485
0.810876
0.79677
0.783141
0.769965
0.757221
0.744888
0.732947
0.721378
0.710167
0.699295
0.688749
0.678514
0.668577
0.658925
0.649546
0.64043
0.631565
0.622942
0.614551
0.606383
0.59843
0.590684
0.583138
0.575783
0.568614
0.561625
0.554809
0.54816
0.541674
0.535345
0.529169
0.523141
0.517256
0.511511
0.505902
0.500422
1.0768
1.05227
1.0288
1.00634
0.984815
0.964177
0.944371
0.925349
0.907066
0.889482
0.872558
0.856258
0.840548
0.825399
0.81078
0.796665
0.783029
0.769847
0.757099
0.744762
0.732819
0.721249
0.710037
0.699166
0.688621
0.678388
0.668453
0.658804
0.649428
0.640315
0.631454
0.622834
0.614447
0.606283
0.598333
0.59059
0.583047
0.575695
0.568528
0.561541
0.554725
0.548077
0.54159
0.535259
0.529079
0.523046
0.517155
0.511401
0.50578
0.500288
1.0768
1.05227
1.02881
1.00635
0.984836
0.964207
0.944411
0.925401
0.907131
0.889559
0.872648
0.856361
0.840664
0.825526
0.810918
0.796814
0.783187
0.770013
0.757272
0.744942
0.733003
0.721438
0.710229
0.699361
0.688818
0.678585
0.66865
0.659
0.649623
0.640508
0.631643
0.62302
0.614628
0.606459
0.598504
0.590755
0.583204
0.575845
0.568669
0.561672
0.554846
0.548185
0.541685
0.53534
0.529144
0.523093
0.517182
0.511406
0.505762
0.500243
1.0768
1.05227
1.02881
1.00636
0.984842
0.964215
0.94442
0.925409
0.907137
0.889563
0.872648
0.856357
0.840655
0.825512
0.8109
0.79679
0.783158
0.76998
0.757234
0.744899
0.732957
0.721388
0.710176
0.699305
0.688759
0.678524
0.668587
0.658935
0.649556
0.640439
0.631574
0.622949
0.614556
0.606385
0.598429
0.590678
0.583125
0.575762
0.568584
0.561583
0.554753
0.548087
0.541581
0.535229
0.529025
0.522964
0.517042
0.511254
0.505595
0.50006
1.0768
1.05227
1.02881
1.00636
0.984846
0.96422
0.944427
0.925418
0.907148
0.889576
0.872664
0.856375
0.840676
0.825536
0.810926
0.796819
0.78319
0.770014
0.757271
0.744938
0.732998
0.72143
0.71022
0.699349
0.688804
0.678569
0.668632
0.65898
0.6496
0.640482
0.631615
0.622988
0.614593
0.606419
0.598459
0.590704
0.583147
0.575779
0.568595
0.561587
0.554748
0.548074
0.541558
0.535194
0.528978
0.522903
0.516965
0.51116
0.505481
0.499925
1.0768
1.05227
1.02881
1.00636
0.984846
0.96422
0.944426
0.925417
0.907148
0.889576
0.872664
0.856374
0.840675
0.825535
0.810925
0.796818
0.783188
0.770012
0.757268
0.744935
0.732994
0.721426
0.710215
0.699344
0.688797
0.678562
0.668623
0.65897
0.649589
0.640469
0.6316
0.622971
0.614573
0.606396
0.598433
0.590674
0.583112
0.57574
0.56855
0.561535
0.55469
0.548008
0.541482
0.535108
0.52888
0.522793
0.51684
0.511019
0.505323
0.499747
1.0768
1.05227
1.02881
1.00636
0.984842
0.964215
0.944419
0.925408
0.907136
0.889562
0.872647
0.856355
0.840653
0.82551
0.810896
0.796786
0.783153
0.769974
0.757227
0.744891
0.732947
0.721377
0.710163
0.69929
0.688741
0.678504
0.668564
0.658908
0.649525
0.640404
0.631533
0.622902
0.614502
0.606323
0.598357
0.590596
0.583031
0.575655
0.568461
0.561442
0.554591
0.547903
0.54137
0.534988
0.528751
0.522653
0.516689
0.510854
0.505143
0.49955
1.0768
1.05227
1.02881
1.00635
0.984836
0.964206
0.944411
0.9254
0.90713
0.889558
0.872646
0.856358
0.84066
0.825521
0.810913
0.796807
0.783178
0.770004
0.75726
0.744928
0.732987
0.721419
0.710207
0.699334
0.688787
0.678549
0.668609
0.658953
0.649568
0.640445
0.631571
0.622937
0.614534
0.606351
0.59838
0.590613
0.583042
0.575659
0.568458
0.56143
0.55457
0.547871
0.541327
0.534932
0.52868
0.522566
0.516585
0.510731
0.504999
0.499384
1.0768
1.05227
1.0288
1.00634
0.984815
0.964176
0.94437
0.925347
0.907065
0.88948
0.872555
0.856254
0.840544
0.825393
0.810773
0.796656
0.783018
0.769835
0.757084
0.744745
0.732798
0.721225
0.710008
0.699133
0.688582
0.678343
0.668401
0.658743
0.649359
0.640235
0.631361
0.622727
0.614324
0.606141
0.598171
0.590404
0.582833
0.57545
0.568248
0.561219
0.554357
0.547656
0.541109
0.534709
0.528452
0.522332
0.516343
0.510479
0.504736
0.499108
1.0768
1.05226
1.02879
1.00633
0.984802
0.964167
0.944368
0.925357
0.907086
0.889515
0.872603
0.856315
0.840617
0.825477
0.810867
0.796758
0.783127
0.769948
0.757201
0.744864
0.732918
0.721345
0.710127
0.699249
0.688696
0.678453
0.668506
0.658843
0.649452
0.640322
0.631441
0.622799
0.614388
0.606196
0.598217
0.59044
0.582859
0.575465
0.568251
0.56121
0.554335
0.547619
0.541057
0.534641
0.528367
0.522227
0.516217
0.510331
0.504563
0.498909
1.0768
1.05225
1.02875
1.00625
0.984678
0.963995
0.944147
0.925088
0.906773
0.889161
0.872214
0.855895
0.84017
0.825007
0.810379
0.796255
0.782612
0.769425
0.756672
0.744332
0.732384
0.720811
0.709594
0.698719
0.688169
0.67793
0.667989
0.658332
0.648947
0.639823
0.630949
0.622314
0.613909
0.605725
0.597751
0.589981
0.582406
0.575017
0.567808
0.560772
0.553901
0.547188
0.540628
0.534214
0.52794
0.521799
0.515786
0.509896
0.504123
0.498461
1.0768
1.05225
1.02876
1.00628
0.984745
0.964101
0.944291
0.925265
0.906977
0.889385
0.872451
0.856138
0.840415
0.825249
0.810613
0.796478
0.782822
0.769619
0.756848
0.744489
0.732521
0.720928
0.709691
0.698794
0.688224
0.677964
0.668002
0.658325
0.64892
0.639777
0.630884
0.622231
0.613808
0.605606
0.597616
0.58983
0.582239
0.574835
0.567612
0.560562
0.553678
0.546953
0.540382
0.533957
0.527674
0.521526
0.515509
0.509617
0.503847
0.498196
1.0768
1.05207
1.02836
1.00567
0.983955
0.963151
0.943212
0.924086
0.905722
0.888076
0.871106
0.854773
0.839041
0.823878
0.809253
0.795137
0.781505
0.768332
0.755595
0.743273
0.731346
0.719795
0.708604
0.697755
0.687233
0.677024
0.667114
0.657489
0.648139
0.639051
0.630215
0.62162
0.613256
0.605116
0.597189
0.589468
0.581945
0.574613
0.567465
0.560495
0.553696
0.547065
0.540595
0.534282
0.528125
0.52212
0.516267
0.51057
0.505037
0.499683
1.07683
1.05216
1.02859
1.00602
0.984428
0.963763
0.944005
0.925099
0.906992
0.889635
0.872982
0.856991
0.841623
0.826843
0.812617
0.798914
0.785707
0.772969
0.760675
0.748803
0.737331
0.726239
0.71551
0.705125
0.69507
0.685328
0.675886
0.666731
0.65785
0.649233
0.640869
0.632747
0.62486
0.617199
0.609756
0.602525
0.5955
0.588676
0.582047
0.575612
0.569367
0.563312
0.557447
0.551775
0.5463
0.541034
0.535992
0.531206
0.526732
0.522687
1.08355
1.06874
1.05457
1.04097
1.02789
1.01526
1.00302
0.99113
0.979583
0.96836
0.957449
0.946838
0.936515
0.926468
0.91669
0.907169
0.897897
0.888865
0.880065
0.871489
0.863129
0.854978
0.847029
0.839274
0.831708
0.824324
0.817115
0.810077
0.803202
0.796486
0.789924
0.783509
0.777238
0.771104
0.765102
0.759229
0.753479
0.747847
0.742328
0.736918
0.731612
0.726403
0.721288
0.71626
0.711314
0.706442
0.701637
0.69689
0.69219
0.68752
0.463726
0.251407
0.194342
0.186906
0.183043
0.181783
0.179049
0.177365
0.17502
0.173053
0.171035
0.168829
0.167126
0.164658
0.163282
0.160455
0.160173
0.163109
0.207944
0.388744
0.464298
0.252014
0.195036
0.187621
0.183767
0.182497
0.179765
0.178073
0.175728
0.173754
0.171734
0.169523
0.167816
0.165344
0.163963
0.161133
0.160844
0.16378
0.208615
0.389296
0.464875
0.252602
0.195731
0.18834
0.184497
0.183218
0.180488
0.178788
0.176442
0.174461
0.172439
0.170222
0.168512
0.166036
0.164649
0.161816
0.161521
0.164457
0.209282
0.389797
0.465457
0.253183
0.19643
0.189066
0.185233
0.183944
0.181216
0.179508
0.177162
0.175175
0.17315
0.170928
0.169215
0.166735
0.165342
0.162507
0.162205
0.165137
0.209903
0.390305
0.466044
0.253764
0.197133
0.189797
0.185976
0.184676
0.181951
0.180234
0.177888
0.175894
0.173868
0.171641
0.169923
0.167439
0.166041
0.163203
0.162894
0.165817
0.210508
0.39082
0.466636
0.254348
0.197842
0.190535
0.186724
0.185415
0.182692
0.180966
0.178621
0.17662
0.174592
0.172359
0.170638
0.168151
0.166747
0.163907
0.163589
0.166498
0.211106
0.391341
0.467233
0.254936
0.198557
0.191278
0.187479
0.18616
0.183439
0.181705
0.17936
0.177352
0.175322
0.173084
0.171359
0.168868
0.167459
0.164617
0.16429
0.167183
0.211703
0.39187
0.467835
0.255529
0.199277
0.192028
0.18824
0.186911
0.184193
0.18245
0.180105
0.17809
0.176059
0.173816
0.172087
0.169592
0.168177
0.165333
0.164997
0.167872
0.2123
0.392404
0.468442
0.256127
0.200005
0.192784
0.189008
0.187668
0.184953
0.183202
0.180857
0.178835
0.176802
0.174554
0.172821
0.170323
0.168903
0.166056
0.165711
0.168567
0.212901
0.392945
0.469054
0.256731
0.200738
0.193546
0.189782
0.188432
0.18572
0.18396
0.181615
0.179587
0.177551
0.175298
0.173562
0.171061
0.169634
0.166785
0.166431
0.169266
0.213505
0.393493
0.469671
0.25734
0.201479
0.194315
0.190563
0.189202
0.186493
0.184724
0.18238
0.180345
0.178308
0.176049
0.174309
0.171805
0.170373
0.167521
0.167158
0.169972
0.214114
0.394047
0.470294
0.257955
0.202226
0.195091
0.19135
0.189979
0.187273
0.185495
0.183152
0.18111
0.179071
0.176807
0.175064
0.172556
0.171118
0.168264
0.167891
0.170684
0.214727
0.394608
0.470921
0.258576
0.20298
0.195873
0.192144
0.190763
0.18806
0.186273
0.18393
0.181881
0.179841
0.177572
0.175825
0.173314
0.17187
0.169014
0.168631
0.171403
0.215347
0.395175
0.471555
0.259202
0.203741
0.196661
0.192945
0.191553
0.188854
0.187058
0.184715
0.18266
0.180617
0.178344
0.176593
0.174079
0.172629
0.16977
0.169378
0.172128
0.215972
0.395749
0.472193
0.259835
0.204509
0.197457
0.193753
0.192351
0.189654
0.18785
0.185508
0.183445
0.181401
0.179123
0.177368
0.174851
0.173395
0.170534
0.170132
0.17286
0.216603
0.39633
0.472837
0.260474
0.205284
0.19826
0.194568
0.193155
0.190462
0.188648
0.186307
0.184238
0.182192
0.179909
0.17815
0.17563
0.174168
0.171305
0.170893
0.173599
0.217241
0.396918
0.473487
0.261119
0.206066
0.199069
0.19539
0.193966
0.191277
0.189454
0.187113
0.185037
0.18299
0.180702
0.178939
0.176416
0.174948
0.172083
0.171661
0.174344
0.217885
0.397512
0.474142
0.261769
0.206856
0.199885
0.196219
0.194784
0.192098
0.190267
0.187927
0.185844
0.183795
0.181502
0.179735
0.177209
0.175736
0.172868
0.172436
0.175097
0.218536
0.398114
0.474803
0.262426
0.207652
0.200709
0.197056
0.19561
0.192928
0.191087
0.188748
0.186658
0.184607
0.18231
0.180539
0.17801
0.17653
0.17366
0.173219
0.175858
0.219193
0.398722
0.475469
0.263089
0.208456
0.20154
0.197899
0.196442
0.193764
0.191914
0.189576
0.18748
0.185427
0.183125
0.18135
0.178818
0.177333
0.17446
0.174008
0.176626
0.219858
0.399338
0.476141
0.263758
0.209268
0.202378
0.198751
0.197282
0.194608
0.192749
0.190412
0.188309
0.186254
0.183947
0.182169
0.179634
0.178142
0.175268
0.174806
0.177401
0.22053
0.399961
0.47682
0.264434
0.210087
0.203223
0.199609
0.19813
0.19546
0.193592
0.191255
0.189145
0.187089
0.184778
0.182995
0.180457
0.17896
0.176083
0.175611
0.178184
0.22121
0.400591
0.477503
0.265115
0.210913
0.204076
0.200475
0.198985
0.196319
0.194441
0.192106
0.189989
0.187932
0.185616
0.18383
0.181288
0.179785
0.176907
0.176424
0.178975
0.221897
0.401229
0.478193
0.265803
0.211747
0.204937
0.201349
0.199848
0.197185
0.195299
0.192965
0.190841
0.188782
0.186461
0.184671
0.182127
0.180618
0.177738
0.177244
0.179774
0.222591
0.401874
0.478889
0.266497
0.212589
0.205805
0.202231
0.200718
0.19806
0.196165
0.193831
0.191701
0.18964
0.187315
0.185521
0.182974
0.181458
0.178577
0.178073
0.180581
0.223293
0.402527
0.479591
0.267198
0.213438
0.206681
0.203121
0.201596
0.198943
0.197038
0.194706
0.192569
0.190507
0.188177
0.186379
0.18383
0.182307
0.179424
0.178909
0.181396
0.224003
0.403188
0.480299
0.267905
0.214296
0.207564
0.204019
0.202482
0.199833
0.19792
0.195589
0.193445
0.191381
0.189047
0.187245
0.184693
0.183164
0.180279
0.179754
0.182219
0.224721
0.403857
0.481012
0.268618
0.215161
0.208456
0.204924
0.203377
0.200732
0.198809
0.196479
0.194329
0.192263
0.189925
0.188119
0.185564
0.184029
0.181143
0.180607
0.183051
0.225447
0.404533
0.481733
0.269339
0.216034
0.209356
0.205838
0.204279
0.201639
0.199707
0.197378
0.195221
0.193154
0.190812
0.189001
0.186444
0.184903
0.182015
0.181468
0.183891
0.226181
0.405218
0.482459
0.270066
0.216916
0.210263
0.20676
0.20519
0.202554
0.200613
0.198286
0.196122
0.194053
0.191707
0.189892
0.187333
0.185785
0.182896
0.182338
0.18474
0.226924
0.405911
0.483192
0.270799
0.217806
0.21118
0.207691
0.206109
0.203478
0.201528
0.199202
0.197032
0.194961
0.19261
0.190792
0.18823
0.186676
0.183785
0.183217
0.185598
0.227674
0.406612
0.483931
0.27154
0.218704
0.212104
0.20863
0.207036
0.20441
0.202451
0.200126
0.19795
0.195878
0.193522
0.1917
0.189136
0.187575
0.184683
0.184104
0.186464
0.228434
0.407321
0.484676
0.272287
0.219611
0.213037
0.209578
0.207972
0.205351
0.203383
0.201059
0.198876
0.196803
0.194444
0.192617
0.190051
0.188484
0.185591
0.185
0.18734
0.229202
0.408039
0.485428
0.273041
0.220527
0.213978
0.210534
0.208917
0.206301
0.204323
0.202001
0.199812
0.197737
0.195374
0.193543
0.190974
0.189401
0.186507
0.185905
0.188225
0.229979
0.408766
0.486187
0.273803
0.221451
0.214928
0.2115
0.20987
0.207259
0.205273
0.202952
0.200757
0.19868
0.196313
0.194478
0.191907
0.190327
0.187432
0.186819
0.189119
0.230765
0.409501
0.486952
0.274571
0.222384
0.215887
0.212474
0.210833
0.208227
0.206231
0.203913
0.20171
0.199632
0.197261
0.195423
0.19285
0.191263
0.188367
0.187743
0.190022
0.23156
0.410246
0.487723
0.275347
0.223325
0.216855
0.213457
0.211804
0.209204
0.207199
0.204882
0.202673
0.200594
0.198219
0.196376
0.193801
0.192208
0.189311
0.188676
0.190935
0.232365
0.410999
0.488502
0.27613
0.224276
0.217832
0.21445
0.212785
0.21019
0.208176
0.205861
0.203646
0.201565
0.199186
0.197339
0.194763
0.193163
0.190265
0.189618
0.191858
0.233178
0.411762
0.489287
0.276921
0.225237
0.218819
0.215452
0.213775
0.211185
0.209163
0.206849
0.204628
0.202545
0.200163
0.198312
0.195733
0.194127
0.191229
0.19057
0.192791
0.234001
0.412533
0.490079
0.277719
0.226206
0.219814
0.216463
0.214774
0.212191
0.210159
0.207847
0.20562
0.203536
0.20115
0.199294
0.196714
0.195101
0.192202
0.191532
0.193733
0.234834
0.413315
0.490878
0.278525
0.227185
0.220819
0.217484
0.215783
0.213205
0.211164
0.208854
0.206621
0.204536
0.202146
0.200287
0.197705
0.196085
0.193186
0.192505
0.194686
0.235677
0.414106
0.491685
0.279338
0.228173
0.221833
0.218515
0.216802
0.21423
0.21218
0.209871
0.207632
0.205546
0.203153
0.201289
0.198706
0.197079
0.19418
0.193487
0.195649
0.23653
0.414906
0.492498
0.28016
0.229171
0.222858
0.219555
0.217831
0.215264
0.213205
0.210899
0.208654
0.206566
0.20417
0.202302
0.199717
0.198083
0.195184
0.194479
0.196623
0.237393
0.415717
0.493318
0.280989
0.230179
0.223892
0.220606
0.218869
0.216309
0.214241
0.211937
0.209686
0.207596
0.205197
0.203325
0.200738
0.199098
0.196198
0.195482
0.197607
0.238266
0.416537
0.494146
0.281827
0.231197
0.224936
0.221666
0.219918
0.217363
0.215287
0.212985
0.210728
0.208637
0.206235
0.204358
0.201771
0.200123
0.197224
0.196496
0.198602
0.23915
0.417368
0.494981
0.282673
0.232225
0.22599
0.222737
0.220977
0.218429
0.216344
0.214043
0.211781
0.209688
0.207283
0.205402
0.202813
0.201159
0.19826
0.19752
0.199608
0.240044
0.418209
0.495823
0.283527
0.233263
0.227054
0.223819
0.222047
0.219504
0.217411
0.215112
0.212844
0.21075
0.208342
0.206457
0.203867
0.202206
0.199307
0.198556
0.200626
0.240949
0.419061
0.496673
0.284389
0.234312
0.228129
0.22491
0.223127
0.220591
0.218488
0.216192
0.213918
0.211823
0.209412
0.207523
0.204932
0.203265
0.200366
0.199602
0.201654
0.241865
0.419923
0.49753
0.28526
0.235371
0.229215
0.226013
0.224218
0.221688
0.219577
0.217283
0.215004
0.212907
0.210494
0.2086
0.206009
0.204334
0.201436
0.20066
0.202694
0.242792
0.420796
0.498395
0.28614
0.236441
0.230311
0.227127
0.22532
0.222796
0.220677
0.218385
0.2161
0.214003
0.211586
0.209689
0.207096
0.205415
0.202517
0.20173
0.203746
0.243731
0.42168
0.499268
0.287029
0.237521
0.231418
0.228251
0.226432
0.223915
0.221788
0.219498
0.217208
0.21511
0.21269
0.210789
0.208196
0.206507
0.20361
0.202811
0.20481
0.244681
0.422575
0.500149
0.287927
0.238613
0.232536
0.229387
0.227556
0.225046
0.22291
0.220623
0.218328
0.216228
0.213806
0.211901
0.209307
0.207611
0.204715
0.203904
0.205886
0.245643
0.423482
0.501037
0.288833
0.239716
0.233665
0.230534
0.228692
0.226188
0.224044
0.221759
0.219459
0.217358
0.214934
0.213024
0.21043
0.208728
0.205832
0.205009
0.206974
0.246617
0.4244
0.501934
0.289749
0.24083
0.234806
0.231693
0.229839
0.227342
0.22519
0.222907
0.220602
0.2185
0.216074
0.21416
0.211565
0.209856
0.206962
0.206126
0.208075
0.247603
0.42533
0.502838
0.290675
0.241956
0.235958
0.232863
0.230998
0.228508
0.226348
0.224067
0.221757
0.219654
0.217226
0.215308
0.212713
0.210997
0.208104
0.207256
0.209188
0.248602
0.426272
0.503751
0.29161
0.243093
0.237122
0.234046
0.232169
0.229686
0.227518
0.22524
0.222925
0.220821
0.21839
0.216468
0.213873
0.21215
0.209259
0.208398
0.210315
0.249613
0.427226
0.504672
0.292555
0.244242
0.238298
0.23524
0.233352
0.230876
0.2287
0.226425
0.224105
0.222
0.219568
0.217642
0.215046
0.213316
0.210426
0.209554
0.211454
0.250636
0.428193
0.505601
0.293509
0.245403
0.239486
0.236447
0.234547
0.232078
0.229895
0.227622
0.225298
0.223192
0.220758
0.218828
0.216233
0.214496
0.211607
0.210723
0.212607
0.251673
0.429172
0.506539
0.294474
0.246577
0.240687
0.237666
0.235755
0.233293
0.231102
0.228832
0.226504
0.224397
0.221961
0.220027
0.217432
0.215688
0.212801
0.211904
0.213773
0.252723
0.430164
0.507486
0.295449
0.247762
0.2419
0.238898
0.236975
0.234521
0.232323
0.230055
0.227723
0.225615
0.223177
0.221239
0.218645
0.216894
0.214009
0.2131
0.214954
0.253787
0.431168
0.508441
0.296434
0.248961
0.243125
0.240142
0.238209
0.235762
0.233556
0.231291
0.228955
0.226846
0.224407
0.222465
0.219871
0.218114
0.215231
0.214309
0.216148
0.254864
0.432186
0.509405
0.297429
0.250172
0.244363
0.2414
0.239455
0.237016
0.234803
0.232541
0.230201
0.228091
0.225651
0.223705
0.221112
0.219347
0.216467
0.215533
0.217356
0.255955
0.433218
0.510378
0.298436
0.251396
0.245615
0.24267
0.240715
0.238283
0.236063
0.233804
0.23146
0.22935
0.226909
0.224959
0.222366
0.220595
0.217717
0.216771
0.21858
0.257061