/*--------------------------------*- C++ -*----------------------------------*\
  =========                 |
  \\      /  F ield         | OpenFOAM: The Open Source CFD Toolbox
   \\    /   O peration     | Website:  https://openfoam.org
    \\  /    A nd           | Version:  8
     \\/     M anipulation  |
\*---------------------------------------------------------------------------*/
FoamFile
{
    version     2.0;
    format      ascii;
    class       volScalarField;
    location    "1000";
    object      k;
}
// * * * * * * * * * * * * * * * * * * * * * * * * * * * * * * * * * * * * * //

dimensions      [0 2 -2 0 0 0 0];

internalField   nonuniform List<scalar> 
8400
(
0.0963136
0.0961384
0.0959621
0.0957849
0.0956066
0.0954272
0.0952465
0.0950644
0.0948808
0.0946956
0.0945086
0.0943197
0.0941288
0.0939358
0.0937406
0.0935431
0.0933431
0.0931406
0.0929356
0.0927278
0.0925173
0.0923041
0.092088
0.0918691
0.0916473
0.0914227
0.0911959
0.0909692
0.0907433
0.0905187
0.0902963
0.090077
0.0898617
0.0896517
0.0894482
0.0892529
0.0890675
0.0888941
0.0887354
0.088594
0.0884735
0.0883782
0.0883129
0.0882838
0.0882989
0.088368
0.0885047
0.0887274
0.0890595
0.0895337
0.0173631
0.0173787
0.0173927
0.017406
0.0174187
0.0174311
0.0174431
0.0174548
0.0174662
0.0174773
0.0174882
0.0174989
0.0175094
0.0175198
0.0175302
0.0175406
0.0175512
0.017562
0.0175731
0.0175847
0.017597
0.01761
0.0176241
0.0176394
0.0176562
0.0176748
0.0176952
0.0177165
0.0177386
0.0177618
0.0177862
0.017812
0.0178395
0.0178687
0.0179001
0.0179339
0.0179705
0.0180103
0.0180538
0.0181015
0.0181542
0.0182126
0.0182776
0.0183504
0.0184324
0.0185254
0.0186316
0.0187541
0.0188967
0.0190649
0.0068945
0.00692077
0.00694708
0.00697335
0.00699957
0.00702574
0.00705185
0.00707792
0.00710394
0.00712993
0.00715588
0.00718181
0.00720773
0.00723365
0.00725959
0.00728557
0.0073116
0.00733773
0.00736396
0.00739035
0.00741691
0.00744371
0.00747078
0.00749822
0.0075261
0.00755451
0.00758324
0.00761209
0.00764106
0.00767019
0.00769949
0.00772899
0.00775871
0.00778869
0.00781896
0.00784957
0.00788056
0.007912
0.00794395
0.00797648
0.0080097
0.0080437
0.00807862
0.0081146
0.00815183
0.00819055
0.00823103
0.00827364
0.00831881
0.00836716
0.00609369
0.00611702
0.00614045
0.00616398
0.00618761
0.00621135
0.0062352
0.00625917
0.00628325
0.00630744
0.00633176
0.0063562
0.00638076
0.00640545
0.00643027
0.00645523
0.00648033
0.00650557
0.00653096
0.0065565
0.00658221
0.00660808
0.00663412
0.00666031
0.00668664
0.00671311
0.00673973
0.0067665
0.00679342
0.00682049
0.00684771
0.00687509
0.00690262
0.00693031
0.00695817
0.00698619
0.00701438
0.00704274
0.00707128
0.0071
0.00712891
0.00715801
0.00718732
0.00721684
0.0072466
0.0072766
0.00730687
0.00733744
0.00736836
0.00739968
0.00611101
0.00613389
0.00615692
0.00618007
0.00620336
0.00622678
0.00625034
0.00627404
0.00629788
0.00632186
0.00634599
0.00637027
0.00639471
0.0064193
0.00644404
0.00646895
0.00649402
0.00651926
0.00654465
0.00657021
0.00659593
0.00662181
0.00664785
0.00667404
0.0067004
0.00672691
0.00675357
0.00678039
0.00680735
0.00683445
0.0068617
0.00688907
0.00691656
0.00694417
0.00697188
0.00699968
0.00702756
0.00705549
0.00708345
0.00711143
0.00713938
0.00716728
0.00719509
0.00722274
0.00725019
0.00727736
0.00730416
0.0073305
0.00735624
0.00738122
0.00632366
0.00634787
0.00637223
0.00639673
0.00642137
0.00644613
0.00647103
0.00649608
0.00652126
0.00654659
0.00657207
0.0065977
0.00662348
0.00664941
0.0066755
0.00670175
0.00672816
0.00675472
0.00678144
0.00680832
0.00683538
0.00686259
0.00688998
0.00691753
0.00694524
0.00697313
0.00700117
0.00702939
0.00705776
0.0070863
0.00711499
0.00714383
0.00717282
0.00720196
0.00723123
0.00726062
0.00729013
0.00731974
0.00734945
0.00737922
0.00740906
0.00743892
0.00746879
0.00749865
0.00752844
0.00755814
0.00758771
0.00761709
0.00764623
0.00767508
0.00646629
0.00649132
0.0065165
0.00654181
0.00656726
0.00659285
0.00661859
0.00664447
0.0066705
0.00669669
0.00672303
0.00674953
0.00677619
0.00680302
0.00683001
0.00685717
0.00688449
0.00691198
0.00693964
0.00696748
0.00699548
0.00702366
0.00705202
0.00708054
0.00710924
0.0071381
0.00716713
0.00719632
0.00722568
0.00725518
0.00728484
0.00731464
0.00734456
0.00737461
0.00740477
0.00743501
0.00746534
0.00749571
0.00752612
0.00755652
0.00758689
0.00761718
0.00764736
0.00767735
0.00770711
0.00773655
0.00776558
0.00779412
0.00782204
0.00784922
0.00666235
0.00668865
0.00671512
0.00674173
0.00676848
0.00679537
0.00682242
0.00684961
0.00687695
0.00690445
0.00693211
0.00695994
0.00698792
0.00701606
0.00704438
0.00707286
0.00710152
0.00713035
0.00715936
0.00718855
0.00721791
0.00724746
0.00727718
0.00730708
0.00733716
0.00736742
0.00739785
0.00742845
0.00745923
0.00749017
0.00752127
0.00755253
0.00758393
0.00761548
0.00764715
0.00767893
0.00771081
0.00774277
0.00777479
0.00780685
0.00783891
0.00787094
0.0079029
0.00793476
0.00796645
0.00799792
0.0080291
0.00805993
0.00809032
0.00812019
0.00682658
0.00685395
0.0068815
0.00690918
0.00693701
0.00696498
0.00699311
0.00702139
0.00704983
0.00707843
0.0071072
0.00713613
0.00716523
0.0071945
0.00722395
0.00725357
0.00728338
0.00731337
0.00734354
0.00737389
0.00740443
0.00743515
0.00746607
0.00749716
0.00752844
0.0075599
0.00759154
0.00762336
0.00765536
0.00768752
0.00771984
0.00775231
0.00778493
0.00781768
0.00785055
0.00788352
0.00791658
0.0079497
0.00798285
0.008016
0.00804913
0.00808217
0.0081151
0.00814785
0.00818035
0.00821254
0.00824433
0.00827563
0.00830634
0.00833635
0.00701143
0.00704006
0.00706886
0.0070978
0.0071269
0.00715614
0.00718554
0.00721509
0.00724481
0.00727469
0.00730475
0.00733497
0.00736538
0.00739596
0.00742672
0.00745766
0.0074888
0.00752011
0.00755162
0.00758332
0.00761521
0.0076473
0.00767958
0.00771204
0.00774471
0.00777756
0.0078106
0.00784382
0.00787723
0.00791081
0.00794456
0.00797847
0.00801253
0.00804674
0.00808106
0.0081155
0.00815003
0.00818462
0.00821925
0.00825389
0.00828849
0.00832302
0.00835742
0.00839164
0.00842561
0.00845924
0.00849246
0.00852516
0.00855723
0.00858856
0.00719346
0.00722339
0.0072535
0.00728377
0.00731418
0.00734475
0.00737548
0.00740637
0.00743743
0.00746867
0.00750007
0.00753165
0.00756342
0.00759536
0.0076275
0.00765982
0.00769234
0.00772505
0.00775796
0.00779106
0.00782437
0.00785787
0.00789158
0.00792549
0.00795959
0.0079939
0.00802841
0.00806311
0.008098
0.00813307
0.00816833
0.00820376
0.00823936
0.0082751
0.00831099
0.008347
0.00838312
0.00841932
0.00845557
0.00849185
0.00852812
0.00856434
0.00860047
0.00863644
0.0086722
0.00870767
0.00874279
0.00877746
0.00881159
0.0088451
0.00736929
0.00740049
0.00743186
0.00746338
0.00749505
0.00752688
0.00755887
0.00759102
0.00762335
0.00765585
0.00768853
0.00772139
0.00775444
0.00778767
0.0078211
0.00785472
0.00788854
0.00792256
0.00795679
0.00799122
0.00802585
0.00806069
0.00809574
0.00813099
0.00816646
0.00820212
0.00823799
0.00827406
0.00831032
0.00834678
0.00838341
0.00842022
0.00845719
0.00849431
0.00853157
0.00856893
0.00860639
0.00864392
0.00868147
0.00871902
0.00875652
0.00879392
0.00883116
0.00886816
0.00890484
0.0089411
0.00897684
0.00901192
0.00904619
0.00907949
0.00757025
0.00760299
0.00763593
0.00766903
0.00770228
0.0077357
0.00776928
0.00780304
0.00783696
0.00787107
0.00790536
0.00793984
0.0079745
0.00800937
0.00804442
0.00807968
0.00811515
0.00815082
0.0081867
0.00822279
0.0082591
0.00829562
0.00833236
0.00836932
0.0084065
0.00844389
0.0084815
0.00851933
0.00855737
0.00859563
0.00863408
0.00867274
0.00871158
0.00875061
0.00878981
0.00882916
0.00886866
0.00890827
0.00894798
0.00898776
0.00902758
0.0090674
0.00910718
0.00914687
0.00918641
0.00922575
0.00926481
0.00930352
0.0093418
0.00937958
0.00773541
0.0077695
0.00780376
0.00783816
0.00787272
0.00790744
0.00794232
0.00797737
0.0080126
0.008048
0.00808358
0.00811935
0.00815532
0.00819147
0.00822783
0.00826439
0.00830115
0.00833812
0.0083753
0.0084127
0.00845032
0.00848815
0.00852619
0.00856446
0.00860295
0.00864165
0.00868056
0.00871969
0.00875902
0.00879856
0.00883828
0.00887819
0.00891827
0.00895851
0.00899888
0.00903936
0.00907994
0.00912058
0.00916124
0.00920188
0.00924244
0.00928288
0.00932311
0.00936305
0.00940261
0.00944167
0.00948007
0.00951768
0.00955428
0.00958964
0.00799242
0.00802854
0.00806487
0.00810135
0.00813798
0.00817476
0.00821171
0.00824882
0.0082861
0.00832355
0.00836118
0.008399
0.008437
0.00847519
0.00851357
0.00855216
0.00859095
0.00862994
0.00866915
0.00870857
0.0087482
0.00878805
0.00882812
0.0088684
0.00890891
0.00894963
0.00899058
0.00903173
0.0090731
0.00911468
0.00915645
0.00919841
0.00924055
0.00928286
0.00932533
0.00936792
0.00941063
0.00945342
0.00949627
0.00953914
0.00958201
0.00962481
0.00966752
0.00971007
0.00975241
0.00979448
0.00983624
0.00987762
0.00991859
0.00995913
0.00829224
0.00833154
0.00837091
0.00841032
0.0084498
0.00848936
0.008529
0.00856872
0.00860855
0.00864847
0.0086885
0.00872864
0.00876891
0.0088093
0.00884981
0.00889047
0.00893126
0.0089722
0.00901329
0.00905452
0.00909591
0.00913744
0.00917912
0.00922094
0.0092629
0.00930499
0.00934719
0.00938949
0.00943187
0.00947431
0.00951678
0.00955925
0.00960167
0.00964399
0.00968617
0.00972812
0.00976979
0.00981106
0.00985185
0.00989203
0.00993145
0.00996997
0.0100074
0.0100435
0.0100781
0.0101109
0.0101416
0.01017
0.0101955
0.0102179
0.00947793
0.00952689
0.00957587
0.00962473
0.00967345
0.00972202
0.00977045
0.00981875
0.00986692
0.00991497
0.00996292
0.0100108
0.0100585
0.0101062
0.0101538
0.0102014
0.0102489
0.0102963
0.0103437
0.010391
0.0104383
0.0104856
0.0105327
0.0105798
0.0106267
0.0106735
0.0107202
0.0107665
0.0108126
0.0108583
0.0109036
0.0109483
0.0109923
0.0110356
0.0110778
0.0111188
0.0111584
0.0111963
0.0112323
0.0112659
0.0112967
0.0113243
0.0113481
0.0113675
0.0113818
0.0113901
0.0113914
0.0113849
0.0113692
0.0113432
0.0137757
0.0138611
0.0139452
0.0140283
0.0141106
0.0141921
0.0142729
0.0143529
0.0144321
0.0145107
0.0145886
0.0146658
0.0147424
0.0148184
0.0148937
0.0149685
0.0150427
0.0151163
0.0151894
0.0152619
0.0153337
0.015405
0.0154755
0.0155453
0.0156143
0.0156823
0.0157492
0.0158149
0.0158791
0.0159417
0.0160023
0.0160606
0.0161161
0.0161685
0.0162171
0.0162612
0.0163001
0.0163329
0.0163584
0.0163755
0.0163824
0.0163776
0.0163588
0.0163234
0.0162682
0.0161894
0.016082
0.0159395
0.0157542
0.0155149
0.0311734
0.0313444
0.031519
0.0316948
0.0318712
0.0320483
0.0322259
0.0324042
0.0325831
0.0327625
0.0329427
0.0331235
0.033305
0.0334872
0.0336702
0.0338539
0.0340384
0.0342236
0.0344095
0.034596
0.0347831
0.0349706
0.0351585
0.0353465
0.0355344
0.035722
0.0359089
0.0360948
0.0362791
0.0364614
0.0366409
0.0368169
0.0369885
0.0371545
0.0373136
0.0374644
0.037605
0.0377333
0.0378468
0.0379424
0.0380164
0.0380646
0.0380814
0.0380601
0.0379922
0.0378665
0.0376674
0.0373741
0.0369596
0.0363857
0.113491
0.113753
0.114019
0.114289
0.114561
0.114837
0.115117
0.1154
0.115687
0.115979
0.116275
0.116575
0.11688
0.117189
0.117503
0.117822
0.118145
0.118473
0.118806
0.119144
0.119487
0.119835
0.120188
0.120546
0.120908
0.121276
0.121649
0.122027
0.12241
0.122797
0.12319
0.123587
0.123989
0.124395
0.124805
0.125218
0.125635
0.126055
0.126478
0.126902
0.127326
0.127751
0.128174
0.128594
0.12901
0.129419
0.129818
0.130205
0.130575
0.130922
0.941092
0.915545
0.891422
0.868589
0.846896
0.82621
0.806399
0.787397
0.769157
0.751636
0.734795
0.7186
0.703018
0.68802
0.673577
0.659663
0.646254
0.633325
0.620856
0.608825
0.597212
0.585999
0.575169
0.564704
0.55459
0.54481
0.535352
0.526201
0.517346
0.508774
0.500475
0.492437
0.484651
0.477106
0.469796
0.46271
0.455842
0.449185
0.442718
0.43642
0.43028
0.424289
0.418435
0.412706
0.407087
0.40156
0.396097
0.390656
0.385163
0.379476
0.929455
0.887359
0.848051
0.811243
0.776787
0.744518
0.714304
0.685979
0.659388
0.634391
0.610863
0.588687
0.567762
0.547994
0.529297
0.511595
0.494816
0.478897
0.46378
0.449409
0.435735
0.422714
0.410303
0.398464
0.387162
0.376362
0.366035
0.356153
0.346689
0.337619
0.328919
0.320568
0.312546
0.304833
0.29741
0.290259
0.283365
0.27671
0.270292
0.264112
0.258157
0.252417
0.24688
0.241536
0.236375
0.231387
0.226563
0.22189
0.217357
0.212946
0.929404
0.887197
0.847667
0.810679
0.77604
0.743573
0.713106
0.684479
0.657546
0.632176
0.608248
0.585655
0.564298
0.544089
0.524946
0.506796
0.489572
0.473211
0.457656
0.442857
0.428764
0.415334
0.402526
0.390303
0.378628
0.367471
0.356802
0.346591
0.336815
0.327447
0.318467
0.309853
0.301586
0.293648
0.286024
0.278696
0.271651
0.264874
0.258353
0.252076
0.246032
0.240209
0.2346
0.229193
0.223982
0.218959
0.214115
0.209445
0.204942
0.2006
0.929405
0.8875
0.848317
0.81165
0.777288
0.74504
0.714738
0.686227
0.659369
0.63404
0.610127
0.587527
0.566147
0.545902
0.526713
0.508509
0.491225
0.4748
0.459179
0.444311
0.430149
0.416649
0.403771
0.391478
0.379735
0.368511
0.357775
0.3475
0.337661
0.328233
0.319195
0.310525
0.302204
0.294214
0.286539
0.279161
0.272068
0.265245
0.258678
0.252357
0.24627
0.240407
0.234757
0.229311
0.224062
0.219001
0.214121
0.209414
0.204874
0.200494
0.929405
0.887507
0.848309
0.811599
0.777181
0.744876
0.71452
0.685964
0.659072
0.633721
0.609795
0.587191
0.565815
0.54558
0.526406
0.508221
0.490958
0.474556
0.45896
0.444117
0.429979
0.416504
0.403651
0.391382
0.379662
0.368459
0.357744
0.34749
0.337669
0.328259
0.319236
0.310581
0.302275
0.294298
0.286634
0.279267
0.272183
0.265368
0.258809
0.252494
0.246412
0.240552
0.234905
0.22946
0.22421
0.219147
0.214262
0.209548
0.204999
0.200606
0.929405
0.88753
0.848379
0.811728
0.777377
0.745142
0.714854
0.686362
0.659527
0.634224
0.610339
0.587768
0.566417
0.5462
0.527039
0.508861
0.491602
0.4752
0.459599
0.44475
0.430604
0.417119
0.404254
0.391972
0.380238
0.369021
0.358291
0.348021
0.338185
0.328758
0.31972
0.311049
0.302726
0.294732
0.287052
0.279669
0.272568
0.265737
0.259161
0.252829
0.246729
0.240851
0.235185
0.229722
0.224452
0.219367
0.21446
0.209722
0.205147
0.200727
0.929405
0.887535
0.848393
0.811748
0.777397
0.745156
0.714856
0.686348
0.659495
0.634174
0.61027
0.587682
0.566316
0.546086
0.526914
0.508728
0.491461
0.475054
0.459451
0.4446
0.430454
0.41697
0.404106
0.391827
0.380097
0.368884
0.358159
0.347893
0.338062
0.328641
0.319607
0.310941
0.302623
0.294635
0.286959
0.27958
0.272484
0.265655
0.259083
0.252753
0.246655
0.240778
0.235112
0.229647
0.224375
0.219287
0.214376
0.209632
0.205049
0.20062
0.929405
0.887538
0.848403
0.811769
0.77743
0.745202
0.714917
0.686425
0.659589
0.634284
0.610396
0.587824
0.566472
0.546255
0.527094
0.508917
0.491659
0.475259
0.459661
0.444814
0.430671
0.417188
0.404325
0.392045
0.380314
0.369098
0.35837
0.3481
0.338265
0.328838
0.319799
0.311127
0.302802
0.294806
0.287123
0.279736
0.272631
0.265794
0.259211
0.252871
0.246762
0.240873
0.235195
0.229717
0.22443
0.219327
0.214398
0.209636
0.205034
0.200583
0.929405
0.887539
0.848407
0.811776
0.777441
0.745214
0.71493
0.686437
0.659598
0.634289
0.610397
0.587818
0.56646
0.546237
0.52707
0.508887
0.491623
0.475217
0.459614
0.444763
0.430616
0.41713
0.404265
0.391982
0.380249
0.369032
0.358302
0.348032
0.338195
0.328768
0.319729
0.311056
0.302731
0.294735
0.287051
0.279663
0.272556
0.265718
0.259133
0.252791
0.246679
0.240787
0.235104
0.229621
0.224329
0.219219
0.214282
0.209511
0.204899
0.200437
0.929405
0.88754
0.848409
0.81178
0.777446
0.745222
0.714941
0.68645
0.659614
0.634308
0.610419
0.587843
0.566489
0.546268
0.527104
0.508924
0.491663
0.47526
0.459659
0.44481
0.430664
0.417179
0.404314
0.392032
0.380299
0.369081
0.358351
0.348079
0.338241
0.328812
0.319771
0.311095
0.302767
0.294768
0.28708
0.279688
0.272577
0.265733
0.259143
0.252794
0.246675
0.240775
0.235084
0.229592
0.224289
0.219167
0.214218
0.209434
0.204806
0.200329
0.929405
0.88754
0.848409
0.81178
0.777446
0.745222
0.714941
0.68645
0.659614
0.634307
0.610418
0.587843
0.566488
0.546267
0.527103
0.508923
0.491661
0.475257
0.459656
0.444806
0.43066
0.417174
0.404309
0.392026
0.380291
0.369073
0.358341
0.348069
0.338229
0.328799
0.319755
0.311078
0.302747
0.294745
0.287054
0.279659
0.272545
0.265697
0.259102
0.252748
0.246623
0.240717
0.235019
0.229518
0.224206
0.219075
0.214115
0.209318
0.204678
0.200186
0.929405
0.887539
0.848407
0.811776
0.77744
0.745214
0.71493
0.686437
0.659597
0.634288
0.610395
0.587816
0.566457
0.546233
0.527065
0.508882
0.491617
0.47521
0.459606
0.444754
0.430605
0.417118
0.40425
0.391966
0.38023
0.36901
0.358277
0.348003
0.338163
0.328732
0.319687
0.311009
0.302677
0.294674
0.286982
0.279585
0.272469
0.265618
0.259021
0.252664
0.246536
0.240625
0.234921
0.229415
0.224097
0.218958
0.213989
0.209183
0.204532
0.200029
0.929405
0.887538
0.848403
0.811769
0.77743
0.745201
0.714917
0.686424
0.659587
0.634281
0.610393
0.58782
0.566467
0.546249
0.527087
0.508909
0.491649
0.475247
0.459647
0.444797
0.430651
0.417166
0.404299
0.392016
0.38028
0.36906
0.358326
0.34805
0.338208
0.328774
0.319726
0.311045
0.302709
0.294701
0.287004
0.279602
0.272479
0.265623
0.259018
0.252653
0.246517
0.240597
0.234884
0.229367
0.224037
0.218885
0.213903
0.209082
0.204416
0.199895
0.929405
0.887535
0.848393
0.811748
0.777397
0.745155
0.714855
0.686346
0.659493
0.634171
0.610266
0.587677
0.56631
0.546079
0.526905
0.508716
0.491448
0.475039
0.459433
0.444579
0.430429
0.416941
0.404074
0.39179
0.380054
0.368835
0.358103
0.347829
0.337989
0.328558
0.319514
0.310835
0.302502
0.294497
0.286803
0.279404
0.272284
0.265429
0.258827
0.252463
0.246328
0.240408
0.234694
0.229176
0.223844
0.218689
0.213703
0.208876
0.204203
0.199675
0.929405
0.88753
0.848379
0.811728
0.777377
0.745141
0.714853
0.68636
0.659524
0.63422
0.610333
0.587761
0.566409
0.54619
0.527027
0.508846
0.491584
0.475178
0.459575
0.444721
0.430571
0.41708
0.404209
0.39192
0.38018
0.368954
0.358215
0.347935
0.338087
0.328647
0.319594
0.310907
0.302565
0.294551
0.286847
0.279438
0.272308
0.265443
0.25883
0.252455
0.246308
0.240376
0.234649
0.229118
0.223771
0.218601
0.213599
0.208755
0.204063
0.199515
0.929405
0.887507
0.848309
0.811599
0.777181
0.744875
0.714518
0.685961
0.659069
0.633716
0.609789
0.587184
0.565806
0.545569
0.526392
0.508204
0.490938
0.474533
0.458933
0.444085
0.429943
0.416463
0.403603
0.391326
0.379598
0.368387
0.357661
0.347395
0.337561
0.328136
0.319096
0.310422
0.302094
0.294093
0.286401
0.279004
0.271885
0.26503
0.258427
0.252061
0.245922
0.239998
0.234278
0.228752
0.22341
0.218243
0.213242
0.2084
0.203707
0.199157
0.929405
0.8875
0.848317
0.811649
0.777287
0.745039
0.714736
0.686224
0.659365
0.634035
0.61012
0.587518
0.566136
0.545888
0.526696
0.508489
0.491201
0.474772
0.459146
0.444273
0.430105
0.416598
0.403712
0.391411
0.379658
0.368423
0.357675
0.347387
0.337533
0.328088
0.319031
0.310339
0.301994
0.293977
0.286272
0.278861
0.271729
0.264863
0.258248
0.251872
0.245724
0.239792
0.234064
0.228532
0.223185
0.218015
0.213013
0.208171
0.203484
0.198945
0.929404
0.887197
0.847667
0.810679
0.77604
0.743571
0.713104
0.684476
0.657542
0.63217
0.608241
0.585646
0.564287
0.544076
0.52493
0.506778
0.48955
0.473185
0.457627
0.442823
0.428725
0.41529
0.402477
0.390247
0.378566
0.367402
0.356725
0.346506
0.336721
0.327344
0.318354
0.30973
0.301452
0.293501
0.285862
0.278518
0.271455
0.264657
0.258114
0.251812
0.24574
0.239889
0.234249
0.22881
0.223566
0.218511
0.21364
0.208951
0.204446
0.200135
0.929455
0.887359
0.848051
0.811243
0.776787
0.744517
0.714303
0.685978
0.659388
0.634391
0.610863
0.588689
0.567765
0.547998
0.529303
0.511603
0.494828
0.478914
0.463801
0.449436
0.43577
0.422759
0.410359
0.398534
0.387248
0.376469
0.366167
0.356314
0.346886
0.337857
0.329208
0.320917
0.312967
0.305339
0.29802
0.290993
0.284247
0.277769
0.271549
0.265577
0.259846
0.254349
0.24908
0.244036
0.239218
0.234628
0.230275
0.226181
0.222387
0.218984
0.941092
0.915545
0.891422
0.868589
0.846896
0.82621
0.806398
0.787395
0.769154
0.75163
0.734787
0.718589
0.703004
0.688001
0.673554
0.659634
0.646219
0.633283
0.620805
0.608764
0.59714
0.585914
0.575068
0.564586
0.554452
0.544649
0.535165
0.525984
0.517095
0.508483
0.500138
0.492048
0.484201
0.476588
0.469199
0.462022
0.45505
0.448272
0.44168
0.435265
0.429019
0.422932
0.416996
0.411202
0.405542
0.400005
0.394582
0.38926
0.384027
0.378863
0.172148
0.0506608
0.0302738
0.0280015
0.0268558
0.0264873
0.0256966
0.0252157
0.0245533
0.0240045
0.0234478
0.0228469
0.0223884
0.0217321
0.0213703
0.0206368
0.0205642
0.0213247
0.0346579
0.121222
0.172562
0.0509058
0.0304902
0.028216
0.0270688
0.026696
0.0259027
0.0254174
0.0247523
0.0241994
0.0236399
0.0230351
0.0225736
0.0219135
0.0215488
0.0208114
0.0207369
0.0215007
0.0348822
0.121559
0.17298
0.0511434
0.030708
0.0284329
0.0272844
0.0269072
0.0261114
0.0256217
0.0249539
0.0243968
0.0238345
0.0232256
0.0227613
0.0220973
0.0217297
0.0209884
0.0209119
0.0216788
0.0351054
0.121864
0.173403
0.051379
0.0309276
0.0286523
0.0275026
0.027121
0.0263226
0.0258285
0.025158
0.0245967
0.0240315
0.0234187
0.0229514
0.0222836
0.021913
0.0211678
0.0210892
0.0218585
0.035314
0.122174
0.17383
0.0516153
0.0311495
0.0288744
0.0277234
0.0273374
0.0265365
0.026038
0.0253647
0.0247991
0.0242311
0.0236142
0.023144
0.0224724
0.0220987
0.0213497
0.0212688
0.0220387
0.0355178
0.122489
0.174261
0.0518531
0.0313739
0.0290992
0.027947
0.0275565
0.0267531
0.02625
0.025574
0.0250042
0.0244333
0.0238124
0.0233392
0.0226637
0.0222869
0.0215341
0.0214507
0.0222202
0.03572
0.122809
0.174697
0.0520931
0.0316009
0.0293267
0.0281734
0.0277783
0.0269724
0.0264648
0.025786
0.0252119
0.0246381
0.0240131
0.0235369
0.0228576
0.0224776
0.0217211
0.0216349
0.0224034
0.0359223
0.123133
0.175137
0.0523357
0.0318308
0.0295571
0.0284026
0.0280029
0.0271945
0.0266822
0.0260007
0.0254223
0.0248455
0.0242165
0.0237372
0.023054
0.0226709
0.0219105
0.0218216
0.0225885
0.0361254
0.123462
0.175581
0.0525809
0.0320635
0.0297903
0.0286347
0.0282303
0.0274194
0.0269025
0.0262182
0.0256354
0.0250557
0.0244226
0.0239402
0.0232531
0.0228668
0.0221025
0.0220108
0.0227757
0.03633
0.123796
0.17603
0.052829
0.0322992
0.0300264
0.0288698
0.0284606
0.0276472
0.0271255
0.0264385
0.0258513
0.0252686
0.0246314
0.0241459
0.023455
0.0230654
0.0222971
0.0222025
0.0229653
0.0365365
0.124134
0.176484
0.0530801
0.032538
0.0302654
0.0291078
0.0286937
0.0278779
0.0273515
0.0266617
0.02607
0.0254844
0.0248429
0.0243543
0.0236595
0.0232667
0.0224943
0.0223969
0.0231572
0.0367452
0.124477
0.176942
0.0533341
0.0327798
0.0305074
0.0293488
0.0289299
0.0281116
0.0275803
0.0268878
0.0262916
0.0257029
0.0250573
0.0245655
0.0238668
0.0234707
0.0226943
0.0225938
0.0233516
0.0369561
0.124824
0.177405
0.0535911
0.0330247
0.0307525
0.0295929
0.029169
0.0283483
0.0278121
0.0271168
0.0265161
0.0259244
0.0252746
0.0247795
0.0240769
0.0236774
0.0228969
0.0227934
0.0235486
0.0371696
0.125176
0.177872
0.0538512
0.0332728
0.0310007
0.0298402
0.0294113
0.0285881
0.028047
0.0273489
0.0267436
0.0261488
0.0254948
0.0249965
0.0242899
0.023887
0.0231024
0.0229958
0.0237483
0.0373857
0.125533
0.178345
0.0541145
0.0335241
0.0312521
0.0300906
0.0296566
0.028831
0.0282849
0.027584
0.0269741
0.0263763
0.0257179
0.0252164
0.0245058
0.0240995
0.0233107
0.0232009
0.0239506
0.0376046
0.125895
0.178822
0.0543809
0.0337787
0.0315066
0.0303443
0.0299051
0.029077
0.0285259
0.0278222
0.0272076
0.0266067
0.0259441
0.0254392
0.0247246
0.0243148
0.0235219
0.0234089
0.0241558
0.0378263
0.126262
0.179304
0.0546504
0.0340366
0.0317644
0.0306012
0.0301568
0.0293263
0.0287701
0.0280636
0.0274443
0.0268403
0.0261733
0.0256651
0.0249464
0.0245331
0.023736
0.0236198
0.0243638
0.038051
0.126634
0.179791
0.0549232
0.0342979
0.0320255
0.0308615
0.0304117
0.0295789
0.0290175
0.0283082
0.0276841
0.027077
0.0264056
0.0258941
0.0251713
0.0247545
0.0239531
0.0238336
0.0245748
0.0382787
0.12701
0.180283
0.0551992
0.0345626
0.0322899
0.0311251
0.03067
0.0298348
0.0292682
0.028556
0.0279272
0.0273169
0.0266412
0.0261262
0.0253993
0.0249789
0.0241733
0.0240504
0.0247887
0.0385095
0.127392
0.180781
0.0554784
0.0348307
0.0325578
0.0313923
0.0309317
0.0300941
0.0295222
0.0288072
0.0281736
0.02756
0.0268799
0.0263615
0.0256305
0.0252064
0.0243965
0.0242702
0.0250056
0.0387435
0.12778
0.181283
0.055761
0.0351024
0.0328291
0.0316629
0.0311968
0.0303568
0.0297796
0.0290617
0.0284233
0.0278065
0.0271219
0.0266001
0.0258648
0.0254371
0.0246229
0.0244932
0.0252257
0.0389807
0.128172
0.181791
0.0560469
0.0353776
0.033104
0.0319371
0.0314654
0.030623
0.0300404
0.0293197
0.0286764
0.0280563
0.0273673
0.026842
0.0261025
0.0256711
0.0248526
0.0247193
0.0254489
0.0392213
0.12857
0.182304
0.0563362
0.0356565
0.0333825
0.0322149
0.0317376
0.0308928
0.0303048
0.0295812
0.0289329
0.0283096
0.0276161
0.0270872
0.0263435
0.0259083
0.0250855
0.0249486
0.0256753
0.0394652
0.128974
0.182822
0.0566289
0.035939
0.0336646
0.0324964
0.0320134
0.0311662
0.0305728
0.0298463
0.029193
0.0285664
0.0278684
0.0273359
0.0265879
0.0261489
0.0253217
0.0251812
0.025905
0.0397126
0.129383
0.183346
0.0569251
0.0362253
0.0339504
0.0327816
0.0322928
0.0314433
0.0308443
0.0301149
0.0294567
0.0288267
0.0281242
0.027588
0.0268358
0.0263929
0.0255613
0.0254172
0.0261381
0.0399636
0.129797
0.183875
0.0572248
0.0365154
0.0342399
0.0330707
0.0325761
0.0317241
0.0311196
0.0303873
0.029724
0.0290906
0.0283835
0.0278437
0.0270872
0.0266404
0.0258044
0.0256566
0.0263746
0.0402181
0.130218
0.18441
0.0575281
0.0368094
0.0345334
0.0333636
0.0328631
0.0320088
0.0313987
0.0306634
0.029995
0.0293583
0.0286466
0.0281031
0.0273422
0.0268915
0.026051
0.0258994
0.0266145
0.0404763
0.130644
0.18495
0.057835
0.0371073
0.0348307
0.0336605
0.033154
0.0322974
0.0316815
0.0309433
0.0302698
0.0296297
0.0289133
0.0283661
0.0276009
0.0271462
0.0263012
0.0261458
0.026858
0.0407383
0.131076
0.185496
0.0581456
0.0374092
0.035132
0.0339614
0.0334488
0.0325899
0.0319683
0.0312272
0.0305484
0.0299049
0.0291839
0.0286328
0.0278633
0.0274045
0.0265551
0.0263958
0.0271052
0.041004
0.131515
0.186048
0.0584598
0.0377151
0.0354373
0.0342664
0.0337477
0.0328864
0.0322591
0.0315149
0.030831
0.030184
0.0294583
0.0289034
0.0281295
0.0276666
0.0268127
0.0266494
0.027356
0.0412737
0.131959
0.186606
0.0587779
0.0380252
0.0357468
0.0345756
0.0340507
0.033187
0.0325539
0.0318068
0.0311176
0.030467
0.0297367
0.0291779
0.0283995
0.0279325
0.0270741
0.0269068
0.0276106
0.0415473
0.13241
0.187169
0.0590998
0.0383395
0.0360604
0.034889
0.0343578
0.0334918
0.0328528
0.0321027
0.0314082
0.0307541
0.030019
0.0294563
0.0286736
0.0282023
0.0273394
0.027168
0.027869
0.041825
0.132867
0.187739
0.0594255
0.0386581
0.0363783
0.0352066
0.0346691
0.0338009
0.0331559
0.0324028
0.031703
0.0310453
0.0303055
0.0297388
0.0289516
0.0284761
0.0276087
0.0274332
0.0281314
0.0421067
0.13333
0.188314
0.0597552
0.0389811
0.0367006
0.0355287
0.0349848
0.0341143
0.0334633
0.0327071
0.032002
0.0313407
0.0305961
0.0300255
0.0292337
0.028754
0.0278819
0.0277023
0.0283977
0.0423927
0.1338
0.188896
0.060089
0.0393085
0.0370272
0.0358553
0.0353049
0.034432
0.033775
0.0330158
0.0323053
0.0316404
0.030891
0.0303163
0.0295201
0.0290359
0.0281593
0.0279754
0.0286681
0.042683
0.134277
0.189483
0.0604268
0.0396404
0.0373584
0.0361864
0.0356295
0.0347543
0.0340912
0.033329
0.032613
0.0319444
0.0311902
0.0306114
0.0298107
0.0293221
0.0284409
0.0282527
0.0289427
0.0429776
0.13476
0.190077
0.0607688
0.0399769
0.0376941
0.0365221
0.0359586
0.0350811
0.0344119
0.0336466
0.0329251
0.0322529
0.0314938
0.0309109
0.0301056
0.0296126
0.0287267
0.0285342
0.0292215
0.0432767
0.13525
0.190678
0.061115
0.040318
0.0380345
0.0368625
0.0362923
0.0354126
0.0347372
0.0339688
0.0332418
0.0325659
0.0318019
0.0312148
0.030405
0.0299075
0.029017
0.0288199
0.0295046
0.0435804
0.135748
0.191284
0.0614655
0.040664
0.0383797
0.0372078
0.0366308
0.0357488
0.0350672
0.0342957
0.0335632
0.0328835
0.0321146
0.0315233
0.0307089
0.0302068
0.0293116
0.0291101
0.0297921
0.0438886
0.136252
0.191897
0.0618203
0.0410147
0.0387297
0.0375579
0.0369742
0.0360899
0.035402
0.0346274
0.0338893
0.0332058
0.032432
0.0318364
0.0310174
0.0305107
0.0296108
0.0294048
0.0300842
0.0442016
0.136764
0.192517
0.0621796
0.0413705
0.0390846
0.037913
0.0373224
0.0364359
0.0357417
0.0349639
0.0342202
0.0335329
0.0327541
0.0321543
0.0313306
0.0308192
0.0299147
0.029704
0.0303808
0.0445195
0.137283
0.193144
0.0625434
0.0417312
0.0394446
0.0382732
0.0376757
0.0367869
0.0360863
0.0353054
0.034556
0.0338649
0.0330811
0.0324769
0.0316486
0.0311325
0.0302232
0.0300079
0.0306822
0.0448422
0.13781
0.193777
0.0629118
0.0420971
0.0398096
0.0386386
0.038034
0.037143
0.036436
0.0356519
0.0348969
0.0342019
0.0334131
0.0328045
0.0319715
0.0314506
0.0305366
0.0303165
0.0309883
0.04517
0.138344
0.194417
0.0632849
0.0424682
0.0401799
0.0390092
0.0383976
0.0375044
0.0367908
0.0360036
0.0352429
0.0345439
0.0337501
0.0331371
0.0322994
0.0317737
0.0308549
0.03063
0.0312994
0.0455029
0.138887
0.195063
0.0636627
0.0428446
0.0405555
0.0393852
0.0387664
0.037871
0.037151
0.0363605
0.035594
0.0348912
0.0340923
0.0334748
0.0326324
0.0321018
0.0311783
0.0309485
0.0316154
0.0458411
0.139437
0.195717
0.0640454
0.0432265
0.0409365
0.0397667
0.0391407
0.0382431
0.0375165
0.0367228
0.0359506
0.0352437
0.0344398
0.0338177
0.0329706
0.032435
0.0315068
0.0312721
0.0319365
0.0461846
0.139995
0.196378
0.064433
0.0436138
0.0413231
0.0401537
0.0395205
0.0386207
0.0378875
0.0370905
0.0363125
0.0356017
0.0347927
0.034166
0.0333142
0.0327736
0.0318405
0.0316008
0.0322629
0.0465336
0.140562
0.197046
0.0648257
0.0440068
0.0417152
0.0405465
0.0399059
0.0390039
0.038264
0.0374639
0.03668
0.0359651
0.035151
0.0345197
0.0336631
0.0331174
0.0321796
0.0319348
0.0325946
0.0468881
0.141137
0.197722
0.0652235
0.0444056
0.0421131
0.040945
0.0402971
0.0393929
0.0386463
0.0378429
0.0370532
0.0363342
0.035515
0.034879
0.0340176
0.0334668
0.0325242
0.0322742
0.0329317
0.0472483
0.14172
0.198405
0.0656264
0.0448102
0.0425169
0.0413495
0.0406941
0.0397877
0.0390344
0.0382277
0.0374321
0.036709
0.0358846
0.035244
0.0343778
0.0338218
0.0328743
0.0326191
0.0332744
0.0476144
0.142313
0.199095
0.0660347
0.0452207
0.0429266
0.04176
0.0410971
0.0401885
0.0394284
0.0386185
0.0378169
0.0370897