/*--------------------------------*- C++ -*----------------------------------*\
  =========                 |
  \\      /  F ield         | OpenFOAM: The Open Source CFD Toolbox
   \\    /   O peration     | Website:  https://openfoam.org
    \\  /    A nd           | Version:  8
     \\/     M anipulation  |
\*---------------------------------------------------------------------------*/
FoamFile
{
    version     2.0;
    format      ascii;
    class       volVectorField;
    location    "1000";
    object      U;
}
// * * * * * * * * * * * * * * * * * * * * * * * * * * * * * * * * * * * * * //

dimensions      [0 1 -1 0 0 0 0];

internalField   nonuniform List<vector> 
8400
(
(-13.7409 -0.0754708 -1.87034e-15)
(-13.7442 -0.076212 -1.87306e-15)
(-13.7468 -0.0771563 -1.87555e-15)
(-13.7496 -0.0781848 -1.88205e-15)
(-13.7524 -0.079262 -1.88586e-15)
(-13.7553 -0.0803772 -1.88495e-15)
(-13.7581 -0.0815273 -1.8864e-15)
(-13.7609 -0.0827123 -1.88804e-15)
(-13.7637 -0.0839333 -1.89011e-15)
(-13.7664 -0.085192 -1.89577e-15)
(-13.7691 -0.0864907 -1.89844e-15)
(-13.7718 -0.0878317 -1.89704e-15)
(-13.7744 -0.0892182 -1.89807e-15)
(-13.7769 -0.0906533 -1.89944e-15)
(-13.7794 -0.0921406 -1.90283e-15)
(-13.7818 -0.0936844 -1.90927e-15)
(-13.784 -0.0952893 -1.9078e-15)
(-13.7862 -0.0969603 -1.90645e-15)
(-13.7882 -0.0987034 -1.90742e-15)
(-13.79 -0.100525 -1.90868e-15)
(-13.7916 -0.102433 -1.91025e-15)
(-13.7931 -0.104436 -1.9119e-15)
(-13.7942 -0.106542 -1.91359e-15)
(-13.7951 -0.108763 -1.9153e-15)
(-13.7956 -0.111115 -1.91689e-15)
(-13.7957 -0.113616 -1.91883e-15)
(-13.7954 -0.116293 -1.9169e-15)
(-13.7944 -0.119165 -1.91726e-15)
(-13.7928 -0.122248 -1.92228e-15)
(-13.7904 -0.125564 -1.92514e-15)
(-13.787 -0.12914 -1.92785e-15)
(-13.7825 -0.133007 -1.93067e-15)
(-13.7768 -0.137205 -1.92931e-15)
(-13.7697 -0.141775 -1.93016e-15)
(-13.7609 -0.146769 -1.93577e-15)
(-13.7501 -0.152248 -1.9395e-15)
(-13.7371 -0.158282 -1.94314e-15)
(-13.7215 -0.164958 -1.94686e-15)
(-13.7029 -0.172379 -1.95071e-15)
(-13.6807 -0.180674 -1.95362e-15)
(-13.6543 -0.190001 -1.95756e-15)
(-13.6231 -0.200564 -1.95932e-15)
(-13.5862 -0.212626 -1.96357e-15)
(-13.5424 -0.226543 -1.97272e-15)
(-13.4904 -0.242816 -1.98013e-15)
(-13.4286 -0.262162 -1.98684e-15)
(-13.3555 -0.285555 -1.99318e-15)
(-13.2673 -0.314332 -2.0025e-15)
(-13.1546 -0.351049 -2.01903e-15)
(-13.0056 -0.401619 -2.037e-15)
(-15.7298 0.0789194 -1.1701e-15)
(-15.7331 0.0799542 -1.17054e-15)
(-15.7354 0.0809789 -1.17103e-15)
(-15.7377 0.0820185 -1.17488e-15)
(-15.74 0.0830618 -1.17746e-15)
(-15.7423 0.0841124 -1.17658e-15)
(-15.7446 0.0851743 -1.17589e-15)
(-15.7468 0.0862504 -1.17487e-15)
(-15.7491 0.087343 -1.17656e-15)
(-15.7513 0.0884536 -1.18134e-15)
(-15.7535 0.0895833 -1.18298e-15)
(-15.7556 0.0907328 -1.18097e-15)
(-15.7577 0.0919027 -1.17843e-15)
(-15.7598 0.0930933 -1.17413e-15)
(-15.7618 0.0943046 -1.17818e-15)
(-15.7636 0.0955367 -1.1944e-15)
(-15.7654 0.0967892 -1.19572e-15)
(-15.7671 0.0980615 -1.19285e-15)
(-15.7687 0.0993527 -1.19071e-15)
(-15.7701 0.100661 -1.18872e-15)
(-15.7713 0.101985 -1.18678e-15)
(-15.7724 0.103323 -1.18482e-15)
(-15.7732 0.104671 -1.18281e-15)
(-15.7737 0.106024 -1.18073e-15)
(-15.7739 0.107373 -1.17862e-15)
(-15.7738 0.108702 -1.17694e-15)
(-15.7732 0.110001 -1.17231e-15)
(-15.7722 0.111273 -1.16828e-15)
(-15.7707 0.112513 -1.16695e-15)
(-15.7686 0.11371 -1.16481e-15)
(-15.7659 0.114853 -1.16229e-15)
(-15.7623 0.115924 -1.15957e-15)
(-15.7578 0.116905 -1.15419e-15)
(-15.7523 0.117772 -1.1495e-15)
(-15.7456 0.118498 -1.14737e-15)
(-15.7374 0.119047 -1.14429e-15)
(-15.7277 0.119381 -1.14077e-15)
(-15.7161 0.119447 -1.13704e-15)
(-15.7023 0.119186 -1.13077e-15)
(-15.686 0.118517 -1.12604e-15)
(-15.6668 0.11734 -1.1234e-15)
(-15.6443 0.11552 -1.11608e-15)
(-15.6179 0.112875 -1.10925e-15)
(-15.587 0.109143 -1.10492e-15)
(-15.5508 0.103914 -1.09798e-15)
(-15.5087 0.0965598 -1.09144e-15)
(-15.46 0.0862394 -1.08313e-15)
(-15.4035 0.0718302 -1.07325e-15)
(-15.3352 0.0507317 -1.06575e-15)
(-15.2505 0.0158888 -1.0584e-15)
(-16.1252 -0.066374 -1.50754e-15)
(-16.1234 -0.0667894 -1.5087e-15)
(-16.1225 -0.067503 -1.50978e-15)
(-16.1216 -0.0683368 -1.5127e-15)
(-16.1209 -0.0692399 -1.51485e-15)
(-16.1201 -0.0701917 -1.51451e-15)
(-16.1192 -0.0711844 -1.5145e-15)
(-16.1184 -0.072215 -1.5147e-15)
(-16.1175 -0.073283 -1.51506e-15)
(-16.1167 -0.0743891 -1.51719e-15)
(-16.1157 -0.0755352 -1.51844e-15)
(-16.1147 -0.0767238 -1.51716e-15)
(-16.1137 -0.0779581 -1.51596e-15)
(-16.1126 -0.0792418 -1.51445e-15)
(-16.1114 -0.0805795 -1.51297e-15)
(-16.1102 -0.0819763 -1.5146e-15)
(-16.1089 -0.0834384 -1.51563e-15)
(-16.1074 -0.0849725 -1.51462e-15)
(-16.1058 -0.0865865 -1.51362e-15)
(-16.1041 -0.0882895 -1.51274e-15)
(-16.1022 -0.0900926 -1.51189e-15)
(-16.1001 -0.0920083 -1.511e-15)
(-16.0978 -0.0940503 -1.51005e-15)
(-16.0952 -0.0962395 -1.50907e-15)
(-16.0923 -0.0985919 -1.50809e-15)
(-16.0891 -0.101127 -1.50721e-15)
(-16.0854 -0.103871 -1.50445e-15)
(-16.0813 -0.10686 -1.50228e-15)
(-16.0766 -0.110129 -1.50253e-15)
(-16.0714 -0.113715 -1.50259e-15)
(-16.0653 -0.117663 -1.50258e-15)
(-16.0585 -0.122023 -1.50275e-15)
(-16.0507 -0.126853 -1.50118e-15)
(-16.0418 -0.13222 -1.50038e-15)
(-16.0316 -0.138202 -1.50227e-15)
(-16.02 -0.144889 -1.50428e-15)
(-16.0066 -0.152384 -1.50661e-15)
(-15.9912 -0.160808 -1.50944e-15)
(-15.9736 -0.170302 -1.51292e-15)
(-15.9533 -0.181031 -1.51628e-15)
(-15.9299 -0.193193 -1.52133e-15)
(-15.9029 -0.207019 -1.52697e-15)
(-15.8719 -0.222791 -1.53439e-15)
(-15.8361 -0.240858 -1.54595e-15)
(-15.7948 -0.261677 -1.55919e-15)
(-15.7473 -0.285844 -1.57392e-15)
(-15.6929 -0.314039 -1.59016e-15)
(-15.6307 -0.347011 -1.61161e-15)
(-15.5587 -0.386228 -1.64164e-15)
(-15.4755 -0.435415 -1.67658e-15)
(-16.5748 0.0696473 2.13345e-16)
(-16.576 0.0702817 2.13963e-16)
(-16.576 0.0710263 2.14588e-16)
(-16.5758 0.0718011 2.13456e-16)
(-16.5755 0.0725731 2.12879e-16)
(-16.5752 0.0733352 2.14535e-16)
(-16.5748 0.0740862 2.15849e-16)
(-16.5745 0.0748262 2.16933e-16)
(-16.5741 0.0755548 2.17914e-16)
(-16.5737 0.076271 2.17241e-16)
(-16.5733 0.076973 2.17394e-16)
(-16.5728 0.0776582 2.19892e-16)
(-16.5723 0.0783234 2.22243e-16)
(-16.5718 0.0789645 2.24217e-16)
(-16.5713 0.0795765 2.25468e-16)
(-16.5706 0.0801535 2.2574e-16)
(-16.5699 0.0806884 2.26439e-16)
(-16.5691 0.0811731 2.29194e-16)
(-16.5682 0.0815981 2.31684e-16)
(-16.5672 0.0819514 2.33986e-16)
(-16.5661 0.0822186 2.36179e-16)
(-16.5648 0.082386 2.38301e-16)
(-16.5634 0.0824342 2.40375e-16)
(-16.5617 0.0823492 2.4245e-16)
(-16.5599 0.0821105 2.44528e-16)
(-16.5578 0.0816942 2.46505e-16)
(-16.5554 0.0810734 2.50313e-16)
(-16.5527 0.0802149 2.53638e-16)
(-16.5496 0.0790789 2.54728e-16)
(-16.5461 0.07762 2.56118e-16)
(-16.5421 0.0757854 2.57725e-16)
(-16.5375 0.0735135 2.59343e-16)
(-16.5322 0.0707327 2.62832e-16)
(-16.5261 0.0673596 2.65877e-16)
(-16.5191 0.0632964 2.66649e-16)
(-16.511 0.0584286 2.6761e-16)
(-16.5017 0.0526219 2.68666e-16)
(-16.491 0.0457177 2.69536e-16)
(-16.4787 0.037528 2.72077e-16)
(-16.4645 0.0278291 2.72941e-16)
(-16.4481 0.0163523 2.715e-16)
(-16.4293 0.00277448 2.73106e-16)
(-16.4077 -0.0132968 2.73867e-16)
(-16.3828 -0.0323458 2.71614e-16)
(-16.3543 -0.0549796 2.7072e-16)
(-16.3217 -0.0819463 2.67466e-16)
(-16.2848 -0.114111 2.63197e-16)
(-16.2431 -0.15247 2.58985e-16)
(-16.196 -0.19842 2.50783e-16)
(-16.143 -0.254115 2.41307e-16)
(-16.4264 -0.0554564 5.92022e-16)
(-16.4232 -0.0558746 5.93417e-16)
(-16.4218 -0.056412 5.94799e-16)
(-16.4207 -0.0570068 5.9434e-16)
(-16.4195 -0.0576376 5.94345e-16)
(-16.4184 -0.0582973 5.96506e-16)
(-16.4173 -0.0589832 5.98283e-16)
(-16.4162 -0.0596943 5.99716e-16)
(-16.415 -0.0604306 6.00978e-16)
(-16.4138 -0.0611928 6.00453e-16)
(-16.4126 -0.0619821 6.0046e-16)
(-16.4113 -0.0628007 6.02771e-16)
(-16.4101 -0.0636511 6.04969e-16)
(-16.4087 -0.0645367 6.07101e-16)
(-16.4073 -0.0654616 6.09217e-16)
(-16.4059 -0.0664307 6.09329e-16)
(-16.4044 -0.0674499 6.09744e-16)
(-16.4028 -0.0685261 6.12444e-16)
(-16.4011 -0.0696686 6.14674e-16)
(-16.3993 -0.0708879 6.16688e-16)
(-16.3974 -0.0721937 6.18589e-16)
(-16.3953 -0.073603 6.20449e-16)
(-16.3931 -0.0751341 6.22328e-16)
(-16.3906 -0.076809 6.24252e-16)
(-16.388 -0.0786533 6.26246e-16)
(-16.385 -0.0806952 6.2822e-16)
(-16.3818 -0.0829669 6.32118e-16)
(-16.3781 -0.085506 6.35663e-16)
(-16.3741 -0.0883558 6.37101e-16)
(-16.3696 -0.0915661 6.38986e-16)
(-16.3646 -0.0951948 6.41273e-16)
(-16.3589 -0.0993086 6.43785e-16)
(-16.3525 -0.103985 6.48433e-16)
(-16.3452 -0.109314 6.52869e-16)
(-16.337 -0.115401 6.55314e-16)
(-16.3276 -0.122366 6.58373e-16)
(-16.317 -0.130351 6.61978e-16)
(-16.3049 -0.13952 6.66081e-16)
(-16.2911 -0.150067 6.70733e-16)
(-16.2753 -0.162217 6.7692e-16)
(-16.2573 -0.176239 6.83062e-16)
(-16.2367 -0.192448 6.90515e-16)
(-16.2133 -0.211224 6.98572e-16)
(-16.1866 -0.233027 7.05204e-16)
(-16.1562 -0.258423 7.13305e-16)
(-16.1219 -0.288094 7.23731e-16)
(-16.0832 -0.322851 7.37181e-16)
(-16.04 -0.363681 7.51209e-16)
(-15.9917 -0.411902 7.63371e-16)
(-15.9379 -0.469263 7.78457e-16)
(-16.5738 0.0536448 7.39586e-17)
(-16.5753 0.0539871 7.41995e-17)
(-16.5752 0.0544053 7.44789e-17)
(-16.5748 0.0548349 7.29544e-17)
(-16.5743 0.05525 7.19109e-17)
(-16.5737 0.0556413 7.30834e-17)
(-16.5731 0.0560046 7.39052e-17)
(-16.5725 0.0563364 7.43973e-17)
(-16.5719 0.0566335 7.47606e-17)
(-16.5712 0.0568921 7.32911e-17)
(-16.5706 0.0571077 7.23078e-17)
(-16.5699 0.0572746 7.3511e-17)
(-16.5692 0.0573865 7.46108e-17)
(-16.5685 0.0574358 7.55509e-17)
(-16.5677 0.0574135 7.66024e-17)
(-16.5669 0.057309 7.56642e-17)
(-16.566 0.0571107 7.53314e-17)
(-16.565 0.0568058 7.69503e-17)
(-16.564 0.0563802 7.82358e-17)
(-16.5629 0.0558184 7.93106e-17)
(-16.5618 0.0551012 8.02421e-17)
(-16.5605 0.054208 8.11151e-17)
(-16.5591 0.0531154 8.19437e-17)
(-16.5575 0.0517962 8.27741e-17)
(-16.5558 0.0502179 8.35996e-17)
(-16.5539 0.0483435 8.43449e-17)
(-16.5518 0.0461297 8.68944e-17)
(-16.5494 0.0435271 8.89691e-17)
(-16.5467 0.0404787 8.88241e-17)
(-16.5437 0.0369191 8.9033e-17)
(-16.5402 0.0327733 8.94918e-17)
(-16.5363 0.0279552 9.00294e-17)
(-16.5319 0.0223656 9.25263e-17)
(-16.5268 0.0158906 9.46512e-17)
(-16.521 0.00839951 9.45513e-17)
(-16.5144 -0.000258243 9.48015e-17)
(-16.5069 -0.0102554 9.5274e-17)
(-16.4982 -0.0217905 9.57525e-17)
(-16.4882 -0.0350914 9.80673e-17)
(-16.4769 -0.0504195 9.89812e-17)
(-16.4638 -0.0680744 9.79219e-17)
(-16.4489 -0.0883986 1.00245e-16)
(-16.4319 -0.111784 1.02114e-16)
(-16.4125 -0.138677 1.0142e-16)
(-16.3906 -0.169588 1.02623e-16)
(-16.366 -0.205086 1.01932e-16)
(-16.3385 -0.245785 1.01083e-16)
(-16.3082 -0.292355 1.0141e-16)
(-16.2751 -0.345567 9.89691e-17)
(-16.2391 -0.406335 9.46601e-17)
(-16.4903 -0.0402673 9.17188e-17)
(-16.4867 -0.0405204 9.19348e-17)
(-16.4853 -0.0408257 9.21916e-17)
(-16.4843 -0.0411569 8.99583e-17)
(-16.4833 -0.0415055 8.85528e-17)
(-16.4824 -0.0418696 8.99476e-17)
(-16.4814 -0.0422491 9.05768e-17)
(-16.4804 -0.0426444 9.09477e-17)
(-16.4795 -0.0430563 9.11835e-17)
(-16.4785 -0.0434861 8.94151e-17)
(-16.4775 -0.0439357 8.79672e-17)
(-16.4764 -0.0444073 8.87197e-17)
(-16.4754 -0.0449041 8.93553e-17)
(-16.4743 -0.04543 8.98114e-17)
(-16.4732 -0.0459907 9.01637e-17)
(-16.472 -0.0465919 8.87879e-17)
(-16.4708 -0.0472413 8.77881e-17)
(-16.4696 -0.0479498 8.89909e-17)
(-16.4682 -0.0487293 8.98759e-17)
(-16.4669 -0.049594 9.05183e-17)
(-16.4654 -0.0505609 9.10388e-17)
(-16.4638 -0.0516496 9.14822e-17)
(-16.4621 -0.0528827 9.19082e-17)
(-16.4603 -0.0542862 9.23319e-17)
(-16.4583 -0.0558906 9.27846e-17)
(-16.4562 -0.0577316 9.31712e-17)
(-16.4538 -0.0598508 9.54297e-17)
(-16.4513 -0.0622967 9.72698e-17)
(-16.4484 -0.0651259 9.69547e-17)
(-16.4452 -0.0684043 9.706e-17)
(-16.4417 -0.0722086 9.75337e-17)
(-16.4378 -0.0766278 9.82083e-17)
(-16.4333 -0.0817655 1.00991e-16)
(-16.4283 -0.0877422 1.03556e-16)
(-16.4227 -0.0946973 1.04124e-16)
(-16.4163 -0.102793 1.05287e-16)
(-16.4091 -0.112216 1.06998e-16)
(-16.4009 -0.123184 1.09182e-16)
(-16.3916 -0.135947 1.11903e-16)
(-16.3809 -0.150795 1.15249e-16)
(-16.3688 -0.168058 1.19889e-16)
(-16.3551 -0.18812 1.26609e-16)
(-16.3394 -0.211414 1.32602e-16)
(-16.3216 -0.238434 1.38184e-16)
(-16.3015 -0.269738 1.4492e-16)
(-16.2789 -0.305938 1.51927e-16)
(-16.2536 -0.347691 1.62724e-16)
(-16.2255 -0.395681 1.75588e-16)
(-16.1946 -0.450605 1.87775e-16)
(-16.1605 -0.513195 2.02504e-16)
(-16.5474 0.0341362 -1.83633e-16)
(-16.5491 0.0342775 -1.83666e-16)
(-16.549 0.0344353 -1.83595e-16)
(-16.5486 0.0345805 -1.85557e-16)
(-16.548 0.0347006 -1.87203e-16)
(-16.5473 0.0347898 -1.86475e-16)
(-16.5467 0.0348439 -1.8598e-16)
(-16.546 0.0348587 -1.85706e-16)
(-16.5453 0.0348301 -1.85583e-16)
(-16.5446 0.0347532 -1.87432e-16)
(-16.5439 0.0346223 -1.89131e-16)
(-16.5432 0.0344312 -1.88613e-16)
(-16.5425 0.0341724 -1.88333e-16)
(-16.5417 0.0338371 -1.88665e-16)
(-16.5409 0.0334167 -1.88793e-16)
(-16.5401 0.0329003 -1.90631e-16)
(-16.5392 0.0322755 -1.92133e-16)
(-16.5383 0.0315285 -1.91521e-16)
(-16.5374 0.0306437 -1.91341e-16)
(-16.5364 0.0296026 -1.91483e-16)
(-16.5353 0.0283838 -1.91868e-16)
(-16.5342 0.0269627 -1.92435e-16)
(-16.533 0.0253111 -1.9316e-16)
(-16.5317 0.0233966 -1.94022e-16)
(-16.5303 0.021182 -1.95021e-16)
(-16.5288 0.0186245 -1.96258e-16)
(-16.5271 0.0156752 -1.95808e-16)
(-16.5253 0.0122777 -1.96014e-16)
(-16.5233 0.00836748 -1.98639e-16)
(-16.521 0.00387064 -2.01111e-16)
(-16.5186 -0.00129774 -2.03533e-16)
(-16.5158 -0.00723497 -2.06128e-16)
(-16.5127 -0.0140527 -2.06993e-16)
(-16.5091 -0.0218788 -2.08569e-16)
(-16.5052 -0.0308598 -2.12718e-16)
(-16.5007 -0.0411635 -2.16894e-16)
(-16.4956 -0.0529815 -2.21262e-16)
(-16.4899 -0.0665327 -2.25997e-16)
(-16.4833 -0.0820662 -2.3133e-16)
(-16.4759 -0.0998646 -2.34498e-16)
(-16.4674 -0.120248 -2.40532e-16)
(-16.4578 -0.143574 -2.48683e-16)
(-16.4469 -0.170246 -2.54598e-16)
(-16.4346 -0.200707 -2.65464e-16)
(-16.4207 -0.23544 -2.79272e-16)
(-16.4052 -0.274964 -2.92489e-16)
(-16.388 -0.319813 -3.06383e-16)
(-16.369 -0.370508 -3.22099e-16)
(-16.3483 -0.427536 -3.44403e-16)
(-16.3257 -0.49137 -3.72103e-16)
(-16.5133 -0.0228056 3.71735e-16)
(-16.5096 -0.0229047 3.73536e-16)
(-16.5084 -0.0230203 3.7545e-16)
(-16.5074 -0.0231507 3.75332e-16)
(-16.5066 -0.023296 3.75519e-16)
(-16.5058 -0.0234571 3.78101e-16)
(-16.5049 -0.0236353 3.80453e-16)
(-16.5041 -0.0238322 3.82608e-16)
(-16.5033 -0.02405 3.84717e-16)
(-16.5025 -0.0242911 3.84895e-16)
(-16.5017 -0.0245587 3.85224e-16)
(-16.5008 -0.0248574 3.87787e-16)
(-16.5 -0.0251924 3.89979e-16)
(-16.4991 -0.0255699 3.91888e-16)
(-16.4983 -0.0259976 3.93968e-16)
(-16.4974 -0.0264847 3.94087e-16)
(-16.4965 -0.027042 3.94616e-16)
(-16.4955 -0.0276819 3.97349e-16)
(-16.4946 -0.028419 3.99684e-16)
(-16.4936 -0.0292703 4.01735e-16)
(-16.4926 -0.0302556 4.03596e-16)
(-16.4915 -0.0313979 4.05323e-16)
(-16.4904 -0.032724 4.06964e-16)
(-16.4893 -0.0342654 4.08535e-16)
(-16.488 -0.0360583 4.10062e-16)
(-16.4867 -0.0381452 4.11443e-16)
(-16.4854 -0.0405755 4.14636e-16)
(-16.4839 -0.0434064 4.17304e-16)
(-16.4823 -0.0467047 4.17732e-16)
(-16.4805 -0.0505475 4.18494e-16)
(-16.4786 -0.0550247 4.19533e-16)
(-16.4765 -0.0602399 4.20662e-16)
(-16.4742 -0.0663133 4.2381e-16)
(-16.4716 -0.0733839 4.2659e-16)
(-16.4688 -0.0816117 4.27229e-16)
(-16.4655 -0.0911811 4.28373e-16)
(-16.4619 -0.102304 4.29923e-16)
(-16.4579 -0.115223 4.31692e-16)
(-16.4532 -0.130214 4.35602e-16)
(-16.448 -0.147593 4.38469e-16)
(-16.442 -0.167711 4.39747e-16)
(-16.4353 -0.190967 4.4552e-16)
(-16.4276 -0.217799 4.51246e-16)
(-16.4188 -0.248688 4.5479e-16)
(-16.4089 -0.28415 4.61764e-16)
(-16.3977 -0.324728 4.68114e-16)
(-16.3851 -0.37097 4.75775e-16)
(-16.3711 -0.423399 4.86727e-16)
(-16.3556 -0.48248 4.97608e-16)
(-16.3382 -0.548654 5.12297e-16)
(-16.5218 0.0134113 1.30654e-16)
(-16.5237 0.013414 1.31852e-16)
(-16.5235 0.0133961 1.33168e-16)
(-16.5231 0.0133545 1.32562e-16)
(-16.5224 0.0132877 1.32338e-16)
(-16.5218 0.0131936 1.34553e-16)
(-16.5211 0.0130698 1.36558e-16)
(-16.5204 0.0129134 1.38402e-16)
(-16.5197 0.0127208 1.40338e-16)
(-16.519 0.0124881 1.40376e-16)
(-16.5183 0.0122104 1.40707e-16)
(-16.5176 0.0118823 1.43147e-16)
(-16.5169 0.0114973 1.45281e-16)
(-16.5162 0.011048 1.47206e-16)
(-16.5154 0.0105257 1.49123e-16)
(-16.5147 0.00992011 1.49052e-16)
(-16.5139 0.00921944 1.49425e-16)
(-16.5131 0.00840982 1.51957e-16)
(-16.5123 0.00747522 1.54072e-16)
(-16.5115 0.00639708 1.55865e-16)
(-16.5107 0.00515386 1.57422e-16)
(-16.5098 0.00372069 1.58795e-16)
(-16.5089 0.00206881 1.59999e-16)
(-16.508 0.000165018 1.61067e-16)
(-16.5071 -0.00202906 1.61973e-16)
(-16.5061 -0.00455771 1.62648e-16)
(-16.5051 -0.00747208 1.6497e-16)
(-16.504 -0.0108312 1.66635e-16)
(-16.5029 -0.0147032 1.65854e-16)
(-16.5017 -0.0191666 1.65248e-16)
(-16.5004 -0.024312 1.64654e-16)
(-16.499 -0.0302438 1.63907e-16)
(-16.4976 -0.0370822 1.64839e-16)
(-16.496 -0.0449654 1.65063e-16)
(-16.4943 -0.0540524 1.627e-16)
(-16.4925 -0.0645254 1.60368e-16)
(-16.4904 -0.0765931 1.57864e-16)
(-16.4882 -0.0904938 1.55017e-16)
(-16.4857 -0.106499 1.51767e-16)
(-16.4829 -0.124914 1.49004e-16)
(-16.4798 -0.146086 1.44827e-16)
(-16.4763 -0.170399 1.40509e-16)
(-16.4724 -0.198279 1.35029e-16)
(-16.4679 -0.230188 1.25842e-16)
(-16.4627 -0.266619 1.15615e-16)
(-16.4568 -0.308086 1.04559e-16)
(-16.4501 -0.355098 9.27456e-17)
(-16.4424 -0.408125 7.6824e-17)
(-16.4336 -0.467561 5.28744e-17)
(-16.4232 -0.533743 2.40157e-17)
(-16.5258 -0.00487017 4.67771e-16)
(-16.5223 -0.00484461 4.70239e-16)
(-16.5211 -0.00482218 4.7271e-16)
(-16.5203 -0.00481527 4.73285e-16)
(-16.5195 -0.00482896 4.74356e-16)
(-16.5188 -0.00486603 4.77808e-16)
(-16.5181 -0.00492907 4.81118e-16)
(-16.5174 -0.00502101 4.8432e-16)
(-16.5168 -0.0051454 4.87595e-16)
(-16.5161 -0.00530646 4.88976e-16)
(-16.5154 -0.00550927 4.90813e-16)
(-16.5147 -0.00575976 4.94913e-16)
(-16.514 -0.00606487 4.98745e-16)
(-16.5134 -0.00643259 5.02459e-16)
(-16.5127 -0.0068722 5.06191e-16)
(-16.5121 -0.00739444 5.08072e-16)
(-16.5114 -0.00801172 5.10463e-16)
(-16.5108 -0.00873835 5.1513e-16)
(-16.5102 -0.00959085 5.19487e-16)
(-16.5096 -0.0105883 5.23655e-16)
(-16.509 -0.0117526 5.2773e-16)
(-16.5084 -0.0131094 5.31759e-16)
(-16.5079 -0.0146877 5.35811e-16)
(-16.5074 -0.0165215 5.39874e-16)
(-16.5069 -0.0186499 5.44022e-16)
(-16.5064 -0.0211179 5.48108e-16)
(-16.5059 -0.0239776 5.5419e-16)
(-16.5055 -0.027289 5.59826e-16)
(-16.5052 -0.0311215 5.63378e-16)
(-16.5048 -0.0355551 5.67419e-16)
(-16.5045 -0.0406821 5.71982e-16)
(-16.5043 -0.0466092 5.76807e-16)
(-16.5041 -0.053459 5.84002e-16)
(-16.504 -0.0613732 5.91093e-16)
(-16.504 -0.0705148 5.96459e-16)
(-16.504 -0.0810713 6.02743e-16)
(-16.5042 -0.0932578 6.10022e-16)
(-16.5044 -0.107321 6.18119e-16)
(-16.5047 -0.123542 6.29221e-16)
(-16.5051 -0.14224 6.40127e-16)
(-16.5056 -0.163778 6.50482e-16)
(-16.5061 -0.188561 6.6623e-16)
(-16.5068 -0.21704 6.83963e-16)
(-16.5074 -0.249709 7.01928e-16)
(-16.5081 -0.287099 7.25466e-16)
(-16.5086 -0.329769 7.51253e-16)
(-16.509 -0.378284 7.82222e-16)
(-16.5091 -0.433181 8.21388e-16)
(-16.5087 -0.49493 8.66225e-16)
(-16.5075 -0.563942 9.19325e-16)
(-16.4909 -0.00694966 -4.32077e-16)
(-16.4926 -0.0070657 -4.3311e-16)
(-16.4924 -0.00722472 -4.34003e-16)
(-16.4919 -0.00741084 -4.36817e-16)
(-16.4913 -0.00761693 -4.3913e-16)
(-16.4906 -0.00784148 -4.39026e-16)
(-16.49 -0.00808497 -4.3914e-16)
(-16.4893 -0.00834895 -4.39403e-16)
(-16.4886 -0.00863571 -4.39635e-16)
(-16.4879 -0.00894819 -4.41731e-16)
(-16.4872 -0.00929003 -4.4328e-16)
(-16.4866 -0.00966562 -4.42545e-16)
(-16.4859 -0.0100802 -4.42125e-16)
(-16.4852 -0.0105401 -4.41905e-16)
(-16.4846 -0.0110526 -4.41672e-16)
(-16.4839 -0.0116266 -4.43344e-16)
(-16.4833 -0.0122723 -4.44536e-16)
(-16.4827 -0.013002 -4.43538e-16)
(-16.4821 -0.0138298 -4.42931e-16)
(-16.4815 -0.0147724 -4.42625e-16)
(-16.481 -0.0158495 -4.42559e-16)
(-16.4804 -0.0170837 -4.42676e-16)
(-16.48 -0.0185018 -4.43008e-16)
(-16.4795 -0.020135 -4.43513e-16)
(-16.4791 -0.0220194 -4.44291e-16)
(-16.4787 -0.0241975 -4.45396e-16)
(-16.4785 -0.0267185 -4.45004e-16)
(-16.4782 -0.0296398 -4.45458e-16)
(-16.4781 -0.0330281 -4.48705e-16)
(-16.4781 -0.0369611 -4.52004e-16)
(-16.4781 -0.0415287 -4.55731e-16)
(-16.4783 -0.0468357 -4.60022e-16)
(-16.4787 -0.0530033 -4.63244e-16)
(-16.4792 -0.060172 -4.67829e-16)
(-16.4799 -0.0685041 -4.75828e-16)
(-16.4809 -0.0781873 -4.84561e-16)
(-16.4821 -0.0894376 -4.94551e-16)
(-16.4835 -0.102503 -5.06034e-16)
(-16.4853 -0.117669 -5.19342e-16)
(-16.4874 -0.135258 -5.33719e-16)
(-16.4899 -0.155638 -5.51486e-16)
(-16.4928 -0.179222 -5.71576e-16)
(-16.496 -0.206472 -5.95489e-16)
(-16.4997 -0.237891 -6.2619e-16)
(-16.5036 -0.274029 -6.61611e-16)
(-16.5077 -0.315459 -7.02254e-16)
(-16.5119 -0.362769 -7.48874e-16)
(-16.5159 -0.416521 -8.06001e-16)
(-16.5192 -0.477205 -8.78622e-16)
(-16.5215 -0.545209 -9.65873e-16)
(-16.5366 0.0122421 1.10102e-15)
(-16.5334 0.012394 1.10404e-15)
(-16.5323 0.0125586 1.10704e-15)
(-16.5316 0.0127112 1.10823e-15)
(-16.531 0.0128418 1.11007e-15)
(-16.5304 0.012946 1.11423e-15)
(-16.5298 0.0130203 1.11819e-15)
(-16.5292 0.0130612 1.12202e-15)
(-16.5287 0.0130641 1.12598e-15)
(-16.5281 0.0130242 1.12815e-15)
(-16.5276 0.0129357 1.13105e-15)
(-16.5271 0.0127917 1.13633e-15)
(-16.5266 0.0125848 1.14135e-15)
(-16.5261 0.0123063 1.14631e-15)
(-16.5256 0.0119462 1.15141e-15)
(-16.5252 0.011493 1.15477e-15)
(-16.5248 0.0109339 1.15882e-15)
(-16.5245 0.0102538 1.16535e-15)
(-16.5241 0.0094358 1.17172e-15)
(-16.5239 0.00846027 1.17808e-15)
(-16.5237 0.00730487 1.18455e-15)
(-16.5236 0.00594392 1.19119e-15)
(-16.5235 0.00434802 1.19809e-15)
(-16.5236 0.00248345 1.20523e-15)
(-16.5237 0.000311474 1.21271e-15)
(-16.524 -0.00221232 1.22037e-15)
(-16.5244 -0.00513898 1.23031e-15)
(-16.525 -0.00852711 1.24003e-15)
(-16.5258 -0.0124441 1.24797e-15)
(-16.5268 -0.0169674 1.25668e-15)
(-16.5281 -0.0221861 1.26625e-15)
(-16.5297 -0.0282027 1.27639e-15)
(-16.5316 -0.0351354 1.28992e-15)
(-16.5339 -0.0431198 1.30328e-15)
(-16.5366 -0.0523125 1.31479e-15)
(-16.5399 -0.0628937 1.32816e-15)
(-16.5437 -0.0750709 1.3431e-15)
(-16.5483 -0.0890828 1.35944e-15)
(-16.5535 -0.105204 1.37956e-15)
(-16.5596 -0.12375 1.40023e-15)
(-16.5667 -0.145082 1.42132e-15)
(-16.5748 -0.169612 1.44885e-15)
(-16.5841 -0.197809 1.47972e-15)
(-16.5945 -0.230203 1.51246e-15)
(-16.6062 -0.26738 1.55289e-15)
(-16.6193 -0.309984 1.59831e-15)
(-16.6335 -0.358705 1.65223e-15)
(-16.6487 -0.414252 1.71815e-15)
(-16.6647 -0.477307 1.79443e-15)
(-16.6811 -0.548446 1.88726e-15)
(-16.4412 -0.0256572 -5.40902e-16)
(-16.4426 -0.0259234 -5.43738e-16)
(-16.4423 -0.0262617 -5.4652e-16)
(-16.4418 -0.026635 -5.51104e-16)
(-16.4411 -0.0270265 -5.55093e-16)
(-16.4404 -0.0274317 -5.56656e-16)
(-16.4397 -0.0278499 -5.58516e-16)
(-16.439 -0.0282823 -5.60475e-16)
(-16.4383 -0.0287306 -5.62409e-16)
(-16.4376 -0.0291972 -5.66123e-16)
(-16.4369 -0.0296853 -5.69216e-16)
(-16.4362 -0.0301982 -5.69966e-16)
(-16.4356 -0.0307405 -5.70989e-16)
(-16.435 -0.031317 -5.72157e-16)
(-16.4344 -0.0319337 -5.73246e-16)
(-16.4339 -0.032598 -5.76221e-16)
(-16.4333 -0.033318 -5.78589e-16)
(-16.4329 -0.0341038 -5.78637e-16)
(-16.4325 -0.0349671 -5.79005e-16)
(-16.4321 -0.0359216 -5.79612e-16)
(-16.4318 -0.0369837 -5.80344e-16)
(-16.4316 -0.0381722 -5.812e-16)
(-16.4315 -0.0395097 -5.8216e-16)
(-16.4315 -0.0410223 -5.83244e-16)
(-16.4316 -0.0427406 -5.84513e-16)
(-16.4319 -0.0447008 -5.86085e-16)
(-16.4323 -0.0469449 -5.86091e-16)
(-16.4329 -0.049522 -5.86959e-16)
(-16.4338 -0.0524897 -5.90621e-16)
(-16.4348 -0.0559154 -5.944e-16)
(-16.4362 -0.0598775 -5.98656e-16)
(-16.4379 -0.064468 -6.03625e-16)
(-16.44 -0.0697943 -6.07619e-16)
(-16.4426 -0.0759817 -6.13178e-16)
(-16.4456 -0.0831769 -6.22453e-16)
(-16.4493 -0.0915513 -6.32884e-16)
(-16.4535 -0.101305 -6.45056e-16)
(-16.4586 -0.112673 -6.59342e-16)
(-16.4645 -0.125927 -6.76274e-16)
(-16.4713 -0.141389 -6.95255e-16)
(-16.4793 -0.15943 -7.18823e-16)
(-16.4884 -0.180484 -7.46098e-16)
(-16.4988 -0.205054 -7.79064e-16)
(-16.5105 -0.233721 -8.20821e-16)
(-16.5236 -0.267144 -8.69966e-16)
(-16.5381 -0.306059 -9.27462e-16)
(-16.5537 -0.351272 -9.94855e-16)
(-16.5703 -0.403652 -1.07764e-15)
(-16.5871 -0.464076 -1.18235e-15)
(-16.6032 -0.533267 -1.30941e-15)
(-16.5519 0.0271613 1.80926e-15)
(-16.5494 0.0274615 1.81431e-15)
(-16.5486 0.0278119 1.81932e-15)
(-16.5481 0.0281712 1.82243e-15)
(-16.5477 0.0285225 1.82619e-15)
(-16.5473 0.0288589 1.83227e-15)
(-16.5469 0.0291761 1.83814e-15)
(-16.5465 0.02947 1.84389e-15)
(-16.5462 0.0297363 1.84978e-15)
(-16.5458 0.0299702 1.85397e-15)
(-16.5455 0.0301666 1.8589e-15)
(-16.5452 0.0303194 1.86632e-15)
(-16.5449 0.030422 1.87358e-15)
(-16.5447 0.0304667 1.88092e-15)
(-16.5445 0.030445 1.88846e-15)
(-16.5444 0.0303467 1.89443e-15)
(-16.5443 0.0301605 1.90115e-15)
(-16.5443 0.0298735 1.91052e-15)
(-16.5443 0.0294706 1.91977e-15)
(-16.5445 0.0289347 1.92917e-15)
(-16.5447 0.0282461 1.93876e-15)
(-16.5451 0.027382 1.9487e-15)
(-16.5455 0.0263166 1.95902e-15)
(-16.5462 0.0250197 1.9698e-15)
(-16.547 0.023457 1.98109e-15)
(-16.5481 0.0215888 1.99285e-15)
(-16.5494 0.0193692 2.00712e-15)
(-16.551 0.0167457 2.0215e-15)
(-16.5529 0.0136574 2.03435e-15)
(-16.5552 0.0100341 2.04841e-15)
(-16.558 0.00579484 2.0637e-15)
(-16.5612 0.000845994 2.0801e-15)
(-16.5651 -0.00492076 2.09984e-15)
(-16.5697 -0.0116308 2.1206e-15)
(-16.575 -0.0194293 2.1409e-15)
(-16.5813 -0.0284849 2.1637e-15)
(-16.5887 -0.0389929 2.18927e-15)
(-16.5973 -0.051181 2.21773e-15)
(-16.6074 -0.0653137 2.25159e-15)
(-16.619 -0.0816994 2.28803e-15)
(-16.6325 -0.100698 2.32723e-15)
(-16.6481 -0.122729 2.3755e-15)
(-16.6661 -0.148284 2.4303e-15)
(-16.6867 -0.177939 2.49046e-15)
(-16.7101 -0.212362 2.56282e-15)
(-16.7367 -0.252315 2.64537e-15)
(-16.7664 -0.298667 2.74289e-15)
(-16.7992 -0.352441 2.86015e-15)
(-16.8349 -0.414826 2.99733e-15)
(-16.8727 -0.48696 3.162e-15)
(-16.3227 -0.0409624 -1.82059e-15)
(-16.3235 -0.041456 -1.83129e-15)
(-16.323 -0.0420415 -1.84229e-15)
(-16.3223 -0.0426696 -1.85548e-15)
(-16.3214 -0.043317 -1.86843e-15)
(-16.3206 -0.043979 -1.87935e-15)
(-16.3198 -0.0446564 -1.89095e-15)
(-16.3189 -0.0453515 -1.90311e-15)
(-16.3181 -0.0460667 -1.9156e-15)
(-16.3173 -0.0468053 -1.93038e-15)
(-16.3165 -0.0475703 -1.94477e-15)
(-16.3158 -0.0483655 -1.95715e-15)
(-16.3151 -0.049195 -1.97002e-15)
(-16.3144 -0.0500636 -1.98334e-15)
(-16.3138 -0.0509766 -1.99666e-15)
(-16.3132 -0.0519406 -2.01209e-15)
(-16.3127 -0.0529628 -2.02683e-15)
(-16.3122 -0.0540518 -2.03922e-15)
(-16.3119 -0.0552177 -2.05183e-15)
(-16.3116 -0.0564719 -2.06461e-15)
(-16.3115 -0.057828 -2.07733e-15)
(-16.3114 -0.0593017 -2.09003e-15)
(-16.3116 -0.0609113 -2.10258e-15)
(-16.3119 -0.0626779 -2.11504e-15)
(-16.3123 -0.0646262 -2.12735e-15)
(-16.3131 -0.0667848 -2.13965e-15)
(-16.314 -0.0691871 -2.14988e-15)
(-16.3153 -0.0718717 -2.16068e-15)
(-16.3169 -0.0748835 -2.17394e-15)
(-16.3189 -0.0782749 -2.18702e-15)
(-16.3214 -0.0821068 -2.20039e-15)
(-16.3245 -0.0864501 -2.21446e-15)
(-16.3281 -0.0913876 -2.22686e-15)
(-16.3324 -0.0970159 -2.24158e-15)
(-16.3376 -0.103448 -2.26113e-15)
(-16.3437 -0.110818 -2.28186e-15)
(-16.3508 -0.119281 -2.30507e-15)
(-16.3592 -0.129024 -2.33126e-15)
(-16.369 -0.140267 -2.36106e-15)
(-16.3804 -0.153275 -2.39418e-15)
(-16.3936 -0.168368 -2.43311e-15)
(-16.4088 -0.185931 -2.47732e-15)
(-16.4264 -0.206442 -2.52905e-15)
(-16.4465 -0.230493 -2.592e-15)
(-16.4692 -0.258822 -2.66487e-15)
(-16.4949 -0.292335 -2.74972e-15)
(-16.5234 -0.332139 -2.84878e-15)
(-16.5548 -0.379671 -2.96887e-15)
(-16.5884 -0.436835 -3.11754e-15)
(-16.6226 -0.505679 -3.29693e-15)
(-16.5064 0.0380129 2.25984e-15)
(-16.5053 0.0384077 2.27317e-15)
(-16.5053 0.0389425 2.28706e-15)
(-16.5055 0.0395346 2.29942e-15)
(-16.5057 0.0401514 2.3131e-15)
(-16.506 0.040779 2.32979e-15)
(-16.5063 0.0414105 2.34645e-15)
(-16.5066 0.0420414 2.36349e-15)
(-16.5069 0.0426684 2.38092e-15)
(-16.5073 0.0432884 2.39693e-15)
(-16.5077 0.0438979 2.41414e-15)
(-16.5082 0.0444937 2.43435e-15)
(-16.5086 0.0450719 2.45433e-15)
(-16.5092 0.0456279 2.47459e-15)
(-16.5098 0.0461568 2.49518e-15)
(-16.5104 0.0466526 2.51424e-15)
(-16.5112 0.0471087 2.53426e-15)
(-16.512 0.047517 2.55714e-15)
(-16.513 0.0478684 2.58001e-15)
(-16.5141 0.0481521 2.6032e-15)
(-16.5153 0.0483558 2.62677e-15)
(-16.5167 0.048465 2.65088e-15)
(-16.5183 0.0484627 2.67558e-15)
(-16.5201 0.0483294 2.70097e-15)
(-16.5222 0.0480422 2.7271e-15)
(-16.5245 0.0475744 2.75398e-15)
(-16.5273 0.046895 2.78374e-15)
(-16.5304 0.0459677 2.81405e-15)
(-16.534 0.0447501 2.84324e-15)
(-16.5382 0.0431929 2.87436e-15)
(-16.543 0.0412381 2.90732e-15)
(-16.5485 0.0388177 2.94217e-15)
(-16.5549 0.0358521 2.98103e-15)
(-16.5623 0.0322471 3.02151e-15)
(-16.5708 0.0278918 3.06172e-15)
(-16.5807 0.0226543 3.10458e-15)
(-16.592 0.0163778 3.1499e-15)
(-16.6052 0.0088742 3.19748e-15)
(-16.6205 -8.29044e-05 3.24939e-15)
(-16.6381 -0.0107685 3.30219e-15)
(-16.6586 -0.0235185 3.35539e-15)
(-16.6823 -0.038746 3.41517e-15)
(-16.7097 -0.0569638 3.47815e-15)
(-16.7414 -0.0788194 3.54263e-15)
(-16.778 -0.105137 3.61494e-15)
(-16.8202 -0.136938 3.69185e-15)
(-16.8686 -0.175439 3.77792e-15)
(-16.9243 -0.22217 3.87633e-15)
(-16.9876 -0.279326 3.9861e-15)
(-17.0571 -0.349703 4.11492e-15)
(-15.723 -0.0499755 -4.6903e-16)
(-15.7233 -0.050852 -4.78853e-16)
(-15.7229 -0.0516875 -4.89158e-16)
(-15.7223 -0.0525483 -5.02025e-16)
(-15.7217 -0.0534249 -5.14889e-16)
(-15.721 -0.0543204 -5.25609e-16)
(-15.7204 -0.0552385 -5.37163e-16)
(-15.7198 -0.0561831 -5.49358e-16)
(-15.7192 -0.0571577 -5.62e-16)
(-15.7187 -0.058166 -5.77338e-16)
(-15.7181 -0.0592118 -5.92336e-16)
(-15.7176 -0.060299 -6.05221e-16)
(-15.7172 -0.061432 -6.19151e-16)
(-15.7168 -0.0626157 -6.33851e-16)
(-15.7164 -0.0638556 -6.49045e-16)
(-15.7162 -0.065158 -6.67099e-16)
(-15.716 -0.0665297 -6.8493e-16)
(-15.7159 -0.067979 -7.00734e-16)
(-15.7159 -0.0695149 -7.17808e-16)
(-15.716 -0.0711479 -7.3584e-16)
(-15.7163 -0.0728899 -7.54739e-16)
(-15.7168 -0.0747547 -7.74505e-16)