/*--------------------------------*- C++ -*----------------------------------*\
  =========                 |
  \\      /  F ield         | OpenFOAM: The Open Source CFD Toolbox
   \\    /   O peration     | Website:  https://openfoam.org
    \\  /    A nd           | Version:  8
     \\/     M anipulation  |
\*---------------------------------------------------------------------------*/
FoamFile
{
    version     2.0;
    format      ascii;
    class       volScalarField;
    location    "1000";
    object      alphat;
}
// * * * * * * * * * * * * * * * * * * * * * * * * * * * * * * * * * * * * * //

dimensions      [1 -1 -1 0 0 0 0];

internalField   nonuniform List<scalar> 
1200
(
0.00939236
0.00929264
0.00920165
0.00910845
0.00900309
0.00888074
0.00875977
0.00864766
0.00854907
0.00841962
0.00837221
0.00849766
0.00867476
0.00874837
0.00872205
0.00801809
0.00812881
0.00824904
0.00888511
0.00981246
0.0103674
0.0109
0.0116226
0.0125407
0.0136437
0.014885
0.00603825
0.00623865
0.00643772
0.00661819
0.00678277
0.00693892
0.00708113
0.00720557
0.00731429
0.00741314
0.00752864
0.00770495
0.00787446
0.00801092
0.00810259
0.00814546
0.00803163
0.00797284
0.00810381
0.00826098
0.00839653
0.00843107
0.00837392
0.0081492
0.0080915
0.00953536
0.0127734
0.0193029
0.0222572
0.0257157
0.0285118
0.029746
0.0298569
0.03642
0.00728831
0.00631304
0.00549599
0.00480863
0.00421777
0.00368395
0.0032361
0.00288582
0.00266962
0.00248633
0.00254534
0.0033368
0.00344579
0.0034327
0.00264291
0.00333566
0.00409905
0.00425945
0.00717878
0.00846047
0.00746224
0.00684258
0.00706453
0.00785223
0.00883631
0.00962729
0.0100993
0.0103365
0.0104608
0.0105923
0.0107329
0.0108591
0.0109909
0.0111796
0.011466
0.0116798
0.0116733
0.0115339
0.0124836
0.0141857
0.0151945
0.0155557
0.0159581
0.00371412
0.00375583
0.00377368
0.0159553
0.0038213
0.00393689
0.00405904
0.00439142
0.00590098
0.00740199
0.00940232
0.0100897
0.0092696
0.00898315
0.0113867
0.0153907
0.0180499
0.00728112
0.00627258
0.00541637
0.00468298
0.00404557
0.00348549
0.00299608
0.00258772
0.00226377
0.0020178
0.00196512
0.00237927
0.00238368
0.00202764
0.00175306
0.0047295
0.00626171
0.00982537
0.0108004
0.0112658
0.011109
0.0110087
0.0108179
0.011532
0.0119316
0.0119584
0.0122016
0.0125758
0.0129905
0.013358
0.0135725
0.0135557
0.0133481
0.0135228
0.0141604
0.0146107
0.0147367
0.0149679
0.0156656
0.00387967
0.0042207
0.0045816
0.0048953
0.00510969
0.0052248
0.00519817
0.00478107
0.00402539
0.0158997
0.00380248
0.00427884
0.00525217
0.00580996
0.00662217
0.00682278
0.0071726
0.00820526
0.0101309
0.0125056
0.0173302
0.00728681
0.0062771
0.00542027
0.00468635
0.00405059
0.00348755
0.00299402
0.00257609
0.00222161
0.00192903
0.00177152
0.00195658
0.00206685
0.00191824
0.00293076
0.00920775
0.0106941
0.0115166
0.0123556
0.0128322
0.0130637
0.0130778
0.0128597
0.0124636
0.0120828
0.0123342
0.012852
0.0134235
0.0139599
0.0144891
0.014989
0.0154576
0.0159182
0.00384129
0.00402968
0.00421681
0.0043978
0.00457717
0.00479956
0.00511988
0.00552865
0.00592031
0.00626975
0.0066224
0.00696036
0.00723413
0.00732581
0.00703034
0.00615936
0.00564707
0.00597825
0.00665688
0.00706699
0.00750022
0.00860748
0.010487
0.0128439
0.0154523
0.0188965
0.0245464
0.0072916
0.0062782
0.00541907
0.00468108
0.00404366
0.00348447
0.00299336
0.00257768
0.00222198
0.00192196
0.0017007
0.0016739
0.00173423
0.00172871
0.00174315
0.00545444
0.00715045
0.00958407
0.0103196
0.0115664
0.0119992
0.0123756
0.012384
0.0119737
0.0115206
0.011871
0.0124496
0.0133143
0.0140119
0.0146632
0.0152801
0.00371423
0.00385675
0.00406489
0.00427165
0.00447099
0.0046805
0.00490267
0.005135
0.00541968
0.005751
0.00611157
0.00654235
0.00698968
0.00745581
0.0079617
0.00852953
0.00909838
0.00947171
0.00957869
0.00995524
0.0107598
0.0117346
0.0127291
0.0137348
0.0149307
0.0165935
0.0189918
0.0221715
0.0263655
0.00729414
0.00628001
0.00541867
0.00467801
0.00403891
0.00348052
0.00299347
0.00258051
0.00222598
0.00192591
0.00168293
0.00154148
0.0014901
0.00147962
0.0014743
0.00309652
0.00440373
0.00584011
0.00575634
0.00609146
0.00739549
0.00899656
0.0105803
0.0112013
0.0111426
0.0107422
0.0106242
0.0117308
0.0124927
0.0131608
0.0137143
0.0141988
0.0146237
0.0149642
0.0151918
0.0155014
0.00378593
0.00401439
0.00426421
0.00441223
0.00445825
0.00458374
0.0049737
0.00531375
0.00572781
0.00631385
0.00715307
0.00815584
0.00905564
0.0097381
0.0103583
0.0110678
0.0118827
0.0128173
0.0139153
0.0152335
0.0169832
0.0193864
0.0224567
0.0262896
0.00729586
0.006283
0.00541886
0.0046772
0.00403816
0.00348009
0.00299707
0.00258456
0.00223285
0.00193151
0.00168296
0.00149907
0.00137545
0.00130514
0.00128013
0.00193036
0.00264204
0.00351812
0.00384729
0.00377043
0.00434658
0.00590198
0.0076302
0.00887413
0.00935361
0.00930815
0.009216
0.00919866
0.00935061
0.00980754
0.0103807
0.0108371
0.0110954
0.0107402
0.0103234
0.0102817
0.0112753
0.0127812
0.0151166
0.014645
0.00888611
0.0109591
0.0120877
0.0114447
0.0119812
0.0144203
0.00396589
0.00500922
0.00630448
0.00760361
0.008409
0.00877033
0.00893974
0.00960262
0.0109671
0.0124989
0.0143884
0.017153
0.0210941
0.0258933
0.00729833
0.00628372
0.00541376
0.0046679
0.00402728
0.0034702
0.00299253
0.00258489
0.00224103
0.00194107
0.00169167
0.00149468
0.00134068
0.00122544
0.00116033
0.00135939
0.00164609
0.00205563
0.00248735
0.00255833
0.00247754
0.00303974
0.0044199
0.00570245
0.00634648
0.00658133
0.00693721
0.0074604
0.00802205
0.00853976
0.00896673
0.00927531
0.00943612
0.0094756
0.00945866
0.00946262
0.00948108
0.00960693
0.0100312
0.00966504
0.00925687
0.00895427
0.00865496
0.00830465
0.00786382
0.00714983
0.00989387
0.00372537
0.00461653
0.0057595
0.00647028
0.0066468
0.0062759
0.00576362
0.00534166
0.00613693
0.00788222
0.00964387
0.0135093
0.0167155
0.00731171
0.00632927
0.00549376
0.0047859
0.00418278
0.0036487
0.00317975
0.00278045
0.00244102
0.00213712
0.00187612
0.00165961
0.00148146
0.0013348
0.00121916
0.00119544
0.00124487
0.00141405
0.0016049
0.00167134
0.00163223
0.0016817
0.0020646
0.00270813
0.00325464
0.00357026
0.00388599
0.00436283
0.00504489
0.0058211
0.00654278
0.00713382
0.007581
0.00789878
0.00811368
0.00823203
0.00824658
0.00823784
0.00826335
0.0082755
0.00865627
0.00886887
0.00899131
0.00896201
0.00886248
0.00891526
0.00958483
0.0101395
0.0100109
0.0113881
0.0161458
0.00420465
0.00412951
0.00390797
0.00380945
0.0160384
0.00386276
0.00430289
0.00644062
0.00846206
0.00939958
0.00929474
0.00918877
0.00908131
0.00898333
0.0088757
0.00875874
0.00863277
0.00846894
0.00821322
0.00790589
0.00761215
0.0073718
0.00713984
0.00683703
0.00647256
0.0062878
0.0061699
0.00624691
0.00651634
0.00688008
0.00713882
0.00734628
0.00767545
0.00820664
0.00895172
0.00974741
0.01052
0.0112134
0.0118905
0.0126528
0.0135594
0.0146152
0.00599269
0.00623005
0.00644116
0.00665807
0.00685912
0.00708163
0.00737378
0.00765151
0.00791108
0.00816208
0.00840446
0.00863664
0.00886021
0.00904906
0.00920715
0.00932292
0.00935824
0.00928697
0.00935111
0.00956379
0.00999463
0.0104701
0.0110145
0.0114959
0.0119394
0.0123064
0.0130178
0.00937733
0.009286
0.00920595
0.00912572
0.00903203
0.00889926
0.00876348
0.00864571
0.00854789
0.00842484
0.00838548
0.00851676
0.00869205
0.00877488
0.00872423
0.00802179
0.00813967
0.00828059
0.00887445
0.00980312
0.0103779
0.0109124
0.011627
0.0125205
0.0135857
0.0148098
0.00601309
0.00620702
0.00640102
0.00658406
0.0067561
0.00692036
0.00706939
0.00719894
0.00731308
0.00741658
0.00753369
0.0077028
0.00786426
0.00799628
0.00808355
0.00812783
0.00801548
0.00793072
0.00805364
0.00819954
0.00832183
0.00833907
0.00827242
0.00810347
0.0081822
0.0099055
0.01264
0.0191645
0.0223423
0.0256656
0.0280653
0.0285437
0.0255618
0.0304175
0.00729468
0.00631813
0.00550129
0.00480885
0.00421672
0.00368696
0.00323384
0.00288153
0.0026606
0.00248512
0.00253789
0.00332361
0.00343781
0.00342561
0.0026253
0.00332323
0.00412077
0.00426984
0.00703571
0.00845047
0.00751791
0.00688636
0.00707038
0.00783244
0.00880677
0.00959039
0.0100635
0.0103021
0.0104303
0.0105689
0.0107149
0.0108387
0.0109654
0.0111525
0.0114395
0.0116578
0.0116514
0.0114998
0.0124648
0.0142215
0.0150162
0.0156174
0.0159804
0.003768
0.00364738
0.00377741
0.00376298
0.00395028
0.00393935
0.00405947
0.00451853
0.0060381
0.00706275
0.00887199
0.0103392
0.0090233
0.00910266
0.00783106
0.0121826
0.0118676
0.00728896
0.00627647
0.00541973
0.00468062
0.0040396
0.00348195
0.00299535
0.002588
0.00226171
0.00201666
0.001961
0.00236914
0.00237836
0.00202605
0.00176862
0.00469949
0.00631457
0.00980562
0.01076
0.0112447
0.0111138
0.0110172
0.0108293
0.011503
0.0118833
0.0119143
0.0121701
0.012552
0.0129701
0.0133345
0.0135391
0.013502
0.0132823
0.0134934
0.0141546
0.0145748
0.0146948
0.0149801
0.0156721
0.00387797
0.00421842
0.0045891
0.00491857
0.00513081
0.00525281
0.00527543
0.00491367
0.00401443
0.00372276
0.0038443
0.00435709
0.00512325
0.00564027
0.00643842
0.00664874
0.00708644
0.00824468
0.0102129
0.0126297
0.0174716
0.00729159
0.0062794
0.00542278
0.00468494
0.00404658
0.00348546
0.00299579
0.00257797
0.0022215
0.00192856
0.00176888
0.00194874
0.00205999
0.00191522
0.00296231
0.00914513
0.0106808
0.0114965
0.0123245
0.0128029
0.0130115
0.0130072
0.0127709
0.012366
0.012034
0.0123263
0.012833
0.0134018
0.0139442
0.0144789
0.0149806
0.0154475
0.0158881
0.00383983
0.00402882
0.00421655
0.00439894
0.00458053
0.00480625
0.00512757
0.00553488
0.00592577
0.00626961
0.00662507
0.00696946
0.00725883
0.00738134
0.00713405
0.00629421
0.00575884
0.00609396
0.00676406
0.00715816
0.0075578
0.00866156
0.0105571
0.0129998
0.0156515
0.0190554
0.0247756
0.00729306
0.00628129
0.00542073
0.00467847
0.00403736
0.0034788
0.00299467
0.00257878
0.00222249
0.00192134
0.00169926
0.0016695
0.00172819
0.00172397
0.00174533
0.00548692
0.00701845
0.00963486
0.0104726
0.0115357
0.0119534
0.0123031
0.0123039
0.0118781
0.0114799
0.0118547
0.0124203
0.0132773
0.0139789
0.0146321
0.0152761
0.0159083
0.00385183
0.00406118
0.00427014
0.0044728
0.00468342
0.00490206
0.00513523
0.00541901
0.00574746
0.00610062
0.00653748
0.00699107
0.00745972
0.00796368
0.00852775
0.00910843
0.00952861
0.00966701
0.0100569
0.0108634
0.0118386
0.0128296
0.0138206
0.0149918
0.0166277
0.019027
0.0222187
0.0264195
0.00729528
0.00628454
0.00542001
0.00467488
0.00403336
0.00347491
0.00299431
0.00258013
0.00222821
0.00192493
0.00168126
0.00153946
0.00148665
0.00147584
0.00147286
0.00311858
0.00445179
0.00587016
0.00575023
0.00608581
0.00744487
0.00906423
0.0105207
0.0111436
0.0110719
0.0106693
0.0106624
0.0116519
0.0124485
0.0131376
0.013696
0.0141822
0.0146047
0.014957
0.0151945
0.0154985
0.0037858
0.00401522
0.004253
0.00439326
0.00443446
0.00458884
0.00498409
0.00532884
0.00573637
0.00630787
0.00711921
0.00812543
0.0090473
0.00974656
0.0103769
0.0110844
0.0118939
0.0128273
0.0139286
0.0152443
0.0169858
0.0194058
0.0225903
0.026547
0.00729844
0.00628739
0.00541977
0.00467328
0.00403241
0.0034748
0.00299505
0.00258441
0.00223727
0.00193215
0.0016814
0.00149749
0.00137329
0.0013024
0.00127859
0.00193059
0.00265402
0.00367961
0.00390411
0.00375859
0.00437361
0.00596074
0.00770013
0.0089161
0.00936666
0.00932285
0.009233
0.00921588
0.00937723
0.00983457
0.0104094
0.0108613
0.011073
0.0107359
0.010258
0.0102705
0.0113202
0.0128505
0.0150412
0.0143615
0.00895192
0.0109188
0.0119977
0.0113438
0.0119736
0.0144845
0.00397557
0.00493158
0.00620839
0.00753088
0.00834436
0.00869255
0.00883778
0.00951689
0.0109186
0.0124743
0.0143648
0.0171472
0.0211237
0.0259412
0.00730118
0.00628635
0.00541384
0.00466395
0.00402231
0.00346697
0.00299139
0.00258838
0.00224279
0.00194206
0.00169393
0.00149626
0.00134101
0.00122312
0.0011588
0.00135615
0.00164064
0.00215377
0.00259384
0.00256439
0.00246423
0.00306101
0.00446372
0.00572215
0.00633653
0.0065746
0.00694906
0.00749517
0.00806874
0.00858662
0.00900912
0.00930687
0.00946227
0.00950405
0.00949631
0.00950606
0.00952074
0.00961643
0.00996622
0.00962148
0.0092588
0.0089691
0.0086679
0.00828579
0.00786454
0.00726076
0.00992161
0.0159508
0.00453057
0.005639
0.00637399
0.00653461
0.00609909
0.00550996
0.00504225
0.00601038
0.00781564
0.00962962
0.0134822
0.0172926
0.0073123
0.00632851
0.00549217
0.00478178
0.00417837
0.0036478
0.0031807
0.00278614
0.00244236
0.00213782
0.00187795
0.00166058
0.00148234
0.00133643
0.00122016
0.00119675
0.00125055
0.00145174
0.0016512
0.00168604
0.00162626
0.00167149
0.00205931
0.00269978
0.00324037
0.00356048
0.00388399
0.00438001
0.00507982
0.00586506
0.00658768
0.00717565
0.00761896
0.00793093
0.0081423
0.00825232
0.00825744
0.00824058
0.008265
0.00828978
0.00868811
0.00889585
0.00898988
0.00892743
0.00882133
0.00888596
0.00925833
0.00956951
0.00959269
0.0112427
0.0154188
0.00405365
0.00399427
0.00383211
0.00378628
0.0157968
0.00378709
0.00423166
0.00639798
0.00843898
0.00939665
0.0092988
0.00919605
0.00909147
0.0089841
0.00887618
0.00876922
0.00863865
0.00846084
0.00822238
0.00792127
0.00761959
0.00737434
0.00714596
0.0068406
0.00646371
0.00626788
0.00614514
0.00622422
0.00649619
0.00685931
0.00713773
0.00738591
0.00775526
0.00829861
0.00903517
0.00981024
0.0105481
0.0112129
0.0118792
0.0126466
0.0135634
0.0146277
0.00602517
0.00623357
0.00644219
0.00666237
0.00687211
0.00709724
0.00738988
0.0076595
0.00791675
0.00816729
0.00840993
0.00864186
0.00886513
0.00906241
0.00924273
0.00938416
0.00943266
0.00944295
0.00953934
0.00977266
0.0101665
0.0105791
0.0110929
0.011571
0.011991
0.0123356
0.0130346
)
;

boundaryField
{
    wall
    {
        type            compressible::alphatJayatillekeWallFunction;
        Prt             0.85;
        value           uniform 0;
    }
    inlet
    {
        type            calculated;
        value           uniform 0.189515;
    }
    outlet
    {
        type            calculated;
        value           nonuniform List<scalar> 
20
(
0.0364196
0.0180495
0.0173302
8.06525
8.06525
8.06525
8.06525
0.0167154
0.00846206
0.0130178
0.0304172
0.0118674
0.0174716
8.06525
8.06525
8.06525
8.06525
0.0172926
0.00843898
0.0130346
)
;
    }
    heatWall
    {
        type            compressible::alphatJayatillekeWallFunction;
        Prt             0.85;
        value           nonuniform List<scalar> 
240
(
0.000414009
0.000413867
0.000410618
0.000410502
0.000406856
0.000406952
0.000403015
0.00040329
0.000399392
0.000399556
0.000395647
0.000395842
0.000391686
0.000392057
0.000387183
0.000387445
0.000381279
0.000381162
0.000372463
0.000372748
0.000361496
0.000361915
0.000350786
0.000350942
0.000341936
0.000341977
0.000333428
0.000333576
0.000322086
0.000322177
0.000307874
0.000307521
0.000300696
0.000299737
0.000296516
0.00029495
0.000300037
0.000298201
0.000310607
0.000308829
0.000324039
0.000322506
0.000333764
0.000333137
0.000342154
0.000342958
0.000355128
0.000357144
0.000374491
0.000377018
0.00040043
0.000402783
0.0004272
0.000428907
0.000452303
0.000452904
0.000474536
0.000474255
0.000496308
0.000495765
0.000520802
0.00052047
0.000549512
0.000549531
0.000582241
0.000582524
0.00060799
0.000608227
0.00063128
0.000631262
0.000655218
0.000655291
0.000680513
0.000680901
0.000704503
0.000705618
0.000730194
0.000731508
0.000763381
0.000764475
0.000794127
0.000794775
0.000823424
0.00082395
0.000851868
0.000852379
0.000879353
0.000879833
0.000905559
0.000905974
0.0009308
0.000931248
0.000952867
0.000953594
0.000973082
0.000974858
0.000987903
0.000990364
0.000995911
0.000998318
0.000994666
0.00100344
0.00100437
0.00101585
0.00103034
0.00104366
0.001074
0.0010839
0.00112236
0.0011283
0.00118084
0.00118529
0.0012345
0.00123876
0.00128164
0.00128451
0.00132067
0.00132243
0.0013993
0.00140048
0.000413746
0.000413202
0.000410362
0.000410265
0.000407133
0.000407367
0.000403702
0.000404168
0.000399916
0.000400637
0.000395774
0.000396135
0.000391671
0.000391685
0.000387787
0.000387704
0.000384315
0.000384237
0.000379595
0.000379759
0.000377704
0.000378185
0.000381957
0.000382685
0.00038824
0.000388908
0.000390727
0.000391645
0.000390238
0.000390365
0.000365078
0.00036524
0.000369003
0.000369485
0.000372789
0.000374094
0.000396404
0.000396119
0.000428087
0.000427997
0.000446346
0.000446884
0.000464023
0.000464585
0.000487863
0.00048815
0.000517834
0.000517421
0.00055336
0.000551788
0.000591871
0.0005898
0.000612647
0.00060995
0.000636116
0.000632923
0.000658565
0.000655366
0.000678244
0.000675573
0.000695952
0.000694148
0.000712891
0.000711917
0.000728657
0.000728239
0.000742608
0.000742511
0.000754469
0.000754677
0.000765168
0.000765821
0.000778741
0.000779342
0.000799775
0.000799623
0.000819613
0.000818878
0.000835247
0.000834305
0.000845589
0.000844656
0.000848221
0.000848078
0.00083633
0.00083599
0.000836246
0.000833319
0.000850027
0.000847508
0.000868331
0.00086425
0.000882214
0.000877785
0.000883171
0.000879284
0.000875908
0.000872019
0.000851188
0.00084804
0.000842084
0.000848619
0.000946956
0.000975574
0.00138466
0.00129444
0.00203708
0.00195983
0.00239097
0.00242042
0.00278923
0.00279957
0.00312523
0.00310374
0.00332125
0.00325029
0.00340736
0.00332945
0.00424214
0.00410738
)
;
    }
}


// ************************************************************************* //
