/*--------------------------------*- C++ -*----------------------------------*\
  =========                 |
  \\      /  F ield         | OpenFOAM: The Open Source CFD Toolbox
   \\    /   O peration     | Website:  https://openfoam.org
    \\  /    A nd           | Version:  8
     \\/     M anipulation  |
\*---------------------------------------------------------------------------*/
FoamFile
{
    version     2.0;
    format      ascii;
    class       volScalarField;
    location    "1000";
    object      nut;
}
// * * * * * * * * * * * * * * * * * * * * * * * * * * * * * * * * * * * * * //

dimensions      [0 2 -1 0 0 0 0];

internalField   nonuniform List<scalar> 
1200
(
9.44181e-06
9.34154e-06
9.25005e-06
9.15634e-06
9.0504e-06
8.92739e-06
8.80576e-06
8.69304e-06
8.59391e-06
8.46375e-06
8.41539e-06
8.53942e-06
8.71621e-06
8.78924e-06
8.76171e-06
8.04992e-06
8.15943e-06
8.27867e-06
8.91612e-06
9.84564e-06
1.04012e-05
1.09347e-05
1.16595e-05
1.25807e-05
1.36874e-05
1.49329e-05
6.05775e-06
6.25884e-06
6.45867e-06
6.63995e-06
6.80531e-06
6.96221e-06
7.10513e-06
7.23022e-06
7.33957e-06
7.43899e-06
7.55501e-06
7.73189e-06
7.90193e-06
8.03882e-06
8.13079e-06
8.17394e-06
8.06014e-06
8.00128e-06
8.13265e-06
8.29025e-06
8.42621e-06
8.46087e-06
8.40351e-06
8.17802e-06
8.12042e-06
9.56991e-06
1.28206e-05
1.9376e-05
2.2342e-05
2.58158e-05
2.8626e-05
2.98684e-05
2.99832e-05
3.65765e-05
7.32669e-06
6.34629e-06
5.52494e-06
4.83395e-06
4.23998e-06
3.70335e-06
3.25314e-06
2.90101e-06
2.68367e-06
2.4993e-06
2.55633e-06
3.34725e-06
3.45551e-06
3.44305e-06
2.65072e-06
3.34429e-06
4.11038e-06
4.27186e-06
7.2036e-06
8.48883e-06
7.4848e-06
6.86263e-06
7.086e-06
7.87757e-06
8.8667e-06
9.66214e-06
1.01371e-05
1.0376e-05
1.05014e-05
1.0634e-05
1.07756e-05
1.09026e-05
1.10353e-05
1.12248e-05
1.15124e-05
1.17272e-05
1.17206e-05
1.15806e-05
1.25335e-05
1.42411e-05
1.52533e-05
1.56181e-05
1.60227e-05
3.72903e-06
3.77051e-06
3.7879e-06
1.60148e-05
3.83551e-06
3.95175e-06
4.07412e-06
4.40782e-06
5.9229e-06
7.42988e-06
9.43824e-06
1.01291e-05
9.30631e-06
9.01917e-06
1.14334e-05
1.5455e-05
1.81273e-05
7.31947e-06
6.30562e-06
5.44489e-06
4.70764e-06
4.06688e-06
3.50385e-06
3.01186e-06
2.60134e-06
2.27569e-06
2.0284e-06
1.97439e-06
2.38776e-06
2.3905e-06
2.033e-06
1.75762e-06
4.74211e-06
6.28212e-06
9.86383e-06
1.0843e-05
1.131e-05
1.11521e-05
1.10525e-05
1.08622e-05
1.15805e-05
1.19822e-05
1.20093e-05
1.22536e-05
1.26293e-05
1.30458e-05
1.34148e-05
1.36301e-05
1.3613e-05
1.34039e-05
1.35785e-05
1.42184e-05
1.46704e-05
1.47966e-05
1.50286e-05
1.5729e-05
3.89542e-06
4.23799e-06
4.60054e-06
4.9156e-06
5.13088e-06
5.24646e-06
5.21968e-06
4.80064e-06
4.04137e-06
1.59622e-05
3.8172e-06
4.29538e-06
5.27258e-06
5.83303e-06
6.64859e-06
6.85041e-06
7.20195e-06
8.23904e-06
1.01727e-05
1.25577e-05
1.7404e-05
7.32519e-06
6.31016e-06
5.44881e-06
4.71104e-06
4.07192e-06
3.50592e-06
3.00978e-06
2.58966e-06
2.23331e-06
1.93918e-06
1.78026e-06
1.96438e-06
2.07348e-06
1.92362e-06
2.9389e-06
9.24295e-06
1.0738e-05
1.15645e-05
1.24077e-05
1.28869e-05
1.31194e-05
1.31337e-05
1.29148e-05
1.25169e-05
1.21345e-05
1.2387e-05
1.2907e-05
1.34809e-05
1.40196e-05
1.4551e-05
1.5053e-05
1.55236e-05
1.59861e-05
3.85765e-06
4.04681e-06
4.23471e-06
4.41642e-06
4.5965e-06
4.81982e-06
5.14155e-06
5.55217e-06
5.94555e-06
6.29647e-06
6.65063e-06
6.99008e-06
7.26506e-06
7.35709e-06
7.06019e-06
6.18513e-06
5.6703e-06
6.00285e-06
6.68452e-06
7.09664e-06
7.53178e-06
8.64389e-06
1.05317e-05
1.28989e-05
1.55185e-05
1.89777e-05
2.46522e-05
7.33e-06
6.31126e-06
5.44762e-06
4.70574e-06
4.06496e-06
3.50282e-06
3.00912e-06
2.59126e-06
2.23369e-06
1.93208e-06
1.70944e-06
1.68154e-06
1.74093e-06
1.73447e-06
1.74847e-06
5.47286e-06
7.17726e-06
9.62191e-06
1.03617e-05
1.16152e-05
1.20498e-05
1.24283e-05
1.24371e-05
1.2025e-05
1.157e-05
1.1922e-05
1.25031e-05
1.33714e-05
1.4072e-05
1.47262e-05
1.53457e-05
3.73017e-06
3.8733e-06
4.08233e-06
4.28998e-06
4.49017e-06
4.70056e-06
4.92366e-06
5.15698e-06
5.4429e-06
5.77567e-06
6.1378e-06
6.57044e-06
7.0197e-06
7.48784e-06
7.99593e-06
8.56621e-06
9.13751e-06
9.5124e-06
9.61969e-06
9.99777e-06
1.08059e-05
1.1785e-05
1.27838e-05
1.37939e-05
1.4995e-05
1.66649e-05
1.90736e-05
2.2267e-05
2.64791e-05
7.33255e-06
6.31308e-06
5.44721e-06
4.70265e-06
4.06018e-06
3.49885e-06
3.00923e-06
2.5941e-06
2.23771e-06
1.93606e-06
1.69173e-06
1.54916e-06
1.49689e-06
1.48567e-06
1.4797e-06
3.10719e-06
4.41938e-06
5.86021e-06
5.77501e-06
6.1107e-06
7.42084e-06
9.03182e-06
1.06251e-05
1.12492e-05
1.11903e-05
1.07882e-05
1.06697e-05
1.1781e-05
1.25462e-05
1.32172e-05
1.3773e-05
1.42597e-05
1.46864e-05
1.50283e-05
1.52568e-05
1.55677e-05
3.80213e-06
4.03156e-06
4.28245e-06
4.43109e-06
4.4773e-06
4.60334e-06
4.99498e-06
5.33648e-06
5.75231e-06
6.34089e-06
7.18374e-06
8.19089e-06
9.09461e-06
9.78001e-06
1.04029e-05
1.11154e-05
1.19339e-05
1.28725e-05
1.39752e-05
1.52991e-05
1.70564e-05
1.947e-05
2.25535e-05
2.64029e-05
7.33428e-06
6.31609e-06
5.4474e-06
4.70183e-06
4.05943e-06
3.49842e-06
3.01286e-06
2.59817e-06
2.24461e-06
1.94168e-06
1.69181e-06
1.50684e-06
1.38234e-06
1.31131e-06
1.2857e-06
1.93794e-06
2.652e-06
3.53071e-06
3.86016e-06
3.7825e-06
4.36034e-06
5.92175e-06
7.65807e-06
8.90855e-06
9.39089e-06
9.34567e-06
9.25368e-06
9.23681e-06
9.38989e-06
9.84917e-06
1.0425e-05
1.08835e-05
1.1143e-05
1.07862e-05
1.03676e-05
1.03257e-05
1.13235e-05
1.28357e-05
1.51807e-05
1.47069e-05
8.92328e-06
1.10055e-05
1.2139e-05
1.1493e-05
1.20317e-05
1.44813e-05
3.98268e-06
5.0305e-06
6.33144e-06
7.63624e-06
8.44512e-06
8.80798e-06
8.97807e-06
9.64382e-06
1.10142e-05
1.25527e-05
1.44504e-05
1.72269e-05
2.1185e-05
2.60048e-05
7.33677e-06
6.31682e-06
5.44227e-06
4.69248e-06
4.04849e-06
3.48847e-06
3.00829e-06
2.5985e-06
2.25283e-06
1.95129e-06
1.70058e-06
1.50252e-06
1.34764e-06
1.23166e-06
1.16597e-06
1.36552e-06
1.65312e-06
2.06396e-06
2.49677e-06
2.56773e-06
2.48648e-06
3.05036e-06
4.43528e-06
5.72266e-06
6.36935e-06
6.6055e-06
6.96342e-06
7.4895e-06
8.05422e-06
8.57473e-06
9.00397e-06
9.31412e-06
9.47571e-06
9.51535e-06
9.4983e-06
9.5022e-06
9.5206e-06
9.6469e-06
1.0073e-05
9.70523e-06
9.2952e-06
8.99133e-06
8.69076e-06
8.33901e-06
7.89638e-06
7.17945e-06
9.93493e-06
3.74091e-06
4.636e-06
5.78398e-06
6.49784e-06
6.67511e-06
6.30251e-06
5.78788e-06
5.36407e-06
6.16282e-06
7.91571e-06
9.68508e-06
1.35673e-05
1.67874e-05
7.35022e-06
6.3626e-06
5.5227e-06
4.8111e-06
4.20481e-06
3.66791e-06
3.1965e-06
2.79509e-06
2.45388e-06
2.14838e-06
1.88599e-06
1.66835e-06
1.48923e-06
1.34177e-06
1.22542e-06
1.20136e-06
1.25083e-06
1.42053e-06
1.61196e-06
1.67854e-06
1.6392e-06
1.68873e-06
2.0729e-06
2.71859e-06
3.26693e-06
3.58366e-06
3.90064e-06
4.37947e-06
5.06441e-06
5.84392e-06
6.56867e-06
7.16218e-06
7.61115e-06
7.9301e-06
8.14574e-06
8.26441e-06
8.27884e-06
8.26996e-06
8.29559e-06
8.30778e-06
8.6901e-06
8.90354e-06
9.02647e-06
8.99708e-06
8.89725e-06
8.95034e-06
9.62269e-06
1.01797e-05
1.00507e-05
1.14335e-05
1.62108e-05
4.22168e-06
4.14622e-06
3.9237e-06
3.82472e-06
1.61025e-05
3.87818e-06
4.32013e-06
6.46678e-06
8.49683e-06
9.44907e-06
9.34365e-06
9.2371e-06
9.12905e-06
9.03054e-06
8.92232e-06
8.80473e-06
8.67808e-06
8.51337e-06
8.2563e-06
7.94736e-06
7.65207e-06
7.41046e-06
7.17725e-06
6.87274e-06
6.50606e-06
6.31994e-06
6.20092e-06
6.27789e-06
6.5484e-06
6.91376e-06
7.17344e-06
7.38135e-06
7.71144e-06
8.24451e-06
8.99252e-06
9.7912e-06
1.05665e-05
1.12622e-05
1.19416e-05
1.27067e-05
1.3617e-05
1.4677e-05
6.01795e-06
6.2562e-06
6.46806e-06
6.68577e-06
6.88756e-06
7.11091e-06
7.40423e-06
7.68305e-06
7.94364e-06
8.1956e-06
8.43888e-06
8.67191e-06
8.8963e-06
9.08583e-06
9.24447e-06
9.36061e-06
9.396e-06
9.32439e-06
9.38876e-06
9.60227e-06
1.00348e-05
1.05122e-05
1.10586e-05
1.15419e-05
1.1987e-05
1.23553e-05
1.30695e-05
9.4267e-06
9.33486e-06
9.25437e-06
9.17369e-06
9.07949e-06
8.946e-06
8.80949e-06
8.69109e-06
8.59273e-06
8.469e-06
8.42878e-06
8.55868e-06
8.73363e-06
8.81593e-06
8.76393e-06
8.05369e-06
8.17043e-06
8.31049e-06
8.90551e-06
9.83634e-06
1.04117e-05
1.09473e-05
1.16639e-05
1.25604e-05
1.36292e-05
1.48575e-05
6.03251e-06
6.22711e-06
6.42184e-06
6.60568e-06
6.77853e-06
6.94357e-06
7.09332e-06
7.22355e-06
7.33834e-06
7.44243e-06
7.56007e-06
7.72974e-06
7.89171e-06
8.02415e-06
8.11169e-06
8.15624e-06
8.04391e-06
7.95904e-06
8.08233e-06
8.22863e-06
8.35126e-06
8.36857e-06
8.30166e-06
8.13214e-06
8.21145e-06
9.9414e-06
1.26865e-05
1.92371e-05
2.24276e-05
2.57659e-05
2.81781e-05
2.86614e-05
2.56701e-05
3.05483e-05
7.3331e-06
6.35141e-06
5.53026e-06
4.83417e-06
4.23893e-06
3.70638e-06
3.25087e-06
2.8967e-06
2.67461e-06
2.4981e-06
2.54888e-06
3.33405e-06
3.44751e-06
3.43595e-06
2.63305e-06
3.33181e-06
4.13216e-06
4.28232e-06
7.05994e-06
8.47889e-06
7.54076e-06
6.90662e-06
7.09188e-06
7.8577e-06
8.83705e-06
9.62508e-06
1.01011e-05
1.03415e-05
1.04708e-05
1.06105e-05
1.07575e-05
1.08822e-05
1.10096e-05
1.11977e-05
1.14859e-05
1.17051e-05
1.16987e-05
1.15463e-05
1.25146e-05
1.42771e-05
1.50744e-05
1.568e-05
1.60451e-05
3.78311e-06
3.66162e-06
3.79166e-06
3.77699e-06
3.96496e-06
3.95419e-06
4.07454e-06
4.53538e-06
6.06053e-06
7.08934e-06
8.90583e-06
1.03795e-05
9.05879e-06
9.1389e-06
7.86301e-06
1.22338e-05
1.19185e-05
7.32735e-06
6.30953e-06
5.44828e-06
4.70527e-06
4.06087e-06
3.50029e-06
3.01112e-06
2.60163e-06
2.27362e-06
2.02725e-06
1.97027e-06
2.37763e-06
2.38518e-06
2.03141e-06
1.77323e-06
4.71194e-06
6.3352e-06
9.84401e-06
1.08024e-05
1.12888e-05
1.1157e-05
1.10611e-05
1.08737e-05
1.15514e-05
1.19338e-05
1.19649e-05
1.22219e-05
1.26054e-05
1.30253e-05
1.33912e-05
1.35966e-05
1.3559e-05
1.33377e-05
1.35489e-05
1.42126e-05
1.46344e-05
1.47546e-05
1.50409e-05
1.57356e-05
3.89371e-06
4.2357e-06
4.60807e-06
4.93896e-06
5.15208e-06
5.27457e-06
5.29727e-06
4.93381e-06
4.03029e-06
3.73735e-06
3.85917e-06
4.37392e-06
5.14316e-06
5.66272e-06
6.46416e-06
6.67568e-06
7.11543e-06
8.27861e-06
1.02551e-05
1.26824e-05
1.7546e-05
7.32999e-06
6.31248e-06
5.45134e-06
4.70962e-06
4.06789e-06
3.50382e-06
3.01157e-06
2.59155e-06
2.2332e-06
1.93871e-06
1.77762e-06
1.95654e-06
2.06662e-06
1.9206e-06
2.97057e-06
9.17954e-06
1.07247e-05
1.15443e-05
1.23765e-05
1.28575e-05
1.3067e-05
1.30628e-05
1.28255e-05
1.24189e-05
1.20855e-05
1.23791e-05
1.28879e-05
1.34592e-05
1.40039e-05
1.45408e-05
1.50446e-05
1.55134e-05
1.59558e-05
3.85619e-06
4.04595e-06
4.23444e-06
4.41757e-06
4.59988e-06
4.82654e-06
5.14928e-06
5.55842e-06
5.95103e-06
6.29632e-06
6.6533e-06
6.99921e-06
7.28987e-06
7.41287e-06
7.16437e-06
6.3206e-06
5.78257e-06
6.11907e-06
6.79218e-06
7.18823e-06
7.58963e-06
8.69821e-06
1.0602e-05
1.30554e-05
1.57187e-05
1.91373e-05
2.48823e-05
7.33147e-06
6.31437e-06
5.44928e-06
4.70311e-06
4.05862e-06
3.49712e-06
3.01044e-06
2.59237e-06
2.2342e-06
1.93146e-06
1.708e-06
1.67715e-06
1.7349e-06
1.72974e-06
1.75066e-06
5.50552e-06
7.04487e-06
9.67313e-06
1.05156e-05
1.15844e-05
1.20038e-05
1.23555e-05
1.23567e-05
1.1929e-05
1.15292e-05
1.19056e-05
1.24736e-05
1.33342e-05
1.40388e-05
1.46949e-05
1.53417e-05
1.59766e-05
3.86836e-06
4.07861e-06
4.28846e-06
4.49198e-06
4.7035e-06
4.92306e-06
5.15722e-06
5.44223e-06
5.77212e-06
6.12681e-06
6.56555e-06
7.02109e-06
7.49177e-06
7.99791e-06
8.56442e-06
9.14761e-06
9.56955e-06
9.70841e-06
1.00999e-05
1.09099e-05
1.18894e-05
1.28847e-05
1.388e-05
1.50564e-05
1.66993e-05
1.91089e-05
2.23144e-05
2.65333e-05
7.3337e-06
6.31764e-06
5.44856e-06
4.6995e-06
4.0546e-06
3.49321e-06
3.01008e-06
2.59372e-06
2.23995e-06
1.93507e-06
1.69005e-06
1.54714e-06
1.49344e-06
1.48188e-06
1.47826e-06
3.12937e-06
4.46767e-06
5.89019e-06
5.76875e-06
6.10498e-06
7.47043e-06
9.09984e-06
1.05653e-05
1.11913e-05
1.11193e-05
1.0715e-05
1.07081e-05
1.17019e-05
1.25018e-05
1.31939e-05
1.37547e-05
1.4243e-05
1.46673e-05
1.50211e-05
1.52596e-05
1.55649e-05
3.802e-06
4.0324e-06
4.27119e-06
4.41204e-06
4.4534e-06
4.60846e-06
5.00542e-06
5.35164e-06
5.76092e-06
6.33488e-06
7.14974e-06
8.16035e-06
9.08623e-06
9.7885e-06
1.04215e-05
1.1132e-05
1.19451e-05
1.28825e-05
1.39886e-05
1.531e-05
1.7059e-05
1.94894e-05
2.26876e-05
2.66613e-05
7.33688e-06
6.32051e-06
5.44832e-06
4.6979e-06
4.05364e-06
3.4931e-06
3.01083e-06
2.59802e-06
2.24905e-06
1.94233e-06
1.69024e-06
1.50526e-06
1.38017e-06
1.30856e-06
1.28416e-06
1.93819e-06
2.66405e-06
3.69267e-06
3.9171e-06
3.7706e-06
4.38745e-06
5.98074e-06
7.7283e-06
8.9507e-06
9.40396e-06
9.36041e-06
9.27075e-06
9.25412e-06
9.41664e-06
9.87631e-06
1.04538e-05
1.09078e-05
1.11204e-05
1.07818e-05
1.03019e-05
1.03144e-05
1.13686e-05
1.29053e-05
1.5105e-05
1.44222e-05
8.98937e-06
1.09651e-05
1.20486e-05
1.13917e-05
1.20241e-05
1.45458e-05
3.99242e-06
4.95254e-06
6.23494e-06
7.5632e-06
8.38021e-06
8.72986e-06
8.87568e-06
9.55772e-06
1.09656e-05
1.2528e-05
1.44267e-05
1.7221e-05
2.12147e-05
2.60529e-05
7.33964e-06
6.31946e-06
5.44236e-06
4.68851e-06
4.0435e-06
3.48523e-06
3.00714e-06
2.60201e-06
2.2546e-06
1.95228e-06
1.70285e-06
1.50411e-06
1.34797e-06
1.22934e-06
1.16443e-06
1.36227e-06
1.64768e-06
2.16243e-06
2.60361e-06
2.57381e-06
2.47312e-06
3.0717e-06
4.47924e-06
5.74241e-06
6.35936e-06
6.59874e-06
6.97534e-06
7.52443e-06
8.10113e-06
8.62182e-06
9.04655e-06
9.34581e-06
9.50197e-06
9.54391e-06
9.53609e-06
9.54581e-06
9.56041e-06
9.65641e-06
1.00077e-05
9.66148e-06
9.29716e-06
9.00622e-06
8.70377e-06
8.32009e-06
7.8971e-06
7.29079e-06
9.96292e-06
1.60175e-05
4.54969e-06
5.66296e-06
6.40114e-06
6.56244e-06
6.12495e-06
5.53315e-06
5.0634e-06
6.03574e-06
7.84885e-06
9.67077e-06
1.35401e-05
1.7367e-05
7.35081e-06
6.36184e-06
5.52109e-06
4.80696e-06
4.20038e-06
3.66701e-06
3.19745e-06
2.80081e-06
2.45522e-06
2.14908e-06
1.88784e-06
1.66932e-06
1.49012e-06
1.3434e-06
1.22643e-06
1.20269e-06
1.25652e-06
1.45835e-06
1.65843e-06
1.6933e-06
1.63321e-06
1.67848e-06
2.06758e-06
2.71019e-06
3.25259e-06
3.57384e-06
3.89864e-06
4.39673e-06
5.09948e-06
5.88806e-06
6.61375e-06
7.20417e-06
7.64924e-06
7.96236e-06
8.17445e-06
8.28475e-06
8.28971e-06
8.27269e-06
8.29724e-06
8.32212e-06
8.72206e-06
8.93063e-06
9.02503e-06
8.96237e-06
8.85594e-06
8.92093e-06
9.2949e-06
9.60741e-06
9.63078e-06
1.12876e-05
1.54808e-05
4.07005e-06
4.01041e-06
3.84752e-06
3.80145e-06
1.58599e-05
3.8022e-06
4.24861e-06
6.42397e-06
8.47366e-06
9.44612e-06
9.34773e-06
9.24442e-06
9.13927e-06
9.03131e-06
8.9228e-06
8.81526e-06
8.68398e-06
8.50523e-06
8.26551e-06
7.96282e-06
7.65956e-06
7.41301e-06
7.1834e-06
6.87634e-06
6.49716e-06
6.2999e-06
6.176e-06
6.25505e-06
6.52814e-06
6.89287e-06
7.17235e-06
7.42118e-06
7.79167e-06
8.33697e-06
9.0764e-06
9.8543e-06
1.05947e-05
1.12617e-05
1.19302e-05
1.27006e-05
1.3621e-05
1.46895e-05
6.05056e-06
6.25971e-06
6.46909e-06
6.69009e-06
6.9006e-06
7.12658e-06
7.42038e-06
7.69107e-06
7.94932e-06
8.20081e-06
8.44435e-06
8.67714e-06
8.90122e-06
9.09921e-06
9.28018e-06
9.42209e-06
9.47071e-06
9.48099e-06
9.57775e-06
9.81197e-06
1.02073e-05
1.06216e-05
1.11373e-05
1.16173e-05
1.20387e-05
1.23847e-05
1.30864e-05
)
;

boundaryField
{
    wall
    {
        type            nutkWallFunction;
        Cmu             0.09;
        kappa           0.41;
        E               9.8;
        value           nonuniform List<scalar> 
1200
(
0
0
0
0
0
0
0
0
0
0
0
0
0
0
0
0
0
0
0
0
0
0
0
0
0
0
0
0
0
0
0
0
0
0
0
0
0
0
0
0
0
0
0
0
0
0
0
0
0
0
0
0
0
0
0
0
0
0
0
0
0
0
0
0
0
0
0
0
0
0
0
0
0
0
0
0
0
0
0
0
0
0
0
0
0
0
0
0
0
0
0
0
0
0
0
0
0
0
0
0
0
0
0
0
0
0
0
0
0
0
0
0
0
0
0
0
0
0
0
0
0
0
0
0
0
0
0
0
0
0
0
0
0
0
0
0
0
0
0
0
0
0
0
0
0
0
0
0
0
0
0
0
0
0
0
0
0
0
0
0
0
0
0
0
0
0
0
0
0
0
0
0
0
0
0
0
0
0
0
0
0
0
0
0
0
0
0
0
0
0
0
0
0
0
0
0
0
0
0
0
0
0
0
0
0
0
0
0
0
0
0
0
0
0
0
0
0
0
0
0
0
0
0
0
0
0
0
0
0
0
0
0
0
0
0
0
0
0
0
0
0
0
0
0
0
0
0
0
0
0
0
0
0
0
0
0
0
0
0
0
3.82558e-09
0
0
0
0
0
0
0
0
0
2.51435e-08
0
0
0
0
0
0
0
0
0
4.54614e-08
0
0
0
0
0
0
0
0
0
6.32151e-08
0
0
0
0
0
0
0
0
0
7.91474e-08
0
0
0
0
0
0
0
0
0
9.435e-08
0
0
0
0
0
0
0
0
0
1.08467e-07
0
0
0
1.30787e-08
0
0
0
0
0
1.20935e-07
0
0
1.12541e-08
4.79002e-08
0
0
0
0
0
1.31518e-07
0
0
4.26919e-08
8.2455e-08
0
0
0
0
2.07719e-08
1.4105e-07
0
0
7.37775e-08
1.1572e-07
0
0
0
0
4.24702e-08
1.53121e-07
0
0
1.03852e-07
1.49957e-07
2.2186e-09
0
0
0
6.53102e-08
1.71779e-07
0
0
1.33687e-07
1.85433e-07
3.97471e-08
0
0
0
8.68909e-08
1.89332e-07
0
0
1.70322e-07
2.22815e-07
7.88272e-08
0
0
0
1.09918e-07
2.03134e-07
0
1.77805e-08
2.21927e-07
2.67929e-07
1.01541e-07
0
0
0
1.39544e-07
2.1225e-07
0
7.39626e-08
2.86509e-07
3.19652e-07
1.07479e-07
0
0
0
1.66874e-07
2.14572e-07
0
1.34596e-07
3.47547e-07
3.74775e-07
1.3423e-07
0
0
0
1.92814e-07
2.04103e-07
1.65439e-10
1.87026e-07
4.01071e-07
4.42894e-07
1.98408e-07
0
0
0
2.17908e-07
2.04032e-07
0
2.20324e-07
4.55921e-07
5.12903e-07
2.53552e-07
0
0
0
2.42075e-07
2.16175e-07
1.51326e-09
2.39335e-07
5.08877e-07
5.84311e-07
3.18097e-07
0
0
0
2.65044e-07
2.3227e-07
1.29959e-09
2.42824e-07
5.53277e-07
6.60282e-07
4.07163e-07
0
0
0
2.87103e-07
2.44456e-07
9.35005e-11
1.88756e-07
5.7225e-07
7.44422e-07
5.32416e-07
4.33617e-08
0
0
3.06338e-07
2.45296e-07
3.6442e-09
2.34956e-08
5.35652e-07
8.30098e-07
6.83973e-07
1.91784e-07
5.11413e-10
0
3.2392e-07
2.38923e-07
2.70711e-08
0
4.08853e-07
8.91514e-07
8.20711e-07
3.92968e-07
1.26465e-07
0
3.36787e-07
2.17195e-07
4.80212e-08
3.54766e-09
3.27113e-07
9.11693e-07
9.23222e-07
5.95243e-07
3.04515e-07
0
3.43728e-07
2.09183e-07
9.4327e-08
6.91483e-08
3.80777e-07
9.68063e-07
1.01471e-06
7.17324e-07
4.18632e-07
0
3.42647e-07
3.01065e-07
2.77577e-07
2.05051e-07
4.78812e-07
1.08441e-06
1.11648e-06
7.68823e-07
4.42838e-07
5.04115e-08
3.51054e-07
6.74615e-07
5.42977e-07
3.10547e-07
5.39868e-07
1.2237e-06
1.23183e-06
7.90015e-07
3.76062e-07
4.01251e-08
3.73516e-07
1.21063e-06
7.98527e-07
4.30661e-07
5.99675e-07
1.3635e-06
1.36358e-06
8.90095e-07
2.84563e-07
1.32834e-08
4.11141e-07
1.49401e-06
8.69469e-07
4.58953e-07
7.63906e-07
1.50236e-06
1.51755e-06
1.09343e-06
2.11912e-07
3.7319e-09
4.52642e-07
1.80831e-06
8.91616e-07
5.31888e-07
1.04113e-06
1.66456e-06
1.69928e-06
1.31484e-06
3.65028e-07
5.46292e-10
5.02588e-07
2.07031e-06
9.67787e-07
7.0786e-07
1.38665e-06
1.88755e-06
1.93688e-06
1.57869e-06
6.41874e-07
6.46822e-09
5.48193e-07
2.22207e-06
1.2776e-06
9.93848e-07
1.75113e-06
2.21051e-06
2.26319e-06
1.95821e-06
9.10063e-07
8.06511e-08
5.88084e-07
2.28864e-06
1.79198e-06
1.33866e-06
2.21642e-06
2.63212e-06
2.68402e-06
2.48891e-06
1.45772e-06
4.252e-07
6.21013e-07
2.92434e-06
2.45512e-06
2.00886e-06
2.96705e-06
3.17546e-06
3.20162e-06
3.11435e-06
1.99374e-06
7.36087e-07
6.87042e-07
0
0
0
0
0
0
0
0
0
0
0
0
0
0
0
0
0
0
0
0
0
0
0
0
0
0
0
0
0
0
0
0
0
0
0
0
0
0
0
0
0
0
0
0
0
0
0
0
0
0
0
0
0
0
0
0
0
0
0
0
0
0
0
0
0
0
0
0
0
0
0
0
0
0
0
0
0
0
0
0
0
0
0
0
0
0
0
0
0
0
0
0
0
0
0
0
0
0
0
0
0
0
0
0
0
0
0
0
0
0
0
0
0
0
0
0
0
0
0
0
0
0
0
0
0
0
0
0
0
0
0
0
0
0
0
0
0
0
0
0
0
0
0
0
0
0
0
0
0
0
0
0
0
0
0
0
0
0
0
0
0
0
0
0
0
0
0
0
0
0
0
0
0
0
0
0
0
0
0
0
0
0
0
0
0
0
0
0
0
0
0
0
0
0
0
0
0
0
0
0
0
0
0
0
0
0
0
0
0
0
0
0
0
0
0
0
0
0
0
0
0
0
0
0
0
0
0
0
0
0
0
0
0
0
0
0
0
0
0
0
0
0
0
0
0
0
0
0
0
0
0
0
0
0
0
0
0
0
0
0
1.37031e-09
0
0
0
0
0
0
0
0
0
2.22482e-08
0
0
0
0
0
0
0
0
0
4.25708e-08
0
0
0
0
0
0
0
0
0
6.08089e-08
0
0
0
0
0
0
0
0
0
7.75258e-08
0
0
0
0
0
0
0
0
0
9.34765e-08
0
0
0
0
0
0
0
0
0
1.08093e-07
0
0
0
1.22153e-08
0
0
0
0
0
1.20849e-07
0
0
1.10779e-08
4.72968e-08
0
0
0
0
0
1.31703e-07
0
0
4.26469e-08
8.21064e-08
0
0
0
0
2.07555e-08
1.4163e-07
0
0
7.38188e-08
1.15761e-07
0
0
0
0
4.25365e-08
1.53654e-07
0
0
1.04106e-07
1.50221e-07
1.6188e-09
0
0
0
6.56593e-08
1.71645e-07
0
0
1.34176e-07
1.85366e-07
3.95464e-08
0
0
0
8.78923e-08
1.88682e-07
0
0
1.71179e-07
2.22789e-07
7.72501e-08
0
0
0
1.11094e-07
2.02303e-07
0
1.74292e-08
2.22871e-07
2.67731e-07
9.89577e-08
0
0
0
1.40519e-07
2.11428e-07
0
7.32446e-08
2.87076e-07
3.19078e-07
1.04383e-07
0
0
0
1.67448e-07
2.14446e-07
0
1.34525e-07
3.47507e-07
3.73707e-07
1.35319e-07
0
0
0
1.93279e-07
2.03804e-07
0
1.86774e-07
4.00675e-07
4.43071e-07
2.01117e-07
0
0
0
2.18358e-07
2.01451e-07
1.63931e-09
2.18848e-07
4.55708e-07
5.14254e-07
2.57446e-07
0
0
0
2.42496e-07
2.13957e-07
2.71643e-09
2.38321e-07
5.09513e-07
5.86012e-07
3.21006e-07
0
0
0
2.65406e-07
2.28686e-07
2.63953e-09
2.47552e-07
5.55879e-07
6.61693e-07
4.07811e-07
0
0
0
2.87494e-07
2.40572e-07
3.67059e-10
2.03439e-07
5.78511e-07
7.45232e-07
5.29316e-07
3.90813e-08
0
0
3.06971e-07
2.41888e-07
1.90215e-08
2.38544e-08
5.47751e-07
8.32003e-07
6.80606e-07
1.82059e-07
0
0
3.25461e-07
2.35511e-07
3.05007e-08
0
4.26278e-07
8.97239e-07
8.20015e-07
3.83766e-07
1.15427e-07
0
3.38919e-07
2.14423e-07
4.99086e-08
7.83584e-09
3.41431e-07
9.21128e-07
9.24181e-07
5.8897e-07
2.92797e-07
0
3.45812e-07
2.1494e-07
1.08307e-07
7.57528e-08
3.94627e-07
9.78252e-07
1.01663e-06
7.12392e-07
4.10704e-07
0
3.50248e-07
3.25951e-07
3.01244e-07
1.85282e-07
4.92413e-07
1.09428e-06
1.11819e-06
7.62745e-07
4.33976e-07
3.66377e-08
3.60989e-07
5.98735e-07
4.94184e-07
2.8925e-07
5.51032e-07
1.23373e-06
1.23302e-06
7.81079e-07
3.61706e-07
2.68781e-08
3.8501e-07
1.14817e-06
7.57039e-07
4.07305e-07
6.04686e-07
1.37318e-06
1.36469e-06
8.82721e-07
2.64289e-07
6.81472e-09
4.19651e-07
1.51742e-06
8.34483e-07
4.44996e-07
7.64203e-07
1.51009e-06
1.51903e-06
1.08997e-06
1.88757e-07
2.69243e-09
4.57728e-07
1.81643e-06
8.07764e-07
5.26442e-07
1.0374e-06
1.66843e-06
1.70022e-06
1.31366e-06
3.572e-07
0
5.06375e-07
2.05367e-06
8.90982e-07
7.04076e-07
1.38775e-06
1.88791e-06
1.93606e-06
1.57679e-06
6.3986e-07
6.36283e-10
5.51803e-07
2.16733e-06
1.0582e-06
9.96546e-07
1.75713e-06
2.21054e-06
2.26182e-06
1.95546e-06
9.11041e-07
7.65432e-08
5.90509e-07
2.22867e-06
1.75989e-06
1.34067e-06
2.21712e-06
2.63292e-06
2.68404e-06
2.48807e-06
1.45508e-06
4.23534e-07
6.22493e-07
2.82258e-06
2.28465e-06
2.02197e-06
2.96825e-06
3.17621e-06
3.2027e-06
3.11454e-06
1.97943e-06
7.35214e-07
6.88023e-07
)
;
    }
    inlet
    {
        type            calculated;
        value           uniform 0.000190513;
    }
    outlet
    {
        type            calculated;
        value           nonuniform List<scalar> 
20
(
3.65765e-05
1.81273e-05
1.7404e-05
0.0081
0.0081
0.0081
0.0081
1.67874e-05
8.49683e-06
1.30695e-05
3.05483e-05
1.19185e-05
1.7546e-05
0.0081
0.0081
0.0081
0.0081
1.7367e-05
8.47366e-06
1.30864e-05
)
;
    }
    heatWall
    {
        type            nutkWallFunction;
        Cmu             0.09;
        kappa           0.41;
        E               9.8;
        value           nonuniform List<scalar> 
240
(
1.08893e-06
1.08849e-06
1.07845e-06
1.07809e-06
1.06682e-06
1.06711e-06
1.05493e-06
1.05578e-06
1.04371e-06
1.04422e-06
1.03211e-06
1.03271e-06
1.01983e-06
1.02098e-06
1.00585e-06
1.00666e-06
9.87507e-07
9.87144e-07
9.6008e-07
9.60966e-07
9.25889e-07
9.27196e-07
8.9242e-07
8.92908e-07
8.64702e-07
8.64829e-07
8.38e-07
8.38465e-07
8.02315e-07
8.02602e-07
7.5744e-07
7.56324e-07
7.34689e-07
7.31649e-07
7.21387e-07
7.16422e-07
7.32489e-07
7.26671e-07
7.6588e-07
7.60261e-07
8.08198e-07
8.03373e-07
8.38729e-07
8.36758e-07
8.64977e-07
8.67498e-07
9.05494e-07
9.11796e-07
9.65784e-07
9.73649e-07
1.0462e-06
1.05348e-06
1.12874e-06
1.13399e-06
1.20574e-06
1.20757e-06
1.27364e-06
1.27277e-06
1.33989e-06
1.33824e-06
1.41417e-06
1.41317e-06
1.50091e-06
1.50096e-06
1.59934e-06
1.60019e-06
1.67646e-06
1.67717e-06
1.74597e-06
1.74592e-06
1.81721e-06
1.81742e-06
1.89225e-06
1.89339e-06
1.9632e-06
1.9665e-06
2.03898e-06
2.04285e-06
2.13657e-06
2.13978e-06
2.22667e-06
2.22856e-06
2.31225e-06
2.31378e-06
2.3951e-06
2.39658e-06
2.47494e-06
2.47632e-06
2.55086e-06
2.55206e-06
2.62382e-06
2.62511e-06
2.68748e-06
2.68957e-06
2.74568e-06
2.75078e-06
2.78829e-06
2.79535e-06
2.81128e-06
2.81818e-06
2.80769e-06
2.83287e-06
2.83554e-06
2.86848e-06
2.91001e-06
2.94813e-06
3.03483e-06
3.06307e-06
3.17262e-06
3.18952e-06
3.33862e-06
3.35121e-06
3.49032e-06
3.50234e-06
3.62313e-06
3.63121e-06
3.73284e-06
3.73777e-06
3.95304e-06
3.95632e-06
1.08811e-06
1.08643e-06
1.07766e-06
1.07736e-06
1.06767e-06
1.0684e-06
1.05706e-06
1.0585e-06
1.04533e-06
1.04757e-06
1.0325e-06
1.03362e-06
1.01978e-06
1.01982e-06
1.00772e-06
1.00747e-06
9.96942e-07
9.967e-07
9.82269e-07
9.82779e-07
9.76306e-07
9.77807e-07
9.89289e-07
9.91559e-07
1.00866e-06
1.01074e-06
1.01627e-06
1.01912e-06
1.01462e-06
1.01502e-06
9.35877e-07
9.36388e-07
9.47905e-07
9.49419e-07
9.59516e-07
9.63591e-07
1.03264e-06
1.03177e-06
1.13022e-06
1.12995e-06
1.18611e-06
1.18776e-06
1.2401e-06
1.24182e-06
1.31273e-06
1.3136e-06
1.40368e-06
1.40243e-06
1.51095e-06
1.50622e-06
1.6266e-06
1.6204e-06
1.68874e-06
1.68069e-06
1.75872e-06
1.74922e-06
1.82549e-06
1.81599e-06
1.8839e-06
1.87598e-06
1.93635e-06
1.93101e-06
1.98643e-06
1.98355e-06
2.03296e-06
2.03172e-06
2.07407e-06
2.07378e-06
2.10899e-06
2.1096e-06
2.14046e-06
2.14237e-06
2.18028e-06
2.18203e-06
2.2418e-06
2.24136e-06
2.29971e-06
2.29757e-06
2.34526e-06
2.34253e-06
2.37536e-06
2.37265e-06
2.38306e-06
2.38264e-06
2.34858e-06
2.34758e-06
2.34837e-06
2.33986e-06
2.38846e-06
2.38114e-06
2.44161e-06
2.42977e-06
2.48187e-06
2.46904e-06
2.48465e-06
2.47338e-06
2.46358e-06
2.4523e-06
2.39179e-06
2.38264e-06
2.36539e-06
2.38441e-06
2.66929e-06
2.7517e-06
3.91111e-06
3.65811e-06
5.70679e-06
5.49689e-06
6.66099e-06
6.73994e-06
7.72253e-06
7.75e-06
8.6097e-06
8.55331e-06
9.12444e-06
8.93878e-06
9.35053e-06
9.14704e-06
1.15127e-05
1.11661e-05
)
;
    }
}


// ************************************************************************* //
