/*--------------------------------*- C++ -*----------------------------------*\
  =========                 |
  \\      /  F ield         | OpenFOAM: The Open Source CFD Toolbox
   \\    /   O peration     | Website:  https://openfoam.org
    \\  /    A nd           | Version:  8
     \\/     M anipulation  |
\*---------------------------------------------------------------------------*/
FoamFile
{
    version     2.0;
    format      ascii;
    class       surfaceScalarField;
    location    "1000";
    object      phi;
}
// * * * * * * * * * * * * * * * * * * * * * * * * * * * * * * * * * * * * * //

dimensions      [1 0 -1 0 0 0 0];

internalField   nonuniform List<scalar> 
2860
(
0.00802428
-9.56119e-06
-0.00049325
0.00801218
4.93208e-05
-0.00130188
0.00798062
4.53877e-05
-0.00220845
0.00792248
5.274e-05
-0.00195051
0.00785758
6.02948e-05
0.000389585
0.00781241
5.5889e-05
0.0042832
0.00775337
7.6413e-05
0.00876438
0.00766698
0.000121647
0.0150834
0.00747938
0.000224042
0.0216863
0.00722934
0.000315793
0.0275879
0.00779406
0.000131259
0.0637502
0.00871461
-0.000143444
0.11226
0.00894863
-4.3404e-05
0.105359
0.00830933
0.000442646
0.0907539
0.00857044
-0.000291411
0.078641
0.0117156
-0.00260623
0.08175
0.0132861
-0.00106175
0.0616073
0.0137022
-0.000297866
0.0696477
0.0165766
-0.00224425
0.10501
0.0213681
-0.00430173
0.158435
0.0257012
-0.0044455
0.204999
0.0286801
-0.00374487
0.22566
0.0303655
-0.00265495
0.213913
0.0316606
-0.00244975
0.191177
0.0333459
-0.00310161
0.169952
0.0348595
-0.00219995
0.144591
0.0365695
-0.00133628
0.12207
0.0387483
-0.000483304
0.107528
0.0416764
-0.000447175
0.103366
0.045024
-0.00096601
0.113706
0.0480751
-0.00129247
0.131935
0.0504002
-0.00126115
0.151753
0.0522107
-0.00140639
0.166102
0.053835
-0.00185879
0.178648
0.0552023
-0.00213602
0.189486
0.0561444
-0.00204728
0.192632
0.0563416
-0.00160007
0.182943
0.0550272
-0.000148688
0.161355
0.0519
0.00171479
0.136078
0.0478846
0.0026563
0.109492
0.0437053
0.00309725
0.0883941
0.042207
-6.41393e-05
0.0817972
0.0440186
-0.00371131
0.073088
0.0465774
-0.00397162
0.0593323
0.0459046
-0.000696235
0.0631733
0.0444826
0.000395151
0.0799543
0.0409168
0.0026228
0.111034
0.0306219
0.00850724
0.141753
0.0208337
0.00808509
0.192679
0.008372
0.00754555
0.201679
-0.00373303
0.0111847
0.349906
-0.0186483
0.015236
0.159356
-0.0240813
0.0217288
-0.206025
-0.0229315
0.0257767
-0.0343483
-0.0343424
0.0119078
0.226626
-0.038995
0.00601675
0.331685
-0.0363504
0.00156502
0.326925
-0.0203447
-0.00830279
0.290917
-0.00833663
-0.00387393
0.103292
0.00144479
0.123165
0.007998
-5.37515e-05
-0.000253429
0.00800186
-5.3692e-06
-0.00103618
0.00798425
-2.5573e-06
-0.00206998
0.00795012
9.94623e-06
-0.00219678
0.00791352
2.78761e-05
-0.000227389
0.00788886
6.35977e-05
0.00400808
0.00783044
0.000152186
0.0105832
0.00770084
0.000308196
0.0231263
0.00731784
0.000692029
0.0440851
0.00682556
0.00128528
0.0953766
0.00596201
0.00200882
0.338673
0.00423901
0.00165294
0.556059
0.00278981
0.000439311
0.483938
0.00163655
0.000272579
0.32349
0.00306317
-0.00267615
0.194246
0.00738167
-0.00589125
-0.150484
0.00892486
-0.00261826
-0.175801
0.00734647
-0.000733373
-0.0546246
0.00705097
-0.000192856
0.171064
0.00999411
-0.00689389
0.318812
0.0147878
-0.00835221
0.449156
0.0184588
-0.00646514
0.549005
0.0200222
-0.00410259
0.568648
0.0199792
-0.00292521
0.536921
0.0198585
-0.00386928
0.483472
0.0201247
-0.00375825
0.421026
0.0206643
-0.00333367
0.360304
0.0210731
-0.00250746
0.305564
0.0213902
-0.00242351
0.262477
0.0217907
-0.00313052
0.249821
0.0222284
-0.00344817
0.265987
0.0223557
-0.00291405
0.295233
0.0219683
-0.0023796
0.310893
0.0211917
-0.00274716
0.317725
0.0206365
-0.00378494
0.318332
0.0208046
-0.00370454
0.293594
0.0205348
-0.00232952
0.266064
0.0174713
0.00190341
0.223
0.0105662
0.00744721
0.164426
0.00172503
0.0100653
0.0938753
-0.00459505
0.00657011
-0.120309
-0.00561609
0.00148045
-0.188182
-0.00495337
-0.00202285
-0.0974665
-0.00399703
-0.00444629
-0.09242
-0.00326372
-0.00524715
0.0366194
0.00141643
-0.00440146
0.192843
0.00469819
-0.000118007
0.213319
0.00359204
0.0120097
0.200072
0.00139648
0.0131206
0.397967
-0.00854873
0.0148456
0.300631
-0.0170186
0.0223606
0.362969
-0.029133
0.0354039
0.0885244
-0.0406965
0.0319168
-0.166031
-0.0379001
0.0269045
-0.116192
-0.0462153
0.0188873
-0.0113825
-0.0531591
0.0110258
-0.0376267
-0.0328598
0.00938826
-0.0905833
-0.0142341
0.00756918
0.0199501
-0.0199071
0.0077202
0.118216
0.00535078
0.071723
0.00795067
7.85675e-06
-0.000421811
0.00796173
1.92665e-05
-0.00203367
0.00795949
8.3237e-06
-0.00409017
0.00794723
5.6691e-06
-0.00497367
0.00792381
3.26723e-05
-0.00333713
0.00791565
9.54112e-05
0.000752996
0.0079124
0.000197031
0.00642615
0.00788694
0.000385445
0.0155454
0.00781834
0.000839177
0.0294678
0.0077269
0.0016185
0.0591129
0.00754168
0.00300081
0.1923
0.00662993
0.0031987
0.383393
0.00471979
0.00208714
0.429425
0.00293721
0.00104428
0.325818
0.00200253
-0.00333297
0.146608
0.00307478
-0.00442564
-0.224149
-0.000364342
-0.00046919
-0.139326
-0.00611537
0.00399134
0.297427
-0.00928419
0.00171664
0.326447
-0.0107208
-0.00647139
0.330115
-0.00973978
-0.00977056
0.346085
-0.00646811
-0.00992121
0.324644
-0.0028585
-0.00779951
0.28083
-0.00265232
-0.00371194
0.280483
-0.0045799
-0.00274499
0.252949
-0.00680757
-0.00257874
0.243131
-0.00960357
-0.00243289
0.286497
-0.0138248
-0.000569159
0.354737
-0.0184364
0.000239553
0.402138
-0.0212732
-0.000991812
0.420688
-0.0216847
-0.00206549
0.380656
-0.0205783
-0.00182248
0.278493
-0.021095
-0.000178702
0.14474
-0.0238828
0.000209329
0.0431845
-0.0265861
-0.00140332
-0.0367254
-0.028921
-0.00332904
-0.0941864
-0.030804
-0.00220608
-0.122673
-0.0322762
0.0027047
-0.153968
-0.035534
0.0102178
-0.189902
-0.0404827
0.0143803
-0.248766
-0.0449999
0.0095312
-0.284556
-0.0474603
0.00174894
-0.290743
-0.0486722
-0.00424083
-0.293452
-0.0493367
-0.00867231
-0.301183
-0.0493744
-0.00970522
-0.294497
-0.0445621
-0.00958797
-0.282272
-0.0289832
-0.00618622
-0.207837
-0.0258196
-0.00576519
0.111164
-0.0174173
0.00473468
0.312125
-0.0211825
0.0221578
0.326547
-0.0320831
0.0331927
0.236667
-0.0322124
0.0361366
-0.126027
-0.02554
0.0317767
-0.327797
-0.0221751
0.026412
-0.285564
-0.0197155
0.0186657
-0.348115
-0.0190414
0.00855358
-0.50141
-0.0165266
0.00548662
-0.59264
-0.0123045
0.00439942
-0.675014
-0.000737506
-0.00541621
-0.961236
-0.00731561
-1.04132
0.00797698
9.32903e-06
-0.000363413
0.00799528
2.71047e-06
-0.00147114
0.00799434
-1.37907e-05
-0.00264646
0.00797579
-1.44289e-05
-0.00283864
0.00795043
1.94086e-05
-0.00122137
0.00794607
8.80354e-05
0.00195481
0.00793996
0.000220566
0.00584221
0.0079102
0.000446501
0.0122408
0.00785817
0.000952676
0.022825
0.00789463
0.00176147
0.0452243
0.00831128
0.0032378
0.136729
0.00840762
0.00380318
0.287735
0.00740104
0.00318991
0.360641
0.00436364
0.00340884
0.351358
-0.00267449
0.00257096
0.202369
-0.00890586
0.0090749
-0.0117313
-0.0144842
0.00376584
0.175544
-0.0186674
0.00683971
0.2588
-0.0236822
0.00660967
0.300291
-0.0278628
-0.00262896
0.346306
-0.0312276
-0.00623476
0.362281
-0.0326873
-0.00772228
0.343199
-0.0324739
-0.00613438
0.29742
-0.0304946
-0.00149381
0.225232
-0.029261
0.000969118
0.116209
-0.0317697
-0.000325011
0.011802
-0.0334626
-0.00351821
-0.0262478
-0.0352594
-0.0013799
-0.0541125
-0.0374484
-0.000131537
-0.0866141
-0.0404433
-0.000297637
-0.124855
-0.0444308
-0.000558232
-0.158391
-0.0488721
-7.93288e-05
-0.198037
-0.0530523
0.00112853
-0.24545
-0.0568043
0.00109627
-0.290743
-0.0604288
-0.000537364
-0.332318
-0.0636875
-0.00278207
-0.373665
-0.0659165
-0.00268222
-0.412305
-0.0671825
0.0012602
-0.443283
-0.0692904
0.01013
-0.475049
-0.0725459
0.0156224
-0.519764
-0.0750774
0.00972294
-0.579091
-0.0760326
-0.000183919
-0.634973
-0.0772423
-0.00647358
-0.677137
-0.0790324
-0.0112233
-0.723755
-0.0801931
-0.0128
-0.784215
-0.0791574
-0.0131602
-0.843248
-0.0743888
-0.0103966
-0.861064
-0.0693585
-0.00654066
-0.771468
-0.0622613
0.00671463
-0.494031
-0.0550969
0.0258321
-0.343284
-0.046428
0.0388588
-0.425474
-0.0417141
0.0412949
-0.656678
-0.0387924
0.0362066
-0.695698
-0.0364735
0.0271583
-0.56524
-0.038128
0.0179633
-0.556035
-0.0418566
0.00806252
-0.684601
-0.041133
0.00219199
-0.715277
-0.0348887
-0.00332254
-0.672727
-0.0323488
-0.00645198
-0.76646
-0.00710214
-0.529551
0.00796762
1.65505e-05
-0.000371995
0.00798014
4.84711e-06
-0.00153092
0.00798155
-1.87644e-05
-0.00297206
0.00797214
-2.3195e-05
-0.0035703
0.0079523
1.51282e-05
-0.00243458
0.00795557
9.01488e-05
0.000264266
0.00798054
0.000223873
0.00330195
0.00801132
0.000441596
0.00714475
0.00810047
0.00090426
0.0120798
0.00833044
0.00163633
0.0219849
0.0088933
0.00304818
0.064884
0.00949751
0.00381766
0.156839
0.00954531
0.00359917
0.239993
0.00884634
0.00407628
0.270026
0.00578828
0.00557474
0.242414
0.00349854
0.0100843
0.0406084
-0.000431656
0.00704176
0.0122771
-0.0027756
0.0050872
0.0507011
-0.0101618
0.00251077
0.0714211
-0.0154335
0.00259303
0.220766
-0.0205114
-0.0013558
0.251694
-0.0236119
-0.00326405
0.302227
-0.0253091
-0.00244944
0.300271
-0.0254351
0.00282019
0.222509
-0.0258817
0.00529726
0.0815086
-0.0288629
-0.000382501
-0.0250507
-0.030445
-0.00393724
-0.0740325
-0.0339153
-0.000583711
-0.127883
-0.0377336
0.000776953
-0.16416
-0.0423859
0.00121147
-0.19082
-0.0478121
0.00162946
-0.221697
-0.0533979
0.00238301
-0.262946
-0.058705
0.00350446
-0.308036
-0.0634459
0.00302131
-0.351226
-0.067658
0.000884931
-0.392066
-0.0711012
-0.00168425
-0.428155
-0.0735848
-0.00217787
-0.459754
-0.0746666
9.13615e-06
-0.497986
-0.0759045
0.00886236
-0.536862
-0.0775565
0.0146255
-0.583922
-0.078372
0.00763789
-0.643931
-0.079518
-0.00237403
-0.722894
-0.0822847
-0.00633564
-0.83456
-0.0850558
-0.0103943
-0.93653
-0.087446
-0.0122242
-1.03254
-0.0899095
-0.0128135
-1.14957
-0.0939964
-0.00910279
-1.27625
-0.0982767
-0.00378094
-1.38623
-0.0965962
0.00609012
-1.43487
-0.0906086
0.0254721
-1.40046
-0.0870023
0.0417354
-1.4044
-0.0878596
0.0472333
-1.54466
-0.0891125
0.0430088
-1.65234
-0.0874154
0.0319791
-1.67004
-0.083849
0.0204363
-1.58373
-0.0798776
0.00854075
-1.41871
-0.0759594
0.000683902
-1.14908
-0.0722075
-0.00734429
-0.9931
-0.0730625
-0.00487485
-1.04955
-0.00341456
-0.883736
0.00796308
2.2222e-05
-0.000353886
0.00797634
4.45132e-06
-0.00141964
0.0079824
-2.11064e-05
-0.00273912
0.00797911
-2.66031e-05
-0.00339136
0.00796509
8.92022e-06
-0.00277112
0.00797531
8.21755e-05
-0.000844791
0.00801189
0.000209219
0.00115047
0.00806318
0.000409505
0.0031012
0.00818468
0.000805494
0.00503118
0.00848258
0.00141431
0.00890846
0.00916791
0.00255075
0.0268676
0.00998819
0.00331429
0.0703249
0.0105444
0.0034389
0.12375
0.0107269
0.0040533
0.173078
0.0101687
0.00600629
0.191479
0.0102405
0.00912418
0.0938194
0.00954289
0.0072284
0.0130971
0.0118568
0.00479486
-0.0802013
0.0117908
0.00212999
-0.214117
0.011166
0.00381832
-0.376938
0.00740353
0.00135691
-0.403073
0.00126731
0.00137567
-0.28396
-0.00510403
0.0030596
0.147455
-0.00795653
0.00600902
0.169869
-0.00820956
0.00748611
0.181993
-0.0110312
0.00517704
0.158867
-0.0170388
0.00463483
0.0493551
-0.0236598
0.00315225
-0.0310614
-0.0273173
0.00286401
-0.0609568
-0.0311642
0.0036242
-0.0710245
-0.0351489
0.00385078
-0.0727443
-0.038999
0.00389593
-0.0833705
-0.0426821
0.00458007
-0.0991943
-0.0455032
0.00337225
-0.112162
-0.0481966
0.00151664
-0.12479
-0.0503052
-0.00111112
-0.152514
-0.0520521
-0.00210772
-0.176025
-0.0517884
-0.001284
-0.214111
-0.0516751
0.00564275
-0.245359
-0.0506754
0.0102129
-0.242674
-0.0479505
0.000220498
-0.222062
-0.0470272
-0.0052899
-0.276901
-0.0491256
-0.00523577
-0.406958
-0.0510245
-0.00865196
-0.49567
-0.0537704
-0.010218
-0.554169
-0.0586648
-0.0115218
-0.668703
-0.0691519
-0.00665472
-0.881271
-0.0803132
0.000647661
-1.15202
-0.0871911
0.00912599
-1.35562
-0.0886266
0.0244383
-1.46626
-0.0874101
0.0389103
-1.55909
-0.0871537
0.0453006
-1.66209
-0.0872927
0.0420217
-1.76567
-0.0865272
0.0314214
-1.82634
-0.0852916
0.0209518
-1.75756
-0.0835505
0.0102247
-1.57316
-0.0814841
0.00488981
-1.2286
-0.07913
0.000146641
-0.901824
-0.0803654
0.00915701
-0.548826
0.0148157
-0.173017
0.00796238
1.9256e-05
-0.000294388
0.00798217
-1.54102e-05
-0.00116999
0.00799528
-3.82998e-05
-0.00212061
0.00799724
-4.23409e-05
-0.00251825
0.00798485
-1.06013e-05
-0.00213006
0.00800001
5.27147e-05
-0.000837454
0.00804544
0.000158461
0.000364334
0.00811514
0.000331815
0.00106009
0.00826256
0.000644202
0.00102107
0.00862293
0.00111243
0.00101191
0.00936885
0.00194941
0.00455452
0.0102556
0.00259622
0.0170292
0.0111004
0.00280681
0.0383745
0.0118516
0.00348382
0.0683481
0.0126172
0.00521195
0.0981024
0.0137853
0.00748747
0.0819405
0.0142983
0.00615759
0.0314895
0.0168994
0.00591098
-0.0346234
0.0182668
0.00347767
-0.146955
0.0191694
0.00363405
-0.28815
0.0184051
0.00246833
-0.394571
0.0158598
0.0033388
-0.447236
0.0118717
0.00591979
-0.334386
0.0099042
0.00867466
-0.225926
0.0111788
0.00911258
-0.184903
0.0119935
0.00631708
-0.205922
0.0118993
0.00547485
-0.189723
0.0101386
0.00469082
-0.150451
0.00722246
0.00506468
-0.120562
0.00408099
0.00614996
-0.102527
0.00125752
0.00676934
-0.0778372
-0.00079811
0.00664835
-0.0551395
-0.0018819
0.00531982
-0.0522521
-0.000459635
0.00392309
-0.0615548
-0.00267158
0.00243775
0.0881004
-0.00836772
0.00216533
0.103825
-0.0124787
0.00156696
0.141716
-0.0152545
0.00404451
0.145343
-0.0147637
0.00739404
-0.00574948
-0.00771577
0.00120914
-0.0326399
-0.00177834
-0.00587485
0.0604138
-0.0051504
-0.00279454
0.314844
-0.00564635
-0.0035735
0.260442
-0.00786383
-0.00517641
0.1721
-0.0117575
-0.00562327
0.225507
-0.0148699
-0.00365391
0.207841
-0.0262042
-0.0159625
-0.114542
-0.0336919
-0.00666471
-0.385414
-0.0408647
0.00768791
-0.889223
-0.0470403
0.0244944
-1.20461
-0.0475282
0.0340862
-1.33272
-0.044903
0.0375285
-1.46078
-0.0431326
0.0353911
-1.67643
-0.0443271
0.0296713
-2.00132
-0.0471354
0.0231387
-2.16582
-0.0501866
0.014042
-2.0823
-0.0526831
0.00938351
-1.6906
-0.0536803
0.00434708
-1.38184
-0.0569862
0.0140946
-1.02988
0.0204756
-0.910709
0.00792958
6.85011e-05
-0.000257126
0.00794529
7.84744e-06
-0.00137165
0.007961
-1.09208e-05
-0.0028558
0.00797412
-2.48332e-05
-0.00393616
0.00797873
-1.37826e-05
-0.0044474
0.00800906
3.4006e-05
-0.00407311
0.00806769
0.00011592
-0.00361917
0.00816231
0.000246222
-0.00374318
0.00834202
0.000460881
-0.00468991
0.00871957
0.000788855
-0.00607701
0.00941859
0.00133052
-0.0082681
0.0103154
0.00177584
-0.00971605
0.0111972
0.00201243
-0.00832632
0.0123696
0.00252089
0.000497936
0.0138774
0.00371492
0.0196777
0.0159046
0.00541035
0.0351224
0.0170941
0.0047729
0.0192222
0.0194705
0.00518661
-0.00635416
0.0218198
0.0038275
-0.0651698
0.0237026
0.00278674
-0.123662
0.0244297
0.00206241
-0.187415
0.0246701
0.0036939
-0.299003
0.0248363
0.00590579
-0.371569
0.0258663
0.00783243
-0.385472
0.0274681
0.00820826
-0.397143
0.0280659
0.00613277
-0.419589
0.0280736
0.00534164
-0.415235
0.027403
0.0045835
-0.380598
0.0265725
0.00481917
-0.331404
0.0261797
0.00560513
-0.287679
0.0264241
0.00603576
-0.251612
0.0272168
0.00577263
-0.228372
0.0279411
0.00478929
-0.224757
0.0282608
0.00387588
-0.228275
0.0275463
0.00324909
-0.200144
0.0269068
0.00316716
-0.189085
0.026463
0.00287299
-0.192833
0.0279921
0.00481767
-0.191491
0.0314454
0.00510399
-0.176376
0.0324414
0.000789906
-0.145851
0.0292917
-0.00211146
-0.120514
0.0274751
-0.000511122
-0.109064
0.0246396
-0.000976249
-0.0894934
0.0203103
-0.00150393
-0.0460132
0.0139095
-0.000268009
0.00445724
0.0129378
-0.000423733
0.00513944
-0.0125104
-0.010534
-0.0932599
-0.0258777
-0.0168663
-0.144457
-0.0254333
-0.00804632
-0.273042
-0.0187882
0.00468557
-0.501587
-0.0101699
0.0168925
-0.771803
-0.00295878
0.0219914
-0.851135
0.00106777
0.0190143
-0.787635
0.00324508
0.0128228
-0.873287
0.00688401
0.00834776
-1.09563
0.00742893
0.00765407
-1.67712
0.00545503
0.00856007
-1.71659
-0.00227684
0.00874387
-2.07897
-0.00423442
0.0139171
-1.42541
0.0122537
-1.51857
0.00796913
6.12953e-06
-0.000131404
0.00797842
-4.92432e-05
-0.000653912
0.00798612
-4.94735e-05
-0.0012947
0.00799108
-5.39457e-05
-0.00169749
0.00798563
-4.65983e-05
-0.00196028
0.0080121
-1.89404e-05
-0.0017695
0.00807557
2.53252e-05
-0.00174039
0.00818232
9.47083e-05
-0.00264239
0.00838417
0.000209501
-0.00487654
0.00879048
0.000400923
-0.00863522
0.00948258
0.000683255
-0.0152186
0.010388
0.00090913
-0.0233894
0.0114062
0.00104542
-0.0318088
0.0126819
0.0013362
-0.0384114
0.0144828
0.00195072
-0.0365214
0.0170141
0.00278529
-0.028112
0.0188459
0.0025803
-0.0283516
0.0211764
0.00274991
-0.0285649
0.0234626
0.00206841
-0.0423682
0.0254569
0.00111165
-0.0663241
0.0270048
0.000526737
-0.0912197
0.028726
0.0015407
-0.13768
0.0308731
0.0033639
-0.203321
0.0334532
0.00501691
-0.265586
0.0358786
0.00544855
-0.316229
0.0374338
0.00408806
-0.363086
0.0387955
0.00343976
-0.398658
0.0400005
0.00278268
-0.419915
0.0413485
0.00275575
-0.427345
0.0431025
0.00316159
-0.428077
0.04521
0.00340371
-0.424611
0.0474388
0.00327947
-0.426602
0.0494038
0.00272475
-0.436184
0.0510511
0.00215384
-0.444624
0.0525448
0.00164134
-0.449392
0.0542057
0.00148344
-0.456158
0.0556773
0.00153394
-0.468113
0.0578756
0.00300436
-0.478817
0.0601015
0.00295277
-0.474869
0.0601289
0.000455368
-0.456584
0.0586065
-0.0011152
-0.424418
0.0581608
-0.000546639
-0.428821
0.0579238
-0.00079149
-0.430916
0.0573322
-0.000900314
-0.429638
0.056657
-0.000770857
-0.412555
0.0561382
-0.00104719
-0.401582
0.0501986
-0.00704451
-0.380629
0.0423355
-0.00894908
-0.330482
0.0392546
-0.00490377
-0.314944
0.0405049
0.000906153
-0.375611
0.0448546
0.00811337
-0.424621
0.0502598
0.010763
-0.436405
0.0545738
0.00834731
-0.420853
0.0561632
0.00420661
-0.5012
0.0569214
0.00222425
-0.627415
0.0577018
0.00260115
-0.868905
0.0596596
0.00389034
-0.992883
0.0601037
0.00609925
-1.28163
0.0630505
0.0101774
-1.28526
0.00716778
-1.34565
0.00799819
-0.000184177
0.00798975
-0.000760111
0.00798157
-0.00127988
0.00796001
-0.00139794
0.00792439
-0.00136294
0.00791574
-0.000824017
0.0079445
-0.000388611
0.00802104
-0.000787301
0.00820506
-0.002097
0.008608
-0.00459237
0.00929798
-0.00971313
0.0102165
-0.0162864
0.0112813
-0.023675
0.0126534
-0.0319089
0.0146285
-0.0376938
0.0173728
-0.0441583
0.0198041
-0.0474027
0.0224532
-0.0444672
0.0245309
-0.0439271
0.025693
-0.0462682
0.026332
-0.0487637
0.0276039
-0.061324
0.0301136
-0.0809156
0.0336977
-0.100357
0.0373708
-0.119765
0.0397335
-0.139719
0.0418991
-0.159845
0.0440446
-0.1813
0.0466553
-0.204535
0.049811
-0.2278
0.0531847
-0.242334
0.0563399
-0.251089
0.0589229
-0.253771
0.0609361
-0.260703
0.0625204
-0.268857
0.0639414
-0.271617
0.0653141
-0.270131
0.0678658
-0.272883
0.0702781
-0.277409
0.0704189
-0.262727
0.0692057
-0.246556
0.0686715
-0.24826
0.0679569
-0.246049
0.0671865
-0.243145
0.0666094
-0.234044
0.0658764
-0.231879
0.0593282
-0.219745
0.0510694
-0.213615
0.0482331
-0.193412
0.0512425
-0.192183
0.0590507
-0.192842
0.0674504
-0.191871
0.0724698
-0.186156
0.0725116
-0.248163
0.0717491
-0.350956
0.0715118
-0.533431
0.0736618
-0.597178
0.0771078
-0.776368
0.0857802
-0.764386
-0.91167
0.00802193
-7.92814e-06
0.00800937
4.56764e-05
0.00798115
4.53128e-05
0.00792966
5.53591e-05
0.00785928
6.22685e-05
0.00780277
5.17537e-05
0.00774733
6.18858e-05
0.00765904
0.000102828
0.0074928
0.000196524
0.00726379
0.00030527
0.00782167
7.18473e-05
0.00872623
-0.000224289
0.00894565
-0.000160393
0.00838081
0.000351694
0.00863022
-0.000432505
0.0119743
-0.00286396
0.0134966
-0.00113417
0.0135821
-0.000261888
0.0160159
-0.00157812
0.0203934
-0.00374802
0.0245031
-0.00425175
0.0274679
-0.00364019
0.0291677
-0.00247941
0.0306289
-0.002351
0.0326666
-0.00305325
0.0342382
-0.00198774
0.0358759
-0.00101953
0.037848
-0.000233231
0.0406849
-0.000319895
0.0440569
-0.000935012
0.0471892
-0.00126211
0.0496045
-0.00118633
0.0515244
-0.0012358
0.0532684
-0.00162896
0.054735
-0.00198281
0.0556788
-0.00187025
0.0557817
-0.00128576
0.0544269
-5.11638e-05
0.0512598
0.00173112
0.0472931
0.0026794
0.042778
0.00316982
0.0411413
-0.000307015
0.0428877
-0.00374998
0.0456527
-0.0038267
0.0437958
0.00110157
0.0411991
0.00164804
0.0343519
0.00492105
0.0135774
0.0191277
-0.00325207
0.0114419
-0.0142511
0.00427369
-0.0199297
0.00747772
-0.0185124
0.0218411
-0.0171394
0.0145578
-0.0234927
0.0224176
-0.0387313
0.013435
-0.0452788
0.00423603
-0.0399035
-0.00143613
-0.015929
-0.0110146
-0.0039231
-0.00414168
0.00613184
0.00799496
-5.41155e-05
0.00799606
-7.89132e-06
0.00798248
-1.89577e-06
0.00796124
1.32901e-05
0.00792962
2.74047e-05
0.00789856
5.07892e-05
0.00784607
0.00012068
0.00771413
0.00026341
0.00734548
0.000631457
0.00685823
0.00122211
0.00598831
0.00192994
0.0042717
0.0015914
0.0028102
0.000370121
0.00166761
0.000204144
0.00308338
-0.00279184
0.00717149
-0.0060423
0.00865716
-0.00253682
0.00727931
-0.000545869
0.0068345
0.00130646
0.0094094
-0.00613923
0.0140741
-0.00831608
0.0178437
-0.00662654
0.0195119
-0.00405777
0.0195899
-0.00289888
0.0196366
-0.00383134
0.0198759
-0.00340317
0.020366
-0.00287829
0.020699
-0.00206464
0.0209897
-0.00206549
0.021408
-0.00288062
0.0218871
-0.00330509
0.022056
-0.00281286
0.0216965
-0.00234789
0.020976
-0.00258103
0.0204185
-0.00320195
0.0204879
-0.00331099
0.0200519
-0.00191487
0.0169558
0.00227386
0.00992683
0.00787947
0.00184244
0.0104948
-0.00337973
0.00651867
-0.00438349
0.000439724
-0.00420929
-0.00385691
-0.00381136
-0.00558966
-0.0055702
-0.00424096
-0.00039954
-0.00470151
0.00164063
-0.00086376
-0.00715644
0.0205703
-0.0135937
0.0167562
-0.0263452
0.0141143
-0.0333188
0.0269736
-0.0297021
0.0356543
-0.0278263
0.022477
-0.0227019
0.0216244
-0.0251598
0.0169453
-0.0237373
0.00784982
-0.0110809
0.0045797
-0.00379734
0.00223393
-0.0127164
0.00655676
0.00580149
0.00794503
7.56261e-06
0.00795351
1.77488e-05
0.00795668
8.40643e-06
0.00795724
8.62769e-06
0.00794404
2.70675e-05
0.00792695
6.94774e-05
0.00792397
0.000153403
0.0078905
0.000325889
0.00783005
0.000760118
0.0077444
0.00153093
0.00756241
0.00290781
0.00665883
0.00312103
0.00475334
0.00200968
0.00297631
0.000950843
0.0020362
-0.0034256
0.00286199
-0.0045391
-0.00043474
-0.000471166
-0.00600282
0.00391967
-0.00951939
0.0037411
-0.0113372
-0.00515747
-0.0106496
-0.00923524
-0.00755201
-0.00958492
-0.00402818
-0.00767933
-0.00347389
-0.00401444
-0.00489354
-0.0029083
-0.00708026
-0.00192295
-0.00989434
-0.00188169
-0.0141089
-0.000254872
-0.0185985
0.000446804
-0.021298
-0.000862163
-0.02169
-0.00199901
-0.0208752
-0.00180338
-0.0216572
-7.49544e-05
-0.0239541
0.000190635
-0.0261521
-0.00148043
-0.0283135
-0.00278045
-0.0302647
-0.00135026
-0.032009
0.00354418
-0.0353109
0.0106931
-0.0401524
0.014464
-0.0443962
0.00928707
-0.0466821
0.000827663
-0.048044
-0.0060853
-0.0487414
-0.0104926
-0.0481473
-0.0109628
-0.0433135
-0.0115275
-0.0318374
-0.00927605
-0.0374906
-0.00410303
-0.0328197
0.00518219
-0.0381161
0.0208401
-0.0314674
0.033427
-0.0235253
0.0268108
-0.0196854
0.0240581
-0.0178628
0.0193004
-0.0163784
0.0136393
-0.0150532
0.00546142
-0.0138684
0.00120064
-0.0130396
-0.00154997
-0.00132651
-0.00556474
-0.00625712
0.00797362
8.55256e-06
0.00799055
1.59422e-06
0.00799314
-1.3596e-05
0.00798477
-1.34307e-05
0.00796387
8.9492e-06
0.00795077
5.4933e-05
0.00794733
0.000166825
0.00791269
0.00036906
0.00787022
0.000851219
0.0079058
0.00164121
0.00831652
0.00312964
0.00841786
0.00373594
0.00741845
0.00312737
0.00437287
0.0033464
-0.00259769
0.00246736
-0.00908804
0.00825995
-0.0143803
0.00360436
-0.0182751
0.00743285
-0.0240927
0.00862167
-0.0284341
-0.00147462
-0.0316825
-0.00586755
-0.0330414
-0.00736877
-0.0329528
-0.00560736
-0.0312076
-0.00125686
-0.0295883
0.00142559
-0.0313184
0.00043037
-0.0322434
-0.00318162
-0.034042
-0.00108179
-0.0363282
0.000162684
-0.0394458
4.89439e-05
-0.0435463
-0.000248617
-0.0481331
3.84132e-05
-0.0524427
0.00108887
-0.0563187
0.000904315
-0.0600413
-0.000733493
-0.0633734
-0.00240219
-0.0656655
-0.00173422
-0.0670744
0.00243838
-0.0692631
0.0107895
-0.0725033
0.0158954
-0.0748921
0.00961405
-0.0757958
-0.00106664
-0.077082
-0.00824118
-0.0789128
-0.0131773
-0.079918
-0.0144223
-0.0788681
-0.0152347
-0.0737266
-0.0139369
-0.0642803
-0.00822989
-0.0524719
0.00288097
-0.044911
0.0189478
-0.0406423
0.0298008
-0.0390073
0.0318641
-0.0369873
0.0274368
-0.0352084
0.0190035
-0.0364118
0.0118519
-0.0391393
0.00414832
-0.0392952
-0.00187443
-0.0352918
-0.00778339
-0.0327994
-0.00728428
-0.00581984
0.0079644
1.66034e-05
0.00797517
4.37912e-06
0.00797958
-1.74939e-05
0.0079791
-2.0977e-05
0.00796718
4.06192e-06
0.00796102
5.57006e-05
0.007982
0.000169964
0.00800212
0.000363584
0.00809165
0.000804703
0.00832248
0.00151323
0.00889194
0.00291951
0.00949685
0.00373781
0.00954118
0.00353693
0.00884274
0.00400236
0.0057148
0.00553618
0.0035351
0.00986818
-3.3731e-05
0.0073964
-0.00198828
0.00575074
-0.0118633
0.00298935
-0.0165028
0.00276348
-0.0212221
-0.00134416
-0.0240948
-0.00336557
-0.0260644
-0.00170036
-0.0263315
0.00368316
-0.0257653
0.00547183
-0.0278902
-0.000713671
-0.0296556
-0.00442402
-0.0329866
-0.000436359
-0.0367066
0.000841385
-0.0413771
0.00137669
-0.04691
0.00176741
-0.0526365
0.00234654
-0.0580566
0.00328706
-0.0629017
0.00282542
-0.0671441
0.000744989
-0.0706529
-0.00141517
-0.073216
-0.00142794
-0.0744981
0.0012126
-0.0757928
0.00961759
-0.0774074
0.0148064
-0.0781984
0.00727628
-0.0795118
-0.00347997
-0.0824746
-0.00793758
-0.08529
-0.012206
-0.0875341
-0.0140026
-0.0897826
-0.0151149
-0.0931263
-0.0130543
-0.0961725
-0.00698847
-0.0938472
0.00120804
-0.0880377
0.0174093
-0.085589
0.0314544
-0.0872972
0.0368953
-0.0888342
0.0328086
-0.087356
0.0222062
-0.0834189
0.0125217
-0.0785749
0.00323273
-0.0746968
-0.0037655
-0.0722704
-0.0110836
-0.0734962
-0.00588024
-0.00259367
0.00796064
2.36097e-05
0.00797261
4.90701e-06
0.00798058
-1.95129e-05
0.00798365
-2.47513e-05
0.00797782
-1.82803e-06
0.00798118
5.05035e-05
0.00801077
0.000160187
0.00805041
0.000340119
0.00816849
0.000715277
0.00846255
0.00129646
0.0091561
0.00242159
0.00998016
0.00324351
0.0105298
0.00339136
0.0107156
0.00399053
0.0101439
0.00600587
0.0102525
0.00904107
0.0094112
0.00750168
0.0109366
0.00710783
0.0122508
0.00682217
0.0116793
0.00545831
0.00795353
0.00141076
0.000949313
0.000895292
-0.00663273
0.00310115
-0.00901056
0.00611172
-0.00881508
0.0072742
-0.012233
0.00471691
-0.0167351
0.00429515
-0.0216447
0.00302906
-0.0254303
0.00316234
-0.0294323
0.00394105
-0.0336057
0.00415002
-0.0376918
0.00404304
-0.0415219
0.00429708
-0.0445746
0.00313856
-0.0473036
0.00117407
-0.0494738
-0.00132909
-0.0513142
-0.0021439
-0.0514931
-0.00113682
-0.0513095
0.00635551
-0.0500788
0.00914852
-0.0477745
0.00075942
-0.0476105
-0.0051206
-0.0498578
-0.00476956
-0.0515949
-0.00745626
-0.054019
-0.00931711
-0.058586
-0.0108765
-0.0675756
-0.00922177
-0.0776914
-0.00284398
-0.0842414
0.00414561
-0.0860093
0.0164189
-0.0857387
0.0289952
-0.0860927
0.0351912
-0.0863643
0.0315591
-0.0856365
0.0212721
-0.0841476
0.0123536
-0.0818969
0.00382628
-0.0796525
-0.000964935
-0.0780304
-0.00487994
-0.0795388
0.00661677
0.0133484
0.00796076
2.11758e-05
0.00798034
-1.44804e-05
0.00799459
-3.64255e-05
0.00800018
-3.97108e-05
0.00799459
-1.86606e-05
0.00800474
2.62865e-05
0.00804283
0.000117657
0.00810215
0.000277718
0.00824143
0.000577868
0.00858167
0.0010331
0.00932953
0.00183642
0.0102298
0.00251598
0.0110667
0.0027716
0.0118311
0.0034429
0.0125966
0.00522717
0.0138467
0.00744498
0.0141806
0.0062391
0.0164616
0.00711013
0.0185517
0.00660992
0.019541
0.00521716
0.0187995
0.0026537
0.0163225
0.00277346
0.0127024
0.00522948
0.01086
0.00761726
0.0118798
0.00802744
0.012735
0.00556169
0.0125444
0.00500358
0.0108836
0.00446894
0.00814315
0.0050281
0.00525338
0.0061407
0.00275236
0.00665754
0.000926719
0.00630516
2.01628e-05
0.00499602
-2.65766e-05
0.0038064
-0.00415313
0.00221501
-0.00986813
0.00210607
-0.014124
0.0015411
-0.0153598
0.0037168
-0.0144547
0.00543719
-0.00687375
0.000887008
-0.00160898
-0.00547604
-0.0043078
-0.00337481
-0.00461525
-0.00386918
-0.00721617
-0.00503895
-0.0115408
-0.00504089
-0.0126279
-0.00262792
-0.021682
-0.0147913
-0.0291169
-0.00769784
-0.0370845
0.00505104
-0.0437195
0.0180286
-0.0451667
0.0257446
-0.0433101
0.0286877
-0.0417589
0.0255434
-0.0429741
0.0195233
-0.0456241
0.0139232
-0.0485514
0.00711039
-0.0511063
0.00323904
-0.052981
-0.000802134
-0.056895
0.0111466
0.0175127
0.00792701
7.02872e-05
0.0079421
9.02909e-06
0.00795885
-9.66392e-06
0.00797459
-2.27767e-05
0.00798689
-1.84941e-05
0.00801646
1.66908e-05
0.00807121
8.73928e-05
0.00816565
0.000204385
0.00834987
0.000410608
0.00872292
0.000729476
0.00940806
0.00126398
0.0102983
0.00173327
0.0111693
0.00199848
0.0123247
0.0025051
0.0138473
0.00375791
0.0159317
0.00536143
0.0170426
0.00494509
0.019538
0.00590559
0.0224093
0.00527929
0.0243684
0.00381669
0.0250748
0.00261607
0.0253045
0.00360231
0.0255511
0.00522372
0.0265316
0.0067004
0.0279213
0.00708228
0.0284479
0.00532484
0.0283255
0.00470689
0.0276717
0.00424584
0.0269183
0.0046504
0.0266183
0.00549161
0.0269373
0.00591729
0.0277168
0.00562721
0.0283905
0.0046932
0.0286304
0.00384501
0.0281313
0.00340775
0.0278268
0.00341111
0.0278336
0.00299223
0.0291478
0.00441187
0.0321054
0.00463565
0.0326283
0.000513843
0.0287922
-0.00242111
0.0257398
-0.000942718
0.0224308
-0.00104583
0.0197587
-0.00132415
0.0148849
-4.73352e-05
0.0205997
-0.000478592
-0.00819708
-0.00709703
-0.0185753
-0.0112152
-0.018617
-0.00318272
-0.0134517
0.00462885
-0.00661543
0.0124005
-0.00033293
0.0155666
0.00348057
0.0120063
0.00586683
0.00613834
0.00939485
0.0025277
0.00952664
0.0024504
0.00695807
0.00316021
-0.00139126
0.00401524
-0.00389724
0.0109492
0.00908219
0.00796781
7.1941e-06
0.00797741
-4.71802e-05
0.00798559
-4.77885e-05
0.00799055
-5.29409e-05
0.00799063
-5.07939e-05
0.00801611
-2.81075e-05
0.00807569
1.34296e-05
0.00818281
7.85287e-05
0.00838977
0.000193404
0.0087937
0.000378905
0.00948378
0.000657196
0.0103909
0.000895585
0.0114238
0.00104333
0.0126927
0.00134159
0.0145142
0.00199713
0.0170064
0.00287966
0.0190595
0.00281253
0.021635
0.00325995