/*--------------------------------*- C++ -*----------------------------------*\
  =========                 |
  \\      /  F ield         | OpenFOAM: The Open Source CFD Toolbox
   \\    /   O peration     | Website:  https://openfoam.org
    \\  /    A nd           | Version:  8
     \\/     M anipulation  |
\*---------------------------------------------------------------------------*/
FoamFile
{
    version     2.0;
    format      ascii;
    class       volScalarField;
    location    "1000";
    object      T;
}
// * * * * * * * * * * * * * * * * * * * * * * * * * * * * * * * * * * * * * //

dimensions      [0 0 0 1 0 0 0];

internalField   nonuniform List<scalar> 
1200
(
303.143
303.135
303.127
303.119
303.111
303.103
303.096
303.088
303.081
303.069
302.793
301.991
301.545
301.198
300.785
298.885
298.216
297.639
297.306
296.949
296.534
296.315
296.268
296.3
296.363
296.415
296.444
296.47
296.532
296.637
296.757
296.869
296.973
297.079
297.193
297.294
297.347
297.326
297.3
297.281
297.273
297.327
297.499
297.559
297.532
297.481
297.45
297.455
297.449
297.455
297.581
297.742
297.97
298.289
298.353
298.635
299.003
299.363
299.734
299.965
303.15
303.15
303.149
303.149
303.148
303.147
303.146
303.145
303.141
302.996
300.031
296.122
295.095
295.743
295.535
294.328
294.915
295.404
297.198
296.851
295.765
295.462
295.816
296.435
297.138
297.732
298.133
298.395
298.595
298.766
298.905
299.012
299.09
299.137
299.161
299.169
299.163
299.13
298.964
298.686
298.553
299.019
299.15
299.024
298.677
298.227
298.083
298.062
298.247
298.045
298.109
298.049
298.22
298.394
298.66
298.852
299.014
299.314
299.578
299.923
303.15
303.15
303.15
303.15
303.15
303.15
303.15
303.15
303.149
303.098
301.346
297.559
295.226
294.505
294.38
294.588
296.547
298.703
298.809
298.738
298.589
298.903
299.302
299.667
299.794
299.821
299.831
299.831
299.825
299.814
299.791
299.726
299.563
299.373
299.314
299.271
299.207
299.168
299.155
299.185
299.305
299.428
299.468
299.47
299.464
299.441
299.289
298.891
298.749
298.565
298.549
298.606
298.89
298.953
299.148
299.288
299.37
299.416
299.54
299.834
303.15
303.15
303.15
303.15
303.15
303.15
303.15
303.15
303.15
303.132
302.056
298.937
296.371
295.051
294.963
298.403
299.335
299.487
299.708
299.837
299.86
299.892
299.905
299.91
299.908
299.9
299.899
299.895
299.891
299.887
299.879
299.867
299.852
299.833
299.812
299.786
299.754
299.719
299.709
299.75
299.819
299.849
299.845
299.85
299.87
299.89
299.876
299.797
299.592
299.356
299.36
299.482
299.626
299.666
299.742
299.832
299.903
299.94
299.967
299.997
303.15
303.15
303.15
303.15
303.15
303.15
303.15
303.15
303.15
303.145
302.716
300.852
298.536
296.8
295.851
296.937
298.161
298.813
299.256
299.708
299.688
299.847
299.921
299.935
299.939
299.94
299.941
299.943
299.943
299.944
299.944
299.944
299.943
299.941
299.938
299.933
299.926
299.917
299.91
299.921
299.939
299.945
299.95
299.955
299.961
299.968
299.974
299.974
299.958
299.908
299.881
299.907
299.943
299.963
299.978
299.989
299.994
299.996
299.998
300
303.15
303.15
303.15
303.15
303.15
303.15
303.15
303.15
303.15
303.149
303.016
302.218
300.814
299.258
297.882
297.165
297.515
297.149
296.493
296.212
297.101
298.718
299.771
299.888
299.912
299.924
299.926
299.925
299.927
299.927
299.926
299.923
299.92
299.916
299.911
299.907
299.903
299.898
299.894
299.888
299.882
299.89
299.901
299.898
299.9
299.912
299.933
299.962
299.984
299.983
299.976
299.978
299.985
299.991
299.996
299.998
299.999
299.999
300
300
303.15
303.15
303.15
303.15
303.15
303.15
303.15
303.15
303.15
303.15
303.118
302.867
302.29
301.368
300.142
298.738
298.222
297.598
296.824
296.351
296.238
296.844
297.84
298.585
298.938
299.088
299.279
299.471
299.647
299.788
299.869
299.904
299.914
299.915
299.91
299.902
299.893
299.863
299.785
299.743
299.589
299.762
299.79
299.725
299.713
299.749
299.754
299.807
299.898
299.946
299.957
299.948
299.934
299.94
299.973
299.988
299.992
299.994
300
300
303.15
303.15
303.15
303.15
303.15
303.15
303.15
303.15
303.15
303.15
303.144
303.083
302.911
302.542
301.822
300.658
299.881
299.156
298.287
297.909
297.702
297.325
297.269
297.48
297.682
297.908
298.257
298.656
299.017
299.299
299.486
299.59
299.629
299.627
299.611
299.586
299.541
299.514
299.521
299.507
299.451
299.439
299.434
299.438
299.448
299.453
299.48
299.545
299.704
299.812
299.839
299.838
299.777
299.675
299.628
299.706
299.805
299.885
299.952
299.972
303.15
303.15
303.149
303.149
303.148
303.148
303.147
303.147
303.147
303.146
303.146
303.135
303.096
302.99
302.722
302.135
301.573
300.895
300.301
300.003
299.874
299.587
299.052
298.537
298.244
298.167
298.233
298.379
298.555
298.721
298.842
298.903
298.906
298.872
298.824
298.764
298.692
298.654
298.663
298.66
298.681
298.688
298.689
298.699
298.732
298.769
298.821
298.855
298.891
298.962
299.073
299.15
299.137
299.064
299.012
298.975
298.957
299.006
299.188
299.343
303.143
303.134
303.127
303.119
303.111
303.103
303.096
303.09
303.084
303.08
303.079
303.079
303.075
303.06
303.009
302.849
302.641
302.366
302.139
302.014
301.931
301.779
301.53
301.249
301.005
300.822
300.604
300.364
300.141
299.972
299.863
299.793
299.741
299.69
299.631
299.57
299.516
299.466
299.425
299.409
299.389
299.364
299.334
299.299
299.263
299.226
299.191
299.158
299.127
299.1
299.082
299.073
299.062
299.047
299.03
299.005
298.973
298.931
298.917
298.908
303.143
303.135
303.127
303.119
303.111
303.103
303.096
303.088
303.081
303.069
302.81
302.019
301.563
301.218
300.795
298.906
298.258
297.703
297.336
296.973
296.553
296.323
296.269
296.297
296.363
296.419
296.449
296.47
296.524
296.626
296.744
296.855
296.96
297.069
297.185
297.287
297.344
297.33
297.306
297.287
297.277
297.321
297.494
297.57
297.542
297.497
297.46
297.46
297.451
297.46
297.586
297.75
297.932
298.276
298.391
298.675
299.043
299.391
299.771
299.97
303.15
303.15
303.149
303.149
303.148
303.147
303.146
303.145
303.142
303.004
300.076
296.154
295.102
295.744
295.526
294.301
294.917
295.436
297.151
296.883
295.82
295.499
295.827
296.431
297.131
297.724
298.127
298.39
298.591
298.763
298.904
299.011
299.088
299.136
299.161
299.169
299.163
299.131
298.964
298.679
298.561
299.017
299.148
299.017
298.669
298.234
298.078
298.049
298.223
298.037
298.095
298.046
298.213
298.372
298.631
298.765
298.923
299.249
299.653
299.94
303.15
303.15
303.15
303.15
303.15
303.15
303.15
303.15
303.149
303.101
301.387
297.61
295.253
294.514
294.393
294.533
296.57
298.704
298.804
298.748
298.62
298.93
299.316
299.67
299.794
299.821
299.831
299.83
299.824
299.813
299.789
299.718
299.545
299.364
299.324
299.273
299.208
299.17
299.156
299.185
299.303
299.423
299.461
299.459
299.454
299.444
299.306
298.818
298.72
298.546
298.528
298.613
298.924
298.974
299.158
299.287
299.368
299.413
299.535
299.833
303.15
303.15
303.15
303.15
303.15
303.15
303.15
303.15
303.15
303.133
302.089
298.992
296.411
295.071
294.993
298.202
299.342
299.488
299.709
299.838
299.859
299.892
299.906
299.91
299.907
299.9
299.899
299.895
299.892
299.889
299.881
299.87
299.855
299.837
299.815
299.789
299.758
299.723
299.713
299.754
299.821
299.85
299.844
299.847
299.867
299.89
299.88
299.808
299.616
299.383
299.383
299.502
299.642
299.681
299.747
299.83
299.901
299.939
299.965
299.997
303.15
303.15
303.15
303.15
303.15
303.15
303.15
303.15
303.15
303.146
302.732
300.895
298.582
296.83
295.87
296.977
298.21
298.89
299.323
299.706
299.686
299.842
299.921
299.935
299.939
299.94
299.941
299.943
299.943
299.944
299.944
299.944
299.943
299.942
299.939
299.934
299.927
299.918
299.912
299.922
299.94
299.945
299.95
299.955
299.961
299.969
299.974
299.975
299.961
299.914
299.888
299.912
299.946
299.965
299.978
299.989
299.993
299.996
299.998
300
303.15
303.15
303.15
303.15
303.15
303.15
303.15
303.15
303.15
303.149
303.022
302.239
300.848
299.285
297.896
297.2
297.559
297.05
296.415
296.185
297.119
298.748
299.77
299.889
299.913
299.923
299.925
299.925
299.928
299.928
299.926
299.924
299.92
299.916
299.912
299.908
299.904
299.899
299.894
299.888
299.88
299.89
299.903
299.901
299.902
299.913
299.932
299.961
299.984
299.984
299.977
299.979
299.986
299.991
299.996
299.998
299.999
299.999
300
300
303.15
303.15
303.15
303.15
303.15
303.15
303.15
303.15
303.15
303.15
303.12
302.875
302.305
301.386
300.149
298.765
298.263
297.5
296.774
296.332
296.231
296.858
297.861
298.59
298.925
299.079
299.277
299.475
299.653
299.791
299.87
299.903
299.914
299.915
299.91
299.901
299.891
299.857
299.785
299.744
299.587
299.758
299.784
299.717
299.709
299.745
299.769
299.805
299.896
299.946
299.957
299.948
299.933
299.939
299.972
299.988
299.992
299.994
300
300
303.15
303.15
303.15
303.15
303.15
303.15
303.15
303.15
303.15
303.15
303.144
303.084
302.913
302.549
301.826
300.682
299.934
299.048
298.21
297.905
297.698
297.306
297.26
297.474
297.673
297.907
298.265
298.669
299.032
299.31
299.492
299.592
299.628
299.624
299.607
299.58
299.534
299.506
299.515
299.505
299.453
299.442
299.438
299.445
299.449
299.433
299.523
299.572
299.711
299.808
299.836
299.836
299.774
299.671
299.626
299.706
299.806
299.886
299.952
299.971
303.15
303.15
303.149
303.149
303.148
303.148
303.147
303.147
303.147
303.146
303.146
303.135
303.095
302.989
302.721
302.129
301.544
300.816
300.239
299.996
299.885
299.589
299.032
298.514
298.231
298.164
298.237
298.386
298.563
298.727
298.844
298.9
298.9
298.864
298.816
298.754
298.682
298.645
298.658
298.659
298.681
298.688
298.688
298.7
298.735
298.771
298.821
298.852
298.89
298.96
299.065
299.138
299.121
299.052
299.006
298.972
298.954
299.006
299.189
299.344
303.143
303.134
303.127
303.119
303.111
303.103
303.096
303.089
303.084
303.08
303.079
303.079
303.075
303.06
303.009
302.845
302.63
302.345
302.119
302.002
301.924
301.779
301.539
301.271
301.033
300.836
300.6
300.347
300.123
299.961
299.858
299.791
299.74
299.687
299.626
299.564
299.512
299.463
299.424
299.407
299.386
299.36
299.329
299.293
299.257
299.22
299.185
299.153
299.124
299.097
299.08
299.07
299.058
299.044
299.028
299.003
298.971
298.928
298.914
298.905
)
;

boundaryField
{
    wall
    {
        type            zeroGradient;
    }
    inlet
    {
        type            fixedValue;
        value           uniform 303.15;
    }
    outlet
    {
        type            inletOutlet;
        inletValue      uniform 300;
        value           nonuniform List<scalar> 
20
(
300
300
299.834
300
300
300
300
300
299.343
298.907
300
300
299.832
300
300
300
300
299.971
299.345
298.905
)
;
    }
    heatWall
    {
        type            fixedGradient;
        gradient        uniform -500;
    }
}


// ************************************************************************* //
