/*--------------------------------*- C++ -*----------------------------------*\
  =========                 |
  \\      /  F ield         | OpenFOAM: The Open Source CFD Toolbox
   \\    /   O peration     | Website:  https://openfoam.org
    \\  /    A nd           | Version:  8
     \\/     M anipulation  |
\*---------------------------------------------------------------------------*/
FoamFile
{
    version     2.0;
    format      ascii;
    class       volVectorField;
    location    "1000";
    object      U;
}
// * * * * * * * * * * * * * * * * * * * * * * * * * * * * * * * * * * * * * //

dimensions      [0 1 -1 0 0 0 0];

internalField   nonuniform List<vector> 
1200
(
(0.0800733 -0.00540628 -0.00044443)
(0.0805676 -0.00391384 -0.00127832)
(0.0804013 -0.00306723 -0.00220164)
(0.0799255 -0.0024944 -0.00195709)
(0.0793208 -0.00209346 0.000397034)
(0.0787601 -0.00164426 0.00431978)
(0.0783207 -0.00115564 0.00882599)
(0.0774592 -0.000645429 0.0151934)
(0.0766846 -0.000286534 0.0218329)
(0.0735951 -0.00037181 0.0277972)
(0.0718884 -0.001045 0.0647731)
(0.0841767 -0.000571218 0.113587)
(0.090466 0.00293981 0.106047)
(0.090171 0.00179432 0.0909801)
(0.0766612 -0.00220947 0.0789579)
(0.0978883 -0.00706031 0.0826094)
(0.133155 -0.00126803 0.0623396)
(0.131249 0.00677418 0.0699899)
(0.142184 -0.00286648 0.106027)
(0.187358 -0.00926818 0.159473)
(0.238275 -0.0144449 0.205552)
(0.274803 -0.0206704 0.22562)
(0.297556 -0.0193961 0.213637)
(0.309484 -0.00949266 0.190654)
(0.323311 -0.00370787 0.169113)
(0.340124 0.00129209 0.14439)
(0.35499 0.0035266 0.122855)
(0.373867 0.00709391 0.109582)
(0.39916 0.0091558 0.106196)
(0.431806 0.00865701 0.116473)
(0.465861 0.00655971 0.134148)
(0.493726 0.00375415 0.153346)
(0.513249 0.00153057 0.167094)
(0.530134 0.000508301 0.179052)
(0.546027 0.00247707 0.189391)
(0.558958 0.0058499 0.19221)
(0.566935 0.0079871 0.182195)
(0.564478 0.00921494 0.160455)
(0.540126 0.00660105 0.13513)
(0.50172 0.0021257 0.108513)
(0.457028 0.00224063 0.0876021)
(0.427966 0.00133018 0.0804876)
(0.426502 -0.00789704 0.0714421)
(0.452859 -0.00877083 0.0581551)
(0.465145 -0.0073759 0.0620897)
(0.460079 -0.00556392 0.0792135)
(0.415059 -0.00460522 0.110393)
(0.355413 0.00323616 0.140478)
(0.281095 0.0169443 0.191394)
(0.139517 0.0251462 0.197378)
(0.0546814 0.0420546 0.350402)
(-0.150463 0.0416548 0.162089)
(-0.395592 0.0535377 -0.189956)
(-0.51683 0.0725085 -0.00939795)
(-0.382188 0.0289242 0.227481)
(-0.416973 0.0118467 0.334092)
(-0.459062 -0.0045656 0.332418)
(-0.404339 -0.0504501 0.300186)
(-0.317389 -0.109905 0.111923)
(-0.190202 -0.142974 0.140512)
(0.0802466 0.00211647 -0.000307207)
(0.0803422 0.00253534 -0.00109428)
(0.080279 0.00238211 -0.00212566)
(0.08005 0.00218735 -0.00224412)
(0.0797437 0.00202763 -0.000253411)
(0.0794537 0.00190676 0.00401904)
(0.0791749 0.00180261 0.0106446)
(0.078172 0.00180906 0.0232879)
(0.076668 0.00248231 0.0443898)
(0.0703771 0.00345807 0.0963479)
(0.0668869 0.00280007 0.341152)
(0.0527169 0.000202525 0.557879)
(0.032185 -0.00259237 0.484339)
(0.0239562 0.00240973 0.323146)
(0.00889018 0.00075502 0.19386)
(0.0549054 -0.0128434 -0.149852)
(0.0894273 -0.007267 -0.176278)
(0.0824396 -0.0151817 -0.0567515)
(0.0651549 -0.0134555 0.173447)
(0.0741573 -0.0253923 0.320213)
(0.124999 -0.0212196 0.451378)
(0.170569 -0.00897776 0.551554)
(0.198434 -0.00129992 0.570492)
(0.202514 -0.00918776 0.538137)
(0.19761 -0.019803 0.48425)
(0.198528 -0.0184433 0.421254)
(0.203678 -0.0144948 0.360205)
(0.209137 -0.0116086 0.305125)
(0.212086 -0.0129573 0.261835)
(0.214849 -0.0161297 0.24904)
(0.219556 -0.0161899 0.265331)
(0.223946 -0.012772 0.294887)
(0.222214 -0.0124176 0.310762)
(0.216112 -0.0153711 0.317345)
(0.206672 -0.0199234 0.317454)
(0.205561 -0.0231146 0.293308)
(0.21144 -0.0221026 0.266142)
(0.201669 -0.0103282 0.2229)
(0.149331 0.00918683 0.163924)
(0.0634525 0.0235022 0.0928939)
(-0.0347254 0.0209228 -0.123493)
(-0.0464267 0.00140604 -0.188486)
(-0.0504819 -0.00894199 -0.0958474)
(-0.0546196 -0.00970891 -0.0925908)
(-0.0639469 -0.00137517 0.03268)
(0.0167073 0.00944572 0.193351)
(0.0029491 0.022736 0.214304)
(0.0364037 0.021544 0.202547)
(0.0717928 0.0526958 0.402006)
(-0.0402858 0.0597962 0.299061)
(-0.105584 0.0782022 0.367719)
(-0.28063 0.0802579 0.0977247)
(-0.508053 0.116585 -0.16602)
(-0.600191 0.0999095 -0.113096)
(-0.849903 0.0563748 -0.0118848)
(-0.809039 0.0426023 -0.0382929)
(-0.695599 0.0507761 -0.0635018)
(-0.687292 0.0696253 0.0514715)
(-0.573811 0.0892614 0.12414)
(-0.212126 0.095872 0.101602)
(0.0798868 -0.000358574 -0.000410708)
(0.0798888 -0.000803181 -0.00201064)
(0.0799237 -0.00111807 -0.00408597)
(0.0799001 -0.00121279 -0.00498064)
(0.0798106 -0.00115711 -0.00333493)
(0.0796105 -0.00094709 0.000790135)
(0.0796108 -0.000405839 0.00648663)
(0.0793603 0.000596478 0.0156638)
(0.079252 0.00285935 0.0296914)
(0.0779207 0.00657962 0.0596621)
(0.0774793 0.0130467 0.194018)
(0.073913 0.0129668 0.385398)
(0.0590439 0.00619296 0.430391)
(0.0356787 -0.000511008 0.325664)
(0.0232929 -0.0231767 0.14539)
(0.0183167 -0.0356355 -0.222224)
(0.0405797 -0.0116409 -0.141042)
(-0.0476375 0.018826 0.297562)
(-0.0773346 0.011003 0.326476)
(-0.109721 -0.0288443 0.330403)
(-0.106859 -0.0449741 0.347004)
(-0.0904277 -0.0426543 0.325773)
(-0.0423981 -0.032615 0.281893)
(-0.0156793 -0.0139797 0.281079)
(-0.0391276 -0.0110889 0.253233)
(-0.0581329 -0.0124663 0.243131)
(-0.0814475 -0.0135452 0.285823)
(-0.113693 -0.00957217 0.353947)
(-0.165181 -0.00653581 0.401884)
(-0.206564 -0.00857587 0.421772)
(-0.222561 -0.0107607 0.383242)
(-0.215494 -0.00970955 0.281844)
(-0.20194 -0.00401299 0.147004)
(-0.232799 -0.00130904 0.0435923)
(-0.267791 -0.00617694 -0.0372132)
(-0.283277 -0.00888727 -0.0965063)
(-0.300426 -0.00216938 -0.124888)
(-0.315104 0.0178276 -0.155233)
(-0.332744 0.0419949 -0.191157)
(-0.380076 0.05006 -0.250427)
(-0.434258 0.0289069 -0.287273)
(-0.466329 0.00332102 -0.294061)
(-0.481251 -0.0186086 -0.2981)
(-0.497564 -0.0342432 -0.307403)
(-0.500959 -0.032867 -0.300455)
(-0.483394 -0.0300074 -0.284009)
(-0.423359 -0.00545223 -0.200106)
(-0.287096 0.0307384 0.0954756)
(-0.150402 0.0436693 0.31292)
(-0.180632 0.0745212 0.331212)
(-0.224269 0.0973037 0.238657)
(-0.494017 0.155489 -0.125945)
(-0.346216 0.122202 -0.322644)
(-0.334249 0.100032 -0.284268)
(-0.295886 0.0570296 -0.34771)
(-0.24559 0.0167162 -0.505034)
(-0.247452 0.00133528 -0.596504)
(-0.216267 0.00229904 -0.677201)
(-0.188022 -0.0227462 -0.966477)
(0.0661061 -0.024597 -1.04243)
(0.0800608 0.000116946 -0.000373719)
(0.0802012 0.000376011 -0.00148457)
(0.080283 0.000585373 -0.00267049)
(0.0802095 0.000741512 -0.0028621)
(0.0800485 0.000926393 -0.00123383)
(0.0799104 0.00124797 0.00196644)
(0.0799026 0.00178742 0.00586911)
(0.0796322 0.00254635 0.0123242)
(0.079473 0.00418519 0.022994)
(0.0784799 0.00684392 0.045635)
(0.0803866 0.0115152 0.138063)
(0.0865474 0.0130929 0.28959)
(0.0820984 0.0107879 0.361896)
(0.0664587 0.00946277 0.351666)
(0.0211369 -0.00214112 0.201792)
(-0.0638876 0.0131232 -0.00457924)
(-0.122566 0.010254 0.174936)
(-0.166543 0.0153496 0.258596)
(-0.215108 -0.00271745 0.301378)
(-0.25865 -0.0241445 0.347413)
(-0.301934 -0.0335556 0.36399)
(-0.32729 -0.0369683 0.34542)
(-0.331793 -0.0287318 0.300616)
(-0.320721 -0.0134723 0.230458)
(-0.293313 -0.0070974 0.121771)
(-0.317949 -0.00139465 0.0117125)
(-0.342051 -0.00407906 -0.0290795)
(-0.350588 0.00249281 -0.0569532)
(-0.36736 0.00455979 -0.0895455)
(-0.392381 -0.00156938 -0.12769)
(-0.427536 -0.00641961 -0.161549)
(-0.47198 -0.0052505 -0.201607)
(-0.516538 0.000570006 -0.249436)
(-0.555109 -0.000748486 -0.294921)
(-0.591108 -0.00794578 -0.336544)
(-0.625722 -0.0151322 -0.378023)
(-0.654311 -0.012046 -0.41677)
(-0.668837 0.00571021 -0.44786)
(-0.68127 0.039168 -0.479251)
(-0.711636 0.0596056 -0.523958)
(-0.746753 0.0377168 -0.583863)
(-0.760508 -0.00235283 -0.640565)
(-0.765961 -0.0340226 -0.683462)
(-0.786477 -0.0564567 -0.731209)
(-0.802849 -0.0623441 -0.791846)
(-0.804821 -0.064057 -0.849392)
(-0.787987 -0.053082 -0.864139)
(-0.732171 -0.0277907 -0.770298)
(-0.646838 0.0133632 -0.48669)
(-0.592637 0.097827 -0.334455)
(-0.505664 0.142796 -0.41473)
(-0.46772 0.13111 -0.649754)
(-0.442542 0.117666 -0.691398)
(-0.422297 0.0959558 -0.564725)
(-0.42188 0.0637028 -0.560818)
(-0.447031 0.0134034 -0.691697)
(-0.484672 -0.00989101 -0.720975)
(-0.460011 -0.0141102 -0.677176)
(-0.397524 -0.0581556 -0.768354)
(-0.415554 -0.0811391 -0.528929)
(0.080023 8.89296e-05 -0.000375436)
(0.0800958 3.99492e-05 -0.00153715)
(0.0801275 -0.000188797 -0.00298102)
(0.0800933 -0.000424066 -0.00358271)
(0.0800332 -0.000478178 -0.00244191)
(0.0799628 -0.000318515 0.000285012)
(0.080096 0.000162415 0.00332499)
(0.0802863 0.00114358 0.00720232)
(0.0808943 0.00339078 0.0121722)
(0.0820444 0.00705799 0.0221986)
(0.0855896 0.0140963 0.0655943)
(0.093085 0.0172217 0.158176)
(0.0976553 0.0148402 0.24138)
(0.0939255 0.0175365 0.270892)
(0.0837956 0.0220771 0.243101)
(0.0340952 0.0447902 0.0397383)
(0.0424313 0.021854 0.011806)
(-0.0483726 0.0302752 0.0467847)
(-0.0589165 0.025089 0.0597965)
(-0.12457 0.000417376 0.221609)
(-0.18598 -0.0171178 0.252552)
(-0.228887 -0.0259108 0.304869)
(-0.248774 -0.0229541 0.303567)
(-0.258743 0.00175963 0.227725)
(-0.25427 0.0138671 0.08586)
(-0.296334 -0.0110032 -0.0282444)
(-0.297493 -0.0254871 -0.0764948)
(-0.327019 -0.0111813 -0.131115)
(-0.360289 -0.00249521 -0.167793)
(-0.402142 0.00236938 -0.194829)
(-0.454224 0.00541667 -0.225941)
(-0.511074 0.00859643 -0.267251)
(-0.566489 0.0137227 -0.312344)
(-0.617138 0.0152253 -0.355574)
(-0.66203 0.00834347 -0.396538)
(-0.69915 -0.0015864 -0.432367)
(-0.729775 -0.0030128 -0.463752)
(-0.747382 0.00914045 -0.502489)
(-0.755296 0.0406923 -0.541686)
(-0.772396 0.0608661 -0.589106)
(-0.787581 0.0317877 -0.649653)
(-0.787894 -0.0139602 -0.729421)
(-0.812192 -0.0392512 -0.840797)
(-0.843076 -0.0584512 -0.942509)
(-0.866979 -0.0642311 -1.03882)
(-0.888539 -0.0676728 -1.15667)
(-0.923972 -0.0623896 -1.2845)
(-0.972532 -0.0423299 -1.39376)
(-0.995507 0.000560592 -1.44)
(-0.937546 0.0792745 -1.40088)
(-0.882421 0.131894 -1.40408)
(-0.886404 0.141616 -1.5463)
(-0.909193 0.122031 -1.65402)
(-0.910821 0.0809874 -1.67087)
(-0.883916 0.0447355 -1.58463)
(-0.845456 0.00985637 -1.42041)
(-0.81098 -0.0171917 -1.15164)
(-0.789103 -0.0454825 -0.997749)
(-0.766042 -0.0321546 -1.05346)
(-0.809678 -0.00906179 -0.885784)
(0.080011 0.000129428 -0.00035739)
(0.0800644 0.000176976 -0.00142751)
(0.0801014 0.000220678 -0.00274494)
(0.0801052 0.000337185 -0.0034019)
(0.0801064 0.000598315 -0.00278302)
(0.0801367 0.000973429 -0.000834664)
(0.0803406 0.00159301 0.00116091)
(0.0807243 0.00252727 0.00313574)
(0.0815657 0.00414518 0.00507279)
(0.0831824 0.00653023 0.00902105)
(0.0877231 0.0109665 0.0271928)
(0.0965386 0.0138481 0.0709914)
(0.104107 0.0142414 0.124717)
(0.107808 0.0156423 0.173947)
(0.107744 0.0230491 0.192057)
(0.0969582 0.0387736 0.0932582)
(0.108756 0.0289642 0.0126513)
(0.0916926 0.0201624 -0.0782876)
(0.119442 0.0278003 -0.214369)
(0.12251 0.022617 -0.377283)
(0.0998226 0.00677303 -0.405487)
(0.0442533 0.0011355 -0.286779)
(-0.0273516 0.00126589 0.147073)
(-0.0744992 0.0165678 0.170915)
(-0.0873385 0.0267313 0.184715)
(-0.0846018 0.0185403 0.162259)
(-0.141433 0.00601889 0.052314)
(-0.229162 0.00571108 -0.0338919)
(-0.259155 0.00707639 -0.0627746)
(-0.29797 0.00836805 -0.0727619)
(-0.338651 0.00992148 -0.0748539)
(-0.378901 0.0128618 -0.0860824)
(-0.417309 0.016268 -0.102287)
(-0.450415 0.0124596 -0.115179)
(-0.476688 0.00127333 -0.127412)
(-0.496742 -0.0106628 -0.154786)
(-0.516622 -0.0138184 -0.178594)
(-0.52395 -0.00671383 -0.216286)
(-0.524573 0.0312614 -0.249573)
(-0.524166 0.0518402 -0.247337)
(-0.499995 0.0206818 -0.227722)
(-0.468231 -0.0188347 -0.280043)
(-0.488647 -0.0281496 -0.409486)
(-0.506028 -0.0456894 -0.497586)
(-0.522187 -0.055226 -0.55693)
(-0.558046 -0.0607912 -0.674777)
(-0.639512 -0.046888 -0.89271)
(-0.757634 -0.0194709 -1.16365)
(-0.856241 5.44797e-06 -1.36528)
(-0.895514 0.0607194 -1.47508)
(-0.890944 0.125021 -1.56745)
(-0.887667 0.155324 -1.67095)
(-0.892442 0.145004 -1.77443)
(-0.887675 0.103893 -1.83402)
(-0.87998 0.061305 -1.76341)
(-0.866298 0.0151863 -1.57656)
(-0.856056 -0.0128897 -1.22773)
(-0.849132 -0.036547 -0.896055)
(-0.876175 -0.0253506 -0.538643)
(-0.976317 -0.0355632 -0.157849)
(0.0800195 8.16304e-05 -0.0003029)
(0.0800919 -0.000175857 -0.00118563)
(0.0801844 -0.000522942 -0.00213859)
(0.0802406 -0.000777219 -0.00254178)
(0.0802736 -0.000828045 -0.0021545)
(0.0803564 -0.000662174 -0.000849171)
(0.0806412 -0.000188675 0.000353942)
(0.0811946 0.000692768 0.00105718)
(0.0822859 0.0023137 0.00102123)
(0.0844966 0.00476748 0.00106423)
(0.0897045 0.00912673 0.0047042)
(0.0985887 0.0124212 0.0172845)
(0.107559 0.0133015 0.0387896)
(0.115809 0.0166482 0.0688562)
(0.122408 0.0248407 0.0984992)
(0.131619 0.0343393 0.0817993)
(0.143532 0.0272687 0.031022)
(0.150664 0.0198581 -0.0310963)
(0.176141 0.0185421 -0.144739)
(0.189653 0.0160392 -0.288325)
(0.190719 0.00483142 -0.395445)
(0.174606 0.00760049 -0.449315)
(0.139091 0.025474 -0.336819)
(0.0997391 0.0353813 -0.226262)
(0.0954883 0.0363497 -0.18289)
(0.117236 0.023091 -0.204801)
(0.117822 0.0228441 -0.189758)
(0.110537 0.0177479 -0.151308)
(0.0861758 0.0175991 -0.121825)
(0.0519916 0.022489 -0.103616)
(0.0194258 0.0248904 -0.0780876)
(-0.011261 0.0239161 -0.0547709)
(-0.033928 0.0217167 -0.0528705)
(-0.0267774 0.0161249 -0.0600477)
(-0.00395125 0.00994689 0.0870239)
(-0.0544134 0.00238244 0.101861)
(-0.117007 -0.00373192 0.141879)
(-0.127666 -0.00233737 0.14863)
(-0.19715 0.0203677 -0.00393572)
(-0.185215 0.0160579 -0.0347864)
(0.0150338 -0.0255097 0.0604173)
(-0.0586891 -0.023355 0.315305)
(-0.0555019 -0.021662 0.262657)
(-0.0674692 -0.0352582 0.173988)
(-0.0959111 -0.0366345 0.22712)
(-0.139651 -0.0393391 0.213702)
(-0.241102 -0.0378238 -0.134929)
(-0.318929 -0.00466173 -0.401565)
(-0.373841 0.0271679 -0.901503)
(-0.461517 0.0746205 -1.21582)
(-0.498961 0.115427 -1.34374)
(-0.486189 0.130162 -1.47221)
(-0.452759 0.11194 -1.68846)
(-0.442122 0.0730069 -2.01286)
(-0.470229 0.0442219 -2.17582)
(-0.495875 0.0187401 -2.09053)
(-0.541915 0.00877629 -1.69591)
(-0.559194 0.00520847 -1.38468)
(-0.599232 0.0758456 -1.0328)
(-0.645195 0.150569 -0.910858)
(0.0798267 0.00049222 -0.000240553)
(0.079739 0.000901045 -0.00134527)
(0.079804 0.00109658 -0.00283844)
(0.0799378 0.00117017 -0.00393191)
(0.0801069 0.00127505 -0.0044552)
(0.0803553 0.00146111 -0.00408065)
(0.0808004 0.00178281 -0.00362216)
(0.0815273 0.00233262 -0.00375153)
(0.0828648 0.00329739 -0.00468938)
(0.0854469 0.00475825 -0.00606572)
(0.0906555 0.00722763 -0.00825027)
(0.0991768 0.0090421 -0.00967474)
(0.108448 0.0097274 -0.00827003)
(0.118398 0.0118143 0.000684388)
(0.130029 0.0174003 0.019778)
(0.149538 0.0258877 0.0352382)
(0.167661 0.0211182 0.0191202)
(0.179199 0.0195998 -0.00451743)
(0.204955 0.0116274 -0.0627388)
(0.22791 0.0133185 -0.12309)
(0.238335 0.0142096 -0.187739)
(0.244172 0.0169775 -0.299389)
(0.246479 0.0202807 -0.372681)
(0.2511 0.0280323 -0.386658)
(0.266426 0.0320427 -0.397896)
(0.279914 0.0260524 -0.420715)
(0.281055 0.0225908 -0.416974)
(0.278074 0.0202933 -0.382896)
(0.2693 0.0215303 -0.333849)
(0.26175 0.0248428 -0.289812)
(0.260477 0.026376 -0.253195)
(0.26522 0.0247425 -0.229373)
(0.274314 0.019291 -0.225485)
(0.280512 0.0141027 -0.228971)
(0.278309 0.011538 -0.200785)
(0.269935 0.0137934 -0.1894)
(0.266965 0.0135488 -0.192654)
(0.2695 0.0261251 -0.189983)
(0.283152 0.0254643 -0.175768)
(0.330778 0.00229065 -0.145874)
(0.309756 -0.01532 -0.120565)
(0.26416 -0.0046361 -0.109205)
(0.241566 -0.0103492 -0.0901659)
(0.202325 -0.0151398 -0.0467248)
(0.146876 -0.0129458 0.00356333)
(0.116031 -0.00684887 0.00788104)
(-0.0880666 -0.0745616 -0.113649)
(-0.256068 -0.076659 -0.167534)
(-0.325225 -0.0100575 -0.288756)
(-0.251962 0.062727 -0.516485)
(-0.172852 0.0974854 -0.783565)
(-0.0887924 0.107014 -0.863052)
(-0.0441769 0.100544 -0.80317)
(-0.00535219 0.0876104 -0.891363)
(0.0197343 0.0688857 -1.1111)
(0.0892716 0.0399452 -1.68991)
(0.0319611 0.0235357 -1.72668)
(0.0434231 -0.00224871 -2.09124)
(-0.138866 0.0247845 -1.43373)
(-0.011852 0.0151664 -1.52631)
(0.0801579 -0.00202761 -0.00018005)
(0.080123 -0.00246961 -0.000710785)
(0.0801069 -0.00238198 -0.0013501)
(0.0801271 -0.00220487 -0.00174503)
(0.0801985 -0.00197978 -0.00200147)
(0.0803902 -0.00167942 -0.0018066)
(0.0808507 -0.00125906 -0.00177661)
(0.0816685 -0.000661342 -0.00269044)
(0.0831511 0.000223776 -0.00491243)
(0.0859827 0.00149662 -0.00866569)
(0.0912775 0.00343061 -0.0152605)
(0.0996728 0.00509364 -0.0234522)
(0.10933 0.00618764 -0.0319187)
(0.120586 0.00807756 -0.0385554)
(0.134563 0.0119323 -0.0366682)
(0.158047 0.0169073 -0.028318)
(0.180774 0.0150693 -0.0287782)
(0.198311 0.0158321 -0.0287437)
(0.220698 0.00915687 -0.0419387)
(0.241267 0.00288466 -0.0663001)
(0.255327 0.00205618 -0.091572)
(0.272228 0.0122455 -0.138655)
(0.295318 0.0235043 -0.204472)
(0.321475 0.0283192 -0.266776)
(0.348007 0.0283027 -0.317713)
(0.36776 0.0205694 -0.364914)
(0.381079 0.0184307 -0.4007)
(0.394118 0.0163178 -0.422131)
(0.406423 0.0170333 -0.429736)
(0.421706 0.0198111 -0.430478)
(0.441374 0.0215278 -0.42684)
(0.463526 0.0212195 -0.428581)
(0.485382 0.0191425 -0.438019)
(0.503133 0.0163649 -0.446452)
(0.517966 0.0145006 -0.451265)
(0.534932 0.0127503 -0.45795)
(0.552031 0.0106067 -0.469795)
(0.567332 0.0146633 -0.480303)
(0.590683 0.0149059 -0.476643)
(0.610016 0.00231971 -0.458684)
(0.593437 -0.00476934 -0.426654)
(0.578571 0.000469182 -0.431009)
(0.578108 0.00379851 -0.432637)
(0.576421 0.00833596 -0.431256)
(0.570107 0.0132988 -0.415322)
(0.565748 0.0123752 -0.404276)
(0.529213 -0.00753604 -0.384269)
(0.446102 -0.0191688 -0.331498)
(0.360236 -0.0142503 -0.316085)
(0.35358 -0.00199671 -0.379479)
(0.37413 0.0225444 -0.430647)
(0.421478 0.0381642 -0.443884)
(0.466562 0.0298076 -0.428762)
(0.514433 0.000881635 -0.510051)
(0.529942 -0.0183717 -0.635121)
(0.553418 -0.00867834 -0.876438)
(0.555246 0.0095692 -0.999422)
(0.58411 0.0375542 -1.28881)
(0.567433 0.0651799 -1.29126)
(0.629525 0.0691951 -1.35252)
(0.0799881 0.00541948 -0.000144162)
(0.0803573 0.00394929 -0.000730723)
(0.0802345 0.00312002 -0.00126412)
(0.0799833 0.00256503 -0.00139052)
(0.0797426 0.00218659 -0.00135536)
(0.0795982 0.00194405 -0.000819412)
(0.0797085 0.0017967 -0.000389022)
(0.0802043 0.00173769 -0.000787838)
(0.0814481 0.00178812 -0.00209564)
(0.0841912 0.00196917 -0.0046264)
(0.0894875 0.00228002 -0.00976901)
(0.0978516 0.00241842 -0.0163511)
(0.107742 0.00234772 -0.0237668)
(0.119688 0.00273378 -0.0320508)
(0.13482 0.00398642 -0.0378663)
(0.160193 0.00606179 -0.0444256)
(0.186752 0.005911 -0.0477769)
(0.210833 0.00602642 -0.0448062)
(0.234047 0.00349606 -0.0441806)
(0.247178 0.00137152 -0.0464284)
(0.248839 0.000875306 -0.0489101)
(0.255809 0.00238361 -0.061928)
(0.280193 0.00576904 -0.0821912)
(0.316203 0.0108393 -0.102287)
(0.35585 0.0138221 -0.122154)
(0.386012 0.011887 -0.142124)
(0.406655 0.00971555 -0.161873)
(0.427812 0.00680048 -0.182738)
(0.451725 0.00527296 -0.205559)
(0.481383 0.00518724 -0.228761)
(0.515052 0.00523785 -0.243397)
(0.54854 0.00462727 -0.252267)
(0.577662 0.00289247 -0.254999)
(0.600274 0.00120822 -0.261957)
(0.618098 8.3089e-05 -0.270057)
(0.634231 0.000247179 -0.272825)
(0.647718 0.00176521 -0.27143)
(0.664561 0.00678147 -0.274487)
(0.692654 0.00703767 -0.279118)
(0.709908 -5.87753e-06 -0.264143)
(0.697978 -0.00615647 -0.247666)
(0.684365 -0.00633197 -0.249267)
(0.679168 -0.00880146 -0.24697)
(0.673101 -0.0115505 -0.243995)
(0.66897 -0.0141158 -0.234814)
(0.662153 -0.0166621 -0.232509)
(0.617871 -0.031467 -0.220175)
(0.524517 -0.0411673 -0.21376)
(0.434115 -0.0224771 -0.192186)
(0.415138 0.0111474 -0.19087)
(0.451642 0.0376143 -0.193809)
(0.53114 0.0453764 -0.19481)
(0.59555 0.0405526 -0.190001)
(0.650317 0.0357139 -0.253055)
(0.661797 0.0326149 -0.355109)
(0.681355 0.0231024 -0.538186)
(0.675734 0.0143151 -0.60117)
(0.709486 0.00455949 -0.78195)
(0.751144 0.00691376 -0.76893)
(0.867799 -0.0169441 -0.916449)
(0.0800865 -0.00536228 -0.000512186)
(0.0805616 -0.00380048 -0.00134521)
(0.0803907 -0.00287356 -0.00225797)
(0.0799575 -0.00227566 -0.00200236)
(0.0793917 -0.00198823 0.00036104)
(0.078727 -0.00180043 0.00430327)
(0.0782018 -0.00152756 0.0088158)
(0.0773674 -0.00114902 0.015159)
(0.0766203 -0.000862936 0.0217802)
(0.0739791 -0.00102211 0.027661)
(0.0721519 -0.0021641 0.0634349)
(0.0839798 -0.00168426 0.112113)
(0.0905708 0.00168857 0.105783)
(0.0906121 0.000795152 0.0913864)
(0.077907 -0.00301817 0.07916)
(0.0991039 -0.00807851 0.0815822)
(0.134516 -0.00144487 0.0614222)
(0.131785 0.00836506 0.0700255)
(0.137832 -0.00108575 0.104546)
(0.177755 -0.00794399 0.158372)
(0.225478 -0.0138082 0.205811)
(0.261241 -0.0201617 0.227074)
(0.284181 -0.0191235 0.215405)
(0.296907 -0.00990777 0.192722)
(0.313087 -0.00442076 0.171584)
(0.332233 0.000737163 0.145521)
(0.347008 0.00378829 0.121868)
(0.364123 0.00707986 0.106132)
(0.387442 0.00889509 0.101195)
(0.419464 0.0083352 0.111658)
(0.454314 0.00651786 0.130524)
(0.483508 0.00412159 0.151065)
(0.504147 0.00228492 0.166032)
(0.522046 0.0010805 0.179195)
(0.539444 0.00183585 0.190691)
(0.553951 0.00502211 0.194258)
(0.561951 0.007952 0.184805)
(0.558787 0.00903752 0.163341)
(0.533943 0.00632653 0.138)
(0.49528 0.00184155 0.11118)
(0.450256 0.00184742 0.090026)
(0.420683 0.00171281 0.0839804)
(0.416429 -0.00654242 0.0753711)
(0.438397 -0.00791374 0.0606585)
(0.451529 -0.00554668 0.0642348)
(0.433179 -0.000951978 0.0812117)
(0.363024 0.00331261 0.113204)
(0.234463 0.0261352 0.143918)
(0.0759825 0.0333468 0.198256)
(-0.134996 0.0219493 0.208987)
(-0.10276 0.0352348 0.349678)
(-0.337878 0.0547933 0.14025)
(-0.242114 0.0348451 -0.222519)
(-0.334647 0.0733803 -0.0517003)
(-0.467435 0.02721 0.228397)
(-0.510642 0.0112031 0.334773)
(-0.567836 -0.00654916 0.324057)
(-0.483311 -0.055283 0.27978)
(-0.3982 -0.110485 0.0954099)
(-0.280401 -0.15593 0.0986372)
(0.0802432 0.00212146 -0.0002131)
(0.0803114 0.00249339 -0.000988322)
(0.0802413 0.00230407 -0.00204075)
(0.0800824 0.00210444 -0.00218084)
(0.0799127 0.00196891 -0.000198157)
(0.079604 0.00192572 0.00405282)
(0.0792711 0.00187779 0.010652)
(0.0783023 0.00189207 0.0232269)
(0.0768419 0.00252812 0.0442582)
(0.0708034 0.00352969 0.0954393)
(0.0670303 0.00283321 0.339141)
(0.0529994 0.000240476 0.557707)
(0.0324956 -0.00264062 0.48624)
(0.0242034 0.00230818 0.325769)
(0.0092329 0.000260165 0.19577)
(0.054077 -0.013069 -0.151797)
(0.0878398 -0.00739656 -0.176373)
(0.0814148 -0.0158293 -0.0530928)
(0.0640075 -0.00881118 0.169299)
(0.0689764 -0.0228593 0.319691)
(0.117092 -0.0210933 0.449882)
(0.163075 -0.00946653 0.549812)
(0.192383 -0.000910464 0.57028)
(0.197666 -0.00806294 0.539121)
(0.193825 -0.0186351 0.485884)
(0.195552 -0.0170481 0.423745)
(0.20005 -0.0133326 0.363041)
(0.204909 -0.0106413 0.308259)
(0.20715 -0.0120435 0.264994)
(0.209433 -0.0154085 0.25238)
(0.214432 -0.0156898 0.268642)
(0.219588 -0.0124667 0.297891)
(0.218159 -0.0124108 0.313601)
(0.212118 -0.0151241 0.320676)
(0.203598 -0.0198851 0.321473)
(0.202457 -0.0225459 0.296181)
(0.207455 -0.0211318 0.268203)
(0.196802 -0.00936519 0.22472)
(0.143903 0.0106856 0.166024)
(0.0562753 0.0249429 0.0946804)
(-0.0247473 0.0213746 -0.118826)
(-0.0373231 -0.00186128 -0.188717)
(-0.042641 -0.0142822 -0.098114)
(-0.0444484 -0.0118666 -0.0915638)
(-0.0835193 0.00971257 0.0434113)
(0.000371658 0.0142885 0.194573)
(-0.0250149 0.0317641 0.217203)
(-0.0432549 0.0509879 0.206948)
(-0.0357509 0.0670558 0.400018)
(-0.229656 0.057813 0.30464)
(-0.253194 0.0807018 0.352934)
(-0.493975 0.121258 0.0728553)
(-0.344507 0.0785899 -0.175478)
(-0.390945 0.0867422 -0.121564)
(-0.745495 0.0569812 -0.0122248)
(-0.494202 0.0251636 -0.041516)
(-0.307829 0.0239915 -0.110171)
(-0.435393 0.0419979 -0.00306313)
(-0.590847 0.0859145 0.114834)
(-0.33971 0.106086 0.0441556)
(0.0798762 -0.000367629 -0.000451456)
(0.0798321 -0.00083925 -0.0020707)
(0.0798743 -0.00114065 -0.0041407)
(0.0799382 -0.00120337 -0.00502303)
(0.0799677 -0.00114622 -0.00337019)
(0.0798174 -0.00101275 0.000745479)
(0.0797016 -0.000573317 0.00645154)
(0.0794179 0.000349301 0.0156028)
(0.0793226 0.00254563 0.0295636)
(0.0781305 0.0062278 0.0592002)
(0.0776253 0.0126383 0.192405)
(0.0741009 0.0127548 0.384135)
(0.0593741 0.00601335 0.430921)
(0.036086 -0.000774764 0.327713)
(0.0238048 -0.0233724 0.148572)
(0.0178921 -0.0363314 -0.227099)
(0.0382241 -0.0118253 -0.138542)
(-0.0470813 0.0184046 0.299697)
(-0.077775 0.0169729 0.328853)
(-0.114444 -0.0241663 0.332281)
(-0.115811 -0.0433236 0.347693)
(-0.101373 -0.0420975 0.325843)
(-0.0558216 -0.0322475 0.282072)
(-0.0265873 -0.0141727 0.282207)
(-0.0461884 -0.0113476 0.254539)
(-0.0622061 -0.0111897 0.244921)
(-0.0856321 -0.0124483 0.289569)
(-0.117432 -0.0085306 0.358658)
(-0.168249 -0.00546234 0.405826)
(-0.208154 -0.00791735 0.423155)
(-0.223242 -0.0102309 0.381322)
(-0.21724 -0.00861404 0.277751)
(-0.209618 -0.00168579 0.14379)
(-0.244218 0.00131218 0.0428783)
(-0.259637 -0.00287956 -0.0364322)
(-0.276267 -0.00533242 -0.0929162)
(-0.29412 0.00188327 -0.121752)
(-0.311815 0.0214666 -0.15409)
(-0.330818 0.0442587 -0.190164)
(-0.377634 0.0507753 -0.248904)
(-0.429605 0.0296688 -0.284218)
(-0.460215 0.00160688 -0.28999)
(-0.474371 -0.0227676 -0.29106)
(-0.491082 -0.0374876 -0.296824)
(-0.49206 -0.0345875 -0.289682)
(-0.471041 -0.0359383 -0.281538)
(-0.404748 -0.0205263 -0.212299)
(-0.374352 0.0523746 0.14028)
(-0.278176 0.0531975 0.319487)
(-0.347624 0.0826675 0.325992)
(-0.38326 0.126221 0.226585)
(-0.341536 0.108827 -0.125667)
(-0.250183 0.092841 -0.334625)
(-0.238202 0.0761616 -0.286462)
(-0.222162 0.0458483 -0.348029)
(-0.184137 0.014695 -0.502277)
(-0.175667 -0.00225958 -0.592921)
(-0.171256 -0.0117036 -0.675128)
(-0.171198 -0.0174635 -0.964681)
(0.0903092 -0.0140704 -1.04813)
(0.0800581 0.000116911 -0.000366006)
(0.0801734 0.000382462 -0.00146783)
(0.0802598 0.000604123 -0.00265167)
(0.0802475 0.00076364 -0.00284469)
(0.0801793 0.000895998 -0.00121603)
(0.08003 0.00111137 0.00198465)
(0.0799432 0.00157835 0.00587899)
(0.0796719 0.00229961 0.0122987)
(0.0795497 0.00389859 0.0229032)
(0.0786749 0.00653828 0.0453155)
(0.0804551 0.0112249 0.136767)
(0.0865494 0.0128407 0.28817)
(0.0822403 0.0105302 0.361685)
(0.0667178 0.00919678 0.353002)
(0.0208925 -0.00254941 0.204034)
(-0.0661816 0.00824572 -0.0181732)
(-0.121654 0.0100605 0.177521)
(-0.163928 0.0171609 0.260394)
(-0.215486 0.00364098 0.302372)
(-0.265024 -0.0190879 0.348394)
(-0.308003 -0.0317129 0.363686)
(-0.332106 -0.0356233 0.343792)
(-0.336306 -0.0280481 0.296508)
(-0.326048 -0.0137298 0.221599)
(-0.303868 -0.00508304 0.110714)
(-0.32439 0.00490547 0.0111501)
(-0.326633 -0.000107035 -0.024098)
(-0.336067 0.00521559 -0.0517203)
(-0.353946 0.00664701 -0.0844115)
(-0.380299 0.000163959 -0.123175)
(-0.416464 -0.00529319 -0.156693)
(-0.462296 -0.00532565 -0.196138)
(-0.508318 -0.000886923 -0.243368)
(-0.548351 -0.0033252 -0.288844)
(-0.585788 -0.0100975 -0.330772)
(-0.621841 -0.0149881 -0.37231)
(-0.65149 -0.00994173 -0.411359)
(-0.666952 0.00886791 -0.442622)
(-0.680586 0.0416697 -0.474945)
(-0.711245 0.0618393 -0.520127)
(-0.74569 0.0394846 -0.579448)
(-0.758155 -0.00203611 -0.634865)
(-0.763865 -0.036122 -0.676562)
(-0.784882 -0.0584302 -0.7223)
(-0.801112 -0.0630086 -0.783075)
(-0.802499 -0.0660638 -0.844179)
(-0.783154 -0.059531 -0.865206)
(-0.711109 -0.0293249 -0.779999)
(-0.572942 0.0084887 -0.505488)
(-0.474662 0.0716813 -0.350758)
(-0.422579 0.107458 -0.428944)
(-0.416248 0.104126 -0.666288)
(-0.405316 0.0922029 -0.704153)
(-0.382965 0.0698382 -0.569212)
(-0.383882 0.046978 -0.555416)
(-0.401679 0.00926801 -0.683418)
(-0.431992 -0.0155007 -0.715126)
(-0.419926 -0.0272087 -0.673412)
(-0.369824 -0.0478126 -0.770596)
(-0.376724 -0.0619825 -0.533993)
(0.0800199 8.60732e-05 -0.000375732)
(0.0800659 1.78703e-05 -0.0015424)
(0.0801016 -0.000223208 -0.00299121)
(0.0801265 -0.000450917 -0.00359238)
(0.0801498 -0.000531743 -0.0024519)
(0.0800998 -0.000455364 0.000265814)
(0.0801295 -4.25704e-05 0.00330305)
(0.0802442 0.000855237 0.00717081)
(0.0808292 0.00298568 0.0121022)
(0.0820081 0.00652522 0.0220049)
(0.0855678 0.0135492 0.0648615)
(0.0930506 0.0169458 0.156947)
(0.0976388 0.01467 0.240464)
(0.0938667 0.017297 0.270969)
(0.0839679 0.0217484 0.24321)
(0.0338124 0.0453835 0.0413174)
(0.0457345 0.0223403 0.0123103)
(-0.0407442 0.029417 0.0547048)
(-0.0754446 0.0240595 0.0867933)
(-0.135409 0.0018374 0.222032)
(-0.196946 -0.0162103 0.252937)
(-0.235039 -0.0254144 0.302326)
(-0.255257 -0.0213405 0.299568)
(-0.266774 0.00350081 0.218741)
(-0.266324 0.013507 0.0772522)
(-0.283123 -0.0125803 -0.0219296)
(-0.286945 -0.0257762 -0.0714256)
(-0.316717 -0.0120885 -0.12573)
(-0.349283 -0.00310675 -0.161825)
(-0.390571 0.00214976 -0.188296)
(-0.443388 0.00526092 -0.219143)
(-0.50161 0.00796481 -0.260657)
(-0.558404 0.0125506 -0.306134)
(-0.6102 0.0134903 -0.349807)
(-0.655864 0.00675728 -0.39097)
(-0.693925 -0.00115944 -0.427473)
(-0.725686 -0.000631686 -0.459473)
(-0.74444 0.0129456 -0.497619)
(-0.753491 0.043811 -0.53668)
(-0.770513 0.0630651 -0.583706)
(-0.785496 0.0330481 -0.643572)
(-0.785881 -0.0145414 -0.722301)
(-0.812691 -0.0413733 -0.835468)
(-0.845188 -0.0604225 -0.938694)
(-0.868841 -0.0653413 -1.03516)
(-0.888869 -0.0698259 -1.1524)
(-0.917945 -0.0688949 -1.27924)
(-0.956977 -0.0460237 -1.39039)
(-0.971671 -0.00595863 -1.4417)
(-0.909466 0.063996 -1.41081)
(-0.858936 0.110717 -1.41465)
(-0.871242 0.121003 -1.55469)
(-0.898213 0.101804 -1.6634)
(-0.901679 0.0617651 -1.68202)
(-0.873152 0.0300371 -1.59524)
(-0.825597 0.00236236 -1.42879)
(-0.77956 -0.0231098 -1.15605)
(-0.759967 -0.0522251 -0.996553)
(-0.745414 -0.0293549 -1.05433)
(-0.789223 -0.00124159 -0.888876)
(0.0800095 0.000130877 -0.000357699)
(0.0800426 0.000170751 -0.00143232)
(0.0800855 0.000225816 -0.0027537)
(0.080134 0.000359767 -0.00341043)
(0.0801999 0.000575665 -0.00279138)