/*--------------------------------*- C++ -*----------------------------------*\
  =========                 |
  \\      /  F ield         | OpenFOAM: The Open Source CFD Toolbox
   \\    /   O peration     | Website:  https://openfoam.org
    \\  /    A nd           | Version:  8
     \\/     M anipulation  |
\*---------------------------------------------------------------------------*/
FoamFile
{
    version     2.0;
    format      ascii;
    class       volScalarField;
    location    "800";
    object      k;
}
// * * * * * * * * * * * * * * * * * * * * * * * * * * * * * * * * * * * * * //

dimensions      [0 2 -2 0 0 0 0];

internalField   nonuniform List<scalar> 
1200
(
2.37187e-05
2.3407e-05
2.30785e-05
2.27371e-05
2.23814e-05
2.20292e-05
2.16733e-05
2.13505e-05
2.10373e-05
2.06746e-05
2.07367e-05
2.15596e-05
2.23501e-05
2.27201e-05
2.37857e-05
2.24534e-05
2.1819e-05
2.36077e-05
2.61876e-05
3.02022e-05
3.53604e-05
4.09054e-05
4.52703e-05
4.70546e-05
4.86258e-05
5.00471e-05
5.18264e-05
5.40342e-05
5.6636e-05
5.93657e-05
6.18514e-05
6.43022e-05
6.71891e-05
7.0489e-05
7.40762e-05
7.80737e-05
8.2462e-05
8.67359e-05
9.01519e-05
9.30809e-05
9.71577e-05
0.000103873
0.000110173
0.000115304
0.000119155
0.000122662
0.000126131
0.000130737
0.000135386
0.000138475
0.000141352
0.000144331
0.000151693
0.000155675
0.000161826
0.000159662
0.00016829
0.000191818
0.00024703
0.000305282
2.09789e-05
1.81671e-05
1.57637e-05
1.37231e-05
1.19865e-05
1.0514e-05
9.29213e-06
8.41068e-06
7.86802e-06
7.27791e-06
1.06791e-05
1.29083e-05
1.13788e-05
1.03969e-05
8.28531e-06
7.4338e-06
8.66721e-06
9.66828e-06
1.19319e-05
1.48982e-05
1.83983e-05
2.24432e-05
2.59911e-05
2.86987e-05
3.14323e-05
3.40764e-05
3.63729e-05
3.84071e-05
3.94943e-05
3.96753e-05
4.04714e-05
4.23618e-05
4.36155e-05
4.42079e-05
4.4821e-05
4.53399e-05
4.52099e-05
4.44178e-05
4.4616e-05
4.51895e-05
4.54942e-05
4.49561e-05
4.4938e-05
4.54828e-05
4.53621e-05
4.52073e-05
4.54391e-05
4.71447e-05
4.98977e-05
4.78131e-05
6.64643e-05
0.000118833
0.000145948
0.000120716
0.000107202
9.01978e-05
0.000112598
0.000297858
0.000485549
0.000427133
2.09457e-05
1.80347e-05
1.55271e-05
1.33756e-05
1.15248e-05
9.93834e-06
8.58818e-06
7.45803e-06
6.57907e-06
6.12527e-06
8.38427e-06
9.4956e-06
6.88424e-06
5.68206e-06
7.5423e-06
1.03479e-05
1.26711e-05
1.66107e-05
1.77578e-05
2.41524e-05
2.84053e-05
3.41328e-05
3.99398e-05
4.15799e-05
4.26471e-05
4.47252e-05
4.53624e-05
4.93276e-05
5.16533e-05
5.24799e-05
5.25044e-05
5.28233e-05
5.44012e-05
5.73946e-05
6.08392e-05
6.4904e-05
6.96057e-05
7.43773e-05
7.88297e-05
8.24379e-05
8.44171e-05
8.38201e-05
8.35253e-05
8.52182e-05
8.69824e-05
8.50342e-05
8.9032e-05
9.2405e-05
5.86179e-05
5.09436e-05
0.000106547
0.000221802
0.000287429
0.000253979
0.000252664
0.00050008
0.000765345
0.00107795
0.00147629
0.00199233
2.09446e-05
1.80424e-05
1.55399e-05
1.33891e-05
1.15333e-05
9.94286e-06
8.57773e-06
7.3909e-06
6.38412e-06
5.78169e-06
7.15398e-06
8.10076e-06
7.14444e-06
5.70992e-06
7.13324e-06
1.29689e-05
2.24207e-05
3.5611e-05
3.87968e-05
4.15758e-05
4.37669e-05
4.56365e-05
4.94761e-05
5.49193e-05
6.04947e-05
6.52737e-05
6.99761e-05
7.39428e-05
7.68068e-05
7.84901e-05
7.8949e-05
7.81013e-05
7.57736e-05
7.22356e-05
6.96424e-05
7.26323e-05
7.94568e-05
8.69901e-05
9.52814e-05
0.000104617
0.000115313
0.000127461
0.000140945
0.000161948
0.000189843
0.000218014
0.000246917
0.000280162
0.000316313
0.000355395
0.000424015
0.000502613
0.000562289
0.000610105
0.000668526
0.00086135
0.00113169
0.00144346
0.00181467
0.00233013
2.09445e-05
1.80403e-05
1.55343e-05
1.33837e-05
1.15305e-05
9.93461e-06
8.57467e-06
7.39836e-06
6.38369e-06
5.62295e-06
6.01656e-06
6.68834e-06
6.56635e-06
5.97376e-06
5.41702e-06
8.76392e-06
1.43701e-05
2.18916e-05
2.50248e-05
3.23967e-05
3.90458e-05
4.23856e-05
4.43721e-05
4.55258e-05
5.0032e-05
5.4068e-05
5.65322e-05
5.77499e-05
5.78773e-05
5.69957e-05
5.51631e-05
5.26823e-05
5.07102e-05
5.1462e-05
5.6043e-05
6.11611e-05
6.74325e-05
7.46577e-05
8.2982e-05
9.31991e-05
0.000105295
0.000118779
0.000132008
0.0001465
0.000163877
0.000188027
0.000222466
0.000270414
0.000331702
0.000400112
0.000472145
0.000552908
0.000637412
0.000732516
0.000844101
0.000998497
0.0012288
0.00151996
0.00189292
0.00240196
2.09445e-05
1.80384e-05
1.55324e-05
1.33851e-05
1.15356e-05
9.94069e-06
8.57879e-06
7.41385e-06
6.40469e-06
5.57999e-06
5.34165e-06
5.49763e-06
5.46629e-06
5.2092e-06
4.85116e-06
5.78853e-06
8.96079e-06
1.25719e-05
1.4334e-05
1.94085e-05
2.74385e-05
3.31186e-05
3.60757e-05
4.14425e-05
4.49919e-05
4.55744e-05
4.56143e-05
4.56055e-05
4.5422e-05
4.55143e-05
4.52534e-05
4.49728e-05
4.47722e-05
4.49255e-05
4.55375e-05
4.54123e-05
4.52847e-05
4.4208e-05
4.55597e-05
5.13266e-05
6.29739e-05
7.44305e-05
8.46716e-05
8.6984e-05
8.42182e-05
9.27924e-05
0.000117795
0.000157631
0.000218541
0.000293012
0.000363725
0.000433999
0.000511438
0.000609135
0.000753233
0.000915443
0.00111454
0.00137876
0.00175958
0.00233383
2.09436e-05
1.80366e-05
1.55344e-05
1.33925e-05
1.15466e-05
9.95289e-06
8.59106e-06
7.43211e-06
6.43511e-06
5.59149e-06
5.04853e-06
4.79466e-06
4.58319e-06
4.34218e-06
4.10849e-06
4.39068e-06
5.91598e-06
7.66864e-06
8.8957e-06
1.13602e-05
1.60553e-05
2.14916e-05
2.69477e-05
3.29011e-05
3.79001e-05
4.02193e-05
4.1016e-05
4.10643e-05
4.0498e-05
3.96574e-05
3.9108e-05
3.88514e-05
3.83179e-05
3.82512e-05
3.92959e-05
4.10098e-05
4.1298e-05
4.05581e-05
3.95332e-05
3.99506e-05
4.30971e-05
4.55502e-05
4.88851e-05
4.67969e-05
4.28963e-05
4.10259e-05
4.00142e-05
3.82044e-05
4.69723e-05
0.000120503
0.000162327
0.000200222
0.000218563
0.000253595
0.000388501
0.000586336
0.000765329
0.000942008
0.00128908
0.0020155
2.09433e-05
1.80272e-05
1.55217e-05
1.33804e-05
1.15362e-05
9.94856e-06
8.59425e-06
7.44038e-06
6.44997e-06
5.61519e-06
4.96889e-06
4.5116e-06
4.15021e-06
3.84208e-06
3.60174e-06
3.60451e-06
4.18659e-06
4.93702e-06
5.62552e-06
6.68747e-06
8.54605e-06
1.13459e-05
1.52514e-05
2.10215e-05
2.6817e-05
3.07607e-05
3.29206e-05
3.38584e-05
3.40253e-05
3.39943e-05
3.42027e-05
3.46352e-05
3.51031e-05
3.55848e-05
3.6222e-05
3.67017e-05
3.67865e-05
3.66375e-05
3.64185e-05
3.62331e-05
3.63214e-05
3.66863e-05
3.75598e-05
3.71906e-05
3.70371e-05
3.65474e-05
3.55311e-05
3.4399e-05
3.38317e-05
4.52175e-05
5.22405e-05
5.84103e-05
6.6681e-05
7.61519e-05
0.00010451
0.000225271
0.000370485
0.000466982
0.000591066
0.000800163
2.09757e-05
1.81547e-05
1.57505e-05
1.37135e-05
1.19468e-05
1.04045e-05
9.08752e-06
7.95756e-06
6.96769e-06
6.10741e-06
5.3936e-06
4.84086e-06
4.41087e-06
4.06142e-06
3.76283e-06
3.53577e-06
3.52936e-06
3.68933e-06
3.92544e-06
4.28929e-06
4.82277e-06
5.66005e-06
7.02268e-06
9.95697e-06
1.39506e-05
1.74889e-05
2.00034e-05
2.14684e-05
2.21169e-05
2.23805e-05
2.26809e-05
2.32207e-05
2.39801e-05
2.50082e-05
2.60697e-05
2.68189e-05
2.73726e-05
2.7945e-05
2.86065e-05
2.93177e-05
3.00576e-05
3.08017e-05
3.14637e-05
3.18042e-05
3.19038e-05
3.2573e-05
3.32538e-05
3.29938e-05
3.26352e-05
3.35998e-05
3.46523e-05
3.65443e-05
3.84163e-05
4.08564e-05
4.34742e-05
6.26466e-05
0.000108244
0.00015726
0.000200962
0.000229027
2.37332e-05
2.34099e-05
2.30791e-05
2.27612e-05
2.24276e-05
2.20642e-05
2.16571e-05
2.11443e-05
2.04098e-05
1.94198e-05
1.83958e-05
1.77948e-05
1.77123e-05
1.79465e-05
1.80937e-05
1.75513e-05
1.66595e-05
1.61129e-05
1.58581e-05
1.58113e-05
1.61744e-05
1.68968e-05
1.80239e-05
1.93075e-05
2.08983e-05
2.29004e-05
2.5243e-05
2.78651e-05
3.07365e-05
3.38755e-05
3.72926e-05
4.10018e-05
4.50332e-05
4.78467e-05
5.04868e-05
5.3346e-05
5.67397e-05
6.06501e-05
6.48851e-05
6.9192e-05
7.33256e-05
7.73551e-05
8.16512e-05
8.69622e-05
9.37863e-05
0.000101515
0.000108817
0.000115723
0.000120906
0.000124984
0.000130815
0.000137597
0.00014596
0.000156382
0.000166561
0.000174115
0.000181467
0.000191473
0.000203792
0.000218753
2.37324e-05
2.3412e-05
2.30784e-05
2.2734e-05
2.23673e-05
2.202e-05
2.16753e-05
2.13634e-05
2.10553e-05
2.07106e-05
2.07274e-05
2.15147e-05
2.22889e-05
2.26654e-05
2.37473e-05
2.24112e-05
2.16969e-05
2.34613e-05
2.60252e-05
3.00051e-05
3.51473e-05
4.06972e-05
4.51883e-05
4.70215e-05
4.86397e-05
5.00633e-05
5.18108e-05
5.39956e-05
5.66171e-05
5.94475e-05
6.20269e-05
6.44403e-05
6.71608e-05
7.02844e-05
7.37828e-05
7.78819e-05
8.24765e-05
8.69305e-05
9.06162e-05
9.37364e-05
9.82076e-05
0.00010472
0.000110567
0.000115038
0.000118425
0.000121876
0.000125838
0.000130297
0.000134665
0.00013875
0.000141637
0.000145471
0.000151042
0.00015306
0.00015868
0.000161271
0.000167845
0.000190764
0.000237867
0.000295768
2.09773e-05
1.81627e-05
1.57629e-05
1.37285e-05
1.1999e-05
1.05221e-05
9.28573e-06
8.38386e-06
7.84702e-06
7.26362e-06
1.06192e-05
1.28684e-05
1.13606e-05
1.04139e-05
8.3113e-06
7.53495e-06
8.64072e-06
9.60271e-06
1.18494e-05
1.48633e-05
1.83663e-05
2.24232e-05
2.60048e-05
2.86959e-05
3.13501e-05
3.39633e-05
3.62179e-05
3.82359e-05
3.9383e-05
3.95517e-05
4.00459e-05
4.17993e-05
4.31722e-05
4.39638e-05
4.47132e-05
4.5189e-05
4.48396e-05
4.38844e-05
4.41592e-05
4.55901e-05
4.56929e-05
4.52685e-05
4.56454e-05
4.54306e-05
4.54132e-05
4.5364e-05
4.53165e-05
4.76862e-05
5.20775e-05
5.11715e-05
6.4363e-05
0.000114315
0.00014369
0.000119158
0.000105545
9.08443e-05
0.000104845
0.000287467
0.000466023
0.000439194
2.09445e-05
1.80315e-05
1.55279e-05
1.33803e-05
1.15321e-05
9.94357e-06
8.5881e-06
7.45442e-06
6.57428e-06
6.11093e-06
8.32937e-06
9.46921e-06
6.9002e-06
5.70156e-06
7.58557e-06
1.03737e-05
1.25833e-05
1.66437e-05
1.74861e-05
2.40236e-05
2.84051e-05
3.41463e-05
4.00066e-05
4.18414e-05
4.26978e-05
4.45679e-05
4.5337e-05
4.87265e-05
5.09608e-05
5.17245e-05
5.17496e-05
5.21217e-05
5.37863e-05
5.67291e-05
6.01663e-05
6.4217e-05
6.88638e-05
7.34802e-05
7.79074e-05
8.14152e-05
8.31464e-05
8.1924e-05
8.10544e-05
8.23337e-05
8.41298e-05
8.38788e-05
9.27482e-05
0.000103778
6.4611e-05
5.04e-05
0.000100057
0.000223554
0.000287604
0.000253081
0.000255281
0.000505217
0.000777472
0.00110633
0.00151358
0.00202692
2.09445e-05
1.80384e-05
1.5539e-05
1.3394e-05
1.15417e-05
9.94514e-06
8.57684e-06
7.39215e-06
6.38439e-06
5.76958e-06
7.10934e-06
8.07039e-06
7.1362e-06
5.7115e-06
7.20053e-06
1.29722e-05
2.21483e-05
3.56594e-05
3.88066e-05
4.15877e-05
4.37523e-05
4.53954e-05
4.93107e-05
5.46793e-05
6.02012e-05
6.48827e-05
6.94429e-05
7.32729e-05
7.5984e-05
7.7469e-05
7.76983e-05
7.66382e-05
7.41379e-05
7.05852e-05
6.86196e-05
7.26752e-05
7.96866e-05
8.75053e-05
9.60083e-05
0.000105437
0.000116068
0.000127942
0.000141388
0.000162315
0.000190002
0.000218234
0.000247472
0.000281076
0.000317542
0.000356631
0.00042568
0.000505284
0.000565803
0.000613765
0.000671314
0.000865596
0.00114146
0.00146568
0.00184763
0.0023525
2.09436e-05
1.80337e-05
1.55331e-05
1.33892e-05
1.15401e-05
9.94258e-06
8.57618e-06
7.39969e-06
6.38422e-06
5.61719e-06
5.9881e-06
6.65967e-06
6.54882e-06
5.96304e-06
5.42288e-06
8.87641e-06
1.43706e-05
2.17694e-05
2.4851e-05
3.22988e-05
3.90108e-05
4.23204e-05
4.4301e-05
4.56877e-05
4.96974e-05
5.36913e-05
5.60568e-05
5.7145e-05
5.71277e-05
5.61412e-05
5.4266e-05
5.1799e-05
5.00279e-05
5.13507e-05
5.59137e-05
6.10863e-05
6.73228e-05
7.45569e-05
8.30832e-05
9.35575e-05
0.000105704
0.000119112
0.000132063
0.000146297
0.000163367
0.000187594
0.000221946
0.000269783
0.000331254
0.00039964
0.00047217
0.000553999
0.000639777
0.00073546
0.000846393
0.00100098
0.00123239
0.00152493
0.00189828
0.00240542
2.09424e-05
1.80311e-05
1.55323e-05
1.33907e-05
1.15434e-05
9.94975e-06
8.58435e-06
7.41564e-06
6.40496e-06
5.57706e-06
5.32722e-06
5.47903e-06
5.45205e-06
5.20025e-06
4.84803e-06
5.79476e-06
8.93005e-06
1.24918e-05
1.42246e-05
1.93338e-05
2.74273e-05
3.31445e-05
3.63036e-05
4.11959e-05
4.48614e-05
4.55006e-05
4.52226e-05
4.52325e-05
4.55431e-05
4.5528e-05
4.52e-05
4.48729e-05
4.46848e-05
4.49399e-05
4.55837e-05
4.54605e-05
4.50952e-05
4.41951e-05
4.61053e-05
5.19827e-05
6.36646e-05
7.54908e-05
8.60212e-05
8.82321e-05
8.52226e-05
9.24903e-05
0.000117052
0.000156446
0.000217251
0.000292241
0.000363813
0.000435139
0.000514912
0.000613016
0.000756292
0.000917543
0.00111706
0.00138183
0.00176323
0.0023357
2.09429e-05
1.80318e-05
1.55362e-05
1.33984e-05
1.15519e-05
9.9589e-06
8.59601e-06
7.43206e-06
6.43002e-06
5.58811e-06
5.04167e-06
4.7852e-06
4.57629e-06
4.33893e-06
4.10981e-06
4.40355e-06
5.87529e-06
7.6146e-06
8.82057e-06
1.12927e-05
1.60236e-05
2.15276e-05
2.71056e-05
3.31057e-05
3.80661e-05
4.02854e-05
4.09587e-05
4.09914e-05
4.04727e-05
3.96871e-05
3.92399e-05
3.90049e-05
3.84121e-05
3.84954e-05
3.91677e-05
4.0692e-05
4.10117e-05
4.0302e-05
3.92757e-05
3.96422e-05
4.28844e-05
4.51346e-05
4.90944e-05
4.70162e-05
4.29356e-05
4.097e-05
3.9927e-05
3.8116e-05
4.66364e-05
0.000121077
0.000162608
0.000202341
0.000221
0.00025456
0.000388832
0.000586877
0.000765959
0.000941158
0.00128826
0.00201351
2.09454e-05
1.80249e-05
1.55234e-05
1.33832e-05
1.15375e-05
9.95275e-06
8.5999e-06
7.44057e-06
6.44669e-06
5.61382e-06
4.96836e-06
4.51023e-06
4.14927e-06
3.84173e-06
3.60253e-06
3.61195e-06
4.16778e-06
4.89961e-06
5.57331e-06
6.63518e-06
8.51075e-06
1.13707e-05
1.53828e-05
2.12102e-05
2.69776e-05
3.08605e-05
3.29573e-05
3.38611e-05
3.40169e-05
3.40157e-05
3.42687e-05
3.47354e-05
3.52261e-05
3.57261e-05
3.63696e-05
3.68117e-05
3.68798e-05
3.67432e-05
3.65455e-05
3.63827e-05
3.64767e-05
3.68331e-05
3.76156e-05
3.70313e-05
3.65477e-05
3.62095e-05
3.54114e-05
3.44493e-05
3.3722e-05
4.55051e-05
5.3424e-05
6.07909e-05
6.92024e-05
7.78727e-05
0.0001063
0.000227175
0.000371156
0.000466235
0.000587497
0.000789126
2.09779e-05
1.81539e-05
1.57537e-05
1.37175e-05
1.19541e-05
1.04121e-05
9.09738e-06
7.96243e-06
6.96733e-06
6.10879e-06
5.39685e-06
4.84368e-06
4.41396e-06
4.06486e-06
3.7656e-06
3.53627e-06
3.52015e-06
3.67095e-06
3.89637e-06
4.25567e-06
4.79207e-06
5.65783e-06
7.09506e-06
1.01104e-05
1.41097e-05
1.7599e-05
2.00486e-05
2.14615e-05
2.2074e-05
2.23365e-05
2.26626e-05
2.32357e-05
2.40205e-05
2.50869e-05
2.61389e-05
2.68612e-05
2.74264e-05
2.80337e-05
2.87278e-05
2.94529e-05
3.01896e-05
3.09323e-05
3.15711e-05
3.18668e-05
3.19628e-05
3.28414e-05
3.33362e-05
3.28653e-05
3.26379e-05
3.35933e-05
3.45814e-05
3.67627e-05
3.89043e-05
4.13628e-05
4.3839e-05
6.35559e-05
0.000109352
0.000157621
0.000199796
0.000224946
2.37168e-05
2.34036e-05
2.30837e-05
2.27532e-05
2.2417e-05
2.20848e-05
2.16947e-05
2.11757e-05
2.0433e-05
1.94409e-05
1.84155e-05
1.78187e-05
1.77549e-05
1.80103e-05
1.81739e-05
1.76489e-05
1.67543e-05
1.61791e-05
1.59084e-05
1.58418e-05
1.6189e-05
1.68825e-05
1.79706e-05
1.92395e-05
2.08418e-05
2.28511e-05
2.51958e-05
2.78123e-05
3.06751e-05
3.38047e-05
3.72154e-05
4.09286e-05
4.49852e-05
4.77347e-05
5.02988e-05
5.31775e-05
5.66335e-05
6.05851e-05
6.48128e-05
6.91011e-05
7.32332e-05
7.72423e-05
8.16266e-05
8.71776e-05
9.43446e-05
0.000101838
0.000108854
0.00011558
0.000120657
0.000125387
0.000131623
0.000138072
0.000146134
0.000156741
0.00016708
0.000174281
0.000181238
0.00019108
0.000203305
0.000218185
)
;

boundaryField
{
    wall
    {
        type            kqRWallFunction;
        value           nonuniform List<scalar> 
1200
(
2.37187e-05
2.09789e-05
2.09457e-05
2.09446e-05
2.09445e-05
2.09445e-05
2.09436e-05
2.09433e-05
2.09757e-05
2.37332e-05
2.3407e-05
1.81671e-05
1.80347e-05
1.80424e-05
1.80403e-05
1.80384e-05
1.80366e-05
1.80272e-05
1.81547e-05
2.34099e-05
2.30785e-05
1.57637e-05
1.55271e-05
1.55399e-05
1.55343e-05
1.55324e-05
1.55344e-05
1.55217e-05
1.57505e-05
2.30791e-05
2.27371e-05
1.37231e-05
1.33756e-05
1.33891e-05
1.33837e-05
1.33851e-05
1.33925e-05
1.33804e-05
1.37135e-05
2.27612e-05
2.23814e-05
1.19865e-05
1.15248e-05
1.15333e-05
1.15305e-05
1.15356e-05
1.15466e-05
1.15362e-05
1.19468e-05
2.24276e-05
2.20292e-05
1.0514e-05
9.93834e-06
9.94286e-06
9.93461e-06
9.94069e-06
9.95289e-06
9.94856e-06
1.04045e-05
2.20642e-05
2.16733e-05
9.29213e-06
8.58818e-06
8.57773e-06
8.57467e-06
8.57879e-06
8.59106e-06
8.59425e-06
9.08752e-06
2.16571e-05
2.13505e-05
8.41068e-06
7.45803e-06
7.3909e-06
7.39836e-06
7.41385e-06
7.43211e-06
7.44038e-06
7.95756e-06
2.11443e-05
2.10373e-05
7.86802e-06
6.57907e-06
6.38412e-06
6.38369e-06
6.40469e-06
6.43511e-06
6.44997e-06
6.96769e-06
2.04098e-05
2.06746e-05
7.27791e-06
6.12527e-06
5.78169e-06
5.62295e-06
5.57999e-06
5.59149e-06
5.61519e-06
6.10741e-06
1.94198e-05
2.07367e-05
1.06791e-05
8.38427e-06
7.15398e-06
6.01656e-06
5.34165e-06
5.04853e-06
4.96889e-06
5.3936e-06
1.83958e-05
2.15596e-05
1.29083e-05
9.4956e-06
8.10076e-06
6.68834e-06
5.49763e-06
4.79466e-06
4.5116e-06
4.84086e-06
1.77948e-05
2.23501e-05
1.13788e-05
6.88424e-06
7.14444e-06
6.56635e-06
5.46629e-06
4.58319e-06
4.15021e-06
4.41087e-06
1.77123e-05
2.27201e-05
1.03969e-05
5.68206e-06
5.70992e-06
5.97376e-06
5.2092e-06
4.34218e-06
3.84208e-06
4.06142e-06
1.79465e-05
2.37857e-05
8.28531e-06
7.5423e-06
7.13324e-06
5.41702e-06
4.85116e-06
4.10849e-06
3.60174e-06
3.76283e-06
1.80937e-05
2.24534e-05
7.4338e-06
1.03479e-05
1.29689e-05
8.76392e-06
5.78853e-06
4.39068e-06
3.60451e-06
3.53577e-06
1.75513e-05
2.1819e-05
8.66721e-06
1.26711e-05
2.24207e-05
1.43701e-05
8.96079e-06
5.91598e-06
4.18659e-06
3.52936e-06
1.66595e-05
2.36077e-05
9.66828e-06
1.66107e-05
3.5611e-05
2.18916e-05
1.25719e-05
7.66864e-06
4.93702e-06
3.68933e-06
1.61129e-05
2.61876e-05
1.19319e-05
1.77578e-05
3.87968e-05
2.50248e-05
1.4334e-05
8.8957e-06
5.62552e-06
3.92544e-06
1.58581e-05
3.02022e-05
1.48982e-05
2.41524e-05
4.15758e-05
3.23967e-05
1.94085e-05
1.13602e-05
6.68747e-06
4.28929e-06
1.58113e-05
3.53604e-05
1.83983e-05
2.84053e-05
4.37669e-05
3.90458e-05
2.74385e-05
1.60553e-05
8.54605e-06
4.82277e-06
1.61744e-05
4.09054e-05
2.24432e-05
3.41328e-05
4.56365e-05
4.23856e-05
3.31186e-05
2.14916e-05
1.13459e-05
5.66005e-06
1.68968e-05
4.52703e-05
2.59911e-05
3.99398e-05
4.94761e-05
4.43721e-05
3.60757e-05
2.69477e-05
1.52514e-05
7.02268e-06
1.80239e-05
4.70546e-05
2.86987e-05
4.15799e-05
5.49193e-05
4.55258e-05
4.14425e-05
3.29011e-05
2.10215e-05
9.95697e-06
1.93075e-05
4.86258e-05
3.14323e-05
4.26471e-05
6.04947e-05
5.0032e-05
4.49919e-05
3.79001e-05
2.6817e-05
1.39506e-05
2.08983e-05
5.00471e-05
3.40764e-05
4.47252e-05
6.52737e-05
5.4068e-05
4.55744e-05
4.02193e-05
3.07607e-05
1.74889e-05
2.29004e-05
5.18264e-05
3.63729e-05
4.53624e-05
6.99761e-05
5.65322e-05
4.56143e-05
4.1016e-05
3.29206e-05
2.00034e-05
2.5243e-05
5.40342e-05
3.84071e-05
4.93276e-05
7.39428e-05
5.77499e-05
4.56055e-05
4.10643e-05
3.38584e-05
2.14684e-05
2.78651e-05
5.6636e-05
3.94943e-05
5.16533e-05
7.68068e-05
5.78773e-05
4.5422e-05
4.0498e-05
3.40253e-05
2.21169e-05
3.07365e-05
5.93657e-05
3.96753e-05
5.24799e-05
7.84901e-05
5.69957e-05
4.55143e-05
3.96574e-05
3.39943e-05
2.23805e-05
3.38755e-05
6.18514e-05
4.04714e-05
5.25044e-05
7.8949e-05
5.51631e-05
4.52534e-05
3.9108e-05
3.42027e-05
2.26809e-05
3.72926e-05
6.43022e-05
4.23618e-05
5.28233e-05
7.81013e-05
5.26823e-05
4.49728e-05
3.88514e-05
3.46352e-05
2.32207e-05
4.10018e-05
6.71891e-05
4.36155e-05
5.44012e-05
7.57736e-05
5.07102e-05
4.47722e-05
3.83179e-05
3.51031e-05
2.39801e-05
4.50332e-05
7.0489e-05
4.42079e-05
5.73946e-05
7.22356e-05
5.1462e-05
4.49255e-05
3.82512e-05
3.55848e-05
2.50082e-05
4.78467e-05
7.40762e-05
4.4821e-05
6.08392e-05
6.96424e-05
5.6043e-05
4.55375e-05
3.92959e-05
3.6222e-05
2.60697e-05
5.04868e-05
7.80737e-05
4.53399e-05
6.4904e-05
7.26323e-05
6.11611e-05
4.54123e-05
4.10098e-05
3.67017e-05
2.68189e-05
5.3346e-05
8.2462e-05
4.52099e-05
6.96057e-05
7.94568e-05
6.74325e-05
4.52847e-05
4.1298e-05
3.67865e-05
2.73726e-05
5.67397e-05
8.67359e-05
4.44178e-05
7.43773e-05
8.69901e-05
7.46577e-05
4.4208e-05
4.05581e-05
3.66375e-05
2.7945e-05
6.06501e-05
9.01519e-05
4.4616e-05
7.88297e-05
9.52814e-05
8.2982e-05
4.55597e-05
3.95332e-05
3.64185e-05
2.86065e-05
6.48851e-05
9.30809e-05
4.51895e-05
8.24379e-05
0.000104617
9.31991e-05
5.13266e-05
3.99506e-05
3.62331e-05
2.93177e-05
6.9192e-05
9.71577e-05
4.54942e-05
8.44171e-05
0.000115313
0.000105295
6.29739e-05
4.30971e-05
3.63214e-05
3.00576e-05
7.33256e-05
0.000103873
4.49561e-05
8.38201e-05
0.000127461
0.000118779
7.44305e-05
4.55502e-05
3.66863e-05
3.08017e-05
7.73551e-05
0.000110173
4.4938e-05
8.35253e-05
0.000140945
0.000132008
8.46716e-05
4.88851e-05
3.75598e-05
3.14637e-05
8.16512e-05
0.000115304
4.54828e-05
8.52182e-05
0.000161948
0.0001465
8.6984e-05
4.67969e-05
3.71906e-05
3.18042e-05
8.69622e-05
0.000119155
4.53621e-05
8.69824e-05
0.000189843
0.000163877
8.42182e-05
4.28963e-05
3.70371e-05
3.19038e-05
9.37863e-05
0.000122662
4.52073e-05
8.50342e-05
0.000218014
0.000188027
9.27924e-05
4.10259e-05
3.65474e-05
3.2573e-05
0.000101515
0.000126131
4.54391e-05
8.9032e-05
0.000246917
0.000222466
0.000117795
4.00142e-05
3.55311e-05
3.32538e-05
0.000108817
0.000130737
4.71447e-05
9.2405e-05
0.000280162
0.000270414
0.000157631
3.82044e-05
3.4399e-05
3.29938e-05
0.000115723
0.000135386
4.98977e-05
5.86179e-05
0.000316313
0.000331702
0.000218541
4.69723e-05
3.38317e-05
3.26352e-05
0.000120906
0.000138475
4.78131e-05
5.09436e-05
0.000355395
0.000400112
0.000293012
0.000120503
4.52175e-05
3.35998e-05
0.000124984
0.000141352
6.64643e-05
0.000106547
0.000424015
0.000472145
0.000363725
0.000162327
5.22405e-05
3.46523e-05
0.000130815
0.000144331
0.000118833
0.000221802
0.000502613
0.000552908
0.000433999
0.000200222
5.84103e-05
3.65443e-05
0.000137597
0.000151693
0.000145948
0.000287429
0.000562289
0.000637412
0.000511438
0.000218563
6.6681e-05
3.84163e-05
0.00014596
0.000155675
0.000120716
0.000253979
0.000610105
0.000732516
0.000609135
0.000253595
7.61519e-05
4.08564e-05
0.000156382
0.000161826
0.000107202
0.000252664
0.000668526
0.000844101
0.000753233
0.000388501
0.00010451
4.34742e-05
0.000166561
0.000159662
9.01978e-05
0.00050008
0.00086135
0.000998497
0.000915443
0.000586336
0.000225271
6.26466e-05
0.000174115
0.00016829
0.000112598
0.000765345
0.00113169
0.0012288
0.00111454
0.000765329
0.000370485
0.000108244
0.000181467
0.000191818
0.000297858
0.00107795
0.00144346
0.00151996
0.00137876
0.000942008
0.000466982
0.00015726
0.000191473
0.00024703
0.000485549
0.00147629
0.00181467
0.00189292
0.00175958
0.00128908
0.000591066
0.000200962
0.000203792
0.000305282
0.000427133
0.00199233
0.00233013
0.00240196
0.00233383
0.0020155
0.000800163
0.000229027
0.000218753
2.37324e-05
2.09773e-05
2.09445e-05
2.09445e-05
2.09436e-05
2.09424e-05
2.09429e-05
2.09454e-05
2.09779e-05
2.37168e-05
2.3412e-05
1.81627e-05
1.80315e-05
1.80384e-05
1.80337e-05
1.80311e-05
1.80318e-05
1.80249e-05
1.81539e-05
2.34036e-05
2.30784e-05
1.57629e-05
1.55279e-05
1.5539e-05
1.55331e-05
1.55323e-05
1.55362e-05
1.55234e-05
1.57537e-05
2.30837e-05
2.2734e-05
1.37285e-05
1.33803e-05
1.3394e-05
1.33892e-05
1.33907e-05
1.33984e-05
1.33832e-05
1.37175e-05
2.27532e-05
2.23673e-05
1.1999e-05
1.15321e-05
1.15417e-05
1.15401e-05
1.15434e-05
1.15519e-05
1.15375e-05
1.19541e-05
2.2417e-05
2.202e-05
1.05221e-05
9.94357e-06
9.94514e-06
9.94258e-06
9.94975e-06
9.9589e-06
9.95275e-06
1.04121e-05
2.20848e-05
2.16753e-05
9.28573e-06
8.5881e-06
8.57684e-06
8.57618e-06
8.58435e-06
8.59601e-06
8.5999e-06
9.09738e-06
2.16947e-05
2.13634e-05
8.38386e-06
7.45442e-06
7.39215e-06
7.39969e-06
7.41564e-06
7.43206e-06
7.44057e-06
7.96243e-06
2.11757e-05
2.10553e-05
7.84702e-06
6.57428e-06
6.38439e-06
6.38422e-06
6.40496e-06
6.43002e-06
6.44669e-06
6.96733e-06
2.0433e-05
2.07106e-05
7.26362e-06
6.11093e-06
5.76958e-06
5.61719e-06
5.57706e-06
5.58811e-06
5.61382e-06
6.10879e-06
1.94409e-05
2.07274e-05
1.06192e-05
8.32937e-06
7.10934e-06
5.9881e-06
5.32722e-06
5.04167e-06
4.96836e-06
5.39685e-06
1.84155e-05
2.15147e-05
1.28684e-05
9.46921e-06
8.07039e-06
6.65967e-06
5.47903e-06
4.7852e-06
4.51023e-06
4.84368e-06
1.78187e-05
2.22889e-05
1.13606e-05
6.9002e-06
7.1362e-06
6.54882e-06
5.45205e-06
4.57629e-06
4.14927e-06
4.41396e-06
1.77549e-05
2.26654e-05
1.04139e-05
5.70156e-06
5.7115e-06
5.96304e-06
5.20025e-06
4.33893e-06
3.84173e-06
4.06486e-06
1.80103e-05
2.37473e-05
8.3113e-06
7.58557e-06
7.20053e-06
5.42288e-06
4.84803e-06
4.10981e-06
3.60253e-06
3.7656e-06
1.81739e-05
2.24112e-05
7.53495e-06
1.03737e-05
1.29722e-05
8.87641e-06
5.79476e-06
4.40355e-06
3.61195e-06
3.53627e-06
1.76489e-05
2.16969e-05
8.64072e-06
1.25833e-05
2.21483e-05
1.43706e-05
8.93005e-06
5.87529e-06
4.16778e-06
3.52015e-06
1.67543e-05
2.34613e-05
9.60271e-06
1.66437e-05
3.56594e-05
2.17694e-05
1.24918e-05
7.6146e-06
4.89961e-06
3.67095e-06
1.61791e-05
2.60252e-05
1.18494e-05
1.74861e-05
3.88066e-05
2.4851e-05
1.42246e-05
8.82057e-06
5.57331e-06
3.89637e-06
1.59084e-05
3.00051e-05
1.48633e-05
2.40236e-05
4.15877e-05
3.22988e-05
1.93338e-05
1.12927e-05
6.63518e-06
4.25567e-06
1.58418e-05
3.51473e-05
1.83663e-05
2.84051e-05
4.37523e-05
3.90108e-05
2.74273e-05
1.60236e-05
8.51075e-06
4.79207e-06
1.6189e-05
4.06972e-05
2.24232e-05
3.41463e-05
4.53954e-05
4.23204e-05
3.31445e-05
2.15276e-05
1.13707e-05
5.65783e-06
1.68825e-05
4.51883e-05
2.60048e-05
4.00066e-05
4.93107e-05
4.4301e-05
3.63036e-05
2.71056e-05
1.53828e-05
7.09506e-06
1.79706e-05
4.70215e-05
2.86959e-05
4.18414e-05
5.46793e-05
4.56877e-05
4.11959e-05
3.31057e-05
2.12102e-05
1.01104e-05
1.92395e-05
4.86397e-05
3.13501e-05
4.26978e-05
6.02012e-05
4.96974e-05
4.48614e-05
3.80661e-05
2.69776e-05
1.41097e-05
2.08418e-05
5.00633e-05
3.39633e-05
4.45679e-05
6.48827e-05
5.36913e-05
4.55006e-05
4.02854e-05
3.08605e-05
1.7599e-05
2.28511e-05
5.18108e-05
3.62179e-05
4.5337e-05
6.94429e-05
5.60568e-05
4.52226e-05
4.09587e-05
3.29573e-05
2.00486e-05
2.51958e-05
5.39956e-05
3.82359e-05
4.87265e-05
7.32729e-05
5.7145e-05
4.52325e-05
4.09914e-05
3.38611e-05
2.14615e-05
2.78123e-05
5.66171e-05
3.9383e-05
5.09608e-05
7.5984e-05
5.71277e-05
4.55431e-05
4.04727e-05
3.40169e-05
2.2074e-05
3.06751e-05
5.94475e-05
3.95517e-05
5.17245e-05
7.7469e-05
5.61412e-05
4.5528e-05
3.96871e-05
3.40157e-05
2.23365e-05
3.38047e-05
6.20269e-05
4.00459e-05
5.17496e-05
7.76983e-05
5.4266e-05
4.52e-05
3.92399e-05
3.42687e-05
2.26626e-05
3.72154e-05
6.44403e-05
4.17993e-05
5.21217e-05
7.66382e-05
5.1799e-05
4.48729e-05
3.90049e-05
3.47354e-05
2.32357e-05
4.09286e-05
6.71608e-05
4.31722e-05
5.37863e-05
7.41379e-05
5.00279e-05
4.46848e-05
3.84121e-05
3.52261e-05
2.40205e-05
4.49852e-05
7.02844e-05
4.39638e-05
5.67291e-05
7.05852e-05
5.13507e-05
4.49399e-05
3.84954e-05
3.57261e-05
2.50869e-05
4.77347e-05
7.37828e-05
4.47132e-05
6.01663e-05
6.86196e-05
5.59137e-05
4.55837e-05
3.91677e-05
3.63696e-05
2.61389e-05
5.02988e-05
7.78819e-05
4.5189e-05
6.4217e-05
7.26752e-05
6.10863e-05
4.54605e-05
4.0692e-05
3.68117e-05
2.68612e-05
5.31775e-05
8.24765e-05
4.48396e-05
6.88638e-05
7.96866e-05
6.73228e-05
4.50952e-05
4.10117e-05
3.68798e-05
2.74264e-05
5.66335e-05
8.69305e-05
4.38844e-05
7.34802e-05
8.75053e-05
7.45569e-05
4.41951e-05
4.0302e-05
3.67432e-05
2.80337e-05
6.05851e-05
9.06162e-05
4.41592e-05
7.79074e-05
9.60083e-05
8.30832e-05
4.61053e-05
3.92757e-05
3.65455e-05
2.87278e-05
6.48128e-05
9.37364e-05
4.55901e-05
8.14152e-05
0.000105437
9.35575e-05
5.19827e-05
3.96422e-05
3.63827e-05
2.94529e-05
6.91011e-05
9.82076e-05
4.56929e-05
8.31464e-05
0.000116068
0.000105704
6.36646e-05
4.28844e-05
3.64767e-05
3.01896e-05
7.32332e-05
0.00010472
4.52685e-05
8.1924e-05
0.000127942
0.000119112
7.54908e-05
4.51346e-05
3.68331e-05
3.09323e-05
7.72423e-05
0.000110567
4.56454e-05
8.10544e-05
0.000141388
0.000132063
8.60212e-05
4.90944e-05
3.76156e-05
3.15711e-05
8.16266e-05
0.000115038
4.54306e-05
8.23337e-05
0.000162315
0.000146297
8.82321e-05
4.70162e-05
3.70313e-05
3.18668e-05
8.71776e-05
0.000118425
4.54132e-05
8.41298e-05
0.000190002
0.000163367
8.52226e-05
4.29356e-05
3.65477e-05
3.19628e-05
9.43446e-05
0.000121876
4.5364e-05
8.38788e-05
0.000218234
0.000187594
9.24903e-05
4.097e-05
3.62095e-05
3.28414e-05
0.000101838
0.000125838
4.53165e-05
9.27482e-05
0.000247472
0.000221946
0.000117052
3.9927e-05
3.54114e-05
3.33362e-05
0.000108854
0.000130297
4.76862e-05
0.000103778
0.000281076
0.000269783
0.000156446
3.8116e-05
3.44493e-05
3.28653e-05
0.00011558
0.000134665
5.20775e-05
6.4611e-05
0.000317542
0.000331254
0.000217251
4.66364e-05
3.3722e-05
3.26379e-05
0.000120657
0.00013875
5.11715e-05
5.04e-05
0.000356631
0.00039964
0.000292241
0.000121077
4.55051e-05
3.35933e-05
0.000125387
0.000141637
6.4363e-05
0.000100057
0.00042568
0.00047217
0.000363813
0.000162608
5.3424e-05
3.45814e-05
0.000131623
0.000145471
0.000114315
0.000223554
0.000505284
0.000553999
0.000435139
0.000202341
6.07909e-05
3.67627e-05
0.000138072
0.000151042
0.00014369
0.000287604
0.000565803
0.000639777
0.000514912
0.000221
6.92024e-05
3.89043e-05
0.000146134
0.00015306
0.000119158
0.000253081
0.000613765
0.00073546
0.000613016
0.00025456
7.78727e-05
4.13628e-05
0.000156741
0.00015868
0.000105545
0.000255281
0.000671314
0.000846393
0.000756292
0.000388832
0.0001063
4.3839e-05
0.00016708
0.000161271
9.08443e-05
0.000505217
0.000865596
0.00100098
0.000917543
0.000586877
0.000227175
6.35559e-05
0.000174281
0.000167845
0.000104845
0.000777472
0.00114146
0.00123239
0.00111706
0.000765959
0.000371156
0.000109352
0.000181238
0.000190764
0.000287467
0.00110633
0.00146568
0.00152493
0.00138183
0.000941158
0.000466235
0.000157621
0.00019108
0.000237867
0.000466023
0.00151358
0.00184763
0.00189828
0.00176323
0.00128826
0.000587497
0.000199796
0.000203305
0.000295768
0.000439194
0.00202692
0.0023525
0.00240542
0.0023357
0.00201351
0.000789126
0.000224946
0.000218185
)
;
    }
    inlet
    {
        type            turbulentIntensityKineticEnergyInlet;
        intensity       0.05;
        value           uniform 2.4e-05;
    }
    outlet
    {
        type            inletOutlet;
        inletValue      uniform 0.003;
        value           nonuniform List<scalar> 
20
(
0.000305282
0.000427133
0.003
0.003
0.003
0.003
0.003
0.000800163
0.000229027
0.000218753
0.000295768
0.000439194
0.003
0.003
0.003
0.003
0.003
0.000789126
0.000224946
0.000218185
)
;
    }
    heatWall
    {
        type            kqRWallFunction;
        value           nonuniform List<scalar> 
240
(
2.37332e-05
2.37168e-05
2.34099e-05
2.34036e-05
2.30791e-05
2.30837e-05
2.27612e-05