/*--------------------------------*- C++ -*----------------------------------*\
  =========                 |
  \\      /  F ield         | OpenFOAM: The Open Source CFD Toolbox
   \\    /   O peration     | Website:  https://openfoam.org
    \\  /    A nd           | Version:  8
     \\/     M anipulation  |
\*---------------------------------------------------------------------------*/
FoamFile
{
    version     2.0;
    format      ascii;
    class       volScalarField;
    location    "800";
    object      p_rgh;
}
// * * * * * * * * * * * * * * * * * * * * * * * * * * * * * * * * * * * * * //

dimensions      [1 -1 -2 0 0 0 0];

internalField   nonuniform List<scalar> 
1200
(
3657.54
3657.46
3657.44
3657.45
3657.47
3657.48
3657.5
3657.62
3657.78
3658.65
3659.69
3658.42
3657.39
3656.31
3657.55
3658.45
3654.37
3643.81
3637.66
3627.43
3608.7
3589.63
3563.62
3534.13
3504.99
3477.65
3442.16
3401.2
3359.45
3327.19
3311.96
3301.71
3285.97
3263.57
3232.44
3199.92
3183.86
3181.48
3176.85
3162.8
3134.47
3106.61
3111.5
3130.13
3122.27
3094.25
3051.98
2972.06
2879.74
2825.82
2735.02
2656.17
2468.72
2240.61
2177.5
2172.24
2008.67
1640.87
758.714
108.364
3657.35
3657.37
3657.38
3657.41
3657.44
3657.47
3657.5
3657.67
3657.89
3659.15
3660.84
3659.46
3657.78
3656.87
3658.2
3659.29
3657.11
3644.77
3638.04
3628.19
3609.41
3590.37
3566.17
3536.16
3503.98
3475.74
3440.7
3399.45
3356.74
3324.33
3311.26
3302.74
3287.84
3266.04
3233.96
3199
3182.96
3182.31
3179.12
3164.96
3135.14
3104.77
3113.15
3137.54
3128.55
3101.41
3061.45
2976.94
2880.56
2840.24
2742.35
2654.19
2454.54
2225.49
2179.28
2169.75
2020.73
1727.87
662.833
158.76
3657.38
3657.41
3657.43
3657.44
3657.46
3657.48
3657.5
3657.58
3657.67
3658.35
3659.45
3658.58
3657.57
3656.32
3657.21
3658.53
3652.4
3641.54
3637.61
3629.72
3608.65
3590.12
3564.76
3531.03
3502.62
3479.96
3445.08
3403.7
3360.9
3326.74
3310.08
3299.29
3283.45
3261.32
3229.85
3194.66
3178.93
3180.3
3180.29
3169.5
3141.41
3105.55
3111.38
3135.89
3126.74
3102.23
3068.25
2988.55
2879.25
2832.07
2772.5
2694.04
2480.13
2210.04
2173.85
2172.22
1980.64
1542.52
498.834
42.9806
3657.38
3657.39
3657.4
3657.41
3657.43
3657.45
3657.46
3657.52
3657.56
3658.07
3658.81
3657.83
3656.79
3656.45
3656.99
3657.16
3654.68
3641.7
3635.76
3624.58
3606.17
3587.82
3564.83
3538.74
3507.97
3476.89
3440.99
3400.54
3361.27
3330.16
3311.59
3297.95
3280.93
3258.64
3233.27
3197.13
3177.83
3173.99
3173.83
3169.49
3155.78
3130.49
3129.66
3146.87
3142.92
3116.32
3074.68
2996.22
2903.53
2843.52
2790.24
2692.92
2495.01
2251.51
2190.2
2144.17
1920.98
1394.33
448.877
-40.0543
3657.38
3657.39
3657.4
3657.41
3657.43
3657.44
3657.44
3657.44
3657.39
3657.42
3657.64
3656.86
3656.01
3655.25
3654.37
3655.51
3651.18
3641.05
3633.36
3623.18
3605.77
3588.18
3563.29
3543.37
3516.63
3481.34
3441.18
3399.81
3362.44
3332.16
3310.08
3293.82
3279.89
3258.13
3227.81
3195.36
3176.66
3170.75
3170.87
3174.13
3175.32
3160.77
3158.23
3165.95
3161.61
3141.66
3099.5
3041.96
2985.59
2919.81
2835.41
2738.61
2577.33
2378.77
2263.25
2150.48
1888.8
1351.86
496.361
-22.1687
3657.38
3657.39
3657.39
3657.4
3657.42
3657.43
3657.41
3657.38
3657.28
3657.15
3657.02
3656.08
3655.07
3654.6
3654.41
3654.04
3651.23
3641.39
3633.61
3622.54
3603.38
3583.04
3560.13
3546.57
3519.44
3480.04
3439.05
3397.8
3361.85
3332.63
3310.65
3294.24
3279.33
3252.12
3223.48
3193.35
3175.78
3171.59
3173
3181.04
3189.68
3172.66
3163.99
3158.65
3152.11
3139.77
3103.11
3062.55
3049.61
3011.89
2909.44
2792.04
2648.63
2498.74
2374.33
2196.42
1869.76
1292.67
567.619
26.4677
3657.37
3657.38
3657.38
3657.38
3657.39
3657.4
3657.38
3657.32
3657.18
3656.88
3656.33
3655.2
3654.02
3653.14
3652.19
3652.16
3647.8
3639.8
3631.12
3620.7
3604.32
3585.94
3562.65
3543.8
3516.82
3478.92
3438.68
3397.17
3361.37
3332.36
3310.11
3292.95
3277.43
3250.26
3224.33
3197.52
3178.46
3171.08
3170.92
3178.64
3186.99
3176.93
3169.13
3161.59
3160.05
3141.6
3105.05
3069
3070.26
3062.37
2962.32
2847.47
2718.86
2607.65
2483.24
2259.44
1877.63
1289.3
630.529
204.147
3657.38
3657.4
3657.4
3657.4
3657.4
3657.4
3657.37
3657.29
3657.11
3656.75
3656.08
3654.86
3653.58
3652.57
3651.6
3650.6
3646.75
3639.36
3630.74
3620.08
3604.13
3586.48
3565.66
3546.44
3518
3479.32
3439.2
3398.06
3362.09
3332.8
3310.5
3292.96
3277.18
3249.75
3221.11
3195
3178.01
3172.04
3172.54
3178.67
3185.63
3178.59
3169.95
3164.89
3164.8
3136.69
3100.67
3068.17
3066.85
3059.99
2977.08
2866.01
2739.23
2639.18
2528.26
2319.05
1922.64
1364.7
685.883
308.816
3657.34
3657.35
3657.35
3657.36
3657.37
3657.37
3657.34
3657.24
3657.04
3656.65
3655.94
3654.71
3653.36
3652.2
3650.86
3649.41
3645.42
3637.91
3628.83
3618.13
3603.35
3586.93
3567.4
3547.75
3519.47
3481.73
3441.74
3401.39
3365.83
3336.69
3313.74
3294.78
3275.84
3251.92
3227.26
3200.51
3182.32
3174.69
3174.19
3179.91
3185.73
3177.21
3167.29
3160.63
3154.97
3129.37
3100.33
3070.41
3066.16
3053.41
2968.83
2861.66
2739.82
2644.99
2545.52
2345.06
1942.46
1426.39
753.986
322.544
3657.53
3657.44
3657.41
3657.41
3657.41
3657.41
3657.37
3657.27
3657.06
3656.66
3655.95
3654.74
3653.37
3652.12
3650.69
3648.94
3644.77
3637.32
3628.13
3617.21
3602.34
3585.85
3566.88
3547.27
3519.36
3482
3442.26
3402.59
3367.23
3337.94
3314.56
3294.94
3274.47
3251.54
3228.14
3201.94
3183.57
3175.51
3174.99
3179.94
3184.9
3179.06
3169.12
3158.85
3146.86
3123.21
3098.52
3071.94
3063.27
3039.91
2957.51
2854.46
2738.81
2641.27
2533.93
2332.84
1942.83
1443.86
799.555
373.321
3657.55
3657.47
3657.45
3657.45
3657.45
3657.45
3657.46
3657.54
3657.72
3658.6
3659.86
3658.78
3657.74
3656.52
3657.25
3657.88
3654.31
3644.04
3637.82
3627.41
3609.09
3589.82
3563.84
3534.49
3505.35
3478.22
3443.36
3403.04
3361.07
3328.28
3312.53
3302.05
3286.56
3264.65
3234.01
3201.86
3186.15
3183.62
3178.88
3164.71
3135.93
3107.22
3112.47
3133.44
3124.44
3093.7
3050.43
2970.57
2878.5
2823.2
2728.47
2652.95
2474.21
2244.3
2170.69
2156.21
2003.54
1631.1
765.33
103.511
3657.35
3657.37
3657.39
3657.42
3657.43
3657.43
3657.44
3657.51
3657.66
3658.5
3659.74
3658.53
3657.37
3656.57
3657.69
3658.53
3655.93
3644.57
3637.29
3626.46
3607.68
3588.63
3564.53
3535.27
3504.69
3477.12
3442.49
3401.64
3358.34
3324.95
3311.15
3302.44
3287.7
3266.06
3234.22
3199.54
3184.41
3184.14
3181
3166.99
3136.77
3104.64
3113.59
3142.02
3129.84
3100.52
3060.79
2975.53
2877.64
2837.55
2733.9
2650.73
2457.86
2229.12
2173
2159.51
2021.99
1715.36
702.989
191.634
3657.39
3657.43
3657.45
3657.45
3657.45
3657.44
3657.44
3657.47
3657.53
3658
3658.84
3657.97
3657.18
3656.38
3657.19
3658.39
3652.02
3641.15
3636.98
3628.24
3608.06
3589.91
3565.61
3532
3502.51
3479.83
3445.53
3404.62
3361.61
3326.91
3309.71
3298.67
3282.82
3260.81
3229.83
3195.01
3179.37
3180.62
3179.99
3169.11
3140.48
3103.28
3109.53
3134.55
3124.71
3098.68
3063.75
2984.76
2876.58
2830.56
2767.44
2685.76
2481.29
2210.03
2172.07
2170.04
1981.77
1559.64
514.117
52.5992
3657.38
3657.4
3657.41
3657.41
3657.42
3657.42
3657.42
3657.44
3657.45
3657.73
3658.22
3657.35
3656.55
3656.25
3657.28
3657.78
3657.25
3642.71
3635.68
3624.41
3606.24
3588.03
3565.18
3539.37
3509.36
3478.41
3442.4
3401.77
3362.04
3330.22
3310.82
3296.41
3278.79
3255.95
3230.6
3194.69
3175.63
3172.25
3172.43
3168.43
3154.02
3127.79
3128.42
3147.32
3142.43
3113.49
3070.18
2990.85
2897.71
2839.46
2786.68
2685.45
2497.38
2257.25
2195.79
2150.63
1927.47
1408.34
468.289
-58.5368
3657.38
3657.4
3657.41
3657.42
3657.42
3657.42
3657.41
3657.4
3657.35
3657.33
3657.48
3656.69
3655.9
3655.28
3654.85
3656.01
3651.23
3641.91
3634.37
3624.62
3606.88
3588.79
3563.78
3543.36
3516.83
3481.86
3441.96
3400.59
3363.26
3332.72
3309.87
3292.91
3278.49
3256.14
3226.03
3193.95
3175.44
3169.83
3170.45
3174.36
3175.87
3159.79
3156.43
3162.62
3157.64
3138.36
3098.04
3041.49
2986.45
2920
2835.09
2740.39
2582.91
2390.59
2279.7
2171.43
1907.21
1381.02
530.706
-6.25955
3657.38
3657.4
3657.41
3657.41
3657.41
3657.41
3657.39
3657.37
3657.28
3657.11
3656.94
3656.03
3655.04
3654.5
3654.32
3654.33
3651.83
3642.59
3635.28
3624.88
3606.17
3584.86
3561.34
3546.99
3520.62
3481.07
3439.88
3398.44
3362.61
3333.52
3311.01
3294.05
3278.91
3251.84
3222.54
3192.48
3175.32
3171.28
3172.46
3179.89
3187.39
3169.78
3161.25
3156.07
3149.01
3136.65
3102.04
3061.95
3053.17
3012.61
2910.02
2791.97
2649.32
2503.24
2385.3
2212.85
1879.67
1307.25
575.497
3.53995
3657.38
3657.39
3657.39
3657.39
3657.39
3657.39
3657.37
3657.32
3657.19
3656.9
3656.38
3655.27
3654.12
3653.25
3652.4
3652.27
3647.67
3639.71
3630.84
3621.29
3605.81
3588.06
3564.84
3545.39
3518.65
3480.74
3440.33
3398.76
3363.23
3334.37
3311.95
3294.63
3278.57
3250.52
3224.37
3197.52
3178.58
3171.26
3171.05
3178.18
3185.85
3175.21
3167.86
3160.91
3158.94
3138.88
3103.27
3067.54
3068.81
3064.7
2962.56
2849.77
2720.13
2617.37
2502.13
2285.52
1893.6
1320.57
639.661
210.8
3657.38
3657.41
3657.41
3657.41
3657.41
3657.4
3657.37
3657.3
3657.13
3656.79
3656.15
3654.96
3653.69
3652.68
3651.7
3650.72
3646.8
3639.5
3630.81
3620.35
3604.3
3587.11
3566.85
3548.01
3519.96
3481.84
3441.62
3400.46
3364.88
3335.88
3312.99
3295.31
3279.16
3251.38
3222.55
3196.31
3179.06
3172.78
3173.12
3178.73
3185.46
3178.6
3170.11
3165.31
3163.95
3135.46
3100.21
3067.76
3067.77
3061.27
2977.59
2865.95
2739
2644.73
2538.56
2333.24
1929.24
1377.94
680.305
319.037
3657.34
3657.35
3657.36
3657.37
3657.38
3657.37
3657.34
3657.26
3657.08
3656.72
3656.04
3654.84
3653.52
3652.37
3651.03
3649.6
3645.41
3637.81
3628.59
3618.09
3603.38
3587.23
3567.87
3548.72
3520.72
3483.23
3443.36
3403.04
3367.69
3338.79
3315.65
3296.86
3277.82
3253.65
3228.92
3202.14
3183.88
3176.18
3175.66
3180.98
3186.56
3177.96
3167.89
3161.13
3155.43
3130.12
3101.39
3071.2
3067.39
3054.09
2968.44
2863.02
2740.01
2651.86
2560.88
2366.59
1953.86
1448.16
750.74
329.87
3657.53
3657.45
3657.42
3657.41
3657.41
3657.41
3657.37
3657.28
3657.08
3656.71
3656.01
3654.8
3653.43
3652.17
3650.7
3648.96
3644.65
3637.2
3627.92
3617.08
3602.14
3585.73
3566.8
3547.46
3519.64
3482.32
3442.55
3402.72
3367.32
3338.09
3314.44
3294.9
3274.31
3251.72
3228.41
3202.42
3184.11
3176.08
3175.59
3180.14
3184.9
3179.13
3169.04
3158.47
3146.35
3122.98
3098.63
3072.13
3063.71
3039.14
2956.04
2854.57
2739.6
2646.6
2543.49
2347.05
1950.02
1458.6
793.39
393.414
)
;

boundaryField
{
    wall
    {
        type            fixedFluxPressure;
        gradient        nonuniform List<scalar> 
1200
(
-0.741869
-0.392375
-0.602291
-0.500889
-0.493403
-0.449557
-0.362971
-0.306857
-0.154981
0.0177953
-1.57578
-1.31251
-2.64959
-1.94145
-2.15113
-2.007
-1.5816
-1.81542
-0.846903
-1.04168
-1.94537
-2.1344
-4.05728
-2.48529
-3.03988
-2.73824
-1.85523
-2.53862
-1.01107
-0.920559
-0.167767
-0.913232
-2.36343
-0.827311
-1.62158
-1.59999
-0.909865
-1.91662
-0.576667
-0.0916995
3.84664
3.25308
2.66206
2.89601
1.74715
0.611714
0.19648
-1.60004
-1.12284
-0.65638
7.48703
8.14468
7.922
6.51433
5.31897
3.53684
2.15334
-0.0647688
-0.559425
0.114364
8.53813
12.5833
10.5698
7.37337
5.22126
3.10679
1.69621
-0.217678
-1.22191
-0.0444102
17.2293
32.2197
21.8787
15.9771
7.78401
3.01153
0.248715
-2.06481
-4.32027
-2.32205
10.337
47.4702
28.0634
22.8443
6.69145
1.01623
-2.50423
-4.10195
-7.53728
-3.91852
9.71097
129.043
68.7871
66.7894
17.6922
6.82274
-4.38557
-8.28857
-13.8133
-8.26739
-35.6347
218.936
118.324
116.414
28.8305
13.772
-10.6979
-15.5337
-20.286
-11.9168
-73.1954
187.595
119.408
94.8919
31.0452
7.80022
-15.8799
-19.4807
-25.3559
-12.2605
-70.8381
80.2334
75.9555
47.8047
20.6933
4.43675
-19.4965
-23.564
-31.6143
-12.8495
-43.3403
59.4126
-13.3612
39.7017
-4.87829
19.0957
-21.7753
-22.8589
-35.0501
-10.7174
59.8502
102.669
6.92545
-60.7852
-98.6975
19.5283
-40.0563
-20.2888
-34.0894
-3.77584
108.864
151.146
35.7466
-123.003
-101.133
-61.169
-19.7162
-21.4623
-37.7211
-3.02743
10.0334
236.743
87.496
-512.077
-11.2795
-118.381
26.3223
-9.56376
-0.706301
23.6559
-43.6493
44.092
76.7118
-206.74
-165.499
-240.925
18.4817
-30.1947
16.3392
25.0219
-33.0147
149.357
122.977
16.2096
-193.879
-333.629
57.0987
-12.9753
45.8068
41.3449
0.650576
349.49
287.929
40.0344
-284.621
-466.904
-114.98
-51.5604
8.07173
25.7746
-79.1354
349.569
116.767
-9.73552
-224.124
-554.023
-294.199
-28.4002
-4.27563
39.776
-38.7349
355.285
39.0558
-37.4558
-122.453
-360.309
-415.906
-122.269
-55.8838
25.1012
-41.057
333.667
-174.474
-66.5389
-89.6015
-254.114
-431.891
-236.629
-90.2977
18.1739
-70.7072
169.05
-185.184
-136.051
6.39837
-94.0916
-319.663
-305.813
-192.811
-34.6139
-68.0105
-150.715
33.0347
-287.466
-38.0675
-240.453
-367.971
-381.956
-245.855
-54.1455
-113.1
-273.159
20.8939
-304.066
-107.071
-208.968
-365.261
-499.888
-294.277
-62.3371
-240.714
-356.532
-93.9205
-281.295
-159.024
-167.663
-333.048
-483.035
-317.317
-57.2053
-371.281
-437.64
-188.892
-244.107
-160.313
-128.274
-319.584
-486.398
-324.59
-21.471
-326.997
-317.186
-148.687
-155.374
-171.496
-153.972
-370.853
-565.695
-366.712
-11.3891
-220.717
-117.144
-38.9974
-19.1827
-121.682
-182.923
-404.306
-618.507
-412.718
-23.0008
-113.041
23.1645
72.1247
136.98
32.827
-75.9078
-372.501
-499.191
-375.192
32.1277
-67.472
54.337
125.405
280.773
172.369
37.3639
-340.71
-465.091
-406.184
16.1271
-115.927
19.8208
127.056
403.41
269.906
84.9516
-224.782
-380.387
-387.29
36.9937
-217.934
-14.469
98.0399
539.202
391.906
42.4509
-52.4937
-325.626
-330.454
-31.5924
-319.065
-59.7631
4.31473
547.884
360.142
188.548
-18.4359
-300.193
-309.092
-47.7603
-393.771
-114.021
-73.1274
497.551
287.186
193.49
-9.55214
-273.521
-311.854
-92.6223
-464.255
-297.941
-97.6672
447.139
256.741
104.331
-30.0198
-220.975
-300.381
-102.551
-434.127
-376.983
-66.0071
356.46
200.756
59.6989
-37.1442
-148.591
-285.997
-108.986
-416.562
-381.358
56.325
287.477
105.582
102.609
-27.9541
-112.888
-279.69
-117.363
-388.987
-399.935
64.9163
208.057
-10.7308
218.891
88.4548
-8.63023
-197.492
-36.9699
-298.194
-321.755
170.31
336.292
-53.705
441.356
221.31
40.4748
-146.378
4.32912
-129.446
14.4502
441.803
499.999
208.634
584.01
352.811
-3.85901
-147.497
-6.26977
-204.852
-80.3097
347.225
180.582
399.573
577.285
274.108
-26.8157
-124.523
23.4157
-672.877
-865.123
237.253
-184.923
751.599
547.733
166.279
-78.2812
-114.938
78.6352
-454.073
-222.57
390.128
-19.205
911.654
645.456
216.626
164.01
-18.8459
95.4072
83.9074
223.477
711.861
434.174
767.493
643.307
540.55
239.681
-99.5157
37.4911
293.679
196.971
899.995
800.274
356.374
215.573
347.729
78.6034
-177.567
-25.9625
282.231
347.852
736.871
935.703
138.641
147.229
289.465
69.7305
-161.582
-42.9847
209.149
581.116
550.434
864.479
-137.813
-507.6
320.189
-178.349
-275.892
-90.6527
471.987
530.809
269.616
530.743
-94.5186
-87.4706
-307.179
-168.272
-105.392
147.312
1259.55
1642.95
994.862
384.158
0.408879
-90.8636
45.9402
-30.3209
98.7408
282.625
609.238
713.206
1765.13
1468.04
-361.345
38.7241
-394.247
75.515
-256.93
-28.0112
-1048.3
-580.232
-174.116
-546.373
-1081.71
-108.219
-161.211
51.6981
-31.7825
-164.705
-726.485
-685.426
-76.7206
-1259.46
-2385.85
-888.351
-1842.64
-1090.57
-1356.25
-1067.21
1253.13
1207.49
323.405
-1162.62
-3407.04
-2188.71
-3712.94
-2002.59
-3022.42
-1896.21
3015.89
1954.31
540.758
-1275.68
-4258.68
-3276.13
-5270.86
-2712.44
-4218.78
-2797.84
948.545
-293.789
180.745
-1203.01
-3669.22
-1931.79
-3237.62
-1202.91
-2216.3
-1402.16
1843.32
2764.99
-2909.7
-2871.85
-5809.44
-2947.62
-6490.51
-2531.51
-4227.26
-2860.64
-1379.9
-7022.25
-2848.72
-4252.27
-7172.15
-1625.43
-1922.62
1030.39
646.632
1282.13
1360.21
-6401.96
-2405.97
3608.12
-3357.86
4463.49
-1367.66
-1995.73
-1437.83
-3896.11
0.741868
0.392372
0.602287
0.500887
0.493402
0.449557
0.362969
0.306856
0.154984
-0.0177931
1.57585
1.31255
2.64985
1.94173
2.15141
2.00724
1.58179
1.8156
0.847013
1.04152
1.94539
2.13467
4.05849
2.48637
3.04071
2.73897
1.85581
2.53941
1.0115
0.91968
0.166624
0.913045
2.36309
0.827162
1.62045
1.59925
0.909802
1.91725
0.577379
0.0901964
-3.85014
-3.2558
-2.66664
-2.89888
-1.7514
-0.61465
-0.197254
1.60079
1.12412
0.655391
-7.49028
-8.14729
-7.92629
-6.51673
-5.32383
-3.54157
-2.15555
0.0641538
0.560403
-0.116186
-8.53943
-12.5839
-10.5705
-7.3736
-5.22285
-3.11022
-1.69874
0.21481
1.22002
0.0409857
-17.2303
-32.2205
-21.879
-15.9771
-7.78435
-3.01259
-0.25021
2.06097
4.31213
2.31738
-10.3371
-47.4749
-28.0662
-22.8454
-6.69134
-1.01621
2.50326
4.09584
7.51557
3.90585
-9.73389
-129.112
-68.8318
-66.8218
-17.7008
-6.82255
4.386
8.2824
13.7783
8.23571
35.5973
-219.007
-118.411
-116.483
-28.8678
-13.781
10.7011
15.5379
20.2321
11.8524
73.2486
-187.494
-119.368
-94.8645
-31.0563
-7.80911
15.8814
19.5368
25.2891
12.1723
70.8506
-80.1654
-75.8202
-47.72
-20.6589
-4.43025
19.4988
23.5824
31.5282
12.7482
43.3579
-59.3777
13.4009
-39.6141
4.92577
-19.0776
21.7812
22.862
34.882
10.6005
-59.8177
-102.519
-6.96879
60.6406
97.9528
-19.5015
40.0641
20.2846
33.7928
3.65082
-109.209
-151.181
-36.173
122.248
100.893
57.7793
19.1638
21.453
37.2697
2.85756
-11.292
-237.119
-87.2593
511.835
5.82331
115.793
-25.4051
10.3174
0.119797
-23.7104
42.9536
-44.1244
-75.9637
207.766
165.26
238.866
-17.8294
31.1616
-16.27
-24.7991
32.4249
-149.687
-123.311
-15.593
193.67
328.181
-57.1025
15.2108
-44.9455
-40.85
-1.13363
-349.491
-287.83
-38.2163
284.526
461.415
115.45
55.1291
-6.04864
-24.9058
78.8704
-349.454
-116.484
12.6888
225.4
552.795
296.043
32.8068
7.17096
-38.5026
38.6012
-354.7
-38.5646
41.7811
123.863
360.135
417.191
126.931
58.9385
-23.6241
41.1303
-333.767
175.288
72.1687
92.0131
253.846
437.532
240.705
92.5848
-16.8388
71.1309
-169.084
186.274
140.914
-3.55894
94.5415
324.476
311.088
193.26
35.5524
68.6142
151.238
-32.5822
290.833
41.2418
242.12
371.443
389.056
246.632
54.3898
113.62
273.577
-20.8373
307.496
109.738
211.162
367.081
504.384
296.929
61.3937
241.125
356.583
93.2525
284.335
160.196
169.698
333.049
485.422
320.047
55.5846
371.768
437.454
186.803
245.584
158.838
130.158
319.641
483.521
326.257
20.7203
327.435
316.815
144.85
152.734
166.203
155.555
370.886
559.187
368.038
12.4322
220.86
116.759
33.8847
9.01065
110.667
183.624
404.34
611.911
415.1
26.4044
112.835
-23.4048
-76.945
-159.602
-53.0927
75.4967
372.849
494.549
379.97
-26.8073
66.9795
-54.377
-128.622
-325.855
-204.982
-40.2523
337.594
465.382
413.495
-9.56724
115.529
-19.8384
-129.322
-482.849
-303.849
-92.1263
221.999
385.13
397.547
-29.5226
217.856
14.3992
-100.93
-634.417
-410.375
-49.1859
49.0327
332.326
343.021
38.3993
319.313
59.6887
-3.38128
-589.362
-361.563
-190.79
13.6611
311.015
324.619
50.6356
394.073
114.461
82.9533
-509.912
-287.153
-190.858
9.54641
279.605
323.607
94.8686
464.334
298.314
105.326
-447.861
-256.584
-101.213
30.091
217.126
308.469
107.14
434.035
376.924
65.4399
-357.067
-200.751
-60.278
37.0969
145.473
296.404
115.06
416.716
381.428
-66.1693
-287.988
-105.457
-112.879
27.7844
115.737
294.217
122.859
389.972
404.613
-80.0789
-208.593
10.8589
-245.913
-88.5158
16.576
214.038
40.9315
297.552
313.292
-178.615
-336.95
53.7037
-430.562
-221.561
-31.4857
162.85
-1.25069
126.519
-48.4968
-462.968
-500.569
-207.769
-583.786
-354.193
9.9994
164.194
9.39635
200.496
64.7444
-377.07
-181.507
-392.679
-573.799
-272.841
40.5488
141.142
-19.5597
663.987
862.198
-265.379
184.312
-742.389
-543.717
-164.653
86.6565
126.62
-73.3781
438.552
216.145
-400.088
19.3062
-908.015
-643.57
-216.874
-160.578
24.1833
-89.5546
-103.702
-223.317
-720.531
-433.818
-766.79
-643.11
-540.498
-237.641
97.184
-34.0998
-311.691
-200.007
-914.365
-799.87
-355.718
-215.365
-346.279
-78.3838
184.082
25.6455
-293.74
-360.121
-738.24
-935.408
-137.638
-146.642
-288.246
-70.1333
163.435
43.5424
-217.252
-607.997
-557.147
-864.366
139.25
508.825
-322.073
178.078
273.108
91.4261
-487.178
-551.702
-299.436
-530.602
97.3729
90.8797
313.376
182.436
103.005
-146.179
-1286.83
-1721.84
-994.121
-383.276
7.33487
98.2813
-38.0023
20.9987
-108.933
-278.837
-612.509
-707.864
-1765.75
-1467.55
363.919
-36.896
396.364
-76.9049
241.696
31.7742
1049.07
584.983
174.575
547.113
1083.49
109.609
162.199
-62.9432
15.7669
169.116
715.488
707.55
76.9013
1259.04
2387.01
890.352
1844.15
1070.19
1342.87
1072.74
-1301.39
-1201
-325.145
1158.65
3401.4
2191.48
3715.47
1991.08
3017.82
1901.82
-3012.14
-1960.73
-540.498
1278.34
4248.49
3282.65
5285.26
2724.98
4226.28
2802.2
-951.824
293.447
-180.204
1202.56
3648.45
1931.44
3259.64
1237.75
2239.19
1401.81
-1849.83
-2767.08
2910.84
2866.18
5765
2934.12
6505.84
2563.85
4264.43
2852.41
1371.66
7020.2
2848.02
4240.54
7130.7
1602.89
1921.33
-980.388
-604.158
-1271.22
-1368.01
6401.36
2363.56
-3590.23
3347.1
-4494.56
1361.08
2054.71
1471.94
3906.8
)
;
        value           nonuniform List<scalar> 
1200
(
3657.54
3657.35
3657.38
3657.38
3657.38
3657.38
3657.37
3657.37
3657.34
3657.53
3657.45
3657.36
3657.41
3657.38
3657.38
3657.38
3657.38
3657.39
3657.35
3657.44
3657.43
3657.38
3657.42
3657.39
3657.39
3657.39
3657.38
3657.39
3657.35
3657.41
3657.45
3657.41
3657.44
3657.41
3657.41
3657.4
3657.38
3657.4
3657.36
3657.41
3657.48
3657.45
3657.47
3657.44
3657.44
3657.42
3657.39
3657.4
3657.37
3657.41
3657.5
3657.49
3657.5
3657.47
3657.46
3657.44
3657.41
3657.4
3657.37
3657.41
3657.53
3657.54
3657.52
3657.47
3657.45
3657.42
3657.38
3657.37
3657.33
3657.37
3657.67
3657.75
3657.64
3657.56
3657.46
3657.39
3657.32
3657.28
3657.23
3657.26
3657.8
3658.01
3657.74
3657.62
3657.4
3657.28
3657.17
3657.1
3657.02
3657.05
3658.68
3659.47
3658.52
3658.24
3657.46
3657.17
3656.87
3656.73
3656.62
3656.64
3659.61
3661.38
3659.74
3659.1
3657.71
3657.05
3656.31
3656.04
3655.88
3655.92
3658.24
3659.93
3658.87
3658.06
3656.93
3656.1
3655.16
3654.81
3654.65
3654.71
3657.21
3657.98
3657.75
3656.91
3656.06
3655.08
3653.98
3653.52
3653.28
3653.33
3656.2
3657.02
3656.28
3656.55
3655.24
3654.65
3653.09
3652.51
3652.11
3652.09
3657.7
3658.46
3657.22
3656.84
3654.12
3654.46
3652.09
3651.55
3650.78
3650.68
3658.71
3659.66
3658.61
3656.85
3655.25
3653.89
3652.11
3650.54
3649.32
3648.93
3654.39
3657.7
3652.63
3653.39
3651.16
3650.95
3647.87
3646.73
3645.42
3644.83
3643.71
3644.88
3641.73
3641.17
3640.64
3640.79
3639.85
3639.28
3637.95
3637.39
3637.58
3638.42
3637.9
3635.8
3632.89
3632.78
3631.27
3630.71
3628.94
3628.23
3627.42
3629.08
3630.42
3624.7
3622.47
3621.39
3620.42
3619.95
3618.15
3617.28
3608.5
3610.3
3608.94
3606.16
3605.21
3602
3603.59
3604.06
3603.33
3602.43
3589.53
3591.28
3590.2
3587.74
3587.87
3582.15
3584.92
3586.17
3586.79
3585.91
3563.53
3567.01
3564.32
3564.67
3563.09
3559.47
3561.58
3565.06
3567.17
3566.92
3533.96
3536.56
3530.59
3538.37
3543.4
3546.3
3542.99
3545.68
3547.26
3547.18
3504.83
3503.58
3502.74
3507.23
3516.54
3518.83
3515.89
3517.05
3518.86
3519.22
3477.37
3475.07
3480
3476.14
3481.06
3479.51
3478
3478.07
3481
3481.85
3441.55
3439.81
3444.83
3440.29
3440.77
3438.62
3437.84
3437.99
3440.95
3442.12
3400.26
3398.36
3403.22
3399.94
3399.39
3397.47
3396.37
3396.83
3400.58
3402.55
3358.62
3355.96
3360.52
3360.88
3361.99
3361.45
3360.44
3360.67
3364.92
3367.21
3326.63
3324.06
3326.63
3330.08
3331.84
3332.16
3331.34
3331.26
3335.66
3337.89
3311.69
3311.32
3310.26
3311.88
3310.14
3310.45
3309.16
3309.26
3312.8
3314.64
3301.55
3302.85
3299.61
3298.57
3294.23
3294.33
3292.1
3291.81
3293.77
3294.98
3285.69
3287.87
3283.77
3281.86
3280.54
3279.54
3276.88
3276.25
3274.87
3274.55
3263.02
3265.97
3261.55
3259.99
3259.09
3252.19
3250.13
3248.89
3251.11
3251.46
3231.63
3233.78
3229.85
3234.7
3228.72
3223.95
3224.25
3220.31
3226.51
3228.04
3198.92
3198.69
3194.47
3198.42
3196.09
3193.86
3197.48
3194.28
3199.74
3201.71
3182.68
3182.18
3178.66
3178.97
3177.33
3176.05
3178.37
3177.46
3181.58
3183.31
3180.38
3181.34
3180.15
3174.91
3171.28
3171.71
3170.99
3171.69
3173.99
3175.23
3175.79
3178.16
3180.44
3174.58
3171.16
3173.22
3170.84
3172.27
3173.5
3174.69
3161.82
3163.96
3169.65
3170.01
3174.16
3181.56
3178.85
3178.64
3179.41
3179.85
3133.72
3134.36
3141.82
3156.61
3175.29
3190.71
3187.52
3185.72
3185.36
3184.91
3106.28
3104.87
3106.67
3131.69
3161.29
3174.11
3177.81
3178.56
3176.82
3179.06
3110.97
3113
3112.24
3130.04
3159.25
3165.42
3169.87
3169.87
3166.94
3169.19
3128.44
3135.43
3136.47
3146.33
3167.87
3160.01
3162.16
3164.67
3160.36
3159.04
3121.12
3128.05
3127.73
3142.78
3163.93
3153.73
3160.82
3165.15
3155.02
3147.06
3094.44
3102.03
3104.06
3117.16
3143.64
3141.45
3143.09
3137.25
3129.21
3123.27
3052.72
3062.05
3070.52
3076.38
3100.46
3103.76
3105.94
3100.83
3099.91
3098.44
2972.75
2977.94
2990.4
2998.12
3042.34
3063.07
3069.69
3068.32
3069.96
3071.82
2880.19
2882.09
2880.67
2905.14
2985.29
3048.8
3071.08
3066.41
3065.44
3063.04
2826.89
2841.62
2832.77
2844.24
2919.54
3011.74
3061.98
3059.67
3053.24
3040.27
2738.09
2746.65
2775.09
2790.72
2835.37
2909.2
2962.54
2977.04
2969.12
2958.2
2657.61
2655.99
2698.78
2696.66
2737.72
2792.2
2846.57
2866.23
2861.05
2854.4
2466.2
2453.25
2480
2493.59
2574.57
2648.39
2718.55
2739.39
2739.76
2738.4
2238.68
2223.7
2209.82
2248.21
2372.69
2496.6
2603.12
2636.47
2641.65
2638.59
2180.62
2182.19
2174.61
2187.3
2254.67
2369.01
2474.03
2523.32
2538.04
2529.2
2179.52
2174.31
2173.67
2141.03
2139.62
2188.42
2246.19
2312.46
2334.63
2325.91
2011.06
2019.99
1981.76
1918.28
1879.24
1865.24
1869.21
1919.79
1936.97
1939.37
1645.36
1736.03
1536.14
1387.25
1336.79
1285.44
1272.55
1358.45
1415.93
1436.87
755.434
649.172
492.056
437.979
477.984
563.4
625.604
688.279
755.526
802.821
112.621
143.433
36.3636
-31.0164
-30.3818
37.2239
200.738
304.003
319.024
363.728
3657.55
3657.35
3657.39
3657.38
3657.38
3657.38
3657.38
3657.38
3657.34
3657.53
3657.47
3657.38
3657.43
3657.4
3657.41
3657.4
3657.39
3657.41
3657.35
3657.45
3657.45
3657.4
3657.46
3657.41
3657.42
3657.41
3657.39
3657.42
3657.36
3657.42
3657.45
3657.42
3657.46
3657.42
3657.43
3657.41
3657.39
3657.42
3657.37
3657.41
3657.44
3657.42
3657.44
3657.41
3657.42
3657.41
3657.39
3657.41
3657.38
3657.42
3657.43
3657.41
3657.42
3657.4
3657.4
3657.4
3657.38
3657.4
3657.37
3657.41
3657.44
3657.41
3657.42
3657.4
3657.4
3657.39
3657.36
3657.37
3657.34
3657.37
3657.49
3657.43
3657.42
3657.4
3657.39
3657.36
3657.32
3657.3
3657.27
3657.29
3657.7
3657.54
3657.46
3657.39
3657.34
3657.28
3657.19
3657.14
3657.1
3657.09
3658.58
3658.18
3657.82
3657.56
3657.28
3657.09
3656.92
3656.81
3656.75
3656.73
3659.94
3659.19
3658.55
3657.93
3657.4
3656.9
3656.41
3656.19
3656.09
3656.04
3658.96
3658.06
3657.68
3657.11
3656.61
3656.01
3655.31
3655.01
3654.9
3654.83
3657.92
3657.17
3657
3656.43
3655.85
3655.03
3654.17
3653.75
3653.6
3653.46
3656.63
3656.42
3656.42
3656.15
3655.29
3654.46
3653.3
3652.74
3652.46
3652.2
3657.1
3657.44
3657.18
3657.43
3655.1
3654.27
3652.5
3651.75
3651.12
3650.71
3657.62
3658.15
3658.3
3658.08
3656.27
3654.47
3652.32
3650.77
3649.69
3648.96
3654.29
3655.34
3651.79
3658.53
3651.24
3652.11
3647.6
3646.82
3645.41
3644.59
3644.14
3644.45
3640.97
3643.24
3642.32
3643.19
3639.66
3639.58
3637.77
3637.13
3637.91
3636.92
3636.68
3635.64
3634.84
3636.09
3630.7
3630.84
3628.48
3627.81
3627.42
3625.58
3627.54
3624.29
3625.33
3626.02
3621.58
3620.49
3618.07
3617.02
3609.29
3606.79
3607.77
3606.26
3607.45
3607.54
3606.55
3604.38
3603.39
3602.04
3589.92
3587.73
3589.82
3588.12
3589.1
3585.75
3589.08
3587.43
3587.37
3585.67
3563.93
3563.68
3566.06
3565.35
3563.99
3562
3565.93
3567.46
3568.11
3566.76
3534.66
3534.88
3532.43
3539.75
3543.35
3547.25
3546.21
3548.78
3549.21
3547.55
3505.51
3505.09
3502.4
3510.11
3516.93
3521.24
3519.59
3520.93
3521.33
3519.78
3478.5
3477.79
3479.8
3479.17
3482.14
3481.61
3481.66
3483.1
3483.96
3482.47
3443.96
3443.37
3445.77
3443.11
3442.37
3440.31
3441.17
3442.84
3444.15
3442.68
3403.98
3402.73
3405.1
3402.38
3401
3398.77
3399.56
3401.69
3403.85
3402.76
3361.9
3359.12
3361.99
3362.43
3363.7
3363.01
3364.16
3366.29
3368.61
3367.34
3328.83
3325.22
3327
3330.27
3333.02
3334
3335.39
3337.4
3339.81
3338.15
3312.81
3311.1
3309.51
3310.48
3309.76
3311.21
3312.89
3314.22
3316.6
3314.37
3302.21
3302.33
3298.34
3295.69
3292.42
3293.95
3295.47
3296.46
3297.89
3294.87
3286.84
3287.67
3282.5
3277.66
3277.73
3278.69
3279.12
3280.11
3278.82
3274.24
3265.2
3266.13
3260.57
3254.36
3255.12
3251.75
3250.64
3252.25
3254.5
3251.81
3234.82
3234.4
3229.82
3229.05
3225.11
3222.07
3224.44
3223.38
3229.71
3228.53
3202.86
3199.85
3195.22
3193.37
3193.22
3191.97
3197.56
3197.04
3202.94
3202.66
3187.33
3185.19
3179.66
3174.48
3174.77
3175.06
3178.67
3179.6
3184.64
3184.38
3184.72
3185.12
3180.77
3171.33
3169.31
3171.16
3171.36
3173.13
3176.91
3176.38
3179.95
3181.96
3179.82
3171.68
3170.16
3172.21
3171.13
3173.41
3176.4
3175.91
3165.7
3167.99
3168.93
3167.91
3174.33
3179.31
3177.98
3178.78
3181.51
3180.25
3136.68
3137.52
3140.04
3153.2
3175.91
3186.3
3185.32
3185.39
3186.96
3184.9
3107.54
3104.47
3102.11
3126.58
3159.27
3168.3
3174.33
3178.65
3178.4
3179.14
3112.99
3113.71
3108.58
3128.04
3155.43
3159.81
3167.14
3170.23
3168.29
3168.98
3135.11
3144.12
3133.89
3147.85
3160.72
3154.71
3160.36
3165.55
3161.43
3158.29
3125.55
3130.32
3123.68
3142.56
3155.33
3147.4
3158.17
3163.61
3155.39
3146.17
3093.46
3099.9
3096.83
3112.64
3136.38
3134.97
3137.4
3134.9
3130.28
3122.93
3049.65
3060.19
3061.45
3068.49
3097.08
3101.39
3102.39
3100.05
3101.81
3098.71
2969.86
2974.5
2982.91
2988.95
3041.11
3061.44
3066.85
3067.61
3071.65
3072.25
2878.03
2876.06
2875.12
2896.09
2986.76
3053.98
3067.98
3068.21
3068.11
3063.94
2822.09
2836.11
2829.78
2838.75
2920.28
3012.79
3065.11
3061.63
3054.25
3038.79
2725.35
2729.44
2764.85
2786.2
2835.15
2910.28
2962.36
2977.64
2968.12
2955.36
2651.51
2648.94
2681.02
2681.71
2741.28
2791.83
2850.68
2865.75
2863.59
2854.64
2476.73
2459.16
2481.42
2498.8
2585.67
2649.56
2720.44
2738.84
2740.02
2740.03
2246.21
2231
2210.25
2260.54
2396.68
2505.39
2621.91
2647.4
2655.17
2649.3
2167.49
2170.1
2171.31
2198.67
2288.26
2390.63
2511.35
2543.48
2568.35
2548.24
2148.92
2154.92
2168.59
2153.79
2182.26
2220.87
2298.81
2339.87
2377.04
2353.99
2001.15
2022.73
1980.66
1930.18
1916.72
1884.2
1902.07
1932.19
1959.42
1953.48
1626.6
1707.19
1566.03
1415.41
1395.99
1314.46
1337.36
1384.28
1458.72
1465.58
768.59
716.645
520.894
479.171
548.932
579.656
644.591
678.035
749.308
790.17
99.1148
206.961
59.2746
-67.5325
1.87665
-7.30533
214.188
323.985
333.472
403.042
)
;
    }
    inlet
    {