/*--------------------------------*- C++ -*----------------------------------*\
  =========                 |
  \\      /  F ield         | OpenFOAM: The Open Source CFD Toolbox
   \\    /   O peration     | Website:  https://openfoam.org
    \\  /    A nd           | Version:  8
     \\/     M anipulation  |
\*---------------------------------------------------------------------------*/
FoamFile
{
    version     2.0;
    format      ascii;
    class       volScalarField;
    location    "800";
    object      T;
}
// * * * * * * * * * * * * * * * * * * * * * * * * * * * * * * * * * * * * * //

dimensions      [0 0 0 1 0 0 0];

internalField   nonuniform List<scalar> 
1200
(
303.143
303.135
303.127
303.119
303.111
303.103
303.096
303.088
303.08
302.976
302.162
301.339
301.075
300.898
300.467
298.794
297.614
297.227
296.939
296.685
296.476
296.308
296.182
296.069
296.04
296.104
296.191
296.265
296.314
296.379
296.504
296.636
296.695
296.702
296.7
296.702
296.708
296.745
296.834
296.937
296.966
296.901
296.876
296.926
297.032
297.126
297.188
297.214
297.233
297.284
297.328
297.566
297.665
297.758
297.813
297.973
297.96
297.945
298.183
298.409
303.15
303.15
303.149
303.149
303.148
303.147
303.146
303.144
303.117
301.335
296.867
294.535
294.632
294.792
294.523
293.715
293.531
293.639
293.828
293.815
294.214
295.16
296.052
296.809
297.451
297.952
298.3
298.53
298.659
298.74
298.864
298.982
299.038
299.105
299.196
299.283
299.338
299.362
299.388
299.436
299.439
299.315
299.121
299.158
299.299
299.186
298.999
298.858
298.705
298.837
299.09
299.467
299.548
299.349
299.211
299.148
298.981
299.514
299.77
299.823
303.15
303.15
303.15
303.15
303.15
303.15
303.15
303.149
303.131
301.582
297.319
294.747
294.114
294.054
293.616
293.326
293.61
295.243
296.244
296.417
297.153
298.726
299.469
299.654
299.755
299.799
299.828
299.846
299.858
299.864
299.863
299.858
299.851
299.845
299.84
299.831
299.82
299.808
299.795
299.779
299.761
299.738
299.726
299.757
299.775
299.713
299.616
299.499
299.311
299.333
299.735
299.861
299.821
299.65
299.406
299.595
299.813
299.955
299.993
299.985
303.15
303.15
303.15
303.15
303.15
303.15
303.15
303.15
303.14
301.9
298.084
295.476
294.499
294.26
293.865
293.388
295.381
299.546
299.688
299.783
299.838
299.865
299.88
299.891
299.9
299.909
299.92
299.928
299.934
299.938
299.94
299.942
299.942
299.941
299.935
299.93
299.929
299.929
299.929
299.928
299.925
299.921
299.923
299.942
299.962
299.971
299.972
299.969
299.961
299.943
299.962
299.972
299.959
299.92
299.851
299.881
299.959
299.995
299.999
299.999
303.15
303.15
303.15
303.15
303.15
303.15
303.15
303.15
303.147
302.586
299.922
297.312
295.955
295.447
295.236
294.046
293.602
295.444
296.254
298.644
299.823
299.862
299.882
299.895
299.906
299.917
299.927
299.935
299.942
299.948
299.953
299.955
299.955
299.954
299.954
299.956
299.958
299.959
299.959
299.96
299.961
299.962
299.962
299.966
299.968
299.969
299.973
299.979
299.987
299.992
299.994
299.996
299.995
299.991
299.98
299.975
299.99
299.999
300
300
303.15
303.15
303.15
303.15
303.15
303.15
303.15
303.15
303.149
302.96
301.588
299.721
298.432
297.71
297.125
296.072
294.89
294.611
294.394
294.986
297.193
298.827
299.679
299.874
299.896
299.909
299.917
299.924
299.929
299.932
299.936
299.941
299.945
299.949
299.952
299.953
299.951
299.946
299.938
299.93
299.928
299.932
299.93
299.92
299.903
299.897
299.904
299.92
299.953
299.982
299.994
299.996
299.996
299.995
299.997
299.995
299.998
300
300
300
303.15
303.15
303.15
303.15
303.15
303.15
303.15
303.15
303.15
303.102
302.598
301.698
300.916
300.353
299.794
298.595
297.116
296.192
295.533
295.231
295.823
296.864
297.95
298.864
299.451
299.714
299.832
299.877
299.894
299.9
299.887
299.878
299.886
299.9
299.911
299.919
299.926
299.929
299.928
299.927
299.928
299.926
299.918
299.89
299.856
299.829
299.796
299.755
299.767
299.868
299.932
299.942
299.935
299.937
299.974
299.989
299.994
299.996
299.999
300
303.15
303.15
303.15
303.15
303.15
303.15
303.15
303.15
303.15
303.14
303.004
302.71
302.4
302.103
301.709
300.817
299.547
298.606
297.824
297.171
296.865
296.871
297.151
297.684
298.253
298.658
298.882
298.971
298.971
298.952
298.968
299.026
299.114
299.234
299.338
299.395
299.433
299.47
299.512
299.554
299.598
299.644
299.687
299.706
299.717
299.656
299.584
299.558
299.586
299.653
299.657
299.653
299.665
299.627
299.674
299.757
299.841
299.89
299.919
299.934
303.15
303.15
303.149
303.149
303.148
303.148
303.148
303.147
303.147
303.145
303.118
303.045
302.959
302.875
302.748
302.378
301.693
300.995
300.339
299.728
299.277
298.932
298.634
298.362
298.25
298.251
298.274
298.273
298.242
298.201
298.174
298.174
298.199
298.253
298.315
298.365
298.415
298.473
298.533
298.591
298.655
298.727
298.788
298.812
298.795
298.779
298.779
298.775
298.794
298.825
298.815
298.808
298.792
298.777
298.783
298.896
299.045
299.165
299.25
299.291
303.143
303.134
303.127
303.119
303.111
303.104
303.097
303.091
303.087
303.085
303.083
303.074
303.06
303.043
303.018
302.94
302.751
302.498
302.208
301.894
301.622
301.39
301.198
300.946
300.635
300.327
300.056
299.839
299.674
299.553
299.463
299.392
299.334
299.275
299.21
299.162
299.134
299.12
299.108
299.091
299.069
299.043
299.017
298.994
298.973
298.952
298.927
298.901
298.871
298.844
298.819
298.795
298.77
298.74
298.704
298.671
298.659
298.66
298.667
298.654
303.143
303.135
303.127
303.119
303.111
303.103
303.096
303.088
303.08
302.979
302.172
301.347
301.098
300.921
300.495
298.821
297.603
297.213
296.923
296.669
296.466
296.306
296.189
296.083
296.054
296.118
296.209
296.285
296.329
296.375
296.483
296.62
296.705
296.736
296.745
296.737
296.725
296.749
296.824
296.913
296.919
296.867
296.866
296.946
297.065
297.151
297.198
297.222
297.24
297.265
297.302
297.499
297.614
297.794
297.854
297.958
297.981
297.969
298.147
298.377
303.15
303.15
303.149
303.149
303.148
303.147
303.146
303.144
303.119
301.375
296.912
294.549
294.637
294.819
294.564
293.751
293.546
293.644
293.831
293.829
294.224
295.171
296.065
296.815
297.448
297.952
298.306
298.541
298.674
298.745
298.845
298.964
299.029
299.101
299.193
299.276
299.324
299.342
299.375
299.429
299.43
299.286
299.096
299.169
299.312
299.176
298.982
298.834
298.692
298.887
299.079
299.43
299.537
299.352
299.216
299.162
299.016
299.496
299.751
299.83
303.15
303.15
303.15
303.15
303.15
303.15
303.15
303.149
303.132
301.638
297.386
294.775
294.122
294.062
293.612
293.323
293.584
295.231
296.192
296.426
297.169
298.736
299.48
299.66
299.756
299.799
299.828
299.846
299.858
299.864
299.862
299.855
299.85
299.844
299.839
299.829
299.818
299.805
299.793
299.778
299.759
299.732
299.715
299.743
299.761
299.699
299.619
299.543
299.3
299.291
299.708
299.861
299.823
299.651
299.405
299.587
299.81
299.959
299.995
299.988
303.15
303.15
303.15
303.15
303.15
303.15
303.15
303.15
303.141
301.953
298.156
295.515
294.515
294.264
293.86
293.379
295.284
299.553
299.689
299.785
299.839
299.866
299.881
299.892
299.901
299.91
299.92
299.928
299.934
299.938
299.94
299.941
299.941
299.94
299.934
299.929
299.928
299.929
299.929
299.928
299.925
299.922
299.924
299.944
299.963
299.971
299.972
299.97
299.963
299.946
299.963
299.973
299.961
299.924
299.853
299.88
299.959
299.996
300
299.999
303.15
303.15
303.15
303.15
303.15
303.15
303.15
303.15
303.147
302.615
299.987
297.362
295.981
295.456
295.237
294.023
293.582
295.388
296.191
298.602
299.824
299.863
299.883
299.896
299.907
299.918
299.927
299.936
299.943
299.948
299.953
299.955
299.955
299.954
299.953
299.955
299.957
299.959
299.959
299.96
299.962
299.962
299.963
299.966
299.968
299.969
299.973
299.979
299.987
299.992
299.994
299.996
299.995
299.991
299.98
299.975
299.99
299.999
300
300
303.15
303.15
303.15
303.15
303.15
303.15
303.15
303.15
303.149
302.972
301.628
299.764
298.46
297.722
297.131
296.066
294.891
294.59
294.366
294.95
297.18
298.832
299.704
299.874
299.897
299.91
299.918
299.925
299.93
299.933
299.937
299.941
299.946
299.95
299.952
299.953
299.951
299.945
299.937
299.93
299.929
299.932
299.93
299.92
299.904
299.897
299.903
299.919
299.951
299.981
299.994
299.996
299.996
299.996
299.997
299.996
299.998
300
300
300
303.15
303.15
303.15
303.15
303.15
303.15
303.15
303.15
303.15
303.106
302.617
301.722
300.933
300.358
299.783
298.562
297.145
296.197
295.535
295.227
295.816
296.864
297.964
298.877
299.461
299.722
299.831
299.876
299.893
299.899
299.884
299.875
299.886
299.901
299.911
299.919
299.926
299.929
299.928
299.927
299.927
299.926
299.919
299.891
299.856
299.829
299.795
299.753
299.763
299.866
299.931
299.942
299.937
299.938
299.974
299.989
299.993
299.996
299.999
300
303.15
303.15
303.15
303.15
303.15
303.15
303.15
303.15
303.15
303.141
303.007
302.719
302.411
302.111
301.705
300.788
299.565
298.638
297.848
297.186
296.869
296.871
297.156
297.691
298.254
298.651
298.868
298.951
298.95
298.936
298.958
299.021
299.114
299.236
299.334
299.389
299.429
299.471
299.515
299.558
299.602
299.649
299.69
299.703
299.712
299.663
299.593
299.559
299.574
299.655
299.65
299.651
299.667
299.629
299.675
299.757
299.84
299.89
299.918
299.933
303.15
303.15
303.149
303.149
303.148
303.148
303.147
303.147
303.147
303.145
303.117
303.045
302.96
302.877
302.752
302.389
301.718
301.02
300.365
299.751
299.295
298.936
298.622
298.347
298.239
298.241
298.262
298.26
298.228
298.188
298.164
298.167
298.193
298.249
298.31
298.36
298.413
298.474
298.536
298.594
298.656
298.727
298.785
298.804
298.785
298.776
298.778
298.774
298.79
298.813
298.8
298.8
298.789
298.774
298.784
298.899
299.047
299.164
299.247
299.285
303.143
303.134
303.127
303.119
303.111
303.104
303.097
303.091
303.087
303.085
303.083
303.074
303.06
303.044
303.019
302.943
302.758
302.505
302.218
301.905
301.633
301.398
301.199
300.937
300.616
300.3
300.027
299.811
299.652
299.537
299.452
299.385
299.33
299.268
299.202
299.157
299.133
299.12
299.107
299.09
299.066
299.039
299.013
298.99
298.969
298.946
298.921
298.893
298.864
298.837
298.812
298.787
298.762
298.733
298.696
298.664
298.654
298.656
298.662
298.647
)
;

boundaryField
{
    wall
    {
        type            zeroGradient;
    }
    inlet
    {
        type            fixedValue;
        value           uniform 303.15;
    }
    outlet
    {
        type            inletOutlet;
        inletValue      uniform 300;
        value           nonuniform List<scalar> 
20
(
298.421
299.826
300
300
300
300
300
299.934
299.289
298.652
298.397
299.833
300
300
300
300
300
299.933
299.283
298.644
)
;
    }
    heatWall
    {
        type            fixedGradient;
        gradient        uniform -500;
    }
}


// ************************************************************************* //
