/*--------------------------------*- C++ -*----------------------------------*\
  =========                 |
  \\      /  F ield         | OpenFOAM: The Open Source CFD Toolbox
   \\    /   O peration     | Website:  https://openfoam.org
    \\  /    A nd           | Version:  8
     \\/     M anipulation  |
\*---------------------------------------------------------------------------*/
FoamFile
{
    version     2.0;
    format      ascii;
    class       volScalarField;
    location    "700";
    object      nut;
}
// * * * * * * * * * * * * * * * * * * * * * * * * * * * * * * * * * * * * * //

dimensions      [0 2 -1 0 0 0 0];

internalField   nonuniform List<scalar> 
1200
(
0.000805074
0.000738668
0.00068341
0.000636783
0.000596971
0.000562633
0.000532737
0.000506507
0.000483339
0.000462774
0.000444443
0.000428017
0.000413225
0.000399856
0.000387724
0.000376677
0.000366574
0.000357287
0.000348726
0.000340806
0.000333478
0.000326715
0.000320479
0.000314739
0.000309521
0.000304708
0.000300213
0.000295978
0.000291975
0.000288197
0.00028464
0.000281289
0.00027816
0.000275883
0.000276128
0.000278051
0.00027835
0.000275602
0.000270346
0.000263663
0.000256464
0.00024936
0.000242803
0.000237085
0.000232293
0.000228358
0.000225158
0.000222571
0.00022052
0.000219233
0.000218559
0.000217963
0.000216789
0.000214685
0.000211864
0.000208911
0.000206457
0.000204829
0.000204087
0.000203631
0.000468116
0.000401987
0.00035124
0.000311289
0.000279145
0.000252787
0.000230774
0.000212175
0.000196308
0.000182639
0.000170734
0.000160277
0.000151023
0.000142776
0.000135288
0.000128417
0.00012215
0.00011649
0.000111357
0.000106681
0.000102399
9.84619e-05
9.48313e-05
9.1472e-05
8.83745e-05
8.56337e-05
8.32445e-05
8.11328e-05
7.92318e-05
7.7459e-05
7.58772e-05
7.48845e-05
7.54382e-05
8.06514e-05
9.1083e-05
0.000100219
0.000104032
0.000103195
9.95868e-05
9.46781e-05
8.93366e-05
8.39825e-05
7.88112e-05
7.39772e-05
6.96061e-05
6.57411e-05
6.23792e-05
5.95967e-05
5.7522e-05
5.58882e-05
5.45663e-05
5.34833e-05
5.25718e-05
5.17671e-05
5.1029e-05
5.03545e-05
4.97837e-05
4.93834e-05
4.929e-05
4.95355e-05
0.000468011
0.000401324
0.000350122
0.000309764
0.000277266
0.000250616
0.000228405
0.000209628
0.000193572
0.000179707
0.000167632
0.000157029
0.00014765
0.000139298
0.000131813
0.000125067
0.000118959
0.000113409
0.000108351
0.000103722
9.94723e-05
9.55558e-05
9.19345e-05
8.85746e-05
8.54488e-05
8.25429e-05
7.98387e-05
7.73141e-05
7.49495e-05
7.27269e-05
7.0641e-05
6.87213e-05
6.70725e-05
6.6293e-05
6.77714e-05
7.09671e-05
7.3564e-05
7.44712e-05
7.38707e-05
7.23032e-05
7.02209e-05
6.78981e-05
6.5486e-05
6.30881e-05
6.07801e-05
5.86145e-05
5.66371e-05
5.48937e-05
5.33594e-05
5.19932e-05
5.07835e-05
4.9711e-05
4.87319e-05
4.77903e-05
4.68619e-05
4.59685e-05
4.51582e-05
4.44611e-05
4.38961e-05
4.34631e-05
0.000468011
0.000401499
0.000350414
0.000310129
0.000277659
0.000251008
0.000228785
0.000209992
0.000193914
0.000180024
0.000167921
0.000157292
0.000147889
0.000139514
0.00013201
0.000125249
0.000119129
0.000113569
0.0001085
0.000103863
9.96062e-05
9.56863e-05
9.20638e-05
8.87051e-05
8.55812e-05
8.26682e-05
7.99434e-05
7.73876e-05
7.49844e-05
7.27206e-05
7.05878e-05
6.85807e-05
6.66949e-05
6.49692e-05
6.36626e-05
6.30305e-05
6.27501e-05
6.23435e-05
6.16122e-05
6.05867e-05
5.93709e-05
5.80567e-05
5.66875e-05
5.53189e-05
5.39864e-05
5.26799e-05
5.13817e-05
5.00717e-05
4.87629e-05
4.74733e-05
4.62181e-05
4.50528e-05
4.40405e-05
4.32259e-05
4.26113e-05
4.21518e-05
4.17829e-05
4.14372e-05
4.10916e-05
4.07001e-05
0.000468011
0.000401501
0.000350383
0.000310069
0.000277576
0.000250909
0.00022868
0.00020989
0.000193819
0.000179938
0.000167845
0.000157224
0.000147827
0.000139456
0.000131956
0.000125197
0.000119081
0.000113526
0.000108464
0.000103837
9.95939e-05
9.56913e-05
9.20885e-05
8.87472e-05
8.56344e-05
8.27225e-05
7.99857e-05
7.74036e-05
7.49609e-05
7.26512e-05
7.04974e-05
6.84769e-05
6.65372e-05
6.47227e-05
6.30511e-05
6.15712e-05
6.02713e-05
5.90675e-05
5.78853e-05
5.66942e-05
5.5498e-05
5.43157e-05
5.31767e-05
5.20898e-05
5.10433e-05
5.00413e-05
4.90818e-05
4.81651e-05
4.72929e-05
4.65031e-05
4.58351e-05
4.52591e-05
4.47328e-05
4.4241e-05
4.37973e-05
4.33993e-05
4.30214e-05
4.26248e-05
4.22e-05
4.17152e-05
0.000468011
0.000401505
0.000350385
0.000310068
0.000277574
0.000250903
0.000228671
0.000209878
0.000193809
0.000179931
0.000167841
0.000157221
0.000147823
0.000139452
0.000131951
0.000125194
0.000119081
0.000113531
0.000108476
0.000103861
9.96373e-05
9.57643e-05
9.22068e-05
8.89339e-05
8.59193e-05
8.31467e-05
8.06115e-05
7.83162e-05
7.62816e-05
7.46259e-05
7.33032e-05
7.20656e-05
7.06742e-05
6.89886e-05
6.71804e-05
6.53926e-05
6.37142e-05
6.21828e-05
6.07932e-05
5.95244e-05
5.83507e-05
5.72476e-05
5.61925e-05
5.5154e-05
5.41283e-05
5.31116e-05
5.21055e-05
5.11475e-05
5.0248e-05
4.94007e-05
4.86027e-05
4.78533e-05
4.71445e-05
4.64837e-05
4.58728e-05
4.52876e-05
4.47043e-05
4.41062e-05
4.34853e-05
4.28291e-05
0.000468011
0.000401516
0.000350429
0.000310145
0.000277674
0.000251016
0.000228794
0.000210006
0.000193934
0.000180048
0.000167946
0.000157316
0.000147909
0.000139529
0.000132019
0.000125253
0.00011913
0.00011357
0.000108511
0.000103899
9.96991e-05
9.59028e-05
9.25286e-05
8.95932e-05
8.70833e-05
8.49722e-05
8.32466e-05
8.19064e-05
8.09391e-05
8.02666e-05
7.96828e-05
7.88853e-05
7.76733e-05
7.59815e-05
7.38332e-05
7.15945e-05
6.94839e-05
6.75601e-05
6.58234e-05
6.42533e-05
6.28333e-05
6.15147e-05
6.02563e-05
5.90316e-05
5.78267e-05
5.66586e-05
5.55301e-05
5.4445e-05
5.34095e-05
5.24241e-05
5.14675e-05
5.05312e-05
4.96181e-05
4.871e-05
4.77744e-05
4.68141e-05
4.58991e-05
4.5055e-05
4.42038e-05
4.32943e-05
0.000468011
0.000401346
0.000350142
0.000309781
0.000277274
0.000250608
0.000228389
0.000209616
0.00019357
0.000179717
0.000167647
0.000157046
0.000147663
0.000139304
0.000131815
0.00012507
0.00011897
0.000113433
0.000108393
0.0001038
9.96282e-05
9.59108e-05
9.27552e-05
9.02861e-05
8.85542e-05
8.75164e-05
8.7024e-05
8.67554e-05
8.63912e-05
8.59674e-05
8.58174e-05
8.56426e-05
8.47937e-05
8.29345e-05
8.01938e-05
7.71431e-05
7.43317e-05
7.18493e-05
6.9828e-05
6.81709e-05
6.66988e-05
6.52998e-05
6.38869e-05
6.23814e-05
6.08717e-05
5.94573e-05
5.81421e-05
5.69218e-05
5.57635e-05
5.45935e-05
5.33969e-05
5.21548e-05
5.08458e-05
4.94511e-05
4.79908e-05
4.67536e-05
4.60639e-05
4.56712e-05
4.50157e-05
4.38504e-05
0.000468115
0.000401963
0.00035116
0.000311154
0.000278953
0.000252553
0.000230563
0.000211968
0.000196048
0.000182287
0.000170297
0.000159765
0.000150424
0.000142056
0.00013451
0.000127685
0.000121528
0.000115953
0.000110881
0.00010625
0.000102011
9.81248e-05
9.45646e-05
9.13026e-05
8.83051e-05
8.57835e-05
8.39643e-05
8.29769e-05
8.28592e-05
8.55896e-05
9.24839e-05
9.82313e-05
0.000100819
0.000100762
9.90606e-05
9.66137e-05
9.44777e-05
9.32451e-05
9.24277e-05
9.14699e-05
9.00661e-05
8.81289e-05
8.56347e-05
8.25385e-05
7.87365e-05
7.44467e-05
7.03112e-05
6.67694e-05
6.36779e-05
6.09392e-05
5.85187e-05
5.64133e-05
5.4641e-05
5.32678e-05
5.24603e-05
5.25009e-05
5.31018e-05
5.26929e-05
5.06972e-05
4.73857e-05
0.000805077
0.000738723
0.00068346
0.000636833
0.000597015
0.00056266
0.000532776
0.000506579
0.000483457
0.000462924
0.000444596
0.000428159
0.000413357
0.000399973
0.000387821
0.000376739
0.000366593
0.000357312
0.000348793
0.00034088
0.00033349
0.00032661
0.000320236
0.000314371
0.000309089
0.000304263
0.000299798
0.000295647
0.000291812
0.000290117
0.000294079
0.000299328
0.000300807
0.000298357
0.000293475
0.000287343
0.000280555
0.000273341
0.000265779
0.000257908
0.000249724
0.000241134
0.00023204
0.000222403
0.000212304
0.000201986
0.000191774
0.000182325
0.000174239
0.000167809
0.000163339
0.000160958
0.000160132
0.000159414
0.00015716
0.000152217
0.000144335
0.000134564
0.000124232
0.000115389
0.00080509
0.000738754
0.000683471
0.000636816
0.000596969
0.000562585
0.000532671
0.000506475
0.000483367
0.000462833
0.000444486
0.000428033
0.000413219
0.000399826
0.000387676
0.00037663
0.000366532
0.000357246
0.000348684
0.000340761
0.000333433
0.000326682
0.000320491
0.000314798
0.000309543
0.000304699
0.000300192
0.000295961
0.000291976
0.000288215
0.000284673
0.000281337
0.000278211
0.000275778
0.000275623
0.00027745
0.000278103
0.000275841
0.000270973
0.000264518
0.0002574
0.000250268
0.000243612
0.000237762
0.000232838
0.000228791
0.000225507
0.000222863
0.000220734
0.000219347
0.000218594
0.000217973
0.000216835
0.000214799
0.000212034
0.000209093
0.000206611
0.000204942
0.00020417
0.000203732
0.000468116
0.00040199
0.000351189
0.000311183
0.000278998
0.000252651
0.000230706
0.000212156
0.000196283
0.000182547
0.000170571
0.000160053
0.000150747
0.000142432
0.000134958
0.00012818
0.000122021
0.000116428
0.000111331
0.00010667
0.000102394
9.84608e-05
9.48318e-05
9.147e-05
8.83802e-05
8.56348e-05
8.32639e-05
8.12122e-05
7.93452e-05
7.74986e-05
7.57651e-05
7.45957e-05
7.48455e-05
7.92882e-05
8.93046e-05
9.89575e-05
0.000103553
0.000103309
0.000100043
9.52971e-05
9.00111e-05
8.46569e-05
7.94545e-05
7.45636e-05
7.01143e-05
6.61574e-05
6.26927e-05
5.97899e-05
5.76212e-05
5.59374e-05
5.45838e-05
5.34785e-05
5.25518e-05
5.1737e-05
5.09914e-05
5.03089e-05
4.97274e-05
4.9311e-05
4.91889e-05
4.93974e-05
0.000468011
0.000401365
0.000350162
0.000309794
0.000277279
0.000250607
0.000228374
0.000209601
0.000193566
0.000179717
0.000167641
0.000157031
0.000147643
0.000139281
0.000131791
0.000125047
0.000118947
0.000113405
0.000108351
0.000103726
9.94774e-05
9.55616e-05
9.1941e-05
8.85829e-05
8.54577e-05
8.25454e-05
7.98346e-05
7.73084e-05
7.49473e-05
7.27255e-05
7.06326e-05
6.86965e-05
6.70069e-05
6.60479e-05
6.71761e-05
7.0253e-05
7.30432e-05
7.42295e-05
7.38537e-05
7.24281e-05
7.04214e-05
6.81324e-05
6.57297e-05
6.3325e-05
6.0997e-05
5.8799e-05
5.67779e-05
5.49863e-05
5.34137e-05
5.2014e-05
5.0775e-05
4.9679e-05
4.8685e-05
4.77373e-05
4.68072e-05
4.59111e-05
4.50946e-05
4.43895e-05
4.38147e-05
4.33719e-05
0.000468011
0.000401528
0.000350442
0.000310152
0.000277674
0.000251009
0.000228769
0.000209979
0.000193918
0.000180041
0.000167941
0.000157306
0.000147895
0.000139512
0.000132002
0.000125241
0.000119124
0.000113568
0.000108502
0.000103867
9.96112e-05
9.56917e-05
9.20699e-05
8.87119e-05
8.55871e-05
8.26714e-05
7.99434e-05
7.73865e-05
7.49838e-05
7.2721e-05
7.05887e-05
6.85816e-05
6.66947e-05
6.49548e-05
6.35835e-05
6.28679e-05
6.25677e-05
6.22048e-05
6.15394e-05
6.05733e-05
5.94013e-05
5.81163e-05
5.67693e-05
5.54098e-05
5.4077e-05
5.27674e-05
5.14654e-05
5.01524e-05
4.88352e-05
4.75389e-05
4.62738e-05
4.50949e-05
4.40654e-05
4.32307e-05
4.25957e-05
4.21195e-05
4.17398e-05
4.13888e-05
4.10415e-05
4.065e-05
0.000468011
0.000401521
0.000350409
0.000310093
0.000277598
0.000250923
0.000228675
0.000209881
0.000193821
0.000179952
0.00016786
0.000157234
0.00014783
0.000139453
0.000131948
0.000125191
0.000119078
0.000113526
0.000108466
0.000103841
9.95996e-05
9.56978e-05
9.20956e-05
8.87538e-05
8.56393e-05
8.27241e-05
7.99834e-05
7.73973e-05
7.49509e-05
7.26374e-05
7.04811e-05
6.84532e-05
6.6513e-05
6.47e-05
6.30304e-05
6.15497e-05
6.02506e-05
5.90528e-05
5.78769e-05
5.66876e-05
5.54899e-05
5.43072e-05
5.31671e-05
5.2081e-05
5.10461e-05
5.00543e-05
4.90958e-05
4.81711e-05
4.7286e-05
4.64728e-05
4.57868e-05
4.52045e-05
4.46832e-05
4.42001e-05
4.37623e-05
4.33668e-05
4.299e-05
4.25945e-05
4.21714e-05
4.16885e-05
0.000468011
0.000401516
0.000350402
0.000310084
0.000277588
0.000250914
0.000228666
0.000209871
0.00019381
0.000179941
0.000167852
0.000157228
0.000147824
0.000139449
0.000131946
0.00012519
0.000119079
0.000113532
0.00010848
0.000103867
9.96446e-05
9.57737e-05
9.22191e-05
8.89505e-05
8.59421e-05
8.31784e-05
8.06551e-05
7.8377e-05
7.63694e-05
7.47553e-05
7.34556e-05
7.22061e-05
7.0768e-05
6.90324e-05
6.72086e-05
6.54135e-05
6.3737e-05
6.22124e-05
6.08311e-05
5.95698e-05
5.84017e-05
5.72981e-05
5.62385e-05
5.51973e-05
5.41679e-05
5.3145e-05
5.21276e-05
5.11458e-05
5.02226e-05
4.93652e-05
4.85648e-05
4.78237e-05
4.71262e-05
4.64734e-05
4.58662e-05
4.52826e-05
4.46998e-05
4.41021e-05
4.34827e-05
4.28281e-05
0.000468011
0.000401523
0.000350446
0.000310163
0.000277694
0.000251037
0.000228799
0.000210004
0.000193938
0.000180059
0.000167958
0.000157323
0.00014791
0.000139526
0.000132013
0.000125247
0.000119127
0.000113571
0.000108514
0.000103905
9.97098e-05
9.59228e-05
9.25663e-05
8.96578e-05
8.71813e-05
8.51058e-05
8.34181e-05
8.21195e-05
8.11969e-05
8.05542e-05
7.99567e-05
7.90992e-05
7.78e-05
7.60108e-05
7.37826e-05
7.15299e-05
6.94214e-05
6.75066e-05
6.57802e-05
6.42206e-05
6.28067e-05
6.14912e-05
6.02325e-05
5.90006e-05
5.7794e-05
5.66258e-05
5.54977e-05
5.44133e-05
5.3376e-05
5.23962e-05
5.14577e-05
5.05375e-05
4.96363e-05
4.87376e-05
4.7811e-05
4.68539e-05
4.5932e-05
4.50818e-05
4.42335e-05
4.3329e-05
0.000468011
0.00040134
0.000350143
0.000309782
0.000277279
0.000250618
0.000228389
0.000209613
0.000193572
0.000179723
0.000167654
0.000157049
0.000147662
0.000139302
0.000131812
0.000125068
0.00011897
0.000113435
0.000108398
0.000103807
9.96416e-05
9.59425e-05
9.28278e-05
9.0427e-05
8.87844e-05
8.78419e-05
8.74273e-05
8.71984e-05
8.68412e-05
8.6425e-05
8.62491e-05
8.59701e-05
8.49555e-05
8.29069e-05
8.002e-05
7.69365e-05
7.41344e-05
7.16809e-05
6.97009e-05
6.80686e-05
6.66033e-05
6.51968e-05
6.37674e-05
6.22407e-05
6.07233e-05
5.93135e-05
5.80079e-05
5.67996e-05
5.56719e-05
5.45759e-05
5.34567e-05
5.22686e-05
5.09889e-05
4.96108e-05
4.81475e-05
4.68648e-05
4.61009e-05
4.56765e-05
4.50442e-05
4.39075e-05
0.000468115
0.00040197
0.000351197
0.000311214
0.000279039
0.000252639
0.000230604
0.000211966
0.000196037
0.000182281
0.000170277
0.000159699
0.00015031
0.000141914
0.000134393
0.000127624
0.000121502
0.000115942
0.000110876
0.000106248
0.000102011
9.81275e-05
9.4572e-05
9.13169e-05
8.83284e-05
8.58167e-05
8.40659e-05
8.31636e-05
8.31757e-05
8.55803e-05
9.17491e-05
9.74408e-05
0.000100325
0.000100541
9.90205e-05
9.66851e-05
9.45335e-05
9.32462e-05
9.24308e-05
9.15262e-05
9.01984e-05
8.83353e-05
8.5904e-05
8.2865e-05
7.91155e-05
7.48281e-05
7.06137e-05
6.70063e-05
6.38673e-05
6.10925e-05
5.86401e-05
5.65038e-05
5.46986e-05
5.32854e-05
5.24247e-05
5.23845e-05
5.30007e-05
5.27117e-05
5.08578e-05
4.76291e-05
0.000805073
0.000738716
0.000683484
0.000636861
0.000597046
0.000562697
0.000532794
0.000506587
0.000483473
0.000462952
0.000444626
0.00042818
0.000413361
0.000399962
0.000387775
0.000376658
0.000366509
0.000357239
0.000348725
0.000340807
0.000333411
0.00032653
0.000320157
0.000314282
0.000308956
0.000304169
0.000299747
0.000295632
0.000291803
0.000289749
0.00029317
0.000298612
0.000300636
0.000298632
0.000294012
0.000288012
0.00028129
0.000274114
0.000266575
0.000258716
0.000250536
0.00024195
0.000232864
0.000223239
0.000213148
0.000202828
0.0001926
0.000183071
0.000174883
0.000168338
0.000163744
0.000161249
0.000160355
0.000159656
0.000157516
0.000152766
0.000145061
0.000135392
0.000125057
0.000116113
)
;

boundaryField
{
    wall
    {
        type            nutkWallFunction;
        Cmu             0.09;
        kappa           0.41;
        E               9.8;
        value           nonuniform List<scalar> 
1200
(
5.1528e-05
4.82506e-05
4.82408e-05
4.82408e-05
4.82408e-05
4.82408e-05
4.82408e-05
4.82408e-05
4.82506e-05
5.15283e-05
4.76453e-05
4.20042e-05
4.19412e-05
4.19578e-05
4.19581e-05
4.19584e-05
4.19595e-05
4.19433e-05
4.2002e-05
4.76486e-05
4.43899e-05
3.71456e-05
3.70379e-05
3.70661e-05
3.70632e-05
3.70633e-05
3.70676e-05
3.704e-05
3.7138e-05
4.43929e-05
4.16238e-05
3.32739e-05
3.31252e-05
3.31609e-05
3.3155e-05
3.3155e-05
3.31624e-05
3.31269e-05
3.32608e-05
4.16268e-05
3.92469e-05
3.01241e-05
2.9939e-05
2.99778e-05
2.99696e-05
2.99694e-05
2.99793e-05
2.99398e-05
3.01052e-05
3.92495e-05
3.71848e-05
2.7515e-05
2.72991e-05
2.73381e-05
2.73283e-05
2.73277e-05
2.7339e-05
2.72983e-05
2.74917e-05
3.71864e-05
3.53798e-05
2.53156e-05
2.50779e-05
2.5116e-05
2.51056e-05
2.51046e-05
2.5117e-05
2.50763e-05
2.52945e-05
3.53821e-05
3.37882e-05
2.34412e-05
2.31835e-05
2.32204e-05
2.321e-05
2.32089e-05
2.32219e-05
2.31823e-05
2.34203e-05
3.37925e-05
3.23758e-05
2.18292e-05
2.15503e-05
2.15852e-05
2.15754e-05
2.15744e-05
2.15872e-05
2.155e-05
2.18027e-05
3.23829e-05
3.11165e-05
2.04301e-05
2.01289e-05
2.01614e-05
2.01526e-05
2.01519e-05
2.01639e-05
2.01299e-05
2.03938e-05
3.11258e-05
2.99896e-05
1.92029e-05
1.88819e-05
1.89119e-05
1.8904e-05
1.89036e-05
1.89145e-05
1.88836e-05
1.91575e-05
2.9999e-05
2.89759e-05
1.8118e-05
1.77795e-05
1.78069e-05
1.77999e-05
1.77996e-05
1.78094e-05
1.77812e-05
1.80641e-05
2.89848e-05
2.80599e-05
1.71518e-05
1.67979e-05
1.68229e-05
1.68165e-05
1.68161e-05
1.68251e-05
1.67993e-05
1.70881e-05
2.80681e-05
2.72292e-05
1.62856e-05
1.59185e-05
1.59411e-05
1.59352e-05
1.59347e-05
1.59429e-05
1.59192e-05
1.62084e-05
2.72366e-05
2.64731e-05
1.54948e-05
1.51257e-05
1.51465e-05
1.51408e-05
1.51403e-05
1.51476e-05
1.51259e-05
1.54107e-05
2.64789e-05
2.57826e-05
1.47647e-05
1.44071e-05
1.44265e-05
1.4421e-05
1.44206e-05
1.44269e-05
1.44074e-05
1.46854e-05
2.57859e-05
2.51493e-05
1.40952e-05
1.3753e-05
1.37713e-05
1.37661e-05
1.37661e-05
1.37713e-05
1.37542e-05
1.40275e-05
2.51494e-05
2.45655e-05
1.34874e-05
1.31556e-05
1.31728e-05
1.31682e-05
1.31688e-05
1.3173e-05
1.31583e-05
1.34289e-05
2.45655e-05
2.4026e-05
1.29337e-05
1.26084e-05
1.26246e-05
1.26207e-05
1.26221e-05
1.26259e-05
1.26132e-05
1.28817e-05
2.40281e-05
2.35258e-05
1.2427e-05
1.21054e-05
1.21207e-05
1.21179e-05
1.21207e-05
1.2125e-05
1.21143e-05
1.23798e-05
2.35278e-05
2.3062e-05
1.19609e-05
1.16414e-05
1.16561e-05
1.16548e-05
1.16599e-05
1.16672e-05
1.16599e-05
1.19183e-05
2.30599e-05
2.26334e-05
1.15305e-05
1.12119e-05
1.12263e-05
1.1227e-05
1.12355e-05
1.12524e-05
1.12552e-05
1.14937e-05
2.2624e-05
2.22374e-05
1.1132e-05
1.0813e-05
1.08274e-05
1.08303e-05
1.08442e-05
1.08836e-05
1.09142e-05
1.11035e-05
2.22198e-05
2.18726e-05
1.0762e-05
1.04414e-05
1.0456e-05
1.04608e-05
1.04831e-05
1.05634e-05
1.06519e-05
1.0745e-05
2.18473e-05
2.15397e-05
1.04223e-05
1.00943e-05
1.01092e-05
1.01149e-05
1.01496e-05
1.02902e-05
1.04736e-05
1.04148e-05
2.15112e-05
2.12318e-05
1.01217e-05
9.77051e-06
9.78447e-06
9.79002e-06
9.84223e-06
1.0061e-05
1.03724e-05
1.01408e-05
2.12025e-05
2.09436e-05
9.86008e-06
9.46807e-06
9.47957e-06
9.48335e-06
9.56082e-06
9.87447e-06
1.03285e-05
9.94834e-06
2.09161e-05
2.06714e-05
9.62874e-06
9.18477e-06
9.19248e-06
9.19283e-06
9.30622e-06
9.73115e-06
1.03036e-05
9.85086e-06
2.0649e-05
2.04136e-05
9.42022e-06
8.91858e-06
8.92154e-06
8.91693e-06
9.08194e-06
9.62936e-06
1.02638e-05
9.86199e-06
2.04065e-05
2.01697e-05
9.22555e-06
8.66764e-06
8.66543e-06
8.65526e-06
8.90146e-06
9.55751e-06
1.02187e-05
1.02467e-05
2.03385e-05
1.99394e-05
9.05586e-06
8.43195e-06
8.42339e-06
8.41046e-06
8.75477e-06
9.48881e-06
1.01999e-05
1.10136e-05
2.06247e-05
1.97221e-05
8.96078e-06
8.21578e-06
8.19498e-06
8.17936e-06
8.61213e-06
9.38953e-06
1.01639e-05
1.15966e-05
2.0931e-05
1.9522e-05
9.0801e-06
8.03597e-06
7.98009e-06
7.95792e-06
8.44709e-06
9.23987e-06
1.0042e-05
1.18348e-05
2.09803e-05
1.93967e-05
9.77777e-06
7.98137e-06
7.78628e-06
7.75072e-06
8.24915e-06
9.03462e-06
9.80472e-06
1.17984e-05
2.07912e-05
1.94432e-05
1.09514e-05
8.19412e-06
7.64749e-06
7.56061e-06
8.04047e-06
8.78278e-06
9.47742e-06
1.15913e-05
2.04607e-05
1.95602e-05
1.18597e-05
8.5568e-06
7.58312e-06
7.39262e-06
7.83524e-06
8.5277e-06
9.13185e-06
1.13125e-05
2.00582e-05
1.95422e-05
1.21728e-05
8.81671e-06
7.54846e-06
7.2435e-06
7.6434e-06
8.28861e-06
8.81715e-06
1.10848e-05
1.96166e-05
1.93258e-05
1.20123e-05
8.88243e-06
7.49288e-06
7.10334e-06
7.46839e-06
8.07088e-06
8.54136e-06
1.09557e-05
1.91481e-05
1.89585e-05
1.15809e-05
8.78812e-06
7.39942e-06
6.96453e-06
7.30926e-06
7.87393e-06
8.31772e-06
1.08629e-05
1.86568e-05
1.85116e-05
1.10258e-05
8.59515e-06
7.27412e-06
6.82443e-06
7.16354e-06
7.69552e-06
8.13155e-06
1.07483e-05
1.81449e-05
1.80408e-05
1.04315e-05
8.35103e-06
7.12914e-06
6.68396e-06
7.02823e-06
7.53315e-06
7.96305e-06
1.05825e-05
1.76113e-05
1.75825e-05
9.83791e-06
8.0833e-06
6.97378e-06
6.54551e-06
6.90064e-06
7.38128e-06
7.8004e-06
1.03582e-05
1.70494e-05
1.71633e-05
9.26465e-06
7.80706e-06
6.81295e-06
6.4126e-06
6.77763e-06
7.23572e-06
7.63437e-06
1.00732e-05
1.64517e-05
1.67995e-05
8.7289e-06
7.53335e-06
6.65298e-06
6.28514e-06
6.65595e-06
7.09338e-06
7.45738e-06
9.72059e-06
1.58155e-05
1.64951e-05
8.2447e-06
7.27077e-06
6.49741e-06
6.16222e-06
6.53549e-06
6.95364e-06
7.28408e-06
9.28957e-06
1.51461e-05
1.62446e-05
7.81667e-06
7.02541e-06
6.3447e-06
6.04483e-06
6.41585e-06
6.81798e-06
7.12168e-06
8.80864e-06
1.44597e-05
1.60398e-05
7.44524e-06
6.80232e-06
6.19244e-06
5.93275e-06
6.29742e-06
6.68671e-06
6.97042e-06
8.35156e-06
1.37786e-05
1.5873e-05
7.14142e-06
6.60547e-06
6.03839e-06
5.82584e-06
6.18444e-06
6.56029e-06
6.82972e-06
7.95649e-06
1.31502e-05
1.57452e-05
6.91081e-06
6.43101e-06
5.88474e-06
5.72434e-06
6.07808e-06
6.43942e-06
6.69518e-06
7.60828e-06
1.26123e-05
1.56685e-05
6.72649e-06
6.27521e-06
5.73268e-06
5.63329e-06
5.97658e-06
6.32392e-06
6.55881e-06
7.29759e-06
1.21856e-05
1.56297e-05
6.57615e-06
6.13674e-06
5.58472e-06
5.55524e-06
5.88052e-06
6.21107e-06
6.41881e-06
7.02181e-06
1.18916e-05
1.5591e-05
6.45226e-06
6.01313e-06
5.44756e-06
5.48615e-06
5.78969e-06
6.10056e-06
6.27275e-06
6.78145e-06
1.17384e-05
1.55089e-05
6.34732e-06
5.89892e-06
5.32898e-06
5.42169e-06
5.70396e-06
5.99241e-06
6.11809e-06
6.57934e-06
1.16869e-05
1.53632e-05
6.25408e-06
5.7877e-06
5.23442e-06
5.36144e-06
5.62475e-06
5.88424e-06
5.95219e-06
6.42443e-06
1.16352e-05
1.51716e-05
6.16823e-06
5.67742e-06
5.16371e-06
5.30775e-06
5.55196e-06
5.77226e-06
5.78074e-06
6.33786e-06
1.14701e-05
1.49748e-05
6.08985e-06
5.57143e-06
5.11086e-06
5.26004e-06
5.48222e-06
5.65803e-06
5.64216e-06
6.35418e-06
1.11136e-05
1.48143e-05
6.02407e-06
5.47567e-06
5.06789e-06
5.21475e-06
5.41258e-06
5.55012e-06
5.57079e-06
6.41805e-06
1.05561e-05
1.47091e-05
5.97924e-06
5.39354e-06
5.02683e-06
5.16698e-06
5.3409e-06
5.44974e-06
5.52673e-06
6.35104e-06
9.87015e-06
1.46612e-05
5.97284e-06
5.32734e-06
4.98518e-06
5.11552e-06
5.26609e-06
5.34706e-06
5.44379e-06
6.09604e-06
9.14861e-06
1.46281e-05
6.00783e-06
5.27686e-06
4.93772e-06
5.05668e-06
5.18688e-06
5.23719e-06
5.29999e-06
5.69343e-06
8.53434e-06
5.15289e-05
4.82506e-05
4.82408e-05
4.82408e-05
4.82408e-05
4.82408e-05
4.82408e-05
4.82408e-05
4.82506e-05
5.1528e-05
4.76504e-05
4.20046e-05
4.19451e-05
4.19606e-05
4.196e-05
4.19595e-05
4.19602e-05
4.19427e-05
4.20027e-05
4.76482e-05
4.43935e-05
3.71407e-05
3.70419e-05
3.70688e-05
3.70656e-05
3.7065e-05
3.70693e-05
3.704e-05
3.71415e-05
4.43942e-05
4.16257e-05
3.32635e-05
3.31282e-05
3.31631e-05
3.31574e-05
3.31565e-05
3.31642e-05
3.3127e-05
3.32666e-05
4.16283e-05
3.92468e-05
3.01096e-05
2.99404e-05
2.99793e-05
2.99718e-05
2.99708e-05
2.99812e-05
2.99403e-05
3.01136e-05
3.92513e-05
3.7182e-05
2.75014e-05
2.72982e-05
2.73383e-05
2.73297e-05
2.73288e-05
2.7341e-05
2.72993e-05
2.75003e-05
3.71886e-05
3.53758e-05
2.53087e-05
2.50748e-05
2.51146e-05
2.51051e-05
2.51042e-05
2.51175e-05
2.50764e-05
2.52986e-05
3.53832e-05
3.37862e-05
2.34393e-05
2.31808e-05
2.32191e-05
2.32091e-05
2.32081e-05
2.32217e-05
2.3182e-05
2.34201e-05
3.3793e-05
3.23775e-05
2.18268e-05
2.15496e-05
2.15855e-05
2.15757e-05
2.15746e-05
2.15876e-05
2.15502e-05
2.18015e-05
3.23839e-05
3.11202e-05
2.04207e-05
2.01299e-05
2.01633e-05
2.0154e-05
2.0153e-05
2.01651e-05
2.01305e-05
2.03931e-05
3.11275e-05
2.99922e-05
1.9186e-05
1.88829e-05
1.8914e-05
1.89056e-05
1.89047e-05
1.89158e-05
1.88842e-05
1.91552e-05
3.00009e-05
2.89769e-05
1.80944e-05
1.77797e-05
1.78084e-05
1.78009e-05
1.78002e-05
1.78102e-05
1.77815e-05
1.80569e-05
2.8986e-05
2.80595e-05
1.71226e-05
1.67972e-05
1.68236e-05
1.68168e-05
1.68162e-05
1.68253e-05
1.67993e-05
1.70758e-05
2.80683e-05
2.72273e-05
1.6249e-05
1.59167e-05
1.5941e-05
1.59348e-05
1.59344e-05
1.59425e-05
1.59189e-05
1.61932e-05
2.72357e-05
2.647e-05
1.54591e-05
1.51233e-05
1.51457e-05
1.514e-05
1.51398e-05
1.51469e-05
1.51256e-05
1.53983e-05
2.64758e-05
2.57796e-05
1.47388e-05
1.4405e-05
1.44256e-05
1.44203e-05
1.44202e-05
1.44264e-05
1.44073e-05
1.4679e-05
2.57805e-05
2.51466e-05
1.40809e-05
1.37517e-05
1.37707e-05
1.37657e-05
1.3766e-05
1.37711e-05
1.37542e-05
1.40248e-05
2.51439e-05
2.4563e-05
1.34805e-05
1.31551e-05
1.31727e-05
1.31682e-05
1.31689e-05
1.31732e-05
1.31585e-05
1.34278e-05
2.45608e-05
2.40234e-05
1.29308e-05
1.26085e-05
1.26248e-05
1.2621e-05
1.26225e-05
1.26263e-05
1.26137e-05
1.28812e-05
2.40237e-05
2.3523e-05
1.24258e-05
1.21058e-05
1.21211e-05
1.21184e-05
1.21214e-05
1.21257e-05
1.21151e-05
1.23796e-05
2.35231e-05
2.30592e-05
1.19604e-05
1.16419e-05
1.16566e-05
1.16555e-05
1.16607e-05
1.16684e-05
1.16615e-05
1.19183e-05
2.30549e-05
2.26313e-05
1.15304e-05
1.12125e-05
1.12269e-05
1.12277e-05
1.12366e-05
1.12548e-05
1.12591e-05
1.14941e-05
2.2619e-05
2.22383e-05
1.11321e-05
1.08138e-05
1.08281e-05
1.08311e-05
1.08457e-05
1.08882e-05
1.09231e-05
1.11044e-05
2.2215e-05
2.18762e-05
1.07626e-05
1.04424e-05
1.04568e-05
1.04615e-05
1.04851e-05
1.05712e-05
1.06691e-05
1.07468e-05
2.18418e-05
2.15409e-05
1.04229e-05
1.00953e-05
1.01099e-05
1.01154e-05
1.01523e-05
1.03019e-05
1.05012e-05
1.04178e-05
2.15028e-05
2.12312e-05
1.01212e-05
9.7708e-06
9.78483e-06
9.7901e-06
9.84611e-06
1.00768e-05
1.04108e-05
1.01454e-05
2.11966e-05
2.09423e-05
9.86096e-06
9.46764e-06
9.47956e-06
9.48298e-06
9.56619e-06
9.89464e-06
1.03752e-05
9.96065e-06
2.0913e-05
2.06704e-05
9.63583e-06
9.18417e-06
9.19235e-06
9.19199e-06
9.31373e-06
9.7561e-06
1.03539e-05
9.87305e-06
2.06482e-05
2.04138e-05
9.43077e-06
8.91836e-06
8.92145e-06
8.91566e-06
9.09284e-06
9.65926e-06
1.03145e-05
9.89823e-06
2.04047e-05
2.01711e-05
9.2277e-06
8.6674e-06
8.66544e-06
8.65356e-06
8.91707e-06
9.59003e-06
1.02696e-05
1.02346e-05
2.03088e-05
1.99419e-05
9.04076e-06
8.43072e-06
8.42341e-06
8.4084e-06
8.77242e-06
9.51864e-06
1.0246e-05
1.09297e-05
2.05654e-05
1.97255e-05
8.92521e-06
8.21237e-06
8.19496e-06
8.1764e-06
8.62774e-06
9.41169e-06
1.01966e-05
1.15138e-05
2.08899e-05
1.95247e-05
9.0024e-06
8.02637e-06
7.97984e-06
7.95515e-06
8.45698e-06
9.25167e-06
1.00549e-05
1.17843e-05
2.09744e-05
1.93854e-05
9.61215e-06
7.94662e-06
7.78367e-06
7.7483e-06
8.25423e-06
9.03507e-06
9.79654e-06
1.17762e-05
2.08122e-05
1.94071e-05
1.07603e-05
8.12139e-06
7.63655e-06
7.55849e-06
8.04359e-06
8.7763e-06
9.45496e-06
1.15891e-05
2.0497e-05
1.95241e-05
1.17368e-05
8.47807e-06
7.56352e-06
7.39043e-06
7.83768e-06
8.51987e-06
9.10765e-06
1.1321e-05
2.01021e-05
1.95323e-05
1.21337e-05
8.76347e-06
7.52808e-06
7.24149e-06
7.64622e-06
8.28126e-06
8.79477e-06
1.10901e-05
1.96644e-05
1.93469e-05
1.20329e-05
8.86034e-06
7.47827e-06
7.1021e-06
7.47208e-06
8.0647e-06
8.52299e-06
1.09557e-05
1.91983e-05
1.9003e-05
1.1635e-05
8.78971e-06
7.39233e-06
6.96402e-06
7.31394e-06
7.86898e-06
8.30391e-06
1.0864e-05
1.87085e-05
1.85688e-05
1.10955e-05
8.61125e-06
7.27351e-06
6.82414e-06
7.1691e-06
7.69179e-06
8.12016e-06
1.07558e-05
1.81973e-05
1.81019e-05
1.05063e-05
8.37471e-06
7.13316e-06
6.68358e-06
7.03444e-06
7.53012e-06
7.95207e-06
1.05984e-05
1.76642e-05
1.76408e-05
9.91241e-06
8.1103e-06
6.98113e-06
6.54518e-06
6.90674e-06
7.37863e-06
7.78829e-06
1.03821e-05
1.71026e-05
1.72147e-05
9.33556e-06
7.83485e-06
6.82252e-06
6.41227e-06
6.78318e-06
7.23304e-06
7.62016e-06
1.01039e-05
1.65058e-05
1.68424e-05
8.79326e-06
7.56015e-06
6.66343e-06
6.2849e-06
6.66121e-06
7.08998e-06
7.44118e-06
9.75785e-06
1.58706e-05
1.65296e-05
8.30014e-06
7.29502e-06
6.5078e-06
6.16289e-06
6.54014e-06
6.95012e-06
7.26733e-06
9.33208e-06
1.52021e-05
1.62721e-05
7.86171e-06
7.04564e-06
6.35474e-06
6.04606e-06
6.41967e-06
6.81444e-06
7.10552e-06
8.8507e-06
1.45159e-05
1.60622e-05
7.47857e-06
6.81729e-06
6.20211e-06
5.93354e-06
6.29992e-06
6.6832e-06
6.95535e-06
8.38479e-06
1.38337e-05
1.58919e-05
7.16081e-06
6.61503e-06
6.04768e-06
5.82541e-06
6.18425e-06
6.5568e-06
6.81598e-06
7.98267e-06
1.32e-05
1.57583e-05
6.92109e-06
6.43626e-06
5.89306e-06
5.72223e-06
6.07529e-06
6.43566e-06
6.68525e-06
7.62939e-06
1.26554e-05
1.56749e-05
6.73156e-06
6.27664e-06
5.74023e-06
5.62857e-06
5.97281e-06
6.32085e-06
6.55742e-06
7.31473e-06
1.2221e-05
1.56312e-05
6.57776e-06
6.13485e-06
5.5911e-06
5.54883e-06
5.8767e-06
6.21004e-06
6.42614e-06
7.03537e-06
1.19186e-05
1.55914e-05
6.4514e-06
6.00865e-06
5.45233e-06
5.47952e-06
5.7869e-06
6.10129e-06
6.28609e-06
6.79143e-06
1.17577e-05
1.55123e-05
6.34477e-06
5.89292e-06
5.33167e-06
5.41599e-06
5.70235e-06
5.99444e-06
6.13472e-06
6.58548e-06
1.1702e-05
1.53714e-05
6.25039e-06
5.78117e-06
5.23459e-06
5.3568e-06
5.62378e-06
5.88732e-06
5.97083e-06
6.42582e-06
1.16521e-05
1.51835e-05
6.16366e-06
5.67076e-06
5.16135e-06
5.30364e-06
5.55114e-06
5.77636e-06
5.79866e-06
6.3328e-06
1.14954e-05
1.49874e-05
6.08434e-06
5.56442e-06
5.10648e-06
5.25604e-06
5.48142e-06
5.66237e-06
5.65396e-06
6.33975e-06
1.11527e-05
1.48249e-05
6.01726e-06
5.46788e-06
5.06224e-06
5.21075e-06
5.41177e-06
5.55364e-06
5.57394e-06
6.40747e-06
1.06071e-05
1.47171e-05
5.97046e-06
5.38474e-06
5.02061e-06
5.16306e-06
5.34015e-06
5.45277e-06
5.52705e-06
6.35512e-06
9.92812e-06
1.46676e-05
5.96044e-06
5.31734e-06
4.97882e-06
5.11183e-06
5.26558e-06
5.3506e-06
5.44743e-06
6.11652e-06
9.20623e-06
1.4636e-05
5.99081e-06
5.26565e-06
4.93141e-06
5.05328e-06
5.18663e-06
5.24136e-06
5.3071e-06
5.72311e-06
8.5848e-06
)
;
    }
    inlet
    {
        type            calculated;
        value           uniform 0.0381026;
    }
    outlet
    {
        type            calculated;
        value           nonuniform List<scalar> 
20
(
0.000203631
4.95355e-05
4.34631e-05
4.07001e-05
4.17152e-05
4.28291e-05
4.32943e-05
4.38504e-05
4.73857e-05
0.000115389
0.000203732
4.93974e-05
4.33719e-05
4.065e-05
4.16885e-05
4.28281e-05
4.3329e-05
4.39075e-05
4.76291e-05
0.000116113
)
;
    }
    heatWall
    {
        type            nutkWallFunction;