/*--------------------------------*- C++ -*----------------------------------*\
  =========                 |
  \\      /  F ield         | OpenFOAM: The Open Source CFD Toolbox
   \\    /   O peration     | Website:  https://openfoam.org
    \\  /    A nd           | Version:  8
     \\/     M anipulation  |
\*---------------------------------------------------------------------------*/
FoamFile
{
    version     2.0;
    format      ascii;
    class       volScalarField;
    location    "700";
    object      T;
}
// * * * * * * * * * * * * * * * * * * * * * * * * * * * * * * * * * * * * * //

dimensions      [0 0 0 1 0 0 0];

internalField   nonuniform List<scalar> 
1200
(
303.15
303.15
303.151
303.146
303.141
303.137
303.133
303.129
303.125
303.122
303.119
303.115
303.112
303.109
303.106
303.103
303.101
303.098
303.095
303.093
303.091
303.088
303.086
303.083
303.081
303.079
303.077
303.075
303.073
303.07
303.067
303.043
302.863
302.168
300.926
299.815
299.193
298.937
298.858
298.844
298.841
298.827
298.791
298.731
298.643
298.529
298.389
298.223
298.034
297.828
297.624
297.443
297.295
297.171
297.041
296.88
296.668
296.413
296.122
295.852
303.15
303.15
303.15
303.15
303.15
303.15
303.15
303.149
303.149
303.149
303.149
303.149
303.149
303.149
303.148
303.148
303.148
303.148
303.148
303.148
303.148
303.148
303.148
303.148
303.148
303.148
303.148
303.147
303.147
303.146
303.145
303.135
303.045
302.652
301.915
301.291
301.036
301.045
301.166
301.311
301.445
301.557
301.645
301.705
301.735
301.731
301.69
301.61
301.498
301.375
301.264
301.185
301.148
301.144
301.147
301.124
301.04
300.866
300.577
300.198
303.15
303.15
303.15
303.15
303.15
303.15
303.15
303.15
303.15
303.15
303.15
303.15
303.15
303.15
303.15
303.15
303.15
303.15
303.15
303.15
303.15
303.15
303.15
303.15
303.15
303.15
303.15
303.151
303.15
303.15
303.15
303.15
303.142
303.079
302.887
302.62
302.399
302.267
302.203
302.179
302.171
302.17
302.17
302.168
302.165
302.164
302.174
302.201
302.248
302.309
302.372
302.43
302.482
302.524
302.555
302.569
302.568
302.554
302.529
302.489
303.15
303.15
303.15
303.15
303.15
303.15
303.15
303.15
303.15
303.15
303.15
303.15
303.15
303.15
303.15
303.15
303.15
303.15
303.15
303.15
303.15
303.15
303.15
303.15
303.15
303.15
303.151
303.151
303.151
303.151
303.151
303.151
303.15
303.145
303.115
303.053
302.982
302.924
302.887
302.868
302.861
302.864
302.874
302.885
302.896
302.906
302.917
302.931
302.941
302.944
302.934
302.912
302.879
302.834
302.771
302.686
302.582
302.476
302.388
302.343
303.15
303.15
303.15
303.15
303.15
303.15
303.15
303.15
303.15
303.15
303.15
303.15
303.15
303.15
303.15
303.15
303.15
303.15
303.15
303.15
303.15
303.15
303.149
303.149
303.148
303.147
303.145
303.143
303.14
303.137
303.131
303.128
303.127
303.126
303.123
303.116
303.103
303.091
303.081
303.075
303.072
303.071
303.071
303.071
303.071
303.069
303.067
303.065
303.062
303.057
303.047
303.024
302.978
302.892
302.749
302.544
302.287
302.018
301.773
301.615
303.15
303.15
303.15
303.15
303.15
303.15
303.15
303.15
303.15
303.15
303.15
303.15
303.15
303.15
303.15
303.15
303.149
303.149
303.149
303.149
303.146
303.139
303.126
303.106
303.082
303.055
303.027
302.998
302.964
302.914
302.865
302.847
302.866
302.909
302.949
302.979
303
303.015
303.025
303.033
303.038
303.041
303.042
303.043
303.044
303.044
303.044
303.044
303.043
303.04
303.024
302.979
302.881
302.697
302.401
301.995
301.499
300.98
300.501
300.174
303.15
303.15
303.15
303.15
303.15
303.15
303.15
303.15
303.15
303.15
303.15
303.15
303.15
303.15
303.15
303.15
303.149
303.149
303.148
303.143
303.125
303.081
303.002
302.893
302.767
302.633
302.49
302.331
302.151
301.97
301.841
301.808
301.889
302.072
302.302
302.477
302.591
302.656
302.678
302.652
302.582
302.501
302.436
302.404
302.39
302.379
302.373
302.371
302.37
302.361
302.34
302.267
302.086
301.762
301.277
300.635
299.846
299.01
298.252
297.748
303.15
303.15
303.15
303.15
303.15
303.15
303.15
303.15
303.15
303.15
303.15
303.15
303.15
303.15
303.15
303.149
303.149
303.149
303.148
303.138
303.101
303.004
302.816
302.526
302.151
301.716
301.266
300.865
300.565
300.367
300.192
299.977
299.749
299.568
299.475
299.445
299.38
299.251
299.077
298.897
298.744
298.619
298.521
298.448
298.42
298.438
298.481
298.533
298.579
298.606
298.599
298.563
298.494
298.37
298.133
297.675
297.021
296.395
295.95
295.721
303.15
303.15
303.15
303.15
303.15
303.15
303.15
303.15
303.15
303.149
303.149
303.149
303.149
303.149
303.149
303.149
303.148
303.148
303.148
303.148
303.143
303.127
303.093
303.039
302.973
302.909
302.857
302.82
302.797
302.708
302.364
301.842
301.246
300.682
300.225
299.871
299.583
299.34
299.136
298.977
298.861
298.789
298.76
298.777
298.836
298.923
298.996
299.037
299.054
299.052
299.037
298.997
298.867
298.505
297.798
296.865
295.993
295.368
294.989
294.782
303.15
303.15
303.151
303.151
303.146
303.142
303.138
303.134
303.13
303.127
303.123
303.12
303.117
303.114
303.111
303.108
303.105
303.103
303.1
303.098
303.096
303.094
303.091
303.088
303.085
303.082
303.079
303.061
302.804
301.524
299.556
298.254
297.699
297.483
297.345
297.183
296.962
296.68
296.354
296.009
295.679
295.39
295.175
295.052
295.01
295.023
295.059
295.083
295.078
295.048
295.003
294.971
294.987
295.057
295.16
295.269
295.364
295.445
295.544
295.685
303.15
303.15
303.151
303.146
303.141
303.137
303.133
303.129
303.125
303.122
303.119
303.115
303.112
303.109
303.106
303.103
303.1
303.098
303.095
303.093
303.091
303.088
303.086
303.084
303.081
303.079
303.077
303.075
303.073
303.07
303.067
303.049
302.909
302.322
301.151
299.991
299.288
298.978
298.872
298.847
298.842
298.829
298.796
298.737
298.653
298.541
298.402
298.238
298.052
297.848
297.645
297.463
297.314
297.189
297.062
296.906
296.701
296.452
296.163
295.892
303.15
303.15
303.15
303.15
303.15
303.15
303.15
303.149
303.149
303.149
303.149
303.149
303.149
303.149
303.149
303.148
303.148
303.148
303.148
303.148
303.148
303.148
303.148
303.148
303.148
303.148
303.148
303.147
303.147
303.146
303.146
303.138
303.068
302.735
302.037
301.373
301.061
301.037
301.144
301.287
301.422
301.538
301.629
301.694
301.728
301.729
301.693
301.617
301.509
301.387
301.276
301.195
301.156
301.149
301.152
301.133
301.055
300.89
300.612
300.243
303.15
303.15
303.15
303.15
303.15
303.15
303.15
303.15
303.15
303.15
303.15
303.15
303.15
303.15
303.15
303.15
303.15
303.15
303.15
303.15
303.15
303.15
303.15
303.15
303.15
303.15
303.15
303.15
303.15
303.15
303.15
303.15
303.144
303.095
302.925
302.663
302.43
302.282
302.208
302.178
302.169
302.168
302.168
302.168
302.165
302.164
302.172
302.197
302.242
302.302
302.366
302.426
302.478
302.521
302.553
302.568
302.568
302.555
302.53
302.494
303.15
303.15
303.15
303.15
303.15
303.15
303.15
303.15
303.15
303.15
303.15
303.15
303.15
303.15
303.15
303.15
303.15
303.15
303.15
303.15
303.15
303.15
303.15
303.15
303.151
303.151
303.151
303.151
303.151
303.151
303.151
303.151
303.151
303.146
303.121
303.064
302.993
302.933
302.892
302.869
302.86
302.86
302.869
302.88
302.891
302.901
302.913
302.927
302.939
302.943
302.936
302.916
302.884
302.841
302.779
302.696
302.592
302.484
302.391
302.342
303.15
303.15
303.15
303.15
303.15
303.15
303.15
303.15
303.15
303.15
303.15
303.15
303.15
303.15
303.15
303.15
303.15
303.15
303.15
303.15
303.15
303.15
303.149
303.149
303.148
303.146
303.145
303.142
303.14
303.136
303.13
303.127
303.126
303.125
303.122
303.115
303.103
303.09
303.079
303.073
303.071
303.071
303.07
303.07
303.07
303.069
303.067
303.065
303.062
303.059
303.049
303.029
302.986
302.906
302.77
302.57
302.316
302.044
301.792
301.625
303.15
303.15
303.15
303.15
303.15
303.15
303.15
303.15
303.15
303.15
303.15
303.15
303.15
303.15
303.15
303.15
303.149
303.149
303.149
303.149
303.146
303.138
303.124
303.103
303.078
303.05
303.022
302.993
302.959
302.908
302.863
302.851
302.876
302.92
302.958
302.986
303.006
303.019
303.029
303.036
303.04
303.043
303.044
303.044
303.044
303.044
303.044
303.044
303.043
303.041
303.027
302.987
302.897
302.725
302.444
302.049
301.557
301.035
300.544
300.205
303.15
303.15
303.15
303.15
303.15
303.15
303.15
303.15
303.15
303.15
303.15
303.15
303.15
303.15
303.15
303.15
303.149
303.149
303.148
303.143
303.123
303.075
302.992
302.88
302.752
302.617
302.473
302.312
302.13
301.954
301.837
301.823
301.924
302.125
302.352
302.513
302.615
302.67
302.682
302.645
302.569
302.487
302.425
302.398
302.382
302.371
302.364
302.362
302.363
302.359
302.346
302.286
302.123
301.821
301.355
300.725
299.943
299.105
298.332
297.804
303.15
303.15
303.15
303.15
303.15
303.15
303.15
303.15
303.15
303.15
303.15
303.15
303.15
303.15
303.15
303.149
303.149
303.149
303.147
303.137
303.096
302.992
302.793
302.492
302.105
301.661
301.207
300.809
300.517
300.321
300.139
299.919
299.697
299.531
299.457
299.429
299.353
299.212
299.031
298.852
298.701
298.579
298.484
298.417
298.4
298.426
298.474
298.531
298.583
298.615
298.612
298.579
298.516
298.403
298.182
297.747
297.101
296.459
295.989
295.741
303.15
303.15
303.15
303.15
303.15
303.15
303.15
303.15
303.15
303.15
303.149
303.149
303.149
303.149
303.149
303.149
303.148
303.148
303.148
303.148
303.142
303.125
303.087
303.029
302.959
302.892
302.838
302.801
302.779
302.715
302.421
301.931
301.346
300.773
300.296
299.923
299.623
299.37
299.158
298.989
298.866
298.786
298.752
298.763
298.82
298.906
298.984
299.03
299.049
299.05
299.036
298.999
298.88
298.541
297.863
296.945
296.06
295.415
295.017
294.798
303.15
303.15
303.151
303.151
303.146
303.142
303.138
303.134
303.13
303.127
303.123
303.12
303.117
303.114
303.111
303.108
303.105
303.103
303.1
303.098
303.096
303.094
303.091
303.088
303.085
303.082
303.079
303.066
302.864
301.746
299.802
298.391
297.754
297.503
297.357
297.196
296.979
296.702
296.379
296.036
295.704
295.412
295.191
295.06
295.013
295.023
295.058
295.084
295.083
295.055
295.012
294.98
294.992
295.057
295.157
295.264
295.36
295.441
295.54
295.679
)
;

boundaryField
{
    wall
    {
        type            zeroGradient;
    }
    inlet
    {
        type            fixedValue;
        value           uniform 303.15;
    }
    outlet
    {
        type            inletOutlet;
        inletValue      uniform 300;
        value           nonuniform List<scalar> 
20
(
295.838
300.183
302.487
302.343
301.612
300.165
297.73
295.715
294.777
295.687
295.879
300.228
302.492
302.342
301.622
300.194
297.785
295.734
294.793
295.681
)
;
    }
    heatWall
    {
        type            fixedGradient;
        gradient        uniform -500;
    }
}


// ************************************************************************* //
