/*--------------------------------*- C++ -*----------------------------------*\
  =========                 |
  \\      /  F ield         | OpenFOAM: The Open Source CFD Toolbox
   \\    /   O peration     | Website:  https://openfoam.org
    \\  /    A nd           | Version:  8
     \\/     M anipulation  |
\*---------------------------------------------------------------------------*/
FoamFile
{
    version     2.0;
    format      ascii;
    class       volVectorField;
    location    "700";
    object      U;
}
// * * * * * * * * * * * * * * * * * * * * * * * * * * * * * * * * * * * * * //

dimensions      [0 1 -1 0 0 0 0];

internalField   nonuniform List<vector> 
1200
(
(16.0182 -1.17817 -0.0628071)
(16.1195 -0.892098 0.188366)
(16.143 -0.730104 0.325517)
(16.1333 -0.620492 0.389502)
(16.1209 -0.545509 0.356201)
(16.1061 -0.499312 0.123105)
(16.0813 -0.464026 -0.230475)
(16.0513 -0.432685 -0.406107)
(16.0239 -0.406393 -0.16929)
(16.0112 -0.381696 0.218147)
(16.0096 -0.358937 0.416701)
(16.0065 -0.341534 0.402271)
(16.002 -0.329206 0.290598)
(16.0017 -0.321538 0.0920434)
(16.0022 -0.317604 -0.235034)
(15.9973 -0.3143 -0.69116)
(15.9876 -0.307268 -1.19977)
(15.9777 -0.295728 -1.64943)
(15.9732 -0.282239 -1.84307)
(15.9758 -0.269283 -1.70509)
(15.9824 -0.257695 -1.43344)
(15.987 -0.247729 -1.0658)
(15.986 -0.241082 -0.478193)
(15.9885 -0.235514 0.381463)
(16.0139 -0.227584 1.21018)
(16.0434 -0.220016 1.5531)
(16.0514 -0.213191 1.46497)
(16.0308 -0.208353 1.24085)
(15.9902 -0.204591 1.30812)
(15.9536 -0.200887 1.6573)
(15.9347 -0.193449 2.10621)
(15.9239 -0.177736 2.56049)
(15.8907 -0.147359 3.05458)
(15.9894 -0.062906 3.9811)
(16.5264 0.0802278 5.74558)
(17.1306 0.21374 7.72078)
(17.2698 0.306052 8.94845)
(16.9334 0.357041 9.29548)
(16.3374 0.378921 9.09428)
(15.6685 0.386313 8.71423)
(15.0315 0.38943 8.42056)
(14.4729 0.391442 8.37522)
(14.0124 0.388432 8.5017)
(13.6476 0.378982 8.68513)
(13.3628 0.364124 8.90876)
(13.1413 0.343089 9.2402)
(12.9794 0.313392 9.74685)
(12.8872 0.275402 10.3191)
(12.8624 0.236013 10.8345)
(12.8978 0.203993 11.3355)
(12.9958 0.184325 11.7994)
(13.1503 0.177459 12.1545)
(13.3603 0.17548 12.3321)
(13.627 0.166745 12.2648)
(13.9668 0.145488 12.046)
(14.3697 0.116718 11.6386)
(14.8109 0.0895514 11.2073)
(15.215 0.0744157 10.5768)
(15.5097 0.0733446 10.342)
(15.7599 0.0928218 9.5799)
(16.0259 0.415837 -0.0253901)
(16.0082 0.536735 0.109195)
(16.0017 0.530473 0.181806)
(15.9965 0.503733 0.214577)
(15.9978 0.47368 0.183783)
(16.0064 0.444154 -0.000824513)
(16.0094 0.422202 -0.298729)
(16.003 0.40294 -0.458474)
(15.9982 0.388258 -0.244779)
(16.0078 0.375489 0.113877)
(16.0291 0.360951 0.303692)
(16.0486 0.348532 0.297171)
(16.0673 0.338292 0.201147)
(16.091 0.329447 0.0163788)
(16.1141 0.319852 -0.303154)
(16.129 0.308989 -0.77093)
(16.1361 0.296424 -1.33345)
(16.1423 0.281538 -1.88967)
(16.1562 0.265177 -2.22348)
(16.1795 0.249751 -2.22673)
(16.2079 0.236951 -2.07798)
(16.2357 0.228808 -1.80659)
(16.2605 0.22624 -1.27432)
(16.2838 0.229445 -0.428904)
(16.3232 0.233998 0.419329)
(16.3698 0.238818 0.823531)
(16.3975 0.246115 0.821691)
(16.3958 0.251044 0.698227)
(16.372 0.250643 0.87319)
(16.352 0.240633 1.32711)
(16.3508 0.230948 1.8823)
(16.3547 0.238872 2.47334)
(16.3242 0.277819 3.1457)
(16.3952 0.410486 4.23151)
(16.9613 0.589653 6.19802)
(17.8635 0.622175 8.65638)
(18.5814 0.517945 10.6117)
(18.9618 0.364953 11.7145)
(19.0886 0.217544 12.1543)
(19.0657 0.096746 12.2346)
(18.9594 0.00451377 12.2014)
(18.806 -0.0655034 12.2276)
(18.6258 -0.122801 12.3066)
(18.4247 -0.169658 12.3865)
(18.2024 -0.205402 12.484)
(17.9596 -0.231416 12.6722)
(17.7049 -0.251709 13.0019)
(17.458 -0.267687 13.3879)
(17.2499 -0.286362 13.7608)
(17.1203 -0.311527 14.1699)
(17.093 -0.341937 14.5744)
(17.1552 -0.374554 14.8697)
(17.2775 -0.408031 14.9577)
(17.4396 -0.441897 14.7834)
(17.6642 -0.471379 14.4718)
(17.9803 -0.483756 14.0749)
(18.4073 -0.464146 13.8024)
(18.8876 -0.406632 13.5466)
(19.3359 -0.325844 13.7187)
(19.7495 -0.278504 13.3978)
(15.9532 -0.0815198 -0.0386122)
(15.9133 -0.170136 0.12277)
(15.9174 -0.240698 0.264757)
(15.9357 -0.277227 0.347695)
(15.958 -0.29447 0.351664)
(15.9803 -0.303359 0.194189)
(15.9914 -0.307316 -0.147085)
(15.9921 -0.30475 -0.399299)
(15.9946 -0.298724 -0.248379)
(16.0072 -0.294405 0.0962863)
(16.0318 -0.294726 0.2878)
(16.0562 -0.293708 0.27444)
(16.0786 -0.291234 0.167446)
(16.1034 -0.289346 -0.0314426)
(16.1256 -0.292539 -0.374435)
(16.1408 -0.298372 -0.879673)
(16.1502 -0.30287 -1.49929)
(16.16 -0.304971 -2.13533)
(16.1779 -0.304646 -2.56159)
(16.2049 -0.301658 -2.65239)
(16.2366 -0.296026 -2.57589)
(16.2683 -0.286943 -2.36272)
(16.2984 -0.274662 -1.8798)
(16.3293 -0.259968 -1.07127)
(16.3719 -0.242804 -0.245065)
(16.4235 -0.223411 0.141466)
(16.455 -0.199692 0.104884)
(16.4542 -0.176492 -0.0567399)
(16.4329 -0.15634 0.0621465)
(16.4185 -0.147099 0.430747)
(16.4355 -0.131795 0.870537)
(16.4759 -0.0802129 1.31056)
(16.5065 0.0172351 1.72175)
(16.5625 0.214758 2.15561)
(16.8272 0.503409 2.79226)
(17.3241 0.678482 3.65901)
(17.8122 0.684345 4.42941)
(18.1271 0.594387 4.89426)
(18.255 0.480507 5.09187)
(18.2443 0.384518 5.15811)
(18.1451 0.321588 5.22773)
(17.9847 0.290927 5.40639)
(17.7714 0.279357 5.64188)
(17.5072 0.278794 5.85267)
(17.1978 0.282644 6.06702)
(16.8541 0.278585 6.37815)
(16.4947 0.25476 6.83398)
(16.1441 0.205896 7.34558)
(15.8248 0.134826 7.82568)
(15.5737 0.0520245 8.33458)
(15.4367 -0.0281348 8.85116)
(15.4253 -0.0896246 9.2829)
(15.5069 -0.134927 9.5148)
(15.6335 -0.184845 9.45474)
(15.8079 -0.253726 9.19351)
(16.0607 -0.325142 8.74662)
(16.4285 -0.362573 8.30985)
(16.8791 -0.332926 7.79877)
(17.3508 -0.254816 7.63797)
(17.9358 -0.116061 7.25335)
(15.9898 -0.00544745 -0.0436625)
(15.9792 0.0481421 0.0309103)
(15.992 0.104799 0.0723954)
(16.0067 0.151374 0.0663693)
(16.0186 0.184021 0.0275425)
(16.0313 0.199936 -0.0861112)
(16.0383 0.214296 -0.351222)
(16.0358 0.234473 -0.558524)
(16.033 0.252967 -0.437626)
(16.0412 0.267424 -0.154426)
(16.0611 0.276797 -0.000787515)
(16.0817 0.281349 -0.0339661)
(16.0996 0.28386 -0.152083)
(16.1184 0.284504 -0.357388)
(16.1365 0.282901 -0.705717)
(16.1507 0.276651 -1.23413)
(16.161 0.264329 -1.92198)
(16.1727 0.246056 -2.68005)
(16.1933 0.224745 -3.26491)
(16.2236 0.205099 -3.51934)
(16.259 0.190446 -3.59033)
(16.2956 0.184192 -3.50693)
(16.3321 0.187331 -3.14044)
(16.3692 0.197582 -2.42006)
(16.4089 0.211164 -1.61665)
(16.4429 0.224968 -1.18446)
(16.4535 0.239444 -1.14155)
(16.4415 0.247907 -1.2191)
(16.4175 0.245791 -1.05811)
(16.4066 0.219645 -0.710638)
(16.4361 0.195538 -0.329624)
(16.4963 0.214943 0.0585452)
(16.5563 0.281198 0.457544)
(16.6276 0.419189 0.845979)
(16.7973 0.604715 1.23531)
(17.0949 0.687319 1.61858)
(17.4154 0.6172 1.8716)
(17.6623 0.456965 1.94668)
(17.811 0.271733 1.92266)
(17.879 0.103383 1.90605)
(17.8933 -0.0287566 1.99472)
(17.8695 -0.121034 2.26861)
(17.8112 -0.176089 2.64853)
(17.7154 -0.197104 3.03366)
(17.5696 -0.188037 3.44388)
(17.364 -0.159439 3.9561)
(17.0969 -0.13221 4.59706)
(16.7624 -0.131921 5.25087)
(16.3407 -0.173572 5.85173)
(15.8471 -0.262567 6.44544)
(15.362 -0.379993 6.99809)
(14.9767 -0.499227 7.44458)
(14.7507 -0.601535 7.68781)
(14.6982 -0.692588 7.64844)
(14.8303 -0.78829 7.44629)
(15.1359 -0.876681 7.10651)
(15.5847 -0.92285 6.82509)
(16.0753 -0.884708 6.47667)
(16.5291 -0.801939 6.43945)
(16.963 -0.575587 6.0019)
(15.9892 -0.00289571 -0.0552451)
(15.9741 0.00062957 -0.0361294)
(15.9755 -0.0148921 -0.0140956)
(15.9841 -0.0435598 -0.0169145)
(15.9939 -0.0777357 -0.0310428)
(16.0075 -0.11633 -0.0844398)
(16.0186 -0.151607 -0.330952)
(16.0215 -0.179794 -0.589541)
(16.0248 -0.198099 -0.553504)
(16.0365 -0.210062 -0.328183)
(16.0568 -0.222731 -0.181288)
(16.0777 -0.236121 -0.204628)
(16.0962 -0.246829 -0.329152)
(16.1142 -0.255562 -0.570047)
(16.1303 -0.265457 -0.988622)
(16.1428 -0.277187 -1.62973)
(16.1535 -0.289317 -2.49203)
(16.168 -0.300901 -3.49163)
(16.1946 -0.310252 -4.35954)
(16.2329 -0.315258 -4.89777)
(16.2781 -0.315232 -5.22957)
(16.3262 -0.309244 -5.38337)
(16.3718 -0.298224 -5.23705)
(16.4095 -0.285186 -4.70206)
(16.4343 -0.272061 -4.0006)
(16.4367 -0.256489 -3.57197)
(16.4069 -0.228144 -3.48833)
(16.3493 -0.19437 -3.50666)
(16.2717 -0.162096 -3.30154)
(16.2124 -0.166959 -2.93487)
(16.2267 -0.183782 -2.54873)
(16.2902 -0.155465 -2.12376)
(16.3587 -0.0657145 -1.68442)
(16.4518 0.0881357 -1.3115)
(16.6097 0.292865 -1.00073)
(16.8404 0.434881 -0.764845)
(17.0879 0.454767 -0.68594)
(17.2946 0.393153 -0.77626)
(17.439 0.30119 -0.943803)
(17.5308 0.215701 -1.09249)
(17.5903 0.154425 -1.11943)
(17.632 0.119347 -0.914021)
(17.6586 0.11024 -0.534168)
(17.666 0.127051 -0.111362)
(17.6309 0.164433 0.340776)
(17.5405 0.208377 0.895664)
(17.4088 0.246501 1.55899)
(17.2556 0.263885 2.19631)
(17.0798 0.248351 2.73682)
(16.8966 0.177387 3.28563)
(16.7249 0.0638086 3.87502)
(16.5836 -0.0746545 4.45992)
(16.4938 -0.233325 4.94721)
(16.4715 -0.420406 5.23415)
(16.5517 -0.634151 5.39571)
(16.7573 -0.824947 5.43614)
(17.0887 -0.924932 5.53157)
(17.4554 -0.878204 5.54019)
(17.7987 -0.75266 5.78664)
(18.0596 -0.452541 5.53977)
(15.9897 0.00635859 -0.0666485)
(15.9746 0.0149944 -0.103065)
(15.9749 0.0354044 -0.121748)
(15.9826 0.0655583 -0.165131)
(15.991 0.0978112 -0.2127)
(16.0033 0.12594 -0.256621)
(16.0147 0.155212 -0.491955)
(16.0193 0.186071 -0.778268)
(16.0251 0.213302 -0.81409)
(16.0382 0.232679 -0.656858)
(16.0578 0.243776 -0.536459)
(16.0775 0.250954 -0.561734)
(16.0949 0.258139 -0.700915)
(16.1116 0.264164 -0.978879)
(16.1275 0.266425 -1.46006)
(16.1419 0.263106 -2.20128)
(16.1561 0.253118 -3.22648)
(16.1753 0.236125 -4.46673)
(16.208 0.214597 -5.63795)
(16.2541 0.193587 -6.50988)
(16.3093 0.178208 -7.18089)
(16.3691 0.173646 -7.67077)
(16.4258 0.180627 -7.8579)
(16.473 0.193319 -7.64084)
(16.5068 0.20547 -7.1795)
(16.5257 0.216786 -6.85589)
(16.536 0.230583 -6.77449)
(16.5615 0.234124 -6.74572)
(16.6324 0.214094 -6.5478)
(16.8339 0.129738 -6.308)
(17.1974 0.0303992 -6.04166)
(17.6168 0.0165099 -5.67277)
(17.959 0.0934292 -5.17239)
(18.1819 0.23275 -4.5815)
(18.3469 0.384487 -4.00927)
(18.4953 0.465969 -3.5371)
(18.65 0.432037 -3.24583)
(18.8072 0.326605 -3.13378)
(18.9549 0.199967 -3.10249)
(19.0894 0.0862028 -3.06211)
(19.2109 -0.00110381 -2.92026)
(19.3157 -0.0627798 -2.58225)
(19.3925 -0.0973811 -2.13522)
(19.4263 -0.099809 -1.67958)
(19.4091 -0.0870893 -1.2044)
(19.3387 -0.0786584 -0.648688)
(19.2267 -0.0845988 -0.00337641)
(19.0819 -0.103682 0.667893)
(18.9097 -0.153773 1.30907)
(18.6941 -0.240486 2.01176)
(18.4469 -0.352146 2.73372)
(18.1955 -0.469908 3.39834)
(17.9835 -0.593012 3.92473)
(17.8447 -0.73789 4.25904)
(17.8111 -0.914861 4.52979)
(17.8949 -1.08641 4.77825)
(18.0908 -1.19432 5.19163)
(18.2998 -1.16979 5.57764)
(18.492 -1.07508 6.21363)
(18.5211 -0.761539 6.18194)
(15.9922 0.00721975 -0.0741336)
(15.9829 -0.0361978 -0.143474)
(15.9934 -0.0854694 -0.158966)
(16.0071 -0.128229 -0.185706)
(16.0161 -0.163507 -0.205187)
(16.0272 -0.193222 -0.187927)
(16.0386 -0.218408 -0.34423)
(16.0411 -0.237105 -0.575946)
(16.0411 -0.247369 -0.617098)
(16.0478 -0.252699 -0.490007)
(16.0629 -0.258422 -0.378169)
(16.0811 -0.265008 -0.392131)
(16.0981 -0.269145 -0.534468)
(16.1133 -0.271057 -0.835746)
(16.1257 -0.27209 -1.36308)
(16.1352 -0.272318 -2.19102)
(16.1441 -0.271603 -3.37322)
(16.1602 -0.270239 -4.85463)
(16.1949 -0.268518 -6.33563)
(16.2503 -0.266774 -7.5592)
(16.3229 -0.264153 -8.59967)
(16.4085 -0.256975 -9.43888)
(16.5015 -0.243395 -9.91276)
(16.6017 -0.228875 -9.90897)
(16.7126 -0.219598 -9.56788)
(16.8404 -0.214589 -9.23319)
(16.9958 -0.207425 -9.0771)
(17.1969 -0.202328 -8.96932)
(17.4493 -0.217114 -8.69808)
(17.7909 -0.325697 -8.30975)
(18.2657 -0.473175 -7.90129)
(18.7941 -0.51756 -7.47668)
(19.2709 -0.455929 -7.03686)
(19.6516 -0.306687 -6.56947)
(19.9075 -0.0830289 -6.06394)
(20.0814 0.108221 -5.62156)
(20.2308 0.179974 -5.32005)
(20.3787 0.174482 -5.16325)
(20.5149 0.135554 -5.06518)
(20.6315 0.0949948 -4.94814)
(20.7244 0.0686175 -4.72424)
(20.7881 0.0611534 -4.28747)
(20.8216 0.0770079 -3.73781)
(20.8162 0.122965 -3.17548)
(20.7587 0.179567 -2.59981)
(20.6533 0.229091 -1.99231)
(20.5171 0.262077 -1.35645)
(20.365 0.283155 -0.744531)
(20.1983 0.285568 -0.174731)
(19.994 0.256024 0.44464)
(19.7472 0.177794 1.12251)
(19.4708 0.0477002 1.82477)
(19.1851 -0.140378 2.50201)
(18.8997 -0.386188 3.12322)
(18.6275 -0.677847 3.86024)
(18.3923 -0.923166 4.79851)
(18.2398 -1.02607 6.11224)
(18.1164 -0.929842 7.39223)
(18.0527 -0.755892 8.76791)
(17.8535 -0.403393 9.07482)
(15.9566 0.0849214 -0.0891316)
(15.9195 0.179292 -0.26363)
(15.9206 0.249192 -0.387292)
(15.9346 0.287132 -0.528296)
(15.9497 0.304289 -0.648552)
(15.9668 0.308593 -0.674531)
(15.9825 0.306903 -0.873573)
(15.9934 0.303368 -1.17267)
(16.0061 0.300522 -1.29742)
(16.0232 0.297661 -1.2369)
(16.0429 0.293146 -1.14703)
(16.0621 0.287646 -1.1486)
(16.0793 0.28372 -1.28025)
(16.0954 0.281416 -1.57428)
(16.1115 0.280127 -2.08648)
(16.128 0.279648 -2.88408)
(16.1458 0.279737 -4.01795)
(16.1698 0.280196 -5.41838)
(16.2083 0.281051 -6.76899)
(16.2616 0.281297 -7.81382)
(16.3259 0.277055 -8.66287)
(16.3966 0.264193 -9.34117)
(16.4657 0.242703 -9.71591)
(16.5314 0.215485 -9.70825)
(16.6035 0.185134 -9.43635)
(16.6996 0.155694 -9.17248)
(16.8366 0.12822 -9.04146)
(17.0144 0.083637 -8.83044)
(17.1863 -0.0115409 -8.33723)
(17.3961 -0.220518 -7.77249)
(17.7926 -0.417659 -7.37818)
(18.3607 -0.446047 -7.21814)
(18.9849 -0.358875 -7.26668)
(19.6182 -0.212586 -7.41315)
(20.1656 -0.024985 -7.44205)
(20.5292 0.102075 -7.17902)
(20.7701 0.103325 -6.79537)
(20.9462 0.0304229 -6.43339)
(21.0414 -0.0640067 -6.01207)
(21.0675 -0.148599 -5.54093)
(21.0451 -0.210027 -4.99998)
(20.9975 -0.246888 -4.30572)
(20.9449 -0.254618 -3.58693)
(20.8927 -0.219003 -2.95269)
(20.8082 -0.154439 -2.32269)
(20.686 -0.0951524 -1.675)
(20.5435 -0.0640766 -1.0167)
(20.3929 -0.0544059 -0.391983)
(20.2076 -0.055792 0.216211)
(19.9455 -0.0673046 0.925964)
(19.6123 -0.091885 1.73805)
(19.2127 -0.133726 2.62278)
(18.7537 -0.19551 3.54351)
(18.2239 -0.269529 4.46052)
(17.6261 -0.34728 5.58814)
(17.0661 -0.43896 7.05568)
(16.7289 -0.545788 8.96461)
(16.564 -0.613234 10.6384)
(16.5501 -0.676003 12.1895)
(16.3199 -0.493917 12.4006)
(16.0286 -0.417071 -0.0553629)
(16.0098 -0.528491 -0.148158)
(15.999 -0.523014 -0.182478)
(15.993 -0.496978 -0.250955)
(15.9892 -0.466796 -0.312572)
(15.9926 -0.43913 -0.285209)
(16.0008 -0.412719 -0.418103)
(16.0033 -0.386752 -0.649383)
(16.0046 -0.363171 -0.741202)
(16.0113 -0.344131 -0.673295)
(16.0245 -0.330365 -0.569607)
(16.0414 -0.320161 -0.541314)
(16.0584 -0.310486 -0.644282)
(16.074 -0.300488 -0.909126)
(16.0871 -0.289859 -1.3845)
(16.0976 -0.277368 -2.13528)
(16.1066 -0.261724 -3.20823)
(16.1211 -0.242293 -4.50454)
(16.1514 -0.219274 -5.65737)
(16.1959 -0.194269 -6.36191)
(16.2466 -0.170015 -6.72848)
(16.2974 -0.149856 -6.81772)
(16.3415 -0.135312 -6.55294)
(16.3753 -0.126137 -5.88435)
(16.3988 -0.123916 -4.91446)
(16.4134 -0.130921 -3.86161)
(16.411 -0.144869 -2.86742)
(16.3907 -0.167219 -1.88149)
(16.3155 -0.199944 -0.810623)
(16.2159 -0.3405 0.395338)
(16.3451 -0.523143 1.86633)
(16.6659 -0.535767 3.47829)
(16.9657 -0.435521 5.03414)
(17.2645 -0.285001 6.3609)
(17.5298 -0.132778 7.2954)
(17.7231 -0.0235111 7.80384)
(17.8682 0.0216743 8.13775)
(17.9476 0.0198964 8.39361)
(17.9316 0.0128625 8.5108)
(17.8162 0.0214947 8.53955)
(17.6231 0.0483898 8.57304)
(17.3913 0.0866412 8.77596)
(17.1648 0.136739 9.00962)
(16.9543 0.197001 9.13679)
(16.7806 0.256673 9.12801)
(16.6412 0.309119 9.06885)
(16.4951 0.349305 9.04852)
(16.3181 0.381379 9.02017)
(16.1162 0.423247 8.94194)
(15.9187 0.481186 8.90873)
(15.77 0.535317 8.97609)
(15.6954 0.556223 9.19567)
(15.707 0.522046 9.62732)
(15.8114 0.422432 10.3982)
(16.0278 0.253935 11.7689)
(16.2114 0.0305476 13.502)
(16.1458 -0.199011 15.2659)
(15.6864 -0.32637 16.317)
(15.0895 -0.358453 17.1038)
(14.1823 -0.153074 16.5425)
(16.0247 1.17443 -0.108202)
(16.1282 0.900684 -0.278348)
(16.145 0.747605 -0.34202)
(16.132 0.64081 -0.437265)
(16.1135 0.56172 -0.512759)
(16.0963 0.502985 -0.467901)
(16.08 0.455417 -0.574131)
(16.0596 0.414994 -0.76785)
(16.0398 0.382618 -0.814085)
(16.0244 0.358154 -0.694021)
(16.0141 0.339509 -0.52881)
(16.0073 0.324724 -0.432029)
(16.0015 0.31278 -0.465113)
(15.9958 0.302581 -0.645945)
(15.9902 0.293009 -1.00151)
(15.9851 0.283147 -1.57191)
(15.9805 0.272403 -2.37709)
(15.9795 0.260375 -3.29774)
(15.9882 0.24682 -3.97992)
(16.0048 0.231755 -4.16041)
(16.0242 0.215196 -3.99928)
(16.0418 0.197086 -3.5871)
(16.053 0.178104 -2.87308)
(16.0564 0.159142 -1.83465)
(16.0563 0.141683 -0.595825)
(16.063 0.119719 0.60509)
(16.0545 0.0880815 1.5863)
(16.011 0.046854 2.44593)
(15.8585 -0.0204518 3.44258)
(15.9373 -0.217092 5.41852)
(16.7755 -0.331219 9.052)
(17.6358 -0.238394 12.6568)
(17.9859 -0.123082 14.9365)
(17.944 -0.0896966 15.9963)
(17.6854 -0.130077 16.3234)
(17.3187 -0.192661 16.2678)
(16.8876 -0.258145 15.9939)
(16.3554 -0.329197 15.5665)
(15.7014 -0.393371 15.074)
(14.9645 -0.442175 14.5917)
(14.1905 -0.47735 14.2217)
(13.4173 -0.504542 14.1842)
(12.6775 -0.522489 14.3015)
(11.9747 -0.52105 14.3778)
(11.3357 -0.479663 14.3844)
(10.8192 -0.403314 14.3276)
(10.4681 -0.325259 14.2295)
(10.2558 -0.277677 14.0614)
(10.1426 -0.257917 13.8828)
(10.1292 -0.261341 13.9093)
(10.2231 -0.282054 14.2244)
(10.4107 -0.30336 14.8668)
(10.6705 -0.295823 15.7103)
(10.9402 -0.234956 16.421)
(11.1452 -0.129205 16.919)
(11.1644 -0.029258 16.9845)
(10.9316 -0.014922 16.9682)
(10.3103 -0.0678938 16.6046)
(9.65644 -0.160563 16.7457)
(8.64637 -0.217231 15.668)
(16.0294 -1.17296 -0.0707038)
(16.1333 -0.904414 0.178823)
(16.1452 -0.752449 0.31658)
(16.1286 -0.647425 0.381583)
(16.108 -0.571938 0.349065)
(16.0855 -0.51766 0.116224)
(16.0701 -0.466598 -0.236188)
(16.0643 -0.424094 -0.410315)
(16.0545 -0.397315 -0.173239)
(16.0315 -0.381139 0.214008)
(16.009 -0.366328 0.412761)
(15.995 -0.352842 0.398324)
(15.9871 -0.341269 0.286514)
(15.9816 -0.331766 0.0879466)
(15.9785 -0.320579 -0.237811)
(15.9788 -0.307222 -0.691487)
(15.9804 -0.29295 -1.19794)
(15.9837 -0.27846 -1.64642)
(15.9901 -0.264446 -1.83948)
(15.9948 -0.251575 -1.70107)
(15.9975 -0.239841 -1.42933)
(16.0034 -0.22934 -1.0622)
(16.0121 -0.221257 -0.47579)
(16.0127 -0.220925 0.380757)
(16.0115 -0.225798 1.20617)
(16.0211 -0.226013 1.54714)
(16.0291 -0.221774 1.4583)
(16.0266 -0.216486 1.23499)
(16.0067 -0.212648 1.3036)
(15.9749 -0.211474 1.65346)
(15.9519 -0.207944 2.10171)
(15.939 -0.195168 2.55224)
(15.9072 -0.168259 3.02137)
(15.9716 -0.0947837 3.84454)
(16.4501 0.0404205 5.47269)
(17.072 0.176755 7.43924)
(17.2822 0.276544 8.75956)
(17.0079 0.334378 9.20546)
(16.4445 0.360953 9.07072)
(15.7828 0.37094 8.72487)
(15.1377 0.375281 8.44355)
(14.5624 0.378266 8.39814)
(14.0813 0.376577 8.5204)
(13.6967 0.368272 8.70018)
(13.3954 0.354311 8.92192)
(13.1605 0.334097 9.25275)
(12.9865 0.305198 9.75892)
(12.8827 0.267525 10.3309)
(12.8503 0.227542 10.8482)
(12.8791 0.194701 11.3512)
(12.971 0.173627 11.8158)
(13.121 0.165117 12.1697)
(13.3284 0.162145 12.3449)
(13.594 0.153524 12.2753)
(13.933 0.133014 12.0554)
(14.3371 0.104799 11.6483)
(14.783 0.0776426 11.2185)
(15.2008 0.0622637 10.5916)
(15.5068 0.0594016 10.3556)
(15.7855 0.075498 9.59885)
(16.0316 0.418554 -0.0177689)
(16.0161 0.529904 0.119791)
(16.0035 0.52586 0.192814)
(15.9934 0.502443 0.224751)
(15.9866 0.476976 0.19288)
(15.9847 0.455581 0.00819367)
(15.9938 0.432129 -0.291091)
(16.0105 0.403166 -0.452441)
(16.025 0.380124 -0.23979)
(16.0297 0.364141 0.117711)
(16.0317 0.351762 0.306156)
(16.0393 0.341858 0.298413)
(16.0521 0.333718 0.201466)
(16.0666 0.325508 0.0163555)
(16.0836 0.315059 -0.302494)
(16.1019 0.301595 -0.768731)
(16.1204 0.284801 -1.32941)
(16.1417 0.265627 -1.88401)
(16.1686 0.246745 -2.21643)
(16.1958 0.230932 -2.21834)
(16.2218 0.21946 -2.06874)
(16.2518 0.213412 -1.79733)
(16.2853 0.213197 -1.26598)
(16.3143 0.218711 -0.423549)
(16.3292 0.22977 0.417488)
(16.347 0.242103 0.816117)
(16.3672 0.25367 0.810773)
(16.383 0.261989 0.685832)
(16.3847 0.26231 0.859978)
(16.373 0.24925 1.31249)
(16.3694 0.234853 1.86525)
(16.3727 0.238707 2.45097)
(16.3467 0.271387 3.10144)
(16.3894 0.386429 4.10372)
(16.8838 0.565769 5.94357)
(17.7614 0.620235 8.36984)
(18.5072 0.534389 10.3949)
(18.9227 0.389121 11.591)
(19.0734 0.242426 12.106)
(19.0643 0.119273 12.237)
(18.9663 0.0239936 12.2348)
(18.8179 -0.0484407 12.2782)
(18.64 -0.107434 12.3653)
(18.4403 -0.156238 12.448)
(18.2195 -0.194123 12.5455)
(17.9777 -0.222191 12.7329)
(17.7226 -0.244727 13.0618)
(17.4729 -0.262414 13.4461)
(17.2571 -0.281058 13.8146)
(17.1158 -0.305308 14.2184)
(17.0748 -0.33512 14.6189)
(17.126 -0.367666 14.9128)
(17.2422 -0.401358 15.0015)
(17.4013 -0.435544 14.8275)
(17.6221 -0.465885 14.5125)
(17.9331 -0.48031 14.1061)
(18.3552 -0.464078 13.8191)
(18.8389 -0.409402 13.5495)
(19.2929 -0.332237 13.7104)
(19.7308 -0.280998 13.3988)
(15.9607 -0.0836878 -0.0418631)
(15.9263 -0.177782 0.11678)
(15.9239 -0.249394 0.257766)
(15.9352 -0.287251 0.340648)
(15.9486 -0.302669 0.344799)
(15.959 -0.302106 0.187005)
(15.9703 -0.3018 -0.154261)
(15.9949 -0.304354 -0.404998)
(16.0207 -0.307496 -0.253475)
(16.0317 -0.310236 0.0905101)
(16.0369 -0.310737 0.282092)
(16.0483 -0.309003 0.26887)
(16.064 -0.306291 0.161853)
(16.0791 -0.304939 -0.0370737)
(16.0954 -0.306016 -0.378573)
(16.1141 -0.309679 -0.88126)
(16.1347 -0.314524 -1.49825)
(16.159 -0.318295 -2.13259)
(16.1893 -0.319013 -2.55797)
(16.22 -0.315638 -2.64811)
(16.2495 -0.308256 -2.5714)
(16.2827 -0.297271 -2.35872)
(16.3189 -0.284232 -1.87687)
(16.351 -0.269512 -1.06987)
(16.3713 -0.249019 -0.245435)
(16.384 -0.220388 0.140265)
(16.3942 -0.187583 0.103336)
(16.4037 -0.155727 -0.0577168)
(16.4104 -0.13492 0.0622036)
(16.4149 -0.137892 0.43042)
(16.4375 -0.138386 0.868386)
(16.4791 -0.0989769 1.30606)
(16.512 -0.0107018 1.71261)
(16.562 0.168547 2.12545)
(16.7991 0.445838 2.7184)
(17.2734 0.633502 3.55675)
(17.7681 0.662047 4.34008)
(18.1084 0.589361 4.84324)
(18.2642 0.484038 5.08216)
(18.2756 0.390153 5.18148)
(18.1918 0.326228 5.27399)
(18.041 0.294691 5.46723)
(17.8328 0.283317 5.71097)
(17.572 0.282841 5.92399)
(17.2645 0.287164 6.13492)
(16.9186 0.284252 6.43809)
(16.5515 0.261476 6.8831)
(16.1898 0.213544 7.38609)
(15.8581 0.143055 7.86316)
(15.5903 0.0606048 8.36931)
(15.4312 -0.0212441 8.88309)
(15.3982 -0.086091 9.31374)
(15.4652 -0.134019 9.54763)
(15.5858 -0.184115 9.49156)
(15.7572 -0.252005 9.23371)
(16.0065 -0.324318 8.78711)
(16.3696 -0.366219 8.34737)
(16.8201 -0.342098 7.83109)
(17.2879 -0.27183 7.66032)
(17.8784 -0.131257 7.26684)
(15.9946 -0.00686762 -0.0432071)
(15.9871 0.0331352 0.0321451)
(15.9954 0.0815491 0.0742472)
(16.0064 0.124821 0.0684216)
(16.0139 0.161101 0.0297076)
(16.0179 0.192875 -0.0834761)
(16.0251 0.218584 -0.348683)
(16.0403 0.237679 -0.556627)
(16.0544 0.246407 -0.436477)
(16.0607 0.251591 -0.154225)
(16.0645 0.259499 -0.00124653)
(16.0724 0.266923 -0.0349486)
(16.0844 0.271925 -0.153494)
(16.0979 0.273044 -0.359089)
(16.1128 0.270034 -0.707443)
(16.1295 0.260962 -1.23564)
(16.1481 0.244845 -1.92326)
(16.1717 0.223699 -2.68143)
(16.2031 0.201784 -3.26639)
(16.2365 0.183692 -3.52042)
(16.27 0.172153 -3.59103)
(16.3076 0.169008 -3.50762)
(16.3479 0.173817 -3.14123)
(16.3841 0.185147 -2.42036)
(16.408 0.204032 -1.61516)
(16.4187 0.22979 -1.17819)
(16.4223 0.254092 -1.13269)
(16.4241 0.267423 -1.20877)
(16.4164 0.263314 -1.04732)
(16.4109 0.231027 -0.700832)
(16.44 0.203457 -0.321079)
(16.5001 0.223186 0.0643329)
(16.5599 0.286968 0.458599)
(16.6284 0.415088 0.839254)
(16.7885 0.590699 1.21721)
(17.0737 0.675618 1.59197)
(17.3915 0.617594 1.84763)
(17.649 0.46865 1.93532)
(17.8153 0.289709 1.92763)
(17.9014 0.122494 1.92604)
(17.931 -0.0110664 2.02637)
(17.9159 -0.104648 2.31093)
(17.8579 -0.161501 2.69861)
(17.7609 -0.185213 3.08671)
(17.6169 -0.177838 3.49585)
(17.414 -0.150723 4.00643)
(17.1481 -0.124573 4.64577)
(16.8168 -0.123417 5.29902)
(16.4037 -0.162107 5.90034)
(15.9141 -0.247217 6.49961)
(15.4215 -0.362762 7.05223)
(15.0201 -0.483623 7.49456)
(14.7757 -0.589456 7.73474)
(14.7072 -0.682843 7.6952)
(14.8249 -0.778889 7.49304)
(15.1191 -0.868297 7.15075)
(15.5611 -0.918106 6.86486)
(16.0553 -0.884957 6.51248)
(16.5115 -0.808524 6.47175)
(16.9601 -0.588519 6.03541)
(15.9926 -0.0051442 -0.055259)
(15.9806 -0.0124217 -0.0364914)
(15.9804 -0.0320234 -0.0149989)
(15.9869 -0.0618462 -0.0183666)
(15.9943 -0.0938669 -0.0329137)
(15.9983 -0.121873 -0.0863359)
(16.0043 -0.151978 -0.33269)
(16.0218 -0.185911 -0.59106)
(16.0419 -0.215172 -0.555085)
(16.0541 -0.234459 -0.330288)
(16.0611 -0.245481 -0.183753)
(16.07 -0.253013 -0.207146)
(16.0818 -0.260863 -0.331609)
(16.0942 -0.270278 -0.572501)
(16.1074 -0.281952 -0.991294)
(16.1226 -0.295313 -1.63288)
(16.1409 -0.30939 -2.4962)
(16.1664 -0.322108 -3.49763)
(16.2028 -0.330844 -4.36736)
(16.2443 -0.333752 -4.90635)
(16.2883 -0.330777 -5.2384)
(16.3366 -0.322127 -5.39224)
(16.3836 -0.309582 -5.24529)
(16.4184 -0.295366 -4.70783)
(16.4312 -0.277709 -4.00138)
(16.4186 -0.251929 -3.56625)
(16.3834 -0.213875 -3.47761)
(16.3289 -0.173705 -3.49145)
(16.2536 -0.141198 -3.28235)
(16.1936 -0.151374 -2.91193)
(16.2074 -0.168726 -2.52094)
(16.2675 -0.13518 -2.08787)
(16.3338 -0.0385492 -1.65214)
(16.4262 0.122226 -1.2842)
(16.5858 0.329474 -0.979629)
(16.8156 0.467316 -0.750248)
(17.0604 0.482915 -0.676299)
(17.2685 0.416851 -0.771258)
(17.4187 0.319819 -0.945442)
(17.5173 0.229013 -1.10302)
(17.5849 0.164402 -1.13861)
(17.633 0.129983 -0.937533)
(17.6608 0.122984 -0.558607)
(17.6708 0.143649 -0.132592)
(17.6494 0.181789 0.336307)
(17.5721 0.220659 0.910809)
(17.4397 0.251691 1.58996)
(17.2766 0.266298 2.23779)
(17.0945 0.253077 2.78554)
(16.9073 0.188401 3.3325)
(16.7313 0.078302 3.91327)
(16.5856 -0.0599543 4.48568)
(16.4921 -0.218878 4.96219)
(16.4675 -0.404428 5.24351)
(16.5435 -0.616618 5.40249)
(16.7441 -0.810921 5.44001)
(17.0716 -0.920361 5.53272)
(17.4436 -0.885097 5.54183)
(17.7911 -0.768681 5.7929)
(18.0682 -0.474951 5.55533)
(15.9918 0.00455862 -0.066676)
(15.9789 0.00507729 -0.10345)
(15.9785 0.0241648 -0.122649)
(15.9847 0.0548851 -0.166562)
(15.993 0.0896666 -0.214541)
(15.998 0.127315 -0.258509)
(16.0029 0.164524 -0.493698)
(16.0188 0.194309 -0.780109)
(16.0389 0.212917 -0.816226)
(16.0527 0.224976 -0.659366)
(16.0617 0.236199 -0.539148)
(16.0713 0.247526 -0.564542)
(16.0828 0.255461 -0.703946)
(16.095 0.259047 -0.982352)
(16.1086 0.257754 -1.46441)
(16.1249 0.250944 -2.20745)
(16.145 0.23772 -3.23591)
(16.1737 0.219003 -4.48109)
(16.2151 0.197962 -5.65757)
(16.2643 0.179002 -6.53326)
(16.319 0.166529 -7.20641)
(16.3791 0.165098 -7.6971)
(16.4363 0.174803 -7.88395)
(16.4813 0.189582 -7.66499)
(16.5086 0.205033 -7.19948)
(16.5208 0.222701 -6.87039)
(16.5321 0.240829 -6.78297)
(16.5671 0.2454 -6.75239)
(16.6537 0.220965 -6.55773)
(16.8787 0.128345 -6.31965)
(17.2626 0.0316896 -6.04261)
(17.6868 0.0278036 -5.65348)
(18.0169 0.114539 -5.12492)
(18.2259 0.263705 -4.51794)
(18.3811 0.41906 -3.94519)
(18.5226 0.492435 -3.48147)
(18.6739 0.447955 -3.20192)
(18.8315 0.335394 -3.10156)
(18.9817 0.205586 -3.08048)
(19.1192 0.0914377 -3.04844)
(19.2437 0.00554804 -2.91286)
(19.3467 -0.0523718 -2.57737)
(19.4148 -0.0830018 -2.13059)
(19.4401 -0.0799241 -1.67601)
(19.4173 -0.0617697 -1.2006)
(19.3458 -0.0501973 -0.643766)
(19.2351 -0.0529535 0.00501664)
(19.0902 -0.0771959 0.677461)
(18.9226 -0.130567 1.31902)
(18.7196 -0.220063 2.01989)
(18.4819 -0.336009 2.74214)
(18.2349 -0.458686 3.4062)
(18.0188 -0.584627 3.93187)
(17.8698 -0.728198 4.26457)
(17.8222 -0.900849 4.52978)
(17.8935 -1.07052 4.76743)
(18.0825 -1.18141 5.16982)
(18.2976 -1.16478 5.55213)
(18.4956 -1.0785 6.19491)
(18.5431 -0.774485 6.17562)
(15.9936 0.0049319 -0.073661)
(15.9871 -0.0508512 -0.142241)
(15.9989 -0.106205 -0.157105)
(16.0116 -0.152579 -0.183674)
(16.0216 -0.187959 -0.203344)
(16.0263 -0.209208 -0.186033)
(16.029 -0.225306 -0.3424)
(16.0389 -0.241397 -0.574672)
(16.052 -0.256153 -0.616636)
(16.0612 -0.265773 -0.490408)
(16.0679 -0.269277 -0.379002)
(16.0753 -0.269317 -0.392907)
(16.0841 -0.270087 -0.535457)
(16.0932 -0.271521 -0.837861)
(16.1029 -0.272971 -1.36756)
(16.1146 -0.274373 -2.19923)
(16.1304 -0.275447 -3.3871)
(16.1571 -0.274961 -4.87681)
(16.2015 -0.272684 -6.36756)
(16.2608 -0.26964 -7.59975)
(16.3338 -0.26571 -8.64529)
(16.4204 -0.257088 -9.48349)
(16.515 -0.241984 -9.95064)
(16.6162 -0.226546 -9.9376)
(16.7267 -0.215635 -9.58768)
(16.8552 -0.206477 -9.24656)
(17.0171 -0.195477 -9.08768)
(17.2303 -0.188667 -8.97844)
(17.4976 -0.208504 -8.70366)
(17.8582 -0.332591 -8.30865)
(18.3503 -0.484224 -7.89473)
(18.8832 -0.52398 -7.46252)
(19.353 -0.454911 -7.00879)
(19.7157 -0.291263 -6.52113)
(19.9489 -0.0504108 -6.00532)
(20.1072 0.138704 -5.56804)
(20.2494 0.201176 -5.27604)
(20.3941 0.188734 -5.12793)
(20.5279 0.145713 -5.03569)
(20.6417 0.103431 -4.92178)
(20.7315 0.077336 -4.69861)
(20.7905 0.0728524 -4.26155)
(20.8154 0.0923999 -3.71095)
(20.7991 0.143358 -3.14619)
(20.7339 0.203014 -2.56945)
(20.6238 0.251231 -1.96221)
(20.4834 0.279901 -1.32713)
(20.327 0.295749 -0.716785)
(20.1615 0.297037 -0.148366)
(19.9803 0.26833 0.461389)
(19.7658 0.193241 1.1214)
(19.5124 0.0682242 1.80575)
(19.2347 -0.113055 2.46699)
(18.9488 -0.352177 3.07085)
(18.6723 -0.641096 3.78266)
(18.4323 -0.896133 4.68993)
(18.2752 -1.01883 5.98342)
(18.1554 -0.942832 7.27099)
(18.091 -0.779622 8.68261)
(17.8962 -0.429254 9.02896)
(15.9552 0.0871816 -0.0923086)
(15.9185 0.1789 -0.26908)
(15.9219 0.247287 -0.393496)
(15.9363 0.282301 -0.534362)
(15.9551 0.297684 -0.654093)
(15.9683 0.305244 -0.679316)
(15.9757 0.306968 -0.877731)
(15.9924 0.303786 -1.17662)
(16.0154 0.297673 -1.3013)
(16.0342 0.292416 -1.24079)
(16.0475 0.290045 -1.15091)
(16.0588 0.289306 -1.15252)
(16.0703 0.287565 -1.2842)
(16.0826 0.285601 -1.57829)
(16.0968 0.284376 -2.09086)
(16.114 0.283872 -2.88988)
(16.1362 0.283565 -4.027)