/*--------------------------------*- C++ -*----------------------------------*\
  =========                 |
  \\      /  F ield         | OpenFOAM: The Open Source CFD Toolbox
   \\    /   O peration     | Website:  https://openfoam.org
    \\  /    A nd           | Version:  8
     \\/     M anipulation  |
\*---------------------------------------------------------------------------*/
FoamFile
{
    version     2.0;
    format      ascii;
    class       volScalarField;
    location    "800";
    object      alphat;
}
// * * * * * * * * * * * * * * * * * * * * * * * * * * * * * * * * * * * * * //

dimensions      [1 -1 -1 0 0 0 0];

internalField   nonuniform List<scalar> 
8400
(
0.228987
0.225962
0.222954
0.219963
0.21699
0.214032
0.211089
0.208161
0.205247
0.20235
0.19947
0.19661
0.193771
0.190954
0.188161
0.185392
0.18265
0.179933
0.177242
0.174578
0.171941
0.169332
0.166751
0.164198
0.161676
0.159184
0.156722
0.154288
0.151882
0.149505
0.147156
0.144836
0.142544
0.14028
0.138044
0.135838
0.133663
0.131519
0.129405
0.127322
0.125269
0.123249
0.121261
0.119306
0.117385
0.1155
0.113655
0.111854
0.110103
0.108411
0.0638657
0.0637993
0.0637352
0.0636729
0.0636119
0.0635519
0.0634926
0.0634341
0.0633762
0.0633191
0.0632628
0.0632075
0.0631535
0.063101
0.0630501
0.0630009
0.0629536
0.0629081
0.0628641
0.0628218
0.0627812
0.0627422
0.062705
0.0626692
0.0626257
0.062578
0.0625275
0.0624762
0.0624258
0.0623773
0.0623315
0.0622888
0.0622501
0.0622166
0.0621887
0.0621605
0.062133
0.0621063
0.0620802
0.0620549
0.0620304
0.0620069
0.0619846
0.0619636
0.0619439
0.0619256
0.061909
0.0618941
0.0618811
0.0618715
0.0602404
0.0602511
0.0602613
0.0602711
0.0602802
0.0602886
0.060296
0.0603026
0.0603082
0.060313
0.0603171
0.0603206
0.0603236
0.0603264
0.060329
0.0603314
0.0603337
0.0603356
0.0603372
0.0603385
0.0603396
0.0603407
0.0603419
0.060343
0.060344
0.0603445
0.0603447
0.0603448
0.0603448
0.060345
0.0603454
0.0603458
0.0603464
0.0603473
0.0603485
0.0603499
0.0603514
0.0603531
0.0603549
0.0603571
0.0603598
0.0603631
0.0603671
0.0603716
0.0603769
0.0603832
0.0603906
0.060399
0.060409
0.0604211
0.0585978
0.0586226
0.0586475
0.0586719
0.0586956
0.0587182
0.0587398
0.0587603
0.0587799
0.0587985
0.0588163
0.0588335
0.0588503
0.0588666
0.0588828
0.0588988
0.0589145
0.0589298
0.0589446
0.0589591
0.0589734
0.0589875
0.0590017
0.0590157
0.0590294
0.0590427
0.0590558
0.0590688
0.0590821
0.0590956
0.0591092
0.0591229
0.0591368
0.0591508
0.059165
0.0591792
0.0591935
0.0592082
0.0592234
0.0592392
0.0592556
0.0592725
0.05929
0.059308
0.0593266
0.0593461
0.0593661
0.0593866
0.0594091
0.0594324
0.0573538
0.0573933
0.0574321
0.0574701
0.0575069
0.0575424
0.0575766
0.0576096
0.0576414
0.0576722
0.0577022
0.0577314
0.0577602
0.0577886
0.0578166
0.0578444
0.0578718
0.0578986
0.0579249
0.0579508
0.0579763
0.0580016
0.0580267
0.0580515
0.0580761
0.0581004
0.0581247
0.0581492
0.058174
0.0581991
0.0582243
0.0582497
0.0582751
0.0583005
0.0583257
0.0583509
0.0583764
0.0584026
0.0584295
0.058457
0.0584851
0.0585137
0.0585426
0.0585718
0.0586016
0.0586318
0.058662
0.0586932
0.058725
0.0587593
0.05637
0.0564184
0.0564676
0.0565167
0.0565649
0.0566119
0.0566575
0.0567019
0.0567451
0.0567873
0.0568287
0.0568693
0.0569094
0.0569489
0.0569881
0.0570266
0.0570646
0.057102
0.0571387
0.0571747
0.0572102
0.0572452
0.0572799
0.0573143
0.0573486
0.057383
0.0574176
0.0574527
0.0574882
0.057524
0.0575601
0.0575963
0.0576325
0.0576683
0.0577037
0.0577393
0.0577756
0.0578129
0.0578509
0.0578895
0.0579285
0.0579679
0.0580075
0.058047
0.0580867
0.0581262
0.0581648
0.0582062
0.0582471
0.0582896
0.055663
0.0556892
0.0557211
0.0557578
0.0557979
0.0558404
0.0558844
0.0559295
0.0559754
0.0560219
0.0560687
0.0561158
0.056163
0.0562101
0.056257
0.0563037
0.0563503
0.0563964
0.0564419
0.0564868
0.0565311
0.0565749
0.0566187
0.0566626
0.056707
0.0567519
0.0567975
0.0568437
0.0568904
0.0569377
0.0569853
0.0570329
0.05708
0.0571265
0.0571728
0.0572197
0.0572677
0.0573165
0.0573658
0.0574157
0.0574662
0.0575166
0.0575666
0.0576163
0.0576662
0.0577168
0.0577672
0.0578189
0.0578736
0.0579272
0.0559073
0.0558126
0.0557331
0.0556734
0.055632
0.0556064
0.0555938
0.0555923
0.0556002
0.0556158
0.055638
0.0556652
0.0556963
0.0557306
0.0557675
0.0558068
0.0558482
0.0558913
0.0559352
0.0559793
0.0560236
0.0560684
0.0561143
0.0561619
0.0562111
0.0562619
0.0563136
0.0563661
0.0564194
0.0564735
0.056528
0.0565823
0.056636
0.0566893
0.0567432
0.0567984
0.0568549
0.0569121
0.05697
0.0570287
0.0570877
0.0571464
0.057205
0.0572647
0.0573247
0.0573848
0.0574496
0.0575111
0.057576
0.0576421
0.0579276
0.0576482
0.0573861
0.0571523
0.0569464
0.0567673
0.0566132
0.0564834
0.0563764
0.0562901
0.0562211
0.0561667
0.0561231
0.0560894
0.0560655
0.0560517
0.0560472
0.0560495
0.0560555
0.0560626
0.0560707
0.0560818
0.0560985
0.0561219
0.0561511
0.0561842
0.056219
0.0562552
0.0562932
0.0563333
0.056375
0.0564176
0.0564608
0.0565057
0.0565539
0.0566057
0.0566594
0.0567132
0.0567671
0.0568227
0.0568798
0.0569378
0.056998
0.0570612
0.057127
0.0571906
0.0572648
0.0573402
0.0574131
0.0574848
0.0603909
0.0601745
0.0599667
0.0597539
0.0595362
0.0593174
0.0591037
0.0589047
0.0587276
0.0585753
0.0584404
0.0583121
0.0581852
0.0580596
0.0579446
0.0578519
0.0577843
0.0577304
0.0576704
0.0575908
0.0574957
0.0574037
0.0573336
0.0572916
0.0572688
0.0572496
0.0572248
0.0571962
0.0571701
0.0571499
0.0571352
0.0571238
0.0571158
0.0571169
0.0571345
0.0571659
0.0571948
0.0572032
0.0571909
0.0571808
0.0571938
0.0572307
0.0572701
0.0572963
0.0573226
0.0573658
0.0574075
0.0574736
0.0575414
0.0575944
0.0611438
0.0610537
0.0609708
0.0608861
0.0607974
0.0607037
0.0606071
0.0605113
0.0604219
0.0603404
0.0602671
0.0601965
0.0601236
0.0600468
0.0599689
0.0598954
0.0598305
0.059772
0.0597111
0.0596397
0.0595575
0.0594729
0.0593961
0.0593313
0.0592745
0.0592178
0.059157
0.059094
0.0590326
0.0589745
0.0589185
0.058863
0.0588073
0.0587541
0.0587103
0.0586783
0.058649
0.0586111
0.0585645
0.0585195
0.0584844
0.0584597
0.05844
0.0584213
0.0583913
0.0583726
0.0583634
0.0583557
0.0583403
0.0583163
0.0611938
0.061151
0.0611079
0.0610637
0.0610182
0.0609716
0.0609247
0.0608782
0.0608333
0.0607901
0.0607478
0.0607057
0.0606629
0.0606195
0.0605763
0.0605345
0.0604945
0.0604551
0.0604144
0.0603713
0.0603267
0.0602826
0.0602405
0.0602004
0.0601612
0.0601213
0.0600804
0.0600391
0.0599981
0.0599577
0.059918
0.0598785
0.0598397
0.0598021
0.0597665
0.0597322
0.059697
0.0596598
0.059622
0.0595865
0.059555
0.0595256
0.0594951
0.0594642
0.0594326
0.0594008
0.0593696
0.0593402
0.0593091
0.0592777
0.061208
0.0611794
0.0611508
0.0611218
0.0610924
0.0610627
0.0610328
0.0610032
0.060974
0.0609452
0.0609166
0.0608879
0.060859
0.0608299
0.0608009
0.0607726
0.0607449
0.0607173
0.0606891
0.0606602
0.0606309
0.0606018
0.0605733
0.0605453
0.0605174
0.0604891
0.0604603
0.0604312
0.0604022
0.0603736
0.0603455
0.0603176
0.0602901
0.0602629
0.0602359
0.0602087
0.060181
0.060153
0.0601257
0.0600994
0.0600744
0.0600499
0.0600246
0.0599979
0.0599712
0.0599441
0.0599183
0.0598923
0.0598665
0.0598404
0.0612158
0.0611952
0.0611744
0.0611532
0.0611317
0.0611099
0.0610881
0.0610664
0.0610449
0.0610235
0.0610021
0.0609805
0.0609587
0.0609367
0.060915
0.0608936
0.0608725
0.0608515
0.06083
0.0608082
0.060786
0.0607641
0.0607424
0.060721
0.0606994
0.0606774
0.060655
0.0606325
0.0606102
0.0605883
0.0605667
0.0605454
0.0605242
0.0605028
0.060481
0.0604589
0.0604367
0.0604147
0.0603934
0.0603728
0.0603528
0.0603325
0.0603115
0.0602895
0.0602676
0.0602456
0.0602248
0.0602041
0.0601832
0.0601621
0.0612188
0.0612013
0.0611838
0.0611662
0.0611483
0.0611303
0.0611124
0.0610946
0.0610769
0.0610594
0.0610418
0.061024
0.061006
0.060988
0.0609703
0.0609529
0.0609358
0.0609187
0.0609012
0.0608835
0.0608657
0.060848
0.0608305
0.0608131
0.0607955
0.0607775
0.0607593
0.0607412
0.0607233
0.0607058
0.0606887
0.0606717
0.0606544
0.0606367
0.0606187
0.0606007
0.060583
0.0605655
0.0605486
0.060532
0.0605155
0.0604986
0.060481
0.0604632
0.0604456
0.0604289
0.0604122
0.060396
0.0603792
0.060362
0.0612227
0.0612094
0.0611959
0.0611823
0.0611685
0.0611547
0.0611409
0.0611271
0.0611134
0.0610996
0.0610857
0.0610716
0.0610574
0.0610431
0.0610291
0.0610154
0.0610017
0.060988
0.0609739
0.0609597
0.0609454
0.0609312
0.0609172
0.0609031
0.0608887
0.0608741
0.0608593
0.0608446
0.0608303
0.0608162
0.0608022
0.060788
0.0607734
0.0607585
0.0607436
0.0607287
0.060714
0.0606996
0.0606854
0.0606712
0.0606567
0.0606419
0.0606268
0.0606122
0.0605974
0.0605834
0.0605692
0.0605549
0.06054
0.0605252
0.0612224
0.0612086
0.0611948
0.0611809
0.0611669
0.0611531
0.0611393
0.0611255
0.0611118
0.061098
0.0610841
0.0610701
0.061056
0.061042
0.0610284
0.061015
0.0610017
0.0609884
0.0609748
0.0609611
0.0609475
0.0609341
0.0609207
0.0609073
0.0608936
0.0608797
0.0608659
0.0608523
0.0608392
0.0608263
0.0608132
0.0607998
0.0607862
0.0607725
0.0607591
0.0607461
0.0607333
0.0607207
0.060708
0.0606951
0.0606823
0.0606695
0.060657
0.0606449
0.0606337
0.0606222
0.0606112
0.0606004
0.0605899
0.0605805
0.0612264
0.0612178
0.0612095
0.0612014
0.0611933
0.0611854
0.0611775
0.0611698
0.0611621
0.0611544
0.0611467
0.0611391
0.0611316
0.0611243
0.0611173
0.0611104
0.0611036
0.0610967
0.0610898
0.0610829
0.0610762
0.0610696
0.061063
0.0610563
0.0610493
0.0610423
0.0610354
0.061029
0.0610228
0.0610167
0.0610108
0.0610048
0.0609992
0.060994
0.0609895
0.0609854
0.0609818
0.0609785
0.0609755
0.0609729
0.0609711
0.0609701
0.0609704
0.0609715
0.0609745
0.0609793
0.0609869
0.0609989
0.0610175
0.0610449
0.0613719
0.0615079
0.0616403
0.061769
0.0618943
0.0620164
0.0621353
0.0622513
0.0623642
0.0624739
0.0625806
0.0626843
0.062785
0.0628831
0.0629787
0.0630715
0.0632263
0.0633914
0.0635204
0.0636555
0.0638024
0.0639478
0.0640772
0.0641844
0.06427
0.0643392
0.0643998
0.0644592
0.064521
0.0645849
0.0646511
0.0647221
0.0648028
0.0648981
0.0650068
0.0651233
0.065242
0.065358
0.0654679
0.0655716
0.0656744
0.0657783
0.0658871
0.0660017
0.0661249
0.0662639
0.0664348
0.0666726
0.0670568
0.0676926
0.323702
0.32055
0.316931
0.313358
0.309904
0.30656
0.303303
0.300103
0.296931
0.293769
0.290604
0.287427
0.284233
0.281021
0.277792
0.27455
0.271306
0.2681
0.264946
0.261831
0.258753
0.255709
0.252697
0.249715
0.246761
0.243833
0.24093
0.23805
0.235194
0.232364
0.229561
0.226786
0.224041
0.221328
0.218652
0.216016
0.213427
0.21089
0.208409
0.205988
0.20363
0.201334
0.199094
0.196911
0.194768
0.192656
0.190558
0.188459
0.186338
0.18418
0.27115
0.267823
0.264634
0.261569
0.258613
0.255751
0.252969
0.250263
0.247628
0.245063
0.242567
0.240136
0.237768
0.235462
0.233215
0.231026
0.22889
0.226808
0.224777
0.222794
0.22086
0.218971
0.217128
0.21533
0.213574
0.21186
0.210187
0.208553
0.206957
0.205399
0.203876
0.202387
0.200933
0.199511
0.198122
0.196765
0.195439
0.194144
0.192879
0.191641
0.190423
0.189224
0.188042
0.186876
0.185723
0.184579
0.183437
0.182285
0.181103
0.179853
0.269216
0.263072
0.2572
0.251572
0.246182
0.241023
0.236092
0.231375
0.226861
0.222538
0.218395
0.214421
0.210606
0.20694
0.203413
0.200019
0.196748
0.193592
0.190547
0.187606
0.184763
0.182015
0.179356
0.176784
0.174293
0.171881
0.169543
0.167276
0.165076
0.162939
0.160863
0.158843
0.156878
0.154965
0.1531
0.151281
0.149505
0.147769
0.146069
0.144407
0.142789
0.141212
0.139675
0.138178
0.136719
0.135295
0.133903
0.132539
0.131199
0.129876
0.269206
0.263038
0.257124
0.251458
0.246028
0.240823
0.235833
0.231045
0.226448
0.222033
0.217788
0.213705
0.209774
0.205987
0.202335
0.198811
0.195408
0.19212
0.18894
0.185862
0.182883
0.179998
0.177203
0.174493
0.171866
0.169318
0.166846
0.164445
0.162113
0.159847
0.157643
0.1555
0.153414
0.151383
0.149407
0.147482
0.145608
0.143781
0.142001
0.140266
0.138574
0.136926
0.13532
0.133755
0.132232
0.130747
0.129301
0.12789
0.126513
0.125169
0.269206
0.263081
0.257218
0.251603
0.246221
0.241057
0.2361
0.231338
0.226761
0.222359
0.218122
0.214043
0.210112
0.206322
0.202666
0.199135
0.195724
0.192426
0.189236
0.186148
0.183158
0.18026
0.177453
0.17473
0.17209
0.169528
0.167041
0.164626
0.16228
0.16
0.157782
0.155625
0.153526
0.151484
0.149495
0.147559
0.145672
0.143833
0.142041
0.140294
0.13859
0.136929
0.135311
0.133734
0.132198
0.130701
0.129243
0.12782
0.126431
0.125074
0.269205
0.263079
0.257213
0.251591
0.246201
0.241028
0.236064
0.231295
0.226713
0.222306
0.218067
0.213985
0.210053
0.206263
0.202607
0.199079
0.19567
0.192376
0.18919
0.186106
0.183121
0.180228
0.177425
0.174708
0.172072
0.169514
0.167032
0.164621
0.162278
0.160002
0.157788
0.155635
0.153541
0.151502
0.149518
0.147585
0.145702
0.143867
0.142077
0.140332
0.13863
0.13697
0.135353
0.133776
0.132239
0.130741
0.129281
0.127856
0.126465
0.125105
0.269205
0.26308
0.25722
0.251607
0.246228
0.24107
0.236119
0.231364
0.226794
0.222398
0.218167
0.214093
0.210166
0.206381
0.202728
0.199203
0.195797
0.192504
0.189319
0.186237
0.183252
0.180359
0.177556
0.174837
0.172199
0.16964
0.167155
0.164741
0.162397
0.160118
0.157902
0.155747
0.153651
0.151611
0.149625
0.14769
0.145805
0.143967
0.142175
0.140426
0.13872
0.137056
0.135434
0.133851
0.132309
0.130805
0.129338
0.127906
0.126507
0.125139
0.269204
0.263078
0.257218
0.251606
0.246228
0.24107
0.23612
0.231364
0.226792
0.222393
0.218159
0.21408
0.21015
0.206361
0.202705
0.199176
0.195768
0.192474
0.189288
0.186205
0.183219
0.180326
0.177522
0.174803
0.172165
0.169605
0.16712
0.164707
0.162363
0.160085
0.157871
0.155718
0.153623
0.151585
0.1496
0.147668
0.145784
0.143948
0.142156
0.140408
0.138702
0.137038
0.135414
0.133831
0.132286
0.13078
0.129311
0.127876
0.126474
0.125103
0.269203
0.263076
0.257215
0.251605
0.24623
0.241076
0.23613
0.231379
0.226811
0.222416
0.218185
0.214109
0.210181
0.206394
0.20274
0.199213
0.195807
0.192515
0.189331
0.186249
0.183264
0.180372
0.177568
0.174848
0.17221
0.16965
0.167165
0.164751
0.162407
0.160129
0.157914
0.155761
0.153666
0.151627
0.149643
0.147709
0.145825
0.143987
0.142194
0.140444
0.138735
0.137067
0.135439
0.133851
0.132302
0.13079
0.129315
0.127875
0.126466
0.125089
0.269203
0.263073
0.257212
0.251602
0.246229
0.241077
0.236133
0.231383
0.226815
0.22242
0.218188
0.214111
0.210181
0.206392
0.202737
0.199208
0.1958
0.192507
0.189321
0.186237
0.183251
0.180357
0.177551
0.17483
0.172191
0.16963
0.167144
0.16473
0.162386
0.160108
0.157894
0.155741
0.153647
0.151609
0.149625
0.147692
0.145807
0.143969
0.142176
0.140424
0.138715
0.137045
0.135415
0.133824
0.132272
0.130757
0.129279
0.127835
0.126423
0.125041
0.269202
0.263071
0.257208
0.251599
0.246227
0.241077
0.236135
0.231387
0.226821
0.222427
0.218196
0.214119
0.21019
0.206401
0.202745
0.199217
0.195809
0.192516
0.18933
0.186246
0.183259
0.180365
0.177558
0.174837
0.172197
0.169636
0.16715
0.164737
0.162393
0.160116
0.157902
0.15575
0.153656
0.151618
0.149634
0.1477
0.145815
0.143976
0.142181
0.140428
0.138716
0.137044
0.135411
0.133817
0.132261
0.130742
0.129258
0.127809
0.126392
0.125006
0.269201
0.263068
0.257205
0.251595
0.246224
0.241075
0.236135
0.231388
0.226823
0.22243
0.218199
0.214122
0.210192
0.206403
0.202748
0.199219
0.195811
0.192516
0.189329
0.186244
0.183256
0.18036
0.177552
0.17483
0.172189
0.169628
0.167143
0.16473
0.162387
0.16011
0.157897
0.155745
0.153651
0.151613
0.149629
0.147694
0.145809
0.143968
0.142172
0.140418
0.138704
0.137029
0.135394
0.133796
0.132237
0.130714
0.129227
0.127773
0.126352
0.12496
0.269201
0.263066
0.257201
0.251591
0.246221
0.241073
0.236133
0.231387
0.226822
0.222429
0.218198
0.214121
0.21019
0.2064
0.202744
0.199214
0.195804
0.192508
0.189319
0.186231
0.183241
0.180343
0.177534
0.17481
0.17217
0.169608
0.167123
0.164711
0.162369
0.160093
0.157881
0.155729
0.153635
0.151597
0.149612
0.147677
0.14579
0.143949
0.142152
0.140397
0.138681
0.137005
0.135368
0.133768
0.132206
0.13068
0.129189
0.127732
0.126306
0.12491
0.2692
0.263064
0.257198
0.251588
0.246217
0.24107
0.236131
0.231386
0.226822
0.22243
0.2182
0.214125
0.210196
0.206407
0.202751
0.199222
0.195812
0.192516
0.189326
0.186238
0.183247
0.180348
0.177539
0.174815
0.172175
0.169614
0.16713
0.164719
0.162378
0.160103
0.157891
0.155739
0.153645
0.151606
0.149619
0.147683
0.145795
0.143952
0.142153
0.140395
0.138678
0.136999
0.135358
0.133755
0.132189
0.130659
0.129164
0.127701
0.12627
0.124869
0.2692
0.263062
0.257194
0.251582
0.24621
0.241061
0.23612
0.231373
0.226807
0.222413
0.21818
0.214102
0.21017
0.206379
0.20272
0.199188
0.195775
0.192475
0.189281
0.18619
0.183196
0.180295
0.177483
0.174759
0.172119
0.169559
0.167076
0.164666
0.162326
0.160052
0.157841
0.155689
0.153595
0.151556
0.149569
0.147633
0.145744
0.143902
0.142102
0.140344
0.138626
0.136947
0.135306
0.133702
0.132134
0.130603
0.129105
0.12764
0.126206
0.124801
0.269199
0.26306
0.257191
0.251577
0.246205
0.241058
0.236119
0.231376
0.226814
0.222423
0.218195
0.214121
0.210192
0.206404
0.202747
0.199216
0.195804
0.192503
0.189309
0.186217
0.183221
0.180319
0.177507
0.174783
0.172142
0.169583
0.1671
0.16469
0.162349
0.160075
0.157862
0.155709
0.153613
0.151571
0.149582
0.147643
0.145752
0.143906
0.142104
0.140343
0.138621
0.136939
0.135294
0.133686
0.132114
0.130578
0.129075
0.127605
0.126164
0.124752
0.269199
0.263056
0.257179
0.251556
0.246173
0.241014
0.236064
0.231309
0.226737
0.222337
0.218101
0.214019
0.210085
0.206291
0.202629
0.199094
0.195677
0.192373
0.189176
0.186081
0.183084
0.180182
0.17737
0.174647
0.172008
0.169451
0.166971
0.164564
0.162226
0.159953
0.157743
0.155591
0.153497
0.151456
0.149469
0.147531
0.145641
0.143796
0.141995
0.140236
0.138516
0.136834
0.13519
0.133583
0.132012
0.130475
0.128972
0.1275
0.126058
0.124644
0.269199
0.263055
0.257179
0.251563
0.246189
0.24104
0.2361
0.231354
0.226789
0.222395
0.218162
0.214083
0.210149
0.206354
0.202691
0.199152
0.195731
0.192421
0.189219
0.186118
0.183115
0.180207
0.177391
0.174663
0.17202
0.169458
0.166974
0.164563
0.162221
0.159944
0.157729
0.155574
0.153474
0.15143
0.149438
0.147496
0.145602
0.143754
0.14195
0.140187
0.138464
0.136781
0.135135
0.133526
0.131954
0.130417
0.128914
0.127443
0.126004
0.124595
0.269198
0.263009
0.25708
0.251413
0.245992
0.240804
0.235832
0.231061
0.226479
0.222073
0.217833
0.21375
0.209816
0.206022
0.202362
0.198829
0.195414
0.192113
0.188919
0.185828
0.182837
0.179942
0.177139
0.174426
0.171798
0.169252
0.166784
0.164389
0.162064
0.159804
0.157605
0.155467
0.153385
0.151359
0.149385
0.147463
0.14559
0.143763
0.141982
0.140244
0.138548
0.136893
0.135278
0.133705
0.132172
0.130679
0.129227
0.127817
0.126451
0.125134
0.269207
0.263039
0.25715
0.25152
0.24614
0.240999
0.236088
0.231391
0.226893
0.22258
0.218442
0.214468
0.21065
0.206977
0.203443
0.200038
0.196756
0.19359
0.190533
0.18758
0.184729
0.181974
0.179313
0.176741
0.174257
0.171854
0.16953
0.16728
0.165099
0.162984
0.160932
0.15894
0.157005
0.155127
0.153303
0.151533
0.149813
0.148143
0.146522
0.144948
0.143421
0.141941
0.14051
0.13913
0.137803
0.136534
0.135326
0.134189
0.133139
0.132211
0.271148
0.267808
0.264609
0.261543
0.258591
0.255736
0.252961
0.250261
0.247632
0.245071
0.242576
0.240144
0.237774
0.235464
0.233211
0.231013
0.228869
0.226778
0.224737
0.222747
0.220806
0.218914
0.217068
0.215269
0.213514
0.211801
0.210128
0.208494
0.206895
0.205332
0.203801
0.202304
0.200838
0.199402
0.197997
0.19662
0.19527
0.193946
0.192647
0.191371
0.190119
0.188888
0.187679
0.18649
0.185319
0.184164
0.183024
0.181896
0.180775
0.179658
0.118601
0.056837
0.063113
0.0774902
0.0930735
0.104667
0.108635
0.103518
0.0908527
0.0761111
0.0654289
0.0554923
0.0391471
0.0377835
0.0385617
0.0386252
0.0429546
0.0554887
0.0869477
0.230515
0.117642
0.0568775
0.0632106
0.0776607
0.0933553
0.105068
0.109127
0.10406
0.0914128
0.0766921
0.0660795
0.0563392
0.0406618
0.0373784
0.0381749
0.0397389
0.0459475
0.0618648
0.0970432
0.232494
0.116712
0.0569143
0.0632899
0.077804
0.0936132
0.105462
0.109641
0.104655
0.092052
0.0773589
0.0668735
0.0576352
0.0434608
0.0383708
0.0392326
0.0417665
0.0490638
0.066509
0.103159
0.234574
0.115797
0.0569452
0.0633473
0.0779164
0.093843
0.105844
0.110174
0.105306
0.0927688
0.0780964
0.0677319
0.0590048
0.0460029
0.0405269
0.0413529
0.0446415
0.0528779
0.0714289
0.109174
0.236631
0.114909
0.0569709
0.0633819
0.077994
0.0940413
0.106214
0.110727
0.106017
0.0935797
0.078936
0.0687157
0.0606483
0.0489959
0.0436112
0.0443298
0.0481535
0.0571495
0.0765074
0.11505
0.238657
0.114048
0.0569904
0.0633911
0.0780358
0.0942059
0.106569
0.1113
0.106788
0.0944778
0.0798581
0.0697717
0.0624525
0.0522652
0.0472902
0.0479038
0.0521048
0.0617068
0.0816614
0.120773
0.240648
0.113214
0.0570037
0.0633732
0.078037
0.0943321
0.106908
0.111894
0.107626
0.0954785
0.0808758
0.0708867
0.0643365
0.055632
0.0512589
0.0518293
0.0563118
0.0663977
0.0867898
0.126292
0.242602
0.11241
0.0570108
0.063327
0.0779943
0.0944155
0.107224
0.112505
0.108529
0.0965839
0.0819971
0.0720495
0.0662404
0.0589484
0.0552706
0.0558971
0.0606143
0.0710906
0.0917999
0.131553
0.244516
0.111636
0.0570113
0.0632505
0.077904
0.0944516
0.107516
0.113131
0.109499
0.0977987
0.0832277
0.0732555
0.0681227
0.0621538
0.0591728
0.0599486
0.0648829
0.0756809
0.0966201
0.136519
0.246387
0.110893
0.0570046
0.063141
0.0777619
0.0944339
0.107777
0.113769
0.110532
0.0991263
0.0845762
0.0744977
0.0699421
0.0651865
0.0628713
0.0638712
0.0690221
0.0800928
0.101201
0.141171
0.248211
0.110184
0.0569902
0.0629954
0.0775618
0.0943567
0.107999
0.114416
0.111631
0.100568
0.0860528
0.0757817
0.0716714
0.0680048
0.0663074
0.0675893
0.0729646
0.0842745
0.105513
0.145504
0.249987
0.109509
0.056968
0.0628127
0.0772989
0.0942129
0.108179
0.115063
0.112793
0.10213
0.087669
0.07712
0.0732971
0.0706001
0.0694596
0.0710582
0.0766674
0.0881938
0.109537
0.14952
0.251712
0.10887
0.0569377
0.0625897
0.076968
0.0939939
0.108305
0.115705
0.114014
0.103815
0.0894379
0.0785343
0.0748168
0.0729614
0.0723237
0.0742566
0.0801074
0.0918343
0.11327
0.153229
0.253385
0.108271
0.0569001
0.0623243
0.0765622
0.0936902
0.108367
0.116335
0.11529
0.105626
0.0913751
0.080054
0.0762439
0.0750991
0.07491
0.0771804
0.0832766
0.0951925
0.116713
0.156644
0.255003
0.107713
0.0568562
0.0620144
0.0760737
0.0932901
0.108351
0.116939
0.116616
0.107566
0.0934975
0.0817161
0.0776054
0.07703
0.0772408
0.0798387
0.0861796
0.0982751
0.119877
0.159785
0.256566
0.107201
0.0568059
0.0616575
0.0754953
0.0927788
0.108243
0.117504
0.117983
0.109637
0.0958233
0.0835623
0.0789402
0.0787753
0.0793423
0.082249
0.0888297
0.101097
0.122781
0.162675
0.258073
0.106738
0.0567507
0.0612514
0.074818
0.0921413
0.108024
0.118013
0.119382
0.111839
0.0983707
0.0856383
0.0802987
0.0803554
0.0812435
0.0844349
0.0912474
0.103678
0.125445
0.165339
0.259523
0.106326
0.0566921
0.0607955
0.074033
0.0913614
0.10767
0.118444
0.120797
0.11417
0.101157
0.0879941
0.0817466
0.0817914
0.0829745
0.0864249
0.0934593
0.106047
0.1279
0.16781
0.260916
0.105972
0.0566323
0.0602895
0.073132
0.0904199
0.107157
0.118772
0.122206
0.116624
0.104198
0.0906835
0.0833715
0.0831271
0.0845729
0.0882538
0.095498
0.108236
0.130179
0.170123
0.26225
0.105679
0.0565748
0.0597346
0.0721074
0.0892964
0.106454
0.11896
0.123582
0.119186
0.107506
0.0937623
0.0852821
0.0844351
0.0860864
0.0899631
0.0974027
0.110287
0.132326
0.172321
0.263523
0.105452
0.0565237
0.059135
0.0709531
0.0879688
0.105524
0.118966
0.124884
0.121834
0.111088
0.0972869
0.0876045
0.0858193
0.0875716
0.0916013
0.0992195
0.112247
0.134394
0.174455
0.264734
0.105298
0.0564834
0.0584964
0.0696654
0.0864142
0.104326
0.118738
0.126063
0.124534
0.114942
0.101307
0.0904754
0.0874239
0.0891002
0.0932285
0.101006
0.114178
0.136453
0.176587
0.265878
0.105221
0.0564594
0.0578277
0.0682452
0.0846107
0.102815
0.118214
0.127051
0.127231
0.119046
0.105861
0.0940341
0.089439
0.0907714
0.0949253
0.102838
0.116162
0.138587
0.178784
0.266953
0.105225
0.0564583
0.057142
0.0666995
0.0825406
0.100942
0.11732
0.127764
0.129849
0.123354
0.110964
0.0984127
0.0920972
0.0927307
0.0968098
0.104823
0.118305
0.140898
0.18112
0.267952
0.105317
0.0564871
0.0564567
0.0650446
0.0801928
0.0986581
0.115973
0.128097
0.13228
0.127784
0.116595
0.103717
0.095657
0.0951768
0.0990585
0.107113
0.120747
0.143502
0.183666
0.268869
0.1055
0.0565536
0.0557929
0.0633076
0.0775675
0.0959176
0.114079
0.12792
0.134382
0.132208
0.122676
0.110001
0.10038
0.0981861
0.101917
0.109913
0.123653
0.146521
0.186483
0.269693
0.105779
0.0566655
0.0551748
0.0615287
0.0746813
0.0926834
0.111543
0.127086
0.135976
0.136445
0.129057
0.117235
0.106659
0.10226
0.10568
0.113461
0.1272
0.150063
0.189611
0.270412
0.106158
0.0568292
0.0546277
0.059762
0.0715742
0.0889368
0.10827
0.125429
0.136844
0.140254
0.135501
0.125196
0.114552
0.109078
0.110633
0.117984
0.131541
0.154201
0.193061
0.27101
0.106639
0.0570491
0.0541751
0.0580738
0.0683175
0.084689
0.104183
0.122779
0.136735
0.143335
0.141686
0.133495
0.123263
0.116673
0.116934
0.123629
0.136761
0.158958
0.196807
0.271467
0.107222
0.0573275
0.0538359
0.0565384
0.0650195
0.0799962
0.0992371
0.118973
0.135372
0.14533
0.147241
0.141847
0.132768
0.12559
0.12457
0.130418
0.142861
0.164297
0.20079
0.271761
0.107907
0.0576648
0.0536217
0.0552283
0.0618269
0.0749764
0.0934421
0.11388
0.132476
0.145831
0.151681
0.149772
0.142639
0.135444
0.133337
0.138235
0.149747
0.170124
0.204923
0.271864
0.10869
0.0580597
0.0535347
0.0542015
0.058914
0.0698276
0.0868889
0.107432
0.127796
0.144403
0.154442
0.156683
0.152395
0.14581
0.142685
0.146844
0.157246
0.176301
0.209098
0.271746
0.10957
0.0585094
0.0535662
0.0534877
0.0564548
0.0648363
0.0797868
0.099664
0.121152
0.14063
0.154891
0.161857
0.161519
0.156755
0.152802
0.155945
0.165134
0.182657
0.213199
0.27137
0.110543
0.0590103
0.0536989
0.053081
0.0545808
0.060357
0.072504
0.0907661
0.112494
0.134177
0.15237
0.164312
0.168801
0.167291
0.164298
0.165208
0.173157
0.189005
0.217099
0.270691
0.111602
0.0595574
0.0539097
0.0529417
0.0533398
0.0567372
0.065592
0.0811534
0.101973
0.124892
0.146392
0.163229
0.173103
0.175773
0.174227
0.174258
0.181042
0.19515
0.220673
0.269653
0.112739
0.0601457
0.0541746
0.053008
0.0526814
0.0541951
0.059721
0.0715577
0.0900178
0.112836
0.136627
0.157902
0.173575
0.181781
0.183219
0.182406
0.188525
0.200902
0.223803
0.268194
0.113943
0.0607705
0.054473
0.0532123
0.0524799
0.0527261
0.0554486
0.0630556
0.0775319
0.098422
0.122963
0.147638
0.168959
0.183977
0.19134
0.193021
0.195392
0.206095
0.226382
0.266238
0.115205
0.061428
0.0547899
0.053496
0.0525818
0.0521193
0.0529247
0.0567439
0.0661044
0.0827479
0.105749
0.132019
0.157861
0.17961
0.194192
0.200496
0.201853
0.210577
0.228316
0.263698
0.116511
0.0621153
0.0551166
0.0538179
0.0528514
0.0520736
0.0518328
0.0530646
0.0576271
0.0681389
0.0863694
0.111317
0.139696
0.167509
0.190682
0.205705
0.211555
0.214488
0.229588
0.260465
0.11785
0.0628292
0.0554488
0.0541535
0.0531951
0.05232
0.0516359
0.0515348
0.052937
0.0576663
0.0684073
0.0873322
0.113979
0.145136
0.176315
0.202518
0.218892
0.223273
0.230486
0.256438
0.119209
0.0635658
0.0557844
0.0544912
0.0535613
0.0526834
0.0518655
0.0512507
0.0511836
0.0524633
0.056676
0.0663631
0.0842814
0.111485
0.145888
0.182648
0.214899
0.234418
0.233954
0.251962
0.120577
0.06432
0.0561223
0.054826
0.053928
0.0530779
0.0522454
0.0514884
0.0509222
0.0508316
0.0518208
0.0550504
0.0624411
0.0766859
0.10075
0.13669
0.18353
0.23396
0.270497
0.253313
0.121938
0.0650857
0.0564614
0.055156
0.0542874
0.053472
0.0526593
0.0518842
0.0511864
0.0506765
0.0505891
0.0513816
0.0537963
0.0588493
0.0677211
0.0819524
0.10469
0.14378
0.216633
0.344301
0.12328
0.0658561
0.0568017
0.055482
0.0546384
0.0538569
0.0530708
0.0523119
0.0515912
0.0509562
0.0505174
0.0505072
0.0513519
0.0537063
0.0582572
0.0653246
0.0744178
0.0842969
0.09352
0.101316
0.124591
0.0666242
0.0571422
0.0558046
0.0549824
0.0542318
0.0534717
0.0527371
0.0520259
0.0513582
0.0507869
0.0504292
0.0505353
0.0515951
0.0543331
0.0595604
0.0676696
0.0782372
0.0902013
0.102776
0.125862
0.0673844
0.0574829
0.0561238
0.0553197
0.0545978
0.053861
0.0531506
0.0524566
0.0517914
0.0511763
0.0506693
0.0504074
0.0507097
0.0521776
0.0557581
0.0625242
0.0731152
0.087421
0.106015
0.127084
0.0681317
0.0578244
0.0564413
0.0556504
0.0549552
0.0542386
0.0535501
0.0528731
0.0522199
0.0515972
0.0510318
0.0505979
0.0504888
0.0511498
0.0534538
0.058812
0.0688259
0.0845689
0.108145
0.128249
0.0688582
0.0581645
0.0567575
0.0559766
0.0553054
0.0546056
0.0539357
0.0532752
0.052633
0.0520154
0.0514314
0.0509206
0.0505973
0.0507712
0.0521635
0.0562651
0.0653794
0.0819083
0.109684
0.129353
0.0695588
0.0585007
0.0570692
0.0562975
0.0556485
0.0549624
0.0543084
0.0536614
0.0530296
0.0524199
0.051832
0.0512911
0.0508559
0.0507464
0.051513
0.0545844
0.0626791
0.0795317
0.110865
0.13039
0.0702315
0.0588351
0.057378
0.0566139
0.0559854
0.0553105
0.0546728
0.054034
0.0534138
0.0528103
0.0522239
0.0516732
0.0511792
0.0509059
0.0512499
0.0535194
0.0606009
0.0774616
0.111815
0.131354
0.0708704
0.0591661
0.0576857
0.0569274
0.0563173
0.055651
0.0550282
0.0543957
0.0537882
0.0531889
0.0526073
0.0520538
0.0515269
0.0511596
0.0512175
0.0528796
0.0590251
0.0756902
0.112608
0.132251
0.0714772
0.0594934
0.0579922
0.0572383
0.0566443
0.0559882
0.0553753
0.0547508
0.0541511
0.0535593
0.0529799
0.0524278
0.0518821
0.0514598
0.051322
0.052531
0.0578485
0.074197
0.113289
0.133083
0.072056
0.0598202
0.0582997
0.0575485
0.056968
0.0563216
0.0557148
0.0551027
0.054503
0.0539221
0.0533427
0.0527941
0.0522354
0.0517821
0.0515083
0.0523815
0.0569856
0.0729561
0.113886
0.13385
0.0726059
0.0601466
0.0586083
0.0578572
0.0572902
0.0566508
0.0560482
0.0554473
0.054849
0.0542768
0.0536961
0.0531526
0.0525838
0.0521138
0.051744
0.0523683
0.0563668
0.0719369
0.11442
0.134559
0.0731268
0.0604715
0.0589174
0.0581653
0.0576094
0.056975
0.05638
0.0557823
0.0551898
0.0546223
0.0540412
0.0535035
0.0529262
0.0524481
0.0520091
0.0524484
0.0559376
0.0711079
0.1149
0.135216
0.0736227
0.0607957
0.0592246
0.0584749
0.0579267
0.0572951
0.0567089
0.0561114
0.0555248
0.0549605
0.0543793
0.0538473
0.0532629
0.052782
0.0522913
0.0525916
0.0556548
0.07044
0.115337
0.135817
0.0740933
0.0611199