/*--------------------------------*- C++ -*----------------------------------*\
  =========                 |
  \\      /  F ield         | OpenFOAM: The Open Source CFD Toolbox
   \\    /   O peration     | Website:  https://openfoam.org
    \\  /    A nd           | Version:  8
     \\/     M anipulation  |
\*---------------------------------------------------------------------------*/
FoamFile
{
    version     2.0;
    format      ascii;
    class       volScalarField;
    location    "800";
    object      epsilon;
}
// * * * * * * * * * * * * * * * * * * * * * * * * * * * * * * * * * * * * * //

dimensions      [0 2 -3 0 0 0 0];

internalField   nonuniform List<scalar> 
8400
(
0.754385
0.725368
0.697242
0.670005
0.643627
0.618073
0.593317
0.569339
0.546127
0.52367
0.50196
0.480989
0.460747
0.441223
0.422406
0.404281
0.386835
0.370051
0.353912
0.338401
0.323499
0.309189
0.295452
0.282269
0.269624
0.257504
0.245889
0.234759
0.224095
0.21388
0.204095
0.194725
0.185752
0.177161
0.168938
0.161069
0.153545
0.146354
0.139484
0.132923
0.12666
0.120686
0.11499
0.109564
0.1044
0.0994935
0.094841
0.0904434
0.086303
0.0824276
0.0152583
0.0152063
0.0151564
0.0151078
0.0150605
0.0150141
0.0149685
0.0149237
0.0148798
0.0148366
0.0147943
0.0147528
0.0147122
0.0146726
0.0146338
0.0145961
0.0145593
0.0145235
0.0144887
0.0144551
0.0144225
0.0143911
0.0143608
0.0143317
0.0143028
0.0142723
0.0142407
0.0142084
0.0141758
0.0141433
0.0141116
0.0140811
0.0140524
0.014026
0.0140023
0.0139813
0.0139609
0.0139412
0.0139222
0.0139038
0.0138861
0.0138691
0.0138527
0.013837
0.0138221
0.0138081
0.0137951
0.0137835
0.0137734
0.0137653
0.0126354
0.012642
0.0126482
0.0126541
0.0126595
0.0126644
0.0126688
0.0126725
0.0126758
0.0126785
0.0126809
0.0126828
0.0126845
0.0126859
0.0126871
0.012688
0.0126888
0.0126895
0.01269
0.0126905
0.0126909
0.0126912
0.0126914
0.0126916
0.0126919
0.0126921
0.0126924
0.0126927
0.0126929
0.012693
0.0126932
0.0126933
0.0126934
0.0126937
0.0126939
0.0126943
0.0126947
0.0126952
0.012696
0.0126969
0.012698
0.0126993
0.0127009
0.0127028
0.0127052
0.0127082
0.0127118
0.0127163
0.0127219
0.0127291
0.0115617
0.0115765
0.0115914
0.0116059
0.01162
0.0116334
0.0116462
0.0116583
0.0116698
0.0116808
0.0116914
0.0117015
0.0117113
0.0117209
0.0117301
0.0117392
0.0117481
0.0117568
0.0117654
0.0117739
0.0117823
0.0117906
0.0117989
0.0118071
0.0118153
0.0118235
0.0118317
0.0118399
0.011848
0.011856
0.011864
0.011872
0.01188
0.0118881
0.0118963
0.0119045
0.0119128
0.0119212
0.0119298
0.0119386
0.0119475
0.0119567
0.0119662
0.011976
0.0119863
0.0119971
0.0120086
0.0120208
0.0120339
0.0120482
0.0107896
0.0108123
0.0108346
0.0108564
0.0108776
0.0108979
0.0109176
0.0109365
0.0109547
0.0109723
0.0109894
0.0110061
0.0110225
0.0110385
0.0110543
0.0110698
0.0110852
0.0111003
0.0111154
0.0111303
0.0111452
0.0111599
0.0111746
0.0111893
0.0112039
0.0112185
0.011233
0.0112474
0.0112618
0.0112762
0.0112905
0.0113049
0.0113193
0.0113338
0.0113483
0.0113629
0.0113777
0.0113926
0.0114077
0.0114228
0.0114382
0.0114539
0.0114699
0.0114863
0.0115031
0.0115203
0.011538
0.0115563
0.0115754
0.0115952
0.0102112
0.0102375
0.0102643
0.0102911
0.0103175
0.0103433
0.0103684
0.0103929
0.0104166
0.0104399
0.0104626
0.0104849
0.0105068
0.0105284
0.0105498
0.0105709
0.0105918
0.0106126
0.0106332
0.0106536
0.010674
0.0106943
0.0107144
0.0107345
0.0107545
0.0107745
0.0107944
0.0108142
0.0108339
0.0108537
0.0108735
0.0108933
0.0109132
0.0109332
0.0109533
0.0109735
0.010994
0.0110146
0.0110353
0.0110562
0.0110774
0.0110989
0.0111209
0.0111432
0.0111659
0.0111891
0.0112126
0.0112366
0.0112613
0.0112865
0.00982497
0.00983706
0.00985229
0.00987029
0.00989044
0.00991212
0.00993483
0.00995822
0.00998206
0.0100062
0.0100305
0.010055
0.0100796
0.0101042
0.0101289
0.0101536
0.0101783
0.010203
0.0102277
0.0102524
0.0102772
0.0103019
0.0103267
0.0103513
0.010376
0.0104007
0.0104255
0.0104503
0.0104751
0.0105001
0.0105251
0.0105503
0.0105757
0.0106012
0.010627
0.0106531
0.0106793
0.0107057
0.0107322
0.010759
0.0107862
0.0108139
0.010842
0.0108704
0.0108991
0.0109282
0.0109578
0.0109878
0.0110182
0.0110493
0.00998234
0.00992826
0.00988297
0.00984911
0.00982573
0.00981112
0.00980361
0.00980183
0.00980471
0.00981138
0.00982118
0.00983357
0.00984813
0.00986449
0.00988236
0.00990149
0.0099217
0.00994287
0.00996492
0.00998776
0.0100113
0.0100353
0.0100598
0.0100848
0.0101102
0.010136
0.0101623
0.010189
0.0102162
0.0102437
0.0102715
0.0102997
0.0103283
0.0103573
0.0103868
0.0104166
0.0104466
0.0104769
0.0105075
0.0105386
0.0105704
0.0106028
0.0106354
0.0106683
0.0107016
0.0107354
0.0107696
0.0108044
0.0108393
0.0108747
0.0111306
0.0109657
0.0108148
0.0106839
0.0105718
0.0104762
0.0103948
0.0103258
0.0102675
0.0102188
0.0101785
0.0101457
0.0101196
0.0100993
0.010084
0.010073
0.0100659
0.0100624
0.0100622
0.0100652
0.0100708
0.0100785
0.0100881
0.0100993
0.0101122
0.0101269
0.0101434
0.0101615
0.010181
0.0102015
0.010223
0.0102454
0.010269
0.0102936
0.0103192
0.0103456
0.0103727
0.0104007
0.0104298
0.0104601
0.0104915
0.0105237
0.0105562
0.0105896
0.010624
0.0106592
0.0106949
0.010731
0.0107677
0.0108057
0.0126187
0.0124689
0.0123281
0.0121951
0.0120695
0.011951
0.0118385
0.0117315
0.0116301
0.0115343
0.0114451
0.0113626
0.0112863
0.011216
0.0111508
0.0110898
0.011033
0.0109812
0.0109357
0.0108966
0.0108624
0.0108306
0.0107997
0.0107698
0.0107426
0.0107203
0.0107039
0.0106922
0.0106829
0.0106747
0.0106675
0.0106625
0.0106605
0.0106608
0.0106619
0.0106638
0.0106677
0.0106752
0.0106865
0.0107
0.0107143
0.0107285
0.0107436
0.0107607
0.0107809
0.0108014
0.010822
0.010842
0.0108653
0.0108945
0.013108
0.013042
0.0129803
0.0129227
0.012868
0.0128154
0.0127642
0.0127136
0.0126633
0.0126132
0.0125631
0.0125133
0.0124639
0.0124146
0.0123656
0.0123169
0.0122687
0.0122214
0.0121759
0.0121329
0.0120923
0.0120531
0.0120138
0.0119735
0.0119324
0.0118921
0.0118535
0.0118169
0.0117817
0.011747
0.0117131
0.0116805
0.01165
0.0116219
0.0115952
0.011569
0.0115437
0.0115203
0.0114986
0.0114784
0.0114598
0.0114417
0.0114242
0.0114079
0.0113942
0.0113818
0.0113701
0.0113581
0.0113471
0.0113374
0.0131426
0.0131128
0.0130833
0.0130544
0.0130259
0.0129977
0.0129697
0.0129418
0.012914
0.0128862
0.0128585
0.0128309
0.0128033
0.0127757
0.0127481
0.0127205
0.012693
0.0126657
0.0126388
0.0126126
0.0125867
0.012561
0.0125352
0.0125092
0.0124831
0.0124572
0.0124318
0.0124067
0.0123818
0.012357
0.0123323
0.0123081
0.0122843
0.0122609
0.0122378
0.0122149
0.0121926
0.0121708
0.0121495
0.0121285
0.0121076
0.0120868
0.0120664
0.0120466
0.0120272
0.0120082
0.0119895
0.011971
0.0119526
0.0119341
0.0131523
0.0131332
0.0131142
0.0130954
0.0130766
0.013058
0.0130394
0.0130209
0.0130024
0.0129839
0.0129654
0.0129469
0.0129284
0.0129098
0.0128913
0.0128727
0.0128542
0.0128357
0.0128174
0.0127993
0.0127813
0.0127632
0.0127451
0.0127269
0.0127087
0.0126906
0.0126726
0.0126547
0.0126368
0.012619
0.0126012
0.0125835
0.0125659
0.0125484
0.012531
0.0125138
0.0124968
0.01248
0.0124632
0.0124465
0.0124298
0.0124131
0.0123965
0.0123801
0.0123639
0.012348
0.012332
0.0123162
0.0123002
0.0122841
0.0131575
0.0131439
0.0131302
0.0131165
0.0131028
0.013089
0.0130753
0.0130616
0.0130478
0.013034
0.0130202
0.0130063
0.0129924
0.0129784
0.0129645
0.0129505
0.0129365
0.0129225
0.0129086
0.0128948
0.012881
0.0128671
0.0128532
0.0128392
0.0128252
0.0128112
0.0127973
0.0127835
0.0127696
0.0127557
0.0127418
0.0127279
0.0127141
0.0127002
0.0126865
0.0126729
0.0126593
0.0126458
0.0126324
0.0126189
0.0126054
0.0125919
0.0125783
0.0125649
0.0125517
0.0125385
0.0125253
0.0125121
0.0124988
0.0124854
0.0131595
0.013148
0.0131365
0.013125
0.0131136
0.0131022
0.0130909
0.0130795
0.0130681
0.0130568
0.0130454
0.013034
0.0130226
0.0130112
0.0129999
0.0129885
0.0129771
0.0129658
0.0129545
0.0129433
0.012932
0.0129207
0.0129094
0.012898
0.0128867
0.0128754
0.0128642
0.0128529
0.0128417
0.0128305
0.0128192
0.012808
0.0127968
0.0127856
0.0127745
0.0127635
0.0127525
0.0127415
0.0127306
0.0127196
0.0127086
0.0126975
0.0126866
0.0126757
0.0126649
0.0126541
0.0126433
0.0126324
0.0126215
0.0126105
0.0131622
0.0131536
0.0131448
0.0131361
0.0131273
0.0131185
0.0131097
0.0131009
0.013092
0.0130831
0.0130742
0.0130652
0.0130562
0.0130472
0.0130382
0.0130292
0.0130202
0.0130112
0.0130021
0.0129931
0.012984
0.0129749
0.0129658
0.0129566
0.0129474
0.0129382
0.0129291
0.0129199
0.0129107
0.0129015
0.0128922
0.0128829
0.0128737
0.0128644
0.0128552
0.0128459
0.0128367
0.0128275
0.0128182
0.0128089
0.0127996
0.0127903
0.0127809
0.0127716
0.0127623
0.0127529
0.0127435
0.0127341
0.0127246
0.0127152
0.0131618
0.0131528
0.0131437
0.0131347
0.0131258
0.0131169
0.013108
0.013099
0.0130901
0.0130812
0.0130723
0.0130635
0.0130546
0.0130458
0.013037
0.0130282
0.0130194
0.0130107
0.0130019
0.0129932
0.0129845
0.0129758
0.0129671
0.0129583
0.0129496
0.012941
0.0129324
0.0129239
0.0129153
0.0129067
0.0128981
0.0128896
0.0128811
0.0128727
0.0128643
0.012856
0.0128476
0.0128393
0.012831
0.0128228
0.0128147
0.0128066
0.0127986
0.0127906
0.0127828
0.0127751
0.0127677
0.0127605
0.0127537
0.0127475
0.0131649
0.0131594
0.0131541
0.013149
0.013144
0.0131391
0.0131342
0.0131293
0.0131245
0.0131197
0.0131149
0.0131101
0.0131054
0.0131007
0.0130961
0.0130916
0.013087
0.0130826
0.0130782
0.0130738
0.0130694
0.0130651
0.0130609
0.0130566
0.0130525
0.0130485
0.0130446
0.0130407
0.013037
0.0130333
0.0130298
0.0130264
0.0130231
0.0130199
0.0130169
0.013014
0.0130112
0.0130086
0.0130061
0.013004
0.0130021
0.0130005
0.0129993
0.0129988
0.012999
0.0130004
0.0130035
0.0130092
0.0130188
0.0130336
0.013265
0.0133598
0.0134524
0.0135428
0.013631
0.0137173
0.0138015
0.0138839
0.0139642
0.0140427
0.0141193
0.0141941
0.014267
0.0143382
0.0144076
0.0144753
0.0145414
0.014606
0.01468
0.0147564
0.0148303
0.0149003
0.0149673
0.0150316
0.0150935
0.0151537
0.0152132
0.0152729
0.0153334
0.0153954
0.0154593
0.015525
0.015592
0.015659
0.0157256
0.0157922
0.015859
0.0159263
0.0159952
0.0160669
0.0161416
0.0162199
0.016303
0.0163928
0.016492
0.0166049
0.0167406
0.0169246
0.0172183
0.0177093
2.08419
2.02436
1.95653
1.89012
1.82636
1.76524
1.70653
1.64994
1.59523
1.54223
1.49083
1.44096
1.39254
1.34551
1.2998
1.25536
1.21215
1.17014
1.12933
1.08979
1.05153
1.01454
0.978778
0.944233
0.910861
0.878621
0.847471
0.817373
0.788288
0.760179
0.733005
0.706728
0.681315
0.656738
0.632975
0.610007
0.587815
0.566383
0.545701
0.525767
0.506581
0.488147
0.470471
0.453548
0.437377
0.421942
0.407217
0.393169
0.379755
0.366925
1.14672
1.10485
1.06568
1.02898
0.994448
0.961807
0.930797
0.901296
0.873204
0.846429
0.82089
0.796513
0.773229
0.750976
0.729695
0.709335
0.689847
0.671186
0.653312
0.636184
0.619766
0.604023
0.58892
0.574425
0.560506
0.547135
0.534283
0.521924
0.510037
0.498598
0.487587
0.476988
0.466782
0.456952
0.447484
0.438363
0.429576
0.421109
0.412951
0.40506
0.397405
0.389968
0.38273
0.37567
0.36876
0.361972
0.355265
0.348579
0.34181
0.33476
1.12225
1.04687
0.978084
0.915138
0.857531
0.80478
0.756468
0.71213
0.671357
0.633787
0.599102
0.567021
0.537297
0.509712
0.484072
0.460207
0.437963
0.417204
0.397808
0.379663
0.362668
0.346733
0.331771
0.317709
0.304475
0.292006
0.280247
0.269144
0.258651
0.248725
0.239326
0.230418
0.221967
0.213942
0.206312
0.199047
0.192124
0.185517
0.179203
0.173186
0.167456
0.161995
0.156785
0.151807
0.147047
0.142488
0.138115
0.133917
0.129877
0.125979
1.12214
1.04653
0.977322
0.914015
0.85604
0.802879
0.754054
0.709132
0.667727
0.629495
0.594135
0.561377
0.530984
0.502743
0.476467
0.451989
0.429157
0.407837
0.387908
0.369259
0.351789
0.335407
0.32003
0.305582
0.291992
0.279197
0.26714
0.255769
0.245035
0.234895
0.22531
0.216242
0.207656
0.199522
0.191812
0.1845
0.17756
0.170972
0.164712
0.158764
0.153107
0.147724
0.142599
0.137716
0.133061
0.128619
0.124382
0.120338
0.11648
0.112799
1.12215
1.04708
0.978469
0.915686
0.858136
0.805284
0.756662
0.711854
0.670495
0.632257
0.596852
0.564022
0.533536
0.50519
0.4788
0.454201
0.431246
0.409801
0.389746
0.370973
0.353381
0.336881
0.321388
0.306829
0.293132
0.280236
0.268083
0.256621
0.245801
0.235581
0.22592
0.21678
0.208129
0.199932
0.192163
0.184794
0.1778
0.171159
0.164851
0.158855
0.153154
0.14773
0.142566
0.137646
0.132956
0.128482
0.124214
0.12014
0.116254
0.112546
1.12215
1.04711
0.978482
0.915635
0.857995
0.80505
0.756342
0.711464
0.670053
0.631782
0.596361
0.56353
0.533056
0.504732
0.47837
0.453804
0.430884
0.409476
0.389458
0.37072
0.353162
0.336694
0.321233
0.306703
0.293035
0.280166
0.268039
0.256601
0.245804
0.235605
0.225962
0.216839
0.208202
0.200018
0.192259
0.184898
0.17791
0.171274
0.164969
0.158976
0.153277
0.147853
0.142689
0.137768
0.133075
0.128599
0.124325
0.120245
0.11635
0.11263
1.12216
1.04717
0.978632
0.915891
0.858359
0.805517
0.756902
0.712102
0.670754
0.632533
0.59715
0.564346
0.53389
0.505575
0.479216
0.454645
0.431715
0.410292
0.390254
0.371494
0.353912
0.337419
0.321932
0.307376
0.293683
0.280789
0.268638
0.257177
0.246358
0.236137
0.226472
0.217327
0.208668
0.200462
0.19268
0.185296
0.178286
0.171627
0.1653
0.159284
0.153563
0.148119
0.142934
0.137992
0.13328
0.128783
0.124489
0.120388
0.11647
0.112727
1.12216
1.04719
0.978688
0.915964
0.858433
0.805576
0.756933
0.7121
0.670715
0.632459
0.597044
0.564214
0.533736
0.505404
0.479032
0.454453
0.431517
0.41009
0.390052
0.371292
0.353712
0.337223
0.321741
0.307193
0.293508
0.280624
0.268484
0.257033
0.246224
0.236013
0.226358
0.217222
0.20857
0.20037
0.192594
0.185214
0.178207
0.17155
0.165225
0.159211
0.15349
0.148046
0.142861
0.13792
0.133206
0.128708
0.124412
0.120308
0.116385
0.112635
1.12217
1.04722
0.978737
0.916038
0.858528
0.805687
0.757059
0.712239
0.670868
0.632625
0.597224
0.564408
0.533944
0.505624
0.479262
0.454691
0.431761
0.410338
0.3903
0.37154
0.353959
0.337468
0.321984
0.307433
0.293745
0.280858
0.268714
0.257259
0.246445
0.236228
0.226566
0.217422
0.208761
0.200551
0.192764
0.185373
0.178353
0.171684
0.165345
0.159318
0.153584
0.148127
0.142929
0.137974
0.133248
0.128736
0.124426
0.120307
0.116369
0.112603
1.12217
1.04724
0.978775
0.916088
0.858584
0.805743
0.757108
0.712278
0.670893
0.632637
0.597222
0.564393
0.533917
0.505586
0.479214
0.454634
0.431695
0.410264
0.39022
0.371455
0.353871
0.337379
0.321895
0.307346
0.293661
0.280777
0.268636
0.257185
0.246374
0.236159
0.226499
0.217356
0.208696
0.200486
0.192698
0.185305
0.178284
0.171613
0.165271
0.159241
0.153504
0.148043
0.142841
0.137883
0.133153
0.128637
0.124323
0.120198
0.116253
0.112478
1.12218
1.04726
0.978807
0.916131
0.858631
0.80579
0.757153
0.712318
0.67093
0.63267
0.597253
0.564423
0.533946
0.505616
0.479245
0.454665
0.431726
0.410296
0.390253
0.37149
0.353908
0.337419
0.321939
0.307393
0.293712
0.280831
0.268692
0.257241
0.24643
0.236214
0.226552
0.217406
0.208741
0.200527
0.192734
0.185335
0.178308
0.171629
0.16528
0.159242
0.153497
0.148028
0.142818
0.137852
0.133113
0.128588
0.124264
0.120129
0.116173
0.112386
1.12218
1.04727
0.978834
0.916164
0.858666
0.805823
0.75718
0.712338
0.670943
0.632676
0.597253
0.564417
0.533935
0.5056
0.479224
0.454641
0.431699
0.410266
0.390223
0.371461
0.353881
0.337395
0.32192
0.307378
0.293701
0.280823
0.268686
0.257236
0.246425
0.236208
0.226544
0.217396
0.208728
0.200511
0.192714
0.185311
0.17828
0.171596
0.165242
0.159199
0.153448
0.147972
0.142756
0.137782
0.133036
0.128503
0.124171
0.120027
0.116062
0.112265
1.12218
1.04729
0.978855
0.916188
0.858688
0.805839
0.757188
0.712337
0.670932
0.632655
0.597221
0.564375
0.533883
0.505539
0.479154
0.454562
0.431615
0.410178
0.390133
0.371371
0.353794
0.337312
0.321841
0.307304
0.293631
0.280756
0.268622
0.257174
0.246363
0.236146
0.226481
0.217332
0.208664
0.200445
0.192647
0.185243
0.178209
0.171524
0.165167
0.159121
0.153366
0.147887
0.142666
0.137688
0.132937
0.128399
0.12406
0.11991
0.115937
0.112131
1.12219
1.0473
0.978869
0.916201
0.858698
0.805845
0.757191
0.712338
0.670931
0.632654
0.597222
0.564377
0.533887
0.505544
0.479162
0.454573
0.431628
0.410196
0.390157
0.371402
0.353833
0.337358
0.321894
0.307362
0.293693
0.28082
0.268685
0.257235
0.246421
0.2362
0.22653
0.217375
0.208702
0.200477
0.192673
0.185263
0.178223
0.171531
0.165167
0.159112
0.153349
0.147861
0.142631
0.137643
0.132882
0.128333
0.123983
0.11982
0.115835
0.112017
1.12219
1.0473
0.978868
0.916187
0.858667
0.805793
0.757115
0.712235
0.670802
0.632498
0.59704
0.56417
0.533657
0.505293
0.478894
0.454291
0.431338
0.409902
0.389862
0.37111
0.353547
0.33708
0.321625
0.307102
0.293441
0.280576
0.268448
0.257004
0.246195
0.235979
0.226314
0.217164
0.208496
0.200277
0.192478
0.185073
0.178038
0.17135
0.16499
0.158938
0.153178
0.147691
0.142462
0.137474
0.132712
0.128161
0.123809
0.119643
0.115653
0.11183
1.12219
1.0473
0.978858
0.916171
0.858654
0.805791
0.757131
0.712274
0.670863
0.632582
0.597142
0.564288
0.533787
0.505432
0.479038
0.454441
0.431491
0.410058
0.390021
0.371271
0.35371
0.337243
0.321786
0.30726
0.293594
0.280721
0.268584
0.25713
0.24631
0.236081
0.226405
0.217243
0.208564
0.200334
0.192525
0.185109
0.178064
0.171366
0.164995
0.158933
0.153161
0.147663
0.142422
0.137422
0.132647
0.128082
0.123716
0.119535
0.11553
0.111691
1.1222
1.04727
0.978748
0.915967
0.858345
0.805377
0.756617
0.71167
0.670184
0.631839
0.59635
0.563458
0.532931
0.50456
0.47816
0.453564
0.430625
0.409208
0.389194
0.37047
0.352937
0.336501
0.321074
0.306577
0.292938
0.280092
0.26798
0.256549
0.245751
0.235544
0.225888
0.216748
0.208088
0.199877
0.192086
0.184688
0.177659
0.170977
0.164621
0.158572
0.152812
0.147325
0.142093
0.1371
0.132332
0.127773
0.123411
0.119234
0.115231
0.111394
1.1222
1.04726
0.97877
0.916063
0.858535
0.805658
0.756978
0.712093
0.670648
0.632325
0.59684
0.563937
0.533389
0.504991
0.478558
0.453927
0.430953
0.409501
0.389453
0.370698
0.353134
0.336668
0.321211
0.306686
0.293019
0.280146
0.268007
0.256551
0.24573
0.235502
0.225827
0.216669
0.207993
0.199768
0.191965
0.184557
0.177518
0.170828
0.164465
0.15841
0.152645
0.147153
0.141918
0.136923
0.132153
0.127595
0.123237
0.119066
0.115075
0.111255
1.1222
1.04673
0.977653
0.914433
0.856485
0.8033
0.754412
0.709404
0.667902
0.629574
0.594123
0.561285
0.530822
0.502525
0.476205
0.451696
0.428848
0.407526
0.387609
0.368983
0.351546
0.335203
0.319867
0.305456
0.2919
0.279132
0.267096
0.255737
0.245011
0.234874
0.225288
0.216215
0.207624
0.199481
0.191759
0.18443
0.17747
0.170858
0.164574
0.158599
0.152916
0.14751
0.142364
0.137465
0.132799
0.128355
0.124125
0.120103
0.116289
0.11269
1.1223
1.04708
0.978447
0.915598
0.858023
0.805248
0.756869
0.712437
0.671558
0.633882
0.599099
0.566932
0.537136
0.509495
0.483815
0.459925
0.437674
0.416925
0.397554
0.379449
0.362507
0.346632
0.331737
0.317743
0.304576
0.292174
0.280478
0.269439
0.25901
0.249151
0.239825
0.230998
0.222637
0.214714
0.2072
0.200073
0.193309
0.186891
0.180801
0.175025
0.16955
0.164363
0.159454
0.154814
0.150436
0.146318
0.142466
0.138897
0.135653
0.132823
1.14676
1.10497
1.06589
1.02923
0.994713
0.962051
0.930994
0.901431
0.873266
0.846415
0.8208
0.796353
0.773007
0.750703
0.729386
0.709006
0.689514
0.670865
0.653015
0.635918
0.619534
0.603821
0.58874
0.574255
0.560333
0.546946
0.534066
0.521671
0.509738
0.498245
0.487172
0.476499
0.466206
0.456274
0.446685
0.437422
0.42847
0.419816
0.411445
0.403343
0.395496
0.38789
0.380508
0.373336
0.366358
0.359559
0.352923
0.346435
0.340075
0.333819
0.0930596
0.0103357
0.0138075
0.0251166
0.0433321
0.0620268
0.0704111
0.0622139
0.0426849
0.024685
0.0158026
0.0121181
0.00738446
0.00532977
0.00561403
0.00672382
0.010494
0.0233305
0.0764305
0.693418
0.0909358
0.0103462
0.0138244
0.0251843
0.0436049
0.0626946
0.071514
0.0635282
0.0438484
0.0254733
0.0163386
0.0128264
0.00863632
0.00667833
0.00711509
0.00893161
0.0142808
0.0313628
0.0966576
0.709063
0.0888931
0.0103547
0.0138284
0.0252216
0.0438353
0.0633393
0.0726549
0.0649536
0.0451516
0.0263645
0.016927
0.0135735
0.00980363
0.00790344
0.00841436
0.0106884
0.0170842
0.0367839
0.109094
0.726414
0.0869335
0.010361
0.0138187
0.0252268
0.0440201
0.0639578
0.0738325
0.0664923
0.0466015
0.0273667
0.01757
0.0143794
0.0111448
0.00939922
0.0100005
0.0127426
0.0202265
0.0424377
0.121414
0.74378
0.0850591
0.0103651
0.0137947
0.0251982
0.0441561
0.0645451
0.0750437
0.0681462
0.0482046
0.0284879
0.0182644
0.0152085
0.0125583
0.0110707
0.0118006
0.0150201
0.0236
0.048228
0.133483
0.761053
0.0832681
0.010367
0.0137559
0.025134
0.0442391
0.0650953
0.0762843
0.0699164
0.0499695
0.0297393
0.0190121
0.0160367
0.0139872
0.0128302
0.0137431
0.0174554
0.027125
0.0540842
0.145271
0.778189
0.0815595
0.0103664
0.0137017
0.0250321
0.0442648
0.0656023
0.0775488
0.0718032
0.0519042
0.0311335
0.0198189
0.0168468
0.0153873
0.0146011
0.0157549
0.0199755
0.0307147
0.059903
0.15668
0.795175
0.079932
0.0103634
0.0136314
0.0248903
0.044228
0.0660592
0.0788322
0.0738084
0.0540199
0.0326859
0.0206941
0.0176272
0.0167163
0.0163211
0.0177669
0.0225063
0.0342795
0.0655733
0.167585
0.811997
0.078385
0.0103578
0.0135442
0.0247062
0.0441226
0.0664563
0.0801274
0.075934
0.05633
0.034417
0.0216524
0.0183744
0.0179478
0.017942
0.0197186
0.02498
0.0377383
0.070998
0.177887
0.828635
0.0769199
0.0103498
0.0134397
0.0244768
0.0439415
0.0667829
0.0814254
0.0781817
0.0588507
0.0363513
0.022715
0.0190928
0.0190643
0.0194317
0.0215628
0.0273407
0.0410251
0.0761031
0.187522
0.845069
0.0755375
0.0103395
0.0133168
0.0241987
0.0436758
0.0670251
0.0827153
0.0805528
0.0616007
0.0385179
0.0239093
0.0197958
0.0200602
0.0207732
0.0232666
0.0295469
0.0440919
0.080839
0.196466
0.861283
0.0742404
0.010327
0.0131747
0.0238678
0.0433156
0.0671665
0.0839832
0.0830493
0.0646033
0.0409535
0.0252697
0.0205054
0.0209382
0.0219608
0.0248107
0.0315716
0.0469084
0.0851807
0.204728
0.877261
0.0730307
0.0103122
0.0130122
0.0234795
0.0428487
0.0671876
0.08521
0.08567
0.067884
0.0437024
0.0268398
0.021252
0.0217115
0.0230002
0.0261887
0.0334023
0.0494627
0.0891283
0.212352
0.892992
0.0719118
0.0102954
0.0128284
0.0230292
0.0422616
0.0670652
0.0863729
0.0884119
0.0714717
0.0468174
0.0286739
0.0220751
0.0223971
0.0239053
0.027406
0.0350407
0.051761
0.0927077
0.219417
0.908462
0.0708882
0.0102768
0.0126223
0.0225126
0.0415398
0.0667707
0.0874411
0.0912661
0.0753983
0.0503626
0.0308402
0.0230271
0.0230237
0.0246985
0.0284791
0.0365027
0.0538287
0.0959725
0.226041
0.923655
0.0699648
0.0102572
0.0123937
0.0219251
0.040668
0.0662713
0.0883748
0.0942149
0.0796954
0.0544137
0.0334256
0.0241783
0.0236348
0.0254124
0.0294362
0.0378187
0.0557106
0.0990058
0.232384
0.938554
0.0691478
0.0102372
0.0121426
0.0212633
0.0396298
0.0655286
0.0891221
0.0972282
0.0843913
0.059059
0.0365396
0.0256214
0.0242923
0.0260909
0.0303182
0.0390346
0.0574733
0.101924
0.238651
0.953134
0.0684445
0.010218
0.0118698
0.0205249
0.0384088
0.064499
0.0896173
0.100258
0.089506
0.0643981
0.0403185
0.0274776
0.0250845
0.0267939
0.0311815
0.0402146
0.0592081
0.104879
0.245093
0.967368
0.0678624
0.010201
0.0115768
0.0197095
0.0369911
0.0631355
0.089779
0.103232
0.0950423
0.0705388
0.0449303
0.0299038
0.0261283
0.0276003
0.0321014
0.0414448
0.0610356
0.108065
0.252007
0.981217
0.0674095
0.0101881
0.0112664
0.0188198
0.0353663
0.0613885
0.0895087
0.106046
0.100974
0.0775885
0.0505783
0.0331053
0.0275807
0.028614
0.0331781
0.0428401
0.0631128
0.111719
0.259734
0.99463
0.0670948
0.0101815
0.0109429
0.017862
0.0335302
0.0592105
0.0886905
0.108552
0.10723
0.0856405
0.0575019
0.0373512
0.0296558
0.0299778
0.034549
0.0445551
0.0656429
0.116133
0.268651
1.00754
0.066928
0.0101841
0.010612
0.0168471
0.0314877
0.05656
0.0871937
0.110555
0.11367
0.0947511
0.0659695
0.0429917
0.0326505
0.0318943
0.0364063
0.0467993
0.0688876
0.121649
0.279158
1.01987
0.0669194
0.0101992
0.010281
0.0157909
0.0292552
0.0534091
0.0848794
0.111803
0.120063
0.104901
0.0762552
0.0504702
0.0369783
0.0346574
0.0390218
0.049858
0.0731807
0.128669
0.291654
1.0315
0.0670799
0.0102304
0.00995846
0.0147144
0.0268635
0.0497519
0.0816131
0.111991
0.126056
0.115941
0.088588
0.0603135
0.0432052
0.03869
0.0427781
0.0541152
0.0789401
0.137641
0.306515
1.04231
0.0674196
0.0102816
0.00965397
0.0136433
0.02436
0.0456153
0.0772854
0.110776
0.131156
0.127531
0.103067
0.0730831
0.0520832
0.0445913
0.0481999
0.0600752
0.0866737
0.149051
0.324049
1.05211
0.0679485
0.0103564
0.00937759
0.0126072
0.0218092
0.0410696
0.0718396
0.107803
0.134722
0.139063
0.119544
0.0892615
0.064562
0.0533246
0.0559763
0.068373
0.0969704
0.163387
0.344465
1.06071
0.0686758
0.0104584
0.00913922
0.0116374
0.0192896
0.0362354
0.0653045
0.102763
0.135994
0.149608
0.137476
0.109042
0.0815951
0.066773
0.0669538
0.0797587
0.11047
0.181103
0.367822
1.06787
0.0696106
0.0105909
0.00894756
0.0107645
0.016889
0.0312833
0.0578259
0.0954695
0.134168
0.157901
0.155783
0.13204
0.103207
0.0846021
0.0820642
0.0950414
0.127804
0.20255
0.393999
1.07332
0.0707608
0.0107563
0.00880915
0.0100149
0.0146944
0.0264233
0.0496873
0.085951
0.128545
0.162412
0.172785
0.157423
0.129752
0.107878
0.102197
0.11499
0.149512
0.22792
0.422664
1.07674
0.0721331
0.0109563
0.00872736
0.00940768
0.0127817
0.0218817
0.0413049
0.0745376
0.118725
0.161537
0.186102
0.183316
0.160728
0.137119
0.128021
0.140192
0.175942
0.257175
0.453269
1.07776
0.0737317
0.0111915
0.00870179
0.0089523
0.0112047
0.0178675
0.0331845
0.0619004
0.104853
0.153966
0.192859
0.206603
0.194445
0.17217
0.159806
0.170902
0.20714
0.289996
0.485057
1.07594
0.0755578
0.0114616
0.00872829
0.00864707
0.00998832
0.0145362
0.0258393
0.0490034
0.0877904
0.139196
0.190225
0.222938
0.227498
0.212115
0.197768
0.206909
0.242776
0.325756
0.517087
1.07079
0.0776093
0.0117655
0.00879955
0.00847946
0.00912604
0.0119629
0.0196851
0.0369404
0.0691302
0.118031
0.176351
0.227296
0.253977
0.253898
0.243744
0.247452
0.282072
0.363509
0.548269
1.06175
0.079881
0.0121021
0.00890643
0.00842804
0.00858323
0.0101352
0.0149485
0.0266811
0.0509267
0.0928097
0.151543
0.215679
0.265901
0.288284
0.28868
0.29112
0.323783
0.402006
0.577406
1.04817
0.0823647
0.0124705
0.00903947
0.00846598
0.00830432
0.008967
0.0116325
0.0188174
0.0351644
0.0670209
0.118922
0.187418
0.257328
0.307786
0.328985
0.335945
0.366218
0.439755
0.603247
1.02931
0.0850492
0.0128697
0.00919029
0.00856564
0.00822274
0.00832634
0.00955358
0.0134365
0.02316
0.0443157
0.0839411
0.146065
0.224923
0.302085
0.355582
0.380573
0.407285
0.475064
0.624512
1.00427
0.0879193
0.013299
0.0093525
0.00870284
0.00827225
0.0080647
0.00842606
0.0101906
0.015203
0.0272601
0.0528566
0.099874
0.172373
0.262941
0.349942
0.40989
0.444267
0.505968
0.639809
0.971875
0.0909553
0.0137573
0.00952179
0.0088597
0.00839719
0.00804291
0.00794615
0.00851193
0.0106645
0.0164622
0.0301613
0.0591057
0.112449
0.195445
0.300201
0.401444
0.471874
0.529987
0.647405
0.930477
0.0941328
0.014243
0.00969566
0.00902512
0.0085584
0.00815071
0.00784949
0.00782788
0.00848997
0.0107641
0.0167376
0.030833
0.06106
0.118395
0.211146
0.33334
0.45554
0.542134
0.644377
0.877489
0.0974231
0.0147537
0.00987287
0.00919343
0.00873332
0.00831591
0.00794288
0.00768165
0.00768489
0.00831416
0.0103891
0.0157715
0.0285634
0.0568579
0.113615
0.212882
0.356255
0.512158
0.623116
0.808338
0.100795
0.0152868
0.0100529
0.00936237
0.0089116
0.00850071
0.00811161
0.00777307
0.0075361
0.00752836
0.00803187
0.00966626
0.0138192
0.0236466
0.0460322
0.0944014
0.189831
0.350796
0.553952
0.712663
0.104216
0.0158386
0.0102355
0.00953132
0.00908944
0.00868955
0.00830267
0.0079466
0.00763704
0.00742164
0.00740059
0.00778072
0.00897191
0.011811
0.0181033
0.0319546
0.0629959
0.133501
0.288944
0.547328
0.107653
0.0164053
0.0104206
0.00970024
0.00926573
0.00887733
0.00849708
0.00814137
0.00781288
0.00753296
0.007344
0.007339
0.00769384
0.00872138
0.0109524
0.0152517
0.0230029
0.0367039
0.0633351
0.141164
0.111073
0.0169821
0.0106079
0.00986919
0.00944027
0.00906265
0.00868925
0.00833867
0.00800733
0.00770655
0.00745438
0.00729894
0.00733991
0.00777313
0.00896001
0.0115349
0.0165496
0.0255558
0.0404589
0.0640931
0.114447
0.0175641
0.0107972
0.0100382
0.00961301
0.00924527
0.00887778
0.00853308
0.00820389
0.00789784
0.00762131
0.00739862
0.00728444
0.00740188
0.00800783
0.00961778
0.0132728
0.0210409
0.0368351
0.0695436
0.117743
0.0181463
0.0109883
0.0102075
0.00978422
0.00942538
0.00906275
0.00872336
0.00839719
0.00809141
0.00780658
0.00755487
0.00736524
0.00731215
0.00757495
0.00855471
0.011188
0.0176969
0.0333937
0.0734942
0.120937
0.0187238
0.0111808
0.0103774
0.00995453
0.00960352
0.0092447
0.00891001
0.00858634
0.00828215
0.00799491
0.00773062
0.00750488
0.00735991
0.00742136
0.0079921
0.00988605
0.0152818
0.0303945
0.0764328
0.124007
0.0192927
0.0113747
0.010548
0.0101244
0.0097804
0.00942402
0.00909336
0.00877174
0.00846892
0.00818094
0.00791066
0.00766721
0.00747182
0.00741488
0.00771842
0.00908331
0.0135519
0.0278855
0.078756
0.12694
0.01985
0.0115702
0.0107199
0.0102943
0.00995677
0.00960173
0.00927387
0.00895379
0.00865163
0.00836333
0.00808925
0.00783671
0.00761225
0.00748517
0.00761173
0.00859819
0.0123146
0.025827
0.0806671
0.129722
0.0203923
0.0117669
0.0108934
0.0104647
0.0101326
0.00977852
0.00945258
0.00913308
0.00883048
0.0085421
0.00826432
0.00800709
0.00776445
0.00759547
0.00760258
0.0083171
0.0114295
0.0241548
0.0822837
0.132349
0.0209172
0.0119644
0.0110683
0.0106361
0.0103083
0.00995415
0.0096301
0.00931048
0.00900635
0.00871775
0.00843609
0.00817603
0.00792091
0.00772666
0.00765118
0.00816876
0.0107973
0.0228046
0.0836807
0.134814
0.0214236
0.0121628
0.0112443
0.0108087
0.0104849
0.0101293
0.00980648
0.00948626
0.00918052
0.00889081
0.00860556
0.00834339
0.0080787
0.00786889
0.00773461
0.00810827
0.0103485
0.0217189
0.0849124
0.137111
0.0219093
0.0123619
0.0114219
0.010982
0.0106622
0.0103052
0.00998268
0.00966094
0.00935382
0.0090624
0.00877349
0.00850971
0.00823682
0.00801719
0.00783965
0.008107
0.0100346
0.0208497
0.0860191
0.139245
0.0223747
0.0125614
0.0116017
0.0111573
0.01084
0.010482
0.0101595
0.00983589
0.0095267
0.00923371
0.0089407
0.00867565
0.00839523
0.00816917
0.00795863
0.00814648
0.00982133
0.0201595
0.0870313
0.141224
0.0228217
0.0127619