/*--------------------------------*- C++ -*----------------------------------*\
  =========                 |
  \\      /  F ield         | OpenFOAM: The Open Source CFD Toolbox
   \\    /   O peration     | Website:  https://openfoam.org
    \\  /    A nd           | Version:  8
     \\/     M anipulation  |
\*---------------------------------------------------------------------------*/
FoamFile
{
    version     2.0;
    format      ascii;
    class       volScalarField;
    location    "800";
    object      k;
}
// * * * * * * * * * * * * * * * * * * * * * * * * * * * * * * * * * * * * * //

dimensions      [0 2 -2 0 0 0 0];

internalField   nonuniform List<scalar> 
8400
(
0.0439109
0.0427727
0.0416551
0.0405586
0.0394825
0.0384262
0.0373889
0.0363707
0.0353713
0.0343911
0.0334302
0.0324889
0.0315675
0.0306661
0.0297847
0.0289236
0.0280825
0.0272614
0.0264602
0.0256787
0.0249166
0.0241737
0.0234497
0.0227445
0.0220578
0.0213895
0.0207392
0.0201064
0.0194907
0.0188916
0.0183089
0.0177421
0.0171908
0.0166546
0.0161334
0.0156268
0.0151348
0.0146571
0.0141934
0.0137436
0.0133073
0.0128845
0.0124748
0.0120784
0.011695
0.0113248
0.0109682
0.0106256
0.010298
0.00998644
0.00329794
0.0032906
0.00328353
0.00327667
0.00326995
0.00326337
0.00325689
0.00325051
0.00324424
0.00323807
0.00323201
0.00322606
0.00322024
0.00321456
0.00320902
0.00320362
0.00319838
0.00319328
0.00318835
0.00318357
0.00317895
0.00317449
0.00317021
0.00316609
0.0031618
0.00315722
0.00315245
0.00314758
0.00314269
0.00313787
0.00313319
0.00312872
0.00312456
0.00312078
0.00311744
0.00311439
0.00311143
0.00310856
0.00310579
0.0031031
0.00310051
0.00309801
0.00309562
0.00309334
0.00309118
0.00308915
0.00308729
0.00308561
0.00308415
0.003083
0.00291465
0.00291566
0.00291663
0.00291754
0.00291838
0.00291914
0.00291982
0.00292042
0.00292092
0.00292136
0.00292172
0.00292203
0.0029223
0.00292252
0.00292272
0.00292289
0.00292303
0.00292316
0.00292326
0.00292334
0.00292341
0.00292347
0.00292352
0.00292358
0.00292362
0.00292367
0.0029237
0.00292373
0.00292375
0.00292377
0.00292379
0.00292382
0.00292385
0.00292389
0.00292395
0.00292402
0.0029241
0.00292421
0.00292433
0.00292449
0.00292468
0.00292491
0.00292518
0.00292552
0.00292592
0.00292641
0.002927
0.00292773
0.00292861
0.00292973
0.00274972
0.00275206
0.0027544
0.0027567
0.00275893
0.00276105
0.00276308
0.002765
0.00276682
0.00276856
0.00277023
0.00277184
0.00277339
0.0027749
0.00277638
0.00277783
0.00277925
0.00278064
0.00278201
0.00278335
0.00278468
0.002786
0.00278731
0.00278861
0.0027899
0.00279119
0.00279246
0.00279373
0.002795
0.00279626
0.00279753
0.00279879
0.00280007
0.00280135
0.00280265
0.00280395
0.00280527
0.00280661
0.00280798
0.00280938
0.00281082
0.0028123
0.00281383
0.00281542
0.00281707
0.0028188
0.00282062
0.00282254
0.00282461
0.00282684
0.00262792
0.00263159
0.0026352
0.00263871
0.00264213
0.00264542
0.00264859
0.00265163
0.00265457
0.00265742
0.00266018
0.00266288
0.00266552
0.00266811
0.00267066
0.00267318
0.00267566
0.00267812
0.00268054
0.00268294
0.00268532
0.00268768
0.00269003
0.00269237
0.00269469
0.00269701
0.00269932
0.00270163
0.00270393
0.00270623
0.00270854
0.00271085
0.00271317
0.0027155
0.00271783
0.00272016
0.00272252
0.00272492
0.00272734
0.0027298
0.0027323
0.00273483
0.00273742
0.00274006
0.00274275
0.00274551
0.00274834
0.00275125
0.00275426
0.00275742
0.00253445
0.00253881
0.00254324
0.00254766
0.00255201
0.00255626
0.0025604
0.00256441
0.00256833
0.00257214
0.00257588
0.00257954
0.00258315
0.0025867
0.00259021
0.00259368
0.00259711
0.0026005
0.00260386
0.00260719
0.00261049
0.00261377
0.00261702
0.00262026
0.00262349
0.0026267
0.00262992
0.00263314
0.00263636
0.00263958
0.00264281
0.00264605
0.0026493
0.00265255
0.0026558
0.00265907
0.00266239
0.00266574
0.00266912
0.00267254
0.002676
0.00267951
0.00268308
0.00268668
0.00269034
0.00269404
0.00269777
0.00270162
0.00270553
0.00270955
0.0024704
0.0024725
0.00247512
0.0024782
0.00248162
0.00248528
0.00248911
0.00249304
0.00249705
0.0025011
0.00250519
0.0025093
0.00251342
0.00251754
0.00252166
0.00252579
0.0025299
0.002534
0.0025381
0.00254218
0.00254624
0.00255029
0.00255434
0.00255838
0.00256243
0.0025665
0.00257058
0.00257468
0.0025788
0.00258294
0.0025871
0.00259127
0.00259546
0.00259965
0.00260387
0.00260812
0.00261243
0.00261677
0.00262114
0.00262555
0.00263002
0.00263455
0.00263912
0.00264371
0.00264834
0.00265304
0.00265779
0.00266261
0.00266757
0.00267257
0.00249555
0.00248667
0.00247922
0.00247365
0.00246979
0.00246739
0.00246616
0.00246591
0.00246644
0.00246763
0.00246935
0.00247152
0.00247404
0.00247685
0.00247991
0.00248319
0.00248664
0.00249026
0.00249399
0.00249784
0.00250176
0.00250577
0.00250985
0.00251403
0.00251829
0.00252265
0.00252708
0.00253158
0.00253615
0.00254077
0.00254545
0.00255017
0.00255492
0.00255971
0.00256456
0.00256949
0.00257447
0.0025795
0.00258457
0.00258973
0.00259498
0.00260028
0.00260561
0.002611
0.00261644
0.00262194
0.0026276
0.00263325
0.002639
0.00264482
0.00268236
0.00265598
0.00263164
0.00261034
0.00259192
0.00257612
0.00256261
0.00255115
0.00254153
0.00253355
0.002527
0.0025217
0.00251748
0.0025142
0.00251176
0.00251008
0.00250909
0.00250871
0.00250883
0.00250935
0.00251023
0.00251145
0.00251301
0.00251493
0.00251719
0.00251976
0.0025226
0.00252566
0.00252893
0.00253238
0.00253598
0.00253973
0.00254362
0.00254768
0.00255193
0.00255636
0.00256092
0.00256559
0.0025704
0.0025754
0.00258055
0.00258582
0.00259119
0.00259672
0.00260243
0.00260819
0.00261425
0.00262038
0.00262653
0.0026328
0.00291613
0.00289356
0.0028722
0.0028516
0.00283171
0.00281259
0.00279427
0.00277693
0.00276074
0.00274579
0.002732
0.00271914
0.00270705
0.00269569
0.00268517
0.00267568
0.00266726
0.00265975
0.00265285
0.00264628
0.00263993
0.00263396
0.0026286
0.00262399
0.00262015
0.002617
0.00261443
0.00261234
0.00261061
0.00260915
0.00260794
0.00260707
0.00260664
0.0026067
0.00260724
0.00260818
0.00260932
0.00261042
0.00261153
0.00261295
0.00261499
0.00261757
0.00262031
0.002623
0.00262606
0.00262955
0.00263301
0.00263695
0.00264134
0.0026461
0.00299059
0.00298085
0.00297177
0.00296311
0.00295468
0.00294637
0.00293813
0.00292999
0.00292202
0.00291426
0.00290671
0.00289925
0.00289176
0.0028842
0.00287662
0.00286919
0.00286202
0.0028551
0.00284833
0.00284159
0.00283488
0.00282827
0.00282183
0.00281556
0.00280939
0.00280329
0.0027973
0.00279149
0.00278588
0.00278042
0.00277508
0.00276991
0.00276498
0.00276039
0.00275619
0.00275232
0.00274863
0.00274495
0.00274127
0.00273782
0.00273477
0.00273204
0.00272949
0.0027271
0.00272477
0.00272285
0.00272124
0.00271961
0.00271794
0.00271623
0.00299576
0.00299131
0.0029869
0.00298251
0.00297815
0.00297379
0.00296944
0.00296511
0.00296083
0.00295659
0.00295239
0.0029482
0.00294399
0.00293976
0.00293553
0.00293134
0.0029272
0.0029231
0.00291902
0.00291494
0.00291088
0.00290684
0.00290284
0.00289886
0.00289489
0.00289094
0.002887
0.00288309
0.00287921
0.00287536
0.00287154
0.00286777
0.00286407
0.00286044
0.00285689
0.0028534
0.00284995
0.00284652
0.00284312
0.00283982
0.00283662
0.00283349
0.00283037
0.00282731
0.00282428
0.0028213
0.00281836
0.00281549
0.00281258
0.00280966
0.00299721
0.00299434
0.00299147
0.00298861
0.00298576
0.0029829
0.00298005
0.00297721
0.00297438
0.00297156
0.00296875
0.00296593
0.00296311
0.00296027
0.00295744
0.00295463
0.00295183
0.00294904
0.00294625
0.00294346
0.00294068
0.0029379
0.00293512
0.00293235
0.00292958
0.0029268
0.00292403
0.00292126
0.0029185
0.00291574
0.00291301
0.00291029
0.00290759
0.00290491
0.00290225
0.0028996
0.00289697
0.00289434
0.00289174
0.00288917
0.00288663
0.0028841
0.00288157
0.00287902
0.0028765
0.002874
0.00287152
0.00286905
0.00286658
0.00286407
0.002998
0.00299595
0.00299388
0.0029918
0.00298971
0.00298761
0.00298551
0.00298341
0.00298131
0.00297921
0.00297711
0.00297499
0.00297287
0.00297074
0.00296861
0.00296649
0.00296437
0.00296226
0.00296015
0.00295803
0.00295591
0.00295378
0.00295166
0.00294953
0.0029474
0.00294526
0.00294312
0.00294098
0.00293884
0.00293671
0.00293459
0.00293247
0.00293036
0.00292825
0.00292614
0.00292404
0.00292194
0.00291985
0.00291778
0.00291573
0.00291368
0.00291163
0.00290955
0.00290748
0.00290541
0.00290336
0.00290134
0.0028993
0.00289726
0.0028952
0.00299829
0.00299656
0.00299482
0.00299308
0.00299134
0.0029896
0.00298787
0.00298613
0.00298441
0.00298268
0.00298095
0.00297922
0.00297748
0.00297574
0.002974
0.00297228
0.00297056
0.00296885
0.00296713
0.00296541
0.00296369
0.00296197
0.00296024
0.00295852
0.00295679
0.00295505
0.00295332
0.00295159
0.00294987
0.00294816
0.00294645
0.00294474
0.00294303
0.00294132
0.00293961
0.0029379
0.00293621
0.00293452
0.00293285
0.00293119
0.00292952
0.00292784
0.00292615
0.00292447
0.0029228
0.00292114
0.00291949
0.00291785
0.00291618
0.0029145
0.00299871
0.0029974
0.00299608
0.00299475
0.00299342
0.00299208
0.00299074
0.00298939
0.00298805
0.00298669
0.00298533
0.00298397
0.0029826
0.00298122
0.00297985
0.00297849
0.00297712
0.00297576
0.00297438
0.002973
0.00297162
0.00297023
0.00296884
0.00296744
0.00296604
0.00296464
0.00296323
0.00296183
0.00296042
0.00295902
0.00295762
0.00295621
0.00295479
0.00295337
0.00295194
0.00295052
0.00294911
0.0029477
0.00294629
0.00294488
0.00294345
0.00294202
0.00294059
0.00293916
0.00293773
0.00293631
0.00293488
0.00293345
0.002932
0.00293056
0.00299865
0.00299728
0.00299591
0.00299454
0.00299318
0.00299182
0.00299047
0.00298911
0.00298776
0.00298641
0.00298505
0.0029837
0.00298234
0.00298099
0.00297965
0.00297832
0.002977
0.00297567
0.00297434
0.00297301
0.00297168
0.00297036
0.00296903
0.0029677
0.00296637
0.00296505
0.00296373
0.00296242
0.00296112
0.00295982
0.00295852
0.00295721
0.00295591
0.00295461
0.00295332
0.00295205
0.00295078
0.00294952
0.00294826
0.002947
0.00294575
0.00294451
0.00294329
0.00294209
0.00294091
0.00293975
0.00293863
0.00293754
0.00293651
0.00293556
0.00299911
0.00299828
0.00299748
0.0029967
0.00299594
0.00299519
0.00299444
0.0029937
0.00299296
0.00299222
0.00299149
0.00299077
0.00299005
0.00298934
0.00298864
0.00298796
0.00298728
0.0029866
0.00298593
0.00298527
0.00298461
0.00298396
0.00298331
0.00298266
0.00298202
0.0029814
0.00298078
0.00298019
0.00297961
0.00297905
0.0029785
0.00297797
0.00297746
0.00297697
0.00297652
0.00297609
0.00297568
0.0029753
0.00297495
0.00297464
0.00297438
0.00297418
0.00297406
0.00297403
0.00297413
0.00297441
0.00297495
0.0029759
0.00297745
0.00297981
0.00301406
0.00302815
0.00304189
0.00305528
0.00306833
0.00308105
0.00309347
0.00310557
0.00311737
0.00312887
0.00314006
0.00315097
0.0031616
0.00317195
0.00318203
0.00319185
0.00320306
0.00321435
0.00322576
0.00323758
0.00324941
0.00326078
0.00327141
0.00328117
0.00329011
0.00329844
0.00330647
0.00331448
0.00332263
0.00333099
0.0033396
0.00334853
0.00335784
0.00336752
0.0033775
0.00338768
0.00339792
0.00340816
0.00341839
0.00342875
0.00343941
0.00345047
0.00346216
0.00347469
0.00348845
0.00350404
0.00352286
0.00354851
0.00358946
0.00365751
0.0867951
0.0851225
0.0832107
0.0813239
0.0794987
0.0777343
0.0760236
0.0743571
0.0727265
0.0711263
0.0695532
0.0680049
0.0664802
0.0649776
0.0634963
0.0620363
0.0605979
0.0591858
0.0578013
0.0564458
0.0551192
0.0538214
0.0525521
0.0513109
0.050097
0.0489096
0.0477478
0.0466111
0.0454989
0.0444107
0.0433458
0.0423037
0.041284
0.0402864
0.0393109
0.0383577
0.0374272
0.0365194
0.035635
0.0347743
0.0339379
0.0331263
0.0323396
0.031578
0.0308407
0.0301269
0.0294349
0.0287629
0.0281085
0.0274691
0.0589323
0.0574903
0.0561249
0.0548296
0.0535963
0.0524169
0.0512837
0.0501938
0.0491446
0.048134
0.0471602
0.0462213
0.0453157
0.0444417
0.043598
0.0427831
0.0419959
0.0412351
0.0404997
0.0397887
0.039101
0.0384359
0.0377922
0.0371693
0.0365662
0.0359821
0.0354163
0.034868
0.0343365
0.0338212
0.0333214
0.0328367
0.0323666
0.0319105
0.031468
0.0310388
0.0306224
0.0302185
0.0298267
0.0294454
0.029073
0.0287089
0.0283523
0.0280023
0.0276579
0.0273176
0.0269794
0.0266403
0.0262947
0.0259322
0.0580917
0.0554629
0.0530082
0.05071
0.0485593
0.0465466
0.0446638
0.0429
0.0412455
0.0396911
0.0382288
0.0368513
0.0355518
0.0343244
0.0331638
0.032065
0.0310236
0.0300357
0.0290976
0.028206
0.0273578
0.0265503
0.0257808
0.0250469
0.0243464
0.0236771
0.0230372
0.0224248
0.0218383
0.0212761
0.0207368
0.0202191
0.0197217
0.0192435
0.0187831
0.0183396
0.0179117
0.0174985
0.017099
0.0167136
0.0163424
0.0159847
0.0156398
0.0153068
0.0149851
0.014674
0.0143726
0.0140802
0.0137959
0.0135186
0.058088
0.0554505
0.0529797
0.0506674
0.0485019
0.0464723
0.044568
0.042779
0.0410963
0.0395115
0.0380171
0.0366061
0.0352724
0.0340104
0.0328149
0.0316814
0.0306055
0.0295835
0.0286118
0.0276873
0.0268069
0.0259681
0.0251681
0.0244046
0.0236755
0.0229788
0.0223124
0.0216747
0.0210641
0.020479
0.0199181
0.01938
0.0188636
0.0183677
0.0178913
0.0174336
0.0169936
0.0165704
0.0161632
0.0157714
0.0153942
0.015031
0.0146811
0.0143439
0.0140188
0.0137053
0.0134029
0.0131111
0.0128296
0.012558
0.058088
0.0554695
0.0530205
0.0507284
0.0485803
0.0465644
0.0446702
0.0428883
0.0412099
0.0396272
0.0381332
0.0367213
0.0353856
0.0341209
0.032922
0.0317847
0.0307046
0.0296782
0.028702
0.0277728
0.0268877
0.026044
0.0252392
0.024471
0.0237372
0.0230357
0.0223649
0.0217228
0.0211079
0.0205187
0.0199538
0.019412
0.0188919
0.0183926
0.017913
0.017452
0.0170088
0.0165825
0.0161723
0.0157775
0.0153975
0.0150315
0.0146789
0.0143391
0.0140115
0.0136956
0.0133908
0.0130967
0.012813
0.0125391
0.0580881
0.0554701
0.0530203
0.0507257
0.0485743
0.0465548
0.0446574
0.0428725
0.0411919
0.0396076
0.0381126
0.0367003
0.0353647
0.0341005
0.0329025
0.0317662
0.0306875
0.0296626
0.0286879
0.0277602
0.0268767
0.0260345
0.0252312
0.0244644
0.023732
0.0230319
0.0223624
0.0217215
0.0211079
0.0205198
0.019956
0.0194152
0.0188962
0.0183977
0.0179188
0.0174585
0.0170158
0.01659
0.0161802
0.0157857
0.0154059
0.01504
0.0146875
0.0143477
0.01402
0.0137039
0.0133988
0.0131043
0.01282
0.0125454
0.0580881
0.0554717
0.0530251
0.0507344
0.0485873
0.0465724
0.0446791
0.0428981
0.0412208
0.0396393
0.0381466
0.0367361
0.0354019
0.0341387
0.0329414
0.0318056
0.030727
0.029702
0.028727
0.0277989
0.0269148
0.0260719
0.0252679
0.0245003
0.023767
0.0230661
0.0223956
0.0217539
0.0211393
0.0205504
0.0199858
0.0194441
0.0189241
0.0184247
0.0179448
0.0174835
0.0170398
0.0166128
0.0162019
0.0158063
0.0154253
0.0150582
0.0147045
0.0143634
0.0140345
0.013717
0.0134106
0.0131146
0.0128287
0.0125525
0.0580882
0.0554722
0.0530264
0.0507363
0.0485894
0.0465741
0.0446801
0.042898
0.0412194
0.0396366
0.0381425
0.0367307
0.0353955
0.0341313
0.0329332
0.0317968
0.0307178
0.0296924
0.0287172
0.027789
0.0269048
0.026062
0.025258
0.0244906
0.0237576
0.0230569
0.0223868
0.0217455
0.0211314
0.020543
0.0199788
0.0194375
0.0189179
0.0184189
0.0179394
0.0174783
0.0170348
0.016608
0.0161972
0.0158016
0.0154206
0.0150535
0.0146997
0.0143585
0.0140294
0.0137118
0.013405
0.0131087
0.0128224
0.0125456
0.0580882
0.0554726
0.0530274
0.0507383
0.0485923
0.0465779
0.0446848
0.0429036
0.0412259
0.0396438
0.0381505
0.0367395
0.0354049
0.0341414
0.032944
0.0318081
0.0307295
0.0297045
0.0287296
0.0278015
0.0269175
0.0260747
0.0252708
0.0245033
0.0237703
0.0230696
0.0223994
0.021758
0.0211437
0.0205551
0.0199907
0.0194491
0.0189292
0.0184298
0.0179498
0.0174882
0.0170442
0.0166168
0.0162053
0.0158089
0.0154271
0.0150592
0.0147045
0.0143625
0.0140324
0.0137138
0.013406
0.0131086
0.0128211
0.012543
0.0580883
0.0554729
0.0530281
0.0507394
0.0485937
0.0465796
0.0446865
0.0429052
0.0412271
0.0396446
0.0381508
0.0367392
0.0354041
0.03414
0.032942
0.0318056
0.0307266
0.0297012
0.0287259
0.0277975
0.0269132
0.0260702
0.0252661
0.0244986
0.0237655
0.0230649
0.0223948
0.0217535
0.0211393
0.0205508
0.0199864
0.019445
0.0189251
0.0184257
0.0179457
0.017484
0.0170398
0.0166123
0.0162006
0.015804
0.015422
0.0150538
0.0146987
0.0143563
0.0140259
0.0137068
0.0133986
0.0131006
0.0128125
0.0125337
0.0580883
0.0554731
0.0530286
0.0507402
0.0485949
0.0465809
0.044688
0.0429067
0.0412287
0.0396462
0.0381524
0.0367408
0.0354057
0.0341417
0.0329438
0.0318074
0.0307284
0.0297031
0.0287278
0.0277995
0.0269152
0.0260723
0.0252683
0.0245009
0.023768
0.0230675
0.0223975
0.0217563
0.0211422
0.0205537
0.0199893
0.0194477
0.0189277
0.0184281
0.0179479
0.0174859
0.0170414
0.0166135
0.0162013
0.0158043
0.0154217
0.0150529
0.0146973
0.0143543
0.0140231
0.0137033
0.0133943
0.0130956
0.0128065
0.0125268
0.0580884
0.0554733
0.053029
0.0507408
0.0485956
0.0465817
0.0446888
0.0429075
0.0412293
0.0396467
0.0381526
0.0367409
0.0354056
0.0341414
0.0329433
0.0318067
0.0307276
0.029702
0.0287266
0.0277982
0.0269139
0.0260711
0.0252671
0.0244999
0.023767
0.0230667
0.0223968
0.0217556
0.0211416
0.020553
0.0199886
0.019447
0.0189269
0.0184271
0.0179466
0.0174845
0.0170397
0.0166114
0.016199
0.0158016
0.0154185
0.0150493
0.0146932
0.0143495
0.0140178
0.0136974
0.0133877
0.0130882
0.0127984
0.0125178
0.0580884
0.0554734
0.0530292
0.050741
0.0485959
0.046582
0.0446889
0.0429073
0.0412289
0.0396459
0.0381515
0.0367394
0.0354037
0.0341391
0.0329405
0.0318036
0.030724
0.0296982
0.0287225
0.0277939
0.0269095
0.0260666
0.0252627
0.0244955
0.0237628
0.0230626
0.0223928
0.0217517
0.0211377
0.0205492
0.0199848
0.0194431
0.0189229
0.0184231
0.0179425
0.0174802
0.0170353
0.0166068
0.0161942
0.0157965
0.0154132
0.0150436
0.0146871
0.0143431
0.0140109
0.01369
0.0133798
0.0130796
0.0127892
0.0125078
0.0580884
0.0554735
0.0530293
0.050741
0.0485958
0.0465818
0.0446888
0.0429072
0.0412289
0.039646
0.0381518
0.0367398
0.0354043
0.0341398
0.0329414
0.0318046
0.0307252
0.0296995
0.028724
0.0277956
0.0269114
0.0260688
0.0252652
0.0244982
0.0237657
0.0230656
0.0223959
0.0217549
0.0211409
0.0205522
0.0199876
0.0194457
0.0189252
0.0184251
0.0179442
0.0174815
0.0170362
0.0166073
0.0161942
0.015796
0.0154122
0.015042
0.0146848
0.0143401
0.0140071
0.0136854
0.0133743
0.0130732
0.0127817
0.0124993
0.0580885
0.0554734
0.0530289
0.0507401
0.0485942
0.0465795
0.0446855
0.042903
0.0412235
0.0396396
0.0381442
0.0367312
0.0353945
0.034129
0.0329297
0.031792
0.0307119
0.0296856
0.0287097
0.0277811
0.0268968
0.0260542
0.0252507
0.0244839
0.0237517
0.0230518
0.0223824
0.0217416
0.0211278
0.0205393
0.0199749
0.0194331
0.0189128
0.0184128
0.0179321
0.0174696
0.0170244
0.0165957
0.0161826
0.0157845
0.0154007
0.0150305
0.0146733
0.0143284
0.0139953
0.0136733
0.0133619
0.0130604
0.0127685
0.0124855
0.0580885
0.0554732
0.0530282
0.0507392
0.0485934
0.0465791
0.0446859
0.0429044
0.041226
0.0396431
0.0381488
0.0367366
0.0354007
0.0341358
0.0329368
0.0317995
0.0307196
0.0296935
0.0287177
0.0277891
0.0269049
0.0260622
0.0252587
0.0244919
0.0237595
0.0230594
0.0223897
0.0217485
0.0211342
0.0205452
0.0199803
0.0194379
0.018917
0.0184164
0.017935
0.0174719
0.017026
0.0165967
0.0161829
0.0157841
0.0153996
0.0150286
0.0146706
0.0143249
0.0139908
0.0136678
0.0133553
0.0130527
0.0127596
0.0124753
0.0580885
0.0554718
0.053024
0.0507314
0.0485815
0.0465629
0.0446655
0.04288
0.0411981
0.0396122
0.0381152
0.0367009
0.0353632
0.0340969
0.0328971
0.0317591
0.0306789
0.0296527
0.0286771
0.027749
0.0268654
0.0260236
0.025221
0.0244551
0.0237237
0.0230246
0.0223558
0.0217156
0.0211022
0.0205141
0.0199499
0.0194084
0.0188883
0.0183884
0.0179078
0.0174454
0.0170002
0.0165715
0.0161584
0.0157602
0.0153762
0.0150056
0.014648
0.0143026
0.0139688
0.0136459
0.0133335
0.0130309
0.0127377
0.0124533
0.0580885
0.0554714
0.0530246
0.0507348
0.0485884
0.0465736
0.0446796
0.0428969
0.0412171
0.0396325
0.0381362
0.036722
0.0353839
0.0341168
0.0329157
0.0317764
0.0306947
0.029667
0.0286899
0.0277603
0.0268752
0.0260319
0.0252278
0.0244606
0.0237278
0.0230273
0.0223572
0.0217156
0.021101
0.0205117
0.0199464
0.0194037
0.0188826
0.0183818
0.0179003
0.0174371
0.0169912
0.0165618
0.0161481
0.0157494
0.0153649
0.014994
0.014636
0.0142903
0.0139563
0.0136334
0.0133211
0.0130188
0.0127263
0.0124431
0.0580885
0.0554526
0.0529842
0.0506744
0.048511
0.0464825
0.0445784
0.0427888
0.0411045
0.0395176
0.0380206
0.036607
0.0352706
0.034006
0.0328081
0.0316725
0.0305949
0.0295716
0.0285992
0.0276744
0.0267943
0.0259561
0.0251571
0.0243949
0.0236671
0.0229716
0.0223064
0.0216697
0.0210598
0.0204753
0.0199147
0.0193768
0.0188603
0.0183643
0.0178875
0.0174291
0.0169882
0.0165638
0.0161553
0.015762
0.0153832
0.0150183
0.0146667
0.0143281
0.0140019
0.0136877
0.0133852
0.0130946
0.012816
0.0125502
0.0580921
0.055465
0.0530129
0.0507175
0.048569
0.0465577
0.0446752
0.0429107
0.0412545
0.0396978
0.0382328
0.0368524
0.0355502
0.0343203
0.0331574
0.0320568
0.0310141
0.0300254
0.0290872
0.0281962
0.0273492
0.0265435
0.0257764
0.0250453
0.0243479
0.0236821
0.0230458
0.0224373
0.021855
0.0212973
0.0207629
0.0202507
0.0197595
0.0192882
0.0188361
0.018402
0.0179854
0.0175855
0.0172017
0.0168335
0.0164806
0.0161427
0.0158194
0.0155108
0.0152168
0.0149378
0.0146746
0.0144286
0.0142032
0.0140051
0.058933
0.0574918
0.0561277
0.0548336
0.0536012
0.052422
0.0512884
0.0501974
0.0491467
0.0481344
0.0471585
0.0462175
0.0453097
0.0444337
0.0435883
0.042772
0.0419838
0.0412225
0.040487
0.0397762
0.039089
0.0384243
0.0377812
0.0371586
0.0365554
0.0359709
0.0354043
0.0348546
0.0343213
0.0338037
0.0333012
0.0328131
0.032339
0.0318781
0.03143
0.030994
0.0305698
0.0301567
0.0297544
0.0293623
0.0289799
0.0286069
0.0282425
0.0278863
0.0275376
0.0271957
0.0268601
0.0265299
0.0262041
0.0258816
0.0111029
0.00256153
0.00311978
0.00466223
0.006711
0.00851416
0.00924131
0.00847936
0.00657973
0.00457967
0.0033973
0.00273975
0.00179633
0.00149927
0.00155451
0.00170264
0.00224315
0.00380144
0.00861279
0.0422398
0.0109311
0.00256375
0.0031241
0.00467365
0.00674228
0.00857625
0.00933449
0.00859087
0.00668934
0.00466994
0.00347156
0.00284011
0.00197986
0.00166925
0.00174124
0.00199047
0.0027064
0.00465388
0.0102325
0.0428968
0.0107648
0.00256563
0.00312651
0.00468143
0.00676942
0.0086364
0.00943078
0.00871155
0.00681171
0.00477155
0.00355469
0.00295507
0.00218082
0.00183987
0.00191961
0.00223231
0.00305889
0.00522584
0.0112083
0.0436123
0.0106037
0.00256711
0.00312683
0.00468531
0.00679202
0.00869421
0.00952999
0.00884151
0.00694712
0.00488453
0.00364476
0.00307746
0.00239225
0.00206203
0.00214855
0.00251989
0.00345529
0.00581703
0.0121641
0.0443237
0.0104484
0.0025682
0.00312498
0.004685
0.00680971
0.00874931
0.00963198
0.008981
0.00709643
0.0050103
0.00374298
0.00320872
0.00262074
0.00232149
0.00241646
0.00284141
0.00388017
0.00641787
0.0130931
0.0450271
0.0102991
0.00256887
0.00312081
0.00468029
0.00682209
0.00880122
0.00973638
0.00912993
0.00725977
0.00514899
0.00384806
0.00334358
0.0028566
0.00260245
0.00271088
0.00318632
0.00432255
0.00702157
0.0139947
0.0457208
0.0101555
0.00256911
0.00311422
0.00467084
0.00682866
0.00884951
0.00984297
0.00928857
0.00743808
0.00530177
0.00396014
0.0034783
0.00309117
0.0028904
0.0030191
0.00354352
0.00477133
0.00761817
0.0148622
0.0464045
0.0100179
0.00256889
0.00310509
0.00465633
0.00682887
0.00889345
0.00995116
0.00945684
0.00763197
0.00546989
0.0040797
0.00361022
0.00331654
0.00317323
0.00332953
0.00390235
0.00521572
0.00819743
0.0156877
0.0470774
0.00988625
0.00256821
0.00309328
0.0046364
0.00682206
0.00893232
0.0100605
0.00963481
0.00784232
0.00565483
0.00420788
0.00373796
0.00352873
0.00344253
0.00363254
0.00425352
0.00564646
0.00875087
0.0164649
0.047739
0.0097608
0.00256707
0.00307866
0.00461063
0.00680744
0.00896513
0.0101703
0.00982243
0.00807012
0.00585847
0.0043463
0.00386088
0.00372451
0.00369285
0.00392092
0.00458973
0.0060564
0.00927235
0.0171907
0.0483884
0.00964171
0.00256547
0.00306103
0.00457848
0.00678408
0.00899069
0.0102796
0.0100197
0.00831638
0.00608297
0.00449736
0.00397964
0.00390227
0.00392115
0.00418976
0.00490569
0.00644052
0.00975797
0.0178639
0.049025
0.00952925
0.00256342
0.00304023
0.00453937
0.00675093
0.00900768
0.0103874
0.0102267
0.00858254
0.00633098
0.0046642
0.00409602
0.00406212
0.0041264
0.0044362
0.00519807
0.00679577
0.0102059
0.0184856
0.0496482
0.00942368
0.00256091
0.00301606
0.00449266
0.00670667
0.00901441
0.0104922
0.0104429
0.00887006
0.00660567
0.00485081
0.00421294
0.00420507
0.00430911
0.00465917
0.00546529
0.00712092
0.010616
0.0190587
0.0502576
0.00932543
0.00255797
0.00298833
0.00443763
0.00664982
0.0090088
0.0105923
0.010668
0.00918052
0.0069107
0.0050621
0.00433452
0.00433307
0.00447095
0.00485916
0.00570739
0.00741649
0.0109905
0.019588
0.0508527
0.00923496
0.00255468
0.00295686
0.00437357
0.00657873
0.00898841
0.0106853
0.010901
0.00951556
0.00725035
0.00530408
0.00446638
0.0044494
0.00461468
0.00503796
0.00592591
0.00768466
0.0113329
0.0200798
0.0514332
0.00915276
0.00255111
0.00292152
0.00429971
0.0064915
0.00895032
0.0107682
0.0111405
0.0098767
0.0076295
0.00558398
0.00461587
0.00455886
0.00474416
0.00519867
0.00612383
0.00792928
0.0116492
0.0205429
0.0519985
0.00907949
0.00254739
0.00288224
0.00421529
0.00638608
0.00889105
0.0108371
0.0113842
0.0102651
0.00805348
0.00591039
0.00479235
0.00466798
0.00486435
0.00534565
0.00630561
0.00815594
0.0119472
0.0209879
0.052548
0.00901578
0.00254368
0.00283905
0.00411968
0.0062603
0.00880656
0.0108871
0.0116286
0.0106813
0.00852794
0.00629333
0.00500748
0.0047857
0.0049817
0.00548475
0.00647733
0.00837216
0.0122372
0.0214276
0.0530809
0.00896237
0.00254023
0.0027921
0.00401239
0.00611197
0.00869224
0.0109121
0.0118685
0.0111244
0.00905846
0.00674429
0.00527557
0.004924
0.00510459
0.00562365
0.00664701
0.00858771
0.0125318
0.021877
0.053596
0.00892005
0.00253733
0.00274172
0.00389323
0.00593902
0.00854303
0.0109043
0.0120968
0.0115916
0.00964998
0.00727613
0.00561406
0.00509868
0.00524381
0.00577231
0.00682505
0.00881496
0.0128466
0.0223529
0.054092
0.00888967
0.00253536
0.00268848
0.00376239
0.00573968
0.00835343
0.0108548
0.0123033
0.0120773
0.0103059
0.00790267
0.00604388
0.00533019
0.00541346
0.00594378
0.00702496
0.00906947
0.0131999
0.0228738
0.054567
0.00887211
0.00253478
0.00263318
0.00362065
0.00551277
0.00811792
0.0107526
0.0124748
0.0125718
0.0110267
0.00863771
0.00658961
0.00564493
0.00563238
0.00615543
0.00726426
0.00937053
0.0136129
0.0234589
0.0550185
0.00886829
0.00253612
0.00257694
0.00346941
0.00525803
0.00783127
0.0105856
0.0125942
0.0130598
0.0118077
0.00949317
0.00727886
0.00607627
0.00592612
0.00643047
0.00756561
0.00974167
0.0141092
0.0241269
0.0554432
0.0088791
0.00253998
0.00252111
0.00331092
0.00497651
0.00748928
0.0103407
0.0126403
0.0135189
0.0126362
0.0104758
0.00814025
0.0066649
0.00632865
0.00679939
0.00795774
0.0102107
0.014714
0.024895
0.055837
0.00890541
0.00254697
0.00246734
0.00314835
0.0046711
0.00708964
0.0100049
0.0125881
0.0139182
0.0134887
0.0115828
0.00919899
0.0074578
0.00688323
0.0073008
0.00847563
0.010809
0.0154526
0.0257765
0.0561949
0.00894803
0.00255772
0.00241743
0.00298576
0.00434683
0.00663307
0.00956703
0.0124096
0.014218
0.0143273
0.0127955
0.0104698
0.00850583
0.00764526
0.00798048
0.00915946
0.0115698
0.016348
0.0267791
0.0565106
0.0090077
0.00257283
0.00237325
0.00282804
0.00401128
0.00612457
0.00901961
0.0120766
0.0143696
0.015097
0.0140742
0.0119463
0.0098568
0.00873089
0.00888769
0.0100512
0.0125248
0.0174182
0.0279032
0.0567767
0.00908503
0.00259281
0.00233657
0.00268058
0.00367449
0.00557452
0.00836208
0.0115642
0.0143186
0.015725
0.0153515
0.013585
0.0114885
0.0101499
0.0100676
0.0111885
0.0136996
0.018673
0.0291406
0.0569843
0.00918051
0.00261803
0.0023088
0.00254878
0.00334857
0.00499942
0.0076037
0.0108562
0.0140099
0.0161225
0.0165326
0.0153172
0.0133623
0.0118537
0.0115504
0.0125978
0.0151086
0.0201112
0.0304734
0.0571231
0.0092944
0.0026487
0.00229085
0.00243743
0.00304673
0.00442171
0.00676622
0.00995192
0.0133972
0.0161908
0.0174913
0.0170383
0.0154347
0.0138653
0.013343
0.0142868
0.0167512
0.0217187
0.0318751
0.057181
0.00942676
0.00268484
0.00228294
0.00235
0.00278168
0.00386821
0.00588505
0.00887301
0.012455
0.0158344
0.0180729
0.0185868
0.0175965
0.0161348
0.0154233
0.01624
0.0186087
0.0234684
0.0333115
0.0571436
0.00957736
0.00272633
0.00228455
0.00228802
0.00256374
0.0033671
0.00500768
0.00766807
0.0111938
0.0149822
0.0181121
0.0197484
0.0196737
0.0185817
0.0177489
0.0184172
0.0206441
0.0253208
0.0347423
0.0569943
0.00974572
0.00277291
0.00229454
0.00225077
0.00239889
0.00294337
0.00418842
0.00641255
0.00967163
0.0136152
0.0174649
0.0202676
0.0214007
0.0210789
0.0203908
0.0207555
0.0228035
0.0272256
0.0361235
0.0567139
0.00993109
0.00282431
0.00231129
0.00223538
0.00228752
0.00261396
0.00347934
0.00520089
0.00799918
0.0117932
0.0160581
0.0198926
0.022386
0.0232038
0.0230106
0.0231715
0.0250178
0.0291243
0.0374085
0.0562795
0.0101325
0.00288023
0.00233305
0.00223747
0.00222432
0.00238384
0.00291931
0.00413
0.00632859
0.00966885
0.0139437
0.0184829
0.0223017
0.0245765
0.0252959
0.0255642
0.0272058
0.0309522
0.0385498
0.0556639
0.0103486
0.00294039
0.00235821
0.00225201
0.00219966
0.00224505
0.00252444
0.0032771
0.00482557
0.00747331
0.0113176
0.0160491
0.0208795
0.0247612
0.0269692
0.0278382
0.0292775
0.0326414
0.0395005
0.0548337
0.0105778
0.00300451
0.00238547
0.00227434
0.00220205
0.00217935
0.00228443
0.00267904
0.00362846
0.00547424
0.00852009
0.0128328
0.0180344
0.0232414
0.0273418
0.0297196
0.0311297
0.0341189
0.040211
0.053745
0.0108183
0.00307233
0.00241395
0.00230086
0.00222077
0.00216384
0.00216734
0.0023227
0.0028061
0.00390067
0.00596865
0.00933554
0.0140802
0.0197994
0.0255134
0.0299768
0.0326086
0.0352969
0.0406214
0.0523362
0.0110678
0.00314353
0.00244315
0.00232921
0.00224773
0.00217734
0.00213178
0.00215399
0.00233768
0.00286224
0.00401831
0.00619158
0.00976061
0.0148826
0.021204
0.0276701
0.0328012
0.0360292
0.0406389
0.0505116
0.0113241
0.00321773
0.00247279
0.00235815
0.00227795
0.00220449
0.00214035
0.0021028
0.00213166
0.00231414
0.00281746
0.0039223
0.00603019
0.00960041
0.0149575
0.0219419
0.0295079
0.0357299
0.040041
0.0481043
0.0115846
0.00329448
0.00250277
0.00238713
0.00230899
0.00223658
0.00216777
0.00210943
0.00207567
0.00210038
0.0022549
0.00267677
0.00360682
0.00542636
0.00866066
0.013877
0.0213442
0.0303019
0.0380375
0.0447722
0.0118469
0.00337325