/*--------------------------------*- C++ -*----------------------------------*\
  =========                 |
  \\      /  F ield         | OpenFOAM: The Open Source CFD Toolbox
   \\    /   O peration     | Website:  https://openfoam.org
    \\  /    A nd           | Version:  8
     \\/     M anipulation  |
\*---------------------------------------------------------------------------*/
FoamFile
{
    version     2.0;
    format      ascii;
    class       volScalarField;
    location    "800";
    object      p;
}
// * * * * * * * * * * * * * * * * * * * * * * * * * * * * * * * * * * * * * //

dimensions      [1 -1 -2 0 0 0 0];

internalField   nonuniform List<scalar> 
8400
(
40559.5
78673.8
116636
152785
186928
218887
248625
276218
301812
325596
347756
368460
387843
406011
423060
439077
454167
468458
482096
495218
507929
520299
532367
544174
555777
567248
578655
590049
601459
612911
624450
636138
648038
660188
672610
685349
698498
712198
726633
742016
758596
776698
796770
819484
845758
876553
913122
959750
1.02773e+06
1.12487e+06
36712.4
73841.7
111894
148383
182839
215021
244889
272535
298125
321860
343938
364530
383779
401795
418672
434506
449411
463524
476994
489950
502483
514650
526487
538039
549368
560548
571641
582683
593691
604692
615736
626886
638187
649656
661303
673165
685328
697907
711026
724822
739465
755161
772192
790964
812004
835776
862788
894862
936606
992224
44474.6
84943.7
124421
161500
196160
228317
258013
285396
310673
334074
355815
376084
395033
412784
429442
445111
459920
474007
487512
500549
513203
525523
537556
549359
561003
572560
584081
595591
607109
618676
630351
642197
654253
666544
679108
692013
705359
719245
733779
749096
765383
782868
801840
822686
845848
871739
900828
933976
972297
1.01545e+06
35933.4
75065.9
115032
152932
188226
220747
250574
277906
303001
326123
347517
367389
385912
403223
419444
434694
449105
462813
475942
488593
500838
512728
524312
535647
546797
557818
568742
579586
590374
601146
611956
622849
633857
645010
656358
667962
679874
692131
704791
717955
731773
746427
762145
779215
797963
818748
842043
868394
898061
931258
46208.8
90445
132689
171567
207177
239621
269139
296036
320633
343234
364110
383484
401547
418454
434342
449345
463591
477209
490312
502995
515326
527361
539152
550754
562221
573594
584898
596150
607380
618626
629932
641338
652880
664607
676577
688832
701380
714226
727418
741047
755226
770077
785748
802408
820226
839398
860174
882652
906809
932680
37865.5
81736.7
125001
164806
200888
233417
262761
289328
313502
335625
355987
374834
392371
408775
424193
438763
452612
465855
478596
490925
502911
514609
526069
537338
548458
559462
570374
581217
592021
602823
613659
624564
635588
646788
658209
669865
681744
693859
706274
719087
732385
746268
760870
776338
792804
810421
829369
849516
870679
893105
46670.7
96197.3
141880
182493
218572
250697
279462
305392
328925
350426
370197
388495
405538
421512
436575
450858
464482
477555
490177
502433
514392
526106
537616
548958
560160
571248
582246
593178
604070
614949
625844
636793
647842
659038
670400
681922
693595
705449
717552
729967
742748
755970
769745
784184
799383
815438
832460
850414
869079
888676
41736.2
93082.6
140042
181027
216873
248490
276658
301986
324944
345903
365169
382999
399618
415214
429943
443935
457304
470153
482582
494674
506500
518107
529531
540796
551928
562949
573884
584758
595595
606418
617258
628149
639131
650232
661464
672827
684340
696053
708024
720302
732939
746015
759620
773829
788717
804371
820802
838070
856010
874743
48173.2
104716
152463
192976
228020
258836
286300
311026
333468
353982
372861
390356
406688
422038
436556
450365
463575
476286
488595
500584
512320
523849
535197
546384
557430
568356
579187
589947
600662
611357
622060
632799
643600
654482
665460
676549
687783
699207
710871
722824
735124
747846
761071
774862
789285
804428
820321
837017
854455
872627
47724
106390
153370
193104
227472
257722
284726
309082
331222
351484
370150
387466
403643
418860
433262
446975
460106
472758
485023
496983
508700
520217
531562
542755
553816
564765
575623
586415
597169
607914
618678
629484
640352
651301
662352
673527
684855
696381
708152
720218
732634
745474
758812
772717
787254
802491
818490
835287
852853
871162
45827.6
104892
153618
194042
228798
259391
286673
311243
333557
353974
372786
390243
406553
421886
436383
450165
463347
476037
488336
500328
512071
523603
534951
546139
557190
568129
578975
589752
600485
611201
621923
632673
643473
654342
665306
676392
687637
699088
710782
722763
735089
747843
761103
774940
789425
804610
820562
837326
854921
873282
24306.8
88435.3
142363
184882
220580
251847
279589
304416
326866
347369
366261
383801
400193
415594
430136
443937
457118
469803
482104
494109
505875
517436
528819
540051
551161
562172
573102
583969
594788
605579
616363
627163
638007
648920
659933
671079
682404
693950
705745
717826
730260
743138
756543
770535
785173
800507
816588
833446
851094
869373
26594.8
83186.1
139825
185529
223059
255699
284618
310373
333534
354620
374023
392024
408820
424556
439349
453315
466586
479300
491585
503539
515229
526699
537990
549143
560195
571170
582080
592929
603724
614472
625190
635906
646656
657475
668397
679461
690708
702172
713883
725891
738274
751121
764502
778459
793013
808202
824039
840525
857612
875061
-13937
46316.4
107149
155543
194769
228768
258938
285778
309853
331760
351962
370769
388371
404893
420428
435076
448959
462216
474971
487324
499347
511102
522655
534073
545408
556689
567925
579111
590241
601315
612347
623369
634421
645542
656761
668111
679619
691319
703253
715485
728093
741150
754698
768747
783285
798316
813805
829707
845912
862126
17707.5
62034.2
123390
175582
217084
252458
283610
311030
335279
357057
376950
395355
412520
428599
443702
457935
471417
484270
496598
508475
519960
531124
542051
552831
563534
574200
584840
595457
606048
616620
627199
637826
648544
659385
670365
681503
692824
704369
716192
728356
740915
753902
767323
781129
795280
809696
824271
838785
852929
865997
-62775.8
-2344.17
65284
119478
162885
200661
234524
264618
291296
315206
336962
357015
375684
393195
409723
425425
440446
454901
468850
482311
495294
507833
519999
531874
543523
554986
566284
577436
588464
599407
610321
621269
632299
643440
654718
666168
677835
689778
702063
714742
727842
741354
755244
769412
783785
798189
812370
825877
838158
848578
16613.2
51088.9
114146
167936
210060
246629
279529
308620
334031
356303
376025
393705
409771
424596
438519
451851
464853
477700
490450
503060
515461
527611
539503
551139
562515
573619
584452
595038
605427
615689
625899
636120
646396
656770
667302
678069
689145
700595
712479
724829
737650
750921
764581
778534
792620
806605
819942
831725
840367
842602
-121315
-36385.1
45445.5
103316
150142
192579
231323
265880
296210
322669
345731
365886
383633
399482
413959
427582
440823
454041
467395
480846
494305
507696
520947
533979
546704
559050
570989
582541
593765
604729
615491
626098
636607
647107
657722
668576
679767
691366
703420
715947
728947
742412
756283
770526
784957
799349
813068
824907
832624
834109
8843.23
44155.5
84074.2
122695
161803
201391
239654
274940
306424
333953
357736
378151
395660
410793
424134
436309
447941
459627
471655
483989
496576
509374
522285
535164
547868
560295
572400
584192
595701
606952
617962
628767
639450
650162
661084
672370
684133
696469
709456
723148
737613
752958
769305
786761
805525
825756
847523
870241
890923
902707
54451.9
97355.6
121784
150173
183146
218870
254899
289078
320064
347320
370852
390959
408086
422754
435547
447079
457973
468818
480127
492006
504261
516765
529381
541937
554291
566361
578127
589600
600789
611691
622315
632712
642982
653267
663709
674395
685361
696620
708164
719966
731962
744043
756122
767926
779236
789651
798706
805698
808979
803038
6.4291e+06
6.42859e+06
6.42834e+06
6.42824e+06
6.42819e+06
6.42816e+06
6.42814e+06
6.42813e+06
6.42812e+06
6.42812e+06
6.42813e+06
6.42813e+06
6.42814e+06
6.42814e+06
6.42815e+06
6.42815e+06
6.42815e+06
6.42815e+06
6.42815e+06
6.42815e+06
6.42814e+06
6.42814e+06
6.42814e+06
6.42814e+06
6.42814e+06
6.42814e+06
6.42814e+06
6.42813e+06
6.42813e+06
6.42813e+06
6.42812e+06
6.42811e+06
6.4281e+06
6.42809e+06
6.42808e+06
6.42806e+06
6.42805e+06
6.42803e+06
6.42802e+06
6.428e+06
6.42799e+06
6.42797e+06
6.42795e+06
6.42793e+06
6.4279e+06
6.42786e+06
6.42782e+06
6.42776e+06
6.42769e+06
6.42759e+06
6.42741e+06
6.42769e+06
6.42779e+06
6.42782e+06
6.42785e+06
6.42788e+06
6.4279e+06
6.42791e+06
6.42793e+06
6.42795e+06
6.42796e+06
6.42797e+06
6.42799e+06
6.428e+06
6.42801e+06
6.42801e+06
6.42802e+06
6.42802e+06
6.42802e+06
6.42802e+06
6.42802e+06
6.42802e+06
6.42802e+06
6.42802e+06
6.42802e+06
6.42802e+06
6.42802e+06
6.42802e+06
6.42802e+06
6.42802e+06
6.42801e+06
6.42801e+06
6.428e+06
6.42799e+06
6.42797e+06
6.42796e+06
6.42794e+06
6.42793e+06
6.42791e+06
6.4279e+06
6.42788e+06
6.42787e+06
6.42785e+06
6.42783e+06
6.4278e+06
6.42777e+06
6.42772e+06
6.42767e+06
6.42761e+06
6.42753e+06
6.42777e+06
6.42791e+06
6.42798e+06
6.42799e+06
6.42798e+06
6.42797e+06
6.42797e+06
6.42796e+06
6.42796e+06
6.42796e+06
6.42796e+06
6.42796e+06
6.42796e+06
6.42797e+06
6.42797e+06
6.42797e+06
6.42797e+06
6.42797e+06
6.42797e+06
6.42796e+06
6.42796e+06
6.42796e+06
6.42795e+06
6.42795e+06
6.42795e+06
6.42795e+06
6.42795e+06
6.42795e+06
6.42794e+06
6.42794e+06
6.42793e+06
6.42793e+06
6.42792e+06
6.42791e+06
6.42789e+06
6.42788e+06
6.42786e+06
6.42785e+06
6.42783e+06
6.42782e+06
6.4278e+06
6.42779e+06
6.42777e+06
6.42775e+06
6.42772e+06
6.42769e+06
6.42766e+06
6.42761e+06
6.42756e+06
6.4275e+06
6.4277e+06
6.42772e+06
6.42774e+06
6.42773e+06
6.42773e+06
6.42773e+06
6.42773e+06
6.42774e+06
6.42775e+06
6.42776e+06
6.42777e+06
6.42778e+06
6.42779e+06
6.4278e+06
6.4278e+06
6.42781e+06
6.42781e+06
6.42782e+06
6.42782e+06
6.42782e+06
6.42782e+06
6.42782e+06
6.42782e+06
6.42782e+06
6.42782e+06
6.42782e+06
6.42782e+06
6.42783e+06
6.42782e+06
6.42782e+06
6.42782e+06
6.42781e+06
6.4278e+06
6.42779e+06
6.42778e+06
6.42777e+06
6.42776e+06
6.42774e+06
6.42773e+06
6.42772e+06
6.4277e+06
6.42769e+06
6.42767e+06
6.42765e+06
6.42763e+06
6.42761e+06
6.42757e+06
6.42754e+06
6.42749e+06
6.42745e+06
6.42764e+06
6.42766e+06
6.42768e+06
6.42769e+06
6.4277e+06
6.42771e+06
6.42772e+06
6.42772e+06
6.42773e+06
6.42774e+06
6.42774e+06
6.42775e+06
6.42775e+06
6.42776e+06
6.42776e+06
6.42777e+06
6.42777e+06
6.42777e+06
6.42776e+06
6.42776e+06
6.42776e+06
6.42776e+06
6.42776e+06
6.42776e+06
6.42776e+06
6.42776e+06
6.42776e+06
6.42776e+06
6.42776e+06
6.42775e+06
6.42775e+06
6.42774e+06
6.42773e+06
6.42772e+06
6.42771e+06
6.4277e+06
6.42768e+06
6.42767e+06
6.42766e+06
6.42764e+06
6.42763e+06
6.42762e+06
6.4276e+06
6.42759e+06
6.42757e+06
6.42755e+06
6.42752e+06
6.42749e+06
6.42746e+06
6.42742e+06
6.42756e+06
6.42757e+06
6.42758e+06
6.42758e+06
6.42758e+06
6.42758e+06
6.42758e+06
6.42758e+06
6.42759e+06
6.42759e+06
6.42759e+06
6.4276e+06
6.42761e+06
6.42761e+06
6.42762e+06
6.42762e+06
6.42762e+06
6.42762e+06
6.42762e+06
6.42762e+06
6.42762e+06
6.42763e+06
6.42763e+06
6.42763e+06
6.42763e+06
6.42763e+06
6.42763e+06
6.42764e+06
6.42764e+06
6.42763e+06
6.42763e+06
6.42763e+06
6.42762e+06
6.42761e+06
6.4276e+06
6.42759e+06
6.42758e+06
6.42757e+06
6.42755e+06
6.42754e+06
6.42753e+06
6.42752e+06
6.42751e+06
6.4275e+06
6.42748e+06
6.42746e+06
6.42744e+06
6.42742e+06
6.4274e+06
6.42738e+06
6.42748e+06
6.42748e+06
6.42749e+06
6.42749e+06
6.4275e+06
6.4275e+06
6.42751e+06
6.42751e+06
6.42751e+06
6.42752e+06
6.42752e+06
6.42753e+06
6.42754e+06
6.42754e+06
6.42755e+06
6.42755e+06
6.42755e+06
6.42755e+06
6.42755e+06
6.42755e+06
6.42755e+06
6.42755e+06
6.42756e+06
6.42756e+06
6.42756e+06
6.42756e+06
6.42756e+06
6.42756e+06
6.42756e+06
6.42756e+06
6.42756e+06
6.42755e+06
6.42755e+06
6.42754e+06
6.42753e+06
6.42752e+06
6.42751e+06
6.4275e+06
6.42748e+06
6.42747e+06
6.42746e+06
6.42745e+06
6.42744e+06
6.42743e+06
6.42742e+06
6.42741e+06
6.42739e+06
6.42738e+06
6.42736e+06
6.42735e+06
6.4274e+06
6.4274e+06
6.4274e+06
6.4274e+06
6.42741e+06
6.42741e+06
6.42741e+06
6.42741e+06
6.42741e+06
6.42741e+06
6.42741e+06
6.42741e+06
6.42742e+06
6.42742e+06
6.42742e+06
6.42743e+06
6.42743e+06
6.42743e+06
6.42743e+06
6.42743e+06
6.42743e+06
6.42744e+06
6.42744e+06
6.42744e+06
6.42744e+06
6.42745e+06
6.42745e+06
6.42745e+06
6.42745e+06
6.42745e+06
6.42745e+06
6.42745e+06
6.42744e+06
6.42744e+06
6.42743e+06
6.42742e+06
6.42741e+06
6.4274e+06
6.42739e+06
6.42738e+06
6.42737e+06
6.42736e+06
6.42736e+06
6.42735e+06
6.42734e+06
6.42733e+06
6.42733e+06
6.42732e+06
6.42731e+06
6.4273e+06
6.42731e+06
6.42731e+06
6.42731e+06
6.42732e+06
6.42732e+06
6.42732e+06
6.42732e+06
6.42732e+06
6.42732e+06
6.42732e+06
6.42732e+06
6.42732e+06
6.42733e+06
6.42733e+06
6.42733e+06
6.42734e+06
6.42734e+06
6.42734e+06
6.42734e+06
6.42734e+06
6.42735e+06
6.42735e+06
6.42735e+06
6.42736e+06
6.42736e+06
6.42736e+06
6.42737e+06
6.42737e+06
6.42737e+06
6.42737e+06
6.42737e+06
6.42737e+06
6.42736e+06
6.42736e+06
6.42735e+06
6.42734e+06
6.42733e+06
6.42732e+06
6.42731e+06
6.42731e+06
6.4273e+06
6.42729e+06
6.42729e+06
6.42728e+06
6.42728e+06
6.42728e+06
6.42727e+06
6.42727e+06
6.42727e+06
6.42727e+06
6.42722e+06
6.42722e+06
6.42723e+06
6.42723e+06
6.42723e+06
6.42723e+06
6.42723e+06
6.42722e+06
6.42722e+06
6.42722e+06
6.42722e+06
6.42722e+06
6.42722e+06
6.42722e+06
6.42723e+06
6.42723e+06
6.42723e+06
6.42723e+06
6.42723e+06
6.42724e+06
6.42724e+06
6.42724e+06
6.42725e+06
6.42725e+06
6.42726e+06
6.42726e+06
6.42727e+06
6.42727e+06
6.42727e+06
6.42727e+06
6.42727e+06
6.42727e+06
6.42727e+06
6.42726e+06
6.42726e+06
6.42725e+06
6.42724e+06
6.42724e+06
6.42723e+06
6.42722e+06
6.42722e+06
6.42721e+06
6.42721e+06
6.42721e+06
6.42721e+06
6.42721e+06
6.42721e+06
6.42721e+06
6.42722e+06
6.42723e+06
6.42713e+06
6.42714e+06
6.42714e+06
6.42714e+06
6.42714e+06
6.42714e+06
6.42714e+06
6.42713e+06
6.42713e+06
6.42713e+06
6.42712e+06
6.42712e+06
6.42712e+06
6.42712e+06
6.42712e+06
6.42713e+06
6.42713e+06
6.42713e+06
6.42713e+06
6.42714e+06
6.42714e+06
6.42714e+06
6.42715e+06
6.42716e+06
6.42716e+06
6.42717e+06
6.42717e+06
6.42718e+06
6.42718e+06
6.42718e+06
6.42718e+06
6.42718e+06
6.42718e+06
6.42718e+06
6.42717e+06
6.42717e+06
6.42716e+06
6.42715e+06
6.42715e+06
6.42714e+06
6.42714e+06
6.42713e+06
6.42713e+06
6.42713e+06
6.42714e+06
6.42714e+06
6.42715e+06
6.42716e+06
6.42717e+06
6.42719e+06
6.42705e+06
6.42705e+06
6.42705e+06
6.42705e+06
6.42705e+06
6.42705e+06
6.42705e+06
6.42704e+06
6.42704e+06
6.42703e+06
6.42703e+06
6.42703e+06
6.42703e+06
6.42703e+06
6.42703e+06
6.42703e+06
6.42703e+06
6.42703e+06
6.42704e+06
6.42704e+06
6.42705e+06
6.42705e+06
6.42706e+06
6.42706e+06
6.42707e+06
6.42708e+06
6.42708e+06
6.42709e+06
6.42709e+06
6.42709e+06
6.4271e+06
6.4271e+06
6.42709e+06
6.42709e+06
6.42709e+06
6.42708e+06
6.42708e+06
6.42707e+06
6.42707e+06
6.42706e+06
6.42706e+06
6.42706e+06
6.42706e+06
6.42707e+06
6.42707e+06
6.42708e+06
6.42709e+06
6.42711e+06
6.42713e+06
6.42714e+06
6.42695e+06
6.42696e+06
6.42696e+06
6.42696e+06
6.42696e+06
6.42696e+06
6.42695e+06
6.42695e+06
6.42694e+06
6.42693e+06
6.42692e+06
6.42692e+06
6.42692e+06
6.42691e+06
6.42691e+06
6.42691e+06
6.42692e+06
6.42692e+06
6.42692e+06
6.42693e+06
6.42693e+06
6.42694e+06
6.42695e+06
6.42696e+06
6.42696e+06
6.42697e+06
6.42698e+06
6.42698e+06
6.42699e+06
6.42699e+06
6.42699e+06
6.427e+06
6.427e+06
6.42699e+06
6.42699e+06
6.42699e+06
6.42698e+06
6.42698e+06
6.42698e+06
6.42697e+06
6.42697e+06
6.42697e+06
6.42698e+06
6.42699e+06
6.427e+06
6.42701e+06
6.42703e+06
6.42705e+06
6.42707e+06
6.4271e+06
6.42686e+06
6.42686e+06
6.42687e+06
6.42687e+06
6.42687e+06
6.42687e+06
6.42687e+06
6.42686e+06
6.42685e+06
6.42685e+06
6.42684e+06
6.42684e+06
6.42683e+06
6.42683e+06
6.42683e+06
6.42683e+06
6.42683e+06
6.42684e+06
6.42684e+06
6.42685e+06
6.42685e+06
6.42686e+06
6.42687e+06
6.42688e+06
6.42689e+06
6.42689e+06
6.4269e+06
6.42691e+06
6.42691e+06
6.42691e+06
6.42692e+06
6.42692e+06
6.42692e+06
6.42692e+06
6.42692e+06
6.42691e+06
6.42691e+06
6.42691e+06
6.4269e+06
6.4269e+06
6.4269e+06
6.42691e+06
6.42691e+06
6.42692e+06
6.42693e+06
6.42695e+06
6.42697e+06
6.427e+06
6.42703e+06
6.42706e+06
6.42676e+06
6.42677e+06
6.42678e+06
6.42678e+06
6.42678e+06
6.42677e+06
6.42676e+06
6.42675e+06
6.42674e+06
6.42673e+06
6.42672e+06
6.42671e+06
6.4267e+06
6.4267e+06
6.4267e+06
6.4267e+06
6.4267e+06
6.4267e+06
6.42671e+06
6.42672e+06
6.42673e+06
6.42674e+06
6.42675e+06
6.42676e+06
6.42677e+06
6.42678e+06
6.42678e+06
6.42679e+06
6.4268e+06
6.4268e+06
6.42681e+06
6.42681e+06
6.42681e+06
6.42681e+06
6.42681e+06
6.42681e+06
6.42681e+06
6.42681e+06
6.4268e+06
6.4268e+06
6.42681e+06
6.42681e+06
6.42682e+06
6.42684e+06
6.42685e+06
6.42687e+06
6.4269e+06
6.42693e+06
6.42697e+06
6.427e+06
6.42666e+06
6.42667e+06
6.42669e+06
6.42671e+06
6.42671e+06
6.42671e+06
6.42671e+06
6.4267e+06
6.42669e+06
6.42668e+06
6.42667e+06
6.42666e+06
6.42665e+06
6.42665e+06
6.42664e+06
6.42664e+06
6.42664e+06
6.42664e+06
6.42665e+06
6.42666e+06
6.42666e+06
6.42667e+06
6.42668e+06
6.42669e+06
6.4267e+06
6.42671e+06
6.42672e+06
6.42672e+06
6.42673e+06
6.42673e+06
6.42673e+06
6.42674e+06
6.42674e+06
6.42674e+06
6.42674e+06
6.42674e+06
6.42673e+06
6.42673e+06
6.42673e+06
6.42673e+06
6.42674e+06
6.42674e+06
6.42675e+06
6.42677e+06
6.42679e+06
6.42681e+06
6.42684e+06
6.42688e+06
6.42692e+06
6.42697e+06
6.42653e+06
6.42656e+06
6.42657e+06
6.42656e+06
6.42655e+06
6.42655e+06
6.42654e+06
6.42653e+06
6.42652e+06
6.42651e+06
6.4265e+06
6.42649e+06
6.42649e+06
6.42649e+06
6.42648e+06
6.42649e+06
6.42649e+06
6.42649e+06
6.4265e+06
6.42651e+06
6.42652e+06
6.42654e+06
6.42655e+06
6.42656e+06
6.42657e+06
6.42658e+06
6.42659e+06
6.4266e+06
6.42661e+06
6.42661e+06
6.42662e+06
6.42662e+06
6.42662e+06
6.42663e+06
6.42663e+06
6.42663e+06
6.42663e+06
6.42663e+06
6.42663e+06
6.42663e+06
6.42664e+06
6.42665e+06
6.42666e+06
6.42668e+06
6.4267e+06
6.42673e+06
6.42676e+06
6.4268e+06
6.42685e+06
6.42691e+06
6.42642e+06
6.42655e+06
6.42663e+06
6.42663e+06
6.42662e+06
6.4266e+06
6.42658e+06
6.42656e+06
6.42654e+06
6.42652e+06
6.4265e+06
6.42648e+06
6.42647e+06
6.42646e+06
6.42645e+06
6.42645e+06
6.42645e+06
6.42645e+06
6.42645e+06
6.42646e+06
6.42647e+06
6.42648e+06
6.42649e+06
6.4265e+06
6.42651e+06
6.42652e+06
6.42652e+06
6.42653e+06
6.42654e+06
6.42654e+06
6.42654e+06
6.42655e+06
6.42655e+06
6.42655e+06
6.42655e+06
6.42655e+06
6.42655e+06
6.42655e+06
6.42655e+06
6.42655e+06
6.42656e+06
6.42657e+06
6.42659e+06
6.42661e+06
6.42663e+06
6.42666e+06
6.4267e+06
6.42675e+06
6.4268e+06
6.42686e+06
6.42586e+06
6.42615e+06
6.42624e+06
6.42628e+06
6.4263e+06
6.42631e+06
6.42632e+06
6.42632e+06
6.42631e+06
6.42631e+06
6.4263e+06
6.4263e+06
6.4263e+06
6.42629e+06
6.42629e+06
6.42629e+06
6.4263e+06
6.4263e+06
6.42631e+06
6.42632e+06
6.42634e+06
6.42635e+06
6.42636e+06
6.42637e+06
6.42638e+06
6.4264e+06
6.4264e+06
6.42641e+06
6.42642e+06
6.42643e+06
6.42643e+06
6.42643e+06
6.42644e+06
6.42644e+06
6.42644e+06
6.42644e+06
6.42644e+06
6.42644e+06
6.42645e+06
6.42645e+06
6.42646e+06
6.42647e+06
6.42649e+06
6.42651e+06
6.42653e+06
6.42657e+06
6.42661e+06
6.42666e+06
6.42672e+06
6.4268e+06
6.42736e+06
6.42685e+06
6.4266e+06
6.4265e+06
6.42644e+06
6.4264e+06
6.42636e+06
6.42634e+06
6.42631e+06
6.42629e+06
6.42628e+06
6.42626e+06
6.42625e+06
6.42624e+06
6.42624e+06
6.42624e+06
6.42624e+06
6.42624e+06
6.42624e+06
6.42625e+06
6.42626e+06
6.42627e+06
6.42628e+06
6.4263e+06
6.42631e+06
6.42631e+06
6.42632e+06
6.42633e+06
6.42634e+06
6.42634e+06
6.42635e+06
6.42635e+06
6.42635e+06
6.42635e+06
6.42636e+06
6.42636e+06
6.42636e+06
6.42636e+06
6.42636e+06
6.42637e+06
6.42637e+06
6.42638e+06
6.4264e+06
6.42642e+06
6.42645e+06
6.42649e+06
6.42653e+06
6.42658e+06
6.42665e+06
6.42674e+06
6.19512e+06
6.20185e+06
6.20303e+06
6.20719e+06
6.20875e+06
6.21106e+06
6.21215e+06
6.21305e+06
6.21327e+06
6.21317e+06
6.21275e+06
6.21229e+06
6.21242e+06
6.21276e+06
6.21207e+06
6.21323e+06
6.2124e+06
6.21692e+06
6.21638e+06
6.2282e+06
6.19686e+06
6.20347e+06
6.20461e+06
6.20863e+06
6.2101e+06
6.21225e+06
6.21321e+06
6.21391e+06
6.21395e+06
6.21366e+06
6.21304e+06
6.21244e+06
6.21245e+06
6.21262e+06
6.21204e+06
6.21324e+06
6.21247e+06
6.21737e+06
6.21721e+06
6.2296e+06
6.19888e+06
6.2054e+06
6.20653e+06
6.21041e+06
6.21181e+06
6.21381e+06
6.21465e+06
6.2152e+06
6.2151e+06
6.21465e+06
6.21388e+06
6.21315e+06
6.21305e+06
6.21309e+06
6.21272e+06
6.21409e+06
6.21342e+06
6.2186e+06
6.21783e+06
6.23031e+06
6.20127e+06
6.20769e+06
6.2088e+06
6.21255e+06
6.2139e+06
6.21578e+06
6.21653e+06
6.21697e+06
6.21678e+06
6.21622e+06
6.21537e+06
6.21458e+06
6.21439e+06
6.21433e+06
6.21417e+06
6.21587e+06
6.21554e+06
6.22108e+06
6.21956e+06
6.23175e+06
6.20402e+06
6.21034e+06
6.21143e+06
6.21507e+06
6.21638e+06
6.21816e+06
6.21885e+06
6.21923e+06
6.21899e+06
6.21839e+06
6.21752e+06
6.21672e+06
6.21647e+06
6.21636e+06
6.21635e+06
6.2182e+06
6.21825e+06
6.22427e+06
6.22305e+06
6.2353e+06
6.20715e+06
6.21335e+06
6.21445e+06
6.21797e+06
6.21926e+06
6.22096e+06
6.22162e+06
6.22196e+06
6.22173e+06
6.22114e+06
6.22031e+06
6.21954e+06
6.21927e+06
6.21915e+06
6.21924e+06
6.22108e+06
6.22139e+06
6.22771e+06
6.22688e+06
6.23916e+06
6.21065e+06
6.21674e+06
6.21783e+06
6.22125e+06
6.22252e+06
6.22416e+06
6.22482e+06
6.22516e+06
6.22495e+06
6.22442e+06
6.22366e+06
6.22297e+06
6.22271e+06
6.22259e+06
6.22275e+06
6.22453e+06
6.22494e+06
6.23127e+06
6.23059e+06
6.24268e+06
6.21453e+06
6.22049e+06
6.22158e+06
6.22489e+06
6.22616e+06
6.22774e+06
6.22841e+06
6.22877e+06
6.22862e+06
6.22816e+06
6.2275e+06
6.2269e+06
6.22667e+06
6.22658e+06
6.2268e+06
6.22849e+06
6.22894e+06
6.23511e+06
6.23444e+06
6.24618e+06
6.21877e+06
6.2246e+06
6.22569e+06
6.2289e+06
6.23015e+06
6.23169e+06
6.23237e+06
6.23275e+06
6.23266e+06
6.23229e+06
6.23174e+06
6.23124e+06
6.23104e+06
6.23099e+06
6.23127e+06
6.23288e+06
6.23337e+06
6.23932e+06
6.23863e+06
6.24996e+06
6.22336e+06
6.22905e+06
6.23014e+06
6.23324e+06
6.23448e+06
6.23597e+06
6.23665e+06
6.23705e+06
6.23702e+06
6.23674e+06
6.2363e+06
6.23589e+06
6.23574e+06
6.23573e+06
6.23605e+06
6.23761e+06
6.23813e+06
6.24387e+06
6.24317e+06
6.25408e+06
6.22831e+06
6.23384e+06
6.23493e+06
6.2379e+06
6.23913e+06
6.24054e+06
6.24123e+06
6.24163e+06
6.24166e+06
6.24145e+06
6.24111e+06
6.24078e+06
6.24067e+06
6.2407e+06
6.24108e+06
6.24258e+06
6.24315e+06
6.24867e+06
6.248e+06
6.25849e+06
6.23358e+06
6.23896e+06
6.24003e+06
6.24287e+06
6.24406e+06
6.2454e+06
6.24606e+06
6.24646e+06
6.24652e+06
6.24637e+06
6.2461e+06
6.24585e+06
6.24577e+06
6.24585e+06
6.24627e+06
6.24774e+06
6.24835e+06
6.25367e+06
6.25304e+06
6.26312e+06
6.23918e+06
6.24438e+06
6.24543e+06
6.24812e+06
6.24926e+06
6.25051e+06
6.25112e+06
6.2515e+06
6.25157e+06
6.25146e+06
6.25125e+06
6.25105e+06
6.251e+06
6.25113e+06
6.25159e+06
6.25304e+06
6.25369e+06
6.25883e+06
6.25824e+06
6.26792e+06
6.2451e+06
6.2501e+06
6.25112e+06
6.25365e+06
6.25471e+06
6.25585e+06
6.25641e+06
6.25673e+06
6.25679e+06
6.25669e+06
6.25652e+06
6.25635e+06
6.25633e+06
6.2565e+06
6.257e+06
6.25845e+06
6.25915e+06
6.26411e+06
6.26358e+06
6.27288e+06
6.25131e+06
6.25611e+06
6.25708e+06
6.25944e+06
6.26041e+06
6.26143e+06
6.2619e+06
6.26215e+06
6.26216e+06
6.26205e+06
6.26188e+06
6.26174e+06
6.26175e+06
6.26195e+06
6.2625e+06
6.26395e+06
6.2647e+06
6.26951e+06
6.26904e+06
6.27797e+06
6.2578e+06
6.26239e+06
6.26331e+06
6.26549e+06
6.26636e+06
6.26723e+06
6.26758e+06
6.26774e+06
6.26768e+06
6.26752e+06
6.26734e+06
6.26721e+06
6.26724e+06
6.26749e+06
6.26808e+06
6.26954e+06
6.27034e+06
6.27502e+06
6.27461e+06
6.2832e+06
6.26458e+06
6.26895e+06
6.2698e+06
6.27179e+06
6.27254e+06
6.27325e+06
6.27347e+06
6.2735e+06
6.27334e+06
6.2731e+06
6.27289e+06
6.27277e+06
6.27282e+06
6.2731e+06
6.27375e+06
6.27522e+06
6.27608e+06
6.28063e+06
6.28031e+06
6.28857e+06
6.27163e+06
6.27576e+06
6.27655e+06
6.27834e+06
6.27896e+06
6.27949e+06
6.27956e+06
6.27944e+06
6.27915e+06
6.27882e+06
6.27856e+06
6.27844e+06
6.2785e+06
6.27883e+06
6.27952e+06
6.281e+06
6.28193e+06
6.28638e+06
6.28613e+06
6.29408e+06
6.27893e+06
6.28283e+06
6.28354e+06
6.28513e+06
6.28561e+06
6.28596e+06
6.28587e+06
6.28558e+06
6.28514e+06
6.2847e+06
6.28437e+06
6.28423e+06
6.28431e+06
6.28467e+06
6.28542e+06
6.28692e+06
6.28793e+06
6.29228e+06
6.29211e+06
6.29978e+06
6.28648e+06
6.29013e+06
6.29077e+06
6.29216e+06
6.29249e+06
6.29266e+06
6.2924e+06
6.29193e+06
6.29134e+06
6.29077e+06
6.29037e+06
6.2902e+06
6.29028e+06
6.29068e+06
6.29148e+06
6.29301e+06
6.29411e+06
6.29836e+06
6.29829e+06
6.30567e+06
6.29425e+06
6.29765e+06
6.29821e+06
6.29941e+06
6.2996e+06
6.2996e+06
6.29917e+06
6.29853e+06
6.29778e+06
6.29709e+06
6.2966e+06
6.29637e+06
6.29644e+06
6.29688e+06
6.29775e+06
6.2993e+06
6.3005e+06
6.30467e+06
6.3047e+06
6.31181e+06
6.30221e+06
6.30536e+06
6.30585e+06
6.30686e+06
6.30693e+06
6.30676e+06
6.30618e+06
6.30538e+06
6.30448e+06
6.30366e+06
6.30307e+06
6.30278e+06
6.30283e+06
6.30331e+06
6.30425e+06
6.30584e+06
6.30715e+06
6.31125e+06
6.31138e+06
6.31823e+06
6.31032e+06
6.31323e+06
6.31365e+06
6.3145e+06
6.31446e+06
6.31415e+06
6.31343e+06
6.31249e+06
6.31145e+06
6.31051e+06
6.30982e+06
6.30946e+06
6.3095e+06
6.31002e+06
6.31104e+06
6.31266e+06
6.3141e+06
6.31812e+06
6.31836e+06
6.32496e+06
6.31855e+06
6.32123e+06
6.32159e+06
6.3223e+06
6.32216e+06
6.32174e+06
6.32091e+06
6.31986e+06
6.31871e+06
6.31766e+06
6.31687e+06
6.31643e+06
6.31647e+06
6.31706e+06
6.31815e+06
6.3198e+06
6.32139e+06
6.32533e+06
6.32569e+06
6.33201e+06
6.32685e+06
6.32929e+06
6.3296e+06
6.33019e+06
6.32999e+06
6.3295e+06
6.3286e+06
6.32748e+06
6.32626e+06
6.32512e+06
6.32424e+06
6.32375e+06
6.3238e+06
6.32447e+06
6.32562e+06
6.32731e+06
6.32904e+06
6.33289e+06
6.33337e+06
6.3394e+06
6.33514e+06
6.33737e+06
6.33764e+06
6.33814e+06
6.33791e+06
6.33738e+06
6.33647e+06
6.33533e+06
6.33408e+06
6.33291e+06
6.33199e+06
6.33148e+06
6.33155e+06
6.33228e+06
6.33347e+06
6.33519e+06
6.33707e+06
6.34081e+06
6.3414e+06
6.34713e+06
6.34336e+06
6.34539e+06
6.34564e+06
6.34608e+06
6.34585e+06
6.34534e+06
6.34446e+06
6.34335e+06
6.34214e+06
6.34099e+06
6.3401e+06
6.33962e+06
6.33971e+06
6.34047e+06
6.34168e+06
6.34345e+06
6.34546e+06
6.34907e+06
6.34976e+06
6.35514e+06
6.35144e+06
6.35328e+06
6.35353e+06
6.35394e+06
6.35375e+06
6.35329e+06
6.35249e+06
6.35147e+06
6.35035e+06
6.3493e+06
6.34848e+06
6.34807e+06
6.34819e+06
6.34897e+06
6.35026e+06
6.35205e+06
6.35419e+06
6.35763e+06
6.3584e+06
6.3634e+06
6.35931e+06
6.36098e+06
6.36124e+06
6.36165e+06
6.36152e+06
6.36115e+06
6.36048e+06
6.3596e+06
6.35863e+06
6.35772e+06
6.35704e+06
6.35673e+06
6.35694e+06
6.35777e+06
6.35913e+06
6.36095e+06
6.36316e+06
6.3664e+06
6.36723e+06
6.37181e+06
6.36689e+06
6.36842e+06
6.36869e+06
6.36912e+06
6.36907e+06
6.36883e+06
6.36832e+06
6.36764e+06
6.36687e+06
6.36616e+06
6.36565e+06
6.3655e+06
6.36583e+06
6.36674e+06
6.36818e+06
6.37003e+06
6.37227e+06
6.37526e+06
6.37613e+06
6.38025e+06
6.37413e+06
6.37552e+06
6.37581e+06
6.37628e+06
6.37634e+06
6.37625e+06
6.37593e+06
6.37547e+06
6.37494e+06
6.37446e+06
6.37418e+06
6.37423e+06
6.37473e+06
6.37575e+06
6.37727e+06
6.37912e+06
6.38134e+06
6.38407e+06
6.38494e+06
6.38858e+06
6.38095e+06
6.38222e+06
6.38255e+06
6.38306e+06
6.38324e+06
6.38331e+06
6.38319e+06
6.38298e+06
6.38271e+06
6.38251e+06
6.38249e+06
6.38278e+06
6.38348e+06
6.38463e+06
6.38621e+06
6.38803e+06
6.3902e+06
6.39264e+06
6.39349e+06
6.39665e+06
6.38731e+06
6.38849e+06
6.38884e+06
6.38941e+06
6.3897e+06
6.38993e+06
6.39003e+06
6.39007e+06
6.39007e+06
6.39014e+06
6.39039e+06
6.39093e+06
6.39182e+06
6.3931e+06
6.39471e+06
6.39654e+06
6.39864e+06
6.40081e+06
6.40162e+06
6.40431e+06
6.39318e+06
6.39427e+06
6.39466e+06
6.39528e+06
6.39568e+06
6.39608e+06
6.39638e+06
6.39665e+06
6.39692e+06
6.39726e+06
6.39776e+06
6.39851e+06
6.39958e+06
6.40096e+06
6.40262e+06
6.4045e+06
6.4065e+06
6.40842e+06
6.40919e+06
6.41143e+06
6.39855e+06
6.39956e+06
6.39997e+06
6.40064e+06
6.40115e+06
6.40169e+06
6.40218e+06
6.40267e+06
6.40318e+06
6.40376e+06
6.40449e+06
6.40544e+06
6.40666e+06
6.40817e+06
6.4099e+06
6.41179e+06
6.41366e+06
6.41535e+06
6.41609e+06
6.41793e+06
6.4034e+06
6.40434e+06
6.40477e+06
6.40549e+06
6.40608e+06
6.40675e+06
6.4074e+06
6.40808e+06
6.4088e+06
6.4096e+06
6.41053e+06
6.41164e+06
6.41299e+06
6.41459e+06
6.41637e+06
6.41824e+06
6.42e+06
6.42152e+06
6.42225e+06
6.42373e+06
6.40774e+06
6.40863e+06
6.40908e+06
6.40983e+06
6.41049e+06
6.41126e+06
6.41204e+06
6.41288e+06
6.41377e+06
6.41475e+06
6.41584e+06
6.41708e+06
6.41852e+06
6.42016e+06
6.42196e+06
6.4238e+06
6.42552e+06
6.4269e+06
6.42763e+06
6.42882e+06
6.4116e+06
6.41244e+06
6.4129e+06
6.41367e+06
6.41438e+06
6.41522e+06
6.4161e+06
6.41707e+06
6.4181e+06
6.41921e+06
6.42043e+06
6.42178e+06
6.42328e+06
6.42495e+06
6.42675e+06
6.42857e+06
6.43023e+06
6.43149e+06
6.43225e+06
6.4332e+06
6.415e+06
6.4158e+06
6.41625e+06
6.41704e+06
6.41778e+06
6.41868e+06
6.41962e+06
6.42067e+06
6.42179e+06
6.42302e+06
6.42433e+06
6.42576e+06
6.4273e+06
6.42897e+06
6.43073e+06
6.43247e+06
6.43406e+06
6.43532e+06
6.43614e+06
6.43692e+06
6.41798e+06
6.41873e+06
6.41918e+06
6.41997e+06
6.42073e+06
6.42165e+06
6.42263e+06
6.42372e+06
6.42491e+06
6.42619e+06
6.42757e+06
6.42905e+06
6.43062e+06
6.43227e+06
6.43394e+06
6.43559e+06
6.43711e+06
6.43844e+06
6.43937e+06
6.44002e+06
6.42057e+06
6.42128e+06
6.42172e+06
6.4225e+06
6.42325e+06
6.42418e+06
6.42517e+06
6.42628e+06
6.42748e+06
6.42879e+06
6.43019e+06
6.43169e+06
6.43327e+06
6.43491e+06
6.43657e+06
6.4382e+06
6.43974e+06
6.44112e+06
6.44212e+06
6.4426e+06
6.42281e+06
6.42349e+06
6.42391e+06
6.42467e+06
6.4254e+06
6.42632e+06
6.4273e+06
6.42839e+06
6.42958e+06
6.43087e+06
6.43225e+06
6.43372e+06
6.43527e+06
6.43689e+06
6.43855e+06
6.44021e+06
6.44184e+06
6.4433e+06
6.44427e+06
6.44459e+06
6.42474e+06
6.42538e+06
6.42577e+06
6.42651e+06
6.42722e+06
6.42811e+06
6.42905e+06
6.43011e+06
6.43125e+06
6.43249e+06
6.4338e+06
6.4352e+06
6.43667e+06
6.4382e+06
6.43978e+06
6.44137e+06
6.44292e+06
6.4443e+06
6.44515e+06
6.44527e+06
6.42639e+06
6.42699e+06
6.42737e+06
6.42808e+06
6.42875e+06
6.4296e+06
6.43049e+06
6.4315e+06
6.43257e+06
6.43373e+06
6.43496e+06