/*--------------------------------*- C++ -*----------------------------------*\
  =========                 |
  \\      /  F ield         | OpenFOAM: The Open Source CFD Toolbox
   \\    /   O peration     | Website:  https://openfoam.org
    \\  /    A nd           | Version:  8
     \\/     M anipulation  |
\*---------------------------------------------------------------------------*/
FoamFile
{
    version     2.0;
    format      ascii;
    class       volScalarField;
    location    "800";
    object      p_rgh;
}
// * * * * * * * * * * * * * * * * * * * * * * * * * * * * * * * * * * * * * //

dimensions      [1 -1 -2 0 0 0 0];

internalField   nonuniform List<scalar> 
8400
(
28622.5
66137.7
103523
139159
172875
204500
233985
261380
286800
310396
332331
352755
371817
389655
406399
422171
437094
451293
464885
477968
490621
502907
514883
526602
538121
549492
560763
571978
583183
594427
605768
617257
628934
640837
653009
665521
678474
691996
706244
721413
737743
755557
775312
797675
823551
853861
889827
935712
1.00269e+06
1.09847e+06
24799.9
61289.9
98754.7
134732
168766
200618
230232
257675
283082
306621
328461
348768
367699
385394
401984
417593
432351
446384
459804
472703
485158
497232
508980
520456
531710
542790
553737
564594
575402
586213
597077
608034
619112
630342
641756
653409
665382
677769
690674
704237
718618
734034
750778
769245
789929
813267
839755
871190
912112
966720
32806.4
72660.1
111551
148109
182329
214126
243533
270679
295745
318931
340433
360433
379097
396572
412990
428485
443186
457212
470668
483644
496214
508441
520385
532104
543651
555076
566420
577726
589042
600422
611918
623570
635415
647489
659845
672552
685698
699378
713701
728815
744905
762199
780983
801612
824495
850028
878663
911215
948781
991021
24233.4
62704.2
102066
139429
174257
206386
235887
262949
287807
310703
331864
351492
369768
386848
402876
417988
432310
445955
459021
471592
483739
495523
507002
518230
529255
540117
550854
561502
572106
582709
593352
604068
614886
625841
636984
648361
660027
672041
684479
697453
711110
725617
741185
758073
776583
797056
819930
845707
874659
906985
34739.3
78340.5
119972
158283
193387
225395
254546
281137
305477
327853
348519
367698
385581
402334
418106
433031
447230
460807
473858
486462
498689
510602
522257
533707
544999
556173
567263
578308
589348
600424
611571
622822
634211
645780
657571
669619
681954
694618
707673
721207
735318
750111
765713
782262
799913
818835
839223
861189
884674
909745
26341.3
69527.1
112142
151339
186873
218922
247857
274081
297973
319863
340032
358720
376129
392436
407790
422324
436151
449370
462070
474329
486211
497776
509079
520169
531089
541876
552566
563195
573799
584415
595079
605825
616692
627719
638940
650379
662060
674026
686343
699089
712343
726193
740751
756131
772447
789824
808378
828033
848567
870210
35338.5
84192.7
129186
169151
204647
236266
264603
290182
313438
334729
354349
372545
389525
405465
420514
434798
448423
461486
474070
486247
498079
509624
520934
532053
543019
553867
564629
575338
586026
596725
607467
618283
629206
640264
651476
662857
674422
686212
698280
710676
723448
736663
750403
764753
779786
795587
812246
829715
847803
866659
30395.6
80970
127163
167454
202692
233787
261519
286495
309183
329951
349096
366862
383457
399054
413799
427814
441202
454056
466453
478463
490147
501562
512755
523767
534636
545393
556070
566700
577316
587949
598632
609394
620262
631258
642399
653702
665190
676904
688890
701187
713841
726915
740475
754580
769286
784653
800730
817512
834840
852804
36900.7
92592.7
139560
179393
213849
244168
271218
295615
317812
338160
356941
374392
390712
406071
420611
434449
447686
460408
472690
484597
496189
507520
518634
529568
540354
551023
561604
572130
582635
593150
603706
614326
625034
635848
646785
657864
669110
680558
692245
704216
716522
729220
742372
756030
770247
785089
800601
816806
833618
851010
36460.6
94204.2
140438
179535
213348
243120
269721
293752
315647
335740
354303
371563
387717
402931
417347
431083
444238
456898
469134
481009
492582
503905
515024
525971
536778
547470
558080
568639
579183
589744
600352
611031
621802
632683
643694
654854
666184
677716
689491
701557
713962
726763
740015
753773
768091
783029
798638
814935
831873
849414
34423.4
92530.9
140573
180418
214683
244853
271773
296045
318130
338384
357089
374481
390757
406082
420595
434414
447639
460355
472635
484546
496148
507493
518624
529575
540376
551055
561646
572181
582696
593223
603787
614415
625125
635938
646877
657960
669211
680663
692360
704347
716674
729398
742577
756267
770525
785411
800970
817223
834173
851746
12971.6
76052.1
129192
171084
206324
237248
264723
289336
311613
331980
350761
368215
384545
399918
414468
428312
441550
454270
466554
478474
490093
501462
512623
523615
534468
545213
555882
566505
577114
587734
598390
609103
619896
630791
641810
652978
664320
675873
687679
699775
712216
725058
738362
752183
766571
781577
797236
813560
830535
848000
15197.6
70558.5
126208
171141
208195
240590
269402
295113
318240
339271
358595
376500
393210
408896
423698
437732
451100
463898
476215
488133
499719
511033
522126
533043
543827
554512
565132
575716
586289
596875
607489
618153
628893
639731
650691
661801
673090
684597
696355
708402
720802
733612
746880
760649
774951
789809
805228
821177
837585
854194
-25108.6
33667.7
93271.6
140691
179352
213152
243363
270347
294559
316530
336702
355405
372876
389298
404808
419517
433520
446909
459771
472184
484216
495928
507384
518641
529751
540762
551709
562624
573530
584446
595385
606367
617417
628558
639816
651224
662804
674584
686607
698919
711572
724617
738085
751995
766352
781137
796301
811751
827352
842774
6372.88
49087.6
108967
159916
200684
235833
267140
294915
319547
341617
361650
380046
397104
413050
428058
442260
455766
468673
481063
493005
504558
515783
526743
537503
548125
558659
569147
579624
590116
600642
611216
621859
632598
643462
654477
665667
677055
688670
700559
712768
725339
738292
751645
765379
779450
793770
808171
822412
836123
848567
-73808.3
-15187.7
50671.2
103267
145630
182997
216999
247603
274961
299546
321850
342273
361139
378716
395223
410839
425713
439966
453689
466940
479767
492216
504338
516188
527822
539287
550622
561866
573049
584190
595314
606455
617653
628944
640357
651927
663690
675691
687982
700607
713604
726985
740742
754826
769139
783518
797650
811075
823168
833256
5475.17
38090.5
99049.8
150716
191189
226793
259456
288952
315247
338687
359683
378599
395765
411487
426052
439719
452724
465258
477457
489404
501143
512703
524108
535378
546526
557561
568501
579364
590164
600915
611643
622381
633160
644015
654994
666147
677516
689151
701104
713421
726143
739283
752826
766713
780807
794854
808340
820344
829233
831671
-131505
-48523.2
31013.5
86329.8
130767
171304
208861
243037
273768
301295
325928
347974
367743
385555
401741
416641
430592
443900
456798
469432
481897
494252
506527
518725
530832
542833
554717
566481
578121
589646
601070
612413
623713
635027
646417
657949
669683
681684
694007
706691
719784
733306
747258
761620
776301
791082
805441
818215
827182
830119
-1173.73
32730.3
70846.4
107044
143430
180390
216501
250387
281372
309325
334375
356747
376694
394488
410429
424850
438119
450623
462667
474445
486118
497803
509548
521353
533198
545055
556898
568707
580453
592111
603674
615158
626611
638127
649801
661699
673910
686548
699717
713498
728010
743394
759785
777378
796397
817085
839636
863627
886172
900405
43301.9
84620.4
107579
133931
164420
197608
231467
264161
294537
322119
346861
368922
388543
405994
421572
435604
448446
460477
472067
483456
494768
506111
517536
529034
540580
552155
563736
575294
586788
598179
609443
620589
631657
642714
653840
665070
676426
687957
699705
711668
723801
736063
748361
760535
772380
783568
793675
802127
807357
803796
6.43731e+06
6.43679e+06
6.43654e+06
6.43644e+06
6.43639e+06
6.43635e+06
6.43633e+06
6.43631e+06
6.4363e+06
6.4363e+06
6.43629e+06
6.43629e+06
6.43629e+06
6.43629e+06
6.4363e+06
6.4363e+06
6.4363e+06
6.4363e+06
6.4363e+06
6.4363e+06
6.4363e+06
6.4363e+06
6.4363e+06
6.4363e+06
6.4363e+06
6.4363e+06
6.4363e+06
6.43631e+06
6.43631e+06
6.43631e+06
6.43631e+06
6.43631e+06
6.43631e+06
6.43631e+06
6.4363e+06
6.4363e+06
6.43629e+06
6.43628e+06
6.43627e+06
6.43626e+06
6.43625e+06
6.43623e+06
6.43621e+06
6.43619e+06
6.43616e+06
6.43612e+06
6.43608e+06
6.43602e+06
6.43594e+06
6.43584e+06
6.43571e+06
6.43599e+06
6.43609e+06
6.43612e+06
6.43615e+06
6.43617e+06
6.43618e+06
6.4362e+06
6.43621e+06
6.43622e+06
6.43622e+06
6.43623e+06
6.43624e+06
6.43625e+06
6.43625e+06
6.43626e+06
6.43627e+06
6.43627e+06
6.43627e+06
6.43628e+06
6.43628e+06
6.43628e+06
6.43628e+06
6.43628e+06
6.43629e+06
6.43629e+06
6.43629e+06
6.43629e+06
6.4363e+06
6.4363e+06
6.4363e+06
6.4363e+06
6.4363e+06
6.4363e+06
6.43629e+06
6.43629e+06
6.43628e+06
6.43628e+06
6.43627e+06
6.43626e+06
6.43624e+06
6.43623e+06
6.43621e+06
6.43619e+06
6.43616e+06
6.43612e+06
6.43608e+06
6.43603e+06
6.43596e+06
6.43588e+06
6.43617e+06
6.4363e+06
6.43637e+06
6.43638e+06
6.43637e+06
6.43636e+06
6.43635e+06
6.43634e+06
6.43633e+06
6.43632e+06
6.43632e+06
6.43632e+06
6.43632e+06
6.43631e+06
6.43631e+06
6.43631e+06
6.43631e+06
6.43631e+06
6.43631e+06
6.43631e+06
6.43631e+06
6.43631e+06
6.43631e+06
6.43631e+06
6.43631e+06
6.43631e+06
6.43631e+06
6.43631e+06
6.43632e+06
6.43632e+06
6.43632e+06
6.43632e+06
6.43632e+06
6.43631e+06
6.43631e+06
6.43631e+06
6.4363e+06
6.43629e+06
6.43628e+06
6.43627e+06
6.43626e+06
6.43625e+06
6.43623e+06
6.43621e+06
6.43618e+06
6.43615e+06
6.43611e+06
6.43607e+06
6.43601e+06
6.43595e+06
6.43619e+06
6.43621e+06
6.43623e+06
6.43622e+06
6.43621e+06
6.43621e+06
6.43621e+06
6.43621e+06
6.43622e+06
6.43622e+06
6.43623e+06
6.43623e+06
6.43624e+06
6.43624e+06
6.43625e+06
6.43625e+06
6.43626e+06
6.43626e+06
6.43627e+06
6.43627e+06
6.43627e+06
6.43627e+06
6.43628e+06
6.43628e+06
6.43628e+06
6.43628e+06
6.43629e+06
6.43629e+06
6.43629e+06
6.4363e+06
6.4363e+06
6.4363e+06
6.4363e+06
6.4363e+06
6.4363e+06
6.43629e+06
6.43629e+06
6.43628e+06
6.43628e+06
6.43627e+06
6.43626e+06
6.43624e+06
6.43623e+06
6.43621e+06
6.43619e+06
6.43616e+06
6.43613e+06
6.43609e+06
6.43605e+06
6.436e+06
6.43622e+06
6.43624e+06
6.43626e+06
6.43627e+06
6.43628e+06
6.43629e+06
6.43629e+06
6.4363e+06
6.4363e+06
6.4363e+06
6.4363e+06
6.4363e+06
6.4363e+06
6.4363e+06
6.43631e+06
6.43631e+06
6.43631e+06
6.43631e+06
6.43631e+06
6.43631e+06
6.43631e+06
6.43631e+06
6.43631e+06
6.43631e+06
6.43631e+06
6.43632e+06
6.43632e+06
6.43632e+06
6.43632e+06
6.43632e+06
6.43633e+06
6.43633e+06
6.43633e+06
6.43632e+06
6.43632e+06
6.43632e+06
6.43631e+06
6.43631e+06
6.4363e+06
6.43629e+06
6.43628e+06
6.43627e+06
6.43626e+06
6.43624e+06
6.43623e+06
6.4362e+06
6.43618e+06
6.43615e+06
6.43611e+06
6.43608e+06
6.43624e+06
6.43624e+06
6.43625e+06
6.43625e+06
6.43626e+06
6.43625e+06
6.43625e+06
6.43625e+06
6.43625e+06
6.43625e+06
6.43625e+06
6.43625e+06
6.43625e+06
6.43626e+06
6.43626e+06
6.43626e+06
6.43627e+06
6.43627e+06
6.43627e+06
6.43627e+06
6.43627e+06
6.43628e+06
6.43628e+06
6.43628e+06
6.43628e+06
6.43629e+06
6.43629e+06
6.4363e+06
6.4363e+06
6.4363e+06
6.43631e+06
6.43631e+06
6.43631e+06
6.43631e+06
6.43631e+06
6.43631e+06
6.4363e+06
6.4363e+06
6.4363e+06
6.43629e+06
6.43628e+06
6.43628e+06
6.43627e+06
6.43625e+06
6.43624e+06
6.43622e+06
6.43621e+06
6.43618e+06
6.43616e+06
6.43613e+06
6.43625e+06
6.43625e+06
6.43626e+06
6.43626e+06
6.43626e+06
6.43627e+06
6.43627e+06
6.43627e+06
6.43627e+06
6.43628e+06
6.43628e+06
6.43628e+06
6.43628e+06
6.43629e+06
6.43629e+06
6.43629e+06
6.4363e+06
6.4363e+06
6.4363e+06
6.4363e+06
6.4363e+06
6.4363e+06
6.43631e+06
6.43631e+06
6.43631e+06
6.43631e+06
6.43632e+06
6.43632e+06
6.43632e+06
6.43633e+06
6.43633e+06
6.43633e+06
6.43633e+06
6.43633e+06
6.43633e+06
6.43633e+06
6.43633e+06
6.43633e+06
6.43632e+06
6.43632e+06
6.43631e+06
6.43631e+06
6.4363e+06
6.43629e+06
6.43628e+06
6.43627e+06
6.43626e+06
6.43624e+06
6.43622e+06
6.43621e+06
6.43625e+06
6.43626e+06
6.43626e+06
6.43626e+06
6.43626e+06
6.43627e+06
6.43627e+06
6.43627e+06
6.43627e+06
6.43626e+06
6.43626e+06
6.43626e+06
6.43627e+06
6.43627e+06
6.43627e+06
6.43627e+06
6.43627e+06
6.43628e+06
6.43628e+06
6.43628e+06
6.43628e+06
6.43628e+06
6.43629e+06
6.43629e+06
6.43629e+06
6.4363e+06
6.4363e+06
6.43631e+06
6.43631e+06
6.43631e+06
6.43632e+06
6.43632e+06
6.43632e+06
6.43633e+06
6.43633e+06
6.43633e+06
6.43633e+06
6.43633e+06
6.43632e+06
6.43632e+06
6.43632e+06
6.43632e+06
6.43631e+06
6.43631e+06
6.4363e+06
6.4363e+06
6.43629e+06
6.43628e+06
6.43627e+06
6.43627e+06
6.43626e+06
6.43626e+06
6.43626e+06
6.43626e+06
6.43627e+06
6.43627e+06
6.43627e+06
6.43627e+06
6.43627e+06
6.43627e+06
6.43627e+06
6.43627e+06
6.43627e+06
6.43628e+06
6.43628e+06
6.43628e+06
6.43628e+06
6.43629e+06
6.43629e+06
6.43629e+06
6.43629e+06
6.4363e+06
6.4363e+06
6.4363e+06
6.43631e+06
6.43631e+06
6.43632e+06
6.43632e+06
6.43633e+06
6.43633e+06
6.43633e+06
6.43634e+06
6.43634e+06
6.43634e+06
6.43635e+06
6.43635e+06
6.43635e+06
6.43635e+06
6.43635e+06
6.43635e+06
6.43635e+06
6.43635e+06
6.43635e+06
6.43634e+06
6.43634e+06
6.43634e+06
6.43634e+06
6.43634e+06
6.43634e+06
6.43634e+06
6.43626e+06
6.43626e+06
6.43627e+06
6.43627e+06
6.43627e+06
6.43627e+06
6.43627e+06
6.43627e+06
6.43627e+06
6.43627e+06
6.43627e+06
6.43627e+06
6.43627e+06
6.43627e+06
6.43627e+06
6.43627e+06
6.43628e+06
6.43628e+06
6.43628e+06
6.43628e+06
6.43629e+06
6.43629e+06
6.43629e+06
6.4363e+06
6.4363e+06
6.43631e+06
6.43631e+06
6.43632e+06
6.43632e+06
6.43633e+06
6.43633e+06
6.43634e+06
6.43634e+06
6.43635e+06
6.43635e+06
6.43635e+06
6.43635e+06
6.43636e+06
6.43636e+06
6.43636e+06
6.43636e+06
6.43636e+06
6.43637e+06
6.43637e+06
6.43637e+06
6.43638e+06
6.43638e+06
6.43639e+06
6.43639e+06
6.4364e+06
6.43627e+06
6.43627e+06
6.43627e+06
6.43627e+06
6.43627e+06
6.43628e+06
6.43628e+06
6.43627e+06
6.43627e+06
6.43627e+06
6.43627e+06
6.43627e+06
6.43627e+06
6.43627e+06
6.43627e+06
6.43627e+06
6.43627e+06
6.43628e+06
6.43628e+06
6.43628e+06
6.43629e+06
6.43629e+06
6.43629e+06
6.4363e+06
6.43631e+06
6.43631e+06
6.43632e+06
6.43632e+06
6.43633e+06
6.43633e+06
6.43634e+06
6.43634e+06
6.43635e+06
6.43635e+06
6.43636e+06
6.43636e+06
6.43637e+06
6.43637e+06
6.43637e+06
6.43638e+06
6.43638e+06
6.43639e+06
6.43639e+06
6.4364e+06
6.43641e+06
6.43641e+06
6.43642e+06
6.43643e+06
6.43645e+06
6.43646e+06
6.43627e+06
6.43627e+06
6.43627e+06
6.43627e+06
6.43628e+06
6.43628e+06
6.43628e+06
6.43628e+06
6.43628e+06
6.43628e+06
6.43627e+06
6.43627e+06
6.43627e+06
6.43627e+06
6.43627e+06
6.43628e+06
6.43628e+06
6.43628e+06
6.43628e+06
6.43629e+06
6.43629e+06
6.4363e+06
6.4363e+06
6.43631e+06
6.43631e+06
6.43632e+06
6.43633e+06
6.43633e+06
6.43634e+06
6.43634e+06
6.43635e+06
6.43635e+06
6.43636e+06
6.43637e+06
6.43637e+06
6.43638e+06
6.43638e+06
6.43639e+06
6.43639e+06
6.4364e+06
6.4364e+06
6.43641e+06
6.43642e+06
6.43643e+06
6.43644e+06
6.43645e+06
6.43647e+06
6.43649e+06
6.4365e+06
6.43652e+06
6.43627e+06
6.43627e+06
6.43627e+06
6.43628e+06
6.43628e+06
6.43628e+06
6.43628e+06
6.43628e+06
6.43628e+06
6.43627e+06
6.43627e+06
6.43627e+06
6.43626e+06
6.43626e+06
6.43626e+06
6.43626e+06
6.43626e+06
6.43627e+06
6.43627e+06
6.43627e+06
6.43628e+06
6.43628e+06
6.43629e+06
6.4363e+06
6.4363e+06
6.43631e+06
6.43632e+06
6.43632e+06
6.43633e+06
6.43634e+06
6.43634e+06
6.43635e+06
6.43636e+06
6.43636e+06
6.43637e+06
6.43638e+06
6.43638e+06
6.43639e+06
6.4364e+06
6.43641e+06
6.43641e+06
6.43643e+06
6.43644e+06
6.43645e+06
6.43647e+06
6.43649e+06
6.43651e+06
6.43653e+06
6.43655e+06
6.43658e+06
6.43627e+06
6.43627e+06
6.43628e+06
6.43628e+06
6.43629e+06
6.43629e+06
6.43629e+06
6.43629e+06
6.43629e+06
6.43629e+06
6.43629e+06
6.43628e+06
6.43628e+06
6.43628e+06
6.43628e+06
6.43628e+06
6.43628e+06
6.43629e+06
6.43629e+06
6.43629e+06
6.4363e+06
6.4363e+06
6.43631e+06
6.43632e+06
6.43632e+06
6.43633e+06
6.43634e+06
6.43634e+06
6.43635e+06
6.43636e+06
6.43636e+06
6.43637e+06
6.43638e+06
6.43638e+06
6.43639e+06
6.4364e+06
6.43641e+06
6.43641e+06
6.43642e+06
6.43643e+06
6.43644e+06
6.43645e+06
6.43647e+06
6.43649e+06
6.43651e+06
6.43653e+06
6.43655e+06
6.43658e+06
6.43661e+06
6.43664e+06
6.43626e+06
6.43627e+06
6.43628e+06
6.43628e+06
6.43628e+06
6.43628e+06
6.43628e+06
6.43627e+06
6.43627e+06
6.43626e+06
6.43626e+06
6.43625e+06
6.43625e+06
6.43625e+06
6.43625e+06
6.43625e+06
6.43625e+06
6.43625e+06
6.43626e+06
6.43626e+06
6.43627e+06
6.43628e+06
6.43628e+06
6.43629e+06
6.4363e+06
6.43631e+06
6.43632e+06
6.43632e+06
6.43633e+06
6.43634e+06
6.43635e+06
6.43636e+06
6.43636e+06
6.43637e+06
6.43638e+06
6.43639e+06
6.4364e+06
6.43641e+06
6.43642e+06
6.43643e+06
6.43645e+06
6.43646e+06
6.43648e+06
6.4365e+06
6.43652e+06
6.43655e+06
6.43658e+06
6.43661e+06
6.43665e+06
6.43669e+06
6.43625e+06
6.43627e+06
6.43629e+06
6.43631e+06
6.43632e+06
6.43632e+06
6.43632e+06
6.43632e+06
6.43632e+06
6.43631e+06
6.43631e+06
6.4363e+06
6.4363e+06
6.4363e+06
6.43629e+06
6.43629e+06
6.43629e+06
6.43629e+06
6.4363e+06
6.4363e+06
6.4363e+06
6.43631e+06
6.43632e+06
6.43632e+06
6.43633e+06
6.43634e+06
6.43635e+06
6.43635e+06
6.43636e+06
6.43637e+06
6.43637e+06
6.43638e+06
6.43639e+06
6.4364e+06
6.43641e+06
6.43641e+06
6.43642e+06
6.43643e+06
6.43645e+06
6.43646e+06
6.43647e+06
6.43649e+06
6.43651e+06
6.43653e+06
6.43656e+06
6.43659e+06
6.43663e+06
6.43666e+06
6.43671e+06
6.43676e+06
6.43622e+06
6.43625e+06
6.43626e+06
6.43626e+06
6.43625e+06
6.43625e+06
6.43625e+06
6.43624e+06
6.43624e+06
6.43624e+06
6.43624e+06
6.43624e+06
6.43623e+06
6.43623e+06
6.43623e+06
6.43624e+06
6.43624e+06
6.43624e+06
6.43625e+06
6.43626e+06
6.43626e+06
6.43627e+06
6.43628e+06
6.43629e+06
6.4363e+06
6.43631e+06
6.43632e+06
6.43633e+06
6.43634e+06
6.43634e+06
6.43635e+06
6.43636e+06
6.43637e+06
6.43638e+06
6.43639e+06
6.4364e+06
6.43641e+06
6.43643e+06
6.43644e+06
6.43645e+06
6.43647e+06
6.43649e+06
6.43651e+06
6.43654e+06
6.43657e+06
6.4366e+06
6.43664e+06
6.43669e+06
6.43674e+06
6.4368e+06
6.4362e+06
6.43634e+06
6.43641e+06
6.43642e+06
6.43641e+06
6.4364e+06
6.43639e+06
6.43637e+06
6.43636e+06
6.43634e+06
6.43633e+06
6.43632e+06
6.43631e+06
6.43631e+06
6.4363e+06
6.4363e+06
6.43629e+06
6.43629e+06
6.4363e+06
6.4363e+06
6.4363e+06
6.43631e+06
6.43632e+06
6.43632e+06
6.43633e+06
6.43634e+06
6.43635e+06
6.43635e+06
6.43636e+06
6.43637e+06
6.43638e+06
6.43639e+06
6.43639e+06
6.4364e+06
6.43641e+06
6.43642e+06
6.43643e+06
6.43645e+06
6.43646e+06
6.43647e+06
6.43649e+06
6.43651e+06
6.43654e+06
6.43656e+06
6.4366e+06
6.43664e+06
6.43668e+06
6.43673e+06
6.43679e+06
6.43686e+06
6.43574e+06
6.43603e+06
6.43613e+06
6.43616e+06
6.43619e+06
6.43621e+06
6.43622e+06
6.43623e+06
6.43623e+06
6.43624e+06
6.43624e+06
6.43624e+06
6.43624e+06
6.43624e+06
6.43624e+06
6.43624e+06
6.43625e+06
6.43625e+06
6.43625e+06
6.43626e+06
6.43627e+06
6.43628e+06
6.43629e+06
6.4363e+06
6.43631e+06
6.43632e+06
6.43633e+06
6.43633e+06
6.43634e+06
6.43635e+06
6.43636e+06
6.43637e+06
6.43638e+06
6.43639e+06
6.4364e+06
6.43641e+06
6.43642e+06
6.43644e+06
6.43645e+06
6.43647e+06
6.43649e+06
6.43651e+06
6.43654e+06
6.43657e+06
6.4366e+06
6.43664e+06
6.43669e+06
6.43675e+06
6.43681e+06
6.43689e+06
6.43734e+06
6.43683e+06
6.43658e+06
6.43648e+06
6.43643e+06
6.43639e+06
6.43637e+06
6.43635e+06
6.43633e+06
6.43632e+06
6.43631e+06
6.4363e+06
6.43629e+06
6.43629e+06
6.43628e+06
6.43628e+06
6.43628e+06
6.43628e+06
6.43628e+06
6.43629e+06
6.43629e+06
6.4363e+06
6.43631e+06
6.43632e+06
6.43633e+06
6.43633e+06
6.43634e+06
6.43635e+06
6.43636e+06
6.43637e+06
6.43637e+06
6.43638e+06
6.43639e+06
6.4364e+06
6.43641e+06
6.43642e+06
6.43644e+06
6.43645e+06
6.43646e+06
6.43648e+06
6.4365e+06
6.43652e+06
6.43655e+06
6.43658e+06
6.43661e+06
6.43666e+06
6.43671e+06
6.43677e+06
6.43684e+06
6.43693e+06
6.20088e+06
6.20737e+06
6.20851e+06
6.21249e+06
6.21397e+06
6.21614e+06
6.21714e+06
6.21792e+06
6.21805e+06
6.21783e+06
6.21728e+06
6.2167e+06
6.2166e+06
6.21669e+06
6.21632e+06
6.21771e+06
6.21725e+06
6.22257e+06
6.22187e+06
6.23366e+06
6.20326e+06
6.20964e+06
6.21077e+06
6.21465e+06
6.2161e+06
6.21819e+06
6.21914e+06
6.21985e+06
6.21993e+06
6.21965e+06
6.21905e+06
6.21844e+06
6.21828e+06
6.21827e+06
6.21799e+06
6.21938e+06
6.21904e+06
6.22461e+06
6.22432e+06
6.23641e+06
6.20593e+06
6.21222e+06
6.21335e+06
6.21714e+06
6.21857e+06
6.22059e+06
6.22152e+06
6.22219e+06
6.22225e+06
6.22196e+06
6.22135e+06
6.22074e+06
6.22056e+06
6.22049e+06
6.22035e+06
6.22171e+06
6.22139e+06
6.22684e+06
6.22605e+06
6.23793e+06
6.20892e+06
6.21512e+06
6.21625e+06
6.21995e+06
6.22138e+06
6.22334e+06
6.22426e+06
6.22492e+06
6.225e+06
6.22473e+06
6.22416e+06
6.22358e+06
6.22339e+06
6.22332e+06
6.22331e+06
6.22477e+06
6.22453e+06
6.22981e+06
6.22823e+06
6.23959e+06
6.21223e+06
6.21832e+06
6.21947e+06
6.22307e+06
6.22451e+06
6.22642e+06
6.22736e+06
6.22802e+06
6.22814e+06
6.22791e+06
6.22741e+06
6.22689e+06
6.22671e+06
6.22663e+06
6.22673e+06
6.22826e+06
6.22828e+06
6.23375e+06
6.23235e+06
6.24356e+06
6.21585e+06
6.22183e+06
6.22299e+06
6.2265e+06
6.22794e+06
6.22982e+06
6.23077e+06
6.23146e+06
6.23163e+06
6.23146e+06
6.23104e+06
6.2306e+06
6.23043e+06
6.23037e+06
6.23053e+06
6.23207e+06
6.2323e+06
6.23793e+06
6.23689e+06
6.248e+06
6.21976e+06
6.22564e+06
6.2268e+06
6.23022e+06
6.23167e+06
6.2335e+06
6.23447e+06
6.23518e+06
6.23541e+06
6.23532e+06
6.23499e+06
6.23462e+06
6.23448e+06
6.23444e+06
6.23465e+06
6.23615e+06
6.23647e+06
6.24207e+06
6.24123e+06
6.25211e+06
6.22397e+06
6.22973e+06
6.23089e+06
6.23422e+06
6.23566e+06
6.23745e+06
6.23843e+06
6.23916e+06
6.23944e+06
6.23942e+06
6.23918e+06
6.23889e+06
6.23878e+06
6.23877e+06
6.23901e+06
6.24046e+06
6.24082e+06
6.24627e+06
6.24549e+06
6.25603e+06
6.22847e+06
6.23409e+06
6.23526e+06
6.23847e+06
6.2399e+06
6.24164e+06
6.24262e+06
6.24335e+06
6.24367e+06
6.24371e+06
6.24355e+06
6.24333e+06
6.24325e+06
6.24327e+06
6.24355e+06
6.24495e+06
6.24533e+06
6.2506e+06
6.24985e+06
6.26001e+06
6.23324e+06
6.23872e+06
6.23988e+06
6.24298e+06
6.24437e+06
6.24604e+06
6.247e+06
6.24773e+06
6.24807e+06
6.24815e+06
6.24806e+06
6.2479e+06
6.24785e+06
6.2479e+06
6.24821e+06
6.24959e+06
6.24999e+06
6.25507e+06
6.25436e+06
6.26413e+06
6.23828e+06
6.24361e+06
6.24475e+06
6.24771e+06
6.24907e+06
6.25064e+06
6.25157e+06
6.25226e+06
6.2526e+06
6.25271e+06
6.25267e+06
6.25256e+06
6.25253e+06
6.25262e+06
6.25296e+06
6.25431e+06
6.25473e+06
6.25965e+06
6.25898e+06
6.2684e+06
6.24358e+06
6.24874e+06
6.24986e+06
6.25267e+06
6.25396e+06
6.25543e+06
6.25629e+06
6.25693e+06
6.25725e+06
6.25737e+06
6.25735e+06
6.25727e+06
6.25726e+06
6.25738e+06
6.25776e+06
6.25909e+06
6.25955e+06
6.26431e+06
6.26369e+06
6.27276e+06
6.24914e+06
6.25413e+06
6.2552e+06
6.25785e+06
6.25906e+06
6.2604e+06
6.26118e+06
6.26174e+06
6.26201e+06
6.2621e+06
6.26208e+06
6.26202e+06
6.26203e+06
6.26219e+06
6.2626e+06
6.26393e+06
6.26441e+06
6.26904e+06
6.26848e+06
6.27722e+06
6.25496e+06
6.25975e+06
6.26078e+06
6.26326e+06
6.26436e+06
6.26556e+06
6.26622e+06
6.26667e+06
6.26687e+06
6.26692e+06
6.26688e+06
6.26682e+06
6.26685e+06
6.26703e+06
6.26748e+06
6.26882e+06
6.26934e+06
6.27385e+06
6.27334e+06
6.28178e+06
6.26103e+06
6.26562e+06
6.26659e+06
6.26888e+06
6.26987e+06
6.2709e+06
6.27143e+06
6.27175e+06
6.27184e+06
6.27181e+06
6.27174e+06
6.27167e+06
6.27171e+06
6.27192e+06
6.27241e+06
6.27376e+06
6.27433e+06
6.27874e+06
6.2783e+06
6.28645e+06
6.26736e+06
6.27174e+06
6.27264e+06
6.27473e+06
6.27559e+06
6.27644e+06
6.27681e+06
6.27698e+06
6.27694e+06
6.27681e+06
6.27667e+06
6.27659e+06
6.27664e+06
6.27688e+06
6.27742e+06
6.27879e+06
6.27942e+06
6.28373e+06
6.28337e+06
6.29125e+06
6.27394e+06
6.2781e+06
6.27893e+06
6.28082e+06
6.28153e+06
6.28219e+06
6.28238e+06
6.28237e+06
6.28218e+06
6.28193e+06
6.28171e+06
6.28161e+06
6.28166e+06
6.28193e+06
6.28252e+06
6.28391e+06
6.28461e+06
6.28886e+06
6.28857e+06
6.29621e+06
6.28078e+06
6.28471e+06
6.28546e+06
6.28714e+06
6.2877e+06
6.28816e+06
6.28817e+06
6.28797e+06
6.2876e+06
6.28721e+06
6.2869e+06
6.28676e+06
6.2868e+06
6.28711e+06
6.28775e+06
6.28917e+06
6.28996e+06
6.29414e+06
6.29395e+06
6.30135e+06
6.28787e+06
6.29156e+06
6.29223e+06
6.2937e+06
6.29411e+06
6.29436e+06
6.29418e+06
6.29378e+06
6.29324e+06
6.29269e+06
6.29229e+06
6.29208e+06
6.29212e+06
6.29246e+06
6.29316e+06
6.29461e+06
6.2955e+06
6.29963e+06
6.29953e+06
6.30672e+06
6.29518e+06
6.29864e+06
6.29922e+06
6.30049e+06
6.30075e+06
6.30081e+06
6.30044e+06
6.29985e+06
6.29913e+06
6.29843e+06
6.29791e+06
6.29764e+06
6.29765e+06
6.29802e+06
6.2988e+06
6.30028e+06
6.30128e+06
6.30537e+06
6.30537e+06
6.31236e+06
6.30272e+06
6.30593e+06
6.30644e+06
6.30752e+06
6.30763e+06
6.30752e+06
6.30697e+06
6.3062e+06
6.30531e+06
6.30446e+06
6.30382e+06
6.30346e+06
6.30345e+06
6.30386e+06
6.30471e+06
6.30622e+06
6.30736e+06
6.31141e+06
6.31152e+06
6.3183e+06
6.31043e+06
6.3134e+06
6.31385e+06
6.31475e+06
6.31474e+06
6.31447e+06
6.31378e+06
6.31285e+06
6.3118e+06
6.31081e+06
6.31006e+06
6.30961e+06
6.30956e+06
6.31002e+06
6.31094e+06
6.3125e+06
6.31379e+06
6.31779e+06
6.31801e+06
6.32459e+06
6.3183e+06
6.32104e+06
6.32142e+06
6.32217e+06
6.32206e+06
6.32167e+06
6.32085e+06
6.31979e+06
6.31861e+06
6.31751e+06
6.31664e+06
6.31611e+06
6.31605e+06
6.31657e+06
6.31756e+06
6.31916e+06
6.3206e+06
6.32456e+06
6.3249e+06
6.33125e+06
6.32627e+06
6.32878e+06
6.32911e+06
6.32974e+06
6.32956e+06
6.32907e+06
6.32817e+06
6.32703e+06
6.32576e+06
6.32457e+06
6.32361e+06
6.32302e+06
6.32296e+06
6.32354e+06
6.3246e+06
6.32623e+06
6.32785e+06
6.33174e+06
6.33221e+06
6.33832e+06
6.33428e+06
6.33658e+06
6.33687e+06
6.33741e+06
6.33718e+06
6.33665e+06
6.33572e+06
6.33454e+06
6.33324e+06
6.332e+06
6.33099e+06
6.33038e+06
6.33033e+06
6.33097e+06
6.33209e+06
6.33376e+06
6.33555e+06
6.33936e+06
6.33994e+06
6.34577e+06
6.34228e+06
6.34437e+06
6.34464e+06
6.34511e+06
6.34488e+06
6.34435e+06
6.34344e+06
6.34228e+06
6.341e+06
6.33977e+06
6.33878e+06
6.33819e+06
6.33817e+06
6.33886e+06
6.34002e+06
6.34174e+06
6.34369e+06
6.34738e+06
6.34808e+06
6.35359e+06
6.35018e+06
6.35209e+06
6.35235e+06
6.35278e+06
6.35258e+06
6.3521e+06
6.35125e+06
6.35018e+06
6.34898e+06
6.34784e+06
6.34692e+06
6.3464e+06
6.34643e+06
6.34715e+06
6.34838e+06
6.35014e+06
6.35223e+06
6.35577e+06
6.35656e+06
6.3617e+06
6.35792e+06
6.35966e+06
6.35993e+06
6.36035e+06
6.36021e+06
6.35981e+06
6.35908e+06
6.35814e+06
6.35709e+06
6.35609e+06
6.35531e+06
6.3549e+06
6.35501e+06
6.35579e+06
6.3571e+06
6.3589e+06
6.36109e+06
6.36444e+06
6.3653e+06
6.37004e+06
6.36543e+06
6.36702e+06
6.3673e+06
6.36774e+06
6.36768e+06
6.3674e+06
6.36683e+06
6.36608e+06
6.36522e+06
6.36442e+06
6.36381e+06
6.36357e+06
6.36381e+06
6.36467e+06
6.36607e+06
6.3679e+06
6.37015e+06
6.37327e+06
6.37417e+06
6.37846e+06
6.37263e+06
6.37408e+06
6.37439e+06
6.37486e+06
6.37491e+06
6.37478e+06
6.3744e+06
6.37386e+06
6.37325e+06
6.37268e+06
6.37231e+06
6.37227e+06
6.37268e+06
6.37365e+06
6.37514e+06
6.37699e+06
6.37925e+06
6.38211e+06
6.38302e+06
6.38684e+06
6.37946e+06
6.3808e+06
6.38114e+06
6.38166e+06
6.38182e+06
6.38185e+06
6.38168e+06
6.38139e+06
6.38104e+06
6.38074e+06
6.38063e+06
6.38084e+06
6.38146e+06
6.38256e+06
6.38412e+06
6.38598e+06
6.3882e+06
6.39078e+06
6.39168e+06
6.39502e+06
6.38587e+06
6.38711e+06
6.38748e+06
6.38806e+06
6.38834e+06
6.38854e+06
6.38859e+06
6.38855e+06
6.38848e+06
6.38847e+06
6.38863e+06
6.38909e+06
6.38992e+06
6.39116e+06
6.39279e+06
6.39466e+06
6.39681e+06
6.39912e+06
6.39998e+06
6.40284e+06
6.39183e+06
6.39298e+06
6.39338e+06
6.39401e+06
6.39441e+06
6.39478e+06
6.39504e+06
6.39525e+06
6.39545e+06
6.39572e+06
6.39615e+06
6.39685e+06
6.39788e+06
6.39925e+06
6.40093e+06
6.40283e+06
6.40489e+06
6.40694e+06
6.40777e+06
6.41018e+06
6.39731e+06
6.39838e+06
6.39881e+06
6.3995e+06
6.4e+06
6.40052e+06
6.40098e+06
6.40142e+06
6.40187e+06
6.4024e+06
6.40308e+06
6.40399e+06
6.40519e+06
6.40668e+06
6.40843e+06
6.41035e+06
6.41232e+06
6.41413e+06
6.41493e+06
6.41692e+06
6.40229e+06
6.40329e+06
6.40375e+06
6.40449e+06
6.40509e+06
6.40574e+06
6.40637e+06
6.40702e+06
6.40769e+06
6.40845e+06
6.40934e+06
6.41044e+06
6.41178e+06
6.41338e+06
6.41519e+06
6.41711e+06
6.41897e+06
6.42059e+06
6.42136e+06
6.42298e+06
6.40679e+06
6.40773e+06
6.40821e+06
6.40898e+06
6.40966e+06
6.41042e+06
6.41119e+06
6.41201e+06
6.41288e+06
6.41383e+06
6.4149e+06
6.41614e+06
6.41759e+06
6.41926e+06
6.4211e+06
6.423e+06
6.42479e+06
6.42626e+06
6.42703e+06
6.42834e+06
6.41081e+06
6.4117e+06
6.41219e+06
6.41299e+06
6.41372e+06
6.41458e+06
6.41546e+06
6.41641e+06
6.41743e+06
6.41853e+06
6.41975e+06
6.4211e+06
6.42263e+06
6.42433e+06
6.42617e+06
6.42804e+06
6.42978e+06
6.43114e+06
6.43194e+06
6.43299e+06
6.41438e+06
6.41523e+06
6.41572e+06
6.41654e+06
6.41731e+06
6.41822e+06
6.41917e+06
6.42023e+06
6.42135e+06
6.42257e+06
6.4239e+06
6.42534e+06
6.42691e+06
6.42863e+06
6.43044e+06
6.43227e+06
6.43394e+06
6.43526e+06
6.4361e+06
6.43696e+06
6.41753e+06
6.41833e+06
6.41882e+06
6.41964e+06
6.42043e+06
6.42138e+06
6.42238e+06
6.42349e+06
6.42469e+06
6.42599e+06
6.42738e+06
6.42888e+06
6.43048e+06
6.43218e+06
6.43395e+06
6.43569e+06
6.43731e+06
6.43866e+06
6.43958e+06
6.44029e+06
6.42029e+06
6.42105e+06
6.42153e+06
6.42235e+06
6.42314e+06
6.4241e+06
6.42512e+06
6.42626e+06
6.42748e+06
6.42881e+06
6.43024e+06
6.43176e+06
6.43337e+06
6.43505e+06
6.43676e+06
6.43844e+06
6.44003e+06
6.44143e+06
6.44244e+06
6.44301e+06
6.42269e+06
6.42341e+06
6.42387e+06
6.42468e+06
6.42546e+06
6.42641e+06
6.42743e+06
6.42856e+06
6.42978e+06
6.43111e+06
6.43252e+06
6.43403e+06
6.43562e+06
6.43727e+06
6.43895e+06
6.44062e+06
6.44222e+06
6.44366e+06
6.44468e+06
6.4451e+06
6.42477e+06
6.42546e+06
6.4259e+06
6.42669e+06
6.42744e+06
6.42837e+06
6.42936e+06
6.43047e+06
6.43165e+06
6.43293e+06
6.4343e+06
6.43575e+06
6.43727e+06
6.43885e+06
6.44047e+06
6.4421e+06
6.44369e+06
6.4451e+06
6.44603e+06
6.4463e+06
6.42657e+06
6.42722e+06
6.42764e+06
6.4284e+06
6.42912e+06
6.43002e+06
6.43096e+06
6.43202e+06
6.43315e+06
6.43436e+06
6.43565e+06
6.437e+06
6.43842e+06
6.43988e+06
6.44136e+06
6.44284e+06
6.44426e+06
6.44549e+06
6.44627e+06
6.44646e+06
6.42811e+06
6.42874e+06
6.42913e+06
6.42986e+06
6.43054e+06
6.43139e+06
6.43228e+06
6.43328e+06
6.43433e+06
6.43546e+06