/*--------------------------------*- C++ -*----------------------------------*\
  =========                 |
  \\      /  F ield         | OpenFOAM: The Open Source CFD Toolbox
   \\    /   O peration     | Website:  https://openfoam.org
    \\  /    A nd           | Version:  8
     \\/     M anipulation  |
\*---------------------------------------------------------------------------*/
FoamFile
{
    version     2.0;
    format      ascii;
    class       surfaceScalarField;
    location    "800";
    object      phi;
}
// * * * * * * * * * * * * * * * * * * * * * * * * * * * * * * * * * * * * * //

dimensions      [1 0 -1 0 0 0 0];

internalField   nonuniform List<scalar> 
16360
(
-11.5713
-0.0236112
-11.5491
-0.0221668
-11.5281
-0.0209996
-11.5084
-0.0196778
-11.4902
-0.0181448
-11.4737
-0.0164692
-11.459
-0.0147387
-11.4459
-0.0130299
-11.4346
-0.0113972
-11.4248
-0.00987436
-11.4164
-0.00847918
-11.4093
-0.00721537
-11.4032
-0.00608051
-11.3982
-0.00506717
-11.394
-0.0041647
-11.3906
-0.00336492
-11.3879
-0.00266182
-11.3858
-0.00204872
-11.3843
-0.00152145
-11.3832
-0.0010726
-11.3825
-0.000688272
-11.3822
-0.000355449
-11.3821
-6.70298e-05
-11.3822
0.00017915
-11.3826
0.00038126
-11.3831
0.000534317
-11.3838
0.000636912
-11.3845
0.000695192
-11.3852
0.000715127
-11.386
0.000695539
-11.3866
0.000628723
-11.3871
0.000507991
-11.3875
0.000332857
-11.3876
0.000105223
-11.3873
-0.000178606
-11.3868
-0.000531532
-11.3857
-0.000974534
-11.3842
-0.00152883
-11.382
-0.00221253
-11.379
-0.00305399
-11.3749
-0.00409986
-11.3695
-0.00541762
-11.3624
-0.00710519
-11.3531
-0.00932114
-11.3407
-0.0123293
-11.3242
-0.0165483
-11.3016
-0.0225457
-11.2707
-0.0308498
-11.2283
-0.0423811
-0.0630255
-11.1653
-11.0568
-0.0441879
-11.0336
-0.0453013
-11.0103
-0.0442236
-10.988
-0.0419447
-10.9671
-0.0390179
-10.9478
-0.0357621
-10.9302
-0.0324004
-10.9142
-0.0290886
-10.8998
-0.0259301
-10.8868
-0.0229852
-10.8751
-0.0202847
-10.8646
-0.0178372
-10.8551
-0.0156374
-10.8465
-0.0136749
-10.8386
-0.011935
-10.8315
-0.0103997
-10.8251
-0.00905474
-10.8192
-0.00788344
-10.8139
-0.00686503
-10.809
-0.0059803
-10.8044
-0.00521188
-10.8002
-0.00454608
-10.7963
-0.00397662
-10.7925
-0.00350425
-10.789
-0.0031299
-10.7857
-0.00284734
-10.7824
-0.00264687
-10.7792
-0.00251904
-10.7761
-0.00246062
-10.7729
-0.00247599
-10.7698
-0.00257192
-10.7665
-0.00275154
-10.7631
-0.00301604
-10.7596
-0.00337344
-10.7559
-0.00384397
-10.7519
-0.0044549
-10.7476
-0.00522387
-10.743
-0.00616328
-10.738
-0.0072948
-10.7324
-0.00866579
-10.7262
-0.0103506
-10.7191
-0.0124553
-10.7111
-0.0151363
-10.7017
-0.0186258
-10.6908
-0.0232684
-10.6777
-0.0295789
-10.6619
-0.0382616
-10.6425
-0.0502433
-10.6174
-0.0674534
-0.094162
-10.5863
-10.0231
-0.0767349
-9.99486
-0.0734662
-9.96891
-0.0701121
-9.94476
-0.0660509
-9.92242
-0.0613362
-9.90193
-0.0562653
-9.88326
-0.0511244
-9.86631
-0.0461244
-9.85095
-0.0414022
-9.83701
-0.0370336
-9.82434
-0.0330504
-9.81279
-0.0294566
-9.8022
-0.0262408
-9.79247
-0.0233809
-9.7835
-0.0208531
-9.77522
-0.0186304
-9.76755
-0.0166828
-9.76044
-0.0149823
-9.75381
-0.0134999
-9.74759
-0.0122079
-9.7417
-0.0110845
-9.7361
-0.0101172
-9.73074
-0.0093021
-9.72558
-0.00863799
-9.72059
-0.0081197
-9.71571
-0.00773631
-9.7109
-0.00747559
-9.70609
-0.00732978
-9.70124
-0.00729891
-9.69633
-0.00738814
-9.6913
-0.00760131
-9.68611
-0.00793887
-9.68069
-0.00840556
-9.675
-0.00901933
-9.66903
-0.00980789
-9.66271
-0.0107946
-9.65598
-0.0119909
-9.64877
-0.0134104
-9.641
-0.0150921
-9.63256
-0.0171103
-9.62334
-0.0195685
-9.61316
-0.0226061
-9.60185
-0.0264215
-9.58918
-0.031286
-9.57485
-0.0375734
-9.55856
-0.0458183
-9.5401
-0.0567132
-9.51924
-0.0711188
-9.49599
-0.0906692
-0.119221
-9.4709
-8.96546
-0.09852
-8.93896
-0.0999292
-8.9121
-0.0969243
-8.88656
-0.0915567
-8.86287
-0.0850155
-8.84115
-0.0780131
-8.82132
-0.0710136
-8.80324
-0.0643026
-8.7867
-0.058039
-8.77154
-0.0522985
-8.75757
-0.0471013
-8.74464
-0.0424364
-8.73261
-0.0382771
-8.72137
-0.0345903
-8.71084
-0.0313362
-8.70094
-0.0284773
-8.69163
-0.0259704
-8.68284
-0.023775
-8.6745
-0.0218547
-8.66655
-0.0201777
-8.65891
-0.0187219
-8.65154
-0.0174766
-8.64438
-0.0164368
-8.63741
-0.0155964
-8.63058
-0.014945
-8.62384
-0.0144689
-8.61714
-0.0141555
-8.61043
-0.013999
-8.6037
-0.0140001
-8.59691
-0.014159
-8.59004
-0.0144714
-8.58305
-0.0149334
-8.5759
-0.0155517
-8.56861
-0.0163461
-8.56115
-0.0173366
-8.55351
-0.0185299
-8.54563
-0.0199283
-8.5375
-0.021558
-8.52911
-0.0234827
-8.52042
-0.0257957
-8.51136
-0.0286122
-8.50187
-0.0320862
-8.49185
-0.0364369
-8.48116
-0.0419578
-8.46965
-0.0490458
-8.45721
-0.0582446
-8.44373
-0.0702263
-8.42903
-0.085805
-8.41329
-0.106425
-0.133699
-8.39881
-7.73819
-0.138986
-7.70421
-0.133876
-7.6738
-0.127305
-7.64618
-0.119147
-7.62117
-0.110036
-7.59853
-0.100686
-7.57801
-0.0916011
-7.55932
-0.0830744
-7.5422
-0.0752443
-7.52643
-0.0681531
-7.51179
-0.0617891
-7.49813
-0.0561149
-7.48531
-0.0510798
-7.47323
-0.0466331
-7.46179
-0.0427176
-7.45095
-0.039281
-7.44063
-0.0362716
-7.43077
-0.0336368
-7.42131
-0.0313336
-7.41217
-0.029332
-7.40328
-0.0276144
-7.39458
-0.0261707
-7.38601
-0.0249926
-7.37752
-0.0240682
-7.36906
-0.0233822
-7.36056
-0.0229189
-7.35197
-0.0226667
-7.34328
-0.0226198
-7.33445
-0.022773
-7.32546
-0.0231147
-7.31629
-0.0236291
-7.30693
-0.0243068
-7.29738
-0.0251506
-7.28767
-0.0261681
-7.27778
-0.0273574
-7.2677
-0.0287086
-7.25743
-0.0302316
-7.24698
-0.0319794
-7.23641
-0.0340353
-7.2257
-0.0364905
-7.21483
-0.0394532
-7.20381
-0.0430819
-7.19261
-0.0476024
-7.18122
-0.0533064
-7.16966
-0.0605734
-7.15804
-0.0698922
-7.14639
-0.0818759
-7.13503
-0.0972026
-7.1245
-0.116874
-0.142354
-7.11581
-6.49362
-0.165753
-6.46167
-0.165799
-6.4306
-0.158351
-6.4023
-0.147451
-6.37698
-0.135377
-6.35436
-0.123359
-6.33401
-0.112017
-6.31555
-0.101617
-6.29864
-0.0922339
-6.283
-0.0838428
-6.26844
-0.0763806
-6.25478
-0.0697718
-6.2419
-0.0639384
-6.22969
-0.0588083
-6.21806
-0.0543124
-6.20695
-0.0503773
-6.19628
-0.0469395
-6.18598
-0.0439452
-6.176
-0.0413514
-6.16624
-0.0391282
-6.15662
-0.0372576
-6.14708
-0.0357259
-6.13756
-0.0345164
-6.128
-0.0336084
-6.11835
-0.0329796
-6.10858
-0.0326106
-6.09867
-0.0324876
-6.0886
-0.0325974
-6.07839
-0.0329207
-6.06805
-0.0334304
-6.05758
-0.0341004
-6.04704
-0.0349145
-6.03646
-0.0358631
-6.02588
-0.0369318
-6.0153
-0.0381013
-6.00471
-0.0393702
-5.99416
-0.0407835
-5.98371
-0.042426
-5.97337
-0.0443854
-5.96311
-0.0467439
-5.9529
-0.0496176
-5.94275
-0.0531871
-5.93264
-0.0576817
-5.92254
-0.0633696
-5.91252
-0.0705907
-5.90278
-0.0797272
-5.89335
-0.0912055
-5.88479
-0.105744
-5.8777
-0.123901
-0.146294
-5.87368
-5.1801
-0.21372
-5.14049
-0.205392
-5.10709
-0.191754
-5.07865
-0.175904
-5.05418
-0.159882
-5.03279
-0.144813
-5.01373
-0.131136
-4.99648
-0.118929
-4.98062
-0.108119
-4.9659
-0.0985796
-4.95209
-0.0901777
-4.93904
-0.0827942
-4.92662
-0.076328
-4.91472
-0.07068
-4.90323
-0.0657669
-4.89207
-0.0615087
-4.88117
-0.0578301
-4.87047
-0.0546696
-4.85987
-0.0519822
-4.84931
-0.0497374
-4.83869
-0.0479113
-4.82796
-0.0464767
-4.81707
-0.0453993
-4.80598
-0.0446426
-4.7947
-0.0441728
-4.78324
-0.043962
-4.77163
-0.043986
-4.75992
-0.0442175
-4.74816
-0.0446222
-4.7364
-0.0451649
-4.72472
-0.0458164
-4.71319
-0.046553
-4.70187
-0.0473504
-4.69079
-0.0481829
-4.67995
-0.0490444
-4.66935
-0.0499762
-4.65906
-0.0510657
-4.64909
-0.0524092
-4.63939
-0.0540872
-4.62989
-0.0561934
-4.62056
-0.0588758
-4.61138
-0.0623217
-4.60234
-0.0667177
-4.59343
-0.0722639
-4.58471
-0.0792403
-4.57639
-0.0879958
-4.56872
-0.098773
-4.56211
-0.11213
-4.55749
-0.128471
-0.148023
-4.5558
-3.79167
-0.248659
-3.75554
-0.241526
-3.72572
-0.221597
-3.70189
-0.199786
-3.68245
-0.179387
-3.666
-0.161332
-3.65157
-0.145625
-3.63853
-0.132007
-3.62646
-0.120185
-3.61511
-0.109902
-3.60429
-0.100958
-3.59386
-0.0931885
-3.5837
-0.0864642
-3.5737
-0.0806701
-3.56376
-0.0756973
-3.55381
-0.0714468
-3.5438
-0.0678316
-3.53371
-0.0647805
-3.52351
-0.0622399
-3.51315
-0.0601683
-3.50261
-0.0585251
-3.49186
-0.0572611
-3.48092
-0.0563227
-3.46984
-0.0556598
-3.45868
-0.0552308
-3.44754
-0.0550035
-3.43649
-0.0549499
-3.4256
-0.0550422
-3.41493
-0.055254
-3.40454
-0.0555655
-3.39447
-0.0559582
-3.38475
-0.0564077
-3.37537
-0.0568865
-3.36627
-0.0573882
-3.35739
-0.0579522
-3.34871
-0.0586635
-3.34018
-0.0596195
-3.33172
-0.0609044
-3.3232
-0.0626019
-3.31449
-0.064826
-3.30559
-0.0677135
-3.29649
-0.0713854
-3.2872
-0.0759593
-3.27784
-0.0815853
-3.26861
-0.0884154
-3.25971
-0.0966536
-3.25185
-0.106591
-3.24547
-0.11839
-3.2415
-0.132366
-0.148298
-3.24125
-2.28121
-0.308282
-2.24313
-0.279636
-2.21973
-0.245059
-2.20416
-0.215453
-2.19275
-0.190907
-2.18354
-0.170645
-2.17546
-0.153751
-2.16795
-0.1395
-2.1607
-0.127364
-2.15353
-0.116974
-2.14633
-0.108062
-2.13903
-0.100441
-2.13154
-0.0939369
-2.1238
-0.0883963
-2.11578
-0.0836846
-2.1075
-0.0796822
-2.09901
-0.0762918
-2.09038
-0.0734365
-2.08166
-0.0710562
-2.07288
-0.0690973
-2.06404
-0.0674993
-2.05516
-0.0661975
-2.04632
-0.0651399
-2.03759
-0.0642926
-2.02909
-0.0636328
-2.02086
-0.0631423
-2.01293
-0.0628055
-2.0053
-0.062614
-1.99795
-0.0625718
-1.99085
-0.062687
-1.98393
-0.0629483
-1.97711
-0.0633185
-1.9703
-0.0637673
-1.96339
-0.0643136
-1.95629
-0.0650211
-1.949
-0.065964
-1.94147
-0.0672127
-1.9336
-0.0688417
-1.92528
-0.0709287
-1.91653
-0.0735439
-1.90747
-0.0767405
-1.89826
-0.080552
-1.88905
-0.0850435
-1.88012
-0.0903495
-1.8719
-0.0965642
-1.86468
-0.103585
-1.85931
-0.11181
-1.85653
-0.121217
-1.85712
-0.131838
-0.143297
-1.86216
-0.658022
-0.372324
-0.635417
-0.302312
-0.624207
-0.256417
-0.618143
-0.221718
-0.614835
-0.194426
-0.612601
-0.173036
-0.610514
-0.155863
-0.608179
-0.141708
-0.605486
-0.129825
-0.602449
-0.119767
-0.59912
-0.111235
-0.595494
-0.104017
-0.591517
-0.0979225
-0.587145
-0.0927486
-0.582418
-0.088307
-0.577491
-0.0844567
-0.572582
-0.0811175
-0.567849
-0.078255
-0.563318
-0.07585
-0.558885
-0.073863
-0.554414
-0.0722187
-0.549855
-0.0708308
-0.545277
-0.0696437
-0.540791
-0.0686521
-0.536439
-0.0678822
-0.532155
-0.0673595
-0.527817
-0.0670886
-0.52332
-0.0670537
-0.518613
-0.0672302
-0.513678
-0.0675904
-0.508484
-0.0681051
-0.502981
-0.0687488
-0.497115
-0.0695122
-0.490882
-0.0704009
-0.484372
-0.071428
-0.477718
-0.0726486
-0.470958
-0.0741632
-0.464008
-0.0760314
-0.456825
-0.0782228
-0.449578
-0.0806943
-0.442626
-0.0834835
-0.436342
-0.0866813
-0.430996
-0.0903401
-0.426751
-0.0944722
-0.423959
-0.0991486
-0.423243
-0.104174
-0.425345
-0.109527
-0.431166
-0.115278
-0.441448
-0.12155
-0.127542
-0.457106
1.02691
-0.370193
1.01688
-0.292395
1.01171
-0.251435
1.00865
-0.218865
1.0062
-0.192134
1.0038
-0.170684
1.00151
-0.153476
0.999449
-0.13944
0.997676
-0.127825
0.996222
-0.118143
0.995104
-0.110056
0.994367
-0.103291
0.994062
-0.0976093
0.994204
-0.0928027
0.994746
-0.0887011
0.995578
-0.0851823
0.996583
-0.0821666
0.997701
-0.0795984
0.998957
-0.0774276
1.00042
-0.0755999
1.00213
-0.0740583
1.00408
-0.072756
1.00617
-0.0716666
1.00836
-0.0707823
1.0106
-0.0701038
1.01289
-0.0696333
1.01519
-0.069372
1.01748
-0.0693175
1.01975
-0.0694575
1.02199
-0.0697712
1.02423
-0.0702401
1.02646
-0.070861
1.02872
-0.0716444
1.031
-0.0725999
1.03327
-0.0737338
1.03551
-0.0750677
1.03773
-0.0766329
1.04
-0.0784411
1.04232
-0.0804921
1.04458
-0.0828014
1.0466
-0.0854037
1.04829
-0.0883407
1.0496
-0.0916199
1.05035
-0.0951759
1.05038
-0.0989405
1.04918
-0.102837
1.04634
-0.106656
1.04126
-0.110121
1.03277
-0.112915
-0.114168
1.0196
2.76115
-0.305096
2.73192
-0.263236
2.70754
-0.22714
2.68998
-0.201391
2.67732
-0.179523
2.66754
-0.16089
2.65956
-0.145415
2.65283
-0.132599
2.64703
-0.121924
2.64194
-0.112998
2.63743
-0.10553
2.63341
-0.0992728
2.62985
-0.0940108
2.62669
-0.089561
2.62387
-0.0857766
2.62128
-0.0825479
2.61887
-0.0797925
2.6166
-0.0774439
2.61448
-0.0754447
2.61253
-0.0737449
2.61074
-0.0723022
2.60908
-0.0710858
2.60751
-0.0700777
2.606
-0.0692693
2.60454
-0.0686558
2.60314
-0.0682343
2.60178
-0.0680021
2.60045
-0.0679548
2.59914
-0.0680839
2.59783
-0.0683789
2.59653
-0.0688349
2.59521
-0.0694555
2.59388
-0.0702479
2.59253
-0.0712167
2.59112
-0.0723629
2.58965
-0.0736894
2.58814
-0.0752017
2.58661
-0.0769051
2.58502
-0.0788181
2.58327
-0.0809733
2.58124
-0.0833895
2.57889
-0.0860527
2.57616
-0.0889148
2.57288
-0.0919004
2.56885
-0.0948557
2.56374
-0.0976295
2.55715
-0.0999269
2.5485
-0.101368
2.53713
-0.101368
-0.0990998
2.52222
4.42874
-0.277543
4.40164
-0.236161
4.38404
-0.209584
4.36907
-0.186438
4.35633
-0.166791
4.34536
-0.149908
4.33563
-0.135636
4.3268
-0.12372
4.3187
-0.113778
4.31119
-0.105473
4.3042
-0.0985374
4.29768
-0.0927382
4.29157
-0.0878705
4.28583
-0.0837596
4.28039
-0.0802688
4.27517
-0.0772951
4.27011
-0.0747585
4.26519
-0.0725935
4.2604
-0.0707438
4.25575
-0.06916
4.25122
-0.0678032
4.24677
-0.0666488
4.24237
-0.0656852
4.23798
-0.0649071
4.23362
-0.0643095
4.22926
-0.0638876
4.22491
-0.0636371
4.22054
-0.0635544
4.21615
-0.0636362
4.21172
-0.0638806
4.20724
-0.064289
4.20268
-0.0648639
4.19805
-0.0656062
4.19333
-0.0665131
4.18851
-0.06758
4.18358
-0.068803
4.17855
-0.0701837
4.1734
-0.0717337
4.16808
-0.0734775
4.16254
-0.0754407
4.15671
-0.0776257
4.15055
-0.0799947
4.14406
-0.082476
4.13715
-0.0849655
4.12966
-0.0873154
4.12142
-0.089311
4.11217
-0.0906076
4.10159
-0.0907182
4.08925
-0.0889598
-0.0844195
4.07465
6.32791
-0.202222
6.27855
-0.186815
6.23253
-0.163581
6.19344
-0.14735
6.15975
-0.133086
6.13019
-0.120324
6.10392
-0.109323
6.08028
-0.10005
6.0588
-0.0922852
6.03913
-0.0858008
6.021
-0.0803998
6.00418
-0.0759034
5.98851
-0.0721485
5.97382
-0.0689971
5.95995
-0.066341
5.94677
-0.0640969
5.93419
-0.062199
5.92212
-0.0605925
5.91053
-0.0592276
5.89939
-0.0580613
5.88863
-0.057063
5.87819
-0.056218
5.86801
-0.0555229
5.85807
-0.0549767
5.84833
-0.0545773
5.83877
-0.0543215
5.82938
-0.0542081
5.82012
-0.054239
5.81097
-0.0544183
5.8019
-0.0547501
5.79289
-0.0552359
5.7839
-0.0558749
5.77494
-0.0566618
5.766
-0.0575875
5.75706
-0.0586452
5.74811
-0.0598339
5.73912
-0.0611631
5.73007
-0.0626545
5.72093
-0.064334
5.71165
-0.0662141
5.70222
-0.0682818
5.69264
-0.0704939
5.68294
-0.0727914
5.6731
-0.0750685
5.66304
-0.0772045
5.65275
-0.0789384
5.64207
-0.0799078
5.63084
-0.07945
5.61854
-0.076637
-0.0699872
5.60412
7.48254
-0.186799
7.4529
-0.157176
7.43434
-0.145016
7.41843
-0.131441
7.40457
-0.119211
7.39261
-0.10833
7.38216
-0.0988562
7.37291
-0.0907791
7.3646
-0.083971
7.35706
-0.0782679
7.35017
-0.0735059
7.34383
-0.0695293
7.33794
-0.0661966
7.3324
-0.063389
7.32712
-0.0610121
7.32203
-0.0589932
7.31706
-0.0572752
7.31221
-0.055809
7.30746
-0.054548
7.30281
-0.0534516
7.29823
-0.0524945
7.29366
-0.051668
7.2891
-0.0509721
7.28452
-0.0504084
7.27992
-0.0499759
7.27529
-0.0496738
7.27064
-0.0495042
7.26593
-0.0494733
7.26115
-0.0495881
7.25628
-0.0498521
7.25131
-0.0502628
7.24622
-0.0508106
7.24101
-0.0514809
7.23569
-0.0522621
7.23023
-0.0531556
7.22461
-0.0541746
7.21882
-0.0553383
7.21285
-0.0566689
7.20666
-0.058187
7.20027
-0.0598972
7.19371
-0.0617877
7.18701
-0.0638336
7.18026
-0.0659978
7.17345
-0.068216
7.16669
-0.0703939
7.16005
-0.0723109
7.15369
-0.0735845
7.14771
-0.0735458
7.14219
-0.0711562
-0.0650679
7.13723
10.0597
-0.0986772
10.0022
-0.0995963
9.94412
-0.0869638
9.8928
-0.080103
9.84673
-0.0731208
9.80488
-0.0664686
9.76668
-0.0606453
9.73161
-0.0557033
9.69922
-0.0515827
9.66915
-0.0481916
9.64108
-0.0454186
9.61475
-0.0431501
9.5899
-0.0412847
9.56632
-0.0397397
9.54379
-0.0384513
9.52216
-0.0373713
9.5013
-0.0364625
9.48112
-0.0356938
9.46155
-0.0350324
9.44253
-0.0344478
9.42395
-0.0339261
9.40575
-0.0334699
9.38785
-0.0330867
9.37021
-0.0327805
9.3528
-0.0325532
9.33557
-0.0324091
9.31847
-0.0323599
9.30147
-0.0324228
9.28452
-0.0326129
9.26759
-0.0329338
9.25068
-0.0333745
9.23375
-0.0339127
9.21679
-0.0345275
9.19978
-0.0352157
9.18267
-0.0359946
9.16544
-0.0368887
9.14805
-0.0379177
9.13046
-0.0390939
9.11265
-0.0404256
9.09462
-0.0419161
9.07639
-0.0435708
9.05798
-0.0454086
9.03948
-0.0474355
9.02095
-0.0496763
9.00265
-0.0520819
8.9849
-0.0546128
8.96826
-0.0569966
8.95335
-0.0586813
8.94046
-0.0582528
-0.0523438
8.92772
9.5204
-0.0930917
9.49697
-0.0761598
9.49062
-0.0805987
9.48589
-0.0753593
9.48162
-0.0688347
9.47799
-0.0628407
9.4749
-0.0575551
9.47227
-0.0530844
9.47013
-0.0494475
9.46849
-0.0465475
9.46734
-0.0442416
9.46664
-0.0423935
9.46633
-0.0408913
9.46631
-0.0396472
9.46648
-0.0385949
9.46678
-0.0376867
9.46717
-0.0368929
9.46763
-0.0362027
9.46817
-0.0355958
9.46875
-0.0350376
9.46935
-0.0345185
9.46992
-0.0340498
9.47047
-0.0336439
9.47099
-0.0333075
9.4715
-0.0330465
9.47201
-0.0328734
9.47249
-0.0328062
9.47295
-0.0328618
9.47337
-0.033045
9.47373
-0.0333408
9.47405
-0.03372
9.47429
-0.0341552
9.47444
-0.0346387
9.47448
-0.0351907
9.47439
-0.0358489
9.47417
-0.0366458
9.47384
-0.0376035
9.47347
-0.0387463
9.47313
-0.0401077
9.47294
-0.0417327
9.47307
-0.0436815
9.47375
-0.0460419
9.47527
-0.0489177
9.47808
-0.0524793
9.48283
-0.0569027
9.49063
-0.0624612
9.50304
-0.0694614
9.52246
-0.0781282
9.55249
-0.088247
-0.10006
9.60022
14.9101
0.00385538
14.8613
-0.0272932
14.8089
-0.0282597
14.7609
-0.0273213
14.7173
-0.0252595
14.6773
-0.0227817
14.6402
-0.0204522
14.6056
-0.0185659
14.5734
-0.0171791
14.543
-0.0162167
14.5144
-0.0155702
14.4872
-0.0151431
14.4612
-0.0148595
14.4363
-0.0146586
14.4122
-0.0144911
14.3888
-0.0143198
14.366
-0.0141304
14.3438
-0.0139627
14.322
-0.013823
14.3006
-0.0136514
14.2795
-0.0134412
14.2587
-0.0132172
14.238
-0.0129971
14.2175
-0.012787
14.1971
-0.0126008
14.1767
-0.0124666
14.1563
-0.0124167
14.1359
-0.0124708
14.1155
-0.0126271
14.0949
-0.0128624
14.0744
-0.0131461
14.0537
-0.0134602
14.033
-0.013808
14.012
-0.0142132
13.9909
-0.0147063
13.9695
-0.0153033
13.9479
-0.0160062
13.9259
-0.0168293
13.9036
-0.0178029
13.8809
-0.0189676
13.8576
-0.0203738
13.8337
-0.0220944
13.809
-0.0242448
13.7835
-0.0269165
13.7569
-0.0303722
13.7294
-0.0349144
13.7011
-0.0411376
13.6728
-0.0497923
13.6456
-0.0610498
-0.0722896
13.6179
10.5232
0.0300763
10.4891
0.00681996
10.4554
0.00543073
10.4208
0.0073087
10.3865
0.00901223
10.3537
0.010004
10.3232
0.0100911
10.2952
0.00940621
10.2697
0.00824723
10.2466
0.00688401
10.2256
0.0054859
10.2064
0.00413882
10.1888
0.00288731
10.1724
0.00176675
10.1571
0.000817251
10.1427
8.08857e-05
10.1289
-0.000409613
10.1156
-0.000629591
10.1025
-0.000771422
10.0899
-0.000975505
10.0775
-0.00114222
10.0655
-0.00123251
10.0538
-0.00124396
10.0422
-0.00118934
10.0307
-0.00109739
10.0193
-0.00100999
10.0078
-0.00096506
9.99625
-0.000976966
9.9846
-0.00103219
9.97285
-0.00110781
9.96097
-0.0011944
9.94889
-0.00130254
9.93656
-0.00145127
9.92396
-0.00164627
9.91106
-0.00187255
9.8978
-0.00210631
9.88409
-0.00232422
9.86977
-0.00251538
9.85466
-0.00268878
9.83857
-0.00287613
9.82129
-0.00310404
9.80256
-0.00336327
9.78206
-0.00370585
9.75929
-0.00412169
9.73363
-0.00467583
9.70424
-0.00546785
9.67
-0.006828
9.62988
-0.00963342
9.58477
-0.0159344
-0.0273165
9.5398
-7.21103
-7.2042
-7.19876
-7.19146
-7.18245
-7.17246
-7.16238
-7.15298
-7.14472
-7.1378
-7.13227
-7.12807
-7.12515
-7.12338
-7.12258
-7.12252
-7.12294
-7.12357
-7.12433
-7.12531
-7.12648
-7.12772
-7.12894
-7.13009
-7.13118
-7.13221
-7.13323
-7.13423
-7.13524
-7.13629
-7.13743
-7.13872
-7.1402
-7.1419
-7.14381
-7.14593
-7.14824
-7.15074
-7.15343
-7.15631
-7.1594
-7.1628
-7.16643
-7.17049
-7.17508
-7.18051
-7.1873
-7.19693
-7.21288
-7.24025
0.40644
-0.00853576
0.409427
-0.00299656
0.411579
-0.00216345
0.412619
-0.00105071
0.412939
-0.000329659
0.412883
4.49451e-05
0.412627
0.000246631
0.41225
0.000365968
0.411801
0.000438717
0.411309
0.000482333
0.410791
0.000507704
0.410259
0.000521714
0.40972
0.000528516
0.409179
0.00053056
0.408639
0.00052937
0.408103
0.000525928
0.407571
0.000520864
0.407046
0.000514585
0.406528
0.000507349
0.406018
0.000499313
0.405516
0.000490561
0.405024
0.000481119
0.404542
0.000470964
0.404071
0.000460034
0.403611
0.000448231
0.403164
0.000435425
0.402731
0.000421451
0.402313
0.000406106
0.401911
0.000389136
0.401529
0.000370239
0.401167
0.000349086
0.400828
0.000325314
0.400516
0.000298473
0.400234
0.000268131
0.399986
0.000233299
0.399778
0.0001932
0.399615
0.000146832
0.399506
9.29902e-05
0.39946
3.02672e-05
0.399486
-4.32934e-05
0.399599
-0.00013029
0.399816
-0.000234
0.400157
-0.00035876
0.40065
-0.000510692
0.401331
-0.00069901
0.402252
-0.000938534
0.403489
-0.00125484
0.405167
-0.00169592
0.407511
-0.00236108
-0.0034659
0.41096
0.393861
-0.00450221
0.393029
-0.00218381
0.391617
-0.000771641
0.390871
-0.000323284
0.390509
1.41783e-05
0.390311
0.000224166
0.390214
0.000325467
0.390187
0.000374209
0.390208
0.000398386
0.390263
0.000408908
0.390341
0.000411379
0.390434
0.000409278
0.390539
0.000404644
0.390652
0.000398554
0.390771
0.000391578
0.390893
0.000384021
0.391019
0.000376023
0.391147
0.000367622
0.391276
0.000358783
0.391406
0.000349414
0.391537
0.00033938
0.391669
0.000328499
0.391803
0.000316549
0.39194
0.00030327
0.392078
0.000288363
0.392221
0.00027149
0.392368
0.000252271
0.392522
0.000230262
0.392683
0.000204924
0.392854
0.000175611
0.393038
0.000141625
0.393236
0.000102262
0.393453
5.64928e-05
0.393691
3.05114e-06
0.393957
-5.94386e-05
0.394255
-0.00013255
0.394591
-0.000218229
0.394974
-0.000318839
0.395411
-0.000437245
0.395915
-0.000577337
0.396497
-0.000743797
0.397174
-0.000942576
0.397965
-0.00118159
0.398894
-0.00147165
0.399991
-0.00182815
0.401294
-0.00227368
0.40285
-0.00284265
0.404712
-0.00358917
0.406919
-0.00459998
-0.00601075
0.409432
0.394426
-0.00103205
0.393286
-0.0010606
0.393087
-0.000589634
0.393107
-0.000359585
0.393322
-0.000217871
0.393613
-8.31288e-05
0.393899
2.31149e-05
0.394158
9.90543e-05
0.394385
0.000154236
0.394583
0.000194699
0.394754
0.000223873
0.394902
0.000244378
0.395032
0.000258294
0.395147
0.000267173
0.395249
0.000272125
0.395343
0.000273938
0.395428
0.000273165
0.395509
0.000270176
0.395585
0.000265181
0.395659
0.000258271
0.395732
0.000249426
0.395804
0.000238532
0.395877
0.000225388
0.395953
0.000209719
0.396032
0.00019117
0.396115
0.000169316
0.396205
0.000143697
0.396302
0.000113761
0.396408
7.87806e-05
0.396526
3.78454e-05
0.396656
-1.00225e-05
0.396803
-6.60617e-05
0.396969
-0.000131697
0.397158
-0.000208679
0.397374
-0.000298686
0.397621
-0.000404166
0.397906
-0.00052794
0.398235
-0.0006734
0.398616
-0.000844709
0.399059
-0.00104708
0.399575
-0.00128692
0.400177
-0.00157229
0.400881
-0.00191353
0.401706
-0.00232433
0.402674
-0.00282311
0.403807
-0.00343507
0.405133
-0.00419541
0.406671
-0.00515365
0.408423
-0.00637806
-0.00795748
0.410343
0.397514
-0.000650073
0.39734
-0.000903234
0.397412
-0.000677333
0.397467
-0.000430998
0.397479
-0.000246294
0.397471
-9.11142e-05
0.397444
3.41169e-05
0.397402
0.000125192
0.397352
0.000188098
0.3973
0.00023059
0.39725
0.0002582
0.397203
0.000274864
0.397162
0.000283512
0.397126
0.000286309
0.397097
0.000284786
0.397075
0.000279986
0.397059
0.000272596
0.397049
0.00026304
0.397046
0.000251537
0.397049
0.000238138
0.397059
0.000222753
0.397075
0.000205183
0.397098
0.000185127
0.397128
0.000162172
0.397165
0.000135781
0.397211
0.000105325
0.397266
7.02444e-05
0.397331
2.96811e-05
0.397407
-1.72684e-05
0.397497
-7.16434e-05
0.397601
-0.000134727
0.397722
-0.000208172
0.397862
-0.000293798
0.398025
-0.000393746
0.398214
-0.000510465
0.398432
-0.000646965
0.398687
-0.000806816
0.398983
-0.000994275
0.399327
-0.00121449
0.399727
-0.00147376
0.400193
-0.00177975
0.400736
-0.00214189
0.401367
-0.00257199
0.402101
-0.00308507
0.402951
-0.00370027
0.40393
-0.00444214
0.40505
-0.00534241
0.406311
-0.00644127
0.407695
-0.00778785
-0.00943611
0.409148
0.397564
-0.000317979
0.397125
-0.00048066
0.396815
-0.000383421
0.396603
-0.00023522
0.39646
-0.000119042
0.396382
-2.90085e-05
0.396357
4.32117e-05
0.396369
9.7588e-05
0.396405
0.000135899
0.396457
0.00016193
0.396521
0.000178884
0.39659
0.000188966
0.396664
0.000193793
0.396739
0.000194573
0.396816
0.000192159
0.396892
0.000187123
0.396968
0.000179829
0.397044
0.000170457
0.39712
0.000159035
0.397196
0.000145476
0.397272
0.000129585
0.397349
0.000111068
0.397428
8.95217e-05
0.397508
6.44457e-05
0.39759
3.51689e-05
0.397676
9.74419e-07
0.397767
-3.8985e-05
0.397863
-8.56803e-05
0.397967
-0.000140199
0.398079
-0.000203771
0.398202
-0.000277972
0.398337
-0.000364626
0.398487
-0.000465872
0.398655
-0.000584226
0.398844
-0.000722639
0.399058
-0.000884606
0.399301
-0.00107427
0.399579
-0.00129656
0.399896
-0.00155738
0.40026
-0.00186379
0.400678
-0.00222426
0.401158
-0.00264902
0.401709
-0.00315053
0.402341
-0.00374401
0.403062
-0.00444803
0.403878
-0.00528528
0.404791
-0.00628305
0.405797
-0.00747317
0.406874
-0.00889137
-0.0105736
0.407986
0.397796
-0.000217133
0.397643
-0.000344897
0.397562
-0.000318226
0.39755
-0.000238833
0.397571
-0.000156613
0.39761
-8.33061e-05
0.397656
-1.88811e-05
0.397703
3.49e-05
0.397746
7.68894e-05
0.397783
0.000108025
0.397816
0.000130053
0.397844
0.000144558
0.397869
0.000152897
0.397891
0.000156198
0.397912
0.000155363
0.397931
0.000151065
0.397951
0.000143764
0.397971
0.000133728
0.397993
0.000121063
0.398016
0.000105727
0.398041
8.75332e-05
0.398068
6.61667e-05
0.398099
4.12004e-05
0.398134
1.20664e-05
0.398173
-2.18811e-05
0.398217
-6.14112e-05
0.398267
-0.000107557
0.398324
-0.000161347
0.398388
-0.000224017
0.398462
-0.000297019
0.398545
-0.000382098
0.398641
-0.000481315
0.39875
-0.000597089
0.398876
-0.000732257
0.39902
-0.000890136
0.399186
-0.00107463
0.399378
-0.00129033
0.399599
-0.00154268
0.399854
-0.00183808
0.400148
-0.00218411
0.400487
-0.00258968
0.400876
-0.0030654
0.401322
-0.00362381
0.401831
-0.00427969
0.402406
-0.00505041
0.40305
-0.00595631
0.40376
-0.00702022
0.404528
-0.00826729
0.405333
-0.00972294
-0.0114104
0.406145
0.397843
-0.000163733
0.397731
-0.000249031
0.397623
-0.000226571
0.397536
-0.000168105
0.397466
-0.000102421
0.39741
-4.32565e-05
0.397369
6.45784e-06
0.397342
4.60455e-05
0.397328
7.53794e-05
0.397324
9.54266e-05
0.39733
0.000107756
0.397345
0.000113868
0.397367
0.000115023
0.397394
0.000112218
0.397427
0.000106202
0.397464
9.74942e-05
0.397505
8.64077e-05
0.39755
7.30864e-05
0.397597
5.75208e-05
0.397646
3.95282e-05
0.397698
1.88036e-05
0.397752
-5.10061e-06
0.397809
-3.27493e-05
0.397868
-6.48242e-05
0.39793
-0.000102069
0.397996
-0.000145385
0.398065
-0.000195842
0.39814
-0.000254619
0.398219
-0.000323087
0.398305
-0.000402859
0.398398
-0.000495843
0.3985
-0.00060428
0.398612
-0.0007308
0.398736
-0.000878476
0.398874
-0.00105091
0.399027
-0.00125231
0.3992
-0.0014876
0.399395
-0.00176255
0.399615
-0.00208391
0.399864
-0.0024595
0.400146
-0.00289847
0.400465
-0.00341148
0.400825
-0.00401083
0.401229
-0.00471061
0.401678
-0.00552692
0.402172
-0.00647771
0.402708
-0.00758237
0.403275
-0.00886116
0.40386
-0.0103335
-0.0120167
0.40444
0.39787
-0.00013759
0.397804
-0.000198916
0.397738
-0.00017719
0.39769
-0.00013592
0.397662
-9.0025e-05
0.397651
-4.85032e-05
0.397656
-1.39375e-05
0.397673
1.34674e-05
0.397698
3.38948e-05
0.39773
4.79448e-05
0.397765
5.65089e-05
0.397802
6.05184e-05
0.39784
6.07437e-05
0.397878
5.77754e-05
0.397916
5.20468e-05
0.397954
4.38473e-05
0.39799
3.33218e-05
0.398026
2.04807e-05
0.398062
5.20734e-06
0.398098
-1.27368e-05
0.398133
-3.37095e-05
0.398169
-5.81949e-05
0.398206
-8.68088e-05
0.398244
-0.000120257
0.398283
-0.00015935
0.398324
-0.000205027
0.398368
-0.000258372
0.398415
-0.000320635
0.398466
-0.000393268
0.398521
-0.000477981
0.398581
-0.000576781
0.398648
-0.000692026
0.398722
-0.000826482
0.398804
-0.000983387
0.398897
-0.00116652
0.399001
-0.00138029
0.399119
-0.00162981
0.399252
-0.00192105
0.399403
-0.00226088
0.399574
-0.00265727
0.399768
-0.00311938
0.399987
-0.00365772
0.400233
-0.00428419
0.400508
-0.00501222
0.40081
-0.0058567
0.401139
-0.00683353
0.401489
-0.00795959
0.401853
-0.00925136
0.402217
-0.010724
-0.0123897
0.402565
0.397879
-0.000119813
0.397827
-0.000163237
0.39777
-0.000136903
0.39772
-0.000101878
0.397681
-6.62832e-05
0.397652
-3.51783e-05
0.397632
-1.02563e-05
0.397621
8.39467e-06
0.397618
2.11685e-05
0.397621
2.86869e-05
0.39763
3.16894e-05
0.397644
3.09315e-05
0.397661
2.70416e-05
0.397682
2.05049e-05
0.397706
1.16771e-05
0.397733
7.69125e-07
0.397762
-1.21456e-05
0.397793
-2.71206e-05
0.397826
-4.43318e-05
0.397861
-6.40618e-05
0.397897
-8.67269e-05
0.397935
-0.000112867
0.397974
-0.00014314
0.398014
-0.000178305
0.398056
-0.000219222
0.398099
-0.000266868
0.398145
-0.00032237
0.398192
-0.000387031
0.398242
-0.000462366
0.398294
-0.000550146
0.398349
-0.000652448
0.398407
-0.000771707
0.39847
-0.000910777
0.398537
-0.001073
0.398609
-0.00126225
0.398688
-0.00148303
0.398774
-0.00174055
0.398869
-0.00204084
0.398973
-0.00239083
0.399088
-0.00279845
0.399214
-0.0032728
0.399353
-0.00382413
0.399506
-0.00446396
0.399671
-0.00520512
0.399848
-0.00606149
0.400035
-0.00704764
0.400227
-0.00817864
0.400418
-0.0094689
0.4006
-0.0109313
-0.0125767
0.400761
0.397881
-0.000103907
0.397834
-0.000132666
0.397783
-0.000102462
0.397738
-7.26142e-05
0.397703
-4.72127e-05
0.39768
-2.76901e-05
0.397668
-1.40461e-05
0.397666
-5.68162e-06
0.397673
-1.77445e-06
0.397687
-1.51951e-06
0.397707
-4.21831e-06
0.397731
-9.319e-06
0.397759
-1.64157e-05
0.397788
-2.52342e-05
0.397819
-3.56249e-05
0.397851
-4.7562e-05
0.397884
-6.11197e-05
0.397917
-7.64635e-05
0.39795
-9.38588e-05
0.397983
-0.000113675
0.398016
-0.000136392
0.398048
-0.000162594
0.39808
-0.000192967
0.398113
-0.000228285
0.398145
-0.000269422
0.398177
-0.000317368
0.398209
-0.000373262
0.398242
-0.000438416
0.398274
-0.000514358
0.398307
-0.000602871
0.39834
-0.000706046
0.398373
-0.000826336
0.398407
-0.000966616
0.398442
-0.00113024
0.398477
-0.00132108
0.398514
-0.00154365
0.398552
-0.00180314
0.398591
-0.00210553
0.398632
-0.00245768
0.398675
-0.00286743
0.398719
-0.00334367
0.398764
-0.00389642
0.398809
-0.00453688
0.398853
-0.00527736
0.398895
-0.00613103
0.398932
-0.00711183
0.39896
-0.00823359