/*--------------------------------*- C++ -*----------------------------------*\
  =========                 |
  \\      /  F ield         | OpenFOAM: The Open Source CFD Toolbox
   \\    /   O peration     | Website:  https://openfoam.org
    \\  /    A nd           | Version:  8
     \\/     M anipulation  |
\*---------------------------------------------------------------------------*/
FoamFile
{
    version     2.0;
    format      ascii;
    class       volScalarField;
    location    "800";
    object      T;
}
// * * * * * * * * * * * * * * * * * * * * * * * * * * * * * * * * * * * * * //

dimensions      [0 0 0 1 0 0 0];

internalField   nonuniform List<scalar> 
8400
(
300.88
300.866
300.859
300.851
300.844
300.837
300.831
300.825
300.82
300.815
300.81
300.805
300.801
300.796
300.791
300.786
300.781
300.775
300.769
300.763
300.756
300.749
300.742
300.734
300.726
300.717
300.707
300.698
300.687
300.677
300.665
300.654
300.642
300.629
300.616
300.603
300.59
300.576
300.562
300.548
300.533
300.519
300.504
300.49
300.475
300.46
300.445
300.43
300.413
300.396
300.656
300.643
300.635
300.628
300.62
300.614
300.608
300.603
300.598
300.593
300.589
300.584
300.58
300.576
300.572
300.568
300.564
300.56
300.556
300.552
300.548
300.543
300.539
300.534
300.529
300.523
300.518
300.512
300.506
300.5
300.494
300.487
300.481
300.474
300.467
300.46
300.452
300.445
300.438
300.43
300.423
300.415
300.408
300.4
300.393
300.385
300.378
300.37
300.363
300.355
300.536
300.525
300.52
300.515
300.511
300.506
300.502
300.499
300.495
300.492
300.489
300.486
300.483
300.48
300.477
300.475
300.472
300.469
300.466
300.463
300.459
300.456
300.453
300.449
300.446
300.442
300.438
300.434
300.43
300.426
300.421
300.417
300.412
300.407
300.403
300.398
300.393
300.388
300.383
300.378
300.373
300.368
300.364
300.359
300.354
300.349
300.345
300.34
300.336
300.332
300.369
300.361
300.357
300.354
300.35
300.347
300.344
300.342
300.339
300.337
300.335
300.333
300.331
300.329
300.327
300.325
300.323
300.321
300.319
300.317
300.315
300.313
300.311
300.309
300.307
300.305
300.303
300.301
300.299
300.297
300.295
300.292
300.29
300.288
300.286
300.284
300.281
300.279
300.277
300.275
300.273
300.271
300.269
300.267
300.266
300.264
300.262
300.261
300.26
300.258
300.248
300.241
300.241
300.24
300.238
300.237
300.236
300.235
300.234
300.233
300.232
300.231
300.23
300.229
300.228
300.227
300.226
300.225
300.225
300.224
300.223
300.222
300.221
300.22
300.219
300.218
300.217
300.216
300.215
300.214
300.213
300.212
300.211
300.21
300.209
300.208
300.207
300.206
300.205
300.204
300.203
300.203
300.202
300.201
300.201
300.2
300.2
300.2
300.2
300.2
300.153
300.15
300.15
300.149
300.149
300.149
300.148
300.148
300.148
300.147
300.147
300.146
300.146
300.146
300.145
300.145
300.145
300.144
300.144
300.144
300.144
300.143
300.143
300.143
300.142
300.142
300.142
300.142
300.141
300.141
300.141
300.141
300.14
300.14
300.14
300.14
300.14
300.14
300.14
300.14
300.14
300.14
300.14
300.14
300.141
300.141
300.141
300.142
300.143
300.144
300.089
300.085
300.087
300.087
300.088
300.088
300.088
300.089
300.089
300.089
300.089
300.09
300.09
300.09
300.09
300.09
300.09
300.09
300.09
300.09
300.09
300.091
300.091
300.091
300.091
300.091
300.091
300.091
300.091
300.091
300.091
300.091
300.091
300.091
300.091
300.092
300.092
300.092
300.093
300.093
300.093
300.094
300.094
300.095
300.095
300.096
300.096
300.097
300.098
300.099
300.049
300.048
300.049
300.05
300.05
300.051
300.052
300.052
300.053
300.053
300.054
300.054
300.054
300.055
300.055
300.055
300.055
300.056
300.056
300.056
300.056
300.056
300.056
300.057
300.057
300.057
300.057
300.057
300.057
300.057
300.058
300.058
300.058
300.058
300.059
300.059
300.059
300.06
300.06
300.06
300.061
300.061
300.061
300.062
300.062
300.063
300.063
300.064
300.065
300.066
300.022
300.02
300.021
300.022
300.023
300.023
300.024
300.025
300.026
300.026
300.027
300.027
300.028
300.028
300.029
300.029
300.029
300.03
300.03
300.03
300.031
300.031
300.031
300.032
300.032
300.032
300.032
300.033
300.033
300.033
300.034
300.034
300.034
300.035
300.035
300.035
300.035
300.036
300.036
300.036
300.037
300.037
300.037
300.038
300.038
300.039
300.039
300.04
300.041
300.042
300.007
300.006
300.006
300.006
300.007
300.007
300.008
300.009
300.009
300.01
300.01
300.011
300.011
300.012
300.012
300.013
300.013
300.013
300.014
300.014
300.014
300.015
300.015
300.015
300.016
300.016
300.016
300.017
300.017
300.017
300.018
300.018
300.018
300.019
300.019
300.019
300.02
300.02
300.02
300.021
300.021
300.021
300.022
300.022
300.023
300.023
300.024
300.024
300.025
300.026
300.002
300.002
300.003
300.004
300.004
300.004
300.005
300.005
300.005
300.005
300.006
300.006
300.006
300.007
300.007
300.007
300.007
300.008
300.008
300.008
300.009
300.009
300.009
300.01
300.01
300.01
300.01
300.011
300.011
300.011
300.012
300.012
300.012
300.013
300.013
300.013
300.014
300.014
300.015
300.015
300.016
300.016
300.017
300.017
300.018
300.018
300.019
300.02
300.02
300.021
300.004
300.004
300.005
300.005
300.005
300.006
300.006
300.006
300.007
300.007
300.007
300.008
300.008
300.008
300.009
300.009
300.01
300.01
300.01
300.011
300.011
300.011
300.012
300.012
300.013
300.013
300.013
300.014
300.014
300.015
300.015
300.015
300.016
300.016
300.017
300.017
300.018
300.018
300.019
300.019
300.02
300.02
300.021
300.022
300.022
300.023
300.024
300.025
300.025
300.026
300.004
300.005
300.005
300.006
300.007
300.007
300.008
300.009
300.009
300.01
300.01
300.011
300.012
300.012
300.013
300.014
300.014
300.015
300.016
300.016
300.017
300.018
300.018
300.019
300.02
300.02
300.021
300.021
300.022
300.023
300.023
300.024
300.025
300.025
300.026
300.027
300.027
300.028
300.029
300.029
300.03
300.031
300.032
300.032
300.033
300.034
300.035
300.035
300.036
300.037
300.012
300.014
300.015
300.017
300.018
300.019
300.02
300.021
300.022
300.023
300.024
300.024
300.025
300.026
300.027
300.027
300.028
300.029
300.029
300.03
300.031
300.031
300.032
300.033
300.033
300.034
300.034
300.035
300.036
300.036
300.037
300.037
300.038
300.039
300.039
300.04
300.04
300.041
300.042
300.042
300.043
300.044
300.044
300.045
300.046
300.046
300.047
300.048
300.049
300.049
300.005
300.005
300.004
300.003
300.003
300.003
300.003
300.004
300.004
300.005
300.005
300.006
300.007
300.008
300.008
300.009
300.01
300.011
300.012
300.013
300.014
300.015
300.016
300.017
300.018
300.019
300.02
300.021
300.022
300.023
300.024
300.025
300.027
300.028
300.029
300.03
300.032
300.033
300.034
300.035
300.037
300.038
300.04
300.041
300.042
300.044
300.045
300.047
300.048
300.049
300.024
300.029
300.033
300.037
300.04
300.044
300.047
300.05
300.053
300.056
300.058
300.061
300.063
300.066
300.068
300.07
300.072
300.074
300.076
300.078
300.08
300.082
300.084
300.086
300.088
300.089
300.091
300.093
300.095
300.096
300.098
300.1
300.101
300.103
300.105
300.107
300.108
300.11
300.111
300.113
300.115
300.116
300.118
300.119
300.121
300.122
300.123
300.124
300.125
300.126
300.003
300.001
299.997
299.994
299.992
299.99
299.988
299.987
299.986
299.985
299.985
299.984
299.984
299.984
299.984
299.985
299.985
299.985
299.985
299.985
299.985
299.986
299.986
299.986
299.986
299.987
299.987
299.988
299.988
299.989
299.989
299.99
299.991
299.992
299.992
299.993
299.994
299.995
299.996
299.997
299.997
299.998
299.999
300
300
300.001
300.001
300.001
300.001
299.999
300.039
300.047
300.054
300.061
300.069
300.076
300.082
300.089
300.095
300.101
300.106
300.112
300.118
300.123
300.128
300.134
300.139
300.144
300.149
300.154
300.159
300.163
300.168
300.173
300.178
300.182
300.187
300.192
300.196
300.201
300.205
300.21
300.215
300.219
300.224
300.228
300.233
300.237
300.242
300.246
300.251
300.256
300.261
300.266
300.271
300.277
300.283
300.289
300.296
300.305
300.003
300.003
300.002
300.001
300
299.998
299.997
299.996
299.996
299.995
299.995
299.995
299.994
299.994
299.994
299.995
299.995
299.995
299.995
299.995
299.995
299.995
299.995
299.995
299.996
299.996
299.996
299.996
299.997
299.997
299.998
299.998
299.998
299.999
299.999
299.999
300
300
300
300
300.001
300.001
300.001
300.002
300.002
300.003
300.004
300.006
300.011
300.023
302.148
302.143
302.141
302.141
302.14
302.138
302.136
302.133
302.13
302.126
302.122
302.118
302.114
302.109
302.104
302.099
302.094
302.089
302.084
302.079
302.074
302.069
302.064
302.058
302.052
302.046
302.04
302.033
302.027
302.02
302.013
302.006
301.999
301.992
301.985
301.977
301.969
301.962
301.954
301.946
301.937
301.929
301.921
301.912
301.904
301.895
301.886
301.878
301.868
301.859
303.148
303.145
303.143
303.14
303.137
303.135
303.132
303.13
303.127
303.125
303.123
303.12
303.118
303.116
303.113
303.111
303.109
303.107
303.105
303.102
303.1
303.098
303.096
303.094
303.092
303.09
303.088
303.086
303.084
303.082
303.08
303.079
303.077
303.075
303.073
303.071
303.069
303.068
303.066
303.064
303.062
303.061
303.059
303.057
303.056
303.054
303.053
303.052
303.051
303.05
303.15
303.15
303.15
303.15
303.15
303.15
303.15
303.149
303.149
303.149
303.149
303.149
303.148
303.148
303.148
303.148
303.148
303.147
303.147
303.147
303.146
303.146
303.146
303.146
303.145
303.145
303.145
303.144
303.144
303.144
303.143
303.143
303.143
303.142
303.142
303.142
303.141
303.141
303.141
303.141
303.14
303.14
303.14
303.139
303.139
303.139
303.139
303.139
303.138
303.138
303.15
303.15
303.15
303.15
303.15
303.15
303.15
303.15
303.15
303.15
303.15
303.15
303.15
303.15
303.15
303.15
303.15
303.15
303.15
303.15
303.15
303.15
303.15
303.15
303.15
303.15
303.15
303.15
303.15
303.15
303.15
303.15
303.15
303.15
303.15
303.149
303.149
303.149
303.149
303.149
303.149
303.149
303.149
303.149
303.149
303.149
303.149
303.149
303.149
303.149
303.15
303.15
303.15
303.15
303.15
303.15
303.15
303.15
303.15
303.15
303.15
303.15
303.15
303.15
303.15
303.15
303.15
303.15
303.15
303.15
303.15
303.15
303.15
303.15
303.15
303.15
303.15
303.15
303.15
303.15
303.15
303.15
303.15
303.15
303.15
303.15
303.15
303.15
303.15
303.15
303.15
303.15
303.15
303.15
303.15
303.15
303.15
303.15
303.15
303.15
303.15
303.15
303.15
303.15
303.15
303.15
303.15
303.15
303.15
303.15
303.15
303.15
303.15
303.15
303.15
303.15
303.15
303.15
303.15
303.15
303.15
303.15
303.15
303.15
303.15
303.15
303.15
303.15
303.15
303.15
303.15
303.15
303.15
303.15
303.15
303.15
303.15
303.15
303.15
303.15
303.15
303.15
303.15
303.15
303.15
303.15
303.15
303.15
303.15
303.15
303.15
303.15
303.15
303.15
303.15
303.15
303.15
303.15
303.15
303.15
303.15
303.15
303.15
303.15
303.15
303.15
303.15
303.15
303.15
303.15
303.15
303.15
303.15
303.15
303.15
303.15
303.15
303.15
303.15
303.15
303.15
303.15
303.15
303.15
303.15
303.15
303.15
303.15
303.15
303.15
303.15
303.15
303.15
303.15
303.15
303.15
303.15
303.15
303.15
303.15
303.15
303.15
303.15
303.15
303.15
303.15
303.15
303.15
303.15
303.15
303.15
303.15
303.15
303.15
303.15
303.15
303.15
303.15
303.15
303.15
303.15
303.15
303.15
303.15
303.15
303.15
303.15
303.15
303.15
303.15
303.15
303.15
303.15
303.15
303.15
303.15
303.15
303.15
303.15
303.15
303.15
303.15
303.15
303.15
303.15
303.15
303.15
303.15
303.15
303.15
303.15
303.15
303.15
303.15
303.15
303.15
303.15
303.15
303.15
303.15
303.15
303.15
303.15
303.15
303.15
303.15
303.15
303.15
303.15
303.15
303.15
303.15
303.15
303.15
303.15
303.15
303.15
303.15
303.15
303.15
303.15
303.15
303.15
303.15
303.15
303.15
303.15
303.15
303.15
303.15
303.15
303.15
303.15
303.15
303.15
303.15
303.15
303.15
303.15
303.15
303.15
303.15
303.15
303.15
303.15
303.15
303.15
303.15
303.15
303.15
303.15
303.15
303.15
303.15
303.15
303.15
303.15
303.15
303.15
303.15
303.15
303.15
303.15
303.15
303.15
303.15
303.15
303.15
303.15
303.15
303.15
303.15
303.15
303.15
303.15
303.15
303.15
303.15
303.15
303.15
303.15
303.15
303.15
303.15
303.15
303.15
303.15
303.15
303.15
303.15
303.15
303.15
303.15
303.15
303.15
303.15
303.15
303.15
303.15
303.15
303.15
303.15
303.15
303.15
303.15
303.15
303.15
303.15
303.15
303.15
303.15
303.15
303.15
303.15
303.15
303.15
303.15
303.15
303.15
303.15
303.15
303.15
303.15
303.15
303.15
303.15
303.15
303.15
303.15
303.15
303.15
303.15
303.15
303.15
303.15
303.15
303.15
303.15
303.15
303.15
303.15
303.15
303.15
303.15
303.15
303.15
303.15
303.15
303.15
303.15
303.15
303.15
303.15
303.15
303.15
303.15
303.15
303.15
303.15
303.15
303.15
303.15
303.15
303.15
303.15
303.15
303.15
303.15
303.15
303.15
303.15
303.15
303.15
303.15
303.15
303.15
303.15
303.15
303.15
303.15
303.15
303.15
303.15
303.15
303.15
303.15
303.15
303.15
303.15
303.15
303.15
303.15
303.15
303.15
303.15
303.15
303.15
303.15
303.15
303.15
303.15
303.15
303.15
303.15
303.15
303.15
303.15
303.15
303.15
303.15
303.15
303.15
303.15
303.15
303.15
303.15
303.15
303.15
303.15
303.15
303.15
303.15
303.15
303.15
303.15
303.15
303.15
303.15
303.15
303.15
303.15
303.15
303.15
303.15
303.15
303.15
303.15
303.15
303.15
303.15
303.15
303.15
303.15
303.15
303.15
303.15
303.15
303.15
303.15
303.15
303.15
303.15
303.15
303.15
303.15
303.15
303.15
303.15
303.15
303.15
303.15
303.15
303.15
303.15
303.15
303.15
303.15
303.15
303.15
303.15
303.15
303.15
303.15
303.15
303.15
303.15
303.15
303.15
303.15
303.15
303.15
303.15
303.15
303.15
303.15
303.15
303.15
303.15
303.15
303.15
303.15
303.15
303.15
303.15
303.15
303.15
303.15
303.15
303.15
303.15
303.15
303.15
303.15
303.15
303.15
303.15
303.15
303.15
303.15
303.15
303.15
303.15
303.15
303.15
303.15
303.15
303.15
303.15
303.15
303.15
303.15
303.15
303.15
303.15
303.15
303.15
303.15
303.15
303.15
303.15
303.15
303.15
303.15
303.15
303.15
303.15
303.15
303.15
303.15
303.15
303.15
303.15
303.15
303.15
303.15
303.15
303.15
303.15
303.15
303.15
303.15
303.15
303.15
303.15
303.15
303.15
303.15
303.15
303.15
303.15
303.15
303.15
303.15
303.15
303.15
303.15
303.15
303.15
303.15
303.15
303.15
303.15
303.15
303.15
303.15
303.15
303.15
303.15
303.15
303.15
303.15
303.15
303.15
303.15
303.15
303.15
303.15
303.15
303.15
303.15
303.15
303.15
303.15
303.15
303.15
303.15
303.15
303.15
303.15
303.15
303.15
303.15
303.15
303.15
303.15
303.15
303.15
303.15
303.15
303.15
303.15
303.15
303.15
303.15
303.15
303.15
303.15
303.15
303.15
303.15
303.15
303.15
303.15
303.15
303.15
303.15
303.15
303.15
303.15
303.15
303.15
303.15
303.15
303.15
303.15
303.15
303.15
303.15
303.15
303.15
303.15
303.15
303.15
303.15
303.15
303.15
303.15
303.15
303.15
303.15
303.15
303.15
303.15
303.15
303.15
303.15
303.15
303.15
303.15
303.15
303.15
303.15
303.15
303.15
303.15
303.15
303.15
303.15
303.15
303.15
303.15
303.15
303.15
303.15
303.15
303.15
303.15
303.15
303.15
303.15
303.15
303.15
303.15
303.15
303.15
303.15
303.15
303.15
303.15
303.15
303.15
303.15
303.15
303.15
303.15
303.15
303.15
303.15
303.15
303.15
303.15
303.15
303.15
303.15
303.15
303.15
303.15
303.15
303.15
303.15
303.15
303.15
303.15
303.15
303.15
303.15
303.15
303.15
303.15
303.15
303.15
303.15
303.149
303.149
303.149
303.149
303.149
303.149
303.149
303.149
303.149
303.149
303.149
303.149
303.149
303.149
303.148
303.148
303.148
303.148
303.15
303.15
303.15
303.15
303.15
303.15
303.15
303.149
303.149
303.149
303.149
303.149
303.148
303.148
303.148
303.148
303.148
303.147
303.147
303.147
303.146
303.146
303.146
303.146
303.145
303.145
303.145
303.144
303.144
303.144
303.143
303.143
303.142
303.142
303.142
303.141
303.141
303.14
303.14
303.14
303.139
303.139
303.138
303.137
303.137
303.136
303.136
303.135
303.134
303.133
303.148
303.145
303.143
303.14
303.137
303.135
303.132
303.13
303.127
303.125
303.123
303.12
303.118
303.116
303.113
303.111
303.109
303.107
303.105
303.102
303.1
303.098
303.096
303.094
303.092
303.09
303.088
303.086
303.084
303.082
303.08
303.078
303.077
303.075
303.073
303.071
303.069
303.067
303.066
303.064
303.062
303.06
303.059
303.057
303.055
303.053
303.052
303.05
303.048
303.047
303.066
303.084
302.949
302.705
302.385
302.046
301.745
301.518
301.362
301.233
301.089
300.985
300.976
300.967
300.986
301.035
301.082
301.093
301.05
300.942
303.065
303.086
302.954
302.715
302.399
302.061
301.759
301.53
301.373
301.243
301.098
300.992
300.985
300.986
301.009
301.059
301.107
301.122
301.08
300.967
303.065
303.088
302.961
302.727
302.416
302.079
301.775
301.544
301.384
301.253
301.108
301
300.993
300.998
301.024
301.074
301.124
301.141
301.099
300.984
303.065
303.091
302.969
302.741
302.434
302.099
301.794
301.558
301.395
301.264
301.119
301.008
300.999
301.009
301.036
301.088
301.141
301.16
301.118
301.001
303.065
303.094
302.977
302.756
302.455
302.122
301.814
301.574
301.407
301.275
301.131
301.016
301.004
301.017
301.047
301.101
301.156
301.178
301.137
301.018
303.065
303.097
302.986
302.773
302.478
302.147
301.836
301.591
301.42
301.287
301.144
301.025
301.008
301.023
301.056
301.112
301.171
301.196
301.156
301.034
303.065
303.1
302.996
302.791
302.502
302.173
301.86
301.61
301.434
301.299
301.158
301.035
301.012
301.028
301.063
301.123
301.185
301.214
301.174
301.05
303.065
303.104
303.006
302.81
302.529
302.202
301.886
301.629
301.448
301.312
301.173
301.046
301.016
301.032
301.069
301.132
301.198
301.231
301.192
301.066
303.064
303.107
303.016
302.829
302.556
302.233
301.914
301.65
301.462
301.325
301.188
301.059
301.02
301.035
301.075
301.14
301.21
301.248
301.21
301.082
303.064
303.111
303.026
302.849
302.585
302.265
301.943
301.672
301.478
301.339
301.204
301.073
301.025
301.039
301.079
301.148
301.222
301.264
301.227
301.097
303.064
303.114
303.037
302.87
302.614
302.298
301.974
301.696
301.495
301.353
301.221
301.089
301.032
301.042
301.084
301.155
301.233
301.279
301.244
301.112
303.063
303.118
303.047
302.89
302.644
302.333
302.007
301.722
301.512
301.368
301.239
301.107
301.04
301.047
301.089
301.162
301.243
301.294
301.261
301.127
303.063
303.121
303.058
302.911
302.675
302.37
302.042
301.749
301.531
301.383
301.258
301.127
301.052
301.053
301.095
301.169
301.254
301.308
301.277
301.142
303.062
303.124
303.068
302.931
302.707
302.408
302.079
301.779
301.551
301.399
301.277
301.15
301.066
301.062
301.103
301.177
301.264
301.321
301.292
301.156
303.061
303.126
303.077
302.952
302.738
302.447
302.118
301.81
301.573
301.415
301.297
301.175
301.085
301.074
301.112
301.186
301.274
301.333
301.306
301.17
303.06
303.129
303.086
302.971
302.77
302.487
302.159
301.845
301.597
301.433
301.317
301.202
301.108
301.09
301.125
301.197
301.284
301.345
301.32
301.183
303.059
303.131
303.095
302.991
302.802
302.529
302.203
301.882
301.624
301.451
301.337
301.23
301.135
301.11
301.14
301.209
301.296
301.356
301.332
301.196
303.058
303.133
303.103
303.009
302.834
302.572
302.25
301.923
301.653
301.471
301.357
301.259
301.167
301.134
301.16
301.224
301.307
301.367
301.343
301.209
303.057
303.135
303.11
303.027
302.866
302.616
302.299
301.968
301.686
301.493
301.377
301.288
301.202
301.163
301.183
301.241
301.32
301.377
301.353
301.221
303.055
303.136
303.117
303.044
302.897
302.661
302.351
302.017
301.723
301.518
301.397
301.316
301.238
301.196
301.21
301.261
301.333
301.385
301.362
301.232
303.053
303.137
303.123
303.06
302.927
302.707
302.407
302.071
301.765
301.545
301.418
301.342
301.275
301.232
301.239
301.282
301.346
301.393
301.37
301.243
303.051
303.138
303.129
303.075
302.957
302.753
302.465
302.131
301.814
301.576
301.438
301.366
301.309
301.269
301.271
301.305
301.36
301.4
301.376
301.253
303.049
303.139
303.134
303.089
302.985
302.8
302.527
302.196
301.869
301.613
301.46
301.387
301.341
301.305
301.303
301.329
301.373
301.406
301.381
301.262
303.047
303.139
303.138
303.101
303.013
302.846
302.591
302.267
301.932
301.657
301.485
301.405
301.367
301.338
301.333
301.351
301.386
301.41
301.384
301.27
303.044
303.139
303.141
303.112
303.038
302.892
302.657
302.345
302.005
301.709
301.514
301.422
301.388
301.366
301.36
301.371
301.396
301.413
301.386
301.278
303.042
303.139
303.144
303.121
303.061
302.936
302.724
302.429
302.088
301.773
301.549
301.439
301.403
301.388
301.382
301.388
301.405
301.415
301.386
301.284
303.039
303.139
303.146
303.129
303.082
302.978
302.792
302.517
302.182
301.85
301.596
301.458
301.413
301.403
301.398
301.401
301.411
301.414
301.385
301.29
303.035
303.138
303.148
303.136
303.1
303.016
302.857
302.609
302.286
301.943
301.657
301.483
301.42
301.41
301.408
301.409
301.414
301.412
301.383
301.294
303.032
303.137
303.149
303.141
303.115
303.05
302.919
302.702
302.4
302.053
301.736
301.521
301.428
301.412
301.412
301.413
301.414
301.408
301.379
301.298
303.028
303.136
303.149
303.145
303.126
303.078
302.976
302.793
302.52
302.181
301.84
301.578
301.443
301.409
301.411
301.411
301.41
301.403
301.374
301.3
303.024
303.135
303.15
303.147
303.135
303.102
303.025
302.878
302.642
302.323
301.97
301.662
301.472
301.407
301.405
301.406
301.404
301.395
301.368
301.302
303.02
303.134
303.15
303.149
303.142
303.12
303.066
302.955
302.761
302.475
302.126
301.781
301.529
301.412
301.394
301.397
301.396
301.387
301.362
301.302
303.015
303.133
303.15
303.15
303.146
303.133
303.097
303.019
302.87
302.629
302.304
301.94
301.625
301.438
301.384
301.385
301.385
301.377
301.354
301.301
303.011
303.131
303.149
303.15
303.148
303.141
303.12
303.069
302.963
302.776
302.493
302.137
301.776
301.505
301.385
301.371
301.372
301.365
301.346
301.3
303.006
303.13
303.149
303.151
303.15
303.146
303.135
303.105
303.036
302.903
302.68
302.361
301.983
301.636
301.418
301.357
301.357
301.353
301.337
301.297
303.001
303.128
303.149
303.151
303.15
303.149
303.143
303.127
303.088
303.004
302.845
302.589
302.239
301.847
301.522
301.36
301.342
301.34
301.327
301.293
302.996
303.126
303.149
303.151
303.151
303.15
303.148
303.14
303.121
303.074
302.976
302.796
302.513
302.134
301.731
301.432
301.33
301.325
301.316
301.289
302.991
303.125
303.148
303.15
303.151
303.15
303.149
303.147
303.138
303.116
303.064
302.957
302.764
302.458
302.052
301.633
301.359
301.313
301.304
301.283
302.986
303.123
303.148
303.15
303.151
303.15
303.15
303.149
303.146
303.137
303.114
303.062
302.954
302.755
302.434
302
301.562
301.325
301.295
301.277
302.98
303.121
303.148
303.15
303.15
303.15
303.15
303.15
303.149
303.145
303.136
303.115
303.067
302.968
302.777
302.453
301.989
301.504
301.312
301.274
302.975
303.119
303.147
303.15
303.15
303.15
303.15
303.15
303.15
303.148
303.145
303.137
303.119
303.079
302.998
302.835
302.534
302.05
301.498
301.312
302.971
303.117
303.147
303.15
303.15
303.15
303.15
303.15
303.15
303.149
303.148
303.145
303.137
303.121
303.09
303.032
302.919
302.691
302.24
301.596
302.966
303.115
303.147
303.15
303.15
303.15
303.15
303.15
303.15
303.15
303.149
303.148
303.144
303.135
303.119
303.091
303.047
302.979
302.869
302.608
302.961
303.113
303.146
303.15
303.15
303.15
303.15
303.15
303.15
303.15
303.15
303.149
303.147
303.142
303.132
303.112
303.079
303.026
302.954
302.857
302.957
303.112
303.146
303.15
303.15
303.15
303.15
303.15
303.15
303.15
303.15
303.149
303.148
303.145
303.139
303.125
303.098
303.051
302.976
302.863
302.953
303.11
303.146
303.15
303.15
303.15
303.15
303.15
303.15
303.15
303.15
303.15
303.149
303.147
303.143
303.133
303.112
303.069
302.993
302.866
302.95
303.108
303.145
303.15
303.15
303.15
303.15
303.15
303.15
303.15
303.15
303.15
303.15
303.149
303.146
303.138
303.121
303.082
303.007
302.868
302.947
303.107
303.145
303.15
303.15
303.15
303.15
303.15
303.15
303.15
303.15
303.15
303.15
303.149
303.147
303.142
303.128
303.093
303.018
302.87
302.944
303.106
303.145
303.15
303.15
303.15
303.15
303.15
303.15
303.15
303.15
303.15
303.15
303.149
303.148
303.144
303.132
303.101
303.027
302.872
302.941
303.105
303.144
303.15
303.15
303.15
303.15
303.15
303.15
303.15
303.15
303.15
303.15
303.15
303.149
303.146
303.136
303.107
303.035
302.873
302.939
303.104
303.144
303.149
303.15
303.15
303.15
303.15
303.15
303.15
303.15
303.15
303.15
303.15
303.149
303.147
303.139
303.112
303.041
302.875
302.937
303.103
303.144
303.149
303.15
303.15
303.15
303.15
303.15
303.15
303.15
303.15
303.15
303.15
303.149
303.147
303.14
303.116
303.046
302.876
302.936
303.102
303.144
303.149
303.15
303.15
303.15
303.15
303.15
303.15
303.15
303.15
303.15
303.15
303.15
303.148
303.142
303.12
303.051
302.878
302.935
303.101
303.144
303.149
303.15
303.15
303.15
303.15
303.15
303.15
303.15
303.15
303.15
303.15
303.15
303.148
303.143
303.122
303.054
302.879
302.934
303.101
303.144
303.149
303.15
303.15
303.15
303.15
303.15
303.15
303.15
303.15
303.15
303.15
303.15
303.149
303.144
303.124
303.058
302.881
302.933
303.1
303.144
303.149
303.15
303.15
303.15
303.15
303.15
303.15
303.15
303.15
303.15
303.15
303.15
303.149
303.145
303.126
303.06
302.882
302.933
303.1
303.144
303.149
303.15
303.15
303.15
303.15
303.15
303.15
303.15
303.15
303.15
303.15
303.15
303.149
303.145
303.128
303.063
302.883
302.933
303.1
303.143
303.149
303.15
303.15
303.15
303.15
303.15
303.15
303.15
303.15
303.15
303.15
303.15
303.149
303.145
303.129
303.065
302.885
302.933
303.1
303.143
303.149
303.15
303.15
303.15
303.15
303.15
303.15
303.15
303.15
303.15
303.15
303.15
303.149
303.146
303.13
303.067
302.886
302.933
303.1
303.143
303.149
303.15
303.15
303.15
303.15
303.15
303.15
303.15
303.15
303.15
303.15
303.15
303.149
303.146
303.131
303.068
302.887
302.933
303.1
303.143
303.149
303.15
303.15
303.15
303.15
303.15
303.15
303.15
303.15
303.15
303.15
303.15
303.149
303.146
303.132
303.07
302.889
302.934
303.1
303.143
303.149
303.15
303.15
303.15
303.15
303.15
303.15
303.15
303.15
303.15
303.15
303.15
303.149
303.147
303.132
303.071
302.89
302.934
303.1
303.143
303.149
303.15
303.15
303.15
303.15
303.15
303.15
303.15
303.15
303.15
303.15
303.15
303.149
303.147
303.133
303.072
302.891
302.935
303.1
303.143
303.149
303.15
303.15
303.15
303.15
303.15
303.15
303.15
303.15
303.15
303.15
303.15
303.149
303.147
303.133
303.073
302.893
302.935
303.1
303.144
303.149
303.15
303.15
303.15
303.15
303.15
303.15
303.15
303.15
303.15
303.15
303.15
303.149
303.147
303.134
303.075
302.894
302.936
303.101
303.144
303.149
303.15
303.15
303.15
303.15
303.15
303.15
303.15
303.15
303.15
303.15
303.15
303.15
303.147
303.134
303.075
302.895
302.937
303.101
303.144
303.149
303.15
303.15
303.15
303.15
303.15
303.15
303.15
303.15
303.15
303.15
303.15
303.15
303.147
303.135
303.076
302.897
302.938
303.101
303.144
303.149
303.15
303.15
303.15
303.15
303.15
303.15
303.15
303.15
303.15
303.15
303.15
303.15
303.147
303.135
303.077
302.898
302.939
303.101
303.144
303.149
303.15
303.15
303.15
303.15
303.15
303.15
303.15
303.15
303.15
303.15
303.15
303.15
303.147
303.135
303.078
302.899
302.94
303.102
303.144
303.149
303.15
303.15
303.15
303.15
303.15
303.15
303.15
303.15
303.15
303.15
303.15
303.15
303.147
303.135
303.079
302.901
302.941
303.102
303.144
303.149
303.15
303.15
303.15
303.15
303.15
303.15
303.15
303.15
303.15
303.15
303.15
303.15
303.147
303.136
303.079
302.902
302.942
303.102
303.144
303.149
303.15
303.15
303.15
303.15
303.15
303.15
303.15
303.15
303.15
303.15
303.15
303.15
303.148
303.136
303.08
302.903
302.943
303.103
303.144
303.149
303.15
303.15
303.15
303.15
303.15
303.15
303.15
303.15
303.15
303.15
303.15
303.15
303.148
303.136
303.081
302.905
302.944
303.103
303.144
303.149
303.15
303.15
303.15
303.15
303.15
303.15
303.15
303.15
303.15
303.15
303.15
303.15
303.148
303.136
303.081
302.906
302.945
303.103
303.144
303.149
303.15
303.15
303.15
303.15
303.15
303.15
303.15
303.15
303.15
303.15
303.15
303.15
303.148
303.136
303.082
302.907
302.946
303.104
303.144
303.149
303.15
303.15
303.15
303.15
303.15
303.15
303.15
303.15
303.15
303.15
303.15
303.15
303.148
303.137
303.083
302.909
302.948
303.104
303.144
303.149
303.15
303.15
303.15
303.15
303.15
303.15
303.15
303.15
303.15
303.15
303.15
303.15
303.148
303.137
303.083
302.91
302.949
303.105
303.144
303.149
303.15
303.15
303.15
303.15
303.15
303.15
303.15
303.15
303.15
303.15
303.15
303.15
303.148
303.137
303.084
302.911
302.95
303.105
303.144
303.149
303.15
303.15
303.15
303.15
303.15
303.15
303.15
303.15
303.15
303.15
303.15
303.15
303.148
303.137
303.085
302.913
302.951
303.106
303.144
303.149
303.15
303.15
303.15
303.15
303.15
303.15
303.15
303.15
303.15
303.15
303.15
303.15
303.148
303.137
303.085
302.914
302.952
303.106
303.144
303.149
303.15
303.15
303.15
303.15
303.15
303.15
303.15
303.15
303.15
303.15
303.15
303.15
303.148
303.137
303.086
302.915
302.953
303.106
303.145
303.149
303.15
303.15
303.15
303.15
303.15
303.15
303.15
303.15
303.15
303.15
303.15
303.15
303.148
303.138
303.086
302.917
302.954
303.107
303.145
303.149
303.15
303.15
303.15
303.15
303.15
303.15
303.15
303.15
303.15
303.15
303.15
303.15
303.148
303.138
303.087
302.918
302.955
303.107
303.145
303.149
303.15
303.15
303.15
303.15
303.15
303.15
303.15
303.15
303.15
303.15
303.15
303.15
303.148
303.138
303.088
302.919
302.957
303.108
303.145
303.149
303.15
303.15
303.15
303.15
303.15
303.15
303.15
303.15
303.15
303.15
303.15
303.15
303.148
303.138
303.088
302.921
302.958
303.108
303.145
303.149
303.15
303.15
303.15
303.15
303.15
303.15
303.15
303.15
303.15
303.15
303.15
303.15
303.148
303.138
303.089
302.922
302.959
303.109
303.145
303.149
303.15
303.15
303.15
303.15
303.15
303.15
303.15
303.15
303.15
303.15
303.15
303.15
303.148
303.138
303.089
302.924
302.96
303.109
303.145
303.15
303.15
303.15
303.15
303.15
303.15
303.15
303.15
303.15
303.15
303.15
303.15
303.15
303.148
303.138
303.09
302.925
302.961
303.11
303.145
303.15
303.15
303.15
303.15
303.15
303.15
303.15
303.15
303.15
303.15
303.15
303.15
303.15
303.148
303.139
303.09
302.926
302.962
303.11
303.145
303.15
303.15
303.15
303.15
303.15
303.15
303.15
303.15
303.15
303.15
303.15
303.15
303.15
303.148
303.139
303.091
302.928
302.963
303.111
303.145
303.15
303.15
303.15
303.15
303.15
303.15
303.15
303.15
303.15
303.15
303.15
303.15
303.15
303.148
303.139
303.091
302.929
302.965
303.111
303.145
303.15
303.15
303.15
303.15
303.15
303.15
303.15
303.15
303.15
303.15
303.15
303.15
303.15
303.148
303.139
303.092
302.931
302.966
303.111
303.145
303.15
303.15
303.15
303.15
303.15
303.15
303.15
303.15
303.15
303.15
303.15
303.15
303.15
303.148
303.139
303.093
302.932
302.967
303.112
303.146
303.15
303.15
303.15
303.15
303.15
303.15
303.15
303.15
303.15
303.15
303.15
303.15