/*--------------------------------*- C++ -*----------------------------------*\
  =========                 |
  \\      /  F ield         | OpenFOAM: The Open Source CFD Toolbox
   \\    /   O peration     | Website:  https://openfoam.org
    \\  /    A nd           | Version:  8
     \\/     M anipulation  |
\*---------------------------------------------------------------------------*/
FoamFile
{
    version     2.0;
    format      ascii;
    class       volVectorField;
    location    "800";
    object      U;
}
// * * * * * * * * * * * * * * * * * * * * * * * * * * * * * * * * * * * * * //

dimensions      [0 1 -1 0 0 0 0];

internalField   nonuniform List<vector> 
8400
(
(-116.417 -2.30664 3.08065e-15)
(-116.119 -2.32709 2.95936e-15)
(-115.907 -2.35168 2.84077e-15)
(-115.701 -2.37549 2.72482e-15)
(-115.511 -2.3973 2.61207e-15)
(-115.337 -2.41708 2.50224e-15)
(-115.181 -2.43513 2.39474e-15)
(-115.041 -2.45183 2.28988e-15)
(-114.919 -2.46749 2.18764e-15)
(-114.813 -2.48239 2.0878e-15)
(-114.722 -2.49672 1.99127e-15)
(-114.643 -2.51069 1.89783e-15)
(-114.577 -2.5244 1.80657e-15)
(-114.522 -2.53798 1.71792e-15)
(-114.476 -2.5515 1.63191e-15)
(-114.438 -2.56507 1.54692e-15)
(-114.408 -2.57876 1.466e-15)
(-114.385 -2.59266 1.38934e-15)
(-114.366 -2.60682 1.31382e-15)
(-114.353 -2.62133 1.24087e-15)
(-114.344 -2.63628 1.17049e-15)
(-114.339 -2.65172 1.10555e-15)
(-114.336 -2.66773 1.04542e-15)
(-114.336 -2.68436 9.85527e-16)
(-114.339 -2.70171 9.25003e-16)
(-114.343 -2.71996 8.69944e-16)
(-114.348 -2.73924 8.23249e-16)
(-114.355 -2.75967 7.7799e-16)
(-114.362 -2.7814 7.31066e-16)
(-114.369 -2.80454 6.89063e-16)
(-114.375 -2.82925 6.50485e-16)
(-114.381 -2.85571 6.1262e-16)
(-114.385 -2.88416 5.7703e-16)
(-114.387 -2.91486 5.40868e-16)
(-114.386 -2.94813 5.04109e-16)
(-114.382 -2.98436 4.69092e-16)
(-114.374 -3.02419 4.35172e-16)
(-114.361 -3.06824 4.02972e-16)
(-114.342 -3.11732 3.7223e-16)
(-114.315 -3.17241 3.4241e-16)
(-114.28 -3.2348 3.13698e-16)
(-114.233 -3.30614 2.87505e-16)
(-114.171 -3.38858 2.60349e-16)
(-114.089 -3.48508 2.30601e-16)
(-113.981 -3.59998 2.00337e-16)
(-113.84 -3.73958 1.67083e-16)
(-113.656 -3.91266 1.31491e-16)
(-113.405 -4.13172 9.13795e-17)
(-113.021 -4.42083 4.47071e-17)
(-112.417 -4.83467 -7.65558e-18)
(-111.227 1.78428 5.14578e-15)
(-110.94 1.81717 5.01213e-15)
(-110.709 1.86117 4.88257e-15)
(-110.479 1.91166 4.75621e-15)
(-110.262 1.96545 4.63333e-15)
(-110.061 2.02031 4.51388e-15)
(-109.876 2.07448 4.39661e-15)
(-109.707 2.12671 4.2819e-15)
(-109.555 2.1762 4.16964e-15)
(-109.418 2.22249 4.05932e-15)
(-109.294 2.26543 3.95182e-15)
(-109.182 2.30503 3.84735e-15)
(-109.081 2.34148 3.74503e-15)
(-108.99 2.37505 3.64526e-15)
(-108.908 2.40602 3.54799e-15)
(-108.834 2.43469 3.45262e-15)
(-108.766 2.46137 3.36023e-15)
(-108.705 2.48637 3.27085e-15)
(-108.648 2.50993 3.18337e-15)
(-108.597 2.53225 3.09816e-15)
(-108.549 2.55352 3.01516e-15)
(-108.505 2.5739 2.9344e-15)
(-108.464 2.59356 2.86026e-15)
(-108.426 2.61264 2.79164e-15)
(-108.389 2.63128 2.72226e-15)
(-108.354 2.64963 2.65116e-15)
(-108.321 2.66774 2.59107e-15)
(-108.288 2.68569 2.53755e-15)
(-108.256 2.70356 2.48328e-15)
(-108.225 2.72146 2.43249e-15)
(-108.193 2.73952 2.38636e-15)
(-108.16 2.75782 2.34129e-15)
(-108.127 2.77644 2.29691e-15)
(-108.092 2.79543 2.25161e-15)
(-108.055 2.81488 2.20526e-15)
(-108.017 2.83489 2.15938e-15)
(-107.975 2.85568 2.11429e-15)
(-107.931 2.87732 2.07153e-15)
(-107.882 2.8998 2.03284e-15)
(-107.829 2.92296 1.99745e-15)
(-107.77 2.94646 1.96613e-15)
(-107.703 2.9698 1.94075e-15)
(-107.628 2.99205 1.92255e-15)
(-107.541 3.0115 1.91049e-15)
(-107.439 3.02504 1.90353e-15)
(-107.319 3.02743 1.90092e-15)
(-107.179 3.01127 1.9044e-15)
(-107.01 2.96584 1.91193e-15)
(-106.785 2.86473 1.92397e-15)
(-106.469 2.63507 1.94094e-15)
(-100.914 -2.57911 1.37504e-15)
(-100.521 -2.60404 1.28184e-15)
(-100.257 -2.61847 1.19069e-15)
(-100.005 -2.62274 1.10163e-15)
(-99.7718 -2.61907 1.01499e-15)
(-99.5573 -2.61007 9.30832e-16)
(-99.3613 -2.59809 8.48837e-16)
(-99.1829 -2.58493 7.69171e-16)
(-99.021 -2.57187 6.9191e-16)
(-98.874 -2.55971 6.16609e-16)
(-98.7405 -2.54895 5.44352e-16)
(-98.6188 -2.53981 4.75289e-16)
(-98.5078 -2.53236 4.0839e-16)
(-98.4061 -2.52658 3.44046e-16)
(-98.3127 -2.5224 2.82257e-16)
(-98.2267 -2.51968 2.22991e-16)
(-98.147 -2.51827 1.66139e-16)
(-98.0731 -2.51802 1.11751e-16)
(-98.0041 -2.51885 5.976e-17)
(-97.9394 -2.52067 9.98545e-18)
(-97.8786 -2.5234 -3.76807e-17)
(-97.8209 -2.52699 -8.31692e-17)
(-97.7659 -2.53138 -1.25484e-16)
(-97.713 -2.53657 -1.58381e-16)
(-97.6618 -2.54257 -1.88711e-16)
(-97.612 -2.54939 -2.25979e-16)
(-97.563 -2.55701 -2.54336e-16)
(-97.5146 -2.56545 -2.71403e-16)
(-97.4662 -2.57469 -2.86437e-16)
(-97.4173 -2.58476 -2.98167e-16)
(-97.3673 -2.59571 -3.04572e-16)
(-97.3158 -2.60765 -3.08024e-16)
(-97.2624 -2.62071 -3.09593e-16)
(-97.2067 -2.63505 -3.12448e-16)
(-97.1482 -2.65085 -3.17892e-16)
(-97.0865 -2.66831 -3.25147e-16)
(-97.021 -2.68766 -3.3448e-16)
(-96.951 -2.70919 -3.44321e-16)
(-96.8759 -2.73331 -3.52581e-16)
(-96.7948 -2.76054 -3.57893e-16)
(-96.7065 -2.7916 -3.58977e-16)
(-96.6095 -2.82732 -3.54296e-16)
(-96.502 -2.86889 -3.42279e-16)
(-96.3818 -2.91807 -3.21287e-16)
(-96.2463 -2.97746 -2.92302e-16)
(-96.0926 -3.05082 -2.58416e-16)
(-95.9187 -3.14269 -2.18667e-16)
(-95.7206 -3.25827 -1.75787e-16)
(-95.4918 -3.40976 -1.31749e-16)
(-95.2335 -3.63245 -8.58895e-17)
(-90.2264 0.908245 5.15126e-16)
(-89.907 0.957403 4.32513e-16)
(-89.6414 1.02861 3.50352e-16)
(-89.3774 1.11437 2.69594e-16)
(-89.1306 1.208 1.9227e-16)
(-88.9034 1.30396 1.19069e-16)
(-88.6956 1.39813 4.90938e-17)
(-88.506 1.48776 -1.7201e-17)
(-88.3327 1.57124 -7.98913e-17)
(-88.1739 1.64779 -1.39639e-16)
(-88.0278 1.71721 -1.95418e-16)
(-87.8928 1.77967 -2.473e-16)
(-87.7677 1.83556 -2.96604e-16)
(-87.6513 1.88538 -3.43097e-16)
(-87.5424 1.9297 -3.86931e-16)
(-87.4404 1.96911 -4.28882e-16)
(-87.3444 2.00416 -4.68118e-16)
(-87.2536 2.0353 -5.04473e-16)
(-87.1676 2.0629 -5.39045e-16)
(-87.0857 2.08728 -5.71823e-16)
(-87.0074 2.10867 -6.03018e-16)
(-86.932 2.12726 -6.32586e-16)
(-86.8591 2.14313 -6.60634e-16)
(-86.7882 2.15634 -6.8118e-16)
(-86.7187 2.16689 -6.9302e-16)
(-86.6503 2.17483 -7.15146e-16)
(-86.5827 2.18018 -7.34981e-16)
(-86.5154 2.18301 -7.41907e-16)
(-86.4481 2.18337 -7.43722e-16)
(-86.3803 2.18127 -7.42633e-16)
(-86.3117 2.17669 -7.36184e-16)
(-86.2419 2.16955 -7.26176e-16)
(-86.1708 2.15973 -7.14391e-16)
(-86.0983 2.14708 -7.03991e-16)
(-86.0241 2.13141 -6.97149e-16)
(-85.948 2.11247 -6.95058e-16)
(-85.87 2.08987 -6.98634e-16)
(-85.7898 2.06301 -7.06764e-16)
(-85.7072 2.03101 -7.17048e-16)
(-85.6218 1.99275 -7.27196e-16)
(-85.533 1.94671 -7.34866e-16)
(-85.4402 1.89083 -7.37198e-16)
(-85.3424 1.82234 -7.33048e-16)
(-85.2384 1.73744 -7.20967e-16)
(-85.1269 1.63111 -6.99454e-16)
(-85.0063 1.49683 -6.75335e-16)
(-84.8752 1.32668 -6.49624e-16)
(-84.7321 1.1113 -6.24542e-16)
(-84.5772 0.83729 -6.03288e-16)
(-84.4146 0.484538 -5.86434e-16)
(-78.0094 -2.73179 3.57895e-15)
(-77.5276 -2.75908 3.49784e-15)
(-77.2147 -2.75618 3.41552e-15)
(-76.9239 -2.73189 3.33174e-15)
(-76.661 -2.69457 3.24831e-15)
(-76.4231 -2.65082 3.16594e-15)
(-76.2077 -2.60527 3.0838e-15)
(-76.012 -2.56079 3.00273e-15)
(-75.8331 -2.51901 2.92299e-15)
(-75.6686 -2.48073 2.84416e-15)
(-75.5163 -2.44621 2.76745e-15)
(-75.3746 -2.41541 2.69315e-15)
(-75.242 -2.3881 2.62016e-15)
(-75.1175 -2.36394 2.54884e-15)
(-74.9999 -2.34252 2.47913e-15)
(-74.8884 -2.32344 2.41064e-15)
(-74.7824 -2.30631 2.34405e-15)
(-74.6812 -2.2908 2.27953e-15)
(-74.5841 -2.2766 2.21642e-15)
(-74.4906 -2.26347 2.15487e-15)
(-74.4 -2.25119 2.09469e-15)
(-74.3116 -2.23964 2.03614e-15)
(-74.2248 -2.2287 1.97891e-15)
(-74.1391 -2.21832 1.92687e-15)
(-74.0538 -2.20843 1.88961e-15)
(-73.9685 -2.19896 1.84339e-15)
(-73.8827 -2.1898 1.79051e-15)
(-73.7962 -2.18086 1.74866e-15)
(-73.7084 -2.17206 1.71493e-15)
(-73.619 -2.16333 1.68458e-15)
(-73.5279 -2.15462 1.65986e-15)
(-73.4349 -2.1459 1.64058e-15)
(-73.3399 -2.13711 1.62539e-15)
(-73.2431 -2.1282 1.61034e-15)
(-73.1443 -2.11912 1.59227e-15)
(-73.0439 -2.10984 1.56927e-15)
(-72.9417 -2.10041 1.53876e-15)
(-72.8381 -2.09103 1.50066e-15)
(-72.733 -2.08206 1.4578e-15)
(-72.6264 -2.074 1.41308e-15)
(-72.5183 -2.06762 1.3694e-15)
(-72.4085 -2.06418 1.32972e-15)
(-72.2967 -2.06558 1.29566e-15)
(-72.1828 -2.07451 1.26925e-15)
(-72.0668 -2.0948 1.25002e-15)
(-71.9491 -2.13177 1.22994e-15)
(-71.8302 -2.19253 1.20594e-15)
(-71.712 -2.28642 1.17321e-15)
(-71.5993 -2.42706 1.12974e-15)
(-71.4988 -2.63197 1.0747e-15)
(-65.4309 -0.232607 4.69247e-15)
(-65.0394 -0.159414 4.70655e-15)
(-64.7277 -0.0439873 4.72711e-15)
(-64.43 0.0954514 4.75028e-15)
(-64.1626 0.24396 4.77419e-15)
(-63.9238 0.391042 4.79703e-15)
(-63.7099 0.530458 4.81668e-15)
(-63.5165 0.659033 4.83239e-15)
(-63.34 0.775531 4.84362e-15)
(-63.1775 0.87982 4.84973e-15)
(-63.0266 0.972367 4.8515e-15)
(-62.8855 1.05394 4.84934e-15)
(-62.7528 1.12546 4.84271e-15)
(-62.6273 1.18787 4.83219e-15)
(-62.5081 1.24208 4.81819e-15)
(-62.3942 1.28893 4.80068e-15)
(-62.285 1.32911 4.78076e-15)
(-62.1798 1.3632 4.75895e-15)
(-62.0779 1.39167 4.73477e-15)
(-61.9785 1.41486 4.70853e-15)
(-61.881 1.43297 4.67992e-15)
(-61.7846 1.44611 4.64968e-15)
(-61.6888 1.45434 4.61713e-15)
(-61.5928 1.45772 4.58297e-15)
(-61.4962 1.45632 4.56578e-15)
(-61.3986 1.45026 4.54119e-15)
(-61.2998 1.43966 4.49791e-15)
(-61.1996 1.4247 4.45689e-15)
(-61.0979 1.40553 4.42228e-15)
(-60.9948 1.38229 4.38675e-15)
(-60.8904 1.35513 4.35261e-15)
(-60.785 1.32418 4.32331e-15)
(-60.6787 1.28951 4.30007e-15)
(-60.5721 1.25117 4.28051e-15)
(-60.4654 1.20908 4.2621e-15)
(-60.3591 1.16306 4.24289e-15)
(-60.2533 1.11274 4.2193e-15)
(-60.1484 1.0575 4.19022e-15)
(-60.0445 0.996568 4.15935e-15)
(-59.9415 0.929024 4.12923e-15)
(-59.839 0.853599 4.10365e-15)
(-59.7369 0.768535 4.0868e-15)
(-59.6349 0.671642 4.08051e-15)
(-59.5327 0.560308 4.08496e-15)
(-59.4307 0.431385 4.09727e-15)
(-59.3294 0.281035 4.11367e-15)
(-59.2302 0.104782 4.13303e-15)
(-59.1369 -0.102784 4.16237e-15)
(-59.0577 -0.34831 4.21287e-15)
(-58.9995 -0.63974 4.29607e-15)
(-52.3594 -2.9172 1.87996e-15)
(-51.7905 -2.93243 1.59577e-15)
(-51.439 -2.88037 1.29458e-15)
(-51.1317 -2.79572 9.85516e-16)
(-50.8697 -2.70016 6.76603e-16)
(-50.6424 -2.6055 3.7367e-16)
(-50.4416 -2.51716 8.00788e-17)
(-50.2611 -2.43708 -2.02438e-16)
(-50.0964 -2.36546 -4.73039e-16)
(-49.9441 -2.30179 -7.32073e-16)
(-49.8019 -2.24525 -9.78916e-16)
(-49.6679 -2.19498 -1.21383e-15)
(-49.5407 -2.15016 -1.43842e-15)
(-49.419 -2.10999 -1.65316e-15)
(-49.302 -2.07378 -1.85867e-15)
(-49.1885 -2.04087 -2.05585e-15)
(-49.0779 -2.01072 -2.24413e-15)
(-48.9692 -1.98284 -2.42329e-15)
(-48.8619 -1.95684 -2.59413e-15)
(-48.7551 -1.93243 -2.75626e-15)
(-48.6483 -1.90941 -2.91012e-15)
(-48.5407 -1.88763 -3.05227e-15)
(-48.4318 -1.86696 -3.18724e-15)
(-48.3212 -1.84722 -3.31644e-15)
(-48.2087 -1.82828 -3.41203e-15)
(-48.0944 -1.80997 -3.49654e-15)
(-47.9786 -1.79213 -3.59782e-15)
(-47.8616 -1.77457 -3.70091e-15)
(-47.7439 -1.75709 -3.79058e-15)
(-47.626 -1.73944 -3.87433e-15)
(-47.5085 -1.72138 -3.95667e-15)
(-47.392 -1.70266 -4.04049e-15)
(-47.277 -1.68308 -4.1219e-15)
(-47.1643 -1.66252 -4.19937e-15)
(-47.0541 -1.64093 -4.27612e-15)
(-46.9467 -1.61846 -4.35361e-15)
(-46.8424 -1.59548 -4.4367e-15)
(-46.7413 -1.5726 -4.529e-15)
(-46.643 -1.55058 -4.62822e-15)
(-46.547 -1.53047 -4.73337e-15)
(-46.4527 -1.51378 -4.84448e-15)
(-46.3597 -1.50257 -4.96743e-15)
(-46.2676 -1.49932 -5.10604e-15)
(-46.1763 -1.50705 -5.26949e-15)
(-46.0863 -1.52947 -5.45886e-15)
(-45.9986 -1.57099 -5.68063e-15)
(-45.915 -1.6365 -5.90874e-15)
(-45.8398 -1.73199 -6.15465e-15)
(-45.782 -1.8628 -6.42705e-15)
(-45.7498 -2.03359 -6.73626e-15)
(-38.3309 -1.56207 7.77405e-15)
(-37.8536 -1.4339 8.1811e-15)
(-37.541 -1.21625 8.59766e-15)
(-37.2778 -0.979478 8.99406e-15)
(-37.0659 -0.751303 9.36126e-15)
(-36.8893 -0.543021 9.69737e-15)
(-36.7371 -0.357404 1.00025e-14)
(-36.6014 -0.193715 1.02787e-14)
(-36.4772 -0.0500894 1.0528e-14)
(-36.3612 0.0755154 1.07523e-14)
(-36.2513 0.185001 1.09542e-14)
(-36.1457 0.28003 1.1136e-14)
(-36.0431 0.362045 1.12986e-14)
(-35.9424 0.432304 1.14436e-14)
(-35.8425 0.491919 1.15721e-14)
(-35.7428 0.541876 1.16847e-14)
(-35.6424 0.583055 1.1783e-14)
(-35.5411 0.616211 1.1868e-14)
(-35.4383 0.641943 1.19399e-14)
(-35.334 0.660684 1.19992e-14)
(-35.228 0.672784 1.20439e-14)
(-35.1201 0.678606 1.20863e-14)
(-35.0105 0.678554 1.21137e-14)
(-34.8994 0.673044 1.21197e-14)
(-34.7874 0.662496 1.21509e-14)
(-34.6753 0.647335 1.21928e-14)
(-34.5638 0.627973 1.2198e-14)
(-34.4538 0.604814 1.21714e-14)
(-34.346 0.578284 1.21418e-14)
(-34.2407 0.548799 1.21112e-14)
(-34.1385 0.516718 1.20809e-14)
(-34.0395 0.482331 1.20502e-14)
(-33.9439 0.445826 1.20215e-14)
(-33.8514 0.407245 1.19912e-14)
(-33.7618 0.366455 1.19487e-14)
(-33.6744 0.323105 1.18985e-14)
(-33.5889 0.276683 1.18579e-14)
(-33.5043 0.226586 1.18277e-14)
(-33.4195 0.172023 1.18008e-14)
(-33.3332 0.111937 1.1776e-14)
(-33.2448 0.0450968 1.17461e-14)
(-33.1538 -0.0297979 1.16936e-14)
(-33.0601 -0.114133 1.16224e-14)
(-32.9646 -0.209505 1.14961e-14)
(-32.8688 -0.317869 1.13704e-14)
(-32.7749 -0.441513 1.12884e-14)
(-32.6866 -0.582918 1.12249e-14)
(-32.61 -0.745204 1.11781e-14)
(-32.556 -0.930653 1.11448e-14)
(-32.5349 -1.13985 1.11249e-14)
(-23.244 -3.2383 2.31646e-16)
(-22.6543 -3.1438 2.54696e-16)
(-22.3778 -2.93798 2.77477e-16)
(-22.1928 -2.73568 2.98063e-16)
(-22.0634 -2.55801 3.17483e-16)
(-21.9636 -2.40725 3.36759e-16)
(-21.8797 -2.27992 3.55002e-16)
(-21.804 -2.17178 3.72319e-16)
(-21.7323 -2.07915 3.88941e-16)
(-21.6621 -1.99912 4.05079e-16)
(-21.5918 -1.92949 4.21023e-16)
(-21.5203 -1.86865 4.37465e-16)
(-21.4468 -1.81539 4.54328e-16)
(-21.3707 -1.76868 4.71191e-16)
(-21.2918 -1.72767 4.88166e-16)
(-21.2099 -1.69151 5.04792e-16)
(-21.1252 -1.65945 5.21898e-16)
(-21.0381 -1.63078 5.40509e-16)
(-20.9493 -1.60491 5.60695e-16)
(-20.8593 -1.58137 5.82338e-16)
(-20.7687 -1.55973 5.95892e-16)
(-20.678 -1.53952 6.39479e-16)
(-20.5878 -1.52027 6.76866e-16)
(-20.4989 -1.50154 6.82343e-16)
(-20.4121 -1.48297 7.42607e-16)
(-20.3281 -1.46433 8.64142e-16)
(-20.2473 -1.44544 9.60073e-16)
(-20.1699 -1.42619 9.94618e-16)
(-20.0957 -1.40646 1.01309e-15)
(-20.0243 -1.38619 1.02896e-15)
(-19.955 -1.36537 1.05545e-15)
(-19.8872 -1.34407 1.09121e-15)
(-19.8198 -1.32243 1.13821e-15)
(-19.752 -1.30073 1.1965e-15)
(-19.6828 -1.27945 1.26378e-15)
(-19.6117 -1.25925 1.3429e-15)
(-19.5381 -1.24091 1.4219e-15)
(-19.4612 -1.22537 1.49972e-15)
(-19.3801 -1.21383 1.57868e-15)
(-19.2941 -1.20764 1.64998e-15)
(-19.2036 -1.20802 1.70315e-15)
(-19.11 -1.21612 1.7632e-15)
(-19.015 -1.2332 1.80071e-15)
(-18.9208 -1.26075 1.83237e-15)
(-18.8307 -1.30028 1.87585e-15)
(-18.7486 -1.35327 1.93262e-15)
(-18.6796 -1.42158 2.00767e-15)
(-18.6311 -1.50697 2.10214e-15)
(-18.6155 -1.61059 2.2105e-15)
(-18.6458 -1.73058 2.3308e-15)
(-6.66954 -2.98487 -2.09104e-17)
(-6.50177 -2.47232 -2.56432e-17)
(-6.29239 -2.10436 -3.3396e-17)
(-6.20499 -1.7841 -4.50013e-17)
(-6.16209 -1.52152 -6.09109e-17)
(-6.13689 -1.311 -7.93982e-17)
(-6.11885 -1.1369 -1.00232e-16)
(-6.10163 -0.989578 -1.25132e-16)
(-6.08207 -0.864209 -1.54466e-16)
(-6.05894 -0.757833 -1.88559e-16)
(-6.03167 -0.668263 -2.27984e-16)
(-6.00016 -0.593729 -2.71103e-16)
(-5.96413 -0.532594 -3.17683e-16)
(-5.92347 -0.48309 -3.69937e-16)
(-5.87845 -0.443452 -4.28587e-16)
(-5.82989 -0.412073 -4.95136e-16)
(-5.77906 -0.387576 -5.7009e-16)
(-5.72726 -0.368929 -6.5139e-16)
(-5.67539 -0.35556 -7.33931e-16)
(-5.62384 -0.347154 -8.26701e-16)
(-5.57274 -0.34324 -9.94587e-16)
(-5.52222 -0.343054 -1.03279e-15)
(-5.47274 -0.345802 -1.08667e-15)
(-5.42511 -0.350897 -1.34174e-15)
(-5.37996 -0.358062 -1.49015e-15)
(-5.33704 -0.367328 -1.38827e-15)
(-5.2953 -0.378828 -1.21245e-15)
(-5.25335 -0.392534 -1.20225e-15)
(-5.20998 -0.408268 -1.28497e-15)
(-5.16458 -0.425814 -1.44221e-15)
(-5.11698 -0.444944 -1.60982e-15)
(-5.06687 -0.465477 -1.78649e-15)
(-5.01345 -0.487371 -1.95973e-15)
(-4.95606 -0.510769 -2.1197e-15)
(-4.89518 -0.535832 -2.28227e-15)
(-4.8319 -0.562652 -2.42195e-15)
(-4.76633 -0.591702 -2.49994e-15)
(-4.69783 -0.623931 -2.49568e-15)
(-4.6264 -0.659999 -2.4124e-15)
(-4.55285 -0.699911 -2.27784e-15)
(-4.47838 -0.7437 -2.11989e-15)
(-4.40593 -0.79143 -1.96043e-15)
(-4.3396 -0.843143 -1.80546e-15)
(-4.28208 -0.899474 -1.65688e-15)
(-4.23564 -0.960912 -1.49425e-15)
(-4.20446 -1.02681 -1.3171e-15)
(-4.19535 -1.09763 -1.13551e-15)
(-4.21578 -1.17461 -9.20978e-16)
(-4.28329 -1.25942 -6.61651e-16)
(-4.4269 -1.34442 -3.47462e-16)
(10.5311 -4.24459 -1.47264e-17)
(10.2861 -3.29505 -1.29859e-17)
(10.172 -2.72956 -1.09757e-17)
(10.1465 -2.32671 -8.31377e-18)
(10.1304 -2.00908 -6.15934e-18)
(10.1073 -1.75798 -5.76347e-18)
(10.082 -1.55734 -5.25826e-18)
(10.0577 -1.39171 -4.54581e-18)
(10.0354 -1.2505 -4.10019e-18)
(10.0162 -1.1274 -2.59811e-18)
(10.0007 -1.0188 -1.29611e-18)
(9.98946 -0.922467 -1.44381e-18)
(9.98285 -0.836883 -1.20045e-18)
(9.98082 -0.760786 -5.73061e-19)
(9.98319 -0.69304 -3.1769e-20)
(9.98957 -0.632628 1.47163e-18)
(9.99947 -0.578578 1.34705e-18)
(10.0124 -0.529924 -6.09111e-18)
(10.028 -0.485888 -1.0557e-17)
(10.0458 -0.446046 2.68331e-17)
(10.0655 -0.410208 -3.25202e-17)
(10.0866 -0.378198 -9.16119e-17)
(10.1087 -0.349805 -2.89863e-17)
(10.1314 -0.324816 1.58149e-17)
(10.1544 -0.303049 -7.32457e-17)
(10.1773 -0.28449 -2.39065e-16)
(10.1998 -0.269312 -3.57048e-16)
(10.2216 -0.257718 -4.28011e-16)
(10.2428 -0.249795 -4.48921e-16)
(10.2635 -0.245473 -4.68153e-16)
(10.2839 -0.244493 -4.8435e-16)
(10.3041 -0.246527 -5.21101e-16)
(10.3244 -0.251381 -5.60935e-16)
(10.3452 -0.258959 -6.39983e-16)
(10.3663 -0.269136 -7.73105e-16)
(10.3879 -0.281852 -9.4958e-16)
(10.41 -0.297228 -1.14066e-15)
(10.4325 -0.315711 -1.32453e-15)
(10.4555 -0.337924 -1.4875e-15)
(10.4786 -0.364225 -1.62287e-15)
(10.5014 -0.394999 -1.72637e-15)
(10.5228 -0.430365 -1.81887e-15)
(10.5418 -0.47028 -1.90061e-15)
(10.5571 -0.514682 -1.9515e-15)
(10.5666 -0.563479 -1.97332e-15)
(10.5669 -0.615778 -1.97271e-15)
(10.5546 -0.669877 -1.95591e-15)
(10.5246 -0.723449 -1.9304e-15)
(10.4712 -0.774964 -1.90566e-15)
(10.358 -0.816325 -1.8826e-15)
(28.1832 -3.60979 -1.66056e-17)
(27.6482 -3.08929 -1.59671e-17)
(27.2807 -2.72036 -1.49544e-17)
(27.0803 -2.45087 -1.35296e-17)
(26.9459 -2.23733 -1.21034e-17)
(26.8379 -2.06926 -1.16061e-17)
(26.7492 -1.94058 -1.10651e-17)
(26.6757 -1.84284 -1.04609e-17)
(26.6132 -1.76838 -1.02797e-17)
(26.5587 -1.7117 -9.45256e-18)
(26.5104 -1.66905 -8.40874e-18)
(26.4674 -1.6377 -8.23661e-18)
(26.429 -1.61551 -7.92614e-18)
(26.3946 -1.60072 -7.47567e-18)
(26.3638 -1.59183 -7.41793e-18)
(26.3362 -1.58751 -6.92658e-18)
(26.3114 -1.58658 -7.3282e-18)
(26.289 -1.58797 -1.25428e-17)
(26.2687 -1.59086 -1.66899e-17)
(26.2501 -1.59467 4.5947e-18)
(26.2329 -1.59895 -2.55964e-17)
(26.2167 -1.60334 -6.7904e-17)
(26.2011 -1.60761 -5.02579e-17)
(26.1862 -1.61167 -5.87506e-18)
(26.1716 -1.61557 -7.83113e-18)
(26.1573 -1.6195 -5.94926e-17)
(26.1432 -1.62368 -1.20649e-16)
(26.1291 -1.62832 -1.71212e-16)
(26.1149 -1.63353 -2.06979e-16)
(26.1007 -1.63938 -2.36284e-16)
(26.0865 -1.64579 -2.64911e-16)
(26.0723 -1.65267 -3.04963e-16)
(26.0582 -1.66 -3.50069e-16)
(26.0439 -1.66771 -4.09907e-16)
(26.0295 -1.67575 -4.77147e-16)
(26.0149 -1.68417 -5.45787e-16)
(26.0001 -1.69317 -6.07587e-16)
(25.985 -1.70304 -6.60171e-16)
(25.9693 -1.71395 -7.03675e-16)
(25.9527 -1.72589 -7.3916e-16)
(25.9345 -1.73892 -7.65528e-16)
(25.9141 -1.75303 -7.86907e-16)
(25.8908 -1.76802 -8.1296e-16)
(25.863 -1.78356 -8.3401e-16)
(25.8291 -1.79896 -8.51916e-16)
(25.7864 -1.81303 -8.63635e-16)
(25.7317 -1.82386 -8.70768e-16)
(25.6603 -1.8287 -8.74241e-16)
(25.5674 -1.82356 -8.74168e-16)
(25.4264 -1.80119 -8.7313e-16)
(44.6735 -2.21376 -2.21304e-17)
(44.404 -1.82192 -2.17222e-17)
(44.1217 -1.49384 -2.06602e-17)
(43.9397 -1.22022 -1.963e-17)
(43.8085 -0.978354 -1.88747e-17)
(43.6931 -0.763543 -1.83802e-17)
(43.5886 -0.5759 -1.78721e-17)
(43.4953 -0.412697 -1.73425e-17)
(43.4112 -0.269864 -1.73384e-17)
(43.3339 -0.144039 -1.66191e-17)
(43.262 -0.0328281 -1.55385e-17)
(43.1946 0.0655477 -1.53085e-17)
(43.131 0.15249 -1.50026e-17)
(43.071 0.229116 -1.46234e-17)
(43.0141 0.296342 -1.47594e-17)
(42.9599 0.355014 -1.43272e-17)
(42.9083 0.405978 -1.45146e-17)
(42.8588 0.450035 -1.94299e-17)
(42.8112 0.487898 -2.35764e-17)
(42.765 0.520222 -6.21601e-18)
(42.72 0.547637 -2.62835e-17)
(42.6758 0.570705 -6.78405e-17)
(42.6321 0.589888 -7.30306e-17)
(42.5886 0.605526 -3.81732e-17)
(42.5452 0.617806 -7.68828e-18)
(42.5016 0.626775 -8.16262e-18)
(42.4578 0.632382 -2.67319e-17)
(42.4135 0.634537 -5.44057e-17)
(42.3687 0.633176 -7.69085e-17)
(42.3234 0.6283 -1.02088e-16)
(42.2778 0.619977 -1.28872e-16)
(42.2316 0.608314 -1.55373e-16)
(42.1849 0.593427 -1.80587e-16)
(42.1376 0.575479 -2.06089e-16)
(42.0895 0.55458 -2.28484e-16)
(42.0405 0.530664 -2.47057e-16)
(41.9906 0.503611 -2.61829e-16)
(41.9395 0.473339 -2.74032e-16)
(41.887 0.439774 -2.86139e-16)
(41.8328 0.40281 -2.98435e-16)
(41.7764 0.362494 -3.08125e-16)
(41.7175 0.319074 -3.16922e-16)
(41.6554 0.273098 -3.27566e-16)
(41.5896 0.225522 -3.40278e-16)
(41.5189 0.177842 -3.54875e-16)
(41.4419 0.132429 -3.69381e-16)
(41.3566 0.0929589 -3.85423e-16)
(41.2604 0.0647023 -4.09849e-16)
(41.1506 0.0548531 -4.39359e-16)
(41.0061 0.0731878 -4.73671e-16)
(64.0229 -3.7183 -3.21834e-17)
(63.394 -3.43577 -3.20264e-17)
(62.8158 -3.19863 -3.16258e-17)
(62.3756 -3.01646 -3.08029e-17)
(62.0188 -2.86967 -2.96908e-17)
(61.7052 -2.75028 -2.9227e-17)
(61.4248 -2.65612 -2.87517e-17)
(61.1745 -2.58365 -2.82666e-17)
(60.9497 -2.5282 -2.81846e-17)
(60.7453 -2.48562 -2.76232e-17)
(60.5574 -2.4527 -2.67403e-17)
(60.3832 -2.42698 -2.6452e-17)
(60.2206 -2.40662 -2.61166e-17)
(60.068 -2.39026 -2.57391e-17)
(59.924 -2.37696 -2.58015e-17)
(59.7876 -2.36605 -2.55484e-17)
(59.658 -2.35701 -2.58693e-17)
(59.5345 -2.34943 -3.0195e-17)
(59.4163 -2.34296 -3.42423e-17)
(59.3029 -2.33726 -1.69504e-17)
(59.1937 -2.33199 -2.89254e-17)
(59.088 -2.32683 -6.94345e-17)
(58.9853 -2.32156 -9.87434e-17)
(58.8852 -2.31598 -9.04387e-17)
(58.7871 -2.31003 -5.93575e-17)
(58.6908 -2.3037 -2.76331e-17)
(58.5957 -2.2971 -7.7577e-18)
(58.5017 -2.29034 1.96028e-18)
(58.4087 -2.28357 3.3968e-18)
(58.3164 -2.27689 5.83369e-20)
(58.2249 -2.27038 -3.91102e-18)
(58.1341 -2.26408 -6.85597e-19)
(58.0436 -2.25803 2.63443e-18)
(57.9536 -2.2523 7.1182e-18)
(57.8636 -2.24703 1.52446e-17)
(57.7736 -2.24239 2.67623e-17)
(57.6834 -2.23853 3.99668e-17)
(57.5928 -2.23554 5.46286e-17)
(57.5015 -2.23355 6.85961e-17)
(57.4093 -2.23271 7.91106e-17)
(57.3159 -2.23296 8.56236e-17)
(57.2213 -2.23396 8.58037e-17)
(57.1254 -2.23522 8.2208e-17)
(57.028 -2.23588 7.89173e-17)
(56.9289 -2.23459 7.67737e-17)
(56.8279 -2.22912 7.72789e-17)
(56.7243 -2.21588 7.9738e-17)
(56.6168 -2.18962 7.90166e-17)
(56.5037 -2.14281 6.80444e-17)
(56.3603 -2.06421 3.77698e-17)
(75.2431 0.110121 -5.49588e-17)
(75.0654 0.338026 -5.46988e-17)
(74.782 0.531465 -5.44189e-17)
(74.5745 0.699297 -5.34081e-17)
(74.4262 0.851327 -5.19473e-17)
(74.2994 0.987771 -5.14038e-17)
(74.1856 1.10598 -5.08541e-17)
(74.0856 1.20569 -5.02973e-17)
(73.9982 1.2887 -5.00908e-17)
(73.9206 1.35739 -4.94566e-17)
(73.8503 1.41406 -4.85715e-17)
(73.7856 1.46079 -4.82074e-17)
(73.7251 1.49935 -4.78114e-17)
(73.668 1.53116 -4.73895e-17)
(73.6134 1.55723 -4.76138e-17)
(73.5609 1.57828 -4.73216e-17)
(73.5101 1.59477 -4.75094e-17)
(73.4607 1.60695 -5.18162e-17)
(73.4125 1.61503 -5.4956e-17)
(73.3654 1.61917 -3.57186e-17)
(73.3191 1.61954 -3.53204e-17)
(73.2734 1.61634 -6.87554e-17)
(73.2281 1.6098 -1.20952e-16)
(73.1828 1.60016 -1.62097e-16)
(73.1373 1.58763 -1.79604e-16)
(73.0914 1.57242 -1.767e-16)
(73.045 1.55466 -1.60409e-16)
(72.9977 1.53449 -1.48082e-16)
(72.9497 1.51205 -1.3916e-16)
(72.9008 1.48752 -1.33007e-16)
(72.8511 1.46117 -1.29379e-16)
(72.8005 1.4332 -1.26827e-16)
(72.7489 1.40373 -1.27292e-16)
(72.696 1.37278 -1.28047e-16)
(72.6417 1.34028 -1.27702e-16)
(72.586 1.3062 -1.27534e-16)
(72.5287 1.27037 -1.27356e-16)
(72.4697 1.2326 -1.24385e-16)
(72.4088 1.19264 -1.19827e-16)
(72.3459 1.15031 -1.17614e-16)
(72.2812 1.10549 -1.17951e-16)
(72.2151 1.05828 -1.23249e-16)
(72.1477 1.00895 -1.30895e-16)
(72.0796 0.958174 -1.3106e-16)
(72.0114 0.907373 -1.21727e-16)
(71.9444 0.859107 -1.03973e-16)
(71.8799 0.817845 -8.31936e-17)
(71.8193 0.790883 -6.66362e-17)
(71.7649 0.78921 -6.23585e-17)
(71.698 0.826884 -7.98079e-17)
(101.567 -4.39553 -8.99257e-17)
(100.844 -4.26601 -9.00381e-17)
(100.158 -4.15121 -8.98321e-17)
(99.595 -4.04415 -8.9158e-17)
(99.1121 -3.93897 -8.80259e-17)
(98.6735 -3.83868 -8.75579e-17)
(98.2699 -3.74711 -8.70895e-17)
(97.9004 -3.6658 -8.66158e-17)
(97.562 -3.59454 -8.66771e-17)
(97.25 -3.53222 -8.61608e-17)
(96.9602 -3.47728 -8.51754e-17)
(96.6892 -3.42798 -8.48567e-17)
(96.4341 -3.38265 -8.45319e-17)
(96.1923 -3.33982 -8.42208e-17)
(95.9619 -3.29832 -8.41765e-17)
(95.7411 -3.25735 -8.4329e-17)
(95.5285 -3.21652 -8.53386e-17)
(95.323 -3.17573 -8.92682e-17)
(95.1237 -3.13515 -9.12092e-17)
(94.9299 -3.09508 -7.21196e-17)
(94.7409 -3.05592 -5.38637e-17)
(94.556 -3.01805 -5.61482e-17)
(94.3747 -2.9818 -8.61692e-17)
(94.1963 -2.9474 -1.34189e-16)
(94.0204 -2.91496 -1.87736e-16)
(93.8464 -2.88453 -2.40656e-16)
(93.6739 -2.85607 -3.00518e-16)
(93.5023 -2.82952 -3.63454e-16)
(93.3315 -2.80473 -4.25754e-16)
(93.1612 -2.78144 -4.88018e-16)
(92.9914 -2.7594 -5.54594e-16)
(92.8217 -2.73838 -6.21949e-16)
(92.6519 -2.71821 -6.84042e-16)
(92.4815 -2.69878 -7.36363e-16)
(92.3104 -2.68004 -7.83351e-16)
(92.1383 -2.662 -8.29413e-16)
(91.9647 -2.64471 -8.75011e-16)
(91.7895 -2.62823 -9.17041e-16)
(91.6123 -2.61262 -9.49305e-16)
(91.4328 -2.59793 -9.7324e-16)
(91.2511 -2.58424 -9.89521e-16)
(91.0672 -2.57163 -9.9904e-16)
(90.8816 -2.56003 -1.00164e-15)
(90.6951 -2.5492 -9.92881e-16)
(90.5095 -2.5384 -9.73536e-16)
(90.3275 -2.52608 -9.53991e-16)
(90.1539 -2.50898 -9.45458e-16)
(89.9946 -2.48057 -9.54579e-16)
(89.8563 -2.42798 -9.84994e-16)
(89.7251 -2.32521 -1.04011e-15)
(95.6382 3.08462 -1.90868e-16)
(95.547 3.18506 -1.90423e-16)
(95.3789 3.20888 -1.89937e-16)
(95.2892 3.22429 -1.88769e-16)
(95.2466 3.23702 -1.87156e-16)
(95.2093 3.24207 -1.86255e-16)
(95.171 3.23778 -1.85369e-16)
(95.1369 3.22375 -1.84523e-16)
(95.1097 3.2001 -1.84259e-16)
(95.0894 3.16766 -1.83552e-16)
(95.0754 3.12791 -1.82543e-16)
(95.067 3.08268 -1.8233e-16)
(95.0634 3.0339 -1.82278e-16)
(95.0637 2.98346 -1.82464e-16)
(95.0668 2.93309 -1.83585e-16)
(95.0719 2.88415 -1.84839e-16)
(95.0779 2.83761 -1.86962e-16)
(95.0844 2.7939 -1.92461e-16)
(95.0909 2.75307 -1.95693e-16)
(95.0971 2.7148 -1.79742e-16)
(95.1028 2.67853 -1.49343e-16)
(95.108 2.6435 -1.20694e-16)
(95.1128 2.60898 -9.36248e-17)
(95.1172 2.57431 -6.58811e-17)
(95.1213 2.53896 -3.66768e-17)
(95.1251 2.50251 -5.2965e-18)
(95.1288 2.46467 3.33695e-17)
(95.1324 2.42534 8.03955e-17)
(95.136 2.38461 1.36332e-16)
(95.1396 2.3427 2.04735e-16)
(95.143 2.29983 2.90316e-16)
(95.146 2.25626 3.85219e-16)
(95.1481 2.21216 4.91341e-16)
(95.1494 2.16756 6.07139e-16)
(95.1495 2.12242 7.32864e-16)
(95.1484 2.07665 8.64472e-16)
(95.1464 2.03015 9.9417e-16)
(95.1436 1.98274 1.12213e-15)
(95.1406 1.93414 1.24616e-15)
(95.1384 1.88408 1.36608e-15)
(95.138 1.83215 1.48312e-15)
(95.1416 1.77788 1.59249e-15)
(95.1516 1.72077 1.68962e-15)
(95.1717 1.66018 1.7761e-15)
(95.2074 1.59537 1.84931e-15)
(95.2673 1.52553 1.90644e-15)
(95.3643 1.4506 1.94638e-15)
(95.5182 1.37345 1.96898e-15)
(95.7602 1.30479 1.97204e-15)
(96.1008 1.26253 1.9609e-15)
(150.314 -5.66743 -2.76896e-16)
(149.603 -5.62835 -2.80947e-16)
(148.978 -5.51421 -2.82066e-16)
(148.475 -5.35007 -2.82934e-16)
(148.027 -5.17405 -2.83208e-16)
(147.61 -5.00354 -2.83476e-16)
(147.22 -4.84431 -2.83421e-16)
(146.857 -4.69839 -2.83368e-16)
(146.518 -4.56605 -2.83894e-16)
(146.202 -4.44647 -2.84339e-16)
(145.905 -4.33839 -2.84674e-16)
(145.624 -4.24043 -2.85647e-16)
(145.358 -4.15123 -2.86748e-16)
(145.104 -4.06937 -2.88238e-16)
(144.86 -3.99344 -2.90871e-16)
(144.625 -3.92205 -2.94881e-16)
(144.396 -3.85403 -3.00375e-16)
(144.173 -3.78849 -3.11203e-16)
(143.955 -3.72476 -3.26886e-16)
(143.74 -3.6624 -3.43278e-16)
(143.528 -3.60133 -3.64416e-16)
(143.317 -3.54172 -3.99996e-16)
(143.109 -3.48383 -4.35963e-16)
(142.901 -3.42792 -4.71417e-16)
(142.695 -3.37426 -5.03618e-16)
(142.489 -3.32311 -5.34961e-16)
(142.283 -3.27462 -5.72413e-16)
(142.077 -3.2288 -6.08933e-16)
(141.871 -3.18554 -6.47712e-16)
(141.665 -3.14461 -6.90742e-16)
(141.459 -3.10577 -7.33382e-16)
(141.252 -3.06881 -7.73827e-16)
(141.044 -3.03364 -8.16412e-16)
(140.835 -3.00035 -8.60096e-16)
(140.624 -2.96911 -9.01743e-16)
(140.411 -2.94005 -9.39351e-16)
(140.196 -2.91341 -9.74223e-16)
(139.979 -2.88968 -1.00922e-15)
(139.758 -2.86956 -1.04579e-15)
(139.532 -2.8539 -1.0807e-15)
(139.302 -2.8438 -1.11416e-15)
(139.065 -2.84079 -1.1455e-15)
(138.822 -2.84681 -1.16768e-15)
(138.569 -2.86462 -1.18893e-15)
(138.308 -2.89825 -1.20944e-15)
(138.036 -2.9534 -1.23341e-15)
(137.754 -3.03824 -1.25662e-15)
(137.468 -3.16263 -1.2689e-15)
(137.183 -3.33207 -1.28251e-15)
(136.931 -3.54042 -1.28568e-15)
(105.889 6.19887 -2.74796e-15)
(105.542 5.56454 -2.73922e-15)
(105.188 5.19821 -2.73008e-15)
(104.846 4.96753 -2.7201e-15)
(104.503 4.8016 -2.69918e-15)
(104.163 4.67007 -2.66347e-15)
(103.838 4.55672 -2.6175e-15)
(103.536 4.45196 -2.56153e-15)
(103.261 4.35111 -2.49454e-15)
(103.012 4.25256 -2.42089e-15)
(102.786 4.15602 -2.34345e-15)
(102.58 4.06154 -2.26949e-15)
(102.393 3.96929 -2.19067e-15)
(102.222 3.87951 -2.09966e-15)
(102.065 3.79256 -1.97881e-15)
(101.92 3.70892 -1.84988e-15)
(101.784 3.62908 -1.7224e-15)
(101.655 3.55343 -1.607e-15)
(101.527 3.48184 -1.50491e-15)
(101.401 3.41451 -1.41668e-15)
(101.278 3.35156 -1.35504e-15)
(101.157 3.29267 -1.32411e-15)
(101.037 3.23731 -1.30584e-15)
(100.919 3.18496 -1.2888e-15)
(100.802 3.13507 -1.27263e-15)
(100.685 3.08706 -1.24863e-15)