/*--------------------------------*- C++ -*----------------------------------*\
  =========                 |
  \\      /  F ield         | OpenFOAM: The Open Source CFD Toolbox
   \\    /   O peration     | Website:  https://openfoam.org
    \\  /    A nd           | Version:  8
     \\/     M anipulation  |
\*---------------------------------------------------------------------------*/
FoamFile
{
    version     2.0;
    format      ascii;
    class       volScalarField;
    location    "300";
    object      p;
}
// * * * * * * * * * * * * * * * * * * * * * * * * * * * * * * * * * * * * * //

dimensions      [1 -1 -2 0 0 0 0];

internalField   nonuniform List<scalar> 
1200
(
11977.5
11977.5
11977.6
11977.9
11978.4
11981.1
11981.3
11982.1
11981.6
11978.4
11975.9
11970.4
11967.2
11963.3
11957.8
11952.9
11946.4
11940.5
11931.9
11921.8
11911.2
11903.5
11891.7
11881.1
11860.2
11830.2
11799.1
11745.7
11707.9
11684.6
11653.8
11636.2
11611.4
11573.9
11530
11484.2
11425.9
11350.8
11256.5
11132.9
10980.4
10801.4
10595.2
10363.4
10103.5
9804.39
9477.89
9140.62
8643.75
7315.34
4922.01
3256.43
3367.21
1720.13
-708.611
-1571.89
-1524
-1103.57
-798.847
-242.875
11782.2
11782.2
11782.3
11782.6
11783.1
11786
11786.1
11786.5
11785.5
11780.1
11775.9
11770.8
11771.4
11768.3
11762.8
11757.8
11751.6
11745.8
11737.1
11726
11715.6
11709.2
11697.1
11686
11665.1
11637.3
11607.4
11555.6
11511.9
11486.6
11457.9
11439.6
11413.8
11375.7
11332.9
11287.6
11230.6
11157.1
11064.8
10942
10790.2
10612
10405.9
10174.5
9914.87
9616.22
9286.62
8950.34
8488.68
7299.09
4985.1
2993.83
2812.43
926.219
-1280.57
-2004.26
-1818.49
-1370.45
-1136.02
-1926.09
11587
11587.1
11587.2
11587.4
11587.9
11589.9
11589.6
11588
11583.1
11575.6
11574.3
11573.9
11575.4
11572.3
11566
11560.9
11554.8
11549.6
11540.6
11528
11517.9
11514.4
11504.6
11494.9
11473
11442.9
11411.3
11364.8
11322.3
11292.7
11266.9
11244.7
11214.5
11174.9
11132.5
11088.9
11034.3
10960.1
10867.1
10744.2
10592.5
10415.4
10208.6
9976.26
9715.97
9417.88
9078.72
8700.87
8224.62
7333.18
5757.17
3881.03
1938.6
-899.085
-2572.84
-2787.66
-2088.84
-1314.5
-689.333
-613.57
11391.8
11391.8
11391.9
11392.1
11392.2
11391.8
11391
11390.2
11385.1
11377.5
11377.8
11377
11378.1
11375.1
11369.8
11365
11359.2
11353.4
11343.7
11331.5
11322.1
11319.4
11312
11298.9
11277.4
11249.3
11215.6
11169.4
11124.6
11094.1
11072
11046.8
11012.3
10970.5
10927.7
10888.1
10841.9
10772.3
10679.8
10554.1
10400
10223.1
10014.8
9781.74
9521.48
9225.55
8886.42
8490.75
8001.4
7259.9
6095.35
4295.07
1320.34
-2050.97
-3046.81
-2876.63
-2232.74
-1615.68
-1109.08
-936.379
11196.6
11196.6
11196.6
11196.7
11196.6
11195.8
11193.9
11192.1
11188.3
11182.3
11181.7
11179.4
11178.6
11176.9
11173
11168.7
11163.7
11158.6
11149.1
11136.7
11126.2
11122.6
11116.2
11104.3
11082.5
11054.5
11018.8
10971.8
10925.7
10899.1
10881.3
10853.5
10815.9
10772
10729.1
10694.1
10649.2
10577.8
10485.2
10357.2
10201.7
10026.2
9816.32
9583.61
9324.25
9029.93
8693.41
8299.25
7833.02
7200.46
6204.62
4330.78
890.782
-2552.51
-3303.22
-3062.53
-2373.87
-1712.42
-1166.7
-838.639
11001.4
11001.4
11001.3
11001.2
11001
11000.1
10998.3
10996.3
10992
10987.1
10985.6
10983.6
10982.3
10980.5
10977
10972.7
10967.9
10964.2
10956.7
10945.6
10934.3
10927.9
10922.5
10912.2
10890.5
10862
10825.7
10779.6
10736.3
10708.2
10686.5
10657
10618.6
10575.9
10534.5
10496.8
10451.1
10382.4
10287.6
10159
10003.5
9829.16
9617.52
9385.59
9126.77
8832.11
8494.72
8099
7635.34
7040.5
6100.72
4201.11
696.955
-2623.95
-3509.16
-3245.88
-2578.4
-1928.25
-1379.93
-1053.65
10806.2
10806.2
10806
10805.8
10805.4
10804.6
10802.9
10800.5
10796.6
10792.1
10790.1
10788.2
10786.6
10784.9
10780.9
10776
10772.2
10769.9
10763.4
10753.3
10742.3
10734.7
10728.9
10720.7
10699.3
10670.5
10634.1
10588.6
10547.4
10519.6
10494.7
10462.7
10423.6
10381
10339.8
10301.6
10253.9
10182.6
10086.8
9960.29
9806.53
9628.56
9418.98
9188.57
8929.87
8635.27
8297.36
7902.05
7438.46
6820.75
5872.26
4005.18
676.494
-2581.43
-3562.82
-3347.85
-2733.11
-2108.94
-1581.53
-1266.84
10611
10611
10610.8
10610.6
10610.1
10609.3
10607.6
10605.2
10601.4
10597.3
10594.9
10593.1
10591.5
10589.4
10585.5
10580.8
10576.8
10573.9
10568.4
10559.9
10549.7
10540.9
10534.6
10527.2
10507.9
10479.4
10444
10399.5
10359
10329.7
10302.7
10269
10229.5
10187.1
10145.8
10105.9
10056.7
9984.99
9888.54
9763.59
9610.66
9432.27
9224.46
8993.77
8734.35
8439.4
8101.01
7705.31
7233.28
6599.74
5603.26
3778.61
657.325
-2413.97
-3512.74
-3400.34
-2863.08
-2288.07
-1799.67
-1521.96
10415.7
10415.7
10415.6
10415.3
10414.8
10414
10412.4
10410
10406.4
10402.5
10399.9
10397.9
10396.2
10393.8
10389.7
10384.9
10380.8
10377.8
10372.8
10364.9
10355
10346
10339.2
10331.4
10312.9
10286.3
10253.1
10209.8
10169.6
10138.9
10110.1
10075.4
10035.5
9993.07
9951.35
9910.07
9859.95
9788.43
9692
9568.6
9416.82
9238.45
9032.06
8800.85
8540.57
8244.77
7905.32
7507.28
7025.15
6371.57
5355.22
3564.43
631.393
-2261.53
-3470.18
-3463.37
-3002.69
-2476.65
-2022.54
-1772.07
10220.8
10220.6
10220.4
10220.2
10219.6
10218.8
10217.3
10214.9
10211.4
10207.5
10204.9
10202.9
10200.9
10198.3
10194.1
10189.2
10185.2
10182.2
10177.4
10169.8
10160.2
10151.3
10143.8
10135.4
10117.3
10091.7
10060.3
10017.6
9977.53
9945.9
9916.35
9881.34
9841.33
9798.88
9756.94
9714.87
9664.18
9593.25
9497.53
9375.29
9224.76
9046.98
8841.62
8610.46
8349.94
8053.84
7713.82
7314.17
6826.72
6164.89
5146.81
3396.84
580.531
-2219.22
-3501.23
-3570.56
-3162.03
-2667.44
-2234.33
-2002.27
11977.5
11977.5
11977.6
11977.9
11978.5
11981.1
11981.4
11981.9
11981.5
11978.2
11975.9
11970.3
11967.2
11963.3
11957.7
11952.9
11946.4
11940.5
11931.9
11921.5
11911
11903
11891.6
11880.8
11859.8
11830.3
11799.1
11746.3
11708.1
11684.5
11654
11636.4
11611.6
11573.9
11530.1
11484.3
11426.2
11351.1
11256.9
11133.4
10981
10802.3
10596.3
10364.9
10105.5
9806.09
9481.04
9142.86
8646.51
7322.42
4909.98
3219.41
3365.14
1751.65
-697.601
-1561.19
-1506.35
-1089.47
-767.678
-281.91
11782.2
11782.2
11782.4
11782.6
11783.2
11786
11786.1
11785.8
11784.5
11779.1
11775.1
11770
11770.5
11767.4
11761.8
11756.8
11750.6
11744.4
11735.6
11724.6
11714.4
11708
11696.9
11685.8
11664.7
11637.2
11607.3
11556.4
11512.2
11486.3
11458
11439.6
11413.8
11375.6
11332.7
11287.8
11230.9
11157.3
11064.8
10941.9
10790.1
10612
10406.1
10174.9
9915.67
9616.59
9287.48
8946.59
8480.74
7306.92
5008.17
2979.97
2791.15
920.664
-1294.63
-2012.32
-1817.61
-1366.68
-1126.12
-1911.08
11587
11587.1
11587.2
11587.4
11587.8
11589.7
11589.4
11587.6
11582.9
11575.5
11573.9
11573.4
11575
11571.9
11565.6
11560.5
11554.2
11549.1
11540
11527.5
11517.4
11514
11504.6
11494.7
11472.7
11443
11411.8
11365.7
11323.2
11293.1
11267.3
11245.2
11214.9
11175.1
11132.6
11089.1
11034.7
10961
10868.7
10746
10594.1
10416.8
10210.1
9977.94
9717.78
9420.16
9082.75
8703.49
8219.22
7316.52
5731.45
3876.49
1978.94
-852.864
-2545.34
-2780.31
-2106.17
-1338.67
-733.048
-683.4
11391.8
11391.9
11392
11392.1
11392.2
11391.6
11390.8
11389.7
11385.2
11377.9
11377.8
11377.3
11378.2
11375.4
11370.3
11365.4
11359.5
11353.7
11344.1
11332
11322.6
11319.9
11312.4
11299.5
11278.3
11250
11216.5
11170.3
11126.1
11095.7
11073.1
11047.8
11013.1
10971
10928.3
10889.2
10842.5
10773
10681
10555.7
10401.4
10224
10015.8
9783.15
9522.69
9226.79
8888.51
8493.62
8005.3
7263.04
6093.09
4298.7
1338.72
-2034.37
-3045.67
-2880.5
-2235.49
-1614.87
-1102.94
-931.884
11196.6
11196.6
11196.7
11196.7
11196.7
11195.7
11193.9
11192.1
11188.4
11182.7
11181.9
11179.7
11178.9
11177.2
11173.3
11169.2
11164.2
11159.5
11150.1
11137.7
11127.1
11124.2
11116.9
11105.5
11083.6
11055.5
11020.1
10972.8
10927.1
10900.9
10882.6
10854.7
10817.1
10772.6
10729.5
10694.9
10650.4
10579.2
10486.8
10359.3
10203.6
10027.3
9817.49
9585.12
9325.41
9030.89
8694.34
8300.99
7837.34
7203.31
6206.32
4338.57
901.17
-2546.67
-3307.35
-3059.55
-2370.33
-1708.73
-1165.62
-822.653
11001.4
11001.4
11001.4
11001.2
11001
11000.1
10998.3
10996.2
10992.2
10987.2
10985.7
10983.8
10982.5
10980.7
10977.3
10973.1
10968.3
10964.6
10957.3
10946.4
10935.4
10929
10923.2
10913.2
10891.6
10863.1
10826.9
10780.3
10737
10709.3
10687.1
10657.6
10619.2
10576.3
10534.9
10497.2
10451.4
10383.4
10289.1
10161
10005.4
9830.22
9618.69
9386.96
9127.84
8833.23
8495.8
8101.22
7645.86
7043.46
6098.99
4207.35
702.926
-2619.74
-3507.28
-3246.31
-2578.74
-1928.75
-1381.87
-1051.75
10806.2
10806.2
10806.1
10805.8
10805.4
10804.7
10802.9
10800.6
10796.7
10792.2
10790.2
10788.3
10786.8
10785
10781
10776
10772.3
10770.1
10763.7
10753.5
10742.5
10735.1
10729.1
10721.7
10700.2
10671.5
10635.2
10589
10547.8
10520.2
10494.9
10462.8
10423.8
10380.9
10339.5
10301.4
10253.7
10182.5
10087
9961.04
9807.79
9629.58
9420.09
9189.82
8930.96
8636.5
8298.71
7903.39
7444.14
6827.93
5869.71
4009.71
683.17
-2577.22
-3563.02
-3348.75
-2732.44
-2107.67
-1580.23
-1262.84
10611
10611
10610.9
10610.6
10610.1
10609.3
10607.7
10605.2
10601.5
10597.3
10595
10593.2
10591.6
10589.6
10585.5
10580.8
10576.8
10573.8
10568.4
10559.9
10549.8
10541
10534.4
10527.5
10508.6
10480.1
10444.7
10399.5
10359.1
10330
10302.7
10269
10229.5
10186.9
10145.5
10105.5
10056.3
9984.6
9888.29
9763.63
9610.99
9432.76
9225.28
8994.95
8735.69
8441
8102.7
7707.03
7237.42
6605.6
5604.95
3784.21
666.241
-2409.35
-3510.86
-3399.43
-2861.45
-2285.91
-1797.28
-1521.89
10415.7
10415.7
10415.6
10415.3
10414.8
10414
10412.4
10410.1
10406.5
10402.5
10400
10398
10396.3
10393.9
10389.8
10384.8
10380.7
10377.7
10372.7
10364.8
10354.9
10346
10338.9
10331.1
10312.8
10286.5
10253.3
10209.6
10169.6
10139.1
10110.2
10075.4
10035.6
9993.03
9951.13
9909.84
9859.68
9788.05
9691.61
9568.32
9416.68
9238.39
9032.21
8801.38
8541.48
8246.02
7906.52
7508.51
7028.38
6375.45
5358.84
3570.2
638.799
-2255.15
-3464.72
-3459.41
-2999.07
-2472.63
-2017.36
-1772.08
10220.8
10220.6
10220.4
10220.1
10219.6
10218.8
10217.3
10215
10211.5
10207.6
10204.9
10202.9
10201
10198.3
10194.1
10189.1
10185
10182
10177.2
10169.6
10160.1
10151.2
10143.6
10135.2
10117.1
10091.7
10060.3
10017.1
9977.03
9945.57
9916
9881.1
9841.18
9798.65
9756.54
9714.47
9663.8
9592.75
9496.97
9374.8
9224.32
9046.58
8841.35
8610.55
8350.43
8054.66
7714.52
7314.81
6829.22
6168.91
5152.06
3403.05
586.297
-2213.26
-3495.77
-3567.16
-3158.99
-2663.53
-2228.3
-2003.82
)
;

boundaryField
{
    wall
    {
        type            calculated;
        value           nonuniform List<scalar> 
1200
(
11977.5
11782.2
11587
11391.8
11196.6
11001.4
10806.2
10611
10415.7
10220.8
11977.5
11782.2
11587.1
11391.8
11196.6
11001.4
10806.2
10611
10415.7
10220.6
11977.6
11782.3
11587.2
11391.9
11196.6
11001.3
10806
10610.8
10415.6
10220.4
11977.8
11782.6
11587.4
11392.1
11196.6
11001.2
10805.8
10610.6
10415.3
10220.2
11978.4
11783.1
11587.9
11392.2
11196.6
11000.9
10805.4
10610.1
10414.8
10219.6
11981.1
11786
11590
11391.9
11195.8
11000.2
10804.6
10609.3
10414
10218.8
11981.3
11786.1
11589.6
11391.2
11193.9
10998.4
10802.9
10607.6
10412.4
10217.3
11982.2
11786.8
11588.2
11390.5
11192.2
10996.3
10800.5
10605.1
10410
10214.9
11981.6
11786
11583.3
11385
11188.2
10991.9
10796.5
10601.4
10406.4
10211.4
11978.4
11780.6
11575.6
11377.3
11182.2
10987
10792.1
10597.2
10402.4
10207.5
11975.8
11776.3
11574.6
11377.8
11181.5
10985.5
10790.1
10594.9
10399.9
10204.9
11970.4
11771.3
11574.2
11377
11179.2
10983.5
10788.1
10593
10397.9
10202.9
11967.2
11771.8
11575.6
11378
11178.5
10982.2
10786.6
10591.5
10396.1
10200.9
11963.3
11768.8
11572.5
11374.9
11176.7
10980.4
10784.8
10589.4
10393.7
10198.3
11957.8
11763.3
11566.2
11369.6
11172.8
10976.8
10780.9
10585.4
10389.7
10194.1
11952.9
11758.3
11561.2
11364.8
11168.5
10972.4
10776
10580.8
10384.9
10189.3
11946.4
11752.1
11555.1
11359
11163.4
10967.8
10772.1
10576.9
10380.8
10185.3
11940.5
11746.4
11549.9
11353.3
11158.2
10964
10769.7
10573.9
10377.9
10182.3
11932
11737.9
11540.9
11343.5
11148.7
10956.4
10763.3
10568.5
10372.9
10177.5
11921.9
11726.7
11528.3
11331.3
11136.2
10945.2
10753.2
10559.9
10365
10169.9
11911.3
11716.2
11518.2
11321.9
11125.7
10933.8
10742.2
10549.7
10355
10160.3
11903.8
11709.8
11514.6
11319.1
11121.8
10927.4
10734.5
10540.8
10346
10151.3
11891.7
11697.2
11504.6
11311.9
11115.8
10922.2
10728.8
10534.7
10339.3
10143.9
11881.3
11686.1
11494.9
11298.7
11103.7
10911.7
10720.2
10527.1
10331.5
10135.6
11860.4
11665.3
11473.2
11276.9
11082
10890
10698.9
10507.6
10312.9
10117.4
11830.2
11637.3
11442.7
11248.9
11054
10861.5
10670.1
10479.1
10286.2
10091.7
11799.1
11607.5
11411
11215.1
11018.2
10825.1
10633.6
10443.6
10253
10060.4
11745.4
11555.3
11364.3
11169
10971.3
10779.2
10588.4
10399.4
10209.9
10017.9
11707.8
11511.8
11321.8
11123.8
10924.9
10735.9
10547.2
10359
10169.7
9977.79
11684.7
11486.8
11292.5
11093.3
10898.2
10707.7
10519.3
10329.6
10138.8
9946.08
11653.7
11457.9
11266.7
11071.4
10880.7
10686.1
10494.7
10302.7
10110.2
9916.54
11636.1
11439.6
11244.4
11046.4
10853
10656.7
10462.6
10269.1
10075.4
9881.47
11611.3
11413.8
11214.2
11011.9
10815.4
10618.3
10423.5
10229.6
10035.5
9841.41
11573.8
11375.9
11174.8
10970.4
10771.8
10575.7
10381
10187.2
9993.11
9799.01
11530
11332.9
11132.4
10927.4
10729
10534.4
10339.9
10146
9951.47
9757.15
11484.2
11287.6
11088.7
10887.7
10693.8
10496.6
10301.8
10106.1
9910.2
9715.08
11425.8
11230.5
11034.1
10841.6
10648.7
10451
10254.1
10056.9
9860.11
9664.38
11350.7
11156.9
10959.6
10771.9
10577.1
10381.9
10182.6
9985.21
9788.64
9593.51
11256.4
11064.8
10866.4
10679.2
10484.3
10286.8
10086.7
9888.7
9692.22
9497.82
11132.8
10942.1
10743.4
10553.2
10356.2
10158
9959.93
9763.61
9568.76
9375.55
10980.1
10790.2
10591.6
10399.2
10200.8
10002.5
9805.93
9610.52
9416.92
9224.99
10801
10612.1
10414.7
10222.6
10025.7
9828.58
9628.03
9432.04
9238.51
9047.19
10594.6
10405.8
10207.9
10014.2
9815.75
9616.95
9418.41
9224.08
9032.01
8841.78
10362.7
10174.3
9975.47
9781.06
9582.88
9384.9
9187.92
8993.2
8800.61
8610.44
10102.5
9914.47
9715.11
9520.9
9323.7
9126.24
8929.3
8733.68
8540.14
8349.72
9803.59
9616.05
9416.77
9224.95
9029.48
8831.57
8634.65
8438.59
8244.16
8053.45
9476.34
9286.24
9076.74
8885.37
8692.94
8494.21
8296.71
8100.16
7904.74
7713.5
9139.55
8952.31
8699.76
8489.33
8298.33
8097.85
7901.43
7704.47
7506.7
7313.88
8642.4
8492.27
8227.63
7999.47
7830.87
7630.01
7435.69
7231.24
7023.58
6825.52
7312.11
7293.96
7341.37
7258.32
7198.92
7038.93
6817.08
6596.75
6369.63
6162.93
4928.72
4973.81
5768.67
6096.37
6203.74
6101.61
5873.48
5602.25
5353.32
5144.24
3273.62
3002.63
3880.46
4292.84
4327.02
4198.15
4003.22
3775.91
3561.58
3393.93
3365.38
2820.75
1917.31
1311.53
885.671
694.324
673.645
653.424
628.015
577.887
1705.18
930.627
-921.203
-2057.86
-2554.49
-2625.84
-2583.13
-2416.07
-2264.66
-2222.2
-712.957
-1272.96
-2585.06
-3046.99
-3301.11
-3510
-3562.87
-3513.68
-3472.88
-3503.89
-1576.9
-2000.66
-2788.64
-2874.94
-3064.72
-3245.72
-3347.59
-3400.77
-3465.27
-3572.13
-1532.53
-1819.26
-2079.99
-2231.37
-2375.78
-2578.19
-2733.52
-2863.85
-3004.45
-3163.45
-1110.12
-1372.47
-1303.57
-1615.74
-1714.33
-1927.96
-2109.61
-2289.12
-2478.65
-2669.35
-813.224
-1140.96
-669.381
-1111.71
-1167.16
-1379.01
-1582.19
-1800.84
-2025.1
-2237.32
-222.69
-1933.86
-580.462
-937.643
-846.422
-1054.28
-1268.73
-1521.95
-1772.08
-2001.55
11977.5
11782.2
11587
11391.8
11196.6
11001.4
10806.2
10611
10415.7
10220.8
11977.5
11782.2
11587.1
11391.9
11196.7
11001.4
10806.2
10611
10415.7
10220.6
11977.6
11782.4
11587.2
11392
11196.7
11001.4
10806.1
10610.9
10415.6
10220.4
11977.9
11782.6
11587.4
11392.1
11196.7
11001.3
10805.8
10610.6
10415.3
10220.1
11978.5
11783.2
11587.7
11392.1
11196.7
11001
10805.4
10610.1
10414.8
10219.6
11981.1
11786
11589.6
11391.5
11195.6
11000.1
10804.7
10609.3
10414
10218.8
11981.4
11786.1
11589.3
11390.6
11193.9
10998.3
10802.9
10607.7
10412.4
10217.3
11981.8
11785.5
11587.4
11389.4
11192
10996.2
10800.6
10605.3
10410.1
10215
11981.5
11783.9
11582.7
11385.3
11188.4
10992.2
10796.7
10601.5
10406.6
10211.5
11978.2
11778.6
11575.5
11378.1
11182.9
10987.3
10792.2
10597.3
10402.6
10207.6
11976
11774.7
11573.7
11377.8
11182.1
10985.7
10790.2
10595
10400
10204.9
11970.3
11769.6
11573.2
11377.3
11179.9
10983.9
10788.3
10593.2
10398.1
10202.9
11967.1
11770
11574.8
11378.3
11179
10982.6
10786.8
10591.7
10396.3
10201
11963.3
11766.9
11571.7
11375.6
11177.4
10980.9
10785.1
10589.6
10394
10198.3
11957.7
11761.3
11565.4
11370.6
11173.5
10977.4
10781
10585.6
10389.8
10194
11952.9
11756.3
11560.3
11365.6
11169.4
10973.3
10776
10580.8
10384.8
10189.1
11946.4
11750.1
11553.9
11359.7
11164.5
10968.4
10772.3
10576.7
10380.7
10185
11940.4
11743.8
11548.8
11353.8
11159.9
10964.8
10770.3
10573.7
10377.7
10181.9
11931.9
11734.9
11539.7
11344.3
11150.6
10957.6
10763.8
10568.3
10372.7
10177.1
11921.4
11724
11527.2
11332.2
11138.2
10946.8
10753.6
10559.9
10364.8
10169.5
11910.9
11713.8
11517.1
11322.8
11127.6
10935.9
10742.6
10549.9
10354.9
10160
11902.7
11707.4
11513.8
11320.1
11124.9
10929.5
10735.3
10541.1
10346
10151.2
11891.6
11696.8
11504.7
11312.6
11117.3
10923.4
10729.2
10534.2
10338.8
10143.5
11880.6
11685.8
11494.7
11299.8
11106.2
10913.7
10722.2
10527.7
10331
10135
11859.6
11664.5
11472.5
11278.8
11084.1
10892.1
10700.6
10508.9
10312.8
10117
11830.3
11637.2
11443.2
11250.4
11055.9
10863.6
10672
10480.4
10286.6
10091.7
11799.1
11607.2
11412.1
11217
11020.7
10827.5
10635.7
10445
10253.4
10060.2
11746.6
11556.7
11366.2
11170.8
10973.3
10780.6
10589.2
10399.6
10209.5
10016.8
11708.2
11512.3
11323.7
11126.8
10927.9
10737.4
10548
10359.1
10169.5
9976.77
11684.4
11486.1
11293.3
11096.5
10901.8
10709.8
10520.4
10330.1
10139.1
9945.4
11654.1
11457.9
11267.5
11073.7
10883.2
10687.4
10494.9
10302.7
10110.1
9915.82
11636.4
11439.6
11245.5
11048.3
10855.2
10657.9
10462.9
10269
10075.4
9880.98
11611.7
11413.7
11215.2
11013.4
10817.6
10619.5
10423.9
10229.5
10035.6
9841.11
11574
11375.4
11175.2
10971.1
10772.9
10576.4
10380.9
10186.8
9993.02
9798.53
11530.1
11332.7
11132.7
10928.7
10729.7
10535.1
10339.4
10145.3
9951.02
9756.35
11484.4
11287.8
11089.3
10889.7
10695.2
10497.4
10301.3
10105.4
9909.73
9714.27
11426.3
11231.1
11034.9
10842.9
10650.9
10451.6
10253.5
10056.1
9859.54
9663.61
11351.3
11157.4
10961.5
10773.4
10579.9
10383.9
10182.4
9984.4
9787.86
9592.5
11257
11064.8
10869.4
10681.6
10487.6
10289.8
10087.1
9888.14
9691.4
9496.69
11133.5
10941.9
10746.9
10556.6
10360.4
10162
9961.36
9763.61
9568.17
9374.55
10981.3
10790.1
10595
10402.1
10204.5
10006.4
9808.37
9611.13
9416.6
9224.09
10802.7
10612
10417.6
10224.5
10027.9
9830.81
9630.09
9432.97
9238.34
9046.36
10596.9
10406.2
10210.8
10016.4
9818.09
9619.27
9420.64
9225.65
9032.27
8841.2
10365.6
10175.1
9978.82
9783.9
9585.89
9387.66
9190.46
8995.5
8801.63
8610.58
10106.5
9916.14
9718.74
9523.33
9325.99
9128.38
8931.52
8736.33
8541.91
8350.66
9806.89
9616.86
9421.39
9227.47
9031.38
8833.79
8637.12
8441.79
8246.62
8055.05
9482.59
9287.98
9084.88
8889.65
8694.86
8496.33
8299.36
8103.53
7907.09
7714.84
9143.94
8944.75
8704.81
8495.14
8301.95
8102.37
7904.01
7707.85
7509.08
7315.11
8647.88
8477.21
8216.48
8007.34
7839.53
7651.19
7446.88
7239.41
7029.92
6830.43
7325.67
7312.03
7308.6
7264.74
7204.9
7045.05
6831.57
6608.54
6377.36
6170.88
4903.27
5019.52
5720.08
6092.19
6207.26
6098.12
5868.49
5605.92
5360.72
5154.64
3202.22
2971.37
3877.12
4301.06
4342.42
4210.33
4011.68
3786.91
3573.04
3405.97
3366.91
2783.26
2000.33
1347.74
906.417
705.627
686.016
670.14
642.178
588.967
1766.73
916.458
-830.765
-2027.14
-2544.54
-2617.82
-2575.52
-2407.26
-2252.02
-2210.26
-692.971
-1302.22
-2532.98
-3045.32
-3309.46
-3506.44
-3562.97
-3509.92
-3462.04
-3493.08
-1555.81
-2015.92
-2778.97
-2882.08
-3057.36
-3246.46
-3349.01
-3399
-3457.53
-3565.57
-1497.41
-1816.85
-2114.35
-2236.71
-2368.42
-2578.93
-2732.02
-2860.69
-2997.33
-3157.54
-1082.57
-1364.67
-1348.86
-1614.61
-1706.82
-1929.03
-2107
-2284.87
-2470.66
-2661.59
-753.022
-1121.19
-752.448
-1100.16
-1165.15
-1382.77
-1579.57
-1796.13
-2014.81
-2225.29
-302.067
-1903.31
-716.431
-930.611
-814.865
-1051.11
-1260.97
-1521.92
-1772.09
-2004.52
)
;
    }
    inlet
    {
        type            calculated;
        value           nonuniform List<scalar> 
20
(
11977.5
11782.2
11587
11391.8
11196.6
11001.4
10806.2
10611
10415.7
10220.8
11977.5
11782.2
11587
11391.8
11196.6
11001.4
10806.2
10611
10415.7
10220.8
)
;
    }
    outlet
    {
        type            calculated;
        value           nonuniform List<scalar> 
20
(
-97.6792
-293.037
-488.396
-683.754
-879.112
-1074.87
-1270.29
-1465.8
-1661.59
-1857.65
-97.6792
-293.037
-488.396
-683.754
-879.112
-1074.88
-1270.3
-1465.81
-1661.62
-1857.66
)
;
    }
    heatWall
    {
        type            calculated;
        value           nonuniform List<scalar> 
240
(
10123.2
10123.2
10123
10123
10122.9
10122.9
10122.6
10122.5
10122
10122
10121.2
10121.2
10119.7
10119.7
10117.3
10117.4
10113.8
10113.9
10109.9
10110
10107.3
10107.3
10105.3
10105.3
10103.3
10103.4
10100.7
10100.7
10096.5
10096.5
10091.6
10091.5
10087.6
10087.4
10084.6
10084.4
10079.8
10079.6
10072.1
10072
10062.6
10062.5
10053.7
10053.6
10046.2
10046
10037.8
10037.5
10019.6
10019.4
9994.05
9994.05
9962.62
9962.55
9919.91
9919.36
9879.81
9879.31
9848.18
9847.84
9818.63
9818.27
9783.61
9783.37
9743.6
9743.45
9701.14
9700.91
9659.2
9658.8
9617.12
9616.72
9566.43
9566.05
9495.49
9495
9399.76
9399.21
9277.52
9277.03
9126.98
9126.54
8949.19
8948.79
8743.83
8743.56
8512.67
8512.76
8252.15
8252.64
7956.05
7956.87
7616.03
7616.72
7216.38
7217.02
6728.93
6731.43
6067.1
6071.13
5049.03
5054.28
3299.06
3305.28
482.764
488.529
-2316.99
-2311.03
-3599
-3593.53
-3668.33
-3664.93
-3259.8
-3256.76
-2765.21
-2761.3
-2332.1
-2326.07
-2100.04
-2101.59
12075.1
12075.1
12075.1
12075.1
12075.2
12075.2
12075.4
12075.5
12076
12076
12078.7
12078.7
12078.9
12079
12079.7
12079.5
12079.3
12079.2
12076
12075.9
12073.6
12073.6
12068.1
12068
12064.9
12064.9
12061
12061
12055.5
12055.5
12050.6
12050.6
12044.2
12044.2
12038.3
12038.3
12029.8
12029.7
12019.6
12019.4
12009.1
12008.9
12001.4
12000.8
11989.6
11989.5
11979
11978.6
11958
11957.6
11928
11928.1
11896.9
11896.9
11843.5
11844.1
11805.7
11805.9
11782.4
11782.2
11751.5
11751.8
11734
11734.1
11709.1
11709.3
11671.6
11671.7
11627.8
11627.8
11581.9
11582
11523.7
11523.9
11448.5
11448.8
11354.2
11354.6
11230.6
11231.1
11078.1
11078.7
10899.1
10900
10692.9
10694
10461.1
10462.5
10201.2
10203.2
9902.08
9903.78
9575.58
9578.73
9238.32
9240.55
8741.44
8744.19
7413.03
7420.11
5019.7
5007.67
3354.12
3317.1
3464.89
3462.83
1817.81
1849.33
-610.93
-599.921
-1474.21
-1463.51
-1426.32
-1408.67
-1005.89
-991.788
-701.167
-669.999
-145.196
-184.231
)
;
    }
}


// ************************************************************************* //
