/*--------------------------------*- C++ -*----------------------------------*\
  =========                 |
  \\      /  F ield         | OpenFOAM: The Open Source CFD Toolbox
   \\    /   O peration     | Website:  https://openfoam.org
    \\  /    A nd           | Version:  8
     \\/     M anipulation  |
\*---------------------------------------------------------------------------*/
FoamFile
{
    version     2.0;
    format      ascii;
    class       volScalarField;
    location    "1000";
    object      p;
}
// * * * * * * * * * * * * * * * * * * * * * * * * * * * * * * * * * * * * * //

dimensions      [1 -1 -2 0 0 0 0];

internalField   nonuniform List<scalar> 
8400
(
11662.9
11681.9
11697.7
11713.1
11728.2
11743.2
11758.4
11773.9
11789.7
11806
11822.8
11840.3
11858.6
11877.9
11898.3
11920
11943.1
11968.1
11995.1
12024.5
12056.6
12091.9
12130.9
12174.3
12222.7
12277
12337.9
12406.2
12483.3
12570.5
12669.5
12782.1
12910.4
13056.8
13224.4
13416.2
13636.3
13889
14179.7
14514.3
14900.3
15345.9
15862
16462.3
17163.4
17979.4
18925.4
20062.1
21556.3
23502.2
11554.8
11568.6
11582.3
11596.4
11610.6
11624.8
11639.2
11653.8
11668.7
11684
11699.8
11716.2
11733.4
11751.3
11770.3
11790.5
11812.1
11835.2
11860.2
11887.4
11917.2
11949.9
11985.9
12026
12070.5
12120.3
12176.3
12239.4
12310.8
12391.6
12483.4
12587.9
12707
12843.2
12998.9
13177.3
13381.9
13616.8
13886.5
14196.6
14553.2
14963.3
15435.6
15980.4
16609
17329.8
18149.9
19100.3
20264.2
21692.6
11488.6
11506.8
11522.9
11538.1
11553.2
11568.5
11584
11599.8
11616
11632.7
11650
11668
11686.8
11706.5
11727.4
11749.5
11773.2
11798.5
11825.9
11855.6
11888
11923.5
11962.6
12005.7
12053.4
12106.4
12165.7
12232.3
12307.1
12391.6
12487.1
12595.5
12718.6
12858.7
13018.5
13201
13409.7
13648.6
13922.2
14235.9
14595.6
15008.2
15481.4
16024.4
16646.2
17354
18153.4
19059.5
20102.9
21278.7
11354
11358.2
11368.1
11380
11392.7
11405.7
11419
11432.5
11446.3
11460.4
11474.9
11490
11505.6
11522
11539.1
11557.3
11576.6
11597.2
11619.4
11643.5
11669.6
11698.2
11729.8
11764.8
11803.8
11847.4
11896.2
11951.2
12013.4
12083.7
12163.6
12254.5
12358.2
12476.6
12612.2
12767.5
12945.5
13149.9
13384.5
13654
13963.4
14318.5
14726
15193
15726.8
16333.5
17018.7
17791.4
18666.4
19640.1
11308.9
11330.5
11347.4
11362.4
11377.1
11391.9
11406.9
11422.3
11438
11454.2
11470.9
11488.2
11506.1
11524.9
11544.6
11565.4
11587.4
11610.8
11635.9
11662.8
11691.9
11723.3
11757.6
11795.2
11836.6
11882.3
11933.2
11989.8
12053.1
12124.2
12204.2
12294.5
12396.5
12512.2
12643.5
12792.7
12962.5
13156
13376.3
13627.4
13913.2
14238.3
14607.5
15025.7
15497.3
16025.7
16612.3
17259.1
17972.4
18750.9
11150.5
11150.8
11158.8
11169.6
11181.4
11193.6
11206.1
11218.8
11231.8
11245
11258.7
11272.7
11287.2
11302.2
11317.9
11334.4
11351.8
11370.3
11390
11411.3
11434.3
11459.2
11486.5
11516.4
11549.4
11585.9
11626.7
11672.2
11723.3
11780.9
11846
11919.7
12003.4
12098.7
12207.3
12331.4
12473.1
12635.1
12820.3
13032.1
13274
13549.8
13863.6
14219.2
14620.4
15069.3
15566.3
16110.2
16703.2
17346
11121
11144.9
11162.1
11176.6
11190.4
11204.3
11218.2
11232.4
11246.9
11261.6
11276.7
11292.2
11308.1
11324.5
11341.6
11359.3
11377.7
11397.1
11417.5
11439.1
11462.1
11486.8
11513.3
11542.1
11573.3
11607.5
11645
11686.4
11732.3
11783.4
11840.5
11904.4
11976.4
12057.4
12149
12252.8
12370.4
12503.9
12655.6
12827.9
13023.6
13245.4
13496.3
13779.1
14096.6
14450.2
14839.7
15263.7
15723.9
16222.6
10950.8
10949.2
10956.3
10966.6
10977.9
10989.6
11001.6
11013.8
11026.2
11038.8
11051.7
11064.8
11078.4
11092.3
11106.7
11121.6
11137.2
11153.4
11170.5
11188.6
11207.7
11228.2
11250
11273.6
11299.1
11326.9
11357.3
11390.7
11427.6
11468.5
11514
11564.8
11621.8
11685.9
11758.1
11839.7
11932.1
12036.6
12155.2
12289.6
12441.9
12614.1
12808.4
13027
13271.5
13543.1
13841.4
14165.2
14515.9
14896.9
10928.1
10952.3
10969
10982.7
10995.5
11008.2
11020.8
11033.6
11046.5
11059.4
11072.5
11085.8
11099.2
11112.8
11126.6
11140.6
11155
11169.8
11184.9
11200.6
11216.8
11233.8
11251.5
11270.2
11290
11311
11333.6
11357.9
11384.2
11412.8
11444.2
11478.8
11517.1
11559.6
11607.2
11660.5
11720.4
11788
11864.3
11950.7
12048.5
12159.2
12284.3
12425.3
12583.6
12760.3
12955.5
13168.9
13402.2
13659.5
10754.5
10752.2
10758.8
10768.5
10779.3
10790.5
10801.9
10813.4
10825
10836.7
10848.6
10860.6
10872.7
10885
10897.5
10910.2
10923.1
10936.2
10949.6
10963.4
10977.4
10991.9
11006.8
11022.2
11038.2
11054.9
11072.3
11090.6
11109.8
11130.1
11151.7
11174.7
11199.3
11225.8
11254.5
11285.7
11319.7
11357
11398.1
11443.6
11494.1
11550.4
11613.3
11683.8
11762.9
11851.5
11950.5
12060.5
12184
12325.6
10732
10755.6
10771.5
10784.2
10796.2
10807.9
10819.5
10831
10842.6
10854.1
10865.5
10876.8
10888.1
10899.3
10910.4
10921.3
10932.1
10942.7
10953.1
10963.3
10973.3
10983
10992.4
11001.5
11010.3
11018.6
11026.5
11033.8
11040.6
11046.8
11052.2
11056.9
11060.7
11063.5
11065.3
11066
11065.4
11063.5
11060.3
11055.8
11049.9
11042.8
11034.9
11026.4
11018.3
11011.5
11007.4
11007.9
11016.6
11038.7
10560.5
10558.1
10564.1
10573.2
10583.2
10593.5
10603.9
10614.4
10624.8
10635.1
10645.4
10655.6
10665.7
10675.7
10685.4
10695
10704.3
10713.3
10721.9
10730.1
10737.9
10745.1
10751.6
10757.3
10762.2
10766
10768.6
10769.7
10769.2
10766.8
10762.1
10754.9
10744.7
10731
10713.4
10691.2
10663.8
10630.6
10590.8
10543.5
10488.1
10423.8
10350.2
10266.9
10174.1
10072.7
9964.31
9851.93
9740.11
9636.09
10533.4
10555.6
10570.7
10582.8
10594.2
10605.2
10616.2
10627
10637.7
10648.3
10658.6
10668.7
10678.6
10688
10697.1
10705.7
10713.8
10721.2
10727.9
10733.8
10738.6
10742.4
10744.8
10745.8
10744.9
10742.1
10736.9
10729.1
10718.1
10703.5
10684.9
10661.4
10632.5
10597.4
10555
10504.4
10444.4
10373.8
10291.2
10195.2
10084.2
9956.81
9811.84
9648.36
9466.06
9265.53
9048.81
8820.03
8585.74
8355.11
10368.9
10366.9
10372.6
10380.9
10390.1
10399.4
10408.6
10417.8
10426.8
10435.5
10443.9
10452
10459.7
10466.9
10473.6
10479.6
10484.8
10489.2
10492.6
10494.9
10495.8
10495.1
10492.7
10488.2
10481.4
10471.8
10459
10442.6
10421.9
10396.4
10365.3
10327.6
10282.5
10228.8
10165.2
10090.3
10002.2
9899.34
9779.44
9640.3
9479.48
9294.43
9082.67
8841.99
8570.73
8268.18
7935.24
7575.76
7197.62
6814.97
10331.5
10351.5
10365.5
10377.1
10388
10398.7
10409.2
10419.6
10429.8
10439.7
10449.3
10458.5
10467.3
10475.5
10483.1
10490
10496
10501
10504.8
10507.3
10508.2
10507.2
10504.1
10498.5
10490
10478.2
10462.4
10442.1
10416.6
10384.9
10346.2
10299.2
10242.8
10175.4
10095.2
10000.4
9888.62
9757.33
9603.68
9424.46
9216.2
8975.17
8697.56
8379.83
8019.16
7613.74
7163.44
6672.03
6150.7
5619.87
10180.6
10180.3
10186.2
10194.2
10202.8
10211.4
10219.9
10228
10235.9
10243.3
10250.2
10256.6
10262.3
10267.2
10271.2
10274.2
10276
10276.5
10275.4
10272.4
10267.3
10259.8
10249.6
10236.1
10218.8
10197.3
10170.9
10138.7
10099.9
10053.5
9998.37
9933.05
9856.02
9765.49
9659.36
9535.27
9390.48
9221.87
9025.91
8798.61
8535.52
8231.72
7881.91
7480.73
7023.36
6505.41
5922.47
5272.38
4564.03
3828.4
10123.9
10141
10153.7
10164.8
10175.3
10185.6
10195.7
10205.5
10215
10224.2
10232.9
10241.1
10248.7
10255.6
10261.7
10266.8
10270.8
10273.5
10274.7
10274.1
10271.4
10266.3
10258.4
10247.2
10232.3
10213
10188.6
10158.3
10121.1
10075.9
10021.5
9956.36
9878.72
9786.59
9677.65
9549.17
9398.02
9220.53
9012.47
8768.92
8484.24
8151.87
7764.26
7313.17
6790.36
6187.4
5493.39
4696.62
3803.63
2865.02
9993.64
9997.96
10005.7
10014.5
10023.3
10032
10040.3
10048.3
10055.8
10062.7
10069.1
10074.7
10079.6
10083.4
10086.2
10087.7
10087.8
10086.2
10082.6
10076.8
10068.3
10056.9
10042
10023
9999.46
9970.52
9935.36
9893.02
9842.37
9782.08
9710.65
9626.29
9526.94
9410.21
9273.3
9112.94
8925.32
8705.97
8449.66
8150.28
7800.69
7392.47
6915.64
6358.7
5709.85
4957.71
4086.84
3072
1900.14
635.274
9907.02
9925.78
9937.89
9948.66
9958.79
9968.53
9977.92
9986.95
9995.56
10003.7
10011.3
10018.3
10024.5
10029.8
10034.2
10037.4
10039.2
10039.4
10037.8
10034.1
10027.9
10018.8
10006.5
9990.21
9969.5
9943.6
9911.7
9872.83
9825.89
9769.58
9702.4
9622.62
9528.22
9416.83
9285.71
9131.65
8950.9
8739.04
8490.9
8200.37
7860.28
7462.02
6994.98
6446.07
5801.24
5047.75
4166.19
3102.69
1771.28
197.224
9807
9816.74
9826.56
9836.34
9845.84
9855.01
9863.8
9872.18
9880.09
9887.47
9894.23
9900.27
9905.49
9909.75
9912.9
9914.76
9915.13
9913.77
9910.41
9904.73
9896.37
9884.89
9869.81
9850.56
9826.48
9796.81
9760.65
9716.97
9664.59
9602.1
9527.88
9440.06
9336.41
9214.38
9070.92
8902.5
8704.9
8473.15
8201.28
7882.14
7507.07
7065.38
6543.18
5922.15
5180.37
4295.14
3230.88
1883.48
43.5335
-2333.55
19425.1
11263.1
7230.25
5711.91
4877.51
4268.65
3844.95
3560.64
3360.49
3209.42
3089.73
2991.54
2908.33
2835.59
2770.29
2710.29
2654.04
2600.38
2548.34
2497.16
2446.13
2394.63
2342.02
2287.69
2230.98
2171.17
2107.48
2039.04
1964.83
1883.69
1794.31
1695.15
1584.49
1460.32
1320.16
1161.06
979.6
771.765
532.738
256.579
-63.8635
-437.204
-874.112
-1388.09
-1996.62
-2723.17
-3600.68
-4678.42
-6036.8
-7812.49
-6207.31
-1618.05
-116.262
450.045
884.352
1209.95
1434.33
1594.43
1713.3
1802.15
1868.23
1916.98
1952.3
1976.93
1992.8
2001.35
2003.63
2000.43
1992.28
1979.57
1962.51
1941.19
1915.6
1885.59
1850.91
1811.17
1765.89
1714.42
1655.97
1589.5
1513.79
1427.45
1328.77
1215.72
1086.06
937.096
765.56
567.537
338.436
72.8276
-235.96
-596.1
-1017.58
-1512.72
-2096.98
-2789.91
-3616.47
-4608.16
-5802.53
-7233.43
1024.64
3194.7
4377.87
4480.56
4323.94
4152.31
3966.02
3774.82
3596.45
3437.34
3296.57
3171.65
3060.18
2959.96
2868.96
2785.44
2707.91
2635.11
2565.96
2499.5
2434.89
2371.33
2308.09
2244.43
2179.6
2112.84
2043.33
1970.24
1892.61
1809.37
1719.27
1620.8
1512.22
1391.44
1256.17
1103.78
931.17
734.638
509.791
251.474
-46.3752
-391.011
-791.105
-1257.03
-1801.2
-2438.29
-3185.34
-4060.87
-5082.11
-6257.35
1275.72
1684.8
1876.3
1804.68
1702.47
1659.1
1647.49
1645.25
1649.53
1659.41
1672.04
1684.83
1696.23
1705.4
1711.83
1715.22
1715.39
1712.28
1705.83
1695.99
1682.71
1665.88
1645.36
1620.92
1592.26
1558.97
1520.57
1476.44
1425.89
1368.17
1302.34
1227.18
1141.28
1043.02
930.388
801.01
652.121
480.464
282.217
52.921
-212.628
-520.529
-877.882
-1292.85
-1774.65
-2333.32
-2979.02
-3720.46
-4561.51
-5495.34
1717.19
1966.28
2282.92
2514.61
2654.51
2743.8
2796.13
2815.08
2808.72
2785.77
2752.04
2711.13
2665.52
2616.99
2566.72
2515.47
2463.67
2411.57
2359.23
2306.62
2253.61
2199.99
2145.51
2089.86
2032.67
1973.49
1911.72
1846.68
1777.57
1703.52
1623.51
1536.43
1440.98
1335.61
1218.51
1087.56
940.311
773.937
585.149
370.158
124.615
-156.442
-478.594
-847.985
-1271.13
-1754.51
-2303.76
-2922.2
-3608.49
-4353.83
1823.34
1908.96
2017.09
2079.14
2081.8
2053.7
2015.29
1973.03
1929.91
1888.66
1850.73
1816.33
1785.07
1756.43
1729.84
1704.73
1680.56
1656.85
1633.17
1609.1
1584.27
1558.31
1530.85
1501.5
1469.9
1435.65
1398.29
1357.29
1312.07
1261.89
1205.93
1143.24
1072.75
993.18
903.031
800.577
683.819
550.452
397.832
222.949
22.4106
-207.551
-471.029
-772.311
-1115.62
-1504.68
-1941.93
-2427.45
-2957.19
-3521.64
1838.89
1883.28
1955.01
2027.24
2082.6
2123.51
2155.12
2178.12
2192.19
2198.04
2196.84
2189.61
2177.16
2160.22
2139.45
2115.41
2088.55
2059.23
2027.75
1994.31
1959.05
1922.04
1883.26
1842.61
1799.94
1755.06
1707.71
1657.57
1604.23
1547.15
1485.73
1419.25
1346.86
1267.59
1180.26
1083.53
975.865
855.482
720.37
568.266
396.668
202.863
-15.9943
-262.738
-539.949
-849.567
-1192.33
-1567.01
-1969.45
-2392.33
1799.83
1822.03
1859.82
1899.81
1927.98
1940.88
1941.04
1931.1
1913.07
1888.99
1860.86
1830.23
1798.24
1765.66
1733
1700.58
1668.54
1636.93
1605.71
1574.76
1543.95
1513.11
1482.01
1450.44
1418.14
1384.8
1350.12
1313.76
1275.3
1234.31
1190.27
1142.61
1090.69
1033.75
970.942
901.293
823.695
736.903
639.523
530.024
406.747
267.953
111.9
-63.0342
-258.149
-474.133
-710.667
-965.926
-1235.96
-1514.61
1733.68
1747.28
1772.35
1802.98
1830.48
1850.77
1863.98
1871.15
1873.01
1870.19
1863.35
1853.12
1840
1824.39
1806.59
1786.89
1765.49
1742.57
1718.28
1692.74
1666.01
1638.17
1609.24
1579.23
1548.11
1515.83
1482.29
1447.38
1410.94
1372.77
1332.64
1290.24
1245.24
1197.24
1145.76
1090.27
1030.15
964.719
893.209
814.8
728.626
633.815
529.551
415.158
290.243
154.869
9.78649
-143.303
-301.49
-460.917
1650.22
1660.31
1679.5
1704.05
1726.97
1743.68
1752.95
1755.16
1751.01
1741.31
1727.01
1709.08
1688.4
1665.67
1641.45
1616.21
1590.26
1563.88
1537.22
1510.4
1483.5
1456.55
1429.58
1402.56
1375.49
1348.31
1320.98
1293.44
1265.62
1237.43
1208.78
1179.57
1149.68
1118.98
1087.33
1054.58
1020.56
985.095
948.019
909.169
868.407
825.649
780.891
734.26
686.073
636.921
587.757
540.004
495.667
457.281
1553.81
1563.93
1583.16
1607.79
1630.83
1647.68
1657.14
1659.59
1655.72
1646.37
1632.48
1615.06
1594.97
1572.94
1549.55
1525.28
1500.48
1475.43
1450.34
1425.35
1400.58
1376.11
1352.02
1328.37
1305.2
1282.57
1260.52
1239.13
1218.45
1198.57
1179.6
1161.64
1144.85
1129.39
1115.46
1103.3
1093.21
1085.53
1080.66
1079.07
1081.34
1088.09
1100.06
1118.1
1143.1
1176.04
1217.92
1269.72
1332.3
1406.4
1444.44
1458.11
1483.31
1514.19
1542.02
1562.75
1576.51
1584.36
1587.04
1585.19
1579.52
1570.66
1559.16
1545.44
1529.87
1512.78
1494.44
1475.1
1455.01
1434.38
1413.41
1392.32
1371.29
1350.53
1330.25
1310.65
1291.95
1274.42
1258.3
1243.9
1231.54
1221.62
1214.55
1210.83
1211.03
1215.8
1225.89
1242.17
1265.6
1297.31
1338.53
1390.62
1455.07
1533.38
1627.06
1737.48
1865.69
2012.26
2177.01
2359.14
1317.67
1339.98
1378
1418.38
1447.09
1460.71
1461.79
1452.98
1436.33
1413.91
1387.75
1359.48
1330.26
1300.94
1272.12
1244.2
1217.44
1192.01
1168.03
1145.55
1124.63
1105.32
1087.69
1071.83
1057.84
1045.88
1036.13
1028.85
1024.32
1022.91
1025.05
1031.27
1042.19
1058.52
1081.12
1110.98
1149.26
1197.26
1256.51
1328.71
1415.77
1519.76
1642.91
1787.48
1955.68
2149.39
2369.95
2617.75
2891.8
3190.1
1163.67
1208.2
1280.25
1353
1409.11
1451.01
1483.85
1508.36
1524.26
1532.29
1533.71
1529.57
1520.77
1508.14
1492.44
1474.34
1454.45
1433.3
1411.37
1389.1
1366.89
1345.12
1324.16
1304.4
1286.19
1269.96
1256.13
1245.19
1237.65
1234.12
1235.29
1241.94
1254.96
1275.39
1304.43
1343.44
1394.01
1457.94
1537.29
1634.39
1751.81
1892.41
2059.19
2255.3
2483.74
2747.18
3047.41
3384.85
3757.68
4161.94
954.853
1040.66
1149.17
1211.87
1215.47
1188.6
1151.76
1111.42
1070.64
1032.2
997.62
967.178
940.591
917.442
897.293
879.732
864.408
851.048
839.468
829.56
821.295
814.714
809.928
807.115
806.52
808.46
813.329
821.603
833.85
850.744
873.075
901.77
937.91
982.755
1037.77
1104.64
1185.32
1282.06
1397.44
1534.37
1696.14
1886.39
2109.08
2368.39
2668.53
3013.35
3405.88
3847.43
4336.52
4869.06
655.2
904.498
1221.6
1454.06
1595.07
1685.79
1739.94
1761.06
1757.34
1737.58
1707.68
1671.31
1631.08
1588.89
1546.07
1503.56
1462.02
1421.94
1383.68
1347.54
1313.79
1282.7
1254.54
1229.6
1208.23
1190.82
1177.84
1169.84
1167.47
1171.48
1182.79
1202.43
1231.65
1271.89
1324.82
1392.42
1476.95
1581.04
1707.73
1860.47
2043.23
2260.44
2517.06
2818.42
3170.13
3577.7
4045.88
4577.58
5171.97
5823.6
19.938
429.25
621.252
550.472
449.478
407.727
398.139
398.408
405.733
419.265
436.234
454.147
471.599
487.889
502.682
515.873
527.538
537.873
547.16
555.735
563.984
572.33
581.236
591.206
602.796
616.616
633.347
653.754
678.7
709.165
746.27
791.298
845.726
911.257
989.856
1083.79
1195.69
1328.59
1485.98
1671.89
1890.97
2148.52
2450.55
2803.84
3215.81
3694.39
4247.39
4881.49
5599.85
6400.91
-425.256
1745.06
2928.78
3032.41
2877.09
2707.16
2522.99
2334.57
2159.55
2004.42
1868.37
1749.05
1644.2
1551.75
1469.89
1397.09
1332.12
1274.03
1222.08
1175.76
1134.7
1098.67
1067.61
1041.56
1020.68
1005.26
995.715
992.592
996.579
1008.53
1029.47
1060.63
1103.48
1159.74
1231.45
1320.99
1431.15
1565.2
1726.94
1920.81
2151.98
2426.5
2751.37
3134.76
3586.1
4116.14
4736.78
5460.29
6296.79
7251.54
-7851.68
-3262.15
-1759.78
-1192.5
-756.834
-429.495
-202.849
-39.9454
82.3348
175.28
246.236
300.776
342.944
375.625
400.962
420.621
435.931
447.981
457.695
465.879
473.268
480.548
488.39
497.467
508.476
522.158
539.316
560.836
587.709
621.055
662.148
712.448
773.636
847.65
936.735
1043.49
1170.95
1322.61
1502.6
1715.71
1967.57
2264.81
2615.3
3028.43
3515.51
4090.32
4769.72
5574.27
6527.61
7655.89
17585.8
9424.13
5391.86
3874.5
3041.54
2434.64
2013.37
1731.98
1535.38
1388.58
1273.97
1181.8
1105.69
1041.31
985.821
937.334
894.582
856.714
823.172
793.62
767.893
745.968
727.945
714.036
704.564
699.964
700.79
707.726
721.598
743.394
774.285
815.654
869.128
936.613
1020.35
1122.94
1247.46
1397.49
1577.24
1791.66
2046.6
2349.04
2707.32
3131.63
3634.65
4232.6
4947.18
5809.16
6865.49
8198.28
-20202.9
-15587.3
-14017.1
-10059.1
-8092.75
-4675.04
-2573.76
481.531
2586.33
5395.17
7425.9
10069.6
11968.1
14515.8
16223.2
18746.5
20178.4
22762.4
23762.8
26396.8
-20229.1
-15626.5
-14066.2
-10110.3
-8150.92
-4731.78
-2636.24
421.201
2521.57
5332.56
7359.78
10006
11901.9
14453.5
16159.6
18690
20124.6
22723.5
23737.7
26410.4
-20263.5
-15663.7
-14113.1
-10158.4
-8205.74
-4785.65
-2695.34
363.841
2460.13
5273.26
7297.35
9946.32
11840.2
14395.6
16101.7
18638.2
20076.5
22686
23710
26400.1
-20302.3
-15701.5
-14158.8
-10204.4
-8258.15
-4837.06
-2751.8
309.088
2401.42
5216.75
7237.84
9889.62
11781.7
14340.9
16046.9
18588.6
20029.8
22646.4
23675.4
26373.2
-20343.3
-15740
-14203.9
-10249
-8308.77
-4886.49
-2806.11
256.535
2344.98
5162.52
7180.69
9835.22
11725.5
14288.1
15993.7
18539.7
19982.5
22603.7
23634.6
26336.8
-20385.3
-15778.9
-14248.5
-10292.7
-8358.03
-4934.33
-2858.7
205.781
2290.38
5110.12
7125.33
9782.48
11670.7
14236.4
15941.3
18490.6
19933.6
22558.1
23589
26294.2
-20427.7
-15817.9
-14292.7
-10335.6
-8406.21
-4980.91
-2909.89
156.468
2237.25
5059.13
7071.32
9730.89
11617
14185.2
15888.9
18440.8
19883.2
22510
23539.8
26247.4
-20470.2
-15856.7
-14336.5
-10377.8
-8453.53
-5026.47
-2959.99
108.291
2185.25
5009.2
7018.29
9680.09
11563.7
14134.2
15836.4
18390.2
19831.2
22459.7
23487.8
26197.5
-20512.6
-15895.4
-14379.9
-10419.5
-8500.14
-5071.22
-3009.2
60.9967
2134.12
4960.06
6965.94
9629.76
11510.8
14083.2
15783.3
18338.9
19777.9
22407.8
23433.8
26145.3
-20554.8
-15933.8
-14422.9
-10460.7
-8546.17
-5115.32
-3057.74
14.3817
2083.64
4911.47
6914.06
9579.71
11458
14032.1
15729.9
18286.7
19723.5
22354.4
23378.1
26091.4
-20596.7
-15971.9
-14465.6
-10501.4
-8591.71
-5158.9
-3105.73
-31.7169
2033.66
4863.27
6862.48
9529.79
11405.1
13980.7
15675.9
18233.9
19668.2
22299.9
23321.1
26036.1
-20638.4
-16009.7
-14508
-10541.8
-8636.86
-5202.05
-3153.29
-77.4277
1984.02
4815.33
6811.09
9479.91
11352.2
13929.1
15621.5
18180.5
19612
22244.5
23263
25979.8
-20679.8
-16047.2
-14550.1
-10581.8
-8681.67
-5244.88
-3200.53
-122.851
1934.65
4767.56
6759.8
9430
11299.2
13877.1
15566.6
18126.6
19555.2
22188.3
23204.2
25922.6
-20720.9
-16084.5
-14591.9
-10621.6
-8726.21
-5287.43
-3247.52
-168.063
1885.45
4719.88
6708.56
9380.03
11246
13824.9
15511.4
18072.2
19497.8
22131.5
23144.6
25864.7
-20761.9
-16121.5
-14633.5
-10661.2
-8770.53
-5329.77
-3294.3
-213.124
1836.39
4672.26
6657.33
9329.97
11192.7
13772.5
15455.9
18017.3
19440
22074.2
23084.5
25806.3
-20802.6
-16158.3
-14674.9
-10700.5
-8814.66
-5371.95
-3340.94
-258.079
1787.41
4624.65
6606.09
9279.81
11139.2
13719.8
15400.1
17962.2
19381.7
22016.4
23023.9
25747.4
-20843.2
-16194.9
-14716.1
-10739.7
-8858.65
-5413.99
-3387.45
-302.962
1738.49
4577.03
6554.82
9229.55
11085.6
13667
15344.1
17906.7
19323.1
21958.3
22962.9
25688.1
-20883.6
-16231.3
-14757.3
-10778.7
-8902.51
-5455.93
-3433.88
-347.798
1689.61
4529.39
6503.51
9179.18
11031.9
13613.9
15287.8
17851
19264.3
21899.9
22901.6
25628.5
-20923.9
-16267.6
-14798.3
-10817.6
-8946.28
-5497.79
-3480.23
-392.605
1640.76
4481.71
6452.17
9128.7
10978
13560.7
15231.4
17795.1
19205.2
21841.2
22840.1
25568.7
-20964.1
-16303.8
-14839.2
-10856.5
-8989.97
-5539.6
-3526.53
-437.397
1591.92
4434
6400.8
9078.14
10924.1
13507.4
15174.8
17739
19145.9
21782.3
22778.3
25508.7
-21004.2
-16339.9
-14880
-10895.2
-9033.58
-5581.35
-3572.78
-482.183
1543.1
4386.24
6349.4
9027.49
10870.1
13453.9
15118.1
17682.7
19086.5
21723.3
22716.4
25448.5
-21044.3
-16375.8
-14920.8
-10933.9
-9077.15
-5623.07
-3618.99
-526.968
1494.28
4338.45
6297.97
8976.77
10816
13400.3
15061.3
17626.3
19026.9
21664.1
22654.3
25388.2
-21084.3
-16411.7
-14961.5
-10972.5
-9120.66
-5664.75
-3665.17
-571.754
1445.49
4290.62
6246.53
8925.98
10761.9
13346.6
15004.4
17569.8
18967.3
21604.8
22592.2
25327.8
-21124.2
-16447.6
-15002.2
-11011
-9164.13
-5706.42
-3711.32
-616.544
1396.71
4242.77
6195.09
8875.14
10707.7
13292.9
14947.5
17513.2
18907.5
21545.5
22529.9
25267.3
-21164.1
-16483.3
-15042.8
-11049.6
-9207.57
-5748.06
-3757.43
-661.336
1347.94
4194.88
6143.64
8824.26
10653.5
13239.1
14890.5
17456.6
18847.7
21486.1
22467.6
25206.8
-21204
-16519.1
-15083.4
-11088
-9250.96
-5789.68
-3803.51
-706.129
1299.21
4146.98
6092.21
8773.34
10599.4
13185.3
14833.5
17399.9
18787.9
21426.6
22405.2
25146.2
-21243.8
-16554.7
-15124
-11126.5
-9294.32
-5831.28
-3849.55
-750.92
1250.5
4099.07
6040.8
8722.39
10545.2
13131.4
14776.6
17343.3
18728.1
21367.2
22342.8
25085.6
-21283.6
-16590.3
-15164.5
-11164.9
-9337.65
-5872.85
-3895.56
-795.705
1201.83
4051.15
5989.42
8671.44
10491
13077.5
14719.6
17286.5
18668.3
21307.7
22280.4
25025.1
-21323.4
-16625.9
-15205
-11203.3
-9380.93
-5914.41
-3941.52
-840.479
1153.21
4003.22
5938.08
8620.48
10436.9
13023.6
14662.6
17229.8
18608.5
21248.3
22218
24964.6
-21363.1
-16661.4
-15245.5
-11241.6
-9424.17
-5955.94
-3987.43
-885.239
1104.63
3955.31
5886.79
8569.52
10382.9
12969.8
14605.7
17173.2
18548.7
21188.9
22155.7
24904.1
-21402.8
-16696.9
-15286
-11279.9
-9467.37
-5997.44
-4033.28
-929.978
1056.12
3907.41
5835.56
8518.58
10328.9
12915.9
14548.8
17116.5
18489
21129.5
22093.4
24843.7
-21442.5
-16732.3
-15326.4
-11318.1
-9510.51
-6038.9
-4079.08
-974.69
1007.67
3859.53
5784.4
8467.66
10274.9
12862.1
14492
17059.9
18429.3
21070.2
22031.2
24783.4
-21482.2
-16767.7
-15366.7
-11356.3
-9553.6
-6080.33
-4124.8
-1019.37
959.299
3811.69
5733.31
8416.77
10221
12808.3
14435.3
17003.3
18369.7
21010.9
21969
24723.1
-21521.8
-16803
-15407.1
-11394.5
-9596.63
-6121.71
-4170.45
-1064.01
911.009
3763.88
5682.32
8365.93
10167.3
12754.6
14378.7
16946.8
18310.2
20951.8
21906.9
24663
-21561.4
-16838.2
-15447.3
-11432.6
-9639.59
-6163.05
-4216.03
-1108.61
862.812
3716.11
5631.42
8315.13
10113.6
12700.9
14322.2
16890.4
18250.8
20892.7
21844.9
24603
-21600.9
-16873.4
-15487.5
-11470.6
-9682.47
-6204.33
-4261.51
-1153.16
814.714
3668.4
5580.62
8264.39
10060
12647.3
14265.7
16834.1
18191.5
20833.7
21783
24543
-21640.4
-16908.5
-15527.7
-11508.6
-9725.28
-6245.55
-4306.89
-1197.65
766.725
3620.74
5529.95
8213.72
10006.6
12593.8
14209.4
16777.9
18132.3
20774.9
21721.2
24483.3
-21679.8
-16943.5
-15567.8
-11546.5
-9768
-6286.7
-4352.17
-1242.08
718.853
3573.15
5479.4
8163.13
9953.24
12540.3
14153.2
16721.7
18073.3
20716.2
21659.6
24423.6
-21719.2
-16978.5
-15607.8
-11584.3
-9810.62
-6327.79
-4397.34
-1286.43
671.106
3525.64
5428.98
8112.61
9900.06
12487
14097.2
16665.7
18014.4
20657.6
21598.1
24364.1
-21758.5
-17013.3
-15647.7
-11622.1
-9853.15
-6368.79
-4442.39
-1330.71
623.494
3478.21
5378.71
8062.19
9847.03
12433.8
14041.3
16609.8
17955.6
20599.1
21536.7
24304.8
-21797.7
-17048.1
-15687.6
-11659.7
-9895.56
-6409.71
-4487.31
-1374.91
576.025
3430.86
5328.59
8011.87
9794.16
12380.7
13985.6
16554.1
17897
20540.9
21475.5
24245.7
-21836.8
-17082.7
-15727.3
-11697.3
-9937.86
-6450.54
-4532.1
-1419.01
528.708
3383.61
5278.63
7961.65
9741.45
12327.7
13930
16498.5
17838.6
20482.7
21414.5
24186.7
-21875.9
-17117.3
-15767
-11734.7
-9980.03
-6491.27
-4576.74
-1463.02
481.551
3336.47
5228.84
7911.55
9688.92
12274.8
13874.7
16443
17780.3
20424.8
21353.6
24128
-21914.9
-17151.7
-15806.6
-11772.1
-10022.1
-6531.9
-4621.23
-1506.92
434.564
3289.43
5179.24
7861.57
9636.58
12222.1
13819.5
16387.7
17722.2
20367
21292.9
24069.4
-21953.7
-17186
-15846
-11809.3
-10064
-6572.41
-4665.55
-1550.71
387.754
3242.52
5129.82
7811.72
9584.43
12169.5
13764.5
16332.6
17664.4
20309.5
21232.5
24011
-21992.5
-17220.2
-15885.3
-11846.4
-10105.7
-6612.81
-4709.71
-1594.38
341.132
3195.73
5080.6
7762.01
9532.49
12117.1
13709.7
16277.6
17606.7
20252.1
21172.2
23952.9
-22031.1
-17254.3
-15924.5
-11883.4
-10147.3
-6653.09
-4753.68
-1637.92
294.706
3149.07
5031.59
7712.45
9480.76
12064.9
13655.1
16222.9
17549.3
20194.9
21112.1
23895
-22069.6
-17288.2
-15963.5
-11920.2
-10188.8
-6693.23
-4797.47
-1681.34
248.484
3102.55
4982.8
7663.04
9429.26
12012.8
13600.8
16168.3
17492
20138
21052.3
23837.4
-22108
-17322
-16002.4
-11956.9
-10230
-6733.23
-4841.07
-1724.61
202.476
3056.18
4934.23
7613.79
9377.98
11960.9
13546.7
16113.9
17435.1
20081.3
20992.7
23780
-22146.3
-17355.6
-16041.2
-11993.5
-10271.1
-6773.1
-4884.46
-1767.74
156.691
3009.96
4885.9
7564.7
9326.95
11909.2
13492.8
16059.8
17378.3
20024.8
20933.3
23722.8
-22184.4
-17389
-16079.8
-12029.9
-10312
-6812.81
-4927.64
-1810.72
111.136
2963.9
4837.81
7515.8
9276.17
11857.7
13439.2
16005.8
17321.8
19968.6
20874.2
23666
-22222.4
-17422.3
-16118.2
-12066.2
-10352.7
-6852.36
-4970.6
-1853.53
65.8213
2918.01
4789.97
7467.08
9225.65
11806.4
13385.8
15952.1
17265.6
19912.7
20815.4
23609.4
-22260.2
-17455.4
-16156.4
-12102.2
-10393.2
-6891.75
-5013.33
-1896.19
20.7554
2872.3
4742.4
7418.54
9175.4
11755.3
13332.8
15898.7
17209.7
19857
20756.8
23553.1
-22297.8
-17488.4
-16194.5
-12138.1
-10433.5
-6930.97
-5055.82
-1938.67
-24.053
2826.77
4695.09
7370.21
9125.43
11704.4
13280
15845.5
17154
19801.5
20698.5
23497.1
-22335.3
-17521.1
-16232.4
-12173.9
-10473.6
-6970.02
-5098.06
-1980.97
-68.595
2781.42
4648.07
7322.08
9075.74
11653.7
13227.5
15792.5
17098.6
19746.4
20640.5
23441.4
-22372.6
-17553.7
-16270.1
-12209.4
-10513.4
-7008.88
-5140.05
-2023.08
-112.862
2736.27
4601.33
7274.17
9026.35
11603.3
13175.3
15739.8
17043.5
19691.6
20582.8
23386
-22409.7
-17586
-16307.5
-12244.8
-10553
-7047.55
-5181.77
-2065
-156.845
2691.33
4554.89
7226.47
8977.26
11553.2
13123.3
15687.4
16988.7
19637
20525.4
23330.9
-22446.6
-17618.2
-16344.8
-12279.9
-10592.3
-7086.02
-5223.23
-2106.73
-200.535
2646.59
4508.76
7179
8928.49
11503.3
13071.8
15635.2
16934.3
19582.8
20468.3
23276.2
-22483.3
-17650.1
-16381.8
-12314.8
-10631.4
-7124.3
-5264.4
-2148.24
-243.924
2602.07
4462.94
7131.77
8880.03
11453.6
13020.5
15583.4
16880.1
19528.8
20411.5
23221.8
-22519.8
-17681.8
-16418.6
-12349.6
-10670.3
-7162.36
-5305.28
-2189.55
-287.003
2557.77
4417.45
7084.78
8831.91
11404.2
12969.6
15531.8
16826.3
19475.2
20355.1
23167.7
-22556.1
-17713.3
-16455.2
-12384.1
-10708.8
-7200.21
-5345.86
-2230.64
-329.763
2513.7
4372.28
7038.04
8784.12
11355.1
12919
15480.5
16772.9
19422
20299
23114
-22592.2
-17744.5
-16491.5
-12418.4
-10747.1
-7237.84
-5386.14
-2271.51
-372.196
2469.87
4327.46
6991.55
8736.69
11306.3
12868.7
15429.6
16719.7
19369
20243.2
23060.7
-22628
-17775.5
-16527.6
-12452.4
-10785.1
-7275.24
-5426.11
-2312.14
-414.292
2426.28
4282.99
6945.32
8689.61
11257.7
12818.8
15378.9
16667
19316.4
20187.8
23007.8
-22663.6
-17806.3
-16563.4
-12486.2
-10822.8
-7312.41
-5465.74
-2352.54
-456.044
2382.93
4238.88
6899.37
8642.89
11209.5
12769.3
15328.6
16614.6
19264.2
20132.8
22955.2
-22699
-17836.8
-16599
-12519.8
-10860.2
-7349.35
-5505.05
-2392.7
-497.442
2339.85
4195.13
6853.69
8596.55
11161.5
12720.2
15278.6
16562.6
19212.4
20078.1
22903
-22734.1
-17867
-16634.3
-12553.1
-10897.3
-7386.03
-5544.02
-2432.61
-538.478
2297.02
4151.76
6808.29
8550.59
11113.9
12671.4
15229
16511
19160.9
20023.9
22851.3
-22768.9
-17897
-16669.3
-12586.2
-10934.1
-7422.47
-5582.63
-2472.26
-579.143
2254.46
4108.77
6763.18
8505.02
11066.6
12623.1
15179.7
16459.7
19109.8
19970
22799.9
-22803.5
-17926.7
-16704
-12619
-10970.6
-7458.65
-5620.89
-2511.66
-619.429
2212.18
4066.17
6718.37
8459.85
11019.6
12575.1
15130.8
16408.9
19059
19916.5
22748.9
-22837.8
-17956.1
-16738.4
-12651.5
-11006.7
-7494.57
-5658.78
-2550.79
-659.328
2170.18
4023.98
6673.87
8415.08
10972.9
12527.5
15082.2
16358.4
19008.7
19863.4
22698.4
-22871.8
-17985.2
-16772.5
-12683.8
-11042.4
-7530.22
-5696.3
-2589.64
-698.829
2128.46
3982.2
6629.67
8370.73
10926.6
12480.4
15034
16308.4
18958.8
19810.7
22648.3
-22905.5
-18014
-16806.3
-12715.8
-11077.9
-7565.6
-5733.44
-2628.22
-737.926
2087.04
3940.83
6585.79
8326.8
10880.6
12433.7
14986.2
16258.8
18909.3
19758.5
22598.7
-22939
-18042.6
-16839.8
-12747.5
-11112.9
-7600.7
-5770.18
-2666.52
-776.61
2045.91
3899.89
6542.23
8283.31
10835
12387.4
14938.8
16209.7
18860.2
19706.6
22549.5
-22972.1
-18070.8
-16872.9
-12778.9
-11147.6
-7635.52
-5806.52
-2704.52
-814.872
2005.09
3859.38
6499.01
8240.25
10789.7
12341.6
14891.7
16161
18811.6
19655.3
22500.7
-23004.9
-18098.7
-16905.7
-12810
-11181.9
-7670.05
-5842.45
-2742.24
-852.703
1964.58
3819.31
6456.12
8197.65
10744.8
12296.2
14845.1
16112.7
18763.4
19604.3
22452.4
-23037.4
-18126.3
-16938.2
-12840.8
-11215.8
-7704.28
-5877.97
-2779.65
-890.096
1924.39
3779.7
6413.57
8155.5
10700.3
12251.3
14798.9
16064.9
18715.6
19553.8
22404.6
-23069.6
-18153.6
-16970.3
-12871.3
-11249.4
-7738.22
-5913.06
-2816.76
-927.042
1884.52
3740.55
6371.37
8113.81
10656.2
12206.8
14753.1
16017.5
18668.3
19503.8
22357.3
-23101.5
-18180.6
-17002
-12901.5
-11282.5
-7771.85
-5947.71
-2853.55
-963.533
1844.98
3701.86
6329.53
8072.6
10612.4
12162.8
14707.7
15970.7
18621.4
19454.2
22310.4
-23133
-18207.2
-17033.4
-12931.4
-11315.2
-7805.17
-5981.93
-2890.03
-999.56
1805.78
3663.65
6288.05
8031.86
10569
12119.3
14662.7
15924.3
18575
19405.2
22264
-23164.1
-18233.5
-17064.4
-12961
-11347.5
-7838.18
-6015.69
-2926.19
-1035.11
1766.91
3625.92
6246.93
7991.61
10526.1
12076.3
14618.2
15878.4
18529.1
19356.6
22218.2
-23195
-18259.4
-17095.1
-12990.2
-11379.4
-7870.87
-6048.99
-2962.03
-1070.19
1728.39
3588.68
6206.19
7951.86
10483.5
12033.7
14574.1
15832.9
18483.6
19308.5
22172.8
-23225.4
-18285
-17125.3
-13019.1
-11410.8
-7903.23
-6081.82
-2997.53
-1104.78
1690.22
3551.94
6165.84
7912.62
10441.4
11991.7
14530.5
15788
18438.7
19260.9
22128
-23255.5
-18310.2
-17155.1
-13047.7
-11441.8
-7935.27
-6114.18
-3032.69
-1138.86
1652.41
3515.71
6125.86
7873.88
10399.7
11950.2
14487.3
15743.6