/*--------------------------------*- C++ -*----------------------------------*\
  =========                 |
  \\      /  F ield         | OpenFOAM: The Open Source CFD Toolbox
   \\    /   O peration     | Website:  https://openfoam.org
    \\  /    A nd           | Version:  8
     \\/     M anipulation  |
\*---------------------------------------------------------------------------*/
FoamFile
{
    version     2.0;
    format      ascii;
    class       volVectorField;
    location    "1000";
    object      U;
}
// * * * * * * * * * * * * * * * * * * * * * * * * * * * * * * * * * * * * * //

dimensions      [0 1 -1 0 0 0 0];

internalField   nonuniform List<vector> 
8400
(
(-13.7423 -0.0755112 -1.87801e-15)
(-13.7454 -0.0762449 -1.88068e-15)
(-13.7481 -0.077186 -1.88314e-15)
(-13.7509 -0.0782133 -1.88952e-15)
(-13.7537 -0.07929 -1.89344e-15)
(-13.7565 -0.080405 -1.89276e-15)
(-13.7594 -0.0815552 -1.89425e-15)
(-13.7622 -0.0827405 -1.89596e-15)
(-13.7649 -0.0839617 -1.89811e-15)
(-13.7677 -0.0852207 -1.90373e-15)
(-13.7704 -0.0865197 -1.90632e-15)
(-13.773 -0.0878611 -1.90491e-15)
(-13.7756 -0.089248 -1.90589e-15)
(-13.7782 -0.0906835 -1.90721e-15)
(-13.7806 -0.0921713 -1.91056e-15)
(-13.783 -0.0937155 -1.91708e-15)
(-13.7853 -0.0953208 -1.91605e-15)
(-13.7874 -0.0969924 -1.91509e-15)
(-13.7894 -0.098736 -1.91621e-15)
(-13.7912 -0.100558 -1.91762e-15)
(-13.7929 -0.102467 -1.91933e-15)
(-13.7943 -0.10447 -1.92109e-15)
(-13.7954 -0.106577 -1.92291e-15)
(-13.7963 -0.108799 -1.92469e-15)
(-13.7968 -0.111151 -1.92637e-15)
(-13.7969 -0.113653 -1.92836e-15)
(-13.7966 -0.11633 -1.92645e-15)
(-13.7956 -0.119203 -1.92676e-15)
(-13.794 -0.122287 -1.93164e-15)
(-13.7916 -0.125604 -1.93434e-15)
(-13.7882 -0.12918 -1.93681e-15)
(-13.7837 -0.133049 -1.93932e-15)
(-13.778 -0.137247 -1.94027e-15)
(-13.7709 -0.141818 -1.94195e-15)
(-13.7621 -0.146813 -1.94593e-15)
(-13.7513 -0.152293 -1.94969e-15)
(-13.7383 -0.158329 -1.95336e-15)
(-13.7227 -0.165006 -1.95708e-15)
(-13.7041 -0.172428 -1.96091e-15)
(-13.6818 -0.180724 -1.96381e-15)
(-13.6555 -0.190053 -1.96773e-15)
(-13.6243 -0.200618 -1.96958e-15)
(-13.5874 -0.212682 -1.97384e-15)
(-13.5436 -0.226601 -1.98304e-15)
(-13.4916 -0.242876 -1.99067e-15)
(-13.4298 -0.262225 -1.9977e-15)
(-13.3567 -0.285621 -2.00457e-15)
(-13.2685 -0.314402 -2.01447e-15)
(-13.1558 -0.351124 -2.02893e-15)
(-13.0068 -0.4017 -2.04673e-15)
(-15.7303 0.0789161 -1.18245e-15)
(-15.7335 0.0799625 -1.18286e-15)
(-15.7358 0.0809935 -1.18338e-15)
(-15.7382 0.0820366 -1.1872e-15)
(-15.7405 0.083082 -1.18983e-15)
(-15.7427 0.084134 -1.18906e-15)
(-15.745 0.0851969 -1.18842e-15)
(-15.7473 0.0862738 -1.18746e-15)
(-15.7495 0.0873671 -1.18923e-15)
(-15.7518 0.0884783 -1.19411e-15)
(-15.754 0.0896085 -1.19589e-15)
(-15.7561 0.0907585 -1.19392e-15)
(-15.7582 0.0919288 -1.19144e-15)
(-15.7602 0.0931199 -1.18711e-15)
(-15.7622 0.0943318 -1.1908e-15)
(-15.7641 0.0955643 -1.20755e-15)
(-15.7659 0.0968173 -1.20946e-15)
(-15.7676 0.0980901 -1.20659e-15)
(-15.7691 0.0993818 -1.20443e-15)
(-15.7705 0.100691 -1.20243e-15)
(-15.7718 0.102015 -1.20047e-15)
(-15.7728 0.103353 -1.19849e-15)
(-15.7736 0.104702 -1.19646e-15)
(-15.7741 0.106056 -1.19435e-15)
(-15.7744 0.107405 -1.19222e-15)
(-15.7742 0.108735 -1.19049e-15)
(-15.7737 0.110035 -1.18585e-15)
(-15.7727 0.111308 -1.18178e-15)
(-15.7712 0.112549 -1.18041e-15)
(-15.7691 0.113747 -1.17825e-15)
(-15.7663 0.11489 -1.17572e-15)
(-15.7627 0.115963 -1.17299e-15)
(-15.7583 0.116945 -1.16773e-15)
(-15.7528 0.117813 -1.16309e-15)
(-15.746 0.118539 -1.16095e-15)
(-15.7379 0.11909 -1.15791e-15)
(-15.7282 0.119425 -1.15445e-15)
(-15.7165 0.119493 -1.15078e-15)
(-15.7027 0.119233 -1.1446e-15)
(-15.6865 0.118566 -1.13994e-15)
(-15.6673 0.117391 -1.13737e-15)
(-15.6448 0.115574 -1.13027e-15)
(-15.6184 0.112931 -1.12362e-15)
(-15.5875 0.109202 -1.11939e-15)
(-15.5513 0.103975 -1.11169e-15)
(-15.5092 0.0966237 -1.10514e-15)
(-15.4605 0.0863064 -1.09773e-15)
(-15.404 0.0719004 -1.08806e-15)
(-15.3357 0.050805 -1.08071e-15)
(-15.251 0.0159643 -1.07338e-15)
(-16.1251 -0.0664193 -1.51877e-15)
(-16.1234 -0.066828 -1.51999e-15)
(-16.1225 -0.067537 -1.52116e-15)
(-16.1216 -0.0683678 -1.52409e-15)
(-16.1208 -0.069269 -1.52621e-15)
(-16.12 -0.0702198 -1.52595e-15)
(-16.1192 -0.0712118 -1.52603e-15)
(-16.1184 -0.0722421 -1.52634e-15)
(-16.1175 -0.0733099 -1.52681e-15)
(-16.1166 -0.074416 -1.52894e-15)
(-16.1157 -0.0755622 -1.53019e-15)
(-16.1147 -0.0767509 -1.52901e-15)
(-16.1137 -0.0779854 -1.5279e-15)
(-16.1126 -0.0792693 -1.52649e-15)
(-16.1114 -0.0806072 -1.52507e-15)
(-16.1102 -0.0820044 -1.5264e-15)
(-16.1088 -0.0834667 -1.52704e-15)
(-16.1074 -0.0850011 -1.52607e-15)
(-16.1058 -0.0866154 -1.52511e-15)
(-16.1041 -0.0883188 -1.52423e-15)
(-16.1022 -0.0901222 -1.52338e-15)
(-16.1001 -0.0920382 -1.5225e-15)
(-16.0978 -0.0940805 -1.52153e-15)
(-16.0952 -0.0962701 -1.52055e-15)
(-16.0923 -0.0986228 -1.51956e-15)
(-16.0891 -0.101158 -1.51867e-15)
(-16.0854 -0.103903 -1.51586e-15)
(-16.0813 -0.106892 -1.51368e-15)
(-16.0766 -0.110161 -1.51396e-15)
(-16.0713 -0.113748 -1.51401e-15)
(-16.0653 -0.117696 -1.514e-15)
(-16.0585 -0.122056 -1.51417e-15)
(-16.0507 -0.126886 -1.51258e-15)
(-16.0418 -0.132253 -1.51177e-15)
(-16.0316 -0.138236 -1.51369e-15)
(-16.0199 -0.144923 -1.5157e-15)
(-16.0066 -0.152418 -1.51804e-15)
(-15.9912 -0.160842 -1.52089e-15)
(-15.9736 -0.170336 -1.5244e-15)
(-15.9532 -0.181066 -1.5278e-15)
(-15.9299 -0.193227 -1.53289e-15)
(-15.9029 -0.207054 -1.53859e-15)
(-15.8719 -0.222826 -1.54606e-15)
(-15.8361 -0.240892 -1.55765e-15)
(-15.7948 -0.261711 -1.57094e-15)
(-15.7473 -0.285877 -1.58572e-15)
(-15.6929 -0.314072 -1.60201e-15)
(-15.6306 -0.347043 -1.62349e-15)
(-15.5587 -0.38626 -1.65355e-15)
(-15.4755 -0.435445 -1.68924e-15)
(-16.5747 0.0696526 2.10421e-16)
(-16.5759 0.07029 2.11013e-16)
(-16.5759 0.0710375 2.11607e-16)
(-16.5757 0.0718148 2.10491e-16)
(-16.5754 0.0725887 2.09937e-16)
(-16.5751 0.0733523 2.11568e-16)
(-16.5748 0.0741045 2.12861e-16)
(-16.5744 0.0748454 2.13884e-16)
(-16.574 0.0755748 2.14728e-16)
(-16.5736 0.0762916 2.14038e-16)
(-16.5732 0.0769941 2.14132e-16)
(-16.5728 0.0776798 2.16452e-16)
(-16.5723 0.0783455 2.18631e-16)
(-16.5718 0.078987 2.20329e-16)
(-16.5712 0.0795994 2.21265e-16)
(-16.5706 0.0801767 2.21534e-16)
(-16.5699 0.080712 2.22233e-16)
(-16.5691 0.0811971 2.24735e-16)
(-16.5682 0.0816225 2.27206e-16)
(-16.5672 0.0819762 2.29486e-16)
(-16.5661 0.0822437 2.31654e-16)
(-16.5648 0.0824115 2.3375e-16)
(-16.5633 0.0824601 2.35795e-16)
(-16.5617 0.0823756 2.37841e-16)
(-16.5598 0.0821373 2.39889e-16)
(-16.5578 0.0817215 2.41835e-16)
(-16.5554 0.0811011 2.45598e-16)
(-16.5527 0.0802431 2.48901e-16)
(-16.5496 0.0791077 2.49982e-16)
(-16.5461 0.0776494 2.51349e-16)
(-16.5421 0.0758153 2.52935e-16)
(-16.5374 0.0735441 2.54532e-16)
(-16.5321 0.070764 2.58009e-16)
(-16.526 0.0673915 2.61017e-16)
(-16.519 0.063329 2.61742e-16)
(-16.511 0.0584621 2.62679e-16)
(-16.5017 0.0526562 2.63708e-16)
(-16.491 0.0457528 2.64549e-16)
(-16.4787 0.0375641 2.67018e-16)
(-16.4645 0.0278661 2.67843e-16)
(-16.4481 0.0163904 2.66398e-16)
(-16.4293 0.00281369 2.67943e-16)
(-16.4076 -0.0132565 2.6866e-16)
(-16.3828 -0.0323043 2.66374e-16)
(-16.3542 -0.0549369 2.65403e-16)
(-16.3217 -0.0819024 2.62079e-16)
(-16.2848 -0.114066 2.5775e-16)
(-16.2431 -0.152424 2.53462e-16)
(-16.1959 -0.198373 2.45141e-16)
(-16.143 -0.254067 2.35584e-16)
(-16.4263 -0.0554863 5.91848e-16)
(-16.4231 -0.0559033 5.93239e-16)
(-16.4217 -0.0564391 5.94597e-16)
(-16.4205 -0.0570324 5.94166e-16)
(-16.4194 -0.057662 5.94225e-16)
(-16.4183 -0.0583208 5.96446e-16)
(-16.4172 -0.0590061 5.98291e-16)
(-16.416 -0.0597167 5.99786e-16)
(-16.4149 -0.0604527 6.01111e-16)
(-16.4137 -0.0612146 6.00628e-16)
(-16.4125 -0.0620039 6.00657e-16)
(-16.4112 -0.0628225 6.02975e-16)
(-16.4099 -0.0636729 6.05165e-16)
(-16.4086 -0.0645585 6.07292e-16)
(-16.4072 -0.0654834 6.09466e-16)
(-16.4058 -0.0664526 6.09531e-16)
(-16.4042 -0.0674719 6.09782e-16)
(-16.4027 -0.0685482 6.12462e-16)
(-16.401 -0.0696908 6.14713e-16)
(-16.3992 -0.0709101 6.16747e-16)
(-16.3972 -0.072216 6.18665e-16)
(-16.3952 -0.0736253 6.20541e-16)
(-16.3929 -0.0751565 6.22435e-16)
(-16.3905 -0.0768314 6.24372e-16)
(-16.3878 -0.0786757 6.26381e-16)
(-16.3849 -0.0807175 6.28372e-16)
(-16.3816 -0.0829892 6.323e-16)
(-16.378 -0.0855282 6.35868e-16)
(-16.374 -0.0883778 6.37323e-16)
(-16.3695 -0.091588 6.3923e-16)
(-16.3644 -0.0952165 6.41534e-16)
(-16.3588 -0.09933 6.44052e-16)
(-16.3523 -0.104006 6.48675e-16)
(-16.3451 -0.109335 6.53121e-16)
(-16.3369 -0.115421 6.55606e-16)
(-16.3275 -0.122386 6.58677e-16)
(-16.3169 -0.13037 6.62291e-16)
(-16.3048 -0.139539 6.66401e-16)
(-16.2909 -0.150085 6.7109e-16)
(-16.2752 -0.162234 6.77321e-16)
(-16.2572 -0.176255 6.83487e-16)
(-16.2366 -0.192463 6.90968e-16)
(-16.2131 -0.211238 6.99043e-16)
(-16.1864 -0.23304 7.0568e-16)
(-16.1561 -0.258434 7.13793e-16)
(-16.1217 -0.288104 7.24229e-16)
(-16.0831 -0.32286 7.3773e-16)
(-16.0399 -0.363688 7.51766e-16)
(-15.9916 -0.411908 7.63915e-16)
(-15.9377 -0.469268 7.78964e-16)
(-16.5737 0.0536525 7.42449e-17)
(-16.5752 0.0539954 7.45312e-17)
(-16.5751 0.0544147 7.485e-17)
(-16.5747 0.0548454 7.33737e-17)
(-16.5742 0.0552616 7.23809e-17)
(-16.5736 0.055654 7.36108e-17)
(-16.573 0.056018 7.45125e-17)
(-16.5724 0.0563505 7.51141e-17)
(-16.5718 0.0566482 7.56262e-17)
(-16.5711 0.0569073 7.42328e-17)
(-16.5705 0.0571232 7.32806e-17)
(-16.5698 0.0572905 7.45963e-17)
(-16.5691 0.0574027 7.57817e-17)
(-16.5684 0.0574522 7.68226e-17)
(-16.5676 0.0574302 7.80188e-17)
(-16.5668 0.057326 7.70717e-17)
(-16.5659 0.0571279 7.6696e-17)
(-16.565 0.0568232 7.83898e-17)
(-16.5639 0.0563978 7.97423e-17)
(-16.5629 0.0558362 8.08831e-17)
(-16.5617 0.0551192 8.1881e-17)
(-16.5604 0.0542262 8.28176e-17)
(-16.559 0.0531338 8.37089e-17)
(-16.5574 0.0518148 8.45972e-17)
(-16.5557 0.0502368 8.54777e-17)
(-16.5538 0.0483625 8.62728e-17)
(-16.5517 0.046149 8.88746e-17)
(-16.5493 0.0435466 9.09886e-17)
(-16.5466 0.0404985 9.08855e-17)
(-16.5436 0.0369392 9.11371e-17)
(-16.5401 0.0327937 9.16364e-17)
(-16.5362 0.0279758 9.22116e-17)
(-16.5318 0.0223866 9.47316e-17)
(-16.5267 0.015912 9.68874e-17)
(-16.521 0.0084212 9.68331e-17)
(-16.5143 -0.00023617 9.71095e-17)
(-16.5068 -0.010233 9.76079e-17)
(-16.4981 -0.0217676 9.811e-17)
(-16.4882 -0.035068 1.00465e-16)
(-16.4768 -0.0503956 1.01373e-16)
(-16.4637 -0.0680499 1.00275e-16)
(-16.4488 -0.0883735 1.02606e-16)
(-16.4318 -0.111758 1.04479e-16)
(-16.4125 -0.138651 1.03781e-16)
(-16.3906 -0.169562 1.04966e-16)
(-16.3659 -0.205058 1.04256e-16)
(-16.3384 -0.245756 1.03383e-16)
(-16.3081 -0.292326 1.03694e-16)
(-16.2751 -0.345537 1.0125e-16)
(-16.2391 -0.406305 9.68918e-17)
(-16.4901 -0.0402859 9.30105e-17)
(-16.4866 -0.0405387 9.32124e-17)
(-16.4852 -0.0408435 9.34425e-17)
(-16.4841 -0.041174 9.18497e-17)
(-16.4832 -0.041522 9.06028e-17)
(-16.4822 -0.0418856 9.15579e-17)
(-16.4813 -0.0422646 9.2228e-17)
(-16.4803 -0.0426596 9.26532e-17)
(-16.4793 -0.0430712 9.2966e-17)
(-16.4784 -0.0435008 9.11846e-17)
(-16.4773 -0.0439502 8.96761e-17)
(-16.4763 -0.0444218 9.0419e-17)
(-16.4753 -0.0449185 9.1062e-17)
(-16.4742 -0.0454442 9.15482e-17)
(-16.4731 -0.0460049 9.19026e-17)
(-16.4719 -0.0466061 9.05883e-17)
(-16.4707 -0.0472554 8.96167e-17)
(-16.4694 -0.0479638 9.08192e-17)
(-16.4681 -0.0487432 9.17336e-17)
(-16.4667 -0.0496079 9.24072e-17)
(-16.4653 -0.0505747 9.29583e-17)
(-16.4637 -0.0516633 9.34338e-17)
(-16.462 -0.0528962 9.38911e-17)
(-16.4602 -0.0542994 9.43476e-17)
(-16.4582 -0.0559037 9.48328e-17)
(-16.4561 -0.0577444 9.52553e-17)
(-16.4537 -0.0598633 9.75474e-17)
(-16.4511 -0.0623089 9.9396e-17)
(-16.4483 -0.0651378 9.90867e-17)
(-16.4451 -0.0684157 9.92154e-17)
(-16.4416 -0.0722195 9.97077e-17)
(-16.4376 -0.0766382 1.00399e-16)
(-16.4332 -0.0817753 1.0322e-16)
(-16.4282 -0.0877513 1.05826e-16)
(-16.4226 -0.0947057 1.06413e-16)
(-16.4162 -0.1028 1.076e-16)
(-16.409 -0.112223 1.09331e-16)
(-16.4008 -0.12319 1.11533e-16)
(-16.3914 -0.135952 1.14297e-16)
(-16.3808 -0.150799 1.17701e-16)
(-16.3687 -0.168061 1.22386e-16)
(-16.3549 -0.188122 1.29115e-16)
(-16.3393 -0.211414 1.35138e-16)
(-16.3215 -0.238434 1.4079e-16)
(-16.3014 -0.269736 1.47583e-16)
(-16.2788 -0.305935 1.54656e-16)
(-16.2534 -0.347687 1.65538e-16)
(-16.2254 -0.395676 1.78481e-16)
(-16.1945 -0.450599 1.90781e-16)
(-16.1604 -0.513188 2.05604e-16)
(-16.5473 0.0341416 -1.85179e-16)
(-16.549 0.0342831 -1.8522e-16)
(-16.5489 0.0344413 -1.85158e-16)
(-16.5485 0.034587 -1.87019e-16)
(-16.5479 0.0347076 -1.88529e-16)
(-16.5472 0.0347973 -1.87777e-16)
(-16.5466 0.0348517 -1.8726e-16)
(-16.5459 0.034867 -1.86952e-16)
(-16.5452 0.0348387 -1.86767e-16)
(-16.5445 0.0347621 -1.88631e-16)
(-16.5438 0.0346314 -1.90358e-16)
(-16.5431 0.0344405 -1.89794e-16)
(-16.5424 0.0341818 -1.89501e-16)
(-16.5416 0.0338467 -1.89818e-16)
(-16.5408 0.0334265 -1.89927e-16)
(-16.54 0.0329102 -1.91829e-16)
(-16.5391 0.0322855 -1.93373e-16)
(-16.5382 0.0315387 -1.92756e-16)
(-16.5373 0.030654 -1.92583e-16)
(-16.5363 0.029613 -1.92731e-16)
(-16.5352 0.0283943 -1.93121e-16)
(-16.5341 0.0269733 -1.93694e-16)
(-16.5329 0.0253219 -1.94424e-16)
(-16.5316 0.0234075 -1.95291e-16)
(-16.5302 0.021193 -1.96292e-16)
(-16.5287 0.0186357 -1.97529e-16)
(-16.527 0.0156865 -1.97093e-16)
(-16.5252 0.0122892 -1.97313e-16)
(-16.5232 0.0083792 -1.9993e-16)
(-16.5209 0.00388256 -2.02402e-16)
(-16.5185 -0.00128559 -2.04821e-16)
(-16.5157 -0.00722259 -2.07413e-16)
(-16.5126 -0.01404 -2.0831e-16)
(-16.509 -0.0218658 -2.09918e-16)
(-16.5051 -0.0308465 -2.14069e-16)
(-16.5006 -0.0411498 -2.18258e-16)
(-16.4955 -0.0529675 -2.2264e-16)
(-16.4898 -0.0665182 -2.27395e-16)
(-16.4832 -0.0820512 -2.32752e-16)
(-16.4758 -0.0998491 -2.35947e-16)
(-16.4673 -0.120232 -2.42004e-16)
(-16.4577 -0.143558 -2.50188e-16)
(-16.4468 -0.170229 -2.56128e-16)
(-16.4345 -0.200689 -2.6701e-16)
(-16.4206 -0.235421 -2.80846e-16)
(-16.4051 -0.274945 -2.94092e-16)
(-16.3879 -0.319793 -3.08046e-16)
(-16.3689 -0.370487 -3.23856e-16)
(-16.3482 -0.427514 -3.46216e-16)
(-16.3256 -0.491347 -3.73986e-16)
(-16.5132 -0.0228138 3.71297e-16)
(-16.5095 -0.0229128 3.73085e-16)
(-16.5082 -0.0230283 3.74968e-16)
(-16.5073 -0.0231584 3.74815e-16)
(-16.5064 -0.0233035 3.75008e-16)
(-16.5056 -0.0234644 3.7757e-16)
(-16.5048 -0.0236424 3.79909e-16)
(-16.504 -0.0238391 3.82063e-16)
(-16.5032 -0.0240567 3.84188e-16)
(-16.5024 -0.0242977 3.84387e-16)
(-16.5015 -0.0245653 3.84765e-16)
(-16.5007 -0.0248638 3.87361e-16)
(-16.4999 -0.0251987 3.89586e-16)
(-16.499 -0.0255762 3.91511e-16)
(-16.4981 -0.0260038 3.93598e-16)
(-16.4972 -0.0264908 3.93745e-16)
(-16.4963 -0.027048 3.94292e-16)
(-16.4954 -0.0276878 3.97015e-16)
(-16.4945 -0.0284248 3.99356e-16)
(-16.4935 -0.029276 4.01413e-16)
(-16.4925 -0.0302611 4.03283e-16)
(-16.4914 -0.0314032 4.05022e-16)
(-16.4903 -0.0327292 4.06679e-16)
(-16.4892 -0.0342703 4.08269e-16)
(-16.4879 -0.0360629 4.09823e-16)
(-16.4866 -0.0381496 4.11237e-16)
(-16.4852 -0.0405795 4.14467e-16)
(-16.4838 -0.0434101 4.1715e-16)
(-16.4822 -0.046708 4.17578e-16)
(-16.4804 -0.0505504 4.18366e-16)
(-16.4785 -0.0550271 4.19433e-16)
(-16.4764 -0.0602418 4.20594e-16)
(-16.4741 -0.0663147 4.23782e-16)
(-16.4715 -0.0733846 4.26616e-16)
(-16.4687 -0.0816117 4.27315e-16)
(-16.4654 -0.0911805 4.28522e-16)
(-16.4618 -0.102303 4.30141e-16)
(-16.4577 -0.115221 4.3199e-16)
(-16.4531 -0.130211 4.35994e-16)
(-16.4479 -0.147589 4.38984e-16)
(-16.4419 -0.167706 4.40422e-16)
(-16.4352 -0.190961 4.45731e-16)
(-16.4275 -0.217793 4.51407e-16)
(-16.4187 -0.24868 4.55493e-16)
(-16.4088 -0.284141 4.62554e-16)
(-16.3976 -0.324718 4.69034e-16)
(-16.385 -0.37096 4.76813e-16)
(-16.371 -0.423388 4.87881e-16)
(-16.3554 -0.482468 4.98903e-16)
(-16.3381 -0.548641 5.13747e-16)
(-16.5217 0.0134129 1.28563e-16)
(-16.5235 0.0134156 1.29785e-16)
(-16.5234 0.0133978 1.31109e-16)
(-16.5229 0.0133563 1.30494e-16)
(-16.5223 0.0132897 1.30258e-16)
(-16.5217 0.0131957 1.32454e-16)
(-16.521 0.0130719 1.34435e-16)
(-16.5203 0.0129156 1.36249e-16)
(-16.5196 0.0127231 1.38158e-16)
(-16.5189 0.0124905 1.3817e-16)
(-16.5182 0.0122129 1.38525e-16)
(-16.5175 0.0118849 1.4101e-16)
(-16.5168 0.0114999 1.43134e-16)
(-16.516 0.0110507 1.45055e-16)
(-16.5153 0.0105285 1.46974e-16)
(-16.5146 0.00992301 1.46916e-16)
(-16.5138 0.00922244 1.47307e-16)
(-16.513 0.00841292 1.49825e-16)
(-16.5122 0.00747844 1.51916e-16)
(-16.5114 0.00640042 1.53686e-16)
(-16.5106 0.00515734 1.55219e-16)
(-16.5097 0.00372431 1.56574e-16)
(-16.5088 0.00207259 1.5776e-16)
(-16.5079 0.000168976 1.58816e-16)
(-16.507 -0.0020249 1.59711e-16)
(-16.506 -0.00455334 1.60377e-16)
(-16.505 -0.00746748 1.62696e-16)
(-16.5039 -0.0108263 1.64349e-16)
(-16.5028 -0.0146981 1.63541e-16)
(-16.5016 -0.0191612 1.62918e-16)
(-16.5003 -0.0243062 1.62307e-16)
(-16.4989 -0.0302376 1.61542e-16)
(-16.4975 -0.0370756 1.62454e-16)
(-16.4959 -0.0449584 1.62673e-16)
(-16.4942 -0.0540448 1.60307e-16)
(-16.4923 -0.0645173 1.57966e-16)
(-16.4903 -0.0765844 1.55453e-16)
(-16.4881 -0.0904845 1.52596e-16)
(-16.4856 -0.106489 1.49352e-16)
(-16.4828 -0.124904 1.46601e-16)
(-16.4797 -0.146075 1.42434e-16)
(-16.4762 -0.170387 1.38115e-16)
(-16.4723 -0.198266 1.32648e-16)
(-16.4678 -0.230174 1.23483e-16)
(-16.4626 -0.266604 1.13253e-16)
(-16.4567 -0.30807 1.02196e-16)
(-16.45 -0.355082 9.04081e-17)
(-16.4423 -0.408108 7.45138e-17)
(-16.4335 -0.467543 5.05521e-17)
(-16.4231 -0.533724 2.16421e-17)
(-16.5257 -0.00486827 4.67541e-16)
(-16.5222 -0.00484272 4.70065e-16)
(-16.521 -0.00482032 4.72611e-16)
(-16.5201 -0.00481347 4.73248e-16)
(-16.5194 -0.0048272 4.74391e-16)
(-16.5187 -0.00486432 4.77916e-16)
(-16.518 -0.0049274 4.81291e-16)
(-16.5173 -0.00501936 4.84562e-16)
(-16.5166 -0.00514375 4.87906e-16)
(-16.516 -0.00530482 4.89304e-16)
(-16.5153 -0.00550761 4.91163e-16)
(-16.5146 -0.00575808 4.9534e-16)
(-16.5139 -0.00606315 4.99211e-16)
(-16.5133 -0.00643083 5.02941e-16)
(-16.5126 -0.00687039 5.06649e-16)
(-16.512 -0.00739258 5.0844e-16)
(-16.5113 -0.00800979 5.10917e-16)
(-16.5107 -0.00873634 5.15769e-16)
(-16.5101 -0.00958875 5.20174e-16)
(-16.5095 -0.0105861 5.24385e-16)
(-16.5089 -0.0117503 5.28507e-16)
(-16.5083 -0.0131069 5.32579e-16)
(-16.5078 -0.0146851 5.3668e-16)
(-16.5073 -0.0165188 5.4079e-16)
(-16.5068 -0.018647 5.44991e-16)
(-16.5063 -0.0211148 5.49129e-16)
(-16.5058 -0.0239743 5.55244e-16)
(-16.5054 -0.0272854 5.60898e-16)
(-16.505 -0.0311176 5.64483e-16)
(-16.5047 -0.0355509 5.68551e-16)
(-16.5044 -0.0406776 5.73144e-16)
(-16.5042 -0.0466043 5.77997e-16)
(-16.504 -0.0534537 5.85182e-16)
(-16.5039 -0.0613675 5.9227e-16)
(-16.5039 -0.0705086 5.97662e-16)
(-16.5039 -0.0810646 6.03953e-16)
(-16.5041 -0.0932505 6.11235e-16)
(-16.5043 -0.107313 6.1933e-16)
(-16.5046 -0.123533 6.30443e-16)
(-16.505 -0.142231 6.41353e-16)
(-16.5055 -0.163768 6.51691e-16)
(-16.506 -0.18855 6.67414e-16)
(-16.5067 -0.217029 6.85111e-16)
(-16.5073 -0.249696 7.02985e-16)
(-16.508 -0.287085 7.26383e-16)
(-16.5085 -0.329754 7.52215e-16)
(-16.5089 -0.378269 7.8331e-16)
(-16.509 -0.433165 8.2257e-16)
(-16.5086 -0.494914 8.67536e-16)
(-16.5074 -0.563926 9.20772e-16)
(-16.4908 -0.00695206 -4.34612e-16)
(-16.4925 -0.00706822 -4.3561e-16)
(-16.4923 -0.00722746 -4.36466e-16)
(-16.4918 -0.00741383 -4.39205e-16)
(-16.4912 -0.00762018 -4.41448e-16)
(-16.4905 -0.00784497 -4.41277e-16)
(-16.4898 -0.00808867 -4.41325e-16)
(-16.4892 -0.00835283 -4.41513e-16)
(-16.4885 -0.00863972 -4.41656e-16)
(-16.4878 -0.0089523 -4.43668e-16)
(-16.4871 -0.0092942 -4.45129e-16)
(-16.4865 -0.00966983 -4.44313e-16)
(-16.4858 -0.0100844 -4.43799e-16)
(-16.4851 -0.0105443 -4.43483e-16)
(-16.4845 -0.0110568 -4.43154e-16)
(-16.4838 -0.0116307 -4.44753e-16)
(-16.4832 -0.0122764 -4.45864e-16)
(-16.4826 -0.0130059 -4.44758e-16)
(-16.482 -0.0138336 -4.44059e-16)
(-16.4814 -0.0147761 -4.43658e-16)
(-16.4809 -0.015853 -4.43504e-16)
(-16.4803 -0.0170871 -4.43529e-16)
(-16.4798 -0.018505 -4.43777e-16)
(-16.4794 -0.0201379 -4.44196e-16)
(-16.479 -0.022022 -4.44897e-16)
(-16.4786 -0.0241998 -4.45923e-16)
(-16.4783 -0.0267205 -4.45488e-16)
(-16.4781 -0.0296414 -4.45895e-16)
(-16.478 -0.0330293 -4.49088e-16)
(-16.478 -0.0369618 -4.52354e-16)
(-16.478 -0.0415289 -4.56059e-16)
(-16.4782 -0.0468354 -4.60332e-16)
(-16.4786 -0.0530024 -4.6352e-16)
(-16.4791 -0.0601703 -4.68031e-16)
(-16.4798 -0.0685018 -4.75966e-16)
(-16.4808 -0.0781842 -4.84685e-16)
(-16.482 -0.0894337 -4.94658e-16)
(-16.4834 -0.102499 -5.06126e-16)
(-16.4852 -0.117663 -5.19447e-16)
(-16.4873 -0.135251 -5.33861e-16)
(-16.4898 -0.15563 -5.51651e-16)
(-16.4927 -0.179214 -5.71795e-16)
(-16.4959 -0.206462 -5.95794e-16)
(-16.4996 -0.237881 -6.26583e-16)
(-16.5035 -0.274017 -6.62145e-16)
(-16.5076 -0.315446 -7.02979e-16)
(-16.5118 -0.362755 -7.49842e-16)
(-16.5158 -0.416507 -8.07229e-16)
(-16.5191 -0.47719 -8.80098e-16)
(-16.5214 -0.545193 -9.67712e-16)
(-16.5365 0.0122542 1.10411e-15)
(-16.5333 0.0124059 1.10719e-15)
(-16.5322 0.0125702 1.11026e-15)
(-16.5315 0.0127225 1.11148e-15)
(-16.5309 0.0128527 1.11331e-15)
(-16.5303 0.0129566 1.11756e-15)
(-16.5297 0.0130307 1.12161e-15)
(-16.5291 0.0130713 1.12554e-15)
(-16.5286 0.0130741 1.12959e-15)
(-16.528 0.0130341 1.13185e-15)
(-16.5275 0.0129455 1.13477e-15)
(-16.527 0.0128015 1.14005e-15)
(-16.5265 0.0125946 1.14513e-15)
(-16.526 0.0123161 1.15015e-15)
(-16.5255 0.011956 1.15531e-15)
(-16.5251 0.0115029 1.15875e-15)
(-16.5247 0.0109438 1.16285e-15)
(-16.5244 0.0102639 1.16943e-15)
(-16.524 0.00944591 1.17586e-15)
(-16.5238 0.00847048 1.18228e-15)
(-16.5236 0.00731517 1.18883e-15)
(-16.5235 0.00595433 1.19554e-15)
(-16.5234 0.00435855 1.2025e-15)
(-16.5235 0.00249409 1.20971e-15)
(-16.5236 0.000322249 1.21727e-15)
(-16.5239 -0.00220141 1.22499e-15)
(-16.5243 -0.0051279 1.23501e-15)
(-16.5249 -0.00851586 1.24482e-15)
(-16.5257 -0.0124327 1.25285e-15)
(-16.5267 -0.0169557 1.26167e-15)
(-16.528 -0.0221742 1.27137e-15)
(-16.5296 -0.0281906 1.28164e-15)
(-16.5315 -0.035123 1.29467e-15)
(-16.5338 -0.0431071 1.30798e-15)
(-16.5365 -0.0522995 1.32003e-15)
(-16.5398 -0.0628803 1.33348e-15)
(-16.5436 -0.0750571 1.34849e-15)
(-16.5482 -0.0890685 1.3649e-15)
(-16.5534 -0.105189 1.38505e-15)
(-16.5595 -0.123735 1.40579e-15)
(-16.5666 -0.145066 1.42698e-15)
(-16.5747 -0.169595 1.45465e-15)
(-16.584 -0.197792 1.48572e-15)
(-16.5944 -0.230185 1.51866e-15)
(-16.6062 -0.267361 1.55928e-15)
(-16.6192 -0.309965 1.60492e-15)
(-16.6334 -0.358684 1.6591e-15)
(-16.6486 -0.414231 1.72536e-15)
(-16.6646 -0.477286 1.80201e-15)
(-16.681 -0.548424 1.89524e-15)
(-16.4411 -0.0256627 -5.47147e-16)
(-16.4425 -0.0259294 -5.49949e-16)
(-16.4422 -0.0262684 -5.52685e-16)
(-16.4416 -0.0266424 -5.57252e-16)
(-16.441 -0.0270346 -5.61194e-16)
(-16.4403 -0.0274405 -5.62689e-16)
(-16.4395 -0.0278594 -5.64505e-16)
(-16.4388 -0.0282922 -5.66423e-16)
(-16.4381 -0.0287409 -5.68312e-16)
(-16.4374 -0.0292078 -5.7197e-16)
(-16.4368 -0.0296961 -5.75022e-16)
(-16.4361 -0.0302093 -5.75733e-16)
(-16.4355 -0.0307516 -5.76716e-16)
(-16.4349 -0.0313282 -5.77849e-16)
(-16.4343 -0.0319451 -5.78901e-16)
(-16.4337 -0.0326094 -5.8182e-16)
(-16.4332 -0.0333294 -5.84087e-16)
(-16.4328 -0.0341152 -5.84042e-16)
(-16.4323 -0.0349784 -5.84359e-16)
(-16.432 -0.0359329 -5.84913e-16)
(-16.4317 -0.0369948 -5.85598e-16)
(-16.4315 -0.0381832 -5.86405e-16)
(-16.4314 -0.0395205 -5.87324e-16)
(-16.4314 -0.0410329 -5.88364e-16)
(-16.4315 -0.042751 -5.89598e-16)
(-16.4318 -0.0447109 -5.91133e-16)
(-16.4322 -0.0469546 -5.9109e-16)
(-16.4328 -0.0495314 -5.91917e-16)
(-16.4336 -0.0524987 -5.95549e-16)
(-16.4347 -0.0559239 -5.99287e-16)
(-16.4361 -0.0598855 -6.03499e-16)
(-16.4378 -0.0644754 -6.08433e-16)
(-16.4399 -0.069801 -6.12435e-16)
(-16.4425 -0.0759877 -6.18065e-16)
(-16.4455 -0.0831821 -6.27398e-16)
(-16.4491 -0.0915556 -6.37871e-16)
(-16.4534 -0.101308 -6.50091e-16)
(-16.4585 -0.112675 -6.64451e-16)
(-16.4644 -0.125929 -6.81461e-16)
(-16.4712 -0.141389 -7.00539e-16)
(-16.4791 -0.159429 -7.24225e-16)
(-16.4882 -0.180482 -7.51658e-16)
(-16.4986 -0.205051 -7.84804e-16)
(-16.5104 -0.233716 -8.26785e-16)
(-16.5235 -0.267138 -8.76173e-16)
(-16.538 -0.306051 -9.33939e-16)
(-16.5536 -0.351263 -1.00166e-15)
(-16.5702 -0.403642 -1.08485e-15)
(-16.587 -0.464065 -1.19008e-15)
(-16.6031 -0.533256 -1.31774e-15)
(-16.5519 0.0271838 1.81432e-15)
(-16.5493 0.0274833 1.81942e-15)
(-16.5486 0.0278329 1.8245e-15)
(-16.548 0.0281913 1.82765e-15)
(-16.5476 0.0285418 1.83146e-15)
(-16.5472 0.0288777 1.83763e-15)
(-16.5468 0.0291944 1.84357e-15)
(-16.5464 0.0294879 1.84939e-15)
(-16.5461 0.029754 1.85535e-15)
(-16.5457 0.0299878 1.8596e-15)
(-16.5454 0.0301841 1.86462e-15)
(-16.5451 0.0303369 1.87212e-15)
(-16.5449 0.0304396 1.87945e-15)
(-16.5446 0.0304844 1.88686e-15)
(-16.5444 0.0304627 1.89448e-15)
(-16.5443 0.0303646 1.90046e-15)
(-16.5442 0.0301786 1.90724e-15)
(-16.5442 0.0298917 1.9167e-15)
(-16.5442 0.029489 1.92602e-15)
(-16.5444 0.0289533 1.93549e-15)
(-16.5446 0.0282649 1.94514e-15)
(-16.545 0.0274011 1.95515e-15)
(-16.5455 0.0263358 1.96553e-15)
(-16.5461 0.0250392 1.97637e-15)
(-16.547 0.0234767 1.98772e-15)
(-16.548 0.0216087 1.99953e-15)
(-16.5493 0.0193894 2.01385e-15)
(-16.5509 0.0167661 2.02828e-15)
(-16.5528 0.0136781 2.04118e-15)
(-16.5551 0.0100551 2.05527e-15)
(-16.5579 0.00581617 2.0706e-15)
(-16.5611 0.00086765 2.08703e-15)
(-16.565 -0.00489876 2.10682e-15)
(-16.5696 -0.0116084 2.12766e-15)
(-16.575 -0.0194066 2.14802e-15)
(-16.5813 -0.0284617 2.1709e-15)
(-16.5886 -0.0389693 2.19656e-15)
(-16.5972 -0.0511569 2.22511e-15)
(-16.6073 -0.0652891 2.25911e-15)
(-16.6189 -0.0816743 2.29566e-15)
(-16.6324 -0.100672 2.33493e-15)
(-16.648 -0.122703 2.38333e-15)
(-16.666 -0.148257 2.43824e-15)
(-16.6866 -0.177911 2.49851e-15)
(-16.7101 -0.212333 2.571e-15)
(-16.7366 -0.252286 2.65368e-15)
(-16.7663 -0.298637 2.75131e-15)
(-16.7992 -0.352411 2.86856e-15)
(-16.8349 -0.414795 3.00574e-15)
(-16.8726 -0.486928 3.1704e-15)
(-16.3226 -0.0409682 -1.82326e-15)
(-16.3234 -0.0414634 -1.83393e-15)
(-16.3229 -0.0420507 -1.84492e-15)
(-16.3222 -0.0426806 -1.85806e-15)
(-16.3213 -0.0433294 -1.87095e-15)
(-16.3205 -0.0439927 -1.88178e-15)
(-16.3196 -0.0446711 -1.8933e-15)
(-16.3188 -0.0453669 -1.90536e-15)
(-16.318 -0.0460828 -1.91772e-15)
(-16.3172 -0.0468219 -1.93232e-15)
(-16.3164 -0.0475874 -1.94653e-15)
(-16.3157 -0.0483829 -1.95874e-15)
(-16.3149 -0.0492127 -1.97142e-15)
(-16.3143 -0.0500816 -1.98453e-15)
(-16.3136 -0.0509949 -1.99763e-15)
(-16.3131 -0.0519591 -2.0128e-15)
(-16.3126 -0.0529814 -2.02728e-15)
(-16.3121 -0.0540706 -2.03939e-15)
(-16.3118 -0.0552366 -2.05171e-15)
(-16.3115 -0.0564909 -2.06418e-15)
(-16.3113 -0.0578472 -2.07658e-15)
(-16.3113 -0.0593209 -2.08892e-15)
(-16.3114 -0.0609305 -2.10111e-15)
(-16.3117 -0.0626972 -2.11317e-15)
(-16.3122 -0.0646454 -2.12505e-15)
(-16.3129 -0.066804 -2.1369e-15)
(-16.3139 -0.0692062 -2.14668e-15)
(-16.3152 -0.0718906 -2.15699e-15)
(-16.3168 -0.0749023 -2.16977e-15)
(-16.3188 -0.0782935 -2.1824e-15)
(-16.3213 -0.0821251 -2.1953e-15)
(-16.3243 -0.0864681 -2.20892e-15)
(-16.328 -0.0914052 -2.22158e-15)
(-16.3323 -0.0970331 -2.23612e-15)
(-16.3374 -0.103465 -2.25486e-15)
(-16.3435 -0.110834 -2.27536e-15)
(-16.3507 -0.119297 -2.29835e-15)
(-16.3591 -0.129039 -2.32432e-15)
(-16.3689 -0.140281 -2.35392e-15)
(-16.3802 -0.153288 -2.38688e-15)
(-16.3935 -0.168379 -2.42561e-15)
(-16.4087 -0.185941 -2.46962e-15)
(-16.4263 -0.206451 -2.52113e-15)
(-16.4463 -0.2305 -2.58385e-15)
(-16.4691 -0.258827 -2.65651e-15)
(-16.4947 -0.292339 -2.74118e-15)
(-16.5233 -0.332142 -2.84006e-15)
(-16.5547 -0.379672 -2.95996e-15)
(-16.5883 -0.436835 -3.10837e-15)
(-16.6225 -0.505678 -3.28749e-15)
(-16.5064 0.0380472 2.26304e-15)
(-16.5053 0.0384392 2.27636e-15)
(-16.5053 0.0389715 2.29026e-15)
(-16.5055 0.0395616 2.30266e-15)
(-16.5057 0.0401771 2.3162e-15)
(-16.506 0.0408037 2.33266e-15)
(-16.5063 0.0414346 2.34922e-15)
(-16.5066 0.0420652 2.36615e-15)
(-16.507 0.042692 2.38351e-15)
(-16.5073 0.0433119 2.39947e-15)
(-16.5077 0.0439216 2.41645e-15)
(-16.5082 0.0445175 2.4363e-15)
(-16.5087 0.0450958 2.45609e-15)
(-16.5092 0.0456521 2.47613e-15)
(-16.5098 0.0461813 2.49652e-15)
(-16.5105 0.0466774 2.51537e-15)
(-16.5112 0.0471338 2.53518e-15)
(-16.5121 0.0475424 2.55782e-15)
(-16.513 0.0478942 2.58043e-15)
(-16.5141 0.0481784 2.60332e-15)
(-16.5153 0.0483825 2.62661e-15)
(-16.5167 0.0484921 2.65039e-15)
(-16.5183 0.0484903 2.67478e-15)
(-16.5201 0.0483575 2.69982e-15)
(-16.5222 0.0480707 2.72565e-15)
(-16.5246 0.0476035 2.75219e-15)
(-16.5273 0.0469246 2.78168e-15)
(-16.5304 0.0459978 2.81168e-15)
(-16.534 0.0447809 2.84066e-15)
(-16.5382 0.0432243 2.87156e-15)
(-16.543 0.0412701 2.90437e-15)
(-16.5485 0.0388505 2.9391e-15)
(-16.5549 0.0358856 2.97787e-15)
(-16.5623 0.0322814 3.01828e-15)
(-16.5708 0.0279269 3.05833e-15)
(-16.5807 0.0226903 3.10109e-15)
(-16.5921 0.0164146 3.14623e-15)
(-16.6052 0.008912 3.19368e-15)
(-16.6205 -4.4105e-05 3.24542e-15)
(-16.6382 -0.0107287 3.29803e-15)
(-16.6586 -0.0234776 3.35102e-15)
(-16.6823 -0.038704 3.41065e-15)
(-16.7097 -0.0569206 3.47335e-15)
(-16.7414 -0.0787751 3.53759e-15)
(-16.778 -0.105091 3.60969e-15)
(-16.8202 -0.136891 3.68639e-15)
(-16.8687 -0.175391 3.77225e-15)
(-16.9243 -0.222122 3.87041e-15)
(-16.9876 -0.279276 3.97991e-15)
(-17.0571 -0.349653 4.10856e-15)
(-15.7231 -0.0499757 -4.81708e-16)
(-15.7234 -0.0508584 -4.91569e-16)
(-15.723 -0.0516985 -5.01923e-16)
(-15.7224 -0.0525624 -5.13948e-16)
(-15.7218 -0.0534412 -5.26527e-16)
(-15.7212 -0.0543382 -5.37822e-16)
(-15.7205 -0.0552575 -5.49301e-16)
(-15.7199 -0.056203 -5.61405e-16)
(-15.7193 -0.0571784 -5.7396e-16)
(-15.7188 -0.0581873 -5.89213e-16)
(-15.7182 -0.0592336 -6.04128e-16)
(-15.7177 -0.0603213 -6.16902e-16)
(-15.7173 -0.0614548 -6.30739e-16)
(-15.7169 -0.0626389 -6.45326e-16)
(-15.7165 -0.0638793 -6.60425e-16)
(-15.7163 -0.065182 -6.7837e-16)
(-15.7161 -0.0665542 -6.96106e-16)
(-15.716 -0.0680038 -7.11784e-16)
(-15.716 -0.0695401 -7.28743e-16)
(-15.7161 -0.0711734 -7.46628e-16)
(-15.7164 -0.0729158 -7.65397e-16)
(-15.7169 -0.074781 -7.85001e-16)