/*--------------------------------*- C++ -*----------------------------------*\
  =========                 |
  \\      /  F ield         | OpenFOAM: The Open Source CFD Toolbox
   \\    /   O peration     | Website:  https://openfoam.org
    \\  /    A nd           | Version:  8
     \\/     M anipulation  |
\*---------------------------------------------------------------------------*/
FoamFile
{
    version     2.0;
    format      ascii;
    class       volScalarField;
    location    "200";
    object      nut;
}
// * * * * * * * * * * * * * * * * * * * * * * * * * * * * * * * * * * * * * //

dimensions      [0 2 -1 0 0 0 0];

internalField   nonuniform List<scalar> 
8400
(
0.000353058
0.000352407
0.000351757
0.00035111
0.000350468
0.000349832
0.0003492
0.000348574
0.000347954
0.000347338
0.000346729
0.000346125
0.000345527
0.000344935
0.00034435
0.00034377
0.000343197
0.00034263
0.00034207
0.000341517
0.00034097
0.000340431
0.000339899
0.000339376
0.00033886
0.000338353
0.000337856
0.000337368
0.000336892
0.000336427
0.000335974
0.000335536
0.000335114
0.00033471
0.000334325
0.000333962
0.000333625
0.000333318
0.000333043
0.000332807
0.000332616
0.000332477
0.000332399
0.000332394
0.000332476
0.000332663
0.00033298
0.000333461
0.000334149
0.000335104
0.000145068
0.000144968
0.000144878
0.000144798
0.000144728
0.000144666
0.000144614
0.000144571
0.000144536
0.00014451
0.000144493
0.000144485
0.000144486
0.000144495
0.000144512
0.000144538
0.000144573
0.000144616
0.000144668
0.000144728
0.000144797
0.000144874
0.000144959
0.000145054
0.000145157
0.000145269
0.000145391
0.000145522
0.000145662
0.000145813
0.000145974
0.000146145
0.000146329
0.000146525
0.000146734
0.000146957
0.000147195
0.000147451
0.000147724
0.000148019
0.000148336
0.000148679
0.000149051
0.000149457
0.000149902
0.000150392
0.000150936
0.000151547
0.000152238
0.000153031
9.11972e-05
9.13554e-05
9.15156e-05
9.16775e-05
9.18411e-05
9.20065e-05
9.21735e-05
9.23421e-05
9.25124e-05
9.26843e-05
9.28577e-05
9.30327e-05
9.32093e-05
9.33875e-05
9.35672e-05
9.37485e-05
9.39314e-05
9.41159e-05
9.43019e-05
9.44896e-05
9.4679e-05
9.487e-05
9.50628e-05
9.52572e-05
9.54535e-05
9.56516e-05
9.58516e-05
9.60535e-05
9.62574e-05
9.64635e-05
9.66717e-05
9.68822e-05
9.70951e-05
9.73106e-05
9.75289e-05
9.775e-05
9.79743e-05
9.8202e-05
9.84335e-05
9.8669e-05
9.8909e-05
9.91542e-05
9.9405e-05
9.96623e-05
9.9927e-05
0.0001002
0.000100484
0.000100779
0.000101089
0.000101416
8.69206e-05
8.71208e-05
8.73201e-05
8.75185e-05
8.77159e-05
8.79124e-05
8.81081e-05
8.83031e-05
8.84973e-05
8.86908e-05
8.88836e-05
8.90759e-05
8.92676e-05
8.94589e-05
8.96497e-05
8.98401e-05
9.00302e-05
9.022e-05
9.04095e-05
9.05989e-05
9.07881e-05
9.09773e-05
9.11663e-05
9.13554e-05
9.15445e-05
9.17337e-05
9.1923e-05
9.21125e-05
9.23022e-05
9.24922e-05
9.26824e-05
9.2873e-05
9.30639e-05
9.32552e-05
9.34469e-05
9.36391e-05
9.38317e-05
9.40249e-05
9.42186e-05
9.4413e-05
9.46079e-05
9.48035e-05
9.49999e-05
9.5197e-05
9.5395e-05
9.5594e-05
9.57941e-05
9.59953e-05
9.61981e-05
9.64027e-05
8.72809e-05
8.74917e-05
8.7701e-05
8.79086e-05
8.81146e-05
8.8319e-05
8.85219e-05
8.87233e-05
8.89235e-05
8.91223e-05
8.932e-05
8.95165e-05
8.97119e-05
8.99063e-05
9.00998e-05
9.02924e-05
9.04843e-05
9.06754e-05
9.08658e-05
9.10556e-05
9.12448e-05
9.14335e-05
9.16218e-05
9.18097e-05
9.19972e-05
9.21844e-05
9.23713e-05
9.25579e-05
9.27443e-05
9.29306e-05
9.31166e-05
9.33024e-05
9.3488e-05
9.36734e-05
9.38586e-05
9.40434e-05
9.42279e-05
9.4412e-05
9.45955e-05
9.47783e-05
9.49603e-05
9.51412e-05
9.53209e-05
9.5499e-05
9.56752e-05
9.5849e-05
9.60199e-05
9.61873e-05
9.63503e-05
9.65079e-05
8.86429e-05
8.88638e-05
8.9083e-05
8.93004e-05
8.95162e-05
8.97304e-05
8.99431e-05
9.01544e-05
9.03643e-05
9.05729e-05
9.07804e-05
9.09867e-05
9.11919e-05
9.13961e-05
9.15994e-05
9.18019e-05
9.20035e-05
9.22044e-05
9.24046e-05
9.26042e-05
9.28032e-05
9.30017e-05
9.31997e-05
9.33974e-05
9.35947e-05
9.37917e-05
9.39885e-05
9.4185e-05
9.43813e-05
9.45774e-05
9.47733e-05
9.49691e-05
9.51648e-05
9.53603e-05
9.55557e-05
9.57509e-05
9.59459e-05
9.61407e-05
9.63352e-05
9.65293e-05
9.67229e-05
9.6916e-05
9.71084e-05
9.72998e-05
9.74903e-05
9.76794e-05
9.7867e-05
9.80529e-05
9.82366e-05
9.8418e-05
8.9623e-05
8.98506e-05
9.00765e-05
9.03006e-05
9.0523e-05
9.07438e-05
9.09629e-05
9.11805e-05
9.13966e-05
9.16114e-05
9.18249e-05
9.20371e-05
9.22482e-05
9.24582e-05
9.26672e-05
9.28752e-05
9.30823e-05
9.32886e-05
9.34942e-05
9.3699e-05
9.39032e-05
9.41068e-05
9.43099e-05
9.45124e-05
9.47146e-05
9.49163e-05
9.51176e-05
9.53186e-05
9.55193e-05
9.57196e-05
9.59196e-05
9.61194e-05
9.63187e-05
9.65178e-05
9.67164e-05
9.69146e-05
9.71123e-05
9.73093e-05
9.75056e-05
9.77011e-05
9.78954e-05
9.80885e-05
9.828e-05
9.84697e-05
9.86571e-05
9.88419e-05
9.90235e-05
9.92014e-05
9.93748e-05
9.9543e-05
9.08807e-05
9.11154e-05
9.13484e-05
9.15796e-05
9.18092e-05
9.20371e-05
9.22635e-05
9.24885e-05
9.27121e-05
9.29344e-05
9.31555e-05
9.33753e-05
9.35941e-05
9.38119e-05
9.40286e-05
9.42445e-05
9.44596e-05
9.46738e-05
9.48873e-05
9.51002e-05
9.53125e-05
9.55242e-05
9.57354e-05
9.59461e-05
9.61564e-05
9.63664e-05
9.6576e-05
9.67853e-05
9.69942e-05
9.72029e-05
9.74114e-05
9.76196e-05
9.78274e-05
9.8035e-05
9.82423e-05
9.84492e-05
9.86557e-05
9.88616e-05
9.9067e-05
9.92716e-05
9.94753e-05
9.9678e-05
9.98794e-05
0.000100079
0.000100277
0.000100473
0.000100667
0.000100857
0.000101045
0.000101228
9.19321e-05
9.21738e-05
9.2414e-05
9.26525e-05
9.28893e-05
9.31245e-05
9.33582e-05
9.35905e-05
9.38213e-05
9.40509e-05
9.42792e-05
9.45063e-05
9.47322e-05
9.49571e-05
9.51811e-05
9.54041e-05
9.56263e-05
9.58476e-05
9.60682e-05
9.62881e-05
9.65074e-05
9.6726e-05
9.69442e-05
9.71618e-05
9.7379e-05
9.75957e-05
9.78121e-05
9.8028e-05
9.82436e-05
9.84589e-05
9.86738e-05
9.88884e-05
9.91025e-05
9.93163e-05
9.95296e-05
9.97424e-05
9.99546e-05
0.000100166
0.000100377
0.000100587
0.000100795
0.000101002
0.000101208
0.000101411
0.000101613
0.000101811
0.000102006
0.000102198
0.000102385
0.000102568
9.30853e-05
9.33345e-05
9.35821e-05
9.38279e-05
9.40722e-05
9.43148e-05
9.4556e-05
9.47958e-05
9.50342e-05
9.52713e-05
9.55072e-05
9.5742e-05
9.59756e-05
9.62083e-05
9.644e-05
9.66708e-05
9.69007e-05
9.71299e-05
9.73583e-05
9.7586e-05
9.78131e-05
9.80397e-05
9.82657e-05
9.84912e-05
9.87162e-05
9.89408e-05
9.9165e-05
9.93889e-05
9.96124e-05
9.98355e-05
0.000100058
0.000100281
0.000100503
0.000100724
0.000100945
0.000101166
0.000101386
0.000101605
0.000101823
0.000102041
0.000102257
0.000102472
0.000102685
0.000102896
0.000103104
0.00010331
0.000103512
0.000103711
0.000103905
0.000104094
9.41848e-05
9.44407e-05
9.46955e-05
9.49489e-05
9.52009e-05
9.54516e-05
9.57008e-05
9.59486e-05
9.61952e-05
9.64405e-05
9.66846e-05
9.69276e-05
9.71695e-05
9.74105e-05
9.76505e-05
9.78897e-05
9.81281e-05
9.83657e-05
9.86025e-05
9.88388e-05
9.90744e-05
9.93094e-05
9.95439e-05
9.9778e-05
0.000100012
0.000100245
0.000100477
0.00010071
0.000100942
0.000101174
0.000101405
0.000101636
0.000101866
0.000102096
0.000102326
0.000102555
0.000102784
0.000103012
0.000103238
0.000103464
0.000103689
0.000103913
0.000104135
0.000104354
0.000104572
0.000104787
0.000104999
0.000105207
0.000105411
0.000105611
9.52332e-05
9.54975e-05
9.57604e-05
9.60216e-05
9.62814e-05
9.65397e-05
9.67969e-05
9.70529e-05
9.73078e-05
9.75617e-05
9.78146e-05
9.80662e-05
9.83168e-05
9.85663e-05
9.88148e-05
9.90624e-05
9.93092e-05
9.95553e-05
9.98005e-05
0.000100045
0.000100289
0.000100532
0.000100775
0.000101017
0.000101259
0.000101501
0.000101741
0.000101982
0.000102222
0.000102462
0.000102701
0.00010294
0.000103178
0.000103416
0.000103653
0.000103889
0.000104125
0.00010436
0.000104594
0.000104826
0.000105057
0.000105287
0.000105514
0.000105739
0.000105961
0.00010618
0.000106395
0.000106605
0.000106809
0.000107008
9.64003e-05
9.66726e-05
9.69434e-05
9.72127e-05
9.74805e-05
9.77469e-05
9.8012e-05
9.82758e-05
9.85384e-05
9.87998e-05
9.90602e-05
9.93198e-05
9.95786e-05
9.98367e-05
0.000100094
0.000100351
0.000100607
0.000100862
0.000101116
0.00010137
0.000101624
0.000101877
0.000102129
0.000102381
0.000102633
0.000102884
0.000103135
0.000103385
0.000103635
0.000103885
0.000104134
0.000104384
0.000104632
0.000104881
0.000105129
0.000105376
0.000105623
0.00010587
0.000106115
0.00010636
0.000106604
0.000106846
0.000107087
0.000107326
0.000107563
0.000107798
0.00010803
0.000108259
0.000108485
0.000108706
9.72886e-05
9.75708e-05
9.78518e-05
9.81313e-05
9.84095e-05
9.86863e-05
9.89618e-05
9.9236e-05
9.95091e-05
9.97811e-05
0.000100052
0.000100322
0.000100591
0.000100859
0.000101126
0.000101392
0.000101658
0.000101924
0.000102188
0.000102453
0.000102716
0.000102979
0.000103241
0.000103503
0.000103764
0.000104024
0.000104285
0.000104544
0.000104803
0.000105062
0.00010532
0.000105578
0.000105835
0.000106091
0.000106347
0.000106602
0.000106855
0.000107108
0.00010736
0.00010761
0.000107858
0.000108104
0.000108348
0.000108589
0.000108826
0.00010906
0.000109289
0.000109512
0.000109728
0.000109937
9.87085e-05
9.89993e-05
9.92888e-05
9.95769e-05
9.98636e-05
0.000100149
0.000100433
0.000100717
0.000100999
0.00010128
0.00010156
0.00010184
0.000102118
0.000102396
0.000102673
0.000102949
0.000103225
0.0001035
0.000103774
0.000104048
0.000104322
0.000104596
0.00010487
0.000105143
0.000105416
0.000105689
0.000105961
0.000106233
0.000106504
0.000106776
0.000107046
0.000107317
0.000107586
0.000107856
0.000108124
0.000108392
0.000108659
0.000108925
0.00010919
0.000109453
0.000109715
0.000109975
0.000110233
0.000110488
0.000110741
0.000110991
0.000111237
0.00011148
0.000111719
0.000111954
9.98214e-05
0.000100129
0.000100436
0.000100742
0.000101048
0.000101353
0.000101657
0.000101961
0.000102264
0.000102566
0.000102868
0.00010317
0.000103471
0.000103772
0.000104073
0.000104373
0.000104673
0.000104973
0.000105273
0.000105572
0.000105871
0.000106171
0.00010647
0.000106769
0.000107069
0.000107369
0.000107667
0.000107964
0.000108259
0.000108553
0.000108846
0.000109136
0.000109425
0.000109711
0.000109994
0.000110274
0.000110551
0.000110823
0.000111091
0.000111353
0.000111608
0.000111856
0.000112097
0.000112327
0.000112547
0.000112755
0.000112949
0.000113127
0.000113288
0.000113429
0.000104926
0.000105274
0.000105624
0.000105974
0.000106324
0.000106675
0.000107027
0.000107379
0.000107731
0.000108085
0.000108439
0.000108793
0.000109148
0.000109504
0.000109861
0.000110218
0.000110576
0.000110934
0.000111294
0.000111654
0.000112014
0.000112376
0.000112737
0.0001131
0.000113462
0.000113825
0.00011419
0.000114556
0.000114916
0.00011527
0.00011562
0.000115965
0.000116303
0.000116635
0.000116959
0.000117273
0.000117577
0.000117868
0.000118146
0.000118407
0.00011865
0.000118872
0.00011907
0.00011924
0.00011938
0.000119483
0.000119546
0.000119561
0.000119525
0.000119428
0.000122676
0.000123124
0.000123579
0.000124041
0.000124508
0.000124981
0.000125459
0.000125942
0.00012643
0.000126924
0.000127423
0.000127926
0.000128434
0.000128947
0.000129465
0.000129987
0.000130514
0.000131044
0.000131579
0.000132118
0.00013266
0.000133206
0.000133754
0.000134306
0.000134859
0.000135414
0.000135971
0.000136528
0.000137093
0.000137649
0.000138182
0.000138698
0.000139196
0.000139674
0.000140129
0.000140557
0.000140955
0.000141318
0.00014164
0.000141917
0.00014214
0.000142301
0.000142392
0.000142399
0.000142309
0.000142104
0.00014176
0.000141249
0.000140533
0.000139558
0.000190675
0.000191186
0.000191711
0.000192251
0.000192804
0.000193371
0.000193951
0.000194543
0.000195149
0.000195768
0.0001964
0.000197044
0.0001977
0.000198369
0.00019905
0.000199743
0.000200447
0.000201163
0.00020189
0.000202628
0.000203375
0.000204133
0.000204899
0.000205673
0.000206455
0.000207243
0.000208036
0.000208833
0.000209633
0.000210442
0.00021127
0.00021209
0.000212855
0.000213593
0.000214303
0.000214979
0.000215616
0.000216206
0.000216743
0.000217218
0.00021762
0.000217936
0.000218151
0.000218245
0.000218195
0.000217967
0.000217516
0.000216782
0.000215681
0.000214098
0.000379677
0.00037992
0.000380191
0.000380484
0.000380797
0.000381129
0.000381479
0.000381848
0.000382234
0.000382637
0.000383058
0.000383495
0.000383949
0.00038442
0.000384905
0.000385406
0.00038592
0.000386448
0.000386989
0.000387541
0.000388103
0.000388675
0.000389253
0.000389838
0.000390428
0.000391019
0.000391611
0.000392201
0.000392786
0.000393365
0.000393934
0.000394502
0.000395102
0.000395715
0.000396338
0.00039697
0.00039761
0.000398257
0.000398911
0.000399568
0.000400229
0.000400891
0.000401552
0.000402209
0.00040286
0.000403501
0.000404128
0.000404735
0.000405317
0.000405862
0.00108926
0.00107437
0.00106012
0.00104646
0.00103331
0.00102061
0.0010083
0.000996345
0.000984737
0.000973455
0.000962488
0.000951821
0.000941444
0.000931347
0.00092152
0.000911952
0.000902635
0.00089356
0.000884719
0.000876104
0.000867708
0.000859523
0.000851543
0.00084376
0.000836169
0.000828763
0.000821538
0.000814486
0.000807603
0.000800884
0.000794324
0.000787919
0.000781665
0.000775557
0.000769591
0.000763765
0.000758075
0.000752519
0.000747082
0.000741748
0.000736512
0.000731366
0.000726303
0.000721313
0.000716386
0.000711505
0.000706648
0.000701778
0.000696826
0.000691662
0.0010825
0.0010577
0.00103401
0.00101132
0.000989613
0.00096884
0.000948978
0.000929972
0.000911769
0.00089432
0.000877579
0.000861503
0.000846053
0.000831194
0.000816891
0.000803114
0.000789835
0.000777026
0.000764663
0.000752723
0.000741184
0.000730025
0.000719229
0.000708776
0.000698651
0.000688838
0.000679322
0.000670089
0.000661126
0.00065242
0.00064396
0.000635733
0.000627728
0.000619934
0.000612339
0.000604933
0.000597705
0.000590645
0.000583755
0.000577043
0.0005705
0.000564122
0.0005579
0.000551829
0.000545902
0.000540111
0.000534451
0.000528911
0.00052348
0.000518142
0.00108247
0.00105761
0.00103378
0.00101097
0.000989138
0.000968225
0.000948181
0.000928955
0.000910495
0.000892758
0.000875699
0.000859281
0.000843468
0.000828227
0.000813527
0.00079934
0.000785638
0.000772399
0.000759599
0.000747216
0.000735231
0.000723625
0.00071238
0.00070148
0.000690909
0.000680654
0.0006707
0.000661033
0.000651643
0.000642518
0.000633646
0.000625018
0.000616623
0.000608455
0.000600504
0.000592762
0.000585221
0.000577876
0.000570718
0.000563742
0.000556942
0.000550313
0.000543849
0.000537546
0.0005314
0.000525407
0.000519563
0.000513866
0.000508312
0.000502898
0.00108247
0.00105779
0.00103417
0.00101158
0.000989932
0.00096918
0.000949266
0.00093014
0.000911756
0.000894073
0.000877051
0.000860654
0.000844849
0.000829606
0.000814895
0.000800689
0.000786964
0.000773695
0.000760861
0.000748442
0.000736417
0.000724769
0.00071348
0.000702535
0.000691918
0.000681616
0.000671614
0.0006619
0.000652462
0.000643289
0.00063437
0.000625695
0.000617255
0.000609041
0.000601044
0.000593256
0.000585671
0.00057828
0.000571077
0.000564057
0.000557212
0.000550539
0.000544031
0.000537684
0.000531495
0.000525458
0.00051957
0.000513827
0.000508227
0.000502766
0.00108247
0.00105779
0.00103417
0.00101155
0.000989864
0.000969073
0.000949121
0.000929962
0.000911551
0.000893847
0.000876812
0.000860408
0.000844602
0.000829361
0.000814657
0.000800462
0.00078675
0.000773496
0.00076068
0.000748278
0.000736272
0.000724643
0.000713374
0.000702449
0.000691852
0.000681568
0.000671585
0.000661889
0.000652469
0.000643313
0.000634411
0.000625752
0.000617327
0.000609127
0.000601144
0.000593369
0.000585795
0.000578415
0.000571222
0.00056421
0.000557373
0.000550705
0.000544202
0.000537859
0.00053167
0.000525632
0.000519741
0.000513992
0.000508382
0.000502906
0.00108247
0.00105781
0.00103421
0.00101163
0.000989989
0.000969246
0.000949343
0.000930232
0.000911865
0.000894202
0.000877203
0.00086083
0.00084505
0.000829832
0.000815147
0.000800966
0.000787266
0.000774021
0.000761209
0.000748811
0.000736807
0.000725178
0.000713907
0.000702978
0.000692377
0.000682088
0.000672098
0.000662395
0.000652967
0.000643803
0.000634891
0.000626223
0.000617788
0.000609577
0.000601582
0.000593795
0.000586209
0.000578816
0.000571609
0.000564583
0.000557731
0.000551047
0.000544527
0.000538165
0.000531956
0.000525896
0.000519981
0.000514206
0.000508566
0.000503058
0.00108247
0.00105781
0.00103422
0.00101164
0.000990002
0.000969255
0.000949344
0.000930222
0.000911844
0.000894167
0.000877153
0.000860767
0.000844975
0.000829746
0.00081505
0.000800861
0.000787153
0.000773902
0.000761086
0.000748685
0.000736678
0.000725048
0.000713777
0.000702848
0.000692248
0.000681961
0.000671974
0.000662274
0.000652849
0.000643688
0.00063478
0.000626115
0.000617683
0.000609476
0.000601485
0.000593701
0.000586118
0.000578727
0.000571523
0.000564498
0.000557647
0.000550964
0.000544442
0.000538078
0.000531866
0.000525801
0.000519879
0.000514095
0.000508445
0.000502923
0.00108247
0.00105781
0.00103423
0.00101165
0.000990023
0.000969285
0.000949385
0.000930275
0.000911908
0.000894245
0.000877244
0.000860871
0.000845091
0.000829874
0.000815189
0.00080101
0.000787311
0.000774069
0.000761261
0.000748865
0.000736864
0.000725238
0.00071397
0.000703044
0.000692445
0.000682159
0.000672172
0.000662471
0.000653045
0.000643881
0.00063497
0.000626302
0.000617866
0.000609654
0.000601657
0.000593867
0.000586276
0.000578878
0.000571664
0.00056463
0.000557768
0.000551073
0.000544538
0.000538159
0.000531931
0.000525848
0.000519906
0.0005141
0.000508426
0.000502877
0.00108247
0.00105781
0.00103423
0.00101166
0.000990029
0.000969293
0.000949394
0.000930283
0.000911915
0.000894248
0.000877244
0.000860867
0.000845083
0.00082986
0.000815171
0.000800986
0.000787282
0.000774035
0.000761222
0.000748823
0.000736817
0.000725187
0.000713916
0.000702988
0.000692386
0.000682098
0.000672108
0.000662406
0.000652977
0.000643813
0.0006349
0.00062623
0.000617793
0.000609579
0.00060158
0.000593789
0.000586196
0.000578795
0.000571579
0.000564541
0.000557674
0.000550974
0.000544433
0.000538048
0.000531811
0.000525719
0.000519765
0.000513947
0.000508258
0.000502694
0.00108247
0.00105781
0.00103423
0.00101166
0.000990033
0.000969298
0.000949401
0.000930292
0.000911926
0.000894262
0.00087726
0.000860885
0.000845104
0.000829884
0.000815197
0.000801016
0.000787315
0.00077407
0.000761259
0.000748862
0.000736858
0.00072523
0.00071396
0.000703033
0.000692432
0.000682143
0.000672154
0.000662451
0.000653022
0.000643856
0.000634942
0.00062627
0.00061783
0.000609613
0.000601611
0.000593815
0.000586218
0.000578812
0.000571589
0.000564544
0.00055767
0.000550961
0.00054441
0.000538013
0.000531764
0.000525657
0.000519688
0.000513852
0.000508144
0.000502558
0.00108247
0.00105781
0.00103423
0.00101166
0.000990033
0.000969298
0.000949401
0.000930291
0.000911926
0.000894261
0.00087726
0.000860885
0.000845103
0.000829883
0.000815196
0.000801015
0.000787313
0.000774068
0.000761257
0.000748859
0.000736855
0.000725226
0.000713955
0.000703027
0.000692425
0.000682136
0.000672145
0.000662441
0.00065301
0.000643842
0.000634926
0.000626252
0.00061781
0.00060959
0.000601585
0.000593785
0.000586183
0.000578772
0.000571544
0.000564493
0.000557611
0.000550894
0.000544334
0.000537927
0.000531666
0.000525546
0.000519563
0.00051371
0.000507984
0.00050238
0.00108247
0.00105781
0.00103423
0.00101166
0.000990029
0.000969293
0.000949393
0.000930282
0.000911914
0.000894247
0.000877243
0.000860865
0.000845081
0.000829858
0.000815167
0.000800982
0.000787278
0.000774029
0.000761215
0.000748815
0.000736808
0.000725177
0.000713904
0.000702973
0.000692369
0.000682077
0.000672085
0.000662379
0.000652946
0.000643777
0.000634859
0.000626183
0.000617738
0.000609517
0.000601509
0.000593706
0.000586102
0.000578687
0.000571455
0.000564399
0.000557512
0.000550789
0.000544222
0.000537806
0.000531536
0.000525406
0.00051941
0.000513544
0.000507803
0.000502182
0.00108247
0.00105781
0.00103423
0.00101165
0.000990023
0.000969285
0.000949385
0.000930274
0.000911907
0.000894243
0.000877242
0.000860868
0.000845088
0.000829869
0.000815184
0.000801003
0.000787303
0.000774059
0.000761249
0.000748851
0.000736847
0.000725218
0.000713947
0.000703018
0.000692414
0.000682123
0.00067213
0.000662423
0.00065299
0.000643818
0.000634898
0.000626218
0.00061777
0.000609544
0.000601532
0.000593724
0.000586113
0.000578691
0.000571452
0.000564387
0.000557491
0.000550757
0.000544178
0.00053775
0.000531465
0.000525319
0.000519306
0.000513421
0.000507659
0.000502014
0.00108247
0.00105781
0.00103422
0.00101164
0.000990002
0.000969254
0.000949344
0.000930221
0.000911842
0.000894165
0.000877151
0.000860764
0.000844971
0.00082974
0.000815043
0.000800852
0.000787142
0.000773889
0.000761071
0.000748667
0.000736657
0.000725023
0.000713748
0.000702815
0.000692209
0.000681916
0.000671921
0.000662213
0.000652779
0.000643607
0.000634686
0.000626007
0.00061756
0.000609334
0.000601321
0.000593514
0.000585903
0.000578481
0.000571241
0.000564175
0.000557277
0.00055054
0.000543959
0.000537526
0.000531236
0.000525083
0.000519062
0.000513168
0.000507395
0.000501737
0.00108247
0.00105781
0.00103421
0.00101163
0.000989989
0.000969245
0.000949342
0.00093023
0.000911863
0.000894199
0.000877199
0.000860825
0.000845044
0.000829825
0.000815137
0.000800955
0.000787251
0.000774003
0.000761189
0.000748787
0.000736778
0.000725144
0.000713868
0.000702932
0.000692323
0.000682026
0.000672027
0.000662313
0.000652873
0.000643694
0.000634767
0.00062608
0.000617624
0.000609389
0.000601368
0.00059355
0.000585929
0.000578496
0.000571244
0.000564166
0.000557254
0.000550504
0.000543907
0.000537457
0.00053115
0.000524978
0.000518936
0.000513019
0.000507221
0.000501536
0.00108247
0.00105779
0.00103417
0.00101155
0.000989864
0.000969072
0.00094912
0.00092996
0.000911549
0.000893844
0.000876808
0.000860402
0.000844595
0.000829353
0.000814647
0.000800449
0.000786734
0.000773478
0.000760657
0.000748252
0.000736241
0.000724607
0.000713332
0.000702399
0.000691794
0.000681501
0.000671507
0.000661799
0.000652365
0.000643193
0.000634272
0.000625592
0.000617143
0.000608915
0.0006009
0.000593089
0.000585473
0.000578046
0.000570799
0.000563725
0.000556818
0.00055007
0.000543476
0.000537028
0.00053072
0.000524547
0.000518503
0.000512582
0.000506778
0.000501086
0.00108247
0.00105779
0.00103417
0.00101158
0.000989932
0.000969179
0.000949265
0.000930138
0.000911754
0.000894069
0.000877046
0.000860647
0.000844841
0.000829595
0.000814882
0.000800673
0.000786945
0.000773672
0.000760834
0.00074841
0.000736379
0.000724725
0.000713429
0.000702475
0.000691849
0.000681535
0.00067152
0.000661792
0.000652338
0.000643146
0.000634206
0.000625508
0.000617041
0.000608796
0.000600764
0.000592936
0.000585305
0.000577863
0.000570602
0.000563514
0.000556594
0.000549834
0.000543228
0.00053677
0.000530453
0.000524273
0.000518224
0.000512301
0.000506501
0.00050082
0.00108247
0.00105761
0.00103378
0.00101097
0.000989137
0.000968224
0.00094818
0.000928953
0.000910492
0.000892754
0.000875694
0.000859275
0.00084346
0.000828217
0.000813515
0.000799325
0.000785621
0.000772378
0.000759574
0.000747187
0.000735198
0.000723587
0.000712336
0.00070143
0.000690853
0.00068059
0.000670627
0.000660952
0.000651553
0.000642417
0.000633534
0.000624894
0.000616486
0.000608303
0.000600334
0.000592572
0.00058501
0.000577639
0.000570454
0.000563447
0.000556613
0.000549946
0.000543442
0.000537096
0.000530906
0.00052487
0.000518986
0.000513259
0.000507696
0.000502315
0.0010825
0.0010577
0.00103401
0.00101132
0.000989613
0.000968839
0.000948977
0.000929971
0.000911769
0.00089432
0.00087758
0.000861504
0.000846055
0.000831197
0.000816896
0.000803121
0.000789845
0.000777039
0.000764681
0.000752746
0.000741213
0.000730063
0.000719278
0.000708838
0.00069873
0.000688936
0.000679445
0.000670241
0.000661314
0.000652651
0.000644242
0.000636078
0.00062815
0.000620448
0.000612966
0.000605697
0.000598635
0.000591774
0.000585111
0.000578641
0.000572364
0.000566276
0.00056038
0.000554678
0.000549175
0.00054388
0.000538812
0.000534
0.000529503
0.000525436
0.00108926
0.00107437
0.00106012
0.00104646
0.00103331
0.00102061
0.0010083
0.000996344
0.000984734
0.000973452
0.000962482
0.000951814
0.000941435
0.000931335
0.000921504
0.000911932
0.00090261
0.00089353
0.000884683
0.00087606
0.000867655
0.000859461
0.000851468
0.000843672
0.000836065
0.000828641
0.000821394
0.000814318
0.000807406
0.000800655
0.000794057
0.000787608
0.000781302
0.000775135
0.000769102
0.000763197
0.000757416
0.000751754
0.000746205
0.000740766
0.000735431
0.000730195
0.000725052
0.000719997
0.000715024
0.000710126
0.000705295
0.000700523
0.000695797
0.000691102
0.00046604
0.00025293
0.000195508
0.000188006
0.000184114
0.000182847
0.000180095
0.000178402
0.000176041
0.000174062
0.000172031
0.000169812
0.000168098
0.000165616
0.000164231
0.000161388
0.000161107
0.000164083
0.000209189
0.000390598
0.000466627
0.000253543
0.000196206
0.000188724
0.000184843
0.000183566
0.000180816
0.000179114
0.000176753
0.000174768
0.000172734
0.00017051
0.000168793
0.000166306
0.000164915
0.000162069
0.000161782
0.00016476
0.00020987
0.000391163
0.000467221
0.000254136
0.000196905
0.000189449
0.000185578
0.000184291
0.000181543
0.000179833
0.000177472
0.00017548
0.000173444
0.000171214
0.000169494
0.000167003
0.000165607
0.000162758
0.000162464
0.000165443
0.000210543
0.000391679
0.000467819
0.000254722
0.000197608
0.000190179
0.000186319
0.000185022
0.000182276
0.000180557
0.000178197
0.000176197
0.00017416
0.000171924
0.0001702
0.000167705
0.000166304
0.000163452
0.000163152
0.000166127
0.00021117
0.000392203
0.000468421
0.000255308
0.000198315
0.000190914
0.000187065
0.000185758
0.000183015
0.000181288
0.000178927
0.000176921
0.000174882
0.000172641
0.000170913
0.000168414
0.000167007
0.000164153
0.000163845
0.000166811
0.00021178
0.000392733
0.000469028
0.000255895
0.000199026
0.000191655
0.000187818
0.000186501
0.00018376
0.000182024
0.000179663
0.00017765
0.000175609
0.000173363
0.000171632
0.000169129
0.000167717
0.000164861
0.000164544
0.000167495
0.000212383
0.000393269
0.000469638
0.000256486
0.000199744
0.000192402
0.000188576
0.000187249
0.000184511
0.000182766
0.000180406
0.000178386
0.000176343
0.000174092
0.000172356
0.000169851
0.000168432
0.000165574
0.000165248
0.000168184
0.000212984
0.000393811
0.000470253
0.000257081
0.000200467
0.000193155
0.00018934
0.000188003
0.000185268
0.000183515
0.000181154
0.000179128
0.000177083
0.000174826
0.000173087
0.000170578
0.000169154
0.000166294
0.000165959
0.000168876
0.000213585
0.000394359
0.000470872
0.00025768
0.000201196
0.000193914
0.000190111
0.000188764
0.000186031
0.000184269
0.000181909
0.000179876
0.000177829
0.000175567
0.000173825
0.000171312
0.000169883
0.00016702
0.000166676
0.000169572
0.000214188
0.000394913
0.000471495
0.000258285
0.000201931
0.000194679
0.000190888
0.00018953
0.000186801
0.00018503
0.00018267
0.00018063
0.000178582
0.000176315
0.000174568
0.000172053
0.000170617
0.000167752
0.000167399
0.000170275
0.000214794
0.000395473
0.000472123
0.000258894
0.000202673
0.00019545
0.000191671
0.000190303
0.000187576
0.000185797
0.000183438
0.000181391
0.000179341
0.000177069
0.000175318
0.0001728
0.000171359
0.000168491
0.000168128
0.000170982
0.000215404
0.000396038
0.000472755
0.000259509
0.000203422
0.000196227
0.000192461
0.000191082
0.000188359
0.00018657
0.000184212
0.000182158
0.000180106
0.000177829
0.000176075
0.000173553
0.000172106
0.000169236
0.000168864
0.000171696
0.000216019
0.000396609
0.000473391
0.000260129
0.000204177
0.000197011
0.000193257
0.000191868
0.000189148
0.00018735
0.000184992
0.000182932
0.000180878
0.000178596
0.000176839
0.000174313
0.000172861
0.000169989
0.000169606
0.000172416
0.000216639
0.000397187
0.000474032
0.000260754
0.000204938
0.000197802
0.00019406
0.00019266
0.000189943
0.000188137
0.00018578
0.000183712
0.000181657
0.00017937
0.000177609
0.00017508
0.000173622
0.000170747
0.000170355
0.000173142
0.000217264
0.00039777
0.000474678
0.000261385
0.000205707
0.000198599
0.00019487
0.000193459
0.000190746
0.000188931
0.000186574
0.000184499
0.000182443
0.000180151
0.000178386
0.000175854
0.00017439
0.000171513
0.000171111
0.000173875
0.000217895
0.000398359
0.000475329
0.000262022
0.000206482
0.000199403
0.000195687
0.000194265
0.000191555
0.000189731
0.000187375
0.000185294
0.000183235
0.000180939
0.00017917
0.000176635
0.000175165
0.000172286
0.000171874
0.000174615
0.000218531
0.000398955
0.000475984
0.000262664
0.000207264
0.000200213
0.00019651
0.000195078
0.000192371
0.000190538
0.000188183
0.000186095
0.000184035
0.000181733
0.000179961
0.000177423
0.000175947
0.000173065
0.000172643
0.000175361
0.000219174
0.000399557
0.000476645
0.000263312
0.000208054
0.000201031
0.000197341
0.000195897
0.000193195
0.000191352
0.000188998
0.000186903
0.000184841
0.000182535
0.000180759
0.000178218
0.000176736
0.000173852
0.00017342
0.000176115
0.000219824
0.000400165
0.00047731
0.000263965
0.00020885
0.000201856
0.000198178
0.000196724
0.000194025
0.000192174
0.00018982
0.000187719
0.000185655
0.000183344
0.000181564
0.00017902
0.000177532
0.000174647
0.000174204
0.000176876
0.00022048
0.00040078
0.000477981
0.000264625
0.000209654
0.000202687
0.000199023
0.000197558
0.000194863
0.000193003
0.00019065
0.000188541
0.000186477
0.000184161
0.000182377
0.00017983
0.000178336
0.000175448
0.000174995
0.000177644
0.000221143
0.000401402
0.000478657
0.000265291
0.000210465
0.000203526
0.000199876
0.000198399
0.000195708
0.000193839
0.000191487
0.000189372
0.000187305
0.000184985
0.000183197
0.000180647
0.000179147
0.000176257
0.000175794
0.00017842
0.000221813
0.00040203
0.000479338
0.000265963
0.000211284
0.000204373
0.000200735
0.000199248
0.000196561
0.000194682
0.000192332
0.00019021
0.000188142
0.000185817
0.000184025
0.000181472
0.000179966
0.000177074
0.000176601
0.000179203
0.00022249
0.000402665
0.000480024
0.000266641
0.00021211
0.000205226
0.000201603
0.000200104
0.000197421
0.000195533
0.000193184
0.000191055
0.000188985
0.000186656
0.00018486
0.000182305
0.000180793
0.000177899
0.000177415
0.000179994
0.000223175
0.000403308
0.000480716
0.000267325
0.000212944
0.000206088
0.000202478
0.000200967
0.000198289
0.000196392
0.000194044
0.000191909
0.000189837
0.000187503