/*--------------------------------*- C++ -*----------------------------------*\
  =========                 |
  \\      /  F ield         | OpenFOAM: The Open Source CFD Toolbox
   \\    /   O peration     | Website:  https://openfoam.org
    \\  /    A nd           | Version:  8
     \\/     M anipulation  |
\*---------------------------------------------------------------------------*/
FoamFile
{
    version     2.0;
    format      ascii;
    class       volScalarField;
    location    "200";
    object      p;
}
// * * * * * * * * * * * * * * * * * * * * * * * * * * * * * * * * * * * * * //

dimensions      [1 -1 -2 0 0 0 0];

internalField   nonuniform List<scalar> 
8400
(
11725.5
11729.7
11737.1
11744.9
11753.3
11762.4
11772
11782.3
11793.3
11805
11817.5
11830.8
11845.1
11860.4
11877
11894.9
11914.3
11935.6
11958.9
11984.6
12013.1
12044.7
12080.1
12119.9
12164.6
12215.2
12272.4
12337.5
12411.4
12495.8
12592.1
12702.3
12828.4
12972.9
13138.7
13329
13547.6
13799
14088.4
14421.9
14806.7
15251.2
15766.2
16365.5
17065.5
17880.6
18825.5
19959.7
21450.8
23397.7
11615.7
11612.9
11617.9
11624.7
11632.4
11640.9
11649.9
11659.5
11669.7
11680.6
11692.1
11704.4
11717.6
11731.7
11746.8
11763.2
11781
11800.4
11821.8
11845.3
11871.3
11900.3
11932.8
11969.3
12010.5
12057
12109.8
12169.8
12238.2
12316.3
12405.5
12507.8
12624.9
12759.1
12913.2
13090.1
13293.3
13526.9
13795.5
14104.5
14460
14869.2
15340.4
15884.2
16511.7
17231.5
18050.4
18998.6
20159.6
21586.9
11537
11547.6
11557.9
11567.2
11576.7
11586.6
11597
11608
11619.5
11631.7
11644.8
11658.6
11673.3
11689
11705.9
11724.1
11743.9
11765.3
11788.8
11814.6
11843
11874.5
11909.6
11948.9
11992.9
12042.4
12098.3
12161.5
12233.3
12314.8
12407.6
12513.5
12634.3
12772.3
12930.1
13110.8
13317.8
13555.1
13827.3
14139.6
14498
14909.3
15381.3
15923
16543.5
17250
18048.1
18952.4
19993.6
21168.3
11388
11388.1
11393.5
11400.8
11408.8
11417.3
11426
11435.2
11444.8
11454.9
11465.5
11476.7
11488.6
11501.2
11514.7
11529.2
11545
11562.1
11580.8
11601.3
11624.1
11649.4
11677.6
11709.3
11745.1
11785.4
11831.2
11883.3
11942.6
12010.3
12087.8
12176.5
12278.1
12394.7
12528.5
12682.2
12858.8
13061.8
13295.2
13563.4
13871.8
14225.8
14632.2
15098.1
15630.7
16236.2
16920
17691
18564.1
19536.1
11337.5
11359.7
11373.8
11385.2
11395.8
11406.3
11417
11428
11439.4
11451.4
11463.9
11477.1
11490.9
11505.6
11521.3
11538
11556
11575.4
11596.4
11619.3
11644.5
11672.1
11702.7
11736.7
11774.5
11816.9
11864.4
11918
11978.4
12046.7
12124.1
12211.9
12311.7
12425.2
12554.6
12702.1
12870.3
13062.2
13281.2
13531
13815.8
14139.9
14508.1
14925.4
15396.3
15923.8
16509.5
17155.5
17867.9
18645.7
11170.6
11170.6
11175.7
11183.5
11192.1
11200.7
11209.6
11218.7
11228
11237.6
11247.6
11258.1
11269
11280.5
11292.6
11305.6
11319.5
11334.5
11350.8
11368.6
11388.1
11409.6
11433.5
11460.1
11489.8
11523.3
11561.1
11603.8
11652.3
11707.3
11770
11841.5
11923.1
12016.4
12123.3
12245.6
12385.7
12546.3
12730.3
12941
13181.8
13456.7
13769.5
14124.3
14524.6
14972.7
15468.9
16012
16604.2
17246.3
11141.9
11168
11183.1
11194.8
11205.4
11215.6
11225.8
11236.1
11246.6
11257.3
11268.3
11279.7
11291.6
11304
11317
11330.6
11345.1
11360.6
11377.1
11395
11414.3
11435.3
11458.3
11483.5
11511.4
11542.3
11576.8
11615.3
11658.5
11707
11761.6
11823.3
11893
11972.1
12061.9
12164
12280.1
12412.3
12562.8
12734.1
12928.9
13150
13400.3
13682.7
13999.7
14353
14742.2
15166.1
15626.2
16125.1
10964.3
10962.7
10967.3
10975.1
10983.8
10992.6
11001.5
11010.4
11019.5
11028.7
11038.1
11047.8
11057.8
11068.2
11079
11090.3
11102.3
11115
11128.6
11143.1
11158.8
11175.8
11194.4
11214.7
11237.1
11261.8
11289.4
11320.1
11354.4
11392.8
11436
11484.6
11539.6
11601.7
11672.2
11752.1
11843
11946.2
12063.6
12197
12348.4
12520
12713.8
12931.8
13176
13447.4
13745.5
14069.2
14420
14801.2
10946.1
10972.7
10987.6
10998.8
11008.7
11018.2
11027.4
11036.5
11045.5
11054.6
11063.7
11072.9
11082.4
11092
11101.8
11111.9
11122.3
11133.2
11144.5
11156.4
11169
11182.3
11196.6
11211.8
11228.4
11246.4
11266
11287.6
11311.3
11337.4
11366.5
11398.9
11435.1
11475.9
11521.7
11573.4
11632
11698.4
11773.8
11859.3
11956.5
12066.7
12191.5
12332.3
12490.7
12667.6
12863.1
13076.9
13310.9
13569
10763.4
10761.4
10765.5
10773.2
10781.5
10790
10798.5
10806.9
10815.2
10823.5
10831.9
10840.4
10848.9
10857.6
10866.5
10875.6
10884.9
10894.4
10904.3
10914.6
10925.3
10936.4
10948.1
10960.4
10973.4
10987.2
11001.9
11017.6
11034.3
11052.2
11071.6
11092.5
11115.2
11139.9
11167
11196.7
11229.4
11265.6
11305.8
11350.5
11400.5
11456.4
11519.1
11589.6
11668.9
11758
11857.5
11968.1
12092.5
12235.2
10748.3
10774.6
10789.1
10799.8
10809.1
10817.6
10825.8
10833.8
10841.5
10849.1
10856.5
10863.8
10871
10878.1
10885.1
10892
10898.7
10905.4
10911.9
10918.3
10924.6
10930.8
10936.7
10942.5
10948.1
10953.4
10958.3
10963
10967.2
10970.9
10974.1
10976.7
10978.6
10979.7
10979.9
10979.3
10977.5
10974.7
10970.7
10965.6
10959.4
10952.1
10944.2
10936.1
10928.5
10922.4
10919.2
10920.8
10930.7
10954.1
10566.4
10565.1
10569.1
10576.2
10583.8
10591.4
10598.8
10605.9
10612.9
10619.7
10626.3
10632.8
10639.2
10645.4
10651.5
10657.4
10663
10668.4
10673.6
10678.4
10682.9
10686.9
10690.3
10693.1
10695.1
10696.2
10696.2
10694.9
10692.1
10687.4
10680.7
10671.6
10659.7
10644.4
10625.5
10602.1
10573.8
10539.7
10499.2
10451.6
10396
10331.8
10258.5
10175.8
10083.9
9983.58
9876.6
9765.86
9655.88
9554.01
10548.3
10573.8
10587.9
10598.2
10607
10614.9
10622.3
10629.4
10636.1
10642.6
10648.8
10654.7
10660.2
10665.5
10670.3
10674.7
10678.7
10682
10684.7
10686.7
10687.9
10688
10686.9
10684.5
10680.4
10674.5
10666.4
10655.9
10642.3
10625.4
10604.6
10579.2
10548.5
10511.8
10468.1
10416.4
10355.6
10284.3
10201.2
10104.9
9993.9
9866.82
9722.41
9559.77
9378.57
9179.37
8964.2
8737.11
8504.62
8275.99
10374.8
10375.4
10379.6
10386
10392.5
10398.8
10404.6
10410.1
10415.2
10419.9
10424.3
10428.3
10432
10435.2
10437.9
10440
10441.5
10442.1
10442
10440.8
10438.4
10434.6
10429.2
10421.8
10412.3
10400.1
10384.9
10366.2
10343.5
10316.1
10283.2
10244
10197.5
10142.7
10078.1
10002.4
9913.8
9810.5
9690.44
9551.4
9390.93
9206.5
8995.71
8756.35
8486.73
8186.17
7855.6
7498.76
7123.58
6744.38
10346.9
10370.7
10383.8
10393.3
10401.2
10408.3
10414.8
10420.9
10426.7
10432.1
10437.2
10441.9
10446.2
10450
10453.2
10455.8
10457.6
10458.5
10458.2
10456.8
10453.8
10449.1
10442.4
10433.4
10421.7
10406.7
10388
10365
10337
10303.1
10262.4
10213.7
10155.8
10087
10005.8
9910.18
9797.8
9666.12
9512.34
9333.3
9125.5
8885.27
8608.82
8292.58
7933.73
7530.5
7082.7
6593.96
6075.45
5547.68
10194.1
10196.1
10200.2
10205.3
10210.3
10214.9
10219.1
10222.8
10226.1
10229
10231.4
10233.3
10234.5
10235.1
10235
10233.8
10231.6
10228.2
10223.2
10216.6
10208.1
10197.3
10184
10167.6
10147.7
10123.8
10095.1
10060.9
10020.3
9972.32
9915.79
9849.34
9771.41
9680.18
9573.54
9449.15
9304.3
9135.87
8940.36
8713.79
8451.75
8149.45
7801.5
7402.58
6947.91
6433.15
5853.84
5207.81
4504.11
3773.61
10150.8
10168.3
10178.2
10185.1
10190.9
10196.3
10201.3
10206.1
10210.5
10214.6
10218.3
10221.7
10224.5
10226.8
10228.3
10229
10228.6
10226.9
10223.8
10219.1
10212.5
10203.6
10192
10177.4
10159.1
10136.6
10109.2
10076.1
10036.4
9989.25
9933.12
9866.53
9787.77
9694.77
9585.15
9456.19
9304.79
9127.37
8919.64
8676.73
8393.03
8062.03
7676.22
7227.42
6707.41
6107.79
5417.62
4625.29
3737.45
2804.41
10037.7
10031.6
10032.7
10035
10037.7
10040.6
10043.3
10045.7
10047.9
10049.6
10050.9
10051.6
10051.6
10050.8
10049.1
10046.1
10041.8
10035.9
10028.2
10018.4
10006.1
9991.15
9972.94
9951.02
9924.79
9893.55
9856.49
9812.59
9760.46
9698.82
9626.3
9541.16
9441.34
9324.33
9187.25
9026.91
8839.53
8620.75
8365.32
8067.2
7719.3
7313.22
6839.05
6285.44
5640.61
4893.14
4027.66
3019.06
1854.6
597.609
9969.18
9969.36
9972.3
9974.8
9977.59
9980.59
9983.66
9986.67
9989.51
9992.1
9994.32
9996.07
9997.24
9997.67
9997.19
9995.6
9992.74
9988.39
9982.32
9974.24
9963.85
9950.79
9934.62
9914.86
9890.89
9862.03
9827.48
9786.29
9737.31
9679.16
9610.27
9529.17
9434.13
9322.46
9191.14
9037.03
8856.47
8645.07
8397.71
8108.35
7769.78
7373.48
6908.95
6363.18
5722.21
4973.22
4096.86
3039.71
1716.7
152.817
9876.31
9865.11
9863.76
9863.97
9865.28
9867.15
9869.24
9871.34
9873.3
9874.96
9876.22
9876.94
9876.99
9876.2
9874.38
9871.36
9866.92
9860.82
9852.82
9842.63
9829.91
9814.3
9795.32
9772.47
9745.09
9712.48
9673.82
9628.19
9574.52
9511.54
9437.71
9350.47
9246.83
9124.43
8980.75
8812.32
8615
8383.8
8112.82
7794.97
7421.58
6982.08
6462.69
5845.23
5107.83
4227.78
3169.7
1830.41
1.82756
-2360.77
18771.3
10609
6575.96
5057.64
4223.3
3614.48
3190.8
2906.51
2706.36
2555.33
2435.69
2337.58
2254.45
2181.82
2116.64
2056.78
2000.69
1947.19
1895.33
1844.33
1793.5
1742.19
1689.78
1635.65
1579.12
1519.49
1455.98
1387.7
1313.65
1232.67
1143.44
1044.45
933.959
809.981
670.021
511.136
329.896
122.289
-116.51
-392.444
-712.673
-1085.81
-1522.54
-2036.36
-2644.75
-3371.19
-4248.62
-5326.29
-6684.62
-8460.26
-6861.28
-2272.11
-770.436
-204.155
230.165
555.783
780.175
940.295
1059.19
1148.08
1214.21
1263.03
1298.45
1323.18
1339.18
1347.86
1350.3
1347.26
1339.29
1326.76
1309.9
1288.78
1263.38
1233.56
1199.06
1159.51
1114.39
1063.09
1004.8
938.488
862.938
776.763
678.259
565.393
435.939
287.189
115.877
-81.9176
-310.789
-576.174
-884.748
-1244.69
-1665.98
-2160.97
-2745.09
-3437.91
-4264.38
-5256.01
-6450.33
-7881.21
370.531
2540.59
3723.71
3826.37
3669.73
3498.11
3311.83
3120.65
2942.32
2783.25
2642.53
2517.69
2406.31
2306.2
2215.32
2131.94
2054.56
1981.93
1912.95
1846.68
1782.26
1718.9
1655.85
1592.38
1527.74
1461.15
1391.81
1318.88
1241.41
1158.33
1068.39
970.085
861.683
741.094
606.028
453.859
281.472
85.1708
-139.444
-397.535
-695.169
-1039.6
-1439.51
-1905.28
-2449.3
-3086.29
-3833.25
-4708.72
-5729.91
-6905.12
621.573
1030.65
1222.14
1150.49
1048.27
1004.9
993.302
991.092
995.4
1005.33
1018.03
1030.89
1042.38
1051.66
1058.22
1061.74
1062.08
1059.13
1052.85
1043.2
1030.11
1013.47
993.135
968.887
940.408
907.29
869.058
825.09
774.692
717.13
651.464
576.478
490.76
392.695
280.267
151.108
2.44638
-168.978
-366.993
-596.062
-861.395
-1169.09
-1526.26
-1941.07
-2422.73
-2981.29
-3626.9
-4368.29
-5209.29
-6143.09
1063.03
1312.11
1628.75
1860.42
2000.32
2089.6
2141.94
2160.91
2154.59
2131.68
2098.02
2057.19
2011.67
1963.25
1913.11
1861.99
1810.35
1758.41
1706.25
1653.82
1601
1547.56
1493.26
1437.8
1380.78
1321.76
1260.16
1195.28
1126.33
1052.44
972.601
885.699
790.431
685.265
568.375
437.646
290.63
124.491
-64.0624
-278.825
-524.151
-805.005
-1126.97
-1496.21
-1919.22
-2402.49
-2951.65
-3570.03
-4256.27
-5001.58
1169.18
1254.79
1362.91
1424.95
1427.61
1399.51
1361.12
1318.88
1275.79
1234.59
1196.73
1162.4
1131.24
1102.72
1076.25
1051.28
1027.27
1003.73
980.216
956.329
931.678
905.896
878.616
849.436
818
783.919
746.716
705.881
660.818
610.802
555.009
492.507
422.21
342.84
252.908
150.68
34.1556
-98.9742
-251.358
-426.012
-626.334
-856.095
-1119.39
-1420.52
-1763.69
-2152.64
-2589.81
-3075.27
-3604.97
-4169.38
1184.73
1229.12
1300.84
1373.06
1428.41
1469.33
1500.95
1523.98
1538.08
1543.98
1542.85
1535.7
1523.34
1506.52
1485.88
1461.98
1435.27
1406.12
1374.8
1341.53
1306.45
1269.61
1230.99
1190.51
1148.01
1103.29
1056.1
1006.12
952.934
896.027
834.784
768.49
696.303
617.233
530.125
433.631
326.201
206.057
71.1817
-80.6924
-252.074
-445.679
-664.356
-910.944
-1188.02
-1497.54
-1840.22
-2214.83
-2617.22
-3040.06
1145.67
1167.87
1205.65
1245.64
1273.8
1286.7
1286.88
1276.96
1258.96
1234.94
1206.88
1176.34
1144.45
1111.98
1079.45
1047.17
1015.29
983.84
952.776
921.995
891.356
860.674
829.736
798.327
766.181
733.004
698.485
662.278
623.988
583.168
539.311
491.847
440.125
383.4
320.818
251.401
174.043
87.4912
-9.65017
-118.921
-241.982
-380.577
-536.454
-711.235
-906.221
-1122.1
-1358.55
-1613.74
-1883.72
-2162.33
1079.52
1093.12
1118.19
1148.82
1176.31
1196.61
1209.83
1217.03
1218.93
1216.15
1209.38
1199.24
1186.23
1170.73
1153.06
1133.5
1112.25
1089.49
1065.36
1039.97
1013.41
985.718
956.941
927.086
896.123
863.993
830.614
795.867
759.598
721.609
681.66
639.461
594.67
546.884
495.634
440.378
380.501
315.31
244.039
165.859
79.8992
-14.7149
-118.805
-233.046
-357.833
-493.102
-638.099
-791.12
-949.251
-1108.63
996.076
1006.17
1025.35
1049.9
1072.83
1089.53
1098.82
1101.06
1096.95
1087.3
1073.07
1055.23
1034.65
1012.03
987.949
962.842
937.046
910.808
884.3
857.636
830.886
804.09
777.263
750.4
723.476
696.453
669.283
641.908
614.256
586.247
557.789
528.777
499.097
468.62
437.202
404.689
370.91
335.691
298.853
260.23
219.682
177.118
132.533
86.0523
37.9937
-11.0519
-60.1283
-107.81
-152.085
-190.417
899.69
909.803
929.034
953.665
976.704
993.559
1003.03
1005.51
1001.68
992.38
978.568
961.231
941.242
919.327
896.07
871.935
847.279
822.375
797.424
772.579
747.952
723.632
699.688
676.18
653.161
630.683
608.8
587.573
567.072
547.381
528.6
510.846
494.264
479.023
465.325
453.411
443.566
436.127
431.494
430.138
432.611
439.555
451.705
469.887
495.015
528.064
570.037
621.91
684.556
758.724
790.335
803.999
829.204
860.076
887.91
908.65
922.429
930.304
933.023
931.23
925.625
916.857
905.458
891.855
876.413
859.448
841.242
822.046
802.092
781.598
760.771
739.815
718.93
698.317
678.182
658.738
640.21
622.843
606.903
592.688
580.53
570.808
563.954
560.461
560.895
565.906
576.242
592.758
616.429
648.362
689.793
742.085
806.702
885.165
978.977
1089.5
1217.8
1364.46
1529.28
1711.47
663.589
685.894
723.91
764.288
793.005
806.636
807.728
798.948
782.336
759.978
733.893
705.703
676.585
647.379
618.677
590.882
564.256
538.964
515.11
492.763
471.977
452.807
435.318
419.598
405.761
393.957
384.379
377.267
372.918
371.696
374.038
380.464
391.592
408.149
430.986
461.09
499.608
547.858
607.345
679.772
767.039
871.224
994.545
1139.27
1307.6
1501.43
1722.08
1969.96
2244.08
2542.45
509.61
554.142
626.183
698.937
755.051
796.96
829.816
854.362
870.295
878.387
879.871
875.816
867.116
854.593
839.004
821.028
801.262
780.24
758.44
736.297
714.217
692.582
671.766
652.143
634.094
618.022
604.36
593.586
586.23
582.893
584.259
591.111
604.349
625.006
654.277
693.531
744.344
808.521
888.111
985.433
1103.07
1243.85
1410.82
1607.07
1835.66
2099.2
2399.54
2737.07
3109.96
3514.3
300.82
386.62
495.133
557.831
561.429
534.573
497.753
457.448
416.706
378.321
343.815
313.455
286.962
263.917
243.88
226.437
211.233
197.997
186.541
176.759
168.623
162.176
157.529
154.862
154.421
156.523
161.561
170.01
182.439
199.521
222.05
250.951
287.308
332.38
387.626
454.738
535.666
632.653
748.266
885.422
1047.4
1237.84
1460.71
1720.18
2020.45
2365.4
2758.02
3199.67
3688.83
4221.44
1.20041
250.492
567.588
800.043
941.053
1031.79
1085.96
1107.11
1103.43
1083.73
1053.89
1017.61
977.462
935.364
892.653
850.258
808.837
768.869
730.727
694.712
661.095
630.138
602.114
577.323
556.107
538.861
526.052
518.228
516.037
520.243
531.744
551.594
581.029
621.492
674.665
742.504
827.278
931.613
1058.53
1211.51
1394.48
1611.89
1868.68
2170.2
2522.05
2929.74
3398.02
3929.82
4524.28
5175.98
-634.019
-224.723
-32.7389
-103.527
-204.513
-246.247
-255.809
-255.505
-248.138
-234.553
-217.521
-199.532
-181.994
-165.608
-150.712
-137.412
-125.635
-115.184
-105.779
-97.0808
-88.7043
-80.2245
-71.1777
-61.0585
-49.313
-35.3299
-18.4288
2.15422
27.2824
57.9372
95.2397
140.475
195.121
260.879
339.714
433.893
546.037
679.174
836.8
1022.94
1242.24
1499.98
1802.19
2155.64
2567.75
3046.45
3599.56
4233.74
4952.18
5753.31
-1079.15
1091.13
2274.82
2378.42
2223.12
2053.2
1869.06
1680.67
1505.69
1350.6
1214.62
1095.37
990.597
898.243
816.483
743.785
678.925
620.946
569.121
522.92
481.981
446.091
415.171
389.267
368.544
353.29
343.916
340.968
345.138
357.277
378.414
409.785
452.851
509.341
581.287
671.071
781.48
915.771
1077.75
1271.84
1503.23
1777.94
2103
2486.55
2938.03
3468.19
4088.94
4812.54
5649.12
6603.93
-8505.47
-3916.05
-2413.75
-1846.47
-1410.77
-1083.41
-856.738
-693.801
-571.488
-478.499
-407.484
-352.874
-310.626
-277.856
-252.421
-232.659
-217.242
-205.079
-195.25
-186.944
-179.428
-172.014
-164.03
-154.804
-143.639
-129.794
-112.467
-90.7723
-63.7173
-30.1817
11.1102
61.6195
123.026
197.269
286.59
393.59
521.287
673.199
853.424
1066.76
1318.83
1616.27
1966.95
2380.24
2867.46
3442.4
4121.9
4926.55
5879.97
7008.32
16932.3
8770.26
4737.81
3220.47
2387.56
1780.7
1359.49
1078.14
881.556
734.789
620.236
528.135
452.1
387.812
332.418
284.033
241.388
203.631
170.206
140.776
115.177
93.3869
75.5056
61.7455
52.4294
47.992
48.9871
56.0981
70.152
92.1377
123.228
164.807
218.5
286.215
370.183
473.019
597.781
748.053
928.039
1142.69
1397.85
1700.48
2058.94
2483.42
2986.58
3584.66
4299.35
5161.43
6217.82
7550.67
-20408.9
-15806.6
-14237.4
-10288.8
-8324.36
-4914.45
-2815.84
232.676
2334.43
5137.22
7164.79
9802.81
11698.4
14240.5
15945.3
18462.9
19892.9
22470.4
23470.1
26095.9
-20445.1
-15855.2
-14295.8
-10349.1
-8391.57
-4980.03
-2887.13
163.717
2261.1
5066.18
7090.32
9731.03
11624
14170.1
15873.8
18398.5
19831.3
22423.8
23437.2
26101.7
-20489.8
-15902.3
-14352.5
-10406.6
-8455.87
-5043.19
-2955.46
97.291
2190.66
4998.03
7019.11
9662.7
11553.7
14103.9
15807.5
18338.4
19775.1
22378.3
23401.5
26083.5
-20539.1
-15950.1
-14408.2
-10462.4
-8517.96
-5104.08
-3021.32
33.3013
2122.78
4932.5
6950.67
9597.22
11486.5
14040.5
15744.2
18280.4
19720
22330.6
23358.7
26048.6
-20590.6
-15998.8
-14463.5
-10516.9
-8578.43
-5163.16
-3085.21
-28.6558
2057.01
4869.1
6884.42
9533.86
11421.4
13979
15682.4
18223
19664.2
22279.5
23309.6
26004.1
-20643.4
-16048.1
-14518.4
-10570.7
-8637.71
-5220.81
-3147.52
-88.9626
1992.95
4807.4
6819.84
9472.03
11357.7
13918.4
15621.1
18165.3
19606.8
22225.5
23255.6
25953.3
-20696.7
-16097.6
-14573.1
-10623.8
-8696.06
-5277.34
-3208.59
-147.962
1930.22
4746.98
6756.48
9411.25
11294.8
13858.3
15559.9
18106.7
19547.7
22168.9
23197.9
25898.2
-20750.3
-16147.2
-14627.6
-10676.4
-8753.68
-5332.99
-3268.67
-205.933
1868.52
4687.51
6694
9351.14
11232.3
13798.2
15498.3
18047.4
19486.9
22110
23137.4
25840
-20803.8
-16196.7
-14681.7
-10728.6
-8810.7
-5387.93
-3327.98
-263.12
1807.59
4628.74
6632.11
9291.44
11170.1
13738.1
15436.3
17987.1
19424.8
22049.5
23074.7
25779.5
-20857.3
-16246
-14735.6
-10780.4
-8867.23
-5442.3
-3386.69
-319.713
1747.24
4570.46
6570.64
9231.96
11108
13677.8
15373.7
17926.1
19361.6
21987.4
23010.4
25717.2
-20910.5
-16295
-14789.2
-10831.8
-8923.34
-5496.22
-3444.91
-375.842
1687.33
4512.52
6509.42
9172.57
11045.8
13617.2
15310.6
17864.3
19297.3
21924.3
22944.8
25653.6
-20963.6
-16343.8
-14842.5
-10882.9
-8979.08
-5549.74
-3502.75
-431.611
1627.74
4454.81
6448.36
9113.2
10983.5
13556.3
15247
17802
19232.3
21860.2
22878.1
25588.8
-21016.3
-16392.3
-14895.6
-10933.6
-9034.5
-5602.94
-3560.26
-487.098
1568.41
4397.27
6387.41
9053.81
10921.1
13495.2
15183.1
17739.1
19166.6
21795.3
22810.6
25523.3
-21068.8
-16440.6
-14948.3
-10984
-9089.62
-5655.85
-3617.49
-542.353
1509.28
4339.85
6326.54
8994.38
10858.5
13433.8
15118.8
17675.7
19100.4
21729.9
22742.4
25457.1
-21121
-16488.5
-15000.8
-11034.2
-9144.47
-5708.49
-3674.48
-597.41
1450.33
4282.53
6265.72
8934.91
10795.9
13372.2
15054.2
17612.1
19033.8
21663.9
22673.8
25390.3
-21172.9
-16536.1
-15053
-11084
-9199.04
-5760.88
-3731.23
-652.285
1391.53
4225.29
6204.94
8875.39
10733.1
13310.5
14989.4
17548.1
18966.7
21597.6
22604.7
25323.1
-21224.5
-16583.4
-15104.9
-11133.6
-9253.34
-5813.03
-3787.76
-706.99
1332.89
4168.12
6144.22
8815.84
10670.3
13248.6
14924.5
17483.8
18899.5
21531
22535.2
25255.6
-21275.8
-16630.3
-15156.5
-11182.9
-9307.39
-5864.94
-3844.07
-761.529
1274.4
4111.04
6083.57
8756.29
10607.5
13186.6
14859.4
17419.5
18832
21464.1
22465.6
25187.9
-21326.8
-16677
-15207.8
-11231.9
-9361.17
-5916.62
-3900.17
-815.899
1216.07
4054.05
6023.02
8696.76
10544.7
13124.6
14794.2
17354.9
18764.4
21397.1
22395.7
25120
-21377.5
-16723.3
-15258.8
-11280.6
-9414.69
-5968.07
-3956.03
-870.094
1157.91
3997.17
5962.57
8637.27
10481.9
13062.6
14729
17290.4
18696.7
21330
22325.8
25052
-21427.9
-16769.3
-15309.6
-11329
-9467.95
-6019.28
-4011.67
-924.103
1099.94
3940.43
5902.26
8577.87
10419.2
13000.6
14663.8
17225.8
18629
21262.9
22255.8
24983.9
-21478
-16815
-15360.1
-11377.2
-9520.95
-6070.25
-4067.07
-977.913
1042.18
3883.84
5842.12
8518.57
10356.7
12938.6
14598.8
17161.3
18561.4
21195.8
22185.8
24915.9
-21527.7
-16860.4
-15410.2
-11425.1
-9573.67
-6120.96
-4122.21
-1031.51
984.648
3827.42
5782.16
8459.41
10294.3
12876.8
14533.8
17096.8
18493.8
21128.8
22115.9
24848
-21577.2
-16905.5
-15460.1
-11472.6
-9626.1
-6171.42
-4177.09
-1084.88
927.356
3771.19
5722.42
8400.41
10232
12815.1
14469
17032.5
18426.4
21061.9
22046.1
24780.2
-21626.4
-16950.3
-15509.7
-11519.9
-9678.25
-6221.6
-4231.69
-1138.01
870.326
3715.18
5662.93
8341.6
10170
12753.6
14404.4
16968.4
18359.1
20995.1
21976.5
24712.5
-21675.2
-16994.7
-15559
-11566.9
-9730.1
-6271.51
-4286
-1190.89
813.576
3659.39
5603.69
8283
10108.2
12692.3
14339.9
16904.4
18292.1
20928.6
21907
24645.1
-21723.7
-17038.8
-15608
-11613.6
-9781.64
-6321.13
-4340
-1243.5
757.12
3603.86
5544.73
8224.63
10046.7
12631.2
14275.8
16840.7
18225.2
20862.2
21837.8
24577.9
-21771.9
-17082.6
-15656.7
-11659.9
-9832.87
-6370.46
-4393.7
-1295.83
700.973
3548.58
5486.06
8166.5
9985.42
12570.3
14211.9
16777.1
18158.6
20796.1
21768.8
24510.9
-21819.8
-17126.1
-15705
-11706
-9883.78
-6419.49
-4447.06
-1347.88
645.148
3493.58
5427.71
8108.64
9924.47
12509.7
14148.2
16713.9
18092.3
20730.3
21700.1
24444.2
-21867.4
-17169.2
-15753.1
-11751.7
-9934.35
-6468.19
-4500.09
-1399.62
589.66
3438.87
5369.69
8051.06
9863.84
12449.4
14084.9
16650.9
18026.3
20664.8
21631.6
24377.8
-21914.6
-17211.9
-15800.8
-11797.1
-9984.58
-6516.57
-4552.76
-1451.05
534.522
3384.46
5312.01
7993.77
9803.53
12389.3
14021.9
16588.2
17960.5
20599.5
21563.5
24311.7
-21961.4
-17254.3
-15848.1
-11842.1
-10034.4
-6564.62
-4605.08
-1502.16
479.744
3330.36
5254.69
7936.79
9743.58
12329.6
13959.2
16525.8
17895.1
20534.6
21495.6
24245.9
-22007.9
-17296.3
-15895.1
-11886.7
-10083.9
-6612.33
-4657.03
-1552.94
425.335
3276.58
5197.73
7880.12
9683.98
12270.1
13896.9
16463.7
17830.1
20470
21428.1
24180.4
-22054
-17337.9
-15941.7
-11931
-10133.1
-6659.68
-4708.6
-1603.39
371.3
3223.13
5141.15
7823.77
9624.76
12211.1
13834.9
16402
17765.4
20405.7
21360.9
24115.3
-22099.7
-17379.1
-15987.9
-11974.9
-10181.8
-6706.69
-4759.79
-1653.5
317.645
3170
5084.94
7767.76
9565.91
12152.3
13773.4
16340.6
17701
20341.8
21294.1
24050.5
-22145.1
-17419.9
-16033.8
-12018.5
-10230.2
-6753.34
-4810.6
-1703.27
264.375
3117.2
5029.12
7712.07
9507.43
12093.9
13712.1
16279.6
17637
20278.2
21227.6
23986.1
-22190.1
-17460.4
-16079.3
-12061.7
-10278.2
-6799.64
-4861.02
-1752.71
211.489
3064.73
4973.68
7656.71
9449.35
12035.8
13651.3
16218.9
17573.4
20215
21161.5
23922.1
-22234.7
-17500.5
-16124.4
-12104.5
-10325.8
-6845.58
-4911.05
-1801.8
158.991
3012.59
4918.63
7601.69
9391.65
11978
13590.9
16158.6
17510.2
20152.2
21095.8
23858.5
-22278.9
-17540.1
-16169.1
-12146.9
-10373
-6891.17
-4960.7
-1850.56
106.88
2960.78
4863.97
7547
9334.34
11920.6
13530.8
16098.6
17447.4
20089.7
21030.4
23795.2
-22322.7
-17579.4
-16213.5
-12189
-10419.8
-6936.4
-5009.96
-1898.98
55.1607
2909.31
4809.7
7492.65
9277.42
11863.6
13471.1
16039
17384.9
20027.7
20965.4
23732.4
-22366.2
-17618.3
-16257.4
-12230.7
-10466.3
-6981.29
-5058.82
-1947.07
3.83508
2858.17
4755.82
7438.64
9220.9
11806.9
13411.9
15979.7
17322.8
19966
20900.8
23669.9
-22409.3
-17656.9
-16301.1
-12272
-10512.4
-7025.84
-5107.31
-1994.81
-47.0932
2807.36
4702.35
7384.96
9164.77
11750.5
13353
15920.9
17261.1
19904.6
20836.6
23607.8
-22452.1
-17695
-16344.3
-12313
-10558.1
-7070.04
-5155.4
-2042.21
-97.6215
2756.9
4649.27
7331.62
9109.04
11694.5
13294.5
15862.3
17199.8
19843.7
20772.8
23546.1
-22494.5
-17732.9
-16387.3
-12353.7
-10603.4
-7113.9
-5203.1
-2089.28
-147.748
2706.77
4596.6
7278.63
9053.71
11638.9
13236.4
15804.2
17138.9
19783.1
20709.3
23484.8
-22536.6
-17770.3
-16429.8
-12394
-10648.4
-7157.42
-5250.42
-2136.01
-197.474
2656.98
4544.34
7225.97
8998.77
11583.5
13178.6
15746.3
17078.4
19722.9
20646.2
23423.9
-22578.4
-17807.4
-16472.1
-12434
-10693
-7200.61
-5297.34
-2182.41
-246.798
2607.52
4492.48
7173.65
8944.24
11528.6
13121.3
15688.9
17018.2
19663.1
20583.5
23363.3
-22619.8
-17844.2
-16513.9
-12473.6
-10737.2
-7243.47
-5343.89
-2228.48
-295.724
2558.4
4441.02
7121.66
8890.1
11473.9
13064.4
15631.8
16958.4
19603.7
20521.1
23303.2
-22660.9
-17880.6
-16555.5
-12512.9
-10781.1
-7286.01
-5390.05
-2274.22
-344.255
2509.6
4389.96
7070.01
8836.36
11419.7
13007.8
15575
16899
19544.6
20459.2
23243.4
-22701.6
-17916.7
-16596.7
-12551.9
-10824.6
-7328.22
-5435.83
-2319.64
-392.395
2461.12
4339.3
7018.68
8783.03
11365.7
12951.7
15518.7
16840
19485.9
20397.6
23184.1
-22742.1
-17952.4
-16637.6
-12590.5
-10867.7
-7370.11
-5481.23
-2364.75
-440.146
2412.96
4289.04
6967.69
8730.09
11312.1
12895.9
15462.6
16781.4
19427.6
20336.4
23125.1
-22782.2
-17987.8
-16678.1
-12628.8
-10910.5
-7411.68
-5526.26
-2409.55
-487.512
2365.11
4239.17
6917.02
8677.55
11258.8
12840.6
15407
16723.2
19369.6
20275.5
23066.6
-22821.9
-18022.9
-16718.3
-12666.8
-10953
-7452.94
-5570.92
-2454.04
-534.492
2317.58
4189.69
6866.67
8625.41
11205.9
12785.6
15351.7
16665.4
19312.1
20215.1
23008.4
-22861.4
-18057.6
-16758.2
-12704.4
-10995
-7493.89
-5615.2
-2498.23
-581.089
2270.34
4140.61
6816.64
8573.66
11153.4
12731
15296.7
16607.9
19254.9
20155.1
22950.6
-22900.5
-18092
-16797.7
-12741.8
-11036.8
-7534.53
-5659.11
-2542.12
-627.305
2223.41
4091.91
6766.92
8522.3
11101.1
12676.9
15242.1
16550.9
19198.1
20095.4
22893.3
-22939.4
-18126.1
-16836.9
-12778.8
-11078.1
-7574.87
-5702.66
-2585.72
-673.142
2176.78
4043.6
6717.51
8471.33
11049.2
12623.1
15187.9
16494.2
19141.7
20036.1
22836.3
-22977.9
-18159.9
-16875.8
-12815.6
-11119.2
-7614.92
-5745.84
-2629.02
-718.605
2130.44
3995.66
6668.4
8420.74
10997.6
12569.7
15134
16438
19085.7
19977.2
22779.8
-23016.1
-18193.3
-16914.3
-12852
-11159.9
-7654.68
-5788.66
-2672.04
-763.696
2084.38
3948.11
6619.59
8370.54
10946.3
12516.7
15080.5
16382.1
19030
19918.7
22723.6
-23054
-18226.4
-16952.6
-12888.1
-11200.2
-7694.16
-5831.13
-2714.79
-808.42
2038.6
3900.93
6571.07
8320.71
10895.3
12464
15027.3
16326.6
18974.7
19860.6
22667.8
-23091.7
-18259.3
-16990.6
-12924
-11240.3
-7733.37
-5873.25
-2757.26
-852.775
1993.11
3854.13
6522.85
8271.27
10844.7
12411.8
14974.4
16271.4
18919.8
19802.8
22612.5
-23129.1
-18291.9
-17028.3
-12959.6
-11280
-7772.31
-5915.03
-2799.47
-896.762
1947.9
3807.71
6474.93
8222.21
10794.4
12359.9
14921.9
16216.7
18865.3
19745.5
22557.5
-23166.2
-18324.2
-17065.7
-12994.9
-11319.4
-7810.99
-5956.45
-2841.4
-940.376
1902.97
3761.68
6427.32
8173.55
10744.4
12308.4
14869.8
16162.4
18811.2
19688.5
22503
-23203
-18356.2
-17102.8
-13030
-11358.4
-7849.41
-5997.52
-2883.06
-983.614
1858.32
3716.04
6380.01
8125.28
10694.7
12257.4
14818
16108.4
18757.4
19631.9
22448.8
-23239.6
-18387.9
-17139.6
-13064.8
-11397.2
-7887.56
-6038.24
-2924.46
-1026.47
1813.97
3670.8
6333.01
8077.42
10645.4
12206.7
14766.6
16054.9
18704.1
19575.8
22395.1
-23275.9
-18419.4
-17176.1
-13099.3
-11435.6
-7925.44
-6078.59
-2965.57
-1068.94
1769.9
3625.96
6286.32
8029.98
10596.4
12156.4
14715.6
16001.8
18651.1
19520
22341.8
-23312
-18450.6
-17212.4
-13133.5
-11473.7
-7963.06
-6118.58
-3006.41
-1111.02
1726.13
3581.53
6239.96
7982.94
10547.8
12106.6
14664.9
15949.1
18598.6
19464.6
22289
-23347.8
-18481.5
-17248.3
-13167.5
-11511.5
-8000.41
-6158.21
-3046.97
-1152.71
1682.66
3537.5
6193.91
7936.33
10499.5
12057.2
14614.6
15896.8
18546.4
19409.7
22236.6
-23383.3
-18512.1
-17284
-13201.2
-11548.9
-8037.48
-6197.45
-3087.25
-1193.99
1639.49
3493.9
6148.19
7890.14
10451.5
12008.2
14564.7
15844.9
18494.7
19355.2
22184.6
-23418.5
-18542.4
-17319.3
-13234.7
-11586
-8074.26
-6236.31
-3127.24
-1234.87
1596.61
3450.71
6102.79
7844.38
10403.9
11959.6
14515.2
15793.5
18443.4
19301.1
22133
-23453.4
-18572.4
-17354.3
-13267.8
-11622.6
-8110.76
-6274.78
-3166.93
-1275.34
1554.05
3407.96
6057.72
7799.04
10356.7
11911.5
14466
15742.5
18392.5
19247.4
22081.9
-23488
-18602.1
-17389
-13300.6
-11659
-8146.96
-6312.84
-3206.33
-1315.38
1511.79
3365.63
6012.98
7754.15
10309.8
11863.8
14417.3
15691.9
18342
19194.2
22031.3
-23522.2
-18631.5
-17423.3
-13333.1
-11694.9
-8182.86
-6350.49
-3245.43
-1355
1469.85
3323.73
5968.57
7709.69
10263.3
11816.6
14368.9
15641.8
18292
19141.4
21981.1
-23556.2
-18660.5
-17457.3
-13365.3
-11730.5
-8218.45
-6387.73
-3284.22
-1394.18
1428.22
3282.29
5924.51
7665.68
10217.2
11769.8
14321
15592.1
18242.4
19089.1
21931.4
-23589.8
-18689.2
-17490.9
-13397.2
-11765.6
-8253.73
-6424.54
-3322.7
-1432.92
1386.91
3241.29
5880.79
7622.13
10171.4
11723.4
14273.4
15542.9
18193.2
19037.2
21882.1
-23623.1
-18717.6
-17524.1
-13428.7
-11800.4
-8288.7
-6460.93
-3360.87
-1471.22
1345.93
3200.74
5837.41
7579.04
10126.1
11677.6
14226.3
15494.1
18144.5
18985.8
21833.3
-23656
-18745.6
-17557
-13460
-11834.7
-8323.37
-6496.88
-3398.73
-1509.07
1305.28
3160.67
5794.4
7536.42
10081.1
11632.2
14179.6
15445.8
18096.3
18934.8
21785
-23688.6
-18773.3
-17589.5
-13490.9
-11868.7
-8357.73
-6532.4
-3436.28
-1546.46
1264.96
3121.06
5751.74
7494.27
10036.5
11587.2
14133.3
15398
18048.5
18884.3
21737.2
-23720.9
-18800.6
-17621.7
-13521.5
-11902.2
-8391.78
-6567.49
-3473.51
-1583.39
1224.98
3081.92
5709.45
7452.61
9992.27
11542.8
14087.5
15350.7
18001.2
18834.3
21689.9
-23752.8
-18827.7
-17653.5
-13551.8
-11935.3
-8425.52
-6602.13
-3510.42
-1619.86
1185.33
3043.27
5667.53
7411.43
9948.47
11498.8
14042.1
15303.9
17954.3
18784.8
21643.1
-23784.4
-18854.4
-17684.9
-13581.8
-11968.1
-8458.96
-6636.32
-3547.01
-1655.85
1146.03
3005.11
5625.99
7370.76
9905.09
11455.4
13997.2
15257.5
17908
18735.8
21596.9
-23815.6
-18880.7
-17716
-13611.4
-12000.4
-8492.08
-6670.06
-3583.28
-1691.35
1107.08
2967.44
5584.83
7330.59
9862.12
11412.4
13952.7
15211.7
17862.1
18687.3
21551.1
-23846.5
-18906.7
-17746.6
-13640.8
-12032.2
-8524.88
-6703.33
-3619.21
-1726.37
1068.49
2930.28
5544.05
7290.93
9819.58
11370
13908.6
15166.4
17816.8
18639.3
21505.9
-23877.1
-18932.4
-17776.9
-13669.8
-12063.7
-8557.36
-6736.12
-3654.81
-1760.89