/*--------------------------------*- C++ -*----------------------------------*\
  =========                 |
  \\      /  F ield         | OpenFOAM: The Open Source CFD Toolbox
   \\    /   O peration     | Website:  https://openfoam.org
    \\  /    A nd           | Version:  8
     \\/     M anipulation  |
\*---------------------------------------------------------------------------*/
FoamFile
{
    version     2.0;
    format      ascii;
    class       volScalarField;
    location    "200";
    object      T;
}
// * * * * * * * * * * * * * * * * * * * * * * * * * * * * * * * * * * * * * //

dimensions      [0 0 0 1 0 0 0];

internalField   nonuniform List<scalar> 
8400
(
292.968
292.966
292.964
292.962
292.96
292.959
292.957
292.955
292.954
292.952
292.951
292.949
292.948
292.946
292.945
292.944
292.943
292.942
292.941
292.94
292.939
292.939
292.938
292.937
292.937
292.936
292.936
292.935
292.935
292.934
292.934
292.933
292.933
292.932
292.932
292.932
292.931
292.931
292.93
292.929
292.929
292.928
292.927
292.926
292.925
292.924
292.922
292.92
292.918
292.916
293.131
293.13
293.129
293.128
293.127
293.126
293.125
293.125
293.124
293.123
293.122
293.122
293.121
293.121
293.12
293.12
293.12
293.119
293.119
293.119
293.119
293.119
293.119
293.119
293.119
293.12
293.12
293.12
293.12
293.121
293.121
293.121
293.122
293.122
293.122
293.123
293.123
293.123
293.123
293.124
293.124
293.124
293.124
293.124
293.124
293.124
293.124
293.124
293.124
293.123
293.154
293.153
293.152
293.151
293.151
293.15
293.149
293.149
293.148
293.148
293.147
293.147
293.146
293.146
293.146
293.146
293.145
293.145
293.145
293.145
293.145
293.145
293.145
293.146
293.146
293.146
293.146
293.147
293.147
293.148
293.148
293.148
293.149
293.149
293.15
293.15
293.151
293.151
293.152
293.152
293.152
293.153
293.153
293.154
293.154
293.154
293.154
293.155
293.155
293.155
293.165
293.164
293.164
293.163
293.162
293.162
293.161
293.161
293.16
293.16
293.159
293.159
293.158
293.158
293.157
293.157
293.157
293.156
293.156
293.156
293.156
293.156
293.155
293.155
293.155
293.155
293.155
293.155
293.155
293.156
293.156
293.156
293.156
293.156
293.156
293.157
293.157
293.157
293.157
293.157
293.158
293.158
293.158
293.158
293.158
293.159
293.159
293.159
293.159
293.159
293.175
293.175
293.175
293.174
293.174
293.174
293.173
293.173
293.172
293.172
293.171
293.171
293.17
293.17
293.169
293.169
293.168
293.168
293.167
293.167
293.167
293.166
293.166
293.165
293.165
293.164
293.164
293.164
293.163
293.163
293.163
293.162
293.162
293.162
293.162
293.162
293.161
293.161
293.161
293.161
293.161
293.161
293.161
293.161
293.161
293.161
293.161
293.161
293.161
293.16
293.188
293.188
293.188
293.188
293.187
293.187
293.187
293.187
293.186
293.186
293.186
293.185
293.185
293.184
293.184
293.183
293.182
293.182
293.181
293.18
293.18
293.179
293.178
293.177
293.176
293.176
293.175
293.174
293.173
293.173
293.172
293.171
293.17
293.17
293.169
293.169
293.168
293.167
293.167
293.166
293.166
293.166
293.165
293.165
293.164
293.164
293.164
293.164
293.163
293.163
293.198
293.198
293.198
293.199
293.199
293.199
293.199
293.199
293.198
293.198
293.198
293.197
293.197
293.196
293.196
293.195
293.194
293.194
293.193
293.192
293.191
293.19
293.189
293.188
293.186
293.185
293.184
293.183
293.182
293.181
293.18
293.178
293.177
293.176
293.175
293.174
293.173
293.172
293.172
293.171
293.17
293.169
293.169
293.168
293.167
293.167
293.166
293.166
293.165
293.165
293.207
293.207
293.208
293.208
293.208
293.209
293.209
293.209
293.209
293.209
293.208
293.208
293.207
293.207
293.206
293.205
293.205
293.204
293.203
293.202
293.2
293.199
293.198
293.196
293.195
293.194
293.192
293.191
293.189
293.188
293.186
293.185
293.184
293.182
293.181
293.18
293.178
293.177
293.176
293.175
293.174
293.173
293.172
293.171
293.17
293.17
293.169
293.168
293.168
293.167
293.213
293.214
293.214
293.215
293.215
293.215
293.215
293.215
293.215
293.215
293.215
293.215
293.214
293.214
293.213
293.212
293.211
293.21
293.209
293.208
293.206
293.205
293.204
293.202
293.201
293.199
293.197
293.196
293.194
293.192
293.191
293.189
293.187
293.186
293.184
293.183
293.182
293.18
293.179
293.178
293.176
293.175
293.174
293.173
293.172
293.172
293.171
293.17
293.169
293.169
293.217
293.218
293.218
293.219
293.219
293.219
293.219
293.22
293.22
293.219
293.219
293.219
293.218
293.218
293.217
293.216
293.215
293.214
293.213
293.211
293.21
293.208
293.207
293.205
293.204
293.202
293.2
293.199
293.197
293.195
293.193
293.192
293.19
293.188
293.187
293.185
293.184
293.182
293.181
293.18
293.178
293.177
293.176
293.175
293.174
293.173
293.172
293.171
293.171
293.17
293.219
293.219
293.22
293.22
293.221
293.221
293.221
293.221
293.221
293.221
293.221
293.22
293.22
293.219
293.218
293.217
293.216
293.215
293.214
293.212
293.211
293.21
293.208
293.206
293.205
293.203
293.201
293.2
293.198
293.196
293.194
293.193
293.191
293.189
293.188
293.186
293.185
293.183
293.182
293.181
293.179
293.178
293.177
293.176
293.175
293.174
293.173
293.173
293.172
293.171
293.218
293.219
293.219
293.22
293.22
293.22
293.22
293.22
293.22
293.22
293.22
293.219
293.218
293.218
293.217
293.216
293.215
293.214
293.213
293.211
293.21
293.209
293.207
293.205
293.204
293.202
293.201
293.199
293.197
293.196
293.194
293.192
293.191
293.189
293.188
293.186
293.185
293.183
293.182
293.181
293.18
293.179
293.178
293.177
293.176
293.175
293.174
293.173
293.172
293.172
293.217
293.217
293.218
293.218
293.218
293.218
293.218
293.218
293.218
293.218
293.217
293.217
293.216
293.215
293.215
293.214
293.213
293.212
293.21
293.209
293.208
293.207
293.205
293.204
293.202
293.201
293.199
293.198
293.196
293.195
293.193
293.192
293.19
293.189
293.187
293.186
293.185
293.183
293.182
293.181
293.18
293.179
293.178
293.177
293.176
293.176
293.175
293.174
293.173
293.173
293.213
293.213
293.213
293.214
293.214
293.214
293.214
293.213
293.213
293.213
293.212
293.212
293.211
293.211
293.21
293.209
293.208
293.207
293.206
293.205
293.204
293.202
293.201
293.2
293.199
293.197
293.196
293.195
293.193
293.192
293.191
293.189
293.188
293.187
293.186
293.184
293.183
293.182
293.181
293.18
293.179
293.178
293.178
293.177
293.176
293.175
293.175
293.174
293.173
293.173
293.209
293.209
293.209
293.209
293.209
293.209
293.209
293.209
293.209
293.208
293.208
293.207
293.207
293.206
293.205
293.205
293.204
293.203
293.202
293.201
293.2
293.199
293.198
293.197
293.196
293.194
293.193
293.192
293.191
293.19
293.189
293.188
293.187
293.186
293.185
293.184
293.183
293.182
293.181
293.18
293.18
293.179
293.178
293.178
293.177
293.176
293.176
293.175
293.175
293.174
293.201
293.202
293.202
293.202
293.201
293.201
293.201
293.201
293.201
293.2
293.2
293.199
293.199
293.198
293.198
293.197
293.196
293.196
293.195
293.194
293.193
293.192
293.192
293.191
293.19
293.189
293.188
293.187
293.187
293.186
293.185
293.184
293.183
293.183
293.182
293.181
293.18
293.18
293.179
293.178
293.178
293.177
293.177
293.176
293.176
293.175
293.175
293.174
293.174
293.173
293.196
293.196
293.196
293.196
293.196
293.195
293.195
293.195
293.195
293.194
293.194
293.194
293.193
293.193
293.192
293.192
293.191
293.191
293.19
293.19
293.189
293.188
293.188
293.187
293.186
293.186
293.185
293.185
293.184
293.183
293.183
293.182
293.182
293.181
293.181
293.18
293.18
293.179
293.179
293.178
293.178
293.177
293.177
293.177
293.176
293.176
293.175
293.175
293.175
293.174
293.182
293.182
293.182
293.181
293.181
293.181
293.181
293.181
293.181
293.18
293.18
293.18
293.179
293.179
293.179
293.178
293.178
293.178
293.177
293.177
293.176
293.176
293.176
293.175
293.175
293.174
293.174
293.174
293.173
293.173
293.172
293.172
293.172
293.171
293.171
293.171
293.17
293.17
293.17
293.169
293.169
293.169
293.169
293.169
293.169
293.168
293.168
293.168
293.169
293.169
293.153
293.153
293.153
293.153
293.152
293.152
293.152
293.151
293.151
293.151
293.15
293.15
293.149
293.149
293.148
293.148
293.147
293.147
293.146
293.146
293.145
293.145
293.144
293.144
293.143
293.143
293.142
293.142
293.141
293.141
293.14
293.14
293.139
293.139
293.138
293.138
293.137
293.137
293.137
293.136
293.136
293.136
293.136
293.135
293.135
293.135
293.136
293.136
293.137
293.138
292.993
292.992
292.991
292.991
292.99
292.989
292.988
292.988
292.987
292.986
292.985
292.984
292.983
292.982
292.981
292.98
292.979
292.978
292.978
292.977
292.976
292.975
292.974
292.973
292.972
292.971
292.97
292.97
292.969
292.968
292.968
292.967
292.966
292.966
292.965
292.965
292.965
292.964
292.964
292.963
292.963
292.963
292.963
292.962
292.962
292.962
292.961
292.961
292.961
292.961
303.15
303.15
303.147
303.143
303.139
303.136
303.132
303.129
303.125
303.122
303.119
303.116
303.112
303.109
303.106
303.103
303.1
303.097
303.094
303.091
303.088
303.085
303.082
303.079
303.076
303.074
303.071
303.068
303.066
303.063
303.06
303.058
303.055
303.053
303.05
303.048
303.045
303.043
303.04
303.038
303.036
303.033
303.031
303.029
303.027
303.025
303.023
303.021
303.02
303.019
303.15
303.15
303.149
303.149
303.149
303.149
303.149
303.149
303.149
303.148
303.148
303.148
303.148
303.147
303.147
303.147
303.147
303.146
303.146
303.146
303.145
303.145
303.145
303.144
303.144
303.143
303.143
303.143
303.142
303.142
303.141
303.141
303.141
303.14
303.14
303.139
303.139
303.139
303.138
303.138
303.138
303.137
303.137
303.136
303.136
303.136
303.135
303.135
303.135
303.135
303.15
303.15
303.15
303.15
303.15
303.15
303.15
303.15
303.15
303.15
303.15
303.15
303.15
303.15
303.15
303.15
303.15
303.15
303.15
303.15
303.15
303.15
303.15
303.15
303.15
303.15
303.15
303.15
303.15
303.149
303.149
303.149
303.149
303.149
303.149
303.149
303.149
303.149
303.149
303.149
303.149
303.149
303.149
303.149
303.149
303.149
303.149
303.149
303.149
303.149
303.15
303.15
303.15
303.15
303.15
303.15
303.15
303.15
303.15
303.15
303.15
303.15
303.15
303.15
303.15
303.15
303.15
303.15
303.15
303.15
303.15
303.15
303.15
303.15
303.15
303.15
303.15
303.15
303.15
303.15
303.15
303.15
303.15
303.15
303.15
303.15
303.15
303.15
303.15
303.15
303.15
303.15
303.15
303.15
303.15
303.15
303.15
303.15
303.15
303.15
303.15
303.15
303.15
303.15
303.15
303.15
303.15
303.15
303.15
303.15
303.15
303.15
303.15
303.15
303.15
303.15
303.15
303.15
303.15
303.15
303.15
303.15
303.15
303.15
303.15
303.15
303.15
303.15
303.15
303.15
303.15
303.15
303.15
303.15
303.15
303.15
303.15
303.15
303.15
303.15
303.15
303.15
303.15
303.15
303.15
303.15
303.15
303.15
303.15
303.15
303.15
303.15
303.15
303.15
303.15
303.15
303.15
303.15
303.15
303.15
303.15
303.15
303.15
303.15
303.15
303.15
303.15
303.15
303.15
303.15
303.15
303.15
303.15
303.15
303.15
303.15
303.15
303.15
303.15
303.15
303.15
303.15
303.15
303.15
303.15
303.15
303.15
303.15
303.15
303.15
303.15
303.15
303.15
303.15
303.15
303.15
303.15
303.15
303.15
303.15
303.15
303.15
303.15
303.15
303.15
303.15
303.15
303.15
303.15
303.15
303.15
303.15
303.15
303.15
303.15
303.15
303.15
303.15
303.15
303.15
303.15
303.15
303.15
303.15
303.15
303.15
303.15
303.15
303.15
303.15
303.15
303.15
303.15
303.15
303.15
303.15
303.15
303.15
303.15
303.15
303.15
303.15
303.15
303.15
303.15
303.15
303.15
303.15
303.15
303.15
303.15
303.15
303.15
303.15
303.15
303.15
303.15
303.15
303.15
303.15
303.15
303.15
303.15
303.15
303.15
303.15
303.15
303.15
303.15
303.15
303.15
303.15
303.15
303.15
303.15
303.15
303.15
303.15
303.15
303.15
303.15
303.15
303.15
303.15
303.15
303.15
303.15
303.15
303.15
303.15
303.15
303.15
303.15
303.15
303.15
303.15
303.15
303.15
303.15
303.15
303.15
303.15
303.15
303.15
303.15
303.15
303.15
303.15
303.15
303.15
303.15
303.15
303.15
303.15
303.15
303.15
303.15
303.15
303.15
303.15
303.15
303.15
303.15
303.15
303.15
303.15
303.15
303.15
303.15
303.15
303.15
303.15
303.15
303.15
303.15
303.15
303.15
303.15
303.15
303.15
303.15
303.15
303.15
303.15
303.15
303.15
303.15
303.15
303.15
303.15
303.15
303.15
303.15
303.15
303.15
303.15
303.15
303.15
303.15
303.15
303.15
303.15
303.15
303.15
303.15
303.15
303.15
303.15
303.15
303.15
303.15
303.15
303.15
303.15
303.15
303.15
303.15
303.15
303.15
303.15
303.15
303.15
303.15
303.15
303.15
303.15
303.15
303.15
303.15
303.15
303.15
303.15
303.15
303.15
303.15
303.15
303.15
303.15
303.15
303.15
303.15
303.15
303.15
303.15
303.15
303.15
303.15
303.15
303.15
303.15
303.15
303.15
303.15
303.15
303.15
303.15
303.15
303.15
303.15
303.15
303.15
303.15
303.15
303.15
303.15
303.15
303.15
303.15
303.15
303.15
303.15
303.15
303.15
303.15
303.15
303.15
303.15
303.15
303.15
303.15
303.15
303.15
303.15
303.15
303.15
303.15
303.15
303.15
303.15
303.15
303.15
303.15
303.15
303.15
303.15
303.15
303.15
303.15
303.15
303.15
303.15
303.15
303.15
303.15
303.15
303.15
303.15
303.15
303.15
303.15
303.15
303.15
303.15
303.15
303.15
303.15
303.15
303.15
303.15
303.15
303.15
303.15
303.15
303.15
303.15
303.15
303.15
303.15
303.15
303.15
303.15
303.15
303.15
303.15
303.15
303.15
303.15
303.15
303.15
303.15
303.15
303.15
303.15
303.15
303.15
303.15
303.15
303.15
303.15
303.15
303.15
303.15
303.15
303.15
303.15
303.15
303.15
303.15
303.15
303.15
303.15
303.15
303.15
303.15
303.15
303.15
303.15
303.15
303.15
303.15
303.15
303.15
303.15
303.15
303.15
303.15
303.15
303.15
303.15
303.15
303.15
303.15
303.15
303.15
303.15
303.15
303.15
303.15
303.15
303.15
303.15
303.15
303.15
303.15
303.15
303.15
303.15
303.15
303.15
303.15
303.15
303.15
303.15
303.15
303.15
303.15
303.15
303.15
303.15
303.15
303.15
303.15
303.15
303.15
303.15
303.15
303.15
303.15
303.15
303.15
303.15
303.15
303.15
303.15
303.15
303.15
303.15
303.15
303.15
303.15
303.15
303.15
303.15
303.15
303.15
303.15
303.15
303.15
303.15
303.15
303.15
303.15
303.15
303.15
303.15
303.15
303.15
303.15
303.15
303.15
303.15
303.15
303.15
303.15
303.15
303.15
303.15
303.15
303.15
303.15
303.15
303.15
303.15
303.15
303.15
303.15
303.15
303.15
303.15
303.15
303.15
303.15
303.15
303.15
303.15
303.15
303.15
303.15
303.15
303.15
303.15
303.15
303.15
303.15
303.15
303.15
303.15
303.15
303.15
303.15
303.15
303.15
303.15
303.15
303.15
303.15
303.15
303.15
303.15
303.15
303.15
303.15
303.15
303.15
303.15
303.15
303.15
303.15
303.15
303.15
303.15
303.15
303.15
303.15
303.15
303.15
303.15
303.15
303.15
303.15
303.15
303.15
303.15
303.15
303.15
303.15
303.15
303.15
303.15
303.15
303.15
303.15
303.15
303.15
303.15
303.15
303.15
303.15
303.15
303.15
303.15
303.15
303.15
303.15
303.15
303.15
303.15
303.15
303.15
303.15
303.15
303.15
303.15
303.15
303.15
303.15
303.15
303.15
303.15
303.15
303.15
303.15
303.15
303.15
303.15
303.15
303.15
303.15
303.15
303.15
303.15
303.15
303.15
303.15
303.15
303.15
303.15
303.15
303.15
303.15
303.15
303.15
303.15
303.15
303.15
303.15
303.15
303.15
303.15
303.15
303.15
303.15
303.15
303.15
303.15
303.15
303.15
303.15
303.15
303.15
303.15
303.15
303.15
303.15
303.15
303.15
303.15
303.15
303.15
303.15
303.15
303.15
303.15
303.15
303.15
303.15
303.15
303.15
303.149
303.149
303.149
303.149
303.149
303.149
303.149
303.149
303.149
303.149
303.149
303.149
303.149
303.149
303.149
303.149
303.148
303.148
303.148
303.148
303.148
303.147
303.15
303.15
303.149
303.149
303.149
303.149
303.149
303.149
303.149
303.148
303.148
303.148
303.148
303.147
303.147
303.147
303.147
303.146
303.146
303.146
303.145
303.145
303.144
303.144
303.144
303.143
303.143
303.142
303.142
303.142
303.141
303.141
303.14
303.14
303.139
303.139
303.138
303.138
303.137
303.137
303.136
303.135
303.135
303.134
303.133
303.132
303.132
303.131
303.129
303.128
303.15
303.15
303.147
303.143
303.139
303.136
303.132
303.129
303.125
303.122
303.119
303.115
303.112
303.109
303.106
303.103
303.1
303.097
303.094
303.091
303.088
303.085
303.082
303.079
303.076
303.074
303.071
303.068
303.066
303.063
303.06
303.058
303.055
303.053
303.05
303.048
303.045
303.043
303.04
303.038
303.035
303.033
303.031
303.028
303.026
303.024
303.021
303.019
303.017
303.015
295.365
295.554
295.65
295.691
295.721
295.736
295.753
295.763
295.776
295.782
295.785
295.78
295.774
295.766
295.755
295.741
295.718
295.678
295.579
295.327
295.523
295.711
295.808
295.851
295.881
295.897
295.914
295.924
295.937
295.944
295.946
295.942
295.935
295.927
295.916
295.902
295.878
295.836
295.737
295.486
295.687
295.872
295.972
296.015
296.046
296.062
296.08
296.091
296.103
296.11
296.113
296.108
296.101
296.093
296.082
296.067
296.042
296
295.9
295.65
295.855
296.04
296.14
296.185
296.217
296.233
296.25
296.262
296.275
296.282
296.284
296.28
296.272
296.264
296.252
296.237
296.212
296.169
296.068
295.819
296.028
296.212
296.313
296.359
296.391
296.408
296.426
296.437
296.451
296.457
296.46
296.455
296.448
296.439
296.428
296.412
296.386
296.342
296.241
295.992
296.205
296.388
296.491
296.538
296.571
296.588
296.606
296.617
296.631
296.638
296.64
296.635
296.628
296.619
296.607
296.591
296.565
296.52
296.418
296.171
296.387
296.569
296.673
296.72
296.754
296.771
296.789
296.801
296.815
296.822
296.824
296.819
296.811
296.802
296.79
296.775
296.748
296.702
296.6
296.353
296.573
296.754
296.859
296.907
296.941
296.958
296.977
296.989
297.002
297.009
297.012
297.007
296.999
296.989
296.978
296.961
296.934
296.888
296.785
296.539
296.762
296.943
297.049
297.097
297.132
297.149
297.168
297.179
297.193
297.2
297.203
297.198
297.189
297.18
297.168
297.152
297.124
297.078
296.974
296.729
296.954
297.134
297.241
297.29
297.325
297.343
297.361
297.373
297.387
297.394
297.396
297.391
297.383
297.373
297.361
297.345
297.317
297.27
297.166
296.922
297.149
297.329
297.437
297.486
297.521
297.538
297.557
297.569
297.583
297.59
297.592
297.587
297.578
297.569
297.557
297.54
297.512
297.465
297.361
297.117
297.346
297.526
297.634
297.684
297.719
297.736
297.755
297.767
297.78
297.787
297.79
297.784
297.776
297.766
297.754
297.738
297.71
297.662
297.558
297.314
297.545
297.724
297.834
297.883
297.918
297.936
297.954
297.966
297.98
297.987
297.989
297.983
297.975
297.965
297.953
297.937
297.909
297.861
297.756
297.513
297.745
297.924
298.034
298.084
298.119
298.136
298.155
298.166
298.18
298.187
298.189
298.183
298.175
298.165
298.153
298.137
298.109
298.061
297.956
297.714
297.946
298.125
298.235
298.285
298.32
298.337
298.356
298.367
298.38
298.387
298.389
298.384
298.375
298.366
298.354
298.338
298.31
298.262
298.157
297.915
298.148
298.327
298.437
298.487
298.522
298.538
298.557
298.568
298.581
298.588
298.59
298.584
298.576
298.566
298.554
298.538
298.51
298.463
298.358
298.116
298.348
298.528
298.638
298.688
298.722
298.739
298.757
298.768
298.781
298.787
298.789
298.784
298.775
298.766
298.754
298.738
298.711
298.663
298.558
298.317
298.549
298.729
298.839
298.888
298.922
298.939
298.956
298.967
298.98
298.986
298.988
298.982
298.974
298.965
298.953
298.938
298.91
298.863
298.758
298.516
298.747
298.928
299.038
299.087
299.121
299.137
299.154
299.164
299.177
299.183
299.185
299.179
299.171
299.162
299.151
299.135
299.108
299.061
298.956
298.715
298.945
299.126
299.236
299.284
299.317
299.333
299.35
299.36
299.372
299.378
299.38
299.374
299.366
299.357
299.346
299.331
299.304
299.258
299.153
298.912
299.139
299.322
299.431
299.479
299.511
299.526
299.543
299.553
299.565
299.57
299.572
299.567
299.559
299.55
299.539
299.524
299.498
299.452
299.347
299.106
299.331
299.515
299.624
299.671
299.702
299.717
299.733
299.743
299.754
299.76
299.761
299.756
299.748
299.74
299.729
299.715
299.689
299.643
299.539
299.298
299.52
299.705
299.813
299.859
299.89
299.904
299.92
299.929
299.94
299.946
299.947
299.942
299.934
299.926
299.916
299.902
299.876
299.831
299.728
299.486
299.705
299.891
299.999
300.044
300.074
300.087
300.102
300.111
300.122
300.127
300.129
300.124
300.116
300.109
300.098
300.085
300.06
300.016
299.912
299.671
299.886
300.073
300.18
300.224
300.253
300.266
300.281
300.29
300.3
300.305
300.306
300.301
300.294
300.287
300.277
300.264
300.239
300.196
300.093
299.851
300.063
300.251
300.357
300.4
300.428
300.441
300.455
300.463
300.473
300.478
300.479
300.474
300.467
300.46
300.451
300.438
300.414
300.372
300.269
300.027
300.235
300.424
300.529
300.571
300.598
300.61
300.624
300.632
300.641
300.646
300.647
300.642
300.635
300.629
300.619
300.607
300.584
300.542
300.44
300.198
300.401
300.593
300.696
300.737
300.763
300.774
300.787
300.795
300.804
300.808
300.809
300.805
300.798
300.792
300.783
300.771
300.749
300.708
300.607
300.363
300.562
300.755
300.857
300.897
300.922
300.933
300.945
300.952
300.961
300.965
300.966
300.962
300.955
300.949
300.941
300.93
300.908
300.868
300.767
300.524
300.718
300.912
301.013
301.051
301.075
301.086
301.097
301.104
301.112
301.116
301.117
301.113
301.107
301.101
301.093
301.082
301.062
301.022
300.922
300.678
300.867
301.063
301.163
301.199
301.223
301.232
301.244
301.25
301.258
301.261
301.262
301.258
301.252
301.247
301.239
301.229
301.209
301.171
301.072
300.827
301.01
301.208
301.306
301.342
301.364
301.373
301.384
301.389
301.397
301.4
301.401
301.397
301.392
301.386
301.379
301.369
301.35
301.313
301.214
300.969
301.147
301.347
301.443
301.477
301.499
301.507
301.517
301.523
301.53
301.533
301.533
301.53
301.525
301.52
301.513
301.504
301.485
301.449
301.351
301.105
301.278
301.479
301.574
301.607
301.627
301.635
301.644
301.649
301.656
301.659
301.659
301.656
301.651
301.646
301.64
301.631
301.614
301.579
301.482
301.235
301.402
301.605
301.698
301.73
301.749
301.756
301.765
301.77
301.776
301.779
301.779
301.776
301.771
301.767
301.761
301.753
301.736
301.702
301.606
301.359
301.52
301.724
301.816
301.846
301.864
301.871
301.879
301.884
301.889
301.892
301.892
301.889
301.885
301.881
301.875
301.868
301.852
301.819
301.723
301.476
301.632
301.837
301.928
301.956
301.973
301.979
301.987
301.991
301.997
301.999
301.999
301.996
301.992
301.989
301.983
301.976
301.961
301.929
301.834
301.586
301.737
301.943
302.032
302.06
302.076
302.081
302.089
302.092
302.097
302.099
302.1
302.097
302.093
302.09
302.085
302.078
302.064
302.033
301.939
301.69
301.835
302.043
302.131
302.157
302.172
302.177
302.184
302.187
302.192
302.194
302.194
302.191
302.188
302.185
302.18
302.174
302.16
302.13
302.037
301.788
301.928
302.137
302.223
302.248
302.262
302.267
302.273
302.276
302.28
302.282
302.282
302.28
302.276
302.274
302.269
302.264
302.251
302.222
302.129
301.88
302.014
302.225
302.309
302.332
302.346
302.35
302.356
302.358
302.362
302.364
302.364
302.362
302.359
302.356
302.352
302.347
302.335
302.307
302.215
301.965
302.095
302.306
302.389
302.411
302.424
302.427
302.433
302.435
302.439
302.44
302.44
302.438
302.436
302.433
302.43
302.425
302.413
302.386
302.295
302.045
302.169
302.382
302.463
302.484
302.496
302.499
302.504
302.506
302.51
302.511
302.511
302.509
302.507
302.505
302.501
302.497
302.486
302.46
302.37
302.119
302.238
302.452
302.532
302.552
302.563
302.566
302.57
302.572
302.575
302.576
302.576
302.575
302.572
302.57
302.567
302.563
302.553
302.528
302.438
302.188
302.302
302.517
302.595
302.614
302.624
302.627
302.631
302.633
302.635
302.636
302.636
302.635
302.633
302.631
302.628
302.624
302.615
302.59
302.502
302.251
302.361
302.576
302.654
302.671
302.681
302.683
302.687
302.688
302.691
302.691
302.692
302.69
302.688
302.687
302.684
302.681
302.671
302.648
302.56
302.309
302.415
302.631
302.707
302.724
302.732
302.734
302.738
302.739
302.741
302.742
302.742
302.741
302.739
302.738
302.735
302.732
302.723
302.701
302.614
302.362
302.464
302.681
302.755
302.771
302.779
302.781
302.784
302.785
302.787
302.788
302.788
302.787
302.785
302.784
302.782
302.779
302.771
302.749
302.662
302.411
302.509
302.726
302.8
302.815
302.822
302.823
302.826
302.827
302.829
302.83
302.83
302.829
302.827
302.826
302.824
302.822
302.814
302.793
302.707
302.456
302.55
302.768
302.84
302.854
302.861
302.862
302.865
302.865
302.867
302.867
302.867
302.867
302.865
302.864
302.862
302.86
302.853
302.832
302.747
302.496
302.587
302.805
302.876
302.889
302.896
302.896
302.899
302.9
302.901
302.901
302.902
302.901
302.9
302.899
302.897
302.895
302.888
302.868
302.784
302.533
302.62
302.839
302.909
302.921
302.927
302.928
302.93
302.93
302.932
302.932
302.932
302.931
302.93
302.93
302.928
302.926
302.92
302.901
302.817
302.566
302.651
302.869
302.938
302.95
302.955
302.956
302.958
302.958
302.959
302.96
302.96
302.959
302.958
302.958
302.956
302.955
302.948
302.93
302.847
302.596
302.678
302.896
302.964
302.975
302.98
302.981
302.983
302.983
302.984
302.984
302.984
302.984
302.983
302.982
302.981
302.98
302.974
302.956
302.873
302.623
302.702
302.921
302.987
302.998
303.003
303.003
303.005
303.005
303.006
303.006
303.006
303.006
303.005
303.004
303.003
303.002
302.997
302.979
302.897
302.648
302.724
302.942
303.008
303.018
303.023
303.023
303.024
303.024
303.025
303.025
303.025
303.025
303.024
303.024
303.023
303.022
303.017
302.999
302.918
302.669
302.743
302.962
303.026
303.036
303.04
303.04
303.042
303.042
303.043
303.043
303.043
303.042
303.042
303.041
303.04
303.04
303.035
303.018
302.937
302.689
302.76
302.979
303.043
303.052
303.056
303.056
303.057
303.057
303.058
303.058
303.058
303.057
303.057
303.057
303.056
303.055
303.05
303.034
302.954
302.706
302.776
302.994
303.057
303.066
303.069
303.069
303.07
303.07
303.071
303.071
303.071
303.071
303.07
303.07
303.069
303.069
303.064
303.048
302.969
302.721
302.789
303.007
303.069
303.078
303.081
303.081
303.082
303.082
303.083
303.083
303.083
303.082
303.082
303.082
303.081
303.08
303.076
303.06
302.982
302.735
302.801
303.019
303.08
303.088
303.092
303.091
303.092
303.092
303.093
303.093
303.093
303.092
303.092
303.092
303.091
303.091
303.087
303.071
302.993
302.747
302.812
303.029
303.09
303.098
303.101
303.1
303.101
303.101
303.101
303.101
303.101
303.101
303.101
303.101
303.1
303.1
303.096
303.08
303.003
302.758
302.821
303.038
303.098
303.106
303.108
303.108
303.109
303.109
303.109
303.109
303.109
303.109
303.109
303.109
303.108
303.108
303.104
303.089
303.012
302.767
302.83
303.046
303.105
303.112
303.115
303.115
303.115
303.115
303.116
303.115
303.116
303.115
303.115
303.115
303.115
303.114
303.111
303.096
303.02
302.775
302.837
303.052
303.111
303.118
303.121
303.12
303.121
303.121
303.121
303.121
303.121
303.121
303.121
303.121
303.12
303.12
303.116
303.102
303.027
302.783
302.844
303.058
303.116
303.123
303.126
303.125
303.126
303.126
303.126
303.126
303.126
303.126
303.126
303.126
303.125
303.125
303.121
303.107
303.032
302.79
302.849
303.063
303.121
303.128
303.13
303.129
303.13
303.13
303.13
303.13
303.13
303.13
303.13
303.13
303.129
303.129
303.126
303.112
303.037
302.796
302.854
303.068
303.125
303.131
303.133
303.133
303.134
303.133
303.134
303.133
303.133
303.133
303.133
303.133
303.133
303.133
303.129
303.115
303.042
302.801
302.859
303.072
303.128
303.134
303.136
303.136
303.136
303.136
303.136
303.136
303.136
303.136
303.136
303.136
303.136
303.136
303.132
303.119
303.046
302.806
302.863
303.075
303.131
303.137
303.139
303.138
303.139
303.139
303.139
303.139
303.139
303.139
303.139
303.139
303.138
303.138
303.135
303.121
303.049
302.81
302.866
303.078
303.133
303.139
303.141
303.14
303.141
303.141
303.141
303.141
303.141
303.141
303.141
303.141
303.14
303.14
303.137
303.124
303.052
302.814
302.87
303.08
303.135
303.141
303.143
303.142
303.143
303.142
303.143
303.143
303.143
303.143
303.142
303.143
303.142
303.142
303.139
303.126
303.054
302.817
302.873
303.082
303.137
303.142
303.144
303.144
303.144
303.144
303.144
303.144
303.144
303.144
303.144
303.144
303.144
303.144
303.141
303.127
303.057
302.82
302.875
303.084
303.138
303.144
303.145
303.145
303.145
303.145
303.145
303.145
303.145
303.145
303.145
303.145
303.145
303.145
303.142
303.129
303.059
302.823
302.878
303.086
303.139
303.145
303.146
303.146
303.146
303.146
303.146
303.146
303.146
303.146
303.146
303.146
303.146
303.146
303.143
303.13
303.06
302.826
302.88
303.087
303.14
303.146
303.147
303.147
303.147
303.147
303.147
303.147
303.147
303.147
303.147
303.147
303.147
303.147
303.144
303.131
303.062
302.829
302.882
303.089
303.141
303.146
303.148
303.147
303.148
303.147
303.148
303.148
303.148
303.148
303.147
303.148
303.147
303.147
303.145
303.132
303.063
302.831
302.884
303.09
303.142
303.147
303.148
303.148
303.148
303.148
303.148
303.148
303.148
303.148
303.148
303.148
303.148
303.148
303.145
303.133
303.065
302.833
302.886
303.091
303.142
303.147
303.149
303.148
303.149
303.148
303.149
303.149
303.149
303.149
303.148
303.149
303.148
303.148
303.146
303.133
303.066
302.835
302.888
303.092
303.143
303.148
303.149
303.149
303.149
303.149
303.149
303.149
303.149
303.149
303.149
303.149
303.149
303.149
303.146
303.134
303.067
302.838
302.89
303.093
303.143
303.148
303.15
303.149
303.149
303.149
303.149
303.149
303.149
303.149
303.149
303.149
303.149
303.149
303.146
303.134
303.068
302.84
302.891
303.094
303.143
303.148
303.15
303.149
303.15
303.149
303.149
303.149
303.149
303.149
303.149
303.149
303.149
303.149
303.147
303.135
303.069
302.842
302.893
303.094
303.144
303.148
303.15
303.149
303.15
303.149
303.15
303.15
303.15
303.15
303.149
303.15
303.149
303.149
303.147
303.135
303.07
302.844
302.895
303.095
303.144
303.149
303.15
303.149
303.15
303.15
303.15
303.15
303.15
303.15
303.15
303.15
303.149
303.15
303.147
303.135
303.071
302.846
302.896
303.096
303.144
303.149
303.15
303.15
303.15
303.15
303.15
303.15
303.15
303.15
303.15
303.15
303.15
303.15
303.147
303.136
303.071
302.847
302.898
303.097
303.144
303.149
303.15
303.15
303.15
303.15
303.15
303.15
303.15
303.15
303.15
303.15
303.15
303.15
303.147
303.136
303.072
302.849
302.899
303.097
303.144
303.149
303.15
303.15
303.15
303.15
303.15
303.15
303.15
303.15
303.15
303.15
303.15
303.15
303.147
303.136
303.073
302.851
302.901
303.098
303.145
303.149
303.15
303.15
303.15
303.15
303.15
303.15
303.15
303.15
303.15
303.15
303.15
303.15
303.147
303.136
303.074
302.853
302.902
303.099
303.145
303.149
303.15
303.15
303.15
303.15
303.15
303.15
303.15
303.15
303.15
303.15
303.15
303.15
303.147
303.136
303.074
302.855
302.904
303.099
303.145
303.149
303.15
303.15
303.15
303.15
303.15
303.15
303.15
303.15
303.15
303.15
303.15
303.15
303.148
303.137
303.075
302.857
302.905
303.1
303.145
303.149
303.15
303.15
303.15