/*--------------------------------*- C++ -*----------------------------------*\
  =========                 |
  \\      /  F ield         | OpenFOAM: The Open Source CFD Toolbox
   \\    /   O peration     | Website:  https://openfoam.org
    \\  /    A nd           | Version:  8
     \\/     M anipulation  |
\*---------------------------------------------------------------------------*/
FoamFile
{
    version     2.0;
    format      ascii;
    class       volVectorField;
    location    "200";
    object      U;
}
// * * * * * * * * * * * * * * * * * * * * * * * * * * * * * * * * * * * * * //

dimensions      [0 1 -1 0 0 0 0];

internalField   nonuniform List<vector> 
8400
(
(-14.1657 -0.0804326 -2.22636e-16)
(-14.1593 -0.0810993 -2.23986e-16)
(-14.1543 -0.0820929 -2.25114e-16)
(-14.1491 -0.0831844 -2.30005e-16)
(-14.1437 -0.08432 -2.32458e-16)
(-14.1382 -0.0854841 -2.30495e-16)
(-14.1325 -0.0866723 -2.30653e-16)
(-14.1268 -0.0878843 -2.31008e-16)
(-14.1209 -0.0891224 -2.31493e-16)
(-14.1149 -0.0903898 -2.36088e-16)
(-14.1088 -0.0916881 -2.37968e-16)
(-14.1026 -0.0930199 -2.3517e-16)
(-14.0963 -0.0943883 -2.34853e-16)
(-14.0899 -0.095797 -2.35026e-16)
(-14.0834 -0.0972502 -2.37402e-16)
(-14.0768 -0.0987525 -2.40226e-16)
(-14.0701 -0.100308 -2.36854e-16)
(-14.0632 -0.101923 -2.36097e-16)
(-14.0563 -0.103603 -2.3581e-16)
(-14.0491 -0.105355 -2.35831e-16)
(-14.0418 -0.107187 -2.36174e-16)
(-14.0343 -0.109109 -2.36591e-16)
(-14.0266 -0.11113 -2.37064e-16)
(-14.0186 -0.113262 -2.37546e-16)
(-14.0103 -0.115518 -2.37987e-16)
(-14.0016 -0.117912 -2.3876e-16)
(-13.9925 -0.120462 -2.35771e-16)
(-13.9828 -0.123186 -2.34935e-16)
(-13.9726 -0.126105 -2.38556e-16)
(-13.9617 -0.129245 -2.40068e-16)
(-13.95 -0.132635 -2.41371e-16)
(-13.9373 -0.136307 -2.42763e-16)
(-13.9235 -0.140298 -2.40226e-16)
(-13.9084 -0.144653 -2.39938e-16)
(-13.8917 -0.149424 -2.44195e-16)
(-13.8733 -0.154671 -2.46518e-16)
(-13.8528 -0.160466 -2.48722e-16)
(-13.8298 -0.166894 -2.50946e-16)
(-13.804 -0.174059 -2.53242e-16)
(-13.7747 -0.18209 -2.54565e-16)
(-13.7415 -0.191146 -2.56838e-16)
(-13.7037 -0.20143 -2.56852e-16)
(-13.6603 -0.213205 -2.59407e-16)
(-13.6103 -0.226825 -2.66934e-16)
(-13.5522 -0.24279 -2.72728e-16)
(-13.4845 -0.261819 -2.77954e-16)
(-13.4056 -0.284886 -2.80271e-16)
(-13.3121 -0.313319 -2.86037e-16)
(-13.1942 -0.349655 -3.00975e-16)
(-13.0402 -0.399813 -3.15327e-16)
(-16.071 0.0690393 2.00575e-16)
(-16.0646 0.0694258 2.01808e-16)
(-16.059 0.0700205 2.03024e-16)
(-16.053 0.0707225 2.01164e-16)
(-16.0469 0.0714923 2.00292e-16)
(-16.0409 0.0723153 2.02603e-16)
(-16.0348 0.0731834 2.04858e-16)
(-16.0287 0.0740926 2.07459e-16)
(-16.0227 0.0750409 2.09442e-16)
(-16.0166 0.0760238 2.07807e-16)
(-16.0106 0.0770405 2.06854e-16)
(-16.0046 0.0780905 2.097e-16)
(-15.9987 0.0791723 2.13367e-16)
(-15.9927 0.0802839 2.18853e-16)
(-15.9868 0.0814253 2.16295e-16)
(-15.9809 0.0825955 2.01796e-16)
(-15.9749 0.0837924 2.01876e-16)
(-15.969 0.0850156 2.05997e-16)
(-15.9631 0.0862631 2.09562e-16)
(-15.9571 0.0875336 2.12984e-16)
(-15.951 0.0888246 2.16355e-16)
(-15.9449 0.0901332 2.19747e-16)
(-15.9387 0.0914564 2.2319e-16)
(-15.9323 0.0927907 2.2672e-16)
(-15.9257 0.0941311 2.30257e-16)
(-15.919 0.0954715 2.33389e-16)
(-15.912 0.0968051 2.39437e-16)
(-15.9046 0.0981245 2.44953e-16)
(-15.8969 0.0994196 2.47795e-16)
(-15.8887 0.100678 2.51433e-16)
(-15.8799 0.101887 2.55468e-16)
(-15.8705 0.103029 2.59737e-16)
(-15.8602 0.104084 2.65646e-16)
(-15.8491 0.10503 2.71552e-16)
(-15.8368 0.105838 2.75858e-16)
(-15.8233 0.106473 2.80371e-16)
(-15.8083 0.106896 2.8531e-16)
(-15.7915 0.107057 2.90441e-16)
(-15.7727 0.106894 2.98113e-16)
(-15.7516 0.106329 3.04198e-16)
(-15.7276 0.10526 3.08151e-16)
(-15.7005 0.103552 3.16694e-16)
(-15.6696 0.101024 3.24665e-16)
(-15.6343 0.097416 3.30037e-16)
(-15.5939 0.0923178 3.38791e-16)
(-15.5477 0.0850984 3.4623e-16)
(-15.495 0.0749123 3.54298e-16)
(-15.4347 0.0606452 3.64229e-16)
(-15.3628 0.0397311 3.71029e-16)
(-15.2746 0.00510899 3.7724e-16)
(-16.2817 -0.0862712 -1.34938e-17)
(-16.2762 -0.0874318 -1.26745e-17)
(-16.2725 -0.088514 -1.19144e-17)
(-16.2687 -0.0895809 -1.27873e-17)
(-16.2649 -0.0906231 -1.29912e-17)
(-16.2611 -0.0916481 -1.1118e-17)
(-16.2572 -0.092665 -9.60625e-18)
(-16.2532 -0.0936807 -8.35237e-18)
(-16.2491 -0.0946997 -7.17815e-18)
(-16.245 -0.0957283 -7.77344e-18)
(-16.2408 -0.0967712 -7.69049e-18)
(-16.2366 -0.0978321 -5.21881e-18)
(-16.2322 -0.0989161 -2.91658e-18)
(-16.2278 -0.100029 -4.06635e-19)
(-16.2233 -0.101177 2.01641e-18)
(-16.2187 -0.102366 1.23706e-18)
(-16.214 -0.103603 8.76493e-19)
(-16.2092 -0.104897 2.94506e-18)
(-16.2043 -0.106257 4.37203e-18)
(-16.1992 -0.107692 5.60915e-18)
(-16.194 -0.109215 6.71447e-18)
(-16.1885 -0.110838 7.75791e-18)
(-16.1829 -0.112578 8.77165e-18)
(-16.177 -0.114451 9.78453e-18)
(-16.1708 -0.116478 1.07959e-17)
(-16.1643 -0.118681 1.17166e-17)
(-16.1573 -0.121085 1.4538e-17)
(-16.15 -0.123722 1.68956e-17)
(-16.1421 -0.126625 1.69738e-17)
(-16.1337 -0.129834 1.74014e-17)
(-16.1245 -0.133391 1.80796e-17)
(-16.1146 -0.13735 1.88173e-17)
(-16.1037 -0.141769 2.15401e-17)
(-16.0918 -0.146716 2.38445e-17)
(-16.0786 -0.15227 2.38766e-17)
(-16.064 -0.158519 2.42351e-17)
(-16.0477 -0.165568 2.48232e-17)
(-16.0294 -0.173538 2.55282e-17)
(-16.009 -0.182569 2.63344e-17)
(-15.9859 -0.192828 2.81082e-17)
(-15.9599 -0.204511 2.92326e-17)
(-15.9303 -0.21785 3.09723e-17)
(-15.8967 -0.233125 3.23627e-17)
(-15.8584 -0.250684 3.13449e-17)
(-15.8147 -0.270983 3.06597e-17)
(-15.7649 -0.294617 3.09116e-17)
(-15.7083 -0.322268 3.25413e-17)
(-15.644 -0.354677 3.2613e-17)
(-15.57 -0.39328 2.85216e-17)
(-15.4849 -0.441774 2.42345e-17)
(-16.5407 0.053802 8.48613e-17)
(-16.5416 0.0535434 8.54399e-17)
(-16.5414 0.0536861 8.59154e-17)
(-16.541 0.0539824 8.46291e-17)
(-16.5405 0.054368 8.38478e-17)
(-16.54 0.0548114 8.52006e-17)
(-16.5395 0.0552966 8.61727e-17)
(-16.539 0.0558131 8.68897e-17)
(-16.5384 0.0563518 8.74362e-17)
(-16.5379 0.0569069 8.63481e-17)
(-16.5374 0.0574728 8.60389e-17)
(-16.5368 0.0580448 8.7976e-17)
(-16.5363 0.0586168 8.97592e-17)
(-16.5357 0.0591833 9.11347e-17)
(-16.535 0.0597374 9.19311e-17)
(-16.5344 0.060272 9.16585e-17)
(-16.5337 0.0607808 9.1778e-17)
(-16.5329 0.0612551 9.3697e-17)
(-16.532 0.0616849 9.55821e-17)
(-16.5311 0.0620596 9.72684e-17)
(-16.53 0.062367 9.88444e-17)
(-16.5289 0.0625928 1.00361e-16)
(-16.5275 0.0627201 1.01858e-16)
(-16.526 0.0627296 1.0335e-16)
(-16.5243 0.0626002 1.04848e-16)
(-16.5224 0.0623069 1.06247e-16)
(-16.5201 0.0618198 1.09422e-16)
(-16.5175 0.0611048 1.12132e-16)
(-16.5146 0.0601229 1.12669e-16)
(-16.5112 0.0588283 1.13505e-16)
(-16.5073 0.0571677 1.1459e-16)
(-16.5028 0.0550794 1.15737e-16)
(-16.4976 0.0524917 1.18806e-16)
(-16.4916 0.0493209 1.21279e-16)
(-16.4847 0.0454693 1.21448e-16)
(-16.4767 0.0408233 1.21986e-16)
(-16.4675 0.0352492 1.22674e-16)
(-16.4568 0.0285883 1.23273e-16)
(-16.4445 0.0206528 1.25636e-16)
(-16.4304 0.0112191 1.26268e-16)
(-16.4141 1.96642e-05 1.2465e-16)
(-16.3952 -0.0132684 1.26301e-16)
(-16.3736 -0.0290377 1.27246e-16)
(-16.3487 -0.0477726 1.25381e-16)
(-16.3202 -0.07008 1.25147e-16)
(-16.2876 -0.0967088 1.22812e-16)
(-16.2506 -0.128527 1.19783e-16)
(-16.2089 -0.166533 1.17256e-16)
(-16.1617 -0.212114 1.11278e-16)
(-16.1087 -0.267418 1.04771e-16)
(-16.3734 -0.0753555 2.63541e-16)
(-16.3724 -0.0762075 2.64461e-16)
(-16.3728 -0.0770284 2.65418e-16)
(-16.3735 -0.0778344 2.6412e-16)
(-16.3741 -0.0786099 2.63726e-16)
(-16.3747 -0.0793582 2.66007e-16)
(-16.3752 -0.0800865 2.67574e-16)
(-16.3757 -0.0808004 2.68844e-16)
(-16.376 -0.0815069 2.69989e-16)
(-16.3762 -0.0822095 2.69389e-16)
(-16.3763 -0.0829135 2.69349e-16)
(-16.3762 -0.0836234 2.71661e-16)
(-16.3761 -0.0843441 2.73899e-16)
(-16.3758 -0.0850815 2.76106e-16)
(-16.3754 -0.0858404 2.78407e-16)
(-16.3749 -0.0866283 2.78135e-16)
(-16.3742 -0.0874525 2.78451e-16)
(-16.3734 -0.0883217 2.81883e-16)
(-16.3724 -0.0892459 2.84444e-16)
(-16.3712 -0.0902366 2.86825e-16)
(-16.3699 -0.0913074 2.89116e-16)
(-16.3683 -0.0924739 2.91387e-16)
(-16.3665 -0.0937542 2.93674e-16)
(-16.3644 -0.0951689 2.96011e-16)
(-16.362 -0.096742 2.9841e-16)
(-16.3593 -0.0985019 3.00783e-16)
(-16.3563 -0.100481 3.0505e-16)
(-16.3528 -0.102717 3.08938e-16)
(-16.3489 -0.105252 3.10698e-16)
(-16.3445 -0.108138 3.12874e-16)
(-16.3395 -0.111433 3.15404e-16)
(-16.3338 -0.115204 3.18106e-16)
(-16.3273 -0.119529 3.2291e-16)
(-16.32 -0.1245 3.27439e-16)
(-16.3116 -0.13022 3.2987e-16)
(-16.3021 -0.136809 3.32809e-16)
(-16.2913 -0.144409 3.36176e-16)
(-16.279 -0.153184 3.39903e-16)
(-16.2649 -0.163327 3.44035e-16)
(-16.2489 -0.175063 3.49507e-16)
(-16.2306 -0.188656 3.54698e-16)
(-16.2097 -0.204423 3.60937e-16)
(-16.186 -0.222741 3.67488e-16)
(-16.159 -0.244068 3.72274e-16)
(-16.1283 -0.268964 3.78112e-16)
(-16.0936 -0.29811 3.85772e-16)
(-16.0546 -0.332311 3.95939e-16)
(-16.0111 -0.372545 4.05976e-16)
(-15.9625 -0.420121 4.13365e-16)
(-15.9084 -0.476775 4.22793e-16)
(-16.4669 0.0402267 3.02519e-17)
(-16.4716 0.0399155 3.07054e-17)
(-16.4736 0.0397618 3.11646e-17)
(-16.4754 0.0396742 2.98656e-17)
(-16.477 0.0396278 2.90735e-17)
(-16.4785 0.039608 3.04223e-17)
(-16.48 0.0396041 3.13966e-17)
(-16.4814 0.0396086 3.20622e-17)
(-16.4827 0.039613 3.26139e-17)
(-16.484 0.0396106 3.12554e-17)
(-16.4852 0.0395942 3.02938e-17)
(-16.4864 0.0395548 3.1538e-17)
(-16.4875 0.0394849 3.26664e-17)
(-16.4885 0.0393761 3.35981e-17)
(-16.4894 0.0392183 3.46692e-17)
(-16.4902 0.0390007 3.34904e-17)
(-16.491 0.0387114 3.29002e-17)
(-16.4916 0.0383374 3.43511e-17)
(-16.4921 0.0378636 3.54615e-17)
(-16.4925 0.0372729 3.63248e-17)
(-16.4927 0.0365458 3.70342e-17)
(-16.4928 0.0356602 3.76514e-17)
(-16.4928 0.0345911 3.82085e-17)
(-16.4925 0.0333099 3.8734e-17)
(-16.4921 0.0317832 3.9232e-17)
(-16.4914 0.0299729 3.96156e-17)
(-16.4904 0.0278365 4.17817e-17)
(-16.4891 0.0253244 4.34555e-17)
(-16.4875 0.0223789 4.28959e-17)
(-16.4855 0.0189345 4.26347e-17)
(-16.483 0.014916 4.2588e-17)
(-16.4801 0.0102369 4.2575e-17)
(-16.4765 0.0047976 4.44336e-17)
(-16.4723 -0.00151538 4.58721e-17)
(-16.4673 -0.00883254 4.50752e-17)
(-16.4615 -0.0173043 4.45201e-17)
(-16.4546 -0.0271036 4.41153e-17)
(-16.4466 -0.038429 4.36077e-17)
(-16.4373 -0.0515084 4.48619e-17)
(-16.4265 -0.0666028 4.454e-17)
(-16.414 -0.0840122 4.20804e-17)
(-16.3996 -0.10408 4.28629e-17)
(-16.3831 -0.127198 4.29651e-17)
(-16.3641 -0.153814 4.0231e-17)
(-16.3426 -0.184438 3.90888e-17)
(-16.3183 -0.219638 3.57034e-17)
(-16.2911 -0.260033 3.17076e-17)
(-16.261 -0.30629 2.8293e-17)
(-16.2281 -0.359181 2.14918e-17)
(-16.1923 -0.419621 1.20682e-17)
(-16.3785 -0.0547075 1.56399e-16)
(-16.3787 -0.0553087 1.55861e-16)
(-16.3804 -0.0559377 1.55402e-16)
(-16.3824 -0.0565692 1.53105e-16)
(-16.3845 -0.0571839 1.51271e-16)
(-16.3865 -0.0577794 1.51781e-16)
(-16.3884 -0.0583567 1.52082e-16)
(-16.3903 -0.0589186 1.52211e-16)
(-16.392 -0.0594673 1.52277e-16)
(-16.3937 -0.060008 1.50338e-16)
(-16.3953 -0.0605443 1.48717e-16)
(-16.3967 -0.0610808 1.49476e-16)
(-16.398 -0.0616228 1.50174e-16)
(-16.3993 -0.0621753 1.50801e-16)
(-16.4004 -0.0627451 1.51334e-16)
(-16.4013 -0.0633397 1.50153e-16)
(-16.4022 -0.0639681 1.49399e-16)
(-16.4029 -0.064641 1.50965e-16)
(-16.4035 -0.0653703 1.52252e-16)
(-16.4039 -0.0661698 1.53352e-16)
(-16.4041 -0.0670561 1.54375e-16)
(-16.4042 -0.0680489 1.55366e-16)
(-16.4041 -0.0691711 1.56388e-16)
(-16.4038 -0.0704488 1.57443e-16)
(-16.4033 -0.0719134 1.58579e-16)
(-16.4025 -0.0736005 1.59682e-16)
(-16.4014 -0.075552 1.62716e-16)
(-16.4001 -0.0778171 1.65362e-16)
(-16.3984 -0.0804532 1.65909e-16)
(-16.3963 -0.0835263 1.66888e-16)
(-16.3938 -0.0871135 1.68293e-16)
(-16.3908 -0.0913044 1.69914e-16)
(-16.3873 -0.0962027 1.73713e-16)
(-16.3831 -0.101928 1.77348e-16)
(-16.3783 -0.108619 1.79042e-16)
(-16.3726 -0.116439 1.81349e-16)
(-16.3661 -0.125574 1.8427e-16)
(-16.3585 -0.13624 1.8772e-16)
(-16.3498 -0.148686 1.91779e-16)
(-16.3397 -0.1632 1.96549e-16)
(-16.328 -0.180114 2.02675e-16)
(-16.3147 -0.199806 2.10982e-16)
(-16.2995 -0.22271 2.18634e-16)
(-16.282 -0.249315 2.26013e-16)
(-16.2623 -0.280176 2.34649e-16)
(-16.2399 -0.315903 2.4368e-16)
(-16.2149 -0.357148 2.56622e-16)
(-16.1871 -0.404588 2.7174e-16)
(-16.1564 -0.458915 2.86269e-16)
(-16.1226 -0.520852 3.03355e-16)
(-16.4141 0.0254571 -1.8204e-16)
(-16.4203 0.0250087 -1.81058e-16)
(-16.4232 0.0246006 -1.80036e-16)
(-16.4257 0.0242101 -1.80989e-16)
(-16.428 0.0238285 -1.81667e-16)
(-16.4303 0.0234498 -1.80113e-16)
(-16.4324 0.0230709 -1.78877e-16)
(-16.4345 0.0226848 -1.77934e-16)
(-16.4366 0.0222861 -1.77192e-16)
(-16.4385 0.0218677 -1.7848e-16)
(-16.4404 0.0214225 -1.79701e-16)
(-16.4423 0.0209426 -1.78754e-16)
(-16.444 0.0204196 -1.78128e-16)
(-16.4457 0.0198437 -1.78148e-16)
(-16.4473 0.0192044 -1.77983e-16)
(-16.4488 0.0184898 -1.79694e-16)
(-16.4502 0.0176861 -1.81074e-16)
(-16.4515 0.0167781 -1.80314e-16)
(-16.4527 0.0157494 -1.80039e-16)
(-16.4538 0.0145808 -1.80119e-16)
(-16.4547 0.0132495 -1.80467e-16)
(-16.4556 0.0117299 -1.81018e-16)
(-16.4563 0.0099937 -1.81743e-16)
(-16.4568 0.00800829 -1.82609e-16)
(-16.4572 0.00573591 -1.8362e-16)
(-16.4573 0.00313359 -1.84851e-16)
(-16.4573 0.000152225 -1.8439e-16)
(-16.4571 -0.00326466 -1.84545e-16)
(-16.4566 -0.00718179 -1.87108e-16)
(-16.4558 -0.0116733 -1.89467e-16)
(-16.4547 -0.0168241 -1.91737e-16)
(-16.4532 -0.0227314 -1.9409e-16)
(-16.4514 -0.0295064 -1.94694e-16)
(-16.4491 -0.037277 -1.95875e-16)
(-16.4463 -0.0461898 -1.99481e-16)
(-16.4429 -0.0564127 -2.02951e-16)
(-16.4389 -0.0681375 -2.06449e-16)
(-16.4341 -0.0815827 -2.10071e-16)
(-16.4285 -0.0969973 -2.14043e-16)
(-16.4219 -0.114665 -2.15485e-16)
(-16.4143 -0.134905 -2.19432e-16)
(-16.4054 -0.158077 -2.25056e-16)
(-16.3953 -0.184582 -2.28059e-16)
(-16.3836 -0.214863 -2.35541e-16)
(-16.3703 -0.249405 -2.45172e-16)
(-16.3553 -0.288728 -2.53416e-16)
(-16.3386 -0.333365 -2.61423e-16)
(-16.3201 -0.38384 -2.69456e-16)
(-16.2997 -0.440641 -2.83142e-16)
(-16.2774 -0.504245 -3.013e-16)
(-16.363 -0.0293952 4.83721e-17)
(-16.3636 -0.0299754 4.92394e-17)
(-16.3657 -0.0305617 5.02643e-17)
(-16.3683 -0.031146 4.93285e-17)
(-16.3709 -0.0317221 4.87379e-17)
(-16.3736 -0.0322901 5.05901e-17)
(-16.3762 -0.0328503 5.22557e-17)
(-16.3787 -0.033405 5.37549e-17)
(-16.3812 -0.0339577 5.52943e-17)
(-16.3837 -0.0345117 5.49091e-17)
(-16.386 -0.0350708 5.4785e-17)
(-16.3883 -0.0356401 5.68943e-17)
(-16.3905 -0.036225 5.86381e-17)
(-16.3927 -0.036832 6.02069e-17)
(-16.3947 -0.0374692 6.19674e-17)
(-16.3967 -0.0381456 6.18473e-17)
(-16.3985 -0.0388716 6.21533e-17)
(-16.4003 -0.0396596 6.46889e-17)
(-16.402 -0.0405244 6.68637e-17)
(-16.4036 -0.0414835 6.88001e-17)
(-16.4051 -0.0425572 7.05631e-17)
(-16.4064 -0.0437687 7.2243e-17)
(-16.4076 -0.0451451 7.38465e-17)
(-16.4088 -0.0467185 7.5431e-17)
(-16.4097 -0.0485257 7.69809e-17)
(-16.4105 -0.0506099 7.84331e-17)
(-16.4112 -0.053021 8.17191e-17)
(-16.4117 -0.0558165 8.45143e-17)
(-16.4119 -0.0590633 8.50531e-17)
(-16.412 -0.0628395 8.59599e-17)
(-16.4119 -0.0672347 8.71555e-17)
(-16.4114 -0.0723523 8.84619e-17)
(-16.4107 -0.0783122 9.18198e-17)
(-16.4097 -0.0852538 9.4831e-17)
(-16.4083 -0.0933369 9.57025e-17)
(-16.4064 -0.102746 9.70854e-17)
(-16.4041 -0.113691 9.88829e-17)
(-16.4013 -0.126415 1.00898e-16)
(-16.3979 -0.141194 1.05043e-16)
(-16.3938 -0.158341 1.08143e-16)
(-16.3889 -0.178209 1.09698e-16)
(-16.3831 -0.201191 1.15129e-16)
(-16.3764 -0.227725 1.20914e-16)
(-16.3685 -0.258288 1.25087e-16)
(-16.3594 -0.293394 1.32225e-16)
(-16.349 -0.333581 1.38751e-16)
(-16.3371 -0.379394 1.46515e-16)
(-16.3237 -0.431348 1.57506e-16)
(-16.3088 -0.489904 1.68395e-16)
(-16.2919 -0.555495 1.83009e-16)
(-16.3561 0.00985573 -1.80417e-16)
(-16.3632 0.00930692 -1.78207e-16)
(-16.3667 0.00875444 -1.75851e-16)
(-16.3699 0.00820383 -1.75449e-16)
(-16.3729 0.00765373 -1.74702e-16)
(-16.3758 0.00710192 -1.71585e-16)
(-16.3786 0.0065439 -1.68725e-16)
(-16.3814 0.00597622 -1.66067e-16)
(-16.3842 0.00539379 -1.63399e-16)
(-16.3869 0.00479187 -1.62688e-16)
(-16.3895 0.00416401 -1.61755e-16)
(-16.3921 0.00350386 -1.58738e-16)
(-16.3946 0.0028043 -1.56102e-16)
(-16.3971 0.00205649 -1.53713e-16)
(-16.3994 0.00125063 -1.51416e-16)
(-16.4017 0.000375767 -1.51148e-16)
(-16.404 -0.000580791 -1.50502e-16)
(-16.4061 -0.00163386 -1.47766e-16)
(-16.4082 -0.0028005 -1.45472e-16)
(-16.4101 -0.00409998 -1.4358e-16)
(-16.412 -0.00555405 -1.41937e-16)
(-16.4138 -0.00718798 -1.40569e-16)
(-16.4155 -0.00903127 -1.39367e-16)
(-16.4171 -0.0111175 -1.38398e-16)
(-16.4186 -0.0134849 -1.37587e-16)
(-16.42 -0.016178 -1.37111e-16)
(-16.4212 -0.0192481 -1.34295e-16)
(-16.4224 -0.022754 -1.32655e-16)
(-16.4234 -0.0267634 -1.34092e-16)
(-16.4243 -0.0313546 -1.34933e-16)
(-16.425 -0.0366176 -1.35744e-16)
(-16.4256 -0.0426559 -1.36762e-16)
(-16.426 -0.0495891 -1.36082e-16)
(-16.4262 -0.0575555 -1.36156e-16)
(-16.4262 -0.0667137 -1.3882e-16)
(-16.426 -0.0772454 -1.41477e-16)
(-16.4255 -0.0893589 -1.44299e-16)
(-16.4248 -0.103292 -1.47482e-16)
(-16.4238 -0.119317 -1.51024e-16)
(-16.4224 -0.13774 -1.5407e-16)
(-16.4206 -0.158906 -1.58526e-16)
(-16.4183 -0.183199 -1.63123e-16)
(-16.4155 -0.211044 -1.68833e-16)
(-16.4122 -0.242906 -1.7816e-16)
(-16.4081 -0.279278 -1.88434e-16)
(-16.4032 -0.320674 -1.99404e-16)
(-16.3974 -0.367605 -2.10969e-16)
(-16.3906 -0.420544 -2.26397e-16)
(-16.3826 -0.479889 -2.49525e-16)
(-16.3731 -0.545984 -2.77187e-16)
(-16.3325 -0.00171285 1.77642e-16)
(-16.3335 -0.002341 1.77716e-16)
(-16.336 -0.00294467 1.77851e-16)
(-16.3389 -0.00353965 1.76086e-16)
(-16.342 -0.00413685 1.74819e-16)
(-16.3452 -0.00473935 1.76008e-16)
(-16.3483 -0.00535127 1.7709e-16)
(-16.3514 -0.00597575 1.78116e-16)
(-16.3545 -0.00661696 1.79321e-16)
(-16.3576 -0.00727798 1.78641e-16)
(-16.3606 -0.00796352 1.78569e-16)
(-16.3637 -0.00867894 1.80897e-16)
(-16.3667 -0.00943005 1.83089e-16)
(-16.3696 -0.0102245 1.85246e-16)
(-16.3725 -0.0110709 1.87542e-16)
(-16.3754 -0.0119797 1.88113e-16)
(-16.3782 -0.0129634 1.89286e-16)
(-16.381 -0.0140356 1.92879e-16)
(-16.3838 -0.0152124 1.9622e-16)
(-16.3865 -0.0165128 1.99503e-16)
(-16.3891 -0.0179587 2.02716e-16)
(-16.3917 -0.0195756 2.0603e-16)
(-16.3943 -0.021393 2.09363e-16)
(-16.3968 -0.0234451 2.12853e-16)
(-16.3993 -0.0257713 2.16408e-16)
(-16.4017 -0.0284167 2.20028e-16)
(-16.4041 -0.0314339 2.25619e-16)
(-16.4064 -0.0348832 2.30845e-16)
(-16.4087 -0.0388344 2.33909e-16)
(-16.411 -0.0433672 2.37558e-16)
(-16.4132 -0.0485739 2.41651e-16)
(-16.4154 -0.0545607 2.46056e-16)
(-16.4176 -0.0614506 2.52706e-16)
(-16.4198 -0.0693851 2.59251e-16)
(-16.4219 -0.0785271 2.63932e-16)
(-16.4241 -0.089064 2.69481e-16)
(-16.4262 -0.101211 2.75839e-16)
(-16.4284 -0.115214 2.82892e-16)
(-16.4306 -0.131353 2.92696e-16)
(-16.4328 -0.149948 3.02096e-16)
(-16.4349 -0.171359 3.10601e-16)
(-16.4371 -0.195989 3.24129e-16)
(-16.4393 -0.224288 3.39163e-16)
(-16.4414 -0.256744 3.53883e-16)
(-16.4434 -0.293887 3.73485e-16)
(-16.4452 -0.336271 3.94728e-16)
(-16.4468 -0.384456 4.20275e-16)
(-16.4479 -0.438972 4.52803e-16)
(-16.4485 -0.500281 4.8963e-16)
(-16.4482 -0.568785 5.33004e-16)
(-16.2804 -0.00532536 -5.88977e-16)
(-16.2882 -0.00589869 -5.8573e-16)
(-16.2924 -0.00649822 -5.82276e-16)
(-16.2963 -0.00710246 -5.80666e-16)
(-16.3001 -0.00771039 -5.78515e-16)
(-16.3038 -0.00832284 -5.73895e-16)
(-16.3075 -0.00894241 -5.69456e-16)
(-16.3111 -0.00957227 -5.65168e-16)
(-16.3148 -0.0102147 -5.6087e-16)
(-16.3184 -0.0108724 -5.58497e-16)
(-16.322 -0.011549 -5.55649e-16)
(-16.3255 -0.0122484 -5.50548e-16)
(-16.329 -0.0129769 -5.45875e-16)
(-16.3324 -0.013742 -5.4155e-16)
(-16.3358 -0.014552 -5.37406e-16)
(-16.3392 -0.0154169 -5.35387e-16)
(-16.3425 -0.0163481 -5.33079e-16)
(-16.3457 -0.0173583 -5.28785e-16)
(-16.3489 -0.0184622 -5.25062e-16)
(-16.3521 -0.0196775 -5.21894e-16)
(-16.3552 -0.0210243 -5.19092e-16)
(-16.3582 -0.022526 -5.16723e-16)
(-16.3612 -0.0242099 -5.14662e-16)
(-16.3642 -0.0261078 -5.13015e-16)
(-16.3671 -0.0282567 -5.11704e-16)
(-16.37 -0.0306985 -5.10949e-16)
(-16.3729 -0.0334822 -5.08729e-16)
(-16.3758 -0.036665 -5.07566e-16)
(-16.3787 -0.0403132 -5.09216e-16)
(-16.3816 -0.0445028 -5.11119e-16)
(-16.3845 -0.0493225 -5.13436e-16)
(-16.3874 -0.0548763 -5.16481e-16)
(-16.3905 -0.0612844 -5.17704e-16)
(-16.3936 -0.0686861 -5.20753e-16)
(-16.3968 -0.0772431 -5.2777e-16)
(-16.4002 -0.0871422 -5.35095e-16)
(-16.4037 -0.0985988 -5.43521e-16)
(-16.4074 -0.111861 -5.53368e-16)
(-16.4114 -0.127212 -5.64826e-16)
(-16.4156 -0.144975 -5.77205e-16)
(-16.4201 -0.165517 -5.92638e-16)
(-16.4249 -0.189251 -6.10091e-16)
(-16.4301 -0.216638 -6.3091e-16)
(-16.4355 -0.248184 -6.58092e-16)
(-16.4412 -0.284434 -6.89357e-16)
(-16.447 -0.325966 -7.2517e-16)
(-16.4528 -0.373369 -7.6611e-16)
(-16.4584 -0.427208 -8.16539e-16)
(-16.4633 -0.487977 -8.81286e-16)
(-16.467 -0.556071 -9.59333e-16)
(-16.2961 0.0265948 8.33002e-16)
(-16.2976 0.0260361 8.31597e-16)
(-16.3004 0.0255263 8.30035e-16)
(-16.3038 0.0250255 8.2649e-16)
(-16.3073 0.0245089 8.23407e-16)
(-16.3109 0.0239665 8.22633e-16)
(-16.3145 0.0233937 8.2154e-16)
(-16.3181 0.0227866 8.20254e-16)
(-16.3218 0.0221427 8.18982e-16)
(-16.3254 0.0214591 8.15844e-16)
(-16.3291 0.0207315 8.13284e-16)
(-16.3328 0.0199547 8.13055e-16)
(-16.3364 0.019123 8.1263e-16)
(-16.3401 0.01823 8.12166e-16)
(-16.3438 0.017267 8.11928e-16)
(-16.3474 0.0162232 8.10025e-16)
(-16.3511 0.0150875 8.08942e-16)
(-16.3548 0.0138478 8.1058e-16)
(-16.3585 0.0124878 8.12331e-16)
(-16.3622 0.0109884 8.14398e-16)
(-16.366 0.00932777 8.16847e-16)
(-16.3697 0.00748137 8.19803e-16)
(-16.3735 0.00542029 8.23254e-16)
(-16.3774 0.00311091 8.27293e-16)
(-16.3813 0.000515235 8.31884e-16)
(-16.3853 -0.0024101 8.36998e-16)
(-16.3893 -0.0057156 8.44582e-16)
(-16.3935 -0.00945981 8.52302e-16)
(-16.3978 -0.0137097 8.58405e-16)
(-16.4022 -0.018542 8.6561e-16)
(-16.4068 -0.0240456 8.73833e-16)
(-16.4117 -0.0303228 8.82926e-16)
(-16.4168 -0.0374915 8.94895e-16)
(-16.4222 -0.0456872 9.07329e-16)
(-16.4279 -0.0550664 9.18636e-16)
(-16.4341 -0.0658088 9.31616e-16)
(-16.4408 -0.0781217 9.46284e-16)
(-16.4481 -0.0922437 9.62574e-16)
(-16.456 -0.108449 9.8273e-16)
(-16.4647 -0.127053 1.00367e-15)
(-16.4742 -0.148413 1.02515e-15)
(-16.4847 -0.172942 1.05334e-15)
(-16.4962 -0.201108 1.085e-15)
(-16.5089 -0.233436 1.11876e-15)
(-16.5226 -0.27051 1.16029e-15)
(-16.5376 -0.312969 1.20707e-15)
(-16.5536 -0.361496 1.26257e-15)
(-16.5706 -0.416795 1.33037e-15)
(-16.5882 -0.479541 1.40879e-15)
(-16.6059 -0.550298 1.50414e-15)
(-16.1724 -0.01854 -1.1312e-15)
(-16.1801 -0.0190805 -1.13063e-15)
(-16.1848 -0.0196852 -1.12965e-15)
(-16.1893 -0.0203174 -1.13024e-15)
(-16.1937 -0.0209717 -1.12988e-15)
(-16.1981 -0.0216477 -1.12684e-15)
(-16.2026 -0.0223442 -1.12377e-15)
(-16.2071 -0.0230609 -1.12058e-15)
(-16.2116 -0.0237969 -1.11707e-15)
(-16.2162 -0.0245531 -1.11512e-15)
(-16.2207 -0.0253307 -1.11232e-15)
(-16.2253 -0.0261317 -1.10688e-15)
(-16.2298 -0.026959 -1.10156e-15)
(-16.2344 -0.0278166 -1.09612e-15)
(-16.239 -0.0287102 -1.09045e-15)
(-16.2436 -0.0296465 -1.08641e-15)
(-16.2482 -0.0306335 -1.08157e-15)
(-16.2527 -0.0316829 -1.07429e-15)
(-16.2573 -0.0328077 -1.06738e-15)
(-16.2619 -0.0340225 -1.06066e-15)
(-16.2664 -0.0353455 -1.05412e-15)
(-16.271 -0.0368015 -1.04794e-15)
(-16.2756 -0.0384153 -1.04217e-15)
(-16.2802 -0.0402146 -1.03688e-15)
(-16.2848 -0.0422308 -1.03207e-15)
(-16.2895 -0.0444996 -1.02793e-15)
(-16.2943 -0.0470622 -1.02247e-15)
(-16.2992 -0.0499676 -1.01827e-15)
(-16.3041 -0.0532733 -1.01717e-15)
(-16.3093 -0.0570461 -1.01654e-15)
(-16.3146 -0.0613627 -1.01666e-15)
(-16.3202 -0.0663132 -1.01784e-15)
(-16.326 -0.0720032 -1.01831e-15)
(-16.3322 -0.0785561 -1.02067e-15)
(-16.3388 -0.0861169 -1.02705e-15)
(-16.3459 -0.0948557 -1.0349e-15)
(-16.3535 -0.104972 -1.04477e-15)
(-16.3619 -0.116698 -1.05706e-15)
(-16.3709 -0.130308 -1.07223e-15)
(-16.3808 -0.14612 -1.08974e-15)
(-16.3917 -0.164505 -1.11203e-15)
(-16.4037 -0.185898 -1.13835e-15)
(-16.4169 -0.210798 -1.17046e-15)
(-16.4314 -0.239785 -1.21173e-15)
(-16.4471 -0.273518 -1.26045e-15)
(-16.4642 -0.312732 -1.31782e-15)
(-16.4824 -0.358232 -1.3851e-15)
(-16.5014 -0.410888 -1.46789e-15)
(-16.5206 -0.471578 -1.57272e-15)
(-16.5391 -0.541032 -1.6999e-15)
(-16.2749 0.0530711 1.71709e-15)
(-16.277 0.0529079 1.71935e-15)
(-16.2801 0.0527571 1.72109e-15)
(-16.2837 0.0525919 1.72053e-15)
(-16.2875 0.0523821 1.72012e-15)
(-16.2914 0.0521219 1.72166e-15)
(-16.2954 0.0518119 1.72253e-15)
(-16.2994 0.0514532 1.72285e-15)
(-16.3034 0.0510469 1.72291e-15)
(-16.3074 0.0505925 1.72077e-15)
(-16.3115 0.0500883 1.71905e-15)
(-16.3156 0.0495318 1.71936e-15)
(-16.3197 0.0489189 1.71918e-15)
(-16.3239 0.0482433 1.7186e-15)
(-16.328 0.0474974 1.71789e-15)
(-16.3322 0.0466724 1.7151e-15)
(-16.3365 0.0457579 1.71276e-15)
(-16.3407 0.0447404 1.71262e-15)
(-16.345 0.0436048 1.712e-15)
(-16.3494 0.042334 1.71106e-15)
(-16.3538 0.0409091 1.70995e-15)
(-16.3582 0.0393121 1.70896e-15)
(-16.3628 0.0375193 1.70818e-15)
(-16.3675 0.0355057 1.70785e-15)
(-16.3723 0.0332452 1.70836e-15)
(-16.3773 0.0307001 1.70977e-15)
(-16.3826 0.0278269 1.71417e-15)
(-16.3881 0.0245751 1.71913e-15)
(-16.3939 0.0208837 1.72295e-15)
(-16.4 0.016683 1.72846e-15)
(-16.4065 0.0118937 1.73563e-15)
(-16.4135 0.00642348 1.74437e-15)
(-16.4211 0.00016492 1.7569e-15)
(-16.4292 -0.00700617 1.77081e-15)
(-16.4381 -0.0152344 1.78468e-15)
(-16.4479 -0.0246884 1.80139e-15)
(-16.4587 -0.035564 1.82122e-15)
(-16.4706 -0.0480877 1.84418e-15)
(-16.4839 -0.0625238 1.87287e-15)
(-16.4987 -0.07918 1.90422e-15)
(-16.5153 -0.0984158 1.93841e-15)
(-16.5339 -0.12065 1.98186e-15)
(-16.5547 -0.146371 2.03176e-15)
(-16.5781 -0.176151 2.08716e-15)
(-16.6043 -0.210658 2.15436e-15)
(-16.6334 -0.250649 2.23176e-15)
(-16.6656 -0.296988 2.3236e-15)
(-16.7009 -0.350693 2.43498e-15)
(-16.7388 -0.412946 2.56584e-15)
(-16.7786 -0.484872 2.72346e-15)
(-16.0114 -0.0281717 -2.37769e-15)
(-16.0171 -0.0284827 -2.39054e-15)
(-16.0207 -0.029022 -2.4032e-15)
(-16.0243 -0.0296716 -2.41756e-15)
(-16.028 -0.0304028 -2.4311e-15)
(-16.0318 -0.0311977 -2.44192e-15)
(-16.0357 -0.0320457 -2.45284e-15)
(-16.0397 -0.0329389 -2.46358e-15)
(-16.0438 -0.033873 -2.47406e-15)
(-16.0481 -0.0348452 -2.48602e-15)
(-16.0524 -0.0358546 -2.49702e-15)
(-16.0569 -0.036902 -2.50517e-15)
(-16.0614 -0.0379892 -2.51316e-15)
(-16.0661 -0.03912 -2.52075e-15)
(-16.0708 -0.0402984 -2.52767e-15)
(-16.0757 -0.0415297 -2.53584e-15)
(-16.0806 -0.0428209 -2.5426e-15)
(-16.0857 -0.0441805 -2.54613e-15)
(-16.0908 -0.0456179 -2.54908e-15)
(-16.0961 -0.0471437 -2.55131e-15)
(-16.1015 -0.0487704 -2.55258e-15)
(-16.107 -0.0505123 -2.55291e-15)
(-16.1126 -0.0523856 -2.55207e-15)
(-16.1185 -0.0544115 -2.55027e-15)
(-16.1245 -0.0566211 -2.5477e-15)
(-16.1306 -0.0590451 -2.54469e-15)
(-16.137 -0.0617215 -2.53914e-15)
(-16.1436 -0.0647058 -2.53454e-15)
(-16.1504 -0.0680478 -2.53281e-15)
(-16.1576 -0.0717991 -2.53156e-15)
(-16.165 -0.0760159 -2.531e-15)
(-16.1729 -0.080764 -2.53183e-15)
(-16.1813 -0.086122 -2.53212e-15)
(-16.1903 -0.0921829 -2.53498e-15)
(-16.2 -0.099057 -2.54245e-15)
(-16.2105 -0.106875 -2.55234e-15)
(-16.2219 -0.115793 -2.56507e-15)
(-16.2345 -0.125998 -2.58144e-15)
(-16.2483 -0.137706 -2.6019e-15)
(-16.2636 -0.151184 -2.62627e-15)
(-16.2806 -0.166749 -2.65697e-15)
(-16.2996 -0.184787 -2.69364e-15)
(-16.3207 -0.205773 -2.73851e-15)
(-16.3443 -0.230295 -2.79539e-15)
(-16.3704 -0.259091 -2.8631e-15)
(-16.3993 -0.293061 -2.94366e-15)
(-16.431 -0.333308 -3.03966e-15)
(-16.4654 -0.381264 -3.1578e-15)
(-16.5021 -0.438825 -3.306e-15)
(-16.5392 -0.508027 -3.48645e-15)
(-16.3159 0.0723938 2.61199e-15)
(-16.3168 0.0731762 2.63464e-15)
(-16.3189 0.0737058 2.65746e-15)
(-16.3215 0.0741372 2.67836e-15)
(-16.3242 0.0744751 2.69997e-15)
(-16.327 0.0747383 2.72393e-15)
(-16.33 0.0749405 2.74758e-15)
(-16.333 0.0750919 2.77091e-15)
(-16.336 0.0751988 2.79416e-15)
(-16.3391 0.0752652 2.81525e-15)
(-16.3422 0.0752932 2.83675e-15)
(-16.3454 0.0752827 2.86035e-15)
(-16.3486 0.075232 2.8832e-15)
(-16.3519 0.0751387 2.90551e-15)
(-16.3552 0.0749992 2.92738e-15)
(-16.3585 0.074808 2.94689e-15)
(-16.3618 0.0745581 2.9665e-15)
(-16.3652 0.0742417 2.98813e-15)
(-16.3687 0.0738493 3.00882e-15)
(-16.3721 0.0733694 3.02892e-15)
(-16.3757 0.0727889 3.04839e-15)
(-16.3793 0.072093 3.06744e-15)
(-16.3831 0.0712633 3.08595e-15)
(-16.3869 0.0702783 3.10407e-15)
(-16.3909 0.0691143 3.12169e-15)
(-16.395 0.067744 3.13881e-15)
(-16.3993 0.0661379 3.15753e-15)
(-16.404 0.064277 3.17608e-15)
(-16.409 0.0621344 3.19306e-15)
(-16.4145 0.0596837 3.21198e-15)
(-16.4206 0.0568691 3.23293e-15)
(-16.4275 0.0536216 3.25583e-15)
(-16.4352 0.0498611 3.28293e-15)
(-16.4439 0.0454955 3.31165e-15)
(-16.4538 0.0404151 3.34023e-15)
(-16.4649 0.0344874 3.37158e-15)
(-16.4777 0.0275543 3.40545e-15)
(-16.4922 0.0194258 3.44163e-15)
(-16.5088 0.00987587 3.48235e-15)
(-16.5278 -0.00136987 3.52393e-15)
(-16.5495 -0.0146464 3.56653e-15)
(-16.5745 -0.0303642 3.61573e-15)
(-16.6033 -0.0490343 3.66847e-15)
(-16.6363 -0.0713006 3.7231e-15)
(-16.6742 -0.0979815 3.78569e-15)
(-16.7177 -0.130094 3.85357e-15)
(-16.7675 -0.168849 3.9302e-15)
(-16.8244 -0.21577 4.01977e-15)
(-16.889 -0.273038 4.12028e-15)
(-16.9597 -0.343437 4.23969e-15)
(-15.6591 -0.0347831 -2.92941e-16)
(-15.6544 -0.0345925 -3.10112e-16)
(-15.6502 -0.034969 -3.28043e-16)
(-15.6459 -0.035583 -3.4875e-16)
(-15.6416 -0.0363523 -3.69288e-16)
(-15.6375 -0.0372342 -3.87708e-16)
(-15.6335 -0.0382064 -4.07092e-16)
(-15.6297 -0.0392566 -4.27043e-16)
(-15.6261 -0.0403777 -4.47406e-16)
(-15.6227 -0.0415661 -4.7025e-16)
(-15.6194 -0.0428205 -4.92705e-16)
(-15.6164 -0.0441414 -5.12787e-16)
(-15.6136 -0.0455309 -5.33688e-16)
(-15.6111 -0.0469916 -5.54996e-16)
(-15.6087 -0.0485275 -5.76534e-16)
(-15.6067 -0.050144 -6.0044e-16)
(-15.6049 -0.0518471 -6.23783e-16)
(-15.6033 -0.0536437 -6.44612e-16)
(-15.6021 -0.055542 -6.6617e-16)
(-15.6012 -0.057551 -6.88056e-16)
(-15.6006 -0.0596806 -7.10214e-16)
(-15.6004 -0.0619424 -7.32498e-16)
(-15.6006 -0.0643502 -7.5491e-16)
(-15.6012 -0.0669193 -7.77317e-16)