/*--------------------------------*- C++ -*----------------------------------*\
  =========                 |
  \\      /  F ield         | OpenFOAM: The Open Source CFD Toolbox
   \\    /   O peration     | Website:  https://openfoam.org
    \\  /    A nd           | Version:  8
     \\/     M anipulation  |
\*---------------------------------------------------------------------------*/
FoamFile
{
    version     2.0;
    format      ascii;
    class       volScalarField;
    location    "400";
    object      alphat;
}
// * * * * * * * * * * * * * * * * * * * * * * * * * * * * * * * * * * * * * //

dimensions      [1 -1 -1 0 0 0 0];

internalField   nonuniform List<scalar> 
8400
(
0.347483
0.347157
0.346828
0.346497
0.346163
0.345827
0.345488
0.345146
0.3448
0.344451
0.344099
0.343742
0.343381
0.343016
0.342646
0.342272
0.341892
0.341508
0.341118
0.340722
0.340321
0.339915
0.339503
0.339085
0.338661
0.338231
0.337798
0.337363
0.33693
0.336498
0.336071
0.335648
0.335233
0.334827
0.334433
0.334055
0.333694
0.333356
0.333045
0.332767
0.332528
0.332337
0.332202
0.332136
0.332153
0.332272
0.332518
0.332925
0.333537
0.334414
0.147514
0.147576
0.147631
0.147683
0.147733
0.147781
0.147828
0.147873
0.147917
0.147959
0.148
0.148041
0.14808
0.148119
0.148158
0.148196
0.148235
0.148275
0.148317
0.14836
0.148406
0.148455
0.148509
0.148567
0.148632
0.148704
0.148784
0.148868
0.148955
0.149046
0.149142
0.149245
0.149353
0.14947
0.149595
0.149731
0.149877
0.150038
0.150213
0.150406
0.150619
0.150856
0.151119
0.151415
0.151748
0.152125
0.152556
0.153052
0.153628
0.154305
0.0929617
0.0931361
0.0933102
0.0934838
0.0936566
0.0938286
0.0939998
0.0941704
0.0943402
0.0945094
0.094678
0.0948461
0.0950137
0.0951809
0.0953479
0.0955148
0.0956816
0.0958487
0.0960162
0.0961842
0.0963531
0.0965231
0.0966945
0.096868
0.0970439
0.0972229
0.0974036
0.0975846
0.0977662
0.0979483
0.0981312
0.098315
0.0984999
0.098686
0.0988737
0.0990631
0.0992546
0.0994486
0.0996454
0.0998455
0.10005
0.100258
0.100472
0.100692
0.100919
0.101155
0.101402
0.10166
0.101935
0.102227
0.0874028
0.0875674
0.0877323
0.0878974
0.0880629
0.0882288
0.088395
0.0885617
0.0887287
0.0888962
0.0890641
0.0892324
0.0894013
0.0895706
0.0897405
0.0899109
0.0900818
0.0902534
0.0904256
0.0905985
0.0907721
0.0909465
0.0911217
0.0912975
0.0914738
0.0916508
0.0918284
0.0920067
0.0921856
0.0923651
0.0925454
0.0927263
0.0929079
0.0930902
0.0932733
0.0934572
0.0936418
0.0938272
0.0940135
0.0942006
0.0943886
0.0945776
0.0947676
0.0949587
0.0951509
0.0953445
0.0955394
0.095736
0.0959345
0.0961352
0.0875284
0.0876895
0.0878512
0.0880135
0.0881762
0.0883396
0.0885035
0.088668
0.0888331
0.0889988
0.0891652
0.0893322
0.0894999
0.0896683
0.0898374
0.0900072
0.0901777
0.090349
0.0905211
0.0906938
0.0908673
0.0910415
0.0912164
0.091392
0.0915684
0.0917454
0.091923
0.0921014
0.0922804
0.0924599
0.0926401
0.0928207
0.0930019
0.0931834
0.0933653
0.0935475
0.0937298
0.0939121
0.0940944
0.0942764
0.094458
0.0946388
0.0948188
0.0949974
0.0951744
0.0953494
0.0955216
0.0956906
0.0958554
0.0960151
0.0890378
0.0892054
0.0893737
0.0895425
0.0897118
0.0898816
0.090052
0.0902229
0.0903944
0.0905664
0.0907391
0.0909124
0.0910863
0.0912609
0.0914361
0.091612
0.0917886
0.0919658
0.0921437
0.0923223
0.0925016
0.0926816
0.0928623
0.0930438
0.093226
0.0934089
0.0935926
0.0937769
0.093962
0.0941477
0.0943341
0.0945211
0.0947087
0.0948969
0.0950857
0.0952748
0.0954644
0.0956543
0.0958445
0.0960347
0.096225
0.0964152
0.0966051
0.0967945
0.0969832
0.097171
0.0973576
0.0975428
0.0977261
0.0979073
0.0900366
0.090208
0.09038
0.0905525
0.0907255
0.090899
0.0910731
0.0912478
0.0914231
0.091599
0.0917755
0.0919527
0.0921306
0.0923092
0.0924884
0.0926684
0.092849
0.0930304
0.0932124
0.0933953
0.0935788
0.0937631
0.0939481
0.0941339
0.0943204
0.0945076
0.0946955
0.094884
0.0950733
0.0952631
0.0954535
0.0956445
0.0958359
0.0960278
0.09622
0.0964123
0.0966049
0.0967974
0.0969897
0.0971817
0.0973731
0.0975636
0.0977531
0.0979411
0.0981273
0.0983112
0.0984923
0.0986699
0.0988433
0.0990119
0.091391
0.0915685
0.0917466
0.0919253
0.0921045
0.0922842
0.0924645
0.0926453
0.0928268
0.0930088
0.0931914
0.0933747
0.0935586
0.0937431
0.0939284
0.0941143
0.0943009
0.0944883
0.0946763
0.0948651
0.0950546
0.0952449
0.0954359
0.0956277
0.0958202
0.0960134
0.0962074
0.096402
0.0965974
0.0967934
0.09699
0.0971872
0.097385
0.0975832
0.0977819
0.0979809
0.0981801
0.0983795
0.0985788
0.098778
0.0989769
0.0991752
0.0993728
0.0995693
0.0997645
0.0999579
0.100149
0.100338
0.100524
0.100706
0.0925105
0.092693
0.0928762
0.0930599
0.0932441
0.0934288
0.093614
0.0937999
0.0939863
0.0941733
0.0943609
0.0945492
0.0947381
0.0949277
0.095118
0.095309
0.0955007
0.0956932
0.0958864
0.0960803
0.096275
0.0964704
0.0966666
0.0968635
0.0970612
0.0972596
0.0974587
0.0976586
0.0978591
0.0980602
0.0982619
0.0984642
0.098667
0.0988702
0.0990738
0.0992776
0.0994815
0.0996854
0.0998891
0.100092
0.100295
0.100497
0.100698
0.100897
0.101095
0.10129
0.101483
0.101672
0.101857
0.102038
0.0937545
0.0939429
0.0941319
0.0943215
0.0945115
0.0947021
0.0948931
0.0950848
0.095277
0.0954698
0.0956633
0.0958573
0.0960521
0.0962475
0.0964436
0.0966405
0.096838
0.0970363
0.0972353
0.0974351
0.0976356
0.0978369
0.098039
0.0982418
0.0984454
0.0986497
0.0988548
0.0990606
0.099267
0.0994741
0.0996818
0.0998901
0.100099
0.100308
0.100518
0.100728
0.100938
0.101148
0.101357
0.101567
0.101776
0.101984
0.10219
0.102396
0.102599
0.1028
0.102998
0.103193
0.103384
0.10357
0.0949636
0.0951581
0.0953534
0.0955491
0.0957452
0.0959419
0.0961392
0.0963369
0.0965353
0.0967342
0.0969338
0.097134
0.0973349
0.0975364
0.0977387
0.0979416
0.0981453
0.0983497
0.0985548
0.0987608
0.0989674
0.0991749
0.0993831
0.0995921
0.0998019
0.100012
0.100224
0.100436
0.100649
0.100862
0.101076
0.101291
0.101506
0.101722
0.101938
0.102154
0.102371
0.102588
0.102804
0.103021
0.103236
0.103452
0.103666
0.103879
0.10409
0.104299
0.104506
0.104709
0.104909
0.105105
0.0961174
0.0963178
0.0965188
0.0967202
0.096922
0.0971244
0.0973272
0.0975307
0.0977346
0.0979392
0.0981443
0.0983501
0.0985566
0.0987637
0.0989715
0.0991801
0.0993893
0.0995993
0.0998101
0.100022
0.100234
0.100447
0.100661
0.100875
0.101091
0.101307
0.101524
0.101741
0.10196
0.102179
0.102398
0.102619
0.102839
0.10306
0.103282
0.103504
0.103725
0.103947
0.104169
0.10439
0.10461
0.104829
0.105047
0.105263
0.105477
0.105688
0.105895
0.106099
0.106297
0.106489
0.0974189
0.0976265
0.0978348
0.0980435
0.0982527
0.0984623
0.0986725
0.0988831
0.0990944
0.0993062
0.0995186
0.0997316
0.0999453
0.10016
0.100375
0.10059
0.100807
0.101024
0.101242
0.10146
0.10168
0.1019
0.102121
0.102343
0.102566
0.102789
0.103013
0.103238
0.103464
0.103691
0.103918
0.104146
0.104375
0.104604
0.104834
0.105064
0.105294
0.105525
0.105756
0.105986
0.106217
0.106447
0.106676
0.106905
0.107132
0.107357
0.107581
0.107802
0.10802
0.108235
0.0984763
0.0986902
0.0989045
0.0991192
0.0993343
0.0995498
0.0997658
0.0999822
0.100199
0.100417
0.100635
0.100853
0.101073
0.101292
0.101513
0.101734
0.101956
0.102179
0.102402
0.102626
0.102851
0.103076
0.103303
0.10353
0.103758
0.103986
0.104216
0.104446
0.104677
0.104908
0.10514
0.105373
0.105606
0.10584
0.106073
0.106307
0.106541
0.106775
0.107009
0.107242
0.107474
0.107705
0.107934
0.108161
0.108385
0.108607
0.108824
0.109036
0.109242
0.10944
0.100099
0.100322
0.100545
0.100769
0.100994
0.101219
0.101444
0.101669
0.101895
0.102121
0.102348
0.102575
0.102803
0.103032
0.103261
0.10349
0.103721
0.103951
0.104183
0.104415
0.104648
0.104882
0.105116
0.105351
0.105587
0.105823
0.106061
0.106299
0.106537
0.106776
0.107016
0.107257
0.107497
0.107739
0.10798
0.108222
0.108464
0.108706
0.108948
0.10919
0.10943
0.109671
0.10991
0.110147
0.110383
0.110617
0.110849
0.111078
0.111305
0.111529
0.101961
0.102199
0.102437
0.102675
0.102913
0.10315
0.103387
0.103624
0.103861
0.104098
0.104334
0.104571
0.104808
0.105045
0.105282
0.105519
0.105757
0.105995
0.106233
0.106471
0.106709
0.106948
0.107187
0.107427
0.107666
0.107906
0.108145
0.108385
0.108625
0.108864
0.109103
0.109342
0.109579
0.109816
0.110051
0.110285
0.110516
0.110745
0.11097
0.111192
0.111409
0.111621
0.111826
0.112024
0.112212
0.112391
0.112558
0.112711
0.112849
0.112969
0.109009
0.109287
0.109564
0.10984
0.110114
0.110387
0.110658
0.110927
0.111195
0.111462
0.111727
0.11199
0.112253
0.112514
0.112775
0.113034
0.113292
0.113549
0.113805
0.114061
0.114315
0.114569
0.114821
0.115072
0.115322
0.115571
0.115818
0.116063
0.116306
0.116547
0.116784
0.117018
0.117248
0.117474
0.117693
0.117906
0.118111
0.118307
0.118492
0.118664
0.118821
0.118962
0.119082
0.11918
0.11925
0.119289
0.119293
0.119254
0.119168
0.119028
0.131421
0.131824
0.132219
0.132609
0.132993
0.133372
0.133747
0.134117
0.134482
0.134843
0.1352
0.135552
0.135901
0.136245
0.136586
0.136923
0.137256
0.137586
0.137912
0.138235
0.138554
0.13887
0.139181
0.139489
0.139792
0.14009
0.140382
0.140668
0.140948
0.141219
0.141481
0.141732
0.141971
0.142195
0.142402
0.14259
0.142754
0.142892
0.142998
0.143066
0.143091
0.143064
0.142976
0.142816
0.14257
0.142219
0.141741
0.141107
0.14028
0.139206
0.197688
0.198224
0.198769
0.199317
0.199865
0.200413
0.200961
0.20151
0.202058
0.202607
0.203156
0.203706
0.204255
0.204806
0.205357
0.205908
0.20646
0.207013
0.207566
0.208119
0.208672
0.209225
0.209778
0.210329
0.210878
0.211425
0.211968
0.212507
0.21304
0.213565
0.214081
0.214585
0.215075
0.215548
0.216
0.216427
0.216824
0.217185
0.217502
0.217768
0.217972
0.218101
0.218141
0.218072
0.21787
0.217501
0.216921
0.216067
0.214859
0.213177
0.377199
0.377624
0.378055
0.37849
0.37893
0.379374
0.379824
0.380278
0.380739
0.381205
0.381677
0.382156
0.382641
0.383132
0.38363
0.384135
0.384647
0.385165
0.385691
0.386223
0.386762
0.387309
0.387862
0.388423
0.388991
0.389566
0.390147
0.390736
0.391332
0.391935
0.392544
0.39316
0.393782
0.394409
0.395043
0.395681
0.396323
0.396969
0.397618
0.398269
0.39892
0.399569
0.400216
0.400857
0.40149
0.402112
0.402719
0.403306
0.403866
0.404389
1.08355
1.06874
1.05457
1.04098
1.02789
1.01526
1.00302
0.991131
0.979585
0.968363
0.957454
0.946844
0.936523
0.926479
0.916704
0.907187
0.897919
0.888893
0.880099
0.87153
0.863178
0.855037
0.847099
0.839358
0.831807
0.82444
0.817253
0.810239
0.803392
0.796709
0.790184
0.783813
0.777592
0.771516
0.765582
0.759787
0.754128
0.7486
0.743192
0.737887
0.732678
0.72756
0.722523
0.71756
0.712659
0.707804
0.702973
0.698128
0.693203
0.688066
1.07683
1.05216
1.02859
1.00603
0.984429
0.963764
0.944006
0.9251
0.906993
0.889635
0.872982
0.85699
0.841621
0.82684
0.812612
0.798908
0.785698
0.772956
0.760658
0.74878
0.737302
0.726202
0.715462
0.705064
0.694992
0.685231
0.675765
0.66658
0.657664
0.649004
0.640588
0.632404
0.624441
0.616687
0.609132
0.601765
0.594575
0.587552
0.580699
0.574021
0.567514
0.561168
0.554979
0.54894
0.543044
0.537284
0.531653
0.526142
0.52074
0.51543
1.0768
1.05207
1.02836
1.00568
0.983955
0.963152
0.943214
0.924088
0.905725
0.88808
0.871111
0.85478
0.839049
0.823888
0.809265
0.795152
0.781522
0.768353
0.755619
0.743301
0.731379
0.719834
0.708648
0.697805
0.68729
0.677088
0.667186
0.65757
0.648229
0.639152
0.630327
0.621743
0.613393
0.605267
0.597358
0.589656
0.582155
0.574848
0.567728
0.560789
0.554024
0.54743
0.541
0.53473
0.528616
0.522654
0.516841
0.511174
0.505649
0.500263
1.0768
1.05225
1.02876
1.00628
0.984746
0.964102
0.944292
0.925267
0.906979
0.889389
0.872456
0.856145
0.840423
0.825259
0.810625
0.796494
0.782841
0.769642
0.756875
0.744521
0.732559
0.720972
0.709742
0.698854
0.688293
0.678044
0.668095
0.658432
0.649043
0.639918
0.631046
0.622417
0.614021
0.60585
0.597895
0.590148
0.582602
0.57525
0.568085
0.561101
0.554293
0.547654
0.541181
0.534867
0.52871
0.522705
0.516848
0.511135
0.505565
0.500132
1.0768
1.05225
1.02875
1.00625
0.984678
0.963996
0.944148
0.92509
0.906775
0.889164
0.872218
0.8559
0.840176
0.825016
0.810389
0.796268
0.782628
0.769444
0.756694
0.744358
0.732415
0.720847
0.709637
0.698769
0.688227
0.677997
0.668067
0.658422
0.649051
0.639943
0.631087
0.622474
0.614093
0.605936
0.597994
0.59026
0.582726
0.575384
0.568229
0.561254
0.554453
0.54782
0.541351
0.535041
0.528885
0.522878
0.517018
0.511299
0.505719
0.500271
1.0768
1.05226
1.02879
1.00633
0.984802
0.964168
0.944369
0.925358
0.907088
0.889517
0.872607
0.85632
0.840623
0.825485
0.810876
0.79677
0.783141
0.769965
0.757221
0.744888
0.732947
0.721378
0.710167
0.699295
0.688749
0.678514
0.668577
0.658925
0.649546
0.64043
0.631565
0.622942
0.614551
0.606383
0.59843
0.590684
0.583138
0.575783
0.568615
0.561625
0.554809
0.54816
0.541674
0.535345
0.529169
0.523141
0.517257
0.511512
0.505902
0.500422
1.0768
1.05227
1.0288
1.00634
0.984815
0.964177
0.944371
0.925349
0.907066
0.889482
0.872558
0.856258
0.840548
0.825399
0.81078
0.796665
0.783029
0.769847
0.757099
0.744762
0.732819
0.721249
0.710037
0.699166
0.688621
0.678388
0.668453
0.658804
0.649428
0.640315
0.631454
0.622834
0.614447
0.606283
0.598333
0.590591
0.583047
0.575695
0.568529
0.561541
0.554725
0.548077
0.54159
0.535259
0.529079
0.523046
0.517155
0.511402
0.505781
0.500288
1.0768
1.05227
1.02881
1.00635
0.984836
0.964207
0.944411
0.925401
0.907131
0.889559
0.872648
0.856361
0.840664
0.825526
0.810918
0.796814
0.783187
0.770013
0.757272
0.744942
0.733003
0.721438
0.710229
0.699361
0.688818
0.678585
0.66865
0.659
0.649623
0.640508
0.631643
0.62302
0.614629
0.606459
0.598504
0.590755
0.583205
0.575845
0.568669
0.561672
0.554846
0.548185
0.541685
0.53534
0.529144
0.523093
0.517182
0.511407
0.505762
0.500243
1.0768
1.05227
1.02881
1.00636
0.984842
0.964215
0.94442
0.925409
0.907137
0.889563
0.872648
0.856357
0.840655
0.825512
0.8109
0.79679
0.783158
0.76998
0.757234
0.744899
0.732957
0.721388
0.710176
0.699305
0.688759
0.678524
0.668587
0.658935
0.649556
0.640439
0.631574
0.622949
0.614556
0.606385
0.598429
0.590678
0.583125
0.575763
0.568584
0.561583
0.554753
0.548087
0.541581
0.535229
0.529025
0.522964
0.517042
0.511254
0.505595
0.50006
1.0768
1.05227
1.02881
1.00636
0.984846
0.96422
0.944427
0.925418
0.907148
0.889576
0.872664
0.856375
0.840676
0.825536
0.810926
0.796819
0.78319
0.770014
0.757271
0.744938
0.732998
0.721431
0.71022
0.699349
0.688804
0.678569
0.668632
0.65898
0.649601
0.640482
0.631615
0.622989
0.614593
0.606419
0.598459
0.590704
0.583147
0.575779
0.568595
0.561587
0.554749
0.548074
0.541558
0.535194
0.528978
0.522903
0.516965
0.51116
0.505481
0.499925
1.0768
1.05227
1.02881
1.00636
0.984846
0.96422
0.944426
0.925417
0.907148
0.889576
0.872664
0.856374
0.840675
0.825535
0.810925
0.796818
0.783188
0.770012
0.757268
0.744935
0.732994
0.721426
0.710215
0.699344
0.688797
0.678562
0.668624
0.65897
0.649589
0.640469
0.6316
0.622971
0.614573
0.606396
0.598433
0.590674
0.583112
0.57574
0.56855
0.561535
0.55469
0.548008
0.541482
0.535108
0.52888
0.522793
0.516841
0.511019
0.505323
0.499748
1.0768
1.05227
1.02881
1.00636
0.984842
0.964215
0.944419
0.925408
0.907136
0.889562
0.872647
0.856355
0.840653
0.82551
0.810896
0.796786
0.783153
0.769974
0.757227
0.744891
0.732948
0.721377
0.710163
0.69929
0.688741
0.678504
0.668564
0.658908
0.649525
0.640404
0.631533
0.622902
0.614502
0.606323
0.598357
0.590596
0.583031
0.575655
0.568461
0.561442
0.554591
0.547903
0.541371
0.534989
0.528751
0.522653
0.516689
0.510854
0.505143
0.499551
1.0768
1.05227
1.02881
1.00635
0.984836
0.964206
0.944411
0.9254
0.90713
0.889558
0.872646
0.856358
0.84066
0.825522
0.810913
0.796807
0.783178
0.770004
0.75726
0.744928
0.732987
0.721419
0.710207
0.699334
0.688787
0.678549
0.668609
0.658953
0.649568
0.640445
0.631571
0.622938
0.614534
0.606351
0.59838
0.590613
0.583042
0.57566
0.568458
0.56143
0.55457
0.547871
0.541327
0.534932
0.52868
0.522566
0.516585
0.510731
0.504999
0.499384
1.0768
1.05227
1.0288
1.00634
0.984815
0.964176
0.94437
0.925348
0.907065
0.88948
0.872555
0.856254
0.840544
0.825393
0.810773
0.796656
0.783018
0.769835
0.757084
0.744745
0.732798
0.721225
0.710009
0.699133
0.688582
0.678343
0.668401
0.658744
0.649359
0.640235
0.631361
0.622728
0.614324
0.606141
0.598171
0.590404
0.582833
0.57545
0.568248
0.561219
0.554357
0.547656
0.541109
0.53471
0.528453
0.522332
0.516343
0.510479
0.504736
0.499108
1.0768
1.05226
1.02879
1.00633
0.984802
0.964167
0.944368
0.925357
0.907086
0.889515
0.872603
0.856315
0.840617
0.825477
0.810867
0.796758
0.783127
0.769948
0.757201
0.744864
0.732918
0.721345
0.710127
0.69925
0.688696
0.678453
0.668506
0.658843
0.649452
0.640322
0.631441
0.6228
0.614388
0.606197
0.598217
0.59044
0.582859
0.575465
0.568251
0.56121
0.554335
0.547619
0.541057
0.534642
0.528367
0.522227
0.516217
0.510331
0.504564
0.498909
1.0768
1.05225
1.02875
1.00625
0.984678
0.963995
0.944147
0.925088
0.906773
0.889161
0.872214
0.855895
0.84017
0.825008
0.810379
0.796255
0.782612
0.769425
0.756672
0.744332
0.732384
0.720811
0.709595
0.698719
0.688169
0.677931
0.667989
0.658332
0.648947
0.639823
0.630949
0.622314
0.613909
0.605725
0.597752
0.589981
0.582406
0.575017
0.567809
0.560772
0.553901
0.547189
0.540628
0.534214
0.52794
0.521799
0.515786
0.509896
0.504123
0.498461
1.0768
1.05225
1.02876
1.00628
0.984745
0.964101
0.944291
0.925265
0.906977
0.889385
0.872451
0.856138
0.840415
0.825249
0.810613
0.796479
0.782822
0.769619
0.756848
0.744489
0.732521
0.720928
0.709691
0.698795
0.688224
0.677964
0.668002
0.658325
0.64892
0.639777
0.630884
0.622231
0.613808
0.605606
0.597616
0.58983
0.582239
0.574835
0.567612
0.560562
0.553678
0.546953
0.540382
0.533957
0.527674
0.521526
0.515509
0.509617
0.503847
0.498196
1.0768
1.05207
1.02836
1.00567
0.983955
0.963151
0.943212
0.924086
0.905722
0.888076
0.871106
0.854773
0.839041
0.823878
0.809253
0.795137
0.781505
0.768332
0.755595
0.743273
0.731346
0.719796
0.708604
0.697755
0.687233
0.677024
0.667114
0.657489
0.648139
0.639051
0.630215
0.62162
0.613256
0.605116
0.597189
0.589468
0.581945
0.574613
0.567465
0.560495
0.553697
0.547065
0.540595
0.534283
0.528125
0.52212
0.516268
0.51057
0.505037
0.499684
1.07683
1.05216
1.02859
1.00602
0.984428
0.963764
0.944005
0.925099
0.906993
0.889635
0.872982
0.856991
0.841623
0.826843
0.812617
0.798914
0.785707
0.772969
0.760675
0.748803
0.737331
0.72624
0.71551
0.705126
0.69507
0.685328
0.675886
0.666731
0.65785
0.649233
0.640869
0.632748
0.624861
0.617199
0.609757
0.602526
0.5955
0.588676
0.582047
0.575612
0.569367
0.563312
0.557447
0.551775
0.5463
0.541034
0.535992
0.531205
0.526732
0.522686
1.08355
1.06874
1.05457
1.04098
1.02789
1.01526
1.00302
0.99113
0.979582
0.96836
0.957449
0.946837
0.936513
0.926467
0.916688
0.907167
0.897895
0.888863
0.880063
0.871486
0.863126
0.854974
0.847025
0.83927
0.831703
0.824319
0.81711
0.810071
0.803197
0.796481
0.789918
0.783503
0.777231
0.771097
0.765096
0.759222
0.753472
0.747839
0.742321
0.73691
0.731604
0.726395
0.72128
0.716251
0.711305
0.706432
0.701627
0.69688
0.69218
0.68751
0.463698
0.251399
0.194342
0.186907
0.183043
0.181783
0.179049
0.177366
0.175021
0.173054
0.171035
0.16883
0.167127
0.164659
0.163282
0.160456
0.160173
0.163108
0.207935
0.388716
0.46427
0.252006
0.195036
0.187621
0.183768
0.182498
0.179766
0.178074
0.175729
0.173755
0.171734
0.169523
0.167817
0.165345
0.163963
0.161133
0.160845
0.16378
0.208606
0.389268
0.464847
0.252593
0.195731
0.188341
0.184498
0.183218
0.180488
0.178788
0.176443
0.174462
0.17244
0.170223
0.168513
0.166037
0.16465
0.161817
0.161522
0.164457
0.209273
0.389769
0.465429
0.253175
0.19643
0.189066
0.185234
0.183945
0.181217
0.179508
0.177163
0.175175
0.173151
0.170929
0.169215
0.166735
0.165343
0.162507
0.162205
0.165137
0.209894
0.390277
0.466016
0.253756
0.197133
0.189798
0.185976
0.184677
0.181952
0.180234
0.177889
0.175895
0.173868
0.171641
0.169924
0.16744
0.166042
0.163204
0.162894
0.165816
0.210499
0.390792
0.466608
0.25434
0.197842
0.190535
0.186725
0.185416
0.182693
0.180967
0.178621
0.17662
0.174592
0.17236
0.170639
0.168151
0.166747
0.163907
0.163589
0.166498
0.211097
0.391314
0.467205
0.254928
0.198557
0.191279
0.18748
0.18616
0.18344
0.181706
0.17936
0.177352
0.175322
0.173085
0.17136
0.168869
0.167459
0.164617
0.16429
0.167182
0.211694
0.391842
0.467807
0.255521
0.199277
0.192028
0.188241
0.186911
0.184194
0.182451
0.180105
0.178091
0.176059
0.173816
0.172087
0.169593
0.168178
0.165333
0.164998
0.167872
0.212291
0.392377
0.468414
0.256119
0.200005
0.192784
0.189008
0.187669
0.184954
0.183202
0.180857
0.178836
0.176802
0.174554
0.172822
0.170324
0.168903
0.166056
0.165711
0.168566
0.212892
0.392918
0.469026
0.256723
0.200738
0.193547
0.189782
0.188433
0.185721
0.18396
0.181615
0.179587
0.177552
0.175299
0.173562
0.171061
0.169635
0.166786
0.166432
0.169266
0.213496
0.393466
0.469644
0.257332
0.201479
0.194316
0.190563
0.189203
0.186494
0.184725
0.18238
0.180345
0.178308
0.17605
0.17431
0.171806
0.170373
0.167522
0.167158
0.169972
0.214105
0.39402
0.470266
0.257947
0.202226
0.195091
0.191351
0.18998
0.187274
0.185496
0.183152
0.18111
0.179071
0.176808
0.175064
0.172557
0.171119
0.168265
0.167892
0.170684
0.214719
0.394581
0.470894
0.258568
0.20298
0.195873
0.192145
0.190763
0.188061
0.186274
0.18393
0.181882
0.179841
0.177573
0.175825
0.173314
0.171871
0.169014
0.168632
0.171402
0.215338
0.395148
0.471527
0.259194
0.203741
0.196662
0.192946
0.191554
0.188854
0.187058
0.184716
0.18266
0.180618
0.178345
0.176593
0.174079
0.17263
0.169771
0.169379
0.172127
0.215963
0.395722
0.472166
0.259827
0.204509
0.197458
0.193754
0.192351
0.189655
0.18785
0.185508
0.183446
0.181401
0.179123
0.177368
0.174851
0.173395
0.170534
0.170132
0.172859
0.216594
0.396303
0.47281
0.260466
0.205284
0.19826
0.194569
0.193155
0.190462
0.188649
0.186307
0.184238
0.182192
0.179909
0.17815
0.17563
0.174168
0.171305
0.170893
0.173598
0.217232
0.396891
0.47346
0.261111
0.206066
0.199069
0.195391
0.193966
0.191277
0.189454
0.187114
0.185038
0.18299
0.180702
0.178939
0.176416
0.174949
0.172083
0.171661
0.174344
0.217876
0.397485
0.474115
0.261762
0.206856
0.199886
0.19622
0.194785
0.192099
0.190267
0.187927
0.185845
0.183795
0.181502
0.179736
0.17721
0.175736
0.172868
0.172436
0.175097
0.218527
0.398087
0.474776
0.262418
0.207652
0.200709
0.197056
0.19561
0.192928
0.191087
0.188748
0.186659
0.184608
0.18231
0.18054
0.17801
0.176531
0.173661
0.173219
0.175857
0.219185
0.398695
0.475443
0.263081
0.208456
0.20154
0.1979
0.196443
0.193765
0.191915
0.189577
0.18748
0.185427
0.183125
0.181351
0.178818
0.177333
0.174461
0.174009
0.176625
0.21985
0.399311
0.476115
0.263751
0.209268
0.202378
0.198751
0.197283
0.194609
0.19275
0.190412
0.188309
0.186255
0.183948
0.18217
0.179634
0.178143
0.175269
0.174806
0.177401
0.220522
0.399934
0.476793
0.264426
0.210087
0.203224
0.19961
0.19813
0.19546
0.193592
0.191256
0.189146
0.18709
0.184778
0.182996
0.180458
0.17896
0.176084
0.175611
0.178184
0.221201
0.400564
0.477477
0.265108
0.210913
0.204077
0.200476
0.198985
0.196319
0.194442
0.192107
0.18999
0.187932
0.185616
0.18383
0.181289
0.179785
0.176907
0.176424
0.178975
0.221888
0.401202
0.478167
0.265795
0.211747
0.204937
0.20135
0.199848
0.197186
0.1953
0.192965
0.190842
0.188782
0.186462
0.184672
0.182128
0.180618
0.177738
0.177244
0.179774
0.222583
0.401848
0.478863
0.26649
0.212589
0.205805
0.202232
0.200718
0.198061
0.196165
0.193832
0.191702
0.189641
0.187316
0.185522
0.182975
0.181459
0.178577
0.178073
0.180581
0.223285
0.402501
0.479564
0.26719
0.213438
0.206681
0.203121
0.201597
0.198943
0.197039
0.194706
0.192569
0.190507
0.188177
0.186379
0.18383
0.182308
0.179424
0.178909
0.181396
0.223995
0.403162
0.480272
0.267897
0.214296
0.207565
0.204019
0.202483
0.199834
0.19792
0.195589
0.193445
0.191381
0.189047
0.187245
0.184693
0.183165
0.18028
0.179754
0.182219
0.224713
0.40383
0.480986
0.268611
0.215161
0.208456
0.204925
0.203377
0.200732
0.19881
0.19648
0.19433
0.192264
0.189925
0.188119
0.185565
0.18403
0.181143
0.180607
0.183051
0.225439
0.404507
0.481706
0.269331
0.216034
0.209356
0.205839
0.204279
0.201639
0.199707
0.197379
0.195222
0.193155
0.190812
0.189002
0.186445
0.184903
0.182015
0.181468
0.183891
0.226173
0.405191
0.482433
0.270058
0.216916
0.210264
0.206761
0.20519
0.202555
0.200613
0.198286
0.196123
0.194054
0.191707
0.189893
0.187333
0.185786
0.182896
0.182338
0.18474
0.226916
0.405884
0.483166
0.270792
0.217806
0.21118
0.207691
0.206109
0.203478
0.201528
0.199202
0.197032
0.194962
0.192611
0.190792
0.18823
0.186676
0.183786
0.183217
0.185597
0.227666
0.406585
0.483905
0.271532
0.218704
0.212104
0.208631
0.207036
0.204411
0.202451
0.200127
0.19795
0.195878
0.193523
0.191701
0.189136
0.187576
0.184684
0.184104
0.186464
0.228426
0.407295
0.48465
0.27228
0.219611
0.213037
0.209578
0.207972
0.205352
0.203383
0.20106
0.198877
0.196803
0.194444
0.192618
0.190051
0.188484
0.185591
0.185
0.18734
0.229194
0.408013
0.485402
0.273034
0.220527
0.213979
0.210535
0.208917
0.206301
0.204324
0.202002
0.199812
0.197737
0.195374
0.193544
0.190975
0.189401
0.186507
0.185905
0.188224
0.229971
0.40874
0.486161
0.273796
0.221451
0.214929
0.2115
0.209871
0.20726
0.205273
0.202953
0.200757
0.19868
0.196313
0.194479
0.191908
0.190328
0.187433
0.186819
0.189118
0.230757
0.409475
0.486926
0.274564
0.222384
0.215888
0.212474
0.210833
0.208228
0.206232
0.203913
0.201711
0.199633
0.197262
0.195423
0.19285
0.191263
0.188367
0.187743
0.190022
0.231552
0.41022
0.487698
0.27534
0.223326
0.216856
0.213458
0.211805
0.209204
0.207199
0.204882
0.202674
0.200594
0.19822
0.196377
0.193802
0.192208
0.189312
0.188676
0.190935
0.232357
0.410973
0.488476
0.276123
0.224276
0.217833
0.21445
0.212785
0.21019
0.208176
0.205861
0.203646
0.201565
0.199187
0.19734
0.194763
0.193163
0.190266
0.189618
0.191858
0.233171
0.411736
0.489262
0.276914
0.225237
0.218819
0.215452
0.213775
0.211186
0.209163
0.206849
0.204628
0.202546
0.200164
0.198312
0.195734
0.194127
0.191229
0.190571
0.19279
0.233994
0.412508
0.490054
0.277712
0.226206
0.219814
0.216463
0.214775
0.212191
0.210159
0.207847
0.20562
0.203536
0.20115
0.199295
0.196715
0.195101
0.192203
0.191533
0.193733
0.234827
0.413289
0.490853
0.278518
0.227185
0.220819
0.217484
0.215784
0.213206
0.211165
0.208854
0.206621
0.204536
0.202147
0.200287
0.197705
0.196085
0.193186
0.192505
0.194686
0.23567
0.41408
0.491659
0.279332
0.228173
0.221834
0.218515
0.216803
0.21423
0.21218
0.209872
0.207633
0.205546
0.203153
0.20129
0.198706
0.197079
0.19418
0.193487
0.195649
0.236522
0.414881
0.492473
0.280153
0.229171
0.222858
0.219556
0.217831
0.215265
0.213206
0.210899
0.208654
0.206566
0.20417
0.202302
0.199717
0.198084
0.195184
0.194479
0.196623
0.237385
0.415691
0.493293
0.280983
0.230179
0.223892
0.220606
0.21887
0.216309
0.214242
0.211937
0.209686
0.207596
0.205197
0.203325
0.200739
0.199098
0.196199
0.195482
0.197607
0.238259
0.416512
0.494121
0.28182
0.231197
0.224936
0.221667
0.219919
0.217364
0.215288
0.212985
0.210728
0.208637
0.206235
0.204359
0.201771
0.200124
0.197224
0.196496
0.198602
0.239142
0.417343
0.494956
0.282666
0.232225
0.22599
0.222738
0.220978
0.218429
0.216344
0.214043
0.211781
0.209689
0.207283
0.205403
0.202814
0.20116
0.19826
0.197521
0.199608
0.240037
0.418184
0.495798
0.28352
0.233263
0.227055
0.223819
0.222047
0.219505
0.217411
0.215112
0.212844
0.210751
0.208343
0.206458
0.203868
0.202207
0.199308
0.198556
0.200625
0.240942
0.419035
0.496648
0.284383
0.234312
0.228129
0.224911
0.223127
0.220591
0.218489
0.216192
0.213919
0.211824
0.209413
0.207524
0.204933
0.203265
0.200366
0.199602
0.201654
0.241858
0.419898
0.497506
0.285254
0.235371
0.229215
0.226014
0.224218
0.221688
0.219578
0.217283
0.215004
0.212908
0.210494
0.208601
0.206009
0.204334
0.201436
0.20066
0.202694
0.242785
0.420771
0.498371
0.286134
0.236441
0.230311
0.227127
0.22532
0.222796
0.220677
0.218385
0.216101
0.214003
0.211587
0.209689
0.207097
0.205415
0.202517
0.20173
0.203746
0.243724
0.421655
0.499244
0.287023
0.237521
0.231418
0.228252
0.226433
0.223916
0.221788
0.219498
0.217209
0.21511
0.212691
0.210789
0.208196
0.206507
0.203611
0.202811
0.20481
0.244674
0.42255
0.500124
0.287921
0.238613
0.232536
0.229388
0.227557
0.225047
0.222911
0.220623
0.218328
0.216228
0.213807
0.211901
0.209307
0.207612
0.204716
0.203904
0.205886
0.245636
0.423457
0.501013
0.288827
0.239716
0.233666
0.230535
0.228692
0.226189
0.224045
0.221759
0.219459
0.217358
0.214934
0.213025
0.21043
0.208728
0.205833
0.205009
0.206974
0.24661
0.424375
0.501909
0.289743
0.24083
0.234806
0.231693
0.22984
0.227343
0.225191
0.222908
0.220603
0.2185
0.216074
0.21416
0.211566
0.209856
0.206962
0.206126
0.208075
0.247596
0.425305
0.502814
0.290669
0.241956
0.235959
0.232864
0.230998
0.228508
0.226348
0.224068
0.221758
0.219655
0.217226
0.215308
0.212713
0.210997
0.208104
0.207256
0.209188
0.248595
0.426247
0.503727
0.291604
0.243093
0.237123
0.234046
0.232169
0.229686
0.227518
0.22524
0.222925
0.220821
0.218391
0.216469
0.213874
0.212151
0.209259
0.208399
0.210314
0.249606
0.427202
0.504648
0.292549
0.244242
0.238299
0.235241
0.233352
0.230876
0.2287
0.226425
0.224106
0.222
0.219568
0.217642
0.215047
0.213317
0.210427
0.209554
0.211454
0.25063
0.428168
0.505578
0.293503
0.245403
0.239487
0.236447
0.234548
0.232079
0.229895
0.227622
0.225298
0.223192
0.220758
0.218828
0.216233
0.214496
0.211608
0.210723
0.212607
0.251667
0.429147
0.506515
0.294468
0.246577
0.240687
0.237666
0.235755
0.233294
0.231103
0.228832
0.226504
0.224397
0.221961
0.220027
0.217432
0.215688
0.212802
0.211905
0.213773
0.252717
0.430139
0.507462
0.295443
0.247763
0.2419
0.238898
0.236976
0.234521
0.232323
0.230056
0.227723
0.225615
0.223178
0.22124
0.218645
0.216894
0.21401
0.2131
0.214953
0.25378
0.431144
0.508417
0.296428
0.248961
0.243125
0.240143
0.238209
0.235762
0.233557
0.231292
0.228955
0.226846
0.224408
0.222466
0.219872
0.218114
0.215231
0.21431
0.216148
0.254858
0.432162
0.509381
0.297424
0.250172
0.244364
0.2414
0.239456
0.237016
0.234803
0.232542
0.230201
0.228091
0.225651
0.223705
0.221112
0.219348
0.216467
0.215533
0.217356
0.255949
0.433194
0.510354
0.29843
0.251396
0.245615
0.242671
0.240716
0.238284
0.236064
0.233805
0.23146
0.22935
0.226909
0.224959
0.222367
0.220595
0.217717
0.216771
0.21858
0.257054
0.434239