/*--------------------------------*- C++ -*----------------------------------*\
  =========                 |
  \\      /  F ield         | OpenFOAM: The Open Source CFD Toolbox
   \\    /   O peration     | Website:  https://openfoam.org
    \\  /    A nd           | Version:  8
     \\/     M anipulation  |
\*---------------------------------------------------------------------------*/
FoamFile
{
    version     2.0;
    format      ascii;
    class       volScalarField;
    location    "400";
    object      nut;
}
// * * * * * * * * * * * * * * * * * * * * * * * * * * * * * * * * * * * * * //

dimensions      [0 2 -1 0 0 0 0];

internalField   nonuniform List<scalar> 
8400
(
0.000348402
0.000348085
0.000347765
0.000347444
0.00034712
0.000346794
0.000346466
0.000346134
0.0003458
0.000345462
0.000345121
0.000344776
0.000344427
0.000344074
0.000343716
0.000343354
0.000342987
0.000342615
0.000342238
0.000341855
0.000341467
0.000341074
0.000340675
0.00034027
0.000339859
0.000339442
0.000339021
0.0003386
0.000338179
0.000337761
0.000337346
0.000336936
0.000336533
0.00033614
0.000335758
0.000335392
0.000335043
0.000334717
0.000334418
0.000334152
0.000333925
0.000333745
0.000333622
0.000333567
0.000333595
0.000333726
0.000333984
0.000334404
0.00033503
0.000335921
0.000147922
0.000147988
0.000148048
0.000148105
0.00014816
0.000148213
0.000148264
0.000148315
0.000148364
0.000148411
0.000148458
0.000148504
0.000148549
0.000148594
0.000148639
0.000148683
0.000148729
0.000148775
0.000148823
0.000148872
0.000148924
0.00014898
0.00014904
0.000149105
0.000149176
0.000149255
0.000149342
0.000149432
0.000149526
0.000149624
0.000149727
0.000149836
0.000149951
0.000150075
0.000150207
0.000150349
0.000150502
0.000150669
0.000150851
0.000151051
0.00015127
0.000151514
0.000151784
0.000152086
0.000152426
0.00015281
0.000153247
0.00015375
0.000154334
0.000155019
9.32239e-05
9.34015e-05
9.3579e-05
9.3756e-05
9.39322e-05
9.41079e-05
9.42828e-05
9.44571e-05
9.46308e-05
9.48039e-05
9.49765e-05
9.51487e-05
9.53205e-05
9.54919e-05
9.56632e-05
9.58344e-05
9.60057e-05
9.61773e-05
9.63492e-05
9.65219e-05
9.66954e-05
9.68701e-05
9.70463e-05
9.72245e-05
9.74053e-05
9.75891e-05
9.77746e-05
9.79605e-05
9.8147e-05
9.8334e-05
9.85218e-05
9.87104e-05
9.89002e-05
9.90912e-05
9.92837e-05
9.94779e-05
9.96742e-05
9.9873e-05
0.000100075
0.000100279
0.000100488
0.000100701
0.00010092
0.000101144
0.000101376
0.000101617
0.000101867
0.000102131
0.000102409
0.000102706
8.76507e-05
8.78183e-05
8.79863e-05
8.81547e-05
8.83236e-05
8.84928e-05
8.86626e-05
8.88328e-05
8.90035e-05
8.91747e-05
8.93464e-05
8.95186e-05
8.96915e-05
8.98648e-05
9.00388e-05
9.02133e-05
9.03886e-05
9.05644e-05
9.0741e-05
9.09183e-05
9.10963e-05
9.12751e-05
9.14548e-05
9.16351e-05
9.18161e-05
9.19977e-05
9.21799e-05
9.23628e-05
9.25463e-05
9.27305e-05
9.29154e-05
9.31009e-05
9.32872e-05
9.34741e-05
9.36618e-05
9.38502e-05
9.40394e-05
9.42293e-05
9.442e-05
9.46116e-05
9.4804e-05
9.49973e-05
9.51916e-05
9.53869e-05
9.55833e-05
9.5781e-05
9.598e-05
9.61806e-05
9.6383e-05
9.65876e-05
8.77769e-05
8.7941e-05
8.81059e-05
8.82714e-05
8.84375e-05
8.86043e-05
8.87717e-05
8.89397e-05
8.91085e-05
8.9278e-05
8.94481e-05
8.96191e-05
8.97907e-05
8.99632e-05
9.01364e-05
9.03103e-05
9.04851e-05
9.06607e-05
9.08371e-05
9.10143e-05
9.11922e-05
9.13708e-05
9.15503e-05
9.17304e-05
9.19113e-05
9.2093e-05
9.22753e-05
9.24582e-05
9.26419e-05
9.28261e-05
9.30109e-05
9.31962e-05
9.3382e-05
9.35681e-05
9.37546e-05
9.39413e-05
9.41282e-05
9.4315e-05
9.45017e-05
9.46881e-05
9.4874e-05
9.50592e-05
9.52434e-05
9.54262e-05
9.56074e-05
9.57863e-05
9.59626e-05
9.61354e-05
9.6304e-05
9.64674e-05
8.92908e-05
8.94615e-05
8.9633e-05
8.98051e-05
8.99778e-05
9.01511e-05
9.0325e-05
9.04996e-05
9.06748e-05
9.08507e-05
9.10273e-05
9.12046e-05
9.13825e-05
9.15612e-05
9.17407e-05
9.19208e-05
9.21017e-05
9.22833e-05
9.24656e-05
9.26487e-05
9.28325e-05
9.30171e-05
9.32025e-05
9.33886e-05
9.35755e-05
9.37631e-05
9.39514e-05
9.41405e-05
9.43303e-05
9.45208e-05
9.47119e-05
9.49037e-05
9.5096e-05
9.52889e-05
9.54823e-05
9.56762e-05
9.58704e-05
9.60649e-05
9.62596e-05
9.64544e-05
9.66491e-05
9.68437e-05
9.70379e-05
9.72316e-05
9.74246e-05
9.76166e-05
9.78073e-05
9.79964e-05
9.81837e-05
9.83687e-05
9.02925e-05
9.0467e-05
9.06423e-05
9.08181e-05
9.09946e-05
9.11716e-05
9.13493e-05
9.15277e-05
9.17068e-05
9.18866e-05
9.20671e-05
9.22483e-05
9.24303e-05
9.2613e-05
9.27965e-05
9.29808e-05
9.31658e-05
9.33516e-05
9.35382e-05
9.37255e-05
9.39137e-05
9.41026e-05
9.42923e-05
9.44828e-05
9.4674e-05
9.48659e-05
9.50586e-05
9.5252e-05
9.5446e-05
9.56407e-05
9.58359e-05
9.60317e-05
9.62279e-05
9.64245e-05
9.66214e-05
9.68185e-05
9.70157e-05
9.72129e-05
9.74098e-05
9.76064e-05
9.78023e-05
9.79973e-05
9.81912e-05
9.83836e-05
9.8574e-05
9.87621e-05
9.89472e-05
9.91288e-05
9.93062e-05
9.94786e-05
9.16508e-05
9.18315e-05
9.2013e-05
9.21951e-05
9.23778e-05
9.25611e-05
9.2745e-05
9.29296e-05
9.31149e-05
9.33009e-05
9.34875e-05
9.36749e-05
9.3863e-05
9.40518e-05
9.42414e-05
9.44317e-05
9.46228e-05
9.48146e-05
9.50073e-05
9.52007e-05
9.53949e-05
9.55899e-05
9.57857e-05
9.59822e-05
9.61795e-05
9.63776e-05
9.65764e-05
9.6776e-05
9.69762e-05
9.71771e-05
9.73786e-05
9.75807e-05
9.77834e-05
9.79865e-05
9.819e-05
9.83938e-05
9.85978e-05
9.88019e-05
9.9006e-05
9.92098e-05
9.94133e-05
9.96162e-05
9.98182e-05
0.000100019
0.000100219
0.000100416
0.000100612
0.000100805
0.000100995
0.000101181
9.27735e-05
9.29593e-05
9.31459e-05
9.3333e-05
9.35208e-05
9.37091e-05
9.38981e-05
9.40877e-05
9.42781e-05
9.44691e-05
9.46608e-05
9.48532e-05
9.50464e-05
9.52403e-05
9.5435e-05
9.56305e-05
9.58267e-05
9.60237e-05
9.62216e-05
9.64202e-05
9.66196e-05
9.68198e-05
9.70208e-05
9.72226e-05
9.74252e-05
9.76286e-05
9.78326e-05
9.80374e-05
9.82429e-05
9.8449e-05
9.86557e-05
9.8863e-05
9.90707e-05
9.92789e-05
9.94873e-05
9.9696e-05
9.99048e-05
0.000100113
0.000100322
0.00010053
0.000100738
0.000100944
0.000101149
0.000101353
0.000101555
0.000101755
0.000101952
0.000102145
0.000102334
0.000102519
9.4021e-05
9.42127e-05
9.44052e-05
9.45983e-05
9.47919e-05
9.49862e-05
9.5181e-05
9.53766e-05
9.55728e-05
9.57696e-05
9.59672e-05
9.61656e-05
9.63646e-05
9.65644e-05
9.6765e-05
9.69664e-05
9.71685e-05
9.73715e-05
9.75752e-05
9.77798e-05
9.79851e-05
9.81913e-05
9.83983e-05
9.86061e-05
9.88146e-05
9.90239e-05
9.9234e-05
9.94448e-05
9.96563e-05
9.98685e-05
0.000100081
0.000100295
0.000100508
0.000100723
0.000100937
0.000101152
0.000101367
0.000101582
0.000101797
0.000102011
0.000102224
0.000102437
0.000102649
0.000102858
0.000103066
0.000103272
0.000103474
0.000103673
0.000103868
0.000104058
9.52334e-05
9.54314e-05
9.56301e-05
9.58293e-05
9.60292e-05
9.62297e-05
9.64307e-05
9.66325e-05
9.68349e-05
9.70379e-05
9.72417e-05
9.74462e-05
9.76515e-05
9.78575e-05
9.80642e-05
9.82718e-05
9.84801e-05
9.86893e-05
9.88992e-05
9.911e-05
9.93216e-05
9.9534e-05
9.97472e-05
9.99612e-05
0.000100176
0.000100392
0.000100608
0.000100825
0.000101043
0.000101262
0.000101481
0.000101701
0.000101921
0.000102142
0.000102363
0.000102585
0.000102806
0.000103028
0.00010325
0.000103471
0.000103692
0.000103912
0.00010413
0.000104348
0.000104564
0.000104777
0.000104988
0.000105196
0.000105401
0.000105601
9.63904e-05
9.65942e-05
9.67987e-05
9.70037e-05
9.72093e-05
9.74155e-05
9.76222e-05
9.78296e-05
9.80377e-05
9.82465e-05
9.84559e-05
9.86661e-05
9.88769e-05
9.90886e-05
9.9301e-05
9.95142e-05
9.97282e-05
9.9943e-05
0.000100159
0.000100375
0.000100592
0.00010081
0.000101029
0.000101249
0.00010147
0.000101691
0.000101913
0.000102136
0.000102359
0.000102584
0.000102808
0.000103034
0.00010326
0.000103486
0.000103713
0.00010394
0.000104167
0.000104393
0.00010462
0.000104846
0.000105071
0.000105295
0.000105518
0.000105739
0.000105957
0.000106173
0.000106384
0.000106592
0.000106795
0.000106991
9.76954e-05
9.79065e-05
9.81183e-05
9.83307e-05
9.85437e-05
9.87572e-05
9.89714e-05
9.91861e-05
9.94015e-05
9.96176e-05
9.98343e-05
0.000100052
0.00010027
0.000100489
0.000100709
0.000100929
0.00010115
0.000101372
0.000101595
0.000101819
0.000102043
0.000102269
0.000102495
0.000102722
0.00010295
0.000103179
0.000103408
0.000103638
0.00010387
0.000104101
0.000104334
0.000104567
0.000104801
0.000105036
0.000105271
0.000105506
0.000105742
0.000105978
0.000106213
0.000106449
0.000106685
0.00010692
0.000107154
0.000107387
0.000107619
0.000107849
0.000108077
0.000108303
0.000108525
0.000108745
9.87556e-05
9.8973e-05
9.9191e-05
9.94094e-05
9.96283e-05
9.98478e-05
0.000100068
0.000100288
0.000100509
0.000100731
0.000100954
0.000101177
0.000101401
0.000101625
0.00010185
0.000102076
0.000102303
0.000102531
0.000102759
0.000102988
0.000103218
0.000103449
0.00010368
0.000103913
0.000104146
0.00010438
0.000104615
0.00010485
0.000105086
0.000105323
0.000105561
0.000105799
0.000106037
0.000106276
0.000106515
0.000106755
0.000106994
0.000107233
0.000107472
0.00010771
0.000107947
0.000108183
0.000108417
0.000108649
0.000108878
0.000109104
0.000109326
0.000109542
0.000109753
0.000109956
0.000100382
0.000100609
0.000100836
0.000101064
0.000101293
0.000101521
0.00010175
0.00010198
0.00010221
0.000102441
0.000102672
0.000102904
0.000103137
0.00010337
0.000103604
0.000103838
0.000104073
0.000104309
0.000104546
0.000104783
0.000105022
0.00010526
0.0001055
0.000105741
0.000105982
0.000106224
0.000106466
0.00010671
0.000106954
0.000107199
0.000107444
0.00010769
0.000107936
0.000108183
0.00010843
0.000108677
0.000108925
0.000109172
0.000109419
0.000109666
0.000109912
0.000110157
0.000110401
0.000110644
0.000110885
0.000111124
0.00011136
0.000111594
0.000111826
0.000112054
0.00010225
0.000102492
0.000102734
0.000102975
0.000103217
0.000103458
0.000103699
0.00010394
0.000104182
0.000104423
0.000104664
0.000104906
0.000105147
0.000105389
0.000105631
0.000105874
0.000106116
0.000106359
0.000106602
0.000106846
0.00010709
0.000107334
0.000107578
0.000107823
0.000108068
0.000108313
0.000108559
0.000108804
0.000109049
0.000109294
0.000109539
0.000109783
0.000110026
0.000110268
0.000110509
0.000110748
0.000110985
0.000111219
0.00011145
0.000111677
0.000111899
0.000112116
0.000112326
0.000112528
0.000112722
0.000112905
0.000113077
0.000113234
0.000113376
0.000113501
0.000109317
0.000109599
0.00010988
0.00011016
0.000110439
0.000110716
0.000110991
0.000111265
0.000111538
0.000111809
0.000112079
0.000112348
0.000112616
0.000112882
0.000113148
0.000113412
0.000113676
0.000113939
0.0001142
0.000114461
0.000114722
0.000114981
0.000115239
0.000115496
0.000115752
0.000116006
0.000116259
0.00011651
0.000116759
0.000117006
0.000117249
0.000117489
0.000117725
0.000117956
0.000118182
0.0001184
0.000118611
0.000118812
0.000119002
0.00011918
0.000119343
0.000119488
0.000119614
0.000119716
0.000119791
0.000119834
0.000119842
0.000119807
0.000119724
0.000119587
0.000131789
0.000132197
0.000132597
0.000132992
0.000133382
0.000133767
0.000134147
0.000134522
0.000134894
0.00013526
0.000135623
0.000135981
0.000136336
0.000136687
0.000137034
0.000137377
0.000137717
0.000138054
0.000138387
0.000138717
0.000139043
0.000139365
0.000139684
0.000139999
0.000140309
0.000140614
0.000140913
0.000141207
0.000141493
0.000141771
0.00014204
0.000142299
0.000142544
0.000142775
0.00014299
0.000143184
0.000143355
0.000143499
0.000143611
0.000143685
0.000143715
0.000143694
0.000143611
0.000143455
0.000143213
0.000142865
0.00014239
0.000141758
0.000140931
0.000139857
0.000198232
0.000198775
0.000199328
0.000199883
0.000200439
0.000200995
0.000201551
0.000202108
0.000202666
0.000203223
0.000203781
0.00020434
0.000204899
0.000205459
0.00020602
0.000206581
0.000207143
0.000207706
0.00020827
0.000208833
0.000209397
0.000209961
0.000210524
0.000211086
0.000211647
0.000212205
0.000212759
0.000213309
0.000213853
0.000214389
0.000214916
0.000215432
0.000215933
0.000216417
0.00021688
0.000217317
0.000217724
0.000218095
0.000218423
0.000218698
0.000218911
0.00021905
0.000219098
0.000219036
0.000218841
0.000218478
0.000217903
0.000217052
0.000215845
0.000214163
0.000378197
0.000378635
0.000379078
0.000379526
0.000379979
0.000380437
0.0003809
0.000381369
0.000381844
0.000382325
0.000382812
0.000383306
0.000383807
0.000384315
0.00038483
0.000385351
0.00038588
0.000386416
0.000386959
0.000387509
0.000388067
0.000388632
0.000389204
0.000389783
0.000390369
0.000390963
0.000391564
0.000392172
0.000392787
0.000393408
0.000394037
0.000394672
0.000395313
0.000395959
0.000396612
0.000397269
0.00039793
0.000398595
0.000399262
0.000399931
0.0004006
0.000401267
0.000401931
0.00040259
0.00040324
0.000403879
0.000404501
0.000405104
0.00040568
0.000406217
0.00108926
0.00107437
0.00106012
0.00104646
0.00103331
0.00102061
0.0010083
0.000996345
0.000984737
0.000973455
0.000962488
0.000951821
0.000941444
0.000931347
0.00092152
0.000911952
0.000902635
0.00089356
0.000884719
0.000876104
0.000867708
0.000859523
0.000851543
0.00084376
0.000836169
0.000828763
0.000821538
0.000814486
0.000807603
0.000800884
0.000794324
0.000787919
0.000781665
0.000775557
0.000769591
0.000763765
0.000758075
0.000752519
0.000747082
0.000741748
0.000736512
0.000731366
0.000726303
0.000721313
0.000716386
0.000711505
0.000706648
0.000701778
0.000696826
0.000691662
0.0010825
0.0010577
0.00103401
0.00101132
0.000989613
0.00096884
0.000948978
0.000929972
0.000911769
0.00089432
0.000877579
0.000861503
0.000846053
0.000831194
0.000816891
0.000803114
0.000789835
0.000777026
0.000764663
0.000752723
0.000741184
0.000730025
0.000719229
0.000708776
0.000698651
0.000688838
0.000679322
0.00067009
0.000661126
0.000652421
0.00064396
0.000635733
0.000627728
0.000619934
0.000612339
0.000604933
0.000597705
0.000590645
0.000583755
0.000577043
0.0005705
0.000564122
0.0005579
0.000551829
0.000545902
0.000540111
0.000534451
0.000528911
0.00052348
0.000518142
0.00108247
0.00105761
0.00103378
0.00101097
0.000989138
0.000968225
0.000948181
0.000928955
0.000910495
0.000892757
0.000875699
0.000859281
0.000843468
0.000828227
0.000813527
0.00079934
0.000785638
0.000772399
0.000759599
0.000747216
0.000735231
0.000723625
0.00071238
0.00070148
0.00069091
0.000680654
0.0006707
0.000661033
0.000651643
0.000642518
0.000633646
0.000625018
0.000616623
0.000608455
0.000600504
0.000592762
0.000585221
0.000577876
0.000570718
0.000563742
0.000556942
0.000550313
0.000543849
0.000537546
0.0005314
0.000525407
0.000519563
0.000513866
0.000508312
0.000502898
0.00108247
0.00105779
0.00103417
0.00101158
0.000989932
0.00096918
0.000949266
0.00093014
0.000911756
0.000894073
0.000877051
0.000860654
0.000844849
0.000829606
0.000814895
0.000800689
0.000786964
0.000773695
0.000760861
0.000748442
0.000736417
0.000724769
0.00071348
0.000702535
0.000691918
0.000681616
0.000671614
0.0006619
0.000652462
0.000643289
0.00063437
0.000625695
0.000617255
0.000609041
0.000601044
0.000593256
0.000585671
0.00057828
0.000571077
0.000564057
0.000557212
0.000550539
0.000544031
0.000537684
0.000531495
0.000525458
0.00051957
0.000513827
0.000508227
0.000502766
0.00108247
0.00105779
0.00103417
0.00101155
0.000989864
0.000969073
0.000949121
0.000929962
0.000911551
0.000893847
0.000876812
0.000860408
0.000844601
0.000829361
0.000814657
0.000800462
0.00078675
0.000773496
0.00076068
0.000748278
0.000736272
0.000724643
0.000713374
0.000702449
0.000691852
0.000681568
0.000671585
0.000661889
0.000652469
0.000643313
0.000634411
0.000625752
0.000617327
0.000609127
0.000601144
0.000593369
0.000585795
0.000578415
0.000571222
0.00056421
0.000557373
0.000550705
0.000544202
0.000537859
0.00053167
0.000525632
0.000519741
0.000513992
0.000508382
0.000502906
0.00108247
0.00105781
0.00103421
0.00101163
0.000989989
0.000969246
0.000949343
0.000930232
0.000911865
0.000894202
0.000877203
0.00086083
0.00084505
0.000829832
0.000815147
0.000800966
0.000787266
0.000774021
0.000761209
0.000748811
0.000736807
0.000725178
0.000713907
0.000702978
0.000692377
0.000682088
0.000672098
0.000662395
0.000652967
0.000643803
0.000634891
0.000626223
0.000617788
0.000609577
0.000601582
0.000593795
0.000586209
0.000578816
0.000571609
0.000564583
0.000557731
0.000551047
0.000544527
0.000538165
0.000531956
0.000525896
0.000519981
0.000514206
0.000508566
0.000503058
0.00108247
0.00105781
0.00103422
0.00101164
0.000990002
0.000969255
0.000949344
0.000930222
0.000911844
0.000894167
0.000877153
0.000860767
0.000844975
0.000829746
0.00081505
0.000800861
0.000787153
0.000773902
0.000761086
0.000748685
0.000736678
0.000725048
0.000713777
0.000702848
0.000692248
0.000681961
0.000671974
0.000662274
0.000652849
0.000643688
0.00063478
0.000626115
0.000617683
0.000609476
0.000601485
0.000593701
0.000586118
0.000578727
0.000571523
0.000564498
0.000557647
0.000550964
0.000544442
0.000538078
0.000531866
0.000525801
0.000519879
0.000514095
0.000508445
0.000502923
0.00108247
0.00105781
0.00103423
0.00101165
0.000990023
0.000969285
0.000949385
0.000930275
0.000911908
0.000894245
0.000877244
0.000860871
0.000845091
0.000829874
0.000815189
0.00080101
0.000787311
0.000774069
0.000761261
0.000748865
0.000736864
0.000725238
0.00071397
0.000703044
0.000692445
0.000682159
0.000672172
0.000662471
0.000653045
0.000643881
0.00063497
0.000626302
0.000617866
0.000609654
0.000601657
0.000593867
0.000586276
0.000578878
0.000571665
0.00056463
0.000557768
0.000551073
0.000544538
0.000538159
0.000531931
0.000525848
0.000519906
0.0005141
0.000508426
0.000502877
0.00108247
0.00105781
0.00103423
0.00101166
0.000990029
0.000969293
0.000949394
0.000930283
0.000911915
0.000894248
0.000877244
0.000860867
0.000845083
0.00082986
0.000815171
0.000800986
0.000787282
0.000774035
0.000761222
0.000748823
0.000736817
0.000725188
0.000713916
0.000702988
0.000692386
0.000682098
0.000672108
0.000662406
0.000652977
0.000643813
0.0006349
0.00062623
0.000617793
0.000609579
0.000601581
0.000593789
0.000586196
0.000578795
0.000571579
0.000564541
0.000557674
0.000550974
0.000544434
0.000538048
0.000531811
0.000525719
0.000519765
0.000513947
0.000508258
0.000502694
0.00108247
0.00105781
0.00103423
0.00101166
0.000990033
0.000969298
0.000949401
0.000930292
0.000911926
0.000894262
0.00087726
0.000860885
0.000845104
0.000829884
0.000815197
0.000801016
0.000787315
0.00077407
0.000761259
0.000748862
0.000736858
0.00072523
0.00071396
0.000703033
0.000692432
0.000682143
0.000672154
0.000662451
0.000653022
0.000643856
0.000634942
0.00062627
0.00061783
0.000609613
0.000601611
0.000593815
0.000586218
0.000578812
0.000571589
0.000564544
0.00055767
0.000550961
0.00054441
0.000538013
0.000531764
0.000525657
0.000519688
0.000513852
0.000508144
0.000502558
0.00108247
0.00105781
0.00103423
0.00101166
0.000990033
0.000969298
0.000949401
0.000930291
0.000911926
0.000894261
0.00087726
0.000860885
0.000845103
0.000829883
0.000815196
0.000801014
0.000787313
0.000774068
0.000761257
0.000748859
0.000736855
0.000725226
0.000713955
0.000703027
0.000692425
0.000682136
0.000672145
0.000662441
0.00065301
0.000643842
0.000634926
0.000626252
0.00061781
0.00060959
0.000601585
0.000593785
0.000586183
0.000578772
0.000571544
0.000564493
0.000557612
0.000550894
0.000544334
0.000537927
0.000531666
0.000525546
0.000519563
0.00051371
0.000507984
0.00050238
0.00108247
0.00105781
0.00103423
0.00101166
0.000990029
0.000969293
0.000949393
0.000930282
0.000911914
0.000894247
0.000877243
0.000860865
0.000845081
0.000829858
0.000815167
0.000800982
0.000787278
0.000774029
0.000761215
0.000748815
0.000736808
0.000725177
0.000713904
0.000702973
0.000692369
0.000682077
0.000672085
0.000662379
0.000652946
0.000643777
0.000634859
0.000626183
0.000617738
0.000609517
0.000601509
0.000593706
0.000586102
0.000578687
0.000571455
0.000564399
0.000557512
0.000550789
0.000544222
0.000537806
0.000531536
0.000525406
0.00051941
0.000513544
0.000507803
0.000502182
0.00108247
0.00105781
0.00103423
0.00101165
0.000990023
0.000969285
0.000949385
0.000930274
0.000911907
0.000894243
0.000877242
0.000860868
0.000845088
0.000829869
0.000815184
0.000801003
0.000787303
0.000774059
0.000761249
0.000748851
0.000736847
0.000725218
0.000713947
0.000703018
0.000692414
0.000682123
0.00067213
0.000662423
0.00065299
0.000643818
0.000634898
0.000626218
0.00061777
0.000609545
0.000601532
0.000593724
0.000586113
0.000578691
0.000571452
0.000564387
0.000557491
0.000550757
0.000544178
0.00053775
0.000531465
0.000525319
0.000519306
0.000513421
0.000507659
0.000502014
0.00108247
0.00105781
0.00103422
0.00101164
0.000990002
0.000969254
0.000949344
0.000930221
0.000911842
0.000894165
0.000877151
0.000860764
0.000844971
0.00082974
0.000815043
0.000800852
0.000787142
0.000773889
0.000761071
0.000748667
0.000736657
0.000725023
0.000713748
0.000702815
0.000692209
0.000681916
0.000671921
0.000662213
0.000652779
0.000643607
0.000634686
0.000626007
0.00061756
0.000609334
0.000601321
0.000593514
0.000585903
0.000578481
0.000571241
0.000564175
0.000557277
0.00055054
0.000543959
0.000537526
0.000531236
0.000525083
0.000519062
0.000513168
0.000507395
0.000501737
0.00108247
0.00105781
0.00103421
0.00101163
0.000989989
0.000969245
0.000949342
0.00093023
0.000911863
0.000894199
0.000877199
0.000860825
0.000845044
0.000829825
0.000815137
0.000800955
0.000787251
0.000774003
0.000761189
0.000748787
0.000736778
0.000725144
0.000713868
0.000702932
0.000692323
0.000682026
0.000672027
0.000662313
0.000652873
0.000643694
0.000634767
0.00062608
0.000617624
0.000609389
0.000601368
0.00059355
0.000585929
0.000578496
0.000571244
0.000564166
0.000557254
0.000550504
0.000543907
0.000537457
0.00053115
0.000524978
0.000518936
0.000513019
0.000507221
0.000501536
0.00108247
0.00105779
0.00103417
0.00101155
0.000989864
0.000969072
0.00094912
0.00092996
0.000911549
0.000893844
0.000876808
0.000860402
0.000844595
0.000829353
0.000814647
0.000800449
0.000786734
0.000773478
0.000760657
0.000748252
0.000736241
0.000724607
0.000713332
0.000702399
0.000691794
0.000681501
0.000671507
0.000661799
0.000652365
0.000643193
0.000634272
0.000625592
0.000617143
0.000608915
0.0006009
0.000593089
0.000585473
0.000578046
0.000570799
0.000563725
0.000556818
0.00055007
0.000543476
0.000537028
0.00053072
0.000524547
0.000518503
0.000512582
0.000506778
0.000501086
0.00108247
0.00105779
0.00103417
0.00101158
0.000989932
0.000969179
0.000949265
0.000930138
0.000911754
0.000894069
0.000877046
0.000860647
0.000844841
0.000829595
0.000814882
0.000800673
0.000786945
0.000773672
0.000760834
0.00074841
0.000736379
0.000724725
0.000713429
0.000702475
0.000691849
0.000681535
0.00067152
0.000661792
0.000652338
0.000643146
0.000634206
0.000625508
0.000617041
0.000608796
0.000600764
0.000592936
0.000585305
0.000577863
0.000570602
0.000563514
0.000556594
0.000549834
0.000543228
0.00053677
0.000530453
0.000524273
0.000518224
0.000512301
0.000506501
0.00050082
0.00108247
0.00105761
0.00103378
0.00101097
0.000989137
0.000968224
0.00094818
0.000928953
0.000910492
0.000892754
0.000875694
0.000859275
0.00084346
0.000828217
0.000813515
0.000799325
0.000785621
0.000772378
0.000759574
0.000747187
0.000735198
0.000723587
0.000712336
0.00070143
0.000690853
0.00068059
0.000670627
0.000660952
0.000651553
0.000642417
0.000633534
0.000624894
0.000616486
0.000608303
0.000600334
0.000592572
0.00058501
0.000577639
0.000570454
0.000563447
0.000556613
0.000549946
0.000543442
0.000537096
0.000530906
0.00052487
0.000518986
0.000513259
0.000507696
0.000502315
0.0010825
0.0010577
0.00103401
0.00101132
0.000989613
0.000968839
0.000948977
0.000929971
0.000911769
0.00089432
0.00087758
0.000861504
0.000846055
0.000831197
0.000816896
0.000803121
0.000789845
0.000777039
0.000764681
0.000752746
0.000741213
0.000730063
0.000719278
0.000708838
0.00069873
0.000688936
0.000679445
0.000670241
0.000661314
0.000652651
0.000644242
0.000636078
0.00062815
0.000620448
0.000612966
0.000605697
0.000598635
0.000591774
0.000585111
0.000578641
0.000572364
0.000566276
0.00056038
0.000554678
0.000549175
0.00054388
0.000538812
0.000534
0.000529503
0.000525436
0.00108926
0.00107437
0.00106012
0.00104646
0.00103331
0.00102061
0.0010083
0.000996344
0.000984734
0.000973452
0.000962482
0.000951814
0.000941435
0.000931335
0.000921504
0.000911932
0.00090261
0.00089353
0.000884683
0.00087606
0.000867655
0.00085946
0.000851468
0.000843672
0.000836065
0.000828641
0.000821394
0.000814318
0.000807406
0.000800655
0.000794057
0.000787608
0.000781302
0.000775135
0.000769102
0.000763197
0.000757416
0.000751754
0.000746205
0.000740766
0.000735431
0.000730195
0.000725052
0.000719997
0.000715024
0.000710126
0.000705295
0.000700523
0.000695797
0.000691102
0.000466089
0.000252715
0.000195365
0.000187891
0.000184007
0.00018274
0.000179992
0.0001783
0.000175943
0.000173965
0.000171936
0.000169719
0.000168007
0.000165526
0.000164142
0.000161301
0.000161017
0.000163966
0.000209021
0.000390712
0.000466664
0.000253326
0.000196062
0.000188609
0.000184736
0.000183459
0.000180713
0.000179012
0.000176654
0.00017467
0.000172639
0.000170416
0.000168701
0.000166216
0.000164827
0.000161982
0.000161692
0.000164641
0.000209697
0.000391267
0.000467244
0.000253916
0.000196761
0.000189333
0.00018547
0.000184183
0.000181439
0.00017973
0.000177372
0.000175381
0.000173348
0.00017112
0.0001694
0.000166911
0.000165517
0.000162669
0.000162372
0.000165321
0.000210366
0.00039177
0.000467829
0.000254501
0.000197463
0.000190062
0.00018621
0.000184913
0.000182171
0.000180454
0.000178096
0.000176098
0.000174063
0.000171829
0.000170106
0.000167613
0.000166214
0.000163363
0.000163059
0.000166005
0.000210991
0.000392281
0.000468419
0.000255085
0.000198171
0.000190797
0.000186956
0.00018565
0.00018291
0.000181184
0.000178826
0.000176821
0.000174784
0.000172545
0.000170819
0.000168322
0.000166916
0.000164064
0.000163752
0.000166688
0.000211599
0.000392799
0.000469015
0.000255672
0.000198883
0.000191538
0.000187708
0.000186392
0.000183655
0.00018192
0.000179562
0.000177551
0.000175512
0.000173268
0.000171537
0.000169037
0.000167626
0.000164771
0.000164451
0.000167373
0.0002122
0.000393324
0.000469615
0.000256263
0.000199601
0.000192286
0.000188467
0.000187141
0.000184406
0.000182663
0.000180305
0.000178287
0.000176246
0.000173996
0.000172262
0.000169758
0.000168341
0.000165484
0.000165155
0.000168062
0.0002128
0.000393855
0.00047022
0.000256859
0.000200326
0.000193039
0.000189232
0.000187896
0.000185164
0.000183412
0.000181054
0.000179029
0.000176986
0.000174732
0.000172994
0.000170486
0.000169064
0.000166204
0.000165866
0.000168755
0.000213401
0.000394392
0.000470831
0.00025746
0.000201057
0.000193799
0.000190004
0.000188657
0.000185928
0.000184167
0.00018181
0.000179778
0.000177733
0.000175473
0.000173732
0.000171221
0.000169793
0.000166931
0.000166584
0.000169453
0.000214005
0.000394937
0.000471446
0.000258067
0.000201795
0.000194566
0.000190782
0.000189425
0.000186699
0.000184929
0.000182572
0.000180533
0.000178487
0.000176222
0.000174477
0.000171962
0.000170528
0.000167664
0.000167308
0.000170156
0.000214612
0.000395487
0.000472067
0.00025868
0.000202539
0.000195339
0.000191567
0.000190199
0.000187476
0.000185697
0.000183341
0.000181295
0.000179247
0.000176977
0.000175228
0.00017271
0.000171271
0.000168404
0.000168038
0.000170866
0.000215224
0.000396044
0.000472693
0.000259298
0.00020329
0.000196118
0.000192358
0.00019098
0.00018826
0.000186473
0.000184117
0.000182064
0.000180014
0.000177739
0.000175986
0.000173465
0.00017202
0.000169151
0.000168776
0.000171581
0.000215841
0.000396608
0.000473324
0.000259922
0.000204048
0.000196905
0.000193157
0.000191768
0.000189051
0.000187255
0.000184899
0.00018284
0.000180788
0.000178508
0.000176751
0.000174227
0.000172776
0.000169904
0.00016952
0.000172304
0.000216464
0.000397179
0.000473961
0.000260552
0.000204813
0.000197698
0.000193962
0.000192563
0.000189849
0.000188044
0.000185689
0.000183622
0.000181569
0.000179284
0.000177523
0.000174996
0.000173539
0.000170665
0.00017027
0.000173033
0.000217092
0.000397756
0.000474603
0.000261188
0.000205585
0.000198497
0.000194774
0.000193364
0.000190654
0.000188839
0.000186485
0.000184412
0.000182357
0.000180067
0.000178302
0.000175772
0.000174309
0.000171433
0.000171028
0.000173768
0.000217727
0.00039834
0.000475251
0.00026183
0.000206365
0.000199304
0.000195593
0.000194173
0.000191466
0.000189642
0.000187289
0.000185208
0.000183152
0.000180857
0.000179088
0.000176555
0.000175086
0.000172207
0.000171793
0.000174511
0.000218368
0.000398931
0.000475904
0.000262479
0.000207151
0.000200118
0.00019642
0.000194988
0.000192285
0.000190452
0.000188099
0.000186012
0.000183954
0.000181654
0.000179882
0.000177345
0.00017587
0.000172989
0.000172565
0.000175261
0.000219015
0.000399529
0.000476562
0.000263133
0.000207944
0.000200938
0.000197253
0.000195811
0.000193111
0.000191269
0.000188917
0.000186823
0.000184763
0.000182458
0.000180682
0.000178143
0.000176662
0.000173779
0.000173344
0.000176018
0.00021967
0.000400133
0.000477227
0.000263793
0.000208745
0.000201766
0.000198094
0.00019664
0.000193944
0.000192094
0.000189742
0.000187642
0.00018558
0.00018327
0.00018149
0.000178948
0.000177461
0.000174576
0.000174131
0.000176782
0.000220331
0.000400745
0.000477897
0.00026446
0.000209553
0.000202602
0.000198942
0.000197477
0.000194785
0.000192925
0.000190575
0.000188468
0.000186404
0.00018409
0.000182306
0.00017976
0.000178267
0.00017538
0.000174925
0.000177554
0.000221
0.000401365
0.000478573
0.000265132
0.000210369
0.000203444
0.000199798
0.000198322
0.000195634
0.000193765
0.000191415
0.000189301
0.000187236
0.000184917
0.000183129
0.00018058
0.000179081
0.000176192
0.000175727
0.000178334
0.000221675
0.000401991
0.000479255
0.000265811
0.000211192
0.000204294
0.000200661
0.000199174
0.00019649
0.000194612
0.000192263
0.000190142
0.000188075
0.000185751
0.00018396
0.000181408
0.000179903
0.000177011
0.000176536
0.000179121
0.000222358
0.000402625
0.000479943
0.000266497
0.000212023
0.000205151
0.000201532
0.000200033
0.000197353
0.000195466
0.000193118
0.00019099
0.000188922
0.000186594
0.000184798
0.000182244
0.000180732
0.000177839
0.000177353
0.000179916
0.000223049
0.000403266
0.000480636
0.000267188
0.000212861
0.000206016
0.000202411
0.000200901
0.000198225
0.000196328
0.000193982
0.000191847
0.000189777
0.000187444
0.000185644