/*--------------------------------*- C++ -*----------------------------------*\
  =========                 |
  \\      /  F ield         | OpenFOAM: The Open Source CFD Toolbox
   \\    /   O peration     | Website:  https://openfoam.org
    \\  /    A nd           | Version:  8
     \\/     M anipulation  |
\*---------------------------------------------------------------------------*/
FoamFile
{
    version     2.0;
    format      ascii;
    class       volScalarField;
    location    "400";
    object      p;
}
// * * * * * * * * * * * * * * * * * * * * * * * * * * * * * * * * * * * * * //

dimensions      [1 -1 -2 0 0 0 0];

internalField   nonuniform List<scalar> 
8400
(
11687.9
11705
11718.8
11732.2
11745.4
11758.6
11772
11785.5
11799.4
11813.7
11828.6
11844.1
11860.4
11877.6
11895.9
11915.5
11936.5
11959.3
11984.1
12011.2
12041.1
12074.1
12110.9
12151.9
12198
12249.9
12308.4
12374.3
12449
12533.8
12630.3
12740.4
12866.3
13010.3
13175.3
13364.8
13582.4
13832.7
14120.9
14453.1
14836.6
15279.9
15793.6
16391.6
17090.4
17904
18847.8
19982.3
21474.1
23417.3
11578.6
11591.3
11603.1
11615.4
11627.7
11640.1
11652.6
11665.3
11678.3
11691.7
11705.5
11719.9
11735.1
11751
11767.9
11786
11805.4
11826.4
11849.2
11874.2
11901.7
11932.1
11965.9
12003.6
12045.8
12093.3
12146.9
12207.6
12276.5
12355
12444.3
12546.4
12663.1
12796.8
12950.1
13126.1
13328.3
13560.7
13828
14135.7
14489.9
14897.7
15367.6
15910.1
16536.5
17255
18073
19021.3
20183.1
21609.2
11511.5
11528.7
11543
11556.5
11569.8
11583.2
11596.9
11610.8
11625.1
11639.9
11655.2
11671.2
11688
11705.7
11724.4
11744.5
11766
11789.2
11814.4
11841.8
11872
11905.2
11942
11982.7
12028.1
12078.8
12135.7
12199.8
12272.3
12354.3
12447.4
12553.3
12674
12811.7
12969.1
13149.1
13355.4
13591.8
13863
14174.3
14531.6
14941.8
15412.7
15953.4
16572.9
17278.4
18075.7
18979.8
20021
21194.7
11376.5
11379.9
11388.1
11398.4
11409.3
11420.5
11432
11443.6
11455.5
11467.7
11480.3
11493.4
11507
11521.3
11536.4
11552.5
11569.6
11588.1
11608.1
11629.9
11653.8
11680.2
11709.5
11742.2
11778.9
11820.1
11866.6
11919.2
11978.9
12046.8
12124.3
12212.8
12314.1
12430.1
12563.2
12716.1
12891.7
13093.6
13325.9
13593
13900
14252.8
14658
15122.7
15654.2
16258.8
16941.8
17712.5
18585.4
19557
11330.8
11351.4
11366.7
11380
11393
11406
11419.2
11432.7
11446.6
11460.9
11475.6
11490.9
11506.9
11523.6
11541.2
11559.9
11579.7
11601
11623.9
11648.6
11675.4
11704.6
11736.6
11771.8
11810.8
11854.2
11902.7
11956.9
12017.9
12086.6
12164.1
12252
12351.6
12464.8
12593.7
12740.5
12908
13099
13317
13565.6
13849.2
14172
14538.8
14954.8
15424.2
15950.4
16535
17179.8
17891.1
18667.7
11172.4
11171.9
11178.2
11187.4
11197.5
11207.9
11218.6
11229.5
11240.6
11252
11263.6
11275.7
11288.2
11301.2
11314.8
11329.2
11344.4
11360.8
11378.3
11397.4
11418.1
11440.8
11465.8
11493.3
11524
11558.2
11596.6
11639.8
11688.5
11743.7
11806.3
11877.6
11958.9
12051.8
12158
12279.6
12418.9
12578.5
12761.4
12970.9
13210.4
13483.9
13795.4
14148.8
14547.8
14994.6
15489.4
16031.4
16622.4
17263.2
11142.3
11165.2
11180.7
11193.5
11205.7
11217.8
11230
11242.4
11254.9
11267.8
11280.9
11294.4
11308.4
11322.8
11337.7
11353.3
11369.6
11386.8
11405
11424.4
11445.2
11467.6
11491.8
11518.3
11547.2
11579
11614.2
11653.2
11696.7
11745.4
11800.1
11861.7
11931.2
12009.9
12099.1
12200.5
12315.8
12446.9
12596.3
12766.3
12959.7
13179.2
13427.9
13708.6
14023.9
14375.4
14762.9
15185
15643.3
16140.2
10972.2
10969.8
10975.3
10983.9
10993.5
11003.5
11013.7
11024.1
11034.6
11045.3
11056.2
11067.4
11079
11090.8
11103.2
11116
11129.4
11143.5
11158.4
11174.2
11191.1
11209.3
11228.8
11250.1
11273.3
11298.7
11326.7
11357.7
11392.2
11430.7
11473.8
11522.2
11576.9
11638.5
11708.4
11787.6
11877.6
11979.8
12096
12228.1
12378.1
12548.1
12740.3
12956.6
13199
13468.6
13764.9
14086.8
14435.7
14814.9
10948.9
10972.1
10987.1
10999.1
11010.3
11021.2
11032.1
11043.1
11054.1
11065.2
11076.3
11087.6
11099
11110.5
11122.3
11134.2
11146.5
11159.1
11172
11185.5
11199.5
11214.2
11229.6
11246
11263.5
11282.2
11302.4
11324.3
11348.3
11374.5
11403.6
11435.8
11471.7
11511.9
11557.1
11608.1
11665.7
11730.9
11805
11889.2
11984.8
12093.3
12216.2
12355.1
12511.4
12686.1
12879.3
13090.8
13322.4
13577.9
10775.5
10772.3
10777.3
10785.4
10794.5
10804
10813.6
10823.3
10833
10842.9
10852.8
10862.8
10873
10883.2
10893.6
10904.1
10914.9
10925.8
10937
10948.5
10960.3
10972.5
10985.1
10998.2
11011.8
11026.1
11041.2
11057
11073.9
11091.8
11111
11131.6
11153.9
11178.1
11204.4
11233.2
11265
11300
11338.8
11382.1
11430.4
11484.5
11545.3
11613.7
11690.8
11777.6
11874.6
11982.8
12104.6
12244.5
10752.3
10774.9
10789.1
10800.3
10810.5
10820.5
10830.3
10840.1
10849.8
10859.4
10868.9
10878.3
10887.5
10896.7
10905.6
10914.5
10923.1
10931.5
10939.8
10947.8
10955.5
10962.9
10970.1
10976.9
10983.3
10989.3
10994.8
10999.8
11004.2
11008
11011.1
11013.5
11014.9
11015.5
11014.9
11013.3
11010.5
11006.4
11001
10994.2
10986.2
10977
10967
10956.6
10946.5
10937.7
10931.8
10930.6
10937.6
10958
10581
10577.8
10582.2
10589.7
10598.1
10606.7
10615.3
10623.9
10632.5
10640.9
10649.3
10657.5
10665.5
10673.4
10681.1
10688.5
10695.6
10702.4
10708.8
10714.8
10720.2
10725.1
10729.3
10732.7
10735.2
10736.7
10736.9
10735.7
10732.8
10728
10721
10711.4
10698.9
10682.9
10663
10638.5
10609
10573.5
10531.5
10482.1
10424.6
10358.3
10282.6
10197.3
10102.7
9999.42
9889.29
9775.26
9661.85
9556.28
10553.3
10574.6
10588
10598.5
10608.2
10617.6
10626.8
10635.8
10644.7
10653.3
10661.7
10669.9
10677.7
10685.1
10692
10698.5
10704.4
10709.7
10714.1
10717.7
10720.3
10721.8
10721.9
10720.5
10717.4
10712.2
10704.7
10694.5
10681.2
10664.3
10643.3
10617.5
10586.3
10548.8
10504.2
10451.4
10389.2
10316.4
10231.6
10133.5
10020.4
9891.02
9744.07
9578.67
9394.51
9192.19
8973.75
8743.36
8507.51
8275.37
10388.9
10386.2
10390.4
10397.1
10404.6
10412.2
10419.7
10427
10434.1
10440.9
10447.4
10453.5
10459.1
10464.2
10468.7
10472.6
10475.6
10477.8
10479
10478.9
10477.6
10474.6
10469.9
10463.1
10453.9
10441.9
10426.8
10408.1
10385.1
10357.2
10323.8
10283.8
10236.5
10180.5
10114.7
10037.5
9947.31
9842.26
9720.27
9579.08
9416.24
9229.24
9015.57
8773.05
8500.02
8195.75
7861.2
7500.2
7120.63
6736.58
10351
10370.2
10382.6
10392.7
10402
10411
10419.8
10428.3
10436.6
10444.6
10452.2
10459.4
10466.1
10472.3
10477.7
10482.5
10486.3
10489
10490.6
10490.8
10489.4
10486.1
10480.7
10472.8
10461.9
10447.7
10429.6
10406.9
10379
10345
10304
10254.7
10196
10126.3
10043.9
9946.82
9832.85
9699.43
9543.67
9362.4
9152.14
8909.17
8629.67
8310.14
7947.73
7540.65
7088.79
6595.93
6073.23
5541.06
10200.1
10199.3
10203.7
10210.2
10217.1
10224
10230.6
10236.9
10242.9
10248.4
10253.3
10257.6
10261.2
10264
10265.9
10266.7
10266.4
10264.6
10261.2
10255.9
10248.6
10238.8
10226.2
10210.4
10190.8
10167
10138.2
10103.7
10062.6
10013.9
9956.46
9888.88
9809.62
9716.88
9608.58
9482.34
9335.45
9164.78
8966.81
8737.54
8472.55
8166.9
7815.3
7412.41
6953.4
6433.9
5849.5
5198.08
4488.49
3751.67
10143.4
10159.8
10171
10180.5
10189.4
10198
10206.3
10214.2
10221.8
10229.1
10235.8
10242
10247.5
10252.3
10256.2
10259.1
10260.9
10261.3
10260.2
10257.3
10252.3
10244.8
10234.6
10221.1
10203.8
10182.1
10155.3
10122.6
10083.1
10035.5
9978.78
9911.3
9831.36
9736.96
9625.78
9495.1
9341.78
9162.17
8952.03
8706.46
8419.81
8085.55
7696.13
7243.3
6718.84
6114.34
5418.91
4620.88
3726.76
2787.07
10013.4
10017
10023.2
10030.4
10037.5
10044.4
10050.9
10056.9
10062.5
10067.5
10071.8
10075.4
10078.1
10079.9
10080.5
10079.8
10077.6
10073.7
10067.9
10059.8
10049
10035.3
10018
9996.73
9970.82
9939.54
9902.06
9857.4
9804.45
9741.88
9668.18
9581.58
9480.03
9361.12
9222.07
9059.61
8869.94
8648.58
8390.33
8089.06
7737.65
7327.7
6849.21
6290.71
5640.4
4886.91
4014.82
2998.92
1826.17
560.474
9927.33
9945.08
9955.52
9964.6
9972.99
9980.95
9988.51
9995.66
10002.3
10008.5
10014.1
10019
10023.1
10026.3
10028.5
10029.4
10029
10026.9
10023
10017
10008.5
9997.05
9982.29
9963.68
9940.59
9912.32
9878.05
9836.82
9787.52
9728.87
9659.38
9577.31
9480.63
9367
9233.67
9077.44
8894.56
8680.63
8430.45
8137.95
7795.94
7395.85
6927.04
6376.45
5730.05
4975.1
4092.2
3027.53
1695.24
120.544
9827.77
9836.06
9844.07
9852.09
9859.82
9867.18
9874.12
9880.6
9886.57
9891.96
9896.69
9900.66
9903.77
9905.88
9906.84
9906.49
9904.61
9900.99
9895.33
9887.34
9876.65
9862.83
9845.41
9823.81
9797.38
9765.35
9726.85
9680.85
9626.15
9561.36
9484.86
9394.78
9288.92
9164.69
9019.08
8848.54
8648.88
8415.12
8141.3
7820.27
7443.39
6999.97
6476.14
5853.6
5110.45
4224.03
3158.75
1810.66
-29.372
-2405.89
19317.4
11155.1
7122.03
5603.69
4769.32
4160.47
3736.78
3452.46
3252.26
3101.16
2981.44
2883.23
2799.99
2727.23
2661.9
2601.88
2545.61
2491.92
2439.87
2388.66
2337.61
2286.09
2233.46
2179.12
2122.38
2062.55
1998.85
1930.38
1856.16
1775
1685.6
1586.42
1475.74
1351.55
1211.37
1052.25
870.767
662.911
423.862
147.682
-172.782
-546.144
-983.075
-1497.07
-2105.63
-2832.2
-3709.74
-4787.5
-6145.89
-7921.57
-6315.26
-1726.11
-224.4
341.894
776.201
1101.79
1326.16
1486.24
1605.08
1693.91
1759.96
1808.68
1843.99
1868.59
1884.44
1892.96
1895.23
1892
1883.83
1871.09
1854.01
1832.68
1807.06
1777.03
1742.33
1702.57
1657.27
1605.79
1547.32
1480.83
1405.1
1318.74
1220.04
1106.97
977.29
828.305
656.748
458.704
229.582
-36.0486
-344.858
-705.02
-1126.52
-1621.69
-2205.97
-2898.92
-3725.5
-4717.22
-5911.6
-7342.52
916.585
3086.61
4269.74
4372.4
4215.76
4044.13
3857.81
3666.6
3488.21
3329.08
3188.28
3063.33
2951.84
2851.6
2760.58
2677.03
2599.48
2526.66
2457.48
2391
2326.37
2262.8
2199.54
2135.86
2071.01
2004.22
1934.7
1861.59
1783.94
1700.68
1610.56
1512.07
1403.47
1282.67
1147.38
994.976
822.342
625.79
400.924
142.587
-155.283
-499.938
-900.052
-1366
-1910.18
-2547.3
-3294.37
-4169.92
-5191.18
-6366.43
1167.62
1576.68
1768.16
1696.51
1594.29
1550.91
1539.28
1537.03
1541.29
1551.15
1563.77
1576.53
1587.91
1597.06
1603.47
1606.83
1606.99
1603.85
1597.37
1587.52
1574.21
1557.36
1536.82
1512.37
1483.69
1450.38
1411.96
1367.82
1317.24
1259.5
1193.65
1118.48
1032.56
934.279
821.622
692.223
543.314
371.637
173.37
-55.9456
-321.515
-629.436
-986.808
-1401.8
-1883.62
-2442.3
-3088.02
-3829.48
-4670.55
-5604.4
1609.05
1858.14
2174.77
2406.44
2546.33
2635.6
2687.91
2706.85
2700.47
2677.5
2643.75
2602.81
2557.19
2508.63
2458.34
2407.06
2355.25
2303.12
2250.76
2198.13
2145.1
2091.46
2036.96
1981.29
1924.08
1864.87
1803.1
1738.04
1668.91
1594.84
1514.81
1427.71
1332.24
1226.85
1109.73
978.761
831.495
665.101
476.295
261.285
15.723
-265.352
-587.523
-956.933
-1380.1
-1863.5
-2412.76
-3031.22
-3717.53
-4462.88
1715.18
1800.8
1908.92
1970.95
1973.6
1945.49
1907.07
1864.8
1821.66
1780.39
1742.44
1708.02
1676.74
1648.08
1621.47
1596.33
1572.14
1548.42
1524.71
1500.63
1475.77
1449.79
1422.32
1392.95
1361.32
1327.06
1289.68
1248.66
1203.42
1153.22
1097.24
1034.54
964.03
884.437
794.269
691.795
575.018
441.632
288.994
114.092
-86.4651
-316.445
-579.942
-881.241
-1224.57
-1613.64
-2050.92
-2536.45
-3066.21
-3630.68
1730.72
1775.11
1846.83
1919.05
1974.39
2015.3
2046.89
2069.88
2083.93
2089.76
2088.55
2081.3
2068.82
2051.87
2031.07
2007.01
1980.12
1950.79
1919.29
1885.82
1850.54
1813.51
1774.71
1734.04
1691.36
1646.46
1599.09
1548.93
1495.57
1438.48
1377.04
1310.54
1238.13
1158.84
1071.49
974.746
867.06
746.659
611.528
459.407
287.791
93.9687
-124.905
-371.666
-648.894
-958.53
-1301.31
-1676.01
-2078.46
-2501.36
1691.65
1713.85
1751.63
1791.62
1819.77
1832.66
1832.81
1822.85
1804.8
1780.71
1752.56
1721.92
1689.91
1657.31
1624.63
1592.18
1560.13
1528.5
1497.25
1466.28
1435.45
1404.59
1373.47
1341.88
1309.56
1276.21
1241.51
1205.13
1166.65
1125.64
1081.58
1033.91
981.968
925.01
862.185
792.516
714.9
628.09
530.693
421.175
297.881
159.071
3.0006
-171.95
-367.082
-583.082
-819.633
-1074.91
-1344.96
-1623.63
1625.49
1639.09
1664.15
1694.78
1722.27
1742.55
1755.75
1762.9
1764.75
1761.91
1755.05
1744.8
1731.67
1716.03
1698.21
1678.49
1657.07
1634.13
1609.82
1584.25
1557.51
1529.64
1500.69
1470.67
1439.53
1407.23
1373.67
1338.74
1302.29
1264.1
1223.95
1181.54
1136.52
1088.5
1037
981.495
921.358
855.907
784.38
705.954
619.763
524.937
420.656
306.248
181.317
45.9259
-99.1727
-252.279
-410.483
-569.927
1542.03
1552.12
1571.3
1595.85
1618.76
1635.45
1644.71
1646.91
1642.75
1633.03
1618.71
1600.77
1580.06
1557.31
1533.08
1507.81
1481.84
1455.43
1428.75
1401.92
1375
1348.03
1321.04
1294.01
1266.91
1239.72
1212.37
1184.81
1156.97
1128.76
1100.1
1070.87
1040.96
1010.24
978.578
945.808
911.769
876.288
839.196
800.328
759.551
716.777
672.003
625.356
577.155
527.987
478.807
431.037
386.684
348.28
1445.62
1455.74
1474.96
1499.59
1522.62
1539.46
1548.91
1551.34
1547.46
1538.09
1524.19
1506.74
1486.63
1464.58
1441.17
1416.88
1392.06
1366.99
1341.88
1316.86
1292.07
1267.59
1243.48
1219.81
1196.63
1173.98
1151.91
1130.5
1109.81
1089.91
1070.92
1052.95
1036.14
1020.65
1006.71
994.535
984.428
976.729
971.841
970.242
972.487
979.223
991.185
1009.2
1034.19
1067.11
1108.98
1160.76
1223.32
1297.41
1336.25
1349.92
1375.12
1405.98
1433.81
1454.53
1468.28
1476.11
1478.78
1476.91
1471.22
1462.34
1450.82
1437.08
1421.5
1404.38
1386.01
1366.66
1346.54
1325.89
1304.91
1283.79
1262.75
1241.97
1221.67
1202.05
1183.34
1165.79
1149.65
1135.24
1122.87
1112.92
1105.84
1102.1
1102.28
1107.04
1117.11
1133.36
1156.78
1188.47
1229.68
1281.76
1346.19
1424.49
1518.16
1628.56
1756.75
1903.31
2068.04
2250.15
1209.49
1231.8
1269.81
1310.18
1338.88
1352.49
1353.56
1344.73
1328.06
1305.63
1279.46
1251.16
1221.93
1192.59
1163.74
1135.8
1109.02
1083.57
1059.57
1037.07
1016.13
996.802
979.156
963.274
949.269
937.29
927.53
920.228
915.683
914.256
916.384
922.587
933.482
949.796
972.38
1002.23
1040.48
1088.47
1147.71
1219.89
1306.93
1410.91
1534.05
1678.61
1846.79
2040.49
2261.03
2508.81
2782.84
3081.13
1055.5
1100.03
1172.07
1244.81
1300.91
1342.8
1375.62
1400.12
1416
1424.02
1425.41
1421.25
1412.43
1399.78
1384.05
1365.93
1346.02
1324.85
1302.9
1280.61
1258.38
1236.59
1215.62
1195.84
1177.62
1161.37
1147.52
1136.56
1129
1125.46
1126.61
1133.24
1146.25
1166.66
1195.68
1234.67
1285.23
1349.14
1428.48
1525.56
1642.98
1783.55
1950.33
2146.42
2374.85
2638.27
2938.49
3275.92
3648.72
4052.97
846.696
932.494
1041
1103.69
1107.27
1080.39
1043.54
1003.18
962.383
923.924
889.329
858.867
832.259
809.089
788.919
771.337
755.991
742.611
731.01
721.083
712.799
706.2
701.397
698.567
697.955
699.88
704.732
712.99
725.22
742.097
764.411
793.089
829.212
874.04
929.034
995.888
1076.56
1173.28
1288.65
1425.56
1587.31
1777.55
2000.23
2259.53
2559.65
2904.47
3296.98
3738.52
4227.58
4760.11
547.065
796.355
1113.45
1345.89
1486.88
1577.59
1631.72
1652.82
1649.09
1629.31
1599.38
1563
1522.74
1480.52
1437.68
1395.15
1353.6
1313.49
1275.2
1239.05
1205.28
1174.17
1145.99
1121.04
1099.65
1082.22
1069.23
1061.21
1058.82
1062.82
1074.11
1093.74
1122.94
1163.16
1216.08
1283.66
1368.17
1472.25
1598.92
1751.65
1934.4
2151.6
2408.2
2709.55
3061.26
3468.81
3936.98
4468.67
5063.03
5714.65
-88.1639
321.13
513.107
442.306
341.298
299.536
289.935
290.188
297.494
311.006
327.953
345.844
363.273
379.542
394.312
407.482
419.125
429.44
438.705
447.262
455.492
463.82
472.708
482.662
494.235
508.038
524.754
545.145
570.074
600.522
637.61
682.621
737.032
802.547
881.13
975.051
1086.94
1219.82
1377.19
1563.1
1782.17
2039.7
2341.72
2694.99
3106.96
3585.52
4138.51
4772.59
5490.94
6291.98
-533.305
1636.97
2820.65
2924.25
2768.92
2598.97
2414.79
2226.35
2051.3
1896.15
1760.08
1640.73
1535.85
1443.38
1361.5
1288.68
1223.69
1165.57
1113.61
1067.27
1026.18
990.14
959.062
932.992
912.096
896.662
887.103
883.963
887.935
899.867
920.789
951.934
994.766
1051.01
1122.71
1212.23
1322.38
1456.42
1618.14
1812
2043.16
2317.67
2642.53
3025.91
3477.24
4007.27
4627.89
5351.39
6187.87
7142.61
-7959.62
-3370.21
-1867.92
-1300.66
-864.984
-537.655
-311.021
-148.136
-25.8842
67.0322
137.963
192.479
234.623
267.28
292.594
312.231
327.518
339.547
349.24
357.405
364.774
372.036
379.861
388.921
399.914
413.58
430.722
452.226
479.082
512.411
553.488
603.772
664.943
738.941
828.01
934.753
1062.19
1213.85
1393.82
1606.92
1858.77
2156
2506.48
2919.6
3406.68
3981.47
4660.86
5465.4
6418.73
7546.99
17478.1
9316.09
5283.64
3766.28
2933.34
2326.46
1905.2
1623.8
1427.15
1280.31
1165.68
1073.48
997.343
932.942
877.429
828.919
786.146
748.256
714.694
685.123
659.378
637.435
619.395
605.469
595.981
591.366
592.176
599.097
612.952
634.732
665.607
706.96
760.418
827.888
911.605
1014.18
1138.69
1288.71
1468.44
1682.85
1937.79
2240.21
2598.49
3022.79
3525.8
4123.74
4838.32
5700.28
6756.59
8089.35
-20313.4
-15698.7
-14128
-10170.3
-8203.62
-4786.1
-2684.57
370.602
2475.59
5284.36
7315.25
9958.85
11857.6
14405.2
16112.7
18636
20068.1
22651.8
23652.6
26286
-20339.6
-15737.9
-14177.1
-10221.6
-8261.78
-4842.84
-2747.04
310.279
2410.85
5221.75
7249.15
9895.3
11791.4
14342.8
16049.2
18579.4
20014.3
22612.9
23627.5
26299.6
-20374
-15775.1
-14224
-10269.6
-8316.59
-4896.7
-2806.14
252.926
2349.41
5162.46
7186.72
9835.61
11729.7
14285
15991.3
18527.6
19966.2
22575.4
23599.8
26289.2
-20412.8
-15812.9
-14269.7
-10315.6
-8369
-4948.1
-2862.59
198.18
2290.71
5105.95
7127.22
9778.92
11671.2
14230.2
15936.5
18478
19919.5
22535.8
23565.2
26262.3
-20453.8
-15851.4
-14314.7
-10360.2
-8419.61
-4997.52
-2916.89
145.634
2234.27
5051.73
7070.07
9724.52
11614.9
14177.4
15883.3
18429.1
19872.2
22493.2
23524.4
26225.9
-20495.8
-15890.2
-14359.4
-10403.9
-8468.87
-5045.36
-2969.47
94.8862
2179.68
4999.34
7014.72
9671.79
11560.2
14125.7
15830.9
18380
19823.4
22447.6
23478.8
26183.3
-20538.2
-15929.2
-14403.5
-10446.8
-8517.04
-5091.93
-3020.66
45.5797
2126.56
4948.36
6960.72
9620.21
11506.4
14074.6
15778.5
18330.2
19772.9
22399.4
23429.6
26136.5
-20580.7
-15968.1
-14447.3
-10489
-8564.35
-5137.49
-3070.75
-2.59104
2074.57
4898.43
6907.69
9569.41
11453.2
14023.6
15726
18279.7
19720.9
22349.2
23377.6
26086.6
-20623.1
-16006.7
-14490.7
-10530.7
-8610.96
-5182.23
-3119.96
-49.8785
2023.44
4849.29
6855.35
9519.09
11400.3
13972.6
15673
18228.3
19667.7
22297.2
23323.6
26034.4
-20665.2
-16045.1
-14533.8
-10571.8
-8656.98
-5226.32
-3168.48
-96.487
1972.97
4800.71
6803.48
9469.04
11347.5
13921.5
15619.5
18176.2
19613.3
22243.9
23267.9
25980.5
-20707.2
-16083.2
-14576.5
-10612.6
-8702.51
-5269.89
-3216.47
-142.579
1922.99
4752.51
6751.9
9419.13
11294.7
13870.1
15565.5
18123.4
19557.9
22189.4
23210.9
25925.3
-20748.8
-16121
-14618.8
-10652.9
-8747.65
-5313.04
-3264.03
-188.284
1873.37
4704.58
6700.52
9369.25
11241.8
13818.5
15511.1
18070
19501.8
22134
23152.8
25868.9
-20790.2
-16158.5
-14660.9
-10693
-8792.46
-5355.86
-3311.26
-233.7
1824
4656.82
6649.23
9319.35
11188.7
13766.5
15456.3
18016.1
19445
22077.8
23094
25811.8
-20831.4
-16195.8
-14702.7
-10732.8
-8836.99
-5398.4
-3358.24
-278.906
1774.81
4609.15
6598
9269.39
11135.6
13714.4
15401.1
17961.6
19387.6
22021
23034.4
25753.9
-20872.3
-16232.8
-14744.3
-10772.3
-8881.3
-5440.74
-3405.02
-323.96
1725.75
4561.53
6546.78
9219.34
11082.2
13661.9
15345.6
17906.8
19329.7
21963.7
22974.3
25695.5
-20913.1
-16269.6
-14785.7
-10811.6
-8925.43
-5482.91
-3451.64
-368.909
1676.78
4513.93
6495.54
9169.18
11028.8
13609.3
15289.8
17851.7
19271.5
21905.9
22913.7
25636.6
-20953.6
-16306.2
-14826.9
-10850.8
-8969.41
-5524.94
-3498.15
-413.785
1627.87
4466.31
6444.28
9118.92
10975.2
13556.4
15233.7
17796.2
19212.9
21847.8
22852.8
25577.3
-20994
-16342.6
-14868
-10889.8
-9013.26
-5566.88
-3544.57
-458.614
1578.99
4418.68
6392.98
9068.56
10921.4
13503.4
15177.5
17740.5
19154.1
21789.4
22791.5
25517.7
-21034.3
-16378.9
-14909
-10928.7
-9057.02
-5608.73
-3590.92
-503.415
1530.14
4371.01
6341.65
9018.09
10867.6
13450.2
15121
17684.6
19095
21730.7
22730
25457.9
-21074.5
-16415
-14949.9
-10967.5
-9100.7
-5650.53
-3637.21
-548.201
1481.31
4323.3
6290.28
8967.53
10813.6
13396.8
15064.5
17628.5
19035.7
21671.9
22668.2
25397.9
-21114.6
-16451.1
-14990.8
-11006.3
-9144.31
-5692.27
-3683.45
-592.98
1432.5
4275.55
6238.88
8916.89
10759.6
13343.3
15007.8
17572.2
18976.3
21612.8
22606.3
25337.7
-21154.7
-16487.1
-15031.5
-11044.9
-9187.86
-5733.98
-3729.66
-637.757
1383.69
4227.77
6187.46
8866.17
10705.6
13289.8
14951
17515.8
18916.7
21553.7
22544.2
25277.4
-21194.6
-16523
-15072.2
-11083.5
-9231.37
-5775.66
-3775.83
-682.537
1334.9
4179.95
6136.03
8815.39
10651.5
13236.1
14894.1
17459.3
18857.1
21494.4
22482
25217
-21234.6
-16558.8
-15112.9
-11122.1
-9274.83
-5817.32
-3821.97
-727.319
1286.13
4132.1
6084.59
8764.56
10597.3
13182.4
14837.2
17402.8
18797.3
21435
22419.8
25156.5
-21274.5
-16594.5
-15153.5
-11160.6
-9318.26
-5858.95
-3868.07
-772.104
1237.37
4084.22
6033.15
8713.68
10543.1
13128.6
14780.2
17346.2
18737.6
21375.6
22357.5
25096
-21314.3
-16630.3
-15194.1
-11199.1
-9361.65
-5900.56
-3914.14
-816.889
1188.64
4036.33
5981.73
8662.77
10489
13074.8
14723.2
17289.5
18677.8
21316.2
22295.1
25035.5
-21354.1
-16665.9
-15234.7
-11237.5
-9405
-5942.15
-3960.18
-861.672
1139.95
3988.42
5930.33
8611.83
10434.8
13020.9
14666.3
17232.8
18617.9
21256.7
22232.7
24974.9
-21393.9
-16701.5
-15275.2
-11275.9
-9448.32
-5983.72
-4006.17
-906.449
1091.28
3940.5
5878.95
8560.88
10380.7
12967
14609.3
17176.1
18558.1
21197.3
22170.3
24914.4
-21433.7
-16737.1
-15315.7
-11314.3
-9491.59
-6025.27
-4052.12
-951.215
1042.67
3892.59
5827.62
8509.93
10326.6
12913.2
14552.3
17119.4
18498.3
21137.9
22108
24853.9
-21473.4
-16772.6
-15356.2
-11352.6
-9534.83
-6066.79
-4098.03
-995.967
994.101
3844.68
5776.34
8458.98
10272.5
12859.3
14495.4
17062.7
18438.5
21078.4
22045.6
24793.4
-21513.2
-16808
-15396.6
-11390.9
-9578.01
-6108.28
-4143.87
-1040.7
945.594
3796.79
5725.11
8408.04
10218.5
12805.4
14438.6
17006.1
18378.8
21019.1
21983.3
24733
-21552.8
-16843.4
-15437
-11429.1
-9621.15
-6149.74
-4189.66
-1085.4
897.154
3748.92
5673.96
8357.13
10164.6
12751.6
14381.8
16949.5
18319.2
20959.8
21921.1
24672.7
-21592.5
-16878.8
-15477.4
-11467.3
-9664.23
-6191.16
-4235.38
-1130.08
848.789
3701.08
5622.88
8306.25
10110.7
12697.9
14325.1
16892.9
18259.6
20900.5
21858.9
24612.5
-21632.1
-16914.1
-15517.7
-11505.5
-9707.25
-6232.53
-4281.02
-1174.71
800.507
3653.28
5571.89
8255.41
10056.9
12644.1
14268.4
16836.4
18200.1
20841.4
21796.8
24552.3
-21671.7
-16949.3
-15558
-11543.5
-9750.2
-6273.86
-4326.59
-1219.3
752.317
3605.52
5521
8204.62
10003.2
12590.5
14211.9
16780
18140.7
20782.3
21734.8
24492.3
-21711.2
-16984.5
-15598.2
-11581.6
-9793.08
-6315.13
-4372.06
-1263.84
704.227
3557.81
5470.21
8153.89
9949.69
12536.9
14155.5
16723.7
18081.4
20723.4
21673
24432.4
-21750.7
-17019.6
-15638.3
-11619.5
-9835.88
-6356.34
-4417.44
-1308.32
656.246
3510.17
5419.54
8103.23
9896.25
12483.4
14099.2
16667.5
18022.2
20664.5
21611.2
24372.6
-21790.1
-17054.6
-15678.4
-11657.4
-9878.59
-6397.49
-4462.71
-1352.74
608.382
3462.59
5369
8052.64
9842.93
12429.9
14043
16611.4
17963.2
20605.8
21549.5
24313
-21829.5
-17089.5
-15718.4
-11695.2
-9921.2
-6438.56
-4507.87
-1397.09
560.645
3415.08
5318.59
8002.14
9789.76
12376.6
13987
16555.4
17904.3
20547.2
21488
24253.5
-21868.7
-17124.4
-15758.3
-11733
-9963.72
-6479.56
-4552.91
-1441.36
513.041
3367.66
5268.33
7951.72
9736.73
12323.4
13931.1
16499.5
17845.5
20488.8
21426.7
24194.2
-21908
-17159.1
-15798.2
-11770.6
-10006.1
-6520.47
-4597.82
-1485.55
465.58
3320.32
5218.22
7901.41
9683.87
12270.3
13875.4
16443.7
17786.9
20430.5
21365.5
24135
-21947.1
-17193.8
-15837.9
-11808.2
-10048.4
-6561.29
-4642.6
-1529.64
418.271
3273.08
5168.27
7851.2
9631.17
12217.3
13819.8
16388.1
17728.5
20372.4
21304.5
24076.1
-21986.1
-17228.3
-15877.6
-11845.6
-10090.6
-6602.01
-4687.23
-1573.64
371.122
3225.94
5118.49
7801.11
9578.65
12164.4
13764.5
16332.7
17670.2
20314.5
21243.6
24017.3
-22025.1
-17262.7
-15917.1
-11882.9
-10132.6
-6642.63
-4731.71
-1617.53
324.142
3178.92
5068.89
7751.13
9526.31
12111.7
13709.3
16277.4
17612.2
20256.7
21182.9
23958.8
-22064
-17297.1
-15956.5
-11920.2
-10174.5
-6683.14
-4776.03
-1661.31
277.341
3132.01
5019.48
7701.29
9474.17
12059.2
13654.3
16222.3
17554.3
20199.2
21122.5
23900.5
-22102.7
-17331.2
-15995.8
-11957.3
-10216.2
-6723.52
-4820.17
-1704.97
230.728
3085.23
4970.27
7651.59
9422.24
12006.8
13599.5
16167.3
17496.7
20141.8
21062.2
23842.3
-22141.3
-17365.3
-16035
-11994.2
-10257.8
-6763.79
-4864.14
-1748.51
184.311
3038.58
4921.27
7602.04
9370.52
11954.5
13545
16112.6
17439.2
20084.7
21002.2
23784.5
-22179.9
-17399.2
-16074
-12031.1
-10299.3
-6803.92
-4907.92
-1791.91
138.098
2992.07
4872.48
7552.64
9319.03
11902.4
13490.6
16058
17382
20027.7
20942.3
23726.8
-22218.3
-17433
-16112.9
-12067.8
-10340.5
-6843.92
-4951.51
-1835.18
92.0995
2945.71
4823.93
7503.4
9267.76
11850.6
13436.5
16003.6
17325
19971
20882.7
23669.4
-22256.5
-17466.6
-16151.7
-12104.3
-10381.6
-6883.77
-4994.89
-1878.3
46.3229
2899.5
4775.6
7454.32
9216.74
11798.9
13382.7
15949.5
17268.3
19914.6
20823.4
23612.3
-22294.6
-17500
-16190.3
-12140.7
-10422.5
-6923.48
-5038.06
-1921.26
0.777318
2853.45
4727.52
7405.43
9165.97
11747.4
13329.1
15895.6
17211.8
19858.4
20764.3
23555.4
-22332.6
-17533.3
-16228.7
-12177
-10463.2
-6963.02
-5081.01
-1964.07
-44.5283
2807.57
4679.7
7356.71
9115.46
11696.1
13275.7
15841.9
17155.6
19802.4
20705.5
23498.9
-22370.4
-17566.4
-16266.9
-12213
-10503.7
-7002.4
-5123.73
-2006.71
-89.5852
2761.87
4632.13
7308.19
9065.22
11645
13222.7
15788.4
17099.7
19746.7
20646.9
23442.6
-22408
-17599.3
-16305
-12248.9
-10543.9
-7041.61
-5166.21
-2049.18
-134.384
2716.34
4584.84
7259.87
9015.25
11594.1
13169.9
15735.2
17044
19691.3
20588.6
23386.6
-22445.5
-17632.1
-16342.8
-12284.6
-10584
-7080.64
-5208.45
-2091.47
-178.917
2671.01
4537.82
7211.75
8965.57
11543.5
13117.4
15682.3
16988.6
19636.2
20530.6
23330.9
-22482.8
-17664.6
-16380.5
-12320.2
-10623.8
-7119.49
-5250.43
-2133.58
-223.175
2625.87
4491.09
7163.84
8916.19
11493.1
13065.2
15629.6
16933.5
19581.3
20472.9
23275.5
-22519.8
-17696.9
-16418
-12355.5
-10663.4
-7158.15
-5292.14
-2175.49
-267.149
2580.93
4444.66
7116.16
8867.11
11442.9
13013.3
15577.2
16878.8
19526.8
20415.5
23220.4
-22556.8
-17729.1
-16455.2
-12390.6
-10702.7
-7196.62
-5333.58
-2217.21
-310.831
2536.21
4398.54
7068.7
8818.34
11393
12961.7
15525
16824.3
19472.6
20358.4
23165.7
-22593.5
-17761
-16492.2
-12425.6
-10741.8
-7234.88
-5374.75
-2258.72
-354.211
2491.69
4352.73
7021.47
8769.9
11343.4
12910.5
15473.2
16770.2
19418.6
20301.7
23111.3
-22629.9
-17792.7
-16529
-12460.3
-10780.7
-7272.94
-5415.62
-2300.01
-397.282
2447.4
4307.24
6974.49
8721.78
11294
12859.5
15421.6
16716.4
19365
20245.2
23057.3
-22666.2
-17824.1
-16565.6
-12494.8
-10819.2
-7310.78
-5456.2
-2341.09
-440.034
2403.34
4262.08
6927.75
8674.01
11244.9
12808.9
15370.4
16662.9
19311.8
20189.1
23003.6
-22702.3
-17855.4
-16601.9
-12529.1
-10857.5
-7348.4
-5496.47
-2381.95
-482.459
2359.52
4217.27
6881.28
8626.58
11196
12758.7
15319.4
16609.8
19258.9
20133.4
22950.3
-22738.1
-17886.4
-16638
-12563.1
-10895.5
-7385.79
-5536.42
-2422.58
-524.547
2315.94
4172.81
6835.06
8579.5
11147.5
12708.8
15268.8
16557.1
19206.3
20078
22897.4
-22773.7
-17917.1
-16673.8
-12596.9
-10933.2
-7422.95
-5576.05
-2462.97
-566.289
2272.6
4128.7
6789.11
8532.8
11099.3
12659.3
15218.5
16504.7
19154.1
20023
22844.8
-22809
-17947.6
-16709.4
-12630.5
-10970.6
-7459.88
-5615.35
-2503.12
-607.678
2229.53
4084.96
6743.44
8486.46
11051.3
12610.2
15168.5
16452.7
19102.2
19968.3
22792.6
-22844.1
-17977.8
-16744.6
-12663.8
-11007.7
-7496.55
-5654.3
-2543.01
-648.705
2186.71
4041.6
6698.05
8440.51
11003.7
12561.4
15118.9
16401.1
19050.7
19914
22740.9
-22879
-18007.8
-16779.6
-12696.8
-11044.4
-7532.98
-5692.91
-2582.66
-689.361
2144.16
3998.62
6652.96
8394.95
10956.4
12513.1
15069.6
16349.8
18999.6
19860.2
22689.5
-22913.5
-18037.5
-16814.3
-12729.6
-11080.9
-7569.15
-5731.16
-2622.04
-729.638
2101.89
3956.03
6608.15
8349.78
10909.4
12465.1
15020.7
16299
18948.9
19806.7
22638.6
-22947.8
-18066.9
-16848.7
-12762.1
-11117
-7605.06
-5769.04
-2661.16
-769.528
2059.89
3913.85
6563.66
8305.02
10862.7
12417.6
14972.1
16248.6
18898.6
19753.6
22588
-22981.8
-18096
-16882.8
-12794.4
-11152.7
-7640.7
-5806.55
-2700.01
-809.022
2018.19
3872.07
6519.47
8260.68
10816.4
12370.4
14923.9
16198.6
18848.7
19700.9
22538
-23015.6
-18124.8
-16916.6
-12826.4
-11188.1
-7676.07
-5843.68
-2738.58
-848.111
1976.77
3830.71
6475.6
8216.76
10770.5
12323.7
14876.1
16149
18799.2
19648.7
22488.3
-23049
-18153.3
-16950.1
-12858.1
-11223.2
-7711.16
-5880.41
-2776.86
-886.787
1935.66
3789.78
6432.05
8173.27
10724.8
12277.5
14828.7
16099.8
18750.1
19596.9
22439.1
-23082.1
-18181.5
-16983.2
-12889.5
-11257.9
-7745.97
-5916.74
-2814.86
-925.04
1894.85
3749.28
6388.83
8130.23
10679.6
12231.6
14781.7
16051.1
18701.5
19545.5
22390.4
-23114.9
-18209.5
-17016
-12920.6
-11292.2
-7780.49
-5952.67
-2852.56
-962.862
1854.35
3709.22
6345.95
8087.63
10634.7
12186.3
14735
16002.9
18653.3
19494.6
22342.1
-23147.4
-18237
-17048.4
-12951.4
-11326.1
-7814.71
-5988.17
-2889.96
-1000.25
1814.17
3669.62
6303.41
8045.49
10590.2
12141.3
14688.8
15955.1
18605.5
19444.1
22294.3
-23179.6
-18264.3
-17080.5
-12981.9
-11359.6
-7848.63
-6023.25
-2927.06
-1037.18
1774.31
3630.47
6261.22
8003.81
10546.1
12096.9
14643
15907.7
18558.2
19394.1
22246.9
-23211.5
-18291.3
-17112.3
-13012.1
-11392.7
-7882.25
-6057.9
-2963.85
-1073.66
1734.78
3591.79
6219.39
7962.6
10502.3
12052.9
14597.6
15860.8
18511.4
19344.5
22200.1
-23243
-18317.9
-17143.6
-13041.9
-11425.4
-7915.56
-6092.1
-3000.32
-1109.68
1695.58
3553.59
6177.92
7921.88
10459
12009.4
14552.7
15814.5
18465
19295.4
22153.8
-23274.1
-18344.1
-17174.6
-13071.5
-11457.7
-7948.56
-6125.85
-3036.46
-1145.22
1656.73
3515.87
6136.81
7881.64
10416
11966.4
14508.2
15768.6
18419
19246.9
22107.9
-23304.9
-18370
-17205.3
-13100.7
-11489.6
-7981.24
-6159.14
-3072.29
-1180.29
1618.22
3478.64
6096.09
7841.9
10373.5
11923.8
14464.1
15723.2
18373.6
19198.8
22062.6
-23335.4
-18395.6
-17235.5
-13129.6
-11521
-8013.59
-6191.96
-3107.78
-1214.87
1580.06
3441.91
6055.74
7802.66
10331.4
11881.8
14420.5
15678.3
18328.7
19151.2
22017.8
-23365.5
-18420.8
-17265.3
-13158.1
-11552
-8045.62
-6224.31
-3142.93
-1248.95
1542.26
3405.69
6015.78
7763.93
10289.6
11840.3
14377.3
15633.9
18284.2
19104.1
21973.5
-23395.2
-18445.7