/*--------------------------------*- C++ -*----------------------------------*\
  =========                 |
  \\      /  F ield         | OpenFOAM: The Open Source CFD Toolbox
   \\    /   O peration     | Website:  https://openfoam.org
    \\  /    A nd           | Version:  8
     \\/     M anipulation  |
\*---------------------------------------------------------------------------*/
FoamFile
{
    version     2.0;
    format      ascii;
    class       volScalarField;
    location    "400";
    object      p_rgh;
}
// * * * * * * * * * * * * * * * * * * * * * * * * * * * * * * * * * * * * * //

dimensions      [1 -1 -2 0 0 0 0];

internalField   nonuniform List<scalar> 
8400
(
-5.03872
10.1928
22.0658
33.4904
44.6735
55.819
67.0589
78.5024
90.2488
102.4
115.062
128.351
142.394
157.337
173.345
190.607
209.339
229.79
252.247
277.046
304.572
335.268
369.643
408.325
452.077
501.69
557.855
621.495
693.876
776.403
870.684
978.571
1102.2
1244.05
1406.96
1594.26
1809.79
2058.04
2344.23
2674.52
3056.08
3497.45
4009.27
4605.48
5302.47
6114.38
7056.4
8189.27
9679.45
11621.1
-15.0175
-4.28826
5.56338
15.8444
26.1454
36.4775
46.9035
57.5024
68.3591
79.5633
91.2112
103.41
116.276
129.947
144.574
160.335
177.43
196.088
216.577
239.21
264.354
292.42
323.862
359.219
399.105
444.229
495.51
553.944
620.587
696.723
783.842
883.669
998.197
1129.72
1280.89
1454.76
1654.85
1885.22
2150.55
2456.26
2808.5
3214.4
3682.48
4223.16
4847.73
5564.54
6380.82
7327.47
8487.71
9912.28
16.2897
31.5296
43.9057
55.3987
66.7147
78.0904
89.642
101.456
113.615
126.208
139.333
153.095
167.622
183.05
199.539
217.271
236.455
257.327
280.163
305.283
333.073
363.953
398.351
436.758
479.786
528.146
582.731
644.547
714.692
794.449
885.301
988.963
1107.41
1242.93
1398.15
1576.09
1780.25
2014.62
2283.82
2593.12
2948.51
3356.79
3825.84
4364.67
4982.45
5686.22
6481.83
7384.19
8423.86
9596.12
-20.6941
-19.2116
-12.9602
-4.68217
4.23288
13.4092
22.7562
32.2816
42.0295
52.0596
62.4481
73.2783
84.6487
96.6723
109.478
123.219
138.065
154.208
171.873
191.315
212.844
236.849
263.799
294.173
328.478
367.346
411.513
461.82
519.237
584.893
660.093
746.346
845.393
959.243
1090.21
1240.95
1414.51
1614.4
1844.62
2109.72
2414.84
2765.75
3169.03
3631.93
4161.73
4764.56
5445.91
6214.88
7086.24
8056.37
31.5003
50.1547
63.4371
74.794
85.7434
96.715
107.86
119.251
130.954
143.032
155.56
168.623
182.319
196.76
212.075
228.419
245.962
264.889
285.401
307.744
332.169
358.994
388.621
421.517
458.193
499.24
545.338
597.264
655.908
722.295
797.604
883.192
980.616
1091.66
1218.37
1363.07
1528.41
1717.38
1933.35
2180.06
2461.63
2782.54
3147.58
3561.69
4029.38
4553.88
5136.71
5779.9
6489.71
7264.79
-29.0088
-31.5283
-27.1231
-19.9428
-11.8866
-3.4875
5.10448
13.8642
22.8097
31.9842
41.4392
51.2385
61.4548
72.1762
83.5018
95.5514
108.475
122.45
137.667
154.335
172.693
193.003
215.583
240.807
269.104
300.974
336.994
377.831
424.25
477.14
537.525
606.582
685.671
776.349
880.405
999.88
1137.09
1294.67
1475.56
1683.03
1920.65
2192.27
2501.88
2853.5
3250.69
3695.78
4188.96
4729.27
5318.77
5958.12
38.6977
59.6176
73.1692
84.0047
94.1492
104.177
114.273
124.512
134.937
145.592
156.52
167.779
179.427
191.53
204.17
217.426
231.404
246.233
262.073
279.095
297.498
317.504
339.375
363.411
389.958
419.414
452.234
488.946
530.156
576.561
628.964
688.286
755.588
832.084
919.159
1018.39
1131.57
1260.71
1408.06
1576.1
1767.52
1985.18
2232.02
2510.94
2824.5
3174.31
3560.15
3980.65
4437.39
4932.84
-33.5443
-37.9224
-34.389
-27.7555
-20.1752
-12.2496
-4.15322
4.07286
12.4331
20.9499
29.6599
38.6044
47.8395
57.423
67.4224
77.9142
88.9789
100.713
113.234
126.672
141.177
156.924
174.113
192.976
213.782
236.838
262.499
291.174
323.334
359.52
400.352
446.547
498.924
558.421
626.108
703.2
791.072
891.265
1005.49
1135.63
1283.69
1451.8
1642.11
1856.68
2097.35
2365.18
2659.83
2980.13
3327.52
3705.26
40.8867
62.1916
75.2674
85.2651
94.3885
103.26
112.073
120.888
129.728
138.607
147.541
156.549
165.655
174.894
184.301
193.92
203.802
214.003
224.594
235.652
247.267
259.546
272.607
286.592
301.662
318.008
335.844
355.424
377.038
401.024
427.771
457.729
491.418
529.435
572.467
621.299
676.826
740.062
812.143
894.331
988.002
1094.63
1215.73
1352.84
1507.41
1680.43
1872.04
2081.95
2312.01
2566.1
-34.6743
-39.7549
-36.7469
-30.5954
-23.5172
-16.1371
-8.64436
-1.0949
6.49962
14.1412
21.836
29.5956
37.4338
45.3692
53.4234
61.6194
69.9835
78.548
87.3479
96.423
105.819
115.587
125.784
136.477
147.738
159.653
172.317
185.836
200.334
215.954
232.854
251.221
271.267
293.238
317.417
344.132
373.763
406.747
443.592
484.881
531.282
583.548
642.533
709.19
784.556
869.607
965.047
1071.65
1191.92
1330.46
39.9265
60.5693
72.8711
82.0475
90.2797
98.1764
105.913
113.533
121.04
128.428
135.686
142.804
149.771
156.578
163.215
169.669
175.928
181.978
187.803
193.387
198.707
203.742
208.468
212.853
216.865
220.467
223.617
226.268
228.365
229.85
230.658
230.718
229.952
228.278
225.612
221.868
216.964
210.832
203.424
194.73
184.8
173.772
161.924
149.732
137.933
127.56
119.985
117.206
122.701
141.739
-33.52
-38.6861
-36.1566
-30.6612
-24.342
-17.8139
-11.2789
-4.81003
1.55688
7.79974
13.8976
19.8303
25.577
31.1139
36.4143
41.4489
46.1819
50.5725
54.573
58.128
61.1722
63.6284
65.4073
66.4041
66.496
65.5397
63.3682
59.7877
54.5724
47.4614
38.1538
26.3035
11.5138
-6.66717
-28.7511
-55.3108
-86.9821
-124.458
-168.48
-219.815
-279.22
-347.387
-424.847
-511.847
-608.208
-713.121
-824.859
-940.455
-1055.35
-1162.3
36.5455
55.8937
67.382
75.9556
83.6208
90.9223
98.0051
104.889
111.558
117.984
124.133
129.967
135.443
140.516
145.13
149.224
152.726
155.555
157.616
158.798
158.976
158.001
155.702
151.883
146.314
138.731
128.826
116.246
100.584
81.3692
58.0617
30.0423
-3.39585
-43.0576
-89.8556
-144.815
-209.077
-283.901
-370.648
-470.757
-585.706
-716.922
-865.655
-1032.79
-1218.63
-1422.59
-1642.61
-1874.57
-2111.89
-2345.41
-29.9765
-34.5735
-32.384
-27.603
-22.1648
-16.6483
-11.2582
-6.08533
-1.18625
3.39086
7.59964
11.3883
14.6998
17.47
19.6261
21.0836
21.745
21.4989
20.2162
17.7463
13.9161
8.52497
1.34023
-7.90743
-19.5298
-33.8881
-51.4
-72.5484
-97.8911
-128.073
-163.836
-206.036
-255.655
-313.821
-381.821
-461.122
-553.381
-660.463
-784.435
-927.562
-1092.28
-1281.11
-1496.55
-1740.8
-2015.5
-2321.39
-2657.52
-3020.05
-3401.08
-3786.49
29.9421
47.1689
57.6604
65.7288
73.0116
79.9362
86.5991
92.9964
99.0943
104.848
110.207
115.111
119.493
123.276
126.373
128.68
130.078
130.428
129.571
127.32
123.457
117.73
109.846
99.4627
86.1845
69.5512
49.0272
23.9914
-6.27587
-42.6101
-85.9786
-137.5
-198.468
-270.372
-354.93
-454.107
-570.149
-705.606
-863.341
-1046.54
-1258.67
-1503.47
-1784.73
-2105.98
-2470.05
-2878.74
-3332.16
-3826.56
-4350.71
-4884.22
-23.1331
-25.8861
-23.3617
-18.8728
-13.9841
-9.1803
-4.64828
-0.483913
3.24399
6.47074
9.12661
11.1347
12.4082
12.8475
12.3375
10.7456
7.91937
3.68283
-2.16781
-9.86834
-19.6911
-31.9513
-47.0132
-65.2992
-87.2973
-113.572
-144.778
-181.671
-225.125
-276.151
-335.917
-405.775
-487.281
-582.232
-692.696
-821.048
-970.015
-1142.71
-1342.66
-1573.85
-1840.71
-2148.17
-2501.53
-2906.12
-3366.77
-3887.87
-4473.81
-5126.73
-5837.74
-6575.89
17.9534
32.3928
41.6451
49.1865
56.0655
62.5583
68.7132
74.5132
79.917
84.8717
89.3144
93.1707
96.356
98.7722
100.303
100.815
100.153
98.1363
94.5541
89.1625
81.6768
71.7667
59.0485
43.0754
23.3282
-0.79525
-29.9956
-65.0873
-107.016
-156.879
-215.954
-285.723
-367.909
-464.513
-577.864
-710.664
-866.057
-1047.69
-1259.81
-1507.3
-1795.82
-2131.9
-2523.08
-2977.6
-3503.71
-4109.79
-4806.76
-5606.28
-6501.82
-7442.83
-14.4148
-12.6976
-8.39585
-3.23241
1.87084
6.65884
11.0279
14.9127
18.2516
20.9767
23.0095
24.2591
24.6204
23.9708
22.1684
19.0494
14.4235
8.07031
-0.265263
-10.8794
-24.1147
-40.3681
-60.1002
-83.8452
-112.222
-145.95
-185.861
-232.925
-288.265
-353.186
-429.206
-518.091
-621.893
-743.007
-884.224
-1048.8
-1240.55
-1463.92
-1724.15
-2027.33
-2380.59
-2792.35
-3272.58
-3832.76
-4484.7
-5239.75
-6113.33
-7130.68
-8304.82
-9571.79
-3.12558
12.6715
21.1992
28.3033
34.6677
40.5395
45.9651
50.9289
55.3898
59.2909
62.5611
65.1162
66.8566
67.6661
67.4093
65.9283
63.0392
58.529
52.1493
43.6119
32.5832
18.6744
1.43457
-19.6588
-45.2137
-75.9351
-112.641
-156.284
-207.966
-268.971
-340.789
-425.153
-524.081
-639.924
-775.421
-933.775
-1118.73
-1334.7
-1586.84
-1881.26
-2225.14
-2627.05
-3097.61
-3649.88
-4297.91
-5054.44
-5938.85
-7004.96
-8338.64
-9914.61
-5.90566
0.502585
6.61371
12.6666
18.3586
23.6243
28.4245
32.7181
36.4542
39.5691
41.986
43.6134
44.3437
44.0508
42.5884
39.7863
35.4468
29.3395
21.1972
10.7108
-2.47923
-18.7903
-38.7061
-62.7887
-91.6909
-126.171
-167.109
-215.528
-272.62
-339.768
-418.587
-510.958
-619.078
-745.519
-893.296
-1065.96
-1267.69
-1503.48
-1779.27
-2102.22
-2480.96
-2926.19
-3451.76
-4075.98
-4820.75
-5708.73
-6775.5
-8125
-9966.35
-12344.1
28972.8
20810.5
16777.5
15259.1
14424.8
13815.9
13392.3
13107.9
12907.8
12756.7
12636.9
12538.7
12455.5
12382.8
12317.5
12257.4
12201.2
12147.5
12095.5
12044.3
11993.2
11941.7
11889.1
11834.8
11778
11718.2
11654.5
11586
11511.8
11430.7
11341.3
11242.1
11131.4
11007.3
10867.1
10708
10526.5
10318.6
10079.6
9803.43
9482.98
9109.62
8672.69
8158.7
7550.15
6823.59
5946.05
4868.3
3509.91
1734.23
3437.75
8026.91
9528.61
10094.9
10529.2
10854.8
11079.2
11239.3
11358.1
11446.9
11513
11561.7
11597
11621.6
11637.4
11646
11648.2
11645
11636.8
11624.1
11607
11585.7
11560.1
11530.1
11495.4
11455.6
11410.3
11358.8
11300.3
11233.9
11158.1
11071.8
10973.1
10860
10730.3
10581.3
10409.8
10211.7
9982.62
9716.99
9408.18
9048.02
8626.52
8131.35
7547.07
6854.12
6027.54
5035.83
3841.45
2410.52
10767.2
12937.2
14120.3
14223
14066.4
13894.7
13708.4
13517.2
13338.8
13179.7
13038.9
12913.9
12802.4
12702.2
12611.2
12527.6
12450.1
12377.3
12308.1
12241.6
12177
12113.4
12050.1
11986.5
11921.6
11854.8
11785.3
11712.2
11634.5
11551.3
11461.2
11362.7
11254.1
11133.3
10998
10845.6
10672.9
10476.4
10251.5
9993.18
9695.31
9350.65
8950.54
8484.59
7940.41
7303.29
6556.22
5680.67
4659.41
3484.16
11115.8
11524.9
11716.3
11644.7
11542.5
11499.1
11487.5
11485.2
11489.5
11499.3
11511.9
11524.7
11536.1
11545.2
11551.6
11555
11555.2
11552
11545.6
11535.7
11522.4
11505.5
11485
11460.6
11431.9
11398.6
11360.1
11316
11265.4
11207.7
11141.8
11066.7
10980.7
10882.5
10769.8
10640.4
10491.5
10319.8
10121.5
9892.23
9626.66
9318.74
8961.37
8546.38
8064.56
7505.87
6860.15
6118.69
5277.63
4343.78
11654.8
11903.9
12220.5
12452.2
12592.1
12681.4
12733.7
12752.6
12746.2
12723.3
12689.5
12648.6
12602.9
12554.4
12504.1
12452.8
12401
12348.9
12296.5
12243.9
12190.9
12137.2
12082.7
12027.1
11969.8
11910.6
11848.9
11783.8
11714.7
11640.6
11560.6
11473.5
11378
11272.6
11155.5
11024.5
10877.3
10710.9
10522.1
10307
10061.5
9780.41
9458.24
9088.83
8665.66
8182.26
7633
7014.54
6328.23
5582.87
11858.5
11944.2
12052.3
12114.3
12117
12088.8
12050.4
12008.1
11965
11923.7
11885.8
11851.4
11820.1
11791.4
11764.8
11739.7
11715.5
11691.8
11668.1
11644
11619.1
11593.1
11565.7
11536.3
11504.7
11470.4
11433
11392
11346.8
11296.6
11240.6
11177.9
11107.4
11027.8
10937.6
10835.1
10718.4
10585
10432.3
10257.4
10056.9
9826.9
9563.41
9262.11
8918.77
8529.7
8092.43
7606.89
7077.13
6512.67
11971.7
12016.1
12087.8
12160
12215.3
12256.2
12287.8
12310.8
12324.9
12330.7
12329.5
12322.2
12309.8
12292.8
12272
12247.9
12221.1
12191.7
12160.2
12126.8
12091.5
12054.5
12015.7
11975
11932.3
11887.4
11840
11789.9
11736.5
11679.4
11618
11551.5
11479.1
11399.8
11312.4
11215.7
11108
10987.6
10852.5
10700.3
10528.7
10334.9
10116
9869.27
9592.04
9282.4
8939.62
8564.92
8162.47
7739.57
12030.2
12052.4
12090.2
12130.1
12158.3
12171.2
12171.3
12161.4
12143.3
12119.2
12091.1
12060.4
12028.4
11995.8
11963.1
11930.7
11898.7
11867
11835.8
11804.8
11774
11743.1
11712
11680.4
11648.1
11614.7
11580
11543.6
11505.2
11464.2
11420.1
11372.4
11320.5
11263.5
11200.7
11131
11053.4
10966.6
10869.2
10759.7
10636.4
10497.6
10341.5
10166.6
9971.44
9755.43
9518.88
9263.61
8993.56
8714.89
12061.6
12075.2
12100.3
12130.9
12158.4
12178.7
12191.9
12199
12200.9
12198
12191.2
12180.9
12167.8
12152.1
12134.3
12114.6
12093.2
12070.2
12045.9
12020.4
11993.6
11965.8
11936.8
11906.8
11875.6
11843.3
11809.8
11774.9
11738.4
11700.2
11660.1
11617.6
11572.6
11524.6
11473.1
11417.6
11357.5
11292
11220.5
11142.1
11055.9
10961
10856.8
10742.4
10617.4
10482
10336.9
10183.8
10025.6
9866.17
12075.7
12085.8
12105
12129.5
12152.5
12169.1
12178.4
12180.6
12176.4
12166.7
12152.4
12134.5
12113.8
12091
12066.8
12041.5
12015.5
11989.1
11962.5
11935.6
11908.7
11881.7
11854.7
11827.7
11800.6
11773.4
11746.1
11718.5
11690.7
11662.5
11633.8
11604.6
11574.7
11543.9
11512.3
11479.5
11445.5
11410
11372.9
11334
11293.2
11250.5
11205.7
11159
11110.8
11061.7
11012.5
10964.7
10920.4
10882
12076.9
12087
12106.3
12130.9
12153.9
12170.7
12180.2
12182.6
12178.7
12169.4
12155.5
12138
12117.9
12095.9
12072.5
12048.2
12023.3
11998.3
11973.2
11948.2
11923.4
11898.9
11874.8
11851.1
11827.9
11805.3
11783.2
11761.8
11741.1
11721.2
11702.2
11684.2
11667.4
11651.9
11638
11625.8
11615.7
11608
11603.1
11601.5
11603.8
11610.5
11622.5
11640.5
11665.5
11698.4
11740.3
11792
11854.6
11928.7
12065.1
12078.8
12104
12134.9
12162.7
12183.4
12197.1
12205
12207.6
12205.8
12200.1
12191.2
12179.7
12166
12150.4
12133.2
12114.9
12095.5
12075.4
12054.8
12033.8
12012.7
11991.6
11970.8
11950.5
11930.9
11912.2
11894.7
11878.5
11864.1
11851.7
11841.8
11834.7
11831
11831.2
11835.9
11846
11862.2
11885.7
11917.3
11958.5
12010.6
12075.1
12153.4
12247
12357.4
12485.6
12632.2
12796.9
12979
12036
12058.3
12096.3
12136.6
12165.3
12178.9
12180
12171.2
12154.5
12132.1
12105.9
12077.6
12048.4
12019
11990.2
11962.3
11935.5
11910
11886
11863.5
11842.6
11823.3
11805.6
11789.7
11775.7
11763.7
11754
11746.7
11742.1
11740.7
11742.8
11749
11759.9
11776.2
11798.8
11828.7
11866.9
11914.9
11974.2
12046.4
12133.4
12237.4
12360.5
12505.1
12673.2
12866.9
13087.5
13335.3
13609.3
13907.6
11979.5
12024.1
12096.1
12168.9
12225
12266.8
12299.7
12324.2
12340
12348.1
12349.4
12345.3
12336.5
12323.8
12308.1
12290
12270.1
12248.9
12227
12204.7
12182.4
12160.6
12139.7
12119.9
12101.7
12085.4
12071.6
12060.6
12053
12049.5
12050.7
12057.3
12070.3
12090.7
12119.7
12158.7
12209.3
12273.2
12352.5
12449.6
12567
12707.6
12874.4
13070.5
13298.9
13562.3
13862.5
14199.9
14572.8
14977
11868.3
11954.1
12062.6
12125.3
12128.9
12102
12065.2
12024.8
11984
11945.5
11911
11880.5
11853.9
11830.7
11810.5
11793
11777.6
11764.2
11752.6
11742.7
11734.4
11727.8
11723
11720.2
11719.6
11721.5
11726.4
11734.6
11746.8
11763.7
11786
11814.7
11850.8
11895.7
11950.7
12017.5
12098.2
12194.9
12310.3
12447.2
12608.9
12799.2
13021.9
13281.2
13581.3
13926.1
14318.6
14760.1
15249.2
15781.7
11666.3
11915.6
12232.7
12465.1
12606.1
12696.8
12750.9
12772
12768.3
12748.5
12718.6
12682.2
12642
12599.7
12556.9
12514.4
12472.8
12432.7
12394.4
12358.3
12324.5
12293.4
12265.2
12240.3
12218.9
12201.4
12188.4
12180.4
12178
12182
12193.3
12212.9
12242.1
12282.4
12335.3
12402.9
12487.4
12591.5
12718.1
12870.9
13053.6
13270.8
13527.4
13828.8
14180.5
14588
15056.2
15587.9
16182.2
16833.9
11128.6
11537.9
11729.9
11659.1
11558.1
11516.3
11506.7
11507
11514.3
11527.8
11544.8
11562.6
11580.1
11596.3
11611.1
11624.3
11635.9
11646.2
11655.5
11664.1
11672.3
11680.6
11689.5
11699.5
11711
11724.8
11741.5
11761.9
11786.9
11817.3
11854.4
11899.4
11953.8
12019.3
12097.9
12191.9
12303.7
12436.6
12594
12779.9
12999
13256.5
13558.5
13911.8
14323.8
14802.3
15355.3
15989.4
16707.7
17508.8
10781.1
12951.4
14135
14238.6
14083.3
13913.4
13729.2
13540.7
13365.7
13210.5
13074.5
12955.1
12850.2
12757.8
12675.9
12603.1
12538.1
12480
12428
12381.7
12340.6
12304.5
12273.5
12247.4
12226.5
12211
12201.5
12198.3
12202.3
12214.2
12235.2
12266.3
12309.2
12365.4
12437.1
12526.6
12636.8
12770.8
12932.5
13126.4
13357.6
13632.1
13956.9
14340.3
14791.6
15321.7
15942.3
16665.8
17502.3
18457
3452.35
8041.77
9544.05
10111.3
10547
10874.3
11101
11263.8
11386.1
11479
11549.9
11604.5
11646.6
11679.3
11704.6
11724.2
11739.5
11751.5
11761.2
11769.4
11776.8
11784
11791.9
11800.9
11811.9
11825.6
11842.7
11864.2
11891.1
11924.4
11965.5
12015.8
12076.9
12150.9
12240
12346.8
12474.2
12625.9
12805.8
13018.9
13270.8
13568
13918.5
14331.6
14818.7
15393.5
16072.9
16877.4
17830.8
18959
28987.7
20825.7
16793.2
15275.9
14442.9
13836.1
13414.8
13133.4
12936.8
12790
12675.3
12583.2
12507
12442.6
12387.1
12338.6
12295.9
12258
12224.5
12194.9
12169.2
12147.2
12129.2
12115.3
12105.8
12101.2
12102
12108.9
12122.8
12144.6
12175.5
12216.8
12270.3
12337.8
12421.5
12524.1
12648.6
12798.6
12978.4
13192.8
13447.8
13750.2
14108.5
14532.8
15035.8
15633.7
16348.3
17210.3
18266.6
19599.4
-20417.2
-15802
-14230.9
-10272.7
-8305.53
-4887.53
-2785.52
270.133
2375.61
5184.85
7216.23
9860.3
11759.5
14307.6
16015.6
18539.3
19971.9
22556.1
23557.4
26191.3
-20347.1
-15744
-14181.8
-10224.8
-8263.58
-4843.19
-2745.96
312.805
2414.81
5227.16
7256
9903.59
11801.1
14354
16061.8
18593.4
20029.8
22629.8
23645.9
26319.4
-20285.3
-15684
-14130.5
-10173.7
-8218.29
-4795.99
-2703.04
358.431
2457.32
5272.77
7299.43
9950.72
11847.2
14404.9
16113.6
18652.3
20093.3
22704.9
23731.7
26423.6
-20227.9
-15624.6
-14078
-10120.6
-8170.62
-4746.37
-2657.49
406.64
2502.53
5321.13
7345.77
10000.8
11896.4
14458.9
16168.5
18713.4
20158.2
22777.9
23810.7
26511.2
-20172.6
-15565.9
-14025
-10066.1
-8121.2
-4694.79
-2609.84
457.014
2549.98
5371.76
7394.42
10053.2
11947.9
14514.8
16225
18775.1
20222.5
22847.8
23883.4
26589.3
-20118.4
-15507.7
-13971.5
-10010.7
-8070.46
-4641.67
-2560.5
509.143
2599.22
5424.16
7444.82
10107.2
12000.9
14571.7
16282.1
18836.5
20285.1
22914.6
23951.2
26661.1
-20064.7
-15449.6
-13917.7
-9954.64
-8018.69
-4587.33
-2509.82
562.658
2649.88
5477.92
7496.52
10162.3
12054.7
14629.1
16339.3
18897.2
20346.2
22978.9
24015.4
26728.6
-20011.2
-15391.4
-13863.5
-9897.95
-7966.12
-4532.05
-2458.11
617.245
2701.6
5532.67
7549.13
10218
12109.1
14686.7
16396.2
18957.1
20405.6
23041
24076.7
26793
-19957.6
-15333.2
-13809
-9840.77
-7912.91
-4476.03
-2405.6
672.641
2754.12
5588.13
7602.35
10274.2
12163.6
14744.1
16452.6
19016.1
20463.6
23101.3
24135.9
26855
-19903.8
-15274.7
-13754.2
-9783.17
-7859.2
-4419.44
-2352.48
728.633
2807.21
5644.06
7655.94
10330.6
12218.2
14801.3
16508.4
19074.3
20520.4
23160.2
24193.3
26915.2
-19849.9
-15216
-13699.2
-9725.24
-7805.11
-4362.41
-2298.91
785.046
2860.69
5700.28
7709.75
10387
12272.7
14858.2
16563.6
19131.6
20576.2
23217.8
24249.4
26973.9
-19795.9
-15157.2
-13643.9
-9667.03
-7750.71
-4305.07
-2245.03
841.744
2914.42
5756.67
7763.63
10443.4
12326.9
14914.7
16618.3
19188.3
20631.1
23274.3
24304.2
27031.5
-19741.7
-15098.1
-13588.5
-9608.61
-7696.09
-4247.51
-2190.93
898.616
2968.3
5813.1
7817.5
10499.6
12381
14970.8
16672.5
19244.2
20685.1
23330
24358.2
27088.1
-19687.3
-15038.9
-13532.9
-9550.03
-7641.32
-4189.8
-2136.69
955.576
3022.23
5869.5
7871.3
10555.6
12434.7
15026.5
16726.1
19299.6
20738.5
23384.9
24411.3
27143.8
-19632.9
-14979.6
-13477.2
-9491.34
-7586.46
-4132
-2082.39
1012.55
3076.15
5925.82
7924.96
10611.4
12488.2
15081.8
16779.3
19354.5
20791.3
23439.1
24463.7
27198.9
-19578.4
-14920.2
-13421.5
-9432.59
-7531.55
-4074.19
-2028.08
1069.49
3130.02
5982.01
7978.47
10666.9
12541.4
15136.7
16832
19408.8
20843.5
23492.7
24515.5
27253.3
-19523.9
-14860.7
-13365.7
-9373.82
-7476.64
-4016.39
-1973.81
1126.35
3183.79
6038.03
8031.79
10722.2
12594.3
15191.3
16884.4
19462.7
20895.2
23545.9
24566.7
27307.2
-19469.3
-14801.3
-13310
-9315.07
-7421.77
-3958.65
-1919.6
1183.1
3237.44
6093.87
8084.91
10777.2
12646.8
15245.5
16936.4
19516.1
20946.4
23598.5
24617.4
27360.6
-19414.9
-14741.8
-13254.4
-9256.37
-7366.97
-3901
-1865.49
1239.7
3290.94
6149.49
8137.82
10832
12699.1
15299.4
16988
19569.2
20997.3
23650.7
24667.7
27413.6
-19360.4
-14682.5
-13198.8
-9197.74
-7312.27
-3843.46
-1811.51
1296.13
3344.28
6204.89
8190.5
10886.4
12751.1
15352.9
17039.2
19621.9
21047.7
23702.5
24717.6
27466.1
-19306.1
-14623.1
-13143.3
-9139.22
-7257.68
-3786.07
-1757.67
1352.38
3397.43
6260.06
8242.97
10940.5
12802.9
15406.2
17090.2
19674.2
21097.8
23754
24767.1
27518.3
-19251.9
-14563.9
-13087.9
-9080.83
-7203.24
-3728.84
-1704
1408.42
3450.39
6314.98
8295.2
10994.4
12854.3
15459.1
17140.8
19726.2
21147.6
23805
24816.2
27570.1
-19197.8
-14504.9
-13032.7
-9022.58
-7148.95
-3671.79
-1650.5
1464.25
3503.15
6369.65
8347.19
11048
12905.5
15511.6
17191.1
19777.8
21197
23855.8
24864.9
27621.6
-19143.9
-14445.9
-12977.7
-8964.5
-7094.84
-3614.93
-1597.18
1519.86
3555.7
6424.07
8398.96
11101.3
12956.5
15563.9
17241.1
19829.1
21246.1
23906.2
24913.4
27672.8
-19090.2
-14387.1
-12922.8
-8906.59
-7040.92
-3558.27
-1544.06
1575.24
3608.04
6478.22
8450.49
11154.3
13007.1
15615.9
17290.9
19880.2
21294.9
23956.3
24961.5
27723.7
-19036.7
-14328.5
-12868.2
-8848.88
-6987.19
-3501.83
-1491.15
1630.37
3660.17
6532.11
8501.78
11207.1
13057.5
15667.6
17340.4
19930.9
21343.4
24006.1
25009.4
27774.2
-18983.3
-14270.1
-12813.7
-8791.37
-6933.66
-3445.62
-1438.45
1685.25
3712.07
6585.74
8552.84
11259.5
13107.7
15719
17389.6
19981.3
21391.6
24055.6
25056.9
27824.6
-18930.2
-14211.9
-12759.5
-8734.08
-6880.36
-3389.64
-1385.96
1739.89
3763.74
6639.09
8603.66
11311.7
13157.6
15770.1
17438.5
20031.4
21439.6
24104.9
25104.1
27874.6
-18877.3
-14153.8
-12705.5
-8677.01
-6827.27
-3333.9
-1333.7
1794.26
3815.19
6692.16
8654.24
11363.6
13207.3
15820.9
17487.2
20081.3
21487.2
24153.8
25151.1
27924.3
-18824.7
-14096
-12651.7
-8620.16
-6774.42
-3278.41
-1281.67
1848.36
3866.41
6744.96
8704.59
11415.2
13256.7
15871.5
17535.6
20130.9
21534.7
24202.5
25197.8
27973.8
-18772.2
-14038.4
-12598.2
-8563.56
-6721.8
-3223.17
-1229.87
1902.2
3917.39
6797.48
8754.7
11466.5
13305.9
15921.7
17583.8
20180.2
21581.8
24251
25244.2
28023.1
-18720.1
-13981.1
-12544.9
-8507.2
-6669.41
-3168.19
-1178.3
1955.77
3968.14
6849.72
8804.57
11517.6
13354.8
15971.7
17631.7
20229.2
21628.7
24299.1
25290.3
28072.1
-18668.1
-13924
-12491.9
-8451.09
-6617.28
-3113.47
-1126.97
2009.06
4018.66
6901.68
8854.2
11568.3
13403.5
16021.4
17679.3
20277.9
21675.3
24347
25336.2
28120.8
-18616.5
-13867.1
-12439.1
-8395.23
-6565.38
-3059.03
-1075.88
2062.08
4068.94
6953.35
8903.6
11618.8
13451.9
16070.8
17726.7
20326.4
21721.7
24394.6
25381.8
28169.2
-18565.1
-13810.4
-12386.6
-8339.64
-6513.74
-3004.85
-1025.03
2114.81
4118.98
7004.73
8952.76
11668.9
13500.1
16119.9
17773.9
20374.5
21767.8
24442
25427.1
28217.5
-18514
-13754.1
-12334.4
-8284.3
-6462.35
-2950.95
-974.423
2167.25
4168.78
7055.82
9001.68
11718.8
13548.1
16168.7
17820.8
20422.5
21813.6
24489
25472.2
28265.4
-18463.1
-13697.9
-12282.4
-8229.24
-6411.22
-2897.33
-924.064
2219.41
4218.34
7106.62
9050.36
11768.4
13595.8
16217.2
17867.4
20470.1
21859.2
24535.9
25517
28313.1
-18412.5
-13642.1
-12230.7
-8174.44
-6360.34
-2843.99
-873.951
2271.28
4267.66
7157.12
9098.8
11817.7
13643.2
16265.5
17913.9
20517.5
21904.5
24582.4
25561.6
28360.6
-18362.3
-13586.4
-12179.2
-8119.92
-6309.73
-2790.93
-824.087
2322.85
4316.74
7207.33
9147
11866.7
13690.5
16313.5
17960
20564.5
21949.6
24628.7
25605.8
28407.8
-18312.2
-13531.1
-12128.1
-8065.67
-6259.37
-2738.17
-774.472
2374.13
4365.58
7257.24
9194.96
11915.4
13737.5
16361.2
18005.9
20611.3
21994.4
24674.8
25649.8
28454.8
-18262.5
-13476
-12077.2
-8011.7
-6209.28
-2685.69
-725.108
2425.11
4414.17
7306.85
9242.68
11963.8
13784.2
16408.5
18051.6
20657.9
22039
24720.6
25693.6
28501.5
-18213.1
-13421.2
-12026.6
-7958.02
-6159.45
-2633.51
-675.995
2475.79
4462.52
7356.16
9290.16
12011.9
13830.7
16455.7
18097
20704.1
22083.3
24766.1
25737.1
28547.9
-18163.9
-13366.7
-11976.3
-7904.62
-6109.89
-2581.62
-627.135
2526.16
4510.63
7405.16
9337.4
12059.7
13877
16502.5
18142.2
20750.1
22127.4
24811.3
25780.3
28594.1
-18115
-13312.4
-11926.2
-7851.5
-6060.59
-2530.03
-578.527
2576.24
4558.49
7453.85
9384.4
12107.2
13923
16549
18187.1
20795.8
22171.2
24856.3
25823.3
28640.1
-18066.5
-13258.4
-11876.5
-7798.67
-6011.56
-2478.74
-530.173
2626
4606.11
7502.24
9431.16
12154.4
13968.8
16595.2
18231.8
20841.2
22214.7
24901.1
25866
28685.8
-18018.2
-13204.7
-11827
-7746.14
-5962.8
-2427.75
-482.073
2675.46
4653.48
7550.31
9477.68
12201.3
14014.3
16641.1
18276.2
20886.4
22258
24945.5
25908.4
28731.2
-17970.2
-13151.2
-11777.9
-7693.9
-5914.31
-2377.07
-434.227
2724.6
4700.61
7598.07
9523.96
12247.9
14059.6
16686.8
18320.4
20931.2
22301.1
24989.7
25950.5
28776.5
-17922.5
-13098.1
-11729
-7641.95
-5866.09
-2326.69
-386.637
2773.43
4747.5
7645.52
9569.99
12294.2
14104.6
16732.1
18364.4
20975.8
22343.8
25033.6
25992.4
28821.4
-17875.1
-13045.2
-11680.4
-7590.3
-5818.14
-2276.62
-339.301
2821.94
4794.13
7692.65
9615.78
12340.2
14149.4
16777.1
18408
21020.1
22386.4
25077.3
26034.1
28866.1
-17828
-12992.6
-11632.1
-7538.95
-5770.46
-2226.87
-292.221
2870.14
4840.52
7739.47
9661.34
12385.8
14194
16821.9
18451.5
21064.1
22428.6
25120.7
26075.4
28910.5
-17781.2
-12940.3
-11584
-7487.9
-5723.05
-2177.42
-245.396
2918.02
4886.67
7785.96
9706.64
12431.2
14238.3
16866.3
18494.7
21107.8
22470.6
25163.8
26116.5
28954.7
-17734.7
-12888.3
-11536.3
-7437.15
-5675.91
-2128.29
-198.827
2965.57
4932.57
7832.13
9751.71
12476.2
14282.4
16910.4
18537.6
21151.2
22512.4
25206.7
26157.3
28998.6
-17688.5
-12836.6
-11488.9
-7386.71
-5629.04
-2079.48
-152.514
3012.8
4978.23
7877.98
9796.54
12520.9
14326.2
16954.3
18580.3
21194.3
22553.9
25249.3
26197.9
29042.3
-17642.6
-12785.1
-11441.7
-7336.57
-5582.45
-2030.99
-106.457
3059.7
5023.64
7923.5
9841.12
12565.3
14369.8
16997.8
18622.7
21237.2
22595.1
25291.6
26238.1
29085.7
-17597
-12734
-11394.9
-7286.74
-5536.13
-1982.81
-60.6553
3106.28
5068.8
7968.69
9885.46
12609.4
14413.1
17041
18664.9
21279.7
22636.1
25333.6
26278.1
29128.8
-17551.7
-12683.1
-11348.3
-7237.22
-5490.08
-1934.97
-15.1095
3152.53
5113.72
8013.55
9929.56
12653.1
14456.2
17083.9
18706.8
21322
22676.8
25375.4
26317.9
29171.7
-17506.7
-12632.5
-11302.1
-7188.01
-5444.3
-1887.44
30.1806
3198.44
5158.39
8058.08
9973.42
12696.5
14499.1
17126.5
18748.5
21364
22717.2
25416.9
26357.3
29214.3
-17462
-12582.3
-11256.1
-7139.11
-5398.8
-1840.24
75.2153
3244.02
5202.82
8102.28
10017
12739.6
14541.7
17168.8
18789.9
21405.7
22757.4
25458.1
26396.5
29256.7
-17417.7
-12532.3
-11210.4
-7090.53
-5353.56
-1793.38
119.995
3289.26
5247
8146.14
10060.4
12782.4
14584.1
17210.7
18831.1
21447
22797.3
25499
26435.4
29298.8
-17373.6
-12482.6
-11165.1
-7042.26
-5308.6
-1746.84
164.52
3334.17
5290.94
8189.67
10103.5
12824.8
14626.2
17252.4
18872
21488.1
22837
25539.7
26474
29340.6
-17329.8
-12433.2
-11120
-6994.32
-5263.92
-1700.63
208.79
3378.73
5334.63
8232.85
10146.4
12866.9
14668
17293.7
18912.7
21528.9
22876.3
25580.1
26512.4
29382.2
-17286.3
-12384.2
-11075.2
-6946.69
-5219.5
-1654.76
252.806
3422.96
5378.09
8275.7
10189.1
12908.7
14709.7
17334.8
18953.1
21569.4
22915.5
25620.2
26550.5
29423.5
-17243.2
-12335.4
-11030.7
-6899.38
-5175.36
-1609.23
296.569
3466.84
5421.29
8318.2
10231.5
12950.2
14751
17375.5
18993.2
21609.6
22954.3
25660
26588.3
29464.6
-17200.3
-12286.9
-10986.5
-6852.4
-5131.49
-1564.04
340.078
3510.37
5464.26
8360.36
10273.7
12991.3
14792.2
17415.9
19033.1
21649.5
22992.9
25699.5
26625.8
29505.4
-17157.8
-12238.7
-10942.6
-6805.74
-5087.88
-1519.18
383.335
3553.55
5506.98
8402.17
10315.6
13032.1
14833.1
17455.9
19072.8
21689.1
23031.3
25738.8
26663
29545.9
-17115.6
-12190.9
-10899
-6759.4
-5044.55
-1474.67
426.339
3596.39
5549.46
8443.63
10357.3
13072.5
14873.7
17495.7
19112.2
21728.4
23069.3
25777.8
26700
29586.1
-17073.6
-12143.3
-10855.7
-6713.4
-5001.49
-1430.5
469.092
3638.87
5591.69
8484.75
10398.7
13112.6
14914.1
17535.1
19151.3
21767.3
23107.1
25816.5
26736.7
29626.1
-17032
-12096
-10812.7
-6667.73
-4958.7
-1386.68
511.594
3681
5633.69
8525.51
10439.9
13152.4
14954.3
17574.2
19190.2
21806
23144.6
25854.9
26773.1
29665.8
-16990.7
-12049.1
-10770
-6622.38
-4916.18
-1343.21
553.845
3722.77
5675.45
8565.91
10480.9
13191.8
14994.2
17612.9
19228.8
21844.4
23181.9
25893
26809.2
29705.2
-16949.7
-12002.4
-10727.6
-6577.37
-4873.93
-1300.1
595.847
3764.18
5716.96
8605.97
10521.6
13230.8
15033.8
17651.4
19267.2
21882.5
23218.9
25930.9
26845
29744.4
-16909
-11956.1
-10685.4
-6532.7
-4831.94
-1257.33
637.601
3805.24
5758.24
8645.66
10562.1
13269.6
15073.3
17689.5
19305.3
21920.2
23255.6
25968.4
26880.6
29783.3
-16868.6
-11910.1
-10643.6
-6488.36
-4790.22
-1214.92
679.108
3845.93
5799.28
8685
10602.4
13307.9
15112.4
17727.3
19343.2
21957.7
23292.1
26005.7
26915.9
29821.9
-16828.5
-11864.3
-10602.1
-6444.36
-4748.77
-1172.86
720.367
3886.26
5840.08
8723.97
10642.4
13346
15151.4
17764.7
19380.8
21994.8
23328.3
26042.7
26950.9
29860.3
-16788.7
-11818.9
-10560.8
-6400.7
-4707.58
-1131.17
761.382
3926.22
5880.65
8762.59
10682.2
13383.7
15190.1
17801.9
19418.1
22031.7
23364.2
26079.4
26985.6
29898.4
-16749.3
-11773.8
-10519.9
-6357.39
-4666.66
-1089.83
802.151
3965.81
5920.98
8800.84
10721.7
13421
15228.5
17838.7
19455.2
22068.2
23399.9
26115.8
27020
29936.2
-16710.1
-11729.1
-10479.2
-6314.42
-4626
-1048.86
842.677
4005.03
5961.07
8838.72
10761
13458
15266.7
17875.1
19492.1
22104.4
23435.3
26152
27054.1
29973.7
-16671.3
-11684.6
-10438.9
-6271.79
-4585.6
-1008.26
882.961
4043.88
6000.93
8876.24
10800.1
13494.6
15304.7
17911.2
19528.7
22140.3
23470.4
26187.8
27088
30011
-16632.7
-11640.5
-10398.8
-6229.51
-4545.46
-968.025
923.004
4082.35
6040.56
8913.39
10839
13530.9
15342.4
17947
19565
22175.9
23505.2
26223.3
27121.5
30048
-16594.5
-11596.6
-10359
-6187.59
-4505.58
-928.16
962.807
4120.45
6079.95
8950.16
10877.6
13566.8
15379.9
17982.5
19601.1
22211.1
23539.8
26258.6
27154.8
30084.7
-16556.5
-11553.1
-10319.5
-6146.01
-4465.95
-888.667
1002.37
4158.17
6119.11
8986.57
10915.9
13602.3
15417.1
18017.6
19636.9
22246.1
23574.1
26293.6
27187.8
30121.2
-16518.9
-11510
-10280.3
-6104.79
-4426.59
-849.549
1041.7
4195.51
6158.05
9022.6
10954.1
13637.5
15454.1
18052.4
19672.5
22280.8
23608.2
26328.2
27220.5
30157.3
-16481.6
-11467.1
-10241.4
-6063.93
-4387.47
-810.808
1080.79
4232.47
6196.75
9058.26
10992
13672.4
15490.8