/*--------------------------------*- C++ -*----------------------------------*\
  =========                 |
  \\      /  F ield         | OpenFOAM: The Open Source CFD Toolbox
   \\    /   O peration     | Website:  https://openfoam.org
    \\  /    A nd           | Version:  8
     \\/     M anipulation  |
\*---------------------------------------------------------------------------*/
FoamFile
{
    version     2.0;
    format      ascii;
    class       surfaceScalarField;
    location    "400";
    object      phi;
}
// * * * * * * * * * * * * * * * * * * * * * * * * * * * * * * * * * * * * * //

dimensions      [1 0 -1 0 0 0 0];

internalField   nonuniform List<scalar> 
16360
(
-1.36689
0.000239992
-1.36716
0.000267008
-1.36744
0.000277251
-1.36772
0.000281076
-1.368
0.000282129
-1.36828
0.00028168
-1.36856
0.000280228
-1.36884
0.000277987
-1.36912
0.000275023
-1.36939
0.000271348
-1.36965
0.000266925
-1.36992
0.000261687
-1.37017
0.000255542
-1.37042
0.000248379
-1.37066
0.000240041
-1.37089
0.00023037
-1.37111
0.000219164
-1.37132
0.000206181
-1.37151
0.000191141
-1.37168
0.000173706
-1.37183
0.000153478
-1.37196
0.000130034
-1.37207
0.000102879
-1.37214
7.13252e-05
-1.37217
3.45097e-05
-1.37216
-9.05806e-06
-1.3721
-6.17152e-05
-1.37198
-0.000124655
-1.37178
-0.000198277
-1.3715
-0.000283865
-1.37111
-0.000383137
-1.37061
-0.000498197
-1.36998
-0.000631544
-1.3692
-0.000786117
-1.36823
-0.000965369
-1.36706
-0.00117337
-1.36564
-0.00141497
-1.36395
-0.00169593
-1.36192
-0.00202326
-1.35952
-0.00240554
-1.35666
-0.00285349
-1.35328
-0.00338076
-1.34928
-0.00400495
-1.34453
-0.00474978
-1.33888
-0.00565021
-1.33212
-0.00676018
-1.32397
-0.00815122
-1.31408
-0.00988971
-1.30199
-0.0120852
-0.0153305
-1.28666
-1.56489
0.000512754
-1.56513
0.000510693
-1.56537
0.000509849
-1.5656
0.000511327
-1.56583
0.000511497
-1.56605
0.000510047
-1.56628
0.000507085
-1.56651
0.000502736
-1.56673
0.000497066
-1.56695
0.000490047
-1.56716
0.000481602
-1.56737
0.000471616
-1.56758
0.000459888
-1.56777
0.000446214
-1.56796
0.000430307
-1.56814
0.000411842
-1.56832
0.000390434
-1.56848
0.00036563
-1.56862
0.000336886
-1.56875
0.000303559
-1.56886
0.000264862
-1.56895
0.000219982
-1.56902
0.000168146
-1.56905
0.000108052
-1.56906
3.81423e-05
-1.56902
-4.34543e-05
-1.56895
-0.000138483
-1.56882
-0.000248719
-1.56864
-0.000376612
-1.5684
-0.00052486
-1.56809
-0.000696604
-1.56769
-0.000895511
-1.5672
-0.00112585
-1.56659
-0.00139261
-1.56586
-0.00170158
-1.56497
-0.00205959
-1.56391
-0.00247462
-1.56265
-0.00295609
-1.56116
-0.00351526
-1.5594
-0.00416566
-1.55733
-0.00492381
-1.5549
-0.00581009
-1.55205
-0.00685004
-1.54873
-0.00807693
-1.54484
-0.00953721
-1.5403
-0.0112965
-1.53502
-0.0134369
-1.52885
-0.0160564
-1.52158
-0.0193513
-0.0237814
-1.51313
-1.60429
0.000339407
-1.60418
0.000400331
-1.60409
0.000423175
-1.60401
0.000430014
-1.60393
0.000430459
-1.60385
0.000427515
-1.60376
0.000422246
-1.60367
0.00041502
-1.60358
0.000405923
-1.60349
0.00039493
-1.60339
0.000381901
-1.60328
0.000366636
-1.60317
0.000348888
-1.60305
0.000328308
-1.60293
0.000304504
-1.60279
0.000277002
-1.60265
0.000245245
-1.60249
0.000208594
-1.60232
0.000166263
-1.60214
0.000117325
-1.60193
6.06372e-05
-1.60171
-5.02889e-06
-1.60146
-8.1559e-05
-1.60118
-0.000170697
-1.60087
-0.00027405
-1.60051
-0.00039365
-1.60012
-0.000531968
-1.59968
-0.000692065
-1.59918
-0.000877438
-1.59861
-0.00109204
-1.59797
-0.00134046
-1.59723
-0.00162799
-1.5964
-0.0019608
-1.59545
-0.00234609
-1.59435
-0.00279218
-1.59311
-0.00330882
-1.59167
-0.0039074
-1.59003
-0.00460131
-1.58814
-0.00540637
-1.58596
-0.00634135
-1.58346
-0.0074288
-1.58057
-0.0086959
-1.57724
-0.0101758
-1.57341
-0.0119102
-1.569
-0.013953
-1.56392
-0.0163737
-1.5581
-0.019254
-1.55146
-0.0226932
-1.54395
-0.0268673
-0.0321307
-1.5356
-1.64923
0.000494904
-1.64926
0.000430197
-1.64924
0.000407593
-1.64921
0.000400214
-1.64918
0.000395504
-1.64914
0.000390078
-1.6491
0.000382961
-1.64906
0.000373861
-1.64901
0.000362622
-1.64897
0.000349083
-1.64892
0.000333057
-1.64887
0.000314259
-1.64881
0.000292349
-1.64875
0.000266913
-1.64868
0.000237432
-1.64861
0.000203289
-1.64853
0.000163791
-1.64844
0.000118173
-1.64834
6.53937e-05
-1.64822
4.33274e-06
-1.6481
-6.61731e-05
-1.64795
-0.000147614
-1.64779
-0.000241742
-1.64761
-0.00035044
-1.64741
-0.000476224
-1.64718
-0.000621783
-1.64693
-0.000790242
-1.64663
-0.000985287
-1.6463
-0.00121115
-1.64592
-0.00147268
-1.64548
-0.00177549
-1.64498
-0.00212606
-1.64441
-0.00253192
-1.64376
-0.00300177
-1.643
-0.00354573
-1.64214
-0.00417553
-1.64114
-0.00490486
-1.63999
-0.00574967
-1.63867
-0.00672867
-1.63715
-0.00786385
-1.63539
-0.00918118
-1.63338
-0.0107115
-1.63106
-0.0124917
-1.62841
-0.0145667
-1.62537
-0.0169919
-1.62191
-0.0198342
-1.61799
-0.0231704
-1.61359
-0.0270931
-1.60872
-0.0317408
-0.0373087
-1.60354
-1.63422
0.000167943
-1.63404
0.000249814
-1.63391
0.000277676
-1.6338
0.000283336
-1.63368
0.000281109
-1.63357
0.000274981
-1.63345
0.000266118
-1.63333
0.00025479
-1.63321
0.000240984
-1.63309
0.000224521
-1.63296
0.000205152
-1.63283
0.000182549
-1.63269
0.000156306
-1.63255
0.000125906
-1.6324
9.0749e-05
-1.63225
5.00846e-05
-1.63209
3.09917e-06
-1.63192
-5.12941e-05
-1.63174
-0.000114268
-1.63155
-0.000187054
-1.63134
-0.000271176
-1.63112
-0.000368556
-1.63088
-0.000481177
-1.63062
-0.000611388
-1.63034
-0.000761989
-1.63002
-0.000936202
-1.62967
-0.00113776
-1.62929
-0.00137098
-1.62886
-0.00164088
-1.62838
-0.00195321
-1.62784
-0.00231463
-1.62723
-0.00273284
-1.62655
-0.00321674
-1.62577
-0.0037766
-1.62489
-0.00442435
-1.6239
-0.00517374
-1.62276
-0.00604072
-1.62147
-0.00704379
-1.61999
-0.00820442
-1.61831
-0.00954758
-1.61638
-0.0111023
-1.61419
-0.0129026
-1.6117
-0.014988
-1.60886
-0.0174055
-1.60564
-0.0202104
-1.60201
-0.0234673
-1.59793
-0.0272486
-1.59338
-0.0316386
-1.58838
-0.036742
-0.0426913
-1.583
-1.64917
0.000378067
-1.6492
0.000281325
-1.64916
0.000245081
-1.64911
0.000230949
-1.64905
0.000221754
-1.64899
0.000212544
-1.64893
0.000201707
-1.64886
0.000188623
-1.64879
0.000172954
-1.64872
0.0001544
-1.64865
0.000132633
-1.64857
0.000107249
-1.64849
7.779e-05
-1.64841
4.36439e-05
-1.64833
4.12852e-06
-1.64823
-4.14976e-05
-1.64814
-9.41886e-05
-1.64803
-0.000155077
-1.64792
-0.000225369
-1.6478
-0.000306606
-1.64767
-0.000400532
-1.64753
-0.000509175
-1.64738
-0.000634832
-1.64721
-0.000780184
-1.64702
-0.000948363
-1.64682
-0.00114298
-1.64659
-0.00136824
-1.64633
-0.00162896
-1.64604
-0.00193077
-1.64571
-0.0022801
-1.64534
-0.00268441
-1.64492
-0.00315232
-1.64445
-0.00369375
-1.6439
-0.0043202
-1.64328
-0.00504488
-1.64257
-0.00588307
-1.64176
-0.00685236
-1.64083
-0.00797304
-1.63977
-0.00926846
-1.63855
-0.0107655
-1.63716
-0.012495
-1.63557
-0.0144924
-1.63376
-0.0167982
-1.6317
-0.0194588
-1.62939
-0.0225269
-1.62679
-0.0260612
-1.62392
-0.0301258
-1.62076
-0.03479
-1.61738
-0.0401305
-0.0462299
-1.61384
-1.6405
-4.6759e-06
-1.64031
9.23834e-05
-1.64019
0.000123285
-1.64009
0.000127679
-1.63999
0.00012303
-1.63989
0.000114107
-1.63979
0.000102224
-1.63969
8.76325e-05
-1.63959
7.02003e-05
-1.63948
4.96716e-05
-1.63938
2.56872e-05
-1.63927
-2.18208e-06
-1.63916
-3.45145e-05
-1.63904
-7.19374e-05
-1.63892
-0.00011517
-1.6388
-0.00016511
-1.63867
-0.000222847
-1.63853
-0.000289567
-1.63839
-0.000366654
-1.63824
-0.000455748
-1.63809
-0.000558753
-1.63792
-0.000677864
-1.63774
-0.000815616
-1.63754
-0.000974954
-1.63733
-0.00115929
-1.6371
-0.00137259
-1.63685
-0.00161944
-1.63657
-0.00190514
-1.63627
-0.00223581
-1.63593
-0.00261851
-1.63555
-0.00306139
-1.63513
-0.00357388
-1.63466
-0.00416684
-1.63413
-0.00485279
-1.63352
-0.00564615
-1.63284
-0.00656352
-1.63207
-0.00762398
-1.6312
-0.00884943
-1.6302
-0.010265
-1.62907
-0.0118993
-1.62778
-0.013785
-1.62631
-0.015959
-1.62464
-0.0184632
-1.62276
-0.0213442
-1.62063
-0.0246536
-1.61825
-0.0284474
-1.61559
-0.0327845
-1.61265
-0.0377248
-1.60946
-0.043327
-0.0496502
-1.60604
-1.64653
0.000239856
-1.64657
0.000129763
-1.64653
8.72353e-05
-1.64648
6.92979e-05
-1.64641
5.70191e-05
-1.64634
4.49141e-05
-1.64627
3.1149e-05
-1.6462
1.49998e-05
-1.64612
-3.96509e-06
-1.64605
-2.61157e-05
-1.64597
-5.18727e-05
-1.64589
-8.17483e-05
-1.64581
-0.000116304
-1.64572
-0.0001562
-1.64564
-0.000202248
-1.64555
-0.000255399
-1.64545
-0.000316772
-1.64536
-0.000387648
-1.64525
-0.000469509
-1.64514
-0.000564096
-1.64503
-0.000673426
-1.64491
-0.000799827
-1.64478
-0.000945991
-1.64464
-0.00111505
-1.64449
-0.00131063
-1.64432
-0.00153694
-1.64414
-0.00179883
-1.64395
-0.00210194
-1.64373
-0.00245275
-1.64349
-0.00285875
-1.64322
-0.00332858
-1.64292
-0.00387223
-1.64259
-0.00450119
-1.64221
-0.00522871
-1.64179
-0.00607003
-1.64131
-0.00704265
-1.64077
-0.00816664
-1.64015
-0.00946496
-1.63945
-0.0109638
-1.63866
-0.012693
-1.63776
-0.014686
-1.63674
-0.0169808
-1.63558
-0.0196193
-1.63428
-0.0226479
-1.63281
-0.0261168
-1.63118
-0.0300791
-1.62938
-0.0345893
-1.6274
-0.0396999
-1.62527
-0.0454584
-0.0519102
-1.62301
-1.64275
-0.000158132
-1.64257
-5.64335e-05
-1.64246
-2.53516e-05
-1.64236
-2.23991e-05
-1.64228
-2.90035e-05
-1.64219
-4.00537e-05
-1.64211
-5.41403e-05
-1.64202
-7.1024e-05
-1.64194
-9.0853e-05
-1.64185
-0.000113949
-1.64176
-0.00014074
-1.64167
-0.000171724
-1.64158
-0.000207503
-1.64148
-0.000248774
-1.64139
-0.000296389
-1.64129
-0.00035133
-1.6412
-0.000414747
-1.6411
-0.000487976
-1.64099
-0.000572569
-1.64089
-0.000670329
-1.64078
-0.000783343
-1.64066
-0.000914028
-1.64054
-0.00106519
-1.64042
-0.00124007
-1.64029
-0.00144246
-1.64015
-0.00167671
-1.64
-0.00194788
-1.63984
-0.00226182
-1.63967
-0.00262528
-1.63948
-0.00304603
-1.63927
-0.00353309
-1.63905
-0.00409682
-1.6388
-0.0047492
-1.63853
-0.005504
-1.63822
-0.00637708
-1.63787
-0.00738661
-1.63749
-0.00855345
-1.63705
-0.00990143
-1.63656
-0.0114577
-1.636
-0.0132529
-1.63536
-0.0153218
-1.63464
-0.0177031
-1.63382
-0.0204396
-1.63289
-0.0235781
-1.63184
-0.0271687
-1.63065
-0.0312639
-1.62933
-0.0359163
-1.62785
-0.0411752
-1.62623
-0.0470834
-0.0536797
-1.62446
-1.64397
9.40567e-05
-1.64401
-1.83379e-05
-1.64397
-6.27983e-05
-1.64391
-8.26878e-05
-1.64384
-9.6909e-05
-1.64377
-0.000110934
-1.6437
-0.000126579
-1.64363
-0.000144592
-1.64355
-0.000165422
-1.64348
-0.000189484
-1.6434
-0.000217243
-1.64332
-0.000249215
-1.64324
-0.000286025
-1.64316
-0.000328394
-1.64308
-0.000377178
-1.643
-0.00043338
-1.64292
-0.000498169
-1.64283
-0.000572907
-1.64275
-0.000659173
-1.64266
-0.000758796
-1.64257
-0.000873894
-1.64247
-0.00100693
-1.64238
-0.00116074
-1.64228
-0.00133864
-1.64218
-0.00154445
-1.64207
-0.0017826
-1.64196
-0.00205823
-1.64185
-0.00237728
-1.64172
-0.00274659
-1.6416
-0.00317407
-1.64146
-0.00366888
-1.64132
-0.00424157
-1.64116
-0.00490431
-1.64099
-0.00567113
-1.64081
-0.00655818
-1.64062
-0.00758399
-1.6404
-0.00876986
-1.64016
-0.0101401
-1.6399
-0.0117225
-1.6396
-0.0135484
-1.63927
-0.0156534
-1.63889
-0.0180772
-1.63847
-0.0208636
-1.63799
-0.0240606
-1.63744
-0.0277196
-1.63681
-0.0318943
-1.63608
-0.0366386
-1.63526
-0.0420028
-1.63431
-0.0480303
-0.0547568
-1.63323
-1.64394
-0.000292451
-1.64376
-0.000193753
-1.64366
-0.000164834
-1.64358
-0.000163592
-1.64351
-0.000171707
-1.64343
-0.000184119
-1.64336
-0.000199423
-1.64329
-0.000217392
-1.64322
-0.000238184
-1.64314
-0.000262135
-1.64307
-0.000289666
-1.643
-0.000321307
-1.64293
-0.000357667
-1.64286
-0.000399471
-1.64278
-0.000447564
-1.64272
-0.000502944
-1.64265
-0.000566768
-1.64258
-0.000640386
-1.64251
-0.000725363
-1.64245
-0.000823515
-1.64239
-0.000936949
-1.64232
-0.0010681
-1.64227
-0.00121978
-1.64221
-0.00139529
-1.64215
-0.00159841
-1.6421
-0.00183357
-1.64206
-0.00210585
-1.64201
-0.00242115
-1.64197
-0.00278628
-1.64194
-0.00320912
-1.64191
-0.00369878
-1.64188
-0.00426576
-1.64187
-0.00492222
-1.64185
-0.00568215
-1.64185
-0.00656168
-1.64186
-0.00757939
-1.64187
-0.00875661
-1.64189
-0.0101178
-1.64192
-0.0116909
-1.64196
-0.0135077
-1.64201
-0.0156041
-1.64207
-0.0180207
-1.64213
-0.0208024
-1.64219
-0.0239987
-1.64225
-0.0276627
-1.64229
-0.0318507
-1.64231
-0.0366196
-1.64229
-0.0420238
-1.64221
-0.0481102
-0.0549198
-1.64205
-1.64086
-5.16766e-05
-1.64089
-0.000159551
-1.64086
-0.000203257
-1.6408
-0.000223871
-1.64073
-0.000239114
-1.64066
-0.000254078
-1.64059
-0.000270474
-1.64052
-0.000288989
-1.64044
-0.000310073
-1.64037
-0.000334132
-1.6403
-0.000361621
-1.64023
-0.000393055
-1.64016
-0.000429039
-1.64009
-0.00047029
-1.64002
-0.000517633
-1.63995
-0.000572038
-1.63988
-0.000634639
-1.63981
-0.000706753
-1.63975
-0.000789909
-1.63969
-0.000885877
-1.63963
-0.000996708
-1.63957
-0.00112478
-1.63952
-0.00127285
-1.63947
-0.00144411
-1.63942
-0.00164228
-1.63939
-0.00187165
-1.63935
-0.00213719
-1.63933
-0.00244466
-1.63932
-0.00280073
-1.63931
-0.00321309
-1.63932
-0.00369064
-1.63934
-0.00424369
-1.63938
-0.00488415
-1.63944
-0.00562579
-1.63951
-0.00648451
-1.63961
-0.00747864
-1.63974
-0.00862936
-1.6399
-0.00996102
-1.64009
-0.0115016
-1.64031
-0.0132832
-1.64057
-0.0153425
-1.64087
-0.0177208
-1.64121
-0.0204653
-1.64158
-0.023628
-1.64198
-0.0272663
-1.64239
-0.0314422
-1.64279
-0.0362202
-1.64314
-0.0416654
-1.64342
-0.0478377
-0.0547816
-1.64356
-1.64497
-0.000404259
-1.64481
-0.00031548
-1.64472
-0.000291095
-1.64465
-0.000291996
-1.64459
-0.000301337
-1.64453
-0.000314436
-1.64447
-0.000330007
-1.64441
-0.000347855
-1.64436
-0.000368143
-1.6443
-0.000391186
-1.64424
-0.0004174
-1.64419
-0.000447272
-1.64414
-0.00048138
-1.64409
-0.000520389
-1.64404
-0.000565088
-1.64399
-0.000616396
-1.64395
-0.000675381
-1.64392
-0.000743287
-1.64389
-0.000821555
-1.64386
-0.000911857
-1.64384
-0.00101613
-1.64383
-0.00113662
-1.64383
-0.00127592
-1.64383
-0.00143706
-1.64385
-0.00162354
-1.64388
-0.00183941
-1.64393
-0.00208939
-1.644
-0.0023789
-1.64408
-0.00271425
-1.64419
-0.00310273
-1.64433
-0.00355278
-1.6445
-0.00407418
-1.64471
-0.00467827
-1.64495
-0.00537816
-1.64525
-0.00618904
-1.6456
-0.00712853
-1.64601
-0.00821701
-1.6465
-0.00947808
-1.64706
-0.0109391
-1.64771
-0.0126315
-1.64846
-0.0145918
-1.64932
-0.0168617
-1.6503
-0.0194892
-1.65139
-0.0225287
-1.65262
-0.0260413
-1.65397
-0.0300942
-1.65543
-0.0347603
-1.65698
-0.0401164
-1.65858
-0.0462375
-0.0531901
-1.66017
-1.63589
-0.000196433
-1.63591
-0.000293344
-1.63586
-0.000334051
-1.6358
-0.000354605
-1.63573
-0.000370238
-1.63566
-0.000385378
-1.63559
-0.000401523
-1.63552
-0.000419309
-1.63545
-0.000439155
-1.63538
-0.000461447
-1.63531
-0.000486589
-1.63524
-0.000515052
-1.63517
-0.000547376
-1.63511
-0.000584188
-1.63505
-0.000626222
-1.63499
-0.000674333
-1.63494
-0.000729515
-1.63489
-0.000792921
-1.63484
-0.000865897
-1.63481
-0.000950003
-1.63477
-0.00104704
-1.63475
-0.00115911
-1.63474
-0.00128863
-1.63474
-0.00143842
-1.63475
-0.00161174
-1.63478
-0.0018124
-1.63482
-0.00204478
-1.63489
-0.00231397
-1.63497
-0.00262586
-1.63509
-0.0029873
-1.63524
-0.00340619
-1.63542
-0.00389173
-1.63564
-0.0044546
-1.63591
-0.00510718
-1.63624
-0.00586389
-1.63663
-0.00674148
-1.63708
-0.00775947
-1.63762
-0.00894061
-1.63825
-0.0103115
-1.63898
-0.011903
-1.63982
-0.0137515
-1.64078
-0.0158993
-1.64187
-0.018396
-1.6431
-0.0212994
-1.64447
-0.0246767
-1.64596
-0.0286041
-1.64755
-0.0331681
-1.6492
-0.038469
-1.65082
-0.0446169
-0.051701
-1.65231
-1.64643
-0.000482702
-1.64631
-0.000413811
-1.64625
-0.000397804
-1.6462
-0.000401854
-1.64616
-0.000412257
-1.64612
-0.000425307
-1.64608
-0.000440064
-1.64604
-0.000456444
-1.64601
-0.00047464
-1.64597
-0.000494946
-1.64594
-0.000517723
-1.64591
-0.000543392
-1.64589
-0.000572435
-1.64587
-0.000605415
-1.64585
-0.000642984
-1.64584
-0.000685897
-1.64583
-0.00073504
-1.64583
-0.000791444
-1.64584
-0.000856298
-1.64586
-0.000930982
-1.64589
-0.0010171
-1.64593
-0.0011165
-1.64599
-0.00123135
-1.64607
-0.00136412
-1.64616
-0.00151773
-1.64628
-0.00169552
-1.64642
-0.00190138
-1.64659
-0.00213982
-1.6468
-0.00241607
-1.64706
-0.00273617
-1.64735
-0.00310717
-1.64771
-0.00353722
-1.64813
-0.00403583
-1.64862
-0.00461407
-1.6492
-0.00528481
-1.64988
-0.00606313
-1.65067
-0.00696667
-1.6516
-0.00801614
-1.65267
-0.00923595
-1.65392
-0.0106549
-1.65536
-0.0123073
-1.65703
-0.0142337
-1.65894
-0.0164829
-1.66113
-0.0191138
-1.66361
-0.0221971
-1.6664
-0.0258158
-1.6695
-0.0300673
-1.67289
-0.0350718
-1.67653
-0.0409777
-0.0479386
-1.6803
-1.62401
-0.000337753
-1.62401
-0.000419257
-1.62395
-0.000455145
-1.62388
-0.000474973
-1.6238
-0.000490296
-1.62372
-0.000504708
-1.62364
-0.000519505
-1.62356
-0.000535293
-1.62348
-0.000552451
-1.62341
-0.000571314
-1.62333
-0.000592224
-1.62326
-0.000615544
-1.62319
-0.000641695
-1.62313
-0.000671168
-1.62306
-0.000704519
-1.62301
-0.000742403
-1.62296
-0.000785588
-1.62291
-0.000834959
-1.62288
-0.000891547
-1.62285
-0.000956553
-1.62284
-0.00103137
-1.62284
-0.00111761
-1.62285
-0.00121715
-1.62288
-0.00133215
-1.62294
-0.00146514
-1.62301
-0.00161904
-1.62312
-0.00179726
-1.62325
-0.00200372
-1.62343
-0.002243
-1.62364
-0.0025204
-1.62391
-0.0028421
-1.62423
-0.00321527
-1.62462
-0.00364832
-1.62508
-0.00415103
-1.62563
-0.00473487
-1.62628
-0.00541333
-1.62704
-0.00620231
-1.62794
-0.00712065
-1.62898
-0.00819083
-1.6302
-0.00943976
-1.63161
-0.0108999
-1.63323
-0.0126108
-1.63509
-0.0146209
-1.63721
-0.0169908
-1.63962
-0.0197966
-1.6423
-0.0231313
-1.64526
-0.0271059
-1.64846
-0.031868
-1.6518
-0.0376382
-0.0446724
-1.65507
-1.64165
-0.000487711
-1.64161
-0.000453791
-1.64162
-0.000450319
-1.64163
-0.000457398
-1.64166
-0.000467261
-1.64168
-0.000478129
-1.64171
-0.000489724
-1.64175
-0.00050215
-1.64178
-0.000515623
-1.64182
-0.000530392
-1.64187
-0.000546723
-1.64192
-0.000564922
-1.64198
-0.000585329
-1.64204
-0.00060833
-1.64211
-0.000634376
-1.64219
-0.000663993
-1.64228
-0.000697788
-1.64237
-0.000736469
-1.64248
-0.000780859
-1.64261
-0.000831912
-1.64275
-0.000890726
-1.64291
-0.000958577
-1.64309
-0.00103695
-1.64329
-0.00112755
-1.64353
-0.00123239
-1.64379
-0.00135376
-1.64409
-0.00149435
-1.64444
-0.00165727
-1.64484
-0.00184611
-1.64529
-0.00206508
-1.64582
-0.00231904
-1.64642
-0.00261369
-1.64711
-0.00295566
-1.64791
-0.00335272
-1.64883
-0.003814
-1.64989
-0.00435027
-1.65112
-0.00497428
-1.65254
-0.00570125
-1.65418
-0.00654944
-1.65608
-0.00754099
-1.65828
-0.00870302
-1.66082
-0.010069
-1.66376
-0.0116807
-1.66716
-0.0135924
-1.67108
-0.0158756
-1.67559
-0.0186229
-1.68075
-0.0219466
-1.68661
-0.0259997
-1.69319
-0.0310626
-0.0375991
-1.70026
-1.56383
-0.000395881
-1.56382
-0.000469982
-1.56377
-0.000495866
-1.56372
-0.000510301
-1.56366
-0.000521194
-1.56361
-0.000531178
-1.56356
-0.000541161
-1.56351
-0.000551549
-1.56346
-0.000562598
-1.56342
-0.000574512
-1.56338
-0.000587495
-1.56334
-0.000601767
-1.56331
-0.000617569
-1.56328
-0.000635175
-1.56326
-0.00065491
-1.56325
-0.000677148
-1.56324
-0.000702323
-1.56325
-0.000730939
-1.56327
-0.000763589
-1.5633
-0.000800952
-1.56335
-0.000843816
-1.56341
-0.0008931
-1.5635
-0.000949864
-1.56361
-0.00101534
-1.56375
-0.00109097
-1.56393
-0.0011784
-1.56414
-0.00127957
-1.5644
-0.00139669
-1.56472
-0.00153238
-1.56509
-0.00168965
-1.56554
-0.00187201
-1.56607
-0.00208355
-1.5667
-0.00232908
-1.56743
-0.00261422
-1.5683
-0.0029456
-1.56932
-0.00333105
-1.57052
-0.00377993
-1.57191
-0.00430345
-1.57355
-0.00491523
-1.57546
-0.00563204
-1.57768
-0.0064748
-1.58028
-0.00747001
-1.58331
-0.0086518
-1.58684
-0.0100661
-1.59094
-0.0117787
-1.59568
-0.0138832
-1.60112
-0.0164993
-1.60734
-0.019783
-1.61434
-0.0240643
-0.0300908
-1.62185
-1.52217
-0.000111122
-1.52258
-6.04022e-05
-1.52302
-5.18366e-05
-1.52348
-5.12823e-05
-1.52395
-5.30655e-05
-1.52443
-5.55044e-05
-1.52491
-5.82365e-05
-1.5254
-6.12487e-05
-1.5259
-6.46139e-05
-1.5264
-6.8426e-05
-1.52692
-7.27964e-05
-1.52744
-7.78454e-05
-1.52798
-8.37012e-05
-1.52852
-9.05133e-05
-1.52908
-9.84575e-05
-1.52965
-0.000107734
-1.53023
-0.000118573
-1.53083
-0.00013124
-1.53145
-0.000146045
-1.53209
-0.000163341
-1.53275
-0.000183543
-1.53343
-0.000207125
-1.53415
-0.000234643
-1.5349
-0.000266738
-1.53568
-0.000304149
-1.53651
-0.000347742
-1.53739
-0.000398518
-1.53833
-0.000457636
-1.53934
-0.000526453
-1.54042
-0.000606543
-1.54159
-0.000699745
-1.54287
-0.00080821
-1.54426
-0.000934464
-1.5458
-0.00108148
-1.54749
-0.00125279
-1.54937
-0.00145259
-1.55146
-0.00168593
-1.55381
-0.00195893
-1.55644
-0.00227915
-1.55942
-0.00265603
-1.56279
-0.00310163
-1.56663
-0.00363167
-1.57102
-0.00426698
-1.57605
-0.00503657
-1.58184
-0.00598426
-1.58854
-0.00717797
-1.59634
-0.00870853
-1.60545
-0.0106716
-1.61626
-0.013252
-0.01726
-1.62909
-1.22615
-1.22621
-1.22626
-1.22631
-1.22637
-1.22642
-1.22648
-1.22654
-1.22661
-1.22668
-1.22675
-1.22683
-1.22691
-1.227
-1.2271
-1.22721
-1.22732
-1.22746
-1.2276
-1.22777
-1.22795
-1.22816
-1.22839
-1.22866
-1.22896
-1.22931
-1.22971
-1.23017
-1.23069
-1.2313
-1.232
-1.23281
-1.23374
-1.23482
-1.23608
-1.23753
-1.23921
-1.24117
-1.24345
-1.24611
-1.24921
-1.25284
-1.25711
-1.26214
-1.26813
-1.27531
-1.28402
-1.29469
-1.30794
-1.3252
1.62587
-0.0342492
1.638
-0.0121345
1.64684
-0.00883958
1.65127
-0.0044262
1.65284
-0.0015746
1.65294
-9.91188e-05
1.65225
0.000692701
1.65109
0.00116128
1.64964
0.00144749
1.64802
0.00161977
1.6463
0.00172103
1.64452
0.0017783
1.64271
0.00180765
1.64089
0.00181856
1.63908
0.00181687
1.63727
0.0018063
1.63548
0.00178923
1.63371
0.00176722
1.63197
0.00174123
1.63026
0.00171185
1.62858
0.00167938
1.62694
0.00164393
1.62533
0.00160541
1.62377
0.0015636
1.62225
0.00151815
1.62078
0.00146859
1.61937
0.00141427
1.61801
0.00135437
1.61673
0.00128792
1.61551
0.00121387
1.61438
0.00113102
1.61334
0.0010379
1.61241
0.000932905
1.6116
0.000812743
1.61092
0.000674965
1.61041
0.000516437
1.61007
0.000333472
1.60995
0.000121917
1.61007
-0.000123897
1.61049
-0.000412173
1.61124
-0.00075313
1.6124
-0.00115955
1.61405
-0.00164869
1.61629
-0.00224505
1.61928
-0.00298536
1.62321
-0.00392846
1.62838
-0.00517627
1.6353
-0.0069212
1.64487
-0.00956262
-0.0139726
1.65884
1.57532
-0.0179533
1.5719
-0.00871241
1.5662
-0.00314169
1.56319
-0.00141544
1.56174
-0.000121416
1.56096
0.000679824
1.56059
0.0010569
1.56052
0.00123069
1.56066
0.00131365
1.56093
0.00134736
1.5613
0.00135276
1.56173
0.0013428
1.56222
0.00132479
1.56273
0.00130238
1.56327
0.00127733
1.56383
0.0012504
1.5644
0.00122187
1.56497
0.00119163
1.56555
0.00115939
1.56614
0.00112469
1.56673
0.00108695
1.56733
0.00104548
1.56794
0.000999456
1.56855
0.000947931
1.56918
0.000889819
1.56983
0.000823876
1.57049
0.00074861
1.57118
0.000662099
1.57191
0.000562018
1.57268
0.000446273
1.5735
0.000312482
1.57438
0.000157054
1.57533
-2.42035e-05
1.57638
-0.000235752
1.57754
-0.000482692
1.57883
-0.000771376
1.58027
-0.00110951
1.5819
-0.00150644
1.58375
-0.00197438
1.58587
-0.00252828
1.5883
-0.00318623
1.59111
-0.00397208
1.59438
-0.00491743
1.5982
-0.00606553
1.60269
-0.00747758
1.60801
-0.00924359
1.61433
-0.011501
1.62188
-0.0144664
1.63081
-0.0184888
-0.0241166
1.64095
1.57763
-0.00396682
1.573
-0.00408398
1.57217
-0.00230619
1.57223
-0.00147691
1.57309
-0.000985548
1.57428
-0.000504722
1.57545
-0.000120032
1.57653
0.000155477
1.57749
0.000357111
1.57833
0.000507394
1.57906
0.00061809
1.57971
0.000698103
1.58028
0.000754593
1.58078
0.000792817
1.58125
0.000816473
1.58167
0.000828151
1.58206
0.000829632
1.58243
0.00082207
1.58278
0.000806119
1.58313
0.000782031
1.58346
0.000749714
1.5838
0.000708766
1.58414
0.000658488
1.58449
0.000597886
1.58485
0.000525758
1.58524
0.000440667
1.58565
0.000340859
1.58608
0.000223684
1.58656
8.59694e-05
1.58708
-7.55981e-05
1.58766
-0.000264999
1.5883
-0.000486966
1.58903
-0.000747143
1.58984
-0.00105109
1.59077
-0.00140696
1.59182
-0.00182409
1.59302
-0.00231368
1.59441
-0.00288935
1.596
-0.00356788
1.59784
-0.00436977
1.59997
-0.00532031
1.60245
-0.00645162
1.60534
-0.00780523
1.60871
-0.0094358
1.61265
-0.0114169
1.61726
-0.0138495
1.62263
-0.0168747
1.62886
-0.0206904
1.63594
-0.0255712
-0.0318751
1.6437
1.59001
-0.00235602
1.58927
-0.00334322
1.58952
-0.00256422
1.58974
-0.00169077
1.5898
-0.00104492
1.58979
-0.000496828
1.58972
-4.87356e-05
1.58959
0.00028038
1.58944
0.000509264
1.58928
0.000665794
1.58913
0.000769676
1.58899
0.000834589
1.58888
0.000870784
1.58879
0.000885768
1.58872
0.000884763
1.58867
0.000871266
1.58866
0.000847532
1.58866
0.000814898
1.5887
0.000773998
1.58875
0.000724924
1.58883
0.000667324
1.58894
0.000600443
1.58908
0.000523127
1.58924
0.000433715
1.58944
0.000330464
1.58967
0.000211444
1.58993
7.3875e-05
1.59024
-8.53059e-05
1.5906
-0.000269577
1.59101
-0.000483546
1.59147
-0.000732826
1.59201
-0.00102338
1.59263
-0.00136227
1.59333
-0.00175763
1.59414
-0.00221956
1.59508
-0.00275998
1.59616
-0.00339308
1.59741
-0.00413589
1.59885
-0.00500898
1.60052
-0.00603734
1.60245
-0.00725147
1.60468
-0.00868914
1.60728
-0.0103976
1.61028
-0.0124368
1.61374
-0.0148834
1.61773
-0.0178361
1.62228
-0.0214219
1.62739
-0.0258022
1.63299
-0.0311735
-0.0377526
1.63887
1.59022
-0.000962853
1.58845
-0.00156458
1.58719
-0.00131312
1.58635
-0.000846868
1.58579
-0.000487184
1.5855
-0.000208196
1.58543
2.10786e-05
1.58552
0.000197377
1.5857
0.000323846
1.58596
0.000412095
1.58625
0.0004721
1.58658
0.000510405
1.58692
0.000531639
1.58726
0.000539226
1.58761
0.000535545
1.58796
0.000522103
1.58831
0.000499734
1.58866
0.000468745
1.589
0.000429011
1.58935
0.000380046
1.58969
0.000321061
1.59004
0.000250932
1.5904
0.000168269
1.59076
7.08531e-05
1.59113
-4.35344e-05
1.59152
-0.000177662
1.59193
-0.000334828
1.59236
-0.000518516
1.59283
-0.000732854
1.59333
-0.000983276
1.59387
-0.00127605
1.59447
-0.00161836
1.59512
-0.00201863
1.59585
-0.00248676
1.59667
-0.00303452
1.59758
-0.00367586
1.59862
-0.00442731
1.59979
-0.00530854
1.60112
-0.00634305
1.60264
-0.00755899
1.60438
-0.00899023
1.60637
-0.0106777
1.60865
-0.0126714
1.61124
-0.015032
1.61419
-0.0178342
1.61752
-0.0211687
1.62125
-0.0251447
1.62534
-0.0298907
1.62971
-0.0355494
-0.0422647
1.63422
1.59117
-0.000510647
1.59055
-0.000953353
1.59023
-0.000991402
1.5902
-0.000809771
1.5903
-0.000594947
1.59049
-0.000390752
1.5907
-0.000198391
1.59093
-2.86502e-05
1.59114
0.000109967
1.59134
0.000217349
1.59151
0.000297196
1.59167
0.000353347
1.59181
0.000389188
1.59195
0.000407682
1.59207
0.000411246
1.59219
0.000401664
1.59231
0.000380113
1.59243
0.000347206
1.59256
0.000303066
1.59269
0.000247331
1.59283
0.000179383
1.59298
9.80651e-05
1.59315
1.8401e-06
1.59333
-0.000111128
1.59353
-0.000243429
1.59375
-0.000398332
1.594
-0.000579351
1.59427
-0.000790599
1.59457
-0.00103699
1.59492
-0.00132449
1.5953
-0.0016601
1.59573
-0.00205198
1.59622
-0.00250969
1.59678
-0.00304442
1.59742
-0.00366937
1.59814
-0.00440012
1.59897
-0.005255
1.59992
-0.00625565
1.601
-0.00742763
1.60224
-0.00880119
1.60366
-0.0104121
1.60529
-0.0123027
1.60714
-0.0145233
1.60924
-0.0171333
1.61161
-0.0202022
1.61425
-0.0238112
1.61716
-0.0280522
1.6203
-0.0330259
1.62358
-0.0388348
-0.0455712
1.62689
1.59137
-0.000263416
1.59094
-0.000521053
1.59052
-0.000578374
1.5902
-0.000484867
1.58995
-0.00034085
1.58975
-0.000197217
1.58962
-6.68393e-05
1.58955
4.38205e-05
1.58953
0.000130263
1.58955
0.000192428
1.58962
0.000233193
1.58971
0.000255901
1.58984
0.00026341
1.58999
0.00025801
1.59016
0.000241413
1.59035
0.000214747
1.59055
0.000178588
1.59076
0.000132961
1.59099
7.74898e-05
1.59122
1.1364e-05
1.59147
-6.66495e-05
1.59173
-0.000158132
1.59199
-0.000265172
1.59227
-0.000389885
1.59256
-0.000535252
1.59287
-0.000704787
1.59319
-0.000902509
1.59354
-0.00113312
1.5939
-0.00140214
1.59429
-0.0017161
1.59472
-0.00208265
1.59517
-0.00251072
1.59567
-0.00301073
1.59623
-0.00359489
1.59683
-0.0042775
1.59751
-0.0050753
1.59826
-0.0060079
1.5991
-0.0070983
1.60005
-0.00837334
1.60111
-0.00986445
1.60231
-0.0116083
1.60365
-0.0136474
1.60516
-0.0160312
1.60684
-0.0188164
1.60871
-0.0220674
1.61075
-0.025856
1.61296
-0.0302602
1.6153
-0.0353609
1.6177
-0.0412367
-0.0479567
1.62009
1.59149
-0.000139563
1.59126
-0.000289952
1.59103
-0.000348086
1.59087
-0.000323267
1.59079
-0.00025926
1.59078
-0.00018737
1.59083
-0.000118753
1.59093
-5.76862e-05
1.59107
-7.43961e-06
1.59123
3.0437e-05
1.59141
5.61394e-05
1.59159
7.05408e-05
1.59178
7.44878e-05
1.59197
6.86319e-05
1.59216
5.33962e-05
1.59235
2.89347e-05
1.59253
-4.89139e-06
1.59271
-4.8514e-05
1.59289
-0.000102678
1.59307
-0.000168396
1.59325
-0.000247155
1.59343
-0.000340709
1.59362
-0.000451179
1.59381
-0.000581043
1.59401
-0.000733365
1.59422
-0.000911789
1.59443
-0.00112057
1.59467
-0.00136469
1.59491
-0.00165
1.59518
-0.00198334
1.59547
-0.00237277
1.59579
-0.0028277
1.59614
-0.00335911
1.59652
-0.00397982
1.59695
-0.00470483
1.59743
-0.00555161
1.59796
-0.00654055
1.59856
-0.00769537
1.59923
-0.00904361
1.59998
-0.0106171
1.60082
-0.0124527
1.60177
-0.0145925
1.60282
-0.0170843
1.60399
-0.019982
1.60526
-0.0233451
1.60665
-0.0272379
1.60811
-0.0317276
1.60963
-0.0368807
1.61115
-0.0427581
-0.0494083
1.61261
1.59154
-6.2486e-05
1.59138
-0.000133374
1.5912
-0.000166794
1.59104
-0.00016258
1.59092
-0.000136941
1.59084
-0.000104918
1.59079
-7.38759e-05
1.59078
-4.71689e-05
1.5908
-2.71191e-05
1.59085
-1.50981e-05
1.59091
-1.14504e-05
1.591
-1.5969e-05
1.5911
-2.83451e-05
1.59122
-4.83589e-05
1.59135
-7.59526e-05
1.59149
-0.000111286
1.59164
-0.000154773
1.5918
-0.000207056
1.59197
-0.00026909
1.59214
-0.000342126
1.59232
-0.000427766
1.59251
-0.000527938
1.5927
-0.000644947
1.5929
-0.000781514
1.59311
-0.000940877
1.59332
-0.00112685
1.59355
-0.00134391
1.59378
-0.00159726
1.59402
-0.00189301
1.59428
-0.00223827
1.59455
-0.00264138
1.59483
-0.00311206
1.59513
-0.00366162
1.59546
-0.00430327
1.5958
-0.00505236
1.59618
-0.00592676
1.59659
-0.00694719
1.59703
-0.00813767
1.59751
-0.00952591
1.59804
-0.0111438
1.59861
-0.0130277
1.59924
-0.0152189
1.59992
-0.0177637
1.60065
-0.0207135
1.60143
-0.0241239
1.60224
-0.0280537
1.60308
-0.0325632
1.60391
-0.0377104
1.6047
-0.0435472
-0.0501166
1.60541
1.59156
-5.03091e-06
1.59144
-1.2525e-05
1.59129
-2.03028e-05
1.59116