/*--------------------------------*- C++ -*----------------------------------*\
  =========                 |
  \\      /  F ield         | OpenFOAM: The Open Source CFD Toolbox
   \\    /   O peration     | Website:  https://openfoam.org
    \\  /    A nd           | Version:  8
     \\/     M anipulation  |
\*---------------------------------------------------------------------------*/
FoamFile
{
    version     2.0;
    format      ascii;
    class       volScalarField;
    location    "400";
    object      T;
}
// * * * * * * * * * * * * * * * * * * * * * * * * * * * * * * * * * * * * * //

dimensions      [0 0 0 1 0 0 0];

internalField   nonuniform List<scalar> 
8400
(
294.517
294.611
294.709
294.81
294.914
295.02
295.13
295.242
295.356
295.473
295.593
295.715
295.839
295.966
296.094
296.225
296.357
296.491
296.626
296.762
296.9
297.039
297.179
297.319
297.46
297.602
297.743
297.884
298.026
298.167
298.307
298.446
298.585
298.722
298.859
298.993
299.127
299.258
299.387
299.515
299.64
299.763
299.883
300.001
300.115
300.227
300.336
300.442
300.544
300.643
294.916
295.012
295.111
295.213
295.317
295.425
295.535
295.647
295.763
295.881
296.001
296.124
296.249
296.376
296.505
296.636
296.768
296.903
297.038
297.175
297.314
297.453
297.593
297.733
297.874
298.015
298.157
298.298
298.439
298.58
298.72
298.859
298.997
299.134
299.27
299.405
299.537
299.668
299.797
299.924
300.049
300.171
300.291
300.409
300.523
300.635
300.744
300.849
300.952
301.051
295.098
295.195
295.295
295.397
295.503
295.612
295.723
295.837
295.953
296.072
296.193
296.317
296.442
296.57
296.7
296.832
296.965
297.1
297.236
297.373
297.512
297.651
297.791
297.932
298.073
298.214
298.356
298.497
298.638
298.778
298.918
299.057
299.195
299.332
299.467
299.601
299.734
299.864
299.993
300.12
300.244
300.366
300.486
300.603
300.717
300.829
300.938
301.044
301.147
301.247
295.148
295.245
295.346
295.45
295.556
295.665
295.777
295.891
296.008
296.128
296.25
296.374
296.5
296.628
296.758
296.89
297.024
297.159
297.295
297.433
297.572
297.711
297.852
297.993
298.134
298.275
298.417
298.558
298.699
298.839
298.979
299.118
299.256
299.393
299.528
299.662
299.794
299.925
300.053
300.18
300.304
300.426
300.545
300.662
300.777
300.888
300.997
301.103
301.207
301.307
295.158
295.256
295.357
295.461
295.568
295.677
295.789
295.903
296.021
296.14
296.262
296.386
296.513
296.641
296.771
296.903
297.037
297.172
297.309
297.447
297.585
297.725
297.865
298.006
298.148
298.289
298.431
298.572
298.713
298.853
298.993
299.132
299.27
299.407
299.542
299.676
299.808
299.939
300.067
300.194
300.318
300.44
300.559
300.676
300.791
300.903
301.012
301.118
301.222
301.322
295.165
295.263
295.364
295.468
295.575
295.684
295.796
295.911
296.028
296.148
296.27
296.394
296.521
296.649
296.779
296.912
297.045
297.181
297.317
297.455
297.594
297.733
297.874
298.015
298.156
298.297
298.439
298.58
298.721
298.862
299.001
299.14
299.278
299.415
299.55
299.684
299.816
299.947
300.075
300.201
300.326
300.448
300.567
300.684
300.799
300.91
301.02
301.126
301.229
301.33
295.167
295.265
295.366
295.47
295.577
295.686
295.798
295.913
296.03
296.15
296.272
296.396
296.523
296.651
296.781
296.914
297.047
297.183
297.319
297.457
297.596
297.736
297.876
298.017
298.158
298.3
298.441
298.582
298.723
298.864
299.003
299.142
299.28
299.417
299.552
299.686
299.818
299.949
300.077
300.204
300.328
300.45
300.569
300.686
300.801
300.913
301.022
301.128
301.232
301.333
295.17
295.268
295.369
295.473
295.58
295.689
295.801
295.916
296.033
296.153
296.275
296.4
296.526
296.655
296.785
296.917
297.051
297.186
297.323
297.461
297.6
297.739
297.88
298.021
298.162
298.303
298.445
298.586
298.727
298.867
299.007
299.146
299.284
299.421
299.556
299.69
299.822
299.952
300.081
300.207
300.331
300.453
300.573
300.69
300.805
300.916
301.026
301.132
301.236
301.337
295.17
295.269
295.37
295.474
295.581
295.69
295.802
295.917
296.034
296.154
296.276
296.401
296.527
296.656
296.786
296.918
297.052
297.187
297.324
297.462
297.601
297.741
297.881
298.022
298.163
298.305
298.446
298.587
298.728
298.869
299.009
299.148
299.285
299.422
299.557
299.691
299.824
299.954
300.082
300.209
300.333
300.455
300.575
300.692
300.806
300.918
301.028
301.134
301.238
301.339
295.17
295.268
295.369
295.473
295.58
295.689
295.801
295.916
296.033
296.153
296.275
296.4
296.526
296.655
296.785
296.917
297.051
297.187
297.323
297.461
297.6
297.74
297.88
298.021
298.163
298.304
298.446
298.587
298.728
298.868
299.008
299.147
299.285
299.422
299.557
299.691
299.823
299.954
300.082
300.209
300.333
300.455
300.575
300.692
300.807
300.919
301.028
301.135
301.239
301.34
295.166
295.264
295.365
295.469
295.576
295.685
295.798
295.912
296.03
296.149
296.271
296.396
296.522
296.651
296.781
296.913
297.047
297.182
297.319
297.457
297.596
297.736
297.876
298.017
298.158
298.3
298.442
298.583
298.724
298.865
299.005
299.144
299.282
299.418
299.554
299.688
299.82
299.951
300.079
300.206
300.33
300.453
300.572
300.69
300.805
300.917
301.026
301.133
301.237
301.338
295.161
295.259
295.36
295.463
295.57
295.679
295.791
295.906
296.023
296.143
296.264
296.389
296.515
296.644
296.774
296.906
297.04
297.175
297.312
297.45
297.589
297.728
297.869
298.01
298.151
298.293
298.434
298.576
298.717
298.858
298.998
299.137
299.275
299.412
299.547
299.682
299.814
299.945
300.073
300.2
300.325
300.447
300.567
300.684
300.799
300.912
301.021
301.128
301.232
301.333
295.156
295.253
295.354
295.458
295.564
295.673
295.785
295.9
296.017
296.136
296.258
296.382
296.509
296.637
296.767
296.9
297.033
297.169
297.305
297.443
297.582
297.722
297.862
298.003
298.145
298.286
298.428
298.57
298.711
298.852
298.992
299.131
299.269
299.406
299.542
299.676
299.808
299.939
300.068
300.195
300.32
300.442
300.562
300.68
300.795
300.907
301.017
301.124
301.228
301.329
295.148
295.246
295.347
295.45
295.556
295.665
295.777
295.891
296.008
296.128
296.25
296.374
296.5
296.628
296.758
296.89
297.024
297.159
297.296
297.434
297.573
297.712
297.853
297.994
298.136
298.277
298.419
298.561
298.702
298.843
298.983
299.122
299.26
299.397
299.533
299.668
299.8
299.931
300.06
300.187
300.312
300.434
300.555
300.672
300.787
300.9
301.01
301.117
301.221
301.323
295.142
295.24
295.34
295.444
295.55
295.659
295.771
295.885
296.002
296.121
296.243
296.367
296.493
296.621
296.751
296.883
297.017
297.152
297.289
297.426
297.565
297.705
297.846
297.987
298.128
298.27
298.412
298.553
298.695
298.836
298.976
299.115
299.254
299.391
299.527
299.661
299.794
299.925
300.054
300.181
300.306
300.429
300.549
300.667
300.782
300.895
301.004
301.112
301.216
301.318
295.129
295.226
295.326
295.429
295.535
295.643
295.755
295.869
295.985
296.104
296.226
296.35
296.476
296.604
296.734
296.865
296.999
297.134
297.27
297.408
297.547
297.687
297.827
297.968
298.11
298.252
298.394
298.535
298.677
298.818
298.958
299.097
299.236
299.373
299.509
299.644
299.777
299.908
300.038
300.165
300.29
300.413
300.534
300.652
300.767
300.88
300.99
301.098
301.203
301.305
295.105
295.202
295.302
295.404
295.51
295.618
295.729
295.843
295.959
296.078
296.199
296.322
296.448
296.576
296.705
296.837
296.97
297.105
297.242
297.379
297.518
297.657
297.798
297.939
298.08
298.222
298.364
298.506
298.647
298.788
298.929
299.068
299.207
299.345
299.481
299.616
299.749
299.881
300.01
300.138
300.263
300.387
300.507
300.626
300.742
300.855
300.966
301.074
301.18
301.283
295.031
295.127
295.226
295.328
295.432
295.539
295.65
295.762
295.878
295.996
296.116
296.239
296.364
296.491
296.62
296.751
296.884
297.018
297.154
297.291
297.43
297.569
297.709
297.85
297.992
298.133
298.275
298.417
298.559
298.7
298.84
298.98
299.119
299.257
299.394
299.529
299.663
299.795
299.925
300.054
300.18
300.304
300.426
300.545
300.662
300.777
300.889
300.998
301.105
301.21
294.867
294.962
295.06
295.16
295.264
295.371
295.48
295.592
295.707
295.824
295.944
296.066
296.19
296.317
296.445
296.576
296.708
296.842
296.977
297.114
297.252
297.391
297.531
297.672
297.813
297.955
298.097
298.238
298.38
298.521
298.662
298.802
298.941
299.079
299.216
299.352
299.486
299.618
299.749
299.877
300.004
300.128
300.25
300.37
300.487
300.602
300.714
300.824
300.932
301.037
294.525
294.62
294.718
294.819
294.923
295.03
295.14
295.252
295.367
295.485
295.605
295.727
295.852
295.979
296.108
296.239
296.372
296.507
296.643
296.78
296.919
297.059
297.199
297.341
297.483
297.625
297.767
297.91
298.052
298.194
298.335
298.476
298.615
298.754
298.891
299.027
299.162
299.294
299.425
299.554
299.681
299.805
299.927
300.046
300.163
300.277
300.388
300.497
300.602
300.704
303.15
303.15
303.147
303.143
303.139
303.136
303.132
303.129
303.125
303.122
303.119
303.116
303.112
303.109
303.106
303.103
303.1
303.097
303.094
303.091
303.088
303.085
303.082
303.079
303.076
303.074
303.071
303.068
303.066
303.063
303.06
303.058
303.055
303.053
303.05
303.048
303.045
303.043
303.04
303.038
303.036
303.033
303.031
303.029
303.027
303.025
303.023
303.021
303.02
303.019
303.15
303.15
303.149
303.149
303.149
303.149
303.149
303.149
303.149
303.148
303.148
303.148
303.148
303.147
303.147
303.147
303.147
303.146
303.146
303.146
303.145
303.145
303.145
303.144
303.144
303.143
303.143
303.143
303.142
303.142
303.141
303.141
303.141
303.14
303.14
303.139
303.139
303.139
303.138
303.138
303.138
303.137
303.137
303.136
303.136
303.136
303.135
303.135
303.135
303.135
303.15
303.15
303.15
303.15
303.15
303.15
303.15
303.15
303.15
303.15
303.15
303.15
303.15
303.15
303.15
303.15
303.15
303.15
303.15
303.15
303.15
303.15
303.15
303.15
303.15
303.15
303.15
303.15
303.15
303.149
303.149
303.149
303.149
303.149
303.149
303.149
303.149
303.149
303.149
303.149
303.149
303.149
303.149
303.149
303.149
303.149
303.149
303.149
303.149
303.149
303.15
303.15
303.15
303.15
303.15
303.15
303.15
303.15
303.15
303.15
303.15
303.15
303.15
303.15
303.15
303.15
303.15
303.15
303.15
303.15
303.15
303.15
303.15
303.15
303.15
303.15
303.15
303.15
303.15
303.15
303.15
303.15
303.15
303.15
303.15
303.15
303.15
303.15
303.15
303.15
303.15
303.15
303.15
303.15
303.15
303.15
303.15
303.15
303.15
303.15
303.15
303.15
303.15
303.15
303.15
303.15
303.15
303.15
303.15
303.15
303.15
303.15
303.15
303.15
303.15
303.15
303.15
303.15
303.15
303.15
303.15
303.15
303.15
303.15
303.15
303.15
303.15
303.15
303.15
303.15
303.15
303.15
303.15
303.15
303.15
303.15
303.15
303.15
303.15
303.15
303.15
303.15
303.15
303.15
303.15
303.15
303.15
303.15
303.15
303.15
303.15
303.15
303.15
303.15
303.15
303.15
303.15
303.15
303.15
303.15
303.15
303.15
303.15
303.15
303.15
303.15
303.15
303.15
303.15
303.15
303.15
303.15
303.15
303.15
303.15
303.15
303.15
303.15
303.15
303.15
303.15
303.15
303.15
303.15
303.15
303.15
303.15
303.15
303.15
303.15
303.15
303.15
303.15
303.15
303.15
303.15
303.15
303.15
303.15
303.15
303.15
303.15
303.15
303.15
303.15
303.15
303.15
303.15
303.15
303.15
303.15
303.15
303.15
303.15
303.15
303.15
303.15
303.15
303.15
303.15
303.15
303.15
303.15
303.15
303.15
303.15
303.15
303.15
303.15
303.15
303.15
303.15
303.15
303.15
303.15
303.15
303.15
303.15
303.15
303.15
303.15
303.15
303.15
303.15
303.15
303.15
303.15
303.15
303.15
303.15
303.15
303.15
303.15
303.15
303.15
303.15
303.15
303.15
303.15
303.15
303.15
303.15
303.15
303.15
303.15
303.15
303.15
303.15
303.15
303.15
303.15
303.15
303.15
303.15
303.15
303.15
303.15
303.15
303.15
303.15
303.15
303.15
303.15
303.15
303.15
303.15
303.15
303.15
303.15
303.15
303.15
303.15
303.15
303.15
303.15
303.15
303.15
303.15
303.15
303.15
303.15
303.15
303.15
303.15
303.15
303.15
303.15
303.15
303.15
303.15
303.15
303.15
303.15
303.15
303.15
303.15
303.15
303.15
303.15
303.15
303.15
303.15
303.15
303.15
303.15
303.15
303.15
303.15
303.15
303.15
303.15
303.15
303.15
303.15
303.15
303.15
303.15
303.15
303.15
303.15
303.15
303.15
303.15
303.15
303.15
303.15
303.15
303.15
303.15
303.15
303.15
303.15
303.15
303.15
303.15
303.15
303.15
303.15
303.15
303.15
303.15
303.15
303.15
303.15
303.15
303.15
303.15
303.15
303.15
303.15
303.15
303.15
303.15
303.15
303.15
303.15
303.15
303.15
303.15
303.15
303.15
303.15
303.15
303.15
303.15
303.15
303.15
303.15
303.15
303.15
303.15
303.15
303.15
303.15
303.15
303.15
303.15
303.15
303.15
303.15
303.15
303.15
303.15
303.15
303.15
303.15
303.15
303.15
303.15
303.15
303.15
303.15
303.15
303.15
303.15
303.15
303.15
303.15
303.15
303.15
303.15
303.15
303.15
303.15
303.15
303.15
303.15
303.15
303.15
303.15
303.15
303.15
303.15
303.15
303.15
303.15
303.15
303.15
303.15
303.15
303.15
303.15
303.15
303.15
303.15
303.15
303.15
303.15
303.15
303.15
303.15
303.15
303.15
303.15
303.15
303.15
303.15
303.15
303.15
303.15
303.15
303.15
303.15
303.15
303.15
303.15
303.15
303.15
303.15
303.15
303.15
303.15
303.15
303.15
303.15
303.15
303.15
303.15
303.15
303.15
303.15
303.15
303.15
303.15
303.15
303.15
303.15
303.15
303.15
303.15
303.15
303.15
303.15
303.15
303.15
303.15
303.15
303.15
303.15
303.15
303.15
303.15
303.15
303.15
303.15
303.15
303.15
303.15
303.15
303.15
303.15
303.15
303.15
303.15
303.15
303.15
303.15
303.15
303.15
303.15
303.15
303.15
303.15
303.15
303.15
303.15
303.15
303.15
303.15
303.15
303.15
303.15
303.15
303.15
303.15
303.15
303.15
303.15
303.15
303.15
303.15
303.15
303.15
303.15
303.15
303.15
303.15
303.15
303.15
303.15
303.15
303.15
303.15
303.15
303.15
303.15
303.15
303.15
303.15
303.15
303.15
303.15
303.15
303.15
303.15
303.15
303.15
303.15
303.15
303.15
303.15
303.15
303.15
303.15
303.15
303.15
303.15
303.15
303.15
303.15
303.15
303.15
303.15
303.15
303.15
303.15
303.15
303.15
303.15
303.15
303.15
303.15
303.15
303.15
303.15
303.15
303.15
303.15
303.15
303.15
303.15
303.15
303.15
303.15
303.15
303.15
303.15
303.15
303.15
303.15
303.15
303.15
303.15
303.15
303.15
303.15
303.15
303.15
303.15
303.15
303.15
303.15
303.15
303.15
303.15
303.15
303.15
303.15
303.15
303.15
303.15
303.15
303.15
303.15
303.15
303.15
303.15
303.15
303.15
303.15
303.15
303.15
303.15
303.15
303.15
303.15
303.15
303.15
303.15
303.15
303.15
303.15
303.15
303.15
303.15
303.15
303.15
303.15
303.15
303.15
303.15
303.15
303.15
303.15
303.15
303.15
303.15
303.15
303.15
303.15
303.15
303.15
303.15
303.15
303.15
303.15
303.15
303.15
303.15
303.15
303.15
303.15
303.15
303.15
303.15
303.15
303.15
303.15
303.15
303.15
303.15
303.15
303.15
303.15
303.15
303.15
303.15
303.15
303.15
303.15
303.15
303.15
303.15
303.15
303.15
303.15
303.15
303.15
303.15
303.15
303.15
303.15
303.15
303.15
303.15
303.15
303.15
303.15
303.15
303.15
303.15
303.15
303.15
303.15
303.15
303.15
303.15
303.15
303.15
303.15
303.15
303.15
303.15
303.15
303.15
303.15
303.15
303.15
303.15
303.15
303.15
303.15
303.15
303.15
303.15
303.15
303.15
303.15
303.15
303.15
303.15
303.15
303.15
303.15
303.15
303.15
303.15
303.15
303.15
303.15
303.15
303.15
303.15
303.15
303.15
303.15
303.15
303.15
303.15
303.15
303.15
303.15
303.15
303.15
303.15
303.15
303.15
303.15
303.149
303.149
303.149
303.149
303.149
303.149
303.149
303.149
303.149
303.149
303.149
303.149
303.149
303.149
303.149
303.149
303.148
303.148
303.148
303.148
303.148
303.147
303.15
303.15
303.149
303.149
303.149
303.149
303.149
303.149
303.149
303.148
303.148
303.148
303.148
303.147
303.147
303.147
303.147
303.146
303.146
303.146
303.145
303.145
303.144
303.144
303.144
303.143
303.143
303.142
303.142
303.142
303.141
303.141
303.14
303.14
303.139
303.139
303.138
303.138
303.137
303.137
303.136
303.135
303.135
303.134
303.133
303.132
303.132
303.131
303.129
303.128
303.15
303.15
303.147
303.143
303.139
303.136
303.132
303.129
303.125
303.122
303.119
303.115
303.112
303.109
303.106
303.103
303.1
303.097
303.094
303.091
303.088
303.085
303.082
303.079
303.076
303.074
303.071
303.068
303.066
303.063
303.06
303.058
303.055
303.053
303.05
303.048
303.045
303.043
303.04
303.038
303.035
303.033
303.031
303.028
303.026
303.024
303.021
303.019
303.017
303.015
302.784
303.048
303.135
303.147
303.151
303.15
303.151
303.15
303.151
303.15
303.151
303.15
303.15
303.151
303.15
303.15
303.145
303.123
303.015
302.714
302.785
303.049
303.135
303.147
303.151
303.15
303.151
303.15
303.151
303.15
303.151
303.15
303.15
303.151
303.15
303.15
303.145
303.123
303.015
302.716
302.787
303.049
303.135
303.147
303.151
303.15
303.151
303.15
303.151
303.15
303.151
303.15
303.15
303.151
303.15
303.15
303.145
303.123
303.016
302.717
302.788
303.05
303.135
303.147
303.151
303.15
303.151
303.15
303.151
303.15
303.151
303.15
303.15
303.151
303.15
303.15
303.145
303.123
303.016
302.718
302.789
303.05
303.135
303.148
303.151
303.15
303.151
303.15
303.151
303.15
303.151
303.15
303.15
303.151
303.15
303.15
303.145
303.123
303.017
302.72
302.79
303.051
303.135
303.148
303.151
303.15
303.151
303.15
303.151
303.15
303.15
303.15
303.15
303.151
303.15
303.15
303.145
303.123
303.018
302.721
302.792
303.051
303.136
303.148
303.151
303.15
303.151
303.15
303.151
303.15
303.15
303.15
303.15
303.151
303.15
303.15
303.145
303.123
303.018
302.723
302.793
303.052
303.136
303.148
303.151
303.15
303.151
303.15
303.151
303.15
303.15
303.15
303.15
303.151
303.15
303.15
303.145
303.124
303.019
302.724
302.794
303.053
303.136
303.148
303.151
303.15
303.151
303.15
303.151
303.15
303.15
303.15
303.15
303.151
303.15
303.15
303.145
303.124
303.02
302.726
302.795
303.053
303.136
303.148
303.151
303.15
303.151
303.15
303.151
303.15
303.15
303.15
303.15
303.151
303.15
303.15
303.145
303.124
303.02
302.727
302.797
303.054
303.136
303.148
303.151
303.15
303.151
303.15
303.151
303.15
303.15
303.15
303.15
303.151
303.15
303.15
303.145
303.124
303.021
302.729
302.798
303.054
303.136
303.148
303.151
303.15
303.151
303.15
303.151
303.15
303.15
303.15
303.15
303.151
303.15
303.15
303.145
303.124
303.022
302.73
302.799
303.055
303.136
303.148
303.151
303.15
303.151
303.15
303.151
303.15
303.15
303.15
303.15
303.151
303.15
303.15
303.145
303.124
303.022
302.732
302.8
303.055
303.136
303.148
303.151
303.15
303.151
303.15
303.151
303.15
303.15
303.15
303.15
303.151
303.15
303.15
303.145
303.125
303.023
302.733
302.802
303.056
303.137
303.148
303.151
303.15
303.151
303.15
303.151
303.15
303.15
303.15
303.15
303.151
303.15
303.15
303.145
303.125
303.024
302.735
302.803
303.057
303.137
303.148
303.151
303.15
303.151
303.15
303.151
303.15
303.15
303.15
303.15
303.151
303.15
303.15
303.145
303.125
303.024
302.736
302.804
303.057
303.137
303.148
303.151
303.15
303.151
303.15
303.151
303.15
303.15
303.15
303.15
303.151
303.15
303.15
303.145
303.125
303.025
302.737
302.806
303.058
303.137
303.148
303.151
303.15
303.151
303.15
303.151
303.15
303.15
303.15
303.15
303.151
303.15
303.15
303.145
303.125
303.026
302.739
302.807
303.058
303.137
303.148
303.151
303.15
303.151
303.15
303.151
303.15
303.15
303.15
303.15
303.151
303.15
303.15
303.145
303.125
303.026
302.74
302.808
303.059
303.137
303.148
303.151
303.15
303.151
303.15
303.151
303.15
303.15
303.15
303.15
303.151
303.15
303.15
303.146
303.126
303.027
302.742
302.809
303.059
303.137
303.148
303.151
303.15
303.151
303.15
303.151
303.15
303.15
303.15
303.15
303.151
303.15
303.15
303.146
303.126
303.028
302.743
302.811
303.06
303.138
303.148
303.151
303.15
303.151
303.15
303.151
303.15
303.15
303.15
303.15
303.151
303.15
303.15
303.146
303.126
303.028
302.745
302.812
303.061
303.138
303.148
303.151
303.15
303.151
303.15
303.151
303.15
303.15
303.15
303.15
303.151
303.15
303.15
303.146
303.126
303.029
302.746
302.813
303.061
303.138
303.148
303.151
303.15
303.151
303.15
303.151
303.15
303.15
303.15
303.15
303.151
303.15
303.15
303.146
303.126
303.03
302.748
302.814
303.062
303.138
303.148
303.151
303.15
303.151
303.15
303.151
303.15
303.15
303.15
303.15
303.151
303.15
303.15
303.146
303.126
303.031
302.749
302.816
303.062
303.138
303.148
303.151
303.15
303.151
303.15
303.151
303.15
303.15
303.15
303.15
303.151
303.15
303.15
303.146
303.127
303.031
302.751
302.817
303.063
303.138
303.148
303.151
303.15
303.151
303.15
303.151
303.15
303.15
303.15
303.15
303.151
303.15
303.15
303.146
303.127
303.032
302.753
302.818
303.063
303.138
303.148
303.151
303.15
303.151
303.15
303.151
303.15
303.15
303.15
303.15
303.151
303.15
303.15
303.146
303.127
303.033
302.754
302.82
303.064
303.138
303.148
303.151
303.15
303.151
303.15
303.151
303.15
303.15
303.15
303.15
303.151
303.15
303.15
303.146
303.127
303.033
302.756
302.821
303.065
303.139
303.148
303.151
303.15
303.151
303.15
303.151
303.15
303.15
303.15
303.15
303.151
303.15
303.15
303.146
303.127
303.034
302.757
302.822
303.065
303.139
303.148
303.151
303.15
303.151
303.15
303.151
303.15
303.15
303.15
303.15
303.151
303.15
303.15
303.146
303.127
303.035
302.759
302.824
303.066
303.139
303.148
303.151
303.15
303.151
303.15
303.151
303.15
303.15
303.15
303.15
303.151
303.15
303.15
303.146
303.128
303.035
302.76
302.825
303.066
303.139
303.148
303.151
303.15
303.151
303.15
303.151
303.15
303.15
303.15
303.15
303.15
303.15
303.15
303.146
303.128
303.036
302.762
302.826
303.067
303.139
303.148
303.151
303.15
303.151
303.15
303.151
303.15
303.15
303.15
303.15
303.15
303.15
303.15
303.146
303.128
303.037
302.763
302.827
303.067
303.139
303.148
303.151
303.15
303.151
303.15
303.151
303.15
303.15
303.15
303.15
303.15
303.15
303.15
303.146
303.128
303.037
302.765
302.829
303.068
303.139
303.148
303.151
303.15
303.151
303.15
303.151
303.15
303.15
303.15
303.15
303.15
303.15
303.15
303.146
303.128
303.038
302.766
302.83
303.069
303.139
303.148
303.151
303.15
303.151
303.15
303.151
303.15
303.15
303.15
303.15
303.15
303.15
303.15
303.146
303.128
303.039
302.768
302.831
303.069
303.14
303.148
303.151
303.15
303.151
303.15
303.151
303.15
303.15
303.15
303.15
303.15
303.15
303.15
303.146
303.129
303.039
302.769
302.833
303.07
303.14
303.148
303.151
303.15
303.151
303.15
303.151
303.15
303.15
303.15
303.15
303.15
303.15
303.15
303.146
303.129
303.04
302.771
302.834
303.07
303.14
303.148
303.151
303.15
303.151
303.15
303.151
303.15
303.15
303.15
303.15
303.15
303.15
303.15
303.146
303.129
303.041
302.773
302.835
303.071
303.14
303.148
303.151
303.15
303.151
303.15
303.151
303.15
303.15
303.15
303.15
303.15
303.15
303.15
303.146
303.129
303.041
302.774
302.837
303.071
303.14
303.148
303.151
303.15
303.151
303.15
303.151
303.15
303.15
303.15
303.15
303.15
303.15
303.15
303.146
303.129
303.042
302.776
302.838
303.072
303.14
303.148
303.151
303.15
303.151
303.15
303.151
303.15
303.15
303.15
303.15
303.15
303.15
303.15
303.146
303.129
303.043
302.777
302.839
303.073
303.14
303.148
303.151
303.15
303.151
303.15
303.15
303.15
303.15
303.15
303.15
303.15
303.15
303.15
303.146
303.13
303.043
302.779
302.841
303.073
303.14
303.148
303.151
303.15
303.151
303.15
303.15
303.15
303.15
303.15
303.15
303.15
303.15
303.15
303.146
303.13
303.044
302.781
302.842
303.074
303.14
303.148
303.151
303.15
303.151
303.15
303.15
303.15
303.15
303.15
303.15
303.15
303.15
303.15
303.146
303.13
303.045
302.782
302.843
303.074
303.141
303.148
303.151
303.15
303.151
303.15
303.15
303.15
303.15
303.15
303.15
303.15
303.15
303.15
303.146
303.13
303.046
302.784
302.845
303.075
303.141
303.148
303.151
303.15
303.151
303.15
303.15
303.15
303.15
303.15
303.15
303.15
303.15
303.15
303.146
303.13
303.046
302.785
302.846
303.075
303.141
303.148
303.151
303.15
303.151
303.15
303.15
303.15
303.15
303.15
303.15
303.15
303.15
303.15
303.146
303.13
303.047
302.787
302.847
303.076
303.141
303.148
303.151
303.15
303.151
303.15
303.15
303.15
303.15
303.15
303.15
303.15
303.15
303.15
303.146
303.131
303.048
302.789
302.849
303.077
303.141
303.148
303.151
303.15
303.151
303.15
303.15
303.15
303.15
303.15
303.15
303.15
303.15
303.15
303.146
303.131
303.048
302.79
302.85
303.077
303.141
303.148
303.151
303.15
303.151
303.15
303.15
303.15
303.15
303.15
303.15
303.15
303.15
303.15
303.147
303.131
303.049
302.792
302.852
303.078
303.141
303.149
303.151
303.15
303.151
303.15
303.15
303.15
303.15
303.15
303.15
303.15
303.15
303.15
303.147
303.131
303.05
302.793
302.853
303.078
303.141
303.149
303.151
303.15
303.151
303.15
303.15
303.15
303.15
303.15
303.15
303.15
303.15
303.15
303.147
303.131
303.05
302.795
302.854
303.079
303.141
303.149
303.151
303.15
303.151
303.15
303.15
303.15
303.15
303.15
303.15
303.15
303.15
303.15
303.147
303.131
303.051
302.797
302.856
303.08
303.142
303.149
303.151
303.15
303.151
303.15
303.15
303.15
303.15
303.15
303.15
303.15
303.15
303.15
303.147
303.132
303.052
302.798
302.857
303.08
303.142
303.149
303.151
303.15
303.151
303.15
303.15
303.15
303.15
303.15
303.15
303.15
303.15
303.15
303.147
303.132
303.052
302.8
302.858
303.081
303.142
303.149
303.151
303.15
303.151
303.15
303.15
303.15
303.15
303.15
303.15
303.15
303.15
303.15
303.147
303.132
303.053
302.802
302.86
303.081
303.142
303.149
303.151
303.15
303.151
303.15
303.15
303.15
303.15
303.15
303.15
303.15
303.15
303.15
303.147
303.132
303.054
302.803
302.861
303.082
303.142
303.149
303.151
303.15
303.151
303.15
303.15
303.15
303.15
303.15
303.15
303.15
303.15
303.15
303.147
303.132
303.054
302.805
302.862
303.082
303.142
303.149
303.151
303.15
303.151
303.15
303.15
303.15
303.15
303.15
303.15
303.15
303.15
303.15
303.147
303.132
303.055
302.806
302.864
303.083
303.142
303.149
303.151
303.15
303.151
303.15
303.15
303.15
303.15
303.15
303.15
303.15
303.15
303.15
303.147
303.132
303.056
302.808
302.865
303.084
303.142
303.149
303.151
303.15
303.151
303.15
303.15
303.15
303.15
303.15
303.15
303.15
303.15
303.15
303.147
303.133
303.057
302.81
302.867
303.084
303.142
303.149
303.151
303.15
303.151
303.15
303.15
303.15
303.15
303.15
303.15
303.15
303.15
303.15
303.147
303.133
303.057
302.811
302.868
303.085
303.143
303.149
303.151
303.15
303.151
303.15
303.15
303.15
303.15
303.15
303.15
303.15
303.15
303.15
303.147
303.133
303.058
302.813
302.869
303.085
303.143
303.149
303.151
303.15
303.151
303.15
303.15
303.15
303.15
303.15
303.15
303.15
303.15
303.15
303.147
303.133
303.059
302.815
302.871
303.086
303.143
303.149
303.151
303.15
303.151
303.15
303.15
303.15
303.15
303.15
303.15
303.15
303.15
303.15
303.147
303.133
303.059
302.817
302.872
303.086
303.143
303.149
303.151
303.15
303.151
303.15
303.15
303.15
303.15
303.15
303.15
303.15
303.15
303.15
303.147
303.133
303.06
302.818
302.874
303.087
303.143
303.149
303.151
303.15
303.151
303.15
303.15
303.15
303.15
303.15
303.15
303.15
303.15
303.15
303.147
303.134
303.061
302.82
302.875
303.088
303.143
303.149
303.151
303.15
303.151
303.15
303.15
303.15
303.15
303.15
303.15
303.15
303.15
303.15
303.147
303.134
303.061
302.822
302.876
303.088
303.143
303.149
303.151
303.15
303.15
303.15
303.15
303.15
303.15
303.15
303.15
303.15
303.15
303.15
303.147
303.134
303.062
302.823
302.878
303.089
303.143
303.149
303.151
303.15
303.15
303.15
303.15
303.15
303.15
303.15
303.15
303.15
303.15
303.15
303.147
303.134
303.063
302.825
302.879
303.089
303.143
303.149
303.151
303.15
303.15
303.15
303.15
303.15
303.15
303.15
303.15
303.15
303.15
303.15
303.147
303.134
303.063
302.827
302.881
303.09
303.143
303.149
303.151
303.15
303.15
303.15
303.15
303.15
303.15
303.15
303.15
303.15
303.15
303.15
303.147
303.134
303.064
302.828
302.882
303.091
303.144
303.149
303.151
303.15
303.15
303.15
303.15
303.15
303.15
303.15
303.15
303.15
303.15
303.15
303.147
303.134
303.065
302.83
302.884
303.091
303.144
303.149
303.151
303.15
303.15
303.15
303.15
303.15
303.15
303.15
303.15
303.15
303.15
303.15
303.147
303.135
303.066
302.832
302.885
303.092
303.144
303.149
303.151
303.15
303.15
303.15
303.15
303.15
303.15
303.15
303.15
303.15
303.15
303.15
303.147
303.135
303.066
302.834
302.886
303.092
303.144
303.149
303.151
303.15
303.15
303.15
303.15
303.15
303.15
303.15
303.15
303.15
303.15
303.15
303.147
303.135
303.067
302.835
302.888
303.093
303.144
303.149
303.151
303.15
303.15
303.15
303.15
303.15
303.15
303.15
303.15
303.15
303.15
303.15
303.147
303.135
303.068
302.837
302.889
303.093
303.144
303.149
303.151
303.15
303.15
303.15
303.15
303.15
303.15
303.15
303.15
303.15
303.15
303.15
303.147
303.135
303.068
302.839
302.891
303.094
303.144
303.149
303.151
303.15
303.15
303.15
303.15
303.15
303.15
303.15
303.15
303.15
303.15
303.15
303.147
303.135
303.069
302.841
302.892
303.095
303.144
303.149
303.151
303.15
303.15
303.15
303.15
303.15
303.15
303.15
303.15
303.15
303.15
303.15
303.147
303.136
303.07
302.843
302.894
303.095
303.144
303.149
303.151
303.15
303.15
303.15
303.15
303.15
303.15
303.15
303.15
303.15
303.15
303.15
303.147
303.136
303.07
302.844
302.895
303.096
303.144
303.149
303.151
303.15
303.15
303.15
303.15
303.15
303.15
303.15
303.15
303.15
303.15
303.15
303.147
303.136
303.071
302.846
302.896
303.096
303.144
303.149
303.151
303.15
303.15
303.15
303.15
303.15
303.15
303.15
303.15
303.15
303.15
303.15
303.147
303.136
303.072
302.848
302.898
303.097
303.145
303.149
303.151
303.15
303.15
303.15
303.15
303.15
303.15
303.15
303.15
303.15
303.15
303.15
303.148
303.136
303.072
302.85
302.899
303.097
303.145
303.149
303.151
303.15
303.15
303.15
303.15
303.15
303.15
303.15
303.15
303.15
303.15
303.15
303.148
303.136
303.073
302.851
302.901
303.098
303.145
303.149
303.151
303.15
303.15
303.15
303.15
303.15
303.15
303.15
303.15
303.15
303.15
303.15
303.148
303.136
303.074
302.853
302.902
303.099
303.145
303.149
303.15
303.15
303.15
303.15
303.15
303.15
303.15
303.15
303.15
303.15
303.15
303.15
303.148
303.137
303.075
302.855
302.904
303.099
303.145
303.149
303.15
303.15
303.15
303.15
303.15
303.15
303.15
303.15
303.15
303.15
303.15
303.15
303.148
303.137
303.075
302.857
302.905
303.1
303.145
303.149
303.15
303.15
303.15
303.15
303.15
303.15
303.15
303.15
303.15
303.15
303.15
303.15
303.148
303.137
303.076
302.859
302.907
303.1
303.145
303.149
303.15
303.15
303.15
303.15
303.15
303.15
303.15
303.15
303.15
303.15
303.15
303.15
303.148
303.137
303.077
302.861
302.908
303.101
303.145
303.149
303.15
303.15
303.15
303.15
303.15
303.15
303.15
303.15
303.15
303.15
303.15
303.15
303.148
303.137
303.077
302.862
302.91
303.102
303.145
303.149
303.15
303.15
303.15
303.15
303.15
303.15
303.15
303.15
303.15
303.15
303.15
303.15
303.148
303.137
303.078
302.864
302.911
303.102
303.145
303.149
303.15
303.15
303.15
303.15
303.15
303.15
303.15
303.15
303.15
303.15
303.15
303.15
303.148