/*--------------------------------*- C++ -*----------------------------------*\
  =========                 |
  \\      /  F ield         | OpenFOAM: The Open Source CFD Toolbox
   \\    /   O peration     | Website:  https://openfoam.org
    \\  /    A nd           | Version:  8
     \\/     M anipulation  |
\*---------------------------------------------------------------------------*/
FoamFile
{
    version     2.0;
    format      ascii;
    class       volVectorField;
    location    "400";
    object      U;
}
// * * * * * * * * * * * * * * * * * * * * * * * * * * * * * * * * * * * * * //

dimensions      [0 1 -1 0 0 0 0];

internalField   nonuniform List<vector> 
8400
(
(-13.7029 -0.0750837 -5.8613e-16)
(-13.7067 -0.075845 -5.88441e-16)
(-13.7098 -0.0767909 -5.90557e-16)
(-13.713 -0.0778161 -5.96541e-16)
(-13.7163 -0.0788876 -6.00031e-16)
(-13.7196 -0.079996 -5.98942e-16)
(-13.7228 -0.0811389 -5.99987e-16)
(-13.7261 -0.0823165 -6.01233e-16)
(-13.7294 -0.08353 -6.02605e-16)
(-13.7326 -0.0847814 -6.08182e-16)
(-13.7358 -0.0860727 -6.10969e-16)
(-13.7389 -0.0874069 -6.08945e-16)
(-13.742 -0.0887867 -6.09418e-16)
(-13.7451 -0.0902156 -6.10338e-16)
(-13.7481 -0.0916973 -6.13431e-16)
(-13.751 -0.093236 -6.1955e-16)
(-13.7538 -0.0948364 -6.17563e-16)
(-13.7565 -0.0965037 -6.15794e-16)
(-13.7591 -0.0982438 -6.16367e-16)
(-13.7615 -0.100063 -6.17235e-16)
(-13.7637 -0.10197 -6.18403e-16)
(-13.7657 -0.103972 -6.19609e-16)
(-13.7675 -0.106079 -6.20827e-16)
(-13.7689 -0.108301 -6.21994e-16)
(-13.7701 -0.110655 -6.23042e-16)
(-13.7708 -0.113159 -6.24327e-16)
(-13.7711 -0.115838 -6.24309e-16)
(-13.7707 -0.118714 -6.24819e-16)
(-13.7697 -0.121802 -6.27463e-16)
(-13.7679 -0.125123 -6.29838e-16)
(-13.7652 -0.128705 -6.32031e-16)
(-13.7614 -0.13258 -6.34336e-16)
(-13.7564 -0.136785 -6.32648e-16)
(-13.7499 -0.141363 -6.33246e-16)
(-13.7418 -0.146366 -6.3843e-16)
(-13.7317 -0.151854 -6.41614e-16)
(-13.7193 -0.157898 -6.44668e-16)
(-13.7044 -0.164584 -6.47726e-16)
(-13.6864 -0.172016 -6.50829e-16)
(-13.6648 -0.180322 -6.52902e-16)
(-13.6392 -0.18966 -6.55858e-16)
(-13.6086 -0.200234 -6.59053e-16)
(-13.5723 -0.212308 -6.63121e-16)
(-13.5292 -0.226236 -6.69731e-16)
(-13.4778 -0.242519 -6.76319e-16)
(-13.4167 -0.261875 -6.82166e-16)
(-13.3441 -0.285278 -6.84849e-16)
(-13.2566 -0.314062 -6.91965e-16)
(-13.1445 -0.350785 -7.08662e-16)
(-12.9961 -0.401355 -7.23889e-16)
(-15.6898 0.0786673 -6.36155e-17)
(-15.6938 0.079659 -6.32616e-17)
(-15.6966 0.0806586 -6.29294e-17)
(-15.6994 0.0816795 -6.57691e-17)
(-15.7022 0.0827079 -6.75488e-17)
(-15.705 0.0837458 -6.60603e-17)
(-15.7078 0.0847963 -6.46451e-17)
(-15.7106 0.0858621 -6.2872e-17)
(-15.7134 0.0869453 -6.17245e-17)
(-15.7162 0.0880474 -6.42929e-17)
(-15.7189 0.0891695 -6.61314e-17)
(-15.7216 0.0903124 -6.40567e-17)
(-15.7243 0.0914766 -6.11679e-17)
(-15.7269 0.0926626 -5.64244e-17)
(-15.7295 0.0938706 -5.98771e-17)
(-15.732 0.0951005 -7.55096e-17)
(-15.7344 0.0963522 -7.62729e-17)
(-15.7367 0.0976251 -7.28748e-17)
(-15.7389 0.0989182 -7.00789e-17)
(-15.7409 0.10023 -6.74365e-17)
(-15.7428 0.101559 -6.4856e-17)
(-15.7445 0.102904 -6.22662e-17)
(-15.7459 0.10426 -5.964e-17)
(-15.7471 0.105624 -5.69452e-17)
(-15.748 0.106986 -5.42675e-17)
(-15.7485 0.10833 -5.2029e-17)
(-15.7487 0.109646 -4.68377e-17)
(-15.7483 0.110936 -4.22251e-17)
(-15.7475 0.112195 -4.03622e-17)
(-15.7461 0.113413 -3.76874e-17)
(-15.744 0.114577 -3.46401e-17)
(-15.7412 0.115671 -3.13944e-17)
(-15.7374 0.116676 -2.55062e-17)
(-15.7326 0.117567 -2.02912e-17)
(-15.7265 0.118318 -1.76407e-17)
(-15.7191 0.118893 -1.40495e-17)
(-15.71 0.119252 -1.00269e-17)
(-15.6991 0.119345 -5.80638e-18)
(-15.686 0.11911 1.00283e-18)
(-15.6703 0.118467 6.19513e-18)
(-15.6518 0.117316 9.22726e-18)
(-15.63 0.115522 1.69415e-17)
(-15.6042 0.112902 2.40791e-17)
(-15.5739 0.109194 2.8628e-17)
(-15.5384 0.103989 3.6667e-17)
(-15.4969 0.096658 4.34249e-17)
(-15.4488 0.0863614 5.08915e-17)
(-15.3929 0.0719763 6.03451e-17)
(-15.3252 0.0509018 6.67552e-17)
(-15.2411 0.0160882 7.27398e-17)
(-16.089 -0.0659699 -4.11782e-16)
(-16.0879 -0.0664059 -4.12128e-16)
(-16.0874 -0.0671325 -4.1243e-16)
(-16.0871 -0.0679748 -4.14294e-16)
(-16.0868 -0.0688829 -4.15366e-16)
(-16.0865 -0.0698377 -4.14214e-16)
(-16.0862 -0.0708316 -4.13339e-16)
(-16.0859 -0.0718623 -4.12621e-16)
(-16.0856 -0.0729295 -4.11881e-16)
(-16.0852 -0.0740341 -4.12842e-16)
(-16.0848 -0.0751781 -4.12997e-16)
(-16.0844 -0.076364 -4.10619e-16)
(-16.0839 -0.0775952 -4.08323e-16)
(-16.0834 -0.0788754 -4.0572e-16)
(-16.0828 -0.0802094 -4.03114e-16)
(-16.0822 -0.0816023 -4.03682e-16)
(-16.0814 -0.0830602 -4.03773e-16)
(-16.0805 -0.0845901 -4.01298e-16)
(-16.0796 -0.0861998 -3.99357e-16)
(-16.0785 -0.0878988 -3.97521e-16)
(-16.0772 -0.0896981 -3.9573e-16)
(-16.0757 -0.0916102 -3.93915e-16)
(-16.074 -0.0936491 -3.92046e-16)
(-16.0721 -0.095835 -3.90115e-16)
(-16.0698 -0.0981843 -3.88126e-16)
(-16.0672 -0.100716 -3.86173e-16)
(-16.0641 -0.103458 -3.82255e-16)
(-16.0606 -0.106444 -3.78799e-16)
(-16.0566 -0.10971 -3.77644e-16)
(-16.052 -0.113294 -3.76125e-16)
(-16.0466 -0.117239 -3.74364e-16)
(-16.0404 -0.121597 -3.72567e-16)
(-16.0332 -0.126426 -3.68795e-16)
(-16.025 -0.131793 -3.65508e-16)
(-16.0154 -0.137775 -3.6459e-16)
(-16.0044 -0.144462 -3.6342e-16)
(-15.9916 -0.151958 -3.62128e-16)
(-15.9769 -0.160384 -3.60853e-16)
(-15.9599 -0.169881 -3.59642e-16)
(-15.9402 -0.180614 -3.57653e-16)
(-15.9174 -0.19278 -3.56555e-16)
(-15.8911 -0.206612 -3.55115e-16)
(-15.8606 -0.222391 -3.54375e-16)
(-15.8254 -0.240465 -3.56465e-16)
(-15.7847 -0.261294 -3.58684e-16)
(-15.7377 -0.285471 -3.60524e-16)
(-15.6839 -0.313678 -3.61633e-16)
(-15.6222 -0.346663 -3.65102e-16)
(-15.5508 -0.385898 -3.73795e-16)
(-15.4681 -0.435103 -3.83294e-16)
(-16.5378 0.0694078 8.50861e-17)
(-16.5397 0.0700161 8.54595e-17)
(-16.5402 0.0707345 8.58301e-17)
(-16.5404 0.0714846 8.39398e-17)
(-16.5406 0.0722336 8.29856e-17)
(-16.5408 0.0729743 8.47521e-17)
(-16.541 0.0737055 8.57718e-17)
(-16.5412 0.074427 8.65799e-17)
(-16.5413 0.0751386 8.72587e-17)
(-16.5415 0.0758391 8.63386e-17)
(-16.5416 0.0765267 8.62394e-17)
(-16.5417 0.0771992 8.84278e-17)
(-16.5418 0.0778532 9.04952e-17)
(-16.5419 0.0784849 9.21896e-17)
(-16.5419 0.0790893 9.33378e-17)
(-16.5418 0.0796606 9.34457e-17)
(-16.5417 0.0801921 9.39794e-17)
(-16.5415 0.0806758 9.6328e-17)
(-16.5413 0.0811019 9.86615e-17)
(-16.5409 0.0814586 1.00818e-16)
(-16.5404 0.0817314 1.02885e-16)
(-16.5397 0.081908 1.049e-16)
(-16.5389 0.0819685 1.06899e-16)
(-16.5379 0.0818989 1.08909e-16)
(-16.5367 0.0816782 1.10939e-16)
(-16.5353 0.0812827 1.12884e-16)
(-16.5336 0.080685 1.16616e-16)
(-16.5315 0.079852 1.19885e-16)
(-16.5291 0.0787438 1.20987e-16)
(-16.5262 0.0773146 1.22386e-16)
(-16.5228 0.0755116 1.24018e-16)
(-16.5189 0.0732729 1.25685e-16)
(-16.5142 0.0705269 1.29216e-16)
(-16.5088 0.0671896 1.3232e-16)
(-16.5024 0.0631631 1.33188e-16)
(-16.495 0.0583328 1.34281e-16)
(-16.4864 0.0525641 1.35494e-16)
(-16.4763 0.0456982 1.36569e-16)
(-16.4646 0.0375468 1.39334e-16)
(-16.451 0.027886 1.4051e-16)
(-16.4353 0.0164472 1.3948e-16)
(-16.4171 0.00290677 1.4155e-16)
(-16.396 -0.0131275 1.42868e-16)
(-16.3717 -0.03214 1.41298e-16)
(-16.3438 -0.0547382 1.41285e-16)
(-16.3118 -0.0816698 1.39077e-16)
(-16.2754 -0.113799 1.36064e-16)
(-16.2343 -0.152123 1.33435e-16)
(-16.1877 -0.19804 1.27166e-16)
(-16.1353 -0.2537 1.20123e-16)
(-16.3904 -0.0551815 3.74438e-16)
(-16.388 -0.0556153 3.75609e-16)
(-16.387 -0.0561681 3.76752e-16)
(-16.3863 -0.0567772 3.76152e-16)
(-16.3857 -0.0574209 3.76042e-16)
(-16.3851 -0.0580918 3.78033e-16)
(-16.3845 -0.0587873 3.79672e-16)
(-16.3839 -0.0595065 3.80971e-16)
(-16.3832 -0.0602496 3.82101e-16)
(-16.3826 -0.0610173 3.81441e-16)
(-16.3819 -0.0618109 3.81299e-16)
(-16.3813 -0.0626326 3.83461e-16)
(-16.3805 -0.063485 3.85498e-16)
(-16.3798 -0.0643715 3.87451e-16)
(-16.379 -0.0652962 3.89439e-16)
(-16.3781 -0.0662643 3.89385e-16)
(-16.3772 -0.0672817 3.89495e-16)
(-16.3762 -0.068355 3.92133e-16)
(-16.3752 -0.069495 3.94286e-16)
(-16.374 -0.0707107 3.96227e-16)
(-16.3727 -0.0720118 3.98047e-16)
(-16.3713 -0.0734167 3.99826e-16)
(-16.3696 -0.074943 4.01606e-16)
(-16.3678 -0.0766126 4.03423e-16)
(-16.3658 -0.078451 4.05292e-16)
(-16.3635 -0.0804863 4.07129e-16)
(-16.3609 -0.0827511 4.1086e-16)
(-16.3579 -0.085283 4.14212e-16)
(-16.3546 -0.0881252 4.15443e-16)
(-16.3507 -0.0913277 4.17096e-16)
(-16.3463 -0.0949485 4.19114e-16)
(-16.3413 -0.0990545 4.21309e-16)
(-16.3355 -0.103723 4.25601e-16)
(-16.3289 -0.109045 4.29588e-16)
(-16.3213 -0.115125 4.31501e-16)
(-16.3126 -0.122083 4.33986e-16)
(-16.3026 -0.130062 4.36932e-16)
(-16.2911 -0.139227 4.40278e-16)
(-16.2779 -0.149769 4.44075e-16)
(-16.2627 -0.161916 4.4927e-16)
(-16.2453 -0.175935 4.54247e-16)
(-16.2253 -0.192143 4.60346e-16)
(-16.2025 -0.210919 4.66844e-16)
(-16.1763 -0.232724 4.71675e-16)
(-16.1465 -0.258122 4.7768e-16)
(-16.1127 -0.287798 4.8566e-16)
(-16.0746 -0.322561 4.96303e-16)
(-16.0319 -0.363398 5.07005e-16)
(-15.9842 -0.411628 5.15281e-16)
(-15.9309 -0.469001 5.25855e-16)
(-16.537 0.053424 3.44387e-17)
(-16.5392 0.0537383 3.46247e-17)
(-16.5396 0.0541281 3.48373e-17)
(-16.5397 0.0545295 3.33176e-17)
(-16.5396 0.0549173 3.23292e-17)
(-16.5396 0.0552826 3.34982e-17)
(-16.5395 0.0556211 3.4304e-17)
(-16.5394 0.0559295 3.48071e-17)
(-16.5393 0.0562048 3.51876e-17)
(-16.5392 0.0564431 3.36301e-17)
(-16.5391 0.0566401 3.26623e-17)
(-16.539 0.0567902 3.39945e-17)
(-16.5388 0.0568874 3.5108e-17)
(-16.5387 0.0569241 3.60504e-17)
(-16.5385 0.0568914 3.7158e-17)
(-16.5383 0.0567788 3.6047e-17)
(-16.538 0.056576 3.55459e-17)
(-16.5376 0.0562688 3.71096e-17)
(-16.5373 0.055845 3.83484e-17)
(-16.5368 0.0552879 3.93556e-17)
(-16.5362 0.0545787 4.02236e-17)
(-16.5356 0.0536969 4.10137e-17)
(-16.5348 0.0526194 4.17574e-17)
(-16.5339 0.0513186 4.24829e-17)
(-16.5328 0.0497621 4.31939e-17)
(-16.5316 0.0479124 4.38035e-17)
(-16.5301 0.0457264 4.62051e-17)
(-16.5284 0.0431542 4.81331e-17)
(-16.5263 0.0401388 4.78403e-17)
(-16.524 0.0366146 4.78575e-17)
(-16.5212 0.0325063 4.81021e-17)
(-16.5179 0.0277275 4.83938e-17)
(-16.5142 0.0221788 5.05689e-17)
(-16.5097 0.015746 5.23362e-17)
(-16.5046 0.00829783 5.1887e-17)
(-16.4986 -0.000316253 5.16919e-17)
(-16.4917 -0.0102693 5.1661e-17)
(-16.4836 -0.0217602 5.1541e-17)
(-16.4743 -0.035017 5.31927e-17)
(-16.4636 -0.0503016 5.32785e-17)
(-16.4511 -0.0679135 5.12332e-17)
(-16.4368 -0.0881955 5.30705e-17)
(-16.4204 -0.111539 5.38487e-17)
(-16.4016 -0.138393 5.1253e-17)
(-16.3803 -0.169265 5.07386e-17)
(-16.3562 -0.204725 4.80465e-17)
(-16.3292 -0.245388 4.48402e-17)
(-16.2995 -0.291923 4.23496e-17)
(-16.2669 -0.345103 3.66038e-17)
(-16.2314 -0.40584 2.83382e-17)
(-16.4537 -0.0401442 1.69881e-16)
(-16.4509 -0.0404196 1.70179e-16)
(-16.45 -0.0407463 1.70493e-16)
(-16.4494 -0.0410976 1.68898e-16)
(-16.4489 -0.0414648 1.67691e-16)
(-16.4485 -0.0418458 1.68744e-16)
(-16.4481 -0.0422405 1.69509e-16)
(-16.4476 -0.0426492 1.70027e-16)
(-16.4472 -0.0430728 1.70409e-16)
(-16.4467 -0.0435126 1.68717e-16)
(-16.4463 -0.0439704 1.67272e-16)
(-16.4458 -0.0444485 1.68136e-16)
(-16.4453 -0.0449499 1.68869e-16)
(-16.4448 -0.0454796 1.69472e-16)
(-16.4443 -0.0460423 1.69922e-16)
(-16.4437 -0.0466434 1.686e-16)
(-16.4431 -0.0472926 1.67651e-16)
(-16.4425 -0.0479997 1.68966e-16)
(-16.4418 -0.0487767 1.69953e-16)
(-16.441 -0.0496379 1.70707e-16)
(-16.4402 -0.0506001 1.71341e-16)
(-16.4392 -0.0516829 1.71902e-16)
(-16.4382 -0.0529085 1.72454e-16)
(-16.437 -0.0543032 1.73003e-16)
(-16.4357 -0.0558975 1.73599e-16)
(-16.4342 -0.0577272 1.74128e-16)
(-16.4325 -0.0598341 1.76556e-16)
(-16.4305 -0.0622668 1.7857e-16)
(-16.4283 -0.065082 1.78462e-16)
(-16.4258 -0.0683458 1.78761e-16)
(-16.4229 -0.0721349 1.79463e-16)
(-16.4196 -0.0765386 1.80363e-16)
(-16.4158 -0.0816608 1.83422e-16)
(-16.4115 -0.0876219 1.86301e-16)
(-16.4065 -0.0945616 1.87228e-16)
(-16.4008 -0.102642 1.88753e-16)
(-16.3942 -0.112051 1.90882e-16)
(-16.3866 -0.123004 1.93529e-16)
(-16.3779 -0.135754 1.96777e-16)
(-16.3678 -0.150589 2.00731e-16)
(-16.3563 -0.167842 2.06038e-16)
(-16.3432 -0.187893 2.13528e-16)
(-16.3281 -0.211177 2.2037e-16)
(-16.3109 -0.23819 2.26939e-16)
(-16.2913 -0.269486 2.34783e-16)
(-16.2692 -0.305681 2.4303e-16)
(-16.2444 -0.347432 2.55225e-16)
(-16.2169 -0.39542 2.69642e-16)
(-16.1865 -0.450345 2.83541e-16)
(-16.153 -0.512939 3.0008e-16)
(-16.5105 0.0339571 -2.06271e-16)
(-16.5129 0.0340632 -2.06221e-16)
(-16.5133 0.0341861 -2.06079e-16)
(-16.5133 0.0342971 -2.07847e-16)
(-16.5132 0.0343842 -2.09277e-16)
(-16.5131 0.0344416 -2.08416e-16)
(-16.5129 0.034465 -2.0781e-16)
(-16.5128 0.0344508 -2.0743e-16)
(-16.5126 0.0343947 -2.07182e-16)
(-16.5124 0.034292 -2.08888e-16)
(-16.5123 0.0341377 -2.10461e-16)
(-16.5121 0.0339253 -2.09811e-16)
(-16.5119 0.0336473 -2.09421e-16)
(-16.5117 0.0332966 -2.09626e-16)
(-16.5115 0.0328638 -2.09596e-16)
(-16.5113 0.0323379 -2.1139e-16)
(-16.5111 0.031707 -2.12801e-16)
(-16.5108 0.0309576 -2.12023e-16)
(-16.5104 0.0300737 -2.1168e-16)
(-16.5101 0.029037 -2.11647e-16)
(-16.5096 0.0278261 -2.11836e-16)
(-16.5092 0.0264166 -2.12185e-16)
(-16.5086 0.0247803 -2.12668e-16)
(-16.508 0.0228848 -2.13253e-16)
(-16.5072 0.0206928 -2.1395e-16)
(-16.5063 0.0181614 -2.14845e-16)
(-16.5053 0.0152413 -2.14048e-16)
(-16.5041 0.0118762 -2.13901e-16)
(-16.5028 0.00800115 -2.16143e-16)
(-16.5012 0.00354201 -2.18134e-16)
(-16.4994 -0.00158637 -2.20036e-16)
(-16.4972 -0.00748167 -2.22026e-16)
(-16.4947 -0.0142558 -2.22282e-16)
(-16.4919 -0.0220371 -2.23125e-16)
(-16.4886 -0.0309724 -2.26422e-16)
(-16.4847 -0.0412298 -2.2962e-16)
(-16.4803 -0.0530012 -2.32892e-16)
(-16.4751 -0.0665058 -2.3635e-16)
(-16.4692 -0.0819929 -2.40237e-16)
(-16.4624 -0.0997457 -2.41698e-16)
(-16.4545 -0.120084 -2.45798e-16)
(-16.4455 -0.143367 -2.51756e-16)
(-16.4352 -0.169996 -2.55046e-16)
(-16.4235 -0.200415 -2.62891e-16)
(-16.4101 -0.235109 -2.7321e-16)
(-16.3952 -0.274594 -2.82361e-16)
(-16.3784 -0.319406 -2.91533e-16)
(-16.36 -0.370066 -3.0168e-16)
(-16.3399 -0.42706 -3.17465e-16)
(-16.3177 -0.490863 -3.37572e-16)
(-16.4764 -0.0228438 1.3346e-16)
(-16.4735 -0.0229731 1.35207e-16)
(-16.4727 -0.023117 1.37062e-16)
(-16.4722 -0.0232737 1.36923e-16)
(-16.4718 -0.0234432 1.37091e-16)
(-16.4715 -0.0236265 1.39649e-16)
(-16.4712 -0.0238246 1.41975e-16)
(-16.4709 -0.0240392 1.44091e-16)
(-16.4707 -0.0242722 1.46201e-16)
(-16.4704 -0.0245263 1.46346e-16)
(-16.4701 -0.0248054 1.46713e-16)
(-16.4698 -0.0251135 1.49262e-16)
(-16.4695 -0.0254558 1.51404e-16)
(-16.4693 -0.0258387 1.53332e-16)
(-16.469 -0.0262698 1.5541e-16)
(-16.4687 -0.0267583 1.55575e-16)
(-16.4684 -0.0273149 1.56127e-16)
(-16.468 -0.0279522 1.58866e-16)
(-16.4677 -0.0286847 1.61209e-16)
(-16.4673 -0.0295293 1.63279e-16)
(-16.4669 -0.0305058 1.65145e-16)
(-16.4665 -0.0316373 1.66895e-16)
(-16.4661 -0.0329506 1.68539e-16)
(-16.4655 -0.0344771 1.70136e-16)
(-16.4649 -0.0362533 1.7167e-16)
(-16.4643 -0.0383218 1.73081e-16)
(-16.4636 -0.0407322 1.76297e-16)
(-16.4627 -0.0435421 1.79002e-16)
(-16.4618 -0.0468182 1.79434e-16)
(-16.4607 -0.0506381 1.80213e-16)
(-16.4594 -0.0550916 1.81263e-16)
(-16.4579 -0.0602827 1.82408e-16)
(-16.4563 -0.0663319 1.85588e-16)
(-16.4543 -0.0733782 1.88415e-16)
(-16.4521 -0.081582 1.89098e-16)
(-16.4495 -0.0911278 1.90291e-16)
(-16.4465 -0.102228 1.91905e-16)
(-16.4431 -0.115124 1.9375e-16)
(-16.439 -0.130094 1.97743e-16)
(-16.4344 -0.147452 2.00715e-16)
(-16.4291 -0.167551 2.02155e-16)
(-16.4229 -0.190789 2.07476e-16)
(-16.4157 -0.217604 2.13176e-16)
(-16.4076 -0.248478 2.17315e-16)
(-16.3982 -0.283926 2.24451e-16)
(-16.3875 -0.324492 2.31027e-16)
(-16.3755 -0.370725 2.38904e-16)
(-16.362 -0.423146 2.50062e-16)
(-16.3469 -0.482223 2.61225e-16)
(-16.33 -0.548397 2.76237e-16)
(-16.4847 0.0132906 -1.17258e-16)
(-16.4872 0.0132482 -1.16047e-16)
(-16.4876 0.0131863 -1.14689e-16)
(-16.4876 0.0131021 -1.15257e-16)
(-16.4874 0.0129942 -1.15442e-16)
(-16.4873 0.0128606 -1.13227e-16)
(-16.4871 0.012699 -1.11225e-16)
(-16.487 0.0125065 -1.09371e-16)
(-16.4868 0.01228 -1.07453e-16)
(-16.4866 0.0120156 -1.07426e-16)
(-16.4865 0.0117087 -1.07119e-16)
(-16.4863 0.011354 -1.04677e-16)
(-16.4862 0.0109455 -1.02562e-16)
(-16.486 0.0104759 -1.00636e-16)
(-16.4859 0.00993654 -9.87477e-17)
(-16.4857 0.00931739 -9.88286e-17)
(-16.4856 0.00860665 -9.84806e-17)
(-16.4854 0.00779059 -9.60003e-17)
(-16.4852 0.00685326 -9.3913e-17)
(-16.485 0.0057762 -9.218e-17)
(-16.4848 0.004538 -9.06495e-17)
(-16.4846 0.00311389 -8.93477e-17)
(-16.4843 0.00147517 -8.81653e-17)
(-16.4841 -0.00041132 -8.71692e-17)
(-16.4838 -0.00258401 -8.62816e-17)
(-16.4834 -0.00508741 -8.56752e-17)
(-16.4831 -0.00797291 -8.3333e-17)
(-16.4826 -0.0112998 -8.1718e-17)
(-16.4821 -0.0151363 -8.25495e-17)
(-16.4816 -0.0195614 -8.32231e-17)
(-16.481 -0.0246659 -8.38486e-17)
(-16.4803 -0.0305546 -8.46623e-17)
(-16.4795 -0.037348 -8.37678e-17)
(-16.4785 -0.0451848 -8.36145e-17)
(-16.4775 -0.0542242 -8.60394e-17)
(-16.4762 -0.0646489 -8.84544e-17)
(-16.4748 -0.0766678 -9.10332e-17)
(-16.4732 -0.0905196 -9.39781e-17)
(-16.4713 -0.106476 -9.72923e-17)
(-16.4692 -0.124843 -1.00128e-16)
(-16.4667 -0.145967 -1.04397e-16)
(-16.4637 -0.170234 -1.08845e-16)
(-16.4603 -0.198068 -1.14452e-16)
(-16.4564 -0.229932 -1.23731e-16)
(-16.4518 -0.26632 -1.34031e-16)
(-16.4465 -0.307744 -1.45122e-16)
(-16.4403 -0.354716 -1.56931e-16)
(-16.4331 -0.407703 -1.72755e-16)
(-16.4247 -0.4671 -1.96473e-16)
(-16.4149 -0.533245 -2.24977e-16)
(-16.4882 -0.00506709 2.44818e-16)
(-16.4854 -0.00508081 2.4728e-16)
(-16.4847 -0.0050945 2.49766e-16)
(-16.4843 -0.00512083 2.50338e-16)
(-16.4841 -0.00516493 2.5139e-16)
(-16.4839 -0.0052297 2.54861e-16)
(-16.4837 -0.00531771 2.58194e-16)
(-16.4835 -0.00543196 2.61412e-16)
(-16.4834 -0.00557599 2.64729e-16)
(-16.4833 -0.00575407 2.66077e-16)
(-16.4831 -0.00597119 2.67922e-16)
(-16.483 -0.00623322 2.72039e-16)
(-16.4829 -0.00654699 2.75897e-16)
(-16.4829 -0.0069204 2.79601e-16)
(-16.4828 -0.00736274 2.83324e-16)
(-16.4828 -0.00788478 2.85211e-16)
(-16.4827 -0.00849893 2.87587e-16)
(-16.4827 -0.00921956 2.92263e-16)
(-16.4827 -0.0100633 2.96581e-16)
(-16.4828 -0.0110492 3.00742e-16)
(-16.4828 -0.0121995 3.04738e-16)
(-16.4829 -0.0135394 3.08745e-16)
(-16.483 -0.0150984 3.12686e-16)
(-16.4831 -0.0169105 3.16703e-16)
(-16.4833 -0.019015 3.20713e-16)
(-16.4834 -0.0214571 3.24725e-16)
(-16.4836 -0.0242893 3.30645e-16)
(-16.4839 -0.0275719 3.36157e-16)
(-16.4842 -0.0313745 3.39478e-16)
(-16.4845 -0.0357774 3.43351e-16)
(-16.4849 -0.0408732 3.47642e-16)
(-16.4853 -0.0467688 3.52219e-16)
(-16.4858 -0.0535873 3.59001e-16)
(-16.4863 -0.0614704 3.65624e-16)
(-16.4869 -0.0705815 3.70402e-16)
(-16.4876 -0.0811081 3.76107e-16)
(-16.4883 -0.0932657 3.82655e-16)
(-16.4892 -0.107301 3.89949e-16)
(-16.4901 -0.123495 4.00063e-16)
(-16.4911 -0.142169 4.0988e-16)
(-16.4922 -0.163683 4.1895e-16)
(-16.4933 -0.188445 4.3324e-16)
(-16.4945 -0.216903 4.49022e-16)
(-16.4957 -0.249553 4.64623e-16)
(-16.4969 -0.286927 4.85507e-16)
(-16.498 -0.329582 5.08357e-16)
(-16.4989 -0.378086 5.359e-16)
(-16.4995 -0.432973 5.70945e-16)
(-16.4996 -0.494716 6.10851e-16)
(-16.4989 -0.563727 6.58024e-16)
(-16.4536 -0.00700051 -5.31117e-16)
(-16.456 -0.0071707 -5.31974e-16)
(-16.4563 -0.00738172 -5.32718e-16)
(-16.4563 -0.00761778 -5.35358e-16)
(-16.4562 -0.00787185 -5.375e-16)
(-16.456 -0.00814244 -5.37229e-16)
(-16.4559 -0.00843003 -5.37178e-16)
(-16.4557 -0.00873607 -5.37277e-16)
(-16.4556 -0.00906269 -5.37347e-16)
(-16.4554 -0.00941269 -5.39293e-16)
(-16.4553 -0.00978947 -5.40712e-16)
(-16.4552 -0.0101972 -5.39829e-16)
(-16.4551 -0.0106409 -5.39271e-16)
(-16.455 -0.0111266 -5.38903e-16)
(-16.455 -0.0116615 -5.38529e-16)
(-16.4549 -0.0122542 -5.40065e-16)
(-16.4549 -0.0129149 -5.411e-16)
(-16.4549 -0.0136555 -5.39951e-16)
(-16.4549 -0.0144902 -5.39163e-16)
(-16.455 -0.0154357 -5.38725e-16)
(-16.4551 -0.0165113 -5.38454e-16)
(-16.4552 -0.0177396 -5.38424e-16)
(-16.4553 -0.0191474 -5.3852e-16)
(-16.4555 -0.0207657 -5.38854e-16)
(-16.4557 -0.0226309 -5.39357e-16)
(-16.456 -0.0247856 -5.40255e-16)
(-16.4564 -0.0272791 -5.39542e-16)
(-16.4568 -0.0301692 -5.39742e-16)
(-16.4573 -0.0335228 -5.4261e-16)
(-16.4579 -0.0374179 -5.45605e-16)
(-16.4586 -0.0419448 -5.48894e-16)
(-16.4595 -0.0472084 -5.52796e-16)
(-16.4605 -0.0533306 -5.55455e-16)
(-16.4616 -0.060452 -5.59445e-16)
(-16.463 -0.0687356 -5.66723e-16)
(-16.4645 -0.0783692 -5.7476e-16)
(-16.4663 -0.0895693 -5.83889e-16)
(-16.4684 -0.102584 -5.9445e-16)
(-16.4708 -0.117699 -6.06659e-16)
(-16.4735 -0.135238 -6.19854e-16)
(-16.4765 -0.155568 -6.36198e-16)
(-16.48 -0.179103 -6.54699e-16)
(-16.4838 -0.206303 -6.76746e-16)
(-16.4879 -0.237675 -7.05378e-16)
(-16.4924 -0.273764 -7.3838e-16)
(-16.4971 -0.315147 -7.76264e-16)
(-16.5017 -0.36241 -8.19705e-16)
(-16.5062 -0.416116 -8.73113e-16)
(-16.5101 -0.476754 -9.42151e-16)
(-16.5128 -0.544712 -1.02483e-15)
(-16.4982 0.0119197 8.57048e-16)
(-16.4958 0.0120223 8.60218e-16)
(-16.4952 0.0121425 8.63395e-16)
(-16.495 0.0122546 8.64754e-16)
(-16.4948 0.012348 8.66712e-16)
(-16.4948 0.0124184 8.71087e-16)
(-16.4947 0.012462 8.75252e-16)
(-16.4947 0.0124753 8.79329e-16)
(-16.4947 0.0124539 8.83512e-16)
(-16.4947 0.0123928 8.85926e-16)
(-16.4948 0.0122865 8.88991e-16)
(-16.4948 0.0121282 8.94435e-16)
(-16.4949 0.0119106 8.99703e-16)
(-16.495 0.0116249 9.04906e-16)
(-16.4952 0.0112614 9.10271e-16)
(-16.4954 0.0108085 9.13903e-16)
(-16.4956 0.0102532 9.18224e-16)
(-16.4959 0.00958044 9.25022e-16)
(-16.4963 0.00877314 9.31661e-16)
(-16.4966 0.00781161 9.38325e-16)
(-16.4971 0.00667333 9.4508e-16)
(-16.4976 0.00533251 9.52052e-16)
(-16.4983 0.0037596 9.59237e-16)
(-16.499 0.00192062 9.66734e-16)
(-16.4998 -0.000223411 9.74514e-16)
(-16.5008 -0.00271727 9.82555e-16)
(-16.5019 -0.00561234 9.92804e-16)
(-16.5032 -0.00896764 1.00295e-15)
(-16.5046 -0.0128509 1.01125e-15)
(-16.5063 -0.0173398 1.02042e-15)
(-16.5082 -0.0225239 1.03041e-15)
(-16.5105 -0.0285059 1.04107e-15)
(-16.513 -0.0354043 1.05443e-15)
(-16.516 -0.0433552 1.06816e-15)
(-16.5194 -0.0525152 1.08062e-15)
(-16.5233 -0.0630648 1.09458e-15)
(-16.5277 -0.0752116 1.11011e-15)
(-16.5329 -0.0891946 1.12715e-15)
(-16.5387 -0.105289 1.14796e-15)
(-16.5454 -0.123809 1.16945e-15)
(-16.5531 -0.145117 1.19145e-15)
(-16.5618 -0.169625 1.2202e-15)
(-16.5716 -0.197802 1.25245e-15)
(-16.5826 -0.230177 1.28687e-15)
(-16.5949 -0.267338 1.32916e-15)
(-16.6084 -0.309928 1.37686e-15)
(-16.6231 -0.358636 1.43347e-15)
(-16.6389 -0.414173 1.50261e-15)
(-16.6553 -0.477222 1.58275e-15)
(-16.6721 -0.548357 1.68022e-15)
(-16.4038 -0.0256299 -8.98301e-16)
(-16.4059 -0.0259567 -9.01199e-16)
(-16.4062 -0.0263526 -9.04024e-16)
(-16.4061 -0.0267809 -9.08723e-16)
(-16.406 -0.0272253 -9.12786e-16)
(-16.4058 -0.0276816 -9.14504e-16)
(-16.4057 -0.0281491 -9.16494e-16)
(-16.4055 -0.0286286 -9.18655e-16)
(-16.4054 -0.0291219 -9.20812e-16)
(-16.4053 -0.0296311 -9.24818e-16)
(-16.4052 -0.0301591 -9.28035e-16)
(-16.4051 -0.030709 -9.28777e-16)
(-16.405 -0.031285 -9.3e-16)
(-16.405 -0.0318918 -9.31319e-16)
(-16.405 -0.0325352 -9.32629e-16)
(-16.4051 -0.0332221 -9.35782e-16)
(-16.4052 -0.0339607 -9.38382e-16)
(-16.4053 -0.0347609 -9.38628e-16)
(-16.4055 -0.0356343 -9.39236e-16)
(-16.4058 -0.0365944 -9.40058e-16)
(-16.4061 -0.0376575 -9.41026e-16)
(-16.4066 -0.0388425 -9.42114e-16)
(-16.4071 -0.0401716 -9.43303e-16)
(-16.4077 -0.0416711 -9.44634e-16)
(-16.4085 -0.0433718 -9.46124e-16)
(-16.4093 -0.0453099 -9.47958e-16)
(-16.4104 -0.0475276 -9.48168e-16)
(-16.4116 -0.0500744 -9.4931e-16)
(-16.4131 -0.0530081 -9.53234e-16)
(-16.4148 -0.0563963 -9.57329e-16)
(-16.4168 -0.0603179 -9.61883e-16)
(-16.4192 -0.0648653 -9.67217e-16)
(-16.4219 -0.070146 -9.71578e-16)
(-16.425 -0.0762861 -9.77575e-16)
(-16.4287 -0.0834324 -9.87335e-16)
(-16.4329 -0.0917568 -9.98342e-16)
(-16.4378 -0.10146 -1.01116e-15)
(-16.4434 -0.112776 -1.02621e-15)
(-16.4499 -0.125979 -1.04399e-15)
(-16.4573 -0.14139 -1.06396e-15)
(-16.4657 -0.15938 -1.08861e-15)
(-16.4754 -0.180383 -1.11722e-15)
(-16.4863 -0.204903 -1.15158e-15)
(-16.4986 -0.23352 -1.19512e-15)
(-16.5122 -0.266893 -1.24618e-15)
(-16.5272 -0.305758 -1.30604e-15)
(-16.5433 -0.350919 -1.37532e-15)
(-16.5603 -0.403247 -1.46084e-15)
(-16.5776 -0.463617 -1.56943e-15)
(-16.5942 -0.532754 -1.7004e-15)
(-16.5124 0.0267869 1.5685e-15)
(-16.5106 0.027031 1.57357e-15)
(-16.5103 0.0273306 1.57858e-15)
(-16.5103 0.0276429 1.58175e-15)
(-16.5104 0.0279502 1.58552e-15)
(-16.5105 0.0282454 1.5917e-15)
(-16.5106 0.0285243 1.59765e-15)
(-16.5108 0.0287829 1.60349e-15)
(-16.5111 0.029017 1.60953e-15)
(-16.5113 0.0292221 1.61383e-15)
(-16.5116 0.0293932 1.61902e-15)
(-16.5119 0.0295244 1.62665e-15)
(-16.5123 0.0296094 1.63414e-15)
(-16.5127 0.0296404 1.64163e-15)
(-16.5131 0.029609 1.6494e-15)
(-16.5136 0.0295052 1.65549e-15)
(-16.5142 0.0293175 1.66241e-15)
(-16.5149 0.0290328 1.67192e-15)
(-16.5156 0.028636 1.68135e-15)
(-16.5164 0.0281098 1.6909e-15)
(-16.5174 0.0274343 1.70067e-15)
(-16.5184 0.0265866 1.71076e-15)
(-16.5196 0.0255405 1.72123e-15)
(-16.521 0.0242658 1.73217e-15)
(-16.5225 0.0227276 1.74359e-15)
(-16.5243 0.0208859 1.75549e-15)
(-16.5263 0.0186945 1.7699e-15)
(-16.5286 0.0161004 1.78442e-15)
(-16.5312 0.0130423 1.79736e-15)
(-16.5342 0.00944978 1.81154e-15)
(-16.5376 0.0052415 1.82695e-15)
(-16.5416 0.000323485 1.84347e-15)
(-16.5461 -0.00541289 1.86333e-15)
(-16.5514 -0.0120932 1.88416e-15)
(-16.5574 -0.019863 1.90455e-15)
(-16.5644 -0.0288908 1.9274e-15)
(-16.5724 -0.0393724 1.95301e-15)
(-16.5816 -0.0515353 1.9814e-15)
(-16.5922 -0.0656442 2.01521e-15)
(-16.6045 -0.0820077 2.05142e-15)
(-16.6186 -0.100985 2.09021e-15)
(-16.6348 -0.122997 2.13801e-15)
(-16.6533 -0.148534 2.19207e-15)
(-16.6744 -0.178172 2.2515e-15)
(-16.6984 -0.212579 2.32265e-15)
(-16.7254 -0.252517 2.40398e-15)
(-16.7556 -0.298856 2.49981e-15)
(-16.789 -0.352618 2.61538e-15)
(-16.8252 -0.414994 2.75069e-15)
(-16.8633 -0.487119 2.91316e-15)
(-16.285 -0.0408951 -1.9515e-15)
(-16.2866 -0.0414445 -1.96242e-15)
(-16.2867 -0.0420859 -1.97366e-15)
(-16.2865 -0.0427687 -1.98712e-15)
(-16.2862 -0.0434695 -2.00034e-15)
(-16.286 -0.0441838 -2.01148e-15)
(-16.2857 -0.0449119 -2.02335e-15)
(-16.2855 -0.0456556 -2.0357e-15)
(-16.2853 -0.0464173 -2.04845e-15)
(-16.2851 -0.0471997 -2.06336e-15)
(-16.2849 -0.0480058 -2.078e-15)
(-16.2848 -0.0488388 -2.09051e-15)
(-16.2847 -0.0497026 -2.10361e-15)
(-16.2847 -0.0506018 -2.11703e-15)
(-16.2847 -0.0515414 -2.13055e-15)
(-16.2847 -0.0525279 -2.14604e-15)
(-16.2848 -0.0535683 -2.16092e-15)
(-16.285 -0.0546711 -2.17339e-15)
(-16.2853 -0.0558461 -2.18611e-15)
(-16.2857 -0.0571049 -2.19898e-15)
(-16.2861 -0.058461 -2.21178e-15)
(-16.2867 -0.0599299 -2.22459e-15)
(-16.2875 -0.0615299 -2.23723e-15)
(-16.2884 -0.0632823 -2.24985e-15)
(-16.2895 -0.0652118 -2.26229e-15)
(-16.2909 -0.0673471 -2.27485e-15)
(-16.2925 -0.0697219 -2.28533e-15)
(-16.2943 -0.072375 -2.29655e-15)
(-16.2966 -0.0753517 -2.31022e-15)
(-16.2992 -0.0787046 -2.32393e-15)
(-16.3023 -0.082495 -2.33787e-15)
(-16.3059 -0.0867941 -2.35273e-15)
(-16.3101 -0.0916851 -2.36658e-15)
(-16.3151 -0.0972652 -2.3825e-15)
(-16.3208 -0.103648 -2.40251e-15)
(-16.3274 -0.110967 -2.42443e-15)
(-16.3351 -0.119379 -2.44868e-15)
(-16.3441 -0.12907 -2.47603e-15)
(-16.3544 -0.140262 -2.50697e-15)
(-16.3663 -0.153219 -2.5413e-15)
(-16.3801 -0.168261 -2.58143e-15)
(-16.3958 -0.185774 -2.62702e-15)
(-16.4139 -0.206236 -2.68028e-15)
(-16.4345 -0.230238 -2.74505e-15)
(-16.4577 -0.258518 -2.82016e-15)
(-16.4838 -0.291983 -2.90765e-15)
(-16.5128 -0.331738 -3.01013e-15)
(-16.5447 -0.379218 -3.13432e-15)
(-16.5787 -0.436327 -3.28818e-15)
(-16.6133 -0.50511 -3.47396e-15)
(-16.4633 0.0377055 2.38529e-15)
(-16.4629 0.0380553 2.39875e-15)
(-16.4633 0.0385408 2.41278e-15)
(-16.464 0.0390831 2.42531e-15)
(-16.4647 0.0396501 2.43901e-15)
(-16.4655 0.0402287 2.45554e-15)
(-16.4663 0.0408124 2.47227e-15)
(-16.4672 0.0413974 2.48924e-15)
(-16.4681 0.0419808 2.50674e-15)
(-16.4691 0.0425598 2.52272e-15)
(-16.4701 0.0431314 2.5398e-15)
(-16.4712 0.0436926 2.55969e-15)
(-16.4724 0.0442396 2.57956e-15)
(-16.4736 0.0447682 2.59965e-15)
(-16.4749 0.0452735 2.6201e-15)
(-16.4763 0.0457497 2.639e-15)
(-16.4778 0.04619 2.6589e-15)
(-16.4794 0.0465865 2.68171e-15)
(-16.4811 0.0469298 2.7045e-15)
(-16.483 0.0472092 2.72766e-15)
(-16.485 0.047412 2.75123e-15)
(-16.4872 0.0475235 2.77542e-15)
(-16.4896 0.0475266 2.80022e-15)
(-16.4922 0.0474015 2.82582e-15)
(-16.4951 0.0471248 2.8522e-15)
(-16.4983 0.0466697 2.87944e-15)
(-16.5019 0.0460046 2.90962e-15)
(-16.5058 0.0450929 2.94036e-15)
(-16.5102 0.0438919 2.97001e-15)
(-16.5152 0.0423519 3.00157e-15)
(-16.5208 0.0404145 3.03499e-15)
(-16.5271 0.0380116 3.07017e-15)
(-16.5342 0.0350631 3.10933e-15)
(-16.5424 0.0314748 3.14987e-15)
(-16.5516 0.0271354 3.19e-15)
(-16.5622 0.0219131 3.23263e-15)
(-16.5743 0.0156508 3.27747e-15)
(-16.5882 0.0081605 3.32432e-15)
(-16.6041 -0.000784223 3.37536e-15)
(-16.6225 -0.0114583 3.42692e-15)
(-16.6435 -0.0241975 3.47916e-15)
(-16.6678 -0.0394146 3.53764e-15)
(-16.6958 -0.0576221 3.5993e-15)
(-16.7281 -0.0794674 3.6625e-15)
(-16.7653 -0.105774 3.7333e-15)
(-16.808 -0.137563 3.80908e-15)
(-16.857 -0.176051 3.89332e-15)
(-16.9132 -0.222768 3.99022e-15)
(-16.9769 -0.279907 4.09792e-15)
(-17.0469 -0.350265 4.22443e-15)
(-15.6814 -0.0500339 -4.07217e-16)
(-15.6825 -0.0509396 -4.15866e-16)
(-15.6826 -0.05181 -4.24915e-16)
(-15.6825 -0.0527068 -4.36608e-16)
(-15.6825 -0.0536197 -4.47962e-16)
(-15.6825 -0.0545505 -4.57085e-16)
(-15.6825 -0.0555024 -4.67237e-16)
(-15.6825 -0.0564786 -4.77997e-16)
(-15.6825 -0.0574824 -4.89251e-16)
(-15.6826 -0.058517 -5.03166e-16)
(-15.6828 -0.0595861 -5.16792e-16)
(-15.683 -0.0606935 -5.28205e-16)
(-15.6832 -0.0618434 -5.40748e-16)
(-15.6835 -0.0630406 -5.53991e-16)
(-15.6839 -0.0642906 -5.67799e-16)
(-15.6843 -0.0655995 -5.84399e-16)
(-15.6849 -0.0669742 -6.00814e-16)
(-15.6855 -0.068423 -6.15136e-16)
(-15.6863 -0.0699549 -6.30758e-16)
(-15.6872 -0.0715804 -6.47271e-16)
(-15.6882 -0.0733116 -6.64674e-16)