/*--------------------------------*- C++ -*----------------------------------*\
  =========                 |
  \\      /  F ield         | OpenFOAM: The Open Source CFD Toolbox
   \\    /   O peration     | Website:  https://openfoam.org
    \\  /    A nd           | Version:  8
     \\/     M anipulation  |
\*---------------------------------------------------------------------------*/
FoamFile
{
    version     2.0;
    format      ascii;
    class       volScalarField;
    location    "100";
    object      alphat;
}
// * * * * * * * * * * * * * * * * * * * * * * * * * * * * * * * * * * * * * //

dimensions      [1 -1 -1 0 0 0 0];

internalField   nonuniform List<scalar> 
8400
(
0.353622
0.353052
0.352514
0.352012
0.351545
0.35111
0.350707
0.350336
0.349995
0.34968
0.34939
0.349124
0.348879
0.348655
0.348447
0.348255
0.348077
0.347911
0.347757
0.34761
0.347469
0.347329
0.34719
0.347049
0.346905
0.346753
0.346588
0.346405
0.3462
0.345965
0.345702
0.34542
0.345121
0.344799
0.344451
0.344077
0.343677
0.343243
0.342775
0.342268
0.34171
0.341086
0.340375
0.339544
0.338647
0.337691
0.336687
0.335655
0.334619
0.333629
0.109177
0.109707
0.110279
0.110889
0.111534
0.112215
0.112929
0.113675
0.114452
0.115257
0.11609
0.116949
0.117834
0.118741
0.11967
0.120619
0.121588
0.122574
0.123576
0.124592
0.125621
0.12666
0.12771
0.128769
0.129835
0.130909
0.13199
0.13308
0.134181
0.135298
0.136408
0.137477
0.138502
0.139476
0.140395
0.141249
0.142028
0.142726
0.143336
0.143856
0.144294
0.144661
0.144989
0.14532
0.145538
0.145652
0.145661
0.145568
0.145373
0.145085
0.0575207
0.0578813
0.0582613
0.0586604
0.0590784
0.0595156
0.0599719
0.0604472
0.0609409
0.0614525
0.0619822
0.0625297
0.0630946
0.0636761
0.0642736
0.0648869
0.0655154
0.0661583
0.0668146
0.0674831
0.068163
0.068853
0.0695521
0.070259
0.0709722
0.0716898
0.0724103
0.073132
0.0738525
0.0745724
0.0752962
0.0760237
0.0767317
0.0774167
0.078073
0.0786931
0.0792719
0.0798049
0.0802846
0.0807064
0.0810698
0.0813755
0.0816299
0.0818489
0.0820082
0.0820941
0.0821038
0.0820356
0.0818897
0.081669
0.050484
0.0505895
0.0507021
0.0508218
0.0509487
0.0510832
0.0512256
0.0513756
0.0515333
0.051699
0.051873
0.0520555
0.0522464
0.0524456
0.0526533
0.0528696
0.0530946
0.0533281
0.05357
0.0538199
0.0540778
0.0543433
0.0546162
0.0548962
0.0551825
0.0554748
0.0557742
0.0560805
0.056394
0.0567141
0.0570366
0.057359
0.0576793
0.0579958
0.0583057
0.0586062
0.0588945
0.0591673
0.0594216
0.0596553
0.0598668
0.0600561
0.0602251
0.0603781
0.0605235
0.0606321
0.0607084
0.0607527
0.0607625
0.0607406
0.0490658
0.0491024
0.0491417
0.0491837
0.0492287
0.049277
0.0493284
0.0493829
0.0494409
0.0495025
0.0495682
0.049638
0.0497117
0.0497897
0.049872
0.0499591
0.0500508
0.0501474
0.0502489
0.0503556
0.0504675
0.050585
0.0507085
0.050838
0.0509739
0.0511164
0.0512647
0.0514183
0.0515774
0.0517419
0.0519109
0.0520841
0.0522614
0.0524421
0.052626
0.0528125
0.0530006
0.0531896
0.053379
0.0535678
0.0537545
0.0539375
0.0541182
0.0542985
0.0544802
0.0546678
0.0548531
0.055034
0.0552121
0.055386
0.0489632
0.0489906
0.0490196
0.0490502
0.0490828
0.0491175
0.0491542
0.049193
0.0492343
0.0492784
0.0493251
0.0493747
0.0494272
0.0494828
0.0495418
0.0496044
0.0496706
0.0497408
0.0498152
0.0498936
0.0499765
0.0500641
0.0501565
0.0502537
0.0503562
0.0504643
0.0505778
0.050697
0.0508226
0.0509545
0.0510923
0.0512365
0.0513873
0.051545
0.0517099
0.051882
0.0520611
0.0522477
0.0524419
0.0526435
0.0528535
0.0530722
0.0532994
0.0535347
0.0537789
0.0540336
0.0543004
0.0545791
0.0548693
0.0551704
0.0492183
0.0492557
0.0492945
0.0493348
0.0493768
0.0494207
0.0494662
0.0495138
0.0495637
0.0496162
0.0496712
0.0497288
0.0497893
0.0498529
0.0499199
0.0499904
0.0500645
0.0501425
0.0502244
0.0503106
0.0504013
0.0504967
0.050597
0.0507024
0.0508134
0.05093
0.0510524
0.0511815
0.0513175
0.05146
0.0516094
0.0517666
0.051932
0.052106
0.0522888
0.0524806
0.0526821
0.0528942
0.0531177
0.0533527
0.0535992
0.0538577
0.0541302
0.0544164
0.0547171
0.0550331
0.0553622
0.0557053
0.0560664
0.0564459
0.0496697
0.0497211
0.049774
0.0498287
0.0498853
0.0499439
0.0500046
0.0500677
0.0501333
0.0502015
0.0502724
0.0503461
0.0504229
0.0505032
0.050587
0.0506745
0.0507659
0.0508613
0.0509609
0.051065
0.051174
0.0512878
0.0514067
0.0515311
0.0516611
0.051797
0.0519395
0.0520891
0.0522455
0.0524087
0.0525797
0.052759
0.0529469
0.0531441
0.0533508
0.0535675
0.0537955
0.0540349
0.0542858
0.0545498
0.0548278
0.05512
0.0554266
0.0557495
0.0560881
0.0564438
0.0568167
0.057203
0.0576008
0.0580181
0.0501744
0.0502427
0.0503127
0.0503846
0.0504586
0.0505347
0.0506131
0.050694
0.0507775
0.0508636
0.0509524
0.0510444
0.0511397
0.0512386
0.0513412
0.0514476
0.051558
0.0516726
0.0517916
0.0519152
0.0520437
0.0521771
0.0523158
0.05246
0.0526098
0.0527659
0.0529287
0.0530983
0.0532743
0.0534575
0.0536487
0.0538483
0.0540566
0.0542741
0.0545011
0.054738
0.0549859
0.0552458
0.0555178
0.0558014
0.0560992
0.0564116
0.0567383
0.0570796
0.057438
0.0578113
0.0582021
0.0586105
0.0590292
0.0594564
0.0507044
0.0507886
0.0508747
0.050963
0.0510532
0.0511456
0.0512403
0.0513376
0.0514374
0.0515399
0.0516453
0.0517539
0.051866
0.0519815
0.0521007
0.0522238
0.0523511
0.0524823
0.0526178
0.052758
0.0529028
0.0530525
0.0532075
0.0533677
0.0535336
0.0537057
0.053884
0.0540683
0.0542592
0.0544574
0.0546632
0.0548768
0.0550986
0.055329
0.0555688
0.0558182
0.0560767
0.0563459
0.0566271
0.0569199
0.0572242
0.0575414
0.0578722
0.0582169
0.0585752
0.0589473
0.059333
0.0597337
0.0601483
0.0605701
0.051172
0.0512716
0.0513729
0.0514761
0.051581
0.0516881
0.0517976
0.0519096
0.0520241
0.0521411
0.0522611
0.0523842
0.0525103
0.0526398
0.0527731
0.0529102
0.0530509
0.0531953
0.053344
0.053497
0.0536544
0.0538165
0.0539836
0.0541556
0.054333
0.054516
0.0547043
0.0548982
0.0550983
0.055305
0.0555185
0.0557394
0.055968
0.0562034
0.0564462
0.0566983
0.0569602
0.0572308
0.0575104
0.0578013
0.0581013
0.058412
0.0587327
0.0590652
0.059409
0.0597632
0.0601275
0.0605015
0.0608849
0.0612781
0.0515426
0.0516547
0.0517684
0.0518836
0.0520004
0.0521193
0.0522407
0.0523642
0.05249
0.0526183
0.0527493
0.0528831
0.0530198
0.0531597
0.0533032
0.0534499
0.0535997
0.0537533
0.0539109
0.0540722
0.0542376
0.0544075
0.0545818
0.0547607
0.0549442
0.0551323
0.0553252
0.0555235
0.0557275
0.0559372
0.0561528
0.0563744
0.0566018
0.056836
0.0570771
0.0573249
0.0575804
0.0578427
0.0581125
0.0583897
0.0586748
0.0589678
0.0592691
0.0595771
0.0598918
0.0602142
0.0605431
0.0608778
0.0612162
0.0615593
0.0517526
0.0518745
0.0519975
0.0521218
0.0522478
0.0523758
0.0525057
0.0526374
0.0527712
0.0529073
0.0530459
0.0531868
0.0533304
0.053477
0.0536266
0.0537789
0.0539344
0.0540934
0.0542557
0.0544213
0.0545908
0.0547642
0.0549415
0.0551229
0.0553084
0.0554982
0.055692
0.0558902
0.0560931
0.0563007
0.0565135
0.0567314
0.0569534
0.0571802
0.0574127
0.0576508
0.0578928
0.0581401
0.0583941
0.0586525
0.0589151
0.059181
0.0594522
0.059727
0.0600046
0.0602846
0.0605655
0.0608484
0.0611303
0.0614112
0.0517684
0.0518961
0.0520245
0.0521543
0.0522857
0.0524185
0.0525527
0.0526883
0.0528259
0.0529657
0.0531075
0.0532514
0.0533977
0.0535466
0.0536981
0.0538522
0.0540093
0.0541693
0.0543322
0.0544983
0.054668
0.0548413
0.0550181
0.0551984
0.0553825
0.0555695
0.0557598
0.0559545
0.0561534
0.0563556
0.0565612
0.056771
0.0569849
0.0572015
0.0574212
0.0576458
0.0578719
0.0580999
0.0583317
0.0585642
0.0587986
0.0590349
0.0592697
0.0595043
0.0597369
0.0599661
0.0601917
0.060413
0.0606275
0.0608351
0.0515311
0.0516603
0.0517903
0.0519215
0.0520537
0.0521866
0.0523205
0.052456
0.0525933
0.0527326
0.0528734
0.0530159
0.0531609
0.0533084
0.053458
0.0536101
0.0537652
0.0539231
0.0540838
0.0542478
0.0544153
0.0545857
0.0547593
0.0549364
0.0551165
0.0552993
0.0554856
0.0556754
0.0558683
0.0560644
0.0562624
0.0564626
0.0566652
0.0568691
0.0570753
0.0572823
0.0574901
0.0576973
0.0579051
0.0581127
0.0583137
0.0585141
0.0587106
0.0589004
0.0590845
0.0592593
0.0594245
0.0595786
0.05972
0.0598459
0.050976
0.0511017
0.051228
0.051355
0.0514823
0.0516101
0.0517387
0.051869
0.0520012
0.0521348
0.0522696
0.0524065
0.052546
0.0526876
0.0528312
0.052978
0.0531282
0.053281
0.0534372
0.0535974
0.0537607
0.0539271
0.0540976
0.0542717
0.054448
0.0546275
0.054811
0.0549973
0.055186
0.0553763
0.055568
0.055762
0.0559565
0.0561504
0.0563445
0.0565372
0.0567262
0.0569157
0.0570992
0.0572774
0.057452
0.0576169
0.0577737
0.0579193
0.0580527
0.0581706
0.0582739
0.0583579
0.0584212
0.0584614
0.0499862
0.0501014
0.0502169
0.0503325
0.0504478
0.0505634
0.0506803
0.0507993
0.0509196
0.0510408
0.0511638
0.0512897
0.051418
0.0515484
0.0516823
0.0518206
0.0519624
0.0521083
0.0522593
0.0524145
0.0525729
0.0527362
0.0529052
0.0530782
0.0532542
0.0534358
0.0536221
0.0538096
0.0540007
0.0541945
0.0543867
0.0545794
0.0547732
0.0549635
0.0551517
0.0553383
0.0555159
0.0556903
0.0558619
0.0560196
0.0561679
0.0563041
0.0564249
0.0565294
0.0566173
0.0566837
0.0567266
0.0567432
0.0567312
0.0566866
0.0484374
0.0485337
0.0486294
0.0487241
0.0488184
0.0489131
0.0490093
0.0491069
0.0492047
0.0493034
0.0494051
0.0495099
0.0496167
0.0497272
0.0498429
0.0499629
0.0500877
0.0502192
0.0503569
0.0504996
0.050649
0.0508076
0.0509733
0.0511427
0.0513195
0.0515047
0.0516922
0.051885
0.0520842
0.0522879
0.0524929
0.0526948
0.0529024
0.0531031
0.0532981
0.0534941
0.0536811
0.053859
0.0540257
0.05418
0.0543187
0.0544431
0.0545447
0.0546235
0.0546755
0.0547004
0.0546924
0.0546487
0.0545646
0.0544382
0.0465686
0.0466269
0.0466837
0.0467376
0.0467897
0.0468414
0.0468926
0.046941
0.0469867
0.0470329
0.0470804
0.0471272
0.0471741
0.0472233
0.0472735
0.0473248
0.0473815
0.0474452
0.0475137
0.0475883
0.0476749
0.0477727
0.0478754
0.0479923
0.048127
0.0482649
0.0484222
0.0486007
0.0487809
0.0489782
0.0491992
0.0494238
0.0496295
0.0498584
0.0500771
0.0502889
0.0505191
0.0507353
0.0509369
0.0511205
0.0512799
0.0514221
0.0515332
0.0516106
0.0516533
0.0516514
0.0516097
0.0515124
0.0513673
0.0511563
0.0514048
0.0509195
0.0504419
0.0499692
0.0495079
0.0490594
0.0486185
0.0481833
0.0477601
0.0473511
0.0469509
0.0465585
0.0461785
0.0458083
0.0454481
0.045109
0.0447958
0.0444993
0.0442164
0.0439638
0.043737
0.0434972
0.0432702
0.0430653
0.0427831
0.0425066
0.0423128
0.0422265
0.0426499
0.0436265
0.0443727
0.0441951
0.0453616
0.0451115
0.0453254
0.0455029
0.0460046
0.0465244
0.0471505
0.0476562
0.0481173
0.0484967
0.0488394
0.0491547
0.04951
0.0498893
0.050289
0.0506912
0.0510632
0.0513985
1.08355
1.06874
1.05457
1.04098
1.0279
1.01527
1.00302
0.991132
0.979585
0.968363
0.957453
0.946843
0.936521
0.926478
0.916702
0.907185
0.897918
0.888892
0.880098
0.87153
0.863178
0.855038
0.8471
0.839359
0.831809
0.824443
0.817255
0.81024
0.803393
0.796709
0.790182
0.78381
0.777588
0.771511
0.765578
0.759783
0.754124
0.748599
0.743193
0.73789
0.732683
0.727565
0.722529
0.717566
0.712663
0.707807
0.702975
0.698129
0.693203
0.688066
1.07683
1.05217
1.0286
1.00603
0.984433
0.963767
0.944008
0.925101
0.906992
0.889634
0.87298
0.856988
0.841619
0.826837
0.81261
0.798906
0.785696
0.772955
0.760658
0.748781
0.737303
0.726204
0.715465
0.705068
0.694996
0.685234
0.675767
0.666581
0.657663
0.649001
0.640582
0.632397
0.624433
0.61668
0.609126
0.601761
0.594574
0.587554
0.580702
0.574027
0.567521
0.561176
0.554987
0.548947
0.543049
0.537288
0.531656
0.526143
0.52074
0.51543
1.0768
1.05207
1.02837
1.00568
0.983959
0.963155
0.943215
0.924088
0.905725
0.888079
0.871109
0.854777
0.839047
0.823886
0.809263
0.79515
0.781521
0.768352
0.755619
0.743302
0.73138
0.719835
0.70865
0.697807
0.687293
0.67709
0.667188
0.657571
0.648229
0.639149
0.630322
0.621738
0.613387
0.605261
0.597352
0.589652
0.582153
0.574849
0.567731
0.560793
0.55403
0.547436
0.541006
0.534736
0.528621
0.522658
0.516843
0.511175
0.505649
0.500263
1.0768
1.05225
1.02876
1.00628
0.984749
0.964104
0.944294
0.925267
0.906979
0.889387
0.872454
0.856143
0.840421
0.825257
0.810624
0.796493
0.782839
0.769641
0.756875
0.744521
0.73256
0.720973
0.709744
0.698857
0.688296
0.678047
0.668097
0.658432
0.649043
0.639916
0.631042
0.622412
0.614015
0.605844
0.59789
0.590144
0.5826
0.57525
0.568088
0.561106
0.554299
0.547661
0.541187
0.534873
0.528714
0.522708
0.516849
0.511136
0.505565
0.500132
1.0768
1.05225
1.02875
1.00625
0.984681
0.963998
0.94415
0.92509
0.906775
0.889163
0.872216
0.855898
0.840175
0.825014
0.810387
0.796267
0.782627
0.769443
0.756694
0.744358
0.732415
0.720848
0.709639
0.698771
0.68823
0.678
0.668068
0.658422
0.64905
0.639941
0.631083
0.622469
0.614087
0.60593
0.597989
0.590256
0.582724
0.575385
0.568232
0.561258
0.554458
0.547826
0.541357
0.535046
0.528889
0.522881
0.517019
0.5113
0.505719
0.500271
1.0768
1.05227
1.0288
1.00633
0.984805
0.96417
0.944371
0.925358
0.907087
0.889516
0.872605
0.856318
0.840621
0.825483
0.810875
0.796769
0.78314
0.769965
0.757221
0.744888
0.732947
0.72138
0.710169
0.699298
0.688752
0.678516
0.668579
0.658926
0.649546
0.640428
0.631562
0.622937
0.614546
0.606378
0.598426
0.590681
0.583136
0.575784
0.568617
0.561629
0.554814
0.548166
0.54168
0.53535
0.529173
0.523143
0.517258
0.511512
0.505902
0.500422
1.0768
1.05227
1.0288
1.00634
0.984818
0.964179
0.944372
0.925349
0.907066
0.889481
0.872556
0.856256
0.840547
0.825397
0.810779
0.796664
0.783028
0.769847
0.757098
0.744762
0.732819
0.72125
0.710039
0.699168
0.688624
0.67839
0.668455
0.658805
0.649428
0.640313
0.631451
0.62283
0.614442
0.606278
0.598329
0.590588
0.583046
0.575696
0.568531
0.561545
0.55473
0.548082
0.541595
0.535263
0.529082
0.523048
0.517156
0.511402
0.50578
0.500287
1.0768
1.05227
1.02881
1.00635
0.984839
0.964209
0.944412
0.925401
0.90713
0.889558
0.872647
0.856359
0.840662
0.825525
0.810917
0.796812
0.783186
0.770013
0.757272
0.744942
0.733004
0.721439
0.710231
0.699363
0.68882
0.678587
0.668652
0.659001
0.649623
0.640506
0.631641
0.623016
0.614624
0.606455
0.598501
0.590753
0.583203
0.575845
0.568672
0.561675
0.55485
0.54819
0.541689
0.535343
0.529146
0.523094
0.517183
0.511407
0.505761
0.500242
1.0768
1.05227
1.02881
1.00636
0.984845
0.964217
0.944421
0.925409
0.907137
0.889562
0.872647
0.856355
0.840654
0.825511
0.810898
0.796789
0.783157
0.769979
0.757233
0.744899
0.732957
0.721389
0.710177
0.699306
0.688761
0.678526
0.668589
0.658936
0.649556
0.640438
0.631572
0.622946
0.614552
0.606382
0.598425
0.590675
0.583124
0.575763
0.568586
0.561586
0.554756
0.548091
0.541585
0.535232
0.529027
0.522965
0.517043
0.511254
0.505594
0.500059
1.0768
1.05227
1.02881
1.00636
0.984849
0.964222
0.944428
0.925418
0.907148
0.889575
0.872663
0.856374
0.840675
0.825535
0.810925
0.796818
0.783189
0.770013
0.75727
0.744938
0.732997
0.721431
0.710221
0.699351
0.688806
0.678571
0.668634
0.658981
0.649601
0.640482
0.631614
0.622986
0.61459
0.606416
0.598456
0.590702
0.583146
0.575779
0.568596
0.561589
0.554751
0.548077
0.541561
0.535196
0.528979
0.522904
0.516965
0.511159
0.505481
0.499924
1.0768
1.05227
1.02881
1.00636
0.984848
0.964222
0.944427
0.925418
0.907147
0.889575
0.872663
0.856374
0.840674
0.825534
0.810924
0.796817
0.783187
0.770011
0.757267
0.744934
0.732994
0.721426
0.710215
0.699345
0.688799
0.678564
0.668626
0.658972
0.64959
0.640469
0.631599
0.622969
0.614571
0.606394
0.59843
0.590672
0.583111
0.57574
0.568551
0.561537
0.554692
0.54801
0.541484
0.53511
0.528881
0.522793
0.51684
0.511018
0.505322
0.499747
1.0768
1.05227
1.02881
1.00636
0.984845
0.964216
0.94442
0.925409
0.907136
0.889562
0.872646
0.856354
0.840652
0.825509
0.810896
0.796785
0.783152
0.769973
0.757226
0.74489
0.732947
0.721377
0.710163
0.699291
0.688743
0.678506
0.668566
0.65891
0.649527
0.640405
0.631533
0.622901
0.6145
0.606321
0.598355
0.590594
0.58303
0.575655
0.568461
0.561443
0.554592
0.547904
0.541371
0.534989
0.528751
0.522653
0.516688
0.510853
0.505142
0.49955
1.0768
1.05227
1.02881
1.00635
0.984838
0.964208
0.944411
0.9254
0.907129
0.889557
0.872645
0.856357
0.84066
0.825521
0.810912
0.796806
0.783177
0.770002
0.757259
0.744926
0.732985
0.721418
0.710206
0.699335
0.688788
0.678551
0.668611
0.658955
0.649571
0.640447
0.631572
0.622938
0.614533
0.60635
0.598379
0.590612
0.583041
0.575659
0.568457
0.56143
0.55457
0.547871
0.541327
0.534932
0.52868
0.522566
0.516584
0.51073
0.504998
0.499384
1.0768
1.05227
1.0288
1.00634
0.984817
0.964178
0.944371
0.925348
0.907065
0.88948
0.872555
0.856254
0.840543
0.825392
0.810772
0.796655
0.783017
0.769833
0.757082
0.744743
0.732796
0.721224
0.710008
0.699133
0.688584
0.678345
0.668404
0.658746
0.649361
0.640237
0.631363
0.622728
0.614324
0.606141
0.59817
0.590403
0.582832
0.575449
0.568246
0.561218
0.554356
0.547655
0.541107
0.534708
0.528451
0.522331
0.516342
0.510478
0.504736
0.499108
1.0768
1.05227
1.0288
1.00633
0.984804
0.964169
0.944369
0.925357
0.907086
0.889514
0.872603
0.856315
0.840617
0.825477
0.810866
0.796757
0.783125
0.769946
0.757199
0.744862
0.732916
0.721343
0.710127
0.69925
0.688697
0.678455
0.668509
0.658846
0.649456
0.640325
0.631443
0.622801
0.614389
0.606197
0.598216
0.590439
0.582857
0.575463
0.568249
0.561207
0.554332
0.547617
0.541055
0.534639
0.528365
0.522226
0.516216
0.51033
0.504563
0.498909
1.0768
1.05225
1.02875
1.00625
0.98468
0.963997
0.944148
0.925088
0.906773
0.889161
0.872214
0.855894
0.840169
0.825007
0.810378
0.796254
0.782611
0.769423
0.75667
0.744329
0.732382
0.720809
0.709594
0.698719
0.688171
0.677933
0.667992
0.658336
0.648951
0.639827
0.630952
0.622317
0.613911
0.605725
0.597751
0.58998
0.582404
0.575015
0.567805
0.560769
0.553898
0.547185
0.540625
0.534211
0.527937
0.521797
0.515785
0.509895
0.504123
0.498461
1.0768
1.05225
1.02876
1.00628
0.984747
0.964103
0.944292
0.925265
0.906977
0.889385
0.87245
0.856138
0.840414
0.825248
0.810612
0.796477
0.78282
0.769617
0.756845
0.744486
0.732519
0.720926
0.70969
0.698795
0.688225
0.677967
0.668006
0.658329
0.648924
0.639781
0.630887
0.622234
0.61381
0.605607
0.597616
0.589828
0.582236
0.574832
0.567608
0.560558
0.553674
0.546949
0.540378
0.533954
0.527671
0.521524
0.515507
0.509616
0.503847
0.498196
1.0768
1.05207
1.02836
1.00568
0.983957
0.963153
0.943213
0.924086
0.905722
0.888076
0.871106
0.854773
0.839041
0.823877
0.809252
0.795135
0.781503
0.768329
0.755592
0.74327
0.731343
0.719794
0.708603
0.697755
0.687235
0.677027
0.667117
0.657494
0.648144
0.639056
0.630219
0.621623
0.613258
0.605116
0.597188
0.589466
0.581942
0.574609
0.567461
0.56049
0.553692
0.54706
0.540591
0.534279
0.528122
0.522118
0.516266
0.51057
0.505037
0.499684
1.07683
1.05216
1.0286
1.00603
0.984431
0.963765
0.944007
0.9251
0.906993
0.889636
0.872982
0.856991
0.841623
0.826842
0.812616
0.798913
0.785705
0.772966
0.760672
0.7488
0.737328
0.726238
0.715509
0.705126
0.695072
0.685331
0.675891
0.666736
0.657856
0.649239
0.640874
0.632752
0.624864
0.617201
0.609757
0.602525
0.595498
0.588673
0.582044
0.575608
0.569363
0.563308
0.557443
0.551772
0.546298
0.541032
0.535992
0.531206
0.526733
0.522688
1.08355
1.06874
1.05457
1.04098
1.0279
1.01527
1.00302
0.99113
0.979582
0.96836
0.957449
0.946837
0.936513
0.926466
0.916687
0.907166
0.897893
0.888861
0.880061
0.871485
0.863125
0.854974
0.847025
0.839271
0.831705
0.824321
0.817113
0.810074
0.8032
0.796483
0.78992
0.783504
0.777231
0.771096
0.765094
0.75922
0.753468
0.747836
0.742317
0.736906
0.7316
0.726392
0.721277
0.716249
0.711303
0.706431
0.701627
0.69688
0.69218
0.68751
0.461024
0.234918
0.186771
0.181769
0.178503
0.177716
0.175329
0.174017
0.171905
0.170178
0.168289
0.166266
0.164546
0.162258
0.160718
0.158216
0.157503
0.158986
0.197727
0.393039
0.461486
0.235823
0.187773
0.182803
0.179528
0.178723
0.176318
0.174982
0.172864
0.171121
0.169226
0.167193
0.165467
0.163174
0.161629
0.159113
0.158379
0.15979
0.198306
0.393031
0.46197
0.236733
0.18877
0.183828
0.180544
0.17972
0.1773
0.17594
0.173817
0.172057
0.170155
0.168112
0.166381
0.164082
0.162533
0.160004
0.15925
0.160595
0.198891
0.393003
0.462454
0.237652
0.189764
0.184847
0.181554
0.18071
0.178274
0.176892
0.174763
0.172986
0.171078
0.169025
0.167288
0.164984
0.163432
0.160889
0.160117
0.161401
0.199491
0.392983
0.462972
0.238581
0.190755
0.185858
0.182557
0.181693
0.179243
0.177837
0.175703
0.173909
0.171994
0.169932
0.16819
0.16588
0.164324
0.161768
0.160981
0.162206
0.200108
0.392987
0.463525
0.239525
0.191745
0.186865
0.183555
0.182668
0.180206
0.178778
0.176637
0.174827
0.172906
0.170834
0.169087
0.166771
0.165212
0.162642
0.16184
0.163012
0.200743
0.393024
0.464115
0.240482
0.192733
0.187865
0.184547
0.183637
0.181164
0.179712
0.177566
0.17574
0.173813
0.171732
0.169979
0.167657
0.166095
0.163512
0.162697
0.163819
0.201399
0.393101
0.464742
0.241454
0.19372
0.188861
0.185534
0.184599
0.182118
0.180642
0.178491
0.176649
0.174715
0.172626
0.170868
0.168539
0.166974
0.164376
0.163551
0.164628
0.202076
0.393222
0.465405
0.242439
0.194706
0.189851
0.186516
0.185554
0.183068
0.181568
0.179411
0.177555
0.175614
0.173516
0.171753
0.169416
0.167848
0.165237
0.164403
0.16544
0.202775
0.393388
0.466103
0.243439
0.195691
0.190836
0.187494
0.186505
0.184014
0.182491
0.180329
0.178457
0.17651
0.174402
0.172634
0.170289
0.16872
0.166094
0.165253
0.166253
0.203494
0.393601
0.466835
0.244452
0.196675
0.191817
0.188467
0.187451
0.184957
0.183411
0.181243
0.179356
0.177403
0.175285
0.173512
0.171159
0.169588
0.166949
0.166102
0.167069
0.204234
0.393861
0.467597
0.245479
0.197659
0.192793
0.189438
0.188394
0.185897
0.184328
0.182154
0.180253
0.178293
0.176165
0.174387
0.172026
0.170453
0.1678
0.166949
0.167888
0.204994
0.394166
0.468388
0.24652
0.198643
0.193766
0.190404
0.189334
0.186834
0.185243
0.183063
0.181146
0.17918
0.177042
0.17526
0.172891
0.171317
0.168649
0.167795
0.168708
0.205772
0.394516
0.469205
0.247574
0.199627
0.194735
0.191368
0.190272
0.18777
0.186155
0.183969
0.182038
0.180065
0.177917
0.176131
0.173753
0.172178
0.169497
0.168641
0.169531
0.206569
0.39491
0.470044
0.248642
0.200612
0.195701
0.19233
0.191207
0.188702
0.187066
0.184874
0.182929
0.180949
0.178792
0.177001
0.174614
0.173039
0.170343
0.169486
0.170358
0.207383
0.395347
0.470901
0.249724
0.201598
0.196664
0.193289
0.19214
0.189634
0.187975
0.185778
0.183818
0.181833
0.179665
0.177871
0.175475
0.173899
0.171188
0.170332
0.171187
0.208215
0.395829
0.471775
0.250822
0.202584
0.197625
0.194248
0.193073
0.190564
0.188884
0.186681
0.184707
0.182717
0.180539
0.178741
0.176335
0.174758
0.172034
0.171178
0.172021
0.209064
0.396351
0.47266
0.251935
0.203573
0.198584
0.195206
0.194005
0.191493
0.189793
0.187584
0.185597
0.183601
0.181413
0.179611
0.177196
0.175619
0.17288
0.172026
0.17286
0.209931
0.396915
0.473555
0.253065
0.204565
0.199542
0.196164
0.194936
0.192423
0.190703
0.188488
0.186487
0.184485
0.182287
0.180482
0.178058
0.17648
0.173727
0.172877
0.173704
0.210814
0.397516
0.474455
0.254213
0.20556
0.2005
0.197123
0.195868
0.193352
0.191613
0.189392
0.187379
0.185371
0.183163
0.181354
0.17892
0.177343
0.174576
0.173729
0.174553
0.211713
0.398152
0.475355
0.255378
0.206557
0.201458
0.198082
0.196801
0.194283
0.192524
0.190298
0.188272
0.186258
0.18404
0.182228
0.179784
0.178207
0.175427
0.174584
0.175408
0.212627
0.398822
0.476251
0.256563
0.207558
0.202415
0.199042
0.197735
0.195214
0.193437
0.191205
0.189166
0.187147
0.18492
0.183104
0.180651
0.179074
0.17628
0.175443
0.176268
0.213556
0.399522
0.477137
0.257769
0.208563
0.203373
0.200005
0.19867
0.196148
0.194353
0.192115
0.190064
0.188039
0.185802
0.183983
0.18152
0.179943
0.177137
0.176305
0.177134
0.2145
0.40025
0.478008
0.258995
0.209571
0.204332
0.200968
0.199608
0.197083
0.195271
0.193028
0.190964
0.188934
0.186687
0.184865
0.182393
0.180817
0.177998
0.177171
0.178007
0.215458
0.401004
0.478858
0.260245
0.210584
0.205293
0.201934
0.200548
0.198021
0.196191
0.193943
0.191867
0.189833
0.187576
0.185751
0.18327
0.181694
0.178862
0.178041
0.178887
0.21643
0.401779
0.479683
0.261521
0.211601
0.206257
0.202901
0.20149
0.198961
0.197115
0.194861
0.192774
0.190735
0.188469
0.186641
0.184152
0.182575
0.179732
0.178916
0.179773
0.217415
0.402575
0.480478
0.262825
0.212624
0.207225
0.203871
0.202435
0.199903
0.198041
0.195783
0.193684
0.191641
0.189366
0.187536
0.185038
0.183462
0.180606
0.179795
0.180667
0.218415
0.403386
0.481237
0.264159
0.213654
0.208195
0.204843
0.203382
0.200849
0.198971
0.196708
0.194599
0.192552
0.190268
0.188437
0.18593
0.184353
0.181485
0.18068
0.181569
0.219428
0.40421
0.481955
0.265527
0.214692
0.209168
0.205817
0.204333
0.201798
0.199905
0.197639
0.195518
0.193468
0.191176
0.189342
0.186827
0.185249
0.182371
0.18157
0.182478
0.220455
0.405045
0.482657
0.266883
0.21574
0.210144
0.206795
0.205289
0.202751
0.200844
0.198574
0.196444
0.194391
0.19209
0.190254
0.18773
0.186151
0.183262
0.182466
0.183395
0.221497
0.405887
0.483369
0.268179
0.216796
0.211123
0.207777
0.206249
0.20371
0.201789
0.199516
0.197375
0.195319
0.19301
0.191171
0.188639
0.187058
0.184159
0.183369
0.184322
0.222554
0.406735
0.484095
0.269407
0.217862
0.212107
0.208764
0.207215
0.204675
0.20274
0.200464
0.198314
0.196254
0.193937
0.192095
0.189554
0.187972
0.185064
0.184278
0.185258
0.223628
0.407584
0.484831
0.270577
0.218937
0.213095
0.209755
0.208187
0.205646
0.203698
0.201419
0.199259
0.197195
0.19487
0.193025
0.190477
0.188894
0.185977
0.185195
0.186204
0.224718
0.408432
0.48558
0.271698
0.220011
0.214087
0.210752
0.209165
0.206624
0.204663
0.202381
0.20021
0.198144
0.19581
0.193962
0.191407
0.189822
0.186898
0.18612
0.187159
0.225827
0.409275
0.486339
0.272783
0.22108
0.215085
0.211755
0.210149
0.207608
0.205634
0.203349
0.201169
0.199099
0.196758
0.194908
0.192346
0.190759
0.187827
0.187052
0.188125
0.226953
0.410109
0.487108
0.273832
0.222146
0.216087
0.212763
0.21114
0.208598
0.206611
0.204324
0.202135
0.200062
0.197714
0.195861
0.193292
0.191703
0.188765
0.187993
0.1891
0.2281
0.410931
0.487886
0.274852
0.223209
0.217096
0.213778
0.212137
0.209595
0.207596
0.205307
0.203109
0.201034
0.198678
0.196823
0.194248
0.192656
0.189712
0.188941
0.190086
0.229268
0.411737
0.488675
0.275847
0.224269
0.21811
0.214799
0.213142
0.210599
0.208589
0.206298
0.204091
0.202014
0.199651
0.197793
0.195213
0.193617
0.190668
0.189898
0.191082
0.230459
0.412525
0.489474
0.27682
0.225327
0.219131
0.215826
0.214153
0.211611
0.20959
0.207297
0.205082
0.203003
0.200634
0.198773
0.196187
0.194587
0.191634
0.190864
0.192089
0.231674
0.41329
0.490282
0.277773
0.226384
0.220157
0.216861
0.215172
0.212631
0.210599
0.208305
0.206083
0.204001
0.201626
0.199762
0.197171
0.195566
0.192609
0.191839
0.193108
0.232917
0.41403
0.491099
0.278711
0.22744
0.221191
0.217903
0.216199
0.21366
0.211617
0.209323
0.207092
0.205008
0.202627
0.20076
0.198164
0.196555
0.193595
0.192824
0.194138
0.234177
0.414749
0.491924
0.279636
0.228496
0.222231
0.218952
0.217235
0.214697
0.212643
0.210349
0.208111
0.206025
0.203638
0.201768
0.199167
0.197553
0.194591
0.193819
0.195179
0.235396
0.415482
0.492757
0.28055
0.229553
0.223279
0.22001
0.218279
0.215743
0.213679
0.211384
0.209139
0.207051
0.204659
0.202785
0.200181
0.198561
0.195598
0.194823
0.196232
0.236558
0.416238
0.493598
0.281457
0.230612
0.224334
0.221076
0.219332
0.216798
0.214725
0.21243
0.210177
0.208088
0.205689
0.203813
0.201205
0.199579
0.196616
0.195838
0.197298
0.237678
0.417012
0.494447
0.28236
0.231675
0.225398
0.222152
0.220394
0.217863
0.21578
0.213485
0.211225
0.209134
0.206731
0.20485
0.202239
0.200608
0.197645
0.196863
0.198375
0.238761
0.417805
0.495304
0.283261
0.232742
0.226471
0.223237
0.221467
0.218938
0.216846
0.214551
0.212284
0.210191
0.207783
0.205899
0.203285
0.201647
0.198685
0.197899
0.199466
0.239813
0.418615
0.496169
0.284162
0.233814
0.227554
0.224332
0.222549
0.220023
0.217921
0.215627
0.213353
0.211259
0.208846
0.206958
0.204342
0.202697
0.199737
0.198946
0.200569
0.240842
0.419443
0.497043
0.285063
0.234892
0.228645
0.225437
0.223641
0.221119
0.219008
0.216714
0.214434
0.212338
0.209921
0.208029
0.205411
0.203758
0.2008
0.200003
0.201675
0.241861
0.420286
0.497925
0.285964
0.235975
0.229746
0.226552
0.224743
0.222225
0.220105
0.217812
0.215525
0.213428
0.211007
0.209111
0.206492
0.204831
0.201876
0.201073
0.202784
0.242874
0.421146
0.498815
0.286868
0.237066
0.230856
0.227676
0.225856
0.223341
0.221213
0.21892
0.216628
0.21453
0.212104
0.210205
0.207584
0.205915
0.202964
0.202154
0.203898
0.243886
0.422021
0.499713
0.287775
0.238164
0.231977
0.228811
0.226979
0.224469
0.222332
0.220041
0.217743
0.215642
0.213214
0.21131
0.208688
0.207011
0.204064
0.203246
0.205016
0.244897
0.422911
0.500617
0.288687
0.23927
0.233107
0.229957
0.228113
0.225608
0.223462
0.221172
0.218869
0.216767
0.214335
0.212426
0.209804
0.208118
0.205177
0.20435
0.206141
0.245911
0.423816
0.501529
0.289605
0.240385
0.234248
0.231114
0.229259
0.226758
0.224604
0.222315
0.220006
0.217903
0.215468
0.213555
0.210933
0.209238
0.206303
0.205465
0.207272
0.246929
0.424734
0.502449
0.290532
0.24151
0.235401
0.232283
0.230416
0.22792
0.225758
0.223471
0.221156
0.219051
0.216613
0.214696
0.212074
0.21037
0.207441
0.206593
0.20841
0.247952
0.425667
0.503377
0.291467
0.242646
0.236565
0.233463
0.231585
0.229094
0.226923
0.224638
0.222318
0.220212
0.217771
0.215849
0.213228
0.211516
0.208591
0.207733
0.209557
0.248982
0.426613
0.504315
0.292409
0.243793
0.237741
0.234656
0.232766
0.230281
0.228101
0.225818
0.223493
0.221385
0.218942
0.217015
0.214395
0.212674
0.209755
0.208885
0.210712
0.250019
0.427574
0.505261
0.29336
0.24495
0.238928
0.23586
0.233959
0.231479
0.229292
0.22701
0.22468
0.222571
0.220126
0.218195
0.215576
0.213847
0.210931
0.21005
0.211878
0.251067
0.42855
0.506216
0.294318
0.246118
0.240126
0.237076
0.235163
0.23269
0.230495
0.228215
0.225881
0.223771
0.221323
0.219387
0.21677
0.215033
0.212121
0.211228
0.213054
0.252125
0.42954
0.507178
0.295286
0.247298
0.241336
0.238304
0.23638
0.233913
0.231711
0.229434
0.227095
0.224984
0.222534
0.220593
0.217977
0.216233
0.213325
0.21242
0.214242
0.253195
0.430543
0.508147
0.296263
0.248489
0.242559
0.239544
0.23761
0.23515
0.23294
0.230665
0.228322
0.22621
0.223758
0.221812
0.219199
0.217447
0.214542
0.213626
0.215441
0.254276
0.431562
0.509125
0.297252
0.249694
0.243794