/*--------------------------------*- C++ -*----------------------------------*\
  =========                 |
  \\      /  F ield         | OpenFOAM: The Open Source CFD Toolbox
   \\    /   O peration     | Website:  https://openfoam.org
    \\  /    A nd           | Version:  8
     \\/     M anipulation  |
\*---------------------------------------------------------------------------*/
FoamFile
{
    version     2.0;
    format      ascii;
    class       volScalarField;
    location    "100";
    object      epsilon;
}
// * * * * * * * * * * * * * * * * * * * * * * * * * * * * * * * * * * * * * //

dimensions      [0 2 -3 0 0 0 0];

internalField   nonuniform List<scalar> 
8400
(
2.42723
2.40976
2.39275
2.37634
2.36061
2.34556
2.33119
2.3175
2.30448
2.29213
2.28042
2.26936
2.25891
2.24907
2.2398
2.23108
2.22289
2.21518
2.20793
2.20111
2.1947
2.18865
2.18295
2.17753
2.17237
2.16743
2.16268
2.15808
2.1536
2.14919
2.14481
2.14042
2.13599
2.13148
2.12684
2.12205
2.11706
2.11184
2.10636
2.1006
2.09455
2.08819
2.08157
2.07472
2.0677
2.06066
2.05385
2.04764
2.04252
2.03926
0.0629477
0.0633138
0.0637589
0.0642807
0.064879
0.0655544
0.0663076
0.0671393
0.0680503
0.0690417
0.0701142
0.0712687
0.072506
0.0738269
0.0752322
0.0767226
0.0782985
0.0799604
0.081709
0.0835446
0.0854677
0.0874782
0.0895756
0.0917592
0.0940284
0.0963823
0.0988196
0.101339
0.103937
0.106612
0.109359
0.112176
0.115057
0.117998
0.120993
0.124033
0.127113
0.130223
0.133355
0.136498
0.139643
0.14278
0.145899
0.148991
0.152046
0.155062
0.158042
0.160995
0.163946
0.166946
0.00980791
0.00991177
0.0100255
0.0101494
0.0102838
0.010429
0.0105854
0.0107533
0.0109331
0.0111253
0.0113302
0.0115483
0.0117799
0.0120254
0.0122854
0.0125603
0.0128505
0.0131563
0.0134783
0.0138169
0.0141724
0.0145452
0.0149355
0.0153437
0.0157699
0.0162143
0.0166769
0.0171578
0.0176567
0.0181734
0.0187073
0.019258
0.0198249
0.0204068
0.0210026
0.0216109
0.02223
0.0228583
0.0234935
0.0241332
0.024775
0.0254164
0.0260542
0.0266856
0.0273079
0.0279188
0.0285165
0.0290996
0.0296689
0.030227
0.00724035
0.00726353
0.00728905
0.00731696
0.00734735
0.00738032
0.00741595
0.00745435
0.00749562
0.00753988
0.00758722
0.00763775
0.0076916
0.0077489
0.00780978
0.00787435
0.00794273
0.00801504
0.00809141
0.00817196
0.00825682
0.00834607
0.00843979
0.00853809
0.00864105
0.00874871
0.00886113
0.00897833
0.00910027
0.00922687
0.00935811
0.00949402
0.00963449
0.00977933
0.0099283
0.0100811
0.0102376
0.0103972
0.0105595
0.0107239
0.0108898
0.0110564
0.0112232
0.0113896
0.011555
0.0117189
0.0118806
0.0120397
0.0121961
0.0123494
0.00680718
0.00681482
0.00682316
0.00683226
0.00684216
0.0068529
0.00686453
0.00687709
0.00689063
0.0069052
0.00692086
0.00693765
0.00695565
0.00697493
0.00699557
0.00701761
0.00704113
0.00706618
0.00709284
0.00712121
0.00715133
0.00718328
0.00721714
0.00725298
0.00729089
0.00733093
0.00737321
0.00741778
0.00746469
0.00751404
0.00756592
0.00762032
0.00767724
0.00773666
0.0077986
0.00786308
0.00793011
0.00799966
0.00807174
0.00814639
0.0082237
0.00830364
0.00838582
0.00847018
0.0085568
0.00864548
0.00873612
0.00882867
0.008923
0.00901904
0.00677822
0.0067854
0.00679292
0.00680085
0.00680921
0.00681802
0.00682734
0.00683719
0.00684764
0.00685871
0.00687044
0.00688288
0.00689609
0.00691013
0.00692505
0.0069409
0.00695772
0.00697559
0.00699457
0.00701474
0.00703617
0.00705892
0.00708308
0.00710872
0.00713592
0.00716478
0.00719539
0.00722782
0.00726214
0.00729849
0.00733698
0.00737771
0.00742075
0.00746619
0.00751414
0.00756475
0.00761814
0.00767439
0.00773364
0.00779603
0.0078617
0.00793076
0.00800337
0.00807978
0.00816009
0.00824434
0.00833266
0.00842507
0.00852167
0.00862244
0.00684698
0.00685884
0.00687106
0.00688363
0.00689659
0.00690997
0.0069238
0.00693812
0.00695298
0.00696841
0.00698444
0.00700114
0.00701857
0.0070368
0.00705585
0.0070758
0.00709671
0.00711866
0.00714172
0.00716597
0.00719149
0.00721834
0.00724664
0.00727646
0.0073079
0.00734107
0.00737606
0.00741295
0.00745188
0.00749299
0.00753644
0.00758231
0.00763074
0.00768187
0.00773588
0.00779295
0.00785323
0.0079169
0.00798417
0.00805528
0.0081304
0.00820972
0.0082935
0.00838198
0.00847531
0.00857376
0.0086778
0.00878736
0.00890277
0.00902415
0.00698688
0.00700492
0.00702333
0.00704213
0.00706136
0.00708105
0.00710126
0.00712204
0.00714343
0.00716548
0.00718826
0.00721182
0.00723622
0.00726151
0.00728775
0.007315
0.00734335
0.00737289
0.0074037
0.00743584
0.00746941
0.00750449
0.00754119
0.00757961
0.00761986
0.00766203
0.00770623
0.00775256
0.0078012
0.00785232
0.00790605
0.00796251
0.00802184
0.00808423
0.0081499
0.00821907
0.00829188
0.00836855
0.00844935
0.00853455
0.0086243
0.00871889
0.0088187
0.00892385
0.00903462
0.00915127
0.00927405
0.00940369
0.00954011
0.00968371
0.00714627
0.00717171
0.00719758
0.0072239
0.00725072
0.00727809
0.00730606
0.00733469
0.00736402
0.00739413
0.00742507
0.0074569
0.00748969
0.00752347
0.00755831
0.0075943
0.00763154
0.00767012
0.00771011
0.00775159
0.00779467
0.00783943
0.00788597
0.00793441
0.00798487
0.00803742
0.00809218
0.00814933
0.00820904
0.00827145
0.00833667
0.00840484
0.00847616
0.00855084
0.0086291
0.00871112
0.00879709
0.00888728
0.00898197
0.00908137
0.00918566
0.00929525
0.00941047
0.00953161
0.00965859
0.00979203
0.00993173
0.0100781
0.0102321
0.0103939
0.00732324
0.0073561
0.00738948
0.00742341
0.00745792
0.00749307
0.00752888
0.00756542
0.00760276
0.00764096
0.00768007
0.00772017
0.00776129
0.00780349
0.00784685
0.00789148
0.00793747
0.0079849
0.00803384
0.0080844
0.00813665
0.00819069
0.00824663
0.00830458
0.00836466
0.00842695
0.00849161
0.00855882
0.00862871
0.00870138
0.00877696
0.00885563
0.00893762
0.00902314
0.00911237
0.00920549
0.00930271
0.00940424
0.00951041
0.0096214
0.00973743
0.00985887
0.00998578
0.0101186
0.0102574
0.0104028
0.0105546
0.0107127
0.0108775
0.0110501
0.00747893
0.00751935
0.00756032
0.00760187
0.00764404
0.00768689
0.00773046
0.0077748
0.00781998
0.00786608
0.00791312
0.00796117
0.00801027
0.0080605
0.00811195
0.00816473
0.0082189
0.00827455
0.00833175
0.00839059
0.00845116
0.00851354
0.00857786
0.00864421
0.00871271
0.00878346
0.00885664
0.00893237
0.00901075
0.00909189
0.00917596
0.00926314
0.00935363
0.00944761
0.00954521
0.00964659
0.00975199
0.00986166
0.00997578
0.0100944
0.0102181
0.0103469
0.0104812
0.0106208
0.010766
0.0109172
0.0110745
0.0112378
0.0114071
0.0115821
0.00760259
0.00764961
0.00769726
0.00774553
0.00779446
0.00784407
0.0078944
0.00794553
0.00799751
0.00805038
0.00810419
0.00815898
0.00821482
0.0082718
0.00833
0.00838951
0.00845039
0.00851272
0.00857657
0.00864203
0.00870917
0.00877809
0.0088489
0.0089217
0.00899659
0.0090737
0.00915315
0.00923503
0.00931946
0.00940656
0.00949648
0.00958935
0.00968537
0.0097847
0.00988744
0.00999371
0.0101038
0.0102178
0.0103358
0.0104582
0.0105849
0.0107161
0.0108521
0.0109929
0.0111386
0.0112892
0.0114448
0.0116054
0.011771
0.0119411
0.00766476
0.00771723
0.00777031
0.00782401
0.00787833
0.00793332
0.00798902
0.00804549
0.00810276
0.00816086
0.00821983
0.00827975
0.00834069
0.00840272
0.00846591
0.00853033
0.00859604
0.00866312
0.00873165
0.00880169
0.00887332
0.00894663
0.00902173
0.00909871
0.00917767
0.00925871
0.00934195
0.00942749
0.00951542
0.00960581
0.0096988
0.00979457
0.00989328
0.00999493
0.0100996
0.0102075
0.0103188
0.0104335
0.0105515
0.0106733
0.0107987
0.0109281
0.0110611
0.011198
0.0113386
0.011483
0.0116309
0.0117822
0.0119367
0.0120942
0.00765258
0.0077086
0.00776521
0.0078224
0.00788015
0.00793852
0.00799753
0.00805721
0.00811758
0.00817869
0.00824059
0.00830337
0.0083671
0.00843181
0.00849757
0.00856445
0.00863251
0.00870184
0.00877251
0.00884457
0.00891811
0.00899323
0.00907003
0.00914857
0.00922895
0.0093113
0.00939571
0.00948222
0.00957087
0.00966177
0.00975508
0.0098509
0.00994929
0.0100503
0.0101539
0.0102603
0.0103695
0.0104814
0.0105962
0.0107139
0.0108343
0.0109575
0.0110835
0.011212
0.0113429
0.0114761
0.0116112
0.011748
0.011886
0.0120249
0.00754172
0.00759886
0.00765654
0.00771468
0.00777331
0.00783245
0.00789211
0.00795232
0.0080131
0.0080745
0.00813663
0.00819954
0.00826327
0.00832786
0.0083934
0.00845994
0.00852756
0.00859634
0.00866635
0.00873767
0.00881044
0.00888474
0.00896063
0.00903818
0.00911752
0.00919878
0.00928193
0.00936698
0.00945403
0.00954325
0.00963472
0.00972845
0.00982437
0.00992247
0.0100228
0.0101254
0.0102304
0.0103374
0.0104463
0.0105574
0.0106707
0.0107851
0.0109014
0.0110188
0.011137
0.011256
0.0113749
0.0114937
0.0116118
0.0117287
0.00730995
0.00736525
0.0074209
0.00747688
0.00753321
0.00758992
0.007647
0.00770446
0.00776237
0.00782083
0.0078799
0.00793963
0.00800005
0.00806126
0.00812331
0.00818628
0.00825028
0.0083154
0.00838173
0.00844941
0.00851859
0.0085893
0.0086616
0.00873568
0.00881165
0.00888953
0.00896929
0.00905106
0.00913496
0.00922099
0.00930909
0.00939923
0.0094914
0.00958558
0.00968175
0.00977994
0.00987959
0.00998083
0.0100835
0.0101874
0.0102923
0.0103976
0.0105031
0.0106087
0.0107137
0.0108177
0.01092
0.0110202
0.0111177
0.0112118
0.00692059
0.00697003
0.00701964
0.00706943
0.00711943
0.00716962
0.00721999
0.0072706
0.00732156
0.00737296
0.00742484
0.00747725
0.00753027
0.007584
0.00763853
0.007694
0.00775053
0.00780827
0.0078674
0.0079281
0.00799046
0.00805457
0.0081206
0.00818876
0.00825912
0.00833166
0.0084065
0.00848371
0.00856324
0.00864511
0.00872941
0.00881598
0.00890464
0.00899524
0.00908768
0.00918193
0.00927759
0.00937412
0.00947121
0.00956996
0.00966837
0.00976684
0.00986431
0.00996031
0.0100547
0.0101463
0.0102348
0.0103194
0.0103995
0.0104745
0.00634854
0.00638854
0.00642846
0.00646835
0.00650823
0.00654808
0.00658792
0.00662785
0.00666797
0.00670831
0.00674889
0.00678981
0.00683118
0.00687311
0.00691576
0.00695931
0.00700394
0.00704985
0.00709728
0.0071464
0.00719733
0.00725033
0.00730569
0.00736357
0.00742399
0.00748709
0.00755304
0.00762179
0.00769328
0.0077677
0.007845
0.00792472
0.00800674
0.0080915
0.00817872
0.00826713
0.00835807
0.00845109
0.00854419
0.00863871
0.00873303
0.00882747
0.00892119
0.00901294
0.00910226
0.009188
0.00926982
0.00934667
0.00941797
0.00948293
0.00578954
0.00581689
0.00584421
0.00587154
0.00589872
0.00592565
0.00595233
0.00597881
0.00600504
0.00603093
0.00605645
0.0060816
0.00610642
0.00613102
0.00615552
0.00617999
0.00620448
0.00622913
0.00625412
0.00627958
0.00630573
0.00633294
0.00636151
0.0063916
0.00642358
0.00645772
0.00649376
0.00653184
0.00657282
0.00661635
0.00666175
0.0067104
0.00676212
0.00681543
0.00687322
0.0069332
0.00699562
0.00706294
0.00713438
0.0072091
0.00728576
0.00736545
0.0074472
0.00753071
0.00761349
0.00769417
0.00777268
0.00784866
0.00792235
0.00799462
0.00976233
0.00946189
0.00917302
0.00889338
0.00862359
0.00836366
0.00811355
0.00787299
0.00764146
0.00741854
0.00720405
0.00699778
0.00679954
0.00660918
0.00642632
0.0062504
0.00608116
0.00591836
0.00576141
0.00560963
0.00546288
0.00532092
0.00518332
0.00505126
0.00492866
0.00482146
0.00474362
0.00472615
0.00479825
0.00487586
0.00494409
0.00504473
0.00513463
0.00519236
0.00524658
0.00533347
0.00540956
0.00548557
0.00554899
0.00561115
0.00566906
0.00572519
0.00577966
0.00583024
0.00587566
0.0059131
0.00594055
0.00595588
0.0059582
0.00594653
73.1772
70.2177
67.4608
64.8855
62.4699
60.195
58.0428
56.0034
54.0686
52.2316
50.4859
48.8259
47.2464
45.7424
44.3095
42.9436
41.6408
40.3974
39.2102
38.076
36.9917
35.9548
34.9627
34.0128
33.1031
32.2313
31.3956
30.594
29.8249
29.0867
28.3778
27.6969
27.0425
26.4135
25.8087
25.227
24.6674
24.1289
23.6097
23.1076
22.6217
22.1508
21.6939
21.2499
20.8174
20.3948
19.98
19.5697
19.1584
18.7356
71.8241
67.0004
62.5981
58.5673
54.8759
51.4922
48.3897
45.5402
42.9181
40.5009
38.2686
36.2038
34.2907
32.5154
30.8656
29.3301
27.8991
26.5637
25.3158
24.1484
23.0548
22.0291
21.0662
20.161
19.3093
18.5071
17.7506
17.0366
16.3621
15.7242
15.1203
14.5482
14.0056
13.4903
13.0005
12.5345
12.0906
11.6672
11.2636
10.8795
10.5136
10.1649
9.83225
9.51473
9.21141
8.9214
8.64382
8.37779
8.12236
7.8764
71.8183
66.982
62.5556
58.5062
54.7968
51.3942
48.268
45.3909
42.7384
40.2889
38.0232
35.9245
33.9774
32.1685
30.4858
28.9185
27.4568
26.092
24.8162
23.6223
22.5037
21.4548
20.4701
19.5448
18.6745
17.8552
17.0832
16.3552
15.6681
15.019
14.4054
13.8249
13.2754
12.7547
12.2612
11.7931
11.3487
10.9267
10.5257
10.1444
9.78172
9.43655
9.10791
8.7949
8.49666
8.21242
7.94143
7.68303
7.43659
7.20149
71.8184
67.0163
62.6276
58.6113
54.9289
51.5464
48.4338
45.5648
42.9162
40.4672
38.1996
36.0969
34.1445
32.3294
30.6399
29.0652
27.596
26.2236
24.9401
23.7387
22.6128
21.5567
20.5651
19.6331
18.7564
17.931
17.1531
16.4196
15.7272
15.0731
14.4548
13.8699
13.3162
12.7916
12.2943
11.8226
11.3749
10.9496
10.5456
10.1614
9.79596
9.44818
9.11707
8.80169
8.5012
8.21479
7.94172
7.68131
7.43288
7.19582
71.8184
67.0171
62.6267
58.6058
54.9176
51.5293
48.4116
45.5387
42.8872
40.4366
38.1684
36.0659
34.1145
32.3009
30.6131
29.0405
27.5735
26.2034
24.9223
23.7231
22.5995
21.5455
20.5559
19.6259
18.751
17.9272
17.151
16.4188
15.7277
15.0749
14.4576
13.8737
13.3209
12.7971
12.3005
11.8293
11.3821
10.9573
10.5536
10.1697
9.80443
9.45677
9.12569
8.81026
8.50963
8.22299
7.94958
7.6887
7.43967
7.20185
71.8184
67.0197
62.6344
58.6198
54.9384
51.5569
48.4456
45.5783
42.9316
40.4848
38.2195
36.1191
34.169
32.356
30.6684
29.0955
27.6278
26.2567
24.9744
23.7739
22.6488
21.5932
20.602
19.6703
18.7937
17.9683
17.1903
16.4565
15.7637
15.1093
14.4905
13.905
13.3507
12.8254
12.3274
11.8549
11.4063
10.9801
10.5751
10.1899
9.82334
9.47439
9.14203
8.82532
8.52337
8.23539
7.9606
7.69828
7.44776
7.20836
71.8184
67.0203
62.6359
58.6219
54.9405
51.5583
48.4458
45.5769
42.9285
40.48
38.213
36.1112
34.1599
32.3459
30.6575
29.084
27.616
26.2447
24.9623
23.7619
22.6369
21.5816
20.5907
19.6594
18.7832
17.9582
17.1807
16.4474
15.7551
15.1012
14.4828
13.8978
13.3439
12.819
12.3214
11.8492
11.4009
10.9751
10.5703
10.1853
9.8189
9.47006
9.13776
8.82104
8.51903
8.23092
7.95592
7.69331
7.44242
7.20256
71.8184
67.0206
62.637
58.6241
54.9439
51.5631
48.452
45.5846
42.9377
40.4906
38.2249
36.1243
34.174
32.3609
30.6732
29.1003
27.6327
26.2617
24.9795
23.7791
22.6541
21.5986
20.6075
19.6758
18.7993
17.9739
17.1959
16.4621
15.7693
15.1148
14.4959
13.9103
13.3557
12.8302
12.332
11.8591
11.4102
10.9836
10.5781
10.1924
9.82529
9.47569
9.14258
8.82503
8.52215
8.23312
7.95716
7.69354
7.44158
7.20061
71.8184
67.0208
62.6374
58.6249
54.945
51.5643
48.4533
45.5858
42.9386
40.4911
38.2249
36.1238
34.1729
32.3593
30.6711
29.0977
27.6297
26.2582
24.9757
23.775
22.6498
21.5941
20.6028
19.6711
18.7945
17.969
17.191
16.4572
15.7644
15.1099
14.4911
13.9055
13.351
12.8255
12.3273
11.8545
11.4055
10.9789
10.5734
10.1876
9.82035
9.4706
9.13731
8.81954
8.51639
8.22704
7.95071
7.68666
7.43422
7.19272
71.8184
67.0208
62.6376
58.6252
54.9456
51.5651
48.4544
45.5871
42.9401
40.4929
38.227
36.1261
34.1755
32.3621
30.6742
29.101
27.6331
26.2618
24.9794
23.7788
22.6535
21.5979
20.6066
19.6748
18.7982
17.9726
17.1945
16.4606
15.7677
15.113
14.4939
13.9081
13.3534
12.8277
12.3292
11.8561
11.4068
10.9799
10.574
10.1878
9.82012
9.46992
9.13615
8.81784
8.51412
8.22415
7.94716
7.68241
7.42921
7.1869
71.8184
67.0208
62.6376
58.6252
54.9456
51.5651
48.4543
45.587
42.9401
40.4928
38.227
36.126
34.1755
32.3621
30.6741
29.1009
27.6329
26.2616
24.9792
23.7785
22.6532
21.5976
20.6062
19.6744
18.7976
17.972
17.1939
16.4598
15.7668
15.112
14.4929
13.907
13.3521
12.8262
12.3275
11.8542
11.4047
10.9776
10.5714
10.185
9.81701
9.46647
9.13232
8.81359
8.50941
8.21894
7.9414
7.67606
7.42223
7.17925
71.8184
67.0207
62.6374
58.6248
54.9449
51.5642
48.4532
45.5857
42.9385
40.491
38.2248
36.1236
34.1727
32.3591
30.6708
29.0974
27.6292
26.2577
24.9751
23.7743
22.6489
21.5932
20.6017
19.6698
18.793
17.9674
17.1892
16.4552
15.7622
15.1074
14.4883
13.9023
13.3475
12.8216
12.3228
11.8495
11.4
10.9728
10.5665
10.1799
9.81177
9.46104
9.12666
8.80767
8.50318
8.21236
7.93441
7.66862
7.41429
7.17077
71.8184
67.0206
62.6369
58.624
54.9438
51.5629
48.4518
45.5844
42.9375
40.4903
38.2246
36.124
34.1736
32.3605
30.6727
29.0997
27.6319
26.2608
24.9784
23.7778
22.6526
21.5969
20.6055
19.6736
18.7968
17.971
17.1927
16.4585
15.7653
15.1103
14.4909
13.9047
13.3495
12.8233
12.3243
11.8506
11.4006
10.973
10.5663
10.1793
9.81065
9.4594
9.12446
8.80489
8.49977
8.20828
7.92963
7.66308
7.40796
7.1636
71.8184
67.0202
62.6357
58.6217
54.9403
51.558
48.4455
45.5767
42.9283
40.4797
38.2127
36.1108
34.1594
32.3454
30.6568
29.0832
27.615
26.2435
24.961
23.7603
22.6351
21.5795
20.5883
19.6566
18.78
17.9546
17.1767
16.4429
15.7501
15.0954
14.4764
13.8906
13.3359
12.81
12.3113
11.838
11.3884
10.961
10.5546
10.1678
9.79935
9.44825
9.11342
8.7939
8.48879
8.19725
7.91848
7.65176
7.3964
7.15174
71.8184
67.0196
62.6342
58.6195
54.9381
51.5566
48.4453
45.578
42.9313
40.4844
38.219
36.1186
34.1684
32.3553
30.6675
29.0944
27.6265
26.2551
24.9725
23.7717
22.6462
21.5903
20.5986
19.6664
18.7893
17.9634
17.1848
16.4503
15.7569
15.1016
14.4819
13.8955
13.34
12.8135
12.3141
11.8401
11.3899
10.9619
10.5548
10.1673
9.79816
9.44636
9.11081
8.79055
8.48467
8.19232
7.91271
7.64511
7.38881
7.14316
71.8184
67.017
62.6265
58.6055
54.9173
51.5289
48.4112
45.5383
42.8868
40.4362
38.1679
36.0654
34.1139
32.3001
30.6121
29.0394
27.5721
26.2017
24.9203
23.7208
22.5967
21.5423
20.5523
19.6217
18.7463
17.9219
17.145
16.4121
15.7201
15.0663
14.4481
13.863
13.3089
12.7836
12.2854
11.8125
11.3633
10.9363
10.5301
10.1435
9.77516
9.42408
9.08918
8.76949
8.4641
8.17218
7.89292
7.62558
7.36948
7.12395
71.8184
67.0162
62.6273
58.611
54.9286
51.546
48.4334
45.5644
42.9158
40.4667
38.199
36.0962
34.1437
32.3285
30.6387
29.0638
27.5942
26.2215
24.9377
23.7358
22.6095
21.5528
20.5607
19.6281
18.7507
17.9246
17.146
16.4115
15.7182
15.0631
14.4436
13.8574
13.3023
12.7761
12.2771
11.8034
11.3535
10.9259
10.5192
10.1321
9.76336
9.41193
9.07675
8.75685
8.45133
8.15937
7.88018
7.61306
7.35738
7.11258
71.8182
66.9819
62.5554
58.5059
54.7964
51.3937
48.2676
45.3904
42.7379
40.2884
38.0227
35.9238
33.9766
32.1676
30.4847
28.9172
27.4552
26.0901
24.814
23.6197
22.5008
21.4515
20.4663
19.5406
18.6699
17.8501
17.0777
16.3491
15.6615
15.0119
14.3977
13.8166
13.2664
12.7451
12.2507
11.7817
11.3363
10.9132
10.511
10.1284
9.76434
9.41768
9.08748
8.77285
8.47301
8.18725
7.91501
7.65585
7.40961
7.17648
71.8241
67.0003
62.5979
58.567
54.8755
51.4918
48.3894
45.5399
42.9179
40.5009
38.2688
36.2041
34.2912
32.5161
30.8664
29.3312
27.9004
26.5653
25.3178
24.1508
23.0577
22.0327
21.0705
20.1663
19.3158
18.5149
17.7602
17.0482
16.376
15.7408
15.1402
14.5719
14.0337
13.5238
13.0405
12.582
12.147
11.7341
11.3422
10.9701
10.6169
10.2818
9.96398
9.66288
9.37811
9.10947
8.85716
8.62197
8.40595
8.21374
73.1772
70.2176
67.4606
64.8853
62.4697
60.1949
58.0427
56.0031
54.0682
52.231
50.4852
48.8249
47.2451
45.7407
44.3075
42.941
41.6376
40.3936
39.2056
38.0704
36.9851
35.947
34.9535
34.0022
33.0907
32.217
31.3791
30.575
29.8031
29.0617
28.3491
27.664
27.0049
26.3704
25.7594
25.1707
24.603
24.0554
23.5267
23.016
22.5222
22.0446
21.5821
21.1338
20.6989
20.2764
19.8654
19.4649
19.0736
18.6901
5.61973
0.714982
0.348602
0.31687
0.299865
0.296119
0.285159
0.279374
0.269639
0.261922
0.253272
0.244234
0.236586
0.226598
0.220152
0.210311
0.209351
0.220985
0.447983
3.62202
5.63431
0.722615
0.354985
0.323339
0.306122
0.302257
0.29104
0.285065
0.275136
0.267231
0.258431
0.249224
0.241448
0.231302
0.224728
0.214664
0.213449
0.224558
0.450899
3.62084
5.64831
0.730382
0.361419
0.329841
0.312406
0.308417
0.296943
0.290773
0.280652
0.272557
0.263607
0.254231
0.246325
0.236022
0.229322
0.219037
0.217576
0.22818
0.453868
3.61819
5.66225
0.738316
0.36791
0.33638
0.318723
0.314602
0.302871
0.296502
0.286191
0.277904
0.268804
0.259258
0.251223
0.240763
0.233937
0.223435
0.221734
0.231854
0.456942
3.61483
5.67644
0.746438
0.37446
0.342955
0.325071
0.320812
0.308825
0.302252
0.291753
0.283271
0.274021
0.264306
0.256141
0.245524
0.238573
0.227855
0.225924
0.235582
0.460152
3.61128
5.69117
0.754758
0.381068
0.349565
0.331452
0.327047
0.314804
0.308023
0.297338
0.28866
0.27926
0.269374
0.261079
0.250304
0.243231
0.232297
0.230144
0.239362
0.463519
3.60788
5.70658
0.763284
0.387734
0.356212
0.337864
0.333306
0.320808
0.313815
0.302947
0.294071
0.284521
0.274464
0.266038
0.255104
0.24791
0.236761
0.234396
0.243195
0.467054
3.60483
5.72284
0.772023
0.394459
0.362894
0.344307
0.33959
0.326839
0.319632
0.30858
0.299505
0.289803
0.279574
0.271018
0.259925
0.252611
0.241248
0.23868
0.247082
0.470765
3.60229
5.74004
0.78098
0.401244
0.369613
0.350784
0.345899
0.332897
0.325471
0.314238
0.304962
0.295109
0.284706
0.27602
0.264766
0.257334
0.245758
0.242995
0.251023
0.474659
3.60039
5.75826
0.790157
0.40809
0.376368
0.357294
0.352233
0.338985
0.331337
0.319922
0.310443
0.300439
0.289862
0.281045
0.269629
0.26208
0.25029
0.247343
0.255017
0.478739
3.59925
5.77758
0.799559
0.414998
0.38316
0.363839
0.358592
0.345103
0.337228
0.325633
0.315951
0.305793
0.295041
0.286093
0.274515
0.26685
0.254846
0.251723
0.259065
0.48301
3.59893
5.79805
0.809189
0.421968
0.38999
0.370419
0.364979
0.351253
0.343147
0.331372
0.321486
0.311174
0.300247
0.291167
0.279424
0.271645
0.259426
0.256137
0.263168
0.487473
3.59953
5.81971
0.819051
0.429003
0.396859
0.377035
0.371393
0.357435
0.349096
0.337142
0.327049
0.316583
0.305479
0.296267
0.284357
0.276467
0.264032
0.260586
0.267326
0.492132
3.6011
5.84257
0.829145
0.436103
0.403765
0.38369
0.377838
0.363652
0.355077
0.342943
0.332643
0.322022
0.310739
0.301396
0.289317
0.281316
0.268665
0.26507
0.271539
0.496988
3.6037
5.86662
0.839476
0.443269
0.410711
0.390382
0.384313
0.369905
0.36109
0.348777
0.338268
0.327492
0.316029
0.306554
0.294305
0.286194
0.273326
0.269591
0.27581
0.502044
3.60737
5.89186
0.850044
0.450501
0.417697
0.397115
0.390821
0.376195
0.367138
0.354646
0.343928
0.332995
0.321351
0.311744
0.299322
0.291103
0.278017
0.274151
0.280139
0.507298
3.61215
5.91826
0.860853
0.457803
0.424725
0.403888
0.397366
0.382525
0.373223
0.360552
0.349622
0.338533
0.326706
0.316967
0.304371
0.296045
0.282739
0.27875
0.284526
0.512752
3.61805
5.94578
0.871908
0.465174
0.431795
0.410706
0.403948
0.388896
0.379347
0.366496
0.355355
0.344108
0.332096
0.322226
0.309453
0.301021
0.287494
0.28339
0.288973
0.518404
3.62509
5.97437
0.883213
0.472619
0.43891
0.417569
0.410571
0.39531
0.385512
0.372482
0.361127
0.349722
0.337525
0.327522
0.314571
0.306034
0.292285
0.288072
0.293482
0.524257
3.63329
6.00397
0.894774
0.480139
0.446071
0.424481
0.417237
0.40177
0.391721
0.378511
0.366942
0.355379
0.342994
0.33286
0.319727
0.311086
0.297113
0.292799
0.298054
0.530308
3.64264
6.03451
0.9066
0.487737
0.453282
0.431444
0.42395
0.408278
0.397978
0.384586
0.372803
0.36108
0.348507
0.33824
0.324923
0.31618
0.30198
0.297573
0.302691
0.53656
3.65314
6.06592
0.918699
0.495417
0.460544
0.438461
0.430711
0.414837
0.404284
0.390711
0.378712
0.36683
0.354065
0.343666
0.330163
0.321317
0.30689
0.302395
0.307395
0.543012
3.66479
6.09808
0.931079
0.503181
0.467859
0.445537
0.437525
0.42145
0.410643
0.396887
0.384672
0.372629
0.359673
0.34914
0.335449
0.326501
0.311845
0.307269
0.312168
0.549664
3.67756
6.13091
0.943752
0.511032
0.475232
0.452672
0.444395
0.428119
0.417058
0.403119
0.390687
0.378483
0.365332
0.354666
0.340784
0.331735
0.316848
0.312197
0.317014
0.556516
3.69143
6.16428
0.956731
0.518974
0.482664
0.459872
0.451324
0.434848
0.423532
0.409409
0.396759
0.384393
0.371046
0.360247
0.346172
0.337022
0.321903
0.317182
0.321934
0.56357
3.70639
6.19805
0.970028
0.52701
0.490159
0.467139
0.458315
0.44164
0.430068
0.415761
0.402891
0.390363
0.376819
0.365886
0.351615
0.342365
0.327013
0.322227
0.326932
0.570825
3.72238
6.23209
0.98366
0.535143
0.497722
0.474475
0.465371
0.448498
0.436669
0.422178
0.409087
0.396397
0.382653
0.371587
0.357119
0.347767
0.33218
0.327334
0.33201
0.578283
3.73939
6.26622
0.997645
0.543377
0.505355
0.481883
0.472496
0.455425
0.44334
0.428663
0.415351
0.402498
0.388553
0.377353
0.362685
0.353233
0.33741
0.332507
0.337172
0.585946
3.75736
6.3003
1.012
0.551716
0.513063
0.489366
0.479693
0.462424
0.450083
0.43522
0.421686
0.408669
0.394523
0.383188
0.368319
0.358764
0.342704
0.337748
0.342421
0.593814
3.77625
6.33413
1.02676
0.560165
0.52085
0.496927
0.486967
0.4695
0.456902
0.441853
0.428097
0.414916
0.400566
0.389095
0.374023
0.364366
0.348068
0.343062
0.347759
0.601891
3.796
6.36755
1.04194
0.568733
0.528718
0.504571
0.49432
0.476656
0.463801
0.448566
0.434586
0.421241
0.406686
0.395079
0.379802
0.370042
0.353505
0.348452
0.353191
0.610178
3.81656
6.4006
1.05746
0.577424
0.536672
0.512299
0.501758
0.483896
0.470784
0.455363
0.441158
0.427648
0.412887
0.401143
0.38566
0.375795
0.359018
0.353919
0.35872
0.618678
3.83787
6.43344
1.07318
0.586245
0.544714
0.520118
0.509284
0.491225
0.477855
0.462248
0.447817
0.434143
0.419173
0.407292
0.391599
0.381629
0.364611
0.359469
0.364349
0.627397
3.85985
6.46616
1.08902
0.595204
0.552849
0.528029
0.516904
0.498646
0.48502
0.469225
0.454568
0.440728
0.425549
0.413529
0.397626
0.387547
0.370289
0.365104
0.370081
0.636339
3.88244
6.49884
1.10487
0.604308
0.561081
0.536039
0.524621
0.506166
0.492282
0.4763
0.461416
0.447409
0.432018
0.419858
0.403743
0.393555
0.376055
0.370829
0.375922
0.645509
3.90557
6.53157
1.12071
0.613542
0.569414
0.544152
0.532441
0.513788
0.499647
0.483477
0.468364
0.454189
0.438586
0.426284
0.409955
0.399655
0.381914
0.376646
0.381874
0.654916
3.92916
6.5644
1.13647
0.622901
0.577853
0.552371
0.540368
0.521517
0.507118
0.49076
0.475417
0.461074
0.445256
0.432811
0.416267
0.405853
0.387871
0.38256
0.387941
0.664567
3.95312
6.59741
1.15214
0.63238
0.586402
0.560702
0.548407
0.529358
0.5147
0.498153
0.482579
0.468067
0.452033
0.439443
0.422683
0.412152
0.393929
0.388574
0.394128
0.674473
3.97738
6.63062
1.16769
0.641975
0.595066
0.569149
0.556562
0.537315
0.522398
0.505662
0.489855
0.475173
0.458922
0.446186
0.429209
0.418557
0.400093
0.394693
0.400438
0.684646
4.00184
6.6641
1.18311
0.651681
0.603847
0.577716
0.564838
0.545392
0.530215
0.51329
0.49725
0.482398
0.465928
0.453044
0.435847
0.425072
0.406367
0.40092
0.406877
0.695098
4.02641
6.69786
1.1984
0.661496
0.612752
0.586408
0.57324
0.553595
0.538158
0.521044
0.504769
0.489745
0.473055
0.460021
0.442604
0.431702
0.412757
0.40726
0.413447
0.705845
4.05101
6.73195
1.21354
0.671421
0.621785
0.59523
0.581772
0.561929
0.546231
0.528927
0.512417
0.49722
0.480309
0.467122
0.449484
0.438451
0.419266
0.413717
0.420155
0.716906
4.07553
6.76638
1.22855
0.681454
0.63095
0.604188
0.59044
0.570398
0.554439
0.536946
0.520198
0.504828
0.487693
0.474351
0.456492
0.445323
0.4259
0.420295
0.427004
0.728264
4.09994
6.80118
1.24343
0.691597
0.640253
0.613286
0.599249
0.579009
0.562788
0.545105
0.528119
0.512574
0.495214
0.481714
0.463631
0.452324
0.432663
0.427
0.434
0.739804
4.12444
6.83637
1.2582
0.701852
0.649698
0.622531
0.608205
0.587767
0.571283
0.55341
0.536184
0.520461
0.502876
0.489215
0.470908
0.459457
0.43956
0.433834
0.441146
0.751476
4.14906
6.87195
1.27286
0.712223
0.659292
0.631927
0.617312
0.596678
0.57993
0.561865
0.544397
0.528497
0.510683
0.49686
0.478328
0.466729
0.446597
0.440804
0.448448
0.763221
4.17391
6.90795
1.28744
0.722715
0.669039
0.64148
0.626578
0.605746
0.588733
0.570476
0.552765
0.536684
0.518642
0.504652
0.485895
0.474143
0.453778
0.447914
0.455911
0.775006
4.19903
6.94436
1.30196
0.733332
0.678945
0.651197
0.636006
0.614978
0.597698
0.579249
0.561293
0.54503
0.526756
0.512597
0.493614
0.481704
0.461108
0.455167
0.463541
0.786803
4.22448
6.98122
1.31643
0.744081
0.689018
0.661084
0.645604
0.624379
0.60683
0.588189
0.569986
0.553539
0.535033
0.520701
0.501491
0.489418
0.468591
0.462569
0.471341
0.798599
4.25031
7.01851
1.33087
0.754969
0.699262
0.671146
0.655376
0.633956
0.616136
0.597301
0.57885
0.562217
0.543477
0.528969
0.509531
0.497289
0.476234
0.470125
0.479301
0.810402
4.27656
7.05627
1.34532
0.766002
0.709684
0.681389
0.665329
0.643713
0.625622
0.606592
0.587889
0.571069
0.552093
0.537406
0.517739
0.505323
0.484041
0.477839
0.487421
0.822219
4.30325
7.0945
1.35978
0.777189
0.72029
0.691821
0.675468
0.653656
0.635291
0.616066
0.597111
0.5801
0.560888
0.546017
0.526121
0.513525
0.492017
0.485717
0.4957
0.834062
4.33043
7.13321
1.37427
0.788538
0.731087
0.702446
0.6858
0.663793
0.645152
0.62573
0.606521
0.589317
0.569866
0.554808
0.534682
0.5219
0.500168
0.493762
0.504139
0.845943
4.35811
7.17241
1.38882
0.800055
0.74208
0.713272
0.69633
0.674128
0.655208
0.635589
0.616124
0.598725
0.579033
0.563784
0.543428
0.530453
0.508499
0.501981
0.512739
0.857877
4.38631
7.21211
1.40344
0.81175
0.753276
0.724304
0.707065
0.684668
0.665468
0.645649
0.625925
0.608329
0.588395
0.572951
0.552363
0.53919
0.517016
0.510378
0.521502
0.869879
4.41506
7.25232
1.41815
0.823631
0.764682
0.73555
0.718011
0.695419
0.675936
0.655917
0.635933
0.618136
0.597958
0.582314
0.561494
0.548118
0.525723
0.518959
0.530432
0.881966
4.44436
7.29303
1.43298
0.835708
0.776305
0.747015
0.729175
0.706388
0.686619
0.666399
0.646151
0.628152
0.607727
0.59188
0.570827
0.557243
0.534627
0.527729
0.539533
0.894153
4.47424
7.33427
1.44794
0.84799
0.788152
0.758708
0.740564
0.717581
0.697525
0.677101
0.656588
0.638382
0.61771
0.601655
0.580368
0.566571
0.543732
0.536693
0.54881
0.906458
4.5047
7.37605
1.46304
0.860485
0.80023
0.770635
0.752183
0.729006
0.708658
0.68803
0.667249
0.648834
0.627912
0.611645
0.590122
0.576109
0.553045
0.545859
0.558269
0.918898
4.53577
7.41836
1.4783
0.873203
0.812545
0.782803
0.764041
0.740668
0.720027
0.699193
0.67814
0.659514
0.638339
0.621856
0.600098
0.585864
0.562571
0.555231
0.567917
0.931489
4.56746
7.46122
1.49374
0.886153
0.825105
0.795219
0.776144
0.752576
0.731638
0.710596
0.68927
0.670429
0.648999
0.632295
0.6103
0.595841
0.572316
0.564817
0.577761
0.944248
4.59977
7.50464
1.50938
0.899344
0.837918
0.807891
0.788499
0.764736
0.743498
0.722246
0.700644
0.681585
0.659898
0.642969
0.620737
0.606049
0.582288
0.574623
0.587807
0.957192
4.63273
7.54862
1.52522
0.912786
0.850992
0.820826