/*--------------------------------*- C++ -*----------------------------------*\
  =========                 |
  \\      /  F ield         | OpenFOAM: The Open Source CFD Toolbox
   \\    /   O peration     | Website:  https://openfoam.org
    \\  /    A nd           | Version:  8
     \\/     M anipulation  |
\*---------------------------------------------------------------------------*/
FoamFile
{
    version     2.0;
    format      ascii;
    class       volScalarField;
    location    "100";
    object      k;
}
// * * * * * * * * * * * * * * * * * * * * * * * * * * * * * * * * * * * * * //

dimensions      [0 2 -2 0 0 0 0];

internalField   nonuniform List<scalar> 
8400
(
0.097766
0.0973348
0.0969166
0.0965151
0.0961312
0.0957649
0.0954164
0.0950854
0.0947718
0.0944749
0.0941943
0.0939297
0.0936804
0.093446
0.0932255
0.0930182
0.0928234
0.0926403
0.0924681
0.0923058
0.0921524
0.0920069
0.0918685
0.0917359
0.091608
0.0914837
0.0913616
0.0912405
0.0911187
0.0909945
0.0908671
0.0907372
0.0906039
0.0904659
0.0903218
0.090171
0.0900124
0.0898447
0.0896669
0.089478
0.0892761
0.0890592
0.088825
0.0885704
0.0883037
0.0880287
0.0877524
0.0874851
0.0872407
0.087042
0.00874826
0.00879492
0.00884877
0.00890944
0.00897683
0.00905091
0.00913166
0.00921906
0.00931306
0.0094136
0.00952065
0.00963417
0.00975411
0.00988039
0.0100129
0.0101516
0.0102964
0.0104473
0.010604
0.0107664
0.0109345
0.011108
0.0112868
0.0114708
0.0116598
0.0118536
0.012052
0.0122549
0.0124622
0.012674
0.0128888
0.0131048
0.0133214
0.0135379
0.0137537
0.0139678
0.014179
0.0143867
0.0145897
0.0147874
0.0149795
0.0151661
0.0153482
0.0155277
0.0156979
0.015859
0.0160112
0.0161549
0.0162914
0.0164234
0.00250649
0.00252762
0.00255041
0.00257489
0.0026011
0.00262907
0.00265884
0.00269045
0.00272391
0.00275926
0.00279653
0.00283575
0.00287695
0.00292015
0.00296536
0.00301262
0.00306194
0.00311333
0.00316679
0.00322232
0.00327991
0.00333954
0.00340119
0.00346483
0.0035304
0.00359785
0.00366711
0.00373809
0.00381068
0.00388483
0.00396057
0.00403781
0.00411583
0.0041944
0.00427319
0.00435181
0.00442991
0.00450715
0.00458305
0.00465722
0.00472935
0.0047992
0.00486664
0.00493185
0.00499387
0.00505208
0.00510616
0.00515597
0.00520153
0.00524314
0.00201755
0.00202288
0.00202869
0.00203496
0.00204173
0.002049
0.0020568
0.00206514
0.00207403
0.00208348
0.00209352
0.00210418
0.00211545
0.00212736
0.00213992
0.00215316
0.00216708
0.00218171
0.00219704
0.0022131
0.00222988
0.00224739
0.00226565
0.00228464
0.00230435
0.0023248
0.00234599
0.00236793
0.00239061
0.002414
0.00243801
0.00246258
0.00248765
0.00251315
0.00253897
0.00256503
0.0025912
0.00261736
0.00264338
0.00266911
0.00269444
0.00271925
0.00274355
0.00276732
0.0027907
0.00281294
0.00283406
0.00285402
0.00287272
0.0028902
0.00192859
0.00193039
0.00193234
0.00193446
0.00193674
0.00193921
0.00194187
0.00194472
0.00194777
0.00195105
0.00195455
0.0019583
0.00196229
0.00196655
0.00197109
0.00197591
0.00198104
0.00198647
0.00199223
0.00199833
0.00200477
0.00201158
0.00201878
0.00202637
0.00203437
0.0020428
0.00205165
0.00206092
0.00207062
0.00208077
0.00209134
0.00210235
0.00211377
0.0021256
0.00213783
0.00215045
0.00216344
0.00217678
0.00219045
0.00220445
0.00221874
0.00223329
0.00224807
0.00226311
0.00227845
0.00229417
0.00231007
0.0023261
0.00234228
0.00235855
0.00192247
0.00192402
0.00192566
0.00192739
0.00192921
0.00193114
0.00193318
0.00193534
0.00193763
0.00194006
0.00194264
0.00194537
0.00194827
0.00195135
0.00195462
0.00195809
0.00196177
0.00196568
0.00196982
0.00197421
0.00197887
0.0019838
0.00198902
0.00199455
0.0020004
0.00200659
0.00201313
0.00202004
0.00202734
0.00203504
0.00204316
0.00205171
0.00206071
0.00207018
0.00208014
0.0020906
0.00210158
0.0021131
0.00212518
0.00213784
0.0021511
0.00216499
0.00217953
0.00219474
0.00221064
0.00222728
0.0022447
0.0022629
0.00228188
0.00230162
0.00193722
0.00193964
0.00194213
0.0019447
0.00194736
0.00195011
0.00195296
0.00195592
0.001959
0.00196221
0.00196555
0.00196904
0.00197269
0.00197651
0.00198051
0.00198471
0.00198911
0.00199374
0.00199859
0.0020037
0.00200907
0.00201473
0.00202067
0.00202693
0.00203353
0.00204048
0.00204779
0.0020555
0.00206363
0.00207218
0.0020812
0.0020907
0.00210071
0.00211127
0.00212239
0.0021341
0.00214645
0.00215947
0.0021732
0.00218768
0.00220293
0.00221898
0.00223591
0.00225374
0.0022725
0.00229226
0.00231301
0.00233476
0.00235765
0.00238169
0.00196587
0.00196942
0.00197306
0.00197678
0.0019806
0.00198452
0.00198856
0.00199272
0.00199702
0.00200146
0.00200605
0.00201081
0.00201575
0.00202087
0.0020262
0.00203174
0.00203751
0.00204352
0.00204979
0.00205633
0.00206316
0.0020703
0.00207776
0.00208556
0.00209373
0.00210228
0.00211123
0.00212061
0.00213045
0.00214075
0.00215156
0.00216291
0.00217482
0.00218732
0.00220045
0.00221425
0.00222877
0.00224402
0.00226006
0.00227694
0.00229471
0.0023134
0.00233307
0.00235376
0.0023755
0.00239836
0.00242236
0.00244751
0.00247375
0.00250131
0.00199824
0.00200316
0.00200816
0.00201327
0.00201848
0.00202381
0.00202927
0.00203486
0.00204061
0.00204651
0.00205257
0.00205882
0.00206527
0.00207192
0.00207879
0.00208589
0.00209325
0.00210086
0.00210875
0.00211694
0.00212544
0.00213426
0.00214343
0.00215297
0.00216288
0.0021732
0.00218396
0.00219516
0.00220684
0.00221902
0.00223173
0.002245
0.00225886
0.00227335
0.0022885
0.00230434
0.00232092
0.0023383
0.0023565
0.00237555
0.00239552
0.00241646
0.00243842
0.00246144
0.00248555
0.00251078
0.00253716
0.00256473
0.00259348
0.00262334
0.00203349
0.00203973
0.00204609
0.00205256
0.00205915
0.00206586
0.0020727
0.0020797
0.00208685
0.00209417
0.00210167
0.00210936
0.00211726
0.00212537
0.00213371
0.0021423
0.00215115
0.00216026
0.00216967
0.00217938
0.00218941
0.00219978
0.0022105
0.00222159
0.00223307
0.00224497
0.00225731
0.00227009
0.00228336
0.00229714
0.00231145
0.00232632
0.00234178
0.00235787
0.00237463
0.00239209
0.00241024
0.00242917
0.00244893
0.00246954
0.00249102
0.00251344
0.00253683
0.00256123
0.00258667
0.00261319
0.00264079
0.00266947
0.00269924
0.00273009
0.00206444
0.00207203
0.00207972
0.00208752
0.00209543
0.00210348
0.00211166
0.00212
0.00212849
0.00213716
0.002146
0.00215504
0.00216428
0.00217373
0.00218341
0.00219334
0.00220353
0.00221399
0.00222473
0.00223577
0.00224712
0.00225881
0.00227084
0.00228323
0.00229601
0.00230919
0.0023228
0.00233684
0.00235134
0.00236633
0.00238183
0.00239787
0.00241449
0.00243169
0.00244949
0.00246795
0.00248713
0.002507
0.00252762
0.00254903
0.00257124
0.0025943
0.00261825
0.00264307
0.00266882
0.00269549
0.0027231
0.00275162
0.00278104
0.00281133
0.00208897
0.00209769
0.00210653
0.00211548
0.00212454
0.00213372
0.00214305
0.00215252
0.00216214
0.00217192
0.00218188
0.00219202
0.00220234
0.00221288
0.00222365
0.00223465
0.00224588
0.00225738
0.00226914
0.00228119
0.00229353
0.00230619
0.00231918
0.00233251
0.00234621
0.00236027
0.00237472
0.00238959
0.00240489
0.00242065
0.00243687
0.00245358
0.00247081
0.00248858
0.00250691
0.00252581
0.00254533
0.00256547
0.00258626
0.00260772
0.00262987
0.00265272
0.00267631
0.0027006
0.00272561
0.00275135
0.0027778
0.00280495
0.00283272
0.0028611
0.00210176
0.00211143
0.00212119
0.00213105
0.00214101
0.0021511
0.00216132
0.00217166
0.00218214
0.00219278
0.00220356
0.00221452
0.00222565
0.00223698
0.00224851
0.00226025
0.00227222
0.00228443
0.00229688
0.00230959
0.00232258
0.00233585
0.00234943
0.00236332
0.00237754
0.00239211
0.00240703
0.00242232
0.002438
0.00245408
0.00247059
0.00248754
0.00250493
0.00252277
0.0025411
0.00255993
0.00257924
0.00259907
0.00261943
0.00264032
0.00266173
0.00268367
0.00270613
0.0027291
0.00275256
0.00277649
0.00280082
0.00282555
0.0028506
0.00287593
0.00210042
0.00211069
0.00212104
0.0021315
0.00214204
0.00215269
0.00216344
0.0021743
0.00218528
0.00219639
0.00220763
0.00221902
0.00223058
0.00224231
0.00225422
0.00226631
0.00227862
0.00229114
0.00230388
0.00231685
0.00233008
0.00234358
0.00235735
0.00237141
0.00238577
0.00240044
0.00241542
0.00243074
0.00244641
0.00246242
0.0024788
0.00249555
0.00251271
0.00253022
0.00254811
0.00256643
0.00258511
0.00260413
0.00262356
0.00264335
0.00266347
0.00268395
0.0027047
0.00272571
0.00274693
0.00276831
0.0027898
0.00281133
0.00283281
0.00285419
0.00208036
0.00209085
0.00210141
0.00211204
0.00212275
0.00213353
0.00214438
0.00215533
0.00216639
0.00217755
0.00218883
0.00220023
0.00221178
0.00222349
0.00223535
0.00224738
0.0022596
0.00227203
0.00228465
0.00229751
0.00231061
0.00232397
0.00233758
0.00235146
0.00236563
0.00238008
0.00239484
0.00240989
0.00242526
0.00244094
0.00245694
0.00247325
0.00248987
0.00250676
0.00252396
0.00254145
0.00255922
0.0025772
0.00259541
0.00261384
0.00263237
0.00265099
0.00266971
0.00268838
0.00270698
0.00272542
0.0027436
0.00276147
0.00277891
0.00279581
0.00203709
0.0020473
0.00205756
0.00206786
0.00207821
0.0020886
0.00209905
0.00210958
0.00212019
0.00213089
0.00214168
0.0021526
0.00216365
0.00217483
0.00218616
0.00219766
0.00220936
0.00222125
0.00223335
0.00224571
0.00225832
0.00227117
0.00228431
0.00229775
0.00231146
0.00232548
0.0023398
0.00235444
0.00236938
0.00238461
0.00240011
0.00241591
0.00243196
0.00244822
0.00246472
0.00248142
0.00249819
0.00251515
0.00253213
0.0025491
0.0025661
0.00258289
0.00259949
0.00261582
0.00263176
0.00264719
0.00266203
0.00267614
0.00268941
0.0027017
0.00196275
0.00197202
0.00198131
0.00199061
0.00199992
0.00200926
0.00201863
0.00202807
0.00203758
0.00204715
0.00205681
0.0020666
0.0020765
0.00208654
0.00209675
0.00210716
0.00211777
0.00212863
0.00213976
0.00215119
0.00216289
0.00217492
0.00218731
0.00220006
0.00221315
0.00222663
0.0022405
0.0022547
0.00226926
0.00228417
0.00229935
0.00231481
0.00233054
0.00234643
0.00236249
0.00237873
0.00239492
0.00241112
0.00242731
0.00244337
0.00245915
0.00247464
0.00248962
0.00250402
0.00251781
0.00253074
0.00254272
0.00255357
0.00256319
0.00257141
0.00185053
0.00185819
0.00186583
0.00187343
0.00188101
0.00188859
0.00189619
0.00190383
0.00191148
0.00191917
0.00192696
0.00193484
0.00194281
0.00195094
0.00195925
0.00196778
0.00197654
0.00198561
0.001995
0.00200473
0.00201483
0.0020254
0.00203643
0.00204787
0.00205981
0.00207227
0.00208516
0.00209853
0.00211239
0.00212673
0.00214147
0.00215646
0.00217185
0.00218746
0.00220325
0.00221919
0.00223526
0.00225139
0.00226725
0.00228301
0.00229838
0.00231342
0.00232783
0.00234146
0.00235415
0.00236575
0.00237609
0.00238497
0.0023922
0.00239766
0.00173275
0.00173793
0.00174306
0.00174815
0.00175316
0.00175813
0.00176305
0.00176788
0.00177261
0.0017773
0.00178196
0.00178654
0.00179108
0.00179561
0.00180015
0.00180471
0.00180936
0.00181417
0.00181912
0.00182424
0.0018297
0.00183552
0.00184163
0.00184823
0.00185545
0.00186304
0.00187127
0.0018802
0.00188958
0.00189966
0.00191046
0.00192179
0.0019332
0.00194527
0.00195778
0.00197046
0.00198383
0.00199761
0.00201168
0.00202582
0.00203974
0.00205371
0.0020673
0.00208042
0.00209269
0.00210371
0.00211356
0.00212186
0.00212879
0.00213409
0.00236398
0.0023163
0.00226995
0.00222459
0.00218045
0.00213759
0.0020959
0.00205534
0.00201598
0.00197783
0.00194078
0.00190478
0.00186993
0.00183617
0.00180345
0.00177195
0.00174171
0.00171255
0.00168431
0.00165722
0.00163117
0.00160542
0.00158039
0.00155642
0.00153237
0.00151071
0.00149505
0.00149077
0.00150961
0.00153909
0.00156302
0.00157568
0.0016105
0.00161506
0.00162732
0.00164394
0.00166473
0.00168583
0.00170691
0.00172563
0.00174288
0.00175837
0.00177295
0.00178643
0.00179984
0.00181247
0.00182393
0.00183357
0.00184065
0.00184487
0.941092
0.915544
0.891421
0.868588
0.846894
0.826207
0.806394
0.787392
0.769151
0.751628
0.734786
0.71859
0.703007
0.688008
0.673565
0.65965
0.64624
0.633311
0.620842
0.60881
0.597198
0.585985
0.575154
0.56469
0.554575
0.544796
0.535337
0.526186
0.51733
0.508757
0.500457
0.492418
0.484631
0.477087
0.469776
0.462691
0.455823
0.449165
0.442699
0.436401
0.430261
0.42427
0.418416
0.412687
0.407068
0.401539
0.396076
0.390635
0.385142
0.379454
0.929455
0.887361
0.848053
0.811246
0.776789
0.74452
0.714305
0.68598
0.659388
0.634391
0.610862
0.588686
0.56776
0.547991
0.529294
0.511592
0.494814
0.478895
0.463778
0.449408
0.435735
0.422714
0.410304
0.398465
0.387163
0.376363
0.366036
0.356154
0.346689
0.337618
0.328918
0.320566
0.312544
0.304831
0.297408
0.290258
0.283364
0.27671
0.270293
0.264113
0.258158
0.252417
0.24688
0.241536
0.236375
0.231387
0.226562
0.221889
0.217355
0.212945
0.929404
0.887199
0.847669
0.810681
0.776042
0.743574
0.713107
0.68448
0.657547
0.632176
0.608248
0.585654
0.564297
0.544087
0.524944
0.506794
0.48957
0.473209
0.457655
0.442856
0.428764
0.415334
0.402527
0.390304
0.37863
0.367473
0.356803
0.346592
0.336815
0.327447
0.318467
0.309852
0.301585
0.293647
0.286023
0.278696
0.271651
0.264875
0.258354
0.252078
0.246033
0.240211
0.234601
0.229195
0.223983
0.218959
0.214116
0.209445
0.204942
0.200599
0.929406
0.887501
0.848319
0.811651
0.777289
0.745042
0.714739
0.686227
0.659369
0.63404
0.610126
0.587526
0.566146
0.5459
0.526711
0.508507
0.491223
0.474798
0.459178
0.44431
0.430148
0.416649
0.403771
0.391479
0.379736
0.368512
0.357776
0.347501
0.337661
0.328233
0.319194
0.310524
0.302203
0.294213
0.286538
0.279161
0.272068
0.265245
0.25868
0.252359
0.246272
0.240408
0.234758
0.229313
0.224063
0.219001
0.214121
0.209414
0.204874
0.200494
0.929406
0.887508
0.848311
0.811601
0.777183
0.744877
0.71452
0.685964
0.659072
0.63372
0.609794
0.587191
0.565814
0.545578
0.526404
0.508219
0.490956
0.474555
0.458958
0.444116
0.429979
0.416505
0.403652
0.391383
0.379663
0.36846
0.357745
0.34749
0.337669
0.328258
0.319236
0.310581
0.302274
0.294297
0.286633
0.279267
0.272184
0.265369
0.258811
0.252496
0.246414
0.240554
0.234906
0.229461
0.224211
0.219147
0.214262
0.209548
0.204999
0.200606
0.929406
0.887531
0.84838
0.81173
0.777379
0.745143
0.714855
0.686362
0.659527
0.634224
0.610338
0.587767
0.566416
0.546199
0.527038
0.50886
0.4916
0.475198
0.459598
0.444749
0.430604
0.417119
0.404254
0.391973
0.380239
0.369022
0.358292
0.348022
0.338185
0.328758
0.319719
0.311048
0.302725
0.294732
0.287052
0.279669
0.272569
0.265738
0.259162
0.25283
0.24673
0.240853
0.235186
0.229722
0.224452
0.219367
0.21446
0.209722
0.205147
0.200727
0.929406
0.887536
0.848394
0.811749
0.777398
0.745156
0.714857
0.686348
0.659495
0.634173
0.61027
0.587682
0.566315
0.546085
0.526913
0.508726
0.49146
0.475053
0.45945
0.444599
0.430454
0.41697
0.404107
0.391828
0.380098
0.368885
0.358159
0.347894
0.338062
0.32864
0.319607
0.310941
0.302623
0.294634
0.286959
0.27958
0.272484
0.265656
0.259084
0.252754
0.246656
0.240779
0.235113
0.229648
0.224376
0.219288
0.214376
0.209632
0.205049
0.200619
0.929406
0.887539
0.848404
0.81177
0.777431
0.745202
0.714918
0.686426
0.659589
0.634284
0.610396
0.587823
0.566471
0.546254
0.527093
0.508916
0.491658
0.475258
0.45966
0.444814
0.430671
0.417188
0.404326
0.392046
0.380315
0.369099
0.35837
0.348101
0.338265
0.328838
0.319799
0.311126
0.302802
0.294806
0.287123
0.279736
0.272631
0.265794
0.259212
0.252872
0.246763
0.240874
0.235195
0.229717
0.224431
0.219327
0.214398
0.209636
0.205034
0.200583
0.929406
0.88754
0.848408
0.811777
0.777441
0.745215
0.714931
0.686437
0.659598
0.634289
0.610397
0.587818
0.56646
0.546236
0.527069
0.508886
0.491622
0.475217
0.459614
0.444763
0.430616
0.41713
0.404265
0.391983
0.380249
0.369033
0.358303
0.348032
0.338195
0.328768
0.319728
0.311056
0.30273
0.294734
0.28705
0.279663
0.272557
0.265718
0.259134
0.252792
0.24668
0.240788
0.235105
0.229622
0.224329
0.219219
0.214282
0.209511
0.204898
0.200436
0.929406
0.887541
0.848409
0.81178
0.777447
0.745223
0.714941
0.68645
0.659614
0.634308
0.610419
0.587843
0.566488
0.546268
0.527104
0.508924
0.491663
0.47526
0.459659
0.44481
0.430664
0.417179
0.404315
0.392033
0.380299
0.369082
0.358351
0.34808
0.338241
0.328812
0.31977
0.311095
0.302767
0.294767
0.28708
0.279688
0.272577
0.265733
0.259143
0.252795
0.246676
0.240776
0.235085
0.229592
0.224289
0.219167
0.214218
0.209434
0.204806
0.200328
0.929405
0.88754
0.848409
0.81178
0.777446
0.745222
0.714941
0.68645
0.659614
0.634307
0.610418
0.587843
0.566488
0.546267
0.527103
0.508922
0.491661
0.475257
0.459656
0.444806
0.43066
0.417175
0.404309
0.392026
0.380292
0.369074
0.358342
0.348069
0.338229
0.328799
0.319755
0.311078
0.302747
0.294745
0.287054
0.279659
0.272545
0.265697
0.259102
0.252748
0.246624
0.240717
0.235019
0.229518
0.224207
0.219075
0.214115
0.209318
0.204678
0.200186
0.929405
0.88754
0.848407
0.811776
0.77744
0.745214
0.71493
0.686436
0.659597
0.634288
0.610395
0.587817
0.566458
0.546234
0.527066
0.508882
0.491617
0.47521
0.459606
0.444754
0.430605
0.417118
0.40425
0.391966
0.38023
0.369011
0.358278
0.348004
0.338163
0.328732
0.319687
0.311009
0.302677
0.294674
0.286982
0.279585
0.272469
0.265618
0.259021
0.252664
0.246536
0.240625
0.234922
0.229415
0.224097
0.218958
0.213989
0.209183
0.204532
0.200028
0.929405
0.887539
0.848403
0.811769
0.777429
0.745201
0.714916
0.686424
0.659587
0.634282
0.610394
0.58782
0.566468
0.546249
0.527087
0.508909
0.491649
0.475247
0.459646
0.444797
0.430651
0.417166
0.4043
0.392016
0.38028
0.36906
0.358326
0.348051
0.338208
0.328774
0.319727
0.311045
0.302709
0.294701
0.287004
0.279602
0.272479
0.265622
0.259018
0.252653
0.246517
0.240597
0.234884
0.229367
0.224037
0.218885
0.213903
0.209082
0.204415
0.199895
0.929405
0.887535
0.848393
0.811748
0.777396
0.745154
0.714854
0.686346
0.659493
0.634171
0.610267
0.587678
0.566311
0.546079
0.526905
0.508717
0.491448
0.475038
0.459432
0.444578
0.430429
0.416941
0.404074
0.39179
0.380055
0.368836
0.358104
0.34783
0.33799
0.328559
0.319514
0.310835
0.302502
0.294497
0.286803
0.279404
0.272284
0.265429
0.258826
0.252463
0.246327
0.240408
0.234694
0.229176
0.223844
0.218689
0.213702
0.208876
0.204203
0.199674
0.929405
0.88753
0.848378
0.811728
0.777376
0.74514
0.714852
0.686359
0.659524
0.63422
0.610334
0.587762
0.566409
0.546191
0.527027
0.508847
0.491584
0.475178
0.459574
0.444721
0.430571
0.41708
0.404209
0.391921
0.38018
0.368955
0.358216
0.347936
0.338087
0.328648
0.319595
0.310907
0.302565
0.294551
0.286847
0.279438
0.272308
0.265442
0.258829
0.252454
0.246307
0.240375
0.234649
0.229117
0.223771
0.218601
0.213598
0.208755
0.204063
0.199515
0.929405
0.887507
0.848309
0.811598
0.77718
0.744874
0.714517
0.685961
0.659069
0.633716
0.60979
0.587185
0.565807
0.545569
0.526393
0.508205
0.490939
0.474533
0.458933
0.444085
0.429943
0.416462
0.403603
0.391327
0.379599
0.368388
0.357662
0.347396
0.337562
0.328137
0.319097
0.310423
0.302094
0.294093
0.286401
0.279003
0.271884
0.26503
0.258426
0.25206
0.245921
0.239997
0.234277
0.228751
0.223409
0.218242
0.213242
0.208399
0.203707
0.199157
0.929405
0.8875
0.848317
0.811649
0.777286
0.745038
0.714735
0.686223
0.659365
0.634035
0.610121
0.587519
0.566137
0.545889
0.526697
0.50849
0.491201
0.474772
0.459146
0.444273
0.430104
0.416598
0.403712
0.391411
0.379659
0.368424
0.357677
0.347388
0.337534
0.328089
0.319031
0.31034
0.301994
0.293977
0.286271
0.27886
0.271728
0.264862
0.258247
0.251871
0.245723
0.239791
0.234063
0.228531
0.223184
0.218014
0.213012
0.208171
0.203484
0.198945
0.929404
0.887197
0.847667
0.810678
0.776039
0.743571
0.713103
0.684475
0.657542
0.632171
0.608242
0.585647
0.564288
0.544077
0.524931
0.506778
0.48955
0.473185
0.457627
0.442823
0.428725
0.41529
0.402477
0.390247
0.378567
0.367403
0.356726
0.346507
0.336722
0.327345
0.318355
0.30973
0.301452
0.293501
0.285862
0.278518
0.271454
0.264656
0.258113
0.251811
0.245739
0.239888
0.234248
0.228809
0.223566
0.218511
0.21364
0.208951
0.204446
0.200135
0.929455
0.887359
0.84805
0.811242
0.776786
0.744516
0.714302
0.685978
0.659388
0.634392
0.610864
0.58869
0.567766
0.547999
0.529304
0.511604
0.494828
0.478913
0.4638
0.449435
0.43577
0.422758
0.410359
0.398534
0.387249
0.37647
0.366168
0.356316
0.346887
0.337858
0.329209
0.320918
0.312967
0.305339
0.298019
0.290992
0.284245
0.277767
0.271547
0.265575
0.259844
0.254347
0.249078
0.244035
0.239216
0.234626
0.230274
0.226179
0.222386
0.218983
0.941092
0.915543
0.891419
0.868586
0.846892
0.826206
0.806392
0.787389
0.769147
0.751623
0.734779
0.718581
0.702995
0.687992
0.673543
0.659623
0.646207
0.63327
0.620792
0.60875
0.597126
0.5859
0.575054
0.564572
0.554437
0.544634
0.53515
0.525969
0.517078
0.508466
0.500121
0.49203
0.484183
0.476569
0.469179
0.462002
0.455029
0.448251
0.441659
0.435244
0.428997
0.42291
0.416974
0.411181
0.40552
0.399983
0.39456
0.389239
0.384005
0.37884
0.169854
0.0432482
0.0269267
0.0253258
0.0244146
0.0242081
0.0235957
0.0232676
0.0227195
0.0222793
0.0217863
0.0212651
0.020821
0.0202346
0.0198498
0.0192495
0.0191622
0.0197799
0.031407
0.125906
0.17016
0.0435622
0.0272449
0.0256557
0.0247387
0.0245268
0.0239049
0.0235685
0.0230139
0.0225662
0.0220683
0.021541
0.0210926
0.0205011
0.0201118
0.0195027
0.0194025
0.0199895
0.0315551
0.125885
0.17046
0.0438801
0.0275635
0.0259849
0.0250619
0.0248445
0.0242133
0.0238684
0.0233073
0.0228522
0.0223493
0.0218161
0.0213633
0.0207668
0.0203731
0.0197555
0.019643
0.0202007
0.0317054
0.125834
0.17076
0.0442032
0.0278831
0.0263138
0.0253847
0.0251614
0.0245209
0.0241674
0.0236002
0.0231374
0.0226296
0.0220904
0.0216334
0.0210319
0.0206338
0.0200079
0.0198837
0.0204137
0.0318606
0.125772
0.17107
0.0445326
0.0282035
0.0266423
0.025707
0.0254775
0.0248279
0.0244658
0.0238924
0.0234221
0.0229093
0.0223642
0.0219029
0.0212964
0.0208941
0.0202599
0.0201247
0.0206284
0.0320217
0.125711
0.171394
0.0448685
0.028525
0.0269706
0.0260289
0.0257928
0.0251343
0.0247634
0.024184
0.0237061
0.0231884
0.0226375
0.022172
0.0215604
0.021154
0.0205117
0.020366
0.0208449
0.0321897
0.125658
0.171735
0.0452113
0.0288475
0.0272986
0.0263504
0.0261074
0.0254403
0.0250604
0.0244752
0.0239897
0.0234671
0.0229103
0.0224405
0.0218239
0.0214135
0.0207631
0.0206076
0.0210631
0.0323649
0.125617
0.172095
0.0455612
0.029171
0.0276264
0.0266715
0.0264213
0.0257458
0.025357
0.0247659
0.0242728
0.0237454
0.0231827
0.0227087
0.022087
0.0216727
0.0210143
0.0208496
0.0212831
0.0325478
0.125592
0.172476
0.0459181
0.0294956
0.0279539
0.0269924
0.0267345
0.026051
0.0256531
0.0250563
0.0245557
0.0240234
0.0234547
0.0229766
0.0223497
0.0219316
0.0212652
0.0210919
0.021505
0.0327386
0.125586
0.17288
0.0462822
0.0298213
0.0282813
0.027313
0.0270472
0.0263559
0.0259489
0.0253464
0.0248382
0.0243011
0.0237265
0.0232442
0.022612
0.0221903
0.021516
0.0213347
0.0217286
0.0329373
0.1256
0.173305
0.0466535
0.0301482
0.0286086
0.0276335
0.0273595
0.0266607
0.0262444
0.0256364
0.0251207
0.0245786
0.0239981
0.0235116
0.0228742
0.0224488
0.0217667
0.021578
0.0219541
0.0331439
0.125636
0.173754
0.0470321
0.0304763
0.0289358
0.0279539
0.0276713
0.0269655
0.0265399
0.0259263
0.025403
0.024856
0.0242695
0.0237789
0.0231362
0.0227074
0.0220174
0.0218218
0.0221814
0.0333586
0.125695
0.174225
0.047418
0.0308056
0.029263
0.0282743
0.027983
0.0272703
0.0268353
0.0262162
0.0256853
0.0251334
0.0245409
0.0240462
0.0233981
0.0229659
0.0222681
0.0220662
0.0224105
0.0335812
0.125778
0.174719
0.0478113
0.0311363
0.0295903
0.0285949
0.0282945
0.0275752
0.0271307
0.0265061
0.0259677
0.0254109
0.0248124
0.0243136
0.0236601
0.0232246
0.022519
0.0223113
0.0226414
0.0338117
0.125886
0.175235
0.0482119
0.0314684
0.0299176
0.0289155
0.028606
0.0278802
0.0274263
0.0267963
0.0262503
0.0256887
0.0250842
0.0245813
0.0239222
0.0234836
0.0227701
0.0225571
0.0228743
0.0340502
0.12602
0.175771
0.0486198
0.0318019
0.0302452
0.0292365
0.0289175
0.0281856
0.0277222
0.0270868
0.0265332
0.0259668
0.0253562
0.0248493
0.0241847
0.0237429
0.0230216
0.0228037
0.0231092
0.0342965
0.12618
0.176328
0.0490354
0.032137
0.0305729
0.0295578
0.0292293
0.0284913
0.0280185
0.0273777
0.0268166
0.0262453
0.0256287
0.0251178
0.0244475
0.0240027
0.0232735
0.0230512
0.0233461
0.0345506
0.126366
0.176903
0.0494586
0.0324737
0.0309011
0.0298796
0.0295414
0.0287976
0.0283153
0.0276691
0.0271006
0.0265245
0.0259017
0.0253869
0.0247108
0.0242631
0.0235261
0.0232998
0.0235852
0.0348124
0.126579
0.177496
0.0498897
0.0328121
0.0312297
0.0302021
0.0298541
0.0291045
0.0286128
0.0279613
0.0273853
0.0268043
0.0261754
0.0256566
0.0249748
0.0245242
0.0237793
0.0235495
0.0238264
0.0350819
0.126818
0.178104
0.0503289
0.0331524
0.0315589
0.0305253
0.0301673
0.0294121
0.028911
0.0282542
0.0276708
0.027085
0.02645
0.0259273
0.0252396
0.0247862
0.0240334
0.0238004
0.0240699
0.035359
0.127083
0.178726
0.0507765
0.0334947
0.0318888
0.0308494
0.0304813
0.0297206
0.0292102
0.028548
0.0279573
0.0273667
0.0267254
0.0261989
0.0255052
0.0250491
0.0242885
0.0240526
0.0243157
0.0356435
0.127373
0.179359
0.0512326
0.033839
0.0322195
0.0311746
0.0307962
0.0300301
0.0295105
0.028843
0.0282449
0.0276495
0.027002
0.0264716
0.0257719
0.0253131
0.0245446
0.0243062
0.0245639
0.0359354
0.127688
0.180001
0.0516976
0.0341856
0.0325512
0.031501
0.0311122
0.0303408
0.0298119
0.0291392
0.0285337
0.0279335
0.0272798
0.0267455
0.0260399
0.0255784
0.024802
0.0245614
0.0248146
0.0362346
0.128026
0.180649
0.052172
0.0345344
0.0328839
0.0318287
0.0314294
0.0306528
0.0301148
0.0294367
0.0288239
0.028219
0.027559
0.0270209
0.0263091
0.0258451
0.0250608
0.0248183
0.025068
0.0365411
0.128388
0.181301
0.0526561
0.0348857
0.0332179
0.0321578
0.031748
0.0309661
0.030419
0.0297357
0.0291156
0.028506
0.0278397
0.0272979
0.02658
0.0261133
0.0253212
0.0250771
0.0253242
0.0368548
0.128773
0.181954
0.0531505
0.0352396
0.0335533
0.0324884
0.032068
0.031281
0.0307249
0.0300364
0.029409
0.0287947
0.0281221
0.0275765
0.0268525
0.0263833
0.0255833
0.0253377
0.0255832
0.0371756
0.129178
0.182604
0.0536559
0.0355962
0.0338904
0.0328206
0.0323895
0.0315975
0.0310325
0.0303388
0.0297042
0.0290852
0.0284064
0.0278571
0.0271269
0.026655
0.0258473
0.0256004
0.0258451
0.0375036
0.129603
0.183248
0.054173
0.0359558
0.0342292
0.0331546
0.0327128
0.0319158
0.0313419
0.0306431
0.0300013
0.0293777
0.0286927
0.0281397
0.0274033
0.0269288
0.0261133
0.0258653
0.0261101
0.0378387
0.130047
0.183882
0.0547026
0.0363186
0.0345697
0.0334904
0.033038
0.032236
0.0316534
0.0309495
0.0303006
0.0296725
0.0289812
0.0284244
0.0276818
0.0272048
0.0263815
0.0261325
0.0263784
0.038181
0.130508
0.184509
0.0552404
0.0366848
0.0349122
0.0338282
0.0333653
0.0325584
0.0319671
0.0312582
0.0306022
0.0299695
0.029272
0.0287116
0.0279627
0.027483
0.026652
0.0264022
0.0266499
0.0385304
0.130984
0.185132
0.0557822
0.0370546
0.0352568
0.0341682
0.0336948
0.032883
0.0322832
0.0315693
0.0309063
0.0302691
0.0295653
0.0290012
0.028246
0.0277636
0.0269251
0.0266745
0.026925
0.0388873
0.131476
0.185751
0.0563247
0.0374283
0.0356036
0.0345106
0.0340267
0.0332102
0.0326019
0.0318831
0.031213
0.0305714
0.0298613
0.0292934
0.0285319
0.0280469
0.0272008
0.0269496
0.0272038
0.0392516
0.13198
0.186369
0.0568649
0.0378061
0.0359528
0.0348554
0.0343613
0.03354
0.0329234
0.0321996
0.0315226
0.0308764
0.03016
0.0295884
0.0288207
0.0283329
0.0274794
0.0272275
0.0274863
0.0396234
0.132495
0.186986
0.0574015
0.0381872
0.0363046
0.0352029
0.0346986
0.0338726
0.0332477
0.0325191
0.031835
0.0311845
0.0304617
0.0298864
0.0291125
0.0286219
0.027761
0.0275085
0.0277726
0.0400031
0.133019
0.187604
0.0579331
0.0385715
0.036659
0.0355531
0.0350388
0.0342082
0.0335751
0.0328416
0.0321506
0.0314956
0.0307666
0.0301876
0.0294074
0.0289139
0.0280458
0.0277927
0.028063
0.0403907
0.13355
0.188225
0.0584588
0.0389587
0.0370162
0.0359063
0.0353821
0.0345469
0.0339056
0.0331673
0.0324695
0.03181
0.0310748
0.030492
0.0297056
0.0292092
0.0283339
0.0280802
0.0283575
0.0407866
0.134087
0.188848
0.0589781
0.0393485
0.0373764
0.0362627
0.0357286
0.0348889
0.0342395
0.0334965
0.0327917
0.0321279
0.0313865
0.0307999
0.0300073
0.0295079
0.0286255
0.028371
0.0286563
0.041191
0.134627
0.189475
0.0594907
0.0397408
0.0377397
0.0366222
0.0360785
0.0352343
0.0345769
0.0338292
0.0331176
0.0324494
0.0317018
0.0311114
0.0303127
0.0298101
0.0289208
0.0286655
0.0289595
0.0416045
0.135169
0.190107
0.0599964
0.0401355
0.0381063
0.0369852
0.0364319
0.0355833
0.0349179
0.0341656
0.0334473
0.0327748
0.0320209
0.0314268
0.0306219
0.030116
0.0292199
0.0289637
0.0292672
0.0420275
0.13571
0.190743
0.0604952
0.0405325
0.0384763
0.0373517
0.036789
0.0359361
0.0352628
0.034506
0.0337809
0.0331041
0.0323441
0.031746
0.0309351
0.0304257
0.029523
0.0292658
0.0295797
0.0424605
0.136247
0.191385
0.0609873
0.0409317
0.0388498
0.0377219
0.03715
0.0362928
0.0356117
0.0348504
0.0341186
0.0334375
0.0326714
0.0320694
0.0312524
0.0307395
0.0298302
0.0295719
0.029897
0.0429031
0.136781
0.192032
0.0614731
0.0413333
0.039227
0.0380961
0.0375149
0.0366535
0.0359647
0.035199
0.0344605
0.0337751
0.0330029
0.0323969
0.0315739
0.0310574
0.0301418
0.0298822
0.0302193
0.0433503
0.137316
0.192686
0.0619532
0.0417371
0.0396081
0.0384742
0.037884
0.0370186
0.0363221
0.035552
0.0348068
0.0341172
0.0333389
0.0327289
0.0319
0.0313796
0.0304578
0.0301967
0.0305467
0.0438001
0.137852
0.193346
0.062428
0.0421435
0.0399932
0.0388567
0.0382576
0.0373881
0.036684
0.0359096
0.0351577
0.0344639
0.0336795
0.0330653
0.0322306
0.0317063
0.0307784
0.0305158
0.0308793
0.0442501
0.138392
0.194012
0.0628982
0.0425525
0.0403826
0.0392436
0.0386356
0.0377622
0.0370505
0.0362719
0.0355134
0.0348152
0.0340248
0.0334065
0.0325659
0.0320375
0.0311039
0.0308395
0.0312175
0.0446993
0.138936
0.194684
0.0633646
0.0429643
0.0407763
0.0396351
0.0390184
0.0381411
0.0374219
0.036639
0.0358739
0.0351715
0.034375
0.0337525
0.0329062
0.0323736
0.0314342
0.0311679
0.0315612
0.0451464
0.139486
0.195364
0.0638277
0.0433792
0.0411747
0.0400314
0.039406
0.038525
0.0377982
0.0370112
0.0362395
0.0355328
0.0347304
0.0341036
0.0332516
0.0327145
0.0317697
0.0315012
0.0319105
0.0455911
0.140044
0.196051
0.0642881
0.0437972
0.0415778
0.0404326
0.0397987
0.038914
0.0381798
0.0373886
0.0366104
0.0358993
0.035091
0.0344598
0.0336022
0.0330606
0.0321104
0.0318395
0.0322651
0.0460338
0.140609
0.196744
0.0647466
0.0442187
0.0419858
0.0408389
0.0401966
0.0393082
0.0385666
0.0377713
0.0369866
0.0362712
0.0354569
0.0348214
0.0339583
0.0334118
0.0324565
0.0321831
0.0326247
0.0464747
0.141182
0.197446
0.0652036