/*--------------------------------*- C++ -*----------------------------------*\
  =========                 |
  \\      /  F ield         | OpenFOAM: The Open Source CFD Toolbox
   \\    /   O peration     | Website:  https://openfoam.org
    \\  /    A nd           | Version:  8
     \\/     M anipulation  |
\*---------------------------------------------------------------------------*/
FoamFile
{
    version     2.0;
    format      ascii;
    class       volScalarField;
    location    "100";
    object      nut;
}
// * * * * * * * * * * * * * * * * * * * * * * * * * * * * * * * * * * * * * //

dimensions      [0 2 -1 0 0 0 0];

internalField   nonuniform List<scalar> 
8400
(
0.00035441
0.000353838
0.000353299
0.000352796
0.000352327
0.000351891
0.000351488
0.000351116
0.000350774
0.000350459
0.000350168
0.000349901
0.000349656
0.00034943
0.000349223
0.00034903
0.000348851
0.000348685
0.000348531
0.000348384
0.000348242
0.000348102
0.000347963
0.000347822
0.000347677
0.000347524
0.000347359
0.000347176
0.000346971
0.000346735
0.000346471
0.000346189
0.000345889
0.000345566
0.000345217
0.000344842
0.000344441
0.000344007
0.000343537
0.00034303
0.00034247
0.000341845
0.000341132
0.000340299
0.0003394
0.000338442
0.000337436
0.000336401
0.000335363
0.000334371
0.000109422
0.000109953
0.000110527
0.000111138
0.000111785
0.000112467
0.000113182
0.00011393
0.000114709
0.000115516
0.000116351
0.000117212
0.000118098
0.000119008
0.000119939
0.00012089
0.000121861
0.000122849
0.000123854
0.000124872
0.000125903
0.000126945
0.000127997
0.000129058
0.000130127
0.000131203
0.000132286
0.000133379
0.000134482
0.000135601
0.000136714
0.000137785
0.000138812
0.000139788
0.00014071
0.000141566
0.000142347
0.000143046
0.000143657
0.000144178
0.000144617
0.000144985
0.000145314
0.000145646
0.000145864
0.000145978
0.000145988
0.000145895
0.000145699
0.00014541
5.76501e-05
5.80114e-05
5.83923e-05
5.87923e-05
5.92112e-05
5.96493e-05
6.01067e-05
6.0583e-05
6.10778e-05
6.15906e-05
6.21214e-05
6.26702e-05
6.32363e-05
6.38191e-05
6.4418e-05
6.50326e-05
6.56624e-05
6.63068e-05
6.69645e-05
6.76346e-05
6.8316e-05
6.90075e-05
6.97082e-05
7.04167e-05
7.11314e-05
7.18507e-05
7.25728e-05
7.3296e-05
7.40182e-05
7.47397e-05
7.54651e-05
7.61943e-05
7.69038e-05
7.75903e-05
7.82481e-05
7.88696e-05
7.94497e-05
7.99838e-05
8.04646e-05
8.08874e-05
8.12516e-05
8.1558e-05
8.18129e-05
8.20324e-05
8.21921e-05
8.22783e-05
8.2288e-05
8.22196e-05
8.20734e-05
8.18522e-05
5.05976e-05
5.07033e-05
5.08161e-05
5.0936e-05
5.10632e-05
5.1198e-05
5.13407e-05
5.14911e-05
5.16491e-05
5.18152e-05
5.19896e-05
5.21725e-05
5.23638e-05
5.25634e-05
5.27715e-05
5.29883e-05
5.32138e-05
5.34479e-05
5.36902e-05
5.39407e-05
5.41992e-05
5.44652e-05
5.47388e-05
5.50194e-05
5.53063e-05
5.55993e-05
5.58993e-05
5.62063e-05
5.65205e-05
5.68413e-05
5.71645e-05
5.74876e-05
5.78087e-05
5.81259e-05
5.84364e-05
5.87376e-05
5.90266e-05
5.93e-05
5.95549e-05
5.97891e-05
6.0001e-05
6.01908e-05
6.03602e-05
6.05135e-05
6.06593e-05
6.0768e-05
6.08446e-05
6.0889e-05
6.08988e-05
6.08768e-05
4.91761e-05
4.92128e-05
4.92522e-05
4.92943e-05
4.93394e-05
4.93877e-05
4.94392e-05
4.94939e-05
4.95519e-05
4.96137e-05
4.96796e-05
4.97495e-05
4.98234e-05
4.99015e-05
4.9984e-05
5.00713e-05
5.01632e-05
5.026e-05
5.03617e-05
5.04686e-05
5.05808e-05
5.06985e-05
5.08223e-05
5.09521e-05
5.10883e-05
5.12311e-05
5.13797e-05
5.15337e-05
5.16932e-05
5.1858e-05
5.20274e-05
5.2201e-05
5.23786e-05
5.25598e-05
5.2744e-05
5.29309e-05
5.31195e-05
5.33089e-05
5.34987e-05
5.3688e-05
5.38751e-05
5.40585e-05
5.42396e-05
5.44203e-05
5.46024e-05
5.47904e-05
5.49762e-05
5.51575e-05
5.5336e-05
5.55103e-05
4.90734e-05
4.91008e-05
4.91298e-05
4.91605e-05
4.91932e-05
4.92279e-05
4.92647e-05
4.93036e-05
4.9345e-05
4.93891e-05
4.9436e-05
4.94856e-05
4.95382e-05
4.95939e-05
4.96531e-05
4.97157e-05
4.97821e-05
4.98525e-05
4.9927e-05
5.00056e-05
5.00887e-05
5.01764e-05
5.0269e-05
5.03665e-05
5.04693e-05
5.05776e-05
5.06913e-05
5.08108e-05
5.09367e-05
5.10689e-05
5.1207e-05
5.13514e-05
5.15026e-05
5.16607e-05
5.18259e-05
5.19984e-05
5.21779e-05
5.23649e-05
5.25595e-05
5.27616e-05
5.29721e-05
5.31913e-05
5.34189e-05
5.36548e-05
5.38996e-05
5.41548e-05
5.44222e-05
5.47015e-05
5.49924e-05
5.52941e-05
4.9329e-05
4.93665e-05
4.94053e-05
4.94457e-05
4.94878e-05
4.95317e-05
4.95774e-05
4.96251e-05
4.96751e-05
4.97277e-05
4.97828e-05
4.98405e-05
4.99012e-05
4.99649e-05
5.0032e-05
5.01026e-05
5.01769e-05
5.02551e-05
5.03372e-05
5.04235e-05
5.05144e-05
5.06101e-05
5.07106e-05
5.08162e-05
5.09274e-05
5.10443e-05
5.1167e-05
5.12964e-05
5.14327e-05
5.15755e-05
5.17252e-05
5.18827e-05
5.20486e-05
5.22229e-05
5.24061e-05
5.25984e-05
5.28003e-05
5.30129e-05
5.32369e-05
5.34724e-05
5.37195e-05
5.39786e-05
5.42517e-05
5.45385e-05
5.48399e-05
5.51566e-05
5.54864e-05
5.58303e-05
5.61922e-05
5.65726e-05
4.97815e-05
4.98329e-05
4.9886e-05
4.99407e-05
4.99974e-05
5.00562e-05
5.0117e-05
5.01802e-05
5.0246e-05
5.03143e-05
5.03854e-05
5.04592e-05
5.05361e-05
5.06166e-05
5.07006e-05
5.07883e-05
5.08799e-05
5.09755e-05
5.10753e-05
5.11797e-05
5.12889e-05
5.14029e-05
5.15221e-05
5.16467e-05
5.17771e-05
5.19133e-05
5.20561e-05
5.2206e-05
5.23627e-05
5.25263e-05
5.26977e-05
5.28774e-05
5.30658e-05
5.32633e-05
5.34705e-05
5.36877e-05
5.39162e-05
5.41561e-05
5.44076e-05
5.46722e-05
5.49508e-05
5.52437e-05
5.5551e-05
5.58746e-05
5.6214e-05
5.65704e-05
5.69441e-05
5.73314e-05
5.77301e-05
5.81483e-05
5.02873e-05
5.03557e-05
5.04258e-05
5.04979e-05
5.0572e-05
5.06483e-05
5.07268e-05
5.08079e-05
5.08916e-05
5.09779e-05
5.10669e-05
5.1159e-05
5.12546e-05
5.13537e-05
5.14565e-05
5.15631e-05
5.16738e-05
5.17887e-05
5.19079e-05
5.20318e-05
5.21606e-05
5.22943e-05
5.24332e-05
5.25777e-05
5.27279e-05
5.28843e-05
5.30475e-05
5.32174e-05
5.33938e-05
5.35774e-05
5.37691e-05
5.39691e-05
5.41779e-05
5.43959e-05
5.46234e-05
5.48608e-05
5.51093e-05
5.53698e-05
5.56424e-05
5.59266e-05
5.62251e-05
5.65382e-05
5.68656e-05
5.72076e-05
5.75669e-05
5.7941e-05
5.83327e-05
5.8742e-05
5.91617e-05
5.95898e-05
5.08185e-05
5.09029e-05
5.09892e-05
5.10776e-05
5.1168e-05
5.12606e-05
5.13555e-05
5.1453e-05
5.1553e-05
5.16558e-05
5.17614e-05
5.18702e-05
5.19825e-05
5.20983e-05
5.22177e-05
5.23412e-05
5.24687e-05
5.26002e-05
5.2736e-05
5.28765e-05
5.30216e-05
5.31716e-05
5.33269e-05
5.34876e-05
5.36538e-05
5.38262e-05
5.40049e-05
5.41897e-05
5.4381e-05
5.45797e-05
5.47859e-05
5.49999e-05
5.52222e-05
5.54532e-05
5.56934e-05
5.59434e-05
5.62025e-05
5.64723e-05
5.67542e-05
5.70476e-05
5.73525e-05
5.76705e-05
5.8002e-05
5.83475e-05
5.87066e-05
5.90795e-05
5.94662e-05
5.98677e-05
6.02833e-05
6.0706e-05
5.12871e-05
5.1387e-05
5.14886e-05
5.15919e-05
5.16971e-05
5.18045e-05
5.19142e-05
5.20264e-05
5.21412e-05
5.22585e-05
5.23787e-05
5.2502e-05
5.26284e-05
5.27582e-05
5.28918e-05
5.30292e-05
5.31701e-05
5.33148e-05
5.34639e-05
5.36173e-05
5.3775e-05
5.39374e-05
5.41048e-05
5.42772e-05
5.4455e-05
5.46384e-05
5.48271e-05
5.50214e-05
5.5222e-05
5.54291e-05
5.5643e-05
5.58645e-05
5.60936e-05
5.63295e-05
5.65728e-05
5.68255e-05
5.7088e-05
5.73591e-05
5.76394e-05
5.79309e-05
5.82317e-05
5.8543e-05
5.88645e-05
5.91977e-05
5.95422e-05
5.98973e-05
6.02624e-05
6.06372e-05
6.10215e-05
6.14156e-05
5.16587e-05
5.17711e-05
5.18851e-05
5.20005e-05
5.21176e-05
5.22368e-05
5.23584e-05
5.24822e-05
5.26083e-05
5.27369e-05
5.28682e-05
5.30023e-05
5.31392e-05
5.32795e-05
5.34233e-05
5.35702e-05
5.37204e-05
5.38743e-05
5.40322e-05
5.41938e-05
5.43596e-05
5.45298e-05
5.47045e-05
5.48837e-05
5.50677e-05
5.52562e-05
5.54495e-05
5.56482e-05
5.58527e-05
5.60628e-05
5.62788e-05
5.65009e-05
5.67288e-05
5.69635e-05
5.72051e-05
5.74535e-05
5.77096e-05
5.79724e-05
5.82428e-05
5.85207e-05
5.88063e-05
5.91e-05
5.9402e-05
5.97107e-05
6.00262e-05
6.03492e-05
6.06789e-05
6.10143e-05
6.13535e-05
6.16974e-05
5.18694e-05
5.19916e-05
5.21149e-05
5.22394e-05
5.23657e-05
5.2494e-05
5.26243e-05
5.27563e-05
5.28903e-05
5.30267e-05
5.31656e-05
5.33069e-05
5.34508e-05
5.35977e-05
5.37476e-05
5.39002e-05
5.4056e-05
5.42153e-05
5.43779e-05
5.45439e-05
5.47137e-05
5.48875e-05
5.50652e-05
5.52469e-05
5.54328e-05
5.56229e-05
5.58171e-05
5.60158e-05
5.62191e-05
5.64271e-05
5.66404e-05
5.68588e-05
5.70812e-05
5.73085e-05
5.75415e-05
5.77801e-05
5.80226e-05
5.82705e-05
5.8525e-05
5.8784e-05
5.90472e-05
5.93137e-05
5.95855e-05
5.98609e-05
6.01392e-05
6.04198e-05
6.07013e-05
6.09848e-05
6.12674e-05
6.15488e-05
5.18854e-05
5.20134e-05
5.21422e-05
5.22723e-05
5.2404e-05
5.25371e-05
5.26716e-05
5.28075e-05
5.29455e-05
5.30856e-05
5.32277e-05
5.33719e-05
5.35184e-05
5.36676e-05
5.38195e-05
5.39739e-05
5.41313e-05
5.42916e-05
5.44548e-05
5.46212e-05
5.47913e-05
5.49649e-05
5.5142e-05
5.53227e-05
5.55071e-05
5.56945e-05
5.58851e-05
5.60802e-05
5.62796e-05
5.64821e-05
5.66882e-05
5.68984e-05
5.71128e-05
5.73298e-05
5.755e-05
5.7775e-05
5.80017e-05
5.82302e-05
5.84625e-05
5.86954e-05
5.89304e-05
5.91673e-05
5.94025e-05
5.96377e-05
5.98707e-05
6.01004e-05
6.03266e-05
6.05484e-05
6.07633e-05
6.09714e-05
5.16476e-05
5.17772e-05
5.19075e-05
5.2039e-05
5.21716e-05
5.23048e-05
5.2439e-05
5.25748e-05
5.27125e-05
5.28521e-05
5.29932e-05
5.3136e-05
5.32813e-05
5.3429e-05
5.3579e-05
5.37314e-05
5.38868e-05
5.4045e-05
5.4206e-05
5.43703e-05
5.45381e-05
5.47088e-05
5.48827e-05
5.50602e-05
5.52406e-05
5.54237e-05
5.56104e-05
5.58005e-05
5.59938e-05
5.61904e-05
5.63887e-05
5.65893e-05
5.67923e-05
5.69967e-05
5.72033e-05
5.74107e-05
5.7619e-05
5.78267e-05
5.80349e-05
5.82429e-05
5.84443e-05
5.86452e-05
5.88421e-05
5.90323e-05
5.92169e-05
5.9392e-05
5.95576e-05
5.9712e-05
5.98538e-05
5.99799e-05
5.10913e-05
5.12173e-05
5.1344e-05
5.14713e-05
5.1599e-05
5.1727e-05
5.18559e-05
5.19865e-05
5.21191e-05
5.2253e-05
5.23881e-05
5.25252e-05
5.2665e-05
5.28069e-05
5.29508e-05
5.30979e-05
5.32483e-05
5.34015e-05
5.3558e-05
5.37185e-05
5.38821e-05
5.40488e-05
5.42196e-05
5.43939e-05
5.45706e-05
5.47504e-05
5.49342e-05
5.5121e-05
5.531e-05
5.55007e-05
5.56928e-05
5.58871e-05
5.6082e-05
5.62763e-05
5.64708e-05
5.66639e-05
5.68533e-05
5.70432e-05
5.72272e-05
5.74057e-05
5.75807e-05
5.7746e-05
5.79031e-05
5.8049e-05
5.81827e-05
5.83009e-05
5.84044e-05
5.84886e-05
5.8552e-05
5.85923e-05
5.00992e-05
5.02147e-05
5.03305e-05
5.04464e-05
5.0562e-05
5.06779e-05
5.07951e-05
5.09143e-05
5.1035e-05
5.11564e-05
5.12797e-05
5.14058e-05
5.15344e-05
5.16651e-05
5.17993e-05
5.19379e-05
5.20799e-05
5.2226e-05
5.23773e-05
5.25328e-05
5.26916e-05
5.28551e-05
5.30244e-05
5.31978e-05
5.33741e-05
5.35559e-05
5.37426e-05
5.39305e-05
5.41219e-05
5.43162e-05
5.45087e-05
5.47018e-05
5.4896e-05
5.50867e-05
5.52753e-05
5.54623e-05
5.56403e-05
5.5815e-05
5.5987e-05
5.6145e-05
5.62937e-05
5.64301e-05
5.65512e-05
5.66559e-05
5.6744e-05
5.68106e-05
5.68535e-05
5.68702e-05
5.68582e-05
5.68135e-05
4.85468e-05
4.86433e-05
4.87393e-05
4.88342e-05
4.89287e-05
4.90237e-05
4.91202e-05
4.9218e-05
4.9316e-05
4.94149e-05
4.95169e-05
4.96219e-05
4.97289e-05
4.98396e-05
4.99556e-05
5.00758e-05
5.02008e-05
5.03326e-05
5.04706e-05
5.06135e-05
5.07632e-05
5.09221e-05
5.10881e-05
5.12578e-05
5.14349e-05
5.16205e-05
5.18083e-05
5.20015e-05
5.22011e-05
5.24053e-05
5.26106e-05
5.2813e-05
5.3021e-05
5.32221e-05
5.34175e-05
5.36139e-05
5.38013e-05
5.39796e-05
5.41466e-05
5.43012e-05
5.44403e-05
5.45649e-05
5.46668e-05
5.47457e-05
5.47978e-05
5.48227e-05
5.48147e-05
5.47709e-05
5.46866e-05
5.456e-05
4.66735e-05
4.6732e-05
4.67889e-05
4.68431e-05
4.68953e-05
4.69472e-05
4.69985e-05
4.7047e-05
4.70928e-05
4.71391e-05
4.71867e-05
4.72336e-05
4.72807e-05
4.73299e-05
4.73802e-05
4.74316e-05
4.74884e-05
4.75522e-05
4.76208e-05
4.76955e-05
4.77822e-05
4.78802e-05
4.79831e-05
4.81002e-05
4.82352e-05
4.83733e-05
4.85309e-05
4.87097e-05
4.88903e-05
4.9088e-05
4.93095e-05
4.95345e-05
4.97406e-05
4.997e-05
5.01892e-05
5.04014e-05
5.06321e-05
5.08488e-05
5.10508e-05
5.12348e-05
5.13945e-05
5.1537e-05
5.16483e-05
5.1726e-05
5.17688e-05
5.17668e-05
5.17251e-05
5.16276e-05
5.14821e-05
5.12707e-05
5.15199e-05
5.10335e-05
5.05549e-05
5.00812e-05
4.96189e-05
4.91694e-05
4.87275e-05
4.82914e-05
4.78673e-05
4.74574e-05
4.70563e-05
4.66631e-05
4.62822e-05
4.59112e-05
4.55501e-05
4.52102e-05
4.48963e-05
4.45991e-05
4.43155e-05
4.40624e-05
4.38351e-05
4.35946e-05
4.33672e-05
4.31617e-05
4.28789e-05
4.26017e-05
4.24075e-05
4.23209e-05
4.27452e-05
4.3724e-05
4.44718e-05
4.42938e-05
4.54629e-05
4.52122e-05
4.54266e-05
4.56044e-05
4.61072e-05
4.6628e-05
4.72555e-05
4.77622e-05
4.82242e-05
4.86043e-05
4.89477e-05
4.92636e-05
4.96196e-05
4.99998e-05
5.04004e-05
5.08033e-05
5.11762e-05
5.15122e-05
0.00108926
0.00107437
0.00106012
0.00104646
0.00103331
0.00102061
0.0010083
0.000996346
0.000984737
0.000973455
0.000962486
0.00095182
0.000941443
0.000931346
0.000921518
0.00091195
0.000902633
0.000893559
0.000884718
0.000876104
0.000867708
0.000859524
0.000851544
0.000843762
0.000836171
0.000828766
0.00082154
0.000814487
0.000807604
0.000800883
0.000794322
0.000787916
0.000781661
0.000775552
0.000769587
0.000763761
0.000758072
0.000752517
0.000747082
0.000741751
0.000736516
0.000731371
0.000726308
0.000721318
0.00071639
0.000711508
0.00070665
0.000701779
0.000696826
0.000691662
0.0010825
0.00105771
0.00103402
0.00101133
0.000989617
0.000968843
0.000948979
0.000929973
0.000911769
0.000894319
0.000877577
0.000861501
0.000846051
0.000831191
0.000816889
0.000803113
0.000789834
0.000777026
0.000764663
0.000752724
0.000741185
0.000730028
0.000719232
0.00070878
0.000698655
0.000688842
0.000679325
0.00067009
0.000661125
0.000652417
0.000643954
0.000635725
0.00062772
0.000619926
0.000612332
0.000604928
0.000597703
0.000590646
0.000583759
0.000577048
0.000570508
0.00056413
0.000557908
0.000551836
0.000545907
0.000540116
0.000534453
0.000528912
0.00052348
0.000518142
0.00108247
0.00105761
0.00103378
0.00101098
0.000989141
0.000968227
0.000948183
0.000928955
0.000910495
0.000892756
0.000875697
0.000859279
0.000843466
0.000828225
0.000813525
0.000799338
0.000785637
0.000772398
0.000759598
0.000747216
0.000735232
0.000723626
0.000712382
0.000701483
0.000690912
0.000680656
0.000670701
0.000661034
0.000651643
0.000642515
0.000633642
0.000625012
0.000616617
0.000608449
0.000600498
0.000592758
0.000585219
0.000577876
0.000570721
0.000563747
0.000556948
0.000550319
0.000543855
0.000537552
0.000531405
0.00052541
0.000519565
0.000513867
0.000508312
0.000502898
0.00108247
0.00105779
0.00103418
0.00101158
0.000989935
0.000969182
0.000949267
0.00093014
0.000911756
0.000894072
0.000877049
0.000860652
0.000844847
0.000829604
0.000814893
0.000800687
0.000786962
0.000773694
0.000760861
0.000748442
0.000736418
0.00072477
0.000713482
0.000702538
0.000691921
0.000681618
0.000671615
0.0006619
0.000652461
0.000643286
0.000634366
0.00062569
0.000617249
0.000609035
0.000601039
0.000593253
0.000585669
0.00057828
0.00057108
0.000564061
0.000557218
0.000550545
0.000544037
0.00053769
0.000531499
0.000525461
0.000519571
0.000513828
0.000508228
0.000502766
0.00108247
0.00105779
0.00103417
0.00101155
0.000989867
0.000969075
0.000949122
0.000929962
0.000911551
0.000893846
0.00087681
0.000860406
0.0008446
0.000829359
0.000814655
0.00080046
0.000786749
0.000773496
0.000760679
0.000748278
0.000736273
0.000724645
0.000713376
0.000702451
0.000691854
0.000681571
0.000671587
0.00066189
0.000652469
0.000643311
0.000634407
0.000625747
0.000617321
0.000609122
0.000601139
0.000593365
0.000585793
0.000578415
0.000571224
0.000564214
0.000557378
0.000550711
0.000544208
0.000537864
0.000531674
0.000525635
0.000519742
0.000513993
0.000508382
0.000502906
0.00108247
0.00105781
0.00103421
0.00101163
0.000989992
0.000969248
0.000949344
0.000930232
0.000911865
0.000894201
0.000877201
0.000860828
0.000845049
0.000829831
0.000815145
0.000800965
0.000787264
0.00077402
0.000761209
0.000748812
0.000736808
0.000725179
0.000713909
0.000702981
0.000692379
0.00068209
0.0006721
0.000662396
0.000652967
0.000643801
0.000634888
0.000626218
0.000617782
0.000609572
0.000601577
0.000593792
0.000586208
0.000578817
0.000571612
0.000564587
0.000557736
0.000551053
0.000544533
0.00053817
0.00053196
0.000525899
0.000519982
0.000514206
0.000508566
0.000503057
0.00108247
0.00105781
0.00103422
0.00101164
0.000990005
0.000969257
0.000949345
0.000930222
0.000911843
0.000894166
0.000877152
0.000860766
0.000844974
0.000829744
0.000815049
0.00080086
0.000787152
0.000773901
0.000761086
0.000748685
0.000736679
0.000725049
0.000713778
0.000702851
0.00069225
0.000681963
0.000671975
0.000662274
0.000652848
0.000643686
0.000634776
0.00062611
0.000617678
0.000609471
0.00060148
0.000593698
0.000586116
0.000578728
0.000571525
0.000564502
0.000557652
0.000550969
0.000544447
0.000538082
0.000531869
0.000525803
0.00051988
0.000514095
0.000508444
0.000502922
0.00108247
0.00105781
0.00103423
0.00101165
0.000990025
0.000969287
0.000949386
0.000930275
0.000911908
0.000894243
0.000877243
0.000860869
0.00084509
0.000829872
0.000815188
0.000801009
0.00078731
0.000774068
0.00076126
0.000748865
0.000736864
0.000725239
0.000713972
0.000703046
0.000692448
0.000682161
0.000672174
0.000662472
0.000653044
0.00064388
0.000634967
0.000626298
0.000617861
0.000609649
0.000601653
0.000593864
0.000586275
0.000578878
0.000571667
0.000564634
0.000557772
0.000551077
0.000544542
0.000538163
0.000531933
0.00052585
0.000519907
0.0005141
0.000508425
0.000502877
0.00108247
0.00105781
0.00103423
0.00101166
0.000990032
0.000969295
0.000949395
0.000930283
0.000911914
0.000894247
0.000877243
0.000860866
0.000845081
0.000829859
0.000815169
0.000800985
0.000787281
0.000774034
0.000761221
0.000748822
0.000736817
0.000725188
0.000713918
0.000702989
0.000692388
0.0006821
0.00067211
0.000662407
0.000652978
0.000643812
0.000634898
0.000626227
0.000617789
0.000609575
0.000601577
0.000593786
0.000586195
0.000578795
0.000571581
0.000564544
0.000557678
0.000550978
0.000544437
0.00053805
0.000531813
0.00052572
0.000519766
0.000513947
0.000508257
0.000502693
0.00108247
0.00105781
0.00103423
0.00101166
0.000990036
0.0009693
0.000949402
0.000930292
0.000911925
0.000894261
0.000877259
0.000860884
0.000845103
0.000829883
0.000815196
0.000801015
0.000787314
0.000774069
0.000761258
0.000748861
0.000736858
0.00072523
0.000713961
0.000703034
0.000692433
0.000682145
0.000672156
0.000662452
0.000653022
0.000643855
0.00063494
0.000626267
0.000617827
0.00060961
0.000601608
0.000593813
0.000586217
0.000578812
0.000571591
0.000564547
0.000557673
0.000550964
0.000544413
0.000538015
0.000531765
0.000525658
0.000519688
0.000513851
0.000508143
0.000502557
0.00108247
0.00105781
0.00103423
0.00101166
0.000990035
0.0009693
0.000949402
0.000930292
0.000911925
0.00089426
0.000877259
0.000860884
0.000845102
0.000829882
0.000815195
0.000801013
0.000787312
0.000774067
0.000761256
0.000748858
0.000736854
0.000725226
0.000713956
0.000703028
0.000692427
0.000682138
0.000672147
0.000662442
0.000653011
0.000643842
0.000634926
0.00062625
0.000617807
0.000609588
0.000601582
0.000593783
0.000586182
0.000578772
0.000571545
0.000564494
0.000557613
0.000550896
0.000544336
0.000537928
0.000531666
0.000525546
0.000519562
0.00051371
0.000507984
0.000502379
0.00108247
0.00105781
0.00103423
0.00101166
0.000990032
0.000969295
0.000949394
0.000930282
0.000911914
0.000894247
0.000877242
0.000860865
0.00084508
0.000829857
0.000815166
0.000800981
0.000787277
0.000774028
0.000761214
0.000748813
0.000736807
0.000725176
0.000713904
0.000702974
0.00069237
0.000682079
0.000672087
0.000662381
0.000652948
0.000643778
0.000634859
0.000626182
0.000617737
0.000609515
0.000601507
0.000593705
0.0005861
0.000578686
0.000571455
0.0005644
0.000557513
0.00055079
0.000544223
0.000537807
0.000531536
0.000525405
0.00051941
0.000513544
0.000507802
0.000502181
0.00108247
0.00105781
0.00103423
0.00101165
0.000990025
0.000969286
0.000949386
0.000930274
0.000911907
0.000894242
0.000877241
0.000860868
0.000845087
0.000829869
0.000815183
0.000801002
0.000787302
0.000774057
0.000761247
0.00074885
0.000736846
0.000725217
0.000713947
0.000703018
0.000692416
0.000682125
0.000672133
0.000662426
0.000652992
0.00064382
0.000634899
0.000626219
0.00061777
0.000609543
0.00060153
0.000593723
0.000586112
0.000578691
0.000571451
0.000564387
0.000557491
0.000550757
0.000544178
0.000537749
0.000531464
0.000525318
0.000519305
0.00051342
0.000507658
0.000502014
0.00108247
0.00105781
0.00103422
0.00101164
0.000990004
0.000969256
0.000949345
0.000930221
0.000911842
0.000894164
0.00087715
0.000860763
0.00084497
0.00082974
0.000815042
0.000800851
0.000787141
0.000773888
0.000761069
0.000748665
0.000736656
0.000725022
0.000713747
0.000702815
0.00069221
0.000681918
0.000671924
0.000662216
0.000652782
0.000643609
0.000634688
0.000626008
0.00061756
0.000609333
0.00060132
0.000593512
0.000585901
0.000578479
0.000571239
0.000564174
0.000557276
0.000550539
0.000543957
0.000537524
0.000531234
0.000525082
0.000519061
0.000513167
0.000507394
0.000501737
0.00108247
0.00105781
0.00103421
0.00101163
0.000989991
0.000969247
0.000949343
0.000930231
0.000911863
0.000894199
0.000877199
0.000860825
0.000845044
0.000829824
0.000815136
0.000800953
0.00078725
0.000774001
0.000761187
0.000748785
0.000736776
0.000725143
0.000713867
0.000702933
0.000692324
0.000682028
0.00067203
0.000662316
0.000652876
0.000643697
0.000634769
0.000626081
0.000617625
0.000609389
0.000601367
0.000593549
0.000585927
0.000578494
0.000571242
0.000564163
0.000557252
0.000550501
0.000543904
0.000537455
0.000531148
0.000524976
0.000518935
0.000513018
0.00050722
0.000501536
0.00108247
0.00105779
0.00103417
0.00101155
0.000989866
0.000969074
0.000949121
0.000929961
0.000911549
0.000893844
0.000876807
0.000860402
0.000844594
0.000829352
0.000814646
0.000800448
0.000786732
0.000773476
0.000760655
0.000748249
0.000736239
0.000724605
0.000713331
0.000702399
0.000691795
0.000681503
0.00067151
0.000661803
0.000652369
0.000643197
0.000634275
0.000625594
0.000617144
0.000608915
0.000600899
0.000593087
0.000585471
0.000578043
0.000570796
0.000563722
0.000556815
0.000550067
0.000543473
0.000537025
0.000530718
0.000524545
0.000518502
0.000512581
0.000506778
0.000501086
0.00108247
0.00105779
0.00103418
0.00101158
0.000989934
0.000969181
0.000949266
0.000930139
0.000911754
0.000894069
0.000877046
0.000860647
0.000844841
0.000829595
0.000814881
0.000800672
0.000786943
0.00077367
0.000760832
0.000748407
0.000736377
0.000724723
0.000713428
0.000702475
0.00069185
0.000681537
0.000671524
0.000661796
0.000652342
0.000643151
0.00063421
0.000625511
0.000617042
0.000608796
0.000600763
0.000592935
0.000585303
0.00057786
0.000570598
0.00056351
0.00055659
0.00054983
0.000543224
0.000536766
0.00053045
0.000524271
0.000518223
0.0005123
0.000506501
0.00050082
0.00108247
0.00105761
0.00103378
0.00101097
0.000989139
0.000968226
0.000948181
0.000928953
0.000910493
0.000892754
0.000875694
0.000859275
0.00084346
0.000828216
0.000813514
0.000799323
0.000785619
0.000772376
0.000759571
0.000747184
0.000735195
0.000723585
0.000712335
0.00070143
0.000690854
0.000680592
0.000670631
0.000660957
0.000651557
0.000642421
0.000633538
0.000624897
0.000616488
0.000608303
0.000600333
0.000592571
0.000585007
0.000577636
0.000570449
0.000563442
0.000556608
0.000549941
0.000543438
0.000537093
0.000530904
0.000524868
0.000518985
0.000513259
0.000507697
0.000502316
0.0010825
0.00105771
0.00103401
0.00101133
0.000989615
0.000968841
0.000948978
0.000929972
0.00091177
0.000894321
0.00087758
0.000861504
0.000846055
0.000831197
0.000816895
0.00080312
0.000789843
0.000777037
0.000764678
0.000752743
0.000741211
0.000730061
0.000719277
0.000708839
0.000698731
0.00068894
0.000679449
0.000670246
0.000661319
0.000652657
0.000644248
0.000636083
0.000628153
0.00062045
0.000612966
0.000605696
0.000598633
0.000591771
0.000585107
0.000578637
0.000572359
0.000566272
0.000560377
0.000554675
0.000549172
0.000543879
0.000538812
0.000534001
0.000529504
0.000525438
0.00108926
0.00107437
0.00106012
0.00104646
0.00103331
0.00102061
0.0010083
0.000996344
0.000984734
0.000973452
0.000962482
0.000951814
0.000941435
0.000931334
0.000921503
0.000911931
0.000902609
0.000893528
0.000884681
0.000876059
0.000867654
0.00085946
0.000851469
0.000843673
0.000836067
0.000828644
0.000821397
0.000814321
0.000807409
0.000800657
0.000794059
0.000787609
0.000781302
0.000775134
0.0007691
0.000763194
0.000757413
0.00075175
0.000746202
0.000740762
0.000735427
0.000730191
0.000725049
0.000719995
0.000715022
0.000710125
0.000705294
0.000700522
0.000695797
0.000691102
0.000462041
0.000235442
0.000187188
0.000182175
0.000178902
0.000178113
0.00017572
0.000174405
0.000172289
0.000170558
0.000168665
0.000166637
0.000164913
0.000162621
0.000161077
0.000158569
0.000157855
0.000159341
0.000198168
0.000393902
0.000462504
0.000236349
0.000188192
0.000183211
0.000179929
0.000179122
0.000176712
0.000175372
0.00017325
0.000171503
0.000169604
0.000167566
0.000165836
0.000163538
0.00016199
0.000159468
0.000158732
0.000160147
0.000198747
0.000393894
0.000462989
0.000237261
0.000189191
0.000184238
0.000180947
0.000180121
0.000177695
0.000176333
0.000174205
0.000172441
0.000170535
0.000168487
0.000166752
0.000164448
0.000162896
0.000160361
0.000159605
0.000160953
0.000199334
0.000393866
0.000463474
0.000238182
0.000190187
0.000185259
0.000181959
0.000181114
0.000178672
0.000177286
0.000175153
0.000173372
0.000171459
0.000169402
0.000167661
0.000165352
0.000163796
0.000161248
0.000160475
0.000161761
0.000199935
0.000393846
0.000463993
0.000239114
0.000191181
0.000186273
0.000182965
0.000182098
0.000179643
0.000178234
0.000176095
0.000174297
0.000172378
0.000170311
0.000168565
0.00016625
0.000164691
0.000162129
0.00016134
0.000162568
0.000200553
0.00039385
0.000464547
0.000240059
0.000192173
0.000187282
0.000183964
0.000183076
0.000180608
0.000179177
0.000177031
0.000175217
0.000173291
0.000171216
0.000169464
0.000167143
0.000165581
0.000163005
0.000162202
0.000163375
0.00020119
0.000393887
0.000465139
0.000241019
0.000193163
0.000188285
0.000184959
0.000184046
0.000181569
0.000180113
0.000177962
0.000176132
0.0001742
0.000172115
0.000170358
0.000168031
0.000166466
0.000163877
0.00016306
0.000164185
0.000201848
0.000393964
0.000465767
0.000241992
0.000194152
0.000189282
0.000185948
0.000185011
0.000182524
0.000181045
0.000178889
0.000177044
0.000175105
0.000173011
0.000171249
0.000168915
0.000167346
0.000164743
0.000163916
0.000164995
0.000202526
0.000394085
0.000466431
0.00024298
0.000195141
0.000190275
0.000186932
0.000185969
0.000183476
0.000181974
0.000179812
0.000177951
0.000176006
0.000173903
0.000172136
0.000169794
0.000168223
0.000165605
0.00016477
0.000165809
0.000203226
0.000394252
0.000467131
0.000243982
0.000196128
0.000191262
0.000187912
0.000186921
0.000184425
0.000182898
0.000180731
0.000178855
0.000176904
0.000174791
0.000173019
0.000170669
0.000169096
0.000166465
0.000165622
0.000166624
0.000203948
0.000394465
0.000467864
0.000244997
0.000197114
0.000192245
0.000188888
0.00018787
0.00018537
0.00018382
0.000181647
0.000179757
0.000177799
0.000175676
0.000173899
0.000171541
0.000169966
0.000167321
0.000166472
0.000167442
0.000204689
0.000394725
0.000468628
0.000246026
0.000198101
0.000193223
0.00018986
0.000188815
0.000186312
0.000184739
0.00018256
0.000180655
0.00017869
0.000176558
0.000174776
0.00017241
0.000170834
0.000168175
0.000167321
0.000168262
0.000205451
0.00039503
0.00046942
0.000247069
0.000199087
0.000194198
0.000190829
0.000189757
0.000187251
0.000185656
0.000183471
0.000181551
0.00017958
0.000177437
0.000175651
0.000173276
0.000171699
0.000169026
0.00016817
0.000169085
0.000206231
0.000395381
0.000470239
0.000248126
0.000200073
0.000195169
0.000191795
0.000190696
0.000188189
0.00018657
0.00018438
0.000182444
0.000180467
0.000178314
0.000176524
0.000174141
0.000172562
0.000169875
0.000169017
0.00016991
0.000207029
0.000395776
0.000471079
0.000249197
0.00020106
0.000196137
0.000192759
0.000191634
0.000189124
0.000187483
0.000185287
0.000183337
0.000181353
0.00017919
0.000177396
0.000175004
0.000173425
0.000170723
0.000169864
0.000170738
0.000207845
0.000396215
0.000471939
0.000250281
0.000202048
0.000197103
0.000193721
0.000192569
0.000190057
0.000188395
0.000186192
0.000184228
0.000182239
0.000180066
0.000178268
0.000175866
0.000174286
0.00017157
0.000170711
0.000171569
0.000208679
0.000396697
0.000472814
0.000251381
0.000203037
0.000198066
0.000194682
0.000193504
0.000190989
0.000189306
0.000187097
0.00018512
0.000183124
0.000180942
0.000179139
0.000176729
0.000175148
0.000172418
0.00017156
0.000172405
0.00020953
0.000397221
0.000473702
0.000252497
0.000204028
0.000199027
0.000195642
0.000194438
0.000191921
0.000190217
0.000188003
0.000186011
0.00018401
0.000181817
0.000180012
0.000177591
0.000176011
0.000173266
0.00017241
0.000173246
0.000210399
0.000397785
0.000474598
0.000253629
0.000205022
0.000199988
0.000196602
0.000195371
0.000192852
0.000191128
0.000188908
0.000186903
0.000184897
0.000182694
0.000180884
0.000178455
0.000176874
0.000174115
0.000173262
0.000174092
0.000211284
0.000398387
0.0004755
0.000254779
0.000206018
0.000200948
0.000197563
0.000196306
0.000193784
0.00019204
0.000189815
0.000187797
0.000185784
0.000183572
0.000181758
0.000179319
0.000177738
0.000174966
0.000174117
0.000174942
0.000212185
0.000399025
0.000476402
0.000255948
0.000207018
0.000201907
0.000198524
0.00019724
0.000194716
0.000192954
0.000190722
0.000188692
0.000186674
0.000184451
0.000182634
0.000180186
0.000178604
0.000175818
0.000174974
0.000175799
0.000213101
0.000399696
0.0004773
0.000257135
0.000208021
0.000202867
0.000199487
0.000198176
0.00019565
0.000193869
0.000191632
0.000189589
0.000187565
0.000185332
0.000183512
0.000181054
0.000179473
0.000176674
0.000175834
0.000176661
0.000214032
0.000400397
0.000478188
0.000258343
0.000209028
0.000203826
0.000200451
0.000199114
0.000196585
0.000194787
0.000192544
0.000190488
0.000188459
0.000186216
0.000184393
0.000181925
0.000180345
0.000177532
0.000176698
0.000177529
0.000214977
0.000401127
0.00047906
0.000259573
0.000210039
0.000204788
0.000201417
0.000200053
0.000197523
0.000195707
0.000193459
0.00019139
0.000189356
0.000187103