/*--------------------------------*- C++ -*----------------------------------*\
  =========                 |
  \\      /  F ield         | OpenFOAM: The Open Source CFD Toolbox
   \\    /   O peration     | Website:  https://openfoam.org
    \\  /    A nd           | Version:  8
     \\/     M anipulation  |
\*---------------------------------------------------------------------------*/
FoamFile
{
    version     2.0;
    format      ascii;
    class       volScalarField;
    location    "100";
    object      p;
}
// * * * * * * * * * * * * * * * * * * * * * * * * * * * * * * * * * * * * * //

dimensions      [1 -1 -2 0 0 0 0];

internalField   nonuniform List<scalar> 
8400
(
11765.1
11664.8
11515.4
11302.1
11032.6
10719.1
10375.4
10015.9
9654.12
9303.53
8974.46
8673.22
8401.56
8158.41
7940.25
7741.84
7555.9
7374.52
7191.59
7003.92
6810.3
6610.49
6404.98
6196.05
5987.66
5785.36
5595.34
5421.31
5263.32
5120.74
4994.22
4882.97
4785.58
4704.68
4645.08
4610.29
4607.25
4648.51
4745.64
4910.76
5164.31
5530.1
6031.63
6701.6
7583.88
8723.52
10172.9
12072.2
14750.4
18341
11637.4
11508.3
11350.8
11137
10870.7
10561.3
10220.5
9861.35
9498.23
9145.57
8813.4
8507.34
8229.13
7978.95
7753.93
7548.83
7355.86
7167.37
6978.31
6786.06
6588.88
6385.68
6176.57
5963.41
5750.09
5542.43
5345.59
5161.29
4989.49
4831.37
4686.96
4554.06
4432.88
4326.23
4236.1
4166.42
4124.73
4120.33
4164.25
4268.31
4448.16
4724.73
5117.96
5648.93
6347.42
7246.81
8375.92
9799.26
11659
14004.3
11555.9
11463.8
11322.3
11122.8
10872.1
10577.5
10249.3
9900.67
9546.63
9201.05
8873.13
8568.51
8290.32
8040.36
7816.4
7612.57
7421.5
7236.99
7055.5
6874.05
6690.21
6502.6
6311.11
6117.02
5923.99
5737.14
5559.28
5391.16
5234.85
5092.09
4961.8
4843.67
4739.45
4649.32
4575.59
4526.51
4509.12
4529.57
4600.97
4738.22
4955.23
5269.67
5700.61
6271.69
7010.15
7936.77
9077.48
10467.2
12135.2
13995.4
11304.3
11181.3
11028.2
10831.9
10589.5
10303.8
9983.02
9639.8
9288.4
8940.64
8605.02
8288.21
7995.61
7729.53
7487.9
7264.65
7054.18
6851.91
6654.45
6458.44
6261.23
6061.39
5857.93
5651.37
5444.97
5241.39
5040.88
4844.59
4655.29
4473.53
4298.27
4130.18
3969.77
3817.42
3676.96
3554.62
3455.78
3387.41
3360.74
3386.89
3477.92
3649.76
3915.61
4294.19
4811.52
5487.92
6340.93
7389.47
8639.12
10017
11262.9
11187.3
11056.2
10881.4
10662.6
10402.1
10107
9788.91
9459.21
9128.11
8804.21
8495.7
8209.51
7947.72
7708.23
7486.73
7279.49
7083.28
6894.38
6709.96
6528.14
6346.97
6164.89
5982.91
5802.89
5624.67
5447.94
5274.62
5106.02
4941.76
4782.28
4627.88
4478.27
4336.03
4205.17
4089.53
3995.14
3929.2
3900.28
3917.2
3987.96
4125.38
4344.24
4656.52
5075.74
5616.65
6286.61
7095.34
8027.38
9016.85
10953.6
10813.5
10656.7
10478
10264.3
10013.2
9729.3
9420.73
9095.8
8763.24
8432.8
8113.81
7812.99
7532.26
7270.19
7024.76
6793.5
6573.24
6360.98
6154.8
5952.67
5752.19
5552.67
5355.15
5158.9
4962.02
4764.82
4567.84
4369.77
4170.79
3972.54
3774.23
3575.37
3379.29
3189.95
3011.25
2849.16
2709.07
2598.06
2525.92
2498.2
2524.02
2613.65
2776.73
3024.12
3364.05
3799.36
4332.82
4941.87
5577.84
10978.4
10894.4
10760.1
10599.3
10406.6
10180.4
9923.9
9642.26
9341.7
9030.12
8717.7
8413.26
8122.44
7847.36
7588.35
7344.62
7114.64
6896.01
6686.75
6485.21
6289.1
6096.82
5908.93
5725.2
5543.17
5361.17
5178.41
4992.52
4802.2
4608.77
4412.17
4210.34
4003.33
3794.66
3588.54
3388.59
3199.41
3025.08
2869.65
2737.72
2636.42
2575.1
2555.01
2582.11
2665.05
2806.88
3013.3
3280.5
3592.82
3902.62
10649.7
10486.2
10316.4
10142
9945.67
9722.15
9471.4
9196.19
8901.64
8595.24
8285.96
7981.22
7685.22
7400.19
7127.73
6868.3
6620.84
6383.92
6156.38
5936.57
5722.74
5514.98
5313.77
5117.67
4924.76
4733.25
4539.73
4341.23
4137.75
3928.45
3710.13
3481.51
3244.34
3001.47
2756.39
2512.14
2270.68
2036.14
1814.6
1608.29
1419.92
1254.73
1115.34
1002.34
922.22
874.529
857.442
866.653
893.423
906.431
10725.6
10627.3
10475.8
10305.8
10113.5
9897.35
9657.58
9396.16
9117.48
8827.79
8534.13
8241.55
7953.08
7671.95
7400.6
7139.62
6888.41
6646.65
6413.73
6188.18
5969.58
5759.01
5556.58
5361.14
5171.38
4984.29
4795.48
4602.66
4404.07
4194.99
3970.77
3730.7
3476.26
3209.14
2931.79
2647.48
2359.63
2068.58
1775.82
1488.82
1207.95
932.423
663.301
400.509
143.367
-106.112
-350.742
-597.905
-851.26
-1127.3
10441.8
10274.1
10087.1
9897.11
9692.52
9470.1
9229.2
8971.01
8699.22
8418.19
8132.32
7844.82
7558.61
7277.23
7002.83
6735.47
6475.35
6223.29
5978.95
5741.41
5511.59
5291.16
5080.34
4878.76
4685.27
4496.62
4309.27
4120.04
3923.34
3711.79
3480.89
3229.56
2957.39
2665.79
2355.98
2028.86
1691.5
1345.09
986.058
617.342
244.428
-137.416
-529.055
-933.151
-1349.11
-1780.22
-2227.55
-2696.28
-3195.89
-3725.01
10517.3
10399.1
10220.3
10023.7
9810.72
9582.43
9339.6
9083.97
8818.2
8545.08
8266.83
7985.83
7705.43
7428.3
7154.82
6885.22
6621.2
6363.63
6111.62
5865.56
5627.72
5399.62
5182.01
4975.49
4778.99
4590.04
4405.62
4220.33
4026.3
3816.02
3583.97
3325.04
3035.57
2717.58
2373.89
2004.26
1609.48
1194.4
759.42
301.113
-175.196
-672.919
-1198.35
-1751.38
-2334.43
-2949.65
-3598.33
-4284.91
-5014.71
-5781.04
10308.9
10137.3
9931.7
9718.41
9493.45
9256.56
9008.56
8751.7
8487.79
8218.04
7944.04
7668.51
7393.98
7121.05
6849.51
6580.69
6316.08
6055.18
5797.74
5545.89
5301.89
5067.26
4844.01
4633.49
4435.29
4248.34
4069.15
3890.07
3702.34
3498.18
3269.54
3010.06
2716.21
2383.09
2010.01
1600.79
1156.49
681.292
174.149
-365.88
-939.466
-1546.54
-2195.24
-2885.23
-3616.57
-4392.96
-5214.11
-6084.37
-7003.63
-7955.9
10351.1
10202.8
10001.5
9782.06
9547.72
9301.32
9045.63
8783.31
8515.49
8243.5
7969.3
7695.59
7423.52
7152.52
6882.79
6615.34
6349.82
6085.15
5822.3
5563.63
5311.09
5067.18
4835.19
4617.52
4415.03
4227.08
4049.8
3874.57
3691.42
3492
3266.21
3004.68
2702.21
2353.73
1955.22
1505.23
1009.71
471.264
-112.78
-741.924
-1415.71
-2136.53
-2907.85
-3732.01
-4609.07
-5539.92
-6521.31
-7558.47
-8649.86
-9772.91
10215.6
10027.9
9811.67
9582.88
9340.48
9087.18
8825.68
8558.32
8286.2
8011.41
7736.91
7464.95
7195.81
6928.86
6664.04
6400.88
6137.58
5873.07
5608.42
5345.45
5086.23
4834.32
4594.39
4370.73
4166.25
3981.81
3813.11
3648.93
3477.52
3289.17
3072.11
2814.32
2506.69
2146.68
1730.37
1250.56
710.799
117.55
-533.866
-1240.83
-2003.3
-2824.91
-3705.65
-4646.52
-5646.97
-6704.32
-7816.93
-8986.34
-10211.5
-11468.3
10220.9
10034.7
9818.77
9585.34
9336.99
9077.42
8809.33
8534.55
8255.38
7974.88
7696.8
7423.18
7153.68
6887.77
6625.03
6363.35
6099.65
5832.82
5563.37
5291.99
5021.08
4756.02
4503.35
4269.74
4061.5
3880.51
3720.84
3571.69
3418.59
3244.04
3033.41
2773.06
2455.05
2078.01
1637.12
1128.27
549.838
-94.446
-805.143
-1583.51
-2426.13
-3333.17
-4309.34
-5350.24
-6457.54
-7625.44
-8849.56
-10130
-11467.1
-12835.6
10133.2
9917
9691.29
9452.76
9201.56
8939.22
8667.7
8388.91
8106.03
7823.43
7545.02
7272.12
7004.49
6742.17
6483.82
6225.51
5963.9
5697.7
5425.5
5146.74
4865.02
4587.06
4320.78
4076.68
3865.54
3690.97
3547.8
3423.7
3296.77
3142.24
2939.24
2671.54
2334.59
1931.69
1461.58
920.261
312.041
-370.47
-1123.29
-1945.62
-2843.47
-3811.71
-4853.5
-5967.73
-7154.08
-8405.06
-9715.82
-11081.7
-12502.5
-13954.1
10100.9
9873.57
9645.68
9405.38
9152.97
8889.31
8615.73
8334.67
8050.5
7768.22
7490.77
7218.98
6953.57
6694.46
6438.52
6181.45
5920.19
5651.26
5370.85
5078.54
4778.4
4477.17
4185.18
3918.17
3692.52
3516.15
3387.45
3292.88
3200.36
3071.43
2876.05
2595.8
2229.78
1793.27
1292.68
725.304
95.2086
-603.069
-1370.87
-2209.69
-3122.16
-4114.72
-5188.69
-6343.8
-7581.95
-8893.96
-10271.5
-11706.3
-13195.1
-14715.3
10021.4
9776.27
9544.93
9304.23
9052.54
8789.36
8515.93
8235.55
7953.25
7673.19
7397.27
7126.94
6863.34
6604.95
6348.13
6089.24
5823.65
5545.34
5250.04
4937.29
4609.86
4274.8
3947.14
3649.52
3404.11
3228.14
3128.2
3085.4
3055.17
2977.88
2801.99
2507.54
2108.55
1639.27
1115.25
536.887
-98.3921
-795.662
-1553.08
-2377.7
-3274.78
-4258.08
-5334.76
-6509.02
-7780.25
-9140.89
-10579
-12080.5
-13632.4
-15210.6
9937.35
9691
9462.69
9224.32
8974.33
8712.09
8439.51
8160.71
7880.21
7601.08
7325.54
7055.56
6791.44
6531.21
6271.86
6009.03
5736.44
5447.64
5138.4
4807.27
4456.43
4095.55
3744.25
3428.17
3176.77
3018.17
2960.65
2981.19
3021.25
2996.74
2834.2
2505.92
2063.56
1567.41
1033.8
453.902
-181.951
-873.8
-1620.54
-2426.09
-3300.99
-4263.56
-5328.3
-6505.74
-7797.91
-9195.19
-10681.2
-12231.1
-13819.4
-15415.3
9825.38
9593.81
9371.01
9135.33
8886.52
8624.83
8352.91
8074.77
7794.27
7514.69
7238.77
6968.11
6702.63
6440.74
6179.25
5913.16
5636.23
5342.46
5027.36
4689.02
4330.44
3962.77
3605.69
3286.81
3039.11
2890.69
2850.54
2893.07
2951.83
2936.32
2769.62
2426.09
1976.77
1483.97
957.36
382.146
-251.184
-940.681
-1681.96
-2475.15
-3332.14
-4270.95
-5311.94
-6471.46
-7757.66
-9162.71
-10666.5
-12236.6
-13836.9
-15436.3
51923.6
43761.6
39729.9
38213.8
37382.3
36776.8
36356.7
36075.8
35878.8
35730.5
35613
35516.5
35434.6
35363
35299.1
35240.9
35187.1
35136.9
35089.3
35043.7
34999.3
34955.2
34910.8
34865.2
34817.6
34767
34712.7
34653.6
34588.6
34516.5
34435.7
34344.7
34241.5
34123.9
33989.5
33835.3
33658.1
33454.1
33218.9
32947
32631.6
32264.5
31835.3
31330.4
30732.3
30017.5
29152.6
28088.3
26744
24982.9
26290.5
30880.2
32383.3
32951.8
33389.1
33718.1
33946.1
34109.8
34231.8
34323.4
34391.6
34442
34478.6
34504.4
34521.6
34531.8
34536.6
34536.8
34533.1
34525.9
34515.5
34501.6
34484.3
34463
34437.4
34407
34371.2
34329.1
34280
34222.6
34155.6
34077.4
33986.1
33879.5
33755.5
33611.3
33443.8
33249.5
33024.1
32762.7
32459.1
32105.3
31691.6
31205.7
30632.1
29950.9
29137
28158.7
26978.3
25561.9
33522.1
35692.7
36877.2
36982.2
36828.6
36660.4
36477.8
36290.2
36115.1
35958.7
35820.1
35696.9
35586.7
35487.6
35397.9
35316.2
35241.1
35171.7
35107.1
35046.2
34988.1
34932
34876.9
34821.9
34766.1
34708.6
34648.5
34584.8
34516.5
34442.3
34360.9
34270.6
34169.4
34055.2
33925.6
33777.9
33609.4
33416.6
33195.5
32941.4
32648.8
32310.6
31918.4
31461.9
30928.4
30303
29568.6
28706.4
27699
26538.2
33772.9
34182.5
34375.5
34306.1
34207
34167.1
34159.2
34160.6
34168.2
34180.9
34195.8
34210.4
34223.2
34233.6
34241.4
34246.6
34249.3
34249.6
34247.7
34243.3
34236.5
34227
34214.5
34198.6
34178.8
34154.6
34125.5
34090.7
34049.4
34000.7
33943.7
33876.7
33798.3
33706.7
33599.7
33475.2
33330.5
33162.6
32968.2
32743.4
32483.1
32181.8
31832.5
31426.9
30955.8
30408.9
29775.8
29047.6
28220.3
27300.9
34214
34463.7
34781.8
35015.8
35158.7
35251.5
35307.6
35330.3
35327.4
35307.4
35276.1
35237.1
35193.1
35145.9
35097.2
35047.8
34998.6
34950
34902
34854.8
34808.2
34761.7
34715
34667.6
34619.1
34568.9
34516.2
34460.4
34400.5
34335.6
34264.3
34185.6
34097.7
33999.1
33887.8
33761.9
33618.9
33456.5
33271.8
33061.4
32821.3
32547
32232.9
31873
31460.5
30988.9
30452.1
29846.9
29174.3
28443.2
34319.8
34406
34515.5
34579.9
34585.5
34561
34526.5
34488.1
34448.5
34410.5
34375.2
34342.9
34313.4
34286.3
34261.4
34238.3
34216.8
34196.5
34177.2
34158.4
34139.8
34120.7
34100.8
34079.5
34056.3
34030.7
34002.3
33970.4
33934.3
33893.3
33846.2
33791.9
33729.1
33656.5
33572.4
33475.1
33362.9
33233.7
33085.4
32915.3
32720.5
32497.4
32242.1
31950.3
31617.6
31240.2
30815.3
30342.8
29826.6
29276.3
34335
34379.9
34453
34527.4
34585.8
34630.3
34665.9
34692.9
34710.7
34720
34721.7
34716.8
34706.4
34691.3
34672.3
34650.4
34626.3
34600.4
34573.2
34544.9
34515.5
34485.2
34453.7
34420.7
34386.2
34349.8
34311.1
34270
34225.7
34177.7
34125.2
34067.2
34002.8
33930.6
33849.6
33758.3
33655.5
33539.6
33409.1
33262.1
33096.4
32909.6
32699
32461.8
32195.1
31897
31566.4
31204.6
30815.4
30406.5
34295.4
34318.2
34357.2
34399.4
34430.5
34447.1
34451.3
34445.5
34431.4
34411
34386.1
34358.1
34328.5
34298
34267.3
34237.2
34207.9
34179.7
34152.7
34126.7
34101.6
34077.1
34053
34028.8
34004.3
33979.1
33953
33925.4
33895.9
33864
33828.9
33789.9
33746.1
33696.5
33640.3
33576.5
33504.1
33422.2
33329.7
33225.6
33108.5
32976.9
32829.2
32663.7
32479.1
32274.4
32049.8
31807
31550
31284.9
34228.8
34242.9
34269.1
34301.9
34332.3
34356.3
34373.6
34385.1
34391.2
34392.3
34388.9
34381.8
34371.3
34358
34342.5
34325.2
34306.6
34287.1
34266.9
34246.1
34224.9
34203.1
34180.8
34157.9
34134.2
34109.8
34084.5
34058.1
34030.6
34001.4
33970.3
33936.7
33900
33859.7
33815.1
33765.9
33711.4
33651.3
33585.1
33512.5
33432.8
33345.3
33249.5
33144.5
33029.9
32905.5
32772.1
32631.1
32485.5
32339.2
34144.8
34155.3
34175.7
34202.2
34228
34248.4
34261.9
34268.6
34268.9
34263.4
34253
34238.5
34220.7
34200.6
34178.9
34156.3
34133.2
34110.2
34087.5
34065.3
34043.6
34022.5
34001.8
33981.5
33961.6
33941.9
33922.5
33903.3
33884.2
33865
33845.4
33825.1
33803.7
33781
33756.7
33730.7
33702.8
33673.2
33641.9
33609.2
33575.2
33540
33503.7
33466.4
33428.2
33389.8
33351.9
33315.8
33283.6
33258
34047.9
34058.4
34078.7
34105.2
34131.1
34151.6
34165.4
34172.5
34173.4
34168.5
34158.9
34145.2
34128.4
34109.3
34088.6
34067.1
34045.3
34023.6
34002.4
33981.8
33962
33943.1
33924.9
33907.6
33891.3
33875.8
33861.5
33848.2
33836.1
33825.1
33815.2
33806.2
33798.2
33791.1
33784.9
33779.9
33776.5
33775.3
33776.8
33781.8
33791.1
33805.6
33826
33853.1
33887.9
33931.1
33983.8
34046.8
34121.2
34207.7
33938
33952
33978.2
34010.9
34041.5
34066
34084.1
34096.8
34104.4
34107.4
34106.2
34101.5
34093.6
34083.1
34070.5
34056.3
34041
34025
34008.7
33992.4
33976.2
33960.3
33944.9
33930.2
33916.4
33903.7
33892.4
33882.7
33875
33869.4
33866.1
33865.3
33867.2
33872.1
33880.5
33893
33910.4
33933.6
33964
34002.8
34051.4
34111.4
34184.2
34271.4
34374.5
34494.8
34633.3
34790.6
34966.7
35161
33810.8
33833.4
33872.3
33914.4
33945.9
33963.2
33968.8
33964.9
33953.5
33936.1
33914.8
33890.9
33865.6
33839.8
33814.2
33789.3
33765.7
33743.7
33723.4
33705
33688.7
33674.3
33662.1
33651.9
33644.1
33638.7
33636.1
33636.5
33640.2
33647.4
33658.6
33674
33694.1
33719.4
33750.6
33788.8
33834.9
33890.5
33957.3
34037
34131.8
34243.8
34375.3
34528.5
34705.7
34908.8
35139.1
35397.2
35682.3
35992.4
33656.4
33701.2
33774
33848.5
33907.3
33952.9
33990.3
34019.9
34041.2
34054.5
34061
34061.6
34057
34048.1
34035.8
34021
34004.3
33986.5
33968.3
33950
33932.2
33915.1
33899.3
33885
33872.6
33862.7
33855.8
33852.3
33852.8
33857.8
33868
33883.9
33906.2
33935.9
33974
34021.8
34080.8
34153
34240.4
34345.5
34470.9
34619.6
34794.7
34999.2
35236.3
35508.6
35818.1
36165.4
36548.8
36964.5
33447.2
33533.3
33642.5
33706.9
33713.2
33690
33657.8
33622.6
33587.4
33554.5
33525.2
33499.7
33477.6
33458.4
33441.9
33427.7
33415.7
33405.8
33397.8
33391.8
33387.7
33385.7
33385.8
33388.2
33393.2
33401.2
33412.7
33428.2
33448.4
33473.7
33505
33543
33588.7
33643
33707.5
33783.6
33873.3
33978.8
34102.8
34248.1
34418.1
34616.6
34847.4
35114.9
35423.3
35776.6
36177.9
36628.8
37128.1
37671.8
33147.4
33396.9
33714.7
33948.7
34092.4
34186.8
34245.6
34272
34273.9
34259.9
34235.5
34204.3
34168.7
34130.7
34091.7
34052.7
34014.6
33977.9
33943.3
33910.9
33881.3
33854.5
33831.1
33811.1
33795.2
33783.6
33777.1
33776.1
33781.5
33793.8
33814.1
33843.1
33882
33932
33994.8
34072
34166.1
34279.4
34415
34576.5
34767.7
34993.2
35257.9
35567.2
35926.8
36342.5
36819
37359.7
37963.9
38626.4
32512
32921.5
33114.1
33044.9
32946.6
32908.6
32903.6
32909.2
32922.3
32941.6
32964.2
32987.4
33009.7
33030.3
33049.1
33066
33081.1
33095
33107.8
33120.2
33132.4
33145
33158.4
33173.2
33190
33209.5
33232.5
33259.9
33292.4
33331.1
33377.1
33431.6
33495.8
33571.4
33660.1
33764.1
33885.8
34028.3
34195
34389.9
34617.6
34883.4
35193.4
35554.4
35974.1
36460.4
37021.5
37664.2
38392.1
39203.8
32066.8
34237.3
35421.6
35526.8
35374.2
35208
35028.5
34845.4
34676.1
34526.8
34396.4
34282.5
34182.6
34094.6
34016.8
33947.8
33886.4
33831.9
33783.5
33741
33703.8
33671.9
33645.3
33623.9
33608.2
33598.3
33595
33598.6
33610.1
33630.3
33660.1
33700.7
33753.5
33819.9
33902
34001.8
34122.1
34266.1
34437.3
34640.3
34880.1
35162.9
35495.7
35886.6
36345.4
36883
37511.5
38243.6
39089.4
40054.7
24640.5
29230.1
30733.2
31302.1
31740.5
32071.6
32302.8
32471
32599
32697.7
32774.4
32834.3
32881.4
32918.7
32948.1
32971.6
32990.6
33006.3
33019.6
33031.5
33042.8
33054.2
33066.4
33080.2
33096.3
33115.5
33138.8
33167.1
33201.4
33242.9
33292.9
33352.6
33423.8
33508.1
33607.6
33724.8
33862.6
34024.3
34213.9
34436.2
34696.7
35002.2
35360.5
35781.1
36275.5
36857.8
37545
38358
39320.7
40459.4
50078.3
41916.6
37884.9
36369.3
35539.1
34936
34519.4
34243.2
34052.3
33911.2
33802.2
33715.4
33644.2
33584.4
33533
33488.3
33449.2
33415
33385
33359.2
33337.4
33319.7
33306.1
33296.9
33292.6
33293.6
33300.6
33314.3
33335.7
33365.6
33405.3
33456.1
33519.5
33597.3
33691.5
33804.5
33939.3
34099.4
34288.8
34512.5
34776.1
35086.7
35452.8
35884.5
36394.8
37000.2
37722.6
38593.1
39658.9
41002.2
11802.5
16683.8
18157.1
22115.1
23918
27299.9
29267
32295.5
34291.9
37080.4
39026.2
41650.1
43477.7
46010.6
47646.3
50165.2
51515.4
54144.9
55102.7
58006.8
11848.2
16684.4
18133.3
22077.7
23878.3
27260.4
29229.4
32261.3
34258.7
37050
38996.6
41622.6
43453.2
45987.6
47630.5
50153.9
51520.8
54164.9
55155.8
58082.2
11863.5
16676.8
18114.3
22049.8
23846.7
27228.9
29196.7
32231.7
34229.1
37023.3
38971.4
41600.5
43434.6
45972.8
47622.1
50152
51531.1
54186.7
55194.4
58127.2
11871.5
16666.1
18096.7
22026
23820.3
27202.4
29168
32205.6
34202.8
36999.7
38950
41583
43420.8
45963.3
47618.3
50153.8
51541.4
54203.6
55220
58150.8
11873.1
16652.9
18079.4
22004.4
23796.5
27178.8
29141.7
32182.1
34179.2
36979.2
38931.6
41568.4
43409.9
45956.3
47616.4
50156.4
51550.7
54216.1
55237.2
58162.1
11869.6
16637.2
18061.1
21983.1
23773.9
27156.9
29117.3
32160.4
34157.8
36960.6
38915.1
41555.3
43400
45949.7
47614.5
50158.2
51558.1
54225
55248.4
58165.5
11862.6
16619.2
18041.6
21961.8
23751.8
27136.4
29094.7
32140.9
34138.5
36944
38899.9
41543.2
43390.7
45943.4
47612.1
50158.7
51563.2
54230.4
55255.1
58163.3
11853.1
16599.9
18021.5
21940.8
23730.6
27117.7
29074.4
32123.7
34121.1
36929
38885.9
41531.2
43381
45936.5
47608.8
50157.8
51566
54232.5
55257.6
58156.5
11841.5
16579.4
18000.7
21920.4
23710.8
27101.2
29056.6
32109.1
34106.1
36915.6
38872.7
41519.9
43371.2
45929.1
47604.4
50155.3
51566.2
54231.1
55256
58145.5
11828.6
16558.6
17980.1
21901.1
23692.3
27086.6
29041.1
32096.5
34092.9
36904.3
38861.2
41510
43362.4
45922.1
47599.5
50151.4
51564.1
54226.8
55251
58131.3
11814.8
16537.4
17959.5
21882.6
23675
27073.8
29027.7
32085.8
34081.8
36894.9
38851.9
41502.2
43355.2
45916.2
47594.8
50146.8
51560.3
54220.4
55243.7
58115.1
11800.3
16516.5
17939.4
21864.9
23658.3
27062.2
29015.8
32076.9
34072.7
36887.9
38844.9
41496.8
43350
45911.5
47590.5
50141.9
51555.7
54212.9
55235.1
58098
11785.5
16495.7
17919.2
21847.8
23642.3
27051.8
29005.2
32069.8
34065.5
36883.4
38840.5
41493.9
43347
45908.7
47587.1
50137.7
51551.3
54205.7
55226.6
58081.2
11770.4
16475.4
17899.5
21831
23626.5
27041.6
28995.3
32063.7
34060.1
36880.9
38838.1
41492.9
43345.4
45907.2
47584.8
50134.5
51547.4
54199.3
55218.7
58065.1
11755.6
16455.9
17880.3
21815.4
23611.2
27031.9
28986.2
32058.7
34055.5
36879.3
38836.6
41492.7
43344.3
45906.1
47582.7
50131.6
51543.9
54193.2
55210.8
58049.2
11741.9
16438.3
17862.5
21801.3
23597
27023.2
28977.8
32054.1
34051.5
36878
38834.9
41492.3
43342.9
45904.7
47580.2
50128.4
51539.9
54186.5
55202.1
58032.5
11730.1
16423
17846.8
21789.3
23584
27015.4
28970.4
32050
34047.3
36876.2
38832.2
41490.7
43340
45901.9
47576.1
50123.8
51534
54178.1
55191.4
58014.1
11721.1
16410.7
17833.7
21779.7
23573
27009.2
28963.8
32046.4
34042.8
36873.4
38828.2
41487.5
43335
45897.1
47569.6
50116.7
51525.4
54166.9
55177.6
57993.2
11715.2
16402
17823.6
21773.2
23564.5
27005
28958.6
32043.3
34038.1
36869.9
38822.8
41482.6
43328.1
45890
47560.5
50106.8
51513.5
54152.5
55160.5
57969.5
11712.3
16396.9
17816.6
21769.9
23558.9
27003.1
28954.8
32041
34033.5
36865.9
38816.4
41476.2
43319.2
45880.8
47548.7
50094.2
51498.5
54135
55140.3
57943.2
11712.7
16395.4
17813.1
21769.6
23556.1
27003.1
28952.4
32039.3
34028.9
36861.3
38808.8
41468.5
43308.5
45869.6
47534.6
50079
51480.6
54114.9
55117.4
57914.7
11716.2
16397.5
17812.8
21772.5
23556
27005.2
28951.1
32038
34024
36856.1
38800.3
41459.5
43296.3
45856.7
47518.5
50061.9
51460.5
54092.8
55092.4
57884.5
11722.2
16402.7
17815.1
21777.9
23557.8
27008.3
28950.1
32036.6
34018.6
36850.1
38790.8
41449.6
43282.8
45842.7
47500.9
50043.4
51438.8
54069.2
55065.9
57853.1
11730.1
16410.3
17819.5
21784.5
23560.7
27011.5
28948.9
32034.6
34012.6
36843.5
38780.5
41438.9
43268.5
45827.7
47482.3
50023.9
51416
54044.9
55038.6
57821.5
11739
16419.1
17824.4
21791.7
23563.6
27014.1
28947.1
32032.1
34006.1
36836.5
38770.1
41428
43253.8
45812.5
47463.1
50004
51392.8
54020.6
55011.2
57790.2
11747.7
16428.1
17828.8
21798.1
23565.7
27015.9
28944.8
32029.5
33999.8
36829.9
38759.9
41417.4
43239.3
45797.4
47444
49984.6
51370.1
53997.1
54984.7
57760.1
11755.1
16435.7
17831.7
21803
23566.8
27016.9
28942.5
32027.3
33994.4
36824.3
38750.6
41407.6
43225.5
45783.1
47425.8
49966.4
51348.6
53975.2
54959.7
57732.1
11760
16441
17832.3
21805.9
23566.9
27017.7
28940.7
32026
33990
36819.7
38742.3
41399
43212.7
45770.2
47409.1
49949.9
51329
53955.4
54936.7
57706.2
11762
16443.4
17830.4
21806.8
23566.1
27018.2
28939.2
32025.4
33986.5
36816.2
38735.1
41391.4
43201.2
45758.7
47394
49935.6
51311.4
53937.9
54915.6
57682.6
11760.8
16442.7
17826.2
21806.1
23564.4
27018.3
28937.8
32025
33983.4
36813.1
38728.5
41384.7
43190.8
45748.9
47380.8
49923.2
51295.7
53922.2
54896
57660.7
11756.3
16439.5
17820.3
21803.8
23561.5
27017.6
28935.8
32024
33979.9
36809.9
38722.1
41378.6
43181.5
45740.4
47368.9
49912.3
51281.1
53907.6
54877.3
57639.7
11748.9
16434.5
17813
21800.2
23557.3
27015.6
28932.5
32022
33975.5
36806.2
38715.6
41373
43172.8
45732.8
47357.9
49902.1
51267
53893.3
54858.6
57619.2
11739.4
16428.4
17804.9
21795.3
23551.7
27012.1
28927.8
32018.6
33970.2
36802
38709
41367.5
43164.5
45725.6
47347.1
49892.1
51252.6
53878.9
54839.5
57598.8
11728.7
16422.1
17796.3
21789.4
23544.8
27007.3
28921.7
32014.1
33964.1
36797.3
38702.2
41362
43156.2
45718.3
47336
49881.5
51237.7
53863.9
54820.1
57578.5
11717.6
16415.9
17787.4
21782.7
23536.9
27001.3
28914.6
32008.7
33957.4
36792.1
38695.1
41356.1
43147.4
45710.3
47324.1
49870.3
51222
53848.5
54800.2
57558.2
11706.6
16410.1
17778.1
21775.4
23528.2
26994.6
28906.8
32002.6
33949.9
36786.2
38687.1
41349.2
43137.4
45701.1
47311
49858
51205.5
53832.4
54779.9
57537.9
11695.7
16404.2
17768.3
21767.7
23518.8
26987.3
28898.2
31995.6
33941.5
36779
38677.7
41340.7
43125.6
45690.2
47296.3
49844.3
51187.7
53815.4
54758.9
57517.3
11684.8
16398.2
17758
21759.6
23508.9
26979.2
28888.6
31987.4
33931.5
36769.9
38666.2
41329.8
43111.6
45677.1
47279.6
49828.8
51168.5
53797.2
54736.8
57495.9
11673.7
16391.8
17747.2
21751.1
23498.2
26970.2
28877.8
31977.7
33919.6
36758.6
38652.1
41316.3
43095
45661.4
47260.6
49811.2
51147.3
53777.1
54713
57473.2
11662.5
16385.2
17736.1
21742.5
23487.1
26960.5
28865.8
31966.3
33905.7
36744.9
38635.5
41300.1
43075.7
45643.1
47239.1
49791.1
51123.8
53754.7
54687.1
57448.7
11651.3
16378.6
17725.1
21734
23475.8
26950.3
28852.9
31953.5
33890
36729
38616.6
41281.4
43054
45622.2
47215
49768.3
51097.6
53729.7
54658.9
57422.2
11640.5
16372.6
17714.5
21726
23464.4
26939.8
28839.1
31939.6
33872.8
36711.5
38595.8
41260.6
43030
45598.9
47188.4
49742.9
51069
53702.1
54628.5
57393.6
11630
16367.1
17704.3
21718.2
23453
26928.9
28824.7
31924.6
33854.3
36692.4
38573.4
41237.8
43003.9
45573.3
47159.6
49715.2
51038.2
53672.3
54596.4
57363
11619.6
16361.6
17694.1
21710.2
23440.9
26917.2
28809.2
31908.5
33834.6
36671.8
38549.3
41213.2
42976
45545.7
47129
49685.6
51005.8
53641
54562.8
57330.6
11608.4
16355.1
17682.6
21701
23427.5
26904
28792.3
31891
33813.5
36649.6
38523.6
41186.9
42946.5
45516.4
47096.9
49654.6
50972.3
53608.4
54528
57296.8
11595.3
16346.6
17669
21689.4
23411.7
26888.8
28773.4
31871.6
33790.5
36625.6
38496.3
41159
42915.7
45485.9
47063.9
49622.5
50938.1
53575
54492.3
57262.1
11579.4
16335.1
17652.4
21675
23393.2
26871.1
28752.2
31850
33765.7
36600
38467.6
41129.8
42884
45454.5
47030.3
49590
50903.6
53541.2
54455.9
57227.1
11560.3
16320.4
17632.7
21657.5
23371.9
26850.9
28728.8
31826.4
33739.1
36572.9
38437.9
41099.8
42851.8
45422.9
46996.8
49557.4
50869.2
53507.3
54419.2
57192
11538.3
16303
17610.3
21637.6
23348.2
26828.4
28703.3
31801.1
33711.2
36544.7
38407.6
41069.7
42820
45391.6
46964
49525.2
50835.5
53473.7
54382.5
57157.4
11514.4
16283.8
17586.3
21616.1
23322.9
26804.3
28676.4
31774.5
33682.5
36516.2
38377.5
41040
42789.1
45361.4
46932.3
49493.9
50802.7
53440.9
54346.4
57123.5
11489.6
16264
17561.7
21593.7
23296.6
26779.2
28648.5
31747.2
33653.6
36487.8
38348.3
41011.5
42759.7
45332.6
46902.2
49463.9
50771.1
53409.1
54311.3
57090.9
11465.1
16244.5
17537.1
21571.1
23269.9
26753.5
28620.1
31719.8
33625
36460.2
38320.4
40984.5
42732.3
45305.6
46874
49435.3
50740.8
53378.6
54277.5
57059.4
11441.6
16225.7
17513.1
21548.8
23243.2
26727.8
28591.9
31692.7
33597.2
36433.9
38294.1
40959.4
42706.8
45280.3
46847.4
49408.2
50711.7
53349.2
54244.7
57029.1
11419.3
16207.9
17489.8
21527
23217.1
26702.7
28564.6
31666.6
33570.8
36409
38269.6
40935.8
42682.9
45256.4
46822.2
49382
50683.2
53320.3
54212.5
56999.3
11398.2
16191.2
17467.6
21506.5
23192.3
26679
28538.8
31642.2
33546.2
36385.8
38246.7
40913.5
42660.1
45233
46797.5
49356
50654.5
53291.3
54180.2
56969.2
11378.5
16175.9
17447
21487.7
23169.6
26657.5
28515.3
31620
33523.6
36364.1
38224.9
40891.7
42637.5
45209.2
46772.2
49329
50624.7
53261.1
54146.7
56937.9
11360.2
16162.3
17428.6
21471.4
23149.6
26638.8
28494.5
31600
33502.8
36343.4
38203.6
40869.5
42614
45184.1
46745.2
49300.2
50592.9
53228.9
54111.1
56904.5
11343.4
16150.6
17412.3
21457.6
23132.3
26622.7
28476.2
31581.8
33483.2
36323.1
38181.8
40846.1
42588.9
45156.8
46715.7
49268.7
50558.4
53193.9
54072.8
56868.3
11327.6
16140.1
17397.6
21445.7
23116.9
26608.4
28459.2
31564.5
33463.7
36302
38158.7
40820.7
42561.3
45126.5
46683.2
49234.2
50520.8
53155.7
54031.2
56828.9
11311.7
16129.8
17383.2
21434
23101.9
26594.3
28442.3
31546.6
33443.4
36279.4
38133.6
40792.6
42530.9
45093.2
46647.4
49196.4
50479.9
53114.2
53986.5
56786.4
11294.3
16118
17367.2
21420.8
23085.4
26578.6
28423.9
31527
33421.1
36254.3
38105.9
40761.5
42497.4
45056.7
46608.5
49155.5
50436.1
53069.9
53939.1
56741.2
11273.9
16102.9
17347.8
21404.2
23065.6
26559.9
28402.5
31504.5
33396
36226.4
38075.3
40727.5
42461.1
45017.4
46566.8
49112
50389.9
53023.4
53889.5
56694
11249.2
16083.3
17323.9
21383.1
23041.6
26537.1
28377.5
31478.4
33367.6
36195.1
38041.7
40690.5
42422.1
44975.5
46522.8
49066.5
50342.1
52975.4
53838.7
56645.5
11219.8
16058.8
17295.1
21357.2
23013.1
26509.9
28348.5
31448.6
33335.8
36160.7
38005.3
40650.8
42380.8
44931.6
46477.3
49019.8
50293.3
52926.8
53787.5
56596.8
11186.3
16030.1
17262.2
21327.2
22980.6
26478.9
28315.7
31415.1
33300.7
36123.2
37966.2
40608.9
42337.6
44886.2
46430.8
48972.5
50244.5
52878.5
53736.8
56548.7
11149.9
15998.7
17226.5
21294.3
22945.1
26444.6
28279.9
31378.5
33262.9
36083.1
37925
40565.1
42293.2
44840
46384
48925.4
50196.2
52831.1
53687.2
56501.9
11112.4
15966.3
17189.7
21260
22907.8
26408.1
28241.6
31339.3
33222.6
36040.7
37882.1
40520
42248
44793.6
46337.4
48878.9
50149
52785.1
53639.2
56456.6
11075.5
15934.4
17153.1
21225.3
22869.6
26370.1
28201.7
31298.2
33180.7
35996.9
37838.2
40474.3
42202.8
44747.5
46291.7
48833.5
50103.2
52740.5
53592.8
56413.1
11040.1
15904
17117.5
21191
22831.3
26331.6
28160.8
31256
33137.8
35952.3
37794.2
40428.8
42158.2
44702.2
46247.1
48789.4
50058.8
52697.4
53547.8
56371
11006.7
15875.4
17083.4
21157.8
22793.6
26293.1
28119.9
31213.6
33095.1
35908
37750.8
40384.1
42114.7
44658.1
46203.8
48746.4
50015.4
52655.4
53503.9
56330
10975.3
15848.6
17050.8
21125.7
22757
26255.4
28079.8
31171.9
33053.2
35864.6
37708.6
40340.6
42072.6
44615.3
46161.6
48704.3
49972.9
52614
53460.5
56289.5
10945.5
15823.3
17019.6
21095.1
22721.8
26219.1
28041.2
31131.6
33012.9
35822.7
37668
40298.6
42031.9
44573.6
46120.3
48662.9
49930.8
52572.7
53417.2
56249.1
10916.9
15799.1
16989.8
21065.9
22688.2
26184.4
28004.5
31093.1
32974.5
35782.5
37629.1
40258
41992.4
44532.7
46079.6
48621.7
49888.6
52531.2
53373.5
56208.3
10889
15775.7
16961
21038
22656.4
26151.5
27969.7
31056.4
32938
35743.9
37591.6
40218.4
41953.7
44492.2
46039.2
48580.4
49846.1
52489.1
53328.9
56166.6
10861.4
15752.8
16933
21011.2
22625.9
26120.2
27936.7
31021.3
32903
35706.4
37555.1
40179.5
41915.6
44452
45998.7
48538.8
49803
52446.1
53283.2
56123.7
10833.8
15730.1
16905.4
20985.1
22596.5
26090.1
27905
30987.4
32869.1
35669.8
37519.3
40140.9
41877.7
44411.6
45958.1
48496.7
49759.1
52402
53236.3
56079.3
10805.9
15707.2
16878
20959.2
22567.7
26060.6
27874.3
30954.3
32836.1
35633.7
37484
40102.4
41839.8
44371.2
45917.2
48454
49714.5
52356.9
53188
56033.3
10777.6
15684.1
16850.3
20933.4
22539.2
26031.6
27844.2
30921.8
32803.8
35598
37449.1
40064.1
41802.1
44330.6
45876
48410.8
49669.2
52310.7
53138.4
55985.9
10749
15660.6
16822.5
20907.5
22510.9
26002.8
27814.7
30889.7
32772
35562.7
37414.6
40026
41764.5
44289.8
45834.7
48367.2
49623.2
52263.7
53087.7
55937.3
10720.2
15636.9
16794.7
20881.7
22483
25974.5
27785.8
30858.2
32741
35527.8
37380.6
39988.1
41727.1
44249.1
45793.3
48323.4
49576.9
52216.1
53036.3
55888
10691.7
15613.7
16767.3
20856.4
22455.8
25946.7
27757.7
30827.4
32710.6
35493.5
37347.1
39950.5
41690
44208.6
45752.1
48279.6
49530.6
52168.5
52985
55838.9
10664
15591.2
16740.9
20831.9
22429.4
25919.7
27730.5
30797.2
32681.1
35459.6
37314.3
39913.3
41653.6
44168.6
45711.5
48236.5
49485.1
52121.8
52934.7
55790.8
10637.4
15569.9
16715.5
20808.3
22404
25893.5
27704
30767.5
32652.2
35426.4
37282.1
39876.8
41618
44129.5
45672.1
48194.6
49441.1
52076.8
52886.1
55744.8
10612
15549.7
16691.2
20785.6
22379.4
25867.7
27678.1
30738.3
32623.8
35393.6
37250.8
39841.2
41583.6
44091.8
45634.4
48154.6
49399.3
52034.1
52840.3
55701.6
10587.4
15530.3
16667.6
20763.5
22355.3
25842.3
27652.6
30709.3
32596
35361.4
37220.4
39806.7
41550.7
44055.7
45598.8
48117
49360.2
51994.5
52797.8
55661.9
10563.2
15511.1
16644.3
20741.4
22331.3
25816.8
27627.2
30680.4
32568.7
35329.7
37191
39773.4
41519.5
44021.5
45565.4
48081.9
49324.1
51958.1
52758.7
55625.8
10538.6
15491.6
16620.5
20718.8
22307
25790.8
27601.7
30651.4