/*--------------------------------*- C++ -*----------------------------------*\
  =========                 |
  \\      /  F ield         | OpenFOAM: The Open Source CFD Toolbox
   \\    /   O peration     | Website:  https://openfoam.org
    \\  /    A nd           | Version:  8
     \\/     M anipulation  |
\*---------------------------------------------------------------------------*/
FoamFile
{
    version     2.0;
    format      ascii;
    class       volScalarField;
    location    "100";
    object      p_rgh;
}
// * * * * * * * * * * * * * * * * * * * * * * * * * * * * * * * * * * * * * //

dimensions      [1 -1 -2 0 0 0 0];

internalField   nonuniform List<scalar> 
8400
(
-15.4965
-268.152
-537.317
-828.306
-1130.64
-1435.55
-1735.85
-2026.19
-2303.16
-2565.13
-2812.3
-3046.14
-3269.14
-3484.48
-3695.82
-3906.63
-4119.73
-4336.83
-4558.34
-4783.48
-5010.91
-5238.87
-5465.13
-5686.74
-5900.5
-6103.72
-6294.6
-6472.81
-6639
-6793.19
-6933.86
-7059.01
-7166.51
-7252.57
-7311.35
-7335.78
-7317.4
-7246.34
-7111.93
-6901.58
-6598.66
-6183.73
-5635.36
-4924.47
-4011.08
-2854.38
-1409.56
453.355
3058.61
6562.6
-38.8511
-320.956
-596.896
-889.11
-1191.11
-1496.05
-1797.42
-2090.14
-2370.44
-2636.27
-2887.64
-3126
-3353.79
-3573.98
-3790.25
-4005.93
-4223.76
-4445.45
-4671.33
-4900.85
-5133.08
-5366.57
-5599.08
-5827.71
-6049.47
-6261.9
-6463.77
-6655.31
-6836.93
-7007.79
-7166.4
-7311.67
-7441.82
-7553.13
-7640.2
-7696.39
-7714.36
-7685.94
-7601.15
-7448.43
-7214.33
-6883.28
-6438.48
-5859.06
-5117.85
-4188.66
-3047.91
-1634.4
193.502
2501.83
-6.15499
-243.097
-498.554
-777.464
-1069.21
-1366.41
-1662.21
-1950.98
-2228.5
-2492.2
-2741.71
-2978.05
-3203.34
-3420.06
-3631.65
-3841.56
-4052.38
-4265.49
-4480.99
-4698.73
-4918.14
-5137.94
-5355.96
-5569.67
-5776.47
-5974.22
-6162.19
-6340.56
-6508.56
-6664.48
-6807.06
-6935.17
-7046.65
-7137.83
-7202.94
-7234.55
-7225.67
-7168.87
-7053.49
-6866.75
-6595.78
-6226.99
-5744.01
-5125.64
-4348.93
-3394.95
-2243.82
-864.748
776.436
2616.64
-151.495
-403.784
-663.248
-938.841
-1227.44
-1523.8
-1821.85
-2115.67
-2400.63
-2674.01
-2935.01
-3183.99
-3422.2
-3652.05
-3876.88
-4100.18
-4324.12
-4549.84
-4777.77
-5008.15
-5240.74
-5474.51
-5707.94
-5939.24
-6166.3
-6387.85
-6603.9
-6814.21
-7017.16
-7211.22
-7395.78
-7570.13
-7732.23
-7878.17
-8002.69
-8100.19
-8164.9
-8189.82
-8165.63
-8082.06
-7928.78
-7693.95
-7364.6
-6923.79
-6351.97
-5632.63
-4750.25
-3688.23
-2438.19
-1047.54
-81.4497
-264.308
-490.697
-743.315
-1013.63
-1295.06
-1580.9
-1864.95
-2142.5
-2410.44
-2667.21
-2912.24
-3145.99
-3370.77
-3589.78
-3805.92
-4020.89
-4235.48
-4450.53
-4666.35
-4882.61
-5098.61
-5313.43
-5525.49
-5733.33
-5936.7
-6135.65
-6329.1
-6515.35
-6693.41
-6862.88
-7022.92
-7171.13
-7303.14
-7414.45
-7500.98
-7557.52
-7577.36
-7552.57
-7475.59
-7339.45
-7134.06
-6847.61
-6469.85
-5990.03
-5396.59
-4682.97
-3843.96
-2886.65
-1858.62
-276.95
-497.149
-735.241
-987.099
-1255.04
-1535.47
-1822.93
-2111.84
-2397.96
-2677.83
-2948.71
-3209.23
-3459.58
-3701.86
-3938.85
-4172.59
-4404.43
-4635.49
-4866.59
-5097.95
-5329.5
-5560.99
-5791.69
-6020.52
-6247.3
-6472.61
-6696.23
-6917.12
-7134.48
-7347.79
-7556.27
-7758.67
-7952.47
-8133.69
-8298.28
-8442.8
-8562.75
-8652.33
-8705.12
-8714.25
-8673.94
-8576.64
-8413.14
-8175.78
-7856.25
-7446.84
-6946.94
-6356.27
-5690.98
-4983.4
-148.837
-293.483
-497.306
-726.385
-975.209
-1238.44
-1510.63
-1786.86
-2062.83
-2334.78
-2599.26
-2854.57
-3100.88
-3339.85
-3573.26
-3802.68
-4029.23
-4254
-4477.62
-4700.33
-4922.2
-5143.06
-5362.28
-5579.59
-5795.77
-6011.58
-6227.05
-6441.92
-6655.88
-6868.39
-7078.76
-7285.66
-7486.67
-7678.43
-7857.79
-8022.34
-8168.36
-8291.04
-8386.6
-8451.57
-8480.34
-8466.07
-8404.6
-8291.41
-8120.79
-7886.94
-7589.57
-7231.23
-6825.21
-6403.12
-367.512
-573.26
-799.673
-1034.31
-1283.7
-1546.4
-1818.96
-2097.45
-2377.74
-2655.87
-2928.48
-3193.93
-3452.22
-3704.34
-3951.34
-4194.15
-4433.79
-4671.16
-4906.7
-5140.65
-5373.09
-5603.65
-5831.99
-6058.6
-6284.62
-6511.15
-6739
-6968.41
-7199.36
-7432.11
-7666.53
-7900.88
-8132.49
-8358.72
-8577.36
-8786.41
-8983.16
-9163.41
-9323.61
-9462.12
-9575.35
-9658.86
-9710.82
-9727.71
-9705.64
-9644.91
-9544.45
-9410.08
-9252.45
-9090.45
-194.321
-326.353
-525.075
-746.307
-985.46
-1238.32
-1501.41
-1771.12
-2043.74
-2315.8
-2584.49
-2848.37
-3107.34
-3361.36
-3610.66
-3855.89
-4097.95
-4337.33
-4574.19
-4808.74
-5040.89
-5270.09
-5496.24
-5720.33
-5943.95
-6168.76
-6396.09
-6626.97
-6862.76
-7104.87
-7353.21
-7605.76
-7860.15
-8114.88
-8368.38
-8618.21
-8861.6
-9097.04
-9323.65
-9538.5
-9738.91
-9923.87
-10093.1
-10245.6
-10377.1
-10490.1
-10582.9
-10661.8
-10734.9
-10815.1
-387.977
-586.307
-812.212
-1042.88
-1284.7
-1537.05
-1797.93
-2064.91
-2335.11
-2606.07
-2875.8
-3143.02
-3407
-3667.06
-3923.11
-4175.76
-4425.43
-4672.07
-4915.67
-5156.29
-5393.43
-5626.32
-5855.18
-6081.39
-6306.73
-6532.99
-6762.17
-6996.89
-7239.96
-7493.31
-7756.91
-8028.94
-8307.84
-8592.49
-8881.3
-9172.65
-9463.79
-9753.49
-10043.2
-10331.8
-10616
-10897.5
-11176
-11451.8
-11723.8
-11993.8
-12261.5
-12530.9
-12811.1
-13103.9
-217.269
-365.476
-576.394
-804.325
-1045.22
-1295.9
-1553.92
-1817.3
-2084.18
-2352.91
-2622.08
-2890.36
-3156.51
-3419.8
-3680.37
-3938.55
-4193.96
-4446.26
-4695.52
-4941.35
-5182.65
-5418.78
-5650.34
-5878.74
-6105.65
-6333.15
-6564.26
-6802.8
-7052.4
-7315.66
-7593.75
-7886.73
-8194.25
-8514.56
-8844.63
-9182.53
-9527.86
-9879.98
-10239.8
-10607.4
-10981
-11362.3
-11754.8
-12155.9
-12567.3
-12989.8
-13423.8
-13873.3
-14344.6
-14834.5
-338.912
-543.261
-777.477
-1015.29
-1260.55
-1512.47
-1769.84
-2031.32
-2296.03
-2562.98
-2830.93
-3098.43
-3364.47
-3628.88
-3891.82
-4152.87
-4411.44
-4667.41
-4920.48
-5169.45
-5412.99
-5650.74
-5883.2
-6111.41
-6337.04
-6562.55
-6791.74
-7029.45
-7280.18
-7547.49
-7834.04
-8141.07
-8468.7
-8817.15
-9183.68
-9563.86
-9957.49
-10365
-10787.4
-11226
-11680.9
-12152.5
-12644.2
-13157
-13689.9
-14244.2
-14820.2
-15422.7
-16056
-16709.9
-197.182
-378.026
-606.372
-847.144
-1097.13
-1353.39
-1614.19
-1878.34
-2145.26
-2414.01
-2683.35
-2952.15
-3220.02
-3487.19
-3753.51
-4018.51
-4282.04
-4543.93
-4803.17
-5058.08
-5307.34
-5550.35
-5787.07
-6018.07
-6244.95
-6470.75
-6700.14
-6939.16
-7193.64
-7467.77
-7765.14
-8088.64
-8439.54
-8817.9
-9221.9
-9648.76
-10095.9
-10563
-11052
-11564.2
-12099.8
-12661.7
-13249.7
-13867.1
-14514.1
-15190.7
-15896.2
-16635.3
-17413
-18214.9
-239.912
-461.824
-706.129
-955.392
-1211.04
-1471.4
-1735.21
-2001.6
-2269.88
-2538.93
-2807.58
-3075.29
-3342.15
-3608.42
-3874.2
-4139.58
-4404.66
-4668.95
-4931.03
-5189.09
-5441.56
-5687.25
-5925.21
-6155.06
-6378.16
-6598.14
-6820.94
-7054.4
-7305.79
-7580.71
-7884.16
-8219.55
-8588.22
-8989.5
-9422.5
-9886.78
-10380.4
-10899.5
-11446.1
-12022.3
-12627.9
-13265.4
-13936.7
-14642.4
-15383.6
-16160.4
-16972.4
-17822.4
-18715.7
-19636.3
-132.285
-351.511
-596.113
-850.579
-1112.44
-1379.02
-1648.78
-1920.69
-2193.45
-2465.88
-2737.01
-3006.59
-3275.08
-3543.05
-3811.02
-4079.48
-4348.68
-4617.97
-4885.83
-5150.45
-5409.84
-5661.62
-5903.39
-6133.79
-6353.71
-6567.32
-6782.3
-7008.17
-7254.9
-7531.76
-7844.71
-8196.52
-8586.94
-9013.88
-9476.6
-9975.79
-10510.7
-11078.4
-11678.3
-12312.7
-12982.9
-13686.7
-14430
-15212.5
-16036.2
-16899.8
-17802.8
-18748
-19739.2
-20759
-121.658
-370.645
-625.734
-886.59
-1152.96
-1423.52
-1696.92
-1971.77
-2246.57
-2520.08
-2791.55
-3061.03
-3329.25
-3597
-3865.03
-4134.15
-4404.72
-4676.11
-4947.16
-5216.17
-5480.3
-5735.67
-5978.46
-6206.04
-6418.3
-6619.55
-6819.04
-7029.86
-7267.21
-7543.7
-7866.2
-8235.98
-8649.33
-9101.23
-9589.53
-10116
-10679.3
-11281
-11919.8
-12595.7
-13312.6
-14068.6
-14866.4
-15708.4
-16596.8
-17530
-18506.3
-19527.1
-20595.4
-21691.5
-50.3462
-309.133
-566.756
-831.172
-1101.05
-1375.03
-1651.61
-1929.16
-2206.09
-2481.17
-2753.98
-3024.93
-3294.78
-3564.32
-3834.58
-4106.59
-4380.86
-4657.38
-4935.55
-5213.38
-5487
-5751.28
-6000.9
-6231.07
-6439.39
-6629.35
-6811.67
-7003.89
-7227.93
-7502.41
-7836.11
-8227.37
-8666.76
-9142.71
-9650.71
-10193.3
-10772.9
-11391.7
-12051
-12753
-13497.5
-14288.5
-15126.3
-16012.9
-16952.1
-17941.8
-18980.3
-20064.2
-21193
-22348.7
-27.2243
-304.074
-565.761
-832.183
-1103.24
-1378.25
-1655.72
-1933.98
-2211.46
-2487.19
-2761.14
-3033.76
-3305.63
-3577.69
-3851.17
-4127.2
-4406.78
-4690.56
-4977.95
-5266.34
-5551.12
-5826
-6083.15
-6314.12
-6513.57
-6682.61
-6832.17
-6986.75
-7179.57
-7440.51
-7782.33
-8197.34
-8663.46
-9159.86
-9680.25
-10227.7
-10810.8
-11435.2
-12101
-12812.7
-13572
-14383.5
-15249.4
-16171.6
-17152.5
-18192
-19285.9
-20427.5
-21607.9
-22804.3
-6.71603
-286.538
-546.277
-811.745
-1082.38
-1357.38
-1635.08
-1913.65
-2191.61
-2468.32
-2743.78
-3018.26
-3292.33
-3566.98
-3843.48
-4123.25
-4407.63
-4697.3
-4991.29
-5286.57
-5578.01
-5857.8
-6115.42
-6340.04
-6523.58
-6664.76
-6776.73
-6891.51
-7056.38
-7314.52
-7678.38
-8131.7
-8631.1
-9144.19
-9667.41
-10213.9
-10795.5
-11420.1
-12088.9
-12804.1
-13570.2
-14391.8
-15272.3
-16215.9
-17225.6
-18300.4
-19434.3
-20612.8
-21816.5
-23018
-15.7472
-282.782
-537.71
-801.051
-1070.79
-1345.5
-1623.18
-1901.93
-2180.37
-2457.85
-2734.26
-3009.83
-3285.16
-3561.23
-3839.38
-4121.15
-4407.81
-4699.84
-4996.12
-5293.54
-5586.57
-5866.66
-6122.83
-6343.55
-6519.84
-6651
-6751.46
-6856.47
-7018.14
-7282.27
-7657.55
-8122.04
-8622.52
-9132.09
-9650.75
-10195.6
-10777.6
-11401.4
-12066.8
-12776.1
-13536.1
-14352.3
-15229.5
-16173.6
-17188.6
-18271.8
-19413.9
-20597.5
-21800.4
-22993.4
47437.7
39275.5
35242.9
33725.3
32891.9
32284.2
31861.9
31578.9
31380.1
31230.1
31111.4
31014
30931.3
30859
30794
30734.5
30679
30626.4
30576
30527.1
30478.9
30430.8
30382
30332
30279.7
30224.5
30165.3
30101.3
30031.3
29954.1
29868.6
29773
29665.9
29545.2
29408.5
29252.8
29074.9
28870.6
28635.3
28363
28046.7
27677.8
27245.7
26736.9
26134
25413.4
24542.2
23471.2
22119.8
20351.5
21902.5
26491.8
27994
28561
28996.3
29323.1
29548.8
29710.3
29830.4
29920.5
29987.5
30037
30072.9
30097.9
30114.1
30123.1
30126
30123.9
30117.4
30106.9
30092.6
30074.7
30053
30027.2
29997
29961.9
29921.1
29874.1
29819.8
29757.3
29685.4
29602.7
29507.6
29398
29271.7
29126.2
28958.1
28763.6
28538.2
28276.4
27971.8
27616.1
27199.5
26709.6
26131
25444
24623.8
23638.8
22451.5
21027.9
29231.8
31402
32585.6
32689
32533.4
32362.9
32178
31988.2
31811.2
31653.3
31513.5
31389.3
31278.4
31178.6
31087.9
31004.9
30928
30856.3
30788.8
30724.5
30662.7
30602.5
30543.1
30483.6
30423.3
30361
30296
30227.3
30153.9
30074.6
29988.3
29893.5
29788.5
29671.2
29539.4
29390.4
29221.3
29028.3
28807.2
28552.7
28259
27918.9
27523.7
27063
26524.5
25893.4
25152.8
24283.9
23269.7
22101.8
29580.3
29989.6
30181.5
30110.6
30009.4
29967.2
29957
29956.1
29961.8
29973
29986.6
30000.2
30012.2
30021.9
30028.7
30032.6
30033.4
30031.4
30026.6
30018.9
30008.4
29994.8
29978.1
29957.8
29933.5
29904.6
29870.7
29830.8
29784.4
29730.7
29668.7
29597.3
29515
29420.3
29311.1
29185.3
29039.9
28871.9
28677.4
28452
28190.6
27887.3
27534.8
27125.1
26649
26096.4
25457.1
24722.3
23888.3
22961.9
30119.3
30368.5
30685.6
30918
31058.8
31149.3
31203
31223.4
31218.5
31196.9
31164.3
31124.3
31079.4
31031.4
30981.6
30930.8
30879.8
30828.8
30778
30727.5
30677.2
30626.8
30576
30524.3
30471.4
30416.5
30359.1
30298.3
30233.3
30163.2
30087.1
30003.8
29912
29810.3
29696.8
29569.5
29425.8
29263.2
29078.2
28867.2
28625.9
28349.4
28032.1
27668.1
27250.6
26773.3
26230.4
25618.7
24939.4
24201.5
30322.9
30408.7
30517.2
30579.9
30583.5
30556.6
30519.6
30478.8
30437.2
30397.4
30360.7
30327.3
30296.8
30268.8
30242.8
30218.3
30194.9
30172.3
30150.2
30128.2
30105.9
30083
30059.1
30033.6
30006.1
29976
29942.9
29906.1
29864.9
29818.7
29766.7
29707.9
29641.2
29565.4
29478.9
29380.2
29267.2
29137.6
28988.8
28818
28621.8
28396.4
28137.9
27842
27504.4
27121.4
26690.5
26211.6
25688.9
25131.8
30435.9
30480.4
30552.5
30625.4
30681.6
30723.7
30756.7
30781.3
30796.9
30804.3
30804.5
30798.4
30786.9
30770.7
30750.6
30727.3
30701.2
30673
30643
30611.6
30578.8
30544.7
30509.3
30472.3
30433.6
30392.7
30349.5
30303.4
30254.1
30201.1
30143.6
30081.1
30012.6
29937.2
29853.7
29760.9
29657
29540.5
29409.4
29261.4
29094.2
28905.1
28691.2
28449.9
28178.4
27874.8
27538.4
27170.4
26775
26359.4
30494.3
30516.6
30554.7
30595.3
30624.3
30638.4
30639.9
30631.6
30615.2
30592.8
30566.2
30536.9
30506
30474.3
30442.5
30410.8
30379.7
30349.1
30319.4
30290.3
30261.8
30233.7
30205.8
30177.8
30149.2
30119.7
30089
30056.7
30022.3
29985.3
29945.3
29901.6
29853.7
29800.8
29742
29676.3
29602.7
29519.9
29426.6
29321.4
29202.6
29068.5
28917.6
28748.1
28558.7
28348.8
28118.6
27870
27606.9
27335.4
30525.6
30539.3
30564.6
30595.8
30624.1
30645.5
30660.1
30669
30672.6
30671.5
30666.4
30657.6
30645.8
30631.2
30614.4
30595.5
30575
30553.2
30530.3
30506.6
30482
30456.8
30430.9
30404.2
30376.6
30348
30318.3
30287.4
30254.9
30220.8
30184.7
30146.4
30105.6
30061.7
30014.4
29963
29907
29845.8
29778.5
29704.4
29622.8
29532.9
29433.7
29324.8
29205.7
29076.4
28937.7
28791.2
28639.8
28487.4
30539.6
30549.8
30569.2
30594.1
30617.8
30635.6
30646.4
30650.3
30648
30640.2
30627.7
30611.4
30592.2
30570.7
30547.6
30523.3
30498.3
30473
30447.7
30422.5
30397.7
30373.2
30349
30325.1
30301.4
30277.8
30254.2
30230.5
30206.6
30182.5
30157.9
30132.9
30107.3
30080.9
30053.5
30025.1
29995.3
29964.2
29931.5
29897.2
29861.1
29823.3
29783.7
29742.6
29700.2
29657.1
29614.3
29573
29535.4
29503.9
30540.7
30550.8
30570.2
30595.2
30618.9
30636.9
30647.8
30652
30650.1
30642.7
30630.8
30615.3
30596.8
30576.2
30554
30530.8
30507
30483
30459.2
30435.8
30412.9
30390.7
30369.3
30348.6
30328.6
30309.4
30290.9
30273.3
30256.5
30240.7
30225.9
30212.2
30199.8
30188.7
30179.2
30171.5
30165.9
30162.7
30162.4
30165.4
30172.5
30184.3
30201.6
30225.2
30256
30294.9
30343
30401.2
30470.4
30551.3
30528.8
30542.5
30567.7
30598.9
30627.4
30649.2
30664.4
30674.1
30678.8
30679.1
30675.5
30668.7
30659
30646.9
30632.6
30616.7
30599.4
30581.2
30562.3
30543.1
30523.9
30504.9
30486.4
30468.4
30451.1
30434.8
30419.6
30405.7
30393.5
30383.1
30375
30369.4
30366.8
30367.6
30372.3
30381.7
30396.4
30417.4
30445.5
30482.1
30528.3
30585.6
30655.4
30739.3
30838.7
30955.1
31089.4
31242.2
31413.4
31602.3
30499.5
30521.8
30559.8
30600.4
30629.7
30644.4
30647
30640
30625.5
30605.3
30581.4
30555.3
30528.1
30500.5
30473.1
30446.4
30420.8
30396.5
30373.6
30352.5
30333.3
30315.9
30300.6
30287.3
30276.2
30267.4
30261.1
30257.4
30256.7
30259.4
30265.7
30276.3
30291.8
30312.7
30340
30374.6
30417.7
30470.5
30534.7
30611.9
30704.1
30813.4
30942
31092.2
31266.1
31465.7
31692.2
31946.1
32226.5
32531.4
30443
30487.5
30559.5
30632.4
30689.1
30732
30766.3
30792.7
30810.8
30821.2
30825
30823.2
30816.5
30805.8
30791.6
30774.8
30756.1
30736
30715.3
30694.3
30673.6
30653.7
30634.9
30617.6
30602.2
30589
30578.5
30571.1
30567.3
30567.8
30573.3
30584.3
30601.9
30627.1
30660.9
30704.8
30760.3
30829.2
30913.7
31015.9
31138.7
31284.7
31457
31658.7
31892.8
32162
32468.1
32811.6
33190.6
33601.3
30331.7
30417.5
30525.9
30588.7
30592.8
30567
30531.6
30493.2
30454.7
30418.7
30386.6
30358.6
30334.2
30313.1
30294.6
30278.4
30264.3
30252
30241.6
30232.9
30226.1
30221.2
30218.5
30218
30220.1
30225
30233.1
30244.9
30260.9
30281.8
30308.4
30341.6
30382.3
30432
30491.8
30563.7
30649.5
30751.4
30872
31014.3
31181.5
31377.2
31605.5
31870.4
32176.2
32526.7
32925
33372.5
33867.6
34406.5
30129.6
30378.8
30695.8
30928.4
31069.9
31161.6
31217.2
31240.3
31238.9
31221.6
31194.3
31160.5
31122.5
31082.4
31041.3
31000.3
30960
30921
30883.9
30848.9
30816.6
30787.1
30760.9
30738.2
30719.4
30704.9
30695.1
30690.6
30692
30700
30715.5
30739.7
30773.6
30818.6
30876.5
30949.2
31039
31148.3
31280.4
31438.6
31626.9
31849.7
32111.9
32418.9
32776.3
33189.5
33663.3
34200.8
34801.2
35459
29591.9
30001.1
30193
30122.3
30021.8
29981
29973
29975.2
29984.8
30000.9
30020.5
30041
30060.8
30079.2
30095.8
30110.5
30123.5
30135
30145.4
30155.1
30164.7
30174.7
30185.5
30197.6
30211.7
30228.4
30248.2
30272.1
30300.7
30335.2
30376.5
30426
30485.2
30555.6
30639.2
30738.4
30855.6
30993.9
31156.8
31348.3
31573
31836.1
32143.8
32502.7
32920.3
33404.4
33963.1
34602.9
35327.1
36134.3
29244.3
31414.6
32598.1
32701.8
32547
32378.1
32195.4
32009
31836.3
31683.7
31550.3
31433.5
31331.1
31240.8
31160.8
31089.5
31025.9
30968.9
30918.1
30873
30833.3
30798.8
30769.6
30745.7
30727.3
30714.7
30708.2
30708.5
30716.2
30732.1
30757.3
30792.9
30840.5
30901.7
30978.5
31073.3
31188.8
31328.4
31495.7
31695.3
31932.1
32212.3
32542.8
32931.8
33388.7
33924.2
34550.5
35279.6
36122
37082.8
21915.6
26504.9
28007.1
28574.5
29010.8
29339.1
29567.3
29732.2
29856.7
29952.2
30025.8
30082.9
30127.5
30162.3
30189.5
30210.7
30227.4
30240.6
30251.5
30260.9
30269.6
30278.5
30288.2
30299.4
30312.9
30329.3
30349.6
30374.5
30405
30442.3
30487.7
30542.4
30608.3
30687.3
30781.5
30893.6
31026.5
31183.7
31369.3
31588.2
31845.7
32148.6
32504.8
32923.5
33416.1
33996.4
34681.3
35491.5
36450.7
37585
47450.9
39288.8
35256.3
33739.2
32906.8
32301
31881.3
31601.9
31407.6
31263.3
31151.3
31061.7
30988
30925.7
30872.1
30825.1
30783.7
30747.1
30714.7
30686.4
30662
30641.7
30625.6
30613.8
30606.8
30605.1
30609
30619.3
30636.9
30662.7
30697.8
30743.6
30801.8
30874.2
30963.1
31071
31201
31356.6
31542
31762.2
32022.9
32331
32694.9
33124.8
33633.3
34236.7
34956.8
35824.5
36886.6
38225.5
41.9045
5014.97
6477.59
10463.4
12242.4
15629.5
17577.5
20603.6
22586.2
25374.1
27304.4
29932.9
31742.2
34282.7
35895.3
38427
39752.3
42412
43365
46340.5
138.425
5072.94
6510.61
10482.8
12258.4
15646.3
17596.8
20626.8
22611.7
25403.9
27336.3
29968.4
31781.7
34325.3
35946.7
38485.2
39829.9
42506.9
43493.8
46494.5
212.848
5122.65
6547.1
10509.7
12281.7
15670.3
17621.1
20655.1
22641.3
25437.7
27372.7
30009.2
31827
34375.9
36005.5
38552.5
39911.5
42601.7
43606.6
46615.6
275.621
5166.68
6583.8
10540
12310
15699.4
17649.7
20687.5
22674.7
25475.2
27413.3
30054.3
31877.2
34431.6
36068.8
38623.2
39993.1
42691.2
43705.9
46714.1
331.258
5207.17
6620.28
10572.2
12341.3
15731.8
17681.7
20723.2
22711.5
25516.2
27457.3
30102.9
31930.6
34490
36134.2
38694.3
40072.8
42775.1
43795.5
46798.6
382.313
5245.25
6656.25
10605.5
12374.6
15766.9
17716.5
20761.9
22751.3
25560
27504.2
30153.9
31986.1
34549.7
36200
38764.6
40149.9
42854
43877.9
46873.7
430.73
5281.86
6691.87
10639.5
12409.5
15804.2
17753.9
20803.4
22793.9
25606.5
27553.2
30206.5
32042.8
34610
36265.6
38833.4
40224.2
42928.6
43954.6
46942.1
477.26
5317.64
6727.39
10674.4
12445.7
15843.5
17793.6
20847.3
22839
25655.2
27604.2
30260.5
32100.2
34670.4
36330.5
38900.5
40295.9
42999.4
44026.8
47005.4
522.207
5352.55
6762.69
10710
12483.2
15884.7
17835.4
20893.6
22886.2
25705.6
27656.5
30315.6
32157.9
34730.5
36394.4
38965.9
40365.1
43066.8
44094.9
47064.5
566.113
5387.01
6797.96
10746.2
12521.7
15927.4
17878.8
20941.4
22934.9
25757.6
27709.9
30371.5
32216.2
34790.5
36457.5
39029.8
40431.9
43131.6
44159.9
47120.3
609.023
5421.1
6833.15
10782.9
12560.9
15971.1
17923.4
20990.2
22984.7
25810.4
27764.3
30428.1
32274.7
34850.4
36519.9
39092.5
40496.9
43194
44222.5
47173.7
651.183
5455.02
6868.44
10820
12600.5
16015.5
17968.5
21039.7
23035
25863.9
27819
30485
32333.2
34910
36581.4
39153.9
40560.3
43254.7
44283.1
47225.3
692.79
5488.9
6903.68
10857.5
12640.2
16060.3
18013.9
21089.6
23085.8
25917.7
27874.1
30542.1
32391.6
34969.2
36642.1
39214.4
40622.4
43314.2
44342.3
47275.7
734.201
5523.1
6939.18
10895.2
12680
16105.1
18059.4
21139.3
23136.5
25971.5
27929
30598.8
32449.4
35027.8
36701.9
39273.9
40683.4
43372.7
44400.4
47325
775.726
5557.83
6975.11
10933.7
12720.1
16150.2
18105
21189.1
23186.9
26024.9
27983.2
30654.7
32506.1
35085.2
36760.5
39332.4
40743.1
43429.9
44457.2
47373.2
817.941
5593.86
7012.05
10973.4
12760.9
16195.9
18150.9
21238.8
23237.1
26077.7
28036.4
30709.6
32561.6
35141.4
36817.6
39389.4
40801.2
43485.6
44512.2
47419.9
861.051
5631.3
7050.33
11014.4
12802.7
16242.4
18197.3
21288.6
23286.9
26129.8
28088.7
30763.2
32615.6
35196.1
36873
39444.8
40857.4
43539.5
44565.3
47464.9
905.34
5670.37
7090.02
11057
12845.5
16289.8
18244.3
21338.5
23336.4
26181.2
28139.8
30815.6
32668
35249.3
36926.6
39498.3
40911.5
43591.3
44616.3
47508.1
950.888
5711.19
7131.13
11101.1
12889.4
16338.1
18291.8
21388.7
23385.6
26232.2
28190.2
30867
32719.2
35301
36978.4
39550
40963.6
43641.2
44665.3
47549.8
997.24
5753.4
7173.36
11146.5
12934.2
16387.2
18339.7
21439
23434.8
26282.7
28239.8
30917.5
32769.1
35351.5
37028.7
39600.2
41013.8
43689.5
44712.5
47590
1043.94
5796.46
7216.29
11192.7
12979.6
16436.6
18387.8
21489.2
23483.6
26332.8
28288.8
30967.3
32818.2
35401
37077.7
39649.2
41062.5
43736.4
44758.4
47629.2
1090.63
5839.96
7259.43
11239.2
13025.1
16485.9
18435.8
21539.1
23532.1
26382.5
28337.3
31016.6
32866.4
35449.7
37125.8
39697.2
41110.1
43782.4
44803.2
47667.7
1136.77
5883.48
7302.28
11285.6
13070.2
16534.8
18483.1
21588.4
23579.9
26431.6
28385.1
31065.3
32914.1
35497.9
37173.1
39744.6
41156.8
43827.7
44847.1
47705.7
1181.98
5926.61
7344.51
11331.4
13114.6
16582.8
18529.6
21636.9
23627.1
26480.1
28432.5
31113.7
32961.3
35545.8
37219.9
39791.5
41203
43872.6
44890.6
47743.5
1226.03
5968.95
7385.67
11376.3
13158
16629.8
18575.2
21684.7
23673.7
26528.3
28479.5
31161.9
33008.2
35593.5
37266.3
39838.3
41248.7
43917.3
44933.7
47781.4
1268.75
6010.45
7425.69
11420.2
13200.5
16675.8
18620.2
21732.1
23720.1
26576.4
28526.5
31210
33055.1
35641.2
37312.6
39885.1
41294.4
43962.1
44976.8
47819.7
1310.12
6051.01
7464.59
11463.2
13242.4
16721.2
18664.8
21779.3
23766.5
26624.6
28573.6
31258.4
33101.9
35689
37358.9
39932
41340
44007.1
45020
47858.4
1350.18
6090.61
7502.46
11505.4
13283.8
16766.4
18709.4
21826.7
23813.1
26673
28620.8
31306.9
33148.9
35737
37405.3
39979.2
41385.8
44052.5
45063.3
47897.7
1389.14
6129.5
7539.61
11547.2
13325.1
16811.5
18754.2
21874.2
23859.9
26721.6
28668.1
31355.4
33195.9
35785.1
37451.8
40026.7
41431.6
44098
45106.7
47937.4
1427.21
6167.88
7576.36
11588.7
13366.4
16856.6
18799
21921.7
23906.5
26770
28715.2
31404
33242.7
35833.3
37498.2
40074.3
41477.4
44143.6
45150
47977.3
1464.54
6205.99
7612.89
11630
13407.7
16901.5
18843.6
21968.8
23952.8
26818.1
28762
31452.2
33289.3
35881.4
37544.4
40121.7
41522.8
44189.1
45192.9
48017.2
1501.31
6244.06
7649.41
11671.2
13448.7
16946
18887.7
22015.3
23998.6
26865.6
28808.2
31500
33335.5
35929
37590.1
40168.6
41567.6
44234
45235.3
48057
1537.63
6282.24
7686.02
11712.2
13489.5
16989.9
18931.2
22061.2
24043.6
26912.5
28853.8
31547.1
33380.9
35976.1
37635
40215
41611.6
44278.4
45277
48096.6
1573.66
6320.7
7722.77
11753.1
13530
17033.3
18974.1
22106.3
24087.8
26958.5
28898.6
31593.6
33425.6
36022.3
37679.1
40260.5
41654.7
44322.1
45318
48136
1609.56
6359.53
7759.65
11793.7
13570
17076.2
19016.3
22150.7
24131.4
27003.8
28942.5
31639.1
33469.3
36067.6
37722.1
40305.1
41696.9
44365.2
45358.4
48175.1
1645.38
6398.7
7796.62
11834.1
13609.8
17118.6
19058
22194.4
24174.1
27048.2
28985.5
31683.6
33511.9
36111.9
37764.1
40348.8
41738.2
44407.4
45397.9
48213.8
1681.18
6438.18
7833.64
11874.4
13649.2
17160.4
19099.1
22237.3
24215.9
27091.6
29027.4
31727
33553.4
36155
37804.9
40391.4
41778.4
44448.9
45436.6
48252.1
1717.01
6477.91
7870.66
11914.6
13688.3
17201.9
19139.6
22279.4
24256.9
27133.9
29068.1
31769.2
33593.6
36196.9
37844.5
40433
41817.4
44489.3
45474.3
48289.7
1752.89
6517.9
7907.72
11954.7
13727.3
17242.9
19179.5
22320.8
24296.9
27175.2
29107.8
31810.2
33632.6
36237.7
37882.9
40473.3
41855.3
44528.7
45511
48326.6
1788.89
6558.19
7944.91
11994.9
13766.1
17283.6
19219
22361.5
24336.2
27215.6
29146.5
31850.2
33670.5
36277.3
37920.2
40512.6
41892.1
44567
45546.7
48362.8
1825.1
6598.88
7982.35
12035.3
13804.9
17324.3
19258.2
22401.9
24375
27255.3
29184.4
31889.3
33707.6
36315.9
37956.5
40550.8
41927.8
44604.4
45581.4
48398.4
1861.6
6640.04
8020.15
12076.1
13844
17365
19297.3
22442
24413.4
27294.6
29221.8
31927.7
33743.9
36353.7
37991.9
40588.2
41962.7
44640.9
45615.4
48433.6
1898.33
6681.58
8058.21
12117.1
13883.1
17405.7
19336.3
22481.8
24451.5
27333.4
29258.7
31965.5
33779.6
36390.9
38026.8
40625
41997.1
44676.9
45649.1
48468.5
1935.09
6723.25
8096.27
12158.1
13922
17446.2
19375
22521.4
24489.3
27371.8
29295.2
32002.9
33815
36427.7
38061.4
40661.5
42031.2
44712.7
45682.5
48503.3
1971.52
6764.62
8133.93
12198.7
13960.4
17486.2
19413.3
22560.5
24526.7
27409.8
29331.4
32040.1
33850.3
36464.4
38096
40697.9
42065.4
44748.4
45716
48538.1
2007.24
6805.31
8170.82
12238.6
13998.1
17525.6
19450.9
22599
24563.6
27447.5
29367.5
32077.1
33885.6
36501.2
38130.8
40734.5
42099.9
44784.2
45749.7
48573.2
2042.03
6845.1
8206.76
12277.5
14034.8
17564.1
19487.8
22636.9
24600.2
27484.9
29403.5
32114.2
33921.2
36538.2
38166.1
40771.4
42134.7
44820.4
45783.6
48608.7
2075.92
6884.07
8241.86
12315.7
14070.7
17601.8
19524.1
22674.4
24636.5
27522.1
29439.7
32151.5
33957.2
36575.7
38201.8
40808.7
42170.1
44856.9
45817.9
48644.7
2109.23
6922.57
8276.49
12353.4
14106.1
17639.2
19559.9
22711.5
24672.6
27559.4
29476.1
32189.2
33993.8
36613.7
38238.2
40846.5
42206
44893.8
45852.6
48681.3
2142.48
6961.14
8311.18
12391.1
14141.5
17676.4
19595.8
22748.7
24709
27597
29513.1
32227.4
34031
36652.2
38275.3
40884.7
42242.5
44931.2
45887.6
48718.4
2176.24
7000.34
8346.44
12429.4
14177.2
17713.9
19631.8
22786.1
24745.7
27634.9
29550.6
32266.1
34069
36691.2
38312.9
40923.2
42279.3
44968.8
45922.8
48756
2210.96
7040.55
8382.62
12468.5
14213.6
17752.1
19668.4
22824
24783
27673.4
29588.7
32305.3
34107.4
36730.5
38350.8
40961.9
42316.3
45006.5
45958
48793.6
2246.85
7081.9
8419.87
12508.5
14250.9
17791
19705.8
22862.6
24821
27712.5
29627.5
32344.9
34146.2
36769.9
38388.8
41000.3
42353.2
45043.9
45992.9
48831.1
2283.84
7124.34
8458.18
12549.6
14289.1
17830.9
19744.2
22902
24859.8
27752.2
29666.6
32384.6
34185
36809
38426.6
41038.3
42389.5
45080.7
46027.2
48868
2321.72
7167.68
8497.43
12591.7
14328.5
17871.9
19783.5
22942.4
24899.4
27792.2
29706
32424.1
34223.6
36847.5
38463.7
41075.3
42424.8
45116.5
46060.5
48904.1
2360.17
7211.67
8537.45
12634.7
14368.8
17913.8
19823.9
22983.5
24939.5
27832.4
29745.3
32463.1
34261.4
36884.8
38499.8
41111.1
42458.9
45151.1
46092.6
48938.9
2398.83
7255.99
8577.95
12678.4
14409.8
17956.6
19864.9
23025
24979.8
27872.3
29784.1
32501.1
34298.1
36920.9
38534.5
41145.4
42491.6
45184.3
46123.3
48972.4
2437.3
7300.26
8618.51
12722.1
14451.2
17999.5
19906.2
23066.4
25019.8
27911.5
29822
32537.8
34333.6
36955.4
38567.8
41178.2
42522.8
45216.1
46152.7
49004.6
2475.14
7343.98
8658.6
12765.5
14492.1
18042.1
19946.9
23107.1
25059
27949.7
29858.7
32573.2
34367.7
36988.3
38599.7
41209.6
42552.6
45246.6
46180.8
49035.7
2511.89
7386.64
8697.63
12807.8
14532
18083.5
19986.5
23146.7
25097
27986.4
29894.1
32607
34400.4
37020
38630.4
41239.9
42581.4
45276
46208
49065.8
2547.17
7427.79
8735.09
12848.5
14570.2
18123.3
20024.6
23184.6
25133.5
28021.6
29928.2
32639.6
34432.1
37050.5
38660.2
41269.3
42609.5
45304.9
46234.7
49095.5
2580.77
7467.18
8770.71
12887.3
14606.5
18161.1
20060.9
23220.7
25168.5
28055.4
29961.1
32671.1
34463.1
37080.3
38689.5
41298.3
42637.3
45333.5
46261.2
49125.1
2612.76
7504.86
8804.51
12924.1
14641
18197
20095.4
23255.2
25202.1
28088
29993.2
32701.8
34493.6
37109.8
38718.6
41327.2
42665.2
45362.3
46287.9
49154.9
2643.45
7541.17
8836.87
12959.4
14673.8
18231.4
20128.5
23288.3
25234.7
28119.6
30024.7
32732.1
34523.9
37139.2
38747.8
41356.3
42693.4
45391.5
46315.2
49185.4
2673.41
7576.71
8868.4
12993.8
14705.7
18264.6
20160.5
23320.4
25266.5
28150.7
30055.9
32762.2
34554.4
37168.8
38777.4
41386
42722.3
45421.5
46343.3
49216.7
2703.31
7612.19
8899.79
13027.9
14737.1
18297.2
20192
23351.9
25298
28181.3
30087
32792.3
34585.1
37198.7
38807.6
41416.2
42751.8
45452.2
46372.3
49249
2733.79
7648.26
8931.67
13062.3
14768.7
18329.8
20223.5
23383.2
25329.3
28211.9
30118.3
32822.6
34616.2
37229.1
38838.3
41447.1
42782.2
45483.8
46402.1
49282.2
2765.3
7685.34
8964.46
13097.4
14800.9
18362.8
20255.2
23414.6
25360.9
28242.5
30149.9
32853.2
34647.8
37260
38869.7
41478.6
42813.2
45516
46432.6
49316
2798.04
7723.63
8998.38
13133.4
14834
18396.3
20287.4
23446.3
25392.8
28273.5
30182
32884.1
34679.9
37291.4
38901.6
41510.6
42844.7
45548.7
46463.5
49350.2
2831.98
7763.08
9033.42
13170.5
14868
18430.7
20320.4
23478.6
25425.4
28305
30214.6
32915.6
34712.6
37323.2
38934
41543
42876.5
45581.5
46494.5
49384.6
2866.9
7803.52
9069.46
13208.6
14903
18465.9
20354.4
23511.7
25458.8
28337
30247.9
32947.5
34745.7
37355.3
38966.6
41575.5
42908.3
45614.2
46525.3
49418.8
2902.47
7844.63
9106.23
13247.4
14938.9
18502
20389.2
23545.5
25493
28369.7
30281.8
32979.9
34779.4
37387.7
38999.5
41607.9
42939.9
45646.6
46555.7
49452.4
2938.34
7886.06
9143.42
13286.8
14975.4
18538.7
20424.9
23580.1
25528
28403.1
30316.4
33012.6
34813.3
37420.2
39032.2
41640.1
42971.1
45678.5
46585.4
49485.4
2974.14
7927.45
9180.67
13326.3
15012.4
18575.9
20461.3
23615.2
25563.8
28436.9
30351.5
33045.7
34847.4
37452.7
39064.9
41672
43001.9
45709.7
46614.4
49517.7
3009.54
7968.5
9217.72
13365.7
15049.5
18613.4
20498.2
23650.8
25600
28471
30386.9
33078.8
34881.6
37485
39097.4
41703.4
43032.2
45740.3
46642.8
49549.2
3044.38
8009.03
9254.38
13404.8
15086.6
18650.9
20535.3
23686.7
25636.7
28505.4
30422.5
33111.9
34915.8
37517.1
39129.6
41734.6
43062.1
45770.4
46670.6
49580.2
3078.59
8048.99
9290.56
13443.5
15123.5
18688.2
20572.6
23722.5
25673.5
28539.7
30458.2
33144.8
34949.8
37548.9
39161.6
41765.4
43091.7
45800.2
46698
49610.8
3112.26
8088.43
9326.3
13481.9
15160.2
18725.3
20609.7
23758.2
25710.2
28573.7
30493.7
33177.5
34983.6
37580.5
39193.4
41796
43121.2
45829.9
46725.2
49641.2
3145.55
8127.5
9361.73
13519.9
15196.6
18762.1
20646.7
23793.5
25746.7
28607.5
30529
33209.8
35017.3
37611.8
39225.1
41826.5
43150.6
45859.6
46752.6
49671.7
3178.66
8166.4
9396.99
13557.6
15232.8
18798.5
20683.3
23828.4
25782.9
28640.7
30563.9
33241.7
35050.6
37642.9
39256.7
41857
43180.2
45889.4
46780.1
49702.5
3211.74
8205.25
9432.2
13595.2
15268.8
18834.5
20719.6
23862.7
25818.6
28673.4
30598.5
33273.2
35083.9
37673.8
39288.4
41887.6
43210
45919.6
46808.1
49733.7
3244.85
8244.1
9467.33