/*--------------------------------*- C++ -*----------------------------------*\
  =========                 |
  \\      /  F ield         | OpenFOAM: The Open Source CFD Toolbox
   \\    /   O peration     | Website:  https://openfoam.org
    \\  /    A nd           | Version:  8
     \\/     M anipulation  |
\*---------------------------------------------------------------------------*/
FoamFile
{
    version     2.0;
    format      ascii;
    class       surfaceScalarField;
    location    "100";
    object      phi;
}
// * * * * * * * * * * * * * * * * * * * * * * * * * * * * * * * * * * * * * //

dimensions      [1 0 -1 0 0 0 0];

internalField   nonuniform List<scalar> 
16360
(
-1.97416
-0.00147461
-1.97276
-0.00139554
-1.97137
-0.00138309
-1.96999
-0.00138177
-1.96861
-0.00138139
-1.96724
-0.00137518
-1.96588
-0.00135979
-1.96454
-0.00133388
-1.96324
-0.00130185
-1.96197
-0.00126858
-1.96074
-0.00123315
-1.95955
-0.00119245
-1.9584
-0.00114553
-1.9573
-0.00109601
-1.95626
-0.00104606
-1.95527
-0.000995073
-1.95433
-0.000939902
-1.95344
-0.000879792
-1.95262
-0.00081721
-1.95187
-0.000754055
-1.95118
-0.000689496
-1.95056
-0.00062173
-1.95001
-0.000550331
-1.94954
-0.000474371
-1.94914
-0.000394522
-1.94883
-0.000313672
-1.94861
-0.000231203
-1.94846
-0.00014307
-1.94841
-5.07938e-05
-1.94845
3.91061e-05
-1.94859
0.000129114
-1.9488
0.000223125
-1.94912
0.000311694
-1.94952
0.000389962
-1.94998
0.000464588
-1.95051
0.000529535
-1.95109
0.000574134
-1.95169
0.000598216
-1.95227
0.000590414
-1.95281
0.000535738
-1.95324
0.000429269
-1.95349
0.000248884
-1.95345
-3.83649e-05
-1.95301
-0.000454618
-1.95196
-0.00104471
-1.95005
-0.00190485
-1.9469
-0.00314447
-1.94206
-0.00485314
-1.93486
-0.00719932
-0.0111508
-1.9237
-2.15889
-0.00299365
-2.15712
-0.00315677
-2.1553
-0.0031981
-2.15349
-0.00319493
-2.15171
-0.0031672
-2.14997
-0.00311882
-2.14827
-0.00305277
-2.14662
-0.00297553
-2.14503
-0.00289341
-2.14349
-0.00280723
-2.14202
-0.00271463
-2.14059
-0.0026142
-2.13922
-0.00250894
-2.13792
-0.00240279
-2.13667
-0.00229643
-2.13548
-0.00218572
-2.13435
-0.00206934
-2.13327
-0.00194938
-2.13226
-0.00182877
-2.13132
-0.00170555
-2.13043
-0.00157766
-2.12962
-0.00144466
-2.12886
-0.00130636
-2.12817
-0.00116149
-2.12756
-0.00101117
-2.12702
-0.000856217
-2.12656
-0.000692316
-2.12618
-0.000519094
-2.12589
-0.000344306
-2.12569
-0.000168335
-2.12557
1.42736e-05
-2.12554
0.000196402
-2.12561
0.000370053
-2.12577
0.000541854
-2.12601
0.000709193
-2.12634
0.000852989
-2.12673
0.000966267
-2.12718
0.00104878
-2.12767
0.00108102
-2.12816
0.00103719
-2.12865
0.00090188
-2.12906
0.00065475
-2.12935
0.000256656
-2.12943
-0.000356696
-2.12924
-0.00125934
-2.12862
-0.00252643
-2.12744
-0.00430271
-2.12551
-0.0067743
-2.12247
-0.0102489
-0.0153891
-2.11822
-2.11784
-0.00407163
-2.11694
-0.00405394
-2.11613
-0.00401004
-2.11537
-0.0039579
-2.11465
-0.00388356
-2.11398
-0.00378735
-2.11334
-0.00367457
-2.11276
-0.00355321
-2.11223
-0.00342783
-2.11174
-0.00329543
-2.1113
-0.00315445
-2.11091
-0.00300738
-2.11056
-0.00285995
-2.11026
-0.00271187
-2.11
-0.00256144
-2.10978
-0.00240518
-2.1096
-0.00224573
-2.10947
-0.00208553
-2.10938
-0.00192312
-2.10934
-0.00175624
-2.10934
-0.00158395
-2.10938
-0.00140604
-2.10946
-0.00122011
-2.1096
-0.00102577
-2.10979
-0.000825311
-2.11003
-0.000615387
-2.11032
-0.000392574
-2.11068
-0.000161994
-2.1111
7.26368e-05
-2.11158
0.000315336
-2.11213
0.00056415
-2.11275
0.000812268
-2.11344
0.00105886
-2.11418
0.00129916
-2.115
0.00152139
-2.11587
0.00172012
-2.11678
0.00188455
-2.11772
0.00199273
-2.11868
0.00202774
-2.11961
0.00197179
-2.12049
0.00178989
-2.12127
0.00143727
-2.12191
0.000877869
-2.12233
5.27497e-05
-2.12244
-0.00113327
-2.12216
-0.00280176
-2.1214
-0.00507221
-2.12007
-0.00810702
-2.11809
-0.0122161
-0.0179824
-2.1155
-2.11416
-0.00367762
-2.11434
-0.00386821
-2.11448
-0.00386746
-2.11465
-0.00379579
-2.11484
-0.00368298
-2.11507
-0.0035446
-2.11534
-0.00339241
-2.11566
-0.00323387
-2.11603
-0.00306838
-2.11643
-0.00289515
-2.11687
-0.00271598
-2.11734
-0.00253535
-2.11786
-0.00235645
-2.1184
-0.00217615
-2.11898
-0.00199126
-2.11958
-0.00180394
-2.12021
-0.00161623
-2.12087
-0.00142869
-2.12156
-0.00123708
-2.12228
-0.00104065
-2.12303
-0.00083958
-2.1238
-0.000629951
-2.12461
-0.000409575
-2.12546
-0.000181343
-2.12634
5.67877e-05
-2.12726
0.000310413
-2.12822
0.000577339
-2.12925
0.000852849
-2.13032
0.00114167
-2.13145
0.00144614
-2.13264
0.00175787
-2.1339
0.00207322
-2.13522
0.00239134
-2.13662
0.00270076
-2.13809
0.00299279
-2.13963
0.00326206
-2.14124
0.00348877
-2.1429
0.00365076
-2.14461
0.00373095
-2.14635
0.00370196
-2.14809
0.00353067
-2.14981
0.00317238
-2.15147
0.00255669
-2.15305
0.00161974
-2.15448
0.000280736
-2.15569
-0.00158089
-2.15666
-0.00410082
-2.15732
-0.00746508
-2.15762
-0.0118919
-0.0177
-2.15792
-2.06623
-0.00312133
-2.06716
-0.00293913
-2.06824
-0.0027899
-2.06938
-0.0026494
-2.07056
-0.00249272
-2.07178
-0.00232189
-2.07303
-0.00214298
-2.07431
-0.00195758
-2.07562
-0.00176439
-2.07695
-0.00156458
-2.0783
-0.00136496
-2.07967
-0.00116854
-2.08106
-0.000973483
-2.08246
-0.000777092
-2.08387
-0.000578527
-2.08529
-0.000381495
-2.08673
-0.000185882
-2.08817
1.20337e-05
-2.08962
0.000213181
-2.09108
0.000417596
-2.09256
0.000628884
-2.09403
0.000851419
-2.09553
0.0010839
-2.09704
0.00132614
-2.09856
0.00158484
-2.10011
0.00186229
-2.10169
0.00215313
-2.1033
0.00246023
-2.10495
0.00279126
-2.10664
0.00314078
-2.10838
0.00349932
-2.11016
0.00386543
-2.11201
0.00423666
-2.11391
0.00460496
-2.11588
0.00496101
-2.11791
0.00529062
-2.12
0.00557544
-2.12215
0.00579963
-2.12435
0.00594017
-2.12659
0.0059567
-2.12888
0.0058124
-2.13118
0.00546455
-2.13348
0.00485624
-2.13575
0.00390649
-2.13799
0.00251526
-2.14014
0.000583166
-2.14223
-0.00202439
-2.14421
-0.00546848
-2.14616
-0.00994962
-0.0157475
-2.14811
-2.04072
-0.000782016
-2.04274
-0.000923324
-2.04467
-0.00086419
-2.04659
-0.000730267
-2.04852
-0.000561957
-2.05047
-0.000376378
-2.05244
-0.000182361
-2.05442
1.87457e-05
-2.05641
0.000224619
-2.0584
0.000431705
-2.0604
0.000635065
-2.06241
0.000834517
-2.06441
0.00103344
-2.06642
0.00123233
-2.06842
0.00142813
-2.07042
0.00162111
-2.07242
0.00181275
-2.07441
0.00200485
-2.0764
0.00219786
-2.07838
0.00239505
-2.08035
0.00260167
-2.08232
0.00281891
-2.08429
0.00304616
-2.08626
0.00328947
-2.08823
0.00355417
-2.09021
0.00383734
-2.0922
0.0041409
-2.09421
0.00447354
-2.09625
0.00483246
-2.09832
0.00520828
-2.10043
0.00560115
-2.10258
0.00601158
-2.10478
0.00643337
-2.10703
0.00685827
-2.10934
0.00727326
-2.11172
0.00766231
-2.11415
0.00800912
-2.11665
0.00829325
-2.11922
0.00849212
-2.12184
0.00857978
-2.12452
0.00850007
-2.12724
0.00819219
-2.13
0.00761023
-2.13278
0.00667825
-2.13558
0.00531125
-2.13839
0.00341251
-2.14127
0.000840705
-2.1442
-0.00253594
-2.14723
-0.00690282
-0.012416
-2.15057
-1.99242
0.00108414
-1.99476
0.00141749
-1.99728
0.00165231
-1.99987
0.00185354
-2.00249
0.00205528
-2.00513
0.00226168
-2.0078
0.00247372
-2.01046
0.00268938
-2.01313
0.00290409
-2.01581
0.00311253
-2.01849
0.0033134
-2.02116
0.00350665
-2.02382
0.00369486
-2.02646
0.00387778
-2.02908
0.00405374
-2.03168
0.00422285
-2.03426
0.00438838
-2.0368
0.00455183
-2.03933
0.00471532
-2.04182
0.00488442
-2.04428
0.00506299
-2.04671
0.00525063
-2.04913
0.00545254
-2.05151
0.00567649
-2.05388
0.005922
-2.05623
0.00618979
-2.05858
0.00648937
-2.06092
0.00682237
-2.06327
0.00718046
-2.06564
0.00756494
-2.06802
0.00798133
-2.07043
0.00842278
-2.07287
0.0088785
-2.07535
0.00934211
-2.07789
0.00980279
-2.08048
0.0102461
-2.08314
0.0106617
-2.08586
0.0110251
-2.08864
0.0112967
-2.09151
0.011443
-2.09447
0.0114302
-2.09749
0.0112155
-2.1006
0.0107223
-2.10381
0.00988488
-2.1071
0.00861842
-2.1105
0.00681316
-2.11403
0.00436926
-2.11773
0.00115733
-2.12164
-0.00297926
-0.00822123
-2.12584
-1.95211
0.00483257
-1.95541
0.0047096
-1.95856
0.00479891
-1.96168
0.00496971
-1.96479
0.00516971
-1.96791
0.00537991
-1.97103
0.00559273
-1.97414
0.00580336
-1.97724
0.00600664
-1.98033
0.00619909
-1.9834
0.00638001
-1.98645
0.00655181
-1.98946
0.00671529
-1.99244
0.00686672
-1.99539
0.00700572
-1.99831
0.0071361
-2.00118
0.00726111
-2.00401
0.00738183
-2.0068
0.00750216
-2.00954
0.0076278
-2.01224
0.0077608
-2.01491
0.00790456
-2.01752
0.00806723
-2.0201
0.00825315
-2.02264
0.00846329
-2.02515
0.00870488
-2.02764
0.0089836
-2.03011
0.00929561
-2.03258
0.00964094
-2.03505
0.0100259
-2.03751
0.0104491
-2.03999
0.0109031
-2.0425
0.0113818
-2.04504
0.0118786
-2.04762
0.0123827
-2.05024
0.012878
-2.05291
0.0133404
-2.05565
0.0137572
-2.05846
0.0141095
-2.06134
0.0143386
-2.06431
0.0144061
-2.06737
0.014276
-2.07052
0.0138856
-2.0738
0.0131571
-2.0772
0.0120246
-2.08075
0.0103729
-2.08448
0.00809857
-2.08845
0.00510605
-2.09268
0.00126199
-0.00359517
-2.09733
-1.89288
0.00759288
-1.89617
0.00799562
-1.89965
0.00827872
-1.90319
0.0085138
-1.90675
0.00873358
-1.91031
0.00894439
-1.91387
0.009147
-1.9174
0.00933978
-1.92092
0.00951869
-1.92441
0.00968246
-1.92787
0.00983258
-1.93128
0.00996941
-1.93465
0.0100899
-1.93798
0.0101922
-1.94126
0.0102795
-1.94448
0.0103572
-1.94765
0.0104264
-1.95076
0.0104886
-1.95381
0.0105489
-1.95679
0.0106125
-1.95972
0.0106825
-1.96258
0.0107656
-1.96539
0.0108698
-1.96814
0.0109991
-1.97083
0.0111587
-1.97348
0.0113558
-1.97608
0.011591
-1.97866
0.0118652
-1.98122
0.0121867
-1.98375
0.0125591
-1.98627
0.0129753
-1.9888
0.013429
-1.99133
0.0139173
-1.99388
0.0144289
-1.99647
0.0149554
-1.99909
0.015492
-2.00174
0.0160082
-2.00445
0.0164752
-2.00724
0.0168772
-2.01011
0.0171921
-2.01305
0.0173575
-2.0161
0.0173318
-2.01927
0.0170572
-2.02257
0.0164707
-2.02604
0.0154823
-2.02969
0.0140197
-2.03356
0.0119756
-2.0377
0.0092342
-2.04215
0.00570602
0.0012388
-2.04698
-1.83326
0.0118865
-1.83714
0.0118791
-1.84088
0.0120195
-1.84457
0.0122123
-1.84825
0.012412
-1.85191
0.0126056
-1.85556
0.0127879
-1.85918
0.0129544
-1.86277
0.0131033
-1.86632
0.0132335
-1.86984
0.013346
-1.87331
0.0134387
-1.87673
0.0135071
-1.88009
0.0135534
-1.8834
0.0135849
-1.88664
0.0136033
-1.88983
0.0136065
-1.89294
0.0135994
-1.89598
0.0135905
-1.89895
0.0135825
-1.90185
0.0135797
-1.90468
0.0135925
-1.90744
0.013628
-1.91013
0.0136908
-1.91276
0.0137896
-1.91532
0.0139297
-1.91785
0.0141128
-1.92033
0.0143465
-1.92277
0.0146368
-1.92519
0.0149798
-1.92759
0.0153717
-1.92998
0.0158159
-1.93237
0.0163099
-1.93476
0.0168355
-1.93717
0.0173732
-1.93962
0.017916
-1.9421
0.0184716
-1.94461
0.0190022
-1.94719
0.0194619
-1.94985
0.0198385
-1.95258
0.0200898
-1.95542
0.0201594
-1.95836
0.0200071
-1.96145
0.0195556
-1.9647
0.0187376
-1.96815
0.0174681
-1.97183
0.0156556
-1.9758
0.0131941
-1.98005
0.00996764
0.00587986
-1.98471
-1.75613
0.0148647
-1.75956
0.0153124
-1.76316
0.0156173
-1.76681
0.0158591
-1.77047
0.0160674
-1.77412
0.0162521
-1.77775
0.0164156
-1.78135
0.0165549
-1.78492
0.0166699
-1.78845
0.016762
-1.79193
0.01683
-1.79537
0.0168693
-1.79875
0.0168807
-1.80207
0.0168709
-1.80532
0.0168418
-1.80851
0.0167904
-1.81164
0.0167202
-1.81468
0.0166413
-1.81765
0.0165571
-1.82054
0.0164693
-1.82335
0.0163881
-1.82608
0.0163243
-1.82873
0.016283
-1.83132
0.0162724
-1.83383
0.0163021
-1.83628
0.0163761
-1.83868
0.0165013
-1.84102
0.0166885
-1.84333
0.0169405
-1.84561
0.0172545
-1.84786
0.0176324
-1.8501
0.0180664
-1.85234
0.0185389
-1.85458
0.0190578
-1.85683
0.0196199
-1.85908
0.0201959
-1.86137
0.0207699
-1.8637
0.021323
-1.86606
0.0218346
-1.86851
0.0222623
-1.87102
0.0225882
-1.8736
0.0227516
-1.87631
0.0227086
-1.87915
0.0223954
-1.88215
0.0217329
-1.88533
0.0206527
-1.88875
0.0190682
-1.89244
0.0168895
-1.89646
0.0139988
0.0102744
-1.90085
-1.67188
0.0186727
-1.6754
0.0188339
-1.67882
0.0190276
-1.6822
0.0192319
-1.68556
0.0194209
-1.68889
0.0195867
-1.6922
0.0197238
-1.69547
0.0198306
-1.69871
0.0199094
-1.7019
0.0199588
-1.70505
0.0199769
-1.70815
0.0199626
-1.71119
0.0199198
-1.71416
0.0198516
-1.71707
0.0197555
-1.71992
0.0196329
-1.7227
0.0194929
-1.72539
0.0193412
-1.72801
0.0191786
-1.73056
0.0190127
-1.73302
0.0188552
-1.7354
0.0187133
-1.7377
0.0185943
-1.73994
0.0185092
-1.74211
0.0184682
-1.74421
0.0184811
-1.74626
0.0185568
-1.74827
0.0187018
-1.75024
0.0189195
-1.75218
0.0192063
-1.75411
0.0195612
-1.75603
0.0199832
-1.75795
0.0204633
-1.75986
0.0209851
-1.76179
0.0215434
-1.76372
0.0221394
-1.76568
0.0227327
-1.76767
0.023311
-1.7697
0.0238609
-1.77177
0.0243475
-1.77392
0.0247301
-1.77612
0.0249752
-1.77843
0.0250178
-1.78086
0.0248135
-1.78342
0.0242985
-1.78616
0.023391
-1.78908
0.0220036
-1.79226
0.0200613
-1.79572
0.0174702
0.0141174
-1.79956
-1.57216
0.0209858
-1.5748
0.0214628
-1.57754
0.0217687
-1.58032
0.0220043
-1.58309
0.0221938
-1.58584
0.0223418
-1.58856
0.0224511
-1.59125
0.0225249
-1.5939
0.0225656
-1.59652
0.0225729
-1.59909
0.0225441
-1.60162
0.0224814
-1.60408
0.0223878
-1.60649
0.0222623
-1.60885
0.0221046
-1.61114
0.0219202
-1.61336
0.0217159
-1.61551
0.0214943
-1.6176
0.0212604
-1.61962
0.0210246
-1.62156
0.0207967
-1.62343
0.0205844
-1.62523
0.0203983
-1.62698
0.0202504
-1.62867
0.0201518
-1.63031
0.0201114
-1.6319
0.0201407
-1.63346
0.0202535
-1.635
0.0204525
-1.63653
0.0207325
-1.63805
0.0210844
-1.63958
0.0215031
-1.64113
0.0219924
-1.64268
0.0225298
-1.64423
0.0230997
-1.64581
0.0237043
-1.64741
0.0243281
-1.64903
0.024934
-1.65067
0.0255134
-1.65237
0.0260331
-1.65411
0.0264622
-1.65591
0.0267724
-1.65778
0.0269038
-1.65976
0.0268015
-1.66186
0.0264058
-1.66411
0.0256364
-1.66653
0.0244293
-1.66917
0.0226953
-1.67206
0.0203607
0.0173439
-1.67529
-1.46052
0.0232482
-1.4626
0.0235425
-1.46461
0.0237714
-1.46657
0.0239729
-1.4685
0.0241327
-1.4704
0.0242488
-1.47227
0.0243236
-1.47411
0.0243631
-1.4759
0.0243663
-1.47766
0.024333
-1.47938
0.0242619
-1.48106
0.0241546
-1.48268
0.0240139
-1.48425
0.0238382
-1.48577
0.0236268
-1.48723
0.0233865
-1.48864
0.0231242
-1.48998
0.0228425
-1.49127
0.0225487
-1.4925
0.0222555
-1.49366
0.0219715
-1.49477
0.0217023
-1.49583
0.021461
-1.49684
0.0212625
-1.49781
0.0211159
-1.49875
0.021038
-1.49965
0.0210503
-1.50054
0.021152
-1.50144
0.0213427
-1.50235
0.0216355
-1.50327
0.0220162
-1.50422
0.0224704
-1.5052
0.0229803
-1.50622
0.023536
-1.50723
0.024137
-1.50827
0.0247521
-1.50936
0.0253827
-1.51044
0.0260178
-1.51155
0.0266161
-1.5127
0.0271752
-1.51386
0.0276478
-1.51508
0.0279873
-1.51636
0.0281779
-1.51772
0.0281467
-1.51917
0.027849
-1.52075
0.0272088
-1.52246
0.0261481
-1.52437
0.0245906
-1.52648
0.022477
0.0197418
-1.52889
-1.33325
0.0238373
-1.334
0.0242975
-1.33479
0.0245688
-1.33557
0.0247614
-1.33633
0.0248916
-1.33706
0.0249738
-1.33775
0.0250148
-1.3384
0.0250194
-1.33902
0.0249883
-1.33961
0.0249179
-1.34016
0.024809
-1.34067
0.0246661
-1.34114
0.0244883
-1.34158
0.0242701
-1.34197
0.0240154
-1.34232
0.0237342
-1.34262
0.0234291
-1.34289
0.0231025
-1.34312
0.0227683
-1.3433
0.0224385
-1.34344
0.0221161
-1.34356
0.0218109
-1.34364
0.0215422
-1.34371
0.0213209
-1.34376
0.0211561
-1.34379
0.0210701
-1.34382
0.0210798
-1.34386
0.0211919
-1.34393
0.0214191
-1.34406
0.0217562
-1.34424
0.0221913
-1.34448
0.0227078
-1.34479
0.023278
-1.34514
0.0238839
-1.34552
0.0245177
-1.34592
0.02518
-1.34637
0.0258233
-1.34683
0.0264843
-1.34729
0.0271089
-1.34779
0.0276584
-1.34831
0.0281565
-1.34883
0.0285372
-1.34941
0.0287561
-1.35004
0.0287875
-1.35076
0.0285654
-1.35158
0.0280188
-1.35251
0.0270826
-1.35358
0.0256731
-1.35485
0.0237368
0.0212384
-1.35636
-1.18945
0.0234918
-1.18895
0.0238113
-1.18836
0.023992
-1.18772
0.0241209
-1.18704
0.0242013
-1.18631
0.0242405
-1.18554
0.0242462
-1.18474
0.0242196
-1.18391
0.0241566
-1.18305
0.0240541
-1.18216
0.0239178
-1.18123
0.02375
-1.18028
0.0235422
-1.17932
0.0232934
-1.17831
0.0230151
-1.17728
0.0227102
-1.17623
0.0223765
-1.17516
0.022027
-1.17406
0.0216776
-1.17295
0.0213298
-1.17183
0.0209899
-1.1707
0.0206776
-1.16956
0.0204087
-1.16844
0.0201898
-1.16733
0.0200346
-1.16622
0.0199684
-1.16514
0.0200063
-1.16411
0.0201574
-1.16313
0.0204414
-1.16225
0.0208648
-1.16146
0.0214046
-1.16077
0.0220241
-1.16021
0.0226966
-1.1597
0.0233754
-1.15921
0.0240471
-1.15879
0.0247288
-1.15836
0.0254186
-1.15796
0.0260785
-1.15757
0.0267085
-1.15716
0.0272835
-1.15677
0.027747
-1.15637
0.0281303
-1.156
0.0283756
-1.15565
0.0284432
-1.1554
0.0282924
-1.15522
0.0278456
-1.15516
0.0270112
-1.15521
0.025716
-1.1554
0.0239216
0.021636
-1.15579
-1.02439
0.0211827
-1.02205
0.0214785
-1.01966
0.0216002
-1.01721
0.0216658
-1.01471
0.0216914
-1.01216
0.0216892
-1.00957
0.0216623
-1.00696
0.0216057
-1.00432
0.0215135
-1.00166
0.02139
-0.998982
0.0212408
-0.996288
0.0210574
-0.993592
0.0208335
-0.990883
0.0205799
-0.988163
0.0203013
-0.985447
0.0199912
-0.982735
0.0196587
-0.980022
0.0193216
-0.977323
0.0189815
-0.974652
0.0186419
-0.972003
0.0183256
-0.969377
0.0180558
-0.9668
0.0178334
-0.964284
0.0176607
-0.961807
0.017568
-0.959378
0.0175621
-0.957022
0.0176396
-0.954715
0.0178509
-0.952476
0.0182108
-0.950362
0.0187263
-0.948389
0.0194203
-0.946577
0.0202292
-0.944948
0.0210502
-0.943387
0.0218079
-0.941818
0.0225097
-0.940302
0.0231782
-0.938768
0.0238769
-0.937236
0.0245681
-0.935696
0.0251795
-0.934132
0.0257133
-0.932511
0.0261405
-0.930871
0.0264728
-0.92923
0.0267073
-0.927591
0.0268283
-0.926052
0.0267515
-0.924622
0.0264134
-0.923325
0.0257059
-0.922145
0.024538
-0.921088
0.0228622
0.0207581
-0.920206
-0.829955
0.0170859
-0.825578
0.0171073
-0.821057
0.0170736
-0.816445
0.0170435
-0.81177
0.0170093
-0.807047
0.0169699
-0.802295
0.0169163
-0.797533
0.0168369
-0.792764
0.0167335
-0.787982
0.0166138
-0.783203
0.01647
-0.778445
0.0162919
-0.773703
0.0160871
-0.768978
0.0158617
-0.764286
0.015608
-0.759633
0.0153306
-0.755014
0.0150456
-0.750444
0.0147558
-0.74594
0.014462
-0.741499
0.0141841
-0.737112
0.0139484
-0.732801
0.0137555
-0.728592
0.0135988
-0.724459
0.0135166
-0.720393
0.0135138
-0.716409
0.0135511
-0.712465
0.013675
-0.708539
0.0139247
-0.704632
0.0143227
-0.700804
0.01491
-0.697179
0.0157584
-0.693835
0.016919
-0.690773
0.0179885
-0.687733
0.0187666
-0.684578
0.0193671
-0.681338
0.0199518
-0.678033
0.0206105
-0.674732
0.0212349
-0.67134
0.0217978
-0.667876
0.0222269
-0.664254
0.0225462
-0.660541
0.0227613
-0.656773
0.0229252
-0.653027
0.0230629
-0.649415
0.0231307
-0.646021
0.0230128
-0.642898
0.0225762
-0.640039
0.0216611
-0.637396
0.0202057
0.0183563
-0.634996
-0.586769
0.0105074
-0.579744
0.0100828
-0.572572
0.0098937
-0.565322
0.00978431
-0.558026
0.00971283
-0.550704
0.00965358
-0.543381
0.00958537
-0.536066
0.00950488
-0.528755
0.00942237
-0.521457
0.0093306
-0.514199
0.00921198
-0.506986
0.00907144
-0.499818
0.0089194
-0.492712
0.00874722
-0.485678
0.00855574
-0.478711
0.0083623
-0.471817
0.00816544
-0.465014
0.00795186
-0.4583
0.007735
-0.451655
0.00755064
-0.445082
0.0073964
-0.438599
0.00725135
-0.43217
0.00717686
-0.425776
0.00717497
-0.419439
0.00716068
-0.413078
0.00720851
-0.40665
0.00728439
-0.400162
0.00738647
-0.39356
0.0077049
-0.386874
0.00825285
-0.380272
0.0091643
-0.374379
0.0109414
-0.368846
0.0125238
-0.362845
0.0128056
-0.356151
0.0126277
-0.348965
0.0128046
-0.341593
0.0132635
-0.33414
0.0138061
-0.326531
0.0142009
-0.318648
0.014299
-0.310324
0.0142248
-0.301585
0.0140014
-0.292511
0.0138452
-0.283333
0.0138787
-0.274402
0.0141717
-0.266
0.0146284
-0.258427
0.0150087
-0.251788
0.0150539
-0.246179
0.0145735
0.0137386
-0.241581
-0.26444
-0.254361
-0.244476
-0.234693
-0.224975
-0.215327
-0.205755
-0.196249
-0.186812
-0.177479
-0.168275
-0.159206
-0.150293
-0.141559
-0.133002
-0.124625
-0.116461
-0.108529
-0.100797
-0.0932383
-0.0858713
-0.0786224
-0.0714045
-0.0642667
-0.0571204
-0.0498907
-0.042619
-0.0352257
-0.0274899
-0.0192167
-0.0101264
0.000948538
0.0132944
0.0261729
0.0387719
0.0515898
0.0647885
0.0786025
0.0927395
0.107057
0.121277
0.135297
0.149133
0.163065
0.177221
0.191844
0.206847
0.221888
0.236457
0.250186
1.62587
-0.0342479
1.638
-0.0121332
1.64683
-0.00883879
1.65125
-0.00442573
1.65283
-0.00157444
1.65292
-9.92311e-05
1.65223
0.000692361
1.65107
0.00116078
1.64962
0.00144688
1.648
0.00161912
1.64629
0.00172039
1.64451
0.00177773
1.6427
0.00180719
1.64089
0.00181824
1.63907
0.00181672
1.63727
0.00180635
1.63548
0.0017895
1.63371
0.00176769
1.63197
0.00174187
1.63025
0.00171262
1.62857
0.00168023
1.62692
0.00164478
1.62531
0.00160618
1.62374
0.00156417
1.62222
0.0015184
1.62075
0.00146844
1.61933
0.0014137
1.61798
0.00135342
1.61669
0.00128666
1.61548
0.00121245
1.61436
0.00112961
1.61332
0.00103671
1.6124
0.000932102
1.61159
0.000812465
1.61092
0.000675291
1.6104
0.000517357
1.61007
0.000334879
1.60994
0.000123627
1.61006
-0.000122126
1.61047
-0.000410608
1.61122
-0.00075199
1.61237
-0.00115897
1.61401
-0.00164872
1.61625
-0.00224563
1.61924
-0.00298637
1.62316
-0.00392968
1.62834
-0.0051775
1.63526
-0.00692227
1.64483
-0.00956347
-0.0139733
1.6588
1.57532
-0.0179526
1.57189
-0.00871169
1.56619
-0.00314138
1.56318
-0.00141545
1.56172
-0.000121621
1.56094
0.000679513
1.56058
0.00105656
1.56051
0.00123036
1.56064
0.00131336
1.56092
0.00134713
1.56129
0.0013526
1.56172
0.00134269
1.56221
0.00132468
1.56273
0.00130221
1.56327
0.00127707
1.56382
0.00125003
1.56439
0.00122135
1.56497
0.00119096
1.56555
0.00115859
1.56613
0.00112379
1.56672
0.00108601
1.56732
0.00104453
1.56792
0.000998538
1.56853
0.000947056
1.56915
0.00088901
1.56979
0.00082318
1.57046
0.000748075
1.57115
0.000661752
1.57188
0.000561882
1.57265
0.000446379
1.57347
0.00031284
1.57436
0.00015764
1.57532
-2.34412e-05
1.57637
-0.000234888
1.57754
-0.00048183
1.57882
-0.000770653
1.58027
-0.00110907
1.58189
-0.00150643
1.58374
-0.00197491
1.58585
-0.0025294
1.58828
-0.00318794
1.59108
-0.00397429
1.59435
-0.00492002
1.59816
-0.00606833
1.60265
-0.00748044
1.60797
-0.00924632
1.61429
-0.0115034
1.62184
-0.0144686
1.63076
-0.0184907
-0.0241184
1.64091
1.57763
-0.00396623
1.573
-0.00408336
1.57216
-0.00230596
1.57222
-0.00147702
1.57308
-0.000985855
1.57426
-0.000505099
1.57544
-0.000120378
1.57651
0.000155225
1.57747
0.000356979
1.57831
0.000507382
1.57905
0.000618161
1.57969
0.000698177
1.58027
0.000754568
1.58078
0.000792596
1.58124
0.00081598
1.58166
0.00082733
1.58206
0.000828452
1.58242
0.000820547
1.58278
0.000804314
1.58312
0.000780033
1.58345
0.000747634
1.58378
0.000706719
1.58412
0.000656578
1.58447
0.000596215
1.58483
0.000524434
1.58521
0.000439789
1.58561
0.000340483
1.58605
0.00022381
1.58653
8.65773e-05
1.58705
-7.45657e-05
1.58764
-0.000263646
1.58828
-0.000485439
1.58901
-0.000745608
1.58983
-0.00104973
1.59076
-0.00140597
1.59181
-0.00182366
1.59302
-0.00231397
1.5944
-0.00289045
1.59599
-0.00356983
1.59782
-0.00437253
1.59995
-0.00532375
1.60242
-0.00645556
1.60531
-0.00780947
1.60867
-0.00944012
1.61261
-0.0114211
1.61722
-0.0138534
1.62259
-0.0168782
1.62881
-0.0206935
1.6359
-0.0255739
-0.0318775
1.64366
1.59
-0.00235535
1.58926
-0.00334255
1.58951
-0.00256399
1.58972
-0.0016909
1.58978
-0.00104526
1.58977
-0.000497228
1.5897
-4.90691e-05
1.58958
0.000280193
1.58942
0.000509257
1.58927
0.000665947
1.58912
0.000769907
1.58898
0.000834768
1.58887
0.000870767
1.58878
0.000885427
1.58871
0.000883988
1.58867
0.000869986
1.58865
0.000845728
1.58866
0.000812608
1.58869
0.000771314
1.58874
0.000721983
1.58882
0.000664291
1.58893
0.000597492
1.58906
0.000520432
1.58922
0.000431455
1.58941
0.000328813
1.58964
0.00021052
1.5899
7.37235e-05
1.59021
-8.46979e-05
1.59057
-0.000268279
1.59098
-0.000481702
1.59145
-0.000730642
1.59199
-0.0010211
1.59261
-0.00136016
1.59332
-0.00175599
1.59414
-0.00221863
1.59508
-0.00275997
1.59615
-0.00339414
1.5974
-0.00413809
1.59883
-0.00501229
1.6005
-0.00604162
1.60242
-0.0072565
1.60465
-0.00869464
1.60724
-0.0104033
1.61024
-0.0124425
1.6137
-0.0148888
1.61769
-0.017841
1.62224
-0.0214263
1.62735
-0.025806
1.63295
-0.0311768
-0.0377554
1.63883
1.59022
-0.000962024
1.58844
-0.00156377
1.58718
-0.00131283
1.58634
-0.000847001
1.58578
-0.000487556
1.58549
-0.000208619
1.58542
2.07577e-05
1.5855
0.000197254
1.58569
0.000323952
1.58594
0.000412378
1.58624
0.000472437
1.58657
0.000510629
1.58691
0.000531575
1.58726
0.000538716
1.58761
0.000534464
1.58796
0.000520374
1.5883
0.000497346
1.58865
0.000465754
1.58899
0.000425539
1.58934
0.000376269
1.58968
0.000317194
1.59003
0.00024721
1.59038
0.000164942
1.59074
6.81665e-05
1.59111
-4.53766e-05
1.59149
-0.000178535
1.5919
-0.000334691
1.59233
-0.0005174
1.5928
-0.000730887
1.5933
-0.000980682
1.59385
-0.00127313
1.59445
-0.00161546
1.59511
-0.00201611
1.59584
-0.00248499
1.59666
-0.00303379
1.59758
-0.00367641
1.59861
-0.00442926
1.59978
-0.00531191
1.60111
-0.00634773
1.60262
-0.00756474
1.60436
-0.00899677
1.60634
-0.0106847
1.60861
-0.0126785
1.6112
-0.0150389
1.61415
-0.0178406
1.61748
-0.0211744
1.62121
-0.0251497
1.6253
-0.029895
1.62967
-0.035553
-0.0422678
1.63418
1.59116
-0.000509643
1.59055
-0.00095238
1.59022
-0.000991076
1.59018
-0.000809931
1.59029
-0.000595366
1.59047
-0.000391202
1.59069
-0.000198693
1.59092
-2.87013e-05
1.59113
0.00011018
1.59133
0.000217741
1.5915
0.000297606
1.59166
0.000353581
1.5918
0.000389052
1.59194
0.000406997
1.59206
0.000409871
1.59218
0.000399522
1.5923
0.000377199
1.59243
0.000343592
1.59255
0.000298899
1.59268
0.00024283
1.59282
0.00017481
1.59297
9.37178e-05
1.59313
-1.96665e-06
1.59331
-0.0001141
1.59351
-0.000245347
1.59372
-0.000399061
1.59397
-0.000578853
1.59424
-0.000788943
1.59454
-0.00103437
1.59489
-0.0013212
1.59528
-0.00165654
1.59571
-0.00204859
1.59621
-0.00250691
1.59677
-0.00304267
1.59741
-0.003669
1.59813
-0.00440134
1.59896
-0.00525791
1.5999
-0.00626022
1.60098
-0.00743368
1.60222
-0.00880839
1.60364
-0.0104201
1.60526
-0.0123111
1.60711
-0.0145316
1.6092
-0.0171412
1.61157
-0.0202094
1.61421
-0.0238176
1.61712
-0.0280577
1.62026
-0.0330305
1.62354
-0.0388386
-0.0455743
1.62685
1.59137
-0.000262277
1.59093
-0.000519964
1.59052
-0.000578027
1.59019
-0.000485054
1.58993
-0.0003413
1.58974
-0.000197672
1.58961
-6.71081e-05
1.58953
4.38371e-05
1.58951
0.000130554
1.58954
0.000192882
1.5896
0.000233631
1.5897
0.000256114
1.58983
0.000263186
1.58998
0.000257153
1.59015
0.000239776
1.59034
0.00021225
1.59054
0.000175226
1.59076
0.000128824
1.59098
7.27582e-05
1.59121
6.29061e-06
1.59146
-7.1756e-05
1.59171
-0.000162923
1.59197
-0.000269288
1.59225
-0.000393005
1.59254
-0.000537139
1.59284
-0.0007053
1.59316
-0.000901622
1.59351
-0.00113094
1.59387
-0.00139893
1.59427
-0.00171224
1.59469
-0.0020786
1.59515
-0.002507
1.59566
-0.00300786
1.59621
-0.00359333
1.59682
-0.00427759
1.5975
-0.00507727
1.59825
-0.00601183
1.59909
-0.00710406
1.60003
-0.00838068
1.60109
-0.009873
1.60228
-0.0116176
1.60362
-0.013657
1.60513
-0.0160406
1.60681
-0.0188251
1.60867
-0.0220752
1.61072
-0.0258628
1.61292
-0.0302659
1.61526
-0.0353656
1.61766
-0.0412406
-0.0479598
1.62005
1.59149
-0.000138344
1.59126
-0.000288804
1.59102
-0.000347735
1.59086
-0.000323472
1.59078
-0.000259726
1.59077
-0.000187821
1.59082
-0.000118992
1.59092
-5.76238e-05
1.59106
-7.10303e-06
1.59122
3.09224e-05
1.5914
5.65864e-05
1.59158
7.07295e-05
1.59177
7.41863e-05
1.59196
6.76315e-05
1.59215
5.15421e-05
1.59234
2.6143e-05
1.59252
-8.616e-06
1.5927
-5.30621e-05
1.59288
-0.000107842
1.59306
-0.000173889
1.59324
-0.000252628
1.59342
-0.00034577
1.5936
-0.00045544
1.59379
-0.000584171
1.59399
-0.000735115
1.59419
-0.000912021
1.59441
-0.00111928
1.59464
-0.00136204
1.59489
-0.00164629
1.59515
-0.00197903
1.59545
-0.00236839
1.59577
-0.00282382
1.59612
-0.00335629
1.59651
-0.00397855
1.59694
-0.00470546
1.59741
-0.00555435
1.59795
-0.00654545
1.59854
-0.00770227
1.59921
-0.00905218
1.59996
-0.0106269
1.6008
-0.0124632
1.60174
-0.0146031
1.60279
-0.0170946
1.60395
-0.0199914
1.60523
-0.0233534
1.60661
-0.027245
1.60808
-0.0317334
1.6096
-0.0368854
1.61112
-0.0427618
-0.0494111
1.61257
1.59154
-6.12351e-05
1.59138
-0.000132202
1.5912
-0.00016644
1.59103
-0.00016279
1.59091
-0.000137411
1.59083
-0.000105364
1.59078
-7.40982e-05
1.59077
-4.70887e-05
1.59079
-2.67733e-05
1.59083
-1.46121e-05
1.5909
-1.10145e-05
1.59099
-1.58191e-05
1.59109
-2.87245e-05
1.59121
-4.94826e-05
1.59134
-7.79802e-05
1.59148
-0.000114299
1.59163
-0.000158751
1.59179
-0.000211868
1.59196
-0.00027451
1.59213
-0.000347845
1.59231
-0.000433402
1.59249
-0.000533074
1.59268
-0.000649188
1.59288
-0.000784528
1.59309
-0.000942412
1.5933
-0.00112678
1.59352
-0.00134225
1.59375
-0.00159423
1.59399
-0.00188895
1.59425
-0.00223368
1.59452
-0.00263684
1.59481
-0.00310817
1.59511
-0.00365898
1.59544
-0.00430238
1.59579
-0.00505358
1.59616
-0.00593028
1.59657
-0.00695301
1.59701
-0.00814559
1.59749
-0.00953556
1.59801
-0.0111546
1.59858
-0.0130391
1.59921
-0.0152303
1.59988
-0.0177746
1.60061
-0.0207234
1.60139
-0.0241325
1.60221
-0.0280609
1.60304
-0.032569
1.60387
-0.0377149
1.60466
-0.0435506
-0.0501192
1.60537
1.59156
-3.78472e-06
1.59144
-1.13565e-05
1.59129
-1.9954e-05
1.59115
-2.87897e-05
1.59105
-3.80202e-05
1.59099
-4.78889e-05
1.59097
-5.87249e-05
1.591
-7.09189e-05
1.59106
-8.48887e-05
1.59114
-0.00010107
1.59125
-0.00011993
1.59138
-0.000141974
1.59152
-0.000167736
1.59167
-0.000197796
1.59182
-0.000232813
1.59198
-0.000273533
1.59214
-0.000320811
1.59231
-0.000375661
1.59247
-0.0004393
1.59264
-0.000513164
1.5928
-0.000598981
1.59297
-0.000698829
1.59313
-0.000815173
1.59329
-0.000950902
1.59346
-0.00110942
1.59362
-0.00129475
1.59379
-0.00151158
1.59396
-0.00176534
1.59413
-0.00206236
1.59431
-0.00240996
1.59449
-0.00281658
1.59468
-0.00329204
1.59487
-0.00384766
1.59506
-0.00449657
1.59526
-0.00525401
1.59547
-0.00613765
1.59569
-0.00716793
1.59591
-0.0083685
1.59613
-0.00976663
1.59637
-0.0113936
1.59661
-0.0132851
1.59686
-0.0154813
1.59711
-0.0180274
1.59736
-0.0209729
1.59759
-0.024371
1.59781
-0.0282776
1.59799
-0.0327487
1.59811
-0.037838
1.59815
-0.0435921
-0.0500479
1.59808
1.59156
5.37522e-05
1.59144
0.00010976
1.59129
0.000127017
1.59115
0.000105918
1.59105
6.23076e-05
1.59099
1.0769e-05
1.59097
-4.18858e-05
1.59099
-9.29486e-05
1.59105
-0.000140819
1.59113
-0.000184899
1.59124
-0.000225703
1.59136
-0.000264378
1.59149