/*--------------------------------*- C++ -*----------------------------------*\
  =========                 |
  \\      /  F ield         | OpenFOAM: The Open Source CFD Toolbox
   \\    /   O peration     | Website:  https://openfoam.org
    \\  /    A nd           | Version:  8
     \\/     M anipulation  |
\*---------------------------------------------------------------------------*/
FoamFile
{
    version     2.0;
    format      ascii;
    class       volVectorField;
    location    "100";
    object      U;
}
// * * * * * * * * * * * * * * * * * * * * * * * * * * * * * * * * * * * * * //

dimensions      [0 1 -1 0 0 0 0];

internalField   nonuniform List<vector> 
8400
(
(-19.7906 -0.222613 -1.7457e-16)
(-19.7735 -0.223822 -1.76847e-16)
(-19.7612 -0.225908 -1.79147e-16)
(-19.7488 -0.228264 -1.82471e-16)
(-19.7365 -0.23077 -1.84642e-16)
(-19.7241 -0.233389 -1.85207e-16)
(-19.7115 -0.236122 -1.86509e-16)
(-19.6987 -0.238976 -1.87915e-16)
(-19.6857 -0.241969 -1.89333e-16)
(-19.6727 -0.245115 -1.9546e-16)
(-19.6598 -0.248421 -1.99216e-16)
(-19.647 -0.251886 -1.98283e-16)
(-19.6346 -0.255508 -2.00118e-16)
(-19.6226 -0.259291 -2.02443e-16)
(-19.6111 -0.263243 -2.0651e-16)
(-19.6002 -0.267373 -2.11111e-16)
(-19.5901 -0.271679 -2.10756e-16)
(-19.5808 -0.276159 -2.12214e-16)
(-19.5722 -0.280816 -2.14687e-16)
(-19.5644 -0.285657 -2.17506e-16)
(-19.5574 -0.290692 -2.20679e-16)
(-19.5511 -0.295937 -2.24022e-16)
(-19.5455 -0.301411 -2.27517e-16)
(-19.5407 -0.307129 -2.31125e-16)
(-19.5365 -0.313107 -2.34815e-16)
(-19.533 -0.319366 -2.38884e-16)
(-19.5303 -0.325934 -2.42324e-16)
(-19.5283 -0.332837 -2.45901e-16)
(-19.5271 -0.340114 -2.50921e-16)
(-19.527 -0.347809 -2.56191e-16)
(-19.5278 -0.355945 -2.61515e-16)
(-19.5297 -0.364539 -2.67168e-16)
(-19.5325 -0.373645 -2.6849e-16)
(-19.5363 -0.38333 -2.72388e-16)
(-19.541 -0.393648 -2.8117e-16)
(-19.5464 -0.404668 -2.87634e-16)
(-19.5523 -0.416484 -2.94114e-16)
(-19.5586 -0.429213 -3.007e-16)
(-19.5649 -0.443013 -3.07415e-16)
(-19.5709 -0.458072 -3.13516e-16)
(-19.576 -0.474605 -3.20312e-16)
(-19.5797 -0.492915 -3.25476e-16)
(-19.5809 -0.51343 -3.32377e-16)
(-19.5787 -0.536699 -3.42761e-16)
(-19.5713 -0.563495 -3.51715e-16)
(-19.5568 -0.594987 -3.60039e-16)
(-19.5329 -0.632789 -3.65969e-16)
(-19.4949 -0.67913 -3.7466e-16)
(-19.4303 -0.738127 -3.91387e-16)
(-19.3249 -0.818959 -4.05425e-16)
(-21.6444 0.191316 -4.1232e-17)
(-21.6239 0.19243 -4.17465e-17)
(-21.6074 0.194119 -4.22454e-17)
(-21.5905 0.196287 -4.53127e-17)
(-21.5739 0.198843 -4.75761e-17)
(-21.5575 0.201734 -4.72766e-17)
(-21.5412 0.20491 -4.71588e-17)
(-21.5251 0.208324 -4.68031e-17)
(-21.5091 0.211932 -4.6931e-17)
(-21.4934 0.215698 -5.02209e-17)
(-21.478 0.219613 -5.27164e-17)
(-21.4629 0.223684 -5.20228e-17)
(-21.4483 0.227921 -5.10795e-17)
(-21.4342 0.232324 -4.88386e-17)
(-21.4207 0.236899 -5.26745e-17)
(-21.4079 0.241664 -6.48305e-17)
(-21.3959 0.24664 -6.65178e-17)
(-21.3847 0.251854 -6.58812e-17)
(-21.3741 0.257323 -6.52617e-17)
(-21.3644 0.26307 -6.48156e-17)
(-21.3553 0.269108 -6.44761e-17)
(-21.347 0.27544 -6.42001e-17)
(-21.3394 0.282072 -6.39649e-17)
(-21.3324 0.289017 -6.37535e-17)
(-21.326 0.296283 -6.36205e-17)
(-21.3203 0.303867 -6.38814e-17)
(-21.3153 0.311766 -6.14787e-17)
(-21.311 0.31997 -6.01091e-17)
(-21.3075 0.328454 -6.14656e-17)
(-21.3049 0.337209 -6.18441e-17)
(-21.3033 0.346273 -6.20757e-17)
(-21.3027 0.355673 -6.23097e-17)
(-21.303 0.365391 -6.14867e-17)
(-21.3044 0.375413 -6.05376e-17)
(-21.3067 0.385741 -6.0864e-17)
(-21.3099 0.396354 -6.13634e-17)
(-21.3139 0.407218 -6.16868e-17)
(-21.3184 0.418293 -6.2006e-17)
(-21.3235 0.429485 -5.98992e-17)
(-21.3287 0.440677 -5.97877e-17)
(-21.3338 0.451772 -6.21179e-17)
(-21.3384 0.462599 -6.12553e-17)
(-21.342 0.472845 -6.07677e-17)
(-21.344 0.48209 -6.18051e-17)
(-21.3433 0.489749 -6.02702e-17)
(-21.3392 0.49487 -6.05899e-17)
(-21.3305 0.496034 -6.07574e-17)
(-21.3154 0.491307 -6.00263e-17)
(-21.2891 0.476548 -6.28514e-17)
(-21.2463 0.440824 -6.63384e-17)
(-21.2292 -0.248551 -5.36127e-17)
(-21.2168 -0.251268 -5.51671e-17)
(-21.2097 -0.253232 -5.67643e-17)
(-21.203 -0.254867 -5.91479e-17)
(-21.1969 -0.256246 -6.12439e-17)
(-21.1912 -0.257465 -6.21033e-17)
(-21.1856 -0.258618 -6.28848e-17)
(-21.1802 -0.259797 -6.3784e-17)
(-21.175 -0.261074 -6.46429e-17)
(-21.1699 -0.262493 -6.6884e-17)
(-21.165 -0.264072 -6.85474e-17)
(-21.1604 -0.265815 -6.82102e-17)
(-21.156 -0.267727 -6.79113e-17)
(-21.1521 -0.269801 -6.73397e-17)
(-21.1486 -0.272025 -6.67109e-17)
(-21.1457 -0.274371 -6.79463e-17)
(-21.1433 -0.276823 -6.92105e-17)
(-21.1415 -0.279365 -6.89736e-17)
(-21.1403 -0.28198 -6.86357e-17)
(-21.1396 -0.284651 -6.83051e-17)
(-21.1395 -0.287369 -6.79253e-17)
(-21.1398 -0.290137 -6.7444e-17)
(-21.1407 -0.292953 -6.6823e-17)
(-21.142 -0.295821 -6.60405e-17)
(-21.1437 -0.298762 -6.50781e-17)
(-21.1459 -0.301806 -6.39963e-17)
(-21.1486 -0.304979 -6.10018e-17)
(-21.1518 -0.308329 -5.83222e-17)
(-21.1557 -0.311904 -5.73981e-17)
(-21.1602 -0.315706 -5.57929e-17)
(-21.1654 -0.319717 -5.37449e-17)
(-21.1713 -0.323962 -5.13949e-17)
(-21.1781 -0.328487 -4.69841e-17)
(-21.1855 -0.333318 -4.2887e-17)
(-21.1937 -0.338488 -4.05092e-17)
(-21.2025 -0.344061 -3.73136e-17)
(-21.2117 -0.350126 -3.36173e-17)
(-21.2213 -0.356796 -2.94819e-17)
(-21.2312 -0.36422 -2.4912e-17)
(-21.2409 -0.372576 -1.92065e-17)
(-21.2501 -0.382079 -1.36337e-17)
(-21.2586 -0.393021 -6.90521e-18)
(-21.2658 -0.405787 -4.20235e-20)
(-21.2711 -0.420881 5.32968e-18)
(-21.2736 -0.43896 1.16867e-17)
(-21.2725 -0.460893 1.94122e-17)
(-21.267 -0.487809 2.83615e-17)
(-21.256 -0.521087 3.70665e-17)
(-21.2376 -0.563233 4.35249e-17)
(-21.212 -0.620041 5.02756e-17)
(-21.1826 0.1599 3.47641e-17)
(-21.1862 0.159558 3.25096e-17)
(-21.1885 0.160887 3.00543e-17)
(-21.1911 0.163069 2.65431e-17)
(-21.194 0.165912 2.30788e-17)
(-21.1972 0.169245 2.08073e-17)
(-21.2008 0.172926 1.84601e-17)
(-21.2045 0.17683 1.58378e-17)
(-21.2083 0.18087 1.30154e-17)
(-21.2123 0.184993 8.77662e-18)
(-21.2163 0.189167 5.16823e-18)
(-21.2205 0.193372 3.34495e-18)
(-21.2249 0.1976 1.28817e-18)
(-21.2296 0.20187 -1.11987e-18)
(-21.2346 0.206207 -4.00822e-18)
(-21.24 0.210634 -7.83603e-18)
(-21.2458 0.215172 -1.12911e-17)
(-21.252 0.219844 -1.32494e-17)
(-21.2586 0.224688 -1.52867e-17)
(-21.2656 0.229727 -1.74479e-17)
(-21.2729 0.234973 -1.96554e-17)
(-21.2807 0.240445 -2.1851e-17)
(-21.2888 0.246162 -2.39926e-17)
(-21.2972 0.252122 -2.60457e-17)
(-21.306 0.258308 -2.79837e-17)
(-21.3151 0.264703 -2.98549e-17)
(-21.3245 0.271268 -3.00706e-17)
(-21.3345 0.277945 -3.05199e-17)
(-21.3451 0.284706 -3.25654e-17)
(-21.3561 0.291554 -3.41061e-17)
(-21.3678 0.298467 -3.52117e-17)
(-21.3802 0.305408 -3.60108e-17)
(-21.3934 0.312315 -3.55204e-17)
(-21.4073 0.319118 -3.47929e-17)
(-21.422 0.325738 -3.50406e-17)
(-21.4374 0.332069 -3.50518e-17)
(-21.4535 0.337929 -3.45737e-17)
(-21.4702 0.343078 -3.37835e-17)
(-21.4874 0.347256 -3.11263e-17)
(-21.5049 0.350142 -2.91105e-17)
(-21.5225 0.351279 -2.82345e-17)
(-21.54 0.350071 -2.47987e-17)
(-21.5571 0.34593 -2.08019e-17)
(-21.5733 0.338101 -1.77303e-17)
(-21.5882 0.325576 -1.29039e-17)
(-21.6011 0.307043 -8.91902e-18)
(-21.6116 0.281038 -4.44373e-18)
(-21.6192 0.24579 1.54536e-18)
(-21.6232 0.198936 6.06703e-18)
(-21.6244 0.137091 1.18712e-17)
(-20.7002 -0.226483 1.10433e-16)
(-20.7096 -0.228232 1.10822e-16)
(-20.7203 -0.228923 1.11143e-16)
(-20.7323 -0.229076 1.09951e-16)
(-20.745 -0.228785 1.09091e-16)
(-20.758 -0.228198 1.0988e-16)
(-20.7714 -0.227456 1.10283e-16)
(-20.7848 -0.226675 1.1033e-16)
(-20.7983 -0.225936 1.10153e-16)
(-20.8117 -0.225303 1.0842e-16)
(-20.8251 -0.224825 1.07063e-16)
(-20.8385 -0.224527 1.075e-16)
(-20.8518 -0.224406 1.07717e-16)
(-20.8653 -0.224443 1.0778e-16)
(-20.8788 -0.224614 1.07794e-16)
(-20.8925 -0.2249 1.06068e-16)
(-20.9064 -0.225269 1.04454e-16)
(-20.9205 -0.225675 1.04799e-16)
(-20.9348 -0.226074 1.04631e-16)
(-20.9493 -0.22643 1.04215e-16)
(-20.964 -0.226705 1.03627e-16)
(-20.9788 -0.22685 1.02921e-16)
(-20.9937 -0.226844 1.02135e-16)
(-21.0089 -0.226682 1.01296e-16)
(-21.0242 -0.226349 1.00421e-16)
(-21.0396 -0.225842 9.94463e-17)
(-21.0554 -0.225194 9.94046e-17)
(-21.0714 -0.224424 9.94718e-17)
(-21.0878 -0.223507 9.82949e-17)
(-21.1047 -0.222433 9.69189e-17)
(-21.122 -0.221242 9.57787e-17)
(-21.1398 -0.219995 9.47488e-17)
(-21.1583 -0.218712 9.48622e-17)
(-21.1774 -0.217422 9.50137e-17)
(-21.1971 -0.216166 9.39317e-17)
(-21.2174 -0.215011 9.28947e-17)
(-21.2384 -0.214083 9.21635e-17)
(-21.2599 -0.213535 9.16845e-17)
(-21.282 -0.213533 9.14901e-17)
(-21.3045 -0.214315 9.2285e-17)
(-21.3273 -0.216182 9.27961e-17)
(-21.3504 -0.219524 9.4074e-17)
(-21.3735 -0.224918 9.54347e-17)
(-21.3963 -0.233013 9.5236e-17)
(-21.4187 -0.244848 9.57155e-17)
(-21.4405 -0.261628 9.73428e-17)
(-21.4613 -0.284816 1.00535e-16)
(-21.4812 -0.31629 1.03215e-16)
(-21.5002 -0.358365 1.03165e-16)
(-21.5194 -0.414099 1.03722e-16)
(-20.4338 0.152798 4.35731e-17)
(-20.4609 0.152622 4.44993e-17)
(-20.4803 0.153823 4.54635e-17)
(-20.5 0.155741 4.54846e-17)
(-20.5201 0.158233 4.5664e-17)
(-20.5404 0.161146 4.71525e-17)
(-20.561 0.164349 4.86651e-17)
(-20.5815 0.16773 4.99443e-17)
(-20.6019 0.171193 5.11406e-17)
(-20.6222 0.174657 5.13082e-17)
(-20.6423 0.178051 5.13565e-17)
(-20.6622 0.181364 5.26866e-17)
(-20.682 0.184599 5.43354e-17)
(-20.7016 0.187761 5.58318e-17)
(-20.7212 0.190854 5.74319e-17)
(-20.7409 0.193895 5.77217e-17)
(-20.7605 0.196915 5.79968e-17)
(-20.7802 0.199952 5.93983e-17)
(-20.7999 0.203031 6.09781e-17)
(-20.8196 0.206178 6.23458e-17)
(-20.8393 0.209425 6.3578e-17)
(-20.8591 0.212804 6.47217e-17)
(-20.8788 0.216345 6.58079e-17)
(-20.8985 0.220074 6.68565e-17)
(-20.9183 0.224004 6.78816e-17)
(-20.9381 0.228111 6.88125e-17)
(-20.9581 0.232357 7.12066e-17)
(-20.9783 0.23673 7.3174e-17)
(-20.9987 0.241218 7.3329e-17)
(-21.0194 0.245765 7.37562e-17)
(-21.0405 0.250295 7.43848e-17)
(-21.0621 0.254749 7.50838e-17)
(-21.0842 0.259078 7.68469e-17)
(-21.1068 0.263212 7.86632e-17)
(-21.13 0.267049 7.92247e-17)
(-21.1538 0.270436 7.96948e-17)
(-21.1782 0.273173 8.03912e-17)
(-21.2032 0.275026 8.11418e-17)
(-21.2288 0.275718 8.3467e-17)
(-21.255 0.274862 8.47116e-17)
(-21.2817 0.271959 8.44733e-17)
(-21.3089 0.266426 8.71422e-17)
(-21.3364 0.25759 8.95609e-17)
(-21.3642 0.244596 9.01328e-17)
(-21.392 0.226566 9.24908e-17)
(-21.4199 0.202526 9.38481e-17)
(-21.4481 0.17129 9.56268e-17)
(-21.4768 0.131454 9.88265e-17)
(-21.5065 0.0813638 1.00586e-16)
(-21.5384 0.0190989 1.01825e-16)
(-19.9517 -0.157207 -4.74426e-18)
(-19.9783 -0.156893 -4.53744e-18)
(-20.0024 -0.155956 -4.25059e-18)
(-20.0284 -0.15467 -5.51797e-18)
(-20.0551 -0.153048 -6.35856e-18)
(-20.0822 -0.151162 -5.23532e-18)
(-20.1096 -0.149094 -4.34084e-18)
(-20.137 -0.146924 -3.59356e-18)
(-20.1644 -0.144734 -2.88312e-18)
(-20.1916 -0.14259 -3.82986e-18)
(-20.2186 -0.140538 -4.62605e-18)
(-20.2453 -0.138626 -3.52891e-18)
(-20.2718 -0.136869 -2.42086e-18)
(-20.298 -0.13528 -1.41034e-18)
(-20.324 -0.133856 -5.21379e-19)
(-20.3498 -0.132566 -6.04149e-19)
(-20.3753 -0.13136 -7.14585e-19)
(-20.4007 -0.13019 5.86238e-19)
(-20.4258 -0.12901 1.99521e-18)
(-20.4508 -0.127762 3.21853e-18)
(-20.4755 -0.126384 4.33152e-18)
(-20.4999 -0.124822 5.38226e-18)
(-20.5241 -0.123022 6.40126e-18)
(-20.5481 -0.120927 7.40856e-18)
(-20.5719 -0.118501 8.41687e-18)
(-20.5956 -0.115736 9.35619e-18)
(-20.6192 -0.112615 1.18005e-17)
(-20.6428 -0.10911 1.38412e-17)
(-20.6665 -0.10523 1.40551e-17)
(-20.6903 -0.10101 1.45616e-17)
(-20.7143 -0.0964766 1.52887e-17)
(-20.7386 -0.0916653 1.6092e-17)
(-20.7633 -0.0866147 1.79899e-17)
(-20.7883 -0.0813693 1.99028e-17)
(-20.8138 -0.0760157 2.05093e-17)
(-20.8397 -0.0706909 2.10546e-17)
(-20.8663 -0.0655576 2.18244e-17)
(-20.8935 -0.0608198 2.27369e-17)
(-20.9213 -0.0567369 2.37972e-17)
(-20.9499 -0.0536317 2.50458e-17)
(-20.9792 -0.0519656 2.69197e-17)
(-21.0093 -0.0522502 2.94726e-17)
(-21.0402 -0.0550841 3.13792e-17)
(-21.072 -0.0612243 3.29062e-17)
(-21.1046 -0.0715029 3.41737e-17)
(-21.1381 -0.0870007 3.47657e-17)
(-21.1727 -0.109074 3.67392e-17)
(-21.2086 -0.139153 3.93009e-17)
(-21.2466 -0.178834 4.01041e-17)
(-21.288 -0.22974 4.1027e-17)
(-19.5365 0.164945 -2.33261e-17)
(-19.5806 0.165213 -2.3663e-17)
(-19.6117 0.166204 -2.38678e-17)
(-19.6432 0.16758 -2.51143e-17)
(-19.6748 0.16929 -2.6519e-17)
(-19.7067 0.171274 -2.64866e-17)
(-19.7386 0.173475 -2.61619e-17)
(-19.7705 0.175821 -2.59999e-17)
(-19.8022 0.178235 -2.59186e-17)
(-19.8336 0.180641 -2.74939e-17)
(-19.8647 0.182978 -2.8878e-17)
(-19.8953 0.185192 -2.83018e-17)
(-19.9255 0.187243 -2.7928e-17)
(-19.9553 0.189097 -2.79846e-17)
(-19.9848 0.190752 -2.77756e-17)
(-20.0139 0.19223 -2.84647e-17)
(-20.0426 0.193572 -2.92249e-17)
(-20.0709 0.194811 -2.86358e-17)
(-20.0988 0.195989 -2.78687e-17)
(-20.1263 0.197157 -2.72741e-17)
(-20.1535 0.198369 -2.67725e-17)
(-20.1802 0.19967 -2.63129e-17)
(-20.2065 0.201122 -2.58638e-17)
(-20.2324 0.202786 -2.54069e-17)
(-20.258 0.204692 -2.49344e-17)
(-20.2833 0.20686 -2.45303e-17)
(-20.3084 0.209325 -2.31409e-17)
(-20.3333 0.212094 -2.16657e-17)
(-20.3582 0.215141 -2.14603e-17)
(-20.3831 0.218424 -2.14096e-17)
(-20.4081 0.221888 -2.11098e-17)
(-20.4333 0.225466 -2.07049e-17)
(-20.4586 0.229093 -1.91705e-17)
(-20.4842 0.232695 -1.75717e-17)
(-20.5102 0.236151 -1.72621e-17)
(-20.5365 0.239292 -1.70189e-17)
(-20.5634 0.241942 -1.65392e-17)
(-20.5908 0.243899 -1.5904e-17)
(-20.6187 0.244863 -1.52346e-17)
(-20.6475 0.244422 -1.27294e-17)
(-20.677 0.242148 -1.15927e-17)
(-20.7074 0.237565 -1.098e-17)
(-20.7387 0.230021 -7.81519e-18)
(-20.7711 0.21872 -7.37358e-18)
(-20.8048 0.202757 -8.08358e-18)
(-20.8398 0.181071 -6.85374e-18)
(-20.8764 0.152501 -4.30433e-18)
(-20.9149 0.116012 -1.40043e-18)
(-20.9562 0.0703463 -5.9618e-19)
(-21.0015 0.0140582 -4.80954e-19)
(-18.948 -0.0542122 -1.63809e-17)
(-18.9864 -0.052595 -1.66932e-17)
(-19.0197 -0.0506006 -1.68883e-17)
(-19.055 -0.0484814 -1.88843e-17)
(-19.091 -0.0462401 -2.05824e-17)
(-19.1271 -0.0438879 -2.01411e-17)
(-19.1634 -0.0414435 -1.99231e-17)
(-19.1995 -0.0389382 -1.98571e-17)
(-19.2353 -0.0364183 -1.97848e-17)
(-19.2708 -0.0339361 -2.14018e-17)
(-19.3058 -0.0315478 -2.28825e-17)
(-19.3403 -0.0293081 -2.24506e-17)
(-19.3742 -0.0272632 -2.2323e-17)
(-19.4077 -0.025442 -2.23619e-17)
(-19.4406 -0.0238344 -2.22526e-17)
(-19.4729 -0.0223993 -2.35142e-17)
(-19.5047 -0.0210951 -2.45614e-17)
(-19.5359 -0.0198798 -2.39259e-17)
(-19.5666 -0.0186935 -2.33867e-17)
(-19.5966 -0.0174641 -2.30373e-17)
(-19.6261 -0.0161239 -2.27939e-17)
(-19.6549 -0.0145946 -2.26011e-17)
(-19.6832 -0.0127804 -2.24228e-17)
(-19.7108 -0.0105995 -2.22326e-17)
(-19.7379 -0.00799251 -2.20144e-17)
(-19.7645 -0.00489698 -2.18382e-17)
(-19.7908 -0.00125472 -2.06137e-17)
(-19.8168 0.0029571 -1.94543e-17)
(-19.8426 0.00772334 -1.96613e-17)
(-19.8683 0.013003 -1.99188e-17)
(-19.894 0.0187374 -1.99414e-17)
(-19.9197 0.0248679 -1.99005e-17)
(-19.9455 0.0313434 -1.81717e-17)
(-19.9714 0.0380793 -1.66384e-17)
(-19.9975 0.0449514 -1.68981e-17)
(-20.0239 0.0518239 -1.686e-17)
(-20.0507 0.0585103 -1.65443e-17)
(-20.0779 0.0648029 -1.61178e-17)
(-20.1057 0.0704466 -1.45699e-17)
(-20.1343 0.0750535 -1.36847e-17)
(-20.1637 0.0781789 -1.38399e-17)
(-20.194 0.0793701 -1.14946e-17)
(-20.2255 0.0780086 -9.3128e-18)
(-20.2583 0.0734074 -8.99876e-18)
(-20.2925 0.0647404 -6.79695e-18)
(-20.3286 0.0510852 -5.92013e-18)
(-20.3667 0.0314388 -5.61781e-18)
(-20.4073 0.0047378 -3.58992e-18)
(-20.4505 -0.0301777 -2.76875e-18)
(-20.4979 -0.0746857 -1.29931e-18)
(-18.3408 0.193256 -1.83255e-17)
(-18.3931 0.19472 -1.85138e-17)
(-18.4299 0.196003 -1.86471e-17)
(-18.4672 0.197197 -2.02993e-17)
(-18.5044 0.198386 -2.19028e-17)
(-18.5415 0.19961 -2.16623e-17)
(-18.5786 0.200883 -2.14001e-17)
(-18.6154 0.202201 -2.13342e-17)
(-18.6519 0.203533 -2.1236e-17)
(-18.688 0.204827 -2.26302e-17)
(-18.7236 0.206024 -2.39254e-17)
(-18.7587 0.207059 -2.35672e-17)
(-18.7933 0.207872 -2.33304e-17)
(-18.8272 0.20844 -2.32591e-17)
(-18.8605 0.208772 -2.32144e-17)
(-18.8932 0.208881 -2.4602e-17)
(-18.9252 0.208781 -2.58251e-17)
(-18.9566 0.208503 -2.53881e-17)
(-18.9873 0.208106 -2.50443e-17)
(-19.0173 0.207646 -2.49295e-17)
(-19.0465 0.207185 -2.49585e-17)
(-19.075 0.206814 -2.50788e-17)
(-19.1028 0.206629 -2.52555e-17)
(-19.1298 0.206704 -2.54676e-17)
(-19.1562 0.207112 -2.57034e-17)
(-19.182 0.207935 -2.60437e-17)
(-19.2074 0.209237 -2.50463e-17)
(-19.2323 0.211045 -2.42717e-17)
(-19.2571 0.213355 -2.52025e-17)
(-19.2817 0.21614 -2.606e-17)
(-19.3062 0.219352 -2.66972e-17)
(-19.3306 0.222932 -2.72786e-17)
(-19.3551 0.226798 -2.64193e-17)
(-19.3795 0.230809 -2.5676e-17)
(-19.4041 0.234816 -2.65889e-17)
(-19.4289 0.238711 -2.74107e-17)
(-19.4539 0.242368 -2.79977e-17)
(-19.4793 0.245545 -2.84638e-17)
(-19.5052 0.24794 -2.87612e-17)
(-19.5318 0.249245 -2.80772e-17)
(-19.5591 0.249033 -2.79338e-17)
(-19.5874 0.246804 -2.70926e-17)
(-19.6167 0.241971 -2.62264e-17)
(-19.6475 0.23382 -2.73602e-17)
(-19.6798 0.221609 -2.79939e-17)
(-19.7139 0.204441 -2.75915e-17)
(-19.7501 0.181343 -2.56687e-17)
(-19.789 0.151162 -2.4664e-17)
(-19.8311 0.112827 -2.65384e-17)
(-19.8765 0.0653401 -2.85886e-17)
(-17.5754 0.0579773 4.75614e-19)
(-17.617 0.0606006 6.33548e-19)
(-17.6518 0.0631271 8.06003e-19)
(-17.6884 0.0655111 -6.10747e-19)
(-17.7252 0.0677437 -1.90549e-18)
(-17.7621 0.0698601 -1.2683e-18)
(-17.7989 0.0718917 -5.78546e-19)
(-17.8354 0.0738455 -5.16318e-20)
(-17.8716 0.0757107 4.8012e-19)
(-17.9074 0.077453 -5.95969e-19)
(-17.9427 0.0790315 -1.54076e-18)
(-17.9775 0.0804024 -7.11507e-19)
(-18.0117 0.0815377 8.52307e-20)
(-18.0453 0.0824386 6.86165e-19)
(-18.0782 0.0831153 1.26985e-18)
(-18.1104 0.0835697 3.94872e-19)
(-18.1419 0.0838213 -3.03281e-19)
(-18.1727 0.0839248 7.49519e-19)
(-18.2027 0.083944 1.73714e-18)
(-18.2319 0.0839393 2.50733e-18)
(-18.2604 0.084001 3.14746e-18)
(-18.2879 0.0842464 3.71276e-18)
(-18.3146 0.0847765 4.23843e-18)
(-18.3405 0.0856818 4.74692e-18)
(-18.3657 0.0870692 5.24926e-18)
(-18.3902 0.0890408 5.66088e-18)
(-18.4142 0.0916703 7.48979e-18)
(-18.4378 0.0950096 9.09924e-18)
(-18.4611 0.0990853 8.93006e-18)
(-18.4842 0.10389 8.83861e-18)
(-18.5073 0.109393 8.97842e-18)
(-18.5303 0.115517 9.16821e-18)
(-18.5533 0.122123 1.11653e-17)
(-18.5764 0.129057 1.28331e-17)
(-18.5996 0.136146 1.24801e-17)
(-18.6227 0.143228 1.24355e-17)
(-18.646 0.150218 1.26088e-17)
(-18.6696 0.156917 1.27849e-17)
(-18.6936 0.16302 1.43855e-17)
(-18.7182 0.168227 1.49777e-17)
(-18.7434 0.172183 1.39943e-17)
(-18.7695 0.174384 1.56273e-17)
(-18.7966 0.174348 1.72613e-17)
(-18.825 0.17143 1.69108e-17)
(-18.855 0.164914 1.82456e-17)
(-18.8867 0.154031 1.80512e-17)
(-18.9204 0.137954 1.76754e-17)
(-18.9567 0.11574 1.91407e-17)
(-18.9963 0.0863058 1.89185e-17)
(-19.0396 0.0486181 1.69499e-17)
(-16.7259 0.229605 -1.84603e-17)
(-16.7739 0.232441 -1.86945e-17)
(-16.8079 0.234412 -1.88367e-17)
(-16.8421 0.235972 -2.06116e-17)
(-16.8761 0.237236 -2.22639e-17)
(-16.9099 0.238275 -2.19235e-17)
(-16.9433 0.239132 -2.16078e-17)
(-16.9765 0.23982 -2.15319e-17)
(-17.0093 0.240339 -2.15094e-17)
(-17.0417 0.240673 -2.31084e-17)
(-17.0736 0.2408 -2.45389e-17)
(-17.1049 0.240702 -2.4094e-17)
(-17.1357 0.240369 -2.3738e-17)
(-17.1658 0.239798 -2.36095e-17)
(-17.1953 0.23897 -2.35145e-17)
(-17.2241 0.237873 -2.49678e-17)
(-17.2523 0.23653 -2.6242e-17)
(-17.2796 0.234979 -2.56525e-17)
(-17.3062 0.233252 -2.51205e-17)
(-17.332 0.231406 -2.48056e-17)
(-17.357 0.22954 -2.46059e-17)
(-17.381 0.227757 -2.44579e-17)
(-17.4042 0.226152 -2.43168e-17)
(-17.4266 0.224836 -2.41559e-17)
(-17.4482 0.223937 -2.39579e-17)
(-17.4691 0.223576 -2.38129e-17)
(-17.4895 0.223848 -2.18019e-17)
(-17.5095 0.224827 -2.01524e-17)
(-17.5293 0.226551 -2.05927e-17)
(-17.549 0.229008 -2.06434e-17)
(-17.5687 0.232173 -2.03663e-17)
(-17.5884 0.235982 -1.99502e-17)
(-17.6083 0.240293 -1.78539e-17)
(-17.6283 0.244948 -1.58054e-17)
(-17.6485 0.249789 -1.54946e-17)
(-17.6686 0.254634 -1.49866e-17)
(-17.6889 0.259274 -1.41275e-17)
(-17.7093 0.263524 -1.30434e-17)
(-17.73 0.267171 -1.16925e-17)
(-17.7512 0.269925 -9.18292e-18)
(-17.773 0.271433 -7.19058e-18)
(-17.7955 0.271237 -4.68064e-18)
(-17.8189 0.268807 -1.90887e-18)
(-17.8434 0.263648 -1.02127e-18)
(-17.8692 0.255046 1.98166e-19)
(-17.8965 0.242255 2.51328e-18)
(-17.9257 0.224469 6.15687e-18)
(-17.9569 0.200872 9.06185e-18)
(-17.991 0.170485 8.92669e-18)
(-18.0286 0.132183 8.22256e-18)
(-15.7363 0.154105 -1.5035e-17)
(-15.7693 0.157535 -1.50583e-17)
(-15.7961 0.160376 -1.50607e-17)
(-15.8242 0.162872 -1.67339e-17)
(-15.8523 0.164986 -1.81713e-17)
(-15.8801 0.166737 -1.75639e-17)
(-15.9078 0.168149 -1.7003e-17)
(-15.935 0.169241 -1.67135e-17)
(-15.9619 0.170026 -1.65003e-17)
(-15.9884 0.17052 -1.79911e-17)
(-16.0145 0.170737 -1.93339e-17)
(-16.04 0.170696 -1.87512e-17)
(-16.065 0.170409 -1.82964e-17)
(-16.0894 0.169875 -1.81511e-17)
(-16.1132 0.169084 -1.81154e-17)
(-16.1365 0.168048 -1.98005e-17)
(-16.1591 0.166793 -2.13758e-17)
(-16.1811 0.165342 -2.1042e-17)
(-16.2024 0.163735 -2.08524e-17)
(-16.2229 0.162049 -2.0982e-17)
(-16.2426 0.160385 -2.13297e-17)
(-16.2616 0.158848 -2.18303e-17)
(-16.2797 0.157553 -2.24439e-17)
(-16.297 0.156647 -2.31442e-17)
(-16.3136 0.156302 -2.39182e-17)
(-16.3296 0.156677 -2.486e-17)
(-16.3452 0.157897 -2.42929e-17)
(-16.3605 0.16005 -2.40026e-17)
(-16.3758 0.163164 -2.57347e-17)
(-16.3912 0.167208 -2.74306e-17)
(-16.4067 0.172115 -2.88922e-17)
(-16.4225 0.177786 -3.0313e-17)
(-16.4387 0.184102 -3.00673e-17)
(-16.4551 0.190892 -2.99624e-17)
(-16.4718 0.198007 -3.17778e-17)
(-16.4886 0.205291 -3.34665e-17)
(-16.5055 0.21246 -3.48617e-17)
(-16.5226 0.219248 -3.61838e-17)
(-16.5398 0.225503 -3.58011e-17)
(-16.5574 0.230976 -3.64305e-17)
(-16.5755 0.235336 -3.87254e-17)
(-16.5942 0.238233 -3.79601e-17)
(-16.6135 0.239166 -3.70182e-17)
(-16.6338 0.237637 -3.80385e-17)
(-16.6551 0.233092 -3.72291e-17)
(-16.6778 0.224825 -3.76235e-17)
(-16.702 0.212087 -3.75186e-17)
(-16.728 0.194097 -3.52652e-17)
(-16.7566 0.170062 -3.48727e-17)
(-16.788 0.139025 -3.44573e-17)
(-14.6186 0.259399 2.74319e-17)
(-14.6479 0.263246 2.85168e-17)
(-14.6681 0.265791 2.97766e-17)
(-14.6883 0.267761 2.93609e-17)
(-14.7081 0.26924 2.92643e-17)
(-14.7276 0.270276 3.14323e-17)
(-14.7467 0.270898 3.35714e-17)
(-14.7655 0.271135 3.54472e-17)
(-14.7838 0.27101 3.72806e-17)
(-14.8016 0.270558 3.73306e-17)
(-14.819 0.269812 3.76118e-17)
(-14.836 0.268793 3.99953e-17)
(-14.8524 0.267513 4.22229e-17)
(-14.8683 0.265968 4.41108e-17)
(-14.8837 0.264149 4.58598e-17)
(-14.8986 0.262056 4.56803e-17)
(-14.9131 0.259696 4.55891e-17)
(-14.9269 0.257078 4.75147e-17)
(-14.9403 0.254236 4.91799e-17)
(-14.953 0.251241 5.03826e-17)
(-14.965 0.248174 5.12007e-17)
(-14.9762 0.245125 5.16841e-17)
(-14.9868 0.242226 5.18467e-17)
(-14.9966 0.239663 5.1692e-17)
(-15.0058 0.237648 5.12013e-17)
(-15.0145 0.236385 5.02425e-17)
(-15.0228 0.236052 5.06327e-17)
(-15.0311 0.236751 5.03723e-17)
(-15.0396 0.238507 4.75136e-17)
(-15.0485 0.241283 4.43047e-17)
(-15.0579 0.24492 4.09108e-17)
(-15.0679 0.249224 3.70921e-17)
(-15.0784 0.254038 3.46135e-17)
(-15.0895 0.259233 3.14857e-17)
(-15.1009 0.264723 2.57096e-17)
(-15.1127 0.270362 1.95045e-17)
(-15.1247 0.27592 1.30433e-17)
(-15.1369 0.281112 6.1606e-18)
(-15.1491 0.28571 -1.09304e-18)
(-15.1616 0.289513 -7.67621e-18)
(-15.1744 0.292221 -1.54796e-17)
(-15.1875 0.293444 -2.327e-17)
(-15.2011 0.292884 -3.12495e-17)
(-15.2154 0.289972 -4.17741e-17)
(-15.2305 0.2842 -5.22383e-17)
(-15.2466 0.274916 -6.15168e-17)
(-15.2638 0.261441 -6.91128e-17)
(-15.2825 0.243 -7.69823e-17)
(-15.3036 0.218855 -8.7879e-17)
(-15.327 0.188281 -9.80763e-17)
(-13.3551 0.212247 1.5587e-16)
(-13.365 0.216045 1.58273e-16)
(-13.3729 0.218766 1.60947e-16)
(-13.3812 0.220989 1.61884e-16)
(-13.3893 0.222673 1.63291e-16)
(-13.3971 0.223844 1.67332e-16)
(-13.4045 0.224522 1.71502e-16)
(-13.4114 0.224737 1.75599e-16)
(-13.418 0.224531 1.79867e-16)
(-13.424 0.22395 1.82853e-16)
(-13.4296 0.223027 1.86144e-16)
(-13.4348 0.22179 1.91704e-16)
(-13.4395 0.220259 1.97754e-16)
(-13.4438 0.218434 2.03827e-16)
(-13.4479 0.21631 2.10165e-16)
(-13.4516 0.213902 2.14836e-16)
(-13.4549 0.211233 2.20061e-16)
(-13.458 0.208326 2.27996e-16)
(-13.4607 0.205235 2.3616e-16)
(-13.463 0.202036 2.4436e-16)
(-13.4648 0.198798 2.52723e-16)
(-13.4661 0.195619 2.6135e-16)
(-13.4668 0.192679 2.70298e-16)
(-13.4669 0.190218 2.79627e-16)
(-13.4665 0.188488 2.89368e-16)
(-13.4656 0.187762 2.99431e-16)
(-13.4647 0.188291 3.11883e-16)
(-13.464 0.190207 3.24526e-16)
(-13.4638 0.193513 3.35244e-16)
(-13.4646 0.198049 3.46584e-16)
(-13.4664 0.203509 3.58776e-16)
(-13.4693 0.209584 3.71595e-16)
(-13.4732 0.216029 3.87063e-16)
(-13.4778 0.22272 4.02967e-16)
(-13.483 0.229646 4.17133e-16)
(-13.4887 0.236758 4.32048e-16)
(-13.4947 0.243874 4.47874e-16)
(-13.5009 0.250876 4.64265e-16)
(-13.5072 0.257414 4.83128e-16)
(-13.5136 0.263244 5.00967e-16)
(-13.5202 0.268166 5.16752e-16)
(-13.5269 0.271753 5.35984e-16)
(-13.5338 0.273688 5.54869e-16)
(-13.5411 0.27356 5.70425e-16)
(-13.549 0.270834 5.86833e-16)
(-13.5576 0.26487 6.00262e-16)
(-13.567 0.255016 6.12118e-16)
(-13.5776 0.24058 6.23672e-16)
(-13.5902 0.220872 6.2966e-16)
(-13.6049 0.195273 6.30333e-16)
(-11.9216 0.261263 -3.93494e-16)
(-11.9173 0.265259 -4.07544e-16)
(-11.9121 0.267571 -4.22368e-16)
(-11.9064 0.26924 -4.40199e-16)
(-11.9002 0.270364 -4.58654e-16)
(-11.8935 0.271014 -4.7533e-16)
(-11.8864 0.271231 -4.93061e-16)
(-11.8788 0.271051 -5.12095e-16)
(-11.8707 0.270515 -5.32187e-16)
(-11.8622 0.269648 -5.55396e-16)
(-11.8532 0.268472 -5.79436e-16)
(-11.8439 0.267008 -6.01793e-16)
(-11.8342 0.26525 -6.24922e-16)
(-11.8243 0.263178 -6.49108e-16)
(-11.8143 0.260798 -6.73964e-16)
(-11.8041 0.258136 -7.01091e-16)
(-11.7938 0.255203 -7.28792e-16)
(-11.7835 0.252024 -7.54486e-16)
(-11.7731 0.248641 -7.79929e-16)
(-11.7625 0.245087 -8.05702e-16)
(-11.7517 0.241387 -8.31556e-16)
(-11.7406 0.237644 -8.57293e-16)
(-11.729 0.234054 -8.82761e-16)
(-11.7169 0.230858 -9.07808e-16)
(-11.7043 0.228343 -9.32341e-16)
(-11.6914 0.226872 -9.56386e-16)
(-11.6785 0.226792 -9.77577e-16)
(-11.6661 0.228308 -9.98182e-16)
(-11.655 0.231411 -1.02076e-15)
(-11.6454 0.235806 -1.04267e-15)
(-11.6377 0.241009 -1.06364e-15)
(-11.6317 0.24652 -1.08403e-15)
(-11.6271 0.252006 -1.10157e-15)
(-11.6234 0.257351 -1.11885e-15)
(-11.6203 0.26266 -1.13835e-15)
(-11.6177 0.268116 -1.15723e-15)
(-11.6154 0.273716 -1.17505e-15)
(-11.6133 0.279373 -1.19181e-15)
(-11.6113 0.284818 -1.20726e-15)
(-11.6092 0.289705 -1.21977e-15)
(-11.6071 0.293724 -1.23134e-15)
(-11.605 0.29663 -1.23999e-15)
(-11.6029 0.297879 -1.24583e-15)
(-11.6008 0.297122 -1.25151e-15)
(-11.5992 0.293859 -1.2533e-15)
(-11.598 0.287441 -1.24964e-15)
(-11.5975 0.277186 -1.24033e-15)
(-11.598 0.262405 -1.22693e-15)
(-11.6001 0.242616 -1.21237e-15)
(-11.6039 0.217466 -1.19271e-15)
(-10.2823 0.212278 3.01889e-16)
(-10.2531 0.21537 3.24504e-16)
(-10.23 0.217008 3.48963e-16)
(-10.2061 0.21818 3.73138e-16)
(-10.1818 0.218911 3.99027e-16)
(-10.157 0.219249 4.29315e-16)
(-10.1318 0.219228 4.61679e-16)
(-10.106 0.218876 4.95278e-16)
(-10.0798 0.218203 5.3045e-16)
(-10.0532 0.217213 5.65045e-16)
(-10.0261 0.21592 6.01089e-16)
(-9.99884 0.214315 6.41061e-16)
(-9.9714 0.212362 6.8249e-16)
(-9.94395 0.210056 7.24452e-16)
(-9.91656 0.207427 7.6712e-16)
(-9.88934 0.204491 8.07582e-16)
(-9.86237 0.201251 8.48339e-16)
(-9.83572 0.197735 8.92159e-16)
(-9.80939 0.193949 9.35625e-16)
(-9.78337 0.189874 9.77891e-16)
(-9.75755 0.185544 1.01887e-15)
(-9.73172 0.181095 1.0582e-15)
(-9.70566 0.176718 1.09573e-15)
(-9.6792 0.172675 1.13104e-15)
(-9.65224 0.169401 1.16402e-15)
(-9.62487 0.167461 1.19416e-15)
(-9.59758 0.16743 1.22394e-15)
(-9.57116 0.169782 1.2508e-15)
(-9.54654 0.174592 1.272e-15)
(-9.52456 0.181397 1.2903e-15)
(-9.50554 0.189316 1.30649e-15)
(-9.48917 0.197369 1.32012e-15)
(-9.47468 0.2049 1.3338e-15)
(-9.46113 0.211806 1.3449e-15)
(-9.44773 0.218454 1.35011e-15)
(-9.43433 0.22528 1.35228e-15)
(-9.42105 0.232669 1.35152e-15)
(-9.40781 0.240489 1.34754e-15)
(-9.3945 0.248429 1.34238e-15)
(-9.38114 0.25619 1.33196e-15)
(-9.36752 0.263269 1.31521e-15)
(-9.35367 0.269422 1.29913e-15)
(-9.33962 0.274111 1.27949e-15)
(-9.32541 0.276821 1.25292e-15)
(-9.31143 0.277007 1.2255e-15)
(-9.29798 0.274014 1.19338e-15)
(-9.2853 0.267015 1.15932e-15)
(-9.27366 0.255232 1.12618e-15)
(-9.26367 0.238234 1.08755e-15)
(-9.2551 0.216171 1.04669e-15)
(-8.34773 0.210125 1.6253e-16)
(-8.29335 0.212108 1.54625e-16)
(-8.24971 0.212695 1.45796e-16)
(-8.20429 0.212996 1.33115e-16)
(-8.15832 0.213064 1.1935e-16)
(-8.11187 0.212937 1.07964e-16)
(-8.06497 0.212618 9.56974e-17)
(-8.01765 0.212089 8.18695e-17)
(-7.96995 0.211326 6.67915e-17)
(-7.92193 0.210322 4.7702e-17)
(-7.87369 0.209054 2.74599e-17)
(-7.82539 0.207467 9.82297e-18)
(-7.77724 0.205522 -8.56178e-18)
(-7.72938 0.203234 -2.82444e-17)
(-7.68197 0.200609 -4.87305e-17)
(-7.63521 0.19763 -7.27215e-17)
(-7.58925 0.194291 -9.70944e-17)
(-7.54419 0.190582 -1.17646e-16)
(-7.50012 0.186458 -1.37741e-16)
(-7.45698 0.181905 -1.57696e-16)
(-7.41453 0.177011 -1.77149e-16)
(-7.37238 0.171927 -1.95437e-16)
(-7.33012 0.166852 -2.12372e-16)
(-7.2872 0.162202 -2.27363e-16)
(-7.24316 0.158648 -2.40349e-16)
(-7.1979 0.15698 -2.51108e-16)
(-7.15192 0.158107 -2.5701e-16)
(-7.10648 0.162815 -2.59981e-16)
(-7.06351 0.171133 -2.64224e-16)
(-7.02479 0.181934 -2.66707e-16)
(-6.99103 0.193329 -2.66633e-16)
(-6.96149 0.203711 -2.64207e-16)
(-6.93426 0.211862 -2.56243e-16)
(-6.90718 0.217986 -2.4557e-16)
(-6.87886 0.223308 -2.36341e-16)
(-6.84902 0.228937 -2.24723e-16)
(-6.81825 0.235454 -2.09691e-16)
(-6.78714 0.24274 -1.91735e-16)
(-6.75562 0.250262 -1.70435e-16)
(-6.72357 0.257572 -1.44271e-16)
(-6.69105 0.264307 -1.16787e-16)
(-6.65799 0.269958 -8.66262e-17)
(-6.62455 0.274122 -5.42001e-17)
(-6.59086 0.276306 -2.49973e-17)
(-6.55743 0.275779 4.74701e-18)
(-6.52505 0.271728 3.73556e-17)
(-6.49438 0.263132 7.27672e-17)
(-6.46599 0.249091 1.06642e-16)