/*--------------------------------*- C++ -*----------------------------------*\
  =========                 |
  \\      /  F ield         | OpenFOAM: The Open Source CFD Toolbox
   \\    /   O peration     | Website:  https://openfoam.org
    \\  /    A nd           | Version:  8
     \\/     M anipulation  |
\*---------------------------------------------------------------------------*/
FoamFile
{
    version     2.0;
    format      ascii;
    class       volScalarField;
    location    "200";
    object      k;
}
// * * * * * * * * * * * * * * * * * * * * * * * * * * * * * * * * * * * * * //

dimensions      [0 2 -2 0 0 0 0];

internalField   nonuniform List<scalar> 
1200
(
2.36997e-05
2.33404e-05
2.29923e-05
2.23986e-05
2.12041e-05
2.10161e-05
2.09595e-05
2.35577e-05
2.63589e-05
2.91445e-05
3.20552e-05
3.50556e-05
3.75286e-05
3.91526e-05
4.00153e-05
4.09614e-05
4.17685e-05
4.32185e-05
4.53113e-05
4.54136e-05
4.53194e-05
4.54789e-05
4.54347e-05
4.58071e-05
0.000102747
0.000247346
0.00026778
0.000268232
0.000265769
0.000261783
0.000261023
0.000257261
0.000251432
0.000244384
0.000236349
0.000228106
0.000220228
0.000213875
0.000210995
0.000211038
0.000211696
0.00021257
0.000217267
0.00020944
0.000226509
0.000308294
0.000419069
0.000501611
0.000483304
0.000506506
0.00100683
0.00118105
0.00130869
0.00143462
0.00156879
0.00172907
0.0019184
0.00213967
0.00240693
0.00273342
2.09472e-05
1.81252e-05
1.56275e-05
1.34525e-05
1.30856e-05
1.42983e-05
1.63445e-05
2.65485e-05
3.16668e-05
3.21993e-05
3.22972e-05
3.21768e-05
3.14302e-05
2.98625e-05
2.92723e-05
2.87394e-05
2.92024e-05
3.11966e-05
3.25992e-05
3.25987e-05
3.28725e-05
3.39091e-05
3.37072e-05
3.76402e-05
8.44869e-05
0.000158196
0.000116101
7.11566e-05
5.00138e-05
5.09983e-05
5.35924e-05
5.68343e-05
6.50592e-05
8.09612e-05
9.91569e-05
0.00011462
0.00012714
0.000144939
0.000171993
0.0002026
0.000235831
0.000274483
0.000321314
0.000378661
0.000448946
0.000534207
0.000634375
0.000747104
0.000861233
0.000977759
0.00120834
0.00136464
0.00148749
0.00160444
0.00174564
0.00192239
0.00210749
0.00230357
0.00251923
0.00276406
2.09096e-05
1.7997e-05
1.54749e-05
1.32769e-05
1.58631e-05
2.49407e-05
2.57075e-05
2.80658e-05
2.74831e-05
2.6315e-05
2.48558e-05
2.26448e-05
2.05772e-05
2.1001e-05
2.21535e-05
2.31356e-05
2.5816e-05
2.84529e-05
3.03666e-05
3.19805e-05
3.37699e-05
3.59888e-05
3.90713e-05
4.46716e-05
7.04533e-05
0.00012044
6.80144e-05
4.45206e-05
4.00016e-05
4.2168e-05
4.39957e-05
4.31281e-05
4.53447e-05
4.61431e-05
4.60385e-05
4.75512e-05
6.39834e-05
0.000107956
0.000167147
0.000204169
0.000238157
0.000277136
0.000322183
0.00037387
0.000433517
0.00050225
0.000581271
0.00066953
0.000762943
0.000834838
0.000845074
0.000671345
0.000365327
0.000256539
0.000360501
0.000523992
0.00079029
0.00118025
0.00171212
0.00237066
2.09063e-05
1.79876e-05
1.54818e-05
1.32756e-05
1.29178e-05
1.78097e-05
2.32611e-05
2.43892e-05
2.04247e-05
1.94056e-05
1.92861e-05
1.89503e-05
2.01786e-05
2.3527e-05
2.57377e-05
2.55658e-05
2.71557e-05
2.85761e-05
3.0325e-05
3.21132e-05
3.39922e-05
3.62772e-05
3.95073e-05
4.55461e-05
5.93023e-05
0.000103288
5.67021e-05
4.18152e-05
3.96447e-05
3.59963e-05
3.89703e-05
3.83664e-05
3.70807e-05
3.52712e-05
3.33056e-05
3.28942e-05
3.60734e-05
4.4414e-05
5.90818e-05
8.67488e-05
0.000135604
0.000184476
0.000229831
0.000279808
0.0003352
0.000398109
0.00047325
0.000557958
0.000634152
0.000664927
0.000584623
0.000321985
0.000133371
0.000114777
0.000100529
8.7808e-05
0.000113828
0.000191803
0.00029941
0.000601064
2.09099e-05
1.80038e-05
1.55217e-05
1.33406e-05
1.20182e-05
1.35016e-05
1.75231e-05
2.03716e-05
1.78511e-05
1.88131e-05
1.78162e-05
1.59207e-05
1.68477e-05
2.2215e-05
2.69895e-05
2.88566e-05
2.90394e-05
2.98014e-05
3.03616e-05
3.10021e-05
3.17379e-05
3.25239e-05
3.36316e-05
3.75032e-05
4.91755e-05
8.88781e-05
5.95546e-05
4.59543e-05
4.43147e-05
3.75855e-05
3.64097e-05
3.63277e-05
3.49846e-05
3.27104e-05
2.99921e-05
2.80562e-05
2.74351e-05
3.01857e-05
3.69859e-05
4.7619e-05
7.29253e-05
0.000109976
0.000138493
0.000176096
0.000224431
0.000285695
0.000365989
0.000458464
0.000535742
0.000560669
0.000488198
0.00020393
0.000175072
0.000142683
0.000122455
0.000107504
9.48512e-05
8.23215e-05
0.000100166
0.000167484
2.09025e-05
1.80175e-05
1.55502e-05
1.34057e-05
1.17763e-05
1.15901e-05
1.35897e-05
1.57394e-05
1.53641e-05
1.39777e-05
1.32e-05
1.22435e-05
1.10549e-05
1.16939e-05
1.7522e-05
2.57298e-05
2.85455e-05
2.92514e-05
2.94836e-05
2.93016e-05
2.86405e-05
2.73841e-05
2.65013e-05
2.81186e-05
3.80121e-05
7.52287e-05
6.06179e-05
5.04715e-05
4.49034e-05
4.10051e-05
3.66819e-05
3.47593e-05
3.3442e-05
3.16038e-05
2.92535e-05
2.72598e-05
2.5887e-05
2.54599e-05
2.73086e-05
3.26155e-05
4.59985e-05
6.55678e-05
8.72417e-05
0.000113001
0.000140652
0.000179578
0.000241722
0.000341985
0.000448654
0.000493557
0.000419508
0.000296934
0.000221274
0.000171765
0.000142501
0.000126239
0.000114424
0.000103162
9.3603e-05
9.63295e-05
2.09027e-05
1.80377e-05
1.56171e-05
1.34885e-05
1.17559e-05
1.08303e-05
1.11984e-05
1.21325e-05
1.22036e-05
1.184e-05
1.11744e-05
1.02928e-05
9.45221e-06
8.67577e-06
8.68893e-06
1.11158e-05
1.52326e-05
1.96409e-05
2.35544e-05
2.60089e-05
2.70371e-05
2.73597e-05
2.41766e-05
2.07e-05
2.28763e-05
5.35226e-05
5.28701e-05
4.79589e-05
4.51932e-05
4.20985e-05
3.80864e-05
3.48981e-05
3.27142e-05
3.08398e-05
2.89865e-05
2.73171e-05
2.60195e-05
2.51138e-05
2.47024e-05
2.56847e-05
3.05304e-05
4.087e-05
5.26172e-05
6.94025e-05
8.80869e-05
0.000112692
0.00015384
0.000231028
0.000337203
0.000402086
0.000365126
0.000296339
0.000231013
0.000180236
0.000148834
0.000133293
0.000122457
0.000110761
9.89647e-05
9.05478e-05
2.09196e-05
1.8056e-05
1.5629e-05
1.35694e-05
1.18392e-05
1.05995e-05
1.00718e-05
9.97686e-06
9.66366e-06
9.33145e-06
8.92097e-06
8.38345e-06
7.89774e-06
7.43898e-06
7.0733e-06
7.3056e-06
8.64028e-06
1.09518e-05
1.39118e-05
1.66943e-05
1.85531e-05
1.88623e-05
1.80945e-05
1.73132e-05
1.72705e-05
3.24181e-05
4.06245e-05
4.19522e-05
4.08414e-05
3.9078e-05
3.69392e-05
3.47224e-05
3.27442e-05
3.10351e-05
2.95659e-05
2.83107e-05
2.72606e-05
2.64255e-05
2.57637e-05
2.53364e-05
2.57859e-05
2.82934e-05
3.34455e-05
4.23536e-05
5.19683e-05
6.64447e-05
9.12246e-05
0.000139852
0.000219909
0.000282555
0.00027654
0.000239381
0.000198426
0.000163558
0.000143194
0.000136631
0.00013082
0.000119536
0.000107
9.6684e-05
2.09515e-05
1.81577e-05
1.58214e-05
1.38137e-05
1.21169e-05
1.07952e-05
9.864e-06
9.25792e-06
8.76079e-06
8.35785e-06
8.01039e-06
7.67095e-06
7.44962e-06
7.27175e-06
7.11442e-06
6.96671e-06
7.04195e-06
7.50821e-06
8.41837e-06
9.49597e-06
1.02134e-05
1.01921e-05
1.12602e-05
1.19034e-05
1.2424e-05
1.81702e-05
2.28238e-05
2.49258e-05
2.55523e-05
2.61827e-05
2.67815e-05
2.72427e-05
2.73948e-05
2.71928e-05
2.67564e-05
2.64128e-05
2.66515e-05
2.74463e-05
2.85208e-05
2.95148e-05
3.00424e-05
3.03801e-05
3.11393e-05
3.32354e-05
3.69383e-05
4.32911e-05
5.33514e-05
7.62204e-05
0.000120017
0.000160057
0.000163289
0.000151452
0.000140749
0.000133853
0.000136633
0.000147133
0.000149696
0.000133565
0.000113406
9.89835e-05
2.3685e-05
2.33485e-05
2.29758e-05
2.24497e-05
2.14027e-05
2.04719e-05
1.9812e-05
1.94976e-05
1.97148e-05
2.0325e-05
2.14492e-05
2.32607e-05
2.54138e-05
2.75224e-05
2.9143e-05
3.00746e-05
3.04751e-05
3.06252e-05
3.0866e-05
3.17572e-05
3.37291e-05
3.6993e-05
4.01991e-05
4.33157e-05
4.45149e-05
4.2673e-05
4.45644e-05
4.57523e-05
4.75236e-05
4.90377e-05
5.04469e-05
5.18365e-05
5.34244e-05
5.54309e-05
5.79814e-05
6.10794e-05
6.44319e-05
6.7736e-05
7.09609e-05
7.40756e-05
7.67556e-05
7.8119e-05
7.77323e-05
7.64768e-05
7.54887e-05
7.53559e-05
7.68363e-05
8.25832e-05
9.71955e-05
0.000115536
0.000127704
0.000137703
0.000146745
0.000154928
0.00017062
0.000193202
0.000209283
0.00024642
0.000279638
0.000448736
2.36803e-05
2.33368e-05
2.30402e-05
2.24279e-05
2.13329e-05
2.09906e-05
2.09452e-05
2.34314e-05
2.62413e-05
2.90351e-05
3.1883e-05
3.48438e-05
3.73661e-05
3.90716e-05
3.99939e-05
4.09329e-05
4.17586e-05
4.32019e-05
4.53129e-05
4.55191e-05
4.53245e-05
4.54536e-05
4.54475e-05
4.57357e-05
0.000113171
0.000247203
0.000263337
0.000262596
0.000259022
0.000254767
0.000253975
0.000250649
0.000244986
0.000238269
0.000230508
0.000221669
0.000213274
0.000207163
0.000205153
0.000205593
0.000206117
0.00020662
0.000212334
0.000205986
0.000229028
0.000313734
0.000426647
0.000510678
0.000490925
0.000498025
0.000994658
0.00119143
0.0013223
0.00144867
0.0015815
0.00173876
0.00192576
0.00214604
0.00241297
0.00273776
2.09584e-05
1.81605e-05
1.57034e-05
1.35129e-05
1.28767e-05
1.42983e-05
1.60879e-05
2.6149e-05
3.14781e-05
3.20597e-05
3.21511e-05
3.2027e-05
3.12723e-05
2.96914e-05
2.90876e-05
2.85505e-05
2.90175e-05
3.10203e-05
3.24354e-05
3.24553e-05
3.27318e-05
3.37697e-05
3.36407e-05
3.89675e-05
9.05316e-05
0.000155189
0.00010961
6.6791e-05
4.84342e-05
5.00964e-05
5.31283e-05
5.79573e-05
6.82961e-05
8.4079e-05
9.97456e-05
0.000112712
0.000123792
0.000142146
0.000170479
0.00020101
0.000233761
0.000272395
0.000319745
0.000377869
0.000449047
0.000535332
0.000636511
0.00075084
0.00086757
0.000981245
0.0012157
0.00138409
0.00151388
0.00163624
0.00176673
0.00193892
0.00211891
0.00230851
0.00251973
0.00276243
2.09114e-05
1.79842e-05
1.54409e-05
1.3228e-05
1.5616e-05
2.47027e-05
2.54942e-05
2.78764e-05
2.73859e-05
2.61461e-05
2.45862e-05
2.23199e-05
2.02789e-05
2.07322e-05
2.18969e-05
2.28749e-05
2.56047e-05
2.82896e-05
3.02385e-05
3.1888e-05
3.37193e-05
3.6002e-05
3.92128e-05
4.54884e-05
7.44807e-05
0.000117444
6.33512e-05
4.42399e-05
4.01151e-05
4.2235e-05
4.40374e-05
4.36451e-05
4.66046e-05
4.6008e-05
4.55265e-05
4.55033e-05
5.52837e-05
9.15969e-05
0.000158479
0.000205797
0.000239652
0.000278439
0.000323363
0.000375168
0.000435202
0.00050453
0.000584376
0.000673918
0.000769426
0.000845817
0.000864671
0.000702643
0.000410259
0.000253135
0.000357281
0.00052736
0.000799967
0.00119307
0.00172417
0.00237822
2.09004e-05
1.79826e-05
1.54989e-05
1.32801e-05
1.28603e-05
1.75592e-05
2.30686e-05
2.43516e-05
2.0877e-05
1.95529e-05
1.94385e-05
1.90828e-05
2.0325e-05
2.36716e-05
2.58558e-05
2.56855e-05
2.72665e-05
2.86563e-05
3.03835e-05
3.2154e-05
3.39944e-05
3.61923e-05
3.93487e-05
4.48782e-05
6.22007e-05
0.000100751
5.77857e-05
4.21416e-05
3.99276e-05
3.60565e-05
3.90839e-05
3.84346e-05
3.69864e-05
3.51223e-05
3.32224e-05
3.26782e-05
3.50046e-05
4.11017e-05
5.36862e-05
8.13467e-05
0.000133488
0.000183698
0.000228303
0.000277327
0.000331972
0.000394351
0.000470908
0.00055912
0.000639344
0.000674324
0.000596404
0.000312428
0.000128968
0.000110994
9.65532e-05
8.44974e-05
0.000139225
0.000228495
0.000333801
0.000853418
2.09012e-05
1.80083e-05
1.55305e-05
1.33423e-05
1.20018e-05
1.33538e-05
1.73338e-05
2.01982e-05
1.76836e-05
1.89751e-05
1.79157e-05
1.60183e-05
1.70066e-05
2.23996e-05
2.71456e-05
2.89852e-05
2.9162e-05
2.99082e-05
3.04489e-05
3.10732e-05
3.18008e-05
3.25905e-05
3.36927e-05
3.74216e-05
4.91499e-05
8.71932e-05
6.1203e-05
4.58658e-05
4.4517e-05
3.76245e-05
3.64903e-05
3.64531e-05
3.50723e-05
3.27803e-05
3.00885e-05
2.82159e-05
2.73586e-05
2.92949e-05
3.53727e-05
4.62663e-05
7.02772e-05
0.000109014
0.000138292
0.000175266
0.000220592
0.000282946
0.000364609
0.00045825
0.00053752
0.000565382
0.000489075
0.00019909
0.0001685
0.000137006
0.000118053
0.000103507
9.06698e-05
7.89392e-05
0.000102277
0.000272416
2.09085e-05
1.80316e-05
1.55471e-05
1.33974e-05
1.17782e-05
1.15187e-05
1.34368e-05
1.54929e-05
1.50442e-05
1.39353e-05
1.34195e-05
1.23164e-05
1.10932e-05
1.18199e-05
1.77782e-05
2.59446e-05
2.86884e-05
2.93784e-05
2.96036e-05
2.94189e-05
2.87686e-05
2.75357e-05
2.66298e-05
2.8047e-05
3.72277e-05
7.51339e-05
6.16684e-05
5.12328e-05
4.54855e-05
4.10214e-05
3.66054e-05
3.47359e-05
3.34491e-05
3.16013e-05
2.9233e-05
2.728e-05
2.59596e-05
2.5386e-05
2.67045e-05
3.19271e-05
4.46925e-05
6.55015e-05
8.87344e-05
0.000115169
0.000141622
0.000179865
0.000242662
0.000343582
0.000448878
0.000493048
0.000413737
0.000285871
0.000211248
0.000163491
0.000136979
0.000122288
0.00011083
9.96564e-05
9.1082e-05
0.000105723
2.09123e-05
1.8059e-05
1.56069e-05
1.34505e-05
1.17488e-05
1.08254e-05
1.11321e-05
1.19342e-05
1.18333e-05
1.14801e-05
1.09113e-05
1.02334e-05
9.44953e-06
8.68558e-06
8.74042e-06
1.11655e-05
1.52783e-05
1.97499e-05
2.37127e-05
2.617e-05
2.71845e-05
2.75081e-05
2.43193e-05
2.08061e-05
2.21214e-05
5.31556e-05
5.36295e-05
4.86051e-05
4.5069e-05
4.20231e-05
3.79299e-05
3.47436e-05
3.25973e-05
3.07366e-05
2.88831e-05
2.72363e-05
2.60009e-05
2.51597e-05
2.46874e-05
2.55635e-05
3.02359e-05
4.11067e-05
5.38842e-05
7.14837e-05
9.02585e-05
0.000114678
0.000155957
0.000233834
0.000338737
0.000399397
0.00035692
0.000285179
0.000219776
0.000170687
0.000142956
0.000129664
0.000118989
0.000107185
9.56074e-05
8.86921e-05
2.09242e-05
1.80629e-05
1.56455e-05
1.36067e-05
1.1822e-05
1.05851e-05
1.00583e-05
9.91239e-06
9.49405e-06
9.06562e-06
8.70607e-06
8.30633e-06
7.9215e-06
7.46712e-06
7.09046e-06
7.33157e-06
8.6723e-06
1.09988e-05
1.4003e-05
1.68275e-05
1.87171e-05
1.90483e-05
1.82485e-05
1.74194e-05
1.71942e-05
3.22931e-05
4.10737e-05
4.22323e-05
4.08772e-05
3.89881e-05
3.67917e-05
3.45602e-05
3.25917e-05
3.08972e-05
2.94451e-05
2.82168e-05
2.72162e-05
2.6468e-05
2.58813e-05
2.54659e-05
2.58791e-05
2.85455e-05
3.42362e-05
4.36605e-05
5.3594e-05
6.83363e-05
9.34314e-05
0.000142735
0.000222399
0.000280542
0.000270185
0.000231081
0.0001895
0.000155831
0.000139377
0.000135063
0.000128225
0.000116325
0.000103769
9.37728e-05
2.09396e-05
1.81402e-05
1.58261e-05
1.38502e-05
1.21488e-05
1.08086e-05
9.86687e-06
9.24344e-06
8.76504e-06
8.39338e-06
8.05558e-06
7.73035e-06
7.50783e-06
7.37953e-06
7.22496e-06
7.05872e-06
7.1084e-06
7.55194e-06
8.44968e-06
9.53597e-06
1.02828e-05
1.03436e-05
1.1522e-05
1.21901e-05
1.23965e-05
1.83288e-05
2.32261e-05
2.52181e-05
2.56996e-05
2.624e-05
2.68117e-05
2.72706e-05
2.74155e-05
2.71914e-05
2.67341e-05
2.64793e-05
2.70385e-05
2.8193e-05
2.95815e-05
3.07156e-05
3.10818e-05
3.12544e-05
3.19562e-05
3.41316e-05
3.79972e-05
4.4318e-05
5.46216e-05
7.80384e-05
0.000121947
0.00015923
0.000159514
0.000146957
0.00013606
0.000130344
0.000137414
0.000149267
0.000147317
0.00012783
0.00010899
9.57027e-05
2.36922e-05
2.33803e-05
2.29842e-05
2.24005e-05
2.14126e-05
2.04701e-05
1.97191e-05
1.92755e-05
1.94709e-05
2.01687e-05
2.14915e-05
2.34527e-05
2.56773e-05
2.7778e-05
2.94151e-05
3.03522e-05
3.07569e-05
3.09695e-05
3.12234e-05
3.19893e-05
3.38202e-05
3.70484e-05
4.02932e-05
4.34631e-05
4.45623e-05
4.24967e-05
4.43221e-05
4.56752e-05
4.75255e-05
4.91128e-05
5.05978e-05
5.19952e-05
5.34896e-05
5.53998e-05
5.79663e-05
6.11237e-05
6.43548e-05
6.75456e-05
7.06796e-05
7.37355e-05
7.6358e-05
7.73245e-05
7.64873e-05
7.50304e-05
7.41051e-05
7.41682e-05
7.60018e-05
8.22277e-05
9.71501e-05
0.000114777
0.000126123
0.000135547
0.000143866
0.00015245
0.000174298
0.000199376
0.000213374
0.000251646
0.000287288
0.000466936
)
;

boundaryField
{
    wall
    {
        type            kqRWallFunction;
        value           nonuniform List<scalar> 
1200
(
2.36997e-05
2.09472e-05
2.09096e-05
2.09063e-05
2.09099e-05
2.09025e-05
2.09027e-05
2.09196e-05
2.09515e-05
2.3685e-05
2.33404e-05
1.81252e-05
1.7997e-05
1.79876e-05
1.80038e-05
1.80175e-05
1.80377e-05
1.8056e-05
1.81577e-05
2.33485e-05
2.29923e-05
1.56275e-05
1.54749e-05
1.54818e-05
1.55217e-05
1.55502e-05
1.56171e-05
1.5629e-05
1.58214e-05
2.29758e-05
2.23986e-05
1.34525e-05
1.32769e-05
1.32756e-05
1.33406e-05
1.34057e-05
1.34885e-05
1.35694e-05
1.38137e-05
2.24497e-05
2.12041e-05
1.30856e-05
1.58631e-05
1.29178e-05
1.20182e-05
1.17763e-05
1.17559e-05
1.18392e-05
1.21169e-05
2.14027e-05
2.10161e-05
1.42983e-05
2.49407e-05
1.78097e-05
1.35016e-05
1.15901e-05
1.08303e-05
1.05995e-05
1.07952e-05
2.04719e-05
2.09595e-05
1.63445e-05
2.57075e-05
2.32611e-05
1.75231e-05
1.35897e-05
1.11984e-05
1.00718e-05
9.864e-06
1.9812e-05
2.35577e-05
2.65485e-05
2.80658e-05
2.43892e-05
2.03716e-05
1.57394e-05
1.21325e-05
9.97686e-06
9.25792e-06
1.94976e-05
2.63589e-05
3.16668e-05
2.74831e-05
2.04247e-05
1.78511e-05
1.53641e-05
1.22036e-05
9.66366e-06
8.76079e-06
1.97148e-05
2.91445e-05
3.21993e-05
2.6315e-05
1.94056e-05
1.88131e-05
1.39777e-05
1.184e-05
9.33145e-06
8.35785e-06
2.0325e-05
3.20552e-05
3.22972e-05
2.48558e-05
1.92861e-05
1.78162e-05
1.32e-05
1.11744e-05
8.92097e-06
8.01039e-06
2.14492e-05
3.50556e-05
3.21768e-05
2.26448e-05
1.89503e-05
1.59207e-05
1.22435e-05
1.02928e-05
8.38345e-06
7.67095e-06
2.32607e-05
3.75286e-05
3.14302e-05
2.05772e-05
2.01786e-05
1.68477e-05
1.10549e-05
9.45221e-06
7.89774e-06
7.44962e-06
2.54138e-05
3.91526e-05
2.98625e-05
2.1001e-05
2.3527e-05
2.2215e-05
1.16939e-05
8.67577e-06
7.43898e-06
7.27175e-06
2.75224e-05
4.00153e-05
2.92723e-05
2.21535e-05
2.57377e-05
2.69895e-05
1.7522e-05
8.68893e-06
7.0733e-06
7.11442e-06
2.9143e-05
4.09614e-05
2.87394e-05
2.31356e-05
2.55658e-05
2.88566e-05
2.57298e-05
1.11158e-05
7.3056e-06
6.96671e-06
3.00746e-05
4.17685e-05
2.92024e-05
2.5816e-05
2.71557e-05
2.90394e-05
2.85455e-05
1.52326e-05
8.64028e-06
7.04195e-06
3.04751e-05
4.32185e-05
3.11966e-05
2.84529e-05
2.85761e-05
2.98014e-05
2.92514e-05
1.96409e-05
1.09518e-05
7.50821e-06
3.06252e-05
4.53113e-05
3.25992e-05
3.03666e-05
3.0325e-05
3.03616e-05
2.94836e-05
2.35544e-05
1.39118e-05
8.41837e-06
3.0866e-05
4.54136e-05
3.25987e-05
3.19805e-05
3.21132e-05
3.10021e-05
2.93016e-05
2.60089e-05
1.66943e-05
9.49597e-06
3.17572e-05
4.53194e-05
3.28725e-05
3.37699e-05
3.39922e-05
3.17379e-05
2.86405e-05
2.70371e-05
1.85531e-05
1.02134e-05
3.37291e-05
4.54789e-05
3.39091e-05
3.59888e-05
3.62772e-05
3.25239e-05
2.73841e-05
2.73597e-05
1.88623e-05
1.01921e-05
3.6993e-05
4.54347e-05
3.37072e-05
3.90713e-05
3.95073e-05
3.36316e-05
2.65013e-05
2.41766e-05
1.80945e-05
1.12602e-05
4.01991e-05
4.58071e-05
3.76402e-05
4.46716e-05
4.55461e-05
3.75032e-05
2.81186e-05
2.07e-05
1.73132e-05
1.19034e-05
4.33157e-05
0.000102747
8.44869e-05
7.04533e-05
5.93023e-05
4.91755e-05
3.80121e-05
2.28763e-05
1.72705e-05
1.2424e-05
4.45149e-05
0.000247346
0.000158196
0.00012044
0.000103288
8.88781e-05
7.52287e-05
5.35226e-05
3.24181e-05
1.81702e-05
4.2673e-05
0.00026778
0.000116101
6.80144e-05
5.67021e-05
5.95546e-05
6.06179e-05
5.28701e-05
4.06245e-05
2.28238e-05
4.45644e-05
0.000268232
7.11566e-05
4.45206e-05
4.18152e-05
4.59543e-05
5.04715e-05
4.79589e-05
4.19522e-05
2.49258e-05
4.57523e-05
0.000265769
5.00138e-05
4.00016e-05
3.96447e-05
4.43147e-05
4.49034e-05
4.51932e-05
4.08414e-05
2.55523e-05
4.75236e-05
0.000261783
5.09983e-05
4.2168e-05
3.59963e-05
3.75855e-05
4.10051e-05
4.20985e-05
3.9078e-05
2.61827e-05
4.90377e-05
0.000261023
5.35924e-05
4.39957e-05
3.89703e-05
3.64097e-05
3.66819e-05
3.80864e-05
3.69392e-05
2.67815e-05
5.04469e-05
0.000257261
5.68343e-05
4.31281e-05
3.83664e-05
3.63277e-05
3.47593e-05
3.48981e-05
3.47224e-05
2.72427e-05
5.18365e-05
0.000251432
6.50592e-05
4.53447e-05
3.70807e-05
3.49846e-05
3.3442e-05
3.27142e-05
3.27442e-05
2.73948e-05
5.34244e-05
0.000244384
8.09612e-05
4.61431e-05
3.52712e-05
3.27104e-05
3.16038e-05
3.08398e-05
3.10351e-05
2.71928e-05
5.54309e-05
0.000236349
9.91569e-05
4.60385e-05
3.33056e-05
2.99921e-05
2.92535e-05
2.89865e-05
2.95659e-05
2.67564e-05
5.79814e-05
0.000228106
0.00011462
4.75512e-05
3.28942e-05
2.80562e-05
2.72598e-05
2.73171e-05
2.83107e-05
2.64128e-05
6.10794e-05
0.000220228
0.00012714
6.39834e-05
3.60734e-05
2.74351e-05
2.5887e-05
2.60195e-05
2.72606e-05
2.66515e-05
6.44319e-05
0.000213875
0.000144939
0.000107956
4.4414e-05
3.01857e-05
2.54599e-05
2.51138e-05
2.64255e-05
2.74463e-05
6.7736e-05
0.000210995
0.000171993
0.000167147
5.90818e-05
3.69859e-05
2.73086e-05
2.47024e-05
2.57637e-05
2.85208e-05
7.09609e-05
0.000211038
0.0002026
0.000204169
8.67488e-05
4.7619e-05
3.26155e-05
2.56847e-05
2.53364e-05
2.95148e-05
7.40756e-05
0.000211696
0.000235831
0.000238157
0.000135604
7.29253e-05
4.59985e-05
3.05304e-05
2.57859e-05
3.00424e-05
7.67556e-05
0.00021257
0.000274483
0.000277136
0.000184476
0.000109976
6.55678e-05
4.087e-05
2.82934e-05
3.03801e-05
7.8119e-05
0.000217267
0.000321314
0.000322183
0.000229831
0.000138493
8.72417e-05
5.26172e-05
3.34455e-05
3.11393e-05
7.77323e-05
0.00020944
0.000378661
0.00037387
0.000279808
0.000176096
0.000113001
6.94025e-05
4.23536e-05
3.32354e-05
7.64768e-05
0.000226509
0.000448946
0.000433517
0.0003352
0.000224431
0.000140652
8.80869e-05
5.19683e-05
3.69383e-05
7.54887e-05
0.000308294
0.000534207
0.00050225
0.000398109
0.000285695
0.000179578
0.000112692
6.64447e-05
4.32911e-05
7.53559e-05
0.000419069
0.000634375
0.000581271
0.00047325
0.000365989
0.000241722
0.00015384
9.12246e-05
5.33514e-05
7.68363e-05
0.000501611
0.000747104
0.00066953
0.000557958
0.000458464
0.000341985
0.000231028
0.000139852
7.62204e-05
8.25832e-05
0.000483304
0.000861233
0.000762943
0.000634152
0.000535742
0.000448654
0.000337203
0.000219909
0.000120017
9.71955e-05
0.000506506
0.000977759
0.000834838
0.000664927
0.000560669
0.000493557
0.000402086
0.000282555
0.000160057
0.000115536
0.00100683
0.00120834
0.000845074
0.000584623
0.000488198
0.000419508
0.000365126
0.00027654
0.000163289
0.000127704
0.00118105
0.00136464
0.000671345
0.000321985
0.00020393
0.000296934
0.000296339
0.000239381
0.000151452
0.000137703
0.00130869
0.00148749
0.000365327
0.000133371
0.000175072
0.000221274
0.000231013
0.000198426
0.000140749
0.000146745
0.00143462
0.00160444
0.000256539
0.000114777
0.000142683
0.000171765
0.000180236
0.000163558
0.000133853
0.000154928
0.00156879
0.00174564
0.000360501
0.000100529
0.000122455
0.000142501
0.000148834
0.000143194
0.000136633
0.00017062
0.00172907
0.00192239
0.000523992
8.7808e-05
0.000107504
0.000126239
0.000133293
0.000136631
0.000147133
0.000193202
0.0019184
0.00210749
0.00079029
0.000113828
9.48512e-05
0.000114424
0.000122457
0.00013082
0.000149696
0.000209283
0.00213967
0.00230357
0.00118025
0.000191803
8.23215e-05
0.000103162
0.000110761
0.000119536
0.000133565
0.00024642
0.00240693
0.00251923
0.00171212
0.00029941
0.000100166
9.3603e-05
9.89647e-05
0.000107
0.000113406
0.000279638
0.00273342
0.00276406
0.00237066
0.000601064
0.000167484
9.63295e-05
9.05478e-05
9.6684e-05
9.89835e-05
0.000448736
2.36803e-05
2.09584e-05
2.09114e-05
2.09004e-05
2.09012e-05
2.09085e-05
2.09123e-05
2.09242e-05
2.09396e-05
2.36922e-05
2.33368e-05
1.81605e-05
1.79842e-05
1.79826e-05
1.80083e-05
1.80316e-05
1.8059e-05
1.80629e-05
1.81402e-05
2.33803e-05
2.30402e-05
1.57034e-05
1.54409e-05
1.54989e-05
1.55305e-05
1.55471e-05
1.56069e-05
1.56455e-05
1.58261e-05
2.29842e-05
2.24279e-05
1.35129e-05
1.3228e-05
1.32801e-05
1.33423e-05
1.33974e-05
1.34505e-05
1.36067e-05
1.38502e-05
2.24005e-05
2.13329e-05
1.28767e-05
1.5616e-05
1.28603e-05
1.20018e-05
1.17782e-05
1.17488e-05
1.1822e-05
1.21488e-05
2.14126e-05
2.09906e-05
1.42983e-05
2.47027e-05
1.75592e-05
1.33538e-05
1.15187e-05
1.08254e-05
1.05851e-05
1.08086e-05
2.04701e-05
2.09452e-05
1.60879e-05
2.54942e-05
2.30686e-05
1.73338e-05
1.34368e-05
1.11321e-05
1.00583e-05
9.86687e-06
1.97191e-05
2.34314e-05
2.6149e-05
2.78764e-05
2.43516e-05
2.01982e-05
1.54929e-05
1.19342e-05
9.91239e-06
9.24344e-06
1.92755e-05
2.62413e-05
3.14781e-05
2.73859e-05
2.0877e-05
1.76836e-05
1.50442e-05
1.18333e-05
9.49405e-06
8.76504e-06
1.94709e-05
2.90351e-05
3.20597e-05
2.61461e-05
1.95529e-05
1.89751e-05
1.39353e-05
1.14801e-05
9.06562e-06
8.39338e-06
2.01687e-05
3.1883e-05
3.21511e-05
2.45862e-05
1.94385e-05
1.79157e-05
1.34195e-05
1.09113e-05
8.70607e-06
8.05558e-06
2.14915e-05
3.48438e-05
3.2027e-05
2.23199e-05
1.90828e-05
1.60183e-05
1.23164e-05
1.02334e-05
8.30633e-06
7.73035e-06
2.34527e-05
3.73661e-05
3.12723e-05
2.02789e-05
2.0325e-05
1.70066e-05
1.10932e-05
9.44953e-06
7.9215e-06
7.50783e-06
2.56773e-05
3.90716e-05
2.96914e-05
2.07322e-05
2.36716e-05
2.23996e-05
1.18199e-05
8.68558e-06
7.46712e-06
7.37953e-06
2.7778e-05
3.99939e-05
2.90876e-05
2.18969e-05
2.58558e-05
2.71456e-05
1.77782e-05
8.74042e-06
7.09046e-06
7.22496e-06
2.94151e-05
4.09329e-05
2.85505e-05
2.28749e-05
2.56855e-05
2.89852e-05
2.59446e-05
1.11655e-05
7.33157e-06
7.05872e-06
3.03522e-05
4.17586e-05
2.90175e-05
2.56047e-05
2.72665e-05
2.9162e-05
2.86884e-05
1.52783e-05
8.6723e-06
7.1084e-06
3.07569e-05
4.32019e-05
3.10203e-05
2.82896e-05
2.86563e-05
2.99082e-05
2.93784e-05
1.97499e-05
1.09988e-05
7.55194e-06
3.09695e-05
4.53129e-05
3.24354e-05
3.02385e-05
3.03835e-05
3.04489e-05
2.96036e-05
2.37127e-05
1.4003e-05
8.44968e-06
3.12234e-05
4.55191e-05
3.24553e-05
3.1888e-05
3.2154e-05
3.10732e-05
2.94189e-05
2.617e-05
1.68275e-05
9.53597e-06
3.19893e-05
4.53245e-05
3.27318e-05
3.37193e-05
3.39944e-05
3.18008e-05
2.87686e-05
2.71845e-05
1.87171e-05
1.02828e-05
3.38202e-05
4.54536e-05
3.37697e-05
3.6002e-05
3.61923e-05
3.25905e-05
2.75357e-05
2.75081e-05
1.90483e-05
1.03436e-05
3.70484e-05
4.54475e-05
3.36407e-05
3.92128e-05
3.93487e-05
3.36927e-05
2.66298e-05
2.43193e-05
1.82485e-05
1.1522e-05
4.02932e-05
4.57357e-05
3.89675e-05
4.54884e-05
4.48782e-05
3.74216e-05
2.8047e-05
2.08061e-05
1.74194e-05
1.21901e-05
4.34631e-05
0.000113171
9.05316e-05
7.44807e-05
6.22007e-05
4.91499e-05
3.72277e-05
2.21214e-05
1.71942e-05
1.23965e-05
4.45623e-05
0.000247203
0.000155189
0.000117444
0.000100751
8.71932e-05
7.51339e-05
5.31556e-05
3.22931e-05
1.83288e-05
4.24967e-05
0.000263337
0.00010961
6.33512e-05
5.77857e-05
6.1203e-05
6.16684e-05
5.36295e-05
4.10737e-05
2.32261e-05
4.43221e-05
0.000262596
6.6791e-05
4.42399e-05
4.21416e-05
4.58658e-05
5.12328e-05
4.86051e-05
4.22323e-05
2.52181e-05
4.56752e-05
0.000259022
4.84342e-05
4.01151e-05
3.99276e-05
4.4517e-05
4.54855e-05
4.5069e-05
4.08772e-05
2.56996e-05
4.75255e-05
0.000254767
5.00964e-05
4.2235e-05
3.60565e-05
3.76245e-05
4.10214e-05
4.20231e-05
3.89881e-05
2.624e-05
4.91128e-05
0.000253975
5.31283e-05
4.40374e-05
3.90839e-05
3.64903e-05
3.66054e-05
3.79299e-05
3.67917e-05
2.68117e-05
5.05978e-05
0.000250649
5.79573e-05
4.36451e-05
3.84346e-05
3.64531e-05
3.47359e-05
3.47436e-05
3.45602e-05
2.72706e-05
5.19952e-05
0.000244986
6.82961e-05
4.66046e-05
3.69864e-05
3.50723e-05
3.34491e-05
3.25973e-05
3.25917e-05
2.74155e-05
5.34896e-05
0.000238269
8.4079e-05
4.6008e-05
3.51223e-05
3.27803e-05
3.16013e-05
3.07366e-05
3.08972e-05
2.71914e-05
5.53998e-05
0.000230508
9.97456e-05
4.55265e-05
3.32224e-05
3.00885e-05
2.9233e-05
2.88831e-05
2.94451e-05
2.67341e-05
5.79663e-05
0.000221669
0.000112712
4.55033e-05
3.26782e-05
2.82159e-05
2.728e-05
2.72363e-05
2.82168e-05
2.64793e-05
6.11237e-05
0.000213274
0.000123792
5.52837e-05
3.50046e-05
2.73586e-05
2.59596e-05
2.60009e-05
2.72162e-05
2.70385e-05
6.43548e-05
0.000207163
0.000142146
9.15969e-05
4.11017e-05
2.92949e-05
2.5386e-05
2.51597e-05
2.6468e-05
2.8193e-05
6.75456e-05
0.000205153
0.000170479
0.000158479
5.36862e-05
3.53727e-05
2.67045e-05
2.46874e-05
2.58813e-05
2.95815e-05
7.06796e-05
0.000205593
0.00020101
0.000205797
8.13467e-05
4.62663e-05
3.19271e-05
2.55635e-05
2.54659e-05
3.07156e-05
7.37355e-05
0.000206117
0.000233761
0.000239652
0.000133488
7.02772e-05
4.46925e-05
3.02359e-05
2.58791e-05
3.10818e-05
7.6358e-05
0.00020662
0.000272395
0.000278439
0.000183698
0.000109014
6.55015e-05
4.11067e-05
2.85455e-05
3.12544e-05
7.73245e-05
0.000212334
0.000319745
0.000323363
0.000228303
0.000138292
8.87344e-05
5.38842e-05
3.42362e-05
3.19562e-05
7.64873e-05
0.000205986
0.000377869
0.000375168
0.000277327
0.000175266
0.000115169
7.14837e-05
4.36605e-05
3.41316e-05
7.50304e-05
0.000229028
0.000449047
0.000435202
0.000331972
0.000220592
0.000141622
9.02585e-05
5.3594e-05
3.79972e-05
7.41051e-05
0.000313734
0.000535332
0.00050453
0.000394351
0.000282946
0.000179865
0.000114678
6.83363e-05
4.4318e-05
7.41682e-05
0.000426647
0.000636511
0.000584376
0.000470908
0.000364609
0.000242662
0.000155957
9.34314e-05
5.46216e-05
7.60018e-05
0.000510678
0.00075084
0.000673918
0.00055912
0.00045825
0.000343582
0.000233834
0.000142735
7.80384e-05
8.22277e-05
0.000490925
0.00086757
0.000769426
0.000639344
0.00053752
0.000448878
0.000338737
0.000222399
0.000121947
9.71501e-05
0.000498025
0.000981245
0.000845817
0.000674324
0.000565382
0.000493048
0.000399397
0.000280542
0.00015923
0.000114777
0.000994658
0.0012157
0.000864671
0.000596404
0.000489075
0.000413737
0.00035692
0.000270185
0.000159514
0.000126123
0.00119143
0.00138409
0.000702643
0.000312428
0.00019909
0.000285871
0.000285179
0.000231081
0.000146957
0.000135547
0.0013223
0.00151388
0.000410259
0.000128968
0.0001685
0.000211248
0.000219776
0.0001895
0.00013606
0.000143866
0.00144867
0.00163624
0.000253135
0.000110994
0.000137006
0.000163491
0.000170687
0.000155831
0.000130344
0.00015245
0.0015815
0.00176673
0.000357281
9.65532e-05
0.000118053
0.000136979
0.000142956
0.000139377
0.000137414
0.000174298
0.00173876
0.00193892
0.00052736
8.44974e-05
0.000103507
0.000122288
0.000129664
0.000135063
0.000149267
0.000199376
0.00192576
0.00211891
0.000799967
0.000139225
9.06698e-05
0.00011083
0.000118989
0.000128225
0.000147317
0.000213374
0.00214604
0.00230851
0.00119307
0.000228495
7.89392e-05
9.96564e-05
0.000107185
0.000116325
0.00012783
0.000251646
0.00241297
0.00251973
0.00172417
0.000333801
0.000102277
9.1082e-05
9.56074e-05
0.000103769
0.00010899
0.000287288
0.00273776
0.00276243
0.00237822
0.000853418
0.000272416
0.000105723
8.86921e-05
9.37728e-05
9.57027e-05
0.000466936
)
;
    }
    inlet
    {
        type            turbulentIntensityKineticEnergyInlet;
        intensity       0.05;
        value           uniform 2.4e-05;
    }
    outlet
    {
        type            inletOutlet;
        inletValue      uniform 0.003;
        value           nonuniform List<scalar> 
20
(
0.003
0.003
0.003
0.000601064
0.000167484
9.63295e-05
9.05478e-05
9.6684e-05
9.89835e-05
0.000448736
0.003
0.003
0.003
0.003
0.000272416
0.000105723
8.86921e-05
9.37728e-05
9.57027e-05
0.000466936
)
;
    }
    heatWall
    {
        type            kqRWallFunction;
        value           nonuniform List<scalar> 
240
(
2.3685e-05
2.36922e-05
2.33485e-05
2.33803e-05
2.29758e-05
2.29842e-05
2.24497e-05
2.24005e-05
2.14027e-05