/*--------------------------------*- C++ -*----------------------------------*\
  =========                 |
  \\      /  F ield         | OpenFOAM: The Open Source CFD Toolbox
   \\    /   O peration     | Website:  https://openfoam.org
    \\  /    A nd           | Version:  8
     \\/     M anipulation  |
\*---------------------------------------------------------------------------*/
FoamFile
{
    version     2.0;
    format      ascii;
    class       volScalarField;
    location    "200";
    object      p;
}
// * * * * * * * * * * * * * * * * * * * * * * * * * * * * * * * * * * * * * //

dimensions      [1 -1 -2 0 0 0 0];

internalField   nonuniform List<scalar> 
1200
(
2157.56
2157.56
2157.79
2158.15
2161.93
2165.69
2167.43
2173.04
2181.01
2177.41
2163.49
2151.85
2145.97
2145.08
2145.52
2146.54
2147.32
2146.55
2145.62
2145.32
2147.44
2152.6
2159.83
2173.31
2203.71
2176.74
2116.63
2093.65
2091.17
2095.36
2088.38
2075.49
2060.11
2046.83
2043.64
2054.65
2074.73
2084.19
2059.5
2016.88
1987.52
1957.13
1902.3
1851.03
1805.87
1725.43
1509.58
948.378
264.928
189.688
-27.0727
-897.399
-961.816
-688.621
-375.732
-139.314
-58.5201
-51.7857
-146.354
-122.929
1962.18
1962.29
1962.6
1962.92
1966.35
1969.67
1972.24
1974.54
1973.77
1971.77
1962.02
1952.65
1948.73
1949.14
1950.21
1951.54
1952.33
1951.5
1950.5
1949.84
1952.03
1957.47
1963.06
1969.03
1999.86
1971.85
1915.52
1893.6
1893.65
1900.76
1894.01
1880.72
1864.87
1850.05
1844.71
1854.01
1874.28
1885.83
1861.66
1818.57
1792.21
1760.25
1707.86
1657.82
1610.05
1534.38
1341.82
842.778
123.273
-114.378
-445.228
-1294.67
-1324.74
-938.864
-546.68
-279.439
-215.515
-238.512
-416.907
-1125.96
1767.01
1767.11
1767.4
1767.7
1769.72
1771.51
1770.3
1764.17
1751.65
1761.56
1759.67
1754.22
1751.78
1752.66
1753.96
1755.3
1756.08
1755.38
1754.27
1753.56
1755.68
1761.34
1768.61
1766.06
1795.52
1764.76
1715.87
1696.57
1699.72
1708.34
1700.26
1684.67
1666.33
1649.56
1644.89
1659.29
1687.72
1708.05
1675.65
1622.47
1598.73
1566.19
1515.99
1460.64
1397.62
1314.33
1161.97
828.883
297.308
-276.909
-1195.75
-1926.53
-1732.98
-1148.09
-649.94
-379.201
-341.051
-347.116
-378.018
-536.637
1571.73
1571.76
1571.95
1571.79
1570.22
1569.53
1569.87
1560.33
1550
1557.52
1558
1554.79
1554.36
1556.03
1557.54
1559.55
1560.75
1559.53
1558.14
1557.13
1559.23
1566.21
1575.32
1571.75
1597.53
1563.91
1513.01
1496.98
1501.26
1513.48
1504.94
1489
1470.01
1453.48
1449.94
1463.3
1481.22
1489.53
1466.29
1429.37
1413.47
1375.89
1325.9
1268.5
1197.86
1108.56
975.915
735.6
318.712
-445.696
-1684.79
-2233.25
-1958.79
-1369.54
-929.485
-667.95
-626.844
-647.854
-644.439
-704.074
1376.45
1376.43
1376.4
1375.93
1374.17
1371.53
1370.1
1364.71
1355.87
1357.94
1358.9
1357.25
1357.4
1359.25
1361.61
1364.02
1365.05
1364.18
1362.21
1360.14
1360.28
1364.73
1376.38
1382.32
1404.14
1368.45
1317.18
1303.81
1306.34
1316.29
1308.53
1293.08
1274.58
1258.05
1254.67
1266.68
1279.91
1282.13
1265.44
1236.69
1214.05
1178.49
1131.15
1075.31
1002.21
912.375
792.151
593.896
213.378
-632.462
-1944.47
-2515.16
-2108.46
-1576.82
-1122.15
-843.793
-802.962
-797.965
-803.071
-904.86
1181.17
1181.07
1180.77
1180.07
1178.71
1176.25
1173.98
1169.24
1162.07
1161.57
1162.15
1160.65
1160.84
1162.82
1165.95
1169.22
1169.99
1168.28
1165.56
1162.23
1160.49
1162.43
1173.33
1186.81
1207.34
1172.48
1128
1112.54
1112.18
1119.4
1112.25
1097.87
1080.33
1064.96
1060.7
1069.27
1080.28
1081.84
1067.26
1042.85
1018.07
980.559
934.017
877.816
804.768
713.858
594.107
400.41
28.714
-826.968
-2052.4
-2715.95
-2292.08
-1783.74
-1339.96
-1073.17
-1032.1
-1047.32
-1050.22
-1099.52
985.9
985.771
985.36
984.56
983.415
980.965
978.254
974.025
968.728
966.535
966.283
965.406
965.56
967.253
970.01
972.885
974.358
972.975
969.378
964.735
960.848
961.775
972.71
988.288
1000.44
982.045
938.807
922.785
919.375
922.436
915.133
902.043
885.884
871.487
866.581
871.943
879.856
881.383
869.815
847.966
821.798
784.063
738.304
681.155
606.582
513.076
387.418
184.331
-188.191
-1002.56
-2155.33
-2765.47
-2432.38
-1958.41
-1532.01
-1283.9
-1255.29
-1276.67
-1270.94
-1283.57
790.666
790.529
790.097
789.302
788.131
785.821
782.934
778.846
774.295
772.009
771.192
770.248
770.151
771.729
774.754
777.999
779.36
777.596
773.443
768.117
763.986
764.792
774.066
787.809
797.736
789.483
748.856
731.673
725.696
725.645
717.969
705.659
690.687
677.448
672.223
675.315
680.87
681.935
671.696
651.335
624.771
587.456
541.991
484.417
408.898
312.936
181.64
-29.8776
-407.732
-1176.45
-2229.48
-2780.54
-2547.62
-2108.08
-1695.77
-1479.16
-1486.34
-1524.88
-1504.97
-1480.43
595.386
595.227
594.809
594.025
592.785
590.636
587.758
583.757
579.321
576.766
575.658
574.724
574.736
576.481
579.588
582.791
584.229
582.661
578.449
572.95
568.741
569.331
577.51
589.854
597.416
592.346
557.871
538.638
531.339
529.059
520.937
508.718
494.357
481.683
476.115
478.12
482.431
483
473.657
454.339
427.608
390.412
344.512
286.544
210.752
113.02
-21.9558
-238.241
-616.62
-1345.55
-2306.09
-2823.37
-2661.87
-2242.33
-1828.79
-1646.83
-1708.17
-1769.33
-1730.44
-1672.81
400.38
400.113
399.656
398.844
397.556
395.474
392.64
388.721
384.345
381.669
380.397
379.537
379.667
381.434
384.568
387.804
389.316
387.74
383.528
378.076
373.997
374.546
381.889
393.248
400.216
395.708
364.873
344.518
336.649
333.24
324.911
312.54
298.309
285.837
279.992
281.353
285.111
285.255
276.255
257.529
230.895
193.667
147.328
89.445
14.0676
-83.7994
-219.747
-435.822
-807.132
-1509.11
-2420.84
-2927.57
-2807.07
-2403.25
-1995.35
-1806.69
-1854.95
-1959.34
-1945.83
-1872.79
2157.59
2157.57
2157.83
2158.2
2162.06
2165.78
2167.49
2172.87
2180.63
2177.33
2163.58
2151.8
2145.92
2145.03
2145.53
2146.53
2147.24
2146.47
2145.38
2145.02
2147.22
2152.38
2159.42
2173.07
2203.31
2175.42
2115.19
2093.41
2091.22
2095.22
2088.73
2075.92
2060.61
2047.23
2044.08
2054.97
2074.9
2084.03
2058.89
2016.19
1987.17
1957.02
1902.61
1851.53
1807.16
1726.07
1511.22
949.755
263.154
186.332
-23.6827
-894.994
-968.052
-693.328
-382.798
-149.693
-68.0701
-64.4112
-158.549
-167.517
1962.17
1962.29
1962.6
1962.97
1966.41
1969.59
1971.88
1973.63
1973.03
1971.17
1961.46
1951.88
1947.72
1948.02
1949.16
1950.49
1951.27
1950.42
1949.3
1948.93
1951.27
1956.46
1962.07
1968.98
2000.7
1971.54
1915.21
1894.4
1894.33
1900.64
1894.1
1880.62
1864.61
1849.67
1844.33
1853.45
1873.73
1885.22
1860.9
1817.96
1791.72
1759.78
1707.48
1657.71
1610.23
1533.67
1341.26
845.004
125.864
-113.113
-434.459
-1288.28
-1323.24
-935.633
-544.583
-278.695
-215.673
-238.897
-415.54
-1121.21
1766.98
1767.11
1767.4
1767.66
1769.4
1771.37
1770.41
1763.83
1751.64
1761.29
1759.12
1753.66
1751.32
1752.11
1753.45
1754.89
1755.7
1754.9
1753.7
1753.06
1755.31
1760.94
1767.96
1766.23
1795.94
1765.57
1717
1697.9
1700.23
1707.75
1700.34
1684.91
1666.41
1649.33
1644.5
1658.9
1687.3
1708.16
1676.19
1622.96
1598.99
1566.1
1515.92
1461.29
1398.57
1315.44
1161.62
825.458
296.99
-266.831
-1180.75
-1912.9
-1732.42
-1157.04
-654.297
-383.03
-346.236
-348.655
-382.604
-602.942
1571.72
1571.8
1572.02
1571.86
1570.2
1569.18
1569.56
1560.72
1550.32
1557.65
1558.12
1554.97
1554.57
1556.23
1557.7
1559.8
1561.16
1559.84
1558.49
1557.53
1559.81
1566.94
1575.84
1572.13
1598.91
1565.71
1514.46
1497.65
1502.49
1514.57
1505.7
1489.87
1470.68
1453.82
1450.27
1463.72
1481.52
1490.13
1467.13
1429.9
1414.12
1375.67
1325.55
1268.24
1197.1
1107.98
976.821
737.452
323.506
-438.924
-1681.86
-2234.52
-1953.83
-1372.81
-933.088
-670.202
-626.786
-646.849
-640.668
-707.503
1376.46
1376.47
1376.48
1376.03
1374.21
1371.53
1370.19
1364.85
1356.15
1358.17
1359.35
1357.68
1357.84
1359.77
1362.18
1364.48
1365.48
1364.85
1363.01
1361.03
1361.26
1365.6
1377.11
1383.31
1406.85
1370.55
1318.49
1304.75
1307.44
1317.39
1309.09
1293.73
1275.2
1258.24
1254.93
1267.08
1279.89
1282.03
1265.56
1237.53
1214.9
1178.75
1131.68
1076.11
1002.35
912.273
792.518
595.511
218.621
-630.809
-1941.66
-2511.53
-2102.24
-1572.02
-1117.32
-839.129
-803.548
-798.948
-803.554
-900.903
1181.18
1181.09
1180.83
1180.15
1178.78
1176.22
1173.98
1169.35
1162.2
1161.68
1162.27
1160.89
1161.11
1163.19
1166.42
1169.78
1170.36
1168.55
1165.92
1162.63
1161.15
1163.27
1173.7
1187.23
1208.93
1174.99
1129.33
1113.2
1112.88
1120.03
1112.51
1098.39
1080.87
1065.45
1060.86
1069.33
1080.15
1081.68
1066.98
1042.61
1017.99
980.54
934.331
878.175
804.65
713.667
593.789
400.883
32.0755
-824.05
-2052.93
-2711.15
-2286.86
-1783.13
-1341.23
-1076.08
-1033.98
-1047.92
-1048.73
-1097.59
985.896
985.773
985.388
984.586
983.465
980.964
978.291
974.074
968.759
966.586
966.365
965.547
965.734
967.403
970.042
972.823
974.426
973.131
969.554
964.87
961.064
962.092
972.366
988.105
1000.85
983.993
939.898
923.151
919.732
922.684
914.926
902.062
885.978
871.329
866.189
871.785
879.514
880.91
869.359
847.676
821.515
783.843
738.378
681.335
606.531
513.066
387.084
183.794
-187.123
-1002.45
-2155.69
-2759.46
-2426.87
-1956.66
-1532.67
-1285.75
-1255.96
-1275.43
-1269.32
-1283.89
790.643
790.522
790.107
789.295
788.151
785.837
782.963
778.898
774.338
772.046
771.231
770.308
770.247
771.841
774.807
777.971
779.213
777.386
773.275
767.978
763.973
764.967
773.884
787.547
797.685
790.728
749.798
731.488
725.661
725.66
717.7
705.565
690.637
677.215
671.603
674.755
680.464
681.406
671.172
650.892
624.3
586.999
541.688
484.328
409.146
313.531
181.837
-30.3163
-407.826
-1178.03
-2230.77
-2778.02
-2543.82
-2106.77
-1697.2
-1482.54
-1487.98
-1523.8
-1503.56
-1482.98
595.376
595.238
594.815
593.99
592.789
590.65
587.774
583.835
579.378
576.815
575.717
574.802
574.842
576.584
579.591
582.694
584.077
582.493
578.299
572.79
568.645
569.327
577.317
589.627
597.329
592.621
558.117
538.365
531.269
529.109
520.828
508.75
494.486
481.671
475.807
477.87
482.324
482.732
473.341
454.075
427.321
390.095
344.203
286.496
211.198
114.138
-21.3865
-238.523
-616.731
-1346.72
-2306.56
-2821.17
-2658.76
-2241.7
-1831.14
-1651.41
-1710.68
-1767.27
-1728.94
-1673.84
400.379
400.138
399.654
398.79
397.575
395.493
392.642
388.827
384.406
381.707
380.426
379.568
379.714
381.481
384.545
387.711
389.167
387.556
383.325
377.847
373.812
374.455
381.683
393.005
400.137
395.674
364.994
344.237
336.409
333.137
324.814
312.589
298.541
286.076
280.086
281.431
285.303
285.386
276.352
257.713
231.096
193.863
147.491
89.7999
14.7513
-82.793
-218.904
-435.318
-806.75
-1510.78
-2422.49
-2926.39
-2802.58
-2397.9
-1991.39
-1805.62
-1854.5
-1956.09
-1942.57
-1867.65
)
;

boundaryField
{
    wall
    {
        type            calculated;
        value           nonuniform List<scalar> 
1200
(
2157.55
1962.19
1767.03
1571.74
1376.45
1181.16
985.903
790.677
595.391
400.381
2157.56
1962.29
1767.11
1571.74
1376.41
1181.06
985.77
790.533
595.222
400.1
2157.77
1962.59
1767.41
1571.92
1376.36
1180.74
985.345
790.092
594.807
399.657
2158.13
1962.89
1767.73
1571.76
1375.87
1180.03
984.544
789.304
594.043
398.872
2161.86
1966.31
1769.86
1570.25
1374.15
1178.67
983.389
788.122
592.784
397.547
2165.64
1969.67
1771.54
1569.73
1371.54
1176.27
980.964
785.813
590.63
395.465
2167.4
1972.34
1770.22
1570.03
1370.06
1173.98
978.234
782.919
587.751
392.641
2173.09
1974.93
1764.36
1560.23
1364.65
1169.18
973.993
778.818
583.718
388.669
2181.05
1974.08
1751.82
1549.89
1355.75
1162.02
968.701
774.269
579.291
384.315
2177.35
1972.08
1761.88
1557.46
1357.75
1161.53
966.51
771.984
576.737
381.65
2163.42
1962.32
1760
1557.98
1358.67
1162.09
966.24
771.171
575.626
380.383
2151.87
1953.05
1754.52
1554.72
1357.02
1160.53
965.333
770.217
574.682
379.521
2145.99
1949.24
1752.02
1554.27
1357.18
1160.69
965.467
770.1
574.682
379.644
2145.1
1949.7
1752.93
1555.94
1359
1162.62
967.174
771.671
576.432
381.41
2145.52
1950.73
1754.22
1557.46
1361.33
1165.7
969.992
774.727
579.589
384.579
2146.55
1952.06
1755.51
1559.42
1363.79
1168.93
972.912
778.018
582.842
387.852
2147.36
1952.86
1756.27
1560.54
1364.84
1169.8
974.318
779.438
584.309
389.392
2146.59
1952.05
1755.62
1559.38
1363.84
1168.14
972.894
777.702
582.748
387.835
2145.74
1951.1
1754.57
1557.96
1361.82
1165.39
969.291
773.526
578.527
383.634
2145.48
1950.29
1753.82
1556.94
1359.71
1162.04
964.672
768.184
573.031
378.197
2147.55
1952.4
1755.87
1558.95
1359.8
1160.18
960.739
763.991
568.786
374.094
2152.7
1957.96
1761.53
1565.87
1364.3
1162.02
961.606
764.7
569.323
374.591
2160.01
1963.54
1768.89
1575.08
1376.08
1173.15
972.885
774.15
577.592
381.985
2173.46
1969.08
1766.05
1571.6
1381.93
1186.62
988.394
787.933
589.957
393.356
2203.87
1999.37
1795.3
1596.87
1402.85
1206.65
1000.23
797.774
597.454
400.246
2177.38
1971.94
1764.31
1563
1367.37
1171.08
981.024
788.918
592.274
395.729
2117.41
1915.73
1715.3
1512.22
1316.47
1127.32
938.213
748.356
557.774
364.813
2093.8
1893.2
1695.9
1496.65
1303.36
1112.2
922.61
731.789
538.8
344.656
2091.16
1893.3
1699.49
1500.68
1305.79
1111.81
919.202
725.726
531.39
336.766
2095.43
1900.79
1708.63
1512.94
1315.74
1119.11
922.325
725.653
529.047
333.285
2088.21
1893.93
1700.21
1504.57
1308.25
1112.14
915.25
718.118
521.001
324.95
2075.27
1880.74
1684.54
1488.57
1292.76
1097.61
902.049
705.726
508.714
312.501
2059.86
1865
1666.28
1469.67
1274.26
1080.06
885.85
690.734
494.306
298.176
2046.63
1850.22
1649.65
1453.3
1257.94
1064.71
871.574
677.585
481.703
285.7
2043.41
1844.86
1645.02
1449.77
1254.51
1060.62
866.78
672.558
476.282
279.925
2054.46
1854.25
1659.37
1463.09
1266.46
1069.23
872.017
675.615
478.258
281.296
2074.6
1874.54
1687.91
1481.06
1279.89
1080.34
880.018
681.077
482.493
284.996
2084.22
1886.16
1708.2
1489.2
1282.14
1081.91
881.614
682.205
483.144
285.168
2059.76
1862.12
1675.6
1465.85
1265.41
1067.4
870.05
671.963
473.824
276.18
2017.24
1819
1622.3
1429.03
1236.3
1043.02
848.141
651.567
454.479
257.402
1987.7
1792.48
1598.54
1413.23
1213.54
1018.16
821.978
625.028
427.76
230.752
1957.15
1760.5
1566.25
1376
1178.33
980.56
784.203
587.712
390.579
193.514
1902.16
1708.08
1516.02
1326.05
1130.86
933.826
738.289
542.178
344.683
147.198
1850.78
1657.89
1460.28
1268.62
1074.88
877.581
681.066
484.492
286.585
89.2377
1805.28
1609.96
1397.11
1198.25
1002.13
804.791
606.584
408.781
210.535
13.7104
1725.12
1534.76
1313.77
1108.83
912.437
713.943
513.052
312.631
112.443
-84.3034
1508.78
1342.09
1162.12
975.405
791.975
594.276
387.565
181.54
-22.2461
-220.165
947.691
841.678
830.422
734.601
593.063
400.15
184.575
-29.6372
-238.075
-436.062
265.894
122.293
296.998
316.229
210.742
27.0584
-188.706
-407.608
-616.494
-807.211
190.972
-115.573
-282.301
-449.193
-633.028
-828.568
-1002.73
-1175.72
-1345
-1508.21
-29.741
-450.188
-1202.68
-1686.26
-1945.84
-2051.9
-2155.39
-2229.01
-2305.98
-2420.05
-897.674
-1296.99
-1932.26
-2231.97
-2517.34
-2719.5
-2768.59
-2781.82
-2824.51
-2928.17
-959.402
-1325.5
-1732.37
-1961.03
-2110.88
-2294.44
-2434.9
-2549.35
-2663.21
-2809.22
-687.106
-940.723
-1143.75
-1367.86
-1579.13
-1783.9
-1959.14
-2108.58
-2242.18
-2405.75
-373.104
-548.091
-647.753
-927.708
-1124.08
-1339.04
-1531.42
-1694.82
-1826.98
-1997.17
-135.531
-280.135
-377.06
-666.768
-845.493
-1071.5
-1282.83
-1477.41
-1644.8
-1807.11
-55.1562
-215.868
-338.513
-626.718
-802.755
-1031.19
-1254.95
-1485.59
-1707.72
-1855.3
-46.7137
-238.712
-346.28
-648.169
-797.472
-1047.23
-1277.28
-1525.5
-1770.52
-1961.38
-141.326
-417.839
-375.308
-646.328
-802.37
-1051.09
-1271.67
-1505.68
-1731
-1947.52
-102.331
-1128.66
-506.113
-703.204
-906.184
-1100.24
-1283.38
-1479.02
-1672.01
-1875.51
2157.6
1962.17
1766.96
1571.71
1376.46
1181.18
985.894
790.632
595.371
400.379
2157.57
1962.29
1767.1
1571.82
1376.49
1181.1
985.774
790.518
595.243
400.151
2157.85
1962.6
1767.4
1572.05
1376.53
1180.87
985.403
790.112
594.817
399.653
2158.22
1963
1767.63
1571.89
1376.08
1180.19
984.602
789.292
593.972
398.762
2162.13
1966.45
1769.26
1570.17
1374.23
1178.81
983.49
788.16
592.79
397.584
2165.82
1969.58
1771.34
1568.98
1371.53
1176.2
980.965
785.845
590.656
395.503
2167.51
1971.77
1770.49
1569.4
1370.23
1173.98
978.312
782.979
587.782
392.641
2172.82
1973.24
1763.64
1560.83
1364.91
1169.41
974.107
778.927
583.873
388.879
2180.6
1972.71
1751.47
1550.43
1356.27
1162.25
968.786
774.364
579.408
384.436
2177.4
1970.87
1760.97
1557.72
1358.36
1161.72
966.609
772.071
576.845
381.725
2163.66
1961.17
1758.78
1558.14
1359.58
1162.33
966.406
771.253
575.751
380.441
2151.77
1951.49
1753.36
1555.04
1357.9
1161
965.621
770.339
574.845
379.585
2145.89
1947.21
1751.09
1554.66
1358.07
1161.26
965.824
770.3
574.898
379.738
2145.01
1947.47
1751.84
1556.32
1360.02
1163.39
967.48
771.899
576.636
381.506
2145.54
1948.64
1753.19
1557.77
1362.47
1166.67
970.059
774.833
579.592
384.535
2146.52
1949.96
1754.68
1559.93
1364.72
1170.07
972.797
777.952
582.645
387.664
2147.21
1950.74
1755.51
1561.37
1365.69
1170.55
974.468
779.135
584
389.091
2146.43
1949.87
1754.66
1560
1365.18
1168.68
973.216
777.282
582.409
387.461
2145.26
1948.71
1753.41
1558.67
1363.4
1166.1
969.645
773.196
578.224
383.22
2144.86
1948.48
1752.8
1557.72
1361.47
1162.83
964.938
767.916
572.713
377.726
2147.12
1950.91
1755.13
1560.08
1361.75
1161.46
961.179
763.973
568.602
373.715
2152.27
1955.97
1760.75
1567.29
1366.03
1163.68
962.265
765.062
569.334
374.409
2159.23
1961.59
1767.68
1576.08
1377.41
1173.88
972.194
773.801
577.232
381.587
2172.93
1968.93
1766.23
1572.28
1383.7
1187.42
988.001
787.424
589.523
392.897
2203.15
2001.19
1796.15
1599.58
1408.14
1209.59
1001.05
797.652
597.29
400.106
2174.78
1971.44
1766
1566.62
1371.62
1176.39
985.025
791.293
592.697
395.652
2114.4
1915
1717.57
1515.25
1319.23
1130.03
940.488
750.306
558.216
365.054
2093.27
1894.82
1698.57
1497.98
1305.21
1113.54
923.332
731.38
538.208
344.097
2091.23
1894.69
1700.45
1503.07
1308
1113.25
919.912
725.644
531.229
336.291
2095.14
1900.62
1707.45
1515.11
1317.94
1120.33
922.803
725.664
529.134
333.09
2088.9
1894.19
1700.39
1506.07
1309.37
1112.64
914.82
717.564
520.778
324.774
2076.13
1880.59
1685.03
1490.31
1294.06
1098.66
902.066
705.511
508.766
312.624
2060.86
1864.46
1666.46
1471.02
1275.53
1081.14
886.02
690.601
494.546
298.668
2047.43
1849.47
1649.24
1453.99
1258.36
1065.7
871.248
677.09
481.661
286.204
2044.31
1844.16
1644.38
1450.43
1255.09
1060.94
865.998
671.283
475.651
280.142
2055.15
1853.17
1658.81
1463.92
1267.3
1069.37
871.723
674.474
477.744
281.477
2075.02
1873.45
1687.11
1481.68
1279.92
1080.09
879.368
680.278
482.275
285.407
2084.01
1884.93
1708.01
1490.4
1282.02
1081.62
880.696
681.155
482.602
285.459
2058.63
1860.48
1676.25
1467.51
1265.57
1066.86
869.148
670.922
473.187
276.407
2015.84
1817.53
1623.14
1430.24
1237.87
1042.46
847.528
650.677
453.946
257.812
1986.98
1791.43
1599.19
1414.36
1215.34
1017.91
821.36
624.06
427.179
231.199
1957
1759.52
1566.05
1375.57
1178.9
980.513
783.714
586.757
389.938
193.96
1902.74
1707.25
1515.91
1325.41
1131.97
934.491
738.389
541.509
344.043
147.563
1851.77
1657.64
1461.66
1268.13
1076.54
878.38
681.408
484.253
286.464
89.9654
1807.75
1610.32
1399.1
1196.72
1002.43
804.607
606.508
409.255
211.421
15.0832
1726.4
1533.28
1316.01
1107.71
912.213
713.571
513.069
313.824
114.717
-82.3034
1512.02
1340.99
1161.48
977.33
792.7
593.62
386.917
181.92
-21.0989
-218.494
950.445
846.112
823.904
738.451
596.355
401.159
183.545
-30.5721
-238.695
-435.082
262.19
126.858
297.287
325.991
221.273
33.7496
-186.579
-407.946
-616.859
-806.673
185.043
-111.762
-261.44
-435.415
-630.205
-822.436
-1002.29
-1178.77
-1347.27
-1511.67
-20.9334
-429.329
-1173.81
-1680.33
-1940.2
-2053.47
-2155.68
-2231.27
-2306.67
-2423.28
-894.538
-1285.89
-1907.17
-2235.78
-2509.37
-2707.64
-2756.44
-2776.77
-2820.04
-2925.8
-970.303
-1322.47
-1733.1
-1951.59
-2099.78
-2284.5
-2424.41
-2542.11
-2657.43
-2800.46
-694.732
-933.767
-1161.39
-1374.49
-1569.68
-1782.93
-1955.93
-2106.28
-2241.87
-2395.45
-385.31
-543.168
-656.452
-934.863
-1115.35
-1342.11
-1533.23
-1698.16
-1832.99
-1989.77
-153.352
-277.997
-385.107
-671.361
-837.379
-1077.71
-1286.81
-1484.32
-1653.54
-1805.57
-71.3062
-215.32
-348.656
-626.874
-803.711
-1034.86
-1256.28
-1488.72
-1711.18
-1854.26
-69.3348
-238.699
-349.244
-646.525
-799.434
-1047.98
-1274.78
-1523.11
-1766.04
-1954.08
-163.375
-414.611
-384.785
-638.773
-804.211
-1047.84
-1268.53
-1502.76
-1728.27
-1940.87
-188.092
-1118.51
-633.418
-708.37
-899.498
-1096.87
-1284.03
-1484.32
-1674.52
-1864.94
)
;
    }
    inlet
    {
        type            calculated;
        value           nonuniform List<scalar> 
20
(
2157.56
1962.18
1767.01
1571.73
1376.45
1181.17
985.9
790.666
595.386
400.38
2157.59
1962.17
1766.98
1571.72
1376.46
1181.18
985.896
790.643
595.376
400.379
)
;
    }
    outlet
    {
        type            calculated;
        value           nonuniform List<scalar> 
20
(
-97.6792
-293.037
-488.396
-684.142
-880.127
-1075.81
-1271.39
-1466.83
-1662.16
-1856.29
-97.6792
-293.037
-488.396
-683.754
-880.022
-1075.81
-1271.43
-1466.87
-1662.21
-1856.26
)
;
    }
    heatWall
    {
        type            calculated;
        value           nonuniform List<scalar> 
240
(
302.794
302.793
302.526
302.551
302.07
302.067
301.257
301.203
299.969
299.988
297.887
297.906
295.051
295.053
291.129
291.236
286.751
286.812
284.073
284.111
282.801
282.83
281.941
281.972
282.071
282.118
283.837
283.885
286.97
286.948
290.204
290.111
291.712
291.564
290.13
289.947
285.911
285.709
280.452
280.223
276.368
276.183
276.916
276.825
284.258
284.053
295.616
295.373
302.578
302.499
298.043
298.008
267.196
267.315
246.833
246.551
238.959
238.719
235.544
235.441
227.209
227.112
214.83
214.88
200.592
200.824
188.114
188.353
182.265
182.36
183.624
183.701
187.379
187.57
187.519
187.648
178.512
178.605
159.773
159.95
133.118
133.309
95.8651
96.05
49.5043
49.6582
-8.39254
-8.04431
-83.7783
-83.0993
-181.65
-180.646
-317.597
-316.757
-533.669
-533.166
-904.971
-904.59
-1606.94
-1608.61
-2518.67
-2520.33
-3025.41
-3024.23
-2904.91
-2900.42
-2501.08
-2495.73
-2093.15
-2089.17
-1904.43
-1903.35
-1952.67
-1952.21
-2057.05
-2053.8
-2043.54
-2040.28
-1970.49
-1965.35
2255.15
2255.17
2255.15
2255.15
2255.38
2255.41
2255.74
2255.78
2259.53
2259.65
2263.29
2263.39
2265.05
2265.12
2270.7
2270.53
2278.7
2278.32
2275.12
2275.04
2261.21
2261.31
2249.58
2249.53
2243.73
2243.67
2242.87
2242.82
2243.34
2243.35
2244.39
2244.37
2245.19
2245.11
2244.43
2244.35
2243.5
2243.26
2243.21
2242.9
2245.32
2245.11
2250.48
2250.26
2257.71
2257.3
2271.2
2270.96
2301.58
2301.17
2274.55
2273.22
2214.42
2212.98
2191.45
2191.2
2188.97
2189.01
2193.15
2193.01
2186.17
2186.52
2173.28
2173.71
2157.9
2158.4
2144.62
2145.02
2141.43
2141.87
2152.43
2152.75
2172.5
2172.67
2181.96
2181.79
2157.25
2156.64
2114.63
2113.93
2085.25
2084.89
2054.85
2054.74
2000.02
2000.33
1948.74
1949.24
1903.58
1904.86
1823.13
1823.77
1607.28
1608.92
1046.08
1047.45
362.627
360.852
287.394
284.036
70.6266
74.0162
-799.704
-797.3
-864.125
-870.361
-590.933
-595.64
-278.046
-285.112
-41.6305
-52.0099
39.1616
29.6115
45.8948
33.2692
-48.6745
-60.8693
-25.2494
-69.8374
)
;
    }
}


// ************************************************************************* //
