/*--------------------------------*- C++ -*----------------------------------*\
  =========                 |
  \\      /  F ield         | OpenFOAM: The Open Source CFD Toolbox
   \\    /   O peration     | Website:  https://openfoam.org
    \\  /    A nd           | Version:  8
     \\/     M anipulation  |
\*---------------------------------------------------------------------------*/
FoamFile
{
    version     2.0;
    format      ascii;
    class       volScalarField;
    location    "300";
    object      k;
}
// * * * * * * * * * * * * * * * * * * * * * * * * * * * * * * * * * * * * * //

dimensions      [0 2 -2 0 0 0 0];

internalField   nonuniform List<scalar> 
8400
(
0.107828
0.104181
0.100627
0.0971707
0.0938088
0.0905519
0.0874102
0.0843845
0.0814727
0.0786725
0.0759811
0.0733958
0.0709133
0.0685306
0.0662443
0.064051
0.0619472
0.0599294
0.057994
0.0561373
0.0543558
0.0526459
0.0510042
0.0494273
0.0479116
0.0464542
0.0450517
0.0437013
0.0424
0.041145
0.039941
0.0387888
0.0376889
0.0366399
0.0356394
0.0346843
0.0337711
0.0328959
0.032055
0.0312447
0.0304615
0.0297024
0.0289649
0.028247
0.0275473
0.0268654
0.0262016
0.0255576
0.0249361
0.0243413
0.0121943
0.0119671
0.0117561
0.0115592
0.011375
0.0111867
0.0109826
0.0107599
0.0105182
0.0102578
0.00997984
0.00968561
0.00937702
0.00905634
0.00872624
0.00838977
0.0080503
0.00771147
0.00737714
0.0070513
0.00673793
0.00644089
0.00616377
0.00590977
0.00568165
0.00548159
0.00531116
0.00517124
0.00506207
0.00498379
0.004928
0.00489032
0.00486593
0.00485192
0.00484566
0.00484529
0.00484931
0.00485662
0.00486636
0.00487789
0.0048907
0.00490441
0.00491868
0.00493328
0.004948
0.00496268
0.00497725
0.00499173
0.00500626
0.00502117
0.00481838
0.00477537
0.004736
0.00469998
0.00466687
0.00463617
0.00460366
0.00456833
0.0045298
0.00448804
0.00444323
0.0043957
0.00434592
0.00429449
0.00424214
0.00418968
0.004138
0.00408798
0.00404054
0.00399649
0.00395656
0.00392131
0.00389112
0.00386617
0.00384646
0.00383181
0.0038219
0.00381628
0.0038149
0.00381684
0.00382156
0.00382848
0.00383716
0.0038472
0.00385828
0.0038701
0.0038824
0.00389494
0.00390751
0.00391994
0.00393207
0.00394378
0.00395498
0.0039656
0.00397561
0.00398503
0.0039939
0.00400237
0.00401063
0.00401899
0.00342835
0.00342083
0.00341485
0.00340999
0.00340594
0.00340243
0.00339873
0.0033942
0.00338868
0.00338208
0.00337443
0.00336577
0.00335621
0.00334589
0.00333498
0.00332369
0.00331223
0.00330085
0.00328979
0.00327929
0.00326958
0.00326083
0.00325319
0.0032468
0.00324173
0.00323805
0.00323595
0.00323591
0.00323766
0.00324117
0.00324622
0.00325266
0.00326029
0.00326889
0.00327827
0.00328822
0.00329855
0.00330906
0.0033196
0.00333002
0.0033402
0.00335003
0.00335945
0.0033684
0.00337688
0.00338489
0.00339252
0.00339987
0.00340711
0.00341449
0.00290933
0.00291149
0.00291395
0.0029165
0.00291893
0.00292106
0.00292274
0.00292338
0.00292296
0.00292145
0.00291881
0.00291502
0.00291012
0.00290412
0.0028971
0.00288914
0.00288038
0.00287097
0.00286111
0.00285104
0.00284098
0.00283121
0.00282197
0.00281353
0.00280624
0.00280093
0.00279786
0.00279689
0.00279792
0.00280079
0.00280528
0.00281119
0.00281828
0.00282633
0.00283511
0.00284442
0.00285406
0.00286388
0.00287372
0.00288346
0.002893
0.00290225
0.00291116
0.00291969
0.00292783
0.00293561
0.00294309
0.00295035
0.00295752
0.00296478
0.00258746
0.00259277
0.00259803
0.00260287
0.00260705
0.00261039
0.00261279
0.00261386
0.00261349
0.00261172
0.00260854
0.00260391
0.00259787
0.00259045
0.00258171
0.00257179
0.00256084
0.00254911
0.00253687
0.00252444
0.00251217
0.00250042
0.00248967
0.00248097
0.00247484
0.00247115
0.0024699
0.00247093
0.00247403
0.00247895
0.00248543
0.0024932
0.00250199
0.00251157
0.0025217
0.00253218
0.00254285
0.00255356
0.00256419
0.00257463
0.00258479
0.00259463
0.0026041
0.00261319
0.00262189
0.00263023
0.00263825
0.00264601
0.00265361
0.00266118
0.00234181
0.00234932
0.0023562
0.00236209
0.00236675
0.00237004
0.00237186
0.00237215
0.00237039
0.00236679
0.00236139
0.0023542
0.00234526
0.00233464
0.00232245
0.0023089
0.00229426
0.00227889
0.0022632
0.00224768
0.00223324
0.00222108
0.00221203
0.00220599
0.00220307
0.00220308
0.0022058
0.00221095
0.00221822
0.00222726
0.00223777
0.00224941
0.00226188
0.00227492
0.00228827
0.00230175
0.00231518
0.00232843
0.00234137
0.00235389
0.00236593
0.00237746
0.00238846
0.00239891
0.00240881
0.0024182
0.00242713
0.00243568
0.00244391
0.00245195
0.00212274
0.00212916
0.00213578
0.00214162
0.00214608
0.00214878
0.00214953
0.00214824
0.0021448
0.00213864
0.00213019
0.0021196
0.002107
0.00209259
0.00207665
0.00205962
0.00204206
0.0020247
0.00200884
0.00199555
0.00198535
0.0019782
0.00197415
0.00197303
0.00197466
0.00197879
0.00198521
0.00199366
0.00200393
0.00201581
0.00202905
0.00204342
0.00205868
0.00207458
0.00209091
0.00210743
0.00212395
0.00214024
0.00215612
0.00217143
0.00218606
0.00219993
0.00221298
0.00222517
0.00223649
0.00224699
0.00225673
0.00226578
0.00227425
0.00228227
0.00196853
0.00195384
0.00194479
0.00194008
0.00193792
0.00193682
0.00193568
0.00193385
0.00193098
0.00192687
0.00192097
0.00191359
0.00190529
0.00189672
0.0018886
0.00188163
0.00187644
0.00187341
0.00187193
0.0018718
0.00187265
0.00187418
0.00187617
0.00187844
0.00188089
0.00188345
0.00188612
0.00188899
0.00189216
0.00189579
0.00190003
0.00190502
0.00191091
0.00191779
0.00192573
0.00193472
0.00194465
0.00195537
0.00196667
0.00197832
0.00199009
0.00200174
0.00201301
0.0020237
0.00203367
0.00204286
0.00205121
0.00205871
0.00206547
0.00207155
0.00214915
0.00206747
0.00199925
0.00194689
0.00190882
0.00188326
0.00186859
0.00186324
0.00186566
0.00187434
0.0018878
0.00190461
0.00192343
0.00194331
0.00196355
0.00198356
0.00200285
0.00202098
0.00203755
0.00205237
0.00206531
0.00207626
0.00208507
0.00209152
0.00209538
0.00209645
0.00209468
0.00209009
0.00208283
0.00207308
0.00206112
0.00204728
0.00203201
0.00201574
0.00199891
0.00198192
0.00196515
0.00194893
0.00193353
0.00191916
0.00190595
0.00189394
0.00188309
0.00187337
0.00186484
0.00185753
0.00185153
0.00184701
0.0018442
0.00184322
0.00278528
0.00271033
0.00264251
0.00257961
0.00252131
0.00246776
0.00241968
0.00237801
0.00234376
0.00231787
0.00230097
0.00229332
0.0022941
0.00230213
0.00231586
0.00233358
0.00235359
0.00237413
0.00239388
0.00241198
0.00242799
0.00244165
0.0024527
0.00246097
0.00246652
0.00246958
0.00247046
0.00246946
0.00246666
0.00246201
0.0024555
0.00244729
0.0024376
0.00242643
0.00241364
0.00239911
0.00238286
0.002365
0.00234561
0.00232443
0.00230119
0.00227549
0.00224708
0.00221566
0.00218079
0.00214253
0.00210143
0.00205918
0.00201869
0.00198379
0.00298353
0.00296467
0.00294744
0.00293118
0.00291537
0.00289968
0.00288409
0.00286855
0.00285295
0.00283728
0.00282168
0.00280638
0.00279144
0.00277692
0.00276295
0.00274969
0.00273733
0.00272578
0.00271494
0.00270492
0.00269584
0.0026878
0.00268081
0.00267469
0.00266918
0.00266412
0.00265952
0.00265545
0.00265182
0.00264828
0.00264453
0.00264056
0.00263662
0.00263279
0.00262876
0.00262425
0.0026192
0.00261372
0.00260789
0.00260175
0.00259528
0.00258834
0.00258079
0.00257276
0.00256404
0.00255409
0.00254255
0.00252852
0.00251088
0.00248858
0.00299305
0.00298543
0.00297792
0.00297046
0.00296301
0.00295557
0.00294814
0.00294069
0.00293321
0.00292568
0.00291814
0.00291063
0.00290314
0.00289571
0.00288837
0.00288109
0.00287391
0.00286683
0.00285985
0.00285301
0.00284633
0.00283982
0.00283348
0.00282728
0.00282118
0.0028152
0.00280937
0.0028037
0.00279812
0.00279256
0.00278701
0.00278152
0.00277611
0.00277076
0.00276537
0.0027599
0.00275436
0.00274881
0.0027432
0.00273748
0.00273162
0.00272562
0.00271943
0.00271302
0.0027063
0.00269911
0.00269129
0.00268272
0.00267325
0.00266344
0.00299564
0.00299105
0.00298647
0.00298189
0.00297728
0.00297267
0.00296804
0.00296339
0.00295871
0.002954
0.00294927
0.00294454
0.00293982
0.0029351
0.00293039
0.00292569
0.002921
0.00291633
0.00291169
0.00290708
0.00290251
0.00289797
0.00289345
0.00288894
0.00288446
0.00288001
0.00287561
0.00287123
0.00286687
0.0028625
0.00285814
0.0028538
0.00284946
0.0028451
0.00284071
0.00283628
0.00283184
0.00282738
0.00282288
0.00281831
0.00281366
0.00280894
0.00280411
0.00279917
0.00279406
0.00278874
0.00278318
0.00277745
0.00277167
0.00276541
0.00299698
0.00299381
0.00299061
0.00298739
0.00298414
0.00298088
0.00297759
0.00297429
0.00297095
0.0029676
0.00296423
0.00296084
0.00295745
0.00295404
0.00295062
0.00294719
0.00294375
0.00294032
0.00293689
0.00293346
0.00293004
0.00292662
0.00292319
0.00291977
0.00291635
0.00291294
0.00290954
0.00290614
0.00290274
0.00289933
0.00289592
0.00289251
0.00288908
0.00288562
0.00288214
0.00287865
0.00287515
0.00287163
0.00286806
0.00286444
0.00286078
0.00285706
0.00285328
0.00284942
0.00284546
0.00284145
0.00283741
0.00283328
0.00282892
0.00282427
0.0029975
0.00299494
0.00299236
0.00298977
0.00298717
0.00298456
0.00298194
0.0029793
0.00297665
0.00297398
0.0029713
0.00296861
0.00296591
0.00296322
0.00296052
0.00295783
0.00295514
0.00295246
0.00294978
0.00294712
0.00294445
0.00294179
0.00293913
0.00293648
0.00293384
0.0029312
0.00292856
0.00292591
0.00292327
0.00292062
0.00291796
0.00291529
0.0029126
0.00290989
0.00290718
0.00290444
0.00290169
0.0028989
0.00289608
0.00289322
0.00289033
0.00288738
0.0028844
0.0028814
0.00287838
0.00287532
0.00287216
0.00286891
0.00286552
0.00286198
0.00299819
0.00299634
0.00299447
0.00299258
0.00299068
0.00298878
0.00298687
0.00298495
0.00298303
0.00298109
0.00297915
0.00297719
0.00297523
0.00297326
0.00297128
0.00296929
0.00296729
0.0029653
0.00296329
0.00296127
0.00295925
0.00295722
0.00295519
0.00295315
0.0029511
0.00294905
0.00294699
0.00294492
0.00294285
0.00294077
0.00293868
0.00293658
0.00293447
0.00293235
0.00293023
0.0029281
0.00292596
0.00292381
0.00292165
0.00291949
0.00291731
0.00291512
0.00291291
0.00291066
0.00290838
0.00290606
0.00290367
0.00290121
0.00289865
0.00289598
0.00299815
0.00299626
0.00299437
0.00299246
0.00299053
0.00298861
0.00298668
0.00298475
0.00298281
0.00298086
0.0029789
0.00297694
0.00297497
0.00297299
0.00297101
0.00296903
0.00296704
0.00296505
0.00296305
0.00296105
0.00295905
0.00295706
0.00295506
0.00295306
0.00295106
0.00294905
0.00294703
0.00294501
0.00294298
0.00294094
0.0029389
0.00293685
0.0029348
0.00293274
0.00293068
0.00292862
0.00292655
0.00292448
0.0029224
0.00292032
0.00291823
0.00291613
0.00291403
0.00291194
0.00290984
0.00290773
0.00290562
0.0029035
0.00290137
0.00289922
0.00299885
0.00299785
0.0029967
0.00299555
0.00299439
0.00299324
0.00299208
0.00299091
0.00298974
0.00298856
0.00298739
0.00298622
0.00298505
0.00298388
0.00298272
0.00298157
0.00298043
0.00297929
0.00297817
0.00297704
0.00297593
0.00297482
0.00297372
0.00297262
0.00297153
0.00297045
0.00296937
0.0029683
0.00296724
0.00296619
0.00296515
0.00296411
0.00296307
0.00296203
0.002961
0.00295996
0.00295893
0.00295789
0.00295685
0.00295581
0.00295476
0.0029537
0.00295263
0.00295155
0.00295045
0.00294933
0.00294817
0.00294696
0.00294569
0.00294433
0.00307547
0.003156
0.00323822
0.00332088
0.0034032
0.00348476
0.00356561
0.00364622
0.00372725
0.00380943
0.00389339
0.00397968
0.00406868
0.0041607
0.00425589
0.00435431
0.00445594
0.0045607
0.00466846
0.00477904
0.00489224
0.00500783
0.00512562
0.00524537
0.00536692
0.0054901
0.00561477
0.00574078
0.00586801
0.0059963
0.00612549
0.0062554
0.00638586
0.00651672
0.00664777
0.00677881
0.00690957
0.00703974
0.007169
0.00729697
0.00742323
0.00754723
0.0076683
0.00778563
0.00789821
0.00800479
0.00810385
0.00819351
0.00827158
0.00833711
0.0589323
0.0574894
0.0561244
0.0548307
0.0535996
0.0524227
0.0512918
0.0502035
0.0491549
0.0481439
0.0471685
0.0462271
0.0453184
0.0444414
0.0435949
0.0427782
0.0419901
0.0412294
0.040495
0.0397855
0.0390996
0.038436
0.0377934
0.0371708
0.0365675
0.0359827
0.0354158
0.0348662
0.0343336
0.0338174
0.0333171
0.0328323
0.0323625
0.031907
0.0314654
0.0310369
0.0306211
0.0302175
0.0298257
0.0294435
0.0290698
0.0287041
0.0283458
0.027994
0.0276482
0.0273071
0.0269689
0.0266307
0.0262865
0.025925
0.0580911
0.0554618
0.053009
0.0507144
0.0485678
0.0465587
0.0446784
0.0429155
0.0412597
0.0397025
0.038236
0.0368537
0.0355497
0.0343186
0.0331556
0.032056
0.0310154
0.0300294
0.0290939
0.0282049
0.0273591
0.026553
0.0257841
0.02505
0.0243485
0.023678
0.0230367
0.0224232
0.0218359
0.0212734
0.0207344
0.0202175
0.0197213
0.0192444
0.0187853
0.0183426
0.0179152
0.0175021
0.017102
0.016716
0.0163439
0.0159849
0.0156386
0.0153043
0.0149816
0.0146698
0.0143685
0.014077
0.0137953
0.0135222
0.0580875
0.0554501
0.0529811
0.0506717
0.0485094
0.0464826
0.0445802
0.0427917
0.0411079
0.0395207
0.038023
0.0366083
0.035271
0.0340061
0.0328087
0.0316744
0.030599
0.0295783
0.0286085
0.0276859
0.0268072
0.0259693
0.0251697
0.0244061
0.0236764
0.0229787
0.0223114
0.0216729
0.0210617
0.0204765
0.0199158
0.0193783
0.0188627
0.0183677
0.0178923
0.0174352
0.0169956
0.0165726
0.0161652
0.0157728
0.0153948
0.0150304
0.0146794
0.0143411
0.0140153
0.0137013
0.0133984
0.013106
0.0128237
0.0125527
0.0580878
0.0554698
0.0530226
0.050733
0.0485873
0.0465734
0.0446804
0.0428984
0.0412188
0.039634
0.0381371
0.0367222
0.0353838
0.0341168
0.0329167
0.0317791
0.0306997
0.0296746
0.0287
0.0277724
0.0268885
0.0260455
0.0252409
0.0244723
0.0237379
0.0230356
0.022364
0.0217212
0.021106
0.0205168
0.0199522
0.0194109
0.0188916
0.0183931
0.0179142
0.0174538
0.0170109
0.0165846
0.0161742
0.0157789
0.0153981
0.0150311
0.0146774
0.0143366
0.0140083
0.0136924
0.0133882
0.0130949
0.0128113
0.0125377
0.0580881
0.0554712
0.0530231
0.0507304
0.0485806
0.0465623
0.0446651
0.0428798
0.0411979
0.0396118
0.0381146
0.0367001
0.0353627
0.0340971
0.0328985
0.0317624
0.0306845
0.0296608
0.0286874
0.0277609
0.0268782
0.0260364
0.025233
0.0244658
0.0237328
0.023032
0.0223618
0.0217206
0.0211067
0.0205187
0.0199552
0.0194149
0.0188965
0.0183987
0.0179203
0.0174604
0.017018
0.0165921
0.0161821
0.0157872
0.0154066
0.0150398
0.0146863
0.0143455
0.0140169
0.0137002
0.0133952
0.0131014
0.0128177
0.0125436
0.0580884
0.0554734
0.0530283
0.0507387
0.0485924
0.0465776
0.044684
0.0429022
0.0412237
0.0396409
0.0381468
0.0367351
0.0354001
0.0341364
0.0329391
0.0318037
0.030726
0.0297019
0.0287279
0.0278006
0.0269169
0.0260741
0.0252697
0.0245017
0.0237678
0.0230664
0.0223955
0.0217535
0.0211388
0.02055
0.0199856
0.0194443
0.0189248
0.0184259
0.0179464
0.0174854
0.0170418
0.0166149
0.0162038
0.0158078
0.0154261
0.0150583
0.0147037
0.0143618
0.0140322
0.0137143
0.0134076
0.0131121
0.0128267
0.012551
0.0580886
0.0554744
0.0530296
0.0507399
0.0485927
0.0465768
0.0446818
0.0428987
0.0412192
0.0396357
0.0381412
0.0367293
0.0353941
0.0341303
0.0329328
0.0317971
0.0307188
0.0296942
0.0287195
0.0277916
0.0269074
0.0260644
0.0252601
0.0244922
0.0237587
0.0230577
0.0223873
0.0217458
0.0211316
0.0205432
0.0199792
0.0194382
0.0189189
0.0184202
0.0179409
0.0174801
0.0170367
0.01661
0.016199
0.0158032
0.0154217
0.0150538
0.0146992
0.0143572
0.0140275
0.0137094
0.0134025
0.0131064
0.0128205
0.0125441
0.0580888
0.055475
0.0530304
0.0507408
0.0485936
0.0465778
0.0446833
0.042901
0.0412228
0.0396408
0.038148
0.0367379
0.0354044
0.034142
0.0329456
0.0318105
0.0307325
0.0297079
0.0287331
0.0278049
0.0269206
0.0260775
0.0252732
0.0245054
0.023772
0.023071
0.0224005
0.0217589
0.0211446
0.0205559
0.0199915
0.0194501
0.0189303
0.0184311
0.0179512
0.0174898
0.0170458
0.0166185
0.016207
0.0158106
0.0154284
0.0150599
0.0147044
0.0143615
0.0140308
0.0137117
0.0134038
0.0131065
0.0128193
0.0125416
0.058089
0.0554752
0.0530306
0.0507406
0.048593
0.0465767
0.0446819
0.0428996
0.0412214
0.0396398
0.0381475
0.0367378
0.0354046
0.0341422
0.0329456
0.03181
0.0307314
0.029706
0.0287305
0.0278017
0.026917
0.0260736
0.0252691
0.0245013
0.023768
0.0230671
0.0223967
0.0217551
0.0211407
0.020552
0.0199876
0.019446
0.0189262
0.0184268
0.0179469
0.0174853
0.0170413
0.0166139
0.0162023
0.0158057
0.0154234
0.0150547
0.014699
0.0143558
0.0140246
0.013705
0.0133965
0.0130986
0.0128108
0.0125324
0.0580891
0.0554753
0.0530304
0.0507401
0.0485921
0.0465755
0.0446807
0.0428986
0.041221
0.0396401
0.0381487
0.0367399
0.0354074
0.0341455
0.0329491
0.0318135
0.0307347
0.0297091
0.0287333
0.0278045
0.0269197
0.0260764
0.0252721
0.0245045
0.0237713
0.0230705
0.0224001
0.0217585
0.021144
0.0205551
0.0199905
0.0194487
0.0189286
0.0184289
0.0179487
0.0174869
0.0170426
0.0166148
0.0162029
0.0158059
0.0154232
0.015054
0.0146978
0.014354
0.0140222
0.0137019
0.0133925
0.0130937
0.0128049
0.0125255
0.0580891
0.0554752
0.0530299
0.0507392
0.0485908
0.0465741
0.0446792
0.0428973
0.0412201
0.0396398
0.0381489
0.0367406
0.0354084
0.0341467
0.0329501
0.0318143
0.0307351
0.0297091
0.0287331
0.027804
0.0269192
0.026076
0.0252718
0.0245043
0.0237712
0.0230705
0.0224001
0.0217583
0.0211436
0.0205545
0.0199896
0.0194477
0.0189273
0.0184275
0.0179471
0.017485
0.0170405
0.0166125
0.0162003
0.015803
0.0154199
0.0150504
0.0146938
0.0143495
0.0140172
0.0136962
0.0133862
0.0130866
0.0127969
0.0125166
0.0580891
0.0554748
0.0530292
0.050738
0.0485893
0.0465723
0.0446774
0.0428957
0.0412187
0.0396387
0.0381481
0.0367399
0.0354076
0.0341456
0.0329486
0.0318123
0.0307326
0.0297061
0.0287297
0.0278005
0.0269157
0.0260725
0.0252685
0.024501
0.0237679
0.0230671
0.0223966
0.0217546
0.0211398
0.0205505
0.0199854
0.0194433
0.0189229
0.018423
0.0179425
0.0174803
0.0170356
0.0166075
0.0161951
0.0157976
0.0154144
0.0150446
0.0146878
0.0143433
0.0140106
0.0136891
0.0133785
0.0130783
0.0127879
0.0125068
0.058089
0.0554742
0.0530281
0.0507365
0.0485875
0.0465705
0.0446758
0.0428945
0.0412182
0.0396388
0.0381488
0.0367411
0.0354092
0.0341474
0.0329505
0.0318141
0.0307345
0.0297081
0.028732
0.0278031
0.0269186
0.0260758
0.025272
0.0245048
0.0237717
0.0230708
0.0224
0.0217578
0.0211427
0.0205531
0.0199878
0.0194454
0.0189247
0.0184245
0.0179437
0.0174812
0.0170361
0.0166075
0.0161946
0.0157967
0.015413
0.0150428
0.0146854
0.0143404
0.014007
0.0136848
0.0133734
0.0130721
0.0127807
0.0124985
0.0580889
0.0554733
0.0530264
0.050734
0.0485844
0.0465668
0.0446716
0.0428897
0.0412128
0.0396327
0.0381419
0.0367333
0.0354003
0.0341374
0.0329394
0.0318021
0.0307217
0.0296949
0.0287184
0.0277895
0.026905
0.0260624
0.0252587
0.0244915
0.0237584
0.0230574
0.0223866
0.0217444
0.0211292
0.0205397
0.0199745
0.0194323
0.0189119
0.0184119
0.0179312
0.0174688
0.0170238
0.0165953
0.0161824
0.0157846
0.015401
0.0150309
0.0146737
0.0143287
0.0139953
0.013673
0.0133612
0.0130596
0.0127676
0.0124848
0.0580886
0.0554722
0.0530243
0.0507316
0.0485822
0.0465655
0.0446714
0.042891
0.0412155
0.0396368
0.0381472
0.0367394
0.0354072
0.0341447
0.032947
0.0318099
0.0307298
0.0297032
0.0287271
0.0277984
0.0269142
0.0260716
0.0252679
0.0245004
0.0237669
0.0230653
0.0223939
0.021751
0.0211352
0.0205451
0.0199794
0.0194367
0.0189156
0.0184151
0.0179338
0.0174707
0.0170249
0.0165956
0.0161821
0.0157835
0.0153993
0.0150287
0.0146709
0.0143252
0.013991
0.0136678
0.013355
0.0130522
0.012759
0.0124749
0.0580884
0.0554698
0.0530188
0.0507225
0.0485693
0.0465486
0.0446508
0.0428669
0.0411882
0.0396066
0.0381143
0.0367043
0.0353701
0.0341061
0.0329073
0.0317696
0.0306893
0.0296629
0.0286873
0.0277593
0.0268759
0.0260341
0.0252311
0.0244644
0.0237315
0.0230306
0.0223598
0.0217176
0.0211026
0.0205134
0.0199486
0.0194068
0.0188866
0.0183868
0.0179061
0.0174436
0.0169984
0.0165697
0.0161567
0.0157589
0.0153753
0.0150053
0.0146481
0.0143029
0.0139691
0.0136461
0.0133334
0.0130306
0.0127373
0.0124531
0.0580881
0.0554685
0.0530183
0.0507249
0.0485756
0.046559
0.0446651
0.0428843
0.0412079
0.0396276
0.0381359
0.0367258
0.0353909
0.0341258
0.0329259
0.0317869
0.0307052
0.0296776
0.0287007
0.0277714
0.0268867
0.0260434
0.0252388
0.0244703
0.0237358
0.0230332
0.0223609
0.0217173
0.021101
0.0205107
0.0199448
0.0194019
0.0188808
0.0183799
0.0178983
0.0174348
0.0169887
0.0165593
0.0161458
0.0157475
0.0153636
0.0149934
0.014636
0.0142907
0.0139568
0.0136338
0.0133213
0.0130188
0.0127262
0.0124432
0.0580877
0.0554489
0.0529769
0.0506638
0.0484976
0.0464679
0.0445642
0.0427767
0.041096
0.0395133
0.0380208
0.036611
0.0352776
0.0340149
0.0328181
0.0316829
0.0306056
0.0295826
0.0286107
0.0276864
0.0268067
0.0259683
0.0251686
0.0244049
0.0236752
0.0229773
0.0223098
0.0216711
0.0210597
0.0204742
0.0199131
0.019375
0.0188585
0.0183623
0.0178853
0.0174266
0.0169853
0.0165609
0.0161527
0.0157599
0.0153818
0.0150177
0.0146669
0.0143287
0.0140026
0.0136883
0.0133857
0.0130948
0.0128161
0.0125504
0.0580912
0.0554607
0.0530051
0.0507066
0.0485558
0.0465433
0.0446613
0.042899
0.0412462
0.0396938
0.0382332
0.0368567
0.0355574
0.0343295
0.0331677
0.0320677
0.0310254
0.0300373
0.0290997
0.0282093
0.0273628
0.026557
0.0257891
0.0250565
0.0243569
0.0236885
0.0230497
0.022439
0.0218549
0.0212962
0.0207614
0.020249
0.0197578
0.0192864
0.0188339
0.0183994
0.0179823
0.0175822
0.0171986
0.016831
0.016479
0.016142
0.0158196
0.0155115
0.0152176
0.0149384
0.0146746
0.0144282
0.0142025
0.0140044
0.058932
0.057489
0.0561232
0.0548278
0.0535948
0.0524162
0.0512842
0.0501956
0.0491478
0.0481383
0.0471649
0.0462257
0.045319
0.0444436
0.0435982
0.0427819
0.0419936
0.0412323
0.0404967
0.0397856
0.0390977
0.0384319
0.037787
0.0371623
0.0365569
0.0359703
0.0354019
0.034851
0.034317
0.0337991
0.0332966
0.0328085
0.0323342
0.0318731
0.0314245
0.0309883
0.030564
0.0301512
0.0297494
0.0293581
0.0289766
0.0286042
0.0282402
0.027884
0.0275351
0.0271928
0.0268568
0.0265264
0.0262006
0.0258783
0.0112237
0.00286557
0.00183907
0.00171513
0.00165603
0.0016096
0.00156113
0.0015163
0.00147262
0.0014324
0.00139755
0.00137543
0.00138289
0.00145613
0.00166202
0.00210699
0.00293217
0.00429614
0.00639536
0.0103194
0.0114216
0.00293262
0.00186031
0.00173252
0.00167317
0.00162811
0.00158022
0.00153629
0.00149294
0.00145252
0.00141509
0.00138449
0.00136955
0.00139234
0.00150027
0.00178197
0.00238205
0.00349343
0.00527763
0.00783596
0.0116135
0.00299868
0.00188154
0.00174982
0.00169003
0.0016463
0.00159885
0.00155581
0.00151285
0.00147269
0.00143442
0.0014003
0.00137463
0.00137042
0.0014205
0.00159616
0.00204281
0.00301684
0.00488616
0.00824537
0.0117988
0.00306323
0.00190266
0.00176705
0.00170667
0.00166422
0.00161702
0.00157487
0.00153222
0.00149248
0.00145404
0.00141846
0.00138781
0.0013693
0.00138549
0.00149034
0.00181792
0.00265199
0.00452037
0.00850305
0.011976
0.00312578
0.00192365
0.0017842
0.00172306
0.00168192
0.00163483
0.00159347
0.00155105
0.00151164
0.00147321
0.001437
0.00140414
0.00137806
0.00137474
0.00143315
0.00167246
0.0023796
0.00420404
0.00868575
0.0121443
0.00318606
0.00194446
0.00180134
0.00173922
0.00169933
0.00165223
0.00161158
0.00156927
0.00153016
0.00149176
0.00145524
0.00142142
0.00139115
0.00137675
0.00140461
0.00157963
0.0021777
0.00393802
0.0088242
0.0123034
0.00324383
0.00196505
0.00181842
0.00175534
0.00171658
0.00166935
0.00162933
0.001587
0.00154806
0.00150973
0.00147294
0.00143878
0.00140603
0.00138523
0.00139284
0.00152138
0.00202838
0.00371774
0.00893473
0.0124529
0.00329887
0.00198538
0.00183539
0.00177126
0.00173357
0.00168611
0.00164659
0.00160423
0.00156543
0.00152714
0.00149019
0.00145588
0.00142155
0.00139702
0.00139087
0.0014858
0.00191785
0.00353643
0.00902608
0.0125922
0.00335083
0.00200539
0.0018523
0.00178718
0.00175042
0.00170272
0.00166361
0.00162115
0.00158249
0.0015442
0.00150703
0.00147269
0.00143711
0.00141045
0.00139472
0.00146531
0.00183626
0.00338823
0.00910429
0.0127217
0.00339994
0.00202516
0.00186918
0.00180312
0.0017672
0.0017192
0.00168045
0.00163787
0.00159925
0.00156101
0.00152349
0.00148919
0.00145257
0.00142476
0.00140211
0.00145496
0.00177617
0.00326761
0.00917205
0.0128405
0.00344609
0.00204466
0.00188614
0.00181912
0.001784
0.00173557
0.00169722
0.00165441
0.00161579
0.00157752
0.00153967
0.00150542
0.00146785
0.00143948
0.00141175
0.00145155
0.00173223
0.00317002
0.00923126
0.0129511
0.00348989
0.00206412
0.00190321
0.00183521
0.00180082
0.00175189
0.00171383
0.00167077
0.00163221
0.00159383
0.00155564
0.00152144
0.00148304
0.00145438
0.00142282
0.00145284
0.00170039
0.00309108
0.00928415
0.0130529
0.00353124
0.0020834
0.00192032
0.00185136
0.00181746
0.00176814
0.00173031
0.00168704
0.00164838
0.00160999
0.00157137
0.00153727
0.00149809
0.00146929
0.00143475
0.00145737
0.00167772
0.00302699
0.00933168
0.0131471
0.00357039
0.00210247
0.00193735
0.00186747
0.00183398
0.00178428
0.00174658
0.0017032
0.00166445
0.00162602
0.00158697
0.00155296
0.00151301
0.00148419
0.00144724
0.00146421
0.00166217
0.00297542
0.00937504
0.0132336
0.00360718
0.00212132
0.00195432
0.00188357
0.00185046
0.0018004
0.00176292
0.00171935
0.00168048
0.00164195
0.00160245
0.00156849
0.00152785
0.00149903
0.00146008
0.00147267
0.00165211
0.0029342
0.00941542
0.0133133
0.00364198
0.00214004
0.00197125
0.00189977
0.00186706
0.00181667
0.00177929
0.00173555
0.00169646
0.00165778
0.00161784
0.0015839
0.00154263
0.00151383
0.00147322
0.00148237
0.00164638
0.00290155
0.00945334
0.0133859
0.00367493
0.00215864
0.00198827
0.00191625
0.00188373
0.00183312
0.00179575
0.00175174
0.00171239
0.00167358
0.00163318
0.00159927
0.00155746
0.00152864
0.00148659
0.00149302
0.00164417
0.0028763
0.0094893
0.0134533
0.00370653
0.00217727
0.00200537
0.00193292
0.0019006
0.00184965
0.00181224
0.00176794
0.00172829
0.00168936
0.00164856
0.00161465
0.00157231
0.00154349
0.00150016
0.00150438
0.0016448
0.00285732
0.00952393
0.0135157
0.00373684
0.0021958
0.00202266
0.00194976
0.00191752
0.00186624
0.00182873
0.00178414
0.00174423
0.00170519
0.00166406
0.0016301
0.00158718
0.00155836
0.00151392
0.00151633
0.00164779
0.00284375
0.0095577
0.0135738
0.00376604
0.00221441
0.00204001
0.00196675
0.00193454
0.00188292
0.00184526
0.00180046
0.00176032
0.00172116
0.0016797
0.00164564
0.00160213
0.00157327
0.00152789
0.00152888
0.00165284
0.00283507
0.00959083
0.0136282
0.0037942
0.00223299
0.00205753
0.00198388
0.00195162
0.00189975
0.00186194
0.00181699
0.00177661
0.00173731
0.00169547
0.00166127
0.00161721
0.00158831
0.00154215
0.00154198
0.00165969
0.00283073
0.00962327
0.0136791
0.00382179
0.00225175
0.00207528
0.00200125
0.00196894
0.00191682
0.00187887
0.00183376
0.00179312
0.00175366
0.00171138
0.00167704
0.00163251
0.00160356
0.00155673
0.00155559
0.00166806
0.00282998
0.00965494
0.0137278
0.00384896
0.00227066
0.00209328
0.00201889
0.00198649
0.00193415
0.00189606
0.00185077
0.00180983
0.00177018
0.00172746
0.00169302
0.00164807
0.00161907
0.00157162
0.0015696
0.00167764
0.00283205
0.00968598
0.0137747
0.0038758
0.00228979
0.00211145
0.00203676
0.00200419
0.00195169
0.00191342
0.00186791
0.00182668
0.00178683
0.00174373
0.00170921
0.0016639
0.0016348
0.00158674
0.00158391
0.00168816
0.00283627
0.0097167
0.01382
0.00390212
0.00230897
0.00212974
0.00205481
0.00202205
0.00196941
0.00193086
0.00188518
0.00184362
0.00180363
0.00176021
0.00172558
0.00167992
0.00165067
0.001602
0.00159843
0.00169944
0.00284225
0.00974745
0.0138628
0.00392781
0.00232812
0.00214811
0.00207297
0.00204005
0.00198722
0.0019484
0.00190254
0.00186067
0.00182055
0.00177685
0.0017421
0.00169605
0.00166662
0.00161737
0.00161316
0.00171139
0.00284986
0.00977845
0.0139032
0.00395297
0.00234733
0.00216661
0.00209132
0.0020582
0.00200516
0.00196605
0.00192002
0.00187786
0.00183761
0.00179363
0.00175872
0.00171228
0.00168264
0.00163289
0.00162815
0.00172403
0.00285911
0.00980961
0.0139414
0.00397786
0.00236672
0.00218535
0.00210994
0.00207654
0.00202331
0.00198387
0.00193768
0.00189524
0.00185484
0.00181056
0.00177546
0.00172864
0.0016988
0.00164862
0.00164343
0.00173731
0.00286988
0.0098407
0.0139786
0.00400291
0.00238638
0.00220439
0.00212882
0.00209512
0.00204168
0.00200194
0.00195558
0.00191287
0.00187228
0.00182767
0.00179237
0.00174519
0.00171519
0.00166462
0.00165901
0.00175119
0.00288188
0.00987163
0.0140158
0.00402826
0.00240637
0.00222371
0.00214798
0.00211393
0.00206032
0.00202029
0.00197376
0.00193076
0.00188995
0.00184501
0.0018095
0.00176199
0.00173183
0.00168087
0.00167487
0.00176557
0.0028948
0.00990262
0.014053
0.00405374
0.0024266
0.00224327
0.00216739
0.00213299
0.00207924
0.00203893
0.00199223
0.00194889
0.00190788
0.00186261
0.00182688
0.00177908
0.00174874
0.00169739
0.00169099
0.00178039
0.00290853
0.00993402
0.0140901
0.00407903
0.00244698
0.00226302
0.00218702
0.00215234
0.00209845
0.00205785
0.00201094
0.00196728
0.00192606
0.00188045
0.00184454
0.00179645
0.00176589
0.00171416
0.00170737
0.00179563
0.00292312
0.00996605
0.0141275
0.00410337
0.00246754
0.00228302
0.00220695
0.00217197
0.00211795
0.00207701
0.00202989
0.0019859
0.00194446
0.00189856
0.00186247
0.00181408
0.00178329
0.0017312
0.00172404
0.00181132
0.00293866
0.00999866
0.0141647
0.00412744
0.00248838
0.00230334
0.00222721
0.00219191
0.00213772
0.00209638
0.00204907
0.00200475
0.00196311
0.00191694
0.00188066
0.00183195
0.00180093
0.00174849
0.001741
0.00182746
0.0029551
0.0100316
0.0142022
0.00415174
0.00250961
0.00232405
0.00224783
0.00221213
0.00215773
0.00211601
0.0020685
0.00202385
0.00198203
0.00193559
0.00189909
0.00185006
0.00181879
0.00176603
0.00175823
0.00184398
0.00297224
0.0100646
0.0142408
0.00417629
0.00253126
0.00234511
0.00226876
0.0022326
0.002178
0.00213591
0.0020882
0.00204325
0.00200123
0.00195448
0.00191772
0.00186837
0.00183685
0.00178377
0.00177567
0.0018608
0.00298976
0.0100974
0.0142809
0.00420075
0.00255308
0.00236644
0.00228995
0.00225332
0.00219856
0.00215612
0.00210823
0.00206294
0.00202069
0.00197359
0.00193653
0.00188686
0.00185509
0.00180169
0.00179329
0.00187785
0.00300741
0.0101303
0.0143224
0.00422447
0.00257493
0.00238794
0.00231136
0.00227432
0.00221944
0.00217665
0.00212856
0.00208291
0.00204038
0.00199289
0.00195555
0.00190557
0.00187354
0.00181982
0.00181111
0.00189512
0.00302513
0.0101633
0.0143641
0.00424724
0.0025968
0.00240958
0.002333
0.00229561
0.00224063
0.00219747
0.00214916
0.00210311
0.00206028
0.00201242
0.00197481
0.00192453
0.00189224
0.00183819
0.00182916
0.00191265
0.00304306
0.0101968
0.0144052
0.0042694
0.00261876
0.00243141
0.0023549
0.00231719
0.0022621
0.00221854
0.00216998
0.00212353
0.00208042
0.00203224