/*--------------------------------*- C++ -*----------------------------------*\
  =========                 |
  \\      /  F ield         | OpenFOAM: The Open Source CFD Toolbox
   \\    /   O peration     | Website:  https://openfoam.org
    \\  /    A nd           | Version:  8
     \\/     M anipulation  |
\*---------------------------------------------------------------------------*/
FoamFile
{
    version     2.0;
    format      ascii;
    class       volScalarField;
    location    "300";
    object      nut;
}
// * * * * * * * * * * * * * * * * * * * * * * * * * * * * * * * * * * * * * //

dimensions      [0 2 -1 0 0 0 0];

internalField   nonuniform List<scalar> 
8400
(
0.000348899
0.000342976
0.000337119
0.000331331
0.000325605
0.000320036
0.00031462
0.000309339
0.00030419
0.00029917
0.000294279
0.000289514
0.000284874
0.000280354
0.000275952
0.000271664
0.000267485
0.000263412
0.00025944
0.000255564
0.000251779
0.00024808
0.000244464
0.000240925
0.000237458
0.000234058
0.000230721
0.000227444
0.000224221
0.000221048
0.000218001
0.000215114
0.000212359
0.000209721
0.000207178
0.000204712
0.000202303
0.000199937
0.000197597
0.000195274
0.000192957
0.000190642
0.000188323
0.000185999
0.000183672
0.000181345
0.000179025
0.000176724
0.000174457
0.000172246
0.000116521
0.000115817
0.000115178
0.000114588
0.000114035
0.000113201
0.000112143
0.000110895
0.000109459
0.000107839
0.000106045
0.000104093
0.000102001
9.9791e-05
9.74908e-05
9.51309e-05
9.27457e-05
9.03725e-05
8.80511e-05
8.58234e-05
8.37316e-05
8.18168e-05
8.01174e-05
7.86689e-05
7.75011e-05
7.66378e-05
7.60939e-05
7.58734e-05
7.59698e-05
7.63828e-05
7.6854e-05
7.72393e-05
7.75892e-05
7.78889e-05
7.81531e-05
7.83856e-05
7.85939e-05
7.87825e-05
7.89554e-05
7.91149e-05
7.92621e-05
7.93973e-05
7.95203e-05
7.96305e-05
7.97278e-05
7.98121e-05
7.98837e-05
7.99438e-05
7.99949e-05
8.00402e-05
7.51466e-05
7.50323e-05
7.49352e-05
7.48499e-05
7.477e-05
7.46869e-05
7.44944e-05
7.42445e-05
7.39402e-05
7.35849e-05
7.31842e-05
7.27457e-05
7.22798e-05
7.17987e-05
7.13156e-05
7.08444e-05
7.03989e-05
6.99922e-05
6.96355e-05
6.93377e-05
6.91049e-05
6.89392e-05
6.88391e-05
6.88002e-05
6.88154e-05
6.8876e-05
6.89725e-05
6.90949e-05
6.92509e-05
6.94193e-05
6.95801e-05
6.97391e-05
6.98931e-05
7.00425e-05
7.01856e-05
7.03217e-05
7.04497e-05
7.05686e-05
7.06776e-05
7.0776e-05
7.08635e-05
7.09399e-05
7.10051e-05
7.10596e-05
7.11039e-05
7.1139e-05
7.11665e-05
7.11885e-05
7.12074e-05
7.12264e-05
6.49085e-05
6.49491e-05
6.49942e-05
6.50387e-05
6.50788e-05
6.51111e-05
6.51134e-05
6.50868e-05
6.50379e-05
6.49684e-05
6.48799e-05
6.47747e-05
6.46564e-05
6.4529e-05
6.43968e-05
6.4264e-05
6.41349e-05
6.40137e-05
6.39042e-05
6.38094e-05
6.37318e-05
6.36727e-05
6.36326e-05
6.36117e-05
6.361e-05
6.3627e-05
6.36675e-05
6.37499e-05
6.38569e-05
6.39734e-05
6.41011e-05
6.42344e-05
6.43707e-05
6.45068e-05
6.46402e-05
6.47689e-05
6.48911e-05
6.5005e-05
6.51098e-05
6.52048e-05
6.52896e-05
6.5364e-05
6.54281e-05
6.54825e-05
6.5528e-05
6.55657e-05
6.55976e-05
6.56254e-05
6.56512e-05
6.56779e-05
6.03391e-05
6.04113e-05
6.04779e-05
6.05359e-05
6.05829e-05
6.06168e-05
6.06362e-05
6.06216e-05
6.05905e-05
6.05401e-05
6.04706e-05
6.0383e-05
6.02791e-05
6.0161e-05
6.00312e-05
5.98926e-05
5.97486e-05
5.96036e-05
5.94618e-05
5.93279e-05
5.92059e-05
5.90999e-05
5.90137e-05
5.89508e-05
5.8918e-05
5.89423e-05
5.90242e-05
5.91316e-05
5.92548e-05
5.93909e-05
5.95348e-05
5.96827e-05
5.9831e-05
5.9977e-05
6.01185e-05
6.02536e-05
6.03809e-05
6.04996e-05
6.06091e-05
6.0709e-05
6.07992e-05
6.08798e-05
6.09512e-05
6.10141e-05
6.10694e-05
6.11183e-05
6.11625e-05
6.12034e-05
6.12428e-05
6.12829e-05
5.7103e-05
5.71731e-05
5.72344e-05
5.72824e-05
5.73142e-05
5.73279e-05
5.73224e-05
5.72848e-05
5.72246e-05
5.71427e-05
5.70388e-05
5.69138e-05
5.67696e-05
5.66086e-05
5.64336e-05
5.62487e-05
5.60591e-05
5.58707e-05
5.569e-05
5.55238e-05
5.53783e-05
5.52596e-05
5.51776e-05
5.5167e-05
5.52375e-05
5.53478e-05
5.54822e-05
5.56376e-05
5.58061e-05
5.59822e-05
5.61609e-05
5.63385e-05
5.65117e-05
5.66784e-05
5.68367e-05
5.69859e-05
5.71253e-05
5.72547e-05
5.7374e-05
5.7483e-05
5.75819e-05
5.76713e-05
5.7752e-05
5.78249e-05
5.78907e-05
5.79504e-05
5.80055e-05
5.8057e-05
5.81064e-05
5.81559e-05
5.43606e-05
5.4433e-05
5.44888e-05
5.45235e-05
5.45347e-05
5.4521e-05
5.4482e-05
5.44174e-05
5.43055e-05
5.41721e-05
5.40132e-05
5.3829e-05
5.36219e-05
5.33953e-05
5.31538e-05
5.29039e-05
5.26538e-05
5.24129e-05
5.21914e-05
5.19997e-05
5.18655e-05
5.18288e-05
5.19018e-05
5.20352e-05
5.22044e-05
5.24052e-05
5.26251e-05
5.28574e-05
5.30946e-05
5.33318e-05
5.35645e-05
5.37895e-05
5.40039e-05
5.4206e-05
5.43949e-05
5.45706e-05
5.4733e-05
5.48821e-05
5.50178e-05
5.51403e-05
5.52506e-05
5.53497e-05
5.54389e-05
5.55187e-05
5.55899e-05
5.5654e-05
5.57127e-05
5.57671e-05
5.58184e-05
5.5869e-05
5.16305e-05
5.16941e-05
5.17443e-05
5.17681e-05
5.1759e-05
5.17144e-05
5.16348e-05
5.15213e-05
5.13706e-05
5.11683e-05
5.09418e-05
5.06892e-05
5.04145e-05
5.01252e-05
4.98317e-05
4.95476e-05
4.92893e-05
4.90775e-05
4.89564e-05
4.89546e-05
4.90549e-05
4.92092e-05
4.93934e-05
4.9605e-05
4.98329e-05
5.00729e-05
5.03197e-05
5.05709e-05
5.08246e-05
5.1079e-05
5.13321e-05
5.15809e-05
5.18227e-05
5.20551e-05
5.22766e-05
5.24851e-05
5.26786e-05
5.28552e-05
5.30135e-05
5.31534e-05
5.32757e-05
5.33816e-05
5.34718e-05
5.35469e-05
5.36088e-05
5.36598e-05
5.37022e-05
5.37378e-05
5.37686e-05
5.37972e-05
4.93098e-05
4.91786e-05
4.91083e-05
4.90724e-05
4.90428e-05
4.89998e-05
4.89345e-05
4.88459e-05
4.87397e-05
4.86165e-05
4.84727e-05
4.83347e-05
4.82186e-05
4.81448e-05
4.81322e-05
4.81937e-05
4.83301e-05
4.85314e-05
4.87389e-05
4.89194e-05
4.90682e-05
4.9187e-05
4.92787e-05
4.93495e-05
4.94033e-05
4.9444e-05
4.94759e-05
4.95047e-05
4.95361e-05
4.95756e-05
4.96267e-05
4.96917e-05
4.97719e-05
4.9868e-05
4.99789e-05
5.01012e-05
5.02293e-05
5.03572e-05
5.04797e-05
5.05922e-05
5.06913e-05
5.07738e-05
5.08362e-05
5.08779e-05
5.09015e-05
5.09094e-05
5.09046e-05
5.089e-05
5.08715e-05
5.08523e-05
5.12596e-05
5.03276e-05
4.96238e-05
4.91881e-05
4.89939e-05
4.90034e-05
4.91785e-05
4.94807e-05
4.98738e-05
5.0322e-05
5.07922e-05
5.12574e-05
5.16973e-05
5.20899e-05
5.24146e-05
5.26595e-05
5.28333e-05
5.29522e-05
5.30263e-05
5.30638e-05
5.30719e-05
5.30537e-05
5.30055e-05
5.29214e-05
5.27957e-05
5.26263e-05
5.24168e-05
5.21743e-05
5.19068e-05
5.16211e-05
5.13231e-05
5.1019e-05
5.0717e-05
5.04255e-05
5.01501e-05
4.98944e-05
4.96606e-05
4.94502e-05
4.92633e-05
4.91e-05
4.8959e-05
4.88359e-05
4.87251e-05
4.86231e-05
4.85315e-05
4.84506e-05
4.83825e-05
4.83335e-05
4.83112e-05
4.83219e-05
5.93995e-05
5.86941e-05
5.80798e-05
5.75575e-05
5.71361e-05
5.68096e-05
5.65797e-05
5.64422e-05
5.63884e-05
5.6413e-05
5.65019e-05
5.66481e-05
5.68199e-05
5.69914e-05
5.7136e-05
5.72389e-05
5.73037e-05
5.73305e-05
5.73219e-05
5.72803e-05
5.72104e-05
5.71218e-05
5.70192e-05
5.6903e-05
5.67754e-05
5.66395e-05
5.6501e-05
5.63662e-05
5.62341e-05
5.60956e-05
5.59419e-05
5.57723e-05
5.55937e-05
5.54106e-05
5.52199e-05
5.50178e-05
5.48014e-05
5.45711e-05
5.4329e-05
5.40702e-05
5.37919e-05
5.34867e-05
5.31492e-05
5.27811e-05
5.23689e-05
5.19279e-05
5.14597e-05
5.10042e-05
5.06079e-05
5.03237e-05
6.13364e-05
6.11509e-05
6.09851e-05
6.08257e-05
6.06689e-05
6.05085e-05
6.03478e-05
6.01915e-05
6.00347e-05
5.98786e-05
5.9725e-05
5.95774e-05
5.94328e-05
5.92895e-05
5.9151e-05
5.90232e-05
5.89143e-05
5.88198e-05
5.87315e-05
5.86479e-05
5.85693e-05
5.84983e-05
5.84374e-05
5.83847e-05
5.83338e-05
5.82795e-05
5.82233e-05
5.81717e-05
5.81277e-05
5.80835e-05
5.80279e-05
5.79583e-05
5.7885e-05
5.78172e-05
5.77524e-05
5.7686e-05
5.76164e-05
5.75431e-05
5.74662e-05
5.73878e-05
5.73108e-05
5.72317e-05
5.71404e-05
5.70456e-05
5.69436e-05
5.68297e-05
5.67048e-05
5.65498e-05
5.63453e-05
5.60821e-05
6.14302e-05
6.13542e-05
6.12799e-05
6.12049e-05
6.11291e-05
6.10531e-05
6.09773e-05
6.09019e-05
6.08262e-05
6.07498e-05
6.06732e-05
6.05973e-05
6.05214e-05
6.04457e-05
6.03714e-05
6.02983e-05
6.02269e-05
6.01569e-05
6.00877e-05
6.00193e-05
5.99519e-05
5.98859e-05
5.9822e-05
5.97595e-05
5.96974e-05
5.96359e-05
5.95762e-05
5.9519e-05
5.94633e-05
5.94067e-05
5.9348e-05
5.92881e-05
5.92289e-05
5.9171e-05
5.91128e-05
5.90536e-05
5.8994e-05
5.89347e-05
5.88752e-05
5.88141e-05
5.87516e-05
5.86875e-05
5.86209e-05
5.85518e-05
5.84813e-05
5.84054e-05
5.83234e-05
5.82355e-05
5.81388e-05
5.80393e-05
6.1456e-05
6.14102e-05
6.13644e-05
6.13181e-05
6.12711e-05
6.12239e-05
6.11767e-05
6.11295e-05
6.10819e-05
6.10338e-05
6.09855e-05
6.09376e-05
6.08901e-05
6.08426e-05
6.07954e-05
6.0748e-05
6.07005e-05
6.06533e-05
6.06064e-05
6.05599e-05
6.05135e-05
6.04674e-05
6.04214e-05
6.03753e-05
6.03292e-05
6.02834e-05
6.0238e-05
6.01932e-05
6.01484e-05
6.01034e-05
6.00582e-05
6.00134e-05
5.99684e-05
5.99228e-05
5.98766e-05
5.98301e-05
5.97842e-05
5.97384e-05
5.9692e-05
5.96446e-05
5.95957e-05
5.95465e-05
5.94964e-05
5.94453e-05
5.93926e-05
5.93381e-05
5.92815e-05
5.92238e-05
5.91652e-05
5.9101e-05
6.14694e-05
6.14376e-05
6.14055e-05
6.13728e-05
6.13396e-05
6.13063e-05
6.12729e-05
6.12393e-05
6.12054e-05
6.11714e-05
6.11372e-05
6.11029e-05
6.10688e-05
6.10346e-05
6.10001e-05
6.09653e-05
6.09302e-05
6.08951e-05
6.08602e-05
6.08253e-05
6.07903e-05
6.07554e-05
6.07204e-05
6.06854e-05
6.06505e-05
6.06156e-05
6.05809e-05
6.05461e-05
6.05112e-05
6.04764e-05
6.04416e-05
6.04067e-05
6.03714e-05
6.03355e-05
6.02993e-05
6.02636e-05
6.02282e-05
6.01924e-05
6.01557e-05
6.01182e-05
6.00804e-05
6.00423e-05
6.00035e-05
5.9964e-05
5.99233e-05
5.98824e-05
5.98412e-05
5.97991e-05
5.97544e-05
5.97066e-05
6.14747e-05
6.14488e-05
6.14229e-05
6.13965e-05
6.13699e-05
6.13431e-05
6.13163e-05
6.12895e-05
6.12624e-05
6.12352e-05
6.12079e-05
6.11806e-05
6.11535e-05
6.11263e-05
6.10989e-05
6.10714e-05
6.10439e-05
6.10164e-05
6.09891e-05
6.09618e-05
6.09345e-05
6.09073e-05
6.08802e-05
6.08532e-05
6.08263e-05
6.07994e-05
6.07725e-05
6.07454e-05
6.07183e-05
6.06913e-05
6.06642e-05
6.06368e-05
6.06091e-05
6.05812e-05
6.05535e-05
6.05258e-05
6.0498e-05
6.04697e-05
6.04407e-05
6.04114e-05
6.03821e-05
6.03523e-05
6.03221e-05
6.02915e-05
6.02606e-05
6.02291e-05
6.01966e-05
6.0163e-05
6.01281e-05
6.00915e-05
6.14817e-05
6.1463e-05
6.1444e-05
6.14248e-05
6.14054e-05
6.1386e-05
6.13665e-05
6.13472e-05
6.13277e-05
6.13079e-05
6.12881e-05
6.12682e-05
6.12485e-05
6.12286e-05
6.12085e-05
6.11881e-05
6.11677e-05
6.11473e-05
6.11268e-05
6.11061e-05
6.10854e-05
6.10647e-05
6.1044e-05
6.10233e-05
6.10025e-05
6.09816e-05
6.09605e-05
6.09392e-05
6.09179e-05
6.08966e-05
6.08753e-05
6.08537e-05
6.08321e-05
6.08106e-05
6.0789e-05
6.07673e-05
6.07454e-05
6.07234e-05
6.07015e-05
6.06795e-05
6.06575e-05
6.06351e-05
6.06122e-05
6.05887e-05
6.05649e-05
6.05406e-05
6.05158e-05
6.04902e-05
6.04638e-05
6.04362e-05
6.14812e-05
6.14621e-05
6.14429e-05
6.14233e-05
6.14035e-05
6.13838e-05
6.13642e-05
6.13447e-05
6.13249e-05
6.13049e-05
6.12848e-05
6.12648e-05
6.12448e-05
6.12247e-05
6.12044e-05
6.1184e-05
6.11636e-05
6.11432e-05
6.11227e-05
6.11022e-05
6.10818e-05
6.10616e-05
6.10414e-05
6.10213e-05
6.1001e-05
6.09804e-05
6.09596e-05
6.09386e-05
6.09175e-05
6.08965e-05
6.08754e-05
6.08544e-05
6.08334e-05
6.08121e-05
6.07908e-05
6.07693e-05
6.07478e-05
6.07265e-05
6.07055e-05
6.06843e-05
6.06629e-05
6.06411e-05
6.06191e-05
6.0597e-05
6.05751e-05
6.0553e-05
6.0531e-05
6.05089e-05
6.04868e-05
6.04644e-05
6.14883e-05
6.1478e-05
6.14663e-05
6.14545e-05
6.14428e-05
6.1431e-05
6.14193e-05
6.14075e-05
6.13955e-05
6.13834e-05
6.13715e-05
6.13596e-05
6.13478e-05
6.13359e-05
6.13241e-05
6.13124e-05
6.13008e-05
6.12893e-05
6.12778e-05
6.12664e-05
6.1255e-05
6.12438e-05
6.12326e-05
6.12216e-05
6.12105e-05
6.11993e-05
6.11882e-05
6.11772e-05
6.11664e-05
6.11558e-05
6.11453e-05
6.11348e-05
6.11243e-05
6.11137e-05
6.1103e-05
6.10923e-05
6.10818e-05
6.10713e-05
6.10608e-05
6.10503e-05
6.10396e-05
6.10286e-05
6.10174e-05
6.1006e-05
6.09946e-05
6.0983e-05
6.09711e-05
6.09586e-05
6.09455e-05
6.09313e-05
6.22698e-05
6.30811e-05
6.38979e-05
6.47085e-05
6.5506e-05
6.62871e-05
6.70528e-05
6.78079e-05
6.85591e-05
6.93131e-05
7.00759e-05
7.08518e-05
7.16442e-05
7.24551e-05
7.32857e-05
7.41364e-05
7.50067e-05
7.58953e-05
7.68006e-05
7.77206e-05
7.86528e-05
7.95946e-05
8.05437e-05
8.14977e-05
8.24541e-05
8.34111e-05
8.43669e-05
8.53201e-05
8.62693e-05
8.72133e-05
8.81505e-05
8.90796e-05
8.99994e-05
9.09096e-05
9.18094e-05
9.26983e-05
9.35749e-05
9.44375e-05
9.52845e-05
9.61142e-05
9.69241e-05
9.77116e-05
9.84733e-05
9.92048e-05
9.9901e-05
0.000100555
0.000101158
0.0001017
0.000102169
0.00010256
0.000272578
0.000269212
0.000265991
0.000262909
0.000259949
0.000257091
0.000254317
0.000251617
0.000248986
0.000246415
0.000243902
0.000241444
0.000239041
0.000236695
0.000234409
0.000232185
0.000230025
0.000227928
0.000225892
0.000223915
0.00022199
0.000220112
0.000218277
0.000216481
0.00021472
0.000212994
0.000211302
0.000209646
0.000208026
0.000206445
0.000204902
0.000203401
0.00020194
0.000200519
0.000199135
0.000197787
0.00019647
0.000195182
0.000193921
0.000192678
0.000191451
0.000190238
0.000189038
0.000187852
0.000186678
0.000185516
0.00018436
0.000183199
0.000182015
0.000180774
0.00027062
0.000264416
0.000258505
0.00025286
0.00024747
0.000242322
0.0002374
0.000232684
0.000228156
0.0002238
0.000219608
0.000215573
0.000211691
0.000207962
0.000204383
0.000200951
0.00019766
0.000194504
0.000191469
0.000188545
0.00018572
0.000182983
0.000180326
0.000177744
0.000175232
0.000172789
0.000170417
0.000168114
0.000165881
0.00016372
0.000161629
0.000159607
0.000157648
0.000155749
0.000153902
0.000152099
0.000150335
0.000148604
0.000146903
0.000145238
0.000143609
0.000142016
0.000140458
0.000138937
0.000137456
0.000136014
0.000134606
0.00013322
0.000131841
0.00013047
0.000270613
0.000264395
0.000258446
0.000252762
0.000247327
0.000242124
0.000237133
0.000232338
0.000227723
0.000223275
0.000218986
0.00021485
0.000210863
0.000207023
0.000203326
0.000199769
0.000196347
0.000193052
0.000189875
0.000186807
0.000183836
0.000180955
0.000178157
0.000175436
0.00017279
0.000170217
0.000167715
0.000165285
0.000162926
0.000160638
0.000158421
0.000156271
0.000154187
0.000152163
0.000150196
0.000148281
0.000146414
0.000144591
0.00014281
0.000141069
0.000139366
0.000137702
0.000136075
0.000134488
0.000132944
0.000131446
0.000129998
0.000128599
0.000127224
0.000125831
0.000270615
0.000264449
0.000258557
0.000252923
0.000247531
0.00024236
0.000237394
0.000232617
0.000228015
0.000223579
0.0002193
0.000215173
0.000211193
0.000207358
0.000203664
0.000200107
0.000196681
0.000193378
0.000190189
0.000187106
0.000184119
0.000181221
0.000178405
0.000175669
0.000173008
0.000170421
0.000167907
0.000165466
0.000163096
0.000160797
0.000158568
0.000156406
0.000154309
0.000152272
0.00015029
0.00014836
0.000146478
0.000144641
0.000142846
0.000141092
0.000139377
0.0001377
0.000136063
0.000134465
0.000132906
0.000131386
0.00012991
0.000128488
0.000127122
0.000125758
0.000270618
0.000264459
0.000258567
0.000252925
0.000247517
0.000242329
0.000237345
0.000232553
0.000227941
0.000223499
0.000219219
0.000215096
0.000211124
0.000207299
0.000203614
0.000200066
0.000196646
0.000193346
0.000190159
0.000187076
0.000184088
0.000181189
0.000178374
0.000175639
0.000172982
0.000170401
0.000167894
0.00016546
0.000163098
0.000160807
0.000158584
0.000156427
0.000154334
0.000152299
0.000150319
0.00014839
0.000146508
0.000144672
0.000142878
0.000141125
0.000139411
0.000137736
0.000136101
0.000134507
0.000132955
0.000131441
0.000129961
0.000128521
0.000127137
0.00012578
0.000270621
0.000264471
0.000258587
0.000252951
0.000247548
0.000242363
0.000237383
0.000232597
0.000227993
0.000223562
0.000219296
0.000215189
0.000211233
0.000207422
0.00020375
0.000200209
0.000196794
0.000193495
0.000190305
0.000187216
0.000184222
0.000181317
0.000178498
0.00017576
0.000173102
0.000170521
0.000168016
0.000165583
0.000163223
0.000160932
0.000158709
0.000156551
0.000154455
0.000152416
0.00015043
0.000148496
0.000146609
0.000144768
0.00014297
0.000141213
0.000139496
0.000137817
0.000136176
0.000134575
0.000133017
0.000131503
0.000130026
0.000128579
0.000127178
0.000125811
0.000270624
0.000264479
0.000258596
0.000252957
0.000247546
0.000242352
0.000237363
0.000232569
0.00022796
0.000223529
0.000219266
0.000215164
0.000211214
0.00020741
0.000203742
0.000200204
0.000196787
0.000193483
0.000190287
0.000187191
0.00018419
0.00018128
0.000178458
0.000175719
0.000173062
0.000170484
0.000167982
0.000165554
0.000163197
0.00016091
0.000158689
0.000156532
0.000154435
0.000152395
0.000150409
0.000148473
0.000146585
0.000144743
0.000142945
0.000141189
0.000139472
0.000137795
0.000136154
0.000134552
0.00013299
0.000131471
0.000129995
0.000128552
0.000127145
0.000125773
0.000270626
0.000264484
0.000258602
0.000252959
0.000247544
0.000242345
0.000237352
0.000232557
0.000227951
0.000223527
0.000219274
0.000215184
0.000211247
0.000207454
0.000203794
0.000200261
0.000196845
0.00019354
0.000190339
0.000187239
0.000184234
0.000181321
0.000178498
0.00017576
0.000173105
0.00017053
0.000168031
0.000165606
0.000163251
0.000160964
0.000158744
0.000156585
0.000154486
0.000152443
0.000150452
0.000148513
0.000146621
0.000144777
0.000142976
0.000141217
0.000139498
0.000137818
0.000136176
0.000134572
0.000133005
0.000131479
0.000129995
0.000128548
0.000127136
0.000125756
0.000270628
0.000264488
0.000258604
0.000252957
0.000247537
0.000242332
0.000237334
0.000232537
0.000227932
0.000223511
0.000219265
0.000215183
0.000211253
0.000207465
0.000203808
0.000200273
0.000196854
0.000193543
0.000190336
0.000187229
0.000184219
0.000181303
0.000178478
0.000175741
0.000173087
0.000170514
0.000168017
0.000165594
0.00016324
0.000160954
0.000158733
0.000156573
0.000154471
0.000152426
0.000150433
0.000148492
0.000146599
0.000144752
0.000142951
0.000141191
0.000139471
0.000137789
0.000136146
0.000134542
0.000132974
0.000131445
0.000129956
0.000128505
0.000127089
0.000125706
0.000270629
0.000264489
0.000258603
0.000252953
0.000247527
0.000242318
0.000237318
0.00023252
0.000227918
0.000223504
0.000219265
0.000215191
0.000211269
0.000207486
0.000203831
0.000200296
0.000196874
0.000193559
0.000190347
0.000187236
0.000184224
0.000181308
0.000178484
0.000175749
0.000173099
0.000170528
0.000168033
0.000165611
0.000163258
0.000160971
0.000158748
0.000156586
0.000154482
0.000152434
0.000150439
0.000148495
0.0001466
0.000144752
0.000142948
0.000141187
0.000139466
0.000137783
0.000136137
0.00013453
0.00013296
0.000131428
0.000129934
0.000128478
0.000127057
0.000125668
0.000270629
0.000264488
0.0002586
0.000252946
0.000247517
0.000242304
0.000237302
0.000232506
0.000227907
0.000223498
0.000219266
0.000215198
0.00021128
0.0002075
0.000203846
0.000200308
0.000196881
0.000193561
0.000190346
0.000187232
0.000184219
0.000181303
0.000178481
0.000175749
0.0001731
0.000170531
0.000168037
0.000165615
0.000163261
0.000160972
0.000158747
0.000156583
0.000154477
0.000152427
0.00015043
0.000148484
0.000146587
0.000144737
0.000142931
0.000141168
0.000139446
0.000137762
0.000136115
0.000134506
0.000132934
0.000131399
0.000129902
0.000128441
0.000127015
0.000125621
0.000270629
0.000264486
0.000258594
0.000252937
0.000247505
0.00024229
0.000237288
0.000232493
0.000227898
0.000223494
0.000219267
0.000215203
0.000211287
0.000207507
0.00020385
0.000200308
0.000196876
0.000193551
0.000190332
0.000187217
0.000184203
0.000181289
0.000178469
0.000175739
0.000173092
0.000170524
0.00016803
0.000165606
0.00016325
0.000160959
0.000158732
0.000156566
0.000154459
0.000152407
0.000150409
0.000148461
0.000146562
0.00014471
0.000142903
0.000141138
0.000139414
0.00013773
0.000136083
0.000134473
0.000132901
0.000131364
0.000129864
0.000128399
0.000126969
0.00012557
0.000270629
0.000264481
0.000258585
0.000252925
0.000247491
0.000242277
0.000237277
0.000232485
0.000227895
0.000223496
0.000219274
0.000215214
0.000211301
0.000207521
0.000203862
0.000200317
0.000196882
0.000193555
0.000190335
0.000187221
0.000184211
0.0001813
0.000178484
0.000175757
0.000173112
0.000170544
0.000168048
0.000165623
0.000163264
0.000160971
0.000158742
0.000156574
0.000154465
0.000152412
0.000150412
0.000148462
0.00014656
0.000144705
0.000142894
0.000141126
0.0001394
0.000137715
0.000136067
0.000134457
0.000132882
0.000131343
0.000129839
0.000128369
0.000126933
0.000125528
0.000270627
0.000264474
0.000258573
0.00025291
0.000247474
0.000242259
0.00023726
0.00023247
0.000227882
0.000223484
0.000219262
0.0002152
0.000211282
0.000207496
0.000203831
0.000200279
0.000196838
0.000193507
0.000190286
0.000187172
0.000184163
0.000181255
0.000178441
0.000175715
0.00017307
0.000170501
0.000168003
0.000165575
0.000163214
0.000160919
0.000158689
0.000156521
0.000154413
0.000152359
0.000150358
0.000148407
0.000146503
0.000144645
0.000142832
0.000141064
0.000139338
0.000137654
0.000136008
0.0001344
0.000132826
0.000131287
0.000129781
0.000128308
0.000126868
0.000125459
0.000270625
0.000264465
0.000258559
0.000252894
0.00024746
0.000242249
0.000237256
0.000232474
0.000227894
0.000223502
0.000219285
0.000215226
0.000211309
0.000207521
0.000203854
0.0002003
0.000196859
0.000193529
0.000190309
0.000187199
0.000184195
0.000181291
0.000178479
0.000175754
0.000173108
0.000170536
0.000168035
0.000165603
0.000163239
0.000160941
0.000158709
0.00015654
0.000154429
0.000152373
0.000150368
0.000148412
0.000146502
0.000144639
0.000142821
0.000141049
0.000139322
0.000137636
0.00013599
0.000134381
0.000132806
0.000131263
0.000129752
0.000128273
0.000126825
0.000125408
0.000270623
0.000264452
0.000258536
0.000252862
0.000247419
0.000242201
0.000237201
0.000232411
0.000227824
0.000223424
0.000219198
0.000215129
0.000211202
0.000207405
0.000203728
0.000200168
0.000196723
0.000193391
0.000190173
0.000187067
0.000184066
0.000181165
0.000178356
0.000175632
0.000172985
0.000170412
0.00016791
0.000165477
0.000163114
0.000160818
0.000158588
0.000156421
0.000154312
0.000152256
0.000150251
0.000148293
0.000146382
0.000144518
0.0001427
0.00014093
0.000139205
0.000137524
0.000135882
0.000134275
0.000132702
0.000131161
0.000129649
0.000128169
0.000126719
0.000125299
0.00027062
0.000264442
0.000258526
0.00025286
0.000247429
0.000242225
0.00023724
0.000232463
0.000227885
0.000223491
0.000219267
0.000215197
0.000211266
0.000207463
0.000203781
0.000200216
0.000196767
0.000193434
0.000190216
0.000187108
0.000184106
0.000181203
0.000178389
0.000175659
0.000173005
0.000170425
0.000167916
0.000165477
0.000163108
0.000160808
0.000158575
0.000156403
0.000154289
0.000152228
0.000150216
0.000148252
0.000146334
0.000144465
0.000142644
0.000140871
0.000139146
0.000137465
0.000135824
0.000134218
0.000132645
0.000131104
0.000129593
0.000128112
0.000126665
0.000125249
0.000270617
0.00026439
0.000258418
0.000252701
0.000247226
0.000241987
0.000236973
0.000232176
0.000227581
0.000223175
0.000218941
0.000214863
0.000210927
0.000207122
0.000203442
0.000199883
0.000196443
0.000193122
0.000189917
0.000186824
0.000183836
0.000180946
0.000178146
0.000175428
0.000172786
0.000170219
0.000167724
0.000165301
0.000162949
0.000160666
0.00015845
0.000156296
0.0001542
0.000152155
0.00015016
0.000148213
0.000146315
0.000144467
0.000142669
0.000140923
0.000139226
0.000137576
0.000135968
0.000134398
0.000132865
0.000131368
0.000129908
0.000128488
0.000127112
0.000125788
0.000270624
0.000264414
0.000258483
0.000252804
0.000247373
0.000242183
0.000237232
0.000232509
0.000227999
0.000223686
0.000219554
0.000215584
0.000211763
0.000208079
0.000204523
0.000201092
0.000197785
0.000194599
0.000191531
0.000188578
0.000185732
0.000182984
0.000180326
0.000177752
0.000175254
0.000172831
0.000170479
0.000168201
0.000165994
0.000163858
0.000161789
0.000159784
0.000157835
0.000155939
0.000154093
0.000152295
0.000150547
0.000148852
0.000147212
0.000145629
0.000144103
0.00014263
0.000141209
0.000139836
0.000138512
0.000137238
0.000136021
0.000134872
0.000133811
0.000132873
0.000272574
0.000269209
0.000265986
0.000262891
0.000259913
0.000257037
0.000254248
0.000251543
0.000248913
0.000246355
0.000243861
0.000241427
0.000239048
0.000236723
0.000234453
0.00023224
0.000230084
0.000227986
0.000225943
0.000223954
0.000222014
0.000220119
0.000218266
0.000216454
0.00021468
0.000212946
0.000211252
0.000209599
0.000207985
0.000206409
0.000204868
0.000203359
0.00020188
0.000200428
0.000199004
0.000197608
0.000196243
0.000194909
0.000193605
0.000192331
0.000191083
0.000189858
0.000188651
0.000187461
0.000186284
0.000185121
0.000183971
0.000182834
0.000181706
0.000180585
0.000116983
5.88646e-05
4.79289e-05
4.63873e-05
4.55728e-05
4.48711e-05
4.41564e-05
4.3467e-05
4.28094e-05
4.22132e-05
4.17769e-05
4.17558e-05
4.27158e-05
4.57372e-05
5.23054e-05
6.34586e-05
7.82945e-05
9.50285e-05
0.000116441
0.000176545
0.000118115
5.96027e-05
4.82108e-05
4.66315e-05
4.58228e-05
4.51458e-05
4.44513e-05
4.37787e-05
4.31284e-05
4.25143e-05
4.19783e-05
4.16393e-05
4.18062e-05
4.31694e-05
4.69164e-05
5.44868e-05
6.59499e-05
7.87079e-05
8.88918e-05
9.36604e-05
0.00011922
6.03338e-05
4.84966e-05
4.68732e-05
4.60688e-05
4.54142e-05
4.47354e-05
4.40829e-05
4.34453e-05
4.28347e-05
4.22635e-05
4.17965e-05
4.15828e-05
4.20472e-05
4.40584e-05
4.91291e-05
5.85714e-05
7.17637e-05
8.57183e-05
9.84773e-05
0.000120294
6.10483e-05
4.87774e-05
4.71098e-05
4.63077e-05
4.5676e-05
4.50095e-05
4.43771e-05
4.37517e-05
4.31555e-05
4.25777e-05
4.20588e-05
4.16695e-05
4.16596e-05
4.26214e-05
4.58521e-05
5.32022e-05
6.57992e-05
8.20606e-05
0.000101149
0.000121323
6.17425e-05
4.90566e-05
4.73437e-05
4.65386e-05
4.59314e-05
4.52754e-05
4.46641e-05
4.4049e-05
4.34615e-05
4.28859e-05
4.23496e-05
4.1883e-05
4.1633e-05
4.19868e-05
4.39607e-05
4.95131e-05
6.09822e-05
7.8561e-05
0.000102896
0.000122306
6.24133e-05
4.93338e-05
4.75779e-05
4.67624e-05
4.618e-05
4.55307e-05
4.49347e-05
4.43298e-05
4.3753e-05
4.31809e-05
4.26425e-05
4.21429e-05
4.17696e-05
4.17815e-05
4.29227e-05
4.70445e-05
5.71993e-05
7.54059e-05
0.000104133
0.000123243
6.30583e-05
4.96057e-05
4.78102e-05
4.69868e-05
4.64248e-05
4.578e-05
4.51989e-05
4.45989e-05
4.40273e-05
4.34639e-05
4.29236e-05
4.24169e-05
4.19777e-05
4.1792e-05
4.23931e-05
4.54314e-05
5.42836e-05
7.26731e-05
0.000105078
0.000124128
6.3675e-05
4.9876e-05
4.80376e-05
4.72047e-05
4.66638e-05
4.60195e-05
4.54485e-05
4.4855e-05
4.42881e-05
4.37345e-05
4.31991e-05
4.26897e-05
4.22159e-05
4.19164e-05
4.21567e-05
4.43947e-05
5.20529e-05
7.0339e-05
0.000105835
0.000124952
6.42481e-05
5.01371e-05
4.82623e-05
4.74245e-05
4.6898e-05
4.62566e-05
4.56942e-05
4.51052e-05
4.45477e-05
4.3997e-05
4.34673e-05
4.29591e-05
4.24606e-05
4.20957e-05
4.20928e-05
4.37493e-05
5.03668e-05
6.83773e-05
0.000106471
0.000125723
6.47905e-05
5.03946e-05
4.84847e-05
4.76442e-05
4.71307e-05
4.64933e-05
4.5937e-05
4.53509e-05
4.48019e-05
4.42595e-05
4.37276e-05
4.32214e-05
4.27063e-05
4.23064e-05
4.21336e-05
4.33681e-05
4.90985e-05
6.67464e-05
0.000107002
0.000126418
6.52939e-05
5.06472e-05
4.87146e-05
4.78667e-05
4.7369e-05
4.67269e-05
4.61821e-05
4.55958e-05
4.5049e-05
4.45121e-05
4.39791e-05
4.34751e-05
4.29446e-05
4.25292e-05
4.22393e-05
4.31654e-05
4.81487e-05
6.54066e-05
0.000107441
0.000127074
6.57755e-05
5.09026e-05
4.89472e-05
4.80851e-05
4.76077e-05
4.69563e-05
4.64202e-05
4.58328e-05
4.52945e-05
4.47568e-05
4.42233e-05
4.3722e-05
4.31789e-05
4.27556e-05
4.23834e-05
4.30791e-05
4.74365e-05
6.42942e-05
0.000107817
0.000127679
6.62298e-05
5.11573e-05
4.91808e-05
4.8304e-05
4.78362e-05
4.71792e-05
4.66528e-05
4.60639e-05
4.55309e-05
4.49945e-05
4.44571e-05
4.39608e-05
4.34064e-05
4.29797e-05
4.25468e-05
4.30692e-05
4.69035e-05
6.33523e-05
0.000108139
0.000128245
6.66585e-05
5.1405e-05
4.94043e-05
4.85149e-05
4.80559e-05
4.73959e-05
4.68739e-05
4.62892e-05
4.57604e-05
4.52269e-05
4.46849e-05
4.41931e-05
4.36282e-05
4.32017e-05
4.27205e-05
4.31137e-05
4.65135e-05
6.25677e-05
0.000108424
0.000128757
6.70515e-05
5.16456e-05
4.96226e-05
4.87228e-05
4.8268e-05
4.76097e-05
4.70968e-05
4.65128e-05
4.59869e-05
4.54535e-05
4.49062e-05
4.44182e-05
4.38459e-05
4.34208e-05
4.29014e-05
4.31958e-05
4.62326e-05
6.19192e-05
0.000108691
0.000129223
6.74166e-05
5.18777e-05
4.98351e-05
4.89294e-05
4.8486e-05
4.78279e-05
4.73218e-05
4.67395e-05
4.62104e-05
4.56756e-05
4.5123e-05
4.4638e-05
4.40616e-05
4.36383e-05
4.30895e-05
4.33085e-05
4.60393e-05
6.13885e-05
0.000108943
0.000129632
6.77525e-05
5.21046e-05
5.00484e-05
4.91406e-05
4.87047e-05
4.80499e-05
4.75493e-05
4.69632e-05
4.64308e-05
4.58961e-05
4.53379e-05
4.4858e-05
4.42794e-05
4.38578e-05
4.32834e-05
4.34439e-05
4.59193e-05
6.09704e-05
0.000109183
0.000130022
6.80772e-05
5.23359e-05
5.02647e-05
4.93559e-05
4.89287e-05
4.82716e-05
4.77743e-05
4.71843e-05
4.66481e-05
4.61143e-05
4.55545e-05
4.50791e-05
4.44974e-05
4.40785e-05
4.3481e-05
4.35932e-05
4.58568e-05
6.06495e-05
0.000109415
0.000130372
6.8382e-05
5.25614e-05
5.04829e-05
4.95736e-05
4.91508e-05
4.84921e-05
4.79948e-05
4.74016e-05
4.68646e-05
4.63335e-05
4.57751e-05
4.5302e-05
4.47129e-05
4.42972e-05
4.36808e-05
4.37546e-05
4.58426e-05
6.04116e-05
0.000109642
0.000130698
6.86724e-05
5.27886e-05
5.06984e-05
4.97902e-05
4.93714e-05
4.87098e-05
4.82129e-05
4.76202e-05
4.70846e-05
4.65557e-05
4.59982e-05
4.55251e-05
4.49264e-05
4.4513e-05
4.38821e-05
4.39286e-05
4.58713e-05
6.02513e-05
0.000109863
0.000131002
6.89482e-05
5.30122e-05
5.09165e-05
5.00064e-05
4.9589e-05
4.89274e-05
4.8433e-05
4.78428e-05
4.73093e-05
4.67814e-05
4.62205e-05
4.5746e-05
4.514e-05
4.4728e-05
4.40878e-05
4.41148e-05
4.59369e-05
6.01587e-05
0.000110072
0.000131279
6.92195e-05
5.32397e-05
5.11385e-05
5.02266e-05
4.98117e-05
4.91497e-05
4.86582e-05
4.80709e-05
4.75372e-05
4.70091e-05
4.64412e-05
4.59663e-05
4.53551e-05
4.49458e-05
4.43004e-05
4.43107e-05
4.60313e-05
6.0115e-05
0.000110265
0.000131552
6.9489e-05
5.34706e-05
5.13655e-05
5.04517e-05
5.00387e-05
4.93765e-05
4.88891e-05
4.83018e-05
4.77656e-05
4.72359e-05
4.66614e-05
4.61883e-05
4.55741e-05
4.51687e-05
4.45176e-05
4.45114e-05
4.61446e-05
6.00988e-05
0.000110445
0.000131822
6.97568e-05