/*--------------------------------*- C++ -*----------------------------------*\
  =========                 |
  \\      /  F ield         | OpenFOAM: The Open Source CFD Toolbox
   \\    /   O peration     | Website:  https://openfoam.org
    \\  /    A nd           | Version:  8
     \\/     M anipulation  |
\*---------------------------------------------------------------------------*/
FoamFile
{
    version     2.0;
    format      ascii;
    class       volScalarField;
    location    "300";
    object      p;
}
// * * * * * * * * * * * * * * * * * * * * * * * * * * * * * * * * * * * * * //

dimensions      [1 -1 -2 0 0 0 0];

internalField   nonuniform List<scalar> 
8400
(
21135
36549
51403.3
65346.5
78311.9
90287.8
101327
111512
120951
129760
138055
145949
153559
161001
168386
175824
183416
191242
199365
207829
216659
225856
235402
245268
255408
265761
276249
286787
297294
307709
317983
328020
337727
347042
355964
364536
372835
380954
388991
397045
405211
413605
422423
432002
442830
455427
470419
489697
518155
559041
19782.7
34707.5
49519.6
63464
76353.9
88142.5
98909.1
108800
117936
126438
134432
142043
149396
156617
163827
171137
178650
186446
194589
203118
212046
221365
231044
241037
251284
261704
272194
282657
293007
303177
313151
322878
332270
341288
349923
358201
366167
373881
381414
388833
396195
403569
411067
418878
427286
436584
447095
459646
476152
498218
23636.8
39976.4
55519.6
69855.1
82999.6
94962.7
105849
115837
125050
133587
141573
149144
156433
163564
170662
177843
185220
192885
200913
209350
218219
227516
237230
247329
257759
268446
279308
290280
301278
312202
322843
333059
342817
352123
361018
369556
377810
385868
393822
401762
409765
417916
426314
435106
444507
454779
466208
479177
494049
510345
20228.7
35914.5
51605.4
66171.6
79393.7
91226.5
101734
111109
119638
127503
134853
141838
148599
155271
161985
168870
176045
183604
191609
200091
209049
218456
228274
238441
248869
259444
270082
280755
291442
302018
312287
322160
331589
340561
349081
357177
364897
372303
379466
386454
393334
400169
407026
413994
421221
428924
437360
446766
457173
468383
25429.9
43413.8
60184.8
75221.4
88613.8
100448
110869
120082
128414
136098
143271
150075
156649
163137
169685
176438
183530
191061
199104
207697
216854
226566
236809
247543
258703
270159
281813
293399
304611
315314
325509
335218
344478
353318
361764
369854
377628
385133
392418
399542
406562
413521
420444
427352
434297
441376
448702
456329
464137
471900
22072.6
39866.9
57102.9
72526.2
86051
97786.2
107927
116662
124295
131232
137702
143863
149866
155865
162021
168479
175368
182780
190768
199353
208515
218209
228386
238998
250066
261515
272997
284273
295208
305711
315767
325372
334532
343259
351568
359480
367020
374219
381124
387800
394317
400727
407053
413305
419508
425705
431940
438179
444224
449998
26921.6
47285.3
65576.5
81226
94545.5
105858
115498
123769
130938
137411
143508
149366
155127
160951
167009
173462
180451
188088
196443
205573
215471
226105
237444
249214
260959
272436
283568
294337
304755
314821
324530
333872
342837
351425
359634
367462
374916
382012
388789
395304
401618
407767
413769
419626
425336
430894
436292
441470
446267
450609
24898.4
46070.8
65031.5
80903.5
94103.2
105121
114405
122331
129146
135107
140605
145951
151310
156830
162666
168966
175873
183490
191859
201090
211268
222190
233466
244821
256092
267149
277966
288527
298823
308824
318499
327822
336777
345355
353550
361358
368788
375862
382620
389116
395395
401493
407430
413212
418816
424200
429312
434058
438271
441934
28713.5
52681.2
72258.4
87768.3
100246
110463
118984
126239
132544
138121
143267
148369
153656
159243
165270
171895
179347
187779
197131
207164
217596
228243
238980
249740
260489
271191
281806
292278
302545
312541
322214
331529
340465
349008
357152
364898
372259
379258
385931
392318
398454
404374
410109
415669
421030
426150
430970
435393
439249
442497
29239.1
54901.6
74263.4
89058.7
100775
110328
118299
125113
131113
136582
141752
146849
152164
157951
164385
171585
179528
188108
197234
206766
216582
226630
236877
247305
257878
268528
279161
289674
299969
309972
319630
328915
337807
346302
354402
362124
369485
376513
383238
389696
395920
401947
407807
413512
419051
424387
429458
434145
438253
441656
32172.1
59236.1
77582.9
91627.6
102881
112155
119964
126691
132654
138129
143361
148574
153986
159774
166076
172993
180566
188779
197573
206860
216550
226579
236896
247447
258157
268931
279660
290242
300591
310643
320350
329677
338600
347112
355220
362940
370295
377312
384025
390472
396694
402726
408595
414311
419865
425221
430303
434973
439022
442278
28561.3
55903.1
75626
90206.6
101814
111385
119415
126299
132375
137928
143211
148458
153892
159708
166059
173053
180743
189125
198135
207666
217600
227828
238262
248827
259453
270066
280595
290969
301135
311046
320660
329936
338844
347366
355500
363250
370629
377660
384379
390827
397047
403078
408950
414673
420244
425625
430738
435450
439568
442895
15933
46254.4
69710.1
85874
98208.6
108309
116743
123917
130207
135928
141349
146715
152251
158147
164549
171554
179205
187490
196354
205704
215435
225445
235648
245969
256344
266711
277012
287201
297237
307084
316702
326047
335082
343779
352116
360076
367652
374857
381720
388279
394575
400648
406534
412251
417798
423138
428187
432820
436861
440313
14006.1
39343.6
65490.1
84361.3
98241.2
109565
119155
127362
134536
141004
147047
152907
158809
164955
171503
178562
186186
194372
203079
212236
221759
231567
241586
251749
261991
272248
282459
292569
302529
312292
321813
331058
340000
348617
356884
364781
372300
379450
386254
392740
398940
404884
410607
416119
421389
426333
430808
434681
438089
441144
-13127
12969.8
42695.5
64142.7
79452.8
91879.8
102595
111917
120165
127683
134756
141602
148408
155348
162563
170155
178179
186641
195509
204724
214214
223914
233768
243737
253782
263863
273934
283942
293821
303509
312950
322110
330964
339499
347698
355556
363077
370276
377155
383714
389960
395907
401592
407065
412279
417197
421912
426418
430508
433904
4568.74
19798
50728.1
75452.6
92915.7
107078
119422
130036
139098
146972
154027
160567
166843
173081
179466
186143
193211
200724
208694
217086
225834
234865
244113
253529
263085
272762
282537
292364
302170
311861
321341
330533
339386
347872
355991
363767
371232
378407
385278
391805
397934
403571
408639
413251
417612
421770
425563
428788
431286
432869
-51519.9
-27332.4
7402.89
32277.3
49902.2
65623
81036.2
95676.2
109040
121044
131820
141573
150526
158897
166887
174673
182440
190357
198529
206998
215752
224754
233935
243217
252549
261924
271361
280872
290425
299932
309259
318286
326934
335165
342994
350490
357730
364773
371662
378379
384866
391091
397020
402525
407496
411845
415425
418089
419649
419650
-4311.87
5876.88
38332.1
63480.7
80158.5
94201
108094
121414
133535
144302
153848
162419
170289
177690
184782
191673
198479
205353
212450
219878
227680
235892
244465
253242
262088
270947
279859
288906
298129
307465
316700
325619
334106
342082
349530
356525
363191
369646
375974
382165
388116
393692
398755
403151
406738
409414
411047
411462
410446
407865
-94662.3
-53608.8
-19326.1
5066.18
28071
51722.5
74884.6
96209.3
114920
130832
144173
155408
165074
173642
181443
188660
195401
201828
208216
214893
222106
229873
238043
246395
254726
262960
271176
279549
288238
297283
306590
315914
324941
333446
341346
348705
355687
362460
369097
375574
381793
387586
392771
397172
400621
402971
404015
403384
400291
392204
19562.3
6391.02
3323.78
8488.68
21542
41138.4
64508.2
88595.9
111137
130944
147683
161561
173062
182739
191052
198312
204736
210562
216125
221822
227980
234721
241938
249388
256825
264140
271406
278828
286612
294843
303429
312124
320612
328628
336056
342939
349431
355699
361833
367810
373493
378667
383075
386476
388633
389310
388196
384822
378413
367984
3.09743e+06
3.09692e+06
3.09666e+06
3.09656e+06
3.09651e+06
3.09647e+06
3.09644e+06
3.09642e+06
3.09641e+06
3.09641e+06
3.0964e+06
3.0964e+06
3.0964e+06
3.09639e+06
3.09638e+06
3.09636e+06
3.09634e+06
3.09631e+06
3.09628e+06
3.09625e+06
3.09622e+06
3.09619e+06
3.09616e+06
3.09613e+06
3.0961e+06
3.09607e+06
3.09604e+06
3.096e+06
3.09596e+06
3.09591e+06
3.09585e+06
3.09579e+06
3.09572e+06
3.09565e+06
3.09558e+06
3.09549e+06
3.09541e+06
3.09532e+06
3.09523e+06
3.09514e+06
3.09505e+06
3.09495e+06
3.09485e+06
3.09474e+06
3.09463e+06
3.0945e+06
3.09437e+06
3.09422e+06
3.09405e+06
3.09386e+06
3.09573e+06
3.09602e+06
3.09611e+06
3.09614e+06
3.09616e+06
3.09618e+06
3.0962e+06
3.09621e+06
3.09622e+06
3.09623e+06
3.09624e+06
3.09625e+06
3.09625e+06
3.09625e+06
3.09624e+06
3.09623e+06
3.09621e+06
3.09618e+06
3.09616e+06
3.09613e+06
3.0961e+06
3.09607e+06
3.09604e+06
3.09602e+06
3.09599e+06
3.09596e+06
3.09593e+06
3.09589e+06
3.09585e+06
3.0958e+06
3.09575e+06
3.09568e+06
3.09562e+06
3.09555e+06
3.09547e+06
3.09539e+06
3.09531e+06
3.09522e+06
3.09513e+06
3.09504e+06
3.09495e+06
3.09485e+06
3.09475e+06
3.09464e+06
3.09453e+06
3.09441e+06
3.09427e+06
3.09413e+06
3.09397e+06
3.0938e+06
3.09609e+06
3.09623e+06
3.0963e+06
3.0963e+06
3.09629e+06
3.09628e+06
3.09627e+06
3.09626e+06
3.09625e+06
3.09624e+06
3.09624e+06
3.09623e+06
3.09623e+06
3.09622e+06
3.0962e+06
3.09618e+06
3.09616e+06
3.09613e+06
3.0961e+06
3.09607e+06
3.09604e+06
3.09601e+06
3.09598e+06
3.09595e+06
3.09592e+06
3.09589e+06
3.09585e+06
3.09581e+06
3.09577e+06
3.09572e+06
3.09567e+06
3.0956e+06
3.09554e+06
3.09546e+06
3.09539e+06
3.09531e+06
3.09523e+06
3.09514e+06
3.09505e+06
3.09496e+06
3.09487e+06
3.09477e+06
3.09468e+06
3.09457e+06
3.09446e+06
3.09434e+06
3.09421e+06
3.09407e+06
3.09393e+06
3.09377e+06
3.09602e+06
3.09604e+06
3.09605e+06
3.09604e+06
3.09604e+06
3.09603e+06
3.09603e+06
3.09604e+06
3.09604e+06
3.09605e+06
3.09605e+06
3.09605e+06
3.09605e+06
3.09605e+06
3.09603e+06
3.09602e+06
3.096e+06
3.09598e+06
3.09595e+06
3.09593e+06
3.0959e+06
3.09587e+06
3.09585e+06
3.09582e+06
3.09579e+06
3.09576e+06
3.09573e+06
3.09569e+06
3.09565e+06
3.0956e+06
3.09555e+06
3.09549e+06
3.09542e+06
3.09535e+06
3.09528e+06
3.0952e+06
3.09512e+06
3.09504e+06
3.09495e+06
3.09486e+06
3.09477e+06
3.09468e+06
3.09458e+06
3.09448e+06
3.09437e+06
3.09426e+06
3.09414e+06
3.09401e+06
3.09387e+06
3.09373e+06
3.09595e+06
3.09597e+06
3.09599e+06
3.096e+06
3.09601e+06
3.09602e+06
3.09602e+06
3.09602e+06
3.09603e+06
3.09603e+06
3.09603e+06
3.09603e+06
3.09602e+06
3.09601e+06
3.09599e+06
3.09597e+06
3.09595e+06
3.09593e+06
3.0959e+06
3.09587e+06
3.09584e+06
3.09582e+06
3.09579e+06
3.09576e+06
3.09573e+06
3.0957e+06
3.09566e+06
3.09562e+06
3.09558e+06
3.09553e+06
3.09547e+06
3.09541e+06
3.09535e+06
3.09528e+06
3.0952e+06
3.09513e+06
3.09505e+06
3.09497e+06
3.09488e+06
3.09479e+06
3.09471e+06
3.09462e+06
3.09452e+06
3.09442e+06
3.09432e+06
3.09421e+06
3.09409e+06
3.09397e+06
3.09384e+06
3.09371e+06
3.09587e+06
3.09587e+06
3.09588e+06
3.09589e+06
3.09589e+06
3.09589e+06
3.09589e+06
3.09589e+06
3.09589e+06
3.09589e+06
3.09588e+06
3.09588e+06
3.09587e+06
3.09586e+06
3.09584e+06
3.09583e+06
3.09581e+06
3.09578e+06
3.09576e+06
3.09574e+06
3.09571e+06
3.09569e+06
3.09566e+06
3.09563e+06
3.09561e+06
3.09557e+06
3.09554e+06
3.0955e+06
3.09545e+06
3.09541e+06
3.09535e+06
3.09529e+06
3.09523e+06
3.09516e+06
3.09509e+06
3.09502e+06
3.09494e+06
3.09486e+06
3.09478e+06
3.0947e+06
3.09461e+06
3.09453e+06
3.09444e+06
3.09434e+06
3.09424e+06
3.09414e+06
3.09403e+06
3.09391e+06
3.09379e+06
3.09367e+06
3.09578e+06
3.09578e+06
3.09579e+06
3.0958e+06
3.0958e+06
3.09581e+06
3.09581e+06
3.09582e+06
3.09582e+06
3.09582e+06
3.09582e+06
3.09581e+06
3.0958e+06
3.09579e+06
3.09577e+06
3.09576e+06
3.09574e+06
3.09572e+06
3.09569e+06
3.09567e+06
3.09565e+06
3.09562e+06
3.09559e+06
3.09557e+06
3.09553e+06
3.0955e+06
3.09546e+06
3.09542e+06
3.09538e+06
3.09533e+06
3.09528e+06
3.09522e+06
3.09516e+06
3.09509e+06
3.09502e+06
3.09495e+06
3.09487e+06
3.0948e+06
3.09472e+06
3.09464e+06
3.09455e+06
3.09447e+06
3.09438e+06
3.09429e+06
3.09419e+06
3.09409e+06
3.09399e+06
3.09388e+06
3.09376e+06
3.09365e+06
3.09569e+06
3.09569e+06
3.0957e+06
3.0957e+06
3.09571e+06
3.09571e+06
3.09572e+06
3.09572e+06
3.09572e+06
3.09571e+06
3.09571e+06
3.0957e+06
3.09568e+06
3.09567e+06
3.09565e+06
3.09563e+06
3.09562e+06
3.0956e+06
3.09557e+06
3.09555e+06
3.09553e+06
3.0955e+06
3.09548e+06
3.09545e+06
3.09542e+06
3.09538e+06
3.09535e+06
3.09531e+06
3.09526e+06
3.09522e+06
3.09516e+06
3.09511e+06
3.09505e+06
3.09498e+06
3.09492e+06
3.09485e+06
3.09478e+06
3.0947e+06
3.09463e+06
3.09455e+06
3.09447e+06
3.09439e+06
3.0943e+06
3.09422e+06
3.09412e+06
3.09403e+06
3.09393e+06
3.09383e+06
3.09372e+06
3.09361e+06
3.0956e+06
3.0956e+06
3.09561e+06
3.09561e+06
3.09562e+06
3.09563e+06
3.09563e+06
3.09563e+06
3.09563e+06
3.09562e+06
3.09562e+06
3.0956e+06
3.09559e+06
3.09558e+06
3.09556e+06
3.09554e+06
3.09553e+06
3.09551e+06
3.09549e+06
3.09547e+06
3.09545e+06
3.09542e+06
3.09539e+06
3.09537e+06
3.09533e+06
3.0953e+06
3.09526e+06
3.09522e+06
3.09518e+06
3.09513e+06
3.09508e+06
3.09502e+06
3.09496e+06
3.0949e+06
3.09484e+06
3.09477e+06
3.0947e+06
3.09463e+06
3.09456e+06
3.09448e+06
3.0944e+06
3.09432e+06
3.09424e+06
3.09416e+06
3.09407e+06
3.09398e+06
3.09389e+06
3.09379e+06
3.09369e+06
3.09359e+06
3.09551e+06
3.09551e+06
3.09552e+06
3.09552e+06
3.09553e+06
3.09554e+06
3.09554e+06
3.09554e+06
3.09554e+06
3.09553e+06
3.09552e+06
3.0955e+06
3.09549e+06
3.09547e+06
3.09546e+06
3.09544e+06
3.09542e+06
3.09541e+06
3.09539e+06
3.09537e+06
3.09534e+06
3.09532e+06
3.09529e+06
3.09526e+06
3.09523e+06
3.09519e+06
3.09516e+06
3.09512e+06
3.09507e+06
3.09503e+06
3.09498e+06
3.09492e+06
3.09487e+06
3.09481e+06
3.09475e+06
3.09468e+06
3.09461e+06
3.09455e+06
3.09447e+06
3.0944e+06
3.09433e+06
3.09425e+06
3.09417e+06
3.09409e+06
3.09401e+06
3.09393e+06
3.09384e+06
3.09375e+06
3.09365e+06
3.09356e+06
3.09542e+06
3.09542e+06
3.09543e+06
3.09543e+06
3.09544e+06
3.09545e+06
3.09545e+06
3.09545e+06
3.09544e+06
3.09543e+06
3.09542e+06
3.0954e+06
3.09539e+06
3.09537e+06
3.09536e+06
3.09534e+06
3.09532e+06
3.09531e+06
3.09529e+06
3.09527e+06
3.09525e+06
3.09522e+06
3.09519e+06
3.09516e+06
3.09513e+06
3.0951e+06
3.09506e+06
3.09502e+06
3.09498e+06
3.09493e+06
3.09488e+06
3.09483e+06
3.09478e+06
3.09472e+06
3.09466e+06
3.0946e+06
3.09453e+06
3.09447e+06
3.0944e+06
3.09433e+06
3.09426e+06
3.09418e+06
3.09411e+06
3.09403e+06
3.09395e+06
3.09387e+06
3.09379e+06
3.0937e+06
3.09362e+06
3.09353e+06
3.09533e+06
3.09533e+06
3.09534e+06
3.09534e+06
3.09535e+06
3.09536e+06
3.09536e+06
3.09536e+06
3.09535e+06
3.09534e+06
3.09532e+06
3.09531e+06
3.09529e+06
3.09528e+06
3.09526e+06
3.09525e+06
3.09523e+06
3.09522e+06
3.0952e+06
3.09518e+06
3.09516e+06
3.09513e+06
3.0951e+06
3.09507e+06
3.09504e+06
3.095e+06
3.09497e+06
3.09493e+06
3.09488e+06
3.09484e+06
3.09479e+06
3.09474e+06
3.09469e+06
3.09463e+06
3.09458e+06
3.09452e+06
3.09445e+06
3.09439e+06
3.09433e+06
3.09426e+06
3.09419e+06
3.09412e+06
3.09404e+06
3.09397e+06
3.0939e+06
3.09382e+06
3.09374e+06
3.09366e+06
3.09358e+06
3.0935e+06
3.09524e+06
3.09524e+06
3.09525e+06
3.09525e+06
3.09526e+06
3.09526e+06
3.09526e+06
3.09526e+06
3.09525e+06
3.09523e+06
3.09522e+06
3.0952e+06
3.09518e+06
3.09517e+06
3.09515e+06
3.09514e+06
3.09512e+06
3.09511e+06
3.09509e+06
3.09507e+06
3.09504e+06
3.09502e+06
3.09499e+06
3.09496e+06
3.09492e+06
3.09489e+06
3.09485e+06
3.09482e+06
3.09478e+06
3.09473e+06
3.09469e+06
3.09464e+06
3.09459e+06
3.09453e+06
3.09448e+06
3.09442e+06
3.09436e+06
3.0943e+06
3.09424e+06
3.09418e+06
3.09411e+06
3.09404e+06
3.09397e+06
3.0939e+06
3.09383e+06
3.09376e+06
3.09368e+06
3.09361e+06
3.09353e+06
3.09346e+06
3.09514e+06
3.09515e+06
3.09516e+06
3.09516e+06
3.09517e+06
3.09518e+06
3.09518e+06
3.09517e+06
3.09516e+06
3.09515e+06
3.09513e+06
3.09512e+06
3.0951e+06
3.09509e+06
3.09507e+06
3.09506e+06
3.09505e+06
3.09503e+06
3.09501e+06
3.09499e+06
3.09497e+06
3.09494e+06
3.09491e+06
3.09488e+06
3.09484e+06
3.09481e+06
3.09477e+06
3.09474e+06
3.0947e+06
3.09465e+06
3.09461e+06
3.09456e+06
3.09451e+06
3.09446e+06
3.0944e+06
3.09435e+06
3.09429e+06
3.09423e+06
3.09417e+06
3.09411e+06
3.09404e+06
3.09398e+06
3.09391e+06
3.09384e+06
3.09377e+06
3.0937e+06
3.09364e+06
3.09357e+06
3.0935e+06
3.09343e+06
3.09505e+06
3.09505e+06
3.09506e+06
3.09507e+06
3.09507e+06
3.09507e+06
3.09507e+06
3.09506e+06
3.09504e+06
3.09503e+06
3.09501e+06
3.09499e+06
3.09497e+06
3.09496e+06
3.09495e+06
3.09493e+06
3.09492e+06
3.0949e+06
3.09489e+06
3.09486e+06
3.09484e+06
3.09481e+06
3.09478e+06
3.09475e+06
3.09472e+06
3.09469e+06
3.09465e+06
3.09462e+06
3.09458e+06
3.09454e+06
3.09449e+06
3.09445e+06
3.0944e+06
3.09435e+06
3.0943e+06
3.09425e+06
3.09419e+06
3.09414e+06
3.09408e+06
3.09402e+06
3.09395e+06
3.09389e+06
3.09382e+06
3.09376e+06
3.09369e+06
3.09363e+06
3.09357e+06
3.09351e+06
3.09344e+06
3.09338e+06
3.09494e+06
3.09496e+06
3.09498e+06
3.095e+06
3.09501e+06
3.09502e+06
3.09501e+06
3.09501e+06
3.09499e+06
3.09498e+06
3.09496e+06
3.09494e+06
3.09493e+06
3.09491e+06
3.0949e+06
3.09488e+06
3.09487e+06
3.09485e+06
3.09483e+06
3.0948e+06
3.09477e+06
3.09474e+06
3.09471e+06
3.09468e+06
3.09465e+06
3.09462e+06
3.09458e+06
3.09454e+06
3.09451e+06
3.09446e+06
3.09442e+06
3.09437e+06
3.09432e+06
3.09428e+06
3.09423e+06
3.09418e+06
3.09413e+06
3.09407e+06
3.09401e+06
3.09395e+06
3.09389e+06
3.09382e+06
3.09376e+06
3.09369e+06
3.09363e+06
3.09357e+06
3.09352e+06
3.09346e+06
3.09341e+06
3.09335e+06
3.09482e+06
3.09484e+06
3.09486e+06
3.09486e+06
3.09485e+06
3.09485e+06
3.09484e+06
3.09483e+06
3.09482e+06
3.0948e+06
3.09479e+06
3.09478e+06
3.09476e+06
3.09475e+06
3.09474e+06
3.09473e+06
3.09472e+06
3.0947e+06
3.09468e+06
3.09466e+06
3.09463e+06
3.0946e+06
3.09458e+06
3.09455e+06
3.09452e+06
3.09449e+06
3.09445e+06
3.09442e+06
3.09438e+06
3.09434e+06
3.0943e+06
3.09425e+06
3.09421e+06
3.09416e+06
3.09412e+06
3.09407e+06
3.09402e+06
3.09397e+06
3.09391e+06
3.09385e+06
3.09379e+06
3.09372e+06
3.09366e+06
3.0936e+06
3.09354e+06
3.09349e+06
3.09344e+06
3.09339e+06
3.09334e+06
3.0933e+06
3.0947e+06
3.09484e+06
3.09492e+06
3.09492e+06
3.09491e+06
3.0949e+06
3.09488e+06
3.09486e+06
3.09483e+06
3.09481e+06
3.09479e+06
3.09476e+06
3.09475e+06
3.09473e+06
3.09471e+06
3.09469e+06
3.09468e+06
3.09465e+06
3.09463e+06
3.0946e+06
3.09457e+06
3.09454e+06
3.09451e+06
3.09448e+06
3.09445e+06
3.09442e+06
3.09438e+06
3.09435e+06
3.09431e+06
3.09427e+06
3.09422e+06
3.09418e+06
3.09413e+06
3.09409e+06
3.09404e+06
3.094e+06
3.09395e+06
3.09389e+06
3.09384e+06
3.09378e+06
3.09371e+06
3.09365e+06
3.09359e+06
3.09353e+06
3.09348e+06
3.09342e+06
3.09338e+06
3.09333e+06
3.09329e+06
3.09326e+06
3.09415e+06
3.09444e+06
3.09453e+06
3.09457e+06
3.09459e+06
3.09461e+06
3.09462e+06
3.09462e+06
3.09461e+06
3.0946e+06
3.09459e+06
3.09458e+06
3.09457e+06
3.09457e+06
3.09455e+06
3.09454e+06
3.09453e+06
3.09451e+06
3.09449e+06
3.09447e+06
3.09444e+06
3.09441e+06
3.09438e+06
3.09436e+06
3.09433e+06
3.09429e+06
3.09426e+06
3.09423e+06
3.09419e+06
3.09415e+06
3.09411e+06
3.09406e+06
3.09402e+06
3.09398e+06
3.09394e+06
3.09389e+06
3.09384e+06
3.09379e+06
3.09373e+06
3.09367e+06
3.09361e+06
3.09355e+06
3.09349e+06
3.09343e+06
3.09338e+06
3.09333e+06
3.09329e+06
3.09325e+06
3.09321e+06
3.09319e+06
3.09565e+06
3.09514e+06
3.09489e+06
3.09479e+06
3.09474e+06
3.0947e+06
3.09466e+06
3.09463e+06
3.09461e+06
3.09459e+06
3.09457e+06
3.09455e+06
3.09453e+06
3.09452e+06
3.0945e+06
3.09448e+06
3.09446e+06
3.09444e+06
3.09442e+06
3.09439e+06
3.09436e+06
3.09434e+06
3.09431e+06
3.09428e+06
3.09425e+06
3.09421e+06
3.09418e+06
3.09414e+06
3.0941e+06
3.09406e+06
3.09402e+06
3.09398e+06
3.09394e+06
3.09389e+06
3.09385e+06
3.0938e+06
3.09375e+06
3.0937e+06
3.09364e+06
3.09358e+06
3.09352e+06
3.09346e+06
3.0934e+06
3.09335e+06
3.09329e+06
3.09325e+06
3.0932e+06
3.09317e+06
3.09314e+06
3.09313e+06
3.07317e+06
3.07383e+06
3.07429e+06
3.0751e+06
3.07589e+06
3.07689e+06
3.07794e+06
3.07915e+06
3.08045e+06
3.08188e+06
3.08343e+06
3.0851e+06
3.08688e+06
3.08879e+06
3.09079e+06
3.09283e+06
3.09481e+06
3.09651e+06
3.09758e+06
3.09781e+06
3.07506e+06
3.07568e+06
3.07613e+06
3.07691e+06
3.07767e+06
3.07862e+06
3.07963e+06
3.08078e+06
3.08202e+06
3.08337e+06
3.08481e+06
3.08635e+06
3.08797e+06
3.08967e+06
3.09141e+06
3.09313e+06
3.09473e+06
3.09606e+06
3.0969e+06
3.09714e+06
3.0767e+06
3.07729e+06
3.07771e+06
3.07846e+06
3.07917e+06
3.08008e+06
3.08103e+06
3.08212e+06
3.08327e+06
3.08451e+06
3.08583e+06
3.08722e+06
3.08867e+06
3.09015e+06
3.09162e+06
3.09304e+06
3.09433e+06
3.09538e+06
3.09606e+06
3.09631e+06
3.07811e+06
3.07867e+06
3.07907e+06
3.07978e+06
3.08045e+06
3.08131e+06
3.08219e+06
3.0832e+06
3.08425e+06
3.08539e+06
3.08658e+06
3.08782e+06
3.08908e+06
3.09036e+06
3.0916e+06
3.09278e+06
3.09382e+06
3.09467e+06
3.09521e+06
3.09546e+06
3.07933e+06
3.07987e+06
3.08024e+06
3.08091e+06
3.08153e+06
3.08233e+06
3.08315e+06
3.08407e+06
3.08503e+06
3.08606e+06
3.08711e+06
3.08821e+06
3.08931e+06
3.0904e+06
3.09145e+06
3.09243e+06
3.09328e+06
3.09398e+06
3.09442e+06
3.09465e+06
3.08039e+06
3.0809e+06
3.08124e+06
3.08188e+06
3.08245e+06
3.08319e+06
3.08393e+06
3.08478e+06
3.08564e+06
3.08656e+06
3.0875e+06
3.08846e+06
3.08942e+06
3.09035e+06
3.09124e+06
3.09205e+06
3.09275e+06
3.09334e+06
3.0937e+06
3.09392e+06
3.0813e+06
3.08178e+06
3.0821e+06
3.0827e+06
3.08322e+06
3.08391e+06
3.08458e+06
3.08535e+06
3.08612e+06
3.08695e+06
3.08778e+06
3.08862e+06
3.08945e+06
3.09025e+06
3.091e+06
3.09169e+06
3.09227e+06
3.09277e+06
3.09307e+06
3.09328e+06
3.08208e+06
3.08254e+06
3.08283e+06
3.0834e+06
3.08387e+06
3.08451e+06
3.08512e+06
3.08581e+06
3.0865e+06
3.08724e+06
3.08797e+06
3.08872e+06
3.08943e+06
3.09013e+06
3.09076e+06
3.09135e+06
3.09184e+06
3.09227e+06
3.09252e+06
3.09272e+06
3.08275e+06
3.08319e+06
3.08346e+06
3.08399e+06
3.08443e+06
3.08501e+06
3.08556e+06
3.08619e+06
3.08681e+06
3.08747e+06
3.08812e+06
3.08877e+06
3.08939e+06
3.08999e+06
3.09054e+06
3.09105e+06
3.09147e+06
3.09184e+06
3.09205e+06
3.09224e+06
3.08333e+06
3.08375e+06
3.084e+06
3.0845e+06
3.08489e+06
3.08543e+06
3.08593e+06
3.0865e+06
3.08705e+06
3.08765e+06
3.08822e+06
3.08879e+06
3.08934e+06
3.08986e+06
3.09034e+06
3.09078e+06
3.09114e+06
3.09147e+06
3.09165e+06
3.09183e+06
3.08383e+06
3.08423e+06
3.08446e+06
3.08493e+06
3.08529e+06
3.08579e+06
3.08623e+06
3.08676e+06
3.08725e+06
3.08778e+06
3.08829e+06
3.0888e+06
3.08928e+06
3.08975e+06
3.09016e+06
3.09055e+06
3.09085e+06
3.09116e+06
3.09131e+06
3.09149e+06
3.08427e+06
3.08465e+06
3.08486e+06
3.0853e+06
3.08563e+06
3.08609e+06
3.08649e+06
3.08697e+06
3.08741e+06
3.08789e+06
3.08834e+06
3.0888e+06
3.08922e+06
3.08964e+06
3.09e+06
3.09035e+06
3.09061e+06
3.09089e+06
3.09102e+06
3.09119e+06
3.08464e+06
3.08501e+06
3.08521e+06
3.08562e+06
3.08591e+06
3.08634e+06
3.08671e+06
3.08715e+06
3.08755e+06
3.08798e+06
3.08838e+06
3.0888e+06
3.08917e+06
3.08954e+06
3.08986e+06
3.09017e+06
3.09041e+06
3.09066e+06
3.09078e+06
3.09095e+06
3.08497e+06
3.08532e+06
3.0855e+06
3.08589e+06
3.08616e+06
3.08656e+06
3.0869e+06
3.08731e+06
3.08767e+06
3.08806e+06
3.08842e+06
3.08879e+06
3.08912e+06
3.08946e+06
3.08974e+06
3.09003e+06
3.09023e+06
3.09047e+06
3.09058e+06
3.09074e+06
3.08525e+06
3.0856e+06
3.08576e+06
3.08613e+06
3.08639e+06
3.08676e+06
3.08707e+06
3.08744e+06
3.08777e+06
3.08813e+06
3.08845e+06
3.08879e+06
3.08908e+06
3.08939e+06
3.08964e+06
3.0899e+06
3.09009e+06
3.09031e+06
3.09041e+06
3.09057e+06
3.0855e+06
3.08584e+06
3.08599e+06
3.08635e+06
3.08658e+06
3.08693e+06
3.08721e+06
3.08756e+06
3.08785e+06
3.08818e+06
3.08847e+06
3.08878e+06
3.08905e+06
3.08933e+06
3.08956e+06
3.0898e+06
3.08997e+06
3.09017e+06
3.09027e+06
3.09042e+06
3.08573e+06
3.08605e+06
3.0862e+06
3.08653e+06
3.08675e+06
3.08708e+06
3.08734e+06
3.08766e+06
3.08792e+06
3.08823e+06
3.08849e+06
3.08878e+06
3.08902e+06
3.08928e+06
3.08948e+06
3.08971e+06
3.08986e+06
3.09006e+06
3.09015e+06
3.0903e+06
3.08592e+06
3.08624e+06
3.08637e+06
3.0867e+06
3.0869e+06
3.08721e+06
3.08744e+06
3.08774e+06
3.08799e+06
3.08827e+06
3.08851e+06
3.08878e+06
3.089e+06
3.08923e+06
3.08942e+06
3.08963e+06
3.08977e+06
3.08996e+06
3.09004e+06
3.0902e+06
3.0861e+06
3.0864e+06
3.08653e+06
3.08684e+06
3.08703e+06
3.08732e+06
3.08754e+06
3.08782e+06
3.08804e+06
3.08831e+06
3.08853e+06
3.08878e+06
3.08897e+06
3.0892e+06
3.08937e+06
3.08957e+06
3.0897e+06
3.08989e+06
3.08996e+06
3.09011e+06
3.08625e+06
3.08655e+06
3.08667e+06
3.08697e+06
3.08714e+06
3.08742e+06
3.08762e+06
3.08789e+06
3.0881e+06
3.08835e+06
3.08855e+06
3.08878e+06
3.08896e+06
3.08917e+06
3.08933e+06
3.08952e+06
3.08964e+06
3.08982e+06
3.08989e+06
3.09004e+06
3.08639e+06
3.08668e+06
3.0868e+06
3.08708e+06
3.08724e+06
3.08751e+06
3.0877e+06
3.08795e+06
3.08814e+06
3.08838e+06
3.08857e+06
3.08878e+06
3.08895e+06
3.08915e+06
3.0893e+06
3.08948e+06
3.0896e+06
3.08977e+06
3.08983e+06
3.08998e+06
3.08651e+06
3.0868e+06
3.08691e+06
3.08718e+06
3.08734e+06
3.08759e+06
3.08777e+06
3.08801e+06
3.08819e+06
3.08841e+06
3.08858e+06
3.08879e+06
3.08895e+06
3.08914e+06
3.08928e+06
3.08945e+06
3.08956e+06
3.08972e+06
3.08979e+06
3.08993e+06
3.08662e+06
3.0869e+06
3.087e+06
3.08727e+06
3.08742e+06
3.08766e+06
3.08783e+06
3.08806e+06
3.08822e+06
3.08844e+06
3.0886e+06
3.0888e+06
3.08895e+06
3.08913e+06
3.08926e+06
3.08943e+06
3.08953e+06
3.08969e+06
3.08975e+06
3.08989e+06
3.08671e+06
3.08699e+06
3.08709e+06
3.08735e+06
3.08749e+06
3.08773e+06
3.08788e+06
3.0881e+06
3.08826e+06
3.08847e+06
3.08862e+06
3.08881e+06
3.08896e+06
3.08913e+06
3.08925e+06
3.08942e+06
3.08951e+06
3.08967e+06
3.08973e+06
3.08987e+06
3.0868e+06
3.08707e+06
3.08716e+06
3.08742e+06
3.08755e+06
3.08778e+06
3.08793e+06
3.08814e+06
3.0883e+06
3.08849e+06
3.08864e+06
3.08883e+06
3.08896e+06
3.08913e+06
3.08925e+06
3.08941e+06
3.0895e+06
3.08965e+06
3.08971e+06
3.08985e+06
3.08687e+06
3.08714e+06
3.08723e+06
3.08749e+06
3.08761e+06
3.08784e+06
3.08798e+06
3.08819e+06
3.08833e+06
3.08853e+06
3.08867e+06
3.08884e+06
3.08897e+06
3.08914e+06
3.08925e+06
3.0894e+06
3.08949e+06
3.08964e+06
3.0897e+06
3.08984e+06
3.08694e+06
3.08721e+06
3.0873e+06
3.08755e+06
3.08768e+06
3.0879e+06
3.08803e+06
3.08823e+06
3.08837e+06
3.08856e+06
3.08869e+06
3.08886e+06
3.08898e+06
3.08914e+06
3.08925e+06
3.0894e+06
3.08949e+06
3.08964e+06
3.08969e+06
3.08983e+06
3.08702e+06
3.08728e+06
3.08737e+06
3.08762e+06
3.08773e+06
3.08795e+06
3.08808e+06
3.08827e+06
3.08841e+06
3.08859e+06
3.08871e+06
3.08888e+06
3.089e+06
3.08915e+06
3.08925e+06
3.0894e+06
3.08948e+06
3.08963e+06
3.08968e+06
3.08982e+06
3.08708e+06
3.08735e+06
3.08743e+06
3.08768e+06
3.08779e+06
3.088e+06
3.08812e+06
3.08832e+06
3.08844e+06
3.08862e+06
3.08874e+06
3.0889e+06
3.08901e+06
3.08916e+06
3.08926e+06
3.08941e+06
3.08948e+06
3.08963e+06
3.08967e+06
3.08981e+06
3.08715e+06
3.08741e+06
3.08749e+06
3.08773e+06
3.08784e+06
3.08805e+06
3.08817e+06
3.08835e+06
3.08847e+06
3.08864e+06
3.08876e+06
3.08892e+06
3.08902e+06
3.08917e+06
3.08927e+06
3.08941e+06
3.08948e+06
3.08962e+06
3.08967e+06
3.0898e+06
3.08721e+06
3.08747e+06
3.08755e+06
3.08778e+06
3.08789e+06
3.08809e+06
3.08821e+06
3.08839e+06
3.08851e+06
3.08867e+06
3.08878e+06
3.08894e+06
3.08904e+06
3.08918e+06
3.08927e+06
3.08941e+06
3.08948e+06
3.08962e+06
3.08967e+06
3.0898e+06
3.08727e+06
3.08752e+06
3.0876e+06
3.08783e+06
3.08794e+06
3.08814e+06
3.08825e+06
3.08842e+06
3.08854e+06
3.0887e+06
3.0888e+06
3.08896e+06
3.08905e+06
3.0892e+06
3.08928e+06
3.08942e+06
3.08949e+06
3.08963e+06
3.08967e+06
3.0898e+06
3.08732e+06
3.08758e+06
3.08765e+06
3.08788e+06
3.08798e+06
3.08818e+06
3.08829e+06
3.08846e+06
3.08857e+06
3.08873e+06
3.08883e+06
3.08898e+06
3.08907e+06
3.08921e+06
3.08929e+06
3.08943e+06
3.08949e+06
3.08963e+06
3.08967e+06
3.0898e+06
3.08737e+06
3.08763e+06
3.0877e+06
3.08793e+06
3.08803e+06
3.08822e+06
3.08832e+06
3.0885e+06
3.0886e+06
3.08876e+06
3.08886e+06
3.089e+06
3.08909e+06
3.08923e+06
3.08931e+06
3.08944e+06
3.08951e+06
3.08964e+06
3.08968e+06
3.08981e+06
3.08742e+06
3.08768e+06
3.08775e+06
3.08798e+06
3.08807e+06
3.08826e+06
3.08836e+06
3.08853e+06
3.08864e+06
3.08879e+06
3.08889e+06
3.08903e+06
3.08912e+06
3.08925e+06
3.08933e+06
3.08946e+06
3.08952e+06
3.08966e+06
3.08969e+06
3.08982e+06
3.08747e+06
3.08772e+06
3.08779e+06
3.08801e+06
3.08811e+06
3.0883e+06
3.0884e+06
3.08857e+06
3.08867e+06
3.08882e+06
3.08892e+06
3.08906e+06
3.08914e+06
3.08927e+06
3.08935e+06
3.08948e+06
3.08954e+06
3.08967e+06
3.08971e+06
3.08984e+06
3.0875e+06
3.08775e+06
3.08782e+06
3.08805e+06
3.08814e+06
3.08833e+06
3.08844e+06
3.0886e+06
3.0887e+06
3.08885e+06
3.08895e+06
3.08908e+06
3.08917e+06
3.0893e+06
3.08938e+06
3.0895e+06
3.08956e+06
3.0897e+06
3.08973e+06
3.08986e+06
3.08753e+06
3.08778e+06
3.08785e+06
3.08808e+06
3.08817e+06
3.08837e+06
3.08847e+06
3.08863e+06
3.08873e+06
3.08888e+06
3.08897e+06
3.08911e+06
3.0892e+06
3.08933e+06
3.0894e+06
3.08953e+06
3.08959e+06
3.08972e+06
3.08975e+06
3.08988e+06
3.08755e+06
3.0878e+06
3.08787e+06
3.0881e+06
3.0882e+06
3.08839e+06
3.08849e+06
3.08866e+06
3.08876e+06
3.08891e+06
3.089e+06
3.08914e+06
3.08923e+06
3.08936e+06
3.08943e+06
3.08956e+06
3.08961e+06
3.08974e+06
3.08978e+06
3.08991e+06
3.08758e+06
3.08783e+06
3.0879e+06
3.08813e+06
3.08822e+06
3.08841e+06
3.08851e+06
3.08868e+06
3.08878e+06
3.08893e+06
3.08902e+06
3.08916e+06
3.08925e+06
3.08938e+06
3.08945e+06
3.08958e+06
3.08963e+06
3.08977e+06
3.0898e+06
3.08993e+06
3.0876e+06
3.08785e+06
3.08792e+06
3.08815e+06
3.08824e+06
3.08843e+06
3.08853e+06
3.08869e+06
3.08879e+06
3.08895e+06
3.08904e+06
3.08918e+06
3.08927e+06
3.0894e+06
3.08947e+06
3.0896e+06
3.08965e+06
3.08978e+06
3.08982e+06
3.08994e+06
3.08762e+06
3.08788e+06
3.08794e+06
3.08817e+06
3.08826e+06
3.08844e+06
3.08854e+06
3.08871e+06
3.08881e+06
3.08896e+06
3.08906e+06
3.0892e+06
3.08928e+06
3.08941e+06
3.08948e+06
3.08961e+06
3.08967e+06
3.0898e+06
3.08983e+06
3.08996e+06
3.08765e+06
3.0879e+06
3.08796e+06
3.08818e+06
3.08827e+06
3.08846e+06
3.08855e+06
3.08872e+06
3.08882e+06
3.08897e+06
3.08907e+06
3.08921e+06
3.08929e+06
3.08942e+06
3.08949e+06
3.08962e+06
3.08967e+06
3.08981e+06
3.08984e+06
3.08996e+06
3.08766e+06
3.08791e+06
3.08797e+06
3.08819e+06
3.08828e+06
3.08847e+06
3.08857e+06
3.08873e+06