/*--------------------------------*- C++ -*----------------------------------*\
  =========                 |
  \\      /  F ield         | OpenFOAM: The Open Source CFD Toolbox
   \\    /   O peration     | Website:  https://openfoam.org
    \\  /    A nd           | Version:  8
     \\/     M anipulation  |
\*---------------------------------------------------------------------------*/
FoamFile
{
    version     2.0;
    format      ascii;
    class       surfaceScalarField;
    location    "300";
    object      phi;
}
// * * * * * * * * * * * * * * * * * * * * * * * * * * * * * * * * * * * * * //

dimensions      [1 0 -1 0 0 0 0];

internalField   nonuniform List<scalar> 
16360
(
-7.41719
-0.00540967
-7.41342
-0.00376219
-7.41113
-0.00228919
-7.41051
-0.000613228
-7.41179
0.00129294
-7.41516
0.00336814
-7.42068
0.00550776
-7.42833
0.00763658
-7.43803
0.00968734
-7.44965
0.0116094
-7.46302
0.0133601
-7.47793
0.0149014
-7.49414
0.0162036
-7.51137
0.0172364
-7.52935
0.0179735
-7.54775
0.0183958
-7.56623
0.0184905
-7.58448
0.0182496
-7.60214
0.0176723
-7.6189
0.0167698
-7.63446
0.0155653
-7.64854
0.0140914
-7.66093
0.0123859
-7.67143
0.0104971
-7.67991
0.00847605
-7.68631
0.00638313
-7.69059
0.00428239
-7.6928
0.00222594
-7.69304
0.000256864
-7.69146
-0.00158562
-7.68816
-0.00330112
-7.68337
-0.00479569
-7.67734
-0.00602659
-7.67035
-0.00698091
-7.66269
-0.00766838
-7.6546
-0.00810581
-7.64629
-0.00832015
-7.63794
-0.0083519
-7.62969
-0.00825072
-7.62161
-0.00807372
-7.6137
-0.00788869
-7.60592
-0.00777885
-7.59807
-0.0078437
-7.58986
-0.008209
-7.58078
-0.00906868
-7.57003
-0.0107409
-7.55637
-0.01366
-7.53816
-0.0182115
-7.51317
-0.0250192
-0.0379922
-7.47521
-7.28583
-0.0097192
-7.28063
-0.00895447
-7.27612
-0.00678597
-7.27307
-0.00365728
-7.27185
7.12227e-05
-7.2727
0.00419849
-7.27582
0.00860185
-7.28126
0.0130551
-7.28892
0.0173314
-7.29865
0.0213169
-7.31022
0.0249268
-7.32341
0.0280845
-7.33793
0.0307266
-7.3535
0.0328007
-7.36978
0.0342599
-7.38644
0.0350613
-7.4031
0.0351732
-7.41941
0.0345773
-7.435
0.033278
-7.44952
0.0313014
-7.46265
0.0286998
-7.4741
0.0255468
-7.48364
0.0219275
-7.49111
0.0179445
-7.49637
0.0137222
-7.49937
0.0093933
-7.50015
0.00507702
-7.49879
0.000876496
-7.49545
-0.00308872
-7.49037
-0.00667263
-7.48391
-0.00975701
-7.47647
-0.0122222
-7.46842
-0.0140706
-7.46008
-0.0153319
-7.45171
-0.0160594
-7.44351
-0.0163151
-7.43565
-0.016178
-7.42825
-0.0157387
-7.42138
-0.0150941
-7.41509
-0.0143461
-7.40936
-0.0136061
-7.40413
-0.0130013
-7.39929
-0.0126787
-7.39466
-0.0128253
-7.38999
-0.0137207
-7.38496
-0.0157748
-7.37914
-0.0194952
-7.37182
-0.0255171
-7.36165
-0.0351688
-0.0513096
-7.34833
-6.71847
-0.0237503
-6.70789
-0.0195191
-6.69962
-0.0150446
-6.69345
-0.00982713
-6.68945
-0.00392844
-6.68769
0.00242722
-6.68811
0.0090171
-6.6906
0.0155453
-6.69507
0.0218129
-6.70137
0.02762
-6.70928
0.0328278
-6.71853
0.0373297
-6.72885
0.0410378
-6.73991
0.0438723
-6.75141
0.0457641
-6.76298
0.0466514
-6.7743
0.0464936
-6.785
0.0452775
-6.79475
0.0430265
-6.80324
0.0397975
-6.81022
0.0356828
-6.81547
0.0308001
-6.81885
0.0252939
-6.82025
0.0193342
-6.81965
0.0131128
-6.81709
0.00683449
-6.81269
0.000674692
-6.80659
-0.00524219
-6.79896
-0.0107322
-6.7902
-0.015443
-6.78076
-0.0191852
-6.77095
-0.0220194
-6.76109
-0.023949
-6.75139
-0.0250513
-6.74205
-0.0254104
-6.73322
-0.0251461
-6.725
-0.0243902
-6.71745
-0.0232808
-6.71058
-0.0219563
-6.70435
-0.02056
-6.69871
-0.0192448
-6.69354
-0.0181766
-6.68866
-0.0175462
-6.68387
-0.0175903
-6.67896
-0.0186267
-6.67367
-0.0210754
-6.66776
-0.0254218
-6.661
-0.0322829
-6.65335
-0.0428363
-0.0596846
-6.64496
-6.19722
-0.0315655
-6.1871
-0.0296312
-6.17757
-0.0245631
-6.16982
-0.0175714
-6.16426
-0.0094884
-6.16098
-0.000852495
-6.15988
0.00793815
-6.16102
0.0167137
-6.16436
0.0251709
-6.16966
0.0329183
-6.17661
0.0397652
-6.18487
0.0455766
-6.19406
0.0502439
-6.20383
0.0536655
-6.2138
0.055746
-6.22355
0.0564124
-6.23269
0.0556198
-6.24079
0.0533688
-6.24747
0.0497051
-6.25238
0.0447243
-6.25524
0.0385639
-6.25585
0.0314108
-6.25406
0.023495
-6.2498
0.0150746
-6.24312
0.00642466
-6.23416
-0.00211777
-6.22323
-0.0102612
-6.21081
-0.0176704
-6.19772
-0.0238229
-6.18453
-0.0286195
-6.17165
-0.0320478
-6.15947
-0.0342125
-6.1482
-0.0352286
-6.138
-0.0352492
-6.12896
-0.0344416
-6.12112
-0.0329841
-6.11445
-0.0310529
-6.10892
-0.0288135
-6.10444
-0.026428
-6.10092
-0.024066
-6.09826
-0.0219066
-6.0963
-0.0201309
-6.0949
-0.0189405
-6.09389
-0.0185856
-6.09313
-0.0193837
-6.09245
-0.0217314
-6.09174
-0.026102
-6.09089
-0.0331229
-6.08998
-0.0437632
-0.0591595
-6.09049
-5.57503
-0.0532915
-5.55827
-0.0463793
-5.54468
-0.0381556
-5.53377
-0.028481
-5.52542
-0.0178384
-5.51945
-0.00679833
-5.51566
0.00418127
-5.51374
0.0148192
-5.51331
0.0247492
-5.51417
0.0337601
-5.51601
0.0415819
-5.51847
0.0480331
-5.52117
0.0529655
-5.52374
0.0562489
-5.52575
0.057771
-5.52682
0.057458
-5.5265
0.0552823
-5.52442
0.0512706
-5.52023
0.0455121
-5.51366
0.0381614
-5.50455
0.0294522
-5.49285
0.0196884
-5.4786
0.00921322
-5.46194
-0.00160946
-5.44306
-0.0124689
-5.42253
-0.0226676
-5.40143
-0.0313777
-5.38096
-0.0381562
-5.36167
-0.0431095
-5.34388
-0.0464061
-5.32776
-0.0481651
-5.3134
-0.0485721
-5.3008
-0.0478234
-5.2899
-0.0461372
-5.28061
-0.0437281
-5.2728
-0.0407948
-5.26634
-0.0375182
-5.26108
-0.034068
-5.25687
-0.0306136
-5.2536
-0.0273262
-5.25112
-0.0243767
-5.24931
-0.0219346
-5.24806
-0.0201809
-5.24729
-0.0193468
-5.24696
-0.0197173
-5.24704
-0.0216343
-5.2476
-0.0255262
-5.24877
-0.0319346
-5.25097
-0.0415691
-0.055456
-5.25467
-4.92683
-0.067954
-4.90962
-0.0635969
-4.8936
-0.054172
-4.88007
-0.0420183
-4.86918
-0.0287144
-4.86072
-0.0152411
-4.85428
-0.00223623
-4.8493
0.00984899
-4.8456
0.0210363
-4.84302
0.031146
-4.84112
0.0396647
-4.83944
0.0463656
-4.83753
0.0510791
-4.83493
0.0536657
-4.83119
0.0540219
-4.82584
0.052087
-4.81843
0.0478631
-4.80858
0.0414214
-4.79598
0.03293
-4.78044
0.0226361
-4.76193
0.0109306
-4.74057
-0.00168092
-4.71668
-0.0146912
-4.69093
-0.02736
-4.66504
-0.0383583
-4.64059
-0.0471095
-4.61829
-0.0536877
-4.59832
-0.0581186
-4.5808
-0.0606192
-4.56576
-0.0614416
-4.55308
-0.0608319
-4.54259
-0.0590422
-4.53408
-0.0563202
-4.52731
-0.0528986
-4.52207
-0.0489835
-4.51813
-0.0447538
-4.51526
-0.0403736
-4.5133
-0.0360051
-4.51209
-0.0318092
-4.51149
-0.0279394
-4.51135
-0.0245334
-4.51155
-0.0217297
-4.51204
-0.0196886
-4.51277
-0.0186076
-4.51378
-0.0187154
-4.51515
-0.0202712
-4.51708
-0.023597
-4.51991
-0.0291157
-4.52412
-0.0373469
-0.0486965
-4.53084
-4.23895
-0.0988643
-4.21393
-0.0886258
-4.19346
-0.074658
-4.17681
-0.0586731
-4.16333
-0.0421821
-4.15233
-0.0262158
-4.14317
-0.0113885
-4.13527
0.00193769
-4.12791
0.01363
-4.1204
0.0236185
-4.11251
0.0317646
-4.10381
0.0376793
-4.09385
0.0411329
-4.08219
0.0419905
-4.06837
0.0401782
-4.05199
0.0356785
-4.03268
0.0285357
-4.01017
0.0189132
-3.98438
0.00714586
-3.95533
-0.00642743
-3.92331
-0.0211214
-3.8894
-0.0356292
-3.85576
-0.0483299
-3.82478
-0.0583277
-3.79743
-0.0656999
-3.77376
-0.070778
-3.75373
-0.0737237
-3.73702
-0.074839
-3.72325
-0.0743896
-3.71201
-0.0726615
-3.70291
-0.069903
-3.69558
-0.0663511
-3.6897
-0.0622096
-3.68498
-0.0576498
-3.68117
-0.0528164
-3.67806
-0.0478467
-3.67553
-0.0428812
-3.67344
-0.0380614
-3.67172
-0.0335217
-3.6703
-0.0293816
-3.66909
-0.0257484
-3.66806
-0.0227426
-3.66723
-0.0205124
-3.66664
-0.0192153
-3.66638
-0.0190076
-3.66658
-0.0200761
-3.66751
-0.0226647
-3.66957
-0.0270613
-3.67333
-0.0335708
-0.0425812
-3.6794
-3.50588
-0.124539
-3.47947
-0.115055
-3.45687
-0.0972718
-3.43836
-0.0771888
-3.42305
-0.0574976
-3.4099
-0.0393462
-3.39808
-0.0232244
-3.38677
-0.00938964
-3.37509
0.00191289
-3.36232
0.0108406
-3.34825
0.0177016
-3.33262
0.0220764
-3.31497
0.0234863
-3.29484
0.0218437
-3.27184
0.0171529
-3.24571
0.00952642
-3.21624
-0.000911695
-3.18344
-0.0138728
-3.14783
-0.0284687
-3.11135
-0.0429436
-3.07694
-0.0555733
-3.04692
-0.0656562
-3.02198
-0.0732385
-3.00186
-0.0784081
-2.98606
-0.0814711
-2.974
-0.0828454
-2.96492
-0.0828276
-2.9581
-0.081667
-2.95293
-0.0795526
-2.9489
-0.076653
-2.94565
-0.0731145
-2.94293
-0.0690694
-2.94053
-0.064629
-2.9383
-0.0598931
-2.93613
-0.0549725
-2.93395
-0.0499922
-2.93172
-0.0450836
-2.92941
-0.0403757
-2.92698
-0.0359852
-2.92437
-0.0320158
-2.92154
-0.0285696
-2.91851
-0.0257598
-2.91532
-0.0237077
-2.91206
-0.0225078
-2.90886
-0.0222354
-2.90595
-0.022983
-2.9037
-0.0248956
-2.90262
-0.0281389
-2.90332
-0.032845
-0.0390796
-2.9068
-2.70542
-0.165835
-2.67477
-0.145707
-2.65289
-0.119163
-2.63633
-0.0937272
-2.62266
-0.0711593
-2.61028
-0.051727
-2.59818
-0.035336
-2.58564
-0.0219553
-2.57203
-0.0117121
-2.55631
-0.00487529
-2.53721
-0.00138688
-2.51437
-0.000759247
-2.48783
-0.00308053
-2.45731
-0.0087102
-2.42264
-0.0175464
-2.38404
-0.0290734
-2.34317
-0.0417586
-2.30332
-0.0537106
-2.26806
-0.0637502
-2.23972
-0.0713289
-2.21858
-0.0767225
-2.20389
-0.080334
-2.19449
-0.0825832
-2.18895
-0.0839056
-2.18586
-0.0845501
-2.18407
-0.0846695
-2.18266
-0.0842589
-2.18106
-0.0832701
-2.17893
-0.0816554
-2.17615
-0.0794113
-2.1727
-0.0765686
-2.16862
-0.0731793
-2.16395
-0.0693168
-2.15876
-0.0650843
-2.15308
-0.0606212
-2.14696
-0.0560806
-2.14044
-0.0516055
-2.1335
-0.0473252
-2.12614
-0.0433679
-2.11829
-0.0398527
-2.10992
-0.0368981
-2.10107
-0.0346112
-2.09176
-0.03305
-2.08205
-0.0322336
-2.07211
-0.0321764
-2.0622
-0.0328842
-2.05274
-0.0343631
-2.04426
-0.0366038
-2.03753
-0.0395598
-0.0430289
-2.03358
-1.76434
-0.209277
-1.73938
-0.170678
-1.72647
-0.132061
-1.71781
-0.102365
-1.70918
-0.0797915
-1.69838
-0.0625251
-1.68419
-0.0495482
-1.66574
-0.0404032
-1.64252
-0.0349233
-1.61434
-0.0330462
-1.58088
-0.0348236
-1.54183
-0.0398186
-1.49846
-0.046484
-1.45411
-0.0531129
-1.41317
-0.0585021
-1.3803
-0.0619232
-1.3581
-0.0639273
-1.34648
-0.0653234
-1.34396
-0.0663251
-1.34797
-0.067373
-1.3559
-0.0688026
-1.36547
-0.0707274
-1.37483
-0.0731813
-1.38277
-0.0759473
-1.38866
-0.078703
-1.39229
-0.0810932
-1.39376
-0.0828295
-1.39328
-0.0837446
-1.39112
-0.0837959
-1.38752
-0.0830251
-1.38262
-0.0815046
-1.37652
-0.0793158
-1.36926
-0.0765761
-1.36087
-0.073447
-1.35137
-0.070101
-1.34077
-0.0666851
-1.32907
-0.0633248
-1.31628
-0.0601361
-1.30243
-0.0572244
-1.28754
-0.0547032
-1.27173
-0.0526719
-1.25517
-0.051173
-1.23808
-0.050163
-1.22077
-0.0495522
-1.20367
-0.0492752
-1.18737
-0.0492039
-1.17261
-0.0491558
-1.16026
-0.0489622
-1.15143
-0.0483872
-0.0469134
-1.14756
-0.609578
-0.299128
-0.57299
-0.207246
-0.545594
-0.159422
-0.519224
-0.128704
-0.49191
-0.107111
-0.463598
-0.090834
-0.435293
-0.0778401
-0.408506
-0.0671837
-0.384987
-0.0584322
-0.366645
-0.0513889
-0.355419
-0.04601
-0.352958
-0.0422743
-0.359463
-0.0400088
-0.373565
-0.0390465
-0.392835
-0.0392218
-0.414373
-0.0403127
-0.436008
-0.042235
-0.456294
-0.0450366
-0.473915
-0.04874
-0.488064
-0.0532308
-0.498559
-0.0582418
-0.505728
-0.0634661
-0.510314
-0.0685418
-0.513117
-0.0731427
-0.514767
-0.0770777
-0.515622
-0.0802402
-0.515786
-0.0826108
-0.515241
-0.0842181
-0.513896
-0.0851228
-0.511612
-0.0853667
-0.508219
-0.0849757
-0.50357
-0.0839888
-0.497615
-0.0825001
-0.49039
-0.0806481
-0.481961
-0.0785515
-0.472432
-0.0762742
-0.461949
-0.073858
-0.450703
-0.0713882
-0.438941
-0.0689872
-0.42691
-0.0667422
-0.414929
-0.0646945
-0.403318
-0.0628239
-0.392424
-0.061076
-0.382709
-0.0593238
-0.374636
-0.0574013
-0.368835
-0.0550777
-0.36605
-0.0519815
-0.367145
-0.0478495
-0.373151
-0.0423767
-0.0348681
-0.385227
0.471387
-0.305047
0.473306
-0.209119
0.479498
-0.165595
0.486775
-0.135988
0.492858
-0.113212
0.49776
-0.0957236
0.502052
-0.0821114
0.506154
-0.0712844
0.510368
-0.0626322
0.514838
-0.0558255
0.519529
-0.0506621
0.524234
-0.046982
0.52882
-0.0446165
0.533165
-0.0433917
0.53712
-0.0431502
0.540597
-0.0437609
0.543437
-0.0451097
0.545425
-0.047099
0.546287
-0.0496537
0.545707
-0.0526764
0.543492
-0.0560413
0.539618
-0.0596194
0.534245
-0.063235
0.527714
-0.0666963
0.520434
-0.0698509
0.512781
-0.0725746
0.50503
-0.074808
0.497367
-0.0765405
0.489953
-0.0777731
0.482982
-0.0784865
0.476637
-0.0786575
0.471017
-0.078311
0.4661
-0.0775266
0.461832
-0.0763922
0.458206
-0.0749622
0.455188
-0.0732566
0.452668
-0.0713027
0.450498
-0.0691708
0.448496
-0.0669483
0.44646
-0.0646878
0.44413
-0.0623838
0.441247
-0.0599718
0.437568
-0.0573854
0.432725
-0.0544935
0.426379
-0.0510833
0.418165
-0.0468457
0.407487
-0.0412921
0.393494
-0.0338136
0.374957
-0.0237696
-0.0124327
0.352577
1.58143
-0.251394
1.56887
-0.19654
1.55987
-0.156614
1.55468
-0.130798
1.55149
-0.110008
1.5486
-0.0928182
1.54552
-0.0790177
1.54232
-0.0680873
1.53922
-0.0595255
1.53641
-0.052982
1.53398
-0.0482028
1.53197
-0.0449544
1.53038
-0.0430208
1.52921
-0.0422069
1.52839
-0.0423292
1.52785
-0.0432198
1.52747
-0.0447288
1.5271
-0.0467201
1.52655
-0.0490821
1.52561
-0.0517178
1.52411
-0.0545275
1.52192
-0.0574121
1.51895
-0.0602617
1.51522
-0.0629568
1.51082
-0.0653943
1.50581
-0.0675
1.50026
-0.0692295
1.49426
-0.0705535
1.48788
-0.0714423
1.48124
-0.0718702
1.47442
-0.071834
1.4675
-0.071372
1.46049
-0.0705475
1.45343
-0.0694043
1.44638
-0.0679574
1.43935
-0.0662281
1.4323
-0.0642496
1.42518
-0.0620747
1.4179
-0.0597273
1.41037
-0.0571957
1.4024
-0.0544353
1.39374
-0.0513383
1.38413
-0.0477672
1.37316
-0.0435217
1.36036
-0.0382902
1.34516
-0.0316115
1.32691
-0.0229838
1.30556
-0.0124438
1.28341
-0.00162527
0.00906075
1.26194
2.75536
-0.226551
2.73486
-0.176053
2.723
-0.144768
2.71225
-0.120062
2.70204
-0.09979
2.69197
-0.0827351
2.68183
-0.0688748
2.67178
-0.0580355
2.66209
-0.0498341
2.65302
-0.0438901
2.64472
-0.0398729
2.63724
-0.0374639
2.63057
-0.0363564
2.62464
-0.0362914
2.61932
-0.0370376
2.61447
-0.0383908
2.60992
-0.0401869
2.60548
-0.0422878
2.60097
-0.04458
2.59621
-0.0469699
2.59103
-0.0493743
2.58532
-0.0517217
2.57901
-0.0539477
2.57206
-0.0559907
2.5645
-0.0577992
2.55637
-0.0593337
2.54772
-0.06056
2.5386
-0.0614435
2.52911
-0.0619495
2.51931
-0.0620572
2.50928
-0.0617745
2.49903
-0.0611314
2.48861
-0.0601568
2.47807
-0.0588705
2.46742
-0.0572848
2.45666
-0.0554158
2.44572
-0.0532958
2.43457
-0.0509419
2.42316
-0.0483365
2.41137
-0.0454249
2.39909
-0.0421259
2.38609
-0.0383246
2.3722
-0.0338522
2.35722
-0.0285321
2.34102
-0.0220694
2.3236
-0.0141651
2.30578
-0.00514958
2.28889
0.00445363
2.272
0.0152577
0.0279493
2.25311
4.09211
-0.159705
4.05383
-0.137785
4.01943
-0.110367
3.99055
-0.0911834
3.96505
-0.0742732
3.94154
-0.0592122
3.91934
-0.0466772
3.89817
-0.0368681
3.87801
-0.029656
3.85889
-0.0247651
3.84089
-0.0218625
3.82402
-0.020597
3.80826
-0.0206213
3.79357
-0.0216178
3.77983
-0.0233142
3.76692
-0.0254823
3.75468
-0.027935
3.74292
-0.0305256
3.73148
-0.0331427
3.7202
-0.0356925
3.70893
-0.0381028
3.69755
-0.040328
3.68597
-0.0423393
3.67414
-0.0441154
3.66201
-0.0456397
3.64959
-0.0468935
3.63688
-0.0478516
3.62392
-0.0484841
3.61074
-0.0487629
3.59736
-0.0486731
3.58379
-0.0482155
3.57003
-0.0474011
3.55611
-0.0462476
3.54202
-0.0447669
3.52776
-0.0429778
3.51327
-0.0409044
3.4985
-0.0385486
3.4834
-0.0358925
3.46794
-0.0328954
3.45201
-0.029489
3.43546
-0.0255666
3.41805
-0.0209104
3.39952
-0.0153229
3.37991
-0.00892029
3.35985
-0.0020014
3.34026
0.00543623
3.32118
0.0139366
3.30145
0.0241686
3.28006
0.0366516
0.0518367
3.25619
5.04566
-0.146425
5.01865
-0.11079
5.00171
-0.0934438
4.98473
-0.0742004
4.96652
-0.0560607
4.94745
-0.0401395
4.92806
-0.0272788
4.90885
-0.0176703
4.8904
-0.0112234
4.8732
-0.00756865
4.85756
-0.00622312
4.84364
-0.00668419
4.83147
-0.00846686
4.82097
-0.0111386
4.81198
-0.0143412
4.80428
-0.0177989
4.79763
-0.0212822
4.79172
-0.0246188
4.78629
-0.027711
4.78107
-0.0304728
4.77584
-0.0328537
4.7704
-0.0348603
4.76461
-0.0365185
4.75836
-0.0378461
4.75159
-0.0388528
4.74423
-0.0395384
4.73627
-0.0398902
4.72768
-0.0398897
4.71845
-0.0395243
4.70856
-0.0387826
4.69799
-0.0376493
4.68672
-0.0361348
4.67477
-0.0342658
4.66211
-0.03207
4.64871
-0.0295588
4.63454
-0.0267346
4.61955
-0.023586
4.60373
-0.0200921
4.58704
-0.016205
4.56944
-0.0118847
4.551
-0.00713286
4.53213
-0.00205506
4.5136
0.00320599
4.4958
0.0088817
4.47828
0.0155193
4.4603
0.0234085
4.44143
0.032808
4.42144
0.0441853
4.39986
0.0582469
0.0761067
4.37561
7.07593
-0.068301
7.03192
-0.0667877
6.98943
-0.0509619
6.95235
-0.0371248
6.91823
-0.0219269
6.88598
-0.0078893
6.85552
0.00317769
6.82697
0.0108627
6.8004
0.0153178
6.77581
0.0170095
6.75307
0.0165183
6.73195
0.01443
6.71219
0.0112776
6.69351
0.00752259
6.67563
0.00353225
6.65826
-0.000426495
6.64115
-0.0041684
6.62411
-0.00757684
6.60697
-0.0105749
6.58961
-0.0130899
6.57187
-0.0150917
6.5537
-0.01666
6.53508
-0.017875
6.51601
-0.0187721
6.49652
-0.0193697
6.47664
-0.0196718
6.45642
-0.0196759
6.43592
-0.0193801
6.41518
-0.0187843
6.39429
-0.0178809
6.37326
-0.0166186
6.35215
-0.0150118
6.33103
-0.0131343
6.30999
-0.0110162
6.28908
-0.00865057
6.26836
-0.00602054
6.24789
-0.00311245
6.2277
8.43085e-05
6.20789
0.00359092
6.18855
0.00743909
6.1697
0.0116921
6.15117
0.0164631
6.13244
0.0219243
6.11309
0.0282366
6.09303
0.035571
6.07222
0.0442303
6.05042
0.0546064
6.02739
0.0672425
6.0028
0.0828464
0.102183
5.97673
6.90883
-0.0519097
6.87821
-0.0361884
6.85596
-0.0287279
6.82978
-0.0109382
6.80261
0.00526183
6.77686
0.0178536
6.75276
0.0272552
6.73045
0.0331333
6.71004
0.0357104
6.6915
0.0355368
6.67472
0.0333067
6.65946
0.0296916
6.64545
0.0252788
6.63242
0.0205502
6.6201
0.0158663
6.60821
0.0114801
6.59653
0.0075261
6.58489
0.00407098
6.57317
0.00116366
6.56134
-0.00123419
6.54948
-0.00319103
6.53751
-0.00466779
6.52525
-0.00561782
6.51256
-0.0060897
6.4993
-0.00613625
6.48543
-0.00580667
6.4709
-0.0051432
6.45572
-0.0041832
6.43991
-0.00296713
6.42358
-0.00154995
6.40702
-5.50585e-05
6.39053
0.0014654
6.37428
0.00309726
6.35835
0.00490049
6.3428
0.00690178
6.32766
0.00911966
6.313
0.011564
6.29881
0.0142566
6.28518
0.0172032
6.27217
0.0204235
6.25987
0.0239721
6.2484
0.0279301
6.2379
0.0324133
6.22856
0.0375674
6.22055
0.0435714
6.21412
0.0506762
6.20949
0.0592488
6.20686
0.0698951
6.2059
0.0838184
0.104484
6.2036
11.3059
0.0330046
11.2807
-0.0109315
11.2481
0.0038537
11.2154
0.0218045
11.1802
0.04042
11.1417
0.0563831
11.1016
0.0673373
11.0618
0.0728859
11.0238
0.0737004
10.9885
0.0708482
10.9563
0.065462
10.9274
0.0585782
10.9016
0.0510489
10.8787
0.0435136
10.8581
0.0364174
10.8396
0.0300421
10.8226
0.0245304
10.8067
0.0199422
10.7916
0.0162923
10.7768
0.0135501
10.762
0.0116524
10.7469
0.0104775
10.7313
0.0098944
10.7154
0.00981682
10.6991
0.0101701
10.6824
0.0108933
10.6654
0.011934
10.6479
0.0132471
10.6302
0.0148001
10.6121
0.0165636
10.5934
0.0185434
10.5741
0.0207396
10.5541
0.0231291
10.5333
0.0257152
10.5117
0.0285065
10.4893
0.0315207
10.4661
0.0347817
10.442
0.0383198
10.4171
0.0421506
10.3912
0.0463114
10.3643
0.050873
10.3363
0.0559288
10.3071
0.0616165
10.2765
0.0681041
10.2445
0.0755965
10.2108
0.0843726
10.1752
0.0947952
10.1378
0.107319
10.0992
0.12243
0.139245
10.0645
3.74985
3.73892
3.74278
3.76459
3.80501
3.86137
3.92869
4.00157
4.07527
4.14613
4.21159
4.27017
4.32122
4.36475
4.40118
4.43122
4.45575
4.47571
4.49201
4.50558
4.51723
4.5277
4.53758
4.5474
4.55757
4.56847
4.58041
4.59366
4.60844
4.62498
4.6435
4.66423
4.68736
4.71309
4.74161
4.77313
4.8079
4.84621
4.88836
4.93467
4.98554
5.04146
5.10307
5.17117
5.24677
5.33115
5.42595
5.53328
5.65573
5.79499
0.406435
-0.00853081
0.40943
-0.00298051
0.411586
-0.0021452
0.412621
-0.00103463
0.412926
-0.000318612
0.412848
4.84469e-05
0.412563
0.000240942
0.41216
0.000350515
0.411692
0.000414092
0.411195
0.000450386
0.410691
0.000471478
0.410193
0.000485071
0.409708
0.000495473
0.409234
0.000504657
0.408768
0.000513065
0.408303
0.00052013
0.407832
0.000524742
0.407351
0.000525698
0.406859
0.000522138
0.406357
0.000513837
0.405851
0.000501256
0.405348
0.000485454
0.404856
0.000467778
0.404382
0.000449485
0.403931
0.000431504
0.403506
0.000414372
0.403109
0.000398246
0.40274
0.000383001
0.402396
0.000368312
0.402076
0.000353592
0.401776
0.000337863
0.401492
0.000319777
0.401222
0.000297742
0.400968
0.000270349
0.400734
0.000236112
0.400526
0.000194392
0.400356
0.000144685
0.400235
8.64381e-05
0.400176
1.87245e-05
0.400195
-6.01095e-05
0.400309
-0.000152238
0.400537
-0.000260215
0.400902
-0.00038735
0.401427
-0.000538736
0.402145
-0.000722897
0.403097
-0.000954548
0.404351
-0.00126076
0.40603
-0.00169398
0.408364
-0.00235948
-0.00346995
0.411797
0.393856
-0.00447112
0.393026
-0.00213948
0.391613
-0.000738948
0.390857
-0.000309105
0.390475
7.15221e-06
0.390251
0.000196061
0.390125
0.00027919
0.390071
0.000315562
0.390077
0.00033451
0.390131
0.000347307
0.390229
0.00035896
0.390364
0.000371523
0.39053
0.00038481
0.390717
0.000397234
0.390915
0.000406714
0.391112
0.000411321
0.391299
0.000409738
0.39147
0.000401567
0.391622
0.000387392
0.391758
0.000368626
0.391883
0.000347218
0.392005
0.000325211
0.392129
0.000304294
0.392264
0.000285451
0.392414
0.000268806
0.392581
0.000253723
0.392767
0.000239037
0.392971
0.000223236
0.393192
0.000204569
0.393426
0.000181138
0.393671
0.000151137
0.393922
0.000113059
0.394178
6.533e-05
0.394441
6.76647e-06
0.394715
-6.32063e-05
0.395009
-0.000144957
0.395334
-0.000239246
0.3957
-0.000347558
0.396123
-0.000472336
0.396616
-0.000617375
0.397197
-0.000787303
0.397886
-0.000987921
0.398701
-0.00122702
0.399665
-0.00151558
0.400802
-0.00186936
0.402144
-0.00231126
0.403729
-0.00287521
0.405604
-0.00361472
0.407803
-0.00461859
-0.00602549
0.410291
0.394424
-0.000982621
0.393283
-0.000997707
0.39308
-0.000550377
0.393089
-0.000351584
0.393287
-0.000242944
0.393554
-0.000138253
0.393814
-5.48118e-05
0.394051
8.52366e-06
0.394267
6.26922e-05
0.394468
0.000113182
0.394661
0.000161426
0.39485
0.000206935
0.395037
0.000248019
0.39522
0.000282306
0.395394
0.000307439
0.395553
0.00032176
0.395693
0.000324764
0.395809
0.000317258
0.395904
0.000301217
0.39598
0.000279411
0.396046
0.000254909
0.396109
0.000230431
0.396175
0.000207864
0.396253
0.000188007
0.396346
0.000170477
0.396456
0.000153895
0.396586
0.000136322
0.396735
0.000115485
0.3969
8.88595e-05
0.39708
5.38662e-05
0.397269
8.30137e-06
0.397466
-4.97484e-05
0.39767
-0.000121689
0.397881
-0.000208492
0.398106
-0.000310461
0.39835
-0.000428428
0.398625
-0.000563735
0.39894
-0.000718882
0.399308
-0.000897691
0.399744
-0.00110541
0.400261
-0.00134859
0.400878
-0.00163526
0.401609
-0.00197583
0.402469
-0.00238421
0.403473
-0.00287945
0.404638
-0.00348767
0.405983
-0.00424427
0.407526
-0.00519726
0.409269
-0.0064147
-0.00798843
0.411173
0.397515
-0.000589776
0.397337
-0.00083083
0.3974
-0.000637757
0.397442
-0.000432434
0.397438
-0.000289191
0.39741
-0.000169737
0.397364
-6.95429e-05
0.397309
1.0297e-05
0.397256
7.67062e-05
0.397214
0.000136132
0.39719
0.000190896
0.397185
0.000240442
0.397198
0.000282707
0.397225
0.000315076
0.397259
0.000335224
0.397293
0.000341878
0.397321
0.000335247
0.397341
0.000317069
0.397353
0.000290297
0.397358
0.000258556
0.397363
0.00022544
0.397374
0.00019382
0.397396
0.00016535
0.397433
0.000140271
0.397489
0.000117472
0.397565
9.48151e-05
0.397662
6.98017e-05
0.397778
3.94816e-05
0.397911
9.30462e-07
0.398059
-4.85497e-05
0.398218
-0.000111414
0.398385
-0.00018988
0.398559
-0.000285326
0.398741
-0.000398652
0.398938
-0.000530563
0.399155
-0.000682212
0.399401
-0.000855634
0.399686
-0.00105416
0.400019
-0.00128263
0.400414
-0.00154752
0.400884
-0.00185688
0.401442
-0.00222056
0.402103
-0.00265056
0.402875
-0.00316193
0.403766
-0.00377401
0.404781
-0.00451184
0.405922
-0.00540742
0.407188
-0.00650021
0.408561
-0.0078382
-0.00947841
0.409993
0.397565
-0.000253456
0.397117
-0.000406746
0.396795
-0.000349001
0.39657
-0.000248284
0.396413
-0.000178478
0.396322
-0.000126642
0.396288
-7.93732e-05
0.396297
-3.36927e-05
0.39634
1.26246e-05
0.396411
6.13277e-05
0.396505
0.000111448
0.396616
0.000159687
0.39674
0.000201795
0.396869
0.000233702
0.396998
0.000252403
0.39712
0.000256589
0.397232
0.000246872
0.397331
0.000225612
0.397419
0.000196388
0.397498
0.000163232
0.397574
0.000129795
0.397652
9.86765e-05
0.397736
7.10182e-05
0.39783
4.64014e-05
0.397935
2.30273e-05
0.398054
-1.73209e-06
0.398186
-3.09626e-05
0.398331
-6.78447e-05
0.398488
-0.000115365
0.398654
-0.000176206
0.398826
-0.00025287
0.399003
-0.000347393
0.399183
-0.000461248
0.399369
-0.000595487
0.399566
-0.000751134
0.399779
-0.000929802
0.400016
-0.00113415
0.400284
-0.00136823
0.400593
-0.0016377
0.400952
-0.00194981
0.401375
-0.00231349
0.401871
-0.00273964
0.402451
-0.0032413
0.403121
-0.00383395
0.403882
-0.0045361
0.404734
-0.00537029
0.405672
-0.00636373
0.406687
-0.00754776
0.407758
-0.00895637
-0.0106275
0.408852
0.397795
-0.000154137
0.39763
-0.000276125
0.397534
-0.000292659
0.397509
-0.000263868
0.397521
-0.000229777
0.397556
-0.000194552
0.397605
-0.000152946
0.397661
-0.000104203
0.397722
-4.97132e-05
0.397785
8.606e-06
0.39785
6.75625e-05
0.397917
0.000122639
0.397983
0.000168945
0.398047
0.000202333
0.398108
0.000220229
0.398161
0.000222078
0.398206
0.000209402
0.398244
0.00018541
0.398276
0.00015427
0.398305
0.000120192
0.398335
8.65916e-05
0.398371
5.55204e-05
0.398415
2.74249e-05
0.398469
1.1817e-06
0.398536
-2.53876e-05
0.398614
-5.50982e-05
0.398706
-9.12352e-05
0.398809
-0.000136862
0.398922
-0.000194837
0.399044
-0.000267807
0.399172
-0.000358124
0.399304
-0.000467743
0.39944
-0.000598225
0.399582
-0.000750866
0.399735
-0.000927103
0.399902
-0.00112904
0.40009
-0.00135988
0.400305
-0.0016243
0.400554
-0.00192847
0.400846
-0.00228022
0.401192
-0.00268896
0.401599
-0.00316585
0.402075
-0.00372413
0.402622
-0.00437923
0.403238
-0.00514864
0.403918
-0.00605214
0.404654
-0.00711237
0.405433
-0.0083538
0.406236
-0.00980033
-0.0114751
0.407033
0.397841
-0.000106761
0.397712
-0.000190301
0.397588
-0.000212047
0.397491
-0.00020415
0.397419
-0.000185248
0.397369
-0.000161557
0.397343
-0.000131089
0.397338
-9.25792e-05
0.397352
-4.70807e-05
0.39738
2.84203e-06
0.397419
5.33577e-05
0.397467
9.96546e-05
0.397521
0.000136843
0.397578
0.000161044
0.397637
0.000170201
0.397696
0.000164421
0.397754
0.000145835
0.397811
0.000118057
0.397868
8.52825e-05
0.397927
5.1325e-05
0.397991
1.89077e-05
0.39806
-1.08324e-05
0.398135
-3.83926e-05
0.398219
-6.5576e-05
0.398311
-9.49251e-05
0.398411
-0.000129357
0.398521
-0.000171867
0.398638
-0.000225244
0.398763
-0.000292085
0.398892
-0.000374807
0.399024
-0.000475626
0.399158
-0.000596495
0.399294
-0.000739091
0.399433
-0.000905015
0.39958
-0.00109615
0.399737
-0.00131509
0.399909
-0.00156551
0.4001
-0.00185247
0.400317
-0.00218243
0.400567
-0.00256346
0.400857
-0.0030052
0.401195
-0.00351893
0.401586
-0.00411768
0.402028
-0.00481628
0.40252
-0.0056311
0.403052
-0.00657963
0.403615
-0.00768071
0.404195
-0.00895413
0.40478
-0.0104181
-0.0120889
0.40535
0.397867
-8.95965e-05
0.397781
-0.00015315
0.397699
-0.000174312
0.397644
-0.000180978
0.397621
-0.000178066
0.397628
-0.000167526
0.39766
-0.000147652
0.397711
-0.000117412
0.397773
-7.82015e-05
0.39784
-3.34164e-05
0.397906
1.22645e-05
0.39797
5.36175e-05
0.398029
8.57788e-05
0.398083
0.000105247
0.398134
0.000110529
0.398182
0.000102331
0.398228
8.32469e-05
0.398275
5.69877e-05
0.398322
2.74387e-05
0.398372
-2.23476e-06
0.398425
-3.02462e-05
0.398482
-5.64134e-05
0.398543
-8.20087e-05
0.398608
-0.00010926
0.398678
-0.000140865
0.398753
-0.000179551
0.398834
-0.000227863
0.398921
-0.000288146
0.399012
-0.000362588
0.399105
-0.000453281
0.3992
-0.000562266
0.399295
-0.000691459
0.399391
-0.000842712
0.399489
-0.001018
0.399591
-0.00121964
0.399701
-0.00145064
0.399822
-0.00171501
0.399955
-0.00201798
0.400106
-0.00236609
0.400281
-0.00276729
0.400485
-0.00323121
0.400724
-0.00376908
0.401001
-0.00439383
0.401315
-0.00511964
0.40166
-0.0059619
0.402028
-0.00693636
0.402409
-0.00805876
0.402789
-0.00934531
0.403156
-0.0108102
-0.0124643
0.403496
0.397873
-8.25159e-05
0.3978
-0.000131913
0.397729
-0.000145412
0.397677
-0.000153666
0.397651
-0.00015546
0.39765
-0.000149576
0.39767
-0.000134356
0.397704
-0.000109396
0.397745
-7.64564e-05
0.397786
-3.91349e-05
0.397823
-2.10922e-06
0.397855
2.97417e-05
0.397882
5.227e-05
0.397906
6.28524e-05
0.397931
6.08835e-05
0.397959
4.77826e-05
0.397993
2.64735e-05
0.398033
5.2268e-07
0.398081
-2.67707e-05
0.398135
-5.31439e-05
0.398194
-7.78762e-05
0.398257
-0.00010176
0.398324
-0.000126713
0.398393
-0.000155255
0.398465
-0.000190011
0.398541
-0.000233344
0.39862
-0.000287282
0.398703
-0.000353626
0.398789
-0.000434098
0.398876
-0.000530492
0.398962
-0.000644693
0.399046
-0.000778666
0.399129
-0.000934543
0.399211
-0.00111467
0.399295
-0.00132182
0.399382
-0.00155938
0.399473
-0.00183147
0.399571
-0.00214324
0.399678
-0.00250103
0.399799
-0.0029126
0.399937
-0.00338736
0.400098
-0.00393644
0.400281
-0.00457258
0.400486
-0.00530975
0.400706
-0.00616263
0.400933
-0.00714587
0.401158
-0.00827347
0.401369
-0.0095588
0.401556
-0.0110142
-0.0126494
0.401713
0.397874
-7.81935e-05
0.397806
-0.000116383
0.397743
-0.000121667
0.397702
-0.00012899
0.397689
-0.000134127
0.397705
-0.00013332
0.397742
-0.000124273
0.397793
-0.000106729
0.397849
-8.24537e-05
0.397901
-5.48485e-05
0.397945
-2.81885e-05
0.397978
-6.70958e-06
0.398004
6.28116e-06
0.398025
9.0619e-06
0.398047
1.80734e-06
0.398074
-1.36123e-05
0.398108
-3.42748e-05
0.398151
-5.70872e-05
0.398202
-7.96211e-05
0.398259
-0.000100721
0.398319
-0.00012074
0.398381
-0.000141315
0.398442
-0.000164854
0.398503
-0.000193966
0.398563
-0.000230975
0.398625
-0.000277728
0.398688
-0.000335656
0.398753
-0.000405963
0.398818
-0.000489895
0.398883
-0.000588934
0.398944
-0.000704884
0.399001
-0.000839891
0.399054
-0.00099639
0.399104
-0.00117712
0.399151
-0.00138521
0.399198
-0.00162422
0.399244
-0.00189821
0.39929
-0.00221197
0.399338
-0.00257143
0.39939
-0.00298395
0.399448
-0.00345866
0.399516
-0.00400672
0.399593
-0.00464094
0.399676
-0.00537516
0.399761
-0.0062238
0.399839
-0.00720098
0.399901
-0.00831967
0.399938
-0.00959182
0.399942
-0.0110279
-0.0126363
0.399907
0.39787
-7.13891e-05
0.397801