/*--------------------------------*- C++ -*----------------------------------*\
  =========                 |
  \\      /  F ield         | OpenFOAM: The Open Source CFD Toolbox
   \\    /   O peration     | Website:  https://openfoam.org
    \\  /    A nd           | Version:  8
     \\/     M anipulation  |
\*---------------------------------------------------------------------------*/
FoamFile
{
    version     2.0;
    format      ascii;
    class       volScalarField;
    location    "600";
    object      alphat;
}
// * * * * * * * * * * * * * * * * * * * * * * * * * * * * * * * * * * * * * //

dimensions      [1 -1 -1 0 0 0 0];

internalField   nonuniform List<scalar> 
1200
(
0.200897
0.184965
0.171674
0.160444
0.150844
0.142558
0.135346
0.129021
0.123438
0.118481
0.114056
0.110087
0.106511
0.103277
0.100341
0.097666
0.0952222
0.0929828
0.0909253
0.0890302
0.0872808
0.0856624
0.0841622
0.082769
0.0814728
0.0802649
0.0791376
0.0780839
0.0770977
0.0761734
0.075306
0.0744912
0.0737248
0.0730031
0.0723229
0.0716812
0.0710752
0.0705024
0.0699604
0.0694473
0.068961
0.0684998
0.0680621
0.0676463
0.0672511
0.0668751
0.0665172
0.0661764
0.0658514
0.0655415
0.0652457
0.0649631
0.0646931
0.0644349
0.0641879
0.0639513
0.0637247
0.0635075
0.0632992
0.0630992
0.116417
0.0999852
0.0873785
0.0774622
0.0694927
0.0629642
0.0575292
0.0529418
0.0490235
0.0456415
0.0426955
0.0401081
0.0378193
0.0357814
0.0339562
0.0323131
0.0308266
0.0294761
0.0282443
0.0271166
0.0260808
0.0251264
0.0242447
0.0234279
0.0226695
0.0219636
0.0213052
0.02069
0.020114
0.0195739
0.0190666
0.0185894
0.0181399
0.017716
0.0173157
0.0169372
0.0165791
0.0162398
0.015918
0.0156126
0.0153225
0.0150466
0.0147841
0.0145341
0.0142959
0.0140688
0.0138521
0.0136453
0.0134477
0.0132588
0.0130783
0.0129055
0.0127401
0.0125817
0.01243
0.0122845
0.0121449
0.0120105
0.0118799
0.0117403
0.11639
0.0998142
0.0870858
0.0770516
0.068969
0.0623382
0.0568121
0.0521435
0.0481526
0.0447055
0.0417007
0.0390603
0.0367232
0.0346411
0.0327752
0.0310942
0.0295724
0.0281886
0.0269251
0.0257673
0.0247026
0.0237204
0.0228116
0.0219683
0.021184
0.0204526
0.019769
0.0191289
0.0185282
0.0179634
0.0174315
0.0169297
0.0164556
0.0160069
0.0155817
0.0151782
0.0147949
0.0144302
0.0140828
0.0137517
0.0134357
0.0131337
0.012845
0.0125687
0.012304
0.0120502
0.0118066
0.0115727
0.011348
0.0111318
0.0109237
0.0107233
0.0105302
0.010344
0.0101644
0.0099909
0.00982334
0.00966136
0.00950462
0.00935246
0.11639
0.0998533
0.0871498
0.0771324
0.0690586
0.0624305
0.0569033
0.0522314
0.0482359
0.0447835
0.0417733
0.0391275
0.0367852
0.0346981
0.0328276
0.0311422
0.0296165
0.028229
0.0269622
0.0258012
0.0247337
0.0237488
0.0228375
0.021992
0.0212056
0.0204722
0.0197869
0.0191451
0.0185428
0.0179766
0.0174433
0.0169402
0.0164649
0.0160151
0.0155888
0.0151843
0.0147999
0.0144343
0.0140861
0.013754
0.0134371
0.0131342
0.0128446
0.0125673
0.0123016
0.0120468
0.0118022
0.0115673
0.0113415
0.0111242
0.010915
0.0107135
0.0105193
0.0103319
0.010151
0.00997637
0.00980757
0.00964436
0.00948646
0.00933363
0.11639
0.0998534
0.0871436
0.07712
0.0690412
0.0624098
0.0568809
0.0522085
0.0482133
0.0447618
0.0417529
0.0391085
0.0367677
0.0346821
0.032813
0.031129
0.0296045
0.0282181
0.0269524
0.0257924
0.0247257
0.0237417
0.0228311
0.0219863
0.0212004
0.0204676
0.0197828
0.0191414
0.0185396
0.0179737
0.0174408
0.016938
0.0164629
0.0160133
0.0155873
0.015183
0.0147988
0.0144333
0.0140853
0.0137533
0.0134365
0.0131338
0.0128443
0.0125671
0.0123015
0.0120467
0.0118022
0.0115674
0.0113416
0.0111244
0.0109153
0.0107138
0.0105196
0.0103323
0.0101515
0.0099768
0.00980802
0.00964483
0.00948694
0.00933412
0.11639
0.0998534
0.0871436
0.07712
0.0690412
0.0624098
0.0568809
0.0522085
0.0482133
0.0447619
0.0417529
0.0391085
0.0367677
0.0346821
0.032813
0.031129
0.0296045
0.0282182
0.0269524
0.0257925
0.0247257
0.0237417
0.0228311
0.0219863
0.0212004
0.0204676
0.0197828
0.0191414
0.0185396
0.0179737
0.0174407
0.016938
0.0164629
0.0160133
0.0155872
0.0151829
0.0147988
0.0144333
0.0140852
0.0137533
0.0134365
0.0131338
0.0128442
0.012567
0.0123014
0.0120467
0.0118022
0.0115674
0.0113416
0.0111244
0.0109153
0.0107138
0.0105196
0.0103323
0.0101514
0.00997677
0.00980799
0.0096448
0.00948691
0.00933409
0.11639
0.0998532
0.0871497
0.0771324
0.0690585
0.0624305
0.0569033
0.0522314
0.0482359
0.0447835
0.0417733
0.0391275
0.0367851
0.0346981
0.0328275
0.0311422
0.0296164
0.028229
0.0269622
0.0258012
0.0247336
0.0237488
0.0228375
0.021992
0.0212056
0.0204722
0.0197869
0.0191451
0.0185428
0.0179766
0.0174433
0.0169402
0.0164649
0.016015
0.0155888
0.0151842
0.0147999
0.0144343
0.014086
0.013754
0.013437
0.0131342
0.0128445
0.0125672
0.0123015
0.0120467
0.0118022
0.0115672
0.0113414
0.0111241
0.010915
0.0107135
0.0105192
0.0103318
0.0101509
0.00997626
0.00980746
0.00964423
0.00948633
0.00933349
0.11639
0.0998142
0.0870859
0.0770517
0.0689691
0.0623383
0.0568122
0.0521436
0.0481527
0.0447055
0.0417008
0.0390604
0.0367232
0.0346411
0.0327752
0.0310942
0.0295724
0.0281886
0.0269251
0.0257673
0.0247026
0.0237204
0.0228116
0.0219683
0.0211839
0.0204526
0.019769
0.0191289
0.0185282
0.0179634
0.0174315
0.0169297
0.0164556
0.0160069
0.0155817
0.0151782
0.0147948
0.0144301
0.0140827
0.0137515
0.0134354
0.0131333
0.0128444
0.0125679
0.0123029
0.0120487
0.0118048
0.0115706
0.0113455
0.011129
0.0109206
0.0107199
0.0105264
0.0103399
0.0101598
0.00998601
0.00981807
0.0096557
0.00949855
0.00934613
0.116417
0.0999853
0.0873787
0.0774626
0.0694932
0.0629649
0.0575302
0.0529433
0.0490254
0.0456438
0.0426982
0.0401113
0.0378229
0.0357853
0.0339605
0.0323176
0.0308313
0.029481
0.0282492
0.0271216
0.0260858
0.0251315
0.0242498
0.0234329
0.0226744
0.0219685
0.0213101
0.0206948
0.0201188
0.0195786
0.0190713
0.018594
0.0181444
0.0177203
0.0173198
0.0169412
0.0165828
0.0162433
0.0159214
0.0156158
0.0153255
0.0150495
0.014787
0.014537
0.0142988
0.0140717
0.0138551
0.0136483
0.0134507
0.0132619
0.0130814
0.0129086
0.0127433
0.012585
0.0124333
0.0122879
0.0121483
0.012014
0.0118834
0.0117434
0.200897
0.184965
0.171674
0.160443
0.150844
0.142558
0.135345
0.12902
0.123438
0.11848
0.114055
0.110086
0.106511
0.103276
0.10034
0.0976655
0.0952217
0.0929823
0.0909248
0.0890298
0.0872804
0.0856621
0.0841619
0.0827686
0.0814724
0.0802646
0.0791373
0.0780836
0.0770974
0.0761731
0.0753058
0.0744909
0.0737245
0.0730029
0.0723227
0.071681
0.0710749
0.0705021
0.0699602
0.069447
0.0689607
0.0684996
0.0680618
0.067646
0.0672508
0.0668749
0.066517
0.0661761
0.0658511
0.0655412
0.0652454
0.0649628
0.0646928
0.0644346
0.0641875
0.063951
0.0637243
0.0635071
0.0632988
0.0630987
0.200897
0.184965
0.171673
0.160443
0.150843
0.142557
0.135345
0.12902
0.123437
0.11848
0.114055
0.110086
0.10651
0.103276
0.10034
0.0976655
0.0952217
0.0929823
0.0909249
0.0890299
0.0872805
0.0856621
0.084162
0.0827687
0.0814726
0.0802647
0.0791374
0.0780837
0.0770975
0.0761732
0.0753058
0.0744909
0.0737245
0.0730029
0.0723227
0.0716809
0.0710749
0.0705021
0.0699601
0.069447
0.0689607
0.0684995
0.0680617
0.0676459
0.0672507
0.0668747
0.0665168
0.0661759
0.065851
0.065541
0.0652452
0.0649627
0.0646926
0.0644344
0.0641874
0.0639508
0.0637242
0.0635069
0.0632987
0.0630987
0.116417
0.0999853
0.0873784
0.0774621
0.0694927
0.0629643
0.0575292
0.0529416
0.049023
0.0456407
0.0426943
0.0401068
0.037818
0.0357803
0.0339554
0.0323126
0.0308265
0.0294764
0.0282449
0.0271175
0.026082
0.0251278
0.0242462
0.0234294
0.0226709
0.0219649
0.0213065
0.0206912
0.0201153
0.0195752
0.0190679
0.0185908
0.0181414
0.0177176
0.0173174
0.0169391
0.016581
0.0162418
0.0159202
0.0156149
0.0153248
0.015049
0.0147865
0.0145366
0.0142984
0.0140714
0.0138547
0.0136478
0.0134502
0.0132613
0.0130806
0.0129078
0.0127424
0.0125841
0.0124323
0.0122868
0.0121472
0.0120128
0.0118822
0.0117424
0.11639
0.0998142
0.087086
0.0770518
0.0689692
0.0623383
0.0568121
0.0521435
0.0481525
0.0447053
0.0417006
0.0390602
0.036723
0.0346409
0.032775
0.031094
0.0295722
0.0281884
0.026925
0.0257671
0.0247024
0.0237202
0.0228114
0.0219682
0.0211838
0.0204524
0.0197689
0.0191287
0.018528
0.0179633
0.0174314
0.0169296
0.0164554
0.0160067
0.0155816
0.0151781
0.0147947
0.01443
0.0140826
0.0137515
0.0134355
0.0131336
0.0128448
0.0125685
0.0123038
0.0120499
0.0118064
0.0115725
0.0113477
0.0111315
0.0109234
0.010723
0.0105299
0.0103436
0.010164
0.00999048
0.0098229
0.0096609
0.00950413
0.00935194
0.11639
0.0998532
0.0871498
0.0771324
0.0690585
0.0624305
0.0569033
0.0522313
0.0482358
0.0447834
0.0417732
0.0391274
0.0367851
0.034698
0.0328275
0.0311422
0.0296164
0.0282289
0.0269621
0.0258012
0.0247336
0.0237487
0.0228375
0.021992
0.0212055
0.0204722
0.0197869
0.019145
0.0185428
0.0179765
0.0174433
0.0169402
0.0164648
0.016015
0.0155887
0.0151842
0.0147999
0.0144342
0.014086
0.0137539
0.013437
0.0131341
0.0128445
0.0125672
0.0123015
0.0120467
0.0118021
0.0115672
0.0113413
0.0111241
0.0109149
0.0107134
0.0105192
0.0103318
0.0101509
0.00997622
0.00980742
0.0096442
0.00948629
0.00933346
0.11639
0.0998533
0.0871436
0.07712
0.0690412
0.0624098
0.0568808
0.0522084
0.0482132
0.0447617
0.0417528
0.0391084
0.0367676
0.034682
0.0328129
0.0311289
0.0296044
0.028218
0.0269523
0.0257923
0.0247256
0.0237416
0.022831
0.0219862
0.0212004
0.0204676
0.0197827
0.0191413
0.0185395
0.0179736
0.0174407
0.0169379
0.0164628
0.0160132
0.0155872
0.0151829
0.0147987
0.0144332
0.0140852
0.0137532
0.0134364
0.0131337
0.0128441
0.012567
0.0123013
0.0120466
0.0118021
0.0115673
0.0113415
0.0111243
0.0109151
0.0107137
0.0105195
0.0103321
0.0101513
0.00997663
0.00980785
0.00964465
0.00948677
0.00933394
0.11639
0.0998533
0.0871436
0.0771201
0.0690413
0.0624099
0.0568809
0.0522084
0.0482132
0.0447618
0.0417528
0.0391084
0.0367676
0.034682
0.0328129
0.0311289
0.0296044
0.0282181
0.0269523
0.0257924
0.0247257
0.0237416
0.0228311
0.0219862
0.0212004
0.0204676
0.0197827
0.0191414
0.0185395
0.0179736
0.0174407
0.0169379
0.0164628
0.0160132
0.0155872
0.0151829
0.0147987
0.0144332
0.0140851
0.0137532
0.0134364
0.0131337
0.0128441
0.0125669
0.0123013
0.0120466
0.0118021
0.0115672
0.0113415
0.0111242
0.0109151
0.0107137
0.0105195
0.0103321
0.0101513
0.00997662
0.00980784
0.00964464
0.00948675
0.00933393
0.11639
0.0998532
0.0871498
0.0771324
0.0690585
0.0624304
0.0569032
0.0522313
0.0482357
0.0447834
0.0417732
0.0391274
0.036785
0.034698
0.0328275
0.0311421
0.0296164
0.0282289
0.0269621
0.0258012
0.0247336
0.0237487
0.0228374
0.021992
0.0212055
0.0204722
0.0197869
0.019145
0.0185428
0.0179765
0.0174433
0.0169402
0.0164648
0.016015
0.0155887
0.0151842
0.0147999
0.0144342
0.014086
0.0137539
0.013437
0.0131341
0.0128445
0.0125672
0.0123015
0.0120467
0.0118021
0.0115672
0.0113413
0.011124
0.0109149
0.0107134
0.0105191
0.0103317
0.0101509
0.00997617
0.00980736
0.00964413
0.00948622
0.00933338
0.11639
0.0998143
0.087086
0.0770519
0.0689692
0.0623384
0.0568122
0.0521436
0.0481526
0.0447054
0.0417007
0.0390602
0.0367231
0.034641
0.0327751
0.031094
0.0295722
0.0281884
0.026925
0.0257672
0.0247025
0.0237203
0.0228114
0.0219682
0.0211838
0.0204524
0.0197689
0.0191288
0.0185281
0.0179633
0.0174314
0.0169296
0.0164554
0.0160068
0.0155816
0.0151781
0.0147947
0.01443
0.0140826
0.0137514
0.0134353
0.0131332
0.0128443
0.0125677
0.0123027
0.0120486
0.0118047
0.0115705
0.0113454
0.0111289
0.0109205
0.0107198
0.0105263
0.0103398
0.0101598
0.00998592
0.00981798
0.00965561
0.00949845
0.00934602
0.116417
0.0999854
0.0873788
0.0774627
0.0694936
0.0629656
0.057531
0.052944
0.0490259
0.0456441
0.0426981
0.040111
0.0378224
0.0357848
0.0339599
0.0323171
0.030831
0.0294809
0.0282493
0.0271217
0.026086
0.0251317
0.0242499
0.0234329
0.0226742
0.021968
0.0213093
0.0206938
0.0201175
0.0195771
0.0190696
0.0185922
0.0181426
0.0177186
0.0173183
0.0169398
0.0165816
0.0162423
0.0159206
0.0156152
0.0153251
0.0150493
0.0147869
0.014537
0.014299
0.014072
0.0138554
0.0136486
0.013451
0.0132622
0.0130816
0.0129089
0.0127435
0.0125852
0.0124335
0.0122881
0.0121486
0.0120142
0.0118837
0.0117436
0.200897
0.184965
0.171673
0.160443
0.150843
0.142557
0.135345
0.12902
0.123437
0.11848
0.114055
0.110086
0.10651
0.103276
0.10034
0.0976653
0.0952215
0.0929821
0.0909246
0.0890296
0.0872803
0.0856619
0.0841617
0.0827685
0.0814723
0.0802644
0.0791371
0.0780834
0.0770972
0.0761729
0.0753055
0.0744906
0.0737242
0.0730026
0.0723224
0.0716806
0.0710746
0.0705017
0.0699598
0.0694466
0.0689603
0.0684991
0.0680614
0.0676455
0.0672503
0.0668743
0.0665164
0.0661755
0.0658506
0.0655406
0.0652448
0.0649622
0.0646922
0.064434
0.0641869
0.0639503
0.0637236
0.0635064
0.063298
0.063098
)
;

boundaryField
{
    wall
    {
        type            compressible::alphatJayatillekeWallFunction;
        Prt             0.85;
        value           uniform 0;
    }
    inlet
    {
        type            calculated;
        value           uniform 9.47574;
    }
    outlet
    {
        type            calculated;
        value           nonuniform List<scalar> 
20
(
0.0630992
0.0117403
0.00935246
0.00933363
0.00933412
0.00933409
0.00933349
0.00934613
0.0117434
0.0630987
0.0630987
0.0117424
0.00935194
0.00933346
0.00933394
0.00933393
0.00933338
0.00934602
0.0117436
0.063098
)
;
    }
    heatWall
    {
        type            compressible::alphatJayatillekeWallFunction;
        Prt             0.85;
        value           nonuniform List<scalar> 
240
(
0.0209458
0.0209458
0.0193322
0.0193322
0.0179825
0.0179824
0.0168393
0.0168392
0.01586
0.0158599
0.015013
0.015013
0.0142744
0.0142743
0.0136256
0.0136255
0.013052
0.0130519
0.0125419
0.0125419
0.012086
0.012086
0.0116765
0.0116765
0.0113072
0.0113072
0.0109728
0.0109728
0.0106689
0.0106688
0.0103918
0.0103917
0.0101383
0.0101383
0.0099059
0.00990587
0.00969217
0.00969215
0.00949518
0.00949516
0.00931319
0.00931317
0.00914472
0.0091447
0.00898845
0.00898843
0.00884323
0.00884322
0.00870806
0.00870804
0.00858202
0.00858201
0.00846434
0.00846432
0.00835428
0.00835426
0.00825122
0.0082512
0.00815459
0.00815457
0.00806388
0.00806386
0.00797863
0.0079786
0.00789841
0.00789838
0.00782285
0.00782282
0.00775161
0.00775157
0.00768437
0.00768434
0.00762086
0.00762082
0.0075608
0.00756076
0.00750397
0.00750393
0.00745014
0.0074501
0.00739912
0.00739908
0.00735072
0.00735067
0.00730477
0.00730472
0.00726111
0.00726106
0.00721961
0.00721956
0.00718012
0.00718006
0.00714252
0.00714246
0.0071067
0.00710664
0.00707254
0.00707248
0.00703996
0.0070399
0.00700886
0.0070088
0.00697915
0.00697909
0.00695075
0.00695069
0.00692359
0.00692353
0.0068976
0.00689753
0.00687271
0.00687264
0.00684886
0.00684879
0.006826
0.00682592
0.00680407
0.006804
0.00678302
0.00678294
0.0209458
0.0209458
0.0193322
0.0193322
0.0179825
0.0179824
0.0168393
0.0168392
0.0158601
0.0158599
0.0150131
0.015013
0.0142745
0.0142744
0.0136256
0.0136256
0.013052
0.013052
0.012542
0.0125419
0.0120861
0.012086
0.0116766
0.0116765
0.0113073
0.0113072
0.0109728
0.0109728
0.0106689
0.0106689
0.0103918
0.0103918
0.0101384
0.0101383
0.00990594
0.0099059
0.00969222
0.00969218
0.00949522
0.00949518
0.00931323
0.0093132
0.00914476
0.00914473
0.00898849
0.00898846
0.00884327
0.00884324
0.00870809
0.00870807
0.00858206
0.00858204
0.00846437
0.00846435
0.00835431
0.00835429
0.00825125
0.00825123
0.00815462
0.0081546
0.00806391
0.00806389
0.00797865
0.00797863
0.00789844
0.00789841
0.00782288
0.00782285
0.00775164
0.00775161
0.0076844
0.00768437
0.00762088
0.00762085
0.00756083
0.0075608
0.007504
0.00750397
0.00745017
0.00745014
0.00739915
0.00739911
0.00735075
0.00735071
0.0073048
0.00730476
0.00726114
0.0072611
0.00721964
0.00721959
0.00718014
0.0071801
0.00714255
0.0071425
0.00710673
0.00710668
0.00707257
0.00707253
0.00703999
0.00703995
0.00700889
0.00700884
0.00697918
0.00697913
0.00695079
0.00695074
0.00692363
0.00692358
0.00689764
0.00689758
0.00687275
0.00687269
0.0068489
0.00684885
0.00682604
0.00682598
0.00680412
0.00680406
0.00678306
0.00678301
)
;
    }
}


// ************************************************************************* //
