/*--------------------------------*- C++ -*----------------------------------*\
  =========                 |
  \\      /  F ield         | OpenFOAM: The Open Source CFD Toolbox
   \\    /   O peration     | Website:  https://openfoam.org
    \\  /    A nd           | Version:  8
     \\/     M anipulation  |
\*---------------------------------------------------------------------------*/
FoamFile
{
    version     2.0;
    format      ascii;
    class       volScalarField;
    location    "600";
    object      epsilon;
}
// * * * * * * * * * * * * * * * * * * * * * * * * * * * * * * * * * * * * * //

dimensions      [0 2 -3 0 0 0 0];

internalField   nonuniform List<scalar> 
1200
(
1.13863
0.888651
0.710518
0.579998
0.481997
0.406849
0.348167
0.301601
0.264118
0.233558
0.208354
0.18735
0.16968
0.154687
0.141864
0.130819
0.121242
0.112888
0.105558
0.0990944
0.0933667
0.0882684
0.0837114
0.0796223
0.0759397
0.0726118
0.0695949
0.0668518
0.0643504
0.0620634
0.0599673
0.0580415
0.0562682
0.0546319
0.0531189
0.0517174
0.0504166
0.0492073
0.0480811
0.0470308
0.0460497
0.0451318
0.044272
0.0434655
0.042708
0.0419957
0.041325
0.0406929
0.0400963
0.0395327
0.0389998
0.0384953
0.0380172
0.0375637
0.0371332
0.0367241
0.036335
0.0359646
0.0356119
0.0352753
1.45211
0.919932
0.613991
0.427778
0.308863
0.229736
0.175232
0.136567
0.108433
0.0875042
0.0716296
0.0593805
0.0497837
0.0421617
0.0360335
0.0310514
0.0269603
0.0235699
0.0207366
0.0183506
0.016327
0.0145995
0.0131159
0.0118345
0.0107219
0.00975113
0.00890027
0.00815129
0.00748933
0.00690205
0.00637919
0.00591212
0.00549355
0.00511733
0.00477821
0.00447171
0.00419398
0.00394171
0.00371203
0.00350245
0.00331078
0.00313515
0.00297391
0.0028256
0.00268894
0.00256281
0.00244621
0.00233825
0.00223813
0.00214516
0.0020587
0.00197818
0.00190311
0.00183301
0.00176748
0.00170614
0.00164864
0.00159451
0.00154306
0.00148929
1.45109
0.915219
0.607842
0.421011
0.301933
0.222952
0.168761
0.130482
0.102756
0.08223
0.066739
0.0548474
0.0455796
0.0382581
0.0324029
0.0276685
0.0238016
0.0206142
0.0179648
0.0157455
0.0138732
0.0122832
0.0109248
0.00975753
0.00874923
0.00787394
0.00711059
0.00644197
0.00585393
0.00533478
0.00487478
0.0044658
0.00410099
0.0037746
0.00348173
0.0032182
0.00298045
0.00276543
0.0025705
0.00239341
0.00223216
0.00208504
0.00195054
0.00182735
0.0017143
0.00161038
0.0015147
0.00142645
0.00134494
0.00126952
0.00119966
0.00113485
0.00107464
0.00101863
0.000966469
0.00091783
0.00087242
0.000829972
0.000790228
0.000752881
1.45109
0.916295
0.609182
0.422337
0.303111
0.223944
0.169575
0.131143
0.10329
0.0826614
0.0670881
0.0551309
0.0458107
0.0384473
0.0325585
0.027797
0.0239082
0.020703
0.018039
0.0158078
0.0139256
0.0123274
0.0109621
0.00978915
0.00877604
0.00789669
0.00712989
0.00645835
0.00586781
0.00534652
0.00488468
0.00447412
0.00410795
0.00378037
0.00348647
0.00322204
0.00298351
0.00276781
0.00257227
0.00239462
0.00223286
0.00208526
0.00195033
0.00182672
0.00171329
0.00160902
0.001513
0.00142444
0.00134263
0.00126693
0.00119681
0.00113174
0.00107129
0.00101506
0.000962678
0.000913832
0.000868226
0.000825597
0.000785708
0.000748342
1.45109
0.916297
0.609052
0.422133
0.302882
0.223721
0.169374
0.13097
0.103145
0.0825414
0.0669898
0.0550506
0.0457454
0.038394
0.0325151
0.0277616
0.0238792
0.0206792
0.0180194
0.0157916
0.0139122
0.0123164
0.0109529
0.0097815
0.00876967
0.00789137
0.00712546
0.00645464
0.00586472
0.00534394
0.00488253
0.00447232
0.00410646
0.00377914
0.00348545
0.0032212
0.00298283
0.00276726
0.00257183
0.00239427
0.00223259
0.00208507
0.00195019
0.00182663
0.00171324
0.001609
0.00151301
0.00142447
0.00134268
0.00126701
0.00119689
0.00113184
0.00107139
0.00101517
0.000962793
0.00091395
0.000868346
0.000825718
0.000785828
0.000748461
1.45109
0.916298
0.609052
0.422133
0.302882
0.223721
0.169374
0.13097
0.103145
0.0825416
0.06699
0.0550508
0.0457455
0.0383941
0.0325152
0.0277616
0.0238792
0.0206792
0.0180195
0.0157916
0.0139122
0.0123164
0.0109529
0.0097815
0.00876967
0.00789137
0.00712545
0.00645463
0.00586471
0.00534393
0.00488252
0.00447231
0.00410644
0.00377912
0.00348543
0.00322119
0.00298282
0.00276724
0.00257182
0.00239426
0.00223258
0.00208506
0.00195017
0.00182662
0.00171323
0.00160899
0.001513
0.00142446
0.00134267
0.001267
0.00119688
0.00113183
0.00107139
0.00101516
0.000962784
0.000913941
0.000868338
0.00082571
0.00078582
0.000748454
1.45109
0.916294
0.609182
0.422336
0.30311
0.223944
0.169575
0.131143
0.10329
0.0826612
0.0670879
0.0551307
0.0458106
0.0384472
0.0325584
0.027797
0.0239082
0.020703
0.018039
0.0158077
0.0139256
0.0123274
0.0109621
0.00978912
0.00877601
0.00789666
0.00712987
0.00645832
0.00586779
0.0053465
0.00488466
0.0044741
0.00410793
0.00378035
0.00348645
0.00322202
0.00298349
0.00276779
0.00257225
0.0023946
0.00223284
0.00208525
0.00195031
0.0018267
0.00171327
0.001609
0.00151298
0.00142442
0.0013426
0.00126691
0.00119678
0.00113171
0.00107126
0.00101503
0.00096265
0.000913802
0.000868196
0.000825566
0.000785675
0.000748308
1.45109
0.91522
0.607844
0.421012
0.301934
0.222953
0.168761
0.130482
0.102757
0.0822303
0.0667392
0.0548476
0.0455797
0.0382581
0.032403
0.0276685
0.0238016
0.0206142
0.0179648
0.0157455
0.0138732
0.0122832
0.0109248
0.00975752
0.00874922
0.00787392
0.00711057
0.00644195
0.00585391
0.00533476
0.00487476
0.00446577
0.00410097
0.00377458
0.0034817
0.00321817
0.00298042
0.0027654
0.00257046
0.00239333
0.00223203
0.00208484
0.00195026
0.00182697
0.00171382
0.0016098
0.00151401
0.00142567
0.00134407
0.00126858
0.00119864
0.00113375
0.00107347
0.0010174
0.00096518
0.000916483
0.000871017
0.000828514
0.000788717
0.000751353
1.45211
0.919935
0.613996
0.427783
0.30887
0.229744
0.175241
0.136578
0.108445
0.0875172
0.0716433
0.0593946
0.0497978
0.0421757
0.0360471
0.0310645
0.0269727
0.0235816
0.0207475
0.0183608
0.0163365
0.0146084
0.0131241
0.011842
0.0107289
0.00975769
0.00890639
0.008157
0.00749467
0.00690706
0.00638387
0.00591647
0.00549758
0.00512104
0.00478161
0.00447482
0.00419682
0.00394429
0.00371437
0.00350458
0.00331275
0.00313699
0.00297565
0.00282726
0.00269056
0.0025644
0.00244777
0.00233979
0.00223965
0.00214665
0.00206017
0.00197963
0.00190454
0.00183443
0.00176889
0.00170755
0.00165004
0.0015959
0.00154442
0.00149047
1.13863
0.888648
0.710515
0.579994
0.481992
0.406846
0.348164
0.301598
0.264115
0.233555
0.208351
0.187347
0.169677
0.154684
0.141862
0.130817
0.121241
0.112886
0.105557
0.099093
0.0933655
0.0882673
0.0837103
0.0796213
0.0759387
0.0726109
0.0695941
0.0668509
0.0643496
0.0620627
0.0599666
0.0580409
0.0562676
0.0546313
0.0531184
0.0517168
0.0504161
0.0492068
0.0480806
0.0470303
0.0460491
0.0451313
0.0442715
0.043465
0.0427075
0.0419952
0.0413245
0.0406923
0.0400958
0.0395322
0.0389992
0.0384947
0.0380166
0.0375631
0.0371326
0.0367235
0.0363344
0.0359639
0.0356111
0.0352746
1.13863
0.888648
0.710511
0.579988
0.481987
0.406841
0.34816
0.301595
0.264113
0.233553
0.20835
0.187346
0.169677
0.154684
0.141862
0.130817
0.12124
0.112886
0.105557
0.0990932
0.0933657
0.0882676
0.0837106
0.0796216
0.075939
0.0726112
0.0695944
0.0668512
0.0643498
0.0620629
0.0599667
0.0580409
0.0562677
0.0546313
0.0531184
0.0517168
0.050416
0.0492067
0.0480805
0.0470302
0.046049
0.0451311
0.0442713
0.0434648
0.0427073
0.0419949
0.0413243
0.0406921
0.0400955
0.0395319
0.0389989
0.0384944
0.0380163
0.0375628
0.0371323
0.0367232
0.0363341
0.0359637
0.035611
0.0352744
1.45211
0.919934
0.61399
0.427775
0.308863
0.229737
0.175231
0.136565
0.108429
0.087499
0.0716238
0.0593748
0.0497787
0.0421578
0.0360308
0.03105
0.02696
0.0235707
0.0207381
0.0183526
0.0163293
0.0146019
0.0131182
0.0118366
0.0107239
0.00975292
0.00890188
0.00815276
0.0074907
0.00690338
0.0063805
0.00591342
0.00549487
0.00511868
0.0047796
0.00447314
0.00419546
0.00394322
0.00371355
0.00350396
0.00331229
0.00313664
0.00297538
0.00282704
0.00269036
0.0025642
0.00244755
0.00233954
0.00223937
0.00214634
0.00205983
0.00197926
0.00190414
0.00183402
0.00176847
0.00170712
0.00164958
0.00159544
0.00154396
0.00149011
1.45109
0.915221
0.607846
0.421014
0.301935
0.222953
0.168761
0.130481
0.102756
0.0822293
0.0667383
0.0548467
0.045579
0.0382574
0.0324024
0.027668
0.0238011
0.0206138
0.0179644
0.0157452
0.0138729
0.012283
0.0109245
0.0097573
0.00874902
0.00787375
0.00711041
0.0064418
0.00585378
0.00533463
0.00487464
0.00446567
0.00410087
0.00377449
0.00348161
0.00321809
0.00298035
0.00276533
0.0025704
0.00239331
0.00223207
0.00208495
0.00195045
0.00182725
0.00171421
0.00161029
0.0015146
0.00142635
0.00134484
0.00126942
0.00119956
0.00113474
0.00107453
0.00101852
0.000966357
0.000917715
0.000872303
0.000829852
0.000790105
0.000752756
1.45109
0.916294
0.609182
0.422337
0.30311
0.223943
0.169574
0.131142
0.10329
0.0826607
0.0670875
0.0551304
0.0458103
0.0384469
0.0325582
0.0277968
0.023908
0.0207029
0.0180389
0.0158076
0.0139255
0.0123273
0.0109621
0.00978907
0.00877597
0.00789662
0.00712983
0.00645829
0.00586776
0.00534647
0.00488464
0.00447407
0.00410791
0.00378033
0.00348643
0.003222
0.00298347
0.00276777
0.00257223
0.00239458
0.00223282
0.00208523
0.00195029
0.00182668
0.00171326
0.00160898
0.00151296
0.0014244
0.00134259
0.00126689
0.00119677
0.0011317
0.00107125
0.00101502
0.000962637
0.000913791
0.000868185
0.000825556
0.000785667
0.000748301
1.45109
0.916297
0.609053
0.422134
0.302882
0.223721
0.169374
0.130969
0.103145
0.0825409
0.0669893
0.0550502
0.045745
0.0383937
0.0325148
0.0277613
0.023879
0.020679
0.0180192
0.0157914
0.0139121
0.0123162
0.0109528
0.00978138
0.00876956
0.00789127
0.00712536
0.00645455
0.00586463
0.00534386
0.00488245
0.00447225
0.00410639
0.00377907
0.00348538
0.00322114
0.00298277
0.0027672
0.00257178
0.00239422
0.00223254
0.00208501
0.00195013
0.00182658
0.00171319
0.00160895
0.00151296
0.00142442
0.00134263
0.00126696
0.00119684
0.00113179
0.00107135
0.00101512
0.000962747
0.000913904
0.000868301
0.000825674
0.000785784
0.000748418
1.45109
0.916297
0.609053
0.422134
0.302883
0.223722
0.169374
0.13097
0.103145
0.0825411
0.0669895
0.0550504
0.0457451
0.0383938
0.0325149
0.0277614
0.023879
0.0206791
0.0180193
0.0157915
0.0139121
0.0123162
0.0109528
0.0097814
0.00876957
0.00789128
0.00712537
0.00645456
0.00586464
0.00534386
0.00488245
0.00447225
0.00410639
0.00377907
0.00348538
0.00322114
0.00298277
0.00276719
0.00257177
0.00239421
0.00223253
0.00208501
0.00195013
0.00182657
0.00171319
0.00160895
0.00151296
0.00142442
0.00134263
0.00126695
0.00119684
0.00113178
0.00107134
0.00101512
0.000962743
0.0009139
0.000868297
0.00082567
0.00078578
0.000748414
1.45109
0.916294
0.609182
0.422337
0.30311
0.223943
0.169574
0.131142
0.103289
0.0826606
0.0670874
0.0551303
0.0458102
0.0384469
0.0325582
0.0277968
0.023908
0.0207028
0.0180389
0.0158076
0.0139255
0.0123273
0.010962
0.00978906
0.00877596
0.00789661
0.00712982
0.00645828
0.00586775
0.00534646
0.00488462
0.00447406
0.00410789
0.00378032
0.00348642
0.00322199
0.00298346
0.00276776
0.00257222
0.00239457
0.00223281
0.00208522
0.00195028
0.00182667
0.00171325
0.00160897
0.00151295
0.00142439
0.00134257
0.00126688
0.00119675
0.00113169
0.00107124
0.001015
0.000962623
0.000913776
0.00086817
0.00082554
0.000785649
0.000748283
1.45109
0.915222
0.607847
0.421015
0.301936
0.222954
0.168761
0.130482
0.102756
0.0822298
0.0667387
0.0548471
0.0455793
0.0382577
0.0324026
0.0276682
0.0238013
0.020614
0.0179646
0.0157453
0.013873
0.0122831
0.0109246
0.00975737
0.00874908
0.0078738
0.00711045
0.00644184
0.00585381
0.00533466
0.00487466
0.00446568
0.00410088
0.00377449
0.00348162
0.00321809
0.00298034
0.00276532
0.00257039
0.00239326
0.00223196
0.00208477
0.00195019
0.00182691
0.00171376
0.00160974
0.00151396
0.00142563
0.00134403
0.00126854
0.00119861
0.00113373
0.00107345
0.00101738
0.000965158
0.00091646
0.000870993
0.00082849
0.000788692
0.000751325
1.45211
0.919937
0.613997
0.427785
0.308875
0.229752
0.175248
0.136583
0.108449
0.0875186
0.071643
0.0593932
0.0497959
0.0421737
0.0360453
0.0310631
0.0269719
0.0235813
0.0207476
0.0183611
0.0163369
0.0146087
0.0131243
0.011842
0.0107286
0.00975702
0.00890543
0.00815578
0.00749323
0.00690547
0.0063822
0.0059148
0.00549599
0.00511958
0.00478032
0.00447372
0.0041959
0.00394356
0.00371382
0.00350419
0.0033125
0.00313686
0.00297561
0.00282731
0.00269066
0.00256453
0.00244792
0.00233994
0.00223979
0.00214678
0.00206028
0.00197974
0.00190464
0.00183453
0.00176899
0.00170765
0.00165013
0.001596
0.00154452
0.00149055
1.13864
0.88865
0.710512
0.579988
0.481986
0.40684
0.348159
0.301594
0.264112
0.233552
0.208349
0.187345
0.169676
0.154683
0.141861
0.130816
0.12124
0.112885
0.105556
0.0990924
0.0933649
0.0882667
0.0837098
0.0796208
0.0759383
0.0726105
0.0695936
0.0668504
0.0643491
0.0620622
0.059966
0.0580402
0.0562669
0.0546306
0.0531177
0.0517161
0.0504153
0.049206
0.0480798
0.0470294
0.0460483
0.0451304
0.0442706
0.0434641
0.0427066
0.0419942
0.0413235
0.0406913
0.0400947
0.0395311
0.0389982
0.0384936
0.0380155
0.037562
0.0371315
0.0367223
0.0363332
0.0359627
0.0356099
0.0352733
)
;

boundaryField
{
    wall
    {
        type            epsilonWallFunction;
        value           nonuniform List<scalar> 
1200
(
1.13863
1.45211
1.45109
1.45109
1.45109
1.45109
1.45109
1.45109
1.45211
1.13863
0.888651
0.919932
0.915219
0.916295
0.916297
0.916298
0.916294
0.91522
0.919935
0.888648
0.710518
0.613991
0.607842
0.609182
0.609052
0.609052
0.609182
0.607844
0.613996
0.710515
0.579998
0.427778
0.421011
0.422337
0.422133
0.422133
0.422336
0.421012
0.427783
0.579994
0.481997
0.308863
0.301933
0.303111
0.302882
0.302882
0.30311
0.301934
0.30887
0.481992
0.406849
0.229736
0.222952
0.223944
0.223721
0.223721
0.223944
0.222953
0.229744
0.406846
0.348167
0.175232
0.168761
0.169575
0.169374
0.169374
0.169575
0.168761
0.175241
0.348164
0.301601
0.136567
0.130482
0.131143
0.13097
0.13097
0.131143
0.130482
0.136578
0.301598
0.264118
0.108433
0.102756
0.10329
0.103145
0.103145
0.10329
0.102757
0.108445
0.264115
0.233558
0.0875042
0.08223
0.0826614
0.0825414
0.0825416
0.0826612
0.0822303
0.0875172
0.233555
0.208354
0.0716296
0.066739
0.0670881
0.0669898
0.06699
0.0670879
0.0667392
0.0716433
0.208351
0.18735
0.0593805
0.0548474
0.0551309
0.0550506
0.0550508
0.0551307
0.0548476
0.0593946
0.187347
0.16968
0.0497837
0.0455796
0.0458107
0.0457454
0.0457455
0.0458106
0.0455797
0.0497978
0.169677
0.154687
0.0421617
0.0382581
0.0384473
0.038394
0.0383941
0.0384472
0.0382581
0.0421757
0.154684
0.141864
0.0360335
0.0324029
0.0325585
0.0325151
0.0325152
0.0325584
0.032403
0.0360471
0.141862
0.130819
0.0310514
0.0276685
0.027797
0.0277616
0.0277616
0.027797
0.0276685
0.0310645
0.130817
0.121242
0.0269603
0.0238016
0.0239082
0.0238792
0.0238792
0.0239082
0.0238016
0.0269727
0.121241
0.112888
0.0235699
0.0206142
0.020703
0.0206792
0.0206792
0.020703
0.0206142
0.0235816
0.112886
0.105558
0.0207366
0.0179648
0.018039
0.0180194
0.0180195
0.018039
0.0179648
0.0207475
0.105557
0.0990944
0.0183506
0.0157455
0.0158078
0.0157916
0.0157916
0.0158077
0.0157455
0.0183608
0.099093
0.0933667
0.016327
0.0138732
0.0139256
0.0139122
0.0139122
0.0139256
0.0138732
0.0163365
0.0933655
0.0882684
0.0145995
0.0122832
0.0123274
0.0123164
0.0123164
0.0123274
0.0122832
0.0146084
0.0882673
0.0837114
0.0131159
0.0109248
0.0109621
0.0109529
0.0109529
0.0109621
0.0109248
0.0131241
0.0837103
0.0796223
0.0118345
0.00975753
0.00978915
0.0097815
0.0097815
0.00978912
0.00975752
0.011842
0.0796213
0.0759397
0.0107219
0.00874923
0.00877604
0.00876967
0.00876967
0.00877601
0.00874922
0.0107289
0.0759387
0.0726118
0.00975113
0.00787394
0.00789669
0.00789137
0.00789137
0.00789666
0.00787392
0.00975769
0.0726109
0.0695949
0.00890027
0.00711059
0.00712989
0.00712546
0.00712545
0.00712987
0.00711057
0.00890639
0.0695941
0.0668518
0.00815129
0.00644197
0.00645835
0.00645464
0.00645463
0.00645832
0.00644195
0.008157
0.0668509
0.0643504
0.00748933
0.00585393
0.00586781
0.00586472
0.00586471
0.00586779
0.00585391
0.00749467
0.0643496
0.0620634
0.00690205
0.00533478
0.00534652
0.00534394
0.00534393
0.0053465
0.00533476
0.00690706
0.0620627
0.0599673
0.00637919
0.00487478
0.00488468
0.00488253
0.00488252
0.00488466
0.00487476
0.00638387
0.0599666
0.0580415
0.00591212
0.0044658
0.00447412
0.00447232
0.00447231
0.0044741
0.00446577
0.00591647
0.0580409
0.0562682
0.00549355
0.00410099
0.00410795
0.00410646
0.00410644
0.00410793
0.00410097
0.00549758
0.0562676
0.0546319
0.00511733
0.0037746
0.00378037
0.00377914
0.00377912
0.00378035
0.00377458
0.00512104
0.0546313
0.0531189
0.00477821
0.00348173
0.00348647
0.00348545
0.00348543
0.00348645
0.0034817
0.00478161
0.0531184
0.0517174
0.00447171
0.0032182
0.00322204
0.0032212
0.00322119
0.00322202
0.00321817
0.00447482
0.0517168
0.0504166
0.00419398
0.00298045
0.00298351
0.00298283
0.00298282
0.00298349
0.00298042
0.00419682
0.0504161
0.0492073
0.00394171
0.00276543
0.00276781
0.00276726
0.00276724
0.00276779
0.0027654
0.00394429
0.0492068
0.0480811
0.00371203
0.0025705
0.00257227
0.00257183
0.00257182
0.00257225
0.00257046
0.00371437
0.0480806
0.0470308
0.00350245
0.00239341
0.00239462
0.00239427
0.00239426
0.0023946
0.00239333
0.00350458
0.0470303
0.0460497
0.00331078
0.00223216
0.00223286
0.00223259
0.00223258
0.00223284
0.00223203
0.00331275
0.0460491
0.0451318
0.00313515
0.00208504
0.00208526
0.00208507
0.00208506
0.00208525
0.00208484
0.00313699
0.0451313
0.044272
0.00297391
0.00195054
0.00195033
0.00195019
0.00195017
0.00195031
0.00195026
0.00297565
0.0442715
0.0434655
0.0028256
0.00182735
0.00182672
0.00182663
0.00182662
0.0018267
0.00182697
0.00282726
0.043465
0.042708
0.00268894
0.0017143
0.00171329
0.00171324
0.00171323
0.00171327
0.00171382
0.00269056
0.0427075
0.0419957
0.00256281
0.00161038
0.00160902
0.001609
0.00160899
0.001609
0.0016098
0.0025644
0.0419952
0.041325
0.00244621
0.0015147
0.001513
0.00151301
0.001513
0.00151298
0.00151401
0.00244777
0.0413245
0.0406929
0.00233825
0.00142645
0.00142444
0.00142447
0.00142446
0.00142442
0.00142567
0.00233979
0.0406923
0.0400963
0.00223813
0.00134494
0.00134263
0.00134268
0.00134267
0.0013426
0.00134407
0.00223965
0.0400958
0.0395327
0.00214516
0.00126952
0.00126693
0.00126701
0.001267
0.00126691
0.00126858
0.00214665
0.0395322
0.0389998
0.0020587
0.00119966
0.00119681
0.00119689
0.00119688
0.00119678
0.00119864
0.00206017
0.0389992
0.0384953
0.00197818
0.00113485
0.00113174
0.00113184
0.00113183
0.00113171
0.00113375
0.00197963
0.0384947
0.0380172
0.00190311
0.00107464
0.00107129
0.00107139
0.00107139
0.00107126
0.00107347
0.00190454
0.0380166
0.0375637
0.00183301
0.00101863
0.00101506
0.00101517
0.00101516
0.00101503
0.0010174
0.00183443
0.0375631
0.0371332
0.00176748
0.000966469
0.000962678
0.000962793
0.000962784
0.00096265
0.00096518
0.00176889
0.0371326
0.0367241
0.00170614
0.00091783
0.000913832
0.00091395
0.000913941
0.000913802
0.000916483
0.00170755
0.0367235
0.036335
0.00164864
0.00087242
0.000868226
0.000868346
0.000868338
0.000868196
0.000871017
0.00165004
0.0363344
0.0359646
0.00159451
0.000829972
0.000825597
0.000825718
0.00082571
0.000825566
0.000828514
0.0015959
0.0359639
0.0356119
0.00154306
0.000790228
0.000785708
0.000785828
0.00078582
0.000785675
0.000788717
0.00154442
0.0356111
0.0352753
0.00148929
0.000752881
0.000748342
0.000748461
0.000748454
0.000748308
0.000751353
0.00149047
0.0352746
1.13863
1.45211
1.45109
1.45109
1.45109
1.45109
1.45109
1.45109
1.45211
1.13864
0.888648
0.919934
0.915221
0.916294
0.916297
0.916297
0.916294
0.915222
0.919937
0.88865
0.710511
0.61399
0.607846
0.609182
0.609053
0.609053
0.609182
0.607847
0.613997
0.710512
0.579988
0.427775
0.421014
0.422337
0.422134
0.422134
0.422337
0.421015
0.427785
0.579988
0.481987
0.308863
0.301935
0.30311
0.302882
0.302883
0.30311
0.301936
0.308875
0.481986
0.406841
0.229737
0.222953
0.223943
0.223721
0.223722
0.223943
0.222954
0.229752
0.40684
0.34816
0.175231
0.168761
0.169574
0.169374
0.169374
0.169574
0.168761
0.175248
0.348159
0.301595
0.136565
0.130481
0.131142
0.130969
0.13097
0.131142
0.130482
0.136583
0.301594
0.264113
0.108429
0.102756
0.10329
0.103145
0.103145
0.103289
0.102756
0.108449
0.264112
0.233553
0.087499
0.0822293
0.0826607
0.0825409
0.0825411
0.0826606
0.0822298
0.0875186
0.233552
0.20835
0.0716238
0.0667383
0.0670875
0.0669893
0.0669895
0.0670874
0.0667387
0.071643
0.208349
0.187346
0.0593748
0.0548467
0.0551304
0.0550502
0.0550504
0.0551303
0.0548471
0.0593932
0.187345
0.169677
0.0497787
0.045579
0.0458103
0.045745
0.0457451
0.0458102
0.0455793
0.0497959
0.169676
0.154684
0.0421578
0.0382574
0.0384469
0.0383937
0.0383938
0.0384469
0.0382577
0.0421737
0.154683
0.141862
0.0360308
0.0324024
0.0325582
0.0325148
0.0325149
0.0325582
0.0324026
0.0360453
0.141861
0.130817
0.03105
0.027668
0.0277968
0.0277613
0.0277614
0.0277968
0.0276682
0.0310631
0.130816
0.12124
0.02696
0.0238011
0.023908
0.023879
0.023879
0.023908
0.0238013
0.0269719
0.12124
0.112886
0.0235707
0.0206138
0.0207029
0.020679
0.0206791
0.0207028
0.020614
0.0235813
0.112885
0.105557
0.0207381
0.0179644
0.0180389
0.0180192
0.0180193
0.0180389
0.0179646
0.0207476
0.105556
0.0990932
0.0183526
0.0157452
0.0158076
0.0157914
0.0157915
0.0158076
0.0157453
0.0183611
0.0990924
0.0933657
0.0163293
0.0138729
0.0139255
0.0139121
0.0139121
0.0139255
0.013873
0.0163369
0.0933649
0.0882676
0.0146019
0.012283
0.0123273
0.0123162
0.0123162
0.0123273
0.0122831
0.0146087
0.0882667
0.0837106
0.0131182
0.0109245
0.0109621
0.0109528
0.0109528
0.010962
0.0109246
0.0131243
0.0837098
0.0796216
0.0118366
0.0097573
0.00978907
0.00978138
0.0097814
0.00978906
0.00975737
0.011842
0.0796208
0.075939
0.0107239
0.00874902
0.00877597
0.00876956
0.00876957
0.00877596
0.00874908
0.0107286
0.0759383
0.0726112
0.00975292
0.00787375
0.00789662
0.00789127
0.00789128
0.00789661
0.0078738
0.00975702
0.0726105
0.0695944
0.00890188
0.00711041
0.00712983
0.00712536
0.00712537
0.00712982
0.00711045
0.00890543
0.0695936
0.0668512
0.00815276
0.0064418
0.00645829
0.00645455
0.00645456
0.00645828
0.00644184
0.00815578
0.0668504
0.0643498
0.0074907
0.00585378
0.00586776
0.00586463
0.00586464
0.00586775
0.00585381
0.00749323
0.0643491
0.0620629
0.00690338
0.00533463
0.00534647
0.00534386
0.00534386
0.00534646
0.00533466
0.00690547
0.0620622
0.0599667
0.0063805
0.00487464
0.00488464
0.00488245
0.00488245
0.00488462
0.00487466
0.0063822
0.059966
0.0580409
0.00591342
0.00446567
0.00447407
0.00447225
0.00447225
0.00447406
0.00446568
0.0059148
0.0580402
0.0562677
0.00549487
0.00410087
0.00410791
0.00410639
0.00410639
0.00410789
0.00410088
0.00549599
0.0562669
0.0546313
0.00511868
0.00377449
0.00378033
0.00377907
0.00377907
0.00378032
0.00377449
0.00511958
0.0546306
0.0531184
0.0047796
0.00348161
0.00348643
0.00348538
0.00348538
0.00348642
0.00348162
0.00478032
0.0531177
0.0517168
0.00447314
0.00321809
0.003222
0.00322114
0.00322114
0.00322199
0.00321809
0.00447372
0.0517161
0.050416
0.00419546
0.00298035
0.00298347
0.00298277
0.00298277
0.00298346
0.00298034
0.0041959
0.0504153
0.0492067
0.00394322
0.00276533
0.00276777
0.0027672
0.00276719
0.00276776
0.00276532
0.00394356
0.049206
0.0480805
0.00371355
0.0025704
0.00257223
0.00257178
0.00257177
0.00257222
0.00257039
0.00371382
0.0480798
0.0470302
0.00350396
0.00239331
0.00239458
0.00239422
0.00239421
0.00239457
0.00239326
0.00350419
0.0470294
0.046049
0.00331229
0.00223207
0.00223282
0.00223254
0.00223253
0.00223281
0.00223196
0.0033125
0.0460483
0.0451311
0.00313664
0.00208495
0.00208523
0.00208501
0.00208501
0.00208522
0.00208477
0.00313686
0.0451304
0.0442713
0.00297538
0.00195045
0.00195029
0.00195013
0.00195013
0.00195028
0.00195019
0.00297561
0.0442706
0.0434648
0.00282704
0.00182725
0.00182668
0.00182658
0.00182657
0.00182667
0.00182691
0.00282731
0.0434641
0.0427073
0.00269036
0.00171421
0.00171326
0.00171319
0.00171319
0.00171325
0.00171376
0.00269066
0.0427066
0.0419949
0.0025642
0.00161029
0.00160898
0.00160895
0.00160895
0.00160897
0.00160974
0.00256453
0.0419942
0.0413243
0.00244755
0.0015146
0.00151296
0.00151296
0.00151296
0.00151295
0.00151396
0.00244792
0.0413235
0.0406921
0.00233954
0.00142635
0.0014244
0.00142442
0.00142442
0.00142439
0.00142563
0.00233994
0.0406913
0.0400955
0.00223937
0.00134484
0.00134259
0.00134263
0.00134263
0.00134257
0.00134403
0.00223979
0.0400947
0.0395319
0.00214634
0.00126942
0.00126689
0.00126696
0.00126695
0.00126688
0.00126854
0.00214678
0.0395311
0.0389989
0.00205983
0.00119956
0.00119677
0.00119684
0.00119684
0.00119675
0.00119861
0.00206028
0.0389982
0.0384944
0.00197926
0.00113474
0.0011317
0.00113179
0.00113178
0.00113169
0.00113373
0.00197974
0.0384936
0.0380163
0.00190414
0.00107453
0.00107125
0.00107135
0.00107134
0.00107124
0.00107345
0.00190464
0.0380155
0.0375628
0.00183402
0.00101852
0.00101502
0.00101512
0.00101512
0.001015
0.00101738
0.00183453
0.037562
0.0371323
0.00176847
0.000966357
0.000962637
0.000962747
0.000962743
0.000962623
0.000965158
0.00176899
0.0371315
0.0367232
0.00170712
0.000917715
0.000913791
0.000913904
0.0009139
0.000913776
0.00091646
0.00170765
0.0367223
0.0363341
0.00164958
0.000872303
0.000868185
0.000868301
0.000868297
0.00086817
0.000870993
0.00165013
0.0363332
0.0359637
0.00159544
0.000829852
0.000825556
0.000825674
0.00082567
0.00082554
0.00082849
0.001596
0.0359627
0.035611
0.00154396
0.000790105
0.000785667
0.000785784
0.00078578
0.000785649
0.000788692
0.00154452
0.0356099
0.0352744
0.00149011
0.000752756
0.000748301
0.000748418
0.000748414
0.000748283
0.000751325
0.00149055
0.0352733
)
;
    }
    inlet
    {
        type            turbulentMixingLengthDissipationRateInlet;
        mixingLength    0.071;
        phi             phi;
        k               k;
        value           uniform 0.0340134;
    }
    outlet
    {
        type            inletOutlet;
        inletValue      uniform 0.0001;
        value           nonuniform List<scalar> 
20
(
0.0352753
0.00148929
0.000752881
0.000748342
0.000748461
0.000748454
0.000748308
0.000751353
0.00149047
0.0352746
0.0352744
0.00149011
0.000752756
0.000748301
0.000748418
0.000748414
0.000748283
0.000751325
0.00149055
0.0352733
)
;
    }
    heatWall
    {
        type            epsilonWallFunction;
        value           nonuniform List<scalar> 
240
(
1.13863
1.13864
0.888648
0.88865
0.710515
0.710512
0.579994
0.579988
0.481992
0.481986
0.406846
0.40684
0.348164
0.348159
0.301598
0.301594
0.264115
0.264112
0.233555
0.233552
0.208351
0.208349
0.187347
0.187345
0.169677
0.169676
0.154684
0.154683
0.141862
0.141861
0.130817
0.130816
0.121241
0.12124
0.112886
0.112885
0.105557
0.105556
0.099093
0.0990924
0.0933655
0.0933649
0.0882673
0.0882667
0.0837103
0.0837098
0.0796213
0.0796208
0.0759387
0.0759383
0.0726109
0.0726105
0.0695941
0.0695936
0.0668509
0.0668504
0.0643496
0.0643491
0.0620627
0.0620622
0.0599666
0.059966
0.0580409
0.0580402
0.0562676
0.0562669
0.0546313
0.0546306
0.0531184
0.0531177
0.0517168
0.0517161
0.0504161
0.0504153
0.0492068
0.049206
0.0480806
0.0480798
0.0470303
0.0470294
0.0460491
0.0460483
0.0451313
0.0451304
0.0442715
0.0442706
0.043465
0.0434641
0.0427075
0.0427066
0.0419952
0.0419942
0.0413245
0.0413235
0.0406923
0.0406913
0.0400958
0.0400947
0.0395322
0.0395311
0.0389992
0.0389982
0.0384947
0.0384936
0.0380166
0.0380155
0.0375631
0.037562
0.0371326
0.0371315
0.0367235
0.0367223
0.0363344
0.0363332
0.0359639
0.0359627
0.0356111
0.0356099
0.0352746
0.0352733
1.13863
1.13863
0.888651
0.888648
0.710518
0.710511
0.579998
0.579988
0.481997
0.481987
0.406849
0.406841
0.348167
0.34816
0.301601
0.301595
0.264118
0.264113
0.233558
0.233553
0.208354
0.20835
0.18735
0.187346
0.16968
0.169677
0.154687
0.154684
0.141864
0.141862
0.130819
0.130817
0.121242
0.12124
0.112888
0.112886
0.105558
0.105557
0.0990944
0.0990932
0.0933667
0.0933657
0.0882684
0.0882676
0.0837114
0.0837106
0.0796223
0.0796216
0.0759397
0.075939
0.0726118
0.0726112
0.0695949
0.0695944
0.0668518
0.0668512
0.0643504
0.0643498
0.0620634
0.0620629
0.0599673
0.0599667
0.0580415
0.0580409
0.0562682
0.0562677
0.0546319
0.0546313
0.0531189
0.0531184
0.0517174
0.0517168
0.0504166
0.050416
0.0492073
0.0492067
0.0480811
0.0480805
0.0470308
0.0470302
0.0460497
0.046049
0.0451318
0.0451311
0.044272
0.0442713
0.0434655
0.0434648
0.042708
0.0427073
0.0419957
0.0419949
0.041325
0.0413243
0.0406929
0.0406921
0.0400963
0.0400955
0.0395327
0.0395319
0.0389998
0.0389989
0.0384953
0.0384944
0.0380172
0.0380163
0.0375637
0.0375628
0.0371332
0.0371323
0.0367241
0.0367232
0.036335
0.0363341
0.0359646
0.0359637
0.0356119
0.035611
0.0352753
0.0352744
)
;
    }
}


// ************************************************************************* //
