/*--------------------------------*- C++ -*----------------------------------*\
  =========                 |
  \\      /  F ield         | OpenFOAM: The Open Source CFD Toolbox
   \\    /   O peration     | Website:  https://openfoam.org
    \\  /    A nd           | Version:  8
     \\/     M anipulation  |
\*---------------------------------------------------------------------------*/
FoamFile
{
    version     2.0;
    format      ascii;
    class       volScalarField;
    location    "600";
    object      p;
}
// * * * * * * * * * * * * * * * * * * * * * * * * * * * * * * * * * * * * * //

dimensions      [1 -1 -2 0 0 0 0];

internalField   nonuniform List<scalar> 
1200
(
469.694
261.918
173.969
143.603
123.388
106.469
92.8166
81.4362
71.5326
62.7416
54.8333
47.6662
41.1484
35.1868
29.6999
24.62
19.8988
15.5003
11.3796
7.49572
3.82414
0.346943
-2.96298
-6.13519
-9.18158
-12.1116
-14.9466
-17.7011
-20.3807
-22.997
-25.5625
-28.0833
-30.5667
-33.0211
-35.4515
-37.8613
-40.2538
-42.6344
-45.0101
-47.3822
-49.7518
-52.1235
-54.4998
-56.8799
-59.2648
-61.6592
-64.0671
-66.4886
-68.92
-71.3623
-73.821
-76.294
-78.7838
-81.2899
-83.8085
-86.3437
-88.905
-91.5165
-94.216
-97.6844
-167.708
-142.238
-135.88
-129.995
-129.042
-131.886
-136.148
-140.921
-145.891
-150.851
-155.702
-160.381
-164.847
-169.098
-173.147
-177.01
-180.698
-184.218
-187.589
-190.83
-193.952
-196.96
-199.869
-202.699
-205.451
-208.132
-210.755
-213.33
-215.856
-218.344
-220.801
-223.23
-225.636
-228.025
-230.4
-232.764
-235.119
-237.468
-239.818
-242.171
-244.526
-246.887
-249.256
-251.631
-254.012
-256.405
-258.813
-261.235
-263.668
-266.113
-268.574
-271.051
-273.545
-276.055
-278.578
-281.117
-283.679
-286.276
-288.922
-291.73
-291.462
-233.767
-227.199
-240.418
-255.551
-270.261
-284.065
-296.673
-308.046
-318.275
-327.518
-335.892
-343.483
-350.384
-356.685
-362.466
-367.791
-372.711
-377.278
-381.537
-385.525
-389.274
-392.815
-396.179
-399.385
-402.45
-405.399
-408.247
-411.004
-413.686
-416.305
-418.869
-421.386
-423.867
-426.318
-428.742
-431.146
-433.534
-435.914
-438.288
-440.659
-443.032
-445.407
-447.785
-450.167
-452.557
-454.96
-457.376
-459.8
-462.236
-464.686
-467.152
-469.634
-472.132
-474.643
-477.17
-479.713
-482.273
-484.821
-487.202
-486.149
-463.818
-470.443
-488.138
-502.023
-512.352
-521.007
-528.507
-535.059
-540.902
-546.233
-551.165
-555.763
-560.075
-564.145
-568.006
-571.683
-575.193
-578.552
-581.775
-584.877
-587.869
-590.766
-593.578
-596.312
-598.978
-601.588
-604.147
-606.66
-609.138
-611.586
-614.005
-616.403
-618.785
-621.152
-623.51
-625.859
-628.203
-630.548
-632.892
-635.237
-637.588
-639.947
-642.311
-644.685
-647.07
-649.469
-651.882
-654.305
-656.741
-659.193
-661.661
-664.145
-666.645
-669.161
-671.691
-674.233
-676.779
-679.29
-681.566
-677.724
-658.316
-654.785
-664.214
-674.336
-683.754
-693.316
-702.694
-711.493
-719.631
-727.147
-734.083
-740.477
-746.376
-751.828
-756.886
-761.595
-765.993
-770.112
-773.982
-777.635
-781.099
-784.397
-787.549
-790.571
-793.481
-796.297
-799.029
-801.689
-804.29
-806.84
-809.345
-811.814
-814.254
-816.67
-819.066
-821.446
-823.816
-826.18
-828.539
-830.895
-833.256
-835.62
-837.989
-840.366
-842.753
-845.153
-847.564
-849.985
-852.419
-854.868
-857.334
-859.814
-862.31
-864.823
-867.348
-869.883
-872.413
-874.885
-877.05
-872.901
-853.498
-849.972
-859.412
-869.54
-878.964
-888.528
-897.897
-906.689
-914.825
-922.335
-929.26
-935.648
-941.544
-946.993
-952.048
-956.756
-961.153
-965.272
-969.141
-972.795
-976.261
-979.56
-982.713
-985.736
-988.648
-991.465
-994.198
-996.859
-999.462
-1002.01
-1004.52
-1006.99
-1009.43
-1011.85
-1014.24
-1016.63
-1019
-1021.36
-1023.72
-1026.08
-1028.44
-1030.8
-1033.17
-1035.55
-1037.93
-1040.33
-1042.73
-1045.15
-1047.58
-1050.03
-1052.49
-1054.96
-1057.46
-1059.97
-1062.49
-1065.02
-1067.55
-1070.03
-1072.2
-1071.68
-1049.34
-1055.95
-1073.64
-1087.53
-1097.87
-1106.53
-1114.03
-1120.59
-1126.44
-1131.78
-1136.7
-1141.3
-1145.62
-1149.7
-1153.56
-1157.24
-1160.75
-1164.11
-1167.33
-1170.43
-1173.42
-1176.32
-1179.13
-1181.86
-1184.53
-1187.14
-1189.69
-1192.21
-1194.68
-1197.13
-1199.55
-1201.95
-1204.33
-1206.7
-1209.06
-1211.41
-1213.75
-1216.1
-1218.44
-1220.79
-1223.14
-1225.5
-1227.87
-1230.24
-1232.63
-1235.03
-1237.44
-1239.86
-1242.3
-1244.75
-1247.22
-1249.7
-1252.2
-1254.72
-1257.25
-1259.79
-1262.34
-1264.85
-1267.13
-1267.36
-1209.71
-1203.15
-1216.36
-1231.49
-1246.21
-1260.01
-1272.57
-1283.91
-1294.15
-1303.38
-1311.73
-1319.31
-1326.22
-1332.53
-1338.32
-1343.65
-1348.57
-1353.14
-1357.4
-1361.39
-1365.14
-1368.69
-1372.05
-1375.26
-1378.32
-1381.27
-1384.12
-1386.88
-1389.56
-1392.18
-1394.75
-1397.27
-1399.75
-1402.2
-1404.63
-1407.03
-1409.42
-1411.8
-1414.17
-1416.54
-1418.91
-1421.28
-1423.65
-1426.03
-1428.42
-1430.82
-1433.23
-1435.65
-1438.09
-1440.54
-1443
-1445.48
-1447.98
-1450.49
-1453.02
-1455.56
-1458.13
-1460.68
-1463.06
-1533.93
-1508.45
-1502.14
-1496.25
-1495.31
-1498.18
-1502.44
-1507.18
-1512.15
-1517.13
-1521.98
-1526.64
-1531.11
-1535.36
-1539.41
-1543.27
-1546.95
-1550.47
-1553.84
-1557.07
-1560.19
-1563.2
-1566.11
-1568.93
-1571.68
-1574.36
-1576.99
-1579.56
-1582.08
-1584.58
-1587.04
-1589.47
-1591.88
-1594.27
-1596.64
-1599
-1601.36
-1603.71
-1606.06
-1608.41
-1610.76
-1613.12
-1615.48
-1617.85
-1620.23
-1622.63
-1625.03
-1627.45
-1629.88
-1632.32
-1634.78
-1637.26
-1639.75
-1642.25
-1644.78
-1647.32
-1649.88
-1652.48
-1655.13
-1657.94
-1287.02
-1494.59
-1582.61
-1612.98
-1633.18
-1650.13
-1663.78
-1675.11
-1685
-1693.81
-1701.71
-1708.86
-1715.38
-1721.35
-1726.84
-1731.93
-1736.65
-1741.05
-1745.17
-1749.05
-1752.72
-1756.2
-1759.51
-1762.68
-1765.72
-1768.65
-1771.49
-1774.24
-1776.92
-1779.54
-1782.11
-1784.64
-1787.12
-1789.57
-1792
-1794.41
-1796.8
-1799.18
-1801.56
-1803.93
-1806.3
-1808.67
-1811.05
-1813.42
-1815.81
-1818.21
-1820.62
-1823.03
-1825.46
-1827.91
-1830.36
-1832.84
-1835.32
-1837.83
-1840.35
-1842.88
-1845.45
-1848.06
-1850.77
-1854.24
469.022
261.773
173.859
143.593
123.446
106.465
92.7781
81.4497
71.5915
62.8053
54.9243
47.7964
41.2838
35.3013
29.7863
24.6872
19.9508
15.5256
11.3809
7.49076
3.82019
0.335105
-2.98358
-6.14768
-9.18232
-12.1115
-14.9434
-17.689
-20.3658
-22.9836
-25.5488
-28.0706
-30.556
-33.0099
-35.4385
-37.8481
-40.2443
-42.6299
-45.005
-47.3733
-49.7409
-52.1086
-54.4791
-56.857
-59.2448
-61.6411
-64.0443
-66.457
-68.8849
-71.3285
-73.7841
-76.2549
-78.7399
-81.2406
-83.7622
-86.3043
-88.8673
-91.4686
-94.1599
-97.6351
-167.832
-142.372
-136.111
-130.123
-129.066
-131.916
-136.187
-140.925
-145.869
-150.842
-155.682
-160.332
-164.794
-169.061
-173.131
-177.007
-180.703
-184.241
-187.628
-190.874
-193.996
-197.012
-199.931
-202.755
-205.502
-208.185
-210.808
-213.376
-215.902
-218.392
-220.849
-223.279
-225.688
-228.077
-230.452
-232.816
-235.174
-237.529
-239.879
-242.229
-244.584
-246.942
-249.306
-251.679
-254.064
-256.459
-258.862
-261.276
-263.706
-266.152
-268.611
-271.085
-273.574
-276.078
-278.603
-281.148
-283.711
-286.298
-288.934
-291.739
-291.599
-234.099
-227.667
-240.826
-255.822
-270.443
-284.193
-296.732
-308.054
-318.277
-327.503
-335.844
-343.423
-350.333
-356.651
-362.443
-367.774
-372.705
-377.282
-381.547
-385.54
-389.297
-392.845
-396.208
-399.413
-402.484
-405.433
-408.278
-411.037
-413.721
-416.339
-418.904
-421.423
-423.904
-426.353
-428.776
-431.182
-433.573
-435.951
-438.323
-440.694
-443.062
-445.432
-447.808
-450.192
-452.584
-454.982
-457.389
-459.812
-462.249
-464.699
-467.163
-469.642
-472.136
-474.649
-477.18
-479.725
-482.278
-484.817
-487.195
-486.24
-463.909
-470.582
-488.262
-502.055
-512.31
-520.937
-528.423
-534.977
-540.847
-546.195
-551.129
-555.733
-560.061
-564.149
-568.021
-571.699
-575.208
-578.566
-581.79
-584.894
-587.89
-590.788
-593.599
-596.336
-599.008
-601.619
-604.179
-606.697
-609.175
-611.622
-614.044
-616.443
-618.823
-621.19
-623.546
-625.895
-628.24
-630.582
-632.923
-635.269
-637.616
-639.97
-642.334
-644.708
-647.093
-649.487
-651.893
-654.316
-656.755
-659.208
-661.675
-664.158
-666.658
-669.174
-671.707
-674.252
-676.792
-679.294
-681.568
-677.805
-658.401
-654.987
-664.476
-674.522
-683.819
-693.305
-702.648
-711.44
-719.595
-727.13
-734.074
-740.472
-746.376
-751.837
-756.898
-761.602
-765.989
-770.101
-773.972
-777.628
-781.094
-784.393
-787.546
-790.573
-793.491
-796.311
-799.048
-801.715
-804.317
-806.868
-809.376
-811.846
-814.285
-816.699
-819.093
-821.473
-823.841
-826.201
-828.557
-830.914
-833.27
-835.63
-837.999
-840.376
-842.762
-845.157
-847.563
-849.986
-852.423
-854.874
-857.339
-859.819
-862.316
-864.827
-867.355
-869.891
-872.416
-874.879
-877.043
-872.972
-853.57
-850.163
-859.658
-869.71
-879.009
-888.496
-897.846
-906.638
-914.786
-922.318
-929.263
-935.658
-941.557
-947.014
-952.072
-956.773
-961.158
-965.269
-969.14
-972.796
-976.262
-979.561
-982.714
-985.742
-988.66
-991.481
-994.22
-996.887
-999.489
-1002.04
-1004.55
-1007.02
-1009.46
-1011.87
-1014.27
-1016.65
-1019.02
-1021.38
-1023.74
-1026.09
-1028.45
-1030.81
-1033.18
-1035.55
-1037.94
-1040.33
-1042.74
-1045.16
-1047.59
-1050.04
-1052.5
-1054.98
-1057.48
-1059.99
-1062.51
-1065.04
-1067.57
-1070.03
-1072.2
-1071.74
-1049.4
-1056.07
-1073.75
-1087.55
-1097.8
-1106.43
-1113.94
-1120.51
-1126.38
-1131.74
-1136.69
-1141.3
-1145.63
-1149.72
-1153.59
-1157.26
-1160.76
-1164.12
-1167.34
-1170.44
-1173.44
-1176.33
-1179.14
-1181.88
-1184.54
-1187.15
-1189.72
-1192.23
-1194.71
-1197.16
-1199.58
-1201.97
-1204.35
-1206.72
-1209.08
-1211.42
-1213.77
-1216.11
-1218.45
-1220.8
-1223.15
-1225.5
-1227.87
-1230.25
-1232.63
-1235.03
-1237.44
-1239.87
-1242.3
-1244.76
-1247.23
-1249.71
-1252.21
-1254.73
-1257.26
-1259.8
-1262.34
-1264.85
-1267.12
-1267.44
-1209.97
-1203.55
-1216.72
-1231.71
-1246.31
-1260.06
-1272.62
-1283.94
-1294.15
-1303.38
-1311.73
-1319.31
-1326.22
-1332.53
-1338.32
-1343.65
-1348.58
-1353.15
-1357.41
-1361.41
-1365.16
-1368.71
-1372.07
-1375.28
-1378.34
-1381.29
-1384.14
-1386.9
-1389.58
-1392.2
-1394.76
-1397.28
-1399.76
-1402.21
-1404.64
-1407.04
-1409.43
-1411.81
-1414.18
-1416.55
-1418.92
-1421.29
-1423.67
-1426.05
-1428.44
-1430.84
-1433.25
-1435.67
-1438.11
-1440.56
-1443.03
-1445.51
-1448
-1450.52
-1453.05
-1455.59
-1458.14
-1460.69
-1463.07
-1533.93
-1508.51
-1502.25
-1496.3
-1495.26
-1498.09
-1502.38
-1507.18
-1512.15
-1517.12
-1521.97
-1526.64
-1531.1
-1535.35
-1539.41
-1543.27
-1546.96
-1550.49
-1553.87
-1557.11
-1560.23
-1563.24
-1566.15
-1568.97
-1571.72
-1574.4
-1577.02
-1579.59
-1582.11
-1584.6
-1587.05
-1589.48
-1591.88
-1594.27
-1596.65
-1599.02
-1601.37
-1603.73
-1606.08
-1608.43
-1610.78
-1613.14
-1615.5
-1617.87
-1620.26
-1622.65
-1625.05
-1627.47
-1629.9
-1632.34
-1634.8
-1637.28
-1639.77
-1642.27
-1644.8
-1647.34
-1649.9
-1652.49
-1655.13
-1657.95
-1287.51
-1494.77
-1582.67
-1612.96
-1633.12
-1650.07
-1663.77
-1675.15
-1685.02
-1693.79
-1701.68
-1708.82
-1715.33
-1721.3
-1726.81
-1731.89
-1736.62
-1741.04
-1745.18
-1749.06
-1752.73
-1756.21
-1759.52
-1762.69
-1765.73
-1768.65
-1771.48
-1774.23
-1776.9
-1779.52
-1782.08
-1784.6
-1787.08
-1789.54
-1791.97
-1794.39
-1796.78
-1799.17
-1801.55
-1803.92
-1806.29
-1808.66
-1811.04
-1813.42
-1815.81
-1818.2
-1820.61
-1823.02
-1825.46
-1827.9
-1830.35
-1832.83
-1835.31
-1837.82
-1840.34
-1842.88
-1845.44
-1848.04
-1850.74
-1854.23
)
;

boundaryField
{
    wall
    {
        type            calculated;
        value           nonuniform List<scalar> 
1200
(
470.031
-167.645
-291.393
-486.103
-677.684
-872.865
-1071.64
-1267.31
-1533.92
-1286.77
261.991
-142.17
-233.601
-463.772
-658.275
-853.463
-1049.32
-1209.58
-1508.42
-1494.51
174.025
-135.763
-226.964
-470.373
-654.684
-849.877
-1055.89
-1202.95
-1502.08
-1582.57
143.608
-129.93
-240.213
-488.076
-664.083
-859.288
-1073.59
-1216.18
-1496.23
-1612.98
123.357
-129.031
-255.415
-502.006
-674.242
-869.455
-1087.52
-1231.38
-1495.33
-1633.22
106.471
-131.871
-270.17
-512.373
-683.72
-878.94
-1097.9
-1246.16
-1498.23
-1650.17
92.8363
-136.128
-284.001
-521.041
-693.321
-888.544
-1106.57
-1259.99
-1502.47
-1663.79
81.4302
-140.919
-296.644
-528.549
-702.718
-897.924
-1114.07
-1272.55
-1507.19
-1675.09
71.5038
-145.901
-308.042
-535.1
-711.521
-906.715
-1120.62
-1283.89
-1512.15
-1684.99
62.7106
-150.855
-318.274
-540.93
-719.65
-914.846
-1126.48
-1294.14
-1517.14
-1693.82
54.7883
-155.712
-327.525
-546.252
-727.157
-922.345
-1131.8
-1303.38
-1521.98
-1701.72
47.6012
-160.405
-335.915
-551.184
-734.088
-929.26
-1136.71
-1311.73
-1526.64
-1708.88
41.0804
-164.873
-343.513
-555.777
-740.479
-935.643
-1141.3
-1319.32
-1531.11
-1715.4
35.129
-169.117
-350.41
-560.082
-746.376
-941.537
-1145.62
-1326.23
-1535.37
-1721.37
29.656
-173.156
-356.702
-564.142
-751.823
-946.982
-1149.69
-1332.53
-1539.41
-1726.86
24.5856
-177.012
-362.478
-567.998
-756.879
-952.035
-1153.55
-1338.32
-1543.27
-1731.94
19.8718
-180.696
-367.8
-571.674
-761.591
-956.747
-1157.23
-1343.65
-1546.95
-1736.66
15.4868
-184.207
-372.715
-575.185
-765.994
-961.15
-1160.74
-1348.57
-1550.46
-1741.06
11.3783
-187.57
-377.276
-578.545
-770.117
-965.272
-1164.1
-1353.14
-1553.82
-1745.17
7.49776
-190.809
-381.533
-581.767
-773.987
-969.142
-1167.32
-1357.4
-1557.06
-1749.05
3.82577
-193.93
-385.519
-584.868
-777.639
-972.795
-1170.42
-1361.39
-1560.17
-1752.72
0.352673
-196.934
-389.263
-587.859
-781.102
-976.261
-1173.42
-1365.14
-1563.18
-1756.19
-2.95264
-199.839
-392.8
-590.754
-784.399
-979.56
-1176.31
-1368.68
-1566.09
-1759.51
-6.12879
-202.67
-396.165
-593.568
-787.552
-982.713
-1179.12
-1372.04
-1568.91
-1762.67
-9.18103
-205.426
-399.371
-596.301
-790.57
-985.733
-1181.85
-1375.24
-1571.66
-1765.72
-12.1114
-208.105
-402.433
-598.963
-793.477
-988.643
-1184.52
-1378.31
-1574.35
-1768.66
-14.9479
-210.729
-405.382
-601.572
-796.291
-991.458
-1187.13
-1381.26
-1576.97
-1771.5
-17.707
-213.306
-408.231
-604.131
-799.02
-994.187
-1189.68
-1384.11
-1579.54
-1774.25
-20.388
-215.833
-410.987
-606.642
-801.676
-996.845
-1192.19
-1386.86
-1582.07
-1776.93
-23.0036
-218.32
-413.669
-609.12
-804.277
-999.448
-1194.67
-1389.55
-1584.57
-1779.56
-25.5693
-220.777
-416.288
-611.567
-806.826
-1002
-1197.12
-1392.17
-1587.03
-1782.13
-28.0897
-223.205
-418.851
-613.986
-809.329
-1004.5
-1199.54
-1394.74
-1589.46
-1784.65
-30.5721
-225.61
-421.368
-616.383
-811.797
-1006.97
-1201.94
-1397.26
-1591.87
-1787.14
-33.0267
-227.999
-423.849
-618.765
-814.239
-1009.42
-1204.32
-1399.74
-1594.26
-1789.59
-35.458
-230.375
-426.3
-621.134
-816.655
-1011.83
-1206.69
-1402.2
-1596.64
-1792.02
-37.8679
-232.739
-428.725
-623.492
-819.052
-1014.23
-1209.05
-1404.62
-1599
-1794.42
-40.2586
-235.091
-431.128
-625.84
-821.433
-1016.61
-1211.4
-1407.02
-1601.35
-1796.81
-42.6367
-237.437
-433.514
-628.184
-823.803
-1018.99
-1213.75
-1409.41
-1603.7
-1799.19
-45.0127
-239.787
-435.895
-630.531
-826.17
-1021.35
-1216.09
-1411.8
-1606.06
-1801.57
-47.3867
-242.141
-438.271
-632.876
-828.529
-1023.71
-1218.44
-1414.17
-1608.4
-1803.94
-49.7572
-244.496
-440.642
-635.221
-830.886
-1026.07
-1220.78
-1416.53
-1610.76
-1806.31
-52.1308
-246.859
-443.016
-637.574
-833.249
-1028.44
-1223.14
-1418.9
-1613.11
-1808.68
-54.5101
-249.23
-445.394
-639.935
-835.615
-1030.8
-1225.5
-1421.27
-1615.48
-1811.05
-56.8912
-251.606
-447.773
-642.3
-837.984
-1033.17
-1227.86
-1423.64
-1617.84
-1813.43
-59.2746
-253.986
-450.154
-644.673
-840.361
-1035.54
-1230.24
-1426.02
-1620.22
-1815.81
-61.668
-256.378
-452.544
-647.058
-842.748
-1037.93
-1232.63
-1428.41
-1622.62
-1818.21
-64.0783
-258.788
-454.949
-649.46
-845.15
-1040.32
-1235.03
-1430.81
-1625.02
-1820.62
-66.5041
-261.214
-457.369
-651.876
-847.564
-1042.73
-1237.44
-1433.22
-1627.44
-1823.04
-68.9373
-263.649
-459.794
-654.299
-849.985
-1045.15
-1239.86
-1435.64
-1629.87
-1825.47
-71.379
-266.093
-462.229
-656.734
-852.417
-1047.57
-1242.29
-1438.08
-1632.31
-1827.91
-73.8392
-268.556
-464.679
-659.185
-854.865
-1050.02
-1244.74
-1440.53
-1634.77
-1830.37
-76.3133
-271.033
-467.146
-661.654
-857.331
-1052.48
-1247.21
-1442.99
-1637.25
-1832.84
-78.8055
-273.53
-469.63
-664.139
-859.812
-1054.96
-1249.7
-1445.47
-1639.74
-1835.33
-81.3143
-276.042
-472.129
-666.639
-862.307
-1057.45
-1252.19
-1447.97
-1642.24
-1837.83
-83.8315
-278.565
-474.641
-669.155
-864.821
-1059.96
-1254.71
-1450.48
-1644.77
-1840.35
-86.3633
-281.101
-477.164
-671.683
-867.345
-1062.48
-1257.24
-1453.01
-1647.31
-1842.88
-88.9237
-283.662
-479.706
-674.224
-869.88
-1065.01
-1259.79
-1455.55
-1649.87
-1845.45
-91.5404
-286.264
-482.27
-676.772
-872.412
-1067.55
-1262.34
-1458.12
-1652.47
-1848.07
-94.2441
-288.916
-484.824
-679.288
-874.889
-1070.02
-1264.86
-1460.67
-1655.13
-1850.78
-97.7091
-291.726
-487.205
-681.565
-877.053
-1072.19
-1267.13
-1463.05
-1657.94
-1854.25
468.685
-167.895
-291.668
-486.286
-677.846
-873.008
-1071.77
-1267.48
-1533.93
-1287.76
261.7
-142.44
-234.265
-463.954
-658.443
-853.605
-1049.43
-1210.1
-1508.54
-1494.86
173.803
-136.228
-227.902
-470.652
-655.088
-850.257
-1056.13
-1203.76
-1502.31
-1582.71
143.589
-130.188
-241.031
-488.324
-664.608
-859.782
-1073.81
-1216.9
-1496.32
-1612.96
123.477
-129.078
-255.958
-502.072
-674.616
-869.796
-1087.56
-1231.82
-1495.24
-1633.08
106.463
-131.931
-270.535
-512.289
-683.852
-879.033
-1097.77
-1246.36
-1498.05
-1650.04
92.7584
-136.207
-284.258
-520.902
-693.299
-888.48
-1106.38
-1260.08
-1502.35
-1663.76
81.4558
-140.927
-296.762
-528.381
-702.625
-897.819
-1113.9
-1272.64
-1507.17
-1675.16
71.6202
-145.859
-308.058
-534.936
-711.412
-906.611
-1120.48
-1283.96
-1512.15
-1685.03
62.8363
-150.838
-318.279
-540.819
-719.576
-914.766
-1126.35
-1294.15
-1517.11
-1693.78
54.9693
-155.673
-327.495
-546.176
-727.12
-922.309
-1131.72
-1303.38
-1521.96
-1701.67
47.8614
-160.309
-335.821
-551.111
-734.069
-929.263
-1136.68
-1311.74
-1526.63
-1708.8
41.3518
-164.767
-343.394
-555.719
-740.469
-935.663
-1141.3
-1319.31
-1531.09
-1715.31
35.3592
-169.042
-350.308
-560.054
-746.376
-941.563
-1145.63
-1326.22
-1535.35
-1721.28
29.8302
-173.122
-356.633
-564.151
-751.842
-947.025
-1149.73
-1332.53
-1539.41
-1726.79
24.7216
-177.005
-362.431
-568.029
-756.905
-952.085
-1153.6
-1338.32
-1543.28
-1731.88
19.9778
-180.705
-367.766
-571.708
-761.606
-956.782
-1157.27
-1343.65
-1546.97
-1736.61
15.5391
-184.252
-372.701
-575.216
-765.988
-961.162
-1160.77
-1348.58
-1550.5
-1741.03
11.3822
-187.647
-377.283
-578.573
-770.096
-965.268
-1164.13
-1353.15
-1553.88
-1745.18
7.48871
-190.896
-381.551
-581.798
-773.967
-969.139
-1167.35
-1357.42
-1557.13
-1749.07
3.81853
-194.018
-385.546
-584.902
-777.624
-972.796
-1170.45
-1361.41
-1560.25
-1752.74
0.329345
-197.038
-389.308
-587.9
-781.092
-976.262
-1173.44
-1365.17
-1563.26
-1756.22
-2.99396
-199.961
-392.86
-590.8
-784.391
-979.561
-1176.34
-1368.71
-1566.17
-1759.53
-6.15412
-202.783
-396.222
-593.609
-787.543
-982.714
-1179.15
-1372.08
-1568.99
-1762.7
-9.1829
-205.527
-399.427
-596.347
-790.574
-985.745
-1181.88
-1375.29
-1571.74
-1765.73
-12.1118
-208.212
-402.5
-599.022
-793.496
-988.666
-1184.55
-1378.35
-1574.41
-1768.65
-14.9421
-210.834
-405.45
-601.634
-796.318
-991.488
-1187.16
-1381.3
-1577.03
-1771.47
-17.6832
-213.399
-408.294
-604.195
-799.058
-994.231
-1189.73
-1384.15
-1579.6
-1774.22
-20.3585
-215.925
-411.054
-606.715
-801.727
-996.9
-1192.25
-1386.91
-1582.12
-1776.89
-22.977
-218.416
-413.738
-609.194
-804.331
-999.503
-1194.72
-1389.59
-1584.6
-1779.5
-25.5419
-220.873
-416.356
-611.64
-806.882
-1002.06
-1197.17
-1392.21
-1587.06
-1782.06
-28.0642
-223.304
-418.921
-614.063
-809.392
-1004.57
-1199.59
-1394.77
-1589.48
-1784.58
-30.5506
-225.714
-421.442
-616.463
-811.863
-1007.04
-1201.99
-1397.29
-1591.89
-1787.07
-33.0042
-228.103
-423.922
-618.842
-814.3
-1009.47
-1204.36
-1399.77
-1594.28
-1789.52
-35.432
-230.477
-426.37
-621.208
-816.714
-1011.89
-1206.73
-1402.22
-1596.65
-1791.96
-37.8414
-232.842
-428.793
-623.564
-819.107
-1014.28
-1209.09
-1404.65
-1599.02
-1794.37
-40.2394
-235.202
-431.2
-625.913
-821.487
-1016.66
-1211.43
-1407.05
-1601.38
-1796.78
-42.6277
-237.56
-433.593
-628.259
-823.854
-1019.03
-1213.77
-1409.44
-1603.73
-1799.16
-45.0024
-239.91
-435.97
-630.599
-826.211
-1021.39
-1216.11
-1411.82
-1606.08
-1801.54
-47.3688
-242.259
-438.341
-632.939
-828.566
-1023.74
-1218.46
-1414.19
-1608.44
-1803.91
-49.7355
-244.614
-440.711
-635.285
-830.923
-1026.1
-1220.8
-1416.56
-1610.79
-1806.28
-52.1013
-246.97
-443.077
-637.63
-833.277
-1028.45
-1223.15
-1418.93
-1613.14
-1808.66
-54.4688
-249.331
-445.444
-639.982
-835.636
-1030.81
-1225.51
-1421.3
-1615.51
-1811.03
-56.8457
-251.704
-447.819
-642.345
-838.004
-1033.18
-1227.87
-1423.68
-1617.88
-1813.42
-59.2349
-254.09
-450.204
-644.72
-840.381
-1035.56
-1230.25
-1426.06
-1620.27
-1815.81
-61.6322
-256.486
-452.597
-647.105
-842.767
-1037.94
-1232.63
-1428.45
-1622.66
-1818.2
-64.0331
-258.887
-454.992
-649.496
-845.159
-1040.33
-1235.03
-1430.84
-1625.06
-1820.6
-66.4415
-261.297
-457.396
-651.899
-847.563
-1042.74
-1237.44
-1433.26
-1627.47
-1823.02
-68.8676
-263.725
-459.818
-654.322
-849.987
-1045.16
-1239.87
-1435.68
-1629.91
-1825.45
-71.3119
-266.172
-462.256
-656.761
-852.425
-1047.6
-1242.31
-1438.12
-1632.35
-1827.9
-73.766
-268.629
-464.706
-659.215
-854.877
-1050.05
-1244.76
-1440.57
-1634.81
-1830.35
-76.2356
-271.102
-467.169
-661.682
-857.341
-1052.51
-1247.23
-1443.04
-1637.28
-1832.82
-78.7182
-273.588
-469.646
-664.164
-859.821
-1054.99
-1249.71
-1445.52
-1639.78
-1835.31
-81.2161
-276.091
-472.139
-666.664
-862.319
-1057.49
-1252.22
-1448.02
-1642.28
-1837.81
-83.7392
-278.616
-474.652
-669.18
-864.829
-1059.99
-1254.73
-1450.53
-1644.81
-1840.33
-86.2848
-281.164
-477.185
-671.715
-867.358
-1062.52
-1257.26
-1453.06
-1647.35
-1842.88
-88.8486
-283.727
-479.732
-674.261
-869.895
-1065.05
-1259.81
-1455.6
-1649.91
-1845.44
-91.4447
-286.309
-482.28
-676.799
-872.418
-1067.58
-1262.35
-1458.15
-1652.5
-1848.04
-94.1318
-288.94
-484.815
-679.296
-874.876
-1070.03
-1264.85
-1460.69
-1655.14
-1850.73
-97.6103
-291.743
-487.191
-681.569
-877.04
-1072.2
-1267.12
-1463.07
-1657.95
-1854.22
)
;
    }
    inlet
    {
        type            calculated;
        value           nonuniform List<scalar> 
20
(
469.694
-167.708
-291.462
-486.149
-677.724
-872.901
-1071.68
-1267.36
-1533.93
-1287.02
469.022
-167.832
-291.599
-486.24
-677.805
-872.972
-1071.74
-1267.44
-1533.93
-1287.51
)
;
    }
    outlet
    {
        type            calculated;
        value           nonuniform List<scalar> 
20
(
-97.5912
-292.76
-487.93
-683.102
-878.274
-1073.45
-1268.62
-1463.79
-1658.97
-1854.23
-97.5912
-292.76
-487.93
-683.102
-878.274
-1073.45
-1268.62
-1463.79
-1658.97
-1854.23
)
;
    }
    heatWall
    {
        type            calculated;
        value           nonuniform List<scalar> 
240
(
-1384.6
-1385.1
-1592.18
-1592.36
-1680.19
-1680.26
-1710.56
-1710.55
-1730.77
-1730.7
-1747.72
-1747.66
-1761.37
-1761.36
-1772.7
-1772.73
-1782.59
-1782.61
-1791.4
-1791.38
-1799.3
-1799.27
-1806.45
-1806.41
-1812.97
-1812.92
-1818.94
-1818.89
-1824.43
-1824.39
-1829.52
-1829.48
-1834.24
-1834.21
-1838.64
-1838.63
-1842.76
-1842.76
-1846.64
-1846.65
-1850.31
-1850.32
-1853.79
-1853.8
-1857.1
-1857.11
-1860.27
-1860.28
-1863.31
-1863.32
-1866.24
-1866.24
-1869.08
-1869.07
-1871.83
-1871.82
-1874.51
-1874.49
-1877.13
-1877.11
-1879.7
-1879.67
-1882.22
-1882.19
-1884.71
-1884.67
-1887.16
-1887.13
-1889.59
-1889.56
-1892
-1891.98
-1894.39
-1894.37
-1896.77
-1896.76
-1899.15
-1899.13
-1901.52
-1901.51
-1903.89
-1903.88
-1906.26
-1906.25
-1908.64
-1908.63
-1911.01
-1911.01
-1913.4
-1913.4
-1915.8
-1915.79
-1918.21
-1918.2
-1920.63
-1920.61
-1923.05
-1923.05
-1925.5
-1925.49
-1927.95
-1927.94
-1930.43
-1930.42
-1932.91
-1932.9
-1935.42
-1935.41
-1937.94
-1937.93
-1940.47
-1940.47
-1943.04
-1943.03
-1945.65
-1945.64
-1948.36
-1948.34
-1951.84
-1951.82
567.281
566.608
359.504
359.36
271.556
271.446
241.19
241.18
220.974
221.033
204.056
204.052
190.404
190.365
179.023
179.037
169.12
169.179
160.329
160.393
152.421
152.512
145.254
145.384
138.736
138.872
132.775
132.889
127.288
127.374
122.208
122.275
117.487
117.539
113.089
113.114
108.968
108.969
105.084
105.079
101.413
101.409
97.9355
97.9237
94.6257
94.6051
91.4536
91.4411
88.4073
88.4065
85.4774
85.4774
82.6424
82.6456
79.888
79.9
77.2084
77.2233
74.5922
74.6056
72.0268
72.0405
69.506
69.5188
67.0227
67.0335
64.5684
64.5796
62.1381
62.151
59.7284
59.7416
57.3359
57.3455
54.9554
54.9598
52.5797
52.5849
50.2077
50.2166
47.8382
47.8491
45.4666
45.4814
43.0903
43.111
40.7103
40.7332
38.3255
38.3455
35.9312
35.9492
33.5233
33.5461
31.1019
31.1335
28.6705
28.7056
26.2283
26.2621
23.7696
23.8065
21.2967
21.3358
18.807
18.8509
16.301
16.3502
13.7824
13.8287
11.2473
11.2866
8.68603
8.72372
6.07455
6.12248
3.37512
3.43127
-0.093149
-0.0438358
)
;
    }
}


// ************************************************************************* //
