/*--------------------------------*- C++ -*----------------------------------*\
  =========                 |
  \\      /  F ield         | OpenFOAM: The Open Source CFD Toolbox
   \\    /   O peration     | Website:  https://openfoam.org
    \\  /    A nd           | Version:  8
     \\/     M anipulation  |
\*---------------------------------------------------------------------------*/
FoamFile
{
    version     2.0;
    format      ascii;
    class       surfaceScalarField;
    location    "600";
    object      phi;
}
// * * * * * * * * * * * * * * * * * * * * * * * * * * * * * * * * * * * * * //

dimensions      [1 0 -1 0 0 0 0];

internalField   nonuniform List<scalar> 
2860
(
0.400789
-0.00186808
0.00154051
0.400719
0.00137734
0.00189496
0.400707
0.00139474
0.00217081
0.40036
0.00169629
0.00219631
0.399816
0.00180955
0.00204747
0.399215
0.00176566
0.00205409
0.398605
0.00167224
0.00214943
0.397996
0.00157145
0.00211806
0.39739
0.00147257
0.00197415
0.396793
0.0013785
0.00181877
0.396204
0.00129083
0.00159506
0.395624
0.0012103
0.00127193
0.395052
0.00113699
0.000933562
0.394489
0.00107049
0.000645874
0.393934
0.00101022
0.00042772
0.393387
0.000955524
0.000257011
0.392847
0.000905871
0.000123642
0.392315
0.000861005
5.73372e-05
0.391791
0.000820434
5.21269e-05
0.391273
0.000783423
6.36377e-05
0.390762
0.000749497
7.32735e-05
0.390257
0.000718504
0.000103557
0.389758
0.000690236
0.000157122
0.389266
0.000664241
0.000191141
0.388779
0.000640169
0.00019587
0.388297
0.000617975
0.000199026
0.387822
0.000597555
0.000194614
0.387351
0.000578651
0.000167551
0.386885
0.000561154
0.000133317
0.386425
0.000545066
0.000102829
0.385969
0.000530266
7.1447e-05
0.385518
0.000516598
4.24741e-05
0.385071
0.000503981
1.87495e-05
0.384629
0.000492319
-6.13083e-06
0.384191
0.000481509
-3.54198e-05
0.383757
0.000471502
-6.53618e-05
0.383327
0.000462256
-8.57577e-05
0.382901
0.000453723
-9.28374e-05
0.382479
0.000445844
-0.00010138
0.382061
0.000438472
-0.000119437
0.381646
0.000431565
-0.000142235
0.381234
0.000425127
-0.000174975
0.380826
0.000419099
-0.000222665
0.380421
0.000413443
-0.000275705
0.38002
0.00040818
-0.000320851
0.379621
0.000403251
-0.000360577
0.379226
0.000398634
-0.00041221
0.378833
0.000394273
-0.000486251
0.378444
0.000390116
-0.000569048
0.378057
0.000386181
-0.00064813
0.377673
0.000382379
-0.000734901
0.377291
0.000378769
-0.000827208
0.376913
0.000375314
-0.000931904
0.376536
0.000371933
-0.00105061
0.376162
0.000368719
-0.00116151
0.375791
0.000365531
-0.00125399
0.375423
0.000361839
-0.0013417
0.375061
0.000355573
-0.00145628
0.374713
0.000341294
-0.00159279
0.000237802
-0.00171146
0.398245
-0.00315922
0.000290861
0.398233
-4.05845e-05
0.000640087
0.398035
-5.42838e-05
0.00122909
0.398042
-4.19098e-05
0.00155894
0.398114
-5.24899e-06
0.00162193
0.398214
-4.82419e-05
0.00169947
0.39833
-0.000105468
0.00180113
0.398448
-0.00014826
0.00181351
0.398563
-0.000178185
0.0017656
0.398672
-0.000199257
0.00174712
0.398774
-0.000213793
0.00170166
0.398868
-0.000223326
0.00158473
0.398954
-0.00022857
0.00145471
0.399034
-0.00023018
0.00136213
0.399107
-0.000228878
0.00132008
0.399175
-0.000225346
0.00130892
0.399237
-0.000219934
0.00131829
0.399293
-0.000212604
0.00137023
0.399346
-0.000203718
0.00146213
0.399394
-0.00019406
0.00156523
0.399439
-0.000183998
0.00166921
0.39948
-0.000173387
0.00179333
0.399519
-0.000162241
0.00193954
0.399555
-0.000151031
0.00207407
0.399588
-0.000140056
0.00219277
0.399619
-0.000129138
0.00231812
0.399648
-0.000118256
0.0024412
0.399675
-0.00010763
0.00254946
0.399701
-9.72108e-05
0.00265623
0.399726
-8.68195e-05
0.00276745
0.399749
-7.65003e-05
0.00287789
0.399771
-6.63265e-05
0.00299183
0.399792
-5.62557e-05
0.0031117
0.399812
-4.63044e-05
0.00323167
0.399831
-3.65247e-05
0.00334912
0.399849
-2.6885e-05
0.00346671
0.399867
-1.73351e-05
0.00359376
0.399884
-7.84914e-06
0.0037344
0.399901
1.52959e-06
0.00387501
0.399917
1.06948e-05
0.00400969
0.399933
1.96356e-05
0.00414353
0.399948
2.84162e-05
0.00426955
0.399964
3.69729e-05
0.00438302
0.399978
4.52995e-05
0.00449279
0.399993
5.34896e-05
0.00460978
0.400008
6.1512e-05
0.00473261
0.400022
6.93585e-05
0.00484425
0.400036
7.69462e-05
0.00493484
0.40005
8.42315e-05
0.00501772
0.400064
9.12855e-05
0.00510339
0.400078
9.80024e-05
0.00518335
0.400091
0.000104503
0.00525705
0.400105
0.000110725
0.00531803
0.400118
0.000116577
0.00536607
0.400132
0.000122253
0.00541752
0.400145
0.000127558
0.00548259
0.400159
0.000131673
0.00555118
0.400175
0.000131829
0.00559494
0.400196
0.000119533
0.00561348
4.60996e-05
0.00562516
0.396066
-0.000919729
0.000309789
0.396271
0.000522311
0.00114238
0.396444
0.000780844
0.00231736
0.396752
0.000806159
0.00334318
0.397115
0.000869977
0.00402674
0.397462
0.000881895
0.00448688
0.397779
0.000863317
0.00481298
0.398066
0.000839224
0.00496567
0.398324
0.00081259
0.00499156
0.398557
0.000783549
0.00500282
0.398767
0.000752846
0.00497154
0.398958
0.000721366
0.00485939
0.399131
0.000690425
0.00471655
0.399289
0.000660838
0.00459456
0.399434
0.000632741
0.00451349
0.399567
0.000606164
0.00445982
0.39969
0.000581333
0.00442157
0.399804
0.000558581
0.00440893
0.39991
0.000537748
0.00442132
0.400009
0.000518263
0.00444803
0.400103
0.000499915
0.00448578
0.400191
0.000482922
0.00454525
0.400274
0.000467265
0.00462379
0.400354
0.000452531
0.00469788
0.40043
0.00043849
0.00477071
0.400504
0.000425291
0.00485755
0.400574
0.00041289
0.00494577
0.400643
0.000401062
0.00502762
0.400709
0.000389876
0.00511399
0.400774
0.000379479
0.00520364
0.400838
0.000369765
0.00529103
0.4009
0.000360651
0.00538189
0.400962
0.000352194
0.00547686
0.401022
0.000344361
0.00557007
0.401082
0.000337063
0.00565999
0.401142
0.000330296
0.00574776
0.401201
0.000324095
0.00584084
0.40126
0.000318472
0.00594221
0.401319
0.000313334
0.00603901
0.401377
0.00030856
0.00612902
0.401436
0.000304103
0.00621807
0.401494
0.000299999
0.00629679
0.401553
0.000296145
0.00636218
0.401612
0.000292492
0.00642333
0.40167
0.000289136
0.00648859
0.40173
0.000286081
0.00655789
0.401789
0.00028327
0.00661476
0.401848
0.000280572
0.00665206
0.401908
0.000277938
0.00668488
0.401968
0.000275444
0.00672185
0.402029
0.000272987
0.00675834
0.40209
0.000270664
0.00679026
0.402151
0.000268366
0.00681293
0.402212
0.000266015
0.00682874
0.402274
0.00026382
0.00684649
0.402336
0.000261586
0.00687583
0.402398
0.000258603
0.00691063
0.40246
0.000252778
0.00692672
0.402516
0.000239745
0.00691945
0.000203496
0.00690561
0.397417
-0.000487732
0.000208962
0.397741
2.05579e-05
0.000440155
0.39807
0.000137058
0.000794018
0.398348
9.71227e-05
0.0011142
0.398603
9.34676e-05
0.00121102
0.398821
7.79954e-05
0.0011234
0.399005
5.0981e-05
0.000967911
0.399165
2.5143e-05
0.000777365
0.399308
2.98628e-06
0.000591067
0.399439
-1.56779e-05
0.000469759
0.399559
-3.15236e-05
0.000391112
0.399672
-4.49696e-05
0.000315543
0.399778
-5.56742e-05
0.000256838
0.399878
-6.35392e-05
0.000235374
0.399972
-6.90853e-05
0.000259462
0.400063
-7.27376e-05
0.000309814
0.400149
-7.47101e-05
0.00036322
0.400232
-7.51383e-05
0.000412776
0.400312
-7.43959e-05
0.000458257
0.400388
-7.29951e-05
0.000505887
0.400462
-7.1079e-05
0.000557967
0.400534
-6.86081e-05
0.000617984
0.400604
-6.56968e-05
0.000682427
0.400671
-6.26706e-05
0.000741011
0.400737
-5.9635e-05
0.000805094
0.400802
-5.64742e-05
0.000884669
0.400865
-5.33028e-05
0.000967358
0.400928
-5.02811e-05
0.00105206
0.400989
-4.72685e-05
0.00114664
0.40105
-4.4156e-05
0.00124352
0.40111
-4.1056e-05
0.00133876
0.40117
-3.79799e-05
0.00143943
0.401229
-3.48214e-05
0.00154304
0.401288
-3.15867e-05
0.00164319
0.401346
-2.83381e-05
0.00173981
0.401405
-2.50804e-05
0.00183292
0.401463
-2.17444e-05
0.00192748
0.401521
-1.82539e-05
0.00202453
0.401579
-1.47064e-05
0.00211318
0.401638
-1.12096e-05
0.00219634
0.401696
-7.73196e-06
0.00228009
0.401755
-4.27623e-06
0.00235343
0.401813
-9.43115e-07
0.00241604
0.401872
2.28675e-06
0.00247634
0.401932
5.50736e-06
0.00253813
0.401991
8.74598e-06
0.00260131
0.402051
1.19173e-05
0.00265064
0.402111
1.48718e-05
0.00268297
0.402172
1.76211e-05
0.00271489
0.402233
2.02868e-05
0.0027525
0.402294
2.28344e-05
0.00279448
0.402356
2.5319e-05
0.0028335
0.402418
2.76377e-05
0.002868
0.402481
2.97709e-05
0.00290245
0.402544
3.19015e-05
0.00293699
0.402607
3.39493e-05
0.00298042
0.40267
3.55135e-05
0.00303027
0.402732
3.53641e-05
0.00306659
0.40279
3.05165e-05
0.00307959
1.16797e-05
0.00308724
0.397416
4.83227e-07
0.000185721
0.397461
1.40067e-06
0.0003977
0.397661
2.17251e-06
0.000901094
0.397861
3.07964e-06
0.00155471
0.398094
3.99905e-06
0.00202112
0.398337
5.17557e-06
0.00218848
0.398569
6.47125e-06
0.00216277
0.398787
6.87533e-06
0.00204872
0.398991
7.07391e-06
0.00191286
0.399178
7.88207e-06
0.00181937
0.399352
8.48773e-06
0.00177086
0.399512
8.47111e-06
0.00174442
0.399659
8.38512e-06
0.00172977
0.399795
8.56746e-06
0.00172799
0.399921
8.87471e-06
0.00175079
0.400039
9.28975e-06
0.00178377
0.400148
9.79445e-06
0.00180256
0.400251
1.03531e-05
0.00179639
0.400348
1.09126e-05
0.00177184
0.400439
1.14163e-05
0.00174874
0.400525
1.19103e-05
0.00173239
0.400607
1.24573e-05
0.00172085
0.400686
1.30137e-05
0.0017113
0.400761
1.34689e-05
0.00170191
0.400834
1.38986e-05
0.00170642
0.400904
1.44151e-05
0.00173002
0.400972
1.48759e-05
0.00176299
0.401038
1.51963e-05
0.00180903
0.401103
1.55447e-05
0.00187092
0.401167
1.59734e-05
0.00193629
0.401229
1.6376e-05
0.00200406
0.401291
1.67745e-05
0.00208145
0.401352
1.72441e-05
0.00216181
0.401412
1.77632e-05
0.00223772
0.401472
1.82888e-05
0.00231021
0.401531
1.87866e-05
0.00237895
0.40159
1.9315e-05
0.00244612
0.401649
1.99779e-05
0.00250962
0.401708
2.06696e-05
0.00256129
0.401766
2.13187e-05
0.00260832
0.401825
2.20129e-05
0.00265527
0.401884
2.26966e-05
0.00269089
0.401943
2.32873e-05
0.00271796
0.402002
2.38492e-05
0.00274446
0.402062
2.44375e-05
0.00277105
0.402122
2.50988e-05
0.00279662
0.402182
2.57132e-05
0.00280837
0.402242
2.61384e-05
0.00280796
0.402303
2.64302e-05
0.00281172
0.402364
2.67203e-05
0.00282171
0.402425
2.70283e-05
0.00283768
0.402487
2.73233e-05
0.00285047
0.402549
2.75387e-05
0.00286166
0.402612
2.77056e-05
0.00287631
0.402675
2.79088e-05
0.00288766
0.402738
2.81937e-05
0.00290322
0.402801
2.86056e-05
0.00292247
0.402862
2.90875e-05
0.00292977
0.402916
2.96199e-05
0.00291424
2.99691e-05
0.0028984
0.397417
0.000488571
0.000163544
0.397461
-1.80757e-05
0.000342052
0.397661
-0.00013339
0.000815217
0.397862
-9.18247e-05
0.00143133
0.398095
-8.6405e-05
0.00185779
0.398337
-6.84397e-05
0.00197581
0.39857
-3.88281e-05
0.00189812
0.398788
-1.21522e-05
0.00176882
0.398991
1.06237e-05
0.00163811
0.399179
3.08989e-05
0.00153667
0.399352
4.80099e-05
0.00148864
0.399511
6.16836e-05
0.00148877
0.399659
7.25302e-05
0.00150963
0.399795
8.10119e-05
0.00153923
0.399921
8.74011e-05
0.00159164
0.400038
9.20661e-05
0.00165211
0.400148
9.51587e-05
0.00169543
0.400251
9.68039e-05
0.00171075
0.400347
9.72837e-05
0.00170651
0.400438
9.69553e-05
0.00170399
0.400525
9.60475e-05
0.00170606
0.400607
9.46661e-05
0.00170823
0.400686
9.28876e-05
0.00170932
0.400761
9.07704e-05
0.00171147
0.400834
8.85152e-05
0.00172592
0.400904
8.62851e-05
0.00175384
0.400972
8.39668e-05
0.00179056
0.401038
8.15332e-05
0.00184361
0.401103
7.91475e-05
0.00191047
0.401167
7.68327e-05
0.00197684
0.401229
7.45306e-05
0.00204555
0.401291
7.22798e-05
0.0021238
0.401352
7.00757e-05
0.00220253
0.401412
6.78686e-05
0.00227461
0.401472
6.56503e-05
0.00234227
0.401531
6.33632e-05
0.00240658
0.40159
6.10419e-05
0.002468
0.401649
5.88051e-05
0.00252079
0.401708
5.6558e-05
0.00256012
0.401767
5.42848e-05
0.00259625
0.401825
5.21039e-05
0.00263072
0.401884
4.99191e-05
0.00265402
0.401943
4.76965e-05
0.00267187
0.402003
4.54757e-05
0.00269222
0.402062
4.32938e-05
0.00271492
0.402122
4.12862e-05
0.00273654
0.402182
3.93006e-05
0.00274808
0.402242
3.72306e-05
0.00275649
0.402302
3.51543e-05
0.00277664
0.402363
3.31811e-05
0.00280602
0.402425
3.13648e-05
0.00284323
0.402487
2.95824e-05
0.00287976
0.402549
2.78146e-05
0.00291905
0.402611
2.61265e-05
0.00296497
0.402674
2.45005e-05
0.00300781
0.402737
2.30941e-05
0.00305367
0.4028
2.23752e-05
0.00310087
0.402861
2.34688e-05
0.00313605
0.402915
2.92027e-05
0.00314895
4.80322e-05
0.00316082
0.397417
0.000920794
0.000146224
0.39774
-0.000519934
0.000293084
0.39807
-0.000777378
0.00060003
0.398347
-0.00080142
0.000883001
0.398603
-0.000863808
0.000946095
0.398821
-0.000873579
0.000795891
0.399005
-0.00085303
0.000571136
0.399165
-0.000828389
0.000373518
0.399309
-0.000801954
0.000205746
0.399439
-0.00077238
5.835e-05
0.39956
-0.000741139
-2.84978e-05
0.399673
-0.000709465
-4.78349e-05
0.399778
-0.000678118
-3.51626e-05
0.399878
-0.000647785
-5.09528e-06
0.399973
-0.000618687
5.63442e-05
0.400064
-0.000590959
0.000130383
0.40015
-0.000564978
0.000194757
0.400233
-0.000541001
0.000242666
0.400313
-0.000518914
0.000280048
0.400389
-0.000498347
0.000320567
0.400463
-0.000479146
0.000362922
0.400535
-0.00046131
0.000402801
0.400605
-0.000444735
0.000439709
0.400672
-0.000429311
0.000476265
0.400738
-0.000414815
0.000518937
0.400803
-0.000401049
0.000564944
0.400867
-0.000388064
0.00061498
0.400929
-0.000375845
0.00067923
0.40099
-0.000364248
0.000750846
0.401051
-0.000353245
0.000815545
0.401111
-0.000342818
0.000879078
0.401171
-0.000332911
0.000948245
0.40123
-0.000323594
0.0010147
0.401289
-0.000314916
0.00107343
0.401347
-0.000306827
0.00112737
0.401406
-0.000299364
0.00118008
0.401464
-0.000292488
0.0012316
0.401522
-0.000286064
0.00127254
0.401581
-0.000280142
0.0013015
0.401639
-0.000274666
0.00132984
0.401698
-0.000269498
0.00135511
0.401756
-0.000264729
0.00137095
0.401815
-0.00026032
0.0013845
0.401874
-0.000256214
0.00140242
0.401933
-0.000252384
0.00142309
0.401993
-0.000248674
0.00143811
0.402053
-0.000245192
0.00144178
0.402113
-0.000241975
0.00144508
0.402174
-0.000238927
0.00146076
0.402235
-0.000235961
0.00148264
0.402296
-0.00023299
0.00150743
0.402358
-0.000230187
0.00153055
0.40242
-0.000227526
0.00155645
0.402483
-0.000224908
0.00158736
0.402546
-0.000222401
0.00161544
0.402609
-0.000219783
0.00164607
0.402672
-0.000216287
0.00167412
0.402734
-0.000209869
0.00168671
0.402791
-0.000195984
0.00167785
-0.000158648
0.00166935
0.396067
0.00315932
0.000184054
0.396272
4.05478e-05
0.000845357
0.396445
5.77178e-05
0.00184745
0.396753
4.82263e-05
0.00273528
0.397116
1.45267e-05
0.00328459
0.397463
6.21196e-05
0.00353204
0.397779
0.000124343
0.0036466
0.398065
0.000170519
0.0037614
0.398323
0.000203191
0.00384152
0.398556
0.000227187
0.00385296
0.398766
0.000244194
0.00385433
0.398956
0.000255687
0.00386457
0.39913
0.000262772
0.00386076
0.399288
0.000266085
0.00384955
0.399433
0.000266417
0.0038553
0.399566
0.000264423
0.00386454
0.399689
0.000260313
0.00387015
0.399803
0.000254241
0.00387846
0.399909
0.00024658
0.00389548
0.400009
0.000237901
0.00392461
0.400102
0.00022851
0.00396075
0.40019
0.00021852
0.00400179
0.400274
0.000208129
0.00404602
0.400354
0.000197484
0.00409442
0.40043
0.000186782
0.0041476
0.400503
0.000176268
0.00419693
0.400574
0.00016593
0.00424583
0.400642
0.000155747
0.00430586
0.400709
0.000145788
0.0043669
0.400774
0.000136077
0.00441489
0.400838
0.000126644
0.00445641
0.4009
0.000117487
0.00449807
0.400962
0.000108471
0.0045356
0.401022
9.95218e-05
0.00456773
0.401082
9.0682e-05
0.00459763
0.401142
8.18907e-05
0.00463187
0.401201
7.31402e-05
0.00467117
0.40126
6.45286e-05
0.00470326
0.401319
5.60118e-05
0.00472978
0.401377
4.76344e-05
0.00476156
0.401436
3.94868e-05
0.00479232
0.401494
3.14703e-05
0.00481951
0.401553
2.36234e-05
0.00484991
0.401612
1.59644e-05
0.00488875
0.401671
8.47954e-06
0.00493432
0.40173
1.29792e-06
0.00497505
0.40179
-5.68932e-06
0.00500808
0.401849
-1.2516e-05
0.00504521
0.401909
-1.91407e-05
0.00509586
0.40197
-2.55331e-05
0.00515085
0.402031
-3.16176e-05
0.00520419
0.402092
-3.75759e-05
0.00525698
0.402153
-4.33901e-05
0.00531352
0.402215
-4.897e-05
0.00537344
0.402277
-5.43963e-05
0.00543297
0.402339
-5.94592e-05
0.00549731
0.402402
-6.33062e-05
0.0055567
0.402464
-6.31525e-05
0.00559733
0.402521
-5.02053e-05
0.00561909
2.43685e-05
0.00564062
0.398245
0.00186876
1.29836e-05
0.398235
-0.00138006
0.000185483
0.398036
-0.00139709
0.000490633
0.398043
-0.00169863
0.000619415
0.398116
-0.00181303
0.000510984
0.398216
-0.00176921
0.000301862
0.39833
-0.00167661
0.00016579
0.398449
-0.00157681
0.000163143
0.398564
-0.00147837
0.000184795
0.398673
-0.00138439
0.000163993
0.398774
-0.0012968
0.00015172
0.398869
-0.00121607
0.00015034
0.398955
-0.00114219
0.000135649
0.399035
-0.00107502
0.000124452
0.399108
-0.00101396
0.000138049
0.399176
-0.000958447
0.000159159
0.399237
-0.000908115
0.000188513
0.399294
-0.000862594
0.000239734
0.399347
-0.000821391
0.000315871
0.399395
-0.000783898
0.000408176
0.39944
-0.00074969
0.000506752
0.399481
-0.000718474
0.00061054
0.39952
-0.000689924
0.000715433
0.399555
-0.000663782
0.00082089
0.399589
-0.000639739
0.000922815
0.39962
-0.000617518
0.00100805
0.399649
-0.000596973
0.00108213
0.399677
-0.000577986
0.00115893
0.399703
-0.000560413
0.00122803
0.399727
-0.00054414
0.00127647
0.399751
-0.000529044
0.001311
0.399773
-0.000515035
0.00133901
0.399794
-0.000502117
0.00136184
0.399814
-0.000490249
0.00138186
0.399834
-0.000479313
0.00140151
0.399852
-0.00046926
0.00142958
0.39987
-0.000460021
0.0014674
0.399888
-0.000451482
0.00150001
0.399905
-0.000443604
0.00153066
0.399921
-0.000436297
0.00156853
0.399937
-0.000429464
0.00160409
0.399953
-0.000423119
0.00163795
0.399968
-0.000417191
0.00167538
0.399983
-0.000411628
0.00172051
0.399997
-0.000406405
0.00177198
0.400012
-0.00040143
0.0018144
0.400026
-0.00039675
0.0018479
0.40004
-0.000392336
0.00188444
0.400054
-0.000388147
0.00193159
0.400068
-0.000384155
0.00197909
0.400082
-0.000380293
0.00201855
0.400096
-0.000376649
0.00205697
0.400109
-0.000373197
0.00209869
0.400123
-0.000369859
0.002141
0.400136
-0.000366664
0.00218454
0.40015
-0.00036348
0.00223529
0.400164
-0.000359761
0.00227949
0.40018
-0.000353421
0.00230113
0.400201
-0.000338784
0.00230517
-0.000233366
0.00231355
0.400786
0.00113695
0.400716
0.00156503
0.400704
0.00172794
0.400358
0.00169337
0.399814
0.00152245
0.399213
0.00135744
0.398602
0.00132233
0.397993
0.00140128
0.397388
0.00144596
0.39679
0.00139836
0.396202
0.001325
0.395621
0.0012319
0.39505
0.00110771
0.394487
0.000984984
0.393932
0.000887852
0.393385
0.000800234
0.392846
0.000729583
0.392314
0.000694347
0.391789
0.000695671
0.391271
0.000716578
0.39076
0.000743293
0.390255
0.000774371
0.389756
0.000803437
0.389264
0.000829285
0.388777
0.000845751
0.388296
0.000835857
0.38782
0.000806515
0.387349
0.00077399
0.386884
0.000728723
0.386423
0.000659469
0.385967
0.000574491
0.385516
0.000483412
0.38507
0.000392438
0.384627
0.000306668
0.384189
0.000228001
0.383755
0.000166161
0.383326
0.000122011
0.3829
7.79677e-05
0.382477
3.77328e-05
0.382059
8.94495e-06
0.381644
-2.04236e-05
0.381233
-4.81444e-05
0.380824
-7.03446e-05
0.38042
-8.39841e-05
0.380018
-9.10063e-05
0.37962
-0.000111169
0.379224
-0.000141094
0.378832
-0.000167344
0.378442
-0.000182804
0.378055
-0.000198459
0.377671
-0.000224792
0.37729
-0.000250815
0.376911
-0.00027223
0.376535
-0.000293972
0.376161
-0.000313092
0.37579
-0.000323076
0.375422
-0.000340809
0.37506
-0.000384073
0.374713
-0.000442913
-0.0004851
0.400785
-0.00186418
0.400706
0.00138061
0.400692
0.00139252
0.400348
0.0016963
0.399807
0.00181271
0.399208
0.00176642
0.398598
0.00166964
0.397988
0.00156691
0.397384
0.00146731
0.396787
0.00137339
0.396198
0.00128704
0.395619
0.00120865
0.395048
0.00113753
0.394486
0.00107287
0.393931
0.00101396
0.393385
0.000960256
0.392847
0.000911241
0.392315
0.000866125
0.391791
0.000824494
0.391273
0.000786354
0.390762
0.000751538
0.390257
0.000719584
0.389758
0.00069015
0.389265
0.000663239
0.388779
0.000638795
0.388297
0.000616463
0.387821
0.00059599
0.387351
0.000577315
0.386885
0.000560243
0.386424
0.0005445
0.385969
0.000529958
0.385518
0.000516538
0.385071
0.000504118
0.384629
0.000492611
0.384191
0.00048195
0.383757
0.00047203
0.383327
0.00046276
0.382901
0.00045408
0.382479
0.000445958
0.382061
0.000438378
0.381646
0.000431329
0.381234
0.000424713
0.380826
0.000418526
0.380421
0.000412736
0.38002
0.000407259
0.379621
0.000402095
0.379226
0.00039721
0.378833
0.000392625
0.378443
0.000388347
0.378057
0.000384313
0.377673
0.000380581
0.377291
0.000377053
0.376912
0.000373736
0.376536
0.000370662
0.376162
0.000367652
0.375791
0.000364559
0.375423
0.000360999
0.375061
0.00035502
0.374713
0.000340952
0.000236588
0.398245
-0.00315765
0.398235
-4.40792e-05
0.398034
-5.98693e-05
0.398039
-4.14553e-05
0.398112
-4.31126e-07
0.398212
-4.57754e-05
0.398326
-0.000108603
0.398444
-0.000154993
0.398559
-0.000186513
0.398668
-0.000207844
0.398769
-0.000220803
0.398864
-0.000227154
0.398951
-0.00022896
0.399031
-0.000227637
0.399105
-0.000224033
0.399172
-0.000218675
0.399235
-0.00021211
0.399292
-0.000205057
0.399344
-0.000197659
0.399393
-0.000189553
0.399438
-0.000180726
0.399479
-0.000171557
0.399518
-0.000162217
0.399553
-0.000152451
0.399587
-0.000142137
0.399618
-0.00013157
0.399647
-0.000120888
0.399674
-0.000109978
0.3997
-9.89666e-05
0.399724
-8.80975e-05
0.399748
-7.73818e-05
0.39977
-6.67847e-05
0.399791
-5.63752e-05
0.39981
-4.61678e-05
0.39983
-3.61481e-05
0.399848
-2.63703e-05
0.399866
-1.68806e-05
0.399883
-7.70378e-06
0.3999
1.17916e-06
0.399916
9.90387e-06
0.399932
1.84902e-05
0.399947
2.68503e-05
0.399962
3.50356e-05
0.399977
4.30429e-05
0.399992
5.07901e-05
0.400007
5.83089e-05
0.400021
6.55972e-05
0.400035
7.27275e-05
0.400049
7.97445e-05
0.400063
8.65848e-05
0.400077
9.33616e-05
0.40009
9.99526e-05
0.400104
0.000106416
0.400117
0.000112804
0.400131
0.000118836
0.400144
0.000124319
0.400158
0.000128674
0.400173
0.000129342
0.400194
0.000117518
4.44535e-05
0.396068
-0.000921108
0.396276
0.000516503
0.396447
0.000775913
0.396751
0.000806687
0.397112
0.000874222
0.397458
0.000883538
0.397773
0.000859166
0.398059
0.00083114
0.398318
0.000803094
0.39855
0.000773581
0.39876
0.000744285
0.398951
0.000716411
0.399125
0.00068959
0.399283
0.000663473
0.399429
0.000638164
0.399562
0.000613819
0.399685
0.000590344
0.3998
0.000567412
0.399906
0.000545187
0.400006
0.000524206
0.4001
0.000504575
0.400188
0.000485989
0.400272
0.000468369
0.400351
0.000452023
0.400428
0.000437063
0.400501
0.000423207
0.400572
0.000410378
0.40064
0.000398701
0.400707
0.000387986
0.400772
0.000377975
0.400836
0.00036867
0.400898
0.00036006
0.40096
0.000352
0.40102
0.000344437
0.40108
0.00033737
0.40114
0.000330728
0.401199
0.000324411
0.401258
0.000318325
0.401317
0.000312491
0.401375
0.000307085
0.401434
0.000302047
0.401492
0.000297298
0.401551
0.000292906
0.40161
0.000288868
0.401668
0.000285055
0.401727
0.000281409
0.401787
0.000277957
0.401846
0.000274812
0.401906
0.00027199
0.401966
0.000269383
0.402027
0.000267068
0.402087
0.000264925
0.402148
0.000263032
0.40221
0.000261412
0.402272
0.00025974
0.402334
0.000257811
0.402396
0.00025514
0.402458
0.00024988
0.402514
0.000237381
0.000201884
0.397417
-0.000489045
0.397742
1.6347e-05
0.39807
0.000132418
0.398345
9.51475e-05
0.398599
9.42192e-05
0.398817
7.73106e-05
0.399001
4.62105e-05
0.399162
1.79133e-05
0.399305
-5.12746e-06
0.399436
-2.41678e-05
0.399557
-3.879e-05
0.39967
-4.89478e-05
0.399776
-5.59743e-05
0.399876
-6.0941e-05
0.399972
-6.42195e-05
0.400062
-6.61489e-05
0.400148
-6.71756e-05
0.400231
-6.77263e-05
0.400311
-6.7833e-05
0.400388
-6.73187e-05
0.400462
-6.63156e-05
0.400533
-6.50667e-05
0.400603
-6.36136e-05
0.400671
-6.17824e-05
0.400737
-5.95677e-05
0.400802
-5.71605e-05
0.400865
-5.45171e-05
0.400928
-5.15226e-05
0.400989
-4.83553e-05
0.40105
-4.51735e-05
0.40111
-4.18994e-05
0.401169
-3.85361e-05
0.401229
-3.5208e-05
0.401287
-3.19387e-05
0.401346
-2.86947e-05
0.401404
-2.54889e-05
0.401462
-2.23975e-05
0.401521
-1.95079e-05
0.401579
-1.67324e-05
0.401637
-1.39168e-05
0.401695
-1.11315e-05
0.401754
-8.3886e-06
0.401813
-5.59535e-06
0.401872
-2.77296e-06
0.401931
-1.44099e-08
0.40199
2.65307e-06
0.40205
5.29515e-06
0.40211
8.05502e-06
0.402171
1.09205e-05
0.402232
1.37678e-05
0.402293
1.66319e-05
0.402355
1.94593e-05
0.402417
2.23431e-05
0.40248
2.52746e-05
0.402543
2.80224e-05
0.402606
3.04615e-05
0.402669
3.23084e-05
0.40273
3.25677e-05
0.402788
2.81478e-05
9.95261e-06
0.397416
-6.36502e-07
0.397464
-1.17352e-06
0.397663
-1.25175e-06
0.397861
-1.11961e-06
0.398092
-7.36553e-07
0.398333
-5.25947e-07
0.398565
-3.23694e-07
0.398783
9.23206e-07
0.398987
2.55319e-06
0.399175
3.64717e-06
0.399349
4.90058e-06
0.399509
6.77439e-06
0.399657
8.69404e-06
0.399793
1.03074e-05
0.399919
1.16979e-05
0.400037
1.28571e-05
0.400146
1.37822e-05
0.400249
1.45009e-05
0.400346
1.50932e-05
0.400437
1.56142e-05
0.400523
1.60193e-05
0.400606
1.62702e-05
0.400684
1.64241e-05
0.40076
1.6591e-05
0.400832
1.67152e-05
0.400903
1.67017e-05
0.400971
1.67014e-05
0.401037
1.68162e-05
0.401102
1.68943e-05
0.401166
1.68893e-05
0.401228
1.69145e-05
0.40129
1.6963e-05
0.401351
1.69738e-05
0.401411
1.69667e-05
0.401471
1.69771e-05
0.40153
1.70415e-05
0.401589
1.7108e-05
0.401648
1.70747e-05
0.401707
1.70516e-05
0.401765
1.7135e-05
0.401824
1.72213e-05
0.401883
1.73609e-05
0.401942
1.76257e-05
0.402001
1.79543e-05
0.402061
1.82854e-05
0.40212
1.85921e-05
0.40218
1.89605e-05
0.402241
1.95339e-05
0.402301
2.02507e-05
0.402363
2.09728e-05
0.402424
2.1681e-05
0.402486
2.24029e-05
0.402548
2.32e-05
0.40261
2.40428e-05
0.402673
2.48499e-05
0.402737
2.55938e-05
0.402799
2.62712e-05
0.40286
2.69848e-05
0.402914
2.77655e-05
2.83662e-05
0.397416
0.000487737
0.397464
-1.88308e-05
0.397664
-0.000134974
0.397862
-9.72574e-05
0.398092
-9.54605e-05
0.398334
-7.82141e-05
0.398566
-4.63664e-05
0.398784
-1.54158e-05
0.398987
1.08606e-05
0.399176
3.23264e-05
0.39935
4.96717e-05
0.399509
6.35288e-05
0.399657
7.42365e-05
0.399793
8.23314e-05
0.399919
8.82754e-05
0.400037
9.2408e-05
0.400146
9.52253e-05
0.400249
9.71594e-05
0.400346
9.83725e-05
0.400437
9.88381e-05
0.400523
9.86158e-05
0.400605
9.78525e-05
0.400684
9.66618e-05
0.40076
9.51384e-05
0.400832
9.32186e-05
0.400903
9.08511e-05
0.400971
8.82361e-05
0.401037
8.5481e-05
0.401102
8.24951e-05
0.401166
7.9315e-05
0.401228
7.60491e-05
0.40129
7.27076e-05
0.401351
6.93402e-05
0.401411
6.60244e-05
0.401471
6.27854e-05
0.40153
5.97008e-05
0.401589
5.67554e-05
0.401648
5.38477e-05
0.401707
5.10901e-05
0.401765
4.85165e-05
0.401824
4.60059e-05
0.401883
4.36582e-05
0.401942
4.15016e-05
0.402001
3.94911e-05
0.402061
3.75886e-05
0.40212
3.56729e-05
0.40218
3.38473e-05
0.402241
3.22271e-05
0.402301
3.07258e-05
0.402362
2.92238e-05
0.402424
2.76679e-05
0.402485
2.61729e-05
0.402548
2.47587e-05
0.40261
2.33839e-05
0.402673
2.21275e-05
0.402736
2.10757e-05
0.402799
2.04959e-05
0.40286
2.15697e-05
0.402914
2.73864e-05
4.64033e-05
0.397416
0.000920125
0.397741
-0.000518595
0.39807
-0.0007785
0.398345
-0.000808866
0.398599
-0.000875886
0.398817
-0.000885745
0.399002
-0.000861577
0.399162
-0.000831577
0.399306
-0.000800422
0.399437
-0.000768518
0.399559
-0.000736579
0.399672
-0.000705449
0.399778
-0.000675494
0.399878
-0.000646656
0.399973
-0.000619027
0.400064
-0.000592747
0.40015
-0.000567588
0.400233
-0.000543349
0.400312
-0.000520148
0.400389
-0.000498297
0.400463
-0.00047785
0.400534
-0.000458691
0.400604
-0.000440807
0.400672
-0.000424162
0.400738
-0.000408821
0.400803
-0.000394847
0.400866
-0.000382046
0.400929
-0.000370264
0.40099
-0.0003595
0.401051
-0.00034967
0.401111
-0.000340674
0.401171
-0.000332439
0.40123
-0.000324784
0.401288
-0.000317573
0.401347
-0.000310779
0.401405
-0.00030428
0.401464
-0.000298039
0.401522
-0.00029213
0.40158
-0.000286441
0.401638
-0.000280969
0.401697
-0.000275807
0.401755
-0.000270818
0.401814
-0.000266003
0.401873
-0.000261383
0.401933
-0.000256939
0.401992
-0.000252768
0.402052
-0.000248817
0.402112
-0.000244997
0.402173
-0.000241372
0.402234
-0.000238004
0.402295
-0.000234951
0.402357
-0.000232026
0.402419
-0.000229222
0.402482
-0.000226577
0.402545
-0.000223907
0.402608
-0.000221022
0.402671
-0.000217435
0.402733
-0.000211144
0.40279
-0.000197262
-0.00016003
0.396069
0.00315584
0.396277
4.46485e-05
0.396448
6.05834e-05
0.396752
4.45371e-05
0.397113
6.07287e-06
0.397459
5.35122e-05
0.397775
0.000119514
0.398061
0.000170489
0.398318
0.000206733
0.398551
0.000232455
0.398762
0.00024985
0.398952
0.000260272
0.399126
0.000265412
0.399284
0.000266849
0.399429
0.000265413
0.399563
0.000261746
0.399686
0.000256652
0.3998
0.000250735
0.399907
0.000244181
0.400006
0.000236861
0.4001
0.000228852
0.400188
0.000220345
0.400272
0.000211396
0.400352
0.000202081
0.400428
0.000192375
0.400501
0.000182207
0.400572
0.000171723
0.40064
0.000161053
0.400707
0.000150234
0.400772
0.000139346
0.400836
0.000128444
0.400898
0.000117596
0.40096
0.000106994
0.40102
9.67418e-05
0.40108
8.68179e-05
0.40114
7.72895e-05
0.401199
6.81609e-05
0.401258
5.93491e-05
0.401317
5.09074e-05
0.401375
4.27781e-05
0.401434
3.48676e-05
0.401492
2.72733e-05
0.401551
1.99356e-05
0.40161
1.28141e-05
0.401669
5.91141e-06
0.401728
-8.78873e-07
0.401788
-7.47196e-06
0.401848
-1.38843e-05
0.401908
-2.01788e-05
0.401968
-2.63914e-05
0.402029
-3.2598e-05
0.40209
-3.86203e-05
0.402151
-4.44743e-05
0.402213
-5.02178e-05
0.402275
-5.5668e-05
0.402338
-6.06101e-05
0.4024
-6.44466e-05
0.402462
-6.4491e-05
0.402519
-5.15925e-05
2.32745e-05
0.398247
0.00185904
0.398237
-0.00138299
0.398036
-0.00139661
0.398042
-0.00170136
0.398114
-0.00181824
0.398214
-0.00177405
0.39833
-0.00167851
0.398448
-0.00157554
0.398563
-0.00147527
0.398672
-0.00138059
0.398774
-0.00129299
0.398868
-0.00121313
0.398955
-0.00114062
0.399035
-0.00107467
0.399108
-0.00101471
0.399176
-0.000960211
0.399238
-0.000910457
0.399295
-0.000864813
0.399347
-0.000822871
0.399396
-0.000784465
0.39944
-0.000749333
0.399482
-0.000717155
0.39952
-0.000687707
0.399556
-0.000660749
0.399589
-0.000636144
0.39962
-0.000613788
0.39965
-0.000593461
0.399677
-0.000574929
0.399703
-0.000558025
0.399728
-0.000542595