/*--------------------------------*- C++ -*----------------------------------*\
  =========                 |
  \\      /  F ield         | OpenFOAM: The Open Source CFD Toolbox
   \\    /   O peration     | Website:  https://openfoam.org
    \\  /    A nd           | Version:  8
     \\/     M anipulation  |
\*---------------------------------------------------------------------------*/
FoamFile
{
    version     2.0;
    format      ascii;
    class       volScalarField;
    location    "300";
    object      alphat;
}
// * * * * * * * * * * * * * * * * * * * * * * * * * * * * * * * * * * * * * //

dimensions      [1 -1 -1 0 0 0 0];

internalField   nonuniform List<scalar> 
8400
(
0.351425
0.345436
0.339515
0.333666
0.327883
0.3222
0.31669
0.311316
0.306074
0.300963
0.295984
0.291134
0.28641
0.281811
0.277331
0.272967
0.268718
0.264578
0.260545
0.256612
0.252774
0.249026
0.245366
0.241788
0.238286
0.234856
0.231493
0.228193
0.224952
0.221764
0.218624
0.215601
0.212733
0.209992
0.207365
0.204832
0.202376
0.199978
0.197624
0.1953
0.192995
0.190701
0.188413
0.186127
0.183842
0.18156
0.179288
0.177034
0.174813
0.172645
0.116855
0.116095
0.115407
0.114775
0.114186
0.113505
0.112535
0.111387
0.110061
0.108559
0.106889
0.10506
0.103085
0.100985
0.098783
0.0965088
0.0941909
0.0918601
0.0895506
0.0873011
0.0851519
0.0831428
0.081311
0.0796909
0.0783142
0.0772084
0.0763939
0.0758824
0.0756768
0.075772
0.0761681
0.0766322
0.0770163
0.0773643
0.0776619
0.077925
0.078157
0.0783662
0.0785575
0.078735
0.0789011
0.0790573
0.0792039
0.079341
0.0794683
0.0795859
0.079694
0.0797939
0.0798877
0.0799791
0.0751015
0.0749668
0.0748545
0.0747598
0.0746769
0.0746
0.0744423
0.0742215
0.0739488
0.0736269
0.0732591
0.0728513
0.0724114
0.0719501
0.0714796
0.0710126
0.0705619
0.0701396
0.0697574
0.0694256
0.0691521
0.0689417
0.0687953
0.068711
0.0686838
0.0687071
0.0687723
0.06887
0.0689913
0.0691437
0.0693082
0.0694661
0.0696214
0.0697714
0.0699168
0.0700564
0.0701895
0.0703153
0.0704326
0.0705409
0.0706396
0.0707286
0.0708077
0.070877
0.0709369
0.070988
0.0710312
0.0710686
0.0711024
0.0711359
0.0647335
0.0647681
0.0648095
0.0648528
0.0648941
0.06493
0.0649577
0.0649425
0.0649074
0.0648526
0.0647788
0.0646879
0.0645823
0.0644657
0.0643421
0.0642156
0.0640898
0.0639685
0.0638554
0.0637542
0.0636677
0.0635977
0.0635451
0.0635103
0.0634934
0.0634944
0.0635126
0.0635533
0.0636336
0.0637373
0.0638499
0.0639725
0.0641001
0.0642306
0.0643612
0.0644898
0.0646144
0.064733
0.0648443
0.0649477
0.0650427
0.0651289
0.0652062
0.0652749
0.0653351
0.0653876
0.0654337
0.0654752
0.0655141
0.0655529
0.0601562
0.0602306
0.0603013
0.0603654
0.0604202
0.0604634
0.0604932
0.0604929
0.0604756
0.0604401
0.0603861
0.060314
0.0602251
0.0601212
0.0600045
0.0598773
0.0597422
0.0596025
0.0594624
0.0593261
0.0591975
0.0590806
0.0589789
0.058896
0.058835
0.058805
0.0588299
0.058908
0.0590103
0.0591274
0.0592563
0.059392
0.0595314
0.0596716
0.0598101
0.0599449
0.0600741
0.0601965
0.0603116
0.0604192
0.0605189
0.0606107
0.0606946
0.0607709
0.0608399
0.0609024
0.0609595
0.061013
0.0610645
0.0611153
0.0569381
0.0570137
0.0570819
0.0571383
0.0571798
0.0572044
0.0572109
0.0571986
0.0571513
0.0570858
0.0569991
0.0568913
0.0567637
0.0566181
0.0564569
0.0562828
0.0560998
0.0559131
0.0557284
0.0555518
0.0553894
0.0552472
0.0551308
0.0550552
0.0550502
0.055118
0.0552226
0.0553505
0.0554979
0.0556569
0.0558228
0.0559909
0.0561583
0.0563223
0.0564808
0.0566323
0.0567759
0.0569113
0.0570387
0.0571579
0.0572689
0.0573719
0.0574672
0.0575554
0.0576366
0.0577117
0.0577816
0.0578477
0.0579112
0.0579733
0.0542256
0.0543073
0.054374
0.0544211
0.0544456
0.0544459
0.0544215
0.054372
0.0542837
0.054169
0.0540292
0.0538638
0.0536744
0.0534631
0.0532337
0.0529907
0.0527405
0.0524912
0.0522517
0.0520316
0.0518406
0.0517182
0.0516965
0.0517711
0.0519009
0.0520654
0.0522591
0.0524705
0.052693
0.0529193
0.0531448
0.053366
0.0535803
0.0537855
0.0539804
0.0541644
0.0543376
0.0545
0.0546519
0.0547931
0.0549238
0.0550448
0.0551567
0.0552598
0.0553543
0.0554415
0.0555224
0.055598
0.0556693
0.0557378
0.0515167
0.0515885
0.0516502
0.0516885
0.051696
0.0516693
0.051608
0.0515127
0.0513857
0.0511995
0.0509864
0.0507453
0.0504778
0.0501892
0.0498867
0.0495811
0.0492856
0.0490166
0.0488071
0.0486963
0.0487141
0.0488166
0.048969
0.0491557
0.0493699
0.0496017
0.0498455
0.0500961
0.0503502
0.050605
0.050859
0.0511103
0.051357
0.0515975
0.0518304
0.052055
0.0522699
0.0524738
0.0526651
0.0528429
0.0530071
0.0531577
0.0532946
0.0534178
0.0535273
0.0536247
0.0537122
0.0537904
0.0538603
0.0539242
0.0492107
0.0490596
0.0489744
0.0489292
0.0488956
0.048852
0.0487862
0.048693
0.0485755
0.048441
0.0482705
0.0480926
0.047921
0.047775
0.0476752
0.0476402
0.0476825
0.0478065
0.0479833
0.0481694
0.0483337
0.0484845
0.0486151
0.048729
0.0488286
0.0489168
0.0489967
0.0490712
0.0491438
0.0492184
0.0492989
0.0493882
0.049489
0.0496036
0.0497334
0.049878
0.0500351
0.0502019
0.0503747
0.0505504
0.050725
0.050894
0.0510523
0.0511959
0.0513223
0.0514298
0.0515189
0.0515886
0.0516403
0.0516757
0.0511803
0.0502004
0.049432
0.0489113
0.0486205
0.0485306
0.0486096
0.048823
0.0491373
0.0495195
0.0499383
0.0503618
0.0507728
0.0511505
0.0514788
0.0517454
0.051949
0.0521014
0.0522117
0.052287
0.0523356
0.0523612
0.0523613
0.0523315
0.0522665
0.0521628
0.0520197
0.0518393
0.0516264
0.051387
0.0511268
0.0508523
0.0505705
0.0502889
0.0500131
0.0497468
0.0494942
0.0492605
0.0490508
0.0488689
0.0487171
0.0485936
0.0484947
0.0484192
0.0483645
0.0483267
0.0483015
0.048285
0.0482772
0.0482753
0.0591769
0.0584648
0.05786
0.0573452
0.0569203
0.0565852
0.0563347
0.0561677
0.0560832
0.0560816
0.0561536
0.0562729
0.0564149
0.0565557
0.0566781
0.0567741
0.0568459
0.0568956
0.0569204
0.056918
0.0568852
0.0568226
0.0567358
0.0566304
0.0565108
0.0563811
0.056244
0.0561009
0.0559511
0.0557914
0.0556197
0.0554391
0.0552531
0.0550587
0.054846
0.0546042
0.0543322
0.054039
0.0537304
0.0534031
0.0530494
0.0526617
0.0522346
0.0517633
0.0512436
0.0506802
0.0500846
0.0494859
0.048939
0.0485297
0.06108
0.0609012
0.0607303
0.0605718
0.0604199
0.0602713
0.0601164
0.0599566
0.0597933
0.0596326
0.0594797
0.0593335
0.0591912
0.0590499
0.0589116
0.0587814
0.0586624
0.0585549
0.0584561
0.0583641
0.0582794
0.0582029
0.0581349
0.0580748
0.0580206
0.0579708
0.057924
0.0578772
0.0578271
0.0577713
0.0577098
0.0576477
0.0575925
0.0575431
0.0574909
0.0574274
0.0573486
0.057262
0.0571761
0.0570928
0.0570148
0.0569337
0.0568511
0.0567637
0.0566558
0.0565281
0.0563764
0.0562078
0.0559958
0.0557171
0.0611669
0.0610907
0.0610158
0.0609423
0.0608691
0.0607954
0.0607199
0.060643
0.0605658
0.0604888
0.0604123
0.0603359
0.0602597
0.060184
0.0601095
0.0600366
0.0599649
0.0598943
0.0598245
0.0597556
0.059688
0.0596223
0.0595584
0.0594957
0.059434
0.0593732
0.0593131
0.0592528
0.0591919
0.0591304
0.0590697
0.0590112
0.0589552
0.0588999
0.0588423
0.0587818
0.0587199
0.058658
0.0585961
0.0585334
0.0584709
0.058408
0.0583435
0.0582766
0.0582039
0.0581264
0.0580424
0.057952
0.0578566
0.0577593
0.0611922
0.0611459
0.0610996
0.0610536
0.0610077
0.0609612
0.0609147
0.0608675
0.06082
0.0607721
0.0607237
0.0606751
0.0606269
0.0605793
0.060532
0.060485
0.0604379
0.0603906
0.0603434
0.0602966
0.0602502
0.0602042
0.0601584
0.0601129
0.0600676
0.0600225
0.0599774
0.059932
0.059886
0.0598397
0.059794
0.0597489
0.0597042
0.0596591
0.0596132
0.0595667
0.05952
0.0594733
0.059426
0.0593779
0.0593292
0.0592807
0.0592318
0.0591815
0.0591287
0.0590735
0.0590158
0.0589575
0.0588971
0.0588315
0.0612054
0.0611733
0.061141
0.0611085
0.0610759
0.0610431
0.06101
0.0609765
0.0609426
0.0609084
0.0608738
0.0608391
0.0608048
0.0607707
0.0607366
0.0607022
0.0606674
0.0606324
0.0605974
0.0605625
0.0605278
0.0604931
0.0604584
0.0604236
0.0603889
0.0603542
0.0603193
0.0602841
0.0602486
0.0602132
0.0601782
0.0601433
0.0601081
0.0600724
0.0600363
0.0600003
0.0599643
0.059928
0.0598911
0.0598535
0.0598158
0.059778
0.0597401
0.0597008
0.0596601
0.059619
0.0595776
0.0595347
0.0594895
0.0594418
0.0612107
0.0611846
0.0611585
0.0611324
0.0611063
0.0610799
0.0610532
0.0610263
0.0609991
0.0609716
0.0609442
0.0609169
0.0608899
0.060863
0.0608358
0.0608084
0.0607809
0.0607534
0.0607262
0.0606992
0.0606723
0.0606453
0.0606183
0.0605913
0.0605644
0.0605374
0.0605102
0.060483
0.0604558
0.0604287
0.0604016
0.0603742
0.0603465
0.0603186
0.0602907
0.0602629
0.0602348
0.0602063
0.0601773
0.0601481
0.0601187
0.060089
0.0600589
0.0600284
0.0599973
0.0599653
0.0599328
0.0598995
0.0598651
0.0598292
0.0612175
0.0611986
0.0611797
0.0611606
0.0611414
0.061122
0.0611025
0.061083
0.0610633
0.0610435
0.0610238
0.0610042
0.0609846
0.0609648
0.0609447
0.0609244
0.060904
0.0608837
0.0608633
0.0608429
0.0608224
0.0608018
0.0607811
0.0607603
0.0607394
0.0607184
0.0606973
0.0606762
0.060655
0.0606337
0.0606122
0.0605905
0.0605688
0.0605472
0.0605256
0.0605039
0.0604821
0.0604601
0.0604381
0.0604161
0.0603938
0.0603715
0.0603486
0.0603252
0.0603015
0.0602773
0.0602528
0.0602278
0.0602018
0.0601747
0.0612173
0.0611981
0.061179
0.0611596
0.0611399
0.0611203
0.0611006
0.0610809
0.0610611
0.0610413
0.0610216
0.0610019
0.0609821
0.060962
0.0609417
0.0609214
0.0609011
0.0608809
0.0608606
0.0608403
0.0608199
0.0607995
0.0607791
0.0607586
0.0607381
0.0607175
0.0606969
0.0606762
0.0606553
0.0606342
0.060613
0.0605919
0.0605709
0.0605499
0.0605287
0.0605075
0.0604864
0.0604653
0.0604442
0.0604229
0.0604013
0.0603796
0.0603578
0.060336
0.0603144
0.0602926
0.060271
0.0602495
0.0602279
0.0602059
0.0612239
0.0612138
0.061202
0.0611902
0.0611783
0.0611664
0.0611544
0.0611424
0.0611304
0.0611184
0.0611065
0.0610946
0.0610827
0.0610707
0.0610587
0.0610469
0.0610352
0.0610237
0.0610122
0.0610008
0.0609894
0.060978
0.0609666
0.0609553
0.060944
0.0609329
0.0609218
0.0609108
0.0608998
0.060889
0.0608782
0.0608674
0.0608567
0.0608458
0.060835
0.0608243
0.0608137
0.0608031
0.0607923
0.0607814
0.0607704
0.0607593
0.0607481
0.0607369
0.0607254
0.0607138
0.0607018
0.0606893
0.0606761
0.0606619
0.062001
0.0628076
0.0636204
0.0644274
0.0652212
0.0659983
0.0667599
0.0675108
0.0682576
0.0690069
0.0697643
0.0705344
0.0713203
0.0721242
0.0729472
0.0737895
0.0746505
0.0755288
0.0764229
0.0773306
0.0782497
0.0791778
0.0801125
0.0810518
0.0819942
0.082938
0.0838816
0.0848236
0.0857625
0.0866971
0.0876263
0.0885491
0.0894643
0.0903713
0.0912692
0.0921572
0.0930338
0.0938969
0.0947449
0.0955757
0.0963876
0.0971774
0.0979418
0.0986761
0.099375
0.100032
0.100638
0.101184
0.101656
0.102051
0.27115
0.267825
0.264633
0.261564
0.258607
0.255746
0.252967
0.250265
0.247637
0.245079
0.242588
0.240161
0.237795
0.235488
0.233238
0.231043
0.228901
0.226811
0.224771
0.22278
0.220838
0.218943
0.217094
0.215292
0.213534
0.211819
0.210146
0.208512
0.206916
0.205356
0.203831
0.202341
0.200884
0.199462
0.198074
0.19672
0.195399
0.194112
0.192855
0.191629
0.190421
0.18923
0.188054
0.186888
0.18573
0.184575
0.183418
0.182248
0.181049
0.17979
0.269218
0.263076
0.257199
0.251566
0.246177
0.241026
0.236107
0.231406
0.226907
0.222596
0.218461
0.214491
0.210673
0.207001
0.203464
0.200055
0.196768
0.193596
0.190534
0.187578
0.184724
0.181967
0.179304
0.17673
0.174241
0.171831
0.169494
0.167227
0.165025
0.162884
0.160803
0.15878
0.156813
0.154901
0.153041
0.151232
0.149471
0.147751
0.14607
0.144423
0.142816
0.141247
0.139713
0.138213
0.136745
0.135306
0.133895
0.132504
0.131128
0.129764
0.269208
0.263042
0.257124
0.251454
0.246025
0.240826
0.235845
0.231069
0.226484
0.222079
0.217841
0.213761
0.209828
0.206036
0.202376
0.198841
0.195425
0.192123
0.188929
0.18584
0.182852
0.17996
0.177161
0.174451
0.171825
0.169279
0.166808
0.164408
0.162075
0.159807
0.1576
0.155454
0.153367
0.151338
0.149365
0.147447
0.145581
0.143766
0.141998
0.140274
0.138592
0.136951
0.135347
0.133779
0.132247
0.130752
0.129295
0.127879
0.126496
0.125126
0.269208
0.263085
0.257221
0.251604
0.246222
0.241064
0.236115
0.231362
0.226795
0.222401
0.21817
0.214092
0.21016
0.206365
0.202701
0.199161
0.195739
0.192429
0.189226
0.186127
0.183128
0.180225
0.177413
0.174689
0.172049
0.169488
0.167003
0.164588
0.162241
0.159959
0.157739
0.15558
0.153481
0.151439
0.149454
0.147523
0.145645
0.143817
0.142037
0.140301
0.138607
0.136953
0.135337
0.133757
0.132212
0.130699
0.129222
0.127785
0.126392
0.125026
0.269207
0.263085
0.257219
0.251596
0.246207
0.24104
0.236082
0.231321
0.226746
0.222345
0.218109
0.214028
0.210094
0.2063
0.202638
0.199101
0.195682
0.192378
0.189181
0.186088
0.183094
0.180195
0.177388
0.174669
0.172032
0.169475
0.166993
0.164582
0.162239
0.159961
0.157746
0.155591
0.153496
0.151459
0.149477
0.147551
0.145676
0.143852
0.142073
0.14034
0.138647
0.136995
0.13538
0.133802
0.132259
0.13075
0.129272
0.127827
0.126425
0.125057
0.269207
0.263087
0.257228
0.251617
0.246241
0.241086
0.236141
0.231391
0.226826
0.222434
0.218204
0.214129
0.210201
0.206411
0.202754
0.199221
0.195807
0.192506
0.189312
0.186221
0.183228
0.180329
0.177521
0.1748
0.172161
0.169601
0.167116
0.164703
0.162358
0.160078
0.157861
0.155705
0.153608
0.151569
0.149586
0.147657
0.145781
0.143953
0.142172
0.140435
0.13874
0.137082
0.135462
0.133877
0.132328
0.130814
0.129334
0.127885
0.126472
0.125094
0.269207
0.263086
0.25723
0.251621
0.246247
0.241093
0.236146
0.231393
0.226823
0.222425
0.21819
0.21411
0.210177
0.206384
0.202724
0.199191
0.195776
0.192475
0.189282
0.186191
0.183198
0.180299
0.17749
0.174768
0.172128
0.169567
0.167082
0.164669
0.162324
0.160046
0.157831
0.155676
0.153582
0.151545
0.149564
0.147637
0.145762
0.143936
0.142156
0.14042
0.138724
0.137068
0.135447
0.133861
0.132309
0.130792
0.129311
0.127861
0.126445
0.125063
0.269206
0.263085
0.25723
0.251625
0.246255
0.241105
0.236161
0.23141
0.226842
0.222444
0.21821
0.214131
0.2102
0.20641
0.202754
0.199224
0.195814
0.192517
0.189327
0.186238
0.183247
0.180348
0.177539
0.174816
0.172175
0.169613
0.167127
0.164713
0.162368
0.16009
0.157874
0.155721
0.153626
0.151589
0.149608
0.14768
0.145804
0.143977
0.142195
0.140457
0.138758
0.137098
0.135474
0.133885
0.132328
0.130806
0.129319
0.127864
0.126443
0.125054
0.269205
0.263083
0.25723
0.251628
0.24626
0.241112
0.236168
0.231416
0.226845
0.222445
0.218208
0.214126
0.210193
0.206402
0.202745
0.199215
0.195806
0.192509
0.189319
0.18623
0.183238
0.180337
0.177526
0.1748
0.172157
0.169594
0.167106
0.164691
0.162347
0.160068
0.157854
0.155701
0.153608
0.151571
0.149591
0.147664
0.145788
0.143961
0.142179
0.140439
0.13874
0.137077
0.135451
0.133859
0.132301
0.130777
0.129286
0.127829
0.126404
0.125011
0.269204
0.263081
0.257229
0.251629
0.246264
0.241117
0.236174
0.231422
0.22685
0.222448
0.21821
0.214127
0.210194
0.206404
0.202749
0.199221
0.195814
0.192519
0.189331
0.186242
0.18325
0.180349
0.177537
0.174809
0.172165
0.1696
0.167112
0.164697
0.162352
0.160075
0.157862
0.15571
0.153617
0.151581
0.149601
0.147673
0.145797
0.143968
0.142185
0.140444
0.138742
0.137077
0.135448
0.133853
0.132291
0.130763
0.129269
0.127807
0.126378
0.12498
0.269204
0.263079
0.257228
0.25163
0.246267
0.241121
0.236178
0.231425
0.226851
0.222447
0.218207
0.214124
0.21019
0.206401
0.202747
0.199221
0.195815
0.192521
0.189333
0.186244
0.183251
0.180348
0.177534
0.174805
0.172159
0.169592
0.167103
0.164689
0.162345
0.160068
0.157856
0.155705
0.153613
0.151577
0.149597
0.147669
0.145791
0.143961
0.142176
0.140433
0.13873
0.137063
0.135431
0.133833
0.132269
0.130738
0.12924
0.127774
0.126341
0.124939
0.269203
0.263077
0.257227
0.251631
0.246268
0.241123
0.236179
0.231424
0.226848
0.222443
0.218201
0.214116
0.210182
0.206393
0.202739
0.199214
0.195808
0.192514
0.189325
0.186236
0.18324
0.180336
0.177519
0.174788
0.172139
0.169572
0.167082
0.164668
0.162324
0.160049
0.157838
0.155689
0.153597
0.151562
0.149581
0.147652
0.145773
0.143942
0.142156
0.140411
0.138706
0.137038
0.135404
0.133805
0.132238
0.130705
0.129204
0.127736
0.126299
0.124893
0.269202
0.263076
0.257226
0.25163
0.246269
0.241123
0.236178
0.231423
0.226846
0.22244
0.218199
0.214115
0.210183
0.206395
0.202744
0.199221
0.195817
0.192525
0.189336
0.186247
0.183251
0.180345
0.177527
0.174794
0.172145
0.169577
0.167088
0.164674
0.162332
0.160058
0.157848
0.155699
0.153607
0.151571
0.149588
0.147658
0.145777
0.143943
0.142155
0.140409
0.138701
0.137031
0.135395
0.133792
0.132223
0.130686
0.129181
0.127708
0.126266
0.124854
0.269202
0.263074
0.257224
0.251628
0.246265
0.241116
0.236169
0.23141
0.226829
0.22242
0.218175
0.214088
0.210154
0.206364
0.202711
0.199186
0.19578
0.192485
0.189295
0.186202
0.183203
0.180295
0.177474
0.174739
0.172088
0.16952
0.167031
0.164618
0.162278
0.160006
0.157798
0.155649
0.153558
0.151521
0.149538
0.147606
0.145725
0.143891
0.142103
0.140356
0.138649
0.136978
0.135342
0.133739
0.132169
0.130631
0.129124
0.127649
0.126204
0.124788
0.269201
0.263074
0.257223
0.251626
0.246262
0.241114
0.236168
0.231411
0.226833
0.222427
0.218186
0.214104
0.210173
0.206387
0.202737
0.199214
0.19581
0.192516
0.189326
0.186232
0.183232
0.180322
0.177499
0.174763
0.172111
0.169542
0.167053
0.164641
0.162301
0.160029
0.15782
0.15567
0.153576
0.151536
0.14955
0.147615
0.14573
0.143893
0.142102
0.140353
0.138643
0.13697
0.135331
0.133724
0.13215
0.130607
0.129096
0.127614
0.126163
0.12474
0.269201
0.263071
0.257213
0.251606
0.246231
0.241071
0.236112
0.231343
0.226754
0.222338
0.218089
0.214
0.210063
0.206272
0.202618
0.199092
0.195685
0.192388
0.189195
0.1861
0.183098
0.180186
0.177363
0.174627
0.171976
0.169409
0.166923
0.164514
0.162177
0.159907
0.1577
0.155552
0.15346
0.151421
0.149435
0.147501
0.145618
0.143782
0.141992
0.140244
0.138536
0.136865
0.135227
0.133622
0.132048
0.130505
0.128993
0.12751
0.126057
0.124633
0.269201
0.26307
0.257215
0.251614
0.246248
0.241097
0.236147
0.231386
0.226804
0.222394
0.218149
0.214062
0.210127
0.206335
0.20268
0.199151
0.195739
0.192438
0.189239
0.186137
0.183129
0.180212
0.177383
0.174642
0.171987
0.169416
0.166926
0.164513
0.162173
0.159899
0.157687
0.155534
0.153436
0.151393
0.149403
0.147465
0.145577
0.143738
0.141945
0.140195
0.138485
0.136811
0.135172
0.133566
0.131991
0.130447
0.128935
0.127453
0.126003
0.124584
0.269201
0.263026
0.257117
0.251465
0.246051
0.24086
0.235878
0.231092
0.226493
0.22207
0.217818
0.213728
0.209793
0.206004
0.202352
0.198829
0.195425
0.192131
0.188941
0.185849
0.182852
0.179947
0.177131
0.174405
0.171765
0.16921
0.166736
0.164339
0.162015
0.159757
0.157562
0.155426
0.153346
0.15132
0.149349
0.14743
0.145563
0.143746
0.141976
0.140251
0.138568
0.136924
0.135317
0.133745
0.132209
0.13071
0.129248
0.127826
0.126449
0.125121
0.26921
0.263056
0.257188
0.251572
0.246197
0.241055
0.236135
0.231424
0.22691
0.222583
0.218433
0.214452
0.210632
0.206964
0.203438
0.200043
0.196771
0.193612
0.190559
0.187605
0.184747
0.18198
0.179304
0.176717
0.174217
0.171803
0.169471
0.167217
0.165037
0.162924
0.160875
0.158885
0.156952
0.155075
0.153253
0.151486
0.149774
0.148115
0.146508
0.14495
0.14344
0.141975
0.140554
0.139178
0.137848
0.136568
0.135346
0.134193
0.133126
0.132181
0.271152
0.267821
0.264632
0.26157
0.258619
0.255759
0.252977
0.250268
0.247631
0.245064
0.242564
0.240132
0.237763
0.235456
0.233207
0.231013
0.228871
0.226779
0.224735
0.22274
0.220791
0.21889
0.217036
0.21523
0.213469
0.211754
0.210081
0.208449
0.206854
0.205294
0.203767
0.202272
0.200809
0.199378
0.197977
0.196607
0.195265
0.193951
0.192661
0.191395
0.19015
0.188923
0.187714
0.186521
0.185343
0.18418
0.183031
0.181895
0.180768
0.179647
0.116511
0.0586048
0.0476704
0.0461295
0.0453267
0.044633
0.0439256
0.0432477
0.0425942
0.0419995
0.0415495
0.0414802
0.0423185
0.0451055
0.0513465
0.0622485
0.0771823
0.0943134
0.116137
0.174672
0.117623
0.0593341
0.0479536
0.0463706
0.0455734
0.044905
0.0442143
0.0435564
0.042912
0.0423023
0.0417641
0.0414089
0.041521
0.0427529
0.0462932
0.0536544
0.0651902
0.0785276
0.0894814
0.0937385
0.11871
0.0600618
0.0482375
0.0466113
0.0458171
0.0451708
0.0444958
0.0438593
0.0432273
0.0426232
0.042057
0.0415843
0.0413491
0.0417455
0.0436342
0.0485392
0.0579543
0.0715292
0.0860711
0.0983864
0.119785
0.0607784
0.0485219
0.0468496
0.0460569
0.045432
0.0447686
0.044152
0.0435308
0.0429381
0.0423663
0.0418533
0.0414605
0.0414191
0.0423143
0.0454243
0.0527092
0.0655073
0.0821985
0.100971
0.12082
0.0614746
0.048803
0.0470853
0.0462917
0.0456907
0.0450363
0.0444355
0.0438221
0.0432408
0.0426722
0.0421445
0.0416848
0.0414207
0.0417407
0.0436333
0.0491027
0.0606669
0.0785259
0.102641
0.121809
0.0621425
0.0490799
0.0473195
0.0465188
0.04594
0.0452911
0.0447073
0.0441029
0.0435288
0.04297
0.04244
0.0419499
0.0415724
0.0415589
0.0426539
0.0466992
0.0568867
0.0752866
0.103851
0.122741
0.0627787
0.0493503
0.0475511
0.0467465
0.046189
0.0455418
0.0449691
0.0443748
0.0438089
0.0432553
0.0427272
0.0422247
0.0417864
0.0415858
0.0421504
0.0451332
0.0539822
0.0724976
0.104778
0.123608
0.0633808
0.0496175
0.0477817
0.0469663
0.0464267
0.0457849
0.0452223
0.0446338
0.0440805
0.0435327
0.0430031
0.0424988
0.0420214
0.0417164
0.0419343
0.0441348
0.051778
0.0701496
0.10552
0.124414
0.0639481
0.0498763
0.0480099
0.0471882
0.0466625
0.046024
0.045471
0.0448852
0.04434
0.0437968
0.0432672
0.0427597
0.0422629
0.0418984
0.0418838
0.0435128
0.0501079
0.0681797
0.106125
0.125167
0.0644862
0.0501355
0.0482347
0.0474036
0.0468918
0.0462545
0.0457099
0.0451277
0.0445915
0.0440488
0.0435212
0.0430164
0.0425016
0.0421047
0.0419328
0.0431455
0.0488483
0.0665288
0.106619
0.125863
0.0649879
0.0503878
0.0484542
0.0476137
0.0471185
0.0464812
0.0459496
0.0453644
0.0448348
0.0442959
0.0437634
0.0432637
0.0427362
0.0423209
0.0420349
0.0429438
0.0478978
0.0651462
0.10703
0.126507
0.0654561
0.0506359
0.0486717
0.0478168
0.0473411
0.0466987
0.0461829
0.0455995
0.0450715
0.0445333
0.0439968
0.0435009
0.042963
0.0425388
0.0421681
0.0428505
0.0471771
0.0639859
0.107379
0.127099
0.0658943
0.050876
0.048893
0.0480233
0.0475649
0.0469194
0.046412
0.0458291
0.0453014
0.044766
0.0442254
0.04373
0.0431837
0.042757
0.0423232
0.0428351
0.046637
0.0630163
0.107693
0.127636
0.0663078
0.0511151
0.0491109
0.0482366
0.0477892
0.0471436
0.0466406
0.0460583
0.0455268
0.0449901
0.0444456
0.0439536
0.0433992
0.0429729
0.042491
0.0428756
0.0462399
0.0622114
0.107987
0.128133
0.0666959
0.0513574
0.0493331
0.0484568
0.0480152
0.0473701
0.0468676
0.0462813
0.0457491
0.0452126
0.044664
0.0441768
0.0436148
0.0431911
0.0426706
0.0429586
0.0459594
0.0615603
0.108265
0.128604
0.0670665
0.0515986
0.0495594
0.0486763
0.0482393
0.0475901
0.0470872
0.0464971
0.045964
0.045431
0.0448817
0.0443997
0.0438313
0.0434115
0.0428607
0.0430742
0.0457741
0.0610511
0.108528
0.129043
0.0674182
0.0518359
0.0497831
0.0488923
0.0484581
0.0478051
0.047301
0.0467109
0.0461764
0.0456474
0.0450998
0.0446229
0.044047
0.0436308
0.043056
0.0432118
0.0456639
0.0606593
0.108771
0.12944
0.0677433
0.05207
0.0500015
0.0491047
0.0486711
0.0480133
0.0475113
0.0469238
0.046392
0.0458671
0.0453199
0.0448473
0.0442636
0.0438502
0.0432539
0.0433648
0.0456123
0.0603589
0.108992
0.129807
0.0680459
0.0522976
0.0502158
0.0493114
0.0488815
0.0482198
0.047723
0.0471392
0.0466112
0.0460891
0.0455397
0.0450691
0.0444787
0.0440674
0.0434528
0.0435281
0.0456035
0.0601261
0.109193
0.130128
0.0683278
0.0525174
0.0504284
0.0495185
0.049092
0.0484314
0.0479412
0.0473612
0.0468346
0.0463139
0.0457588
0.0452877
0.0446906
0.0442802
0.0436515
0.0436975
0.045625
0.0599422
0.109381
0.130418
0.0685951
0.0527346
0.0506399
0.0497289
0.0493076
0.0486505
0.0481651
0.0475869
0.0470596
0.0465385
0.0459758
0.0455045
0.0449003
0.0444898
0.0438501
0.0438712
0.0456718
0.0597996
0.109564
0.130689
0.0688517
0.0529523
0.0508533
0.0499427
0.0495292
0.0488757
0.0483927
0.0478136
0.0472835
0.0467592
0.0461898
0.0457188
0.0451088
0.044699
0.04405
0.0440508
0.0457435
0.0596999
0.10975
0.130943
0.0691005
0.0531716
0.0510713
0.0501614
0.0497551
0.0491039
0.0486195
0.0480387
0.0475039
0.0469765
0.0464031
0.0459323
0.0453187
0.0449107
0.044254
0.044239
0.0458409
0.0596494
0.109943
0.131179
0.0693428
0.0533908
0.0512919
0.0503846
0.0499831
0.0493311
0.0488432
0.0482605
0.0477203
0.0471924
0.0466178
0.0461482
0.0455331
0.0451271
0.0444645
0.0444374
0.0459635
0.0596513
0.11014
0.131404
0.0695832
0.0536129
0.0515152
0.0506101
0.0502095
0.0495549
0.0490641
0.0484792
0.0479359
0.0474097
0.0468354
0.0463684
0.0457528
0.0453488
0.0446816
0.0446441
0.046107
0.0596985
0.11033
0.131619
0.0698235
0.0538399
0.0517422
0.0508382
0.0504338
0.0497769
0.0492834
0.0486973
0.0481544
0.0476308
0.0470574
0.0465928
0.0459762
0.0455739
0.0449023
0.0448545
0.0462639
0.0597733
0.110508
0.131831
0.0700637
0.0540691
0.0519716
0.0510669
0.0506577
0.0499998
0.0495043
0.048919
0.0483776
0.0478561
0.047283
0.0468195
0.0462008
0.0457987
0.0451217
0.0450639
0.0464267
0.0598558
0.110673
0.132042
0.0703059
0.0543011
0.0522015
0.051295
0.0508826
0.0502252
0.0497297
0.0491461
0.0486054
0.0480845
0.0475098
0.047046
0.0464241
0.0460202
0.0453376
0.0452706
0.0465911
0.0599349
0.110834
0.13225
0.0705454
0.0545342
0.0524313
0.0515246
0.0511109
0.0504547
0.0499597
0.0493772
0.0488358
0.048314
0.0477359
0.0472707
0.0466449
0.0462387
0.0455515
0.0454766
0.0467581
0.0600142
0.111003
0.132449
0.0707777
0.0547649
0.052661
0.0517569
0.0513431
0.0506883
0.0501927
0.0496103
0.0490666
0.0485428
0.0479611
0.0474943
0.0468652
0.0464576
0.0457674
0.0456863
0.0469329
0.0601087
0.111185
0.132639
0.0710045
0.0549947
0.0528922
0.0519919
0.0515782
0.0509242
0.050427
0.0498436
0.0492966
0.0487716
0.0481873
0.0477195
0.0470885
0.0466807
0.0459892
0.0459035
0.0471206
0.0602315
0.111378
0.132812
0.0712424
0.0552264
0.0531271
0.0522304
0.0518149
0.0511612
0.0506613
0.0500768
0.0495272
0.0490024
0.0484165
0.0479486
0.0473171
0.0469099
0.0462183
0.046129
0.0473219
0.0603848
0.111574
0.132983
0.0714792
0.0554611
0.0533657
0.0524714
0.0520523
0.0513987
0.0508959
0.0503112
0.0497601
0.049236
0.0486494
0.0481821
0.0475508
0.0471443
0.0464527
0.04636
0.0475326
0.0605587
0.111764
0.133161
0.0717132
0.0556982
0.053606
0.0527129
0.0522899
0.0516366
0.0511313
0.0505478
0.0499957
0.0494721
0.0488851
0.0484181
0.0477869
0.0473805
0.0466884
0.0465919
0.0477464
0.0607384
0.111945
0.133346
0.0719373
0.0559366
0.0538457
0.0529542
0.0525277
0.0518751
0.0513685
0.0507865
0.050233
0.0497093
0.0491213
0.0486539
0.0480223
0.0476154
0.0469221
0.0468212
0.047959
0.0609116
0.112117
0.133534
0.0721432
0.0561768
0.054084
0.0531955
0.0527661
0.0521153
0.0516075
0.0510262
0.0504709
0.0499465
0.0493569
0.0488886
0.0482563
0.0478483
0.0471533
0.0470481
0.0481695
0.061074
0.112286
0.133722
0.0723354
0.056413
0.0543224
0.0534374
0.0530062
0.0523579
0.0518484
0.0512668
0.0507094
0.0501839
0.0495928
0.0491239
0.0484906
0.048081
0.0473846
0.047275
0.0483801
0.0612298
0.112458
0.133905
0.0725211
0.0566487
0.0545627
0.0536819
0.0532496
0.0526033
0.0520913
0.0515092
0.0509498
0.0504238
0.0498322
0.0493629
0.0487283
0.0483171
0.0476193
0.0475051
0.0485945
0.061389
0.112639
0.134081
0.0727111
0.0568875
0.0548066
0.0539305
0.0534966
0.0528513
0.0523372
0.0517551
0.0511944
0.0506691
0.0500777
0.0496077
0.0489718
0.0485589
0.0478595
0.0477404
0.0488157
0.061561
0.11283
0.134256
0.0729115
0.057131
0.055055
0.0541832
0.0537465
0.0531024
0.0525867
0.0520055
0.0514448
0.050921
0.0503294
0.0498585
0.0492216
0.0488065
0.0481051
0.0479812
0.0490448
0.0617495
0.113026
0.134435
0.0731199
0.0573783
0.0553069
0.0544387
0.0539992
0.0533565
0.0528396
0.0522604
0.0517005
0.0511779
0.0505854
0.0501136
0.0494757
0.0490577
0.0483543
0.0482266
0.0492805
0.0619513
0.113225
0.134623
0.0733291
0.057627
0.0555604
0.0546955
0.0542538
0.0536127
0.0530951
0.0525188
0.0519595
0.0514369
0.0508432
0.0503702
0.0497309
0.04931
0.0486056
0.0484749
0.0495201
0.0621596
0.113423
0.134818
0.0735319
0.0578745
0.0558143
0.0549533
0.0545094
0.0538706
0.0533529
0.0527793
0.0522192
0.0516958
0.0511007
0.050626
0.0499852
0.0495622
0.048858
0.0487246
0.0497609
0.0623681
0.113619
0.135014
0.0737249
0.0581205
0.0560685
0.055212
0.0547661
0.0541307
0.053613
0.0530405
0.0524782
0.0519538
0.0513571
0.0508805
0.0502386
0.0498147
0.049111
0.0489746
0.0500017
0.0625738
0.113814
0.135207
0.0739124
0.0583671
0.0563243
0.0554728
0.0550256
0.0543937
0.0538748
0.0533019
0.0527371
0.0522115
0.0516131
0.0511348
0.0504927
0.0500683
0.0493648
0.0492253
0.0502432
0.0627767
0.114009
0.135394
0.074104
0.0586172
0.0565836
0.0557375
0.0552891
0.0546598
0.0541382
0.0535644
0.0529972
0.0524703
0.0518703
0.051391
0.0507491
0.050324
0.0496205
0.049478
0.0504865
0.062979
0.114206
0.13558
0.0743081
0.058873
0.0568482
0.0560077
0.0555572
0.054929
0.0544038
0.0538291
0.0532597
0.0527316
0.0521305
0.0516508
0.0510091
0.0505829
0.0498794
0.0497338
0.050733
0.0631832
0.114406
0.135772
0.0745261
0.0591349
0.0571186
0.056283
0.0558293
0.055201
0.0546721
0.0540967
0.0535253
0.0529967
0.0523951
0.0519153
0.0512736
0.0508461
0.0501423
0.0499934
0.0509831
0.0633913
0.114609
0.135974
0.0747528
0.0594016
0.0573939
0.0565622
0.0561041
0.0554752
0.0549429
0.0543674
0.0537946
0.0532661
0.0526646
0.0521845
0.0515427
0.0511136
0.0504093
0.0502565
0.051237
0.063604
0.114816
0.136188
0.0749794
0.0596703
0.0576717
0.056843
0.0563799
0.0557508
0.055216
0.0546412
0.0540678
0.05354
0.0529385
0.0524579
0.0518157
0.0513847
0.0506796
0.050523
0.0514943
0.0638207
0.115026
0.136409
0.0751975
0.0599384
0.0579496
0.0571235
0.056656
0.056028
0.0554918
0.0549183
0.0543446
0.0538176
0.053216
0.0527345
0.0520917
0.0516587
0.0509529
0.0507927
0.0517551
0.0640414
0.115241
0.136631
0.0754045
0.0602048
0.0582264
0.0574036
0.0569332
0.0563077
0.0557706
0.0551987
0.0546247
0.0540982
0.0534963
0.0530136
0.0523702
0.0519355
0.0512297
0.0510664
0.0520202
0.0642678
0.115464
0.136847
0.0756047
0.0604706
0.058503
0.0576849
0.0572132
0.0565908
0.0560528
0.0554822
0.0549079
0.0543814
0.053779
0.0532953
0.0526518
0.0522162
0.051511
0.0513451
0.0522909
0.0645035
0.115696
0.137056
0.075806
0.0607383
0.0587821
0.0579702
0.0574976
0.0568779
0.0563385
0.0557691
0.055194
0.0546673
0.0540645
0.0535802
0.0529375
0.0525017
0.0517978
0.0516297
0.0525685
0.0647519
0.115935
0.137261
0.0760153