/*--------------------------------*- C++ -*----------------------------------*\
  =========                 |
  \\      /  F ield         | OpenFOAM: The Open Source CFD Toolbox
   \\    /   O peration     | Website:  https://openfoam.org
    \\  /    A nd           | Version:  8
     \\/     M anipulation  |
\*---------------------------------------------------------------------------*/
FoamFile
{
    version     2.0;
    format      ascii;
    class       volScalarField;
    location    "300";
    object      epsilon;
}
// * * * * * * * * * * * * * * * * * * * * * * * * * * * * * * * * * * * * * //

dimensions      [0 2 -3 0 0 0 0];

internalField   nonuniform List<scalar> 
8400
(
3.09188
2.93624
2.78697
2.64418
2.50764
2.3771
2.2527
2.13474
2.02305
1.91738
1.81748
1.72311
1.63401
1.54993
1.47062
1.39584
1.32536
1.25892
1.19632
1.13732
1.08172
1.0293
0.979876
0.933254
0.889258
0.847717
0.808471
0.771367
0.736263
0.703025
0.671529
0.641655
0.613293
0.586515
0.561274
0.537531
0.515207
0.494212
0.474445
0.455803
0.43818
0.421478
0.405608
0.390493
0.376071
0.362297
0.349148
0.336624
0.324747
0.313568
0.118179
0.114355
0.110815
0.107535
0.104495
0.101676
0.0989118
0.0960255
0.0930067
0.0898569
0.0865828
0.0831963
0.0797129
0.0761502
0.0725287
0.068872
0.0652075
0.0615653
0.057977
0.0544751
0.0510919
0.0478592
0.044807
0.0419618
0.0393462
0.0369774
0.0348677
0.0330245
0.0314499
0.0301416
0.0290937
0.0282973
0.0277456
0.0273615
0.027113
0.0269631
0.0268889
0.0268708
0.026895
0.026951
0.0270312
0.02713
0.0272435
0.0273687
0.0275032
0.0276456
0.0277948
0.0279504
0.0281134
0.0282862
0.0282831
0.0277873
0.0273317
0.026915
0.0265342
0.0261863
0.0258682
0.0255495
0.0252193
0.0248752
0.0245172
0.0241458
0.0237623
0.0233685
0.0229671
0.0225615
0.022156
0.0217555
0.0213651
0.0209903
0.0206365
0.0203087
0.0200114
0.0197482
0.0195216
0.0193327
0.0191816
0.0190672
0.0189874
0.0189392
0.0189194
0.0189277
0.0189575
0.0190054
0.0190674
0.0191409
0.0192233
0.0193124
0.0194064
0.0195036
0.0196025
0.019702
0.0198009
0.0198985
0.0199943
0.020088
0.0201798
0.0202701
0.02036
0.0204518
0.0163941
0.0162996
0.0162198
0.0161518
0.0160937
0.016044
0.0160011
0.0159627
0.0159213
0.0158761
0.0158268
0.0157732
0.0157152
0.0156531
0.0155871
0.0155179
0.0154462
0.0153731
0.0152997
0.0152272
0.015157
0.0150903
0.0150285
0.0149726
0.0149236
0.0148823
0.0148491
0.0148246
0.0148088
0.0148032
0.0148108
0.0148295
0.0148592
0.0148985
0.0149464
0.0150016
0.015063
0.0151292
0.0151992
0.0152718
0.0153458
0.0154205
0.0154949
0.0155687
0.0156414
0.0157128
0.0157831
0.0158526
0.0159222
0.0159937
0.0126425
0.0126415
0.0126448
0.0126513
0.01266
0.0126698
0.0126796
0.0126887
0.0126934
0.0126934
0.0126885
0.0126782
0.0126622
0.0126404
0.0126126
0.0125789
0.0125394
0.0124945
0.0124449
0.0123911
0.0123342
0.0122753
0.0122158
0.012157
0.0121005
0.0120477
0.0120001
0.0119601
0.0119323
0.0119179
0.0119161
0.0119261
0.0119468
0.011977
0.0120153
0.0120605
0.0121114
0.0121667
0.0122252
0.012286
0.0123482
0.012411
0.0124739
0.0125364
0.0125982
0.0126591
0.0127193
0.0127789
0.0128387
0.0128996
0.0105484
0.0105776
0.0106086
0.0106391
0.0106678
0.0106938
0.0107163
0.0107345
0.0107475
0.010753
0.0107514
0.0107426
0.0107264
0.0107023
0.0106705
0.0106309
0.0105839
0.0105298
0.0104696
0.0104041
0.0103348
0.0102633
0.0101915
0.0101213
0.0100548
0.00999501
0.00994772
0.00991525
0.00989677
0.00989212
0.00990014
0.00991961
0.00994902
0.00998693
0.0100319
0.0100827
0.010138
0.0101966
0.0102574
0.0103198
0.0103829
0.0104462
0.0105092
0.0105716
0.0106331
0.0106935
0.0107531
0.0108118
0.0108702
0.0109287
0.00907302
0.0091198
0.00916512
0.009207
0.00924406
0.00927531
0.00930003
0.00931772
0.00932803
0.00932841
0.00931958
0.0093016
0.0092742
0.00923726
0.00919075
0.00913495
0.00907035
0.00899774
0.00891829
0.00883361
0.00874571
0.00865699
0.00857014
0.00849085
0.00842558
0.00837806
0.00834755
0.0083342
0.00833674
0.00835389
0.00838384
0.00842483
0.00847505
0.00853285
0.00859666
0.00866502
0.00873658
0.00881022
0.008885
0.00896021
0.0090352
0.00910941
0.0091824
0.0092539
0.00932371
0.00939169
0.00945786
0.00952244
0.00958561
0.0096477
0.00785865
0.00789567
0.00793716
0.00797826
0.00801532
0.0080458
0.00806802
0.00808098
0.00808412
0.00807721
0.00805651
0.00802374
0.00797928
0.00792332
0.00785627
0.00777886
0.00769228
0.00759823
0.00749909
0.00739795
0.00729873
0.00720946
0.00713616
0.00708094
0.00704347
0.0070237
0.00702051
0.00703276
0.00705897
0.00709767
0.00714735
0.00720664
0.00727425
0.00734891
0.00742936
0.00751434
0.00760271
0.00769348
0.00778572
0.0078786
0.00797126
0.00806289
0.00815284
0.00824059
0.00832574
0.00840801
0.00848704
0.00856304
0.00863608
0.00870639
0.0071194
0.00702517
0.00696284
0.00692769
0.00691125
0.00690582
0.00690491
0.00690363
0.00689836
0.0068868
0.00686711
0.00683499
0.00679179
0.00673898
0.00667852
0.00661308
0.00654618
0.00648212
0.00642504
0.00637883
0.00634657
0.00632455
0.00631228
0.00630794
0.00631029
0.00631823
0.00633095
0.0063478
0.0063684
0.00639257
0.00642042
0.00645227
0.00648853
0.00652956
0.0065757
0.00662726
0.00668447
0.00674746
0.00681611
0.00689006
0.00696869
0.00705122
0.00713677
0.00722437
0.00731287
0.00740114
0.00748799
0.00757246
0.00765384
0.00773144
0.00822268
0.00775504
0.00735145
0.00702328
0.00676219
0.00656034
0.00641143
0.00630973
0.00624957
0.00622503
0.00623042
0.00626043
0.00630773
0.00636785
0.00643809
0.00651665
0.00660114
0.00668795
0.00677391
0.00685671
0.00693459
0.00700631
0.00707121
0.00712869
0.00717794
0.00721782
0.00724694
0.00726404
0.00726819
0.00725917
0.00723743
0.00720388
0.00715974
0.00710659
0.0070463
0.00698103
0.00691293
0.00684414
0.0067767
0.00671233
0.00665249
0.00659871
0.00655249
0.00651485
0.00648683
0.00646882
0.0064613
0.0064635
0.00647447
0.00649241
0.0117931
0.0113227
0.0108956
0.0104938
0.0101136
0.00975515
0.0094228
0.00912312
0.00886344
0.00865018
0.00848711
0.00837719
0.00831943
0.00831094
0.0083463
0.00841812
0.00851779
0.00863586
0.00876383
0.00889441
0.00902171
0.00914099
0.00924838
0.00934151
0.00941909
0.00948013
0.00952421
0.00955157
0.00956326
0.00956069
0.0095446
0.00951485
0.00947145
0.00941524
0.00934721
0.00926761
0.00917576
0.00907089
0.00895302
0.00882132
0.00867385
0.00850869
0.00832444
0.00812076
0.00789743
0.0076556
0.00739953
0.00713669
0.00687983
0.00664897
0.0130598
0.0129334
0.012819
0.0127116
0.0126078
0.0125053
0.0124041
0.0123026
0.0122019
0.0121018
0.012002
0.0119033
0.0118061
0.0117119
0.0116214
0.0115343
0.011451
0.0113719
0.011298
0.0112298
0.0111674
0.0111107
0.0110594
0.0110133
0.0109724
0.0109365
0.0109045
0.0108759
0.0108503
0.0108275
0.0108066
0.010786
0.010764
0.0107406
0.0107166
0.0106915
0.0106646
0.010635
0.0106027
0.0105684
0.0105303
0.0104892
0.0104424
0.0103896
0.0103308
0.0102653
0.0101904
0.0101003
0.00998595
0.0098416
0.0131244
0.013074
0.013024
0.0129745
0.0129254
0.0128762
0.0128272
0.0127781
0.0127289
0.0126798
0.0126307
0.0125817
0.0125328
0.0124841
0.0124359
0.0123881
0.0123409
0.0122943
0.0122485
0.0122034
0.0121592
0.0121159
0.0120734
0.0120319
0.0119914
0.0119519
0.0119132
0.0118754
0.0118384
0.0118023
0.0117667
0.0117313
0.011696
0.0116609
0.0116263
0.0115917
0.0115569
0.0115217
0.0114862
0.0114504
0.0114135
0.0113754
0.0113359
0.0112944
0.0112509
0.0112045
0.0111542
0.0110984
0.0110366
0.0109735
0.0131418
0.0131114
0.0130811
0.0130509
0.0130206
0.0129902
0.0129595
0.0129288
0.012898
0.0128671
0.0128362
0.0128051
0.012774
0.0127428
0.0127117
0.0126808
0.01265
0.0126194
0.0125889
0.0125585
0.0125283
0.0124984
0.0124686
0.012439
0.0124096
0.0123805
0.0123515
0.0123227
0.0122941
0.0122657
0.0122373
0.0122088
0.0121803
0.0121519
0.0121235
0.0120951
0.0120664
0.0120375
0.0120084
0.011979
0.0119492
0.0119186
0.0118874
0.0118553
0.0118222
0.0117877
0.0117516
0.0117143
0.0116767
0.0116356
0.0131507
0.0131297
0.0131086
0.0130874
0.0130659
0.0130444
0.0130226
0.0130008
0.0129788
0.0129568
0.0129345
0.0129122
0.0128897
0.0128672
0.0128447
0.0128222
0.0127997
0.0127771
0.0127545
0.0127319
0.0127094
0.0126869
0.0126643
0.0126419
0.0126194
0.012597
0.0125746
0.0125522
0.0125299
0.0125075
0.0124851
0.0124626
0.0124401
0.0124176
0.012395
0.0123723
0.0123494
0.0123264
0.0123032
0.0122798
0.0122561
0.0122319
0.0122073
0.0121822
0.0121566
0.0121305
0.0121043
0.0120773
0.0120488
0.0120186
0.0131542
0.0131372
0.0131203
0.0131032
0.0130861
0.0130689
0.0130515
0.0130342
0.0130167
0.0129991
0.0129814
0.0129637
0.0129459
0.0129282
0.0129105
0.0128928
0.0128751
0.0128575
0.0128399
0.0128223
0.0128048
0.0127873
0.0127698
0.0127524
0.012735
0.0127176
0.0127002
0.0126828
0.0126654
0.0126479
0.0126304
0.0126129
0.0125953
0.0125776
0.0125598
0.0125419
0.0125238
0.0125055
0.0124871
0.0124684
0.0124494
0.0124302
0.0124108
0.0123912
0.0123716
0.0123516
0.0123311
0.01231
0.012288
0.012265
0.0131588
0.0131465
0.0131342
0.0131217
0.0131092
0.0130967
0.013084
0.0130714
0.0130586
0.0130459
0.013033
0.0130201
0.0130072
0.0129942
0.0129811
0.0129681
0.012955
0.0129418
0.0129286
0.0129153
0.012902
0.0128887
0.0128753
0.0128619
0.0128485
0.012835
0.0128214
0.0128078
0.0127942
0.0127805
0.0127668
0.0127531
0.0127393
0.0127254
0.0127115
0.0126975
0.0126835
0.0126695
0.0126554
0.0126412
0.012627
0.0126128
0.0125986
0.0125841
0.0125693
0.0125542
0.0125387
0.0125228
0.0125062
0.0124888
0.0131585
0.0131461
0.0131335
0.013121
0.0131083
0.0130956
0.0130829
0.0130701
0.0130573
0.0130445
0.0130316
0.0130187
0.0130057
0.0129927
0.0129797
0.0129667
0.0129536
0.0129405
0.0129274
0.0129143
0.0129012
0.012888
0.0128749
0.0128617
0.0128485
0.0128352
0.012822
0.0128087
0.0127954
0.0127821
0.0127688
0.0127555
0.0127421
0.0127286
0.0127152
0.0127017
0.0126883
0.0126748
0.0126613
0.0126477
0.0126342
0.0126206
0.0126071
0.0125935
0.0125798
0.0125662
0.0125526
0.0125388
0.012525
0.0125111
0.0131631
0.0131566
0.013149
0.0131414
0.0131338
0.0131262
0.0131185
0.0131108
0.0131031
0.0130953
0.0130876
0.0130799
0.0130721
0.0130644
0.0130568
0.0130492
0.0130417
0.0130341
0.0130267
0.0130193
0.0130119
0.0130046
0.0129973
0.0129901
0.0129829
0.0129757
0.0129686
0.0129616
0.0129546
0.0129476
0.0129407
0.0129338
0.0129269
0.01292
0.0129132
0.0129064
0.0128996
0.0128927
0.0128859
0.0128791
0.0128722
0.0128654
0.0128584
0.0128514
0.0128442
0.0128368
0.0128292
0.0128214
0.0128131
0.0128042
0.0136707
0.0142108
0.0147699
0.0153393
0.0159135
0.0164888
0.0170655
0.0176467
0.0182372
0.0188423
0.0194669
0.0201154
0.0207915
0.0214976
0.0222355
0.0230061
0.0238097
0.0246463
0.0255153
0.026416
0.0273474
0.0283083
0.0292976
0.0303143
0.0313577
0.0324271
0.0335222
0.0346424
0.0357873
0.0369561
0.0381481
0.039362
0.0405966
0.0418505
0.0431216
0.0444079
0.0457064
0.0470143
0.0483277
0.0496427
0.0509536
0.0522544
0.0535369
0.0547916
0.0560065
0.0571669
0.0582544
0.0592464
0.0601163
0.0608505
1.14672
1.10485
1.06572
1.02906
0.994579
0.961979
0.931001
0.901517
0.873424
0.84663
0.821058
0.796636
0.773303
0.750999
0.729673
0.709274
0.689758
0.671082
0.653202
0.636079
0.619671
0.603938
0.58884
0.57434
0.560405
0.547007
0.534121
0.521725
0.509801
0.498332
0.487302
0.476694
0.466489
0.45667
0.447217
0.438111
0.429334
0.420871
0.412708
0.404801
0.397122
0.389654
0.382385
0.375295
0.368365
0.361568
0.354865
0.348196
0.341451
0.33443
1.12225
1.0469
0.978186
0.915323
0.85779
0.805094
0.756807
0.712466
0.671665
0.63405
0.59931
0.567173
0.537397
0.50977
0.484102
0.460225
0.437985
0.417244
0.397876
0.379762
0.362795
0.346877
0.33192
0.317846
0.304588
0.292087
0.280291
0.269154
0.258635
0.248693
0.239291
0.230391
0.221955
0.213949
0.206337
0.199087
0.19217
0.185561
0.179237
0.173202
0.167451
0.161967
0.156735
0.15174
0.146968
0.142405
0.138036
0.133848
0.129821
0.125936
1.12215
1.04656
0.977404
0.914165
0.856251
0.803134
0.754331
0.709407
0.66798
0.629712
0.594306
0.561501
0.531063
0.502785
0.476483
0.45199
0.429158
0.407849
0.387938
0.369311
0.351862
0.335494
0.32012
0.305664
0.292057
0.279239
0.267156
0.25576
0.245007
0.234855
0.225264
0.216199
0.207622
0.199499
0.1918
0.184496
0.177561
0.170971
0.164705
0.158745
0.153073
0.147674
0.142534
0.137638
0.132975
0.128533
0.1243
0.120265
0.116417
0.112747
1.12215
1.0471
0.978539
0.915813
0.858312
0.805497
0.756894
0.712087
0.670711
0.632445
0.597003
0.564132
0.533609
0.505231
0.478817
0.454206
0.43125
0.409814
0.389776
0.371021
0.353446
0.336956
0.321465
0.306897
0.293185
0.280266
0.268089
0.256604
0.245767
0.235535
0.22587
0.216733
0.208089
0.199903
0.192144
0.184784
0.177794
0.171153
0.164839
0.158833
0.153118
0.147678
0.142499
0.137567
0.13287
0.128395
0.124131
0.120067
0.11619
0.112492
1.12215
1.04713
0.978541
0.915738
0.85814
0.805225
0.756534
0.711659
0.670236
0.631945
0.596497
0.563636
0.533133
0.504783
0.478403
0.453827
0.430907
0.409506
0.389501
0.370778
0.353234
0.336773
0.321311
0.306771
0.293087
0.280197
0.268046
0.256587
0.245773
0.235563
0.225916
0.216796
0.208165
0.199992
0.192243
0.184891
0.177908
0.171273
0.164963
0.15896
0.153246
0.147807
0.142628
0.137695
0.132995
0.128516
0.124246
0.120174
0.116287
0.112577
1.12216
1.04719
0.97868
0.915971
0.85847
0.805652
0.75705
0.712256
0.670904
0.632671
0.597272
0.564449
0.533973
0.50564
0.479268
0.45469
0.43176
0.410342
0.390315
0.371565
0.353993
0.337503
0.322013
0.307447
0.293737
0.280824
0.268651
0.25717
0.246335
0.236103
0.226434
0.217292
0.208639
0.200443
0.192672
0.185297
0.178292
0.171634
0.165302
0.159278
0.153543
0.148083
0.142883
0.137929
0.133208
0.128708
0.124416
0.120321
0.116411
0.112675
1.12216
1.04721
0.978728
0.916023
0.85851
0.805668
0.757037
0.712211
0.670829
0.632572
0.597152
0.564315
0.533828
0.505488
0.479108
0.454524
0.431587
0.410163
0.39013
0.371377
0.353801
0.337312
0.321826
0.307266
0.293566
0.280663
0.268503
0.257034
0.246211
0.23599
0.226331
0.217197
0.208551
0.200362
0.192596
0.185225
0.178224
0.171569
0.16524
0.159217
0.153483
0.148023
0.142823
0.137868
0.133146
0.128643
0.124347
0.120246
0.116329
0.112585
1.12217
1.04724
0.978772
0.916078
0.858574
0.80574
0.75712
0.712309
0.670947
0.632714
0.597321
0.56451
0.534048
0.505728
0.479363
0.454789
0.431857
0.410432
0.390396
0.371637
0.354055
0.33756
0.322068
0.307505
0.293803
0.280898
0.268736
0.257265
0.246438
0.236212
0.226547
0.217405
0.20875
0.20055
0.192774
0.185392
0.178379
0.171712
0.16537
0.159335
0.153588
0.148116
0.142902
0.137934
0.133198
0.12868
0.124369
0.120251
0.116317
0.112555
1.12218
1.04727
0.978808
0.916114
0.858602
0.805758
0.757128
0.712308
0.670941
0.632705
0.597311
0.5645
0.534037
0.505714
0.479343
0.454761
0.431817
0.410381
0.390332
0.371562
0.353972
0.337471
0.321977
0.307415
0.293715
0.280816
0.26866
0.257194
0.246372
0.23615
0.226487
0.217347
0.208693
0.200492
0.192715
0.185332
0.178318
0.171649
0.165305
0.159267
0.153518
0.148042
0.142826
0.137854
0.133113
0.12859
0.124272
0.120147
0.116204
0.112433
1.12218
1.0473
0.978841
0.916143
0.858624
0.805771
0.757135
0.712314
0.67095
0.632722
0.597339
0.564539
0.534086
0.50577
0.479403
0.454821
0.431875
0.410434
0.390379
0.371604
0.35401
0.337507
0.322014
0.307455
0.29376
0.280866
0.268714
0.257252
0.246432
0.23621
0.226546
0.217402
0.208743
0.200538
0.192755
0.185366
0.178346
0.171671
0.165321
0.159276
0.15352
0.148037
0.142813
0.137832
0.133083
0.12855
0.124221
0.120084
0.116129
0.112344
1.12219
1.04732
0.978869
0.916165
0.858636
0.805774
0.75713
0.712305
0.670942
0.632718
0.59734
0.564546
0.534097
0.505782
0.479414
0.454826
0.431873
0.410424
0.390361
0.371579
0.353981
0.337477
0.321986
0.30743
0.29374
0.280852
0.268706
0.257248
0.246431
0.236209
0.226543
0.217396
0.208734
0.200525
0.192738
0.185345
0.178322
0.171643
0.165288
0.159239
0.153478
0.14799
0.142759
0.137772
0.133015
0.128474
0.124136
0.11999
0.116023
0.112227
1.1222
1.04734
0.97889
0.916179
0.858638
0.805765
0.757112
0.712282
0.670917
0.632692
0.597315
0.56452
0.534069
0.505749
0.479373
0.454776
0.431812
0.410352
0.39028
0.371491
0.353888
0.337384
0.321894
0.307344
0.29366
0.280779
0.268639
0.257186
0.246371
0.23615
0.226483
0.217334
0.208671
0.200459
0.192671
0.185278
0.178253
0.171574
0.165218
0.159167
0.153404
0.147913
0.142679
0.137687
0.132925
0.128378
0.124033
0.119878
0.115903
0.112097
1.12221
1.04736
0.978903
0.916182
0.858631
0.80575
0.757094
0.712266
0.670908
0.632693
0.597326
0.564541
0.534098
0.505783
0.47941
0.454813
0.431847
0.410385
0.390311
0.371521
0.353919
0.337418
0.321934
0.307389
0.293713
0.280837
0.2687
0.257248
0.246431
0.236206
0.226533
0.217378
0.208708
0.200491
0.192697
0.185298
0.178269
0.171584
0.165222
0.159164
0.153394
0.147894
0.142651
0.13765
0.132877
0.128319
0.123963
0.119795
0.115807
0.111987
1.12221
1.04736
0.978898
0.916158
0.858585
0.805682
0.757004
0.712155
0.670776
0.632542
0.597157
0.564354
0.533892
0.505559
0.479168
0.454555
0.431574
0.4101
0.390018
0.371224
0.353624
0.337127
0.321651
0.307117
0.293452
0.280587
0.26846
0.257015
0.246204
0.235984
0.226315
0.217165
0.208499
0.200288
0.1925
0.185108
0.178084
0.171405
0.165048
0.158995
0.153227
0.14773
0.142488
0.137487
0.132713
0.128153
0.123794
0.119623
0.11563
0.111804
1.12222
1.04736
0.978881
0.916131
0.858559
0.805668
0.757011
0.712189
0.67084
0.632634
0.597275
0.564492
0.534045
0.505722
0.479336
0.454723
0.431741
0.410263
0.390177
0.37138
0.353776
0.337278
0.321801
0.307266
0.293597
0.280727
0.268593
0.257139
0.246316
0.236084
0.226403
0.21724
0.208564
0.200342
0.192545
0.185144
0.178112
0.171423
0.165057
0.158993
0.153215
0.147706
0.142452
0.137439
0.132653
0.12808
0.123706
0.119521
0.115513
0.111671
1.12222
1.04732
0.978763
0.915916
0.85824
0.805245
0.756492
0.711586
0.670166
0.631903
0.596498
0.563681
0.53321
0.50487
0.478475
0.453861
0.430884
0.409417
0.389347
0.370572
0.352995
0.336526
0.321079
0.306574
0.292935
0.280093
0.267984
0.256554
0.245754
0.235542
0.225882
0.21674
0.208084
0.199883
0.192105
0.184723
0.177708
0.171035
0.164684
0.158634
0.152867
0.14737
0.142125
0.137121
0.132341
0.127774
0.123406
0.119225
0.11522
0.11138
1.12222
1.04731
0.978777
0.916004
0.858423
0.805523
0.756854
0.712014
0.670639
0.632401
0.597002
0.564176
0.533685
0.505316
0.478886
0.454233
0.431216
0.40971
0.389604
0.370794
0.353184
0.336685
0.32121
0.306677
0.293012
0.280142
0.268008
0.256552
0.245728
0.235495
0.225816
0.216658
0.207987
0.199773
0.191984
0.184591
0.177567
0.170887
0.164529
0.158472
0.152701
0.147199
0.141952
0.136945
0.132166
0.1276
0.123237
0.119063
0.115069
0.111248
1.12222
1.04677
0.977653
0.914367
0.856369
0.803163
0.754291
0.709331
0.667903
0.629663
0.5943
0.561538
0.531131
0.502861
0.476541
0.452007
0.429114
0.407735
0.387757
0.369076
0.351594
0.335219
0.319864
0.305447
0.291892
0.279128
0.267095
0.255737
0.245008
0.234867
0.225277
0.216205
0.20762
0.199488
0.19178
0.184467
0.177522
0.170921
0.164641
0.158665
0.152975
0.147559
0.142401
0.13749
0.132814
0.128363
0.124128
0.120104
0.116288
0.112687
1.12232
1.04712
0.978441
0.915529
0.857908
0.805117
0.756755
0.712374
0.671571
0.633986
0.599295
0.567211
0.537476
0.509868
0.484192
0.460279
0.437981
0.417172
0.397736
0.379569
0.362575
0.346663
0.331746
0.317744
0.304579
0.292182
0.28049
0.269451
0.259019
0.249154
0.239822
0.230994
0.222638
0.214726
0.20723
0.200123
0.193378
0.186974
0.180892
0.175115
0.169632
0.164431
0.159504
0.154847
0.150454
0.146326
0.142467
0.138895
0.135647
0.132814
1.14677
1.10498
1.06586
1.02918
0.994645
0.961991
0.930966
0.901453
0.873349
0.846559
0.820998
0.796588
0.773257
0.750945
0.729597
0.709167
0.689613
0.670898
0.652984
0.635834
0.619409
0.60367
0.588576
0.574088
0.560167
0.546781
0.5339
0.5215
0.509559
0.49806
0.486985
0.476316
0.466033
0.456117
0.446545
0.437299
0.428359
0.419709
0.411333
0.403219
0.395355
0.387729
0.380329
0.373142
0.366154
0.359349
0.35271
0.34622
0.339857
0.333595
0.09713
0.0125896
0.00635511
0.0057088
0.00541649
0.00519795
0.00496963
0.0047637
0.00456299
0.00437928
0.00421203
0.00407879
0.00402112
0.00414017
0.00466938
0.00610955
0.00951857
0.0169084
0.0311193
0.0553469
0.0996144
0.0130216
0.00646451
0.0057944
0.00549894
0.00528588
0.00505807
0.00485496
0.00465459
0.00447089
0.00429793
0.0041463
0.00403719
0.00402826
0.00427403
0.0051359
0.00750223
0.0134989
0.0276237
0.0596293
0.102028
0.0134478
0.00657424
0.00588037
0.00558037
0.00537282
0.00514487
0.00494425
0.00474419
0.00456099
0.004386
0.00422613
0.00409241
0.00401588
0.00410057
0.00460425
0.00625674
0.0110771
0.0245301
0.0625009
0.104353
0.0138655
0.00668347
0.00596647
0.00566119
0.00545878
0.00523032
0.00503204
0.00483185
0.0046492
0.00447305
0.00430907
0.00416352
0.00405068
0.00404373
0.00432379
0.00549159
0.00937939
0.0219695
0.0645692
0.106577
0.0142724
0.00679248
0.00605269
0.00574181
0.00554416
0.00531449
0.00511873
0.00491789
0.00473545
0.00455851
0.00439192
0.00424028
0.00410719
0.00404759
0.00418449
0.00502103
0.00818501
0.0198943
0.0661569
0.108695
0.0146666
0.0069013
0.00613896
0.00582229
0.00562929
0.00539787
0.00520419
0.00500228
0.00481971
0.00464168
0.0044731
0.00431844
0.0041729
0.00408302
0.00412593
0.00473254
0.00733845
0.0182277
0.0674257
0.110704
0.015046
0.00700985
0.00622566
0.00590213
0.00571366
0.00548014
0.00528836
0.00508484
0.00490208
0.00472291
0.00455248
0.00439599
0.00424212
0.00413437
0.00411379
0.00455902
0.00673212
0.0168925
0.0684713
0.112599
0.0154093
0.00711713
0.00631261
0.00598234
0.00579784
0.00556171
0.00537152
0.00516625
0.00498269
0.0048025
0.00463016
0.00447274
0.00431233
0.00419412
0.0041286
0.00445884
0.00629453
0.0158239
0.0693635
0.114369
0.0157554
0.00722354
0.00639931
0.0060623
0.00588153
0.00564251
0.00545372
0.00524677
0.00506235
0.00488135
0.00470651
0.00454861
0.00438245
0.00425792
0.00415998
0.00440693
0.00597746
0.0149685
0.0701441
0.116006
0.0160818
0.00732844
0.00648629
0.00614273
0.00596541
0.00572345
0.0055357
0.00532677
0.00514132
0.00495943
0.00478208
0.0046234
0.00445219
0.00432398
0.00420177
0.00438763
0.0057483
0.0142855
0.0708366
0.117522
0.0163913
0.00743258
0.00657366
0.00622392
0.00604905
0.00580437
0.00561706
0.00540645
0.00521988
0.00503667
0.00485699
0.00469773
0.0045216
0.00439114
0.0042502
0.00439071
0.00558366
0.0137414
0.07146
0.118913
0.0166841
0.00753581
0.0066615
0.00630597
0.00613316
0.00588567
0.00569826
0.00548566
0.00529797
0.00511384
0.00493136
0.00477149
0.00459065
0.00445885
0.00430301
0.00440933
0.00546699
0.0133069
0.0720228
0.120198
0.0169621
0.00763874
0.00674977
0.00638812
0.00621719
0.00596652
0.00577903
0.00556466
0.0053756
0.00519018
0.00500497
0.00484478
0.0046593
0.0045265
0.00435861
0.00443884
0.00538679
0.012961
0.0725324
0.121383
0.0172252
0.00774115
0.00683827
0.00647052
0.0063013
0.00604728
0.00585976
0.00564326
0.00545315
0.00526659
0.0050783
0.00491769
0.00472774
0.00459428
0.00441631
0.00447628
0.00533458
0.0126877
0.0730046
0.122478
0.0174763
0.00784352
0.00692718
0.00655366
0.00638546
0.0061281
0.00594055
0.00572247
0.00553064
0.00534289
0.00515142
0.00499012
0.00479603
0.00466219
0.00447571
0.00451983
0.00530422
0.0124729
0.0734496
0.123483
0.0177156
0.0079457
0.00701653
0.00663817
0.00647028
0.0062107
0.00602228
0.00580237
0.00560878
0.00541944
0.00522486
0.00506272
0.00486481
0.00473054
0.00453668
0.00456831
0.00529161
0.0123069
0.0738712
0.124418
0.0179462
0.00804828
0.0071073
0.00672433
0.00655638
0.00629425
0.00610514
0.00588305
0.00568733
0.00549648
0.00529887
0.0051359
0.00493454
0.00479979
0.00459927
0.00462069
0.00529335
0.0121825
0.0742753
0.125293
0.0181692
0.00815114
0.00719955
0.00681165
0.00664401
0.00637937
0.00618888
0.00596464
0.00576637
0.00557406
0.00537353
0.00520968
0.00500497
0.00486972
0.00466318
0.00467604
0.00530645
0.0120925
0.0746664
0.126111
0.0183845
0.00825474
0.00729284
0.00690096
0.00673271
0.00646557
0.00627341
0.0060468
0.00584613
0.00565235
0.00544918
0.00528439
0.00507615
0.00494013
0.00472808
0.00473381
0.00532902
0.0120315
0.0750471
0.126882
0.0185927
0.00835958
0.00738702
0.00699148
0.0068225
0.00655248
0.00635842
0.00612947
0.0059266
0.0057312
0.00552553
0.00535974
0.00514802
0.00501103
0.00479385
0.00479374
0.00535972
0.0119957
0.0754192
0.1276
0.0187946
0.00846448
0.00748239
0.00708308
0.00691299
0.00664016
0.00644409
0.00621317
0.0060081
0.00581096
0.00560261
0.00543554
0.00522045
0.00508245
0.00486064
0.00485571
0.0053974
0.0119817
0.0757828
0.12827
0.0189927
0.00857023
0.00757918
0.0071761
0.00700449
0.00672887
0.00653083
0.00629801
0.00609074
0.00589195
0.0056807
0.00551215
0.00529375
0.00515465
0.00492868
0.00491965
0.00544103
0.011986
0.0761371
0.12891
0.0191878
0.00867733
0.00767719
0.00727057
0.00709723
0.00681902
0.00661916
0.00638425
0.00617467
0.00597412
0.00575983
0.00558979
0.00536825
0.00522795
0.00499809
0.00498534
0.00548963
0.0120046
0.0764836
0.129528
0.0193809
0.00878611
0.00777649
0.00736645
0.00719117
0.00691075
0.00670908
0.00647206
0.00626002
0.00605756
0.00584018
0.00566858
0.00544405
0.00530246
0.00506879
0.00505255
0.00554231
0.0120346
0.0768267
0.130123
0.0195716
0.00889562
0.00787698
0.00746377
0.00728665
0.00700412
0.00680039
0.00656127
0.00634656
0.00614216
0.00592187
0.0057486
0.00552112
0.00537812
0.00514069
0.00512119
0.0055986
0.0120746
0.0771725
0.13069
0.0197595
0.00900545
0.00797837
0.00756234
0.00738359
0.007099
0.00689295
0.00665169
0.00643412
0.0062278
0.00600478
0.00582981
0.00559946
0.00545492
0.00521384
0.00519145
0.00565844
0.0121246
0.0775258
0.13123
0.0199451
0.00911639
0.00808113
0.00766253
0.00748194
0.00719519
0.00698657
0.00674315
0.00652274
0.00631456
0.00608892
0.00591227
0.00567911
0.00553297
0.00528848
0.0052636
0.00572199
0.0121857
0.0778869
0.131743
0.0201299
0.00922884
0.00818579
0.00776481
0.00758195
0.00729284
0.00708139
0.00683577
0.00661271
0.00640267
0.00617446
0.00599615
0.00576024
0.00561248
0.00536481
0.00533779
0.00578922
0.012258
0.0782524
0.132246
0.0203169
0.0093435
0.00829261
0.00786918
0.00768364
0.00739214
0.00717783
0.00693005
0.0067044
0.00649244
0.00626167
0.00608166
0.00584299
0.00569359
0.00544289
0.0054139
0.00585981
0.0123399
0.0786173
0.13275
0.0205084
0.00946101
0.00840182
0.00797567
0.00778716
0.00749334
0.00727629
0.00702641
0.00679812
0.00658411
0.00635072
0.00616883
0.00592734
0.00577628
0.00552257
0.00549163
0.00593316
0.0124285
0.0789794
0.133258
0.0207035
0.0095809
0.00851311
0.00808426
0.00789283
0.00759671
0.00737699
0.00712499
0.0068939
0.00667772
0.00644151
0.00625755
0.00601324
0.00586046
0.00560367
0.00557075
0.00600872
0.0125212
0.0793407
0.133786
0.0208926
0.00970244
0.00862607
0.00819479
0.00800063
0.0077023
0.00747989
0.00722561
0.00699154
0.00677307
0.00653389
0.00634779
0.0061007
0.00594607
0.00568615
0.00565125
0.00608621
0.0126169
0.0797052
0.134325
0.0210739
0.00982542
0.00874075
0.00830721
0.00811045
0.00780998
0.00758466
0.00732793
0.00709081
0.00687
0.00662786
0.00643968
0.0061898
0.00603319
0.00577016
0.00573326
0.00616571
0.0127158
0.0800762
0.134861
0.02125
0.00995007
0.00885744
0.00842167
0.00822225
0.00791954
0.007691
0.00743174
0.00719161
0.00696854
0.00672357
0.00653336
0.00628066
0.00612198
0.00585585
0.00581699
0.00624741
0.0128189
0.0804549
0.135393
0.0214261
0.0100768
0.00897644
0.0085383
0.00833593
0.00803075
0.00779881
0.00753714
0.00729409
0.00706887
0.00682118
0.00662892
0.00637334
0.0062125
0.00594329
0.00590252
0.00633142
0.0129266
0.0808405
0.135927
0.0216065
0.0102055
0.00909789
0.00865714
0.00845137
0.00814356
0.00790833
0.00764439
0.00739848
0.00717116
0.00692074
0.0067263
0.00646781
0.00630472
0.00603242
0.00598984
0.00641768
0.0130389
0.0812317
0.136476
0.021791
0.0103364
0.00922157
0.00877811
0.00856862
0.00825822
0.00801987
0.00775376
0.00750496
0.00727544
0.00702214
0.00682535
0.00656391
0.00639855
0.0061232
0.00607891
0.00650611
0.0131552
0.0816271
0.137047
0.021976
0.0104689
0.0093472
0.00890108
0.00868784
0.00837505
0.00813367
0.00786536
0.00761353
0.00738163
0.00712525
0.00692599
0.00666159
0.006494
0.00621568
0.00616977
0.00659664
0.0132747
0.0820268
0.137637
0.0221574
0.0106025
0.00947453
0.009026
0.00880925
0.00849429
0.00824982
0.00797916
0.00772413
0.00748963
0.00723007
0.0070283
0.006761
0.00659124
0.00631004
0.00626252
0.00668929
0.0133973
0.0824317
0.138234
0.0223341
0.0107371
0.00960358
0.00915298
0.00893305
0.00861602
0.00836828
0.00809509
0.00783669
0.0075995
0.0073368
0.00713259
0.00686243
0.00669056
0.00640649
0.00635727
0.00678409
0.013523
0.0828426
0.138827
0.0225079
0.0108733
0.00973465
0.00928235
0.00905935
0.00874016
0.00848899
0.00821315
0.00795132
0.00771148
0.00744575
0.00723918
0.00696619
0.00679216
0.00650513
0.00645408
0.00688117
0.0136522
0.0832599
0.139412
0.0226833
0.0110118
0.00986821
0.00941437
0.00918815
0.00886667
0.00861197
0.00833342
0.00806821
0.00782586
0.00755718
0.00734826
0.00707243
0.0068961
0.00660593
0.00655297
0.00698058
0.013785
0.0836838
0.139992
0.0228641
0.0111532
0.0100047
0.00954916
0.00931945
0.00899555
0.00873724
0.00845605
0.0081876
0.00794279
0.00767117
0.00745987
0.00718112
0.00700228
0.00670886
0.00665398
0.00708236
0.0139215
0.0841142
0.140578
0.0230516
0.011298
0.0101442
0.00968672
0.00945328
0.00912683
0.0088649
0.0085812
0.00830958
0.00806231
0.00778768
0.00757393
0.00729211
0.0071106
0.00681392
0.00675713
0.00718648
0.0140614
0.0845512
0.141178
0.023245
0.0114459
0.0102866
0.00982697
0.00958965
0.0092606
0.00899509
0.008709
0.00843419
0.00818438
0.00790668
0.00769034
0.00740532
0.00722108
0.00692115
0.00686243
0.00729288
0.0142045
0.0849943
0.141798
0.0234416
0.0115964
0.0104317
0.00996983
0.00972858
0.00939703
0.00912803
0.00883956
0.00856146
0.00830906
0.00802818
0.00780906
0.00752077
0.00733379
0.00703059
0.00696986
0.00740151
0.0143503
0.0854432
0.142435
0.0236385
0.011749
0.0105793
0.0101153
0.00987022
0.00953635
0.00926387
0.00897293
0.00869146
0.00843637
0.00815218
0.00793014
0.00763853
0.00744876
0.00714221
0.00707941
0.00751232
0.0144985
0.0858982
0.143082
0.0238346
0.0119039
0.0107295
0.0102636
0.0100148
0.00967871
0.00940266
0.00910914
0.00882419
0.00856628
0.00827862
0.00805359
0.00775864
0.00756601
0.00725603
0.00719114
0.00762534
0.0146489
0.0863604
0.143732
0.024031
0.0120613
0.0108824
0.0104148
0.0101624
0.0098241
0.00954433
0.00924812
0.00895954
0.00869868
0.00840747
0.00817944
0.00788111
0.00768556
0.00737216
0.00730518
0.00774072