/*--------------------------------*- C++ -*----------------------------------*\
  =========                 |
  \\      /  F ield         | OpenFOAM: The Open Source CFD Toolbox
   \\    /   O peration     | Website:  https://openfoam.org
    \\  /    A nd           | Version:  8
     \\/     M anipulation  |
\*---------------------------------------------------------------------------*/
FoamFile
{
    version     2.0;
    format      ascii;
    class       volScalarField;
    location    "300";
    object      k;
}
// * * * * * * * * * * * * * * * * * * * * * * * * * * * * * * * * * * * * * //

dimensions      [0 2 -2 0 0 0 0];

internalField   nonuniform List<scalar> 
8400
(
0.110005
0.106283
0.102655
0.0991261
0.0956929
0.092358
0.0891368
0.0860325
0.0830437
0.0801682
0.0774036
0.0747474
0.0721964
0.0697477
0.0673978
0.0651436
0.0629817
0.0609085
0.0589206
0.0570143
0.055186
0.0534321
0.0517492
0.0501337
0.0485823
0.0470917
0.0456585
0.0442798
0.0429525
0.0416736
0.0404404
0.0392568
0.0381236
0.0370413
0.0360086
0.0350233
0.0340825
0.033183
0.0323211
0.0314934
0.0306963
0.0299267
0.0291817
0.028459
0.0277571
0.027075
0.0264128
0.0257719
0.0251544
0.0245644
0.0124018
0.0121597
0.0119345
0.0117244
0.0115278
0.0113374
0.0111343
0.0109146
0.0106776
0.0104234
0.0101528
0.00986675
0.00956683
0.00925487
0.00893317
0.00860432
0.00827118
0.00793685
0.00760469
0.00727832
0.00696143
0.00665769
0.00637059
0.00610334
0.00585883
0.00563954
0.0054474
0.00528374
0.0051493
0.00504429
0.00496883
0.00491531
0.00487941
0.00485653
0.00484379
0.00483863
0.00483924
0.00484416
0.00485235
0.00486297
0.00487543
0.00488926
0.00490412
0.00491973
0.00493587
0.00495239
0.00496921
0.00498634
0.00500391
0.00502224
0.00486386
0.00481673
0.00477352
0.004734
0.00469781
0.00466452
0.00463122
0.0045958
0.00455763
0.00451659
0.00447278
0.00442643
0.00437789
0.00432764
0.00427629
0.00422453
0.00417312
0.00412287
0.0040746
0.00402912
0.00398718
0.00394941
0.00391628
0.0038881
0.00386501
0.00384696
0.00383377
0.00382509
0.00382049
0.00381992
0.00382252
0.00382777
0.00383513
0.00384417
0.00385452
0.00386587
0.00387793
0.00389047
0.00390325
0.0039161
0.00392885
0.00394136
0.00395354
0.0039653
0.00397659
0.00398741
0.00399781
0.00400788
0.0040178
0.00402787
0.003438
0.00342901
0.00342171
0.00341569
0.00341065
0.00340633
0.00340253
0.00339807
0.00339277
0.00338654
0.00337938
0.0033713
0.00336239
0.00335273
0.00334248
0.0033318
0.00332087
0.0033099
0.0032991
0.00328871
0.00327893
0.00326996
0.00326194
0.00325503
0.00324931
0.00324488
0.00324178
0.00324019
0.00324057
0.00324265
0.0032464
0.00325163
0.00325819
0.00326588
0.00327451
0.00328389
0.00329384
0.00330417
0.00331471
0.00332533
0.00333588
0.00334626
0.00335639
0.00336621
0.00337567
0.0033848
0.00339361
0.00340221
0.00341076
0.00341948
0.00291046
0.00291215
0.00291426
0.00291658
0.00291892
0.00292111
0.00292299
0.00292404
0.00292419
0.00292337
0.00292151
0.00291861
0.00291466
0.00290966
0.00290367
0.00289674
0.00288896
0.00288045
0.00287138
0.00286192
0.00285229
0.0028427
0.0028334
0.00282463
0.00281664
0.00280983
0.00280491
0.00280214
0.00280136
0.0028025
0.00280538
0.00280983
0.00281562
0.00282254
0.00283039
0.00283896
0.00284805
0.0028575
0.00286716
0.0028769
0.0028866
0.00289618
0.00290556
0.00291471
0.0029236
0.00293221
0.0029406
0.00294883
0.00295701
0.0029653
0.00258646
0.00259178
0.00259714
0.00260217
0.00260665
0.00261041
0.00261332
0.00261529
0.00261581
0.002615
0.00261285
0.00260935
0.00260447
0.00259825
0.00259071
0.00258194
0.00257207
0.00256126
0.00254973
0.00253776
0.00252563
0.00251368
0.00250227
0.00249197
0.00248369
0.00247787
0.00247439
0.00247325
0.00247428
0.00247728
0.00248202
0.00248824
0.00249569
0.00250414
0.00251335
0.00252312
0.00253327
0.00254365
0.00255413
0.0025646
0.00257497
0.00258517
0.00259515
0.00260487
0.00261432
0.0026235
0.00263242
0.00264116
0.00264977
0.00265836
0.002341
0.00234881
0.0023561
0.00236252
0.00236782
0.00237185
0.0023745
0.00237569
0.0023751
0.00237266
0.00236851
0.00236262
0.00235502
0.00234572
0.00233481
0.00232242
0.00230876
0.00229409
0.00227876
0.00226316
0.00224777
0.00223374
0.00222207
0.0022134
0.00220768
0.00220497
0.00220507
0.0022078
0.00221285
0.00221991
0.00222866
0.00223878
0.00224999
0.002262
0.00227459
0.00228755
0.00230068
0.00231384
0.00232691
0.00233979
0.0023524
0.00236468
0.00237659
0.00238809
0.00239917
0.00240983
0.00242011
0.00243004
0.00243969
0.00244912
0.00212369
0.00213017
0.00213705
0.00214338
0.00214852
0.00215206
0.00215377
0.00215353
0.00215131
0.00214651
0.00213932
0.00212993
0.00211844
0.00210498
0.00208976
0.00207309
0.00205539
0.00203723
0.0020196
0.00200368
0.0019906
0.0019805
0.00197351
0.00196963
0.00196872
0.0019706
0.00197502
0.00198174
0.00199049
0.00200102
0.00201307
0.00202643
0.00204085
0.00205613
0.00207205
0.00208841
0.00210502
0.00212171
0.00213831
0.00215469
0.00217073
0.0021863
0.00220133
0.00221574
0.00222947
0.00224253
0.00225492
0.00226667
0.00227783
0.00228847
0.00197587
0.00195969
0.00194925
0.00194341
0.00194042
0.00193878
0.00193735
0.00193532
0.00193226
0.00192798
0.00192184
0.00191382
0.00190438
0.00189409
0.00188363
0.00187371
0.00186506
0.00185835
0.0018536
0.00185053
0.00184902
0.00184872
0.00184944
0.00185101
0.00185327
0.00185615
0.00185957
0.00186349
0.00186792
0.00187292
0.00187856
0.00188495
0.00189219
0.0019004
0.00190962
0.00191991
0.00193124
0.00194358
0.00195683
0.00197087
0.00198554
0.00200061
0.00201587
0.00203108
0.00204603
0.00206052
0.0020744
0.0020875
0.00209977
0.00211113
0.00216627
0.00208343
0.00201282
0.00195692
0.00191442
0.00188383
0.00186379
0.00185297
0.00185001
0.00185352
0.00186213
0.0018745
0.00188924
0.00190527
0.00192191
0.00193863
0.00195501
0.00197074
0.0019855
0.00199908
0.00201138
0.00202229
0.00203168
0.00203938
0.00204519
0.00204887
0.00205022
0.00204912
0.00204553
0.00203955
0.00203136
0.00202123
0.00200946
0.00199643
0.0019825
0.00196805
0.00195346
0.00193914
0.00192546
0.00191274
0.00190124
0.00189114
0.0018826
0.00187572
0.00187063
0.00186731
0.00186575
0.00186575
0.0018672
0.00186976
0.00279054
0.00271777
0.00265215
0.00259115
0.00253428
0.00248158
0.00243349
0.00239088
0.00235478
0.00232619
0.00230559
0.00229299
0.0022879
0.00228955
0.00229686
0.00230865
0.00232373
0.00234081
0.00235862
0.0023761
0.00239239
0.00240687
0.00241917
0.00242911
0.00243665
0.00244178
0.00244452
0.00244495
0.00244321
0.00243942
0.00243364
0.00242591
0.00241632
0.00240491
0.00239157
0.00237611
0.00235841
0.00233855
0.00231665
0.00229252
0.00226572
0.00223581
0.00220246
0.00216549
0.00212473
0.00208038
0.0020332
0.00198476
0.00193788
0.00189708
0.00298353
0.0029647
0.00294742
0.00293121
0.00291556
0.00290011
0.00288464
0.002869
0.00285333
0.00283779
0.00282244
0.00280735
0.0027925
0.00277802
0.00276403
0.0027506
0.00273788
0.0027259
0.00271473
0.0027044
0.00269492
0.0026863
0.00267853
0.00267156
0.00266535
0.00265983
0.00265487
0.00265032
0.00264605
0.00264199
0.00263804
0.0026341
0.00263015
0.00262617
0.00262204
0.00261752
0.00261244
0.00260683
0.00260091
0.00259482
0.00258836
0.00258147
0.00257383
0.00256534
0.00255564
0.00254464
0.00253193
0.00251694
0.00249791
0.00247359
0.00299303
0.00298541
0.00297787
0.00297041
0.00296301
0.00295558
0.00294812
0.0029406
0.00293307
0.00292555
0.00291803
0.00291051
0.00290302
0.00289556
0.00288817
0.00288087
0.00287365
0.00286654
0.00285952
0.00285261
0.00284584
0.0028392
0.0028327
0.00282634
0.00282011
0.00281402
0.00280803
0.00280215
0.00279635
0.00279063
0.00278499
0.00277942
0.00277391
0.00276845
0.00276298
0.00275745
0.00275186
0.00274622
0.00274053
0.00273479
0.00272893
0.00272291
0.00271667
0.00271014
0.00270323
0.00269586
0.00268785
0.00267903
0.00266936
0.00265948
0.00299563
0.00299104
0.00298645
0.00298187
0.00297729
0.00297267
0.00296803
0.00296336
0.00295868
0.00295397
0.00294924
0.00294449
0.00293974
0.00293499
0.00293027
0.00292557
0.00292088
0.0029162
0.00291153
0.00290689
0.00290228
0.0028977
0.00289314
0.00288862
0.00288412
0.00287965
0.00287519
0.00287075
0.00286632
0.0028619
0.00285749
0.00285309
0.00284869
0.0028443
0.00283988
0.00283543
0.00283096
0.00282646
0.00282193
0.00281733
0.00281267
0.00280791
0.00280308
0.0027981
0.00279295
0.00278756
0.00278193
0.00277614
0.00277026
0.00276384
0.00299697
0.00299379
0.00299059
0.00298738
0.00298413
0.00298087
0.00297758
0.00297426
0.00297092
0.00296757
0.00296418
0.00296077
0.00295736
0.00295395
0.00295053
0.00294711
0.00294368
0.00294024
0.00293679
0.00293334
0.00292991
0.00292647
0.00292303
0.0029196
0.00291617
0.00291274
0.00290931
0.00290587
0.00290243
0.00289898
0.00289554
0.00289209
0.00288864
0.00288516
0.00288168
0.00287817
0.00287464
0.00287109
0.00286751
0.00286388
0.00286021
0.00285649
0.0028527
0.00284884
0.00284487
0.00284084
0.00283678
0.00283259
0.00282818
0.0028235
0.0029975
0.00299493
0.00299235
0.00298977
0.00298718
0.00298456
0.00298194
0.00297929
0.00297663
0.00297395
0.00297126
0.00296856
0.00296587
0.00296318
0.00296049
0.0029578
0.00295511
0.00295242
0.00294973
0.00294706
0.00294439
0.00294172
0.00293906
0.0029364
0.00293375
0.00293109
0.00292843
0.00292576
0.00292309
0.00292042
0.00291775
0.00291506
0.00291236
0.00290965
0.00290691
0.00290416
0.00290139
0.00289859
0.00289576
0.00289289
0.00288998
0.00288703
0.00288405
0.00288105
0.00287802
0.00287493
0.00287176
0.0028685
0.00286511
0.00286157
0.00299819
0.00299633
0.00299446
0.00299258
0.00299068
0.00298878
0.00298686
0.00298494
0.00298301
0.00298106
0.00297911
0.00297716
0.0029752
0.00297324
0.00297126
0.00296927
0.00296727
0.00296526
0.00296326
0.00296124
0.00295922
0.00295719
0.00295515
0.00295311
0.00295106
0.002949
0.00294693
0.00294485
0.00294277
0.00294068
0.00293859
0.00293648
0.00293437
0.00293225
0.00293012
0.00292799
0.00292584
0.0029237
0.00292153
0.00291937
0.00291719
0.00291501
0.00291281
0.00291057
0.00290829
0.00290596
0.00290357
0.00290112
0.00289858
0.00289592
0.00299815
0.00299626
0.00299437
0.00299246
0.00299053
0.0029886
0.00298667
0.00298473
0.00298278
0.00298083
0.00297888
0.00297692
0.00297496
0.00297298
0.002971
0.00296901
0.00296702
0.00296503
0.00296303
0.00296104
0.00295903
0.00295703
0.00295502
0.00295301
0.002951
0.00294898
0.00294695
0.00294492
0.00294289
0.00294085
0.0029388
0.00293676
0.0029347
0.00293265
0.00293058
0.00292852
0.00292646
0.00292439
0.00292232
0.00292024
0.00291815
0.00291606
0.00291397
0.00291187
0.00290977
0.00290767
0.00290557
0.00290346
0.00290134
0.00289919
0.00299885
0.00299786
0.00299671
0.00299556
0.0029944
0.00299324
0.00299208
0.00299091
0.00298974
0.00298857
0.00298739
0.00298622
0.00298505
0.00298389
0.00298272
0.00298157
0.00298042
0.00297929
0.00297816
0.00297703
0.00297592
0.00297481
0.0029737
0.0029726
0.0029715
0.00297042
0.00296934
0.00296826
0.0029672
0.00296614
0.00296508
0.00296403
0.00296298
0.00296194
0.00296089
0.00295986
0.00295882
0.00295778
0.00295674
0.0029557
0.00295465
0.00295359
0.00295252
0.00295145
0.00295035
0.00294922
0.00294806
0.00294686
0.00294559
0.00294423
0.00307544
0.00315593
0.00323817
0.00332086
0.00340322
0.00348477
0.00356558
0.00364613
0.00372707
0.00380913
0.00389294
0.00397904
0.00406782
0.00415957
0.00425443
0.00435244
0.00445356
0.0045577
0.00466473
0.00477445
0.00488667
0.00500118
0.00511776
0.00523624
0.00535646
0.00547829
0.00560162
0.00572633
0.00585231
0.00597943
0.00610756
0.00623656
0.00636625
0.0064965
0.0066271
0.00675785
0.00688847
0.00701867
0.00714809
0.00727638
0.00740308
0.00752763
0.00764935
0.00776742
0.00788083
0.00798833
0.00808836
0.00817902
0.00825805
0.00832443
0.0589322
0.0574905
0.0561257
0.0548313
0.0535991
0.052421
0.051289
0.0502001
0.0491516
0.0481412
0.047167
0.0462272
0.0453203
0.0444447
0.0435993
0.0427828
0.0419941
0.041232
0.0404957
0.039784
0.039096
0.0384305
0.0377865
0.0371631
0.0365593
0.0359743
0.0354074
0.0348578
0.034325
0.0338085
0.0333079
0.0328226
0.0323524
0.0318965
0.0314546
0.0310261
0.0306105
0.0302073
0.0298159
0.0294349
0.0290623
0.0286976
0.0283401
0.027989
0.0276433
0.0273018
0.0269626
0.0266228
0.0262768
0.0259146
0.058092
0.0554641
0.0530109
0.0507146
0.0485662
0.0465559
0.0446752
0.0429129
0.0412591
0.0397045
0.0382413
0.0368622
0.0355608
0.0343315
0.0331689
0.0320685
0.031026
0.0300374
0.0290991
0.0282076
0.0273597
0.0265524
0.0257828
0.0250486
0.0243473
0.0236769
0.0230357
0.0224219
0.0218342
0.0212711
0.0207315
0.0202139
0.0197171
0.0192398
0.0187807
0.0183384
0.0179118
0.0174996
0.0171006
0.0167152
0.0163437
0.0159853
0.0156394
0.0153053
0.0149825
0.0146703
0.014368
0.0140747
0.0137892
0.0135104
0.0580882
0.0554516
0.0529819
0.0506712
0.0485076
0.0464799
0.0445773
0.0427896
0.0411074
0.0395225
0.0380272
0.0366149
0.0352797
0.0340159
0.0328188
0.0316838
0.0306068
0.0295841
0.0286122
0.0276876
0.0268074
0.0259687
0.0251687
0.024405
0.0236754
0.0229778
0.0223105
0.0216719
0.0210604
0.0204746
0.0199133
0.0193753
0.0188591
0.0183638
0.0178882
0.0174313
0.0169921
0.0165695
0.0161627
0.015771
0.0153935
0.0150298
0.0146792
0.0143411
0.0140151
0.0137009
0.0133982
0.0131066
0.0128253
0.012553
0.0580883
0.0554706
0.0530226
0.0507319
0.0485854
0.0465712
0.0446785
0.0428975
0.0412196
0.0396368
0.0381421
0.0367291
0.0353921
0.0341258
0.0329255
0.0317869
0.0307059
0.0296789
0.0287024
0.0277731
0.026888
0.0260443
0.0252394
0.0244709
0.0237365
0.0230343
0.0223625
0.0217195
0.0211038
0.020514
0.0199489
0.019407
0.0188873
0.0183886
0.0179096
0.0174494
0.017007
0.0165813
0.0161715
0.0157768
0.0153966
0.0150301
0.0146769
0.0143363
0.0140077
0.0136909
0.0133853
0.0130909
0.0128075
0.0125337
0.0580883
0.0554712
0.0530225
0.0507291
0.048579
0.046561
0.0446647
0.0428808
0.0412005
0.0396162
0.0381206
0.0367074
0.0353708
0.0341053
0.0329061
0.0317688
0.0306893
0.0296638
0.0286888
0.027761
0.0268774
0.0260351
0.0252316
0.0244644
0.0237314
0.0230305
0.0223601
0.0217184
0.021104
0.0205154
0.0199513
0.0194105
0.0188917
0.0183938
0.0179157
0.0174561
0.0170142
0.016589
0.0161796
0.0157853
0.0154053
0.015039
0.0146858
0.0143453
0.0140168
0.0136999
0.0133941
0.0130989
0.0128145
0.01254
0.0580884
0.0554729
0.0530273
0.0507376
0.0485917
0.0465779
0.0446856
0.0429053
0.0412283
0.0396468
0.0381537
0.0367426
0.0354076
0.0341434
0.0329452
0.0318086
0.0307294
0.0297039
0.0287287
0.0278004
0.0269161
0.026073
0.0252686
0.0245005
0.0237666
0.0230648
0.0223936
0.021751
0.0211358
0.0205464
0.0199815
0.0194398
0.0189201
0.0184213
0.0179421
0.0174816
0.0170387
0.0166124
0.0162019
0.0158065
0.0154253
0.0150578
0.0147034
0.0143615
0.0140317
0.0137136
0.0134065
0.0131099
0.0128237
0.0125473
0.0580885
0.0554736
0.0530287
0.0507395
0.0485934
0.046579
0.0446857
0.0429041
0.0412258
0.039643
0.0381487
0.0367366
0.0354008
0.034136
0.0329374
0.0318004
0.0307209
0.0296951
0.0287196
0.0277911
0.0269067
0.0260635
0.0252591
0.0244911
0.0237573
0.023056
0.0223851
0.0217431
0.0211283
0.0205394
0.019975
0.0194338
0.0189145
0.0184161
0.0179373
0.017477
0.0170343
0.0166082
0.0161979
0.0158026
0.0154215
0.015054
0.0146995
0.0143575
0.0140274
0.0137089
0.0134015
0.0131046
0.0128179
0.0125408
0.0580886
0.0554742
0.0530299
0.0507414
0.048596
0.0465822
0.0446895
0.0429087
0.0412311
0.0396492
0.0381559
0.0367448
0.03541
0.0341463
0.0329485
0.0318123
0.0307334
0.0297081
0.0287328
0.0278044
0.0269199
0.0260766
0.0252721
0.0245039
0.0237702
0.0230687
0.0223978
0.0217557
0.0211409
0.0205519
0.0199873
0.0194458
0.0189263
0.0184274
0.0179482
0.0174874
0.0170442
0.0166175
0.0162066
0.0158105
0.0154287
0.0150604
0.0147051
0.0143622
0.0140312
0.0137116
0.0134031
0.0131051
0.0128171
0.0125386
0.0580887
0.0554747
0.0530309
0.0507427
0.0485973
0.0465834
0.0446904
0.0429092
0.0412312
0.0396489
0.0381553
0.036744
0.0354091
0.0341451
0.0329471
0.0318106
0.0307314
0.0297056
0.0287299
0.027801
0.026916
0.0260724
0.0252675
0.0244993
0.0237654
0.023064
0.0223932
0.0217513
0.0211367
0.0205478
0.0199834
0.019442
0.0189225
0.0184237
0.0179444
0.0174836
0.0170403
0.0166135
0.0162024
0.0158062
0.0154241
0.0150555
0.0146999
0.0143567
0.0140253
0.0137053
0.0133962
0.0130976
0.0128089
0.0125297
0.0580888
0.0554752
0.0530317
0.0507436
0.0485983
0.0465843
0.0446912
0.0429099
0.0412319
0.0396497
0.0381563
0.0367453
0.0354107
0.0341471
0.0329495
0.0318132
0.0307341
0.0297083
0.0287325
0.0278035
0.0269184
0.0260746
0.0252697
0.0245015
0.0237677
0.0230665
0.0223959
0.0217541
0.0211396
0.0205509
0.0199864
0.019445
0.0189254
0.0184264
0.0179469
0.0174858
0.0170422
0.0166151
0.0162035
0.0158069
0.0154243
0.0150552
0.014699
0.0143552
0.0140232
0.0137025
0.0133926
0.013093
0.0128034
0.0125232
0.058089
0.0554756
0.0530323
0.0507444
0.048599
0.0465847
0.0446914
0.0429099
0.0412318
0.0396495
0.0381562
0.0367452
0.0354108
0.0341473
0.0329497
0.0318133
0.0307341
0.0297081
0.028732
0.0278027
0.0269174
0.0260734
0.0252684
0.0245002
0.0237665
0.0230654
0.022395
0.0217534
0.0211391
0.0205504
0.019986
0.0194445
0.0189247
0.0184256
0.0179459
0.0174846
0.0170407
0.0166133
0.0162015
0.0158044
0.0154215
0.015052
0.0146954
0.014351
0.0140184
0.0136971
0.0133865
0.0130862
0.0127957
0.0125146
0.0580891
0.055476
0.0530328
0.0507448
0.0485992
0.0465846
0.044691
0.0429091
0.0412308
0.0396483
0.0381548
0.0367438
0.0354092
0.0341456
0.0329477
0.031811
0.0307314
0.029705
0.0287284
0.0277987
0.0269131
0.0260689
0.0252638
0.0244955
0.023762
0.023061
0.0223908
0.0217494
0.0211352
0.0205466
0.0199822
0.0194407
0.0189209
0.0184216
0.0179418
0.0174804
0.0170364
0.0166088
0.0161968
0.0157996
0.0154165
0.0150467
0.0146898
0.014345
0.014012
0.0136902
0.0133791
0.0130781
0.0127869
0.012505
0.0580892
0.0554763
0.053033
0.0507448
0.048599
0.0465842
0.0446904
0.0429085
0.0412303
0.0396481
0.038155
0.0367444
0.0354102
0.0341469
0.0329494
0.0318129
0.0307333
0.0297069
0.0287304
0.0278007
0.026915
0.0260709
0.0252659
0.0244978
0.0237644
0.0230637
0.0223937
0.0217524
0.0211382
0.0205496
0.0199851
0.0194433
0.0189232
0.0184236
0.0179434
0.0174817
0.0170373
0.0166094
0.016197
0.0157993
0.0154157
0.0150454
0.0146878
0.0143425
0.0140087
0.0136861
0.0133741
0.0130722
0.01278
0.0124969
0.0580893
0.0554763
0.0530328
0.0507439
0.0485973
0.0465816
0.0446868
0.0429039
0.0412247
0.0396416
0.0381475
0.036736
0.035401
0.0341368
0.0329384
0.0318011
0.0307207
0.0296936
0.0287165
0.0277863
0.0269003
0.026056
0.025251
0.0244831
0.02375
0.0230496
0.0223799
0.0217389
0.021125
0.0205366
0.0199722
0.0194307
0.0189107
0.0184113
0.0179313
0.0174697
0.0170255
0.0165977
0.0161855
0.015788
0.0154044
0.0150342
0.0146766
0.0143311
0.0139972
0.0136744
0.0133621
0.0130598
0.0127671
0.0124835
0.0580893
0.0554762
0.0530321
0.0507429
0.0485963
0.046581
0.044687
0.0429051
0.041227
0.0396451
0.0381522
0.0367418
0.0354076
0.0341442
0.0329462
0.0318092
0.030729
0.0297019
0.0287246
0.0277943
0.0269082
0.0260638
0.0252587
0.0244907
0.0237574
0.0230569
0.0223869
0.0217456
0.0211313
0.0205424
0.0199775
0.0194353
0.0189147
0.0184147
0.0179341
0.0174719
0.0170271
0.0165987
0.0161859
0.0157877
0.0154035
0.0150325
0.0146741
0.0143278
0.013993
0.0136692
0.0133558
0.0130524
0.0127585
0.0124737
0.0580894
0.0554748
0.0530279
0.050735
0.0485842
0.0465646
0.0446664
0.0428806
0.0411991
0.0396143
0.0381189
0.0367065
0.0353707
0.0341059
0.032907
0.0317693
0.0306887
0.0296614
0.0286842
0.0277542
0.0268686
0.0260249
0.0252207
0.0244536
0.0237214
0.0230218
0.0223528
0.0217125
0.0210991
0.0205111
0.019947
0.0194056
0.0188858
0.0183865
0.0179067
0.0174453
0.0170012
0.0165735
0.0161613
0.0157638
0.0153801
0.0150096
0.0146517
0.0143057
0.0139712
0.0136476
0.0133343
0.0130309
0.012737
0.012452
0.0580894
0.0554744
0.0530285
0.0507383
0.048591
0.0465751
0.0446804
0.0428975
0.0412182
0.0396348
0.0381403
0.0367279
0.0353918
0.0341262
0.0329261
0.031787
0.0307048
0.0296758
0.028697
0.0277653
0.0268781
0.0260329
0.0252273
0.0244588
0.0237252
0.0230243
0.022354
0.0217124
0.0210977
0.0205085
0.0199432
0.0194008
0.01888
0.0183798
0.0178991
0.0174369
0.0169921
0.0165638
0.016151
0.015753
0.0153688
0.014998
0.0146397
0.0142936
0.0139589
0.0136352
0.0133221
0.0130192
0.0127259
0.0124422
0.0580893
0.0554556
0.052988
0.0506779
0.0485134
0.046484
0.0445792
0.0427894
0.0411058
0.0395202
0.038025
0.0366134
0.0352789
0.0340159
0.0328189
0.0316834
0.0306052
0.0295806
0.0286064
0.0276795
0.0267972
0.0259571
0.0251565
0.0243931
0.0236645
0.0229686
0.0223032
0.0216664
0.0210565
0.020472
0.0199115
0.0193738
0.0188577
0.0183623
0.0178864
0.017429
0.0169891
0.0165659
0.0161583
0.0157657
0.0153873
0.0150225
0.0146707
0.0143316
0.0140046
0.0136897
0.0133865
0.0130951
0.0128157
0.0125494
0.058093
0.0554679
0.0530166
0.0507208
0.0485715
0.0465593
0.0446763
0.0429119
0.0412565
0.0397013
0.0382383
0.0368601
0.03556
0.0343317
0.0331699
0.0320694
0.0310261
0.0300361
0.0290959
0.0282025
0.0273531
0.0265451
0.0257761
0.0250436
0.0243453
0.0236789
0.0230423
0.0224336
0.0218512
0.0212934
0.020759
0.020247
0.0197561
0.0192855
0.0188343
0.0184015
0.0179862
0.0175877
0.0172051
0.016838
0.0164857
0.0161479
0.0158244
0.0155151
0.0152202
0.0149401
0.0146757
0.0144286
0.0142022
0.0140031
0.0589338
0.0574934
0.0561293
0.054835
0.0536021
0.0524227
0.0512891
0.0501986
0.0491489
0.0481377
0.047163
0.046223
0.0453159
0.0444401
0.0435941
0.0427767
0.0419868
0.0412235
0.0404857
0.0397727
0.0390835
0.0384173
0.037773
0.0371496
0.036546
0.0359614
0.0353946
0.0348449
0.0343116
0.0337941
0.0332918
0.0328041
0.0323305
0.0318705
0.0314233
0.0309884
0.0305652
0.030153
0.0297513
0.0293594
0.0289769
0.0286034
0.0282383
0.0278812
0.0275315
0.0271888
0.0268523
0.0265214
0.026195
0.0258719
0.0112423
0.00287069
0.00183952
0.00171507
0.00165598
0.00160977
0.00156149
0.00151696
0.0014734
0.00143332
0.00139813
0.00137469
0.00137866
0.00144425
0.00163645
0.00206104
0.00286456
0.00422033
0.00635328
0.0103907
0.0114394
0.00293763
0.00186079
0.00173239
0.00167307
0.00162826
0.0015805
0.00153687
0.00149365
0.00145344
0.00141596
0.00138483
0.00136834
0.00138695
0.00148661
0.0017544
0.00233723
0.00344089
0.00525422
0.00790088
0.0116305
0.00300357
0.00188206
0.00174971
0.00168991
0.00164645
0.00159907
0.00155633
0.00151349
0.00147357
0.0014354
0.00140106
0.00137481
0.00136841
0.00141369
0.00157995
0.00201249
0.00297486
0.00485602
0.008287
0.0118154
0.003068
0.00190322
0.00176698
0.00170656
0.00166436
0.00161722
0.00157531
0.00153276
0.00149324
0.00145489
0.00141931
0.00138857
0.00136894
0.00138246
0.00148114
0.00179808
0.00261966
0.00449102
0.00853294
0.0119921
0.00313047
0.00192423
0.00178417
0.00172304
0.0016821
0.00163505
0.00159392
0.00155151
0.00151233
0.00147402
0.00143786
0.00140509
0.00137848
0.00137372
0.00142807
0.00165946
0.00235504
0.00417711
0.00870834
0.0121601
0.00319059
0.00194507
0.0018013
0.00173932
0.00169958
0.00165248
0.00161207
0.00156977
0.0015308
0.00149259
0.00145617
0.00142249
0.00139201
0.00137671
0.00140204
0.00157116
0.00215935
0.00391499
0.00884311
0.0123188
0.0032481
0.0019657
0.00181841
0.00175549
0.0017169
0.00166963
0.00162981
0.00158755
0.00154878
0.00151058
0.00147399
0.0014399
0.00140711
0.00138579
0.00139168
0.00151601
0.00201473
0.00369841
0.00895109
0.0124676
0.0033028
0.00198604
0.0018355
0.00177153
0.00173395
0.00168649
0.00164719
0.00160487
0.0015663
0.00152813
0.00149131
0.00145712
0.00142269
0.00139796
0.00139061
0.00148259
0.00190796
0.00352108
0.00904106
0.0126062
0.00335461
0.00200604
0.00185247
0.00178754
0.00175085
0.00170313
0.00166431
0.00162187
0.00158341
0.00154529
0.00150816
0.00147393
0.00143833
0.00141162
0.00139504
0.00146351
0.00182906
0.00337616
0.00911781
0.0127344
0.00340341
0.0020258
0.00186938
0.00180346
0.00176762
0.00171959
0.00168117
0.0016386
0.00160023
0.00156208
0.00152468
0.00149045
0.00145381
0.00142602
0.00140285
0.00145412
0.00177097
0.00325807
0.00918406
0.012853
0.00344934
0.00204527
0.0018862
0.00181935
0.00178426
0.00173594
0.00169791
0.00165513
0.0016168
0.0015786
0.00154084
0.00150669
0.00146914
0.00144074
0.00141263
0.00145123
0.00172836
0.00316204
0.00924213
0.0129618
0.00349252
0.00206449
0.00190302
0.00183521
0.00180086
0.00175214
0.00171447
0.00167153
0.00163315
0.00159491
0.00155673
0.00152263
0.00148424
0.00145554
0.00142363
0.00145272
0.00169729
0.00308381
0.00929357
0.0130621
0.00353326
0.00208346
0.00191994
0.00185111
0.00181744
0.0017683
0.00173086
0.00168775
0.00164926
0.00161096
0.00157237
0.00153832
0.00149913
0.00147029
0.00143543
0.00145732
0.00167512
0.00302032
0.00934002
0.013154
0.00357172
0.0021023
0.00193678
0.00186714
0.001834
0.00178448
0.0017472
0.00170388
0.00166524
0.00162683
0.00158779
0.00155381
0.00151386
0.001485
0.00144776
0.00146414
0.00165987
0.00296917
0.00938316
0.0132389
0.00360816
0.00212117
0.00195374
0.00188338
0.00185057
0.00180067
0.00176347
0.00171994
0.00168112
0.00164262
0.0016031
0.00156918
0.00152854
0.00149973
0.00146054
0.00147267
0.00165012
0.00292848
0.00942382
0.0133175
0.00364287
0.00213995
0.0019708
0.00189978
0.00186716
0.00181697
0.00177972
0.00173594
0.00169692
0.00165834
0.00161842
0.00158453
0.00154328
0.00151453
0.00147373
0.00148254
0.00164483
0.00289687
0.00946228
0.0133907
0.0036761
0.00215866
0.00198798
0.0019163
0.0018838
0.00183328
0.00179598
0.00175198
0.00171271
0.00167405
0.0016338
0.00159995
0.00155812
0.00152942
0.00148724
0.00149339
0.00164312
0.00287294
0.00949875
0.0134583
0.00370778
0.00217731
0.00200523
0.00193289
0.00190051
0.00184965
0.00181227
0.00176811
0.00172859
0.00168988
0.00164928
0.00161545
0.00157305
0.00154439
0.00150097
0.00150497
0.00164422
0.00285521
0.0095334
0.0135213
0.003738
0.00219589
0.0020225
0.00194961
0.00191729
0.0018661
0.00182867
0.00178432
0.00174461
0.00170582
0.00166487
0.00163101
0.00158805
0.00155936
0.00151485
0.00151708
0.00164755
0.0028425
0.00956651
0.0135794
0.00376688
0.00221443
0.00203982
0.00196647
0.00193418
0.00188272
0.00184522
0.0018007
0.00176078
0.00172186
0.00168052
0.00164657
0.00160305
0.0015743
0.00152884
0.00152962
0.00165268
0.00283393
0.00959846
0.0136329
0.00379468
0.00223288
0.00205724
0.00198351
0.00195123
0.00189956
0.00186194
0.00181727
0.0017771
0.001738
0.00169621
0.00166214
0.00161807
0.00158923
0.00154295
0.00154254
0.00165933
0.00282891
0.00962959
0.0136829
0.00382176
0.00225142
0.00207487
0.00200078
0.00196851
0.00191662
0.00187886
0.00183399
0.00179353
0.00175421
0.00171196
0.00167775
0.00163317
0.00160423
0.00155725
0.00155583
0.00166733
0.00282705
0.00966027
0.0137302
0.00384827
0.00227013
0.00209271
0.00201831
0.00198601
0.00193392
0.00189595
0.00185085
0.00181005
0.0017705
0.00172782
0.00169347
0.00164845
0.00161942
0.0015718
0.00156953
0.00167654
0.00282805
0.00969074
0.0137755
0.00387436
0.00228902
0.00211074
0.00203609
0.00200369
0.00195138
0.00191317
0.00186783
0.00182666
0.00178692
0.00174385
0.00170936
0.00166396
0.00163485
0.00158664
0.00158361
0.00168682
0.00283163
0.00972113
0.0138189
0.00390012
0.00230803
0.00212896
0.00205408
0.00202151
0.00196897
0.00193049
0.00188491
0.0018434
0.00180349
0.00176009
0.00172549
0.00167974
0.00165051
0.00160175
0.00159804
0.00169801
0.00283744
0.00975142
0.0138604
0.00392555
0.00232714
0.00214733
0.00207225
0.00203946
0.0019867
0.00194793
0.00190212
0.00186029
0.00182025
0.00177657
0.00174183
0.00169574
0.00166637
0.00161708
0.00161275
0.00170996
0.0028451
0.00978157
0.0139001
0.00395073
0.00234641
0.0021659
0.00209062
0.00205754
0.00200458
0.0019655
0.00191951
0.0018774
0.00183721
0.00179325
0.00175837
0.00171192
0.00168238
0.00163259
0.0016277
0.00172256
0.00285423
0.00981164
0.0139385
0.00397585
0.0023659
0.0021847
0.00210922
0.00207584
0.00202269
0.00198329
0.00193712
0.00189475
0.0018544
0.00181013
0.00177508
0.00172827
0.00169852
0.00164826
0.00164289
0.00173572
0.00286457
0.0098418
0.013976
0.00400107
0.00238565
0.00220374
0.0021281
0.0020944
0.00204106
0.00200136
0.00195502
0.00191236
0.0018718
0.00182721
0.00179195
0.00174477
0.00171481
0.00166412
0.00165832
0.00174939
0.00287602
0.00987224
0.0140132
0.00402649
0.00240568
0.00222306
0.00214727
0.00211325
0.00205973
0.00201973
0.0019732
0.00193022
0.00188943
0.00184449
0.00180901
0.00176147
0.0017313
0.00168023
0.00167403
0.0017636
0.0028886
0.00990306
0.0140501
0.00405207
0.00242595
0.00224264
0.00216674
0.0021324
0.00207871
0.0020384
0.00199167
0.00194832
0.00190729
0.001862
0.00182629
0.00177841
0.00174805
0.00169662
0.00169005
0.00177834
0.00290232
0.0099343
0.014087
0.00407736
0.00244643
0.00226248
0.0021865
0.00215183
0.00209797
0.00205734
0.00201037
0.00196665
0.0019254
0.00187976
0.00184382
0.00179564
0.00176509
0.00171331
0.00170639
0.00179359
0.00291709
0.00996585
0.0141245
0.0041018
0.00246711
0.00228257
0.00220652
0.00217151
0.00211748
0.00207649
0.00202928
0.00198522
0.00194375
0.00189778
0.00186163
0.00181316
0.00178241
0.00173029
0.00172303
0.00180928
0.00293272
0.00999755
0.014162
0.00412565
0.00248801
0.00230293
0.00222678
0.00219141
0.00213721
0.00209582
0.00204841
0.00200401
0.00196232
0.00191605
0.00187971
0.00183095
0.00179997
0.00174751
0.0017399
0.00182532
0.00294895
0.0100293
0.0141998
0.00414917
0.00250915
0.00232352
0.00224727
0.00221152
0.00215713
0.00211535
0.00206774
0.00202302
0.00198113
0.00193457
0.00189801
0.00184895
0.00181772
0.0017649
0.00175695
0.00184163
0.00296554
0.010061
0.0142379
0.00417256
0.00253055
0.00234436
0.00226801
0.00223183
0.00217725
0.0021351
0.00208731
0.00204226
0.00200017
0.0019533
0.00191651
0.00186713
0.00183563
0.00178247
0.00177418
0.0018582
0.00298236
0.0100929
0.0142766
0.00419592
0.00255208
0.00236544
0.00228898
0.00225236
0.00219763
0.00215512
0.00210714
0.00206176
0.00201944
0.00197226
0.00193521
0.00188551
0.00185373
0.00180023
0.00179163
0.00187505
0.00299944
0.0101252
0.0143162
0.0042191
0.00257374
0.00238675
0.00231023
0.00227318
0.0022183
0.00217543
0.00212726
0.00208154
0.00203898
0.00199147
0.00195416
0.00190414
0.00187209
0.00181826
0.00180935
0.00189222
0.00301695
0.0101581
0.0143564
0.00424203
0.00259555
0.00240832
0.00233176
0.00229431
0.00223929
0.00219607
0.0021477
0.00210163
0.00205883
0.002011
0.00197342
0.00192308
0.00189076
0.00183662
0.00182741
0.0019098
0.00303509
0.0101918
0.0143969
0.00426476
0.00261756
0.00243016
0.0023536
0.00231577
0.00226063
0.00221705
0.00216848
0.00212205
0.00207903
0.00203088
0.00199303
0.00194239