/*--------------------------------*- C++ -*----------------------------------*\
  =========                 |
  \\      /  F ield         | OpenFOAM: The Open Source CFD Toolbox
   \\    /   O peration     | Website:  https://openfoam.org
    \\  /    A nd           | Version:  8
     \\/     M anipulation  |
\*---------------------------------------------------------------------------*/
FoamFile
{
    version     2.0;
    format      ascii;
    class       volScalarField;
    location    "300";
    object      nut;
}
// * * * * * * * * * * * * * * * * * * * * * * * * * * * * * * * * * * * * * //

dimensions      [0 2 -1 0 0 0 0];

internalField   nonuniform List<scalar> 
8400
(
0.000352245
0.000346243
0.000340309
0.000334447
0.000328652
0.000322957
0.000317435
0.000312049
0.000306796
0.000301674
0.000296684
0.000291824
0.000287091
0.000282482
0.000277993
0.000273621
0.000269363
0.000265216
0.000261174
0.000257234
0.000253389
0.000249635
0.000245968
0.000242383
0.000238875
0.00023544
0.000232072
0.000228767
0.000225521
0.000222328
0.000219184
0.000216157
0.000213286
0.000210541
0.000207912
0.000205378
0.00020292
0.000200521
0.000198166
0.000195841
0.000193536
0.000191242
0.000188954
0.000186668
0.000184383
0.000182102
0.000179831
0.000177578
0.000175358
0.000173191
0.000117131
0.000116369
0.00011568
0.000115047
0.000114457
0.000113776
0.000112803
0.000111654
0.000110325
0.00010882
0.000107147
0.000105314
0.000103336
0.000101231
9.90247e-05
9.67459e-05
9.44235e-05
9.20879e-05
8.97739e-05
8.75199e-05
8.53666e-05
8.33536e-05
8.15185e-05
7.98956e-05
7.85167e-05
7.74095e-05
7.65944e-05
7.60832e-05
7.58787e-05
7.59759e-05
7.6375e-05
7.68424e-05
7.72296e-05
7.75809e-05
7.78818e-05
7.8148e-05
7.83833e-05
7.85959e-05
7.87906e-05
7.89715e-05
7.91413e-05
7.93011e-05
7.94514e-05
7.95922e-05
7.97234e-05
7.98448e-05
7.99567e-05
8.00604e-05
8.01582e-05
8.02534e-05
7.52797e-05
7.51451e-05
7.5033e-05
7.49386e-05
7.48561e-05
7.47796e-05
7.46221e-05
7.44015e-05
7.41288e-05
7.38069e-05
7.34391e-05
7.30311e-05
7.25911e-05
7.21296e-05
7.1659e-05
7.11919e-05
7.07412e-05
7.0319e-05
6.99371e-05
6.96057e-05
6.9333e-05
6.91234e-05
6.89782e-05
6.88952e-05
6.88697e-05
6.88949e-05
6.89621e-05
6.9062e-05
6.91857e-05
6.93407e-05
6.9508e-05
6.96686e-05
6.98267e-05
6.99797e-05
7.01281e-05
7.02707e-05
7.0407e-05
7.05359e-05
7.06564e-05
7.07679e-05
7.08698e-05
7.0962e-05
7.10443e-05
7.11168e-05
7.11799e-05
7.12341e-05
7.12804e-05
7.13208e-05
7.13577e-05
7.13941e-05
6.48886e-05
6.49238e-05
6.49658e-05
6.50099e-05
6.5052e-05
6.50887e-05
6.51172e-05
6.51028e-05
6.50685e-05
6.50144e-05
6.49415e-05
6.48513e-05
6.47466e-05
6.46308e-05
6.45081e-05
6.43825e-05
6.42577e-05
6.41374e-05
6.40255e-05
6.39255e-05
6.38403e-05
6.37718e-05
6.37207e-05
6.36876e-05
6.36725e-05
6.36754e-05
6.36956e-05
6.37386e-05
6.38212e-05
6.39274e-05
6.40427e-05
6.4168e-05
6.42983e-05
6.44316e-05
6.45651e-05
6.46966e-05
6.4824e-05
6.49456e-05
6.50598e-05
6.51661e-05
6.52639e-05
6.53529e-05
6.54331e-05
6.55045e-05
6.55675e-05
6.56226e-05
6.56713e-05
6.57153e-05
6.57568e-05
6.57981e-05
6.03019e-05
6.03771e-05
6.04487e-05
6.05137e-05
6.05694e-05
6.06136e-05
6.06443e-05
6.06449e-05
6.06285e-05
6.0594e-05
6.0541e-05
6.04698e-05
6.03819e-05
6.0279e-05
6.01633e-05
6.00371e-05
5.99031e-05
5.97645e-05
5.96256e-05
5.94904e-05
5.93632e-05
5.92477e-05
5.91475e-05
5.90662e-05
5.90069e-05
5.89788e-05
5.90058e-05
5.90863e-05
5.9191e-05
5.93106e-05
5.94421e-05
5.95804e-05
5.97225e-05
5.98654e-05
6.00066e-05
6.01441e-05
6.0276e-05
6.0401e-05
6.05188e-05
6.06289e-05
6.07311e-05
6.08254e-05
6.09118e-05
6.09905e-05
6.10618e-05
6.11266e-05
6.1186e-05
6.12417e-05
6.12954e-05
6.13484e-05
5.70781e-05
5.71546e-05
5.72238e-05
5.72812e-05
5.73237e-05
5.73492e-05
5.73568e-05
5.73455e-05
5.72992e-05
5.72346e-05
5.71489e-05
5.7042e-05
5.69154e-05
5.67707e-05
5.66104e-05
5.64372e-05
5.62553e-05
5.60695e-05
5.58859e-05
5.57104e-05
5.55492e-05
5.54083e-05
5.52934e-05
5.52194e-05
5.52162e-05
5.52861e-05
5.5393e-05
5.55232e-05
5.56731e-05
5.58347e-05
5.6003e-05
5.61737e-05
5.63436e-05
5.65101e-05
5.66711e-05
5.68251e-05
5.69711e-05
5.7109e-05
5.72387e-05
5.73602e-05
5.74735e-05
5.75787e-05
5.76763e-05
5.77666e-05
5.785e-05
5.79272e-05
5.79991e-05
5.80672e-05
5.81328e-05
5.81968e-05
5.43616e-05
5.44442e-05
5.45119e-05
5.456e-05
5.45855e-05
5.45867e-05
5.45633e-05
5.45148e-05
5.44273e-05
5.43135e-05
5.41745e-05
5.40099e-05
5.38212e-05
5.36107e-05
5.3382e-05
5.31397e-05
5.28902e-05
5.26417e-05
5.2403e-05
5.21839e-05
5.19939e-05
5.18727e-05
5.18527e-05
5.19292e-05
5.20612e-05
5.22279e-05
5.2424e-05
5.26379e-05
5.28628e-05
5.30917e-05
5.33197e-05
5.35434e-05
5.37602e-05
5.39679e-05
5.41652e-05
5.43516e-05
5.45271e-05
5.46919e-05
5.48461e-05
5.49895e-05
5.51224e-05
5.52456e-05
5.53597e-05
5.54649e-05
5.55616e-05
5.56508e-05
5.57338e-05
5.58114e-05
5.58846e-05
5.5955e-05
5.16509e-05
5.1723e-05
5.17852e-05
5.18241e-05
5.18322e-05
5.18062e-05
5.17457e-05
5.16511e-05
5.15247e-05
5.13392e-05
5.11266e-05
5.08859e-05
5.06189e-05
5.03307e-05
5.00286e-05
4.97234e-05
4.94284e-05
4.91599e-05
4.89513e-05
4.88415e-05
4.88609e-05
4.89652e-05
4.91197e-05
4.93086e-05
4.95251e-05
4.97593e-05
5.00055e-05
5.02586e-05
5.05151e-05
5.07725e-05
5.1029e-05
5.12829e-05
5.15321e-05
5.1775e-05
5.20105e-05
5.22375e-05
5.2455e-05
5.26613e-05
5.2855e-05
5.30352e-05
5.32017e-05
5.33546e-05
5.34938e-05
5.36192e-05
5.37309e-05
5.38303e-05
5.39198e-05
5.39999e-05
5.40716e-05
5.41373e-05
4.93532e-05
4.91997e-05
4.91126e-05
4.90661e-05
4.90317e-05
4.89876e-05
4.89216e-05
4.88284e-05
4.8711e-05
4.85768e-05
4.84065e-05
4.82291e-05
4.8058e-05
4.79126e-05
4.78137e-05
4.77798e-05
4.78235e-05
4.79493e-05
4.8128e-05
4.83163e-05
4.84827e-05
4.86356e-05
4.87683e-05
4.88844e-05
4.89861e-05
4.90764e-05
4.91583e-05
4.92348e-05
4.93093e-05
4.93859e-05
4.94683e-05
4.95596e-05
4.96624e-05
4.9779e-05
4.99108e-05
5.00574e-05
5.02167e-05
5.03855e-05
5.05605e-05
5.07383e-05
5.09151e-05
5.10862e-05
5.12465e-05
5.13921e-05
5.15203e-05
5.16297e-05
5.17204e-05
5.17917e-05
5.18449e-05
5.18816e-05
5.13632e-05
5.03753e-05
4.95999e-05
4.90736e-05
4.87785e-05
4.86854e-05
4.87622e-05
4.89742e-05
4.92878e-05
4.967e-05
5.00893e-05
5.05139e-05
5.09262e-05
5.13056e-05
5.16359e-05
5.19046e-05
5.21103e-05
5.22649e-05
5.23774e-05
5.2455e-05
5.25059e-05
5.25337e-05
5.25362e-05
5.25085e-05
5.24457e-05
5.23439e-05
5.22024e-05
5.20234e-05
5.18117e-05
5.15731e-05
5.13136e-05
5.10394e-05
5.07579e-05
5.04763e-05
5.02004e-05
4.99339e-05
4.96811e-05
4.94471e-05
4.9237e-05
4.90548e-05
4.89027e-05
4.8779e-05
4.868e-05
4.86044e-05
4.85498e-05
4.85122e-05
4.84873e-05
4.84712e-05
4.84639e-05
4.84626e-05
5.94278e-05
5.87108e-05
5.81016e-05
5.75827e-05
5.71539e-05
5.68153e-05
5.65615e-05
5.63915e-05
5.63041e-05
5.63e-05
5.63696e-05
5.6487e-05
5.66272e-05
5.67665e-05
5.68877e-05
5.69829e-05
5.70543e-05
5.71042e-05
5.71299e-05
5.71287e-05
5.70975e-05
5.70368e-05
5.6952e-05
5.68487e-05
5.67311e-05
5.66032e-05
5.64676e-05
5.63258e-05
5.6177e-05
5.60179e-05
5.58465e-05
5.56659e-05
5.54798e-05
5.5285e-05
5.50715e-05
5.48288e-05
5.45555e-05
5.42609e-05
5.39505e-05
5.36212e-05
5.32652e-05
5.2875e-05
5.2445e-05
5.19705e-05
5.14473e-05
5.088e-05
5.02804e-05
4.96776e-05
4.91269e-05
4.87146e-05
6.13432e-05
6.11636e-05
6.0992e-05
6.08328e-05
6.06803e-05
6.0531e-05
6.03754e-05
6.0215e-05
6.0051e-05
5.98896e-05
5.9736e-05
5.95891e-05
5.94462e-05
5.93043e-05
5.91653e-05
5.90346e-05
5.89151e-05
5.88071e-05
5.87078e-05
5.86154e-05
5.85303e-05
5.84535e-05
5.83852e-05
5.83248e-05
5.82703e-05
5.82203e-05
5.81733e-05
5.81263e-05
5.8076e-05
5.802e-05
5.79582e-05
5.78958e-05
5.78404e-05
5.77908e-05
5.77383e-05
5.76745e-05
5.75954e-05
5.75085e-05
5.74222e-05
5.73385e-05
5.72601e-05
5.71786e-05
5.70956e-05
5.70077e-05
5.68992e-05
5.67707e-05
5.66181e-05
5.64483e-05
5.62348e-05
5.5954e-05
6.14305e-05
6.13539e-05
6.12788e-05
6.12049e-05
6.11315e-05
6.10574e-05
6.09816e-05
6.09044e-05
6.08269e-05
6.07496e-05
6.06728e-05
6.0596e-05
6.05195e-05
6.04435e-05
6.03687e-05
6.02954e-05
6.02234e-05
6.01525e-05
6.00825e-05
6.00133e-05
5.99454e-05
5.98794e-05
5.98152e-05
5.97523e-05
5.96903e-05
5.96292e-05
5.95688e-05
5.95084e-05
5.94471e-05
5.93854e-05
5.93244e-05
5.92657e-05
5.92095e-05
5.91539e-05
5.90961e-05
5.90354e-05
5.89732e-05
5.8911e-05
5.88488e-05
5.87858e-05
5.87231e-05
5.866e-05
5.85952e-05
5.85279e-05
5.84549e-05
5.8377e-05
5.82927e-05
5.82019e-05
5.81059e-05
5.80081e-05
6.14559e-05
6.14094e-05
6.13629e-05
6.13167e-05
6.12706e-05
6.1224e-05
6.11773e-05
6.113e-05
6.10822e-05
6.10341e-05
6.09856e-05
6.09368e-05
6.08884e-05
6.08406e-05
6.07931e-05
6.07459e-05
6.06986e-05
6.06511e-05
6.06037e-05
6.05567e-05
6.05101e-05
6.04639e-05
6.04179e-05
6.03722e-05
6.03267e-05
6.02815e-05
6.02362e-05
6.01906e-05
6.01444e-05
6.00979e-05
6.0052e-05
6.00068e-05
5.99619e-05
5.99166e-05
5.98705e-05
5.98237e-05
5.97769e-05
5.973e-05
5.96825e-05
5.96342e-05
5.95852e-05
5.95366e-05
5.94875e-05
5.94369e-05
5.93839e-05
5.93285e-05
5.92705e-05
5.92119e-05
5.91513e-05
5.90854e-05
6.14693e-05
6.14371e-05
6.14046e-05
6.1372e-05
6.13393e-05
6.13064e-05
6.12731e-05
6.12395e-05
6.12056e-05
6.11712e-05
6.11365e-05
6.11017e-05
6.10672e-05
6.1033e-05
6.09987e-05
6.09642e-05
6.09292e-05
6.08941e-05
6.0859e-05
6.0824e-05
6.07891e-05
6.07543e-05
6.07194e-05
6.06845e-05
6.06497e-05
6.06148e-05
6.05798e-05
6.05444e-05
6.05088e-05
6.04733e-05
6.04381e-05
6.04031e-05
6.03677e-05
6.03318e-05
6.02956e-05
6.02594e-05
6.02233e-05
6.01869e-05
6.01498e-05
6.01121e-05
6.00742e-05
6.00362e-05
5.99981e-05
5.99587e-05
5.99179e-05
5.98766e-05
5.9835e-05
5.97918e-05
5.97465e-05
5.96986e-05
6.14745e-05
6.14484e-05
6.14221e-05
6.1396e-05
6.13697e-05
6.13432e-05
6.13165e-05
6.12895e-05
6.12622e-05
6.12346e-05
6.1207e-05
6.11797e-05
6.11525e-05
6.11255e-05
6.10983e-05
6.10708e-05
6.10431e-05
6.10156e-05
6.09883e-05
6.09612e-05
6.09341e-05
6.0907e-05
6.08799e-05
6.08529e-05
6.08259e-05
6.07988e-05
6.07715e-05
6.07442e-05
6.07169e-05
6.06897e-05
6.06625e-05
6.0635e-05
6.06072e-05
6.05792e-05
6.05512e-05
6.05232e-05
6.04951e-05
6.04664e-05
6.04373e-05
6.0408e-05
6.03785e-05
6.03486e-05
6.03184e-05
6.02878e-05
6.02565e-05
6.02244e-05
6.01917e-05
6.01582e-05
6.01236e-05
6.00875e-05
6.14816e-05
6.14627e-05
6.14438e-05
6.14247e-05
6.14054e-05
6.1386e-05
6.13664e-05
6.13468e-05
6.13271e-05
6.13073e-05
6.12875e-05
6.12679e-05
6.12482e-05
6.12284e-05
6.12082e-05
6.11879e-05
6.11674e-05
6.11471e-05
6.11267e-05
6.11062e-05
6.10857e-05
6.1065e-05
6.10442e-05
6.10234e-05
6.10024e-05
6.09813e-05
6.09602e-05
6.0939e-05
6.09177e-05
6.08963e-05
6.08748e-05
6.0853e-05
6.08313e-05
6.08096e-05
6.07879e-05
6.07661e-05
6.07442e-05
6.07222e-05
6.07e-05
6.06779e-05
6.06555e-05
6.06331e-05
6.06101e-05
6.05867e-05
6.05629e-05
6.05386e-05
6.0514e-05
6.04888e-05
6.04628e-05
6.04356e-05
6.14812e-05
6.1462e-05
6.14427e-05
6.14232e-05
6.14035e-05
6.13837e-05
6.13639e-05
6.13441e-05
6.13243e-05
6.13043e-05
6.12845e-05
6.12648e-05
6.12449e-05
6.12247e-05
6.12043e-05
6.11838e-05
6.11635e-05
6.11432e-05
6.11229e-05
6.11025e-05
6.1082e-05
6.10616e-05
6.10411e-05
6.10205e-05
6.09999e-05
6.09792e-05
6.09585e-05
6.09377e-05
6.09167e-05
6.08955e-05
6.08742e-05
6.0853e-05
6.08319e-05
6.08107e-05
6.07895e-05
6.07681e-05
6.07469e-05
6.07257e-05
6.07045e-05
6.0683e-05
6.06613e-05
6.06394e-05
6.06175e-05
6.05956e-05
6.05738e-05
6.05519e-05
6.05302e-05
6.05085e-05
6.04867e-05
6.04646e-05
6.14883e-05
6.14781e-05
6.14664e-05
6.14546e-05
6.14428e-05
6.14309e-05
6.14191e-05
6.14072e-05
6.13953e-05
6.13834e-05
6.13716e-05
6.13598e-05
6.1348e-05
6.1336e-05
6.13241e-05
6.13124e-05
6.13008e-05
6.12893e-05
6.12779e-05
6.12665e-05
6.12552e-05
6.12439e-05
6.12326e-05
6.12213e-05
6.12101e-05
6.11991e-05
6.11881e-05
6.11772e-05
6.11663e-05
6.11555e-05
6.11448e-05
6.11341e-05
6.11234e-05
6.11127e-05
6.1102e-05
6.10913e-05
6.10808e-05
6.10703e-05
6.10597e-05
6.10489e-05
6.10379e-05
6.10269e-05
6.10159e-05
6.10047e-05
6.09934e-05
6.09818e-05
6.09699e-05
6.09575e-05
6.09445e-05
6.09303e-05
6.22682e-05
6.30782e-05
6.38946e-05
6.4705e-05
6.55023e-05
6.62828e-05
6.70477e-05
6.78018e-05
6.85518e-05
6.93044e-05
7.00651e-05
7.08385e-05
7.16279e-05
7.24353e-05
7.32619e-05
7.41079e-05
7.49726e-05
7.58548e-05
7.67527e-05
7.76644e-05
7.85875e-05
7.95196e-05
8.04583e-05
8.14018e-05
8.23483e-05
8.32961e-05
8.42438e-05
8.51898e-05
8.61328e-05
8.70714e-05
8.80047e-05
8.89314e-05
8.98506e-05
9.07614e-05
9.16633e-05
9.25551e-05
9.34354e-05
9.43022e-05
9.51538e-05
9.59883e-05
9.68036e-05
9.75969e-05
9.83645e-05
9.91021e-05
9.9804e-05
0.000100464
0.000101073
0.000101621
0.000102095
0.000102491
0.000272578
0.000269235
0.000266026
0.000262941
0.000259967
0.000257091
0.000254297
0.000251581
0.000248939
0.000246367
0.000243863
0.000241423
0.000239044
0.000236725
0.000234463
0.000232256
0.000230102
0.000228001
0.00022595
0.000223949
0.000221996
0.000220091
0.000218232
0.00021642
0.000214653
0.000212929
0.000211247
0.000209604
0.000207999
0.000206431
0.000204898
0.0002034
0.000201936
0.000200506
0.00019911
0.000197749
0.000196421
0.000195127
0.000193864
0.00019263
0.000191416
0.000190219
0.000189036
0.000187864
0.0001867
0.000185539
0.000184376
0.0001832
0.000181995
0.000180728
0.000270636
0.000264462
0.000258554
0.000252891
0.000247474
0.000242295
0.000237351
0.000232624
0.000228102
0.000223768
0.000219612
0.00021562
0.000211783
0.000208091
0.000204535
0.000201109
0.000197804
0.000194616
0.000191538
0.000188566
0.000185696
0.000182925
0.000180248
0.000177661
0.000175158
0.000172735
0.000170387
0.000168107
0.000165894
0.000163742
0.00016165
0.000159616
0.000157638
0.000155716
0.000153847
0.000152028
0.000150257
0.000148529
0.000146839
0.000145183
0.000143568
0.00014199
0.000140449
0.00013894
0.000137464
0.000136018
0.000134599
0.000133202
0.000131818
0.000130446
0.000270626
0.000264428
0.000258478
0.000252779
0.000247321
0.000242095
0.000237087
0.000232286
0.000227677
0.000223248
0.000218988
0.000214886
0.000210933
0.000207121
0.000203442
0.000199888
0.000196454
0.000193135
0.000189924
0.000186819
0.000183815
0.000180908
0.000178094
0.00017537
0.00017273
0.00017017
0.000167686
0.000165274
0.000162929
0.000160648
0.00015843
0.000156273
0.000154175
0.000152135
0.000150151
0.000148223
0.000146348
0.000144523
0.000142746
0.000141013
0.000139322
0.000137672
0.00013606
0.000134484
0.000132944
0.00013144
0.000129976
0.000128553
0.000127162
0.000125785
0.000270626
0.000264471
0.000258575
0.000252929
0.000247519
0.000242333
0.000237358
0.000232581
0.000227989
0.000223572
0.000219319
0.00021522
0.000211267
0.000207452
0.000203769
0.00020021
0.000196769
0.000193442
0.000190223
0.000187108
0.000184093
0.000181174
0.000178347
0.000175609
0.000172955
0.000170381
0.000167882
0.000165455
0.000163095
0.000160801
0.00015857
0.0001564
0.000154289
0.000152236
0.000150241
0.0001483
0.000146412
0.000144575
0.000142785
0.00014104
0.000139337
0.000137674
0.00013605
0.000134462
0.000132908
0.000131388
0.000129902
0.000128458
0.000127058
0.000125684
0.000270625
0.000264471
0.000258573
0.000252921
0.000247504
0.000242309
0.000237325
0.000232539
0.00022794
0.000223516
0.000219258
0.000215155
0.000211201
0.000207387
0.000203705
0.000200149
0.000196713
0.000193391
0.000190177
0.000187068
0.000184058
0.000181144
0.000178323
0.000175589
0.000172938
0.000170368
0.000167872
0.000165449
0.000163093
0.000160803
0.000158576
0.000156411
0.000154304
0.000152256
0.000150265
0.000148328
0.000146444
0.000144609
0.000142822
0.000141079
0.000139378
0.000137716
0.000136093
0.000134506
0.000132955
0.000131438
0.000129953
0.000128501
0.000127091
0.000125716
0.000270625
0.000264473
0.000258583
0.000252942
0.000247538
0.000242356
0.000237385
0.00023261
0.000228021
0.000223605
0.000219354
0.000215257
0.000211308
0.000207498
0.000203821
0.00020027
0.000196838
0.00019352
0.000190309
0.000187201
0.000184193
0.000181279
0.000178456
0.00017572
0.000173068
0.000170494
0.000167996
0.00016557
0.000163213
0.000160921
0.000158692
0.000156525
0.000154417
0.000152367
0.000150374
0.000148435
0.000146548
0.000144711
0.000142921
0.000141175
0.00013947
0.000137804
0.000136175
0.000134582
0.000133025
0.000131503
0.000130015
0.000128558
0.000127138
0.000125753
0.000270624
0.000264472
0.000258584
0.000252946
0.000247544
0.000242363
0.00023739
0.000232612
0.000228018
0.000223596
0.000219339
0.000215238
0.000211284
0.000207471
0.000203792
0.00020024
0.000196807
0.000193489
0.000190279
0.000187172
0.000184163
0.000181249
0.000178425
0.000175688
0.000173035
0.00017046
0.000167962
0.000165536
0.000163179
0.000160889
0.000158662
0.000156496
0.000154391
0.000152343
0.000150351
0.000148414
0.00014653
0.000144694
0.000142905
0.000141159
0.000139455
0.000137789
0.00013616
0.000134566
0.000133006
0.000131481
0.000129992
0.000128535
0.000127111
0.000125722
0.000270624
0.00026447
0.000258585
0.000252951
0.000247552
0.000242375
0.000237405
0.000232629
0.000228036
0.000223616
0.00021936
0.000215259
0.000211307
0.000207497
0.000203822
0.000200273
0.000196845
0.000193531
0.000190324
0.000187219
0.000184212
0.000181298
0.000178474
0.000175736
0.000173082
0.000170506
0.000168007
0.00016558
0.000163223
0.000160933
0.000158706
0.000156541
0.000154435
0.000152387
0.000150396
0.000148458
0.000146572
0.000144735
0.000142944
0.000141197
0.000139489
0.00013782
0.000136188
0.00013459
0.000133025
0.000131495
0.00013
0.000128538
0.000127109
0.000125713
0.000270623
0.000264468
0.000258584
0.000252953
0.000247557
0.000242382
0.000237412
0.000232635
0.00022804
0.000223617
0.000219357
0.000215254
0.0002113
0.000207489
0.000203813
0.000200265
0.000196837
0.000193523
0.000190316
0.000187211
0.000184203
0.000181287
0.000178461
0.000175721
0.000173064
0.000170487
0.000167986
0.000165559
0.000163202
0.000160912
0.000158685
0.000156521
0.000154417
0.00015237
0.000150379
0.000148442
0.000146556
0.000144719
0.000142928
0.000141179
0.00013947
0.000137799
0.000136164
0.000134564
0.000132998
0.000131465
0.000129967
0.000128502
0.00012707
0.00012567
0.000270622
0.000264466
0.000258584
0.000252954
0.000247561
0.000242387
0.000237418
0.000232641
0.000228045
0.00022362
0.000219359
0.000215255
0.000211301
0.000207491
0.000203816
0.00020027
0.000196845
0.000193533
0.000190328
0.000187223
0.000184215
0.000181299
0.000178472
0.00017573
0.000173072
0.000170493
0.000167992
0.000165564
0.000163207
0.000160918
0.000158693
0.00015653
0.000154426
0.00015238
0.000150389
0.000148451
0.000146565
0.000144727
0.000142934
0.000141184
0.000139473
0.000137799
0.000136161
0.000134558
0.000132988
0.000131452
0.000129949
0.00012848
0.000127044
0.000125638
0.000270621
0.000264464
0.000258583
0.000252956
0.000247564
0.000242391
0.000237422
0.000232644
0.000228046
0.000223619
0.000219356
0.000215251
0.000211297
0.000207488
0.000203814
0.00020027
0.000196846
0.000193535
0.00019033
0.000187225
0.000184216
0.000181298
0.000178469
0.000175726
0.000173065
0.000170486
0.000167983
0.000165556
0.0001632
0.000160911
0.000158687
0.000156525
0.000154422
0.000152376
0.000150385
0.000148446
0.000146559
0.000144719
0.000142925
0.000141173
0.00013946
0.000137784
0.000136144
0.000134538
0.000132965
0.000131426
0.00012992
0.000128447
0.000127006
0.000125597
0.000270621
0.000264462
0.000258582
0.000252956
0.000247566
0.000242393
0.000237423
0.000232643
0.000228043
0.000223614
0.00021935
0.000215244
0.000211289
0.00020748
0.000203807
0.000200263
0.000196839
0.000193528
0.000190323
0.000187217
0.000184206
0.000181286
0.000178454
0.000175708
0.000173046
0.000170465
0.000167962
0.000165535
0.000163179
0.000160892
0.00015867
0.000156509
0.000154406
0.00015236
0.000150368
0.000148429
0.000146541
0.0001447
0.000142904
0.000141151
0.000139437
0.00013776
0.000136118
0.000134509
0.000132935
0.000131393
0.000129885
0.000128409
0.000126964
0.00012555
0.00027062
0.000264461
0.000258581
0.000252956
0.000247566
0.000242393
0.000237422
0.000232642
0.000228041
0.000223612
0.000219348
0.000215243
0.00021129
0.000207482
0.000203812
0.00020027
0.000196848
0.000193539
0.000190334
0.000187228
0.000184216
0.000181295
0.000178462
0.000175715
0.000173051
0.00017047
0.000167968
0.000165541
0.000163187
0.000160901
0.00015868
0.000156519
0.000154416
0.000152369
0.000150376
0.000148435
0.000146544
0.000144702
0.000142904
0.000141148
0.000139432
0.000137752
0.000136108
0.000134497
0.000132919
0.000131374
0.000129861
0.000128381
0.000126931
0.000125511
0.000270619
0.00026446
0.000258579
0.000252953
0.000247562
0.000242386
0.000237413
0.000232628
0.000228024
0.000223591
0.000219324
0.000215216
0.000211261
0.000207451
0.000203779
0.000200235
0.000196811
0.000193499
0.000190292
0.000187183
0.000184168
0.000181244
0.000178409
0.000175659
0.000172995
0.000170413
0.000167911
0.000165485
0.000163133
0.000160849
0.000158629
0.000156469
0.000154367
0.000152319
0.000150326
0.000148384
0.000146492
0.000144649
0.000142851
0.000141095
0.000139379
0.0001377
0.000136055
0.000134444
0.000132865
0.000131319
0.000129804
0.000128321
0.000126868
0.000125445
0.000270619
0.000264459
0.000258577
0.000252951
0.000247559
0.000242384
0.000237412
0.00023263
0.000228028
0.000223599
0.000219335
0.000215231
0.00021128
0.000207474
0.000203805
0.000200263
0.000196841
0.00019353
0.000190323
0.000187213
0.000184197
0.000181271
0.000178434
0.000175683
0.000173018
0.000170435
0.000167933
0.000165508
0.000163156
0.000160872
0.000158651
0.000156489
0.000154385
0.000152335
0.000150338
0.000148392
0.000146498
0.000144651
0.00014285
0.000141092
0.000139373
0.000137691
0.000136043
0.000134429
0.000132846
0.000131295
0.000129776
0.000128286
0.000126827
0.000125397
0.000270619
0.000264456
0.000258567
0.000252931
0.000247528
0.000242341
0.000237356
0.000232561
0.000227948
0.000223509
0.000219238
0.000215127
0.00021117
0.000207359
0.000203686
0.000200141
0.000196716
0.000193402
0.000190192
0.00018708
0.000184062
0.000181135
0.000178297
0.000175547
0.000172882
0.000170302
0.000167802
0.000165381
0.000163031
0.00016075
0.000158531
0.000156371
0.000154268
0.000152219
0.000150222
0.000148278
0.000146384
0.000144539
0.00014274
0.000140983
0.000139266
0.000137585
0.000135939
0.000134326
0.000132744
0.000131193
0.000129672
0.000128182
0.000126721
0.00012529
0.000270619
0.000264456
0.000258569
0.000252939
0.000247545
0.000242367
0.00023739
0.000232604
0.000227998
0.000223565
0.000219297
0.000215189
0.000211233
0.000207422
0.000203747
0.0002002
0.00019677
0.000193451
0.000190236
0.000187118
0.000184094
0.000181161
0.000178317
0.000175562
0.000172893
0.000170309
0.000167806
0.00016538
0.000163027
0.000160741
0.000158518
0.000156353
0.000154245
0.000152191
0.00015019
0.000148241
0.000146344
0.000144495
0.000142693
0.000140933
0.000139214
0.000137532
0.000135884
0.000134269
0.000132686
0.000131134
0.000129614
0.000128124
0.000126667
0.00012524
0.000270619
0.000264411
0.000258471
0.000252789
0.000247347
0.000242128
0.00023712
0.000232309
0.000227685
0.00022324
0.000218965
0.000214854
0.000210898
0.000207089
0.000203418
0.000199876
0.000196454
0.000193143
0.000189936
0.000186828
0.000183815
0.000180895
0.000178064
0.000175323
0.000172669
0.000170101
0.000167614
0.000165205
0.000162868
0.000160599
0.000158392
0.000156244
0.000154153
0.000152117
0.000150135
0.000148206
0.00014633
0.000144503
0.000142724
0.00014099
0.000139298
0.000137645
0.000136029
0.00013445
0.000132906
0.000131398
0.000129928
0.000128499
0.000127114
0.00012578
0.000270628
0.000264442
0.000258542
0.000252897
0.000247494
0.000242324
0.000237379
0.000232643
0.000228105
0.000223755
0.000219583
0.000215582
0.000211742
0.000208054
0.000204509
0.000201097
0.000197807
0.000194631
0.000191562
0.000188593
0.00018572
0.000182939
0.000180248
0.000177647
0.000175134
0.000172707
0.000170363
0.000168097
0.000165905
0.000163782
0.000161721
0.000159721
0.000157778
0.000155891
0.000154059
0.000152283
0.000150562
0.000148894
0.000147279
0.000145713
0.000144195
0.000142722
0.000141293
0.00013991
0.000138573
0.000137287
0.000136058
0.000134899
0.000133826
0.000132876
0.00027258
0.000269231
0.000266024
0.000262946
0.000259979
0.000257104
0.000254307
0.000251584
0.000248933
0.000246352
0.000243839
0.000241393
0.000239012
0.000236692
0.000234431
0.000232225
0.000230072
0.000227969
0.000225914
0.000223908
0.000221949
0.000220038
0.000218174
0.000216358
0.000214588
0.000212863
0.000211182
0.00020954
0.000207937
0.000206369
0.000204834
0.000203331
0.00020186
0.000200421
0.000199013
0.000197635
0.000196286
0.000194965
0.000193669
0.000192396
0.000191144
0.00018991
0.000188695
0.000187495
0.000186311
0.000185142
0.000183987
0.000182845
0.000181712
0.000180585
0.000117112
5.89119e-05
4.79213e-05
4.63724e-05
4.55654e-05
4.48681e-05
4.41569e-05
4.34754e-05
4.28185e-05
4.22207e-05
4.17683e-05
4.16987e-05
4.25414e-05
4.5343e-05
5.16167e-05
6.25756e-05
7.75868e-05
9.48051e-05
0.000116737
0.000175565
0.00011823
5.9645e-05
4.8206e-05
4.66148e-05
4.58134e-05
4.51415e-05
4.44472e-05
4.37858e-05
4.3138e-05
4.25251e-05
4.1984e-05
4.1627e-05
4.17397e-05
4.2978e-05
4.65369e-05
5.39366e-05
6.55323e-05
7.89378e-05
8.9945e-05
9.42179e-05
0.000119322
6.03764e-05
4.84913e-05
4.68568e-05
4.60584e-05
4.54087e-05
4.47302e-05
4.40903e-05
4.34549e-05
4.28477e-05
4.22785e-05
4.18033e-05
4.15669e-05
4.19654e-05
4.3864e-05
4.87946e-05
5.82587e-05
7.19033e-05
8.65176e-05
9.88896e-05
0.000120402
6.10967e-05
4.87773e-05
4.70963e-05
4.62995e-05
4.56713e-05
4.50043e-05
4.43845e-05
4.376e-05
4.31642e-05
4.25894e-05
4.20737e-05
4.16788e-05
4.16372e-05
4.25371e-05
4.56633e-05
5.29862e-05
6.58503e-05
8.26254e-05
0.000101488
0.000121442
6.17966e-05
4.90598e-05
4.73332e-05
4.65355e-05
4.59314e-05
4.52735e-05
4.46695e-05
4.40529e-05
4.34685e-05
4.2897e-05
4.23665e-05
4.19044e-05
4.16388e-05
4.19605e-05
4.38629e-05
4.93609e-05
6.09848e-05
7.89341e-05
0.000103166
0.000122436
6.24679e-05
4.93382e-05
4.75687e-05
4.67638e-05
4.61819e-05
4.55297e-05
4.49428e-05
4.43352e-05
4.37581e-05
4.31963e-05
4.26636e-05
4.21708e-05
4.17913e-05
4.17777e-05
4.28784e-05
4.69448e-05
5.7185e-05
7.56783e-05
0.000104382
0.000123373
6.31074e-05
4.961e-05
4.78016e-05
4.69927e-05
4.64323e-05
4.57816e-05
4.52059e-05
4.46085e-05
4.40396e-05
4.34831e-05
4.29522e-05
4.24471e-05
4.20064e-05
4.18048e-05
4.23723e-05
4.53706e-05
5.42654e-05
7.2875e-05
0.000105314
0.000124244
6.37126e-05
4.98786e-05
4.80334e-05
4.72137e-05
4.66712e-05
4.6026e-05
4.54605e-05
4.48689e-05
4.43126e-05
4.37619e-05
4.32296e-05
4.27226e-05
4.22427e-05
4.19361e-05
4.21551e-05
4.4367e-05
5.20497e-05
7.05149e-05
0.00010606
0.000125055
6.42829e-05
5.01387e-05
4.82627e-05
4.74367e-05
4.69083e-05
4.62664e-05
4.57105e-05
4.51216e-05
4.45735e-05
4.40275e-05
4.34951e-05
4.29849e-05
4.24855e-05
4.21191e-05
4.21043e-05
4.37418e-05
5.03709e-05
6.85349e-05
0.000106668
0.000125811
6.48238e-05
5.03993e-05
4.84887e-05
4.76532e-05
4.71388e-05
4.64981e-05
4.59506e-05
4.53654e-05
4.48263e-05
4.42808e-05
4.37504e-05
4.32429e-05
4.27254e-05
4.23264e-05
4.21536e-05
4.33726e-05
4.91048e-05
6.68755e-05
0.000107165
0.000126511
6.53281e-05
5.06529e-05
4.87094e-05
4.78644e-05
4.73667e-05
4.6726e-05
4.61916e-05
4.56033e-05
4.50709e-05
4.45292e-05
4.39939e-05
4.34916e-05
4.29613e-05
4.25438e-05
4.22562e-05
4.31699e-05
4.81494e-05
6.54858e-05
0.000107578
0.000127158
6.57988e-05
5.09023e-05
4.8928e-05
4.80687e-05
4.75904e-05
4.69447e-05
4.64262e-05
4.58396e-05
4.53089e-05
4.47678e-05
4.42285e-05
4.373e-05
4.31892e-05
4.27628e-05
4.23902e-05
4.3076e-05
4.74249e-05
6.43196e-05
0.000107929
0.000127753
6.62392e-05
5.11437e-05
4.91504e-05
4.82762e-05
4.78154e-05
4.71666e-05
4.66564e-05
4.60705e-05
4.554e-05
4.50017e-05
4.44583e-05
4.39603e-05
4.34112e-05
4.29822e-05
4.25461e-05
4.30606e-05
4.6882e-05
6.33449e-05
0.000108245
0.000128293
6.66548e-05
5.13841e-05
4.93695e-05
4.84907e-05
4.80409e-05
4.73919e-05
4.68863e-05
4.63008e-05
4.57666e-05
4.5227e-05
4.46797e-05
4.41851e-05
4.36278e-05
4.31992e-05
4.27148e-05
4.31013e-05
4.64828e-05
6.25359e-05
0.00010854
0.000128792
6.7045e-05
5.16276e-05
4.95929e-05
4.8712e-05
4.82681e-05
4.76196e-05
4.71145e-05
4.65251e-05
4.59901e-05
4.54507e-05
4.48992e-05
4.44094e-05
4.38445e-05
4.34186e-05
4.28953e-05
4.31848e-05
4.62009e-05
6.18815e-05
0.00010882
0.000129266
6.74176e-05
5.18701e-05
4.98203e-05
4.89327e-05
4.84933e-05
4.78408e-05
4.73352e-05
4.6742e-05
4.6206e-05
4.56702e-05
4.51181e-05
4.46335e-05
4.40622e-05
4.36401e-05
4.30864e-05
4.33009e-05
4.60147e-05
6.13696e-05
0.000109083
0.000129707
6.77711e-05
5.21087e-05
5.00453e-05
4.91499e-05
4.87133e-05
4.80569e-05
4.75501e-05
4.69569e-05
4.64196e-05
4.58878e-05
4.53373e-05
4.48579e-05
4.4279e-05
4.38606e-05
4.32827e-05
4.34393e-05
4.59039e-05
6.09758e-05
0.000109328
0.000130107
6.80979e-05
5.23439e-05
5.02648e-05
4.93633e-05
4.89275e-05
4.82662e-05
4.77615e-05
4.71709e-05
4.66363e-05
4.61086e-05
4.55586e-05
4.50835e-05
4.44968e-05
4.40811e-05
4.34817e-05
4.35931e-05
4.5852e-05
6.0674e-05
0.00010955
0.000130475
6.84021e-05
5.25727e-05
5.04803e-05
4.95711e-05
4.9139e-05
4.84737e-05
4.79743e-05
4.73875e-05
4.68567e-05
4.63318e-05
4.57795e-05
4.53064e-05
4.4713e-05
4.42995e-05
4.36817e-05
4.37573e-05
4.58432e-05
6.044e-05
0.000109753
0.000130798
6.86854e-05
5.27937e-05
5.0694e-05
4.97793e-05
4.93506e-05
4.86865e-05
4.81937e-05
4.76106e-05
4.70813e-05
4.65578e-05
4.59998e-05
4.55263e-05
4.4926e-05
4.45135e-05
4.38814e-05
4.39275e-05
4.58648e-05
6.02552e-05
0.000109942
0.00013109
6.89541e-05
5.3012e-05
5.09066e-05
4.99908e-05
4.95673e-05
4.89067e-05
4.84188e-05
4.78375e-05
4.73075e-05
4.67836e-05
4.62179e-05
4.57441e-05
4.51368e-05
4.47242e-05
4.4081e-05
4.41022e-05
4.59119e-05
6.01118e-05
0.000110126
0.000131362
6.92121e-05
5.32309e-05
5.11211e-05
5.02057e-05
4.979e-05
4.91331e-05
4.86476e-05
4.80654e-05
4.75325e-05
4.70054e-05
4.64331e-05
4.59596e-05
4.53464e-05
4.49344e-05
4.4282e-05
4.42828e-05
4.59839e-05
6.00116e-05
0.000110312
0.000131617
6.94622e-05
5.34513e-05
5.13402e-05
5.04256e-05
5.00171e-05
4.93626e-05
4.88756e-05
4.82918e-05
4.7754e-05
4.72239e-05
4.66475e-05
4.61742e-05
4.55574e-05
4.51472e-05
4.44871e-05
4.4472e-05
4.60818e-05
5.99609e-05
0.000110507
0.000131855
6.97058e-05
5.36717e-05
5.1562e-05
5.065e-05