/*--------------------------------*- C++ -*----------------------------------*\
  =========                 |
  \\      /  F ield         | OpenFOAM: The Open Source CFD Toolbox
   \\    /   O peration     | Website:  https://openfoam.org
    \\  /    A nd           | Version:  8
     \\/     M anipulation  |
\*---------------------------------------------------------------------------*/
FoamFile
{
    version     2.0;
    format      ascii;
    class       volScalarField;
    location    "300";
    object      p;
}
// * * * * * * * * * * * * * * * * * * * * * * * * * * * * * * * * * * * * * //

dimensions      [1 -1 -2 0 0 0 0];

internalField   nonuniform List<scalar> 
8400
(
20691.8
34968.2
48718.3
61576.7
73460.6
84337.5
94252.1
103286
111541
119123
126141
132709
138965
145035
151044
157088
163240
169571
176148
183038
190277
197871
205800
214035
222542
231271
240151
249102
258048
266926
275688
284291
292665
300752
308526
316015
323279
330390
337414
344418
351477
358701
366284
374568
384052
395256
408765
426426
453126
492165
19342.2
33135.8
46859
59736.4
71569.8
82292.6
91959.5
100702
108656
115926
122630
128898
134883
140728
146551
152443
158481
164745
171315
178249
185570
193268
201314
209674
218300
227121
236042
244968
253819
262521
271010
279281
287311
295049
302487
309640
316540
323223
329726
336087
342347
348562
354836
361370
368460
376395
385462
396442
411253
431521
23214.8
38405.2
52840.8
66087.2
78153.1
89038.6
98811.3
107638
115660
122967
129676
135933
141889
147681
153421
159204
165125
171277
177748
184598
191846
199492
207530
215943
224690
233703
242900
252208
261573
270923
280171
289145
297729
305909
313715
321203
328437
335485
342418
349303
356201
363175
370320
377799
385839
394696
404636
416013
429175
443646
19792.2
34336.5
48932.9
62429.4
74601.4
85396.8
94872
103155
110482
117102
123168
128835
134255
139569
144896
150343
156025
162039
168458
175318
182624
190360
198503
207008
215797
224768
233806
242836
251840
260816
269671
278238
286444
294250
301660
308694
315388
321787
327943
333904
339710
345404
351043
356728
362612
368905
375860
383694
392405
401787
24978.1
41821
57494.5
71459.2
83797.9
94583.2
103942
112036
119171
125613
131516
137025
142282
147427
152592
157911
163508
169489
175923
182853
190299
198265
206739
215686
225050
234747
244656
254678
264571
274075
283088
291627
299725
307425
314767
321786
328517
334998
341262
347345
353275
359075
364762
370359
375919
381535
387326
393327
399386
405277
21561.3
38216.8
54368.8
68740.9
81232.9
91938.7
101042
108751
115282
120972
126162
131022
135696
140333
145078
150075
155446
161284
167642
174543
181993
189954
198377
207209
216402
225972
235820
245634
255211
264445
273263
281665
289659
297263
304491
311357
317880
324083
329997
335661
341118
346400
351521
356486
361310
366040
370722
375305
379565
383425
26386.7
45633.3
62863.3
77483
89780.9
100064
108651
115843
121872
127123
131947
136507
140940
145396
150033
155003
160442
166453
173102
180434
188489
197219
206605
216565
226798
236920
246732
256179
265259
273997
282406
290498
298274
305731
312860
319650
326096
332202
337988
343485
348724
353727
358497
363026
367300
371318
375082
378525
381475
383857
24308.4
44362.6
62271.5
77123.7
89307.2
99290.9
107516
114360
120113
124948
129178
133202
137214
141353
145760
150572
155915
161891
168543
175889
184062
193081
202633
212402
222181
231827
241237
250390
259282
267916
276282
284369
292163
299647
306804
313619
320087
326212
332013
337511
342729
347683
352379
356802
360924
364706
368108
371040
373342
374994
28108.8
50983.4
69536.5
84045.4
95517.5
104703
112160
118319
123504
127951
131858
135597
139489
143653
148209
153290
159069
165724
173280
181601
190380
199398
208557
217751
226945
236106
245197
254182
263015
271650
280044
288159
295967
303445
310573
317340
323741
329782
335470
340819
345841
350554
354968
359078
362861
366280
369288
371803
373677
374866
28635.9
53223.1
71578.5
85368.4
96062.2
104560
111438
117116
121932
126172
130084
133860
137757
142062
146965
152589
158951
165948
173478
181439
189688
198137
206757
215531
224444
233459
242515
251533
260431
269132
277576
285720
293539
301014
308136
314905
321325
327400
333134
338535
343612
348384
352862
357045
360915
364442
367570
370205
372175
373379
31688.1
57733.1
75080.9
88101.6
98306.7
106500
113192
118759
123513
127729
131653
135513
139526
143887
148738
154174
160234
166898
174108
181782
189830
198184
206800
215638
224651
233776
242935
252043
261018
269785
278286
286478
294331
301825
308951
315711
322111
328157
333855
339218
344264
349010
353470
357642
361511
365041
368165
370768
372671
373737
27964.3
54365.4
73168
86741.6
97293.8
105770
112672
118393
123264
127567
131556
135466
139517
143907
148790
154271
160401
167175
174541
182408
190669
199223
207986
216891
225881
234903
243904
252830
261625
270238
278623
286739
294555
302044
309190
315982
322416
328489
334206
339581
344635
349387
353851
358030
361911
365457
368599
371228
373184
374309
15477.7
44956.8
67510.2
82629.6
93861.7
102825
110097
116083
121149
125608
129730
133755
137901
142360
147280
152763
158852
165542
172783
180493
188578
196943
205506
214199
222967
231763
240546
249277
257916
266425
274767
282905
290804
298427
305746
312731
319356
325604
331470
336962
342098
346896
351377
355551
359410
362916
366001
368563
370452
371742
13544.8
38102.5
63377.1
81187.4
93922.7
104063
112447
119434
125368
130576
135333
139870
144402
149125
154200
159744
165816
172419
179512
187030
194900
203050
211415
219940
228572
237263
245964
254623
263190
271619
279872
287914
295716
303251
310491
317407
323967
330149
335942
341346
346365
351012
355299
359233
362780
365856
368325
370120
371451
372409
-13518.3
11834.1
40700.2
61068.6
75196.7
86389
95851.2
103916
110902
117154
122944
128471
133911
139432
145182
151275
157772
164680
171964
179573
187444
195520
203753
212109
220565
229094
237658
246206
254678
263017
271175
279114
286808
294238
301384
308228
314751
320934
326758
332198
337235
341860
346096
349985
353474
356558
359369
361878
363892
365177
4155.13
18660.3
48711.8
72313.3
88541.2
101423
112489
121850
129675
136318
142127
147387
152344
157214
162188
167415
172997
178984
185391
192198
199348
206765
214379
222150
230064
238119
246303
254584
262902
271181
279336
287287
294972
302349
309401
316133
322557
328669
334442
339817
344717
349015
352644
355716
358439
360844
362767
364049
364565
364151
-51797.3
-28305.5
5544.51
29255.3
45548.7
59870.5
73899.8
87218.3
99312.2
110068
119595
128084
135750
142806
149444
155836
162151
168564
175205
182148
189395
196879
204503
212191
219911
227671
235511
243462
251518
259621
267666
275523
283071
290237
297005
303422
309554
315464
321182
326669
331862
336715
341181
345120
348432
351014
352735
353476
353082
351111
-4720.25
4749.91
36291.1
60310.9
75707
88356.3
100872
112876
123723
133233
141520
148821
155406
161504
167265
172782
178149
183522
189085
195010
201394
208198
215271
222462
229669
236853
244081
251464
259056
266829
274676
282407
289811
296731
303116
309022
314562
319863
325000
329944
334587
338795
342409
345268
347230
348184
348017
346563
343635
339114
-94785.2
-54373.7
-21305.8
1537.18
22986
45212
67065.4
87158.7
104673
119391
131528
141537
149953
157255
163774
169682
175081
180108
185039
190208
195882
202146
208877
215803
222674
229410
236112
242988
250242
257932
265926
273963
281745
289034
295722
301860
307596
313098
318434
323585
328433
332811
336523
339372
341201
341847
341115
338641
333657
323649
19364.2
5820.7
1699.13
5106.59
16329.5
34286.4
56230.8
79047
100397
119032
134581
147231
157470
165864
172881
178825
183899
188328
192446
196662
201331
206614
212423
218496
224558
230484
236349
242373
248787
255696
263006
270460
277731
284542
290759
296399
301610
306556
311335
315917
320162
323842
326708
328504
329005
327959
325058
319829
311507
299104
2.8979e+06
2.89738e+06
2.89713e+06
2.89704e+06
2.89699e+06
2.89696e+06
2.89694e+06
2.89693e+06
2.89693e+06
2.89693e+06
2.89694e+06
2.89694e+06
2.89694e+06
2.89694e+06
2.89695e+06
2.89695e+06
2.89696e+06
2.89696e+06
2.89697e+06
2.89698e+06
2.897e+06
2.89701e+06
2.89702e+06
2.89703e+06
2.89704e+06
2.89705e+06
2.89706e+06
2.89706e+06
2.89707e+06
2.89707e+06
2.89707e+06
2.89706e+06
2.89706e+06
2.89706e+06
2.89706e+06
2.89706e+06
2.89706e+06
2.89706e+06
2.89706e+06
2.89706e+06
2.89706e+06
2.89705e+06
2.89705e+06
2.89705e+06
2.89704e+06
2.89704e+06
2.89702e+06
2.897e+06
2.89696e+06
2.89689e+06
2.8962e+06
2.89649e+06
2.89658e+06
2.89662e+06
2.89665e+06
2.89668e+06
2.8967e+06
2.89672e+06
2.89674e+06
2.89675e+06
2.89677e+06
2.89678e+06
2.89679e+06
2.8968e+06
2.89681e+06
2.89682e+06
2.89683e+06
2.89684e+06
2.89685e+06
2.89686e+06
2.89687e+06
2.89689e+06
2.8969e+06
2.89692e+06
2.89693e+06
2.89694e+06
2.89695e+06
2.89695e+06
2.89695e+06
2.89696e+06
2.89696e+06
2.89696e+06
2.89695e+06
2.89695e+06
2.89695e+06
2.89695e+06
2.89695e+06
2.89695e+06
2.89695e+06
2.89695e+06
2.89695e+06
2.89695e+06
2.89695e+06
2.89695e+06
2.89695e+06
2.89694e+06
2.89693e+06
2.89691e+06
2.89688e+06
2.89684e+06
2.89656e+06
2.89669e+06
2.89677e+06
2.89678e+06
2.89678e+06
2.89677e+06
2.89677e+06
2.89677e+06
2.89676e+06
2.89676e+06
2.89676e+06
2.89677e+06
2.89677e+06
2.89677e+06
2.89677e+06
2.89677e+06
2.89678e+06
2.89678e+06
2.89679e+06
2.8968e+06
2.89681e+06
2.89682e+06
2.89684e+06
2.89685e+06
2.89686e+06
2.89687e+06
2.89687e+06
2.89687e+06
2.89688e+06
2.89688e+06
2.89688e+06
2.89687e+06
2.89687e+06
2.89687e+06
2.89687e+06
2.89687e+06
2.89687e+06
2.89687e+06
2.89687e+06
2.89687e+06
2.89687e+06
2.89688e+06
2.89688e+06
2.89688e+06
2.89688e+06
2.89687e+06
2.89687e+06
2.89685e+06
2.89684e+06
2.89681e+06
2.89648e+06
2.89651e+06
2.89652e+06
2.89652e+06
2.89652e+06
2.89653e+06
2.89653e+06
2.89654e+06
2.89655e+06
2.89656e+06
2.89657e+06
2.89658e+06
2.89659e+06
2.8966e+06
2.89661e+06
2.89662e+06
2.89662e+06
2.89664e+06
2.89665e+06
2.89666e+06
2.89667e+06
2.89669e+06
2.8967e+06
2.89672e+06
2.89673e+06
2.89674e+06
2.89675e+06
2.89675e+06
2.89675e+06
2.89676e+06
2.89676e+06
2.89676e+06
2.89676e+06
2.89676e+06
2.89676e+06
2.89676e+06
2.89676e+06
2.89677e+06
2.89677e+06
2.89677e+06
2.89678e+06
2.89678e+06
2.89678e+06
2.89679e+06
2.89679e+06
2.89679e+06
2.89679e+06
2.89679e+06
2.89678e+06
2.89677e+06
2.89642e+06
2.89644e+06
2.89646e+06
2.89648e+06
2.89649e+06
2.8965e+06
2.89651e+06
2.89652e+06
2.89653e+06
2.89654e+06
2.89655e+06
2.89655e+06
2.89656e+06
2.89656e+06
2.89657e+06
2.89657e+06
2.89658e+06
2.89659e+06
2.8966e+06
2.89661e+06
2.89662e+06
2.89663e+06
2.89664e+06
2.89665e+06
2.89666e+06
2.89667e+06
2.89668e+06
2.89668e+06
2.89668e+06
2.89668e+06
2.89668e+06
2.89668e+06
2.89668e+06
2.89668e+06
2.89669e+06
2.89669e+06
2.89669e+06
2.8967e+06
2.8967e+06
2.8967e+06
2.89671e+06
2.89672e+06
2.89672e+06
2.89673e+06
2.89674e+06
2.89674e+06
2.89675e+06
2.89675e+06
2.89675e+06
2.89675e+06
2.89634e+06
2.89634e+06
2.89635e+06
2.89636e+06
2.89636e+06
2.89637e+06
2.89637e+06
2.89638e+06
2.89639e+06
2.89639e+06
2.8964e+06
2.89641e+06
2.89641e+06
2.89642e+06
2.89643e+06
2.89643e+06
2.89644e+06
2.89645e+06
2.89646e+06
2.89647e+06
2.89649e+06
2.8965e+06
2.89651e+06
2.89652e+06
2.89653e+06
2.89654e+06
2.89655e+06
2.89656e+06
2.89656e+06
2.89656e+06
2.89656e+06
2.89657e+06
2.89657e+06
2.89657e+06
2.89658e+06
2.89658e+06
2.89659e+06
2.89659e+06
2.8966e+06
2.89661e+06
2.89662e+06
2.89663e+06
2.89664e+06
2.89665e+06
2.89666e+06
2.89667e+06
2.89668e+06
2.8967e+06
2.89671e+06
2.89672e+06
2.89625e+06
2.89625e+06
2.89626e+06
2.89627e+06
2.89628e+06
2.89628e+06
2.89629e+06
2.8963e+06
2.89631e+06
2.89632e+06
2.89633e+06
2.89634e+06
2.89634e+06
2.89635e+06
2.89636e+06
2.89637e+06
2.89638e+06
2.89639e+06
2.8964e+06
2.89641e+06
2.89642e+06
2.89643e+06
2.89644e+06
2.89645e+06
2.89646e+06
2.89647e+06
2.89647e+06
2.89648e+06
2.89648e+06
2.89648e+06
2.89649e+06
2.89649e+06
2.89649e+06
2.8965e+06
2.8965e+06
2.89651e+06
2.89651e+06
2.89652e+06
2.89653e+06
2.89654e+06
2.89655e+06
2.89657e+06
2.89658e+06
2.8966e+06
2.89661e+06
2.89663e+06
2.89665e+06
2.89666e+06
2.89668e+06
2.8967e+06
2.89616e+06
2.89616e+06
2.89616e+06
2.89617e+06
2.89618e+06
2.89618e+06
2.89619e+06
2.8962e+06
2.8962e+06
2.89621e+06
2.89622e+06
2.89622e+06
2.89623e+06
2.89624e+06
2.89624e+06
2.89625e+06
2.89626e+06
2.89627e+06
2.89628e+06
2.89629e+06
2.8963e+06
2.89631e+06
2.89632e+06
2.89633e+06
2.89634e+06
2.89635e+06
2.89636e+06
2.89636e+06
2.89637e+06
2.89637e+06
2.89637e+06
2.89638e+06
2.89638e+06
2.89639e+06
2.8964e+06
2.89641e+06
2.89642e+06
2.89643e+06
2.89644e+06
2.89645e+06
2.89647e+06
2.89649e+06
2.89651e+06
2.89653e+06
2.89655e+06
2.89657e+06
2.89659e+06
2.89662e+06
2.89664e+06
2.89667e+06
2.89606e+06
2.89607e+06
2.89607e+06
2.89608e+06
2.89608e+06
2.89609e+06
2.89609e+06
2.8961e+06
2.89611e+06
2.89612e+06
2.89612e+06
2.89613e+06
2.89614e+06
2.89615e+06
2.89616e+06
2.89617e+06
2.89618e+06
2.89619e+06
2.8962e+06
2.89621e+06
2.89622e+06
2.89623e+06
2.89624e+06
2.89625e+06
2.89626e+06
2.89626e+06
2.89627e+06
2.89628e+06
2.89628e+06
2.89628e+06
2.89629e+06
2.89629e+06
2.8963e+06
2.89631e+06
2.89632e+06
2.89633e+06
2.89634e+06
2.89635e+06
2.89637e+06
2.89639e+06
2.89641e+06
2.89643e+06
2.89645e+06
2.89647e+06
2.8965e+06
2.89652e+06
2.89655e+06
2.89658e+06
2.89661e+06
2.89665e+06
2.89597e+06
2.89597e+06
2.89597e+06
2.89598e+06
2.89599e+06
2.89599e+06
2.896e+06
2.896e+06
2.89601e+06
2.89602e+06
2.89603e+06
2.89603e+06
2.89604e+06
2.89605e+06
2.89606e+06
2.89607e+06
2.89608e+06
2.89609e+06
2.8961e+06
2.8961e+06
2.89611e+06
2.89612e+06
2.89613e+06
2.89614e+06
2.89615e+06
2.89616e+06
2.89616e+06
2.89617e+06
2.89618e+06
2.89618e+06
2.89619e+06
2.89619e+06
2.8962e+06
2.89621e+06
2.89622e+06
2.89623e+06
2.89625e+06
2.89627e+06
2.89629e+06
2.89631e+06
2.89633e+06
2.89635e+06
2.89638e+06
2.89641e+06
2.89644e+06
2.89647e+06
2.89651e+06
2.89654e+06
2.89658e+06
2.89662e+06
2.89587e+06
2.89588e+06
2.89588e+06
2.89588e+06
2.89589e+06
2.8959e+06
2.8959e+06
2.89591e+06
2.89591e+06
2.89592e+06
2.89593e+06
2.89594e+06
2.89595e+06
2.89596e+06
2.89597e+06
2.89598e+06
2.89598e+06
2.89599e+06
2.896e+06
2.89601e+06
2.89602e+06
2.89602e+06
2.89603e+06
2.89604e+06
2.89605e+06
2.89606e+06
2.89606e+06
2.89607e+06
2.89608e+06
2.89608e+06
2.89609e+06
2.8961e+06
2.89611e+06
2.89612e+06
2.89613e+06
2.89615e+06
2.89616e+06
2.89618e+06
2.89621e+06
2.89623e+06
2.89626e+06
2.89629e+06
2.89632e+06
2.89635e+06
2.89638e+06
2.89642e+06
2.89646e+06
2.8965e+06
2.89655e+06
2.89659e+06
2.89578e+06
2.89578e+06
2.89578e+06
2.89579e+06
2.8958e+06
2.8958e+06
2.89581e+06
2.89581e+06
2.89582e+06
2.89583e+06
2.89584e+06
2.89585e+06
2.89586e+06
2.89587e+06
2.89588e+06
2.89589e+06
2.8959e+06
2.8959e+06
2.89591e+06
2.89592e+06
2.89592e+06
2.89593e+06
2.89594e+06
2.89595e+06
2.89595e+06
2.89596e+06
2.89597e+06
2.89598e+06
2.89599e+06
2.89599e+06
2.896e+06
2.89601e+06
2.89602e+06
2.89603e+06
2.89605e+06
2.89606e+06
2.89608e+06
2.89611e+06
2.89613e+06
2.89616e+06
2.89619e+06
2.89622e+06
2.89626e+06
2.89629e+06
2.89633e+06
2.89637e+06
2.89642e+06
2.89647e+06
2.89652e+06
2.89657e+06
2.89568e+06
2.89568e+06
2.89569e+06
2.89569e+06
2.8957e+06
2.8957e+06
2.89571e+06
2.89571e+06
2.89572e+06
2.89573e+06
2.89573e+06
2.89574e+06
2.89575e+06
2.89576e+06
2.89577e+06
2.89578e+06
2.89579e+06
2.8958e+06
2.8958e+06
2.89581e+06
2.89581e+06
2.89582e+06
2.89582e+06
2.89583e+06
2.89584e+06
2.89585e+06
2.89586e+06
2.89587e+06
2.89588e+06
2.89589e+06
2.8959e+06
2.8959e+06
2.89592e+06
2.89593e+06
2.89595e+06
2.89597e+06
2.89599e+06
2.89602e+06
2.89604e+06
2.89608e+06
2.89611e+06
2.89615e+06
2.89618e+06
2.89622e+06
2.89627e+06
2.89632e+06
2.89637e+06
2.89642e+06
2.89648e+06
2.89654e+06
2.89558e+06
2.89559e+06
2.89559e+06
2.8956e+06
2.89561e+06
2.89561e+06
2.89562e+06
2.89563e+06
2.89563e+06
2.89564e+06
2.89565e+06
2.89566e+06
2.89568e+06
2.89569e+06
2.8957e+06
2.89571e+06
2.89571e+06
2.89572e+06
2.89572e+06
2.89573e+06
2.89573e+06
2.89574e+06
2.89574e+06
2.89575e+06
2.89576e+06
2.89577e+06
2.89578e+06
2.89579e+06
2.8958e+06
2.89581e+06
2.89582e+06
2.89583e+06
2.89584e+06
2.89585e+06
2.89587e+06
2.89589e+06
2.89592e+06
2.89594e+06
2.89598e+06
2.89601e+06
2.89605e+06
2.89608e+06
2.89613e+06
2.89617e+06
2.89622e+06
2.89627e+06
2.89632e+06
2.89638e+06
2.89644e+06
2.89651e+06
2.89548e+06
2.89549e+06
2.89549e+06
2.8955e+06
2.89551e+06
2.89551e+06
2.89551e+06
2.89551e+06
2.89552e+06
2.89552e+06
2.89553e+06
2.89554e+06
2.89555e+06
2.89556e+06
2.89557e+06
2.89558e+06
2.89559e+06
2.89559e+06
2.8956e+06
2.8956e+06
2.89561e+06
2.89561e+06
2.89562e+06
2.89563e+06
2.89564e+06
2.89565e+06
2.89566e+06
2.89567e+06
2.89568e+06
2.89569e+06
2.8957e+06
2.89571e+06
2.89573e+06
2.89574e+06
2.89576e+06
2.89579e+06
2.89581e+06
2.89584e+06
2.89588e+06
2.89592e+06
2.89596e+06
2.896e+06
2.89604e+06
2.89609e+06
2.89614e+06
2.8962e+06
2.89626e+06
2.89632e+06
2.89639e+06
2.89647e+06
2.89537e+06
2.89539e+06
2.89541e+06
2.89543e+06
2.89544e+06
2.89545e+06
2.89546e+06
2.89546e+06
2.89547e+06
2.89548e+06
2.89549e+06
2.8955e+06
2.89551e+06
2.89552e+06
2.89552e+06
2.89553e+06
2.89553e+06
2.89554e+06
2.89554e+06
2.89554e+06
2.89554e+06
2.89555e+06
2.89555e+06
2.89556e+06
2.89557e+06
2.89558e+06
2.89559e+06
2.8956e+06
2.89561e+06
2.89562e+06
2.89563e+06
2.89564e+06
2.89565e+06
2.89567e+06
2.89569e+06
2.89571e+06
2.89574e+06
2.89577e+06
2.89581e+06
2.89585e+06
2.89589e+06
2.89593e+06
2.89598e+06
2.89603e+06
2.89609e+06
2.89615e+06
2.89621e+06
2.89628e+06
2.89636e+06
2.89644e+06
2.89524e+06
2.89527e+06
2.89528e+06
2.89528e+06
2.89528e+06
2.89528e+06
2.89528e+06
2.89529e+06
2.89529e+06
2.8953e+06
2.89532e+06
2.89533e+06
2.89534e+06
2.89536e+06
2.89537e+06
2.89538e+06
2.89539e+06
2.89539e+06
2.89539e+06
2.8954e+06
2.8954e+06
2.89541e+06
2.89542e+06
2.89542e+06
2.89544e+06
2.89545e+06
2.89546e+06
2.89547e+06
2.89548e+06
2.89549e+06
2.89551e+06
2.89552e+06
2.89554e+06
2.89556e+06
2.89558e+06
2.89561e+06
2.89564e+06
2.89567e+06
2.89571e+06
2.89575e+06
2.89579e+06
2.89584e+06
2.89589e+06
2.89594e+06
2.896e+06
2.89607e+06
2.89614e+06
2.89622e+06
2.8963e+06
2.89639e+06
2.89512e+06
2.89526e+06
2.89534e+06
2.89534e+06
2.89534e+06
2.89533e+06
2.89532e+06
2.89532e+06
2.89531e+06
2.89531e+06
2.89532e+06
2.89532e+06
2.89533e+06
2.89533e+06
2.89534e+06
2.89534e+06
2.89534e+06
2.89534e+06
2.89534e+06
2.89534e+06
2.89534e+06
2.89535e+06
2.89535e+06
2.89536e+06
2.89537e+06
2.89538e+06
2.89539e+06
2.8954e+06
2.89541e+06
2.89542e+06
2.89543e+06
2.89545e+06
2.89546e+06
2.89548e+06
2.8955e+06
2.89553e+06
2.89556e+06
2.8956e+06
2.89563e+06
2.89568e+06
2.89572e+06
2.89577e+06
2.89582e+06
2.89588e+06
2.89594e+06
2.89601e+06
2.89608e+06
2.89616e+06
2.89626e+06
2.89635e+06
2.89457e+06
2.89486e+06
2.89495e+06
2.89499e+06
2.89502e+06
2.89504e+06
2.89506e+06
2.89508e+06
2.89509e+06
2.89511e+06
2.89513e+06
2.89514e+06
2.89516e+06
2.89517e+06
2.89518e+06
2.89519e+06
2.8952e+06
2.8952e+06
2.8952e+06
2.89521e+06
2.89521e+06
2.89522e+06
2.89522e+06
2.89523e+06
2.89524e+06
2.89526e+06
2.89527e+06
2.89528e+06
2.89529e+06
2.8953e+06
2.89532e+06
2.89533e+06
2.89535e+06
2.89537e+06
2.8954e+06
2.89542e+06
2.89546e+06
2.89549e+06
2.89553e+06
2.89557e+06
2.89562e+06
2.89567e+06
2.89572e+06
2.89578e+06
2.89585e+06
2.89592e+06
2.896e+06
2.89608e+06
2.89618e+06
2.89629e+06
2.89607e+06
2.89556e+06
2.89531e+06
2.89522e+06
2.89517e+06
2.89513e+06
2.89511e+06
2.8951e+06
2.89509e+06
2.89509e+06
2.8951e+06
2.89511e+06
2.89511e+06
2.89512e+06
2.89513e+06
2.89513e+06
2.89513e+06
2.89513e+06
2.89513e+06
2.89514e+06
2.89514e+06
2.89514e+06
2.89515e+06
2.89516e+06
2.89516e+06
2.89517e+06
2.89519e+06
2.8952e+06
2.89521e+06
2.89522e+06
2.89523e+06
2.89525e+06
2.89526e+06
2.89529e+06
2.89531e+06
2.89534e+06
2.89537e+06
2.89541e+06
2.89545e+06
2.89549e+06
2.89554e+06
2.89559e+06
2.89564e+06
2.8957e+06
2.89576e+06
2.89584e+06
2.89592e+06
2.89601e+06
2.89611e+06
2.89623e+06
2.90491e+06
2.90558e+06
2.90606e+06
2.90688e+06
2.90768e+06
2.90868e+06
2.90975e+06
2.91097e+06
2.91229e+06
2.91373e+06
2.91529e+06
2.91697e+06
2.91877e+06
2.92069e+06
2.92271e+06
2.92477e+06
2.92677e+06
2.92848e+06
2.92961e+06
2.9299e+06
2.90643e+06
2.90707e+06
2.90752e+06
2.90832e+06
2.90908e+06
2.91005e+06
2.91107e+06
2.91223e+06
2.91348e+06
2.91484e+06
2.91629e+06
2.91784e+06
2.91947e+06
2.92118e+06
2.92293e+06
2.92466e+06
2.92629e+06
2.92764e+06
2.92854e+06
2.92885e+06
2.90772e+06
2.90832e+06
2.90875e+06
2.90951e+06
2.91024e+06
2.91116e+06
2.91212e+06
2.91321e+06
2.91437e+06
2.91563e+06
2.91695e+06
2.91835e+06
2.9198e+06
2.92129e+06
2.92278e+06
2.92422e+06
2.92554e+06
2.92662e+06
2.92734e+06
2.92765e+06
2.9088e+06
2.90937e+06
2.90978e+06
2.9105e+06
2.91118e+06
2.91205e+06
2.91295e+06
2.91396e+06
2.91502e+06
2.91617e+06
2.91736e+06
2.91861e+06
2.91989e+06
2.92117e+06
2.92243e+06
2.92363e+06
2.9247e+06
2.92558e+06
2.92616e+06
2.92645e+06
2.9097e+06
2.91024e+06
2.91062e+06
2.91131e+06
2.91194e+06
2.91276e+06
2.91358e+06
2.91451e+06
2.91548e+06
2.91652e+06
2.91759e+06
2.91869e+06
2.9198e+06
2.92091e+06
2.92197e+06
2.92297e+06
2.92384e+06
2.92457e+06
2.92505e+06
2.92531e+06
2.91044e+06
2.91096e+06
2.91131e+06
2.91196e+06
2.91254e+06
2.9133e+06
2.91405e+06
2.91491e+06
2.91579e+06
2.91672e+06
2.91767e+06
2.91864e+06
2.91961e+06
2.92056e+06
2.92146e+06
2.9223e+06
2.92302e+06
2.92364e+06
2.92402e+06
2.92427e+06
2.91104e+06
2.91154e+06
2.91187e+06
2.91248e+06
2.91301e+06
2.91371e+06
2.9144e+06
2.91518e+06
2.91597e+06
2.91681e+06
2.91765e+06
2.91851e+06
2.91935e+06
2.92017e+06
2.92094e+06
2.92165e+06
2.92225e+06
2.92278e+06
2.9231e+06
2.92333e+06
2.91153e+06
2.91201e+06
2.91231e+06
2.91288e+06
2.91337e+06
2.91402e+06
2.91464e+06
2.91536e+06
2.91606e+06
2.91682e+06
2.91757e+06
2.91832e+06
2.91906e+06
2.91977e+06
2.92042e+06
2.92103e+06
2.92154e+06
2.92199e+06
2.92226e+06
2.92248e+06
2.91192e+06
2.91237e+06
2.91265e+06
2.91319e+06
2.91363e+06
2.91424e+06
2.9148e+06
2.91545e+06
2.91609e+06
2.91677e+06
2.91743e+06
2.9181e+06
2.91874e+06
2.91936e+06
2.91992e+06
2.92045e+06
2.92088e+06
2.92128e+06
2.92151e+06
2.92171e+06
2.91222e+06
2.91265e+06
2.91291e+06
2.91341e+06
2.91382e+06
2.91438e+06
2.91489e+06
2.91549e+06
2.91606e+06
2.91667e+06
2.91726e+06
2.91785e+06
2.91841e+06
2.91896e+06
2.91945e+06
2.91991e+06
2.92028e+06
2.92063e+06
2.92082e+06
2.92102e+06
2.91244e+06
2.91286e+06
2.91309e+06
2.91357e+06
2.91395e+06
2.91446e+06
2.91493e+06
2.91547e+06
2.91599e+06
2.91654e+06
2.91706e+06
2.91759e+06
2.91809e+06
2.91857e+06
2.91899e+06
2.9194e+06
2.91972e+06
2.92004e+06
2.92021e+06
2.9204e+06
2.91261e+06
2.913e+06
2.91322e+06
2.91367e+06
2.91402e+06
2.9145e+06
2.91492e+06
2.91542e+06
2.91588e+06
2.91638e+06
2.91684e+06
2.91732e+06
2.91776e+06
2.91819e+06
2.91856e+06
2.91893e+06
2.91921e+06
2.9195e+06
2.91965e+06
2.91983e+06
2.91271e+06
2.9131e+06
2.9133e+06
2.91373e+06
2.91404e+06
2.91449e+06
2.91487e+06
2.91533e+06
2.91574e+06
2.9162e+06
2.91661e+06
2.91704e+06
2.91743e+06
2.91782e+06
2.91815e+06
2.91848e+06
2.91873e+06
2.919e+06
2.91913e+06
2.91931e+06
2.91278e+06
2.91315e+06
2.91334e+06
2.91374e+06
2.91403e+06
2.91444e+06
2.91479e+06
2.91521e+06
2.91559e+06
2.916e+06
2.91638e+06
2.91677e+06
2.91712e+06
2.91747e+06
2.91776e+06
2.91807e+06
2.91829e+06
2.91854e+06
2.91866e+06
2.91883e+06
2.9128e+06
2.91316e+06
2.91334e+06
2.91372e+06
2.91398e+06
2.91437e+06
2.91468e+06
2.91507e+06
2.91541e+06
2.9158e+06
2.91614e+06
2.91649e+06
2.91681e+06
2.91713e+06
2.91739e+06
2.91767e+06
2.91787e+06
2.91811e+06
2.91822e+06
2.91839e+06
2.91279e+06
2.91314e+06
2.9133e+06
2.91367e+06
2.91391e+06
2.91427e+06
2.91456e+06
2.91492e+06
2.91523e+06
2.91558e+06
2.91589e+06
2.91622e+06
2.9165e+06
2.9168e+06
2.91704e+06
2.91729e+06
2.91748e+06
2.9177e+06
2.9178e+06
2.91797e+06
2.91275e+06
2.91308e+06
2.91324e+06
2.91359e+06
2.91381e+06
2.91415e+06
2.91442e+06
2.91476e+06
2.91504e+06
2.91537e+06
2.91565e+06
2.91595e+06
2.9162e+06
2.91647e+06
2.91669e+06
2.91693e+06
2.9171e+06
2.91731e+06
2.9174e+06
2.91757e+06
2.91268e+06
2.913e+06
2.91315e+06
2.91348e+06
2.9137e+06
2.91402e+06
2.91427e+06
2.91458e+06
2.91484e+06
2.91514e+06
2.9154e+06
2.91567e+06
2.91591e+06
2.91616e+06
2.91636e+06
2.91658e+06
2.91673e+06
2.91693e+06
2.91702e+06
2.91719e+06
2.91258e+06
2.9129e+06
2.91304e+06
2.91336e+06
2.91356e+06
2.91387e+06
2.9141e+06
2.9144e+06
2.91463e+06
2.91491e+06
2.91514e+06
2.9154e+06
2.91561e+06
2.91585e+06
2.91603e+06
2.91624e+06
2.91638e+06
2.91657e+06
2.91666e+06
2.91682e+06
2.91246e+06
2.91277e+06
2.91291e+06
2.91322e+06
2.91341e+06
2.9137e+06
2.91392e+06
2.9142e+06
2.91441e+06
2.91467e+06
2.91489e+06
2.91513e+06
2.91532e+06
2.91554e+06
2.91571e+06
2.91591e+06
2.91604e+06
2.91623e+06
2.91631e+06
2.91647e+06
2.91232e+06
2.91263e+06
2.91276e+06
2.91306e+06
2.91324e+06
2.91352e+06
2.91372e+06
2.91398e+06
2.91419e+06
2.91443e+06
2.91463e+06
2.91485e+06
2.91503e+06
2.91524e+06
2.9154e+06
2.91559e+06
2.91572e+06
2.9159e+06
2.91598e+06
2.91614e+06
2.91217e+06
2.91247e+06
2.91259e+06
2.91289e+06
2.91306e+06
2.91333e+06
2.91351e+06
2.91376e+06
2.91395e+06
2.91418e+06
2.91437e+06
2.91458e+06
2.91475e+06
2.91495e+06
2.9151e+06
2.91529e+06
2.91541e+06
2.91558e+06
2.91566e+06
2.91581e+06
2.912e+06
2.9123e+06
2.91242e+06
2.9127e+06
2.91286e+06
2.91312e+06
2.91329e+06
2.91353e+06
2.91371e+06
2.91393e+06
2.91411e+06
2.91432e+06
2.91448e+06
2.91467e+06
2.91481e+06
2.91499e+06
2.9151e+06
2.91527e+06
2.91534e+06
2.91549e+06
2.91183e+06
2.91212e+06
2.91223e+06
2.9125e+06
2.91265e+06
2.9129e+06
2.91307e+06
2.9133e+06
2.91347e+06
2.91369e+06
2.91385e+06
2.91405e+06
2.91421e+06
2.91439e+06
2.91452e+06
2.9147e+06
2.9148e+06
2.91497e+06
2.91503e+06
2.91519e+06
2.91164e+06
2.91192e+06
2.91203e+06
2.91229e+06
2.91244e+06
2.91268e+06
2.91284e+06
2.91306e+06
2.91323e+06
2.91344e+06
2.9136e+06
2.91379e+06
2.91394e+06
2.91412e+06
2.91424e+06
2.91441e+06
2.91451e+06
2.91467e+06
2.91474e+06
2.91489e+06
2.91144e+06
2.91172e+06
2.91182e+06
2.91208e+06
2.91222e+06
2.91246e+06
2.91261e+06
2.91283e+06
2.91299e+06
2.91319e+06
2.91335e+06
2.91354e+06
2.91367e+06
2.91385e+06
2.91397e+06
2.91413e+06
2.91422e+06
2.91439e+06
2.91445e+06
2.9146e+06
2.91124e+06
2.91152e+06
2.91161e+06
2.91187e+06
2.912e+06
2.91224e+06
2.91238e+06
2.9126e+06
2.91275e+06
2.91295e+06
2.9131e+06
2.91328e+06
2.91341e+06
2.91358e+06
2.9137e+06
2.91386e+06
2.91395e+06
2.91411e+06
2.91417e+06
2.91432e+06
2.91104e+06
2.91131e+06
2.91141e+06
2.91166e+06
2.91179e+06
2.91202e+06
2.91216e+06
2.91237e+06
2.91252e+06
2.91271e+06
2.91285e+06
2.91303e+06
2.91316e+06
2.91332e+06
2.91343e+06
2.91359e+06
2.91368e+06
2.91384e+06
2.9139e+06
2.91405e+06
2.91084e+06
2.91111e+06
2.9112e+06
2.91145e+06
2.91158e+06
2.9118e+06
2.91194e+06
2.91215e+06
2.91229e+06
2.91248e+06
2.91261e+06
2.91278e+06
2.91291e+06
2.91307e+06
2.91318e+06
2.91334e+06
2.91343e+06
2.91359e+06
2.91364e+06
2.91379e+06
2.91064e+06
2.91091e+06
2.911e+06
2.91125e+06
2.91137e+06
2.91159e+06
2.91173e+06
2.91193e+06
2.91206e+06
2.91225e+06
2.91238e+06
2.91255e+06
2.91267e+06
2.91283e+06
2.91294e+06
2.91309e+06
2.91318e+06
2.91334e+06
2.91339e+06
2.91354e+06
2.91044e+06
2.91071e+06
2.9108e+06
2.91105e+06
2.91117e+06
2.91138e+06
2.91151e+06
2.91171e+06
2.91184e+06
2.91202e+06
2.91215e+06
2.91231e+06
2.91243e+06
2.91259e+06
2.9127e+06
2.91285e+06
2.91294e+06
2.91309e+06
2.91314e+06
2.91329e+06
2.91025e+06
2.91052e+06
2.9106e+06
2.91085e+06
2.91096e+06
2.91118e+06
2.9113e+06
2.9115e+06
2.91162e+06
2.9118e+06
2.91192e+06
2.91209e+06
2.9122e+06
2.91236e+06
2.91246e+06
2.91262e+06
2.9127e+06
2.91285e+06
2.9129e+06
2.91304e+06
2.91006e+06
2.91032e+06
2.91041e+06
2.91065e+06
2.91076e+06
2.91098e+06
2.9111e+06
2.91129e+06
2.91141e+06
2.91159e+06
2.91171e+06
2.91187e+06
2.91198e+06
2.91214e+06
2.91224e+06
2.91239e+06
2.91246e+06
2.91261e+06
2.91266e+06
2.9128e+06
2.90987e+06
2.91013e+06
2.91022e+06
2.91046e+06
2.91057e+06
2.91078e+06
2.9109e+06
2.91108e+06
2.9112e+06
2.91138e+06
2.91149e+06
2.91166e+06
2.91177e+06
2.91192e+06
2.91201e+06
2.91216e+06
2.91224e+06
2.91238e+06
2.91243e+06
2.91257e+06
2.90969e+06
2.90995e+06
2.91003e+06
2.91027e+06
2.91038e+06
2.91058e+06
2.9107e+06
2.91088e+06
2.911e+06
2.91117e+06
2.91129e+06
2.91145e+06
2.91155e+06
2.9117e+06
2.9118e+06
2.91194e+06
2.91202e+06
2.91216e+06
2.91221e+06
2.91235e+06
2.90951e+06
2.90977e+06
2.90985e+06
2.91008e+06
2.91019e+06
2.91039e+06
2.91051e+06
2.91069e+06
2.9108e+06
2.91097e+06
2.91109e+06
2.91124e+06
2.91135e+06
2.9115e+06
2.91159e+06
2.91173e+06
2.91181e+06
2.91195e+06
2.912e+06
2.91214e+06
2.90934e+06
2.9096e+06
2.90967e+06
2.9099e+06
2.91e+06
2.91021e+06
2.91032e+06
2.9105e+06
2.91061e+06
2.91078e+06
2.91089e+06
2.91105e+06
2.91115e+06
2.9113e+06
2.91139e+06
2.91153e+06
2.9116e+06
2.91175e+06
2.91179e+06
2.91193e+06
2.90917e+06
2.90942e+06
2.9095e+06
2.90972e+06
2.90982e+06
2.91002e+06
2.91013e+06
2.91031e+06
2.91042e+06
2.91059e+06
2.9107e+06
2.91085e+06
2.91095e+06
2.9111e+06
2.91119e+06
2.91133e+06
2.9114e+06
2.91155e+06
2.91159e+06
2.91173e+06
2.909e+06
2.90925e+06
2.90932e+06
2.90955e+06
2.90965e+06
2.90984e+06
2.90995e+06
2.91013e+06
2.91024e+06
2.9104e+06
2.91051e+06
2.91066e+06
2.91076e+06
2.91091e+06
2.91099e+06
2.91113e+06
2.91121e+06
2.91135e+06
2.91139e+06
2.91153e+06
2.90883e+06
2.90908e+06
2.90915e+06
2.90937e+06
2.90947e+06
2.90966e+06
2.90977e+06
2.90995e+06
2.91005e+06
2.91022e+06
2.91032e+06
2.91047e+06
2.91057e+06
2.91071e+06
2.9108e+06
2.91094e+06
2.91101e+06
2.91115e+06
2.91119e+06
2.91133e+06
2.90866e+06
2.90891e+06
2.90898e+06
2.9092e+06
2.9093e+06
2.90949e+06
2.90959e+06
2.90977e+06
2.90987e+06
2.91003e+06
2.91014e+06
2.91029e+06
2.91038e+06
2.91052e+06
2.91061e+06
2.91075e+06
2.91081e+06
2.91095e+06
2.91099e+06
2.91113e+06
2.90849e+06
2.90875e+06
2.90881e+06
2.90903e+06
2.90913e+06
2.90932e+06
2.90942e+06
2.90959e+06
2.9097e+06
2.90985e+06
2.90995e+06
2.9101e+06
2.9102e+06
2.91034e+06
2.91042e+06
2.91055e+06
2.91062e+06
2.91076e+06
2.9108e+06
2.91093e+06
2.90833e+06
2.90859e+06
2.90865e+06
2.90887e+06
2.90896e+06
2.90915e+06
2.90925e+06
2.90942e+06
2.90952e+06
2.90968e+06
2.90978e+06
2.90992e+06
2.91001e+06
2.91015e+06
2.91023e+06
2.91037e+06
2.91043e+06
2.91057e+06
2.9106e+06
2.91074e+06
2.90818e+06
2.90843e+06
2.9085e+06
2.90872e+06
2.9088e+06
2.90899e+06
2.90909e+06