/*--------------------------------*- C++ -*----------------------------------*\
  =========                 |
  \\      /  F ield         | OpenFOAM: The Open Source CFD Toolbox
   \\    /   O peration     | Website:  https://openfoam.org
    \\  /    A nd           | Version:  8
     \\/     M anipulation  |
\*---------------------------------------------------------------------------*/
FoamFile
{
    version     2.0;
    format      ascii;
    class       volScalarField;
    location    "300";
    object      T;
}
// * * * * * * * * * * * * * * * * * * * * * * * * * * * * * * * * * * * * * //

dimensions      [0 0 0 1 0 0 0];

internalField   nonuniform List<scalar> 
8400
(
293.493
293.5
293.509
293.518
293.527
293.537
293.548
293.56
293.573
293.586
293.601
293.617
293.634
293.652
293.671
293.692
293.714
293.738
293.763
293.79
293.819
293.85
293.882
293.917
293.955
293.994
294.037
294.082
294.13
294.182
294.237
294.296
294.359
294.427
294.5
294.577
294.66
294.747
294.841
294.939
295.043
295.153
295.267
295.388
295.513
295.644
295.779
295.919
296.063
296.21
293.57
293.582
293.596
293.61
293.626
293.642
293.66
293.68
293.701
293.724
293.748
293.775
293.803
293.833
293.865
293.899
293.935
293.974
294.016
294.06
294.106
294.156
294.208
294.264
294.322
294.385
294.45
294.52
294.594
294.671
294.754
294.841
294.932
295.029
295.13
295.236
295.346
295.461
295.581
295.705
295.833
295.964
296.099
296.238
296.379
296.522
296.667
296.813
296.96
297.107
293.617
293.636
293.658
293.681
293.706
293.732
293.76
293.791
293.824
293.859
293.896
293.935
293.978
294.022
294.07
294.12
294.174
294.23
294.29
294.352
294.419
294.489
294.563
294.64
294.722
294.807
294.897
294.991
295.089
295.192
295.298
295.409
295.523
295.641
295.762
295.886
296.013
296.142
296.273
296.407
296.542
296.678
296.815
296.953
297.091
297.228
297.365
297.502
297.636
297.769
293.693
293.72
293.751
293.783
293.817
293.854
293.893
293.934
293.978
294.024
294.074
294.126
294.181
294.239
294.301
294.365
294.432
294.503
294.577
294.655
294.736
294.821
294.91
295.002
295.099
295.198
295.302
295.409
295.52
295.634
295.751
295.871
295.993
296.117
296.243
296.37
296.498
296.626
296.755
296.884
297.013
297.142
297.27
297.397
297.523
297.648
297.771
297.892
298.011
298.128
293.78
293.814
293.853
293.894
293.938
293.984
294.032
294.083
294.137
294.194
294.254
294.316
294.382
294.451
294.523
294.599
294.677
294.759
294.845
294.934
295.026
295.122
295.222
295.325
295.432
295.543
295.657
295.773
295.892
296.013
296.136
296.259
296.383
296.507
296.631
296.755
296.878
297
297.122
297.242
297.361
297.479
297.595
297.71
297.824
297.936
298.047
298.156
298.264
298.37
293.904
293.946
293.992
294.041
294.093
294.147
294.204
294.264
294.326
294.392
294.46
294.531
294.605
294.683
294.763
294.847
294.933
295.023
295.116
295.212
295.312
295.415
295.521
295.63
295.742
295.856
295.972
296.09
296.208
296.326
296.444
296.562
296.679
296.795
296.911
297.025
297.138
297.249
297.36
297.469
297.577
297.684
297.791
297.896
298.001
298.105
298.209
298.311
298.412
298.512
294.069
294.11
294.158
294.211
294.267
294.326
294.389
294.454
294.521
294.592
294.664
294.74
294.818
294.899
294.983
295.07
295.16
295.252
295.348
295.446
295.547
295.652
295.759
295.868
295.979
296.09
296.202
296.315
296.427
296.538
296.649
296.76
296.869
296.978
297.086
297.194
297.3
297.406
297.512
297.617
297.722
297.827
297.932
298.036
298.141
298.244
298.347
298.449
298.55
298.649
294.389
294.394
294.414
294.445
294.486
294.536
294.592
294.654
294.72
294.789
294.861
294.936
295.013
295.093
295.176
295.262
295.351
295.442
295.537
295.634
295.735
295.839
295.945
296.053
296.162
296.271
296.381
296.491
296.6
296.71
296.819
296.928
297.036
297.145
297.253
297.361
297.47
297.578
297.687
297.796
297.904
298.013
298.121
298.228
298.334
298.438
298.54
298.639
298.735
298.827
295.346
295.208
295.099
295.021
294.972
294.949
294.946
294.963
294.994
295.037
295.091
295.153
295.222
295.296
295.375
295.459
295.548
295.644
295.745
295.851
295.961
296.075
296.192
296.311
296.431
296.551
296.67
296.789
296.905
297.019
297.132
297.241
297.349
297.455
297.558
297.661
297.761
297.861
297.959
298.056
298.152
298.246
298.339
298.431
298.521
298.61
298.695
298.778
298.856
298.931
297.581
297.282
296.999
296.744
296.517
296.319
296.148
296.008
295.897
295.818
295.77
295.751
295.762
295.8
295.861
295.941
296.037
296.146
296.264
296.392
296.526
296.665
296.809
296.954
297.099
297.241
297.378
297.508
297.629
297.74
297.842
297.932
298.013
298.084
298.146
298.199
298.244
298.282
298.313
298.338
298.359
298.377
298.394
298.411
298.43
298.453
298.481
298.513
298.551
298.592
299.769
299.666
299.561
299.45
299.331
299.205
299.07
298.929
298.782
298.633
298.484
298.339
298.205
298.086
297.989
297.921
297.887
297.891
297.93
298.003
298.104
298.227
298.365
298.509
298.651
298.786
298.908
299.015
299.106
299.181
299.241
299.288
299.322
299.344
299.355
299.357
299.348
299.329
299.3
299.26
299.21
299.149
299.076
298.993
298.9
298.797
298.687
298.572
298.459
298.357
300.001
300.001
300.002
300.002
300.002
300.002
300.002
300.002
300.001
300.001
300
299.999
299.999
299.998
299.996
299.995
299.994
299.993
299.991
299.99
299.989
299.988
299.987
299.986
299.986
299.986
299.985
299.985
299.985
299.985
299.986
299.986
299.986
299.986
299.986
299.986
299.986
299.986
299.985
299.983
299.981
299.978
299.974
299.968
299.959
299.946
299.928
299.903
299.867
299.818
300.003
300.003
300.003
300.004
300.005
300.005
300.006
300.007
300.007
300.008
300.008
300.009
300.009
300.01
300.01
300.011
300.011
300.011
300.012
300.012
300.012
300.012
300.012
300.012
300.013
300.013
300.013
300.013
300.013
300.014
300.014
300.014
300.014
300.015
300.015
300.015
300.015
300.016
300.016
300.016
300.016
300.016
300.016
300.016
300.016
300.015
300.013
300.01
300.005
299.996
300.004
300.005
300.005
300.006
300.007
300.008
300.009
300.01
300.011
300.011
300.012
300.013
300.014
300.014
300.015
300.016
300.016
300.017
300.017
300.018
300.018
300.018
300.019
300.019
300.019
300.02
300.02
300.021
300.021
300.021
300.022
300.022
300.022
300.023
300.023
300.023
300.024
300.024
300.024
300.025
300.025
300.025
300.025
300.025
300.026
300.026
300.025
300.025
300.024
300.023
300.009
300.011
300.012
300.013
300.014
300.015
300.016
300.018
300.019
300.02
300.021
300.022
300.023
300.023
300.024
300.025
300.026
300.026
300.027
300.028
300.028
300.029
300.029
300.03
300.03
300.031
300.031
300.032
300.032
300.032
300.033
300.033
300.034
300.034
300.035
300.035
300.035
300.036
300.036
300.036
300.036
300.037
300.037
300.037
300.037
300.037
300.037
300.036
300.036
300.035
300.006
300.007
300.007
300.008
300.009
300.01
300.011
300.012
300.013
300.014
300.015
300.016
300.017
300.018
300.019
300.02
300.021
300.022
300.023
300.024
300.025
300.026
300.027
300.028
300.029
300.03
300.031
300.032
300.033
300.034
300.035
300.036
300.037
300.038
300.038
300.039
300.039
300.04
300.04
300.04
300.041
300.04
300.04
300.04
300.039
300.038
300.037
300.035
300.034
300.032
300.019
300.023
300.025
300.028
300.031
300.033
300.035
300.038
300.04
300.042
300.044
300.046
300.048
300.05
300.052
300.054
300.056
300.058
300.06
300.062
300.064
300.066
300.068
300.07
300.071
300.073
300.074
300.076
300.077
300.078
300.079
300.08
300.08
300.081
300.081
300.082
300.082
300.083
300.083
300.083
300.083
300.083
300.083
300.083
300.084
300.084
300.085
300.085
300.086
300.087
300.006
300.007
300.007
300.007
300.007
300.007
300.006
300.005
300.004
300.002
300.001
300.001
300
300
300
300
300.001
300.002
300.002
300.003
300.004
300.004
300.005
300.005
300.006
300.006
300.006
300.006
300.005
300.005
300.004
300.003
300.002
300
299.999
299.997
299.995
299.994
299.991
299.989
299.987
299.985
299.982
299.98
299.977
299.974
299.971
299.968
299.965
299.961
300.03
300.034
300.037
300.042
300.048
300.056
300.064
300.073
300.082
300.09
300.098
300.106
300.113
300.12
300.127
300.133
300.139
300.145
300.151
300.158
300.164
300.17
300.177
300.183
300.19
300.197
300.204
300.212
300.219
300.226
300.234
300.241
300.249
300.256
300.264
300.271
300.279
300.286
300.294
300.301
300.309
300.317
300.325
300.333
300.341
300.349
300.358
300.366
300.376
300.384
300.004
300.004
300.004
300.004
300.004
300.004
300.005
300.006
300.008
300.009
300.011
300.013
300.015
300.017
300.019
300.02
300.022
300.024
300.025
300.026
300.027
300.028
300.029
300.029
300.03
300.03
300.03
300.031
300.031
300.03
300.03
300.03
300.029
300.029
300.028
300.028
300.028
300.027
300.027
300.027
300.027
300.027
300.027
300.027
300.027
300.028
300.029
300.029
300.03
300.033
303.147
303.143
303.139
303.135
303.131
303.127
303.123
303.12
303.116
303.112
303.109
303.105
303.102
303.098
303.095
303.092
303.088
303.085
303.082
303.079
303.075
303.072
303.069
303.066
303.063
303.06
303.057
303.054
303.051
303.048
303.045
303.043
303.04
303.037
303.034
303.032
303.029
303.026
303.023
303.021
303.018
303.016
303.013
303.011
303.009
303.006
303.004
303.003
303.001
303
303.15
303.15
303.15
303.15
303.15
303.149
303.149
303.149
303.149
303.149
303.148
303.148
303.148
303.147
303.147
303.147
303.146
303.146
303.145
303.145
303.145
303.144
303.144
303.143
303.143
303.142
303.142
303.141
303.141
303.141
303.14
303.14
303.139
303.139
303.138
303.138
303.137
303.137
303.136
303.136
303.135
303.135
303.135
303.134
303.134
303.133
303.133
303.133
303.133
303.132
303.15
303.15
303.15
303.15
303.15
303.15
303.15
303.15
303.15
303.15
303.15
303.15
303.15
303.15
303.15
303.15
303.15
303.15
303.15
303.15
303.15
303.15
303.15
303.15
303.15
303.15
303.15
303.15
303.149
303.149
303.149
303.149
303.149
303.149
303.149
303.149
303.149
303.149
303.149
303.149
303.149
303.149
303.149
303.149
303.149
303.149
303.149
303.149
303.149
303.149
303.15
303.15
303.15
303.15
303.15
303.15
303.15
303.15
303.15
303.15
303.15
303.15
303.15
303.15
303.15
303.15
303.15
303.15
303.15
303.15
303.15
303.15
303.15
303.15
303.15
303.15
303.15
303.15
303.15
303.15
303.15
303.15
303.15
303.15
303.15
303.15
303.15
303.15
303.15
303.15
303.15
303.15
303.15
303.15
303.15
303.15
303.15
303.15
303.15
303.15
303.15
303.15
303.15
303.15
303.15
303.15
303.15
303.15
303.15
303.15
303.15
303.15
303.15
303.15
303.15
303.15
303.15
303.15
303.15
303.15
303.15
303.15
303.15
303.15
303.15
303.15
303.15
303.15
303.15
303.15
303.15
303.15
303.15
303.15
303.15
303.15
303.15
303.15
303.15
303.15
303.15
303.15
303.15
303.15
303.15
303.15
303.15
303.15
303.15
303.15
303.15
303.15
303.15
303.15
303.15
303.15
303.15
303.15
303.15
303.15
303.15
303.15
303.15
303.15
303.15
303.15
303.15
303.15
303.15
303.15
303.15
303.15
303.15
303.15
303.15
303.15
303.15
303.15
303.15
303.15
303.15
303.15
303.15
303.15
303.15
303.15
303.15
303.15
303.15
303.15
303.15
303.15
303.15
303.15
303.15
303.15
303.15
303.15
303.15
303.15
303.15
303.15
303.15
303.15
303.15
303.15
303.15
303.15
303.15
303.15
303.15
303.15
303.15
303.15
303.15
303.15
303.15
303.15
303.15
303.15
303.15
303.15
303.15
303.15
303.15
303.15
303.15
303.15
303.15
303.15
303.15
303.15
303.15
303.15
303.15
303.15
303.15
303.15
303.15
303.15
303.15
303.15
303.15
303.15
303.15
303.15
303.15
303.15
303.15
303.15
303.15
303.15
303.15
303.15
303.15
303.15
303.15
303.15
303.15
303.15
303.15
303.15
303.15
303.15
303.15
303.15
303.15
303.15
303.15
303.15
303.15
303.15
303.15
303.15
303.15
303.15
303.15
303.15
303.15
303.15
303.15
303.15
303.15
303.15
303.15
303.15
303.15
303.15
303.15
303.15
303.15
303.15
303.15
303.15
303.15
303.15
303.15
303.15
303.15
303.15
303.15
303.15
303.15
303.15
303.15
303.15
303.15
303.15
303.15
303.15
303.15
303.15
303.15
303.15
303.15
303.15
303.15
303.15
303.15
303.15
303.15
303.15
303.15
303.15
303.15
303.15
303.15
303.15
303.15
303.15
303.15
303.15
303.15
303.15
303.15
303.15
303.15
303.15
303.15
303.15
303.15
303.15
303.15
303.15
303.15
303.15
303.15
303.15
303.15
303.15
303.15
303.15
303.15
303.15
303.15
303.15
303.15
303.15
303.15
303.15
303.15
303.15
303.15
303.15
303.15
303.15
303.15
303.15
303.15
303.15
303.15
303.15
303.15
303.15
303.15
303.15
303.15
303.15
303.15
303.15
303.15
303.15
303.15
303.15
303.15
303.15
303.15
303.15
303.15
303.15
303.15
303.15
303.15
303.15
303.15
303.15
303.15
303.15
303.15
303.15
303.15
303.15
303.15
303.15
303.15
303.15
303.15
303.15
303.15
303.15
303.15
303.15
303.15
303.15
303.15
303.15
303.15
303.15
303.15
303.15
303.15
303.15
303.15
303.15
303.15
303.15
303.15
303.15
303.15
303.15
303.15
303.15
303.15
303.15
303.15
303.15
303.15
303.15
303.15
303.15
303.15
303.15
303.15
303.15
303.15
303.15
303.15
303.15
303.15
303.15
303.15
303.15
303.15
303.15
303.15
303.15
303.15
303.15
303.15
303.15
303.15
303.15
303.15
303.15
303.15
303.15
303.15
303.15
303.15
303.15
303.15
303.15
303.15
303.15
303.15
303.15
303.15
303.15
303.15
303.15
303.15
303.15
303.15
303.15
303.15
303.15
303.15
303.15
303.15
303.15
303.15
303.15
303.15
303.15
303.15
303.15
303.15
303.15
303.15
303.15
303.15
303.15
303.15
303.15
303.15
303.15
303.15
303.15
303.15
303.15
303.15
303.15
303.15
303.15
303.15
303.15
303.15
303.15
303.15
303.15
303.15
303.15
303.15
303.15
303.15
303.15
303.15
303.15
303.15
303.15
303.15
303.15
303.15
303.15
303.15
303.15
303.15
303.15
303.15
303.15
303.15
303.15
303.15
303.15
303.15
303.15
303.15
303.15
303.15
303.15
303.15
303.15
303.15
303.15
303.15
303.15
303.15
303.15
303.15
303.15
303.15
303.15
303.15
303.15
303.15
303.15
303.15
303.15
303.15
303.15
303.15
303.15
303.15
303.15
303.15
303.15
303.15
303.15
303.15
303.15
303.15
303.15
303.15
303.15
303.15
303.15
303.15
303.15
303.15
303.15
303.15
303.15
303.15
303.15
303.15
303.15
303.15
303.15
303.15
303.15
303.15
303.15
303.15
303.15
303.15
303.15
303.15
303.15
303.15
303.15
303.15
303.15
303.15
303.15
303.15
303.15
303.15
303.15
303.15
303.15
303.15
303.15
303.15
303.15
303.15
303.15
303.15
303.15
303.15
303.15
303.15
303.15
303.15
303.15
303.15
303.15
303.15
303.15
303.15
303.15
303.15
303.15
303.15
303.15
303.15
303.15
303.15
303.15
303.15
303.15
303.15
303.15
303.15
303.15
303.15
303.15
303.15
303.15
303.15
303.15
303.15
303.15
303.15
303.15
303.15
303.15
303.15
303.15
303.15
303.15
303.15
303.15
303.15
303.15
303.15
303.15
303.15
303.15
303.15
303.15
303.15
303.15
303.15
303.15
303.15
303.15
303.15
303.15
303.15
303.15
303.15
303.15
303.15
303.15
303.15
303.15
303.15
303.15
303.15
303.15
303.15
303.15
303.15
303.15
303.15
303.15
303.15
303.15
303.15
303.15
303.15
303.15
303.15
303.15
303.15
303.15
303.15
303.15
303.15
303.15
303.15
303.15
303.15
303.15
303.15
303.15
303.15
303.15
303.15
303.15
303.15
303.15
303.15
303.15
303.15
303.15
303.15
303.15
303.15
303.15
303.15
303.15
303.15
303.15
303.15
303.15
303.15
303.15
303.15
303.15
303.15
303.15
303.15
303.15
303.15
303.15
303.15
303.15
303.15
303.15
303.15
303.15
303.15
303.15
303.15
303.15
303.15
303.15
303.15
303.15
303.15
303.15
303.15
303.15
303.15
303.15
303.15
303.149
303.149
303.149
303.149
303.149
303.149
303.149
303.149
303.149
303.149
303.149
303.149
303.149
303.149
303.149
303.148
303.148
303.148
303.148
303.148
303.147
303.147
303.147
303.15
303.15
303.15
303.15
303.15
303.149
303.149
303.149
303.149
303.149
303.148
303.148
303.148
303.147
303.147
303.147
303.146
303.146
303.145
303.145
303.145
303.144
303.144
303.143
303.143
303.142
303.142
303.141
303.141
303.14
303.14
303.139
303.139
303.138
303.137
303.137
303.136
303.136
303.135
303.134
303.134
303.133
303.132
303.131
303.13
303.129
303.128
303.127
303.126
303.124
303.147
303.143
303.139
303.135
303.131
303.127
303.123
303.12
303.116
303.112
303.109
303.105
303.102
303.098
303.095
303.092
303.088
303.085
303.082
303.079
303.075
303.072
303.069
303.066
303.063
303.06
303.057
303.054
303.051
303.048
303.045
303.042
303.04
303.037
303.034
303.031
303.029
303.026
303.023
303.021
303.018
303.015
303.013
303.01
303.007
303.005
303.002
303
302.997
302.995
302.789
303.061
303.138
303.149
303.15
303.15
303.15
303.15
303.15
303.15
303.15
303.149
303.148
303.145
303.135
303.113
303.065
302.976
302.834
302.64
302.784
303.059
303.137
303.149
303.15
303.15
303.15
303.15
303.15
303.15
303.15
303.15
303.149
303.147
303.141
303.125
303.087
303.007
302.866
302.646
302.78
303.057
303.136
303.149
303.15
303.15
303.15
303.15
303.15
303.15
303.15
303.15
303.149
303.148
303.144
303.132
303.102
303.03
302.89
302.649
302.776
303.054
303.136
303.149
303.15
303.15
303.15
303.15
303.15
303.15
303.15
303.15
303.15
303.149
303.146
303.137
303.112
303.048
302.909
302.652
302.772
303.052
303.135
303.148
303.15
303.15
303.15
303.15
303.15
303.15
303.15
303.15
303.15
303.149
303.147
303.141
303.12
303.062
302.925
302.654
302.768
303.051
303.135
303.148
303.15
303.15
303.15
303.15
303.15
303.15
303.15
303.15
303.15
303.149
303.148
303.143
303.125
303.072
302.937
302.657
302.766
303.049
303.135
303.148
303.15
303.15
303.15
303.15
303.15
303.15
303.15
303.15
303.15
303.15
303.149
303.144
303.13
303.081
302.947
302.659
302.763
303.048
303.134
303.148
303.15
303.15
303.15
303.15
303.15
303.15
303.15
303.15
303.15
303.15
303.149
303.146
303.133
303.087
302.956
302.661
302.761
303.047
303.134
303.148
303.15
303.15
303.15
303.15
303.15
303.15
303.15
303.15
303.15
303.15
303.149
303.146
303.135
303.092
302.963
302.663
302.759
303.046
303.134
303.148
303.15
303.15
303.15
303.15
303.15
303.15
303.15
303.15
303.15
303.15
303.149
303.147
303.137
303.097
302.969
302.665
302.758
303.045
303.134
303.148
303.15
303.15
303.15
303.15
303.15
303.15
303.15
303.15
303.15
303.15
303.149
303.147
303.138
303.1
302.974
302.666
302.757
303.044
303.133
303.148
303.15
303.15
303.15
303.15
303.15
303.15
303.15
303.15
303.15
303.15
303.15
303.148
303.139
303.103
302.978
302.668
302.756
303.044
303.133
303.148
303.15
303.15
303.15
303.15
303.15
303.15
303.15
303.15
303.15
303.15
303.15
303.148
303.14
303.106
302.982
302.67
302.756
303.043
303.133
303.148
303.15
303.15
303.15
303.15
303.15
303.15
303.15
303.15
303.15
303.15
303.15
303.148
303.141
303.108
302.985
302.672
302.756
303.043
303.133
303.148
303.15
303.15
303.15
303.15
303.15
303.15
303.15
303.15
303.15
303.15
303.15
303.148
303.142
303.11
302.988
302.674
302.756
303.043
303.133
303.148
303.15
303.15
303.15
303.15
303.15
303.15
303.15
303.15
303.15
303.15
303.15
303.149
303.142
303.111
302.99
302.676
302.756
303.043
303.133
303.148
303.15
303.15
303.15
303.15
303.15
303.15
303.15
303.15
303.15
303.15
303.15
303.149
303.142
303.112
302.992
302.677
302.757
303.043
303.133
303.148
303.15
303.15
303.15
303.15
303.15
303.15
303.15
303.15
303.15
303.15
303.15
303.149
303.143
303.113
302.994
302.679
302.758
303.043
303.133
303.148
303.15
303.15
303.15
303.15
303.15
303.15
303.15
303.15
303.15
303.15
303.15
303.149
303.143
303.114
302.996
302.681
302.758
303.044
303.133
303.148
303.15
303.15
303.15
303.15
303.15
303.15
303.15
303.15
303.15
303.15
303.15
303.149
303.143
303.115
302.998
302.683
302.759
303.044
303.133
303.148
303.15
303.15
303.15
303.15
303.15
303.15
303.15
303.15
303.15
303.15
303.15
303.149
303.144
303.116
302.999
302.685
302.76
303.044
303.133
303.148
303.15
303.15
303.15
303.15
303.15
303.15
303.15
303.15
303.15
303.15
303.15
303.149
303.144
303.117
303.001
302.686
302.761
303.045
303.133
303.148
303.15
303.15
303.15
303.15
303.15
303.15
303.15
303.15
303.15
303.15
303.15
303.149
303.144
303.117
303.002
302.688
302.763
303.045
303.133
303.148
303.15
303.15
303.15
303.15
303.15
303.15
303.15
303.15
303.15
303.15
303.15
303.149
303.144
303.118
303.003
302.69
302.764
303.046
303.134
303.148
303.15
303.15
303.15
303.15
303.15
303.15
303.15
303.15
303.15
303.15
303.15
303.149
303.144
303.118
303.005
302.692
302.765
303.046
303.134
303.148
303.15
303.15
303.15
303.15
303.15
303.15
303.15
303.15
303.15
303.15
303.15
303.149
303.144
303.119
303.006
302.693
302.767
303.047
303.134
303.148
303.15
303.15
303.15
303.15
303.15
303.15
303.15
303.15
303.15
303.15
303.15
303.149
303.144
303.119
303.007
302.695
302.768
303.047
303.134
303.148
303.15
303.15
303.15
303.15
303.15
303.15
303.15
303.15
303.15
303.15
303.15
303.149
303.144
303.119
303.008
302.697
302.77
303.048
303.134
303.148
303.15
303.15
303.15
303.15
303.15
303.15
303.15
303.15
303.15
303.15
303.15
303.149
303.145
303.12
303.009
302.699
302.771
303.048
303.134
303.148
303.15
303.15
303.15
303.15
303.15
303.15
303.15
303.15
303.15
303.15
303.15
303.149
303.145
303.12
303.01
302.701
302.773
303.049
303.134
303.148
303.15
303.15
303.15
303.15
303.15
303.15
303.15
303.15
303.15
303.15
303.15
303.149
303.145
303.12
303.011
302.702
302.774
303.049
303.134
303.148
303.15
303.15
303.15
303.15
303.15
303.15
303.15
303.15
303.15
303.15
303.15
303.149
303.145
303.121
303.012
302.704
302.776
303.05
303.135
303.148
303.15
303.15
303.15
303.15
303.15
303.15
303.15
303.15
303.15
303.15
303.15
303.149
303.145
303.121
303.013
302.706
302.777
303.051
303.135
303.148
303.15
303.15
303.15
303.15
303.15
303.15
303.15
303.15
303.15
303.15
303.15
303.149
303.145
303.121
303.014
302.708
302.779
303.051
303.135
303.148
303.15
303.15
303.15
303.15
303.15
303.15
303.15
303.15
303.15
303.15
303.15
303.149
303.145
303.121
303.015
302.71
302.78
303.052
303.135
303.148
303.15
303.15
303.15
303.15
303.15
303.15
303.15
303.15
303.15
303.15
303.15
303.149
303.145
303.122
303.015
302.711
302.782
303.053
303.135
303.148
303.15
303.15
303.15
303.15
303.15
303.15
303.15
303.15
303.15
303.15
303.15
303.149
303.145
303.122
303.016
302.713
302.783
303.053
303.135
303.148
303.15
303.15
303.15
303.15
303.15
303.15
303.15
303.15
303.15
303.15
303.15
303.149
303.145
303.122
303.017
302.715
302.785
303.054
303.135
303.148
303.15
303.15
303.15
303.15
303.15
303.15
303.15
303.15
303.15
303.15
303.15
303.149
303.145
303.122
303.018
302.717
302.786
303.055
303.136
303.148
303.15
303.15
303.15
303.15
303.15
303.15
303.15
303.15
303.15
303.15
303.15
303.149
303.145
303.123
303.019
302.719
302.788
303.056
303.136
303.148
303.15
303.15
303.15
303.15
303.15
303.15
303.15
303.15
303.15
303.15
303.15
303.149
303.145
303.123
303.02
302.72
302.789
303.056
303.136
303.148
303.15
303.15
303.15
303.15
303.15
303.15
303.15
303.15
303.15
303.15
303.15
303.149
303.145
303.123
303.021
302.722
302.791
303.057
303.136
303.148
303.15
303.15
303.15
303.15
303.15
303.15
303.15
303.15
303.15
303.15
303.15
303.149
303.145
303.123
303.022
302.724
302.793
303.058
303.136
303.148
303.15
303.15
303.15
303.15
303.15
303.15
303.15
303.15
303.15
303.15
303.15
303.149
303.145
303.124
303.022
302.726
302.794
303.058
303.136
303.148
303.15
303.15
303.15
303.15
303.15
303.15
303.15
303.15
303.15
303.15
303.15
303.149
303.145
303.124
303.023
302.728
302.796
303.059
303.136
303.148
303.15
303.15
303.15
303.15
303.15
303.15
303.15
303.15
303.15
303.15
303.15
303.149
303.145
303.124
303.024
302.73
302.797
303.06
303.137
303.148
303.15
303.15
303.15
303.15
303.15
303.15
303.15
303.15
303.15
303.15
303.15
303.149
303.146
303.124
303.025
302.732
302.799
303.06
303.137
303.148
303.15
303.15
303.15
303.15
303.15
303.15
303.15
303.15
303.15
303.15
303.15
303.149
303.146
303.124
303.026
302.733
302.8
303.061
303.137
303.149
303.15
303.15
303.15
303.15
303.15
303.15
303.15
303.15
303.15
303.15
303.15
303.149
303.146
303.125
303.027
302.735
302.802
303.062
303.137
303.149
303.15
303.15
303.15
303.15
303.15
303.15
303.15
303.15
303.15
303.15
303.15
303.149
303.146
303.125
303.028
302.737
302.804
303.063
303.137
303.149
303.15
303.15
303.15
303.15
303.15
303.15
303.15
303.15
303.15
303.15
303.15
303.149
303.146
303.125
303.028
302.739
302.805
303.063
303.137
303.149
303.15
303.15
303.15
303.15
303.15
303.15
303.15
303.15
303.15
303.15
303.15
303.149
303.146
303.125
303.029
302.741
302.807
303.064
303.138
303.149
303.15
303.15
303.15
303.15
303.15
303.15
303.15
303.15
303.15
303.15
303.15
303.149
303.146
303.126
303.03
302.743
302.808
303.065
303.138
303.149
303.15
303.15
303.15
303.15
303.15
303.15
303.15
303.15
303.15
303.15
303.15
303.149
303.146
303.126
303.031
302.745
302.81
303.065
303.138
303.149
303.15
303.15
303.15
303.15
303.15
303.15
303.15
303.15
303.15
303.15
303.15
303.149
303.146
303.126
303.032
302.747
302.812
303.066
303.138
303.149
303.15
303.15
303.15
303.15
303.15
303.15
303.15
303.15
303.15
303.15
303.15
303.149
303.146
303.126
303.033
302.748
302.813
303.067
303.138
303.149
303.15
303.15
303.15
303.15
303.15
303.15
303.15
303.15
303.15
303.15
303.15
303.149
303.146
303.126
303.033
302.75
302.815
303.067
303.138
303.149
303.15
303.15
303.15
303.15
303.15
303.15
303.15
303.15
303.15
303.15
303.15
303.149
303.146
303.127
303.034
302.752
302.816
303.068
303.138
303.149
303.15
303.15
303.15
303.15
303.15
303.15
303.15
303.15
303.15
303.15
303.15
303.149
303.146
303.127
303.035
302.754
302.818
303.069
303.139
303.149
303.15
303.15
303.15
303.15
303.15
303.15
303.15
303.15
303.15
303.15
303.15
303.149
303.146
303.127
303.036
302.756
302.82
303.069
303.139
303.149
303.15
303.15
303.15
303.15
303.15
303.15
303.15
303.15
303.15
303.15
303.15
303.149
303.146
303.127
303.037
302.758
302.821
303.07
303.139
303.149
303.15
303.15
303.15
303.15
303.15
303.15
303.15
303.15
303.15
303.15
303.15
303.149
303.146
303.127
303.038
302.76
302.823
303.071
303.139
303.149
303.15
303.15
303.15
303.15
303.15
303.15
303.15
303.15
303.15
303.15
303.15
303.149
303.146
303.128
303.039
302.762
302.824
303.072
303.139
303.149
303.15
303.15
303.15
303.15
303.15
303.15
303.15
303.15
303.15
303.15
303.15
303.149
303.146
303.128
303.039
302.764
302.826
303.072
303.139
303.149
303.15
303.15
303.15
303.15
303.15
303.15
303.15
303.15
303.15
303.15
303.15
303.149
303.146
303.128
303.04
302.766
302.828
303.073
303.139
303.149
303.15
303.15
303.15
303.15
303.15
303.15
303.15
303.15
303.15
303.15
303.15
303.149
303.146
303.128
303.041
302.768
302.829
303.074
303.14
303.149
303.15
303.15
303.15
303.15
303.15
303.15
303.15
303.15
303.15
303.15
303.15
303.149
303.146
303.129
303.042
302.77
302.831
303.074
303.14
303.149
303.15
303.15
303.15
303.15
303.15
303.15
303.15
303.15
303.15
303.15
303.15
303.149
303.146
303.129
303.043
302.772
302.833
303.075
303.14
303.149
303.15
303.15
303.15
303.15
303.15
303.15
303.15
303.15
303.15
303.15
303.15
303.149
303.146
303.129
303.044
302.774
302.834
303.076
303.14
303.149
303.15
303.15
303.15
303.15
303.15
303.15
303.15
303.15
303.15
303.15
303.15
303.149
303.146
303.129
303.044
302.775
302.836
303.076
303.14
303.149
303.15
303.15
303.15
303.15
303.15
303.15
303.15
303.15
303.15
303.15
303.15
303.149
303.146
303.129
303.045
302.777
302.837
303.077
303.14
303.149
303.15
303.15
303.15
303.15
303.15
303.15
303.15
303.15
303.15
303.15
303.15
303.149
303.147
303.13
303.046
302.779
302.839
303.078
303.14
303.149
303.15
303.15
303.15
303.15
303.15
303.15
303.15
303.15
303.15
303.15
303.15
303.149
303.147
303.13
303.047
302.781
302.841
303.079
303.141
303.149
303.15
303.15
303.15
303.15
303.15
303.15
303.15
303.15
303.15
303.15
303.15
303.149
303.147
303.13
303.048
302.783
302.842
303.079
303.141
303.149
303.15
303.15
303.15
303.15
303.15
303.15
303.15
303.15
303.15
303.15
303.15
303.15
303.147
303.13
303.049
302.785
302.844
303.08
303.141
303.149
303.15
303.15
303.15
303.15
303.15
303.15
303.15
303.15
303.15
303.15
303.15
303.15
303.147
303.13
303.049
302.787
302.846
303.081
303.141
303.149
303.15
303.15
303.15
303.15
303.15
303.15
303.15
303.15
303.15
303.15
303.15
303.15
303.147
303.131
303.05
302.789
302.847
303.081
303.141
303.149
303.15
303.15
303.15
303.15
303.15
303.15
303.15
303.15
303.15
303.15
303.15
303.15
303.147
303.131
303.051
302.791
302.849
303.082
303.141
303.149
303.15
303.15
303.15
303.15
303.15
303.15
303.15
303.15
303.15
303.15
303.15
303.15
303.147
303.131
303.052
302.794
302.851
303.083
303.141
303.149
303.15
303.15
303.15
303.15
303.15
303.15
303.15
303.15
303.15
303.15
303.15
303.15
303.147
303.131
303.053
302.796
302.853
303.084
303.142
303.149
303.15
303.15
303.15
303.15
303.15
303.15
303.15
303.15
303.15
303.15
303.15
303.15
303.147
303.131
303.054
302.798
302.854
303.084
303.142
303.149
303.15
303.15
303.15
303.15
303.15
303.15
303.15
303.15
303.15
303.15
303.15
303.15
303.147
303.132
303.055
302.8
302.856
303.085
303.142
303.149
303.15
303.15
303.15
303.15
303.15
303.15
303.15
303.15
303.15
303.15
303.15
303.15
303.147
303.132
303.055
302.802
302.858
303.086
303.142
303.149
303.15
303.15
303.15
303.15
303.15
303.15
303.15
303.15
303.15
303.15
303.15
303.15
303.147
303.132
303.056
302.804
302.859
303.086
303.142
303.149
303.15
303.15
303.15
303.15
303.15
303.15
303.15
303.15
303.15
303.15
303.15
303.15
303.147
303.132
303.057
302.806
302.861
303.087
303.142
303.149
303.15
303.15
303.15
303.15
303.15
303.15
303.15
303.15
303.15
303.15
303.15
303.15
303.147
303.132
303.058
302.808
302.863
303.088
303.142
303.149
303.15
303.15
303.15
303.15
303.15
303.15
303.15
303.15
303.15
303.15
303.15
303.15
303.147
303.133
303.059
302.81
302.864
303.088
303.142
303.149
303.15
303.15
303.15
303.15
303.15
303.15
303.15
303.15
303.15
303.15
303.15
303.15
303.147
303.133
303.06
302.812
302.866
303.089
303.143
303.149
303.15
303.15
303.15
303.15
303.15
303.15
303.15
303.15
303.15
303.15
303.15
303.15
303.147
303.133
303.06
302.814
302.868
303.09
303.143
303.149
303.15
303.15
303.15
303.15
303.15
303.15
303.15
303.15
303.15
303.15
303.15
303.15
303.147
303.133
303.061
302.816
302.87
303.091
303.143
303.149
303.15
303.15
303.15
303.15
303.15
303.15
303.15
303.15
303.15
303.15
303.15
303.15
303.147
303.133
303.062
302.818
302.871
303.091
303.143
303.149
303.15
303.15
303.15
303.15
303.15
303.15
303.15
303.15
303.15
303.15
303.15
303.15
303.147
303.133
303.063
302.82
302.873
303.092
303.143
303.149
303.15
303.15
303.15
303.15
303.15
303.15
303.15
303.15
303.15
303.15
303.15
303.15
303.147
303.134
303.064
302.823
302.875
303.093
303.143
303.149
303.15
303.15
303.15
303.15
303.15
303.15
303.15
303.15
303.15
303.15
303.15
303.15
303.147
303.134
303.065
302.825
302.876
303.093
303.143
303.149
303.15
303.15
303.15
303.15
303.15
303.15
303.15
303.15
303.15
303.15
303.15
303.15
303.147
303.134
303.065
302.827
302.878
303.094
303.143
303.149
303.15
303.15
303.15
303.15
303.15
303.15
303.15
303.15
303.15
303.15
303.15
303.15
303.147
303.134