/*--------------------------------*- C++ -*----------------------------------*\
  =========                 |
  \\      /  F ield         | OpenFOAM: The Open Source CFD Toolbox
   \\    /   O peration     | Website:  https://openfoam.org
    \\  /    A nd           | Version:  8
     \\/     M anipulation  |
\*---------------------------------------------------------------------------*/
FoamFile
{
    version     2.0;
    format      ascii;
    class       volScalarField;
    location    "400";
    object      alphat;
}
// * * * * * * * * * * * * * * * * * * * * * * * * * * * * * * * * * * * * * //

dimensions      [1 -1 -1 0 0 0 0];

internalField   nonuniform List<scalar> 
1200
(
0.800815
0.734741
0.679816
0.633487
0.594022
0.560086
0.530626
0.504864
0.482187
0.46203
0.443981
0.428189
0.415508
0.40653
0.404284
0.400476
0.388535
0.37073
0.350935
0.331417
0.313289
0.296874
0.282833
0.270843
0.260808
0.252779
0.24645
0.24138
0.237142
0.233493
0.230405
0.227988
0.226405
0.225702
0.225485
0.224994
0.223169
0.219798
0.215222
0.209854
0.203924
0.197311
0.190239
0.1832
0.176497
0.170609
0.165978
0.162742
0.160841
0.160153
0.160486
0.161269
0.161145
0.158106
0.15167
0.14301
0.13381
0.125447
0.118105
0.112271
0.465663
0.39983
0.349329
0.309613
0.277749
0.251608
0.229827
0.211336
0.195388
0.1817
0.169873
0.159621
0.150868
0.14949
0.158078
0.165836
0.167091
0.162721
0.15503
0.145723
0.136094
0.127598
0.120226
0.113693
0.10783
0.102653
0.0981199
0.0941371
0.0905555
0.0872689
0.084223
0.0813938
0.0787783
0.0764112
0.0744261
0.0731568
0.0730925
0.0738137
0.0745039
0.0746933
0.0742262
0.0730494
0.0710467
0.0682761
0.0653182
0.0625994
0.0601107
0.0578429
0.0557977
0.0539586
0.0523251
0.0509959
0.0503475
0.0510641
0.0523618
0.0529006
0.052185
0.0503939
0.048288
0.0462313
0.465559
0.399191
0.348248
0.308098
0.275796
0.249336
0.227338
0.208784
0.192922
0.179292
0.16751
0.157296
0.148393
0.140875
0.136495
0.135128
0.133993
0.131544
0.127787
0.123247
0.118474
0.11394
0.1097
0.105674
0.101726
0.0979551
0.094489
0.0913424
0.0884487
0.0857477
0.0831954
0.0807664
0.0784571
0.0762749
0.0742238
0.0722988
0.0704913
0.0687973
0.0672285
0.0657677
0.0644036
0.063122
0.0618787
0.0606689
0.0594731
0.0582731
0.057045
0.0557696
0.054448
0.053089
0.051703
0.0503102
0.048965
0.047772
0.0468522
0.0461746
0.0455781
0.044998
0.0443766
0.0436963
0.465561
0.399375
0.348562
0.308495
0.276206
0.249727
0.227691
0.209089
0.193207
0.179521
0.167689
0.157424
0.148509
0.140714
0.134019
0.128698
0.124382
0.120425
0.116415
0.112287
0.108255
0.104489
0.100973
0.0976845
0.0946037
0.0917042
0.0889446
0.086303
0.0837912
0.0814116
0.079155
0.0770104
0.0749698
0.0730252
0.0711751
0.0694171
0.0677432
0.0661443
0.0646166
0.0631665
0.0617898
0.0604847
0.0592501
0.0580815
0.0569756
0.0559268
0.0549227
0.0539472
0.052999
0.0520912
0.051232
0.0503981
0.0495441
0.0486388
0.0476868
0.0467183
0.0457651
0.0448648
0.0440133
0.0432009
0.465562
0.399388
0.348548
0.308461
0.276146
0.249649
0.227605
0.208993
0.193111
0.179426
0.167573
0.157323
0.148499
0.14079
0.133973
0.127986
0.122741
0.118078
0.113849
0.109941
0.106307
0.10291
0.0997022
0.0966457
0.0937205
0.0909204
0.088231
0.0856442
0.0831559
0.0807634
0.0784647
0.0762608
0.0741495
0.0721332
0.0702142
0.0683973
0.0666813
0.0650699
0.0635696
0.0621811
0.0608957
0.0596883
0.0585335
0.0574239
0.0563587
0.0553322
0.0543308
0.0533513
0.0524245
0.051572
0.0507949
0.0500486
0.0493236
0.0485995
0.0478589
0.0470921
0.0462956
0.0454581
0.0445393
0.0435606
0.465561
0.399403
0.348557
0.308456
0.276145
0.249643
0.227579
0.208959
0.193064
0.179378
0.16753
0.157419
0.148878
0.141449
0.13479
0.128885
0.123663
0.119039
0.114898
0.111105
0.107567
0.104195
0.100941
0.0977818
0.094714
0.0917428
0.0888649
0.0860799
0.083404
0.0808417
0.078385
0.0760278
0.0737707
0.0716094
0.0695495
0.0675942
0.0657361
0.0639604
0.0622671
0.0606653
0.0591672
0.0577747
0.0564738
0.055256
0.0541153
0.0530405
0.0520268
0.0510703
0.0501662
0.0493376
0.0486311
0.0480511
0.0475585
0.0470917
0.0465977
0.0460278
0.0453337
0.0444689
0.0433666
0.0420853
0.46556
0.399425
0.348614
0.308559
0.276292
0.249803
0.227737
0.209104
0.193173
0.179434
0.167633
0.158368
0.150992
0.1443
0.13786
0.131845
0.126504
0.121766
0.117501
0.113534
0.109714
0.105971
0.102288
0.0986718
0.095159
0.0917768
0.0885367
0.0854404
0.0825115
0.0797425
0.0771033
0.0745748
0.0721273
0.0697973
0.067606
0.0655551
0.0636265
0.0618054
0.0601024
0.0585309
0.0570947
0.0557982
0.0546191
0.0535182
0.0524447
0.0513605
0.0502725
0.0492006
0.0481622
0.0471696
0.0462707
0.0455307
0.0449752
0.0445416
0.0441022
0.0435203
0.042677
0.0415195
0.0399821
0.0382643
0.465557
0.399249
0.348308
0.308165
0.275837
0.249342
0.227285
0.208659
0.192764
0.179082
0.168569
0.164116
0.160556
0.154763
0.147024
0.139912
0.133433
0.127255
0.121096
0.114903
0.108814
0.103027
0.0977095
0.0929468
0.088767
0.0850062
0.0815658
0.0784401
0.0756516
0.0731762
0.070998
0.0691535
0.0677041
0.066495
0.0653243
0.0640593
0.0627491
0.0614941
0.0603616
0.0593351
0.0583395
0.0572331
0.0559098
0.0544371
0.0528944
0.0513749
0.0500182
0.0487979
0.0475412
0.0461271
0.0447634
0.0437368
0.0429788
0.0422921
0.0415045
0.0405197
0.0392746
0.0377866
0.0360293
0.0342246
0.465662
0.399879
0.34937
0.309596
0.277498
0.251197
0.229305
0.210818
0.195309
0.182587
0.182133
0.192737
0.195504
0.190019
0.18025
0.168681
0.158353
0.149737
0.142325
0.135418
0.128994
0.123105
0.117738
0.112821
0.1082
0.103884
0.0998703
0.0961847
0.0928685
0.0902154
0.0881394
0.0865098
0.0849547
0.0831867
0.0810871
0.0786929
0.076218
0.0737982
0.0713509
0.0687777
0.0660168
0.0628137
0.0590604
0.0549487
0.0508104
0.0472782
0.0469669
0.0497802
0.051436
0.0506989
0.0484088
0.0458149
0.0433899
0.041209
0.0392048
0.0373014
0.0354013
0.0335173
0.0316275
0.029927
0.800908
0.734896
0.679898
0.633529
0.593933
0.559809
0.530133
0.504143
0.481174
0.460488
0.445249
0.452166
0.448801
0.431713
0.408805
0.384967
0.361748
0.340715
0.322271
0.306615
0.293579
0.282669
0.273356
0.265276
0.258188
0.251949
0.246512
0.241938
0.238111
0.233938
0.228106
0.219151
0.206351
0.190774
0.174903
0.161056
0.150234
0.142601
0.137595
0.13447
0.132543
0.131264
0.130543
0.130468
0.131523
0.134899
0.137507
0.133372
0.122712
0.109483
0.0971955
0.0876684
0.0816526
0.0783272
0.0764534
0.0752392
0.0742383
0.0731829
0.072074
0.0718943
0.800884
0.735029
0.680033
0.63364
0.594103
0.560085
0.530573
0.504815
0.482192
0.461939
0.443791
0.427908
0.415075
0.405831
0.403129
0.400105
0.389305
0.372268
0.352804
0.333343
0.315158
0.298575
0.284256
0.271982
0.261697
0.253479
0.247012
0.241847
0.237548
0.233838
0.230675
0.228172
0.22649
0.22569
0.22544
0.22505
0.223498
0.220426
0.216134
0.211002
0.20525
0.198753
0.191714
0.184623
0.177832
0.171707
0.166776
0.163267
0.161163
0.160332
0.160584
0.161379
0.161431
0.158764
0.152701
0.144316
0.135243
0.126884
0.119465
0.113486
0.465666
0.399869
0.349268
0.309398
0.277375
0.251248
0.229512
0.211112
0.195263
0.181633
0.169835
0.159586
0.150776
0.148254
0.156235
0.164509
0.166595
0.162866
0.155569
0.146466
0.136866
0.128242
0.120758
0.114129
0.108184
0.102941
0.0983578
0.0943384
0.0907301
0.0874209
0.0843551
0.0815082
0.0788749
0.0764819
0.074442
0.0730456
0.0727569
0.0733512
0.0740446
0.0743268
0.074006
0.0730079
0.0711951
0.0685703
0.0656184
0.0628724
0.0603454
0.0580385
0.055958
0.054088
0.0524251
0.0510543
0.0503166
0.0508796
0.0521566
0.0527853
0.052197
0.0505097
0.0484624
0.0464337
0.465561
0.399283
0.348347
0.308187
0.275837
0.249342
0.227315
0.208738
0.192912
0.179295
0.167512
0.157282
0.14838
0.140749
0.136011
0.134449
0.133431
0.131202
0.127641
0.123251
0.118542
0.114063
0.109873
0.10591
0.102027
0.0982702
0.094774
0.0915982
0.0886835
0.0859554
0.0833719
0.0809146
0.0785786
0.0763721
0.0743013
0.0723615
0.0705433
0.0688399
0.0672543
0.0657772
0.0643969
0.0631015
0.0618549
0.0606513
0.0594697
0.0582897
0.0570852
0.0558349
0.0545368
0.0531971
0.0518243
0.050436
0.049082
0.0478603
0.0468902
0.0461662
0.0455476
0.0449641
0.0443531
0.0436898
0.465559
0.399435
0.348623
0.308546
0.276254
0.249769
0.227704
0.209096
0.193227
0.179571
0.167718
0.157426
0.148519
0.140715
0.133986
0.128616
0.124308
0.120371
0.116366
0.112236
0.10821
0.104453
0.100944
0.0976558
0.0945661
0.0916519
0.0888811
0.0862396
0.0837366
0.0813658
0.0791144
0.0769702
0.0749279
0.0729819
0.0711311
0.0693723
0.0676985
0.0660998
0.064576
0.0631328
0.0617646
0.0604672
0.0592377
0.0580728
0.0569689
0.0559212
0.054923
0.0539584
0.0530189
0.0521089
0.0512404
0.050403
0.0495597
0.048675
0.0477439
0.04679
0.0458417
0.0449373
0.0440791
0.0432631
0.465558
0.399422
0.34857
0.308464
0.276171
0.24969
0.227607
0.208988
0.193115
0.179454
0.167595
0.157353
0.148527
0.140823
0.133995
0.127995
0.122749
0.118103
0.113901
0.110005
0.106362
0.102955
0.099738
0.0966723
0.0937352
0.0909207
0.0882192
0.0856226
0.0831269
0.0807283
0.0784238
0.0762142
0.0740997
0.0720826
0.070166
0.0683544
0.066648
0.0650499
0.0635658
0.0621953
0.0609276
0.0597354
0.0585938
0.0574944
0.0564339
0.0554057
0.0543974
0.0534061
0.0524515
0.0515667
0.0507717
0.0500184
0.0492937
0.0485764
0.0478483
0.0470985
0.0463224
0.0455099
0.0446219
0.0436732
0.465558
0.399415
0.348563
0.308456
0.276141
0.249654
0.227577
0.208946
0.193066
0.179393
0.16755
0.157464
0.148938
0.141517
0.134864
0.128968
0.123754
0.119138
0.114996
0.111194
0.107637
0.104246
0.100973
0.0977948
0.0947074
0.0917165
0.0888223
0.0860254
0.0833403
0.0807698
0.0783055
0.0759432
0.073682
0.0715199
0.0694609
0.0675077
0.0656511
0.0638774
0.0621896
0.0605993
0.0591184
0.0577465
0.056466
0.0552651
0.0541349
0.0530637
0.0520415
0.0510699
0.0501531
0.04931
0.0485822
0.0479831
0.0474789
0.0470115
0.0465289
0.0459827
0.0453255
0.0445099
0.0434671
0.042244
0.465558
0.399424
0.348629
0.308571
0.276283
0.249812
0.227741
0.209094
0.193179
0.179442
0.167674
0.158482
0.151133
0.144419
0.137942
0.131927
0.126592
0.121855
0.11758
0.113591
0.109749
0.105978
0.102262
0.098621
0.0950868
0.0916865
0.0884318
0.0853231
0.082384
0.0796063
0.0769563
0.0744016
0.0719504
0.0696278
0.0674473
0.0654053
0.0634841
0.0616721
0.0599839
0.0584314
0.0570126
0.055727
0.0545558
0.0534677
0.0524263
0.0513809
0.0503254
0.0492688
0.0482289
0.0472244
0.0463068
0.0455425
0.0449567
0.0445031
0.0440678
0.0435168
0.0427266
0.041631
0.0401544
0.0384776
0.465561
0.399228
0.3483
0.30815
0.275826
0.249345
0.22728
0.208658
0.192764
0.179071
0.168622
0.164122
0.160564
0.154724
0.146955
0.139884
0.133397
0.127179
0.120967
0.11473
0.108616
0.102825
0.0975228
0.0927843
0.0886192
0.0848661
0.0814299
0.0783091
0.0755316
0.0730733
0.070927
0.06916
0.0677552
0.0665508
0.0653531
0.0640488
0.0627024
0.0614249
0.0602921
0.0592824
0.0583211
0.0572973
0.0560565
0.0546065
0.0530315
0.0514577
0.0500675
0.0488551
0.047622
0.0462246
0.0448418
0.0437755
0.0429909
0.042304
0.0415394
0.0405913
0.0393875
0.037936
0.0362061
0.0344149
0.465668
0.399869
0.349332
0.30946
0.277331
0.250912
0.228893
0.210324
0.194608
0.181504
0.179942
0.191001
0.194789
0.190004
0.180604
0.169153
0.158773
0.150077
0.142249
0.135076
0.128592
0.122741
0.117433
0.112552
0.107935
0.103605
0.0995763
0.0958833
0.0925677
0.0899307
0.0879075
0.0863969
0.0850053
0.0833717
0.0813681
0.0790288
0.0765384
0.0741157
0.0716989
0.0691976
0.0665323
0.0634293
0.0597427
0.055633
0.0514142
0.0476899
0.0470053
0.0495955
0.0513237
0.0507238
0.0485159
0.0459393
0.0435183
0.0413409
0.0393453
0.0374533
0.0355629
0.0336806
0.0317815
0.0300639
0.80084
0.734773
0.679855
0.63349
0.593923
0.559837
0.530115
0.504054
0.481129
0.460486
0.443941
0.45021
0.448495
0.432579
0.41016
0.386483
0.363281
0.342188
0.323636
0.307852
0.294718
0.28374
0.274374
0.266243
0.259084
0.25275
0.247223
0.242564
0.238672
0.234514
0.228866
0.220287
0.207965
0.192759
0.176981
0.162947
0.151795
0.143785
0.138461
0.135098
0.133014
0.131621
0.130811
0.130663
0.131616
0.13484
0.137564
0.133889
0.123653
0.110593
0.0982191
0.088455
0.0821885
0.0787015
0.0767423
0.0754923
0.0744866
0.0734423
0.0723355
0.0721223
)
;

boundaryField
{
    wall
    {
        type            compressible::alphatJayatillekeWallFunction;
        Prt             0.85;
        value           uniform 0;
    }
    inlet
    {
        type            calculated;
        value           uniform 37.903;
    }
    outlet
    {
        type            calculated;
        value           nonuniform List<scalar> 
20
(
0.112271
0.0462314
0.0436968
0.0432017
0.0435615
0.0420857
0.0382643
0.0342244
0.0299268
0.0718941
0.113485
0.0464338
0.0436904
0.0432639
0.0436742
0.0422445
0.0384777
0.0344147
0.0300637
0.072122
)
;
    }
    heatWall
    {
        type            compressible::alphatJayatillekeWallFunction;
        Prt             0.85;
        value           nonuniform List<scalar> 
240
(
0
0
0
0
0
0
0
0
0.0602429
0.0602418
0.0568764
0.05688
0.0539478
0.053944
0.0513758
0.0513665
0.0491008
0.0490969
0.0470353
0.0470348
0.0458037
0.0456363
0.0467252
0.0465174
0.0464303
0.0463993
0.0446392
0.0447322
0.0422269
0.0423696
0.0397196
0.0398781
0.0372865
0.0374448
0.0350941
0.0352461
0.0331975
0.0333392
0.0316108
0.0317411
0.0302993
0.0304196
0.0292055
0.0293174
0.028274
0.0283781
0.0274675
0.0275639
0.0267624
0.02685
0.0261438
0.0262218
0.0256044
0.025674
0.0251525
0.025214
0.0247744
0.0248304
0.0243453
0.0244053
0.0237179
0.0237998
0.0227459
0.0228693
0.0213738
0.0215473
0.0197392
0.0199484
0.0181127
0.0183267
0.0167249
0.0169157
0.0156607
0.0158155
0.0149229
0.0150387
0.0144452
0.0145291
0.0141501
0.0142108
0.0139686
0.0140142
0.0138514
0.0138861
0.0137903
0.0138165
0.0137945
0.0138134
0.0139215
0.0139289
0.0142966
0.0142881
0.0145597
0.0145667
0.0140842
0.0141411
0.0129287
0.0130297
0.0115302
0.0116473
0.010259
0.0103652
0.00929501
0.00937534
0.0086971
0.00875166
0.00836691
0.00840528
0.00817951
0.00820951
0.00805528
0.00808192
0.0079523
0.0079787
0.00784267
0.00787026
0.00773433
0.0077619
0.00772186
0.00774565
0
0
0
0
0
0
0.0641394
0.064156
0.0602548
0.0602623
0.0569094
0.0569082
0.0540011
0.0539952
0.051455
0.0514509
0.0492142
0.0492155
0.0472246
0.0472159
0.0454405
0.0454228
0.0438908
0.0438634
0.0426627
0.0426196
0.0418684
0.0417842
0.0417542
0.0416332
0.0413471
0.0413177
0.0400393
0.0401298
0.0381301
0.0382965
0.0360551
0.0362509
0.0340499
0.0342475
0.0322046
0.0323949
0.0305629
0.0307315
0.0291772
0.0293164
0.028007
0.0281177
0.0270351
0.0271213
0.0262488
0.0263168
0.0256194
0.0256742
0.0251091
0.0251549
0.0246844
0.0247242
0.0243229
0.0243562
0.0240214
0.0240466
0.0237904
0.0238066
0.0236453
0.0236513
0.0235863
0.0235834
0.0235635
0.0235598
0.0234904
0.0235013
0.0232641
0.0233046
0.0228777
0.0229494
0.0223712
0.0224718
0.0217917
0.0219155
0.0211652
0.0213053
0.0204802
0.0206297
0.0197599
0.0199101
0.0190527
0.0191956
0.018389
0.0185193
0.0178258
0.0179296
0.0173951
0.0174689
0.0171018
0.0171498
0.0169365
0.0169656
0.0168887
0.0169048
0.0169382
0.0169475
0.0170211
0.0170335
0.0169877
0.0170209
0.016631
0.0167038
0.0159235
0.0160348
0.0149949
0.0151336
0.014025
0.0141753
0.0131537
0.013303
0.0123997
0.0125398
0.0118108
0.0119348
)
;
    }
}


// ************************************************************************* //
