/*--------------------------------*- C++ -*----------------------------------*\
  =========                 |
  \\      /  F ield         | OpenFOAM: The Open Source CFD Toolbox
   \\    /   O peration     | Website:  https://openfoam.org
    \\  /    A nd           | Version:  8
     \\/     M anipulation  |
\*---------------------------------------------------------------------------*/
FoamFile
{
    version     2.0;
    format      ascii;
    class       volScalarField;
    location    "400";
    object      k;
}
// * * * * * * * * * * * * * * * * * * * * * * * * * * * * * * * * * * * * * //

dimensions      [0 2 -2 0 0 0 0];

internalField   nonuniform List<scalar> 
1200
(
0.803181
0.676118
0.578812
0.502612
0.441944
0.392895
0.352659
0.319255
0.291242
0.267429
0.246918
0.229742
0.216554
0.207971
0.205685
0.20035
0.187166
0.169594
0.151629
0.135141
0.120738
0.108559
0.0987337
0.0907337
0.0842956
0.0793029
0.0754663
0.072455
0.0699797
0.0678834
0.0661424
0.064813
0.0639768
0.0636285
0.0634935
0.0630857
0.0618493
0.0597733
0.0571095
0.0541348
0.0510033
0.0476745
0.0442909
0.0410878
0.0381869
0.0358019
0.0340171
0.0328129
0.032129
0.0319052
0.0320585
0.0323434
0.0321786
0.0307827
0.0281446
0.024889
0.0217199
0.0190673
0.0169086
0.0153134
0.695242
0.51254
0.391255
0.307355
0.247348
0.202989
0.169368
0.143208
0.122428
0.105884
0.092549
0.0817213
0.0733047
0.0733586
0.0822537
0.0894505
0.0897057
0.0843481
0.0761526
0.0670818
0.0585314
0.0515391
0.0458301
0.0410463
0.0369716
0.0335444
0.0306743
0.0282533
0.0261578
0.0243041
0.0226457
0.0211572
0.0198276
0.0186704
0.0177545
0.017252
0.0173326
0.0177114
0.0180117
0.0180286
0.0177082
0.0170472
0.0160286
0.0147487
0.0135057
0.0124185
0.0114654
0.0106299
0.0099026
0.00926961
0.00872518
0.00830174
0.00812889
0.00841
0.00883138
0.00896333
0.00866558
0.00804128
0.00736316
0.00673872
0.694934
0.510917
0.388844
0.304356
0.243876
0.199332
0.165712
0.139764
0.119347
0.103084
0.089983
0.0793402
0.0706106
0.0637969
0.0602449
0.0591211
0.0579436
0.0556116
0.0523051
0.0485395
0.0448181
0.0414259
0.0383654
0.0355602
0.0329465
0.0305822
0.0284953
0.0266535
0.0250033
0.0235038
0.022127
0.0208565
0.0196857
0.0186114
0.0176284
0.0167286
0.0159052
0.0151572
0.0144823
0.0138691
0.0133073
0.0127862
0.0122843
0.011802
0.0113323
0.010869
0.010404
0.00993222
0.0094568
0.00898278
0.00851484
0.00806081
0.0076393
0.00728267
0.00702068
0.00682997
0.00665605
0.00648291
0.00629686
0.00609616
0.694936
0.511402
0.389548
0.305137
0.244607
0.199958
0.166231
0.140187
0.119703
0.10336
0.0901843
0.0794969
0.0707695
0.0635421
0.0576902
0.0532427
0.0497109
0.0465387
0.0434407
0.0403905
0.0375435
0.0349832
0.0326728
0.0305778
0.0286719
0.0269308
0.0253279
0.0238469
0.0224831
0.0212269
0.0200665
0.0189922
0.0179962
0.0170725
0.0162165
0.0154239
0.0146881
0.014003
0.0133666
0.0127772
0.0122303
0.011722
0.0112503
0.0108121
0.0104041
0.0100227
0.00966333
0.00932225
0.00899988
0.00869816
0.00841472
0.00813825
0.00785506
0.0075596
0.00725718
0.0069592
0.00667535
0.0064146
0.0061722
0.00594401
0.694937
0.511435
0.389509
0.305057
0.244503
0.199837
0.166103
0.140057
0.119579
0.103242
0.0900542
0.0793944
0.0707439
0.0635816
0.0575705
0.0525478
0.0483425
0.0447598
0.0416287
0.0388232
0.0362911
0.0340018
0.0319082
0.0299739
0.028177
0.0265076
0.0249534
0.0235029
0.0221491
0.0208858
0.0197073
0.0186097
0.0175896
0.0166438
0.0157701
0.0149668
0.0142301
0.013558
0.0129491
0.0123997
0.0119021
0.0114429
0.0110111
0.0106026
0.0102152
0.00984597
0.00949029
0.00914749
0.00882987
0.00854252
0.00828378
0.00803915
0.00780368
0.0075695
0.00733133
0.00708741
0.00683744
0.00657914
0.00630141
0.00601455
0.694935
0.511462
0.389528
0.305062
0.244497
0.199818
0.166062
0.139999
0.119515
0.103179
0.0900084
0.0795173
0.0711493
0.0642355
0.0583434
0.0533592
0.0491361
0.0455393
0.042426
0.039665
0.0371658
0.0348565
0.0326963
0.030663
0.0287503
0.0269567
0.0252759
0.0237028
0.0222407
0.0208852
0.0196264
0.0184568
0.0173707
0.016363
0.0154317
0.014574
0.0137822
0.0130477
0.0123692
0.0117483
0.0111858
0.0106769
0.0102126
0.00978611
0.00939167
0.00902386
0.00868121
0.00836462
0.00807301
0.00781361
0.00759856
0.00742306
0.00727183
0.0071247
0.00696574
0.00678132
0.00655868
0.00628828
0.00595618
0.00558789
0.694933
0.511512
0.389661
0.30527
0.24475
0.200072
0.166296
0.140195
0.119654
0.103245
0.0901795
0.0806094
0.0732819
0.0668839
0.0610085
0.0558174
0.0513997
0.0476263
0.0443409
0.0413771
0.0386139
0.0359925
0.0334995
0.0311419
0.0289367
0.026893
0.0250083
0.0232728
0.02169
0.0202458
0.0189137
0.0176761
0.0165282
0.0154757
0.0145193
0.013652
0.012862
0.0121403
0.0114876
0.0109027
0.0103797
0.00991446
0.00949658
0.00911298
0.00874954
0.00839251
0.0080442
0.00771033
0.00739362
0.00709693
0.00683483
0.00662741
0.00647555
0.00635283
0.00621953
0.00603932
0.0057853
0.00545337
0.00503747
0.00460169
0.694932
0.511067
0.388976
0.304478
0.243949
0.199335
0.165632
0.139605
0.119152
0.102845
0.0915957
0.0870057
0.082969
0.0767527
0.0692007
0.0626667
0.0569538
0.0517312
0.0467665
0.0420412
0.0376614
0.0337426
0.0303483
0.0274698
0.0250535
0.0229736
0.0211492
0.0195584
0.0181951
0.0170324
0.0160542
0.0152662
0.0146493
0.014125
0.0136113
0.0130708
0.0125358
0.0120454
0.0116112
0.0112132
0.0108205
0.010395
0.00991982
0.00941372
0.00889794
0.00840437
0.00796921
0.00757717
0.00718174
0.00675518
0.00637027
0.00609415
0.00589043
0.00569986
0.00547883
0.00520822
0.00487938
0.00450554
0.00408831
0.00368495
0.695245
0.512688
0.391344
0.307308
0.246903
0.202322
0.168599
0.142537
0.122308
0.106577
0.108684
0.120746
0.123025
0.115363
0.103332
0.0903765
0.079733
0.0713056
0.0643252
0.0582012
0.0528405
0.0481713
0.0440956
0.0404897
0.0372196
0.0342772
0.0316502
0.0293342
0.0273279
0.0257743
0.0246176
0.0237347
0.0229008
0.021955
0.0208517
0.0196274
0.0184001
0.017217
0.0160396
0.0148378
0.013609
0.0122697
0.0108156
0.00935699
0.00802513
0.00701298
0.00705736
0.00798836
0.00847935
0.00818137
0.00742996
0.00664767
0.00595896
0.00537127
0.00485652
0.00439131
0.00395149
0.00354088
0.0031547
0.00282844
0.803376
0.676401
0.578951
0.502667
0.441812
0.392489
0.351999
0.318304
0.289949
0.265493
0.250871
0.257819
0.251379
0.231133
0.206648
0.182982
0.161469
0.143216
0.128168
0.116081
0.106487
0.0987798
0.0924337
0.0871054
0.0825661
0.0786698
0.0753505
0.0726182
0.0703557
0.067849
0.064309
0.0590215
0.0519452
0.0441191
0.0369843
0.0314089
0.0274488
0.0248633
0.0232579
0.0222935
0.0217132
0.021335
0.0211315
0.0211351
0.0215248
0.022706
0.0235197
0.0219245
0.0183914
0.0145635
0.0114788
0.00938151
0.00818608
0.00756395
0.00722268
0.00700159
0.00681682
0.00662209
0.00642393
0.00640188
0.803333
0.676638
0.57919
0.502869
0.44206
0.392891
0.352592
0.3192
0.291243
0.267321
0.246722
0.229454
0.216112
0.207172
0.204612
0.200185
0.188068
0.171088
0.153278
0.136716
0.122179
0.109772
0.0996886
0.0914599
0.0848402
0.0797194
0.0757934
0.0727216
0.0702063
0.0680698
0.0662818
0.0649014
0.0640089
0.0636114
0.0634715
0.0631435
0.0620679
0.0601549
0.0576328
0.054762
0.0516923
0.0483854
0.0449796
0.0417189
0.038742
0.0362301
0.0343134
0.033002
0.0322425
0.0319681
0.0320951
0.0323924
0.0323084
0.03106
0.0285491
0.0253616
0.0221967
0.0195102
0.0172992
0.0156418
0.695247
0.512665
0.391125
0.306918
0.246675
0.2024
0.168902
0.142915
0.122268
0.10581
0.0925081
0.0816856
0.0731161
0.0720366
0.080407
0.0881669
0.0892953
0.0845784
0.0767281
0.067787
0.0591725
0.0520397
0.0462179
0.0413452
0.0372012
0.0337223
0.030815
0.0283679
0.0262536
0.0243844
0.0227132
0.0212139
0.0198738
0.018701
0.017753
0.0171789
0.0171594
0.0174903
0.017802
0.0178721
0.0176279
0.017053
0.0161166
0.0148844
0.0136303
0.0125244
0.0115519
0.010699
0.00995728
0.00931232
0.00875694
0.00831838
0.00811372
0.00834721
0.00876577
0.00893141
0.00867781
0.00808493
0.00742087
0.00680079
0.694936
0.511172
0.389064
0.304516
0.243954
0.199349
0.165678
0.139709
0.119339
0.103097
0.0899919
0.0793389
0.0706093
0.0636602
0.0597862
0.0585319
0.0574845
0.0553548
0.052217
0.0485717
0.0448925
0.0415294
0.0384914
0.0357107
0.033109
0.0307282
0.028613
0.0267508
0.025088
0.0235757
0.0221863
0.0209053
0.0197256
0.0186437
0.0176551
0.0167513
0.0159247
0.0151713
0.0144892
0.0138689
0.013301
0.0127759
0.0122751
0.0117966
0.0113333
0.010878
0.0104218
0.00995873
0.00949059
0.00902162
0.00855612
0.00810129
0.00767454
0.00730668
0.0070287
0.00682516
0.0066462
0.00647354
0.00629148
0.00609608
0.694934
0.511548
0.389676
0.305239
0.244689
0.200025
0.166246
0.140183
0.119722
0.103402
0.090218
0.079513
0.0707824
0.0635441
0.0576491
0.0531587
0.0496333
0.0464863
0.0434022
0.0403586
0.0375223
0.0349707
0.0326649
0.0305696
0.0286593
0.0269117
0.0253051
0.0238262
0.0224672
0.0212142
0.0200546
0.0189795
0.0179821
0.0170574
0.0162009
0.0154081
0.0146724
0.013988
0.0133543
0.0127685
0.0122251
0.0117196
0.01125
0.0108129
0.0104055
0.0100245
0.00966644
0.00932671
0.00900403
0.00869996
0.00841452
0.00813957
0.00786187
0.00757339
0.00727669
0.00698167
0.0066977
0.00643466
0.00618998
0.00596067
0.694931
0.511507
0.389567
0.305092
0.244538
0.199883
0.166108
0.140048
0.119586
0.103266
0.0900789
0.0794179
0.0707646
0.0635947
0.057574
0.0525478
0.0483536
0.0447921
0.0416767
0.0388726
0.0363333
0.0340364
0.031936
0.0299946
0.0281896
0.0265114
0.02495
0.0234944
0.0221367
0.02087
0.0196886
0.018589
0.0175681
0.0166228
0.0157512
0.0149513
0.0142194
0.0135534
0.0129519
0.01241
0.0119192
0.0114653
0.0110372
0.0106309
0.0102438
0.00987339
0.00951463
0.00916691
0.00883912
0.00854121
0.00827664
0.00802946
0.00779437
0.00756317
0.00732986
0.0070918
0.00684841
0.00659743
0.0063281
0.00604853
0.694931
0.511492
0.389545
0.305057
0.244489
0.199832
0.166057
0.13999
0.119522
0.103194
0.090031
0.0795649
0.0712118
0.0643019
0.0584119
0.0534313
0.0492128
0.0456176
0.0425004
0.0397303
0.0372172
0.0348932
0.0327186
0.0306717
0.0287465
0.026942
0.0252529
0.0236742
0.0222084
0.0208503
0.0195894
0.0184185
0.0173317
0.0163242
0.0153937
0.0145372
0.0137469
0.0130152
0.0123414
0.0117276
0.011174
0.0106744
0.0102179
0.00979667
0.00940467
0.00903668
0.00868938
0.00836505
0.00806642
0.00780066
0.00757902
0.00739889
0.00724599
0.00710071
0.00694712
0.00677143
0.00656089
0.00630505
0.00598896
0.0056347
0.694934
0.511523
0.389687
0.305275
0.244747
0.200094
0.166297
0.140188
0.119659
0.103254
0.0902338
0.0807363
0.0734225
0.0669957
0.0610878
0.0558907
0.0514732
0.0476966
0.0444009
0.0414188
0.0386348
0.0359922
0.03348
0.0311076
0.0288908
0.0268389
0.0249488
0.023209
0.0216232
0.0201767
0.0188411
0.0175994
0.0164532
0.0154052
0.0144539
0.0135916
0.0128072
0.0120924
0.0114481
0.0108713
0.0103547
0.00989311
0.00947777
0.00909736
0.00874286
0.00839789
0.00805866
0.00772779
0.00740982
0.00710973
0.00684271
0.00662781
0.00646776
0.00634121
0.00621144
0.00604179
0.00580303
0.0054868
0.00508408
0.0046549
0.694939
0.511014
0.388955
0.304448
0.243932
0.199344
0.16563
0.1396
0.119149
0.102843
0.0916461
0.0870233
0.0829928
0.076722
0.0691622
0.0626412
0.0569163
0.0516625
0.0466611
0.0419101
0.0375216
0.033609
0.0302318
0.0273749
0.0249744
0.0229007
0.0210806
0.0194949
0.0181387
0.016986
0.016024
0.0152596
0.0146565
0.014134
0.0136148
0.0130672
0.0125273
0.0120361
0.011606
0.0112153
0.0108349
0.0104289
0.00996617
0.00945881
0.00893244
0.00842547
0.00798399
0.00759631
0.00720768
0.0067841
0.00639097
0.00610317
0.0058931
0.00570381
0.0054898
0.00522881
0.00490952
0.00454277
0.00412942
0.00372639
0.695251
0.512649
0.391266
0.307052
0.246578
0.201843
0.167983
0.141822
0.12138
0.105251
0.10603
0.11872
0.122189
0.115378
0.10377
0.0908686
0.0801391
0.0716249
0.0643018
0.0580092
0.0526214
0.0479766
0.043929
0.0403289
0.0370455
0.0340952
0.0314664
0.0291542
0.0271572
0.0256216
0.024501
0.0236856
0.0229322
0.022047
0.0209816
0.0197756
0.0185387
0.0173602
0.0162035
0.0150335
0.0138362
0.0125201
0.0110689
0.00958681
0.00820707
0.00712168
0.00705213
0.00792401
0.00844475
0.00819288
0.00746478
0.00668492
0.00599516
0.00540665
0.00489242
0.00442805
0.00398821
0.00357558
0.00318518
0.00285378
0.803236
0.676178
0.57888
0.502609
0.441789
0.392535
0.35195
0.318185
0.289894
0.265479
0.249126
0.25585
0.251259
0.23217
0.208064
0.184449
0.162846
0.144465
0.129269
0.117041
0.10733
0.0995316
0.0931094
0.0877129
0.0831038
0.0791375
0.0757595
0.0729733
0.070674
0.0681864
0.0647602
0.0596769
0.0528121
0.0450823
0.0378854
0.0321472
0.0280073
0.0252599
0.0235353
0.0224894
0.0218577
0.0214434
0.0212125
0.0211928
0.0215469
0.0226779
0.0235441
0.0221081
0.0186867
0.0148662
0.0117217
0.00954707
0.00829062
0.00763431
0.00727623
0.00704827
0.00686241
0.00666909
0.00647029
0.00644176
)
;

boundaryField
{
    wall
    {
        type            kqRWallFunction;
        value           nonuniform List<scalar> 
1200
(
0.803181
0.695242
0.694934
0.694936
0.694937
0.694935
0.694933
0.694932
0.695245
0.803376
0.676118
0.51254
0.510917
0.511402
0.511435
0.511462
0.511512
0.511067
0.512688
0.676401
0.578812
0.391255
0.388844
0.389548
0.389509
0.389528
0.389661
0.388976
0.391344
0.578951
0.502612
0.307355
0.304356
0.305137
0.305057
0.305062
0.30527
0.304478
0.307308
0.502667
0.441944
0.247348
0.243876
0.244607
0.244503
0.244497
0.24475
0.243949
0.246903
0.441812
0.392895
0.202989
0.199332
0.199958
0.199837
0.199818
0.200072
0.199335
0.202322
0.392489
0.352659
0.169368
0.165712
0.166231
0.166103
0.166062
0.166296
0.165632
0.168599
0.351999
0.319255
0.143208
0.139764
0.140187
0.140057
0.139999
0.140195
0.139605
0.142537
0.318304
0.291242
0.122428
0.119347
0.119703
0.119579
0.119515
0.119654
0.119152
0.122308
0.289949
0.267429
0.105884
0.103084
0.10336
0.103242
0.103179
0.103245
0.102845
0.106577
0.265493
0.246918
0.092549
0.089983
0.0901843
0.0900542
0.0900084
0.0901795
0.0915957
0.108684
0.250871
0.229742
0.0817213
0.0793402
0.0794969
0.0793944
0.0795173
0.0806094
0.0870057
0.120746
0.257819
0.216554
0.0733047
0.0706106
0.0707695
0.0707439
0.0711493
0.0732819
0.082969
0.123025
0.251379
0.207971
0.0733586
0.0637969
0.0635421
0.0635816
0.0642355
0.0668839
0.0767527
0.115363
0.231133
0.205685
0.0822537
0.0602449
0.0576902
0.0575705
0.0583434
0.0610085
0.0692007
0.103332
0.206648
0.20035
0.0894505
0.0591211
0.0532427
0.0525478
0.0533592
0.0558174
0.0626667
0.0903765
0.182982
0.187166
0.0897057
0.0579436
0.0497109
0.0483425
0.0491361
0.0513997
0.0569538
0.079733
0.161469
0.169594
0.0843481
0.0556116
0.0465387
0.0447598
0.0455393
0.0476263
0.0517312
0.0713056
0.143216
0.151629
0.0761526
0.0523051
0.0434407
0.0416287
0.042426
0.0443409
0.0467665
0.0643252
0.128168
0.135141
0.0670818
0.0485395
0.0403905
0.0388232
0.039665
0.0413771
0.0420412
0.0582012
0.116081
0.120738
0.0585314
0.0448181
0.0375435
0.0362911
0.0371658
0.0386139
0.0376614
0.0528405
0.106487
0.108559
0.0515391
0.0414259
0.0349832
0.0340018
0.0348565
0.0359925
0.0337426
0.0481713
0.0987798
0.0987337
0.0458301
0.0383654
0.0326728
0.0319082
0.0326963
0.0334995
0.0303483
0.0440956
0.0924337
0.0907337
0.0410463
0.0355602
0.0305778
0.0299739
0.030663
0.0311419
0.0274698
0.0404897
0.0871054
0.0842956
0.0369716
0.0329465
0.0286719
0.028177
0.0287503
0.0289367
0.0250535
0.0372196
0.0825661
0.0793029
0.0335444
0.0305822
0.0269308
0.0265076
0.0269567
0.026893
0.0229736
0.0342772
0.0786698
0.0754663
0.0306743
0.0284953
0.0253279
0.0249534
0.0252759
0.0250083
0.0211492
0.0316502
0.0753505
0.072455
0.0282533
0.0266535
0.0238469
0.0235029
0.0237028
0.0232728
0.0195584
0.0293342
0.0726182
0.0699797
0.0261578
0.0250033
0.0224831
0.0221491
0.0222407
0.02169
0.0181951
0.0273279
0.0703557
0.0678834
0.0243041
0.0235038
0.0212269
0.0208858
0.0208852
0.0202458
0.0170324
0.0257743
0.067849
0.0661424
0.0226457
0.022127
0.0200665
0.0197073
0.0196264
0.0189137
0.0160542
0.0246176
0.064309
0.064813
0.0211572
0.0208565
0.0189922
0.0186097
0.0184568
0.0176761
0.0152662
0.0237347
0.0590215
0.0639768
0.0198276
0.0196857
0.0179962
0.0175896
0.0173707
0.0165282
0.0146493
0.0229008
0.0519452
0.0636285
0.0186704
0.0186114
0.0170725
0.0166438
0.016363
0.0154757
0.014125
0.021955
0.0441191
0.0634935
0.0177545
0.0176284
0.0162165
0.0157701
0.0154317
0.0145193
0.0136113
0.0208517
0.0369843
0.0630857
0.017252
0.0167286
0.0154239
0.0149668
0.014574
0.013652
0.0130708
0.0196274
0.0314089
0.0618493
0.0173326
0.0159052
0.0146881
0.0142301
0.0137822
0.012862
0.0125358
0.0184001
0.0274488
0.0597733
0.0177114
0.0151572
0.014003
0.013558
0.0130477
0.0121403
0.0120454
0.017217
0.0248633
0.0571095
0.0180117
0.0144823
0.0133666
0.0129491
0.0123692
0.0114876
0.0116112
0.0160396
0.0232579
0.0541348
0.0180286
0.0138691
0.0127772
0.0123997
0.0117483
0.0109027
0.0112132
0.0148378
0.0222935
0.0510033
0.0177082
0.0133073
0.0122303
0.0119021
0.0111858
0.0103797
0.0108205
0.013609
0.0217132
0.0476745
0.0170472
0.0127862
0.011722
0.0114429
0.0106769
0.00991446
0.010395
0.0122697
0.021335
0.0442909
0.0160286
0.0122843
0.0112503
0.0110111
0.0102126
0.00949658
0.00991982
0.0108156
0.0211315
0.0410878
0.0147487
0.011802
0.0108121
0.0106026
0.00978611
0.00911298
0.00941372
0.00935699
0.0211351
0.0381869
0.0135057
0.0113323
0.0104041
0.0102152
0.00939167
0.00874954
0.00889794
0.00802513
0.0215248
0.0358019
0.0124185
0.010869
0.0100227
0.00984597
0.00902386
0.00839251
0.00840437
0.00701298
0.022706
0.0340171
0.0114654
0.010404
0.00966333
0.00949029
0.00868121
0.0080442
0.00796921
0.00705736
0.0235197
0.0328129
0.0106299
0.00993222
0.00932225
0.00914749
0.00836462
0.00771033
0.00757717
0.00798836
0.0219245
0.032129
0.0099026
0.0094568
0.00899988
0.00882987
0.00807301
0.00739362
0.00718174
0.00847935
0.0183914
0.0319052
0.00926961
0.00898278
0.00869816
0.00854252
0.00781361
0.00709693
0.00675518
0.00818137
0.0145635
0.0320585
0.00872518
0.00851484
0.00841472
0.00828378
0.00759856
0.00683483
0.00637027
0.00742996
0.0114788
0.0323434
0.00830174
0.00806081
0.00813825
0.00803915
0.00742306
0.00662741
0.00609415
0.00664767
0.00938151
0.0321786
0.00812889
0.0076393
0.00785506
0.00780368
0.00727183
0.00647555
0.00589043
0.00595896
0.00818608
0.0307827
0.00841
0.00728267
0.0075596
0.0075695
0.0071247
0.00635283
0.00569986
0.00537127
0.00756395
0.0281446
0.00883138
0.00702068
0.00725718
0.00733133
0.00696574
0.00621953
0.00547883
0.00485652
0.00722268
0.024889
0.00896333
0.00682997
0.0069592
0.00708741
0.00678132
0.00603932
0.00520822
0.00439131
0.00700159
0.0217199
0.00866558
0.00665605
0.00667535
0.00683744
0.00655868
0.0057853
0.00487938
0.00395149
0.00681682
0.0190673
0.00804128
0.00648291
0.0064146
0.00657914
0.00628828
0.00545337
0.00450554
0.00354088
0.00662209
0.0169086
0.00736316
0.00629686
0.0061722
0.00630141
0.00595618
0.00503747
0.00408831
0.0031547
0.00642393
0.0153134
0.00673872
0.00609616
0.00594401
0.00601455
0.00558789
0.00460169
0.00368495
0.00282844
0.00640188
0.803333
0.695247
0.694936
0.694934
0.694931
0.694931
0.694934
0.694939
0.695251
0.803236
0.676638
0.512665
0.511172
0.511548
0.511507
0.511492
0.511523
0.511014
0.512649
0.676178
0.57919
0.391125
0.389064
0.389676
0.389567
0.389545
0.389687
0.388955
0.391266
0.57888
0.502869
0.306918
0.304516
0.305239
0.305092
0.305057
0.305275
0.304448
0.307052
0.502609
0.44206
0.246675
0.243954
0.244689
0.244538
0.244489
0.244747
0.243932
0.246578
0.441789
0.392891
0.2024
0.199349
0.200025
0.199883
0.199832
0.200094
0.199344
0.201843
0.392535
0.352592
0.168902
0.165678
0.166246
0.166108
0.166057
0.166297
0.16563
0.167983
0.35195
0.3192
0.142915
0.139709
0.140183
0.140048
0.13999
0.140188
0.1396
0.141822
0.318185
0.291243
0.122268
0.119339
0.119722
0.119586
0.119522
0.119659
0.119149
0.12138
0.289894
0.267321
0.10581
0.103097
0.103402
0.103266
0.103194
0.103254
0.102843
0.105251
0.265479
0.246722
0.0925081
0.0899919
0.090218
0.0900789
0.090031
0.0902338
0.0916461
0.10603
0.249126
0.229454
0.0816856
0.0793389
0.079513
0.0794179
0.0795649
0.0807363
0.0870233
0.11872
0.25585
0.216112
0.0731161
0.0706093
0.0707824
0.0707646
0.0712118
0.0734225
0.0829928
0.122189
0.251259
0.207172
0.0720366
0.0636602
0.0635441
0.0635947
0.0643019
0.0669957
0.076722
0.115378
0.23217
0.204612
0.080407
0.0597862
0.0576491
0.057574
0.0584119
0.0610878
0.0691622
0.10377
0.208064
0.200185
0.0881669
0.0585319
0.0531587
0.0525478
0.0534313
0.0558907
0.0626412
0.0908686
0.184449
0.188068
0.0892953
0.0574845
0.0496333
0.0483536
0.0492128
0.0514732
0.0569163
0.0801391
0.162846
0.171088
0.0845784
0.0553548
0.0464863
0.0447921
0.0456176
0.0476966
0.0516625
0.0716249
0.144465
0.153278
0.0767281
0.052217
0.0434022
0.0416767
0.0425004
0.0444009
0.0466611
0.0643018
0.129269
0.136716
0.067787
0.0485717
0.0403586
0.0388726
0.0397303
0.0414188
0.0419101
0.0580092
0.117041
0.122179
0.0591725
0.0448925
0.0375223
0.0363333
0.0372172
0.0386348
0.0375216
0.0526214
0.10733
0.109772
0.0520397
0.0415294
0.0349707
0.0340364
0.0348932
0.0359922
0.033609
0.0479766
0.0995316
0.0996886
0.0462179
0.0384914
0.0326649
0.031936
0.0327186
0.03348
0.0302318
0.043929
0.0931094
0.0914599
0.0413452
0.0357107
0.0305696
0.0299946
0.0306717
0.0311076
0.0273749
0.0403289
0.0877129
0.0848402
0.0372012
0.033109
0.0286593
0.0281896
0.0287465
0.0288908
0.0249744
0.0370455
0.0831038
0.0797194
0.0337223
0.0307282
0.0269117
0.0265114
0.026942
0.0268389
0.0229007
0.0340952
0.0791375
0.0757934
0.030815
0.028613
0.0253051
0.02495
0.0252529
0.0249488
0.0210806
0.0314664
0.0757595
0.0727216
0.0283679
0.0267508
0.0238262
0.0234944
0.0236742
0.023209
0.0194949
0.0291542
0.0729733
0.0702063
0.0262536
0.025088
0.0224672
0.0221367
0.0222084
0.0216232
0.0181387
0.0271572
0.070674
0.0680698
0.0243844
0.0235757
0.0212142
0.02087
0.0208503
0.0201767
0.016986
0.0256216
0.0681864
0.0662818
0.0227132
0.0221863
0.0200546
0.0196886
0.0195894
0.0188411
0.016024
0.024501
0.0647602
0.0649014
0.0212139
0.0209053
0.0189795
0.018589
0.0184185
0.0175994
0.0152596
0.0236856
0.0596769
0.0640089
0.0198738
0.0197256
0.0179821
0.0175681
0.0173317
0.0164532
0.0146565
0.0229322
0.0528121
0.0636114
0.018701
0.0186437
0.0170574
0.0166228
0.0163242
0.0154052
0.014134
0.022047
0.0450823
0.0634715
0.017753
0.0176551
0.0162009
0.0157512
0.0153937
0.0144539
0.0136148
0.0209816
0.0378854
0.0631435
0.0171789
0.0167513
0.0154081
0.0149513
0.0145372
0.0135916
0.0130672
0.0197756
0.0321472
0.0620679
0.0171594
0.0159247
0.0146724
0.0142194
0.0137469
0.0128072
0.0125273
0.0185387
0.0280073
0.0601549
0.0174903
0.0151713
0.013988
0.0135534
0.0130152
0.0120924
0.0120361
0.0173602
0.0252599
0.0576328
0.017802
0.0144892
0.0133543
0.0129519
0.0123414
0.0114481
0.011606
0.0162035
0.0235353
0.054762
0.0178721
0.0138689
0.0127685
0.01241
0.0117276
0.0108713
0.0112153
0.0150335
0.0224894
0.0516923
0.0176279
0.013301
0.0122251
0.0119192
0.011174
0.0103547
0.0108349
0.0138362
0.0218577
0.0483854
0.017053
0.0127759
0.0117196
0.0114653
0.0106744
0.00989311
0.0104289
0.0125201
0.0214434
0.0449796
0.0161166
0.0122751
0.01125
0.0110372
0.0102179
0.00947777
0.00996617
0.0110689
0.0212125
0.0417189
0.0148844
0.0117966
0.0108129
0.0106309
0.00979667
0.00909736
0.00945881
0.00958681
0.0211928
0.038742
0.0136303
0.0113333
0.0104055
0.0102438
0.00940467
0.00874286
0.00893244
0.00820707
0.0215469
0.0362301
0.0125244
0.010878
0.0100245
0.00987339
0.00903668
0.00839789
0.00842547
0.00712168
0.0226779
0.0343134
0.0115519
0.0104218
0.00966644
0.00951463
0.00868938
0.00805866
0.00798399
0.00705213
0.0235441
0.033002
0.010699
0.00995873
0.00932671
0.00916691
0.00836505
0.00772779
0.00759631
0.00792401
0.0221081
0.0322425
0.00995728
0.00949059
0.00900403
0.00883912
0.00806642
0.00740982
0.00720768
0.00844475
0.0186867
0.0319681
0.00931232
0.00902162
0.00869996
0.00854121
0.00780066
0.00710973
0.0067841
0.00819288
0.0148662
0.0320951
0.00875694
0.00855612
0.00841452
0.00827664
0.00757902
0.00684271
0.00639097
0.00746478
0.0117217
0.0323924
0.00831838
0.00810129
0.00813957
0.00802946
0.00739889
0.00662781
0.00610317
0.00668492
0.00954707
0.0323084
0.00811372
0.00767454
0.00786187
0.00779437
0.00724599
0.00646776
0.0058931
0.00599516
0.00829062
0.03106
0.00834721
0.00730668
0.00757339
0.00756317
0.00710071
0.00634121
0.00570381
0.00540665
0.00763431
0.0285491
0.00876577
0.0070287
0.00727669
0.00732986
0.00694712
0.00621144
0.0054898
0.00489242
0.00727623
0.0253616
0.00893141
0.00682516
0.00698167
0.0070918
0.00677143
0.00604179
0.00522881
0.00442805
0.00704827
0.0221967
0.00867781
0.0066462
0.0066977
0.00684841
0.00656089
0.00580303
0.00490952
0.00398821
0.00686241
0.0195102
0.00808493
0.00647354
0.00643466
0.00659743
0.00630505
0.0054868
0.00454277
0.00357558
0.00666909
0.0172992
0.00742087
0.00629148
0.00618998
0.0063281
0.00598896
0.00508408
0.00412942
0.00318518
0.00647029
0.0156418
0.00680079
0.00609608
0.00596067
0.00604853
0.0056347
0.0046549
0.00372639
0.00285378
0.00644176
)
;
    }
    inlet
    {
        type            turbulentIntensityKineticEnergyInlet;
        intensity       0.05;
        value           uniform 0.96;
    }
    outlet
    {
        type            inletOutlet;
        inletValue      uniform 0.003;
        value           nonuniform List<scalar> 
20
(
0.0153134
0.00673872
0.00609616
0.00594401
0.00601455
0.00558789
0.00460169
0.00368495
0.00282844
0.00640188
0.0156418
0.00680079
0.00609608
0.00596067
0.00604853
0.0056347
0.0046549
0.00372639
0.00285378
0.00644176
)
;
    }
    heatWall
    {
        type            kqRWallFunction;
        value           nonuniform List<scalar> 
240
(
0.803376
0.803236
0.676401
0.676178
0.578951
0.57888
0.502667
0.502609
0.441812
0.441789
0.392489
0.392535
0.351999
0.35195
0.318304
0.318185
0.289949
0.289894
0.265493
0.265479
0.250871
0.249126
0.257819
0.25585
0.251379
0.251259
0.231133
0.23217
0.206648
0.208064
0.182982
0.184449
0.161469
0.162846
0.143216
0.144465
0.128168
0.129269
0.116081
0.117041
0.106487
0.10733
0.0987798
0.0995316
0.0924337
0.0931094
0.0871054
0.0877129
0.0825661
0.0831038
0.0786698
0.0791375
0.0753505
0.0757595
0.0726182
0.0729733
0.0703557
0.070674
0.067849
0.0681864
0.064309
0.0647602
0.0590215
0.0596769
0.0519452
0.0528121
0.0441191
0.0450823
0.0369843
0.0378854
0.0314089
0.0321472
0.0274488
0.0280073
0.0248633
0.0252599
0.0232579
0.0235353
0.0222935
0.0224894
0.0217132
0.0218577
0.021335
0.0214434
0.0211315
0.0212125
0.0211351
0.0211928
0.0215248
0.0215469
0.022706
0.0226779
0.0235197
0.0235441
0.0219245
0.0221081
0.0183914
0.0186867
0.0145635
0.0148662
0.0114788
0.0117217
0.00938151
0.00954707
0.00818608
0.00829062
0.00756395
0.00763431
0.00722268
0.00727623
0.00700159
0.00704827
0.00681682
0.00686241
0.00662209
0.00666909
0.00642393
0.00647029
0.00640188
0.00644176
0.803181
0.803333
0.676118
0.676638
0.578812
0.57919
0.502612
0.502869
0.441944
0.44206
0.392895
0.392891
0.352659
0.352592
0.319255
0.3192
0.291242
0.291243
0.267429
0.267321
0.246918
0.246722
0.229742
0.229454
0.216554
0.216112
0.207971
0.207172
0.205685
0.204612
0.20035
0.200185
0.187166
0.188068
0.169594
0.171088
0.151629
0.153278
0.135141
0.136716
0.120738
0.122179
0.108559
0.109772
0.0987337
0.0996886
0.0907337
0.0914599
0.0842956
0.0848402
0.0793029
0.0797194
0.0754663
0.0757934
0.072455
0.0727216
0.0699797
0.0702063
0.0678834
0.0680698
0.0661424
0.0662818
0.064813
0.0649014
0.0639768
0.0640089
0.0636285
0.0636114
0.0634935
0.0634715
0.0630857
0.0631435
0.0618493
0.0620679
0.0597733
0.0601549
0.0571095
0.0576328
0.0541348
0.054762
0.0510033
0.0516923
0.0476745
0.0483854
0.0442909
0.0449796
0.0410878
0.0417189
0.0381869
0.038742
0.0358019
0.0362301
0.0340171
0.0343134
0.0328129
0.033002
0.032129
0.0322425
0.0319052
0.0319681
0.0320585
0.0320951
0.0323434
0.0323924
0.0321786
0.0323084
0.0307827
0.03106
0.0281446
0.0285491
0.024889
0.0253616
0.0217199
0.0221967
0.0190673
0.0195102
0.0169086
0.0172992
0.0153134
0.0156418
)
;
    }
}


// ************************************************************************* //
