/*--------------------------------*- C++ -*----------------------------------*\
  =========                 |
  \\      /  F ield         | OpenFOAM: The Open Source CFD Toolbox
   \\    /   O peration     | Website:  https://openfoam.org
    \\  /    A nd           | Version:  8
     \\/     M anipulation  |
\*---------------------------------------------------------------------------*/
FoamFile
{
    version     2.0;
    format      ascii;
    class       volScalarField;
    location    "400";
    object      nut;
}
// * * * * * * * * * * * * * * * * * * * * * * * * * * * * * * * * * * * * * //

dimensions      [0 2 -1 0 0 0 0];

internalField   nonuniform List<scalar> 
1200
(
0.000805033
0.000738611
0.000683397
0.000636822
0.000597149
0.000563034
0.000533418
0.00050752
0.000484722
0.00046446
0.000446315
0.000430439
0.000417679
0.000408557
0.000406066
0.000402034
0.000389942
0.000372037
0.000352169
0.000332596
0.000314422
0.000297967
0.000283891
0.000271871
0.00026181
0.000253758
0.000247409
0.000242321
0.000238066
0.000234401
0.000231295
0.00022886
0.000227258
0.000226536
0.000226302
0.000225794
0.00022395
0.000220559
0.00021596
0.000210566
0.000204609
0.000197967
0.000190863
0.000183793
0.00017706
0.000171147
0.000166493
0.00016324
0.000161325
0.000160622
0.00016094
0.00016171
0.000161578
0.000158533
0.000152087
0.000143411
0.000134191
0.000125808
0.000118447
0.000112598
0.000468115
0.000401935
0.000351169
0.000311244
0.000279212
0.000252934
0.000231037
0.000212449
0.000196417
0.000182656
0.000170768
0.000160462
0.000151661
0.000150266
0.000158863
0.000166615
0.000167847
0.000163446
0.000155724
0.000146384
0.00013672
0.000128193
0.000120792
0.000114232
0.000108345
0.000103146
9.8594e-05
9.45935e-05
9.09959e-05
8.76943e-05
8.46342e-05
8.17914e-05
7.91624e-05
7.67814e-05
7.47824e-05
7.35007e-05
7.34289e-05
7.41468e-05
7.48353e-05
7.50229e-05
7.45532e-05
7.33723e-05
7.13633e-05
6.85833e-05
6.56143e-05
6.28844e-05
6.03849e-05
5.81065e-05
5.60507e-05
5.42001e-05
5.2553e-05
5.12074e-05
5.05412e-05
5.12434e-05
5.25303e-05
5.30593e-05
5.23338e-05
5.05332e-05
4.84194e-05
4.63559e-05
0.000468011
0.000401294
0.000350083
0.000309721
0.000277248
0.000250649
0.000228535
0.000209883
0.000193938
0.000180237
0.000168393
0.000158124
0.000149174
0.000141616
0.000137207
0.000135821
0.00013467
0.000132201
0.000128422
0.00012386
0.000119063
0.000114508
0.000110248
0.000106203
0.000102237
9.84489e-05
9.49666e-05
9.1805e-05
8.88973e-05
8.61834e-05
8.36187e-05
8.11779e-05
7.88574e-05
7.66646e-05
7.46034e-05
7.26688e-05
7.08522e-05
6.91493e-05
6.75719e-05
6.61029e-05
6.4731e-05
6.34421e-05
6.21919e-05
6.09758e-05
5.9774e-05
5.85681e-05
5.7334e-05
5.60523e-05
5.47239e-05
5.33573e-05
5.19629e-05
5.05603e-05
4.92036e-05
4.79966e-05
4.70607e-05
4.63666e-05
4.5755e-05
4.51615e-05
4.45284e-05
4.3838e-05
0.000468013
0.000401478
0.000350398
0.00031012
0.000277661
0.000251043
0.00022889
0.00021019
0.000194224
0.000180467
0.000168572
0.000158253
0.000149291
0.000141455
0.000134724
0.000129374
0.000125032
0.000121051
0.00011702
0.000112871
0.000108817
0.000105033
0.000101499
9.81939e-05
9.50974e-05
9.21829e-05
8.94089e-05
8.67534e-05
8.42283e-05
8.1836e-05
7.95672e-05
7.74109e-05
7.53591e-05
7.34038e-05
7.15435e-05
6.9776e-05
6.80931e-05
6.64856e-05
6.49497e-05
6.34919e-05
6.21077e-05
6.07955e-05
5.95541e-05
5.8379e-05
5.72669e-05
5.62122e-05
5.52024e-05
5.42214e-05
5.32677e-05
5.23545e-05
5.14901e-05
5.06505e-05
4.97895e-05
4.8875e-05
4.79113e-05
4.69294e-05
4.59617e-05
4.50467e-05
4.41805e-05
4.3355e-05
0.000468014
0.000401491
0.000350384
0.000310086
0.0002776
0.000250964
0.000228803
0.000210094
0.000194128
0.000180371
0.000168456
0.000158152
0.000149281
0.000141531
0.000134678
0.000128659
0.000123386
0.000118698
0.000114447
0.000110519
0.000106865
0.000103451
0.000100226
9.71529e-05
9.42116e-05
9.13957e-05
8.86908e-05
8.60886e-05
8.35852e-05
8.1178e-05
7.88649e-05
7.6647e-05
7.45221e-05
7.24929e-05
7.05619e-05
6.87339e-05
6.70079e-05
6.53874e-05
6.38789e-05
6.24831e-05
6.1191e-05
5.99772e-05
5.8816e-05
5.77e-05
5.66286e-05
5.55962e-05
5.4589e-05
5.3604e-05
5.26722e-05
5.18149e-05
5.10332e-05
5.02815e-05
4.95499e-05
4.88176e-05
4.80664e-05
4.72869e-05
4.64761e-05
4.56242e-05
4.46908e-05
4.36996e-05
0.000468013
0.000401507
0.000350393
0.000310081
0.000277599
0.000250958
0.000228778
0.00021006
0.00019408
0.000180323
0.000168412
0.000158247
0.000149661
0.000142192
0.000135498
0.000129563
0.000124313
0.000119665
0.000115502
0.000111689
0.000108133
0.000104742
0.000101469
9.82891e-05
9.52009e-05
9.22091e-05
8.93106e-05
8.65052e-05
8.38099e-05
8.12294e-05
7.87555e-05
7.6382e-05
7.41095e-05
7.19339e-05
6.98607e-05
6.78934e-05
6.60246e-05
6.42391e-05
6.25371e-05
6.09278e-05
5.94233e-05
5.80249e-05
5.67184e-05
5.54952e-05
5.4349e-05
5.3269e-05
5.22505e-05
5.12902e-05
5.03828e-05
4.95512e-05
4.88423e-05
4.82592e-05
4.77615e-05
4.72868e-05
4.67816e-05
4.61977e-05
4.54878e-05
4.46077e-05
4.34915e-05
4.21999e-05
0.000468012
0.000401529
0.00035045
0.000310184
0.000277747
0.000251118
0.000228937
0.000210206
0.000194191
0.000180379
0.000168515
0.000159198
0.00015178
0.000145051
0.000138577
0.000132532
0.000127164
0.000122402
0.000118114
0.000114124
0.000110279
0.000106507
0.000102793
9.9144e-05
9.56e-05
9.21891e-05
8.89233e-05
8.58042e-05
8.28556e-05
8.00696e-05
7.7415e-05
7.48719e-05
7.24103e-05
7.00672e-05
6.78638e-05
6.58019e-05
6.38632e-05
6.20328e-05
6.03216e-05
5.87431e-05
5.73014e-05
5.60001e-05
5.48165e-05
5.37111e-05
5.26331e-05
5.15452e-05
5.04542e-05
4.93795e-05
4.83382e-05
4.73424e-05
4.64401e-05
4.56956e-05
4.5134e-05
4.46923e-05
4.42429e-05
4.36499e-05
4.27958e-05
4.16288e-05
4.0084e-05
3.83616e-05
0.000468009
0.000401352
0.000350143
0.000309788
0.00027729
0.000250656
0.000228482
0.000209758
0.000193779
0.000180025
0.000169454
0.000164966
0.000161375
0.000155546
0.000147759
0.000140589
0.000134044
0.000127801
0.000121584
0.000115341
0.00010921
0.000103389
9.80433e-05
9.32578e-05
8.90594e-05
8.52829e-05
8.18289e-05
7.86916e-05
7.58935e-05
7.34101e-05
7.12254e-05
6.9376e-05
6.79232e-05
6.67115e-05
6.55377e-05
6.4269e-05
6.29547e-05
6.16956e-05
6.0559e-05
5.95285e-05
5.85288e-05
5.74175e-05
5.60883e-05
5.46092e-05
5.30603e-05
5.15355e-05
5.01749e-05
4.89509e-05
4.76883e-05
4.62657e-05
4.4893e-05
4.386e-05
4.30968e-05
4.24052e-05
4.16125e-05
4.06226e-05
3.93727e-05
3.7881e-05
3.61217e-05
3.4317e-05
0.000468114
0.000401985
0.00035121
0.000311226
0.000278959
0.00025252
0.000230513
0.000211928
0.000196338
0.000183549
0.000183081
0.000193687
0.00019642
0.00019089
0.000181073
0.000169456
0.000159082
0.000150424
0.000142973
0.000136031
0.000129576
0.00012366
0.000118267
0.000113325
0.000108676
0.000104332
0.000100291
9.65821e-05
9.32463e-05
9.05785e-05
8.84911e-05
8.68519e-05
8.52857e-05
8.35047e-05
8.13903e-05
7.89804e-05
7.64886e-05
7.40509e-05
7.15853e-05
6.8995e-05
6.62193e-05
6.30029e-05
5.92373e-05
5.51135e-05
5.09625e-05
4.74171e-05
4.71001e-05
4.99173e-05
5.15758e-05
5.08352e-05
4.85374e-05
4.59353e-05
4.35028e-05
4.13155e-05
3.93058e-05
3.7398e-05
3.54944e-05
3.36081e-05
3.17179e-05
3.00188e-05
0.000805126
0.000738766
0.000683479
0.000636866
0.000597061
0.000562756
0.000532923
0.000506795
0.000483706
0.00046291
0.000447431
0.000454007
0.000450411
0.000433153
0.000410112
0.000386171
0.00036288
0.000341797
0.000323319
0.000307636
0.000294576
0.000283645
0.000274311
0.00026621
0.0002591
0.000252837
0.000247375
0.000242775
0.000238919
0.000234706
0.000228821
0.000219801
0.000206933
0.000191292
0.000175367
0.00016148
0.000150627
0.000142974
0.000137954
0.000134818
0.000132885
0.000131601
0.000130877
0.000130799
0.000131854
0.000135239
0.000137865
0.000133736
0.000123062
0.000109802
9.74809e-05
8.79252e-05
8.18922e-05
7.85589e-05
7.66826e-05
7.54687e-05
7.44701e-05
7.34184e-05
7.23158e-05
7.21464e-05
0.000805102
0.0007389
0.000683615
0.000636977
0.00059723
0.000563033
0.000533365
0.000507471
0.000484728
0.000464368
0.000446124
0.000430157
0.000417247
0.000407875
0.000404937
0.000401684
0.000390726
0.000373584
0.000354046
0.000334527
0.000316296
0.000299672
0.000285318
0.000273014
0.000262702
0.000254461
0.000247974
0.000242791
0.000238474
0.000234748
0.000231568
0.000229047
0.000227345
0.000226527
0.00022626
0.000225853
0.000224283
0.00022119
0.000216876
0.00021172
0.000205941
0.000199415
0.000192344
0.000185221
0.000178401
0.000172249
0.000167295
0.000163769
0.000161649
0.000160804
0.00016104
0.000161822
0.000161866
0.000159192
0.000153121
0.000144721
0.000135628
0.00012725
0.000119811
0.000113815
0.000468118
0.000401975
0.000351107
0.000311027
0.000278836
0.000252571
0.000230721
0.000212224
0.000196291
0.00018259
0.000170729
0.000160426
0.000151569
0.000149025
0.000157015
0.000165287
0.000167351
0.000163593
0.000156264
0.000147128
0.000137494
0.000128838
0.000121326
0.00011467
0.000108701
0.000103436
9.88327e-05
9.47956e-05
9.11711e-05
8.78468e-05
8.47669e-05
8.19063e-05
7.92596e-05
7.68529e-05
7.47992e-05
7.33902e-05
7.3093e-05
7.36834e-05
7.43748e-05
7.46552e-05
7.4332e-05
7.33304e-05
7.15117e-05
6.88782e-05
6.59156e-05
6.31585e-05
6.06207e-05
5.83032e-05
5.6212e-05
5.43306e-05
5.26544e-05
5.12673e-05
5.05119e-05
5.10602e-05
5.23262e-05
5.29451e-05
5.23469e-05
5.06501e-05
4.85947e-05
4.65591e-05
0.000468013
0.000401386
0.000350181
0.00030981
0.00027729
0.000250655
0.000228513
0.000209838
0.000193928
0.00018024
0.000168394
0.00015811
0.000149162
0.000141489
0.000136722
0.000135141
0.000134107
0.000131858
0.000128276
0.000123863
0.000119131
0.000114631
0.000110421
0.00010644
0.000102539
9.8765e-05
9.52526e-05
9.20617e-05
8.9133e-05
8.63918e-05
8.37958e-05
8.13267e-05
7.89794e-05
7.6762e-05
7.46811e-05
7.27317e-05
7.09044e-05
6.91921e-05
6.7598e-05
6.61128e-05
6.47246e-05
6.34218e-05
6.21682e-05
6.09582e-05
5.97706e-05
5.85847e-05
5.73744e-05
5.6118e-05
5.48132e-05
5.34661e-05
5.20851e-05
5.06873e-05
4.9322e-05
4.80868e-05
4.71009e-05
4.63605e-05
4.57266e-05
4.51297e-05
4.45068e-05
4.38333e-05
0.000468011
0.000401538
0.00035046
0.000310171
0.000277709
0.000251084
0.000228904
0.000210197
0.000194245
0.000180516
0.000168602
0.000158255
0.000149301
0.000141456
0.000134691
0.000129291
0.000124957
0.000120998
0.000116971
0.000112819
0.000108773
0.000104997
0.00010147
9.81653e-05
9.50597e-05
9.21303e-05
8.93451e-05
8.66897e-05
8.41734e-05
8.17899e-05
7.95262e-05
7.73703e-05
7.53168e-05
7.33601e-05
7.14992e-05
6.97308e-05
6.8048e-05
6.64407e-05
6.49088e-05
6.34578e-05
6.20822e-05
6.07778e-05
5.95416e-05
5.83703e-05
5.72603e-05
5.62067e-05
5.52028e-05
5.42327e-05
5.32878e-05
5.23725e-05
5.14988e-05
5.06559e-05
4.98059e-05
4.89126e-05
4.79704e-05
4.70036e-05
4.60412e-05
4.51222e-05
4.42493e-05
4.342e-05
0.00046801
0.000401526
0.000350406
0.000310089
0.000277626
0.000251005
0.000228806
0.000210089
0.000194132
0.000180399
0.000168478
0.000158181
0.000149309
0.000141565
0.000134701
0.000128668
0.000123394
0.000118724
0.000114499
0.000110583
0.000106921
0.000103496
0.000100262
9.71795e-05
9.42261e-05
9.13956e-05
8.86785e-05
8.60664e-05
8.35556e-05
8.11421e-05
7.88231e-05
7.65994e-05
7.44712e-05
7.24413e-05
7.05127e-05
6.86902e-05
6.69739e-05
6.53669e-05
6.38749e-05
6.24974e-05
6.12232e-05
6.00246e-05
5.88766e-05
5.77709e-05
5.67042e-05
5.567e-05
5.46558e-05
5.3659e-05
5.26992e-05
5.18097e-05
5.10103e-05
5.02519e-05
4.95212e-05
4.87963e-05
4.80584e-05
4.72965e-05
4.65065e-05
4.56797e-05
4.4777e-05
4.38154e-05
0.00046801
0.000401519
0.000350399
0.000310081
0.000277596
0.000250969
0.000228775
0.000210046
0.000194083
0.000180338
0.000168432
0.000158292
0.000149721
0.000142261
0.000135572
0.000129646
0.000124404
0.000119764
0.000115601
0.000111779
0.000108202
0.000104792
0.0001015
9.83015e-05
9.51932e-05
9.21814e-05
8.92664e-05
8.64488e-05
8.37443e-05
8.11556e-05
7.86741e-05
7.62955e-05
7.40191e-05
7.18426e-05
6.97706e-05
6.78056e-05
6.59384e-05
6.41552e-05
6.24591e-05
6.08617e-05
5.93749e-05
5.79976e-05
5.67118e-05
5.55056e-05
5.43701e-05
5.32936e-05
5.22659e-05
5.12897e-05
5.03691e-05
4.95229e-05
4.87928e-05
4.81911e-05
4.76825e-05
4.7208e-05
4.67151e-05
4.61555e-05
4.5483e-05
4.46519e-05
4.35946e-05
4.23607e-05
0.00046801
0.000401528
0.000350465
0.000310196
0.000277738
0.000251128
0.000228941
0.000210196
0.000194196
0.000180387
0.000168556
0.000159313
0.000151922
0.000145171
0.000138661
0.000132615
0.000127252
0.000122491
0.000118194
0.000114181
0.000110313
0.000106512
0.000102765
9.90905e-05
9.55248e-05
9.20958e-05
8.88156e-05
8.56842e-05
8.27258e-05
7.99312e-05
7.72658e-05
7.46966e-05
7.22314e-05
6.98958e-05
6.77033e-05
6.56503e-05
6.37192e-05
6.18981e-05
6.02021e-05
5.86431e-05
5.72192e-05
5.59293e-05
5.4754e-05
5.36615e-05
5.26154e-05
5.15657e-05
5.05067e-05
4.94471e-05
4.84043e-05
4.73968e-05
4.64762e-05
4.5708e-05
4.51166e-05
4.46555e-05
4.42105e-05
4.36487e-05
4.28474e-05
4.17419e-05
4.02573e-05
3.85756e-05
0.000468013
0.000401331
0.000350135
0.000309772
0.000277279
0.000250658
0.000228477
0.000209757
0.00019378
0.000180014
0.000169507
0.000164972
0.000161383
0.000155506
0.000147688
0.000140557
0.000134004
0.000127722
0.000121452
0.000115165
0.00010901
0.000103185
9.7855e-05
9.30939e-05
8.89105e-05
8.51418e-05
8.16921e-05
7.85597e-05
7.57728e-05
7.33066e-05
7.11538e-05
6.93822e-05
6.79743e-05
6.67673e-05
6.55665e-05
6.42583e-05
6.29076e-05
6.1626e-05
6.04893e-05
5.94757e-05
5.85104e-05
5.74823e-05
5.62359e-05
5.47796e-05
5.31982e-05
5.16186e-05
5.02242e-05
4.90081e-05
4.77696e-05
4.63639e-05
4.49723e-05
4.38994e-05
4.31096e-05
4.24178e-05
4.16481e-05
4.06948e-05
3.94863e-05
3.80309e-05
3.62987e-05
3.45073e-05
0.000468121
0.000401975
0.000351171
0.00031109
0.000278791
0.000252233
0.000230099
0.000211431
0.000195633
0.000182459
0.000180882
0.000191949
0.000195706
0.000190875
0.000181429
0.000169929
0.000159503
0.000150764
0.000142897
0.000135687
0.000129173
0.000123294
0.000117961
0.000113054
0.000108408
0.000104049
9.9993e-05
9.6276e-05
9.2941e-05
9.02896e-05
8.82554e-05
8.67361e-05
8.53354e-05
8.3691e-05
8.16744e-05
7.93207e-05
7.68143e-05
7.43743e-05
7.19393e-05
6.94203e-05
6.67393e-05
6.36219e-05
5.99222e-05
5.58e-05
5.15682e-05
4.78304e-05
4.7139e-05
4.97324e-05
5.14633e-05
5.08603e-05
4.86449e-05
4.60601e-05
4.36317e-05
4.14478e-05
3.94467e-05
3.75503e-05
3.56563e-05
3.37716e-05
3.18719e-05
3.01556e-05
0.000805058
0.000738643
0.000683435
0.000636826
0.000597051
0.000562784
0.000532905
0.000506706
0.00048366
0.000462908
0.00044615
0.000452075
0.000450118
0.000434029
0.000411475
0.000387694
0.000364419
0.000343275
0.000324688
0.000308877
0.000295718
0.000284718
0.000275332
0.000267181
0.000259999
0.000253641
0.00024809
0.000243405
0.000239484
0.000235288
0.000229587
0.000220944
0.000208554
0.000193284
0.000177452
0.000163376
0.000152193
0.000144161
0.000138822
0.000135449
0.000133358
0.000131959
0.000131146
0.000130995
0.000131948
0.00013518
0.000137921
0.000134254
0.000124005
0.000110915
9.85073e-05
8.87141e-05
8.24295e-05
7.8934e-05
7.69721e-05
7.57222e-05
7.47187e-05
7.36781e-05
7.25777e-05
7.23745e-05
)
;

boundaryField
{
    wall
    {
        type            nutkWallFunction;
        Cmu             0.09;
        kappa           0.41;
        E               9.8;
        value           nonuniform List<scalar> 
1200
(
5.15254e-05
4.82506e-05
4.82408e-05
4.82409e-05
4.8241e-05
4.82409e-05
4.82408e-05
4.82408e-05
4.82507e-05
5.15311e-05
4.7642e-05
4.19987e-05
4.19381e-05
4.19562e-05
4.19575e-05
4.19585e-05
4.19603e-05
4.19437e-05
4.20042e-05
4.76511e-05
4.43891e-05
3.71387e-05
3.70343e-05
3.70648e-05
3.70631e-05
3.7064e-05
3.70697e-05
3.704e-05
3.71426e-05
4.4394e-05
4.16263e-05
3.32698e-05
3.31214e-05
3.31601e-05
3.31562e-05
3.31564e-05
3.31667e-05
3.31275e-05
3.32675e-05
4.16284e-05
3.9258e-05
3.01311e-05
2.99373e-05
2.99782e-05
2.99724e-05
2.99721e-05
2.99862e-05
2.99414e-05
3.01063e-05
3.92527e-05
3.72096e-05
2.75306e-05
2.73028e-05
2.7342e-05
2.73344e-05
2.73332e-05
2.73491e-05
2.7303e-05
2.74892e-05
3.71921e-05
3.5422e-05
2.53432e-05
2.50914e-05
2.51274e-05
2.51185e-05
2.51157e-05
2.51318e-05
2.50859e-05
2.52905e-05
3.53918e-05
3.38511e-05
2.34698e-05
2.32096e-05
2.32417e-05
2.32319e-05
2.32275e-05
2.32424e-05
2.31975e-05
2.34194e-05
3.38051e-05
3.24627e-05
2.18426e-05
2.15888e-05
2.16183e-05
2.1608e-05
2.16028e-05
2.16143e-05
2.15726e-05
2.18328e-05
3.23969e-05
3.12238e-05
2.04348e-05
2.01849e-05
2.02096e-05
2.0199e-05
2.01934e-05
2.01993e-05
2.01634e-05
2.04962e-05
3.11204e-05
3.01071e-05
1.92091e-05
1.89623e-05
1.89818e-05
1.89692e-05
1.89648e-05
1.89813e-05
1.91178e-05
2.06811e-05
3.03252e-05
2.91323e-05
1.81402e-05
1.78948e-05
1.79111e-05
1.79004e-05
1.79132e-05
1.80261e-05
1.86709e-05
2.17039e-05
3.07035e-05
2.83562e-05
1.7254e-05
1.69586e-05
1.69762e-05
1.69734e-05
1.70182e-05
1.72515e-05
1.82669e-05
2.18904e-05
3.03498e-05
2.78366e-05
1.72598e-05
1.61826e-05
1.61527e-05
1.61573e-05
1.62338e-05
1.65395e-05
1.76232e-05
2.1254e-05
2.92079e-05
2.7695e-05
1.81941e-05
1.57597e-05
1.54471e-05
1.54323e-05
1.55278e-05
1.58517e-05
1.68012e-05
2.0206e-05
2.77513e-05
2.73632e-05
1.89097e-05
1.5623e-05
1.4884e-05
1.47938e-05
1.48991e-05
1.5213e-05
1.6049e-05
1.89994e-05
2.62506e-05
2.65244e-05
1.89343e-05
1.54782e-05
1.44181e-05
1.42327e-05
1.43406e-05
1.46431e-05
1.53548e-05
1.79346e-05
2.4791e-05
2.5355e-05
1.84052e-05
1.51868e-05
1.39837e-05
1.3733e-05
1.38435e-05
1.41344e-05
1.46858e-05
1.70345e-05
2.34663e-05
2.40885e-05
1.75588e-05
1.47617e-05
1.35434e-05
1.32778e-05
1.33955e-05
1.36731e-05
1.40142e-05
1.62434e-05
2.23026e-05
2.28514e-05
1.65612e-05
1.42592e-05
1.30926e-05
1.28537e-05
1.29827e-05
1.32404e-05
1.33375e-05
1.55094e-05
2.13124e-05
2.17009e-05
1.55501e-05
1.3741e-05
1.26545e-05
1.2456e-05
1.25951e-05
1.28213e-05
1.26717e-05
1.48311e-05
2.04851e-05
2.06676e-05
1.46609e-05
1.32475e-05
1.22446e-05
1.20831e-05
1.22239e-05
1.2408e-05
1.20386e-05
1.42085e-05
1.97903e-05
1.97865e-05
1.3884e-05
1.27826e-05
1.18602e-05
1.17297e-05
1.18641e-05
1.19992e-05
1.14565e-05
1.36372e-05
1.91954e-05
1.90327e-05
1.31907e-05
1.23382e-05
1.14983e-05
1.13915e-05
1.15133e-05
1.15968e-05
1.0934e-05
1.31069e-05
1.86783e-05
1.8399e-05
1.2564e-05
1.19063e-05
1.1157e-05
1.10664e-05
1.11713e-05
1.12048e-05
1.04714e-05
1.26029e-05
1.82238e-05
1.7889e-05
1.20066e-05
1.1499e-05
1.08341e-05
1.07539e-05
1.08389e-05
1.08265e-05
1.0053e-05
1.21279e-05
1.78226e-05
1.74849e-05
1.1515e-05
1.11247e-05
1.05264e-05
1.0453e-05
1.05161e-05
1.04632e-05
9.6684e-06
1.16844e-05
1.7472e-05
1.71597e-05
1.10801e-05
1.07815e-05
1.02323e-05
1.01626e-05
1.0203e-05
1.01151e-05
9.31769e-06
1.12762e-05
1.71769e-05
1.68868e-05
1.06868e-05
1.04627e-05
9.95246e-06
9.88247e-06
9.90155e-06
9.78479e-06
9.00432e-06
1.0908e-05
1.69279e-05
1.66514e-05
1.0324e-05
1.01627e-05
9.68623e-06
9.61238e-06
9.61208e-06
9.47156e-06
8.72661e-06
1.06124e-05
1.66468e-05
1.64529e-05
9.98613e-06
9.87779e-06
9.43241e-06
9.35212e-06
9.33377e-06
9.17147e-06
8.48469e-06
1.03858e-05
1.62398e-05
1.62993e-05
9.67102e-06
9.60601e-06
9.19003e-06
9.10186e-06
9.06617e-06
8.88198e-06
8.28379e-06
1.02089e-05
1.56083e-05
1.62018e-05
9.37898e-06
9.34728e-06
8.95845e-06
8.8618e-06
8.80909e-06
8.60322e-06
8.12247e-06
1.00384e-05
1.47123e-05
1.61609e-05
9.11579e-06
9.10227e-06
8.73723e-06
8.63221e-06
8.56249e-06
8.33802e-06
7.98235e-06
9.8408e-06
1.36389e-05
1.6145e-05
8.90101e-06
8.8711e-06
8.52621e-06
8.41361e-06
8.32696e-06
8.08819e-06
7.84225e-06
9.60422e-06
1.25642e-05
1.60969e-05
8.78051e-06
8.65314e-06
8.32521e-06
8.20659e-06
8.10296e-06
7.85361e-06
7.69162e-06
9.33346e-06
1.16415e-05
1.59503e-05
8.79992e-06
8.44791e-06
8.13343e-06
8.01126e-06
7.88956e-06
7.63262e-06
7.53904e-06
9.05242e-06
1.09296e-05
1.57005e-05
8.89063e-06
8.25629e-06
7.95e-06
7.82806e-06
7.68545e-06
7.42405e-06
7.396e-06
8.77148e-06
1.04336e-05
1.53729e-05
8.96177e-06
8.07883e-06
7.77508e-06
7.65771e-06
7.49114e-06
7.22938e-06
7.26659e-06
8.48106e-06
1.01111e-05
1.4997e-05
8.96573e-06
7.91355e-06
7.60891e-06
7.50014e-06
7.30804e-06
7.04964e-06
7.1456e-06
8.17213e-06
9.91134e-06
1.45886e-05
8.88982e-06
7.75852e-06
7.45087e-06
7.35403e-06
7.13747e-06
6.88434e-06
7.02387e-06
7.84153e-06
9.78885e-06
1.41391e-05
8.73074e-06
7.61146e-06
7.30039e-06
7.21615e-06
6.97901e-06
6.73334e-06
6.88914e-06
7.46175e-06
9.70805e-06
1.36641e-05
8.47877e-06
7.4666e-06
7.15749e-06
7.08366e-06
6.8307e-06
6.59431e-06
6.73501e-06
7.02229e-06
9.66423e-06
1.31955e-05
8.14918e-06
7.32428e-06
7.0217e-06
6.95564e-06
6.69114e-06
6.46366e-06
6.56626e-06
6.547e-06
9.66499e-06
1.27533e-05
7.8135e-06
7.18255e-06
6.89248e-06
6.83165e-06
6.55901e-06
6.33701e-06
6.38899e-06
6.07544e-06
9.74866e-06
1.23757e-05
7.50551e-06
7.03948e-06
6.76913e-06
6.71102e-06
6.43299e-06
6.20971e-06
6.21391e-06
5.68702e-06
9.99729e-06
1.20839e-05
7.2229e-06
6.89246e-06
6.65049e-06
6.59242e-06
6.31299e-06
6.08258e-06
6.05474e-06
5.70467e-06
1.01645e-05
1.18822e-05
6.96421e-06
6.73949e-06
6.53559e-06
6.47574e-06
6.19975e-06
5.9578e-06
5.90714e-06
6.0618e-06
9.83374e-06
1.17658e-05
6.72964e-06
6.58119e-06
6.42481e-06
6.36544e-06
6.09331e-06
5.83662e-06
5.75387e-06
6.24081e-06
9.05007e-06
1.17274e-05
6.51753e-06
6.41887e-06
6.31911e-06
6.26373e-06
5.99681e-06
5.72045e-06
5.58316e-06
6.13287e-06
8.09959e-06
1.17536e-05
6.32854e-06
6.25389e-06
6.21794e-06
6.17051e-06
5.91545e-06
5.61554e-06
5.42388e-06
5.85056e-06
7.22652e-06
1.18022e-05
6.17695e-06
6.0889e-06
6.1174e-06
6.08086e-06
5.84808e-06
5.53091e-06
5.30628e-06
5.53917e-06
6.5553e-06
1.1774e-05
6.1138e-06
5.93102e-06
6.01243e-06
5.99311e-06
5.78932e-06
5.46801e-06
5.2176e-06
5.24761e-06
6.13463e-06
1.15324e-05
6.216e-06
5.7936e-06
5.90063e-06
5.90437e-06
5.73148e-06
5.41657e-06
5.13308e-06
4.98355e-06
5.90206e-06
1.10587e-05
6.36572e-06
5.69023e-06
5.78364e-06
5.81253e-06
5.66824e-06
5.36006e-06
5.03304e-06
4.73866e-06
5.76994e-06
1.04388e-05
6.41175e-06
5.61361e-06
5.66567e-06
5.71672e-06
5.59385e-06
5.28258e-06
4.90746e-06
4.50451e-06
5.68248e-06
9.79043e-06
6.30721e-06
5.5427e-06
5.55065e-06
5.61661e-06
5.50253e-06
5.17117e-06
4.74983e-06
4.27e-06
5.6082e-06
9.20609e-06
6.08138e-06
5.47108e-06
5.44257e-06
5.51101e-06
5.38927e-06
5.02138e-06
4.56324e-06
4.03747e-06
5.52869e-06
8.69629e-06
5.82471e-06
5.39293e-06
5.33987e-06
5.39485e-06
5.24641e-06
4.82633e-06
4.34445e-06
3.80453e-06
5.44643e-06
8.29587e-06
5.57643e-06
5.30717e-06
5.24112e-06
5.27185e-06
5.08268e-06
4.61203e-06
4.1207e-06
3.59493e-06
5.4372e-06
5.15298e-05
4.82507e-05
4.82409e-05
4.82408e-05
4.82408e-05
4.82408e-05
4.82408e-05
4.8241e-05
4.82508e-05
5.1527e-05
4.76587e-05
4.20033e-05
4.19476e-05
4.19617e-05
4.19601e-05
4.19596e-05
4.19607e-05
4.19417e-05
4.20028e-05
4.76439e-05
4.44023e-05
3.71331e-05
3.70438e-05
3.70704e-05
3.70657e-05
3.70647e-05
3.70709e-05
3.70391e-05
3.71392e-05
4.43915e-05
4.1636e-05
3.32482e-05
3.31293e-05
3.31652e-05
3.31579e-05
3.31561e-05
3.3167e-05
3.3126e-05
3.32549e-05
4.16262e-05
3.92627e-05
3.00936e-05
2.99416e-05
2.99828e-05
2.99744e-05
2.99716e-05
2.99861e-05
2.99404e-05
3.00883e-05
3.92517e-05
3.72094e-05
2.74941e-05
2.73039e-05
2.73461e-05
2.73373e-05
2.73341e-05
2.73505e-05
2.73036e-05
2.74595e-05
3.7194e-05
3.5419e-05
2.53113e-05
2.50891e-05
2.51284e-05
2.51189e-05
2.51154e-05
2.5132e-05
2.50858e-05
2.52482e-05
3.53895e-05
3.38484e-05
2.34478e-05
2.32054e-05
2.32414e-05
2.32311e-05
2.32267e-05
2.32418e-05
2.31971e-05
2.33655e-05
3.37993e-05
3.24628e-05
2.18296e-05
2.15881e-05
2.16199e-05
2.16086e-05
2.16033e-05
2.16146e-05
2.15724e-05
2.17567e-05
3.23941e-05
3.1218e-05
2.04282e-05
2.0186e-05
2.02134e-05
2.02012e-05
2.01947e-05
2.02001e-05
2.01632e-05
2.03786e-05
3.11197e-05
3.00962e-05
1.92052e-05
1.89632e-05
1.89851e-05
1.89716e-05
1.8967e-05
1.89866e-05
1.91227e-05
2.04477e-05
3.0229e-05
2.91156e-05
1.81365e-05
1.78947e-05
1.79128e-05
1.79029e-05
1.79181e-05
1.80391e-05
1.86726e-05
2.15361e-05
3.05964e-05
2.83298e-05
1.72336e-05
1.69585e-05
1.69777e-05
1.69757e-05
1.70251e-05
1.72668e-05
1.82694e-05
2.1822e-05
3.03433e-05
2.77878e-05
1.71157e-05
1.61665e-05
1.61529e-05
1.61589e-05
1.62416e-05
1.65522e-05
1.762e-05
2.12552e-05
2.92676e-05
2.76291e-05
1.80049e-05
1.57041e-05
1.5442e-05
1.54327e-05
1.55362e-05
1.58613e-05
1.67969e-05
2.02453e-05
2.7838e-05
2.73531e-05
1.87845e-05
1.55508e-05
1.48732e-05
1.47937e-05
1.49084e-05
1.52222e-05
1.60459e-05
1.90469e-05
2.63466e-05
2.65828e-05
1.88944e-05
1.54214e-05
1.44076e-05
1.42342e-05
1.43509e-05
1.46528e-05
1.53501e-05
1.79766e-05
2.48875e-05
2.54569e-05
1.84283e-05
1.51543e-05
1.39764e-05
1.37376e-05
1.38546e-05
1.41441e-05
1.46767e-05
1.70697e-05
2.35598e-05
2.4208e-05
1.76198e-05
1.47502e-05
1.35378e-05
1.3285e-05
1.34064e-05
1.36817e-05
1.39995e-05
1.62407e-05
2.23903e-05
2.2973e-05
1.66413e-05
1.42636e-05
1.30878e-05
1.28613e-05
1.29926e-05
1.32466e-05
1.33182e-05
1.54857e-05
2.1393e-05
2.18192e-05
1.56287e-05
1.37516e-05
1.26512e-05
1.24628e-05
1.26032e-05
1.28245e-05
1.26497e-05
1.48025e-05
2.05594e-05
2.07733e-05
1.47266e-05
1.32629e-05
1.22425e-05
1.20888e-05
1.22299e-05
1.24079e-05
1.20163e-05
1.41818e-05
1.98593e-05
1.98742e-05
1.39384e-05
1.28022e-05
1.18588e-05
1.17344e-05
1.18679e-05
1.19959e-05
1.14359e-05
1.36132e-05
1.92598e-05
1.91026e-05
1.32352e-05
1.23625e-05
1.14969e-05
1.13952e-05
1.15148e-05
1.15908e-05
1.09163e-05
1.30826e-05
1.87381e-05
1.84536e-05
1.26003e-05
1.19337e-05
1.11547e-05
1.10687e-05
1.11706e-05
1.11964e-05
1.04559e-05
1.25753e-05
1.82783e-05
1.79322e-05
1.20363e-05
1.15246e-05
1.08305e-05
1.07546e-05
1.08361e-05
1.08162e-05
1.0038e-05
1.20978e-05
1.78713e-05
1.75198e-05
1.15397e-05
1.11462e-05
1.05219e-05
1.04523e-05
1.05116e-05
1.04515e-05
9.65358e-06
1.16526e-05
1.75156e-05
1.71888e-05
1.11012e-05
1.08e-05
1.02282e-05
1.01609e-05
1.01972e-05
1.0102e-05
9.30336e-06
1.12438e-05
1.72156e-05
1.6912e-05
1.07051e-05
1.04793e-05
9.94914e-06
9.87986e-06
9.89477e-06
9.77056e-06
8.99109e-06
1.08759e-05
1.69632e-05
1.66725e-05
1.034e-05
1.01773e-05
9.68348e-06
9.60895e-06
9.60448e-06
9.45626e-06
8.7153e-06
1.05828e-05
1.6685e-05
1.64689e-05
1.00002e-05
9.89026e-06
9.42975e-06
9.34793e-06
9.32544e-06
9.15477e-06
8.47708e-06
1.03626e-05
1.62924e-05
1.63096e-05
9.68325e-06
9.6166e-06
9.18712e-06
9.09705e-06
9.05724e-06
8.86365e-06
8.28207e-06
1.01989e-05
1.56882e-05
1.62056e-05
9.38929e-06
9.35623e-06
8.95512e-06
8.85664e-06
8.7997e-06
8.58462e-06
8.12436e-06
1.00449e-05
1.48255e-05
1.61589e-05
9.12288e-06
9.10975e-06
8.73355e-06
8.62703e-06
8.55281e-06
8.3199e-06
7.98479e-06
9.86021e-06
1.37764e-05
1.61424e-05
8.90064e-06
8.87748e-06
8.52229e-06
8.40881e-06
8.31716e-06
8.07078e-06
7.8432e-06
9.63244e-06
1.27059e-05
1.61037e-05
8.76283e-06
8.65873e-06
8.32115e-06
8.20253e-06
8.09316e-06
7.83698e-06
7.69057e-06
9.36673e-06
1.17686e-05
1.59763e-05
8.75807e-06
8.45283e-06
8.12927e-06
8.00837e-06
7.8799e-06
7.61701e-06
7.53659e-06
9.0847e-06
1.10333e-05
1.57468e-05
8.83779e-06
8.25993e-06
7.94593e-06
7.82682e-06
7.67624e-06
7.40996e-06
7.39325e-06
8.80608e-06
1.05115e-05
1.54379e-05
8.91215e-06
8.08065e-06
7.77167e-06
7.6585e-06
7.48304e-06
7.21739e-06
7.26503e-06
8.52219e-06
1.01677e-05
1.50771e-05
8.92875e-06
7.91351e-06
7.60642e-06
7.50313e-06
7.30184e-06
7.03985e-06
7.14625e-06
8.22338e-06
9.95229e-06
1.46796e-05
8.87065e-06
7.75676e-06
7.44934e-06
7.35911e-06
7.13384e-06
6.87631e-06
7.02838e-06
7.90389e-06
9.81952e-06
1.42365e-05
8.73215e-06
7.60852e-06
7.29968e-06
7.22296e-06
6.97823e-06
6.72632e-06
6.89998e-06
7.53446e-06
9.73129e-06
1.37623e-05
8.50089e-06
7.46391e-06
7.15738e-06
7.09176e-06
6.83241e-06
6.58798e-06
6.75023e-06
7.1011e-06
9.68169e-06
1.32894e-05
8.18487e-06
7.32269e-06
7.02196e-06
6.96458e-06
6.69464e-06
6.45828e-06
6.58149e-06
6.62449e-06
9.67743e-06
1.28393e-05
7.8479e-06
7.18286e-06
6.89293e-06
6.8409e-06
6.56342e-06
6.33466e-06
6.40102e-06
6.14231e-06
9.75338e-06
1.24445e-05
7.53614e-06
7.04229e-06
6.76974e-06
6.72007e-06
6.43744e-06
6.21165e-06
6.22151e-06
5.73017e-06
9.99147e-06
1.21329e-05
7.24908e-06
6.89816e-06
6.65153e-06
6.60061e-06
6.31588e-06
6.08791e-06
6.06023e-06
5.70259e-06
1.01694e-05
1.19141e-05
6.98604e-06
6.74819e-06
6.5371e-06
6.48242e-06
6.1999e-06
5.9644e-06
5.91444e-06
6.03788e-06
9.87249e-06
1.17852e-05
6.7476e-06
6.59258e-06
6.42625e-06
6.36868e-06
6.09087e-06
5.84289e-06
5.76407e-06
6.22838e-06
9.11862e-06
1.17382e-05
6.53209e-06
6.43235e-06
6.31975e-06
6.26327e-06
5.99194e-06
5.72552e-06
5.59492e-06
6.13708e-06
8.1795e-06
1.17599e-05
6.33975e-06
6.26864e-06
6.21787e-06
6.16791e-06
5.90799e-06
5.61873e-06
5.43258e-06
5.86398e-06
7.2997e-06
1.18106e-05
6.18299e-06
6.10382e-06
6.11789e-06
6.07727e-06
5.83874e-06
5.53108e-06
5.31017e-06
5.55444e-06
6.61115e-06
1.17962e-05
6.10823e-06
5.9444e-06
6.01498e-06
5.98962e-06
5.77921e-06
5.46476e-06
5.21877e-06
5.26339e-06
6.17273e-06
1.15809e-05
6.19334e-06
5.80297e-06
5.9059e-06
5.90195e-06
5.72199e-06
5.41167e-06
5.13484e-06
4.99989e-06
5.92889e-06
1.11329e-05
6.34267e-06
5.69343e-06
5.79127e-06
5.81196e-06
5.66079e-06
5.35661e-06
5.03806e-06
4.75619e-06
5.7909e-06
1.05314e-05
6.40064e-06
5.61167e-06
5.67467e-06
5.71847e-06
5.58984e-06
5.28366e-06
4.91714e-06
4.52349e-06
5.70108e-06
9.89118e-06
6.31155e-06
5.53866e-06
5.55981e-06
5.62105e-06
5.50345e-06
5.17903e-06
4.76452e-06
4.29012e-06
5.62664e-06
9.30665e-06
6.09748e-06
5.46718e-06
5.45097e-06
5.51857e-06
5.39638e-06
5.03669e-06
4.5822e-06
4.05769e-06
5.548e-06
8.79111e-06
5.84706e-06
5.39065e-06
5.34748e-06
5.40614e-06
5.26071e-06
4.84863e-06
4.36655e-06
3.82348e-06
5.4658e-06
8.38013e-06
5.60167e-06
5.30714e-06
5.2484e-06
5.28659e-06
5.10382e-06
4.63879e-06
4.1443e-06
3.61168e-06
5.4539e-06
)
;
    }
    inlet
    {
        type            calculated;
        value           uniform 0.0381026;
    }
    outlet
    {
        type            calculated;
        value           nonuniform List<scalar> 
20
(
0.000112598
4.63559e-05
4.3838e-05
4.3355e-05
4.36996e-05
4.21999e-05
3.83616e-05
3.4317e-05
3.00188e-05
7.21464e-05
0.000113815
4.65591e-05
4.38333e-05
4.342e-05
4.38154e-05
4.23607e-05
3.85756e-05
3.45073e-05
3.01556e-05
7.23745e-05
)
;
    }
    heatWall
    {
        type            nutkWallFunction;
        Cmu             0.09;