/*--------------------------------*- C++ -*----------------------------------*\
  =========                 |
  \\      /  F ield         | OpenFOAM: The Open Source CFD Toolbox
   \\    /   O peration     | Website:  https://openfoam.org
    \\  /    A nd           | Version:  8
     \\/     M anipulation  |
\*---------------------------------------------------------------------------*/
FoamFile
{
    version     2.0;
    format      ascii;
    class       volScalarField;
    location    "1000";
    object      alphat;
}
// * * * * * * * * * * * * * * * * * * * * * * * * * * * * * * * * * * * * * //

dimensions      [1 -1 -1 0 0 0 0];

internalField   nonuniform List<scalar> 
1200
(
0.800866
0.73483
0.679852
0.633456
0.593829
0.559633
0.529865
0.503756
0.480702
0.460231
0.441967
0.425585
0.410819
0.397454
0.385314
0.374262
0.364185
0.354983
0.346555
0.338784
0.331585
0.324893
0.318658
0.312857
0.307477
0.30248
0.29786
0.29355
0.289529
0.285751
0.282191
0.278845
0.275704
0.272766
0.270022
0.267459
0.265059
0.262803
0.260668
0.258632
0.256658
0.254696
0.252685
0.250617
0.248586
0.246736
0.245157
0.243833
0.24274
0.242086
0.242405
0.244349
0.248093
0.252023
0.255156
0.256513
0.255476
0.252148
0.247264
0.241682
0.465663
0.399894
0.349419
0.309695
0.277749
0.251533
0.229668
0.211189
0.1954
0.181785
0.169916
0.159487
0.15024
0.141984
0.13456
0.127842
0.121731
0.116148
0.11103
0.106342
0.102042
0.0980884
0.0944456
0.0910727
0.0879299
0.0850143
0.0823128
0.0798235
0.0774721
0.0752387
0.0731395
0.0711642
0.0693033
0.0675486
0.0658927
0.0643292
0.0628518
0.0614542
0.0601302
0.0588728
0.0576745
0.0565269
0.0554218
0.0543562
0.0533368
0.0523804
0.0515494
0.0511596
0.0522511
0.0562841
0.0631728
0.0711833
0.0789098
0.0856225
0.0899584
0.0913282
0.0897894
0.0858211
0.0802459
0.0736556
0.465559
0.399239
0.348313
0.308172
0.275841
0.249313
0.227195
0.208506
0.19253
0.178735
0.166716
0.156157
0.14681
0.138483
0.131019
0.124292
0.118203
0.112669
0.107621
0.102998
0.0987511
0.0948353
0.0912141
0.0878562
0.0847344
0.0818251
0.0791067
0.0765611
0.0741732
0.0719294
0.069818
0.067829
0.0659534
0.0641828
0.0625092
0.0609255
0.0594251
0.0580016
0.0566494
0.0553634
0.0541396
0.0529747
0.0518666
0.0508138
0.0498156
0.0488712
0.0479793
0.047144
0.0464054
0.0459523
0.0463201
0.0482783
0.0520732
0.0567788
0.0608916
0.0632873
0.0636034
0.0620474
0.0591851
0.055654
0.465559
0.399405
0.348587
0.308512
0.276211
0.249694
0.227578
0.208877
0.19288
0.179058
0.167012
0.156428
0.147061
0.138715
0.131233
0.12449
0.118385
0.112836
0.107773
0.103138
0.0988789
0.0949529
0.0913231
0.0879578
0.0848293
0.0819136
0.0791895
0.0766392
0.0742474
0.0720009
0.0698869
0.0678947
0.0660147
0.0642394
0.0625611
0.0609726
0.0594673
0.0580386
0.056681
0.0553894
0.0541597
0.0529885
0.0518736
0.0508134
0.0498072
0.048854
0.0479523
0.0470997
0.046295
0.0455432
0.0448847
0.0444815
0.0446773
0.0457797
0.0475534
0.0492278
0.050143
0.0500525
0.0491351
0.0476338
0.465559
0.399404
0.348556
0.308455
0.276132
0.249601
0.227477
0.208775
0.192782
0.178968
0.16693
0.156353
0.146992
0.138651
0.131173
0.124435
0.118334
0.11279
0.107731
0.1031
0.0988452
0.0949229
0.0912966
0.0879348
0.0848097
0.081897
0.079176
0.0766295
0.0742424
0.0720008
0.0698924
0.0679059
0.0660317
0.0642613
0.0625867
0.0610011
0.059498
0.0580718
0.056717
0.0554286
0.0542018
0.0530322
0.0519162
0.0508519
0.0498437
0.0488912
0.0479917
0.0471404
0.046332
0.045562
0.0448276
0.0441301
0.0435089
0.0430679
0.0429356
0.0430983
0.0433616
0.0434694
0.0433325
0.0428758
0.465559
0.399404
0.348554
0.30845
0.276126
0.249592
0.227468
0.208766
0.192774
0.178962
0.166925
0.156349
0.146988
0.138647
0.13117
0.124433
0.118334
0.11279
0.107734
0.103104
0.0988511
0.0949305
0.0913059
0.0879458
0.0848222
0.0819112
0.0791921
0.0766478
0.0742633
0.0720249
0.0699202
0.0679383
0.0660697
0.064306
0.0626397
0.0610639
0.0595727
0.0581606
0.0568224
0.0555528
0.0543468
0.0531998
0.0521097
0.0510778
0.0501088
0.0492045
0.0483593
0.0475607
0.0468056
0.0460891
0.0453976
0.0447122
0.0440084
0.0433358
0.042717
0.0421834
0.0417457
0.0413674
0.0410176
0.0406218
0.465559
0.399409
0.348589
0.308513
0.276211
0.249694
0.227581
0.208885
0.19289
0.179069
0.167022
0.156436
0.147067
0.138719
0.131235
0.12449
0.118382
0.112831
0.107766
0.103129
0.09887
0.0949445
0.0913161
0.0879533
0.0848282
0.0819165
0.0791976
0.0766546
0.0742723
0.0720367
0.0699359
0.0679589
0.0660963
0.0643402
0.0626832
0.0611192
0.0596423
0.0582475
0.0569297
0.0556836
0.0545034
0.053384
0.0523299
0.0513734
0.0505834
0.0499974
0.0495767
0.049242
0.04896
0.0487107
0.0484534
0.0481146
0.047576
0.0466917
0.0457394
0.0448217
0.0439622
0.0431783
0.0424666
0.0418212
0.465559
0.399244
0.348315
0.308166
0.275827
0.249297
0.227185
0.208503
0.192533
0.178743
0.166726
0.156168
0.146824
0.138497
0.131034
0.12431
0.118225
0.112696
0.107652
0.103034
0.0987897
0.0948753
0.0912561
0.0879012
0.0847829
0.0818768
0.0791623
0.0766223
0.0742415
0.072006
0.0699034
0.0679229
0.0660546
0.0642902
0.0626232
0.0610456
0.059551
0.0581348
0.0567945
0.0555297
0.0543438
0.0532616
0.0524134
0.0522197
0.053164
0.0550226
0.0571488
0.059002
0.0603688
0.0612875
0.061821
0.061915
0.0614255
0.0602219
0.0582772
0.056042
0.0540365
0.05231
0.0508374
0.0495828
0.465663
0.39986
0.349337
0.309563
0.277568
0.251343
0.229483
0.210991
0.195164
0.181493
0.16959
0.159144
0.1499
0.141655
0.134254
0.127579
0.121539
0.116058
0.111055
0.106452
0.102181
0.0981972
0.094514
0.0911106
0.0879637
0.0850504
0.0823514
0.0798224
0.0775339
0.0754835
0.0736291
0.0719289
0.0703468
0.0688519
0.0673993
0.0659908
0.0646256
0.0632766
0.0619091
0.0605727
0.0593471
0.0590779
0.0619347
0.0692462
0.0783655
0.0860005
0.0906941
0.0927438
0.0932769
0.0931827
0.0926035
0.0912125
0.0886702
0.0848724
0.0800256
0.0745543
0.0690947
0.0642487
0.0603659
0.0573746
0.800852
0.734844
0.67987
0.633477
0.593855
0.559671
0.529927
0.503844
0.480813
0.460357
0.442092
0.425705
0.410938
0.397575
0.385448
0.37443
0.364429
0.355377
0.347184
0.339726
0.33287
0.326491
0.320458
0.314711
0.309249
0.304109
0.299343
0.294919
0.290835
0.287093
0.283688
0.280611
0.277849
0.275384
0.273194
0.271256
0.269538
0.268
0.266606
0.265319
0.264254
0.263785
0.265265
0.270506
0.278388
0.285114
0.288183
0.287171
0.28259
0.275069
0.265156
0.253454
0.240785
0.228215
0.216823
0.207441
0.200398
0.195447
0.191969
0.188902
0.800867
0.734852
0.679856
0.633437
0.593784
0.559574
0.529817
0.503739
0.480721
0.460268
0.441991
0.425585
0.410799
0.397421
0.38528
0.374235
0.364169
0.354979
0.346558
0.338784
0.331582
0.32489
0.318657
0.312853
0.307472
0.302479
0.297844
0.293533
0.289519
0.285754
0.282191
0.27884
0.275699
0.272762
0.270019
0.267458
0.265061
0.262807
0.260677
0.258648
0.256684
0.254736
0.252743
0.25069
0.248661
0.246799
0.245201
0.243862
0.242757
0.242063
0.242277
0.244034
0.247604
0.251557
0.254813
0.256424
0.255718
0.252689
0.247999
0.242485
0.465663
0.399889
0.349387
0.309639
0.277686
0.251491
0.229649
0.211176
0.195377
0.181736
0.169849
0.15942
0.150186
0.141942
0.134522
0.127804
0.121691
0.116106
0.110988
0.106308
0.102014
0.0980625
0.0944161
0.0910419
0.0879109
0.085004
0.08234
0.0798816
0.0775489
0.0753048
0.0731863
0.0711928
0.0693191
0.0675569
0.0658971
0.0643316
0.0628531
0.0614549
0.0601306
0.0588731
0.0576749
0.0565278
0.0554233
0.054358
0.0533374
0.0523776
0.0515334
0.0510836
0.0519869
0.0557151
0.0623734
0.0703159
0.0780687
0.0849192
0.0895418
0.0912526
0.0900482
0.0863574
0.0809724
0.0744329
0.465559
0.399254
0.348326
0.308175
0.275829
0.249285
0.227165
0.208486
0.192525
0.17874
0.16672
0.156155
0.146804
0.138473
0.131007
0.124283
0.118197
0.112667
0.107621
0.103
0.0987527
0.0948371
0.0912162
0.0878586
0.0847364
0.0818251
0.079105
0.0765592
0.0741724
0.0719302
0.06982
0.0678307
0.0659539
0.0641819
0.0625073
0.0609229
0.0594219
0.057998
0.0566456
0.0553596
0.0541357
0.0529706
0.0518619
0.0508084
0.0498093
0.0488638
0.0479709
0.0471335
0.0463858
0.0458951
0.0461564
0.0479345
0.0515604
0.0562254
0.0604515
0.0630572
0.0636069
0.0622485
0.0595193
0.0560387
0.465559
0.399415
0.348595
0.308513
0.276203
0.249678
0.227559
0.208867
0.192883
0.17907
0.167024
0.156434
0.14706
0.138708
0.131224
0.124481
0.118379
0.112833
0.107773
0.103139
0.0988802
0.0949544
0.0913249
0.0879597
0.0848309
0.081914
0.0791891
0.076639
0.0742482
0.0720026
0.0698892
0.0678972
0.0660171
0.0642406
0.0625608
0.0609708
0.0594642
0.0580347
0.0566768
0.0553854
0.054156
0.052985
0.0518697
0.0508088
0.0498016
0.0488473
0.0479443
0.0470906
0.0462847
0.0455307
0.044863
0.0444274
0.0445504
0.0455621
0.0472957
0.0490151
0.0500319
0.05005
0.0492186
0.0477638
0.465559
0.399414
0.348568
0.308462
0.276133
0.249593
0.227462
0.208765
0.192783
0.178977
0.166939
0.156358
0.146991
0.138645
0.131165
0.124428
0.11833
0.112788
0.107731
0.103101
0.0988463
0.0949241
0.0912979
0.0879362
0.0848109
0.0818978
0.0791766
0.0766305
0.0742439
0.0720028
0.0698945
0.0679082
0.0660341
0.0642637
0.0625892
0.0610037
0.0595007
0.0580748
0.0567205
0.0554327
0.0542067
0.0530379
0.0519229
0.05086
0.0498497
0.0488927
0.0479881
0.047133
0.0463218
0.0455501
0.0448145
0.0441153
0.0434863
0.0430248
0.0428615
0.0430028
0.0432704
0.043404
0.0433008
0.0428704
0.465559
0.399412
0.348566
0.308459
0.276129
0.249589
0.227458
0.20876
0.192777
0.178971
0.166934
0.156354
0.146987
0.138642
0.131163
0.124427
0.11833
0.112789
0.107734
0.103105
0.098852
0.0949315
0.0913071
0.087947
0.0848234
0.0819122
0.0791931
0.0766492
0.0742651
0.0720271
0.0699227
0.0679411
0.0660729
0.0643096
0.0626437
0.0610685
0.0595779
0.0581665
0.0568289
0.0555601
0.0543548
0.0532088
0.0521202
0.0510909
0.0501255
0.0492249
0.0483824
0.0475856
0.0468243
0.046094
0.0453904
0.0446995
0.043992
0.0433157
0.0426918
0.0421507
0.0417062
0.0413252
0.0409773
0.0405856
0.465559
0.399418
0.348604
0.308529
0.276226
0.249703
0.227581
0.208884
0.192896
0.179081
0.167034
0.156444
0.147068
0.138714
0.131227
0.124483
0.118377
0.112828
0.107765
0.10313
0.0988708
0.0949454
0.0913172
0.0879545
0.0848294
0.0819177
0.079199
0.0766563
0.0742744
0.0720393
0.0699389
0.0679624
0.0661005
0.0643451
0.0626891
0.0611261
0.0596503
0.0582567
0.0569402
0.0556956
0.054517
0.0533999
0.0523507
0.0514033
0.0506231
0.0500412
0.0496156
0.0492644
0.0489457
0.0486744
0.0484166
0.048093
0.0475832
0.0467286
0.04577
0.0448435
0.0439751
0.0431826
0.042463
0.0418114
0.465559
0.399246
0.348321
0.308173
0.275835
0.249302
0.227183
0.208501
0.192536
0.178751
0.166735
0.156173
0.146824
0.138494
0.13103
0.124307
0.118223
0.112695
0.107653
0.103035
0.0987904
0.0948758
0.0912569
0.0879023
0.084784
0.0818779
0.0791636
0.0766238
0.0742433
0.0720082
0.0699059
0.0679255
0.0660575
0.0642931
0.0626247
0.0610452
0.0595486
0.0581319
0.0567934
0.0555317
0.0543512
0.053277
0.05243
0.0521454
0.0529251
0.0546896
0.0568336
0.0587664
0.0602204
0.061211
0.0617999
0.0619422
0.0615008
0.0603484
0.058445
0.0562026
0.0541641
0.0524086
0.0509102
0.0496361
0.465663
0.399871
0.349374
0.30962
0.277631
0.251383
0.229488
0.210987
0.195182
0.18154
0.169646
0.159185
0.149919
0.141659
0.134253
0.12758
0.121544
0.116062
0.111054
0.106445
0.102165
0.0981756
0.0944951
0.0910926
0.0879399
0.0850107
0.0822835
0.0797394
0.0774461
0.075398
0.0735476
0.0718459
0.0702564
0.0687514
0.0673024
0.0659065
0.0645672
0.0632667
0.0619736
0.0606892
0.0595392
0.0591421
0.0614785
0.0682512
0.0772879
0.0852066
0.0902782
0.0926162
0.0933013
0.0932723
0.0927372
0.091402
0.0889293
0.0852032
0.0804133
0.0749705
0.0694912
0.0645895
0.0606405
0.0575976
0.800858
0.734861
0.679907
0.63352
0.593898
0.559707
0.529945
0.503856
0.480834
0.460386
0.442119
0.42572
0.410936
0.39756
0.385429
0.374413
0.364419
0.355375
0.347188
0.339733
0.332878
0.326498
0.320454
0.31469
0.309205
0.30403
0.299199
0.294813
0.290775
0.287062
0.283668
0.280593
0.277828
0.275358
0.273164
0.27122
0.269496
0.267955
0.26656
0.265277
0.264192
0.26364
0.264854
0.269713
0.2775
0.284509
0.28801
0.287399
0.283133
0.275846
0.266099
0.254498
0.241861
0.229249
0.217753
0.208228
0.201036
0.195962
0.192405
0.189312
)
;

boundaryField
{
    wall
    {
        type            compressible::alphatJayatillekeWallFunction;
        Prt             0.85;
        value           uniform 0;
    }
    inlet
    {
        type            calculated;
        value           uniform 37.903;
    }
    outlet
    {
        type            calculated;
        value           nonuniform List<scalar> 
20
(
0.241683
0.0736555
0.0556539
0.0476337
0.0428758
0.0406218
0.0418213
0.0495828
0.0573747
0.188902
0.242486
0.0744327
0.0560387
0.0477637
0.0428704
0.0405856
0.0418114
0.0496361
0.0575977
0.189312
)
;
    }
    heatWall
    {
        type            compressible::alphatJayatillekeWallFunction;
        Prt             0.85;
        value           nonuniform List<scalar> 
240
(
0
0
0
0
0
0
0
0
0.0602335
0.060238
0.0568618
0.0568654
0.0539244
0.0539261
0.0513453
0.0513466
0.0490652
0.0490676
0.0470377
0.0470409
0.0452255
0.0452284
0.0435981
0.0435995
0.0421301
0.0421297
0.0408008
0.0407989
0.0395935
0.0395912
0.0384964
0.0384944
0.037501
0.0374999
0.0366008
0.0366006
0.0357861
0.0357866
0.0350431
0.035044
0.034358
0.034359
0.0337182
0.0337191
0.0331109
0.0331105
0.032531
0.0325289
0.0319799
0.0319755
0.0314627
0.0314544
0.0309843
0.0309692
0.0305411
0.0305299
0.0301325
0.0301262
0.0297591
0.0297557
0.02942
0.0294178
0.0291142
0.0291122
0.0288403
0.028838
0.0285962
0.0285934
0.0283798
0.0283764
0.0281883
0.0281844
0.0280184
0.028014
0.0278659
0.0278612
0.0277271
0.0277223
0.0275991
0.0275947
0.0274954
0.0274886
0.0274654
0.0274482
0.0276662
0.0276181
0.0282699
0.028183
0.0291122
0.02902
0.0297952
0.0297356
0.0300835
0.0300694
0.02995
0.0299769
0.0294545
0.0295132
0.0286638
0.0287458
0.027633
0.0277314
0.0264223
0.0265304
0.0251156
0.0252265
0.0238229
0.0239289
0.0226578
0.0227526
0.0217036
0.0217835
0.0209963
0.0210608
0.0205001
0.0205519
0.0201604
0.0202044
0.0198408
0.0198824
0
0
0
0
0
0
0.0641345
0.0641323
0.0602309
0.0602261
0.056858
0.0568518
0.053918
0.0539132
0.0513361
0.0513349
0.0490535
0.049056
0.0470248
0.0470287
0.0452129
0.0452151
0.043586
0.0435856
0.0421181
0.0421156
0.0407882
0.0407845
0.0395794
0.0395756
0.0384782
0.0384753
0.0374737
0.0374721
0.0365561
0.0365557
0.0357146
0.0357151
0.0349376
0.0349379
0.0342168
0.0342167
0.0335459
0.0335459
0.0329205
0.0329207
0.0323389
0.0323386
0.0318001
0.0317993
0.0312997
0.0312991
0.0308365
0.0308345
0.0304039
0.0304022
0.0300005
0.0299997
0.0296216
0.0296221
0.0292649
0.0292649
0.0289297
0.0289292
0.0286153
0.0286147
0.0283212
0.0283207
0.0280465
0.0280461
0.0277899
0.0277897
0.0275493
0.0275493
0.0273226
0.027323
0.027108
0.0271089
0.0269032
0.0269048
0.0267046
0.0267073
0.0265072
0.0265114
0.0263054
0.0263114
0.0260995
0.0261067
0.0258997
0.0259069
0.0257205
0.0257263
0.0255696
0.0255734
0.0254442
0.0254466
0.0253436
0.0253445
0.0252936
0.0252898
0.0253519
0.0253362
0.0255821
0.0255467
0.0259803
0.0259309
0.0263774
0.0263306
0.0266778
0.0266455
0.0267773
0.0267733
0.0266239
0.0266545
0.0262379
0.0262983
0.0257135
0.0257914
0.0251214
0.0252041
)
;
    }
}


// ************************************************************************* //
