/*--------------------------------*- C++ -*----------------------------------*\
  =========                 |
  \\      /  F ield         | OpenFOAM: The Open Source CFD Toolbox
   \\    /   O peration     | Website:  https://openfoam.org
    \\  /    A nd           | Version:  8
     \\/     M anipulation  |
\*---------------------------------------------------------------------------*/
FoamFile
{
    version     2.0;
    format      ascii;
    class       volScalarField;
    location    "1000";
    object      p_rgh;
}
// * * * * * * * * * * * * * * * * * * * * * * * * * * * * * * * * * * * * * //

dimensions      [1 -1 -2 0 0 0 0];

internalField   nonuniform List<scalar> 
1200
(
41964.4
38780.9
37337.8
36822.3
36492.2
36208.3
36013
35992.4
36058
35981.5
35732.5
35482.9
35294.3
35097.9
34860.5
34599.4
34362.9
34220.8
34235.2
34345.3
34434.7
34517.1
34599.9
34528.1
34116.2
33465
32912.5
32569.5
32399.8
32166.1
31753.8
31194.5
30517.8
29728.6
28852.1
27915.4
26914
25894.3
24892.4
23915.1
22937.4
21904.6
20700.6
19222.7
17416.6
15360.2
13241.9
11133.9
9042.65
6824.27
4423.88
1996.39
2.30325
-1018.48
-1323.34
-1657.71
-1268.66
-2595.69
-294.675
-7203.43
34887.3
35313.9
35443.7
35579.2
35615.9
35512
35441
35535.6
35715.5
35729.4
35529.4
35316.6
35141.5
34956.8
34729.1
34473.9
34237.2
34089.5
34096.7
34203.5
34294.7
34381.1
34473.3
34424.6
34054.8
33431
32868.5
32534.1
32393.1
32206.1
31839.7
31319.8
30678.4
29918
29064.2
28142.4
27148.4
26131.5
25134.5
24169.9
23215.4
22214.2
21043.6
19594.2
17812.4
15793.1
13752.8
11794.2
9933.83
7867.53
5424.51
2983.72
959.935
-201.078
-466.283
-671.786
-113.73
-1322.15
834.969
-5213.31
36044.5
37087.3
37223.3
36970.1
36688.5
36449.7
36248.7
36169.4
36184.1
36090.7
35842.8
35582
35370
35147.8
34877.3
34570.4
34274.9
34069.3
34032.5
34116.6
34204.1
34297.6
34407.4
34395
34071.3
33469.3
32905.1
32565.1
32416.4
32217.7
31831.9
31281.5
30605
29806.9
28924.4
27981.8
26975.4
25952.3
24954.6
23994.5
23054.7
22082.7
20954.3
19528
17705.1
15576.9
13391.4
11237.2
9098.56
6912.35
4778.56
2851.17
1431.48
382.234
-205.128
-963.722
-1060.46
-2621.04
-775.972
-6320.67
36044.3
36454.9
36352.1
36080.5
35871.3
35683.9
35527.8
35545
35693.5
35724.4
35560.3
35341.3
35155.8
34957.6
34711.1
34426
34144.6
33943.6
33905.1
33986.8
34073.6
34164
34274.1
34280.7
33995.2
33423.9
32861.8
32507.7
32348
32155.2
31789.9
31271.4
30635.1
29868.9
29007.1
28074.3
27072.7
26054.1
25069.7
24136
23237.2
22312.7
21229.1
19820
17969.6
15809.9
13635
11507.9
9353.2
7053.57
4753.48
2650.13
1194.35
269.302
-118.006
-574.98
-374.304
-1477.88
179.326
-4056.33
36090.4
36454.2
36543.7
36410.3
36266.5
36104.8
35930
35875.9
35938.2
35917.4
35736.9
35503.8
35295.7
35073.7
34800.4
34478.7
34148.9
33895.7
33813.9
33870.4
33947.9
34035.5
34149.6
34181.8
33951.7
33441.4
32906.5
32538.6
32344.1
32121.1
31743.6
31224.4
30586.6
29816.3
28953.7
28012.6
26996.6
25959.9
24966.1
24047.4
23207.1
22398.7
21481.7
20185.6
18241.5
15815.8
13391.5
11078.2
8778.45
6532.45
4486.59
2736.01
1345.82
306.879
-243.309
-870.565
-904.039
-1953.79
-566.566
-3248.16
36074.4
36433.2
36538.9
36418.9
36285.2
36136.6
35954.2
35876.3
35921.6
35908.5
35748.3
35521.1
35301.5
35063.5
34769.5
34416.2
34041.7
33737.9
33611.5
33638.5
33701
33780.2
33893.7
33949.8
33782.6
33355.2
32872.9
32510.2
32292
32039.9
31644.6
31119.3
30477.8
29717.2
28868.4
27935.9
26926.7
25890.5
24896.2
23990
23193.3
22476.5
21704.5
20556.5
18622.5
16072
13464.6
10948.9
8389.83
5795.53
3524.15
1620.28
198.431
-908.365
-1341.66
-1545.48
-1091.51
-1568.25
-196.498
-1825.57
35993.2
36375
36310
36057.9
35870.7
35721.4
35547.9
35496.4
35597.7
35660
35570.4
35387
35187.5
34965.4
34688.7
34349.2
33981.1
33679.1
33557.4
33596.6
33675.7
33768.5
33892.7
33970.2
33857.1
33509.2
33079.2
32716.6
32462.9
32159.7
31720.9
31170.1
30509
29738.4
28881.4
27938.6
26923
25878.9
24876.3
23970.4
23192.8
22534.6
21882.2
20921
19076
16384
13619.6
10979
8467.4
6103.93
3926.37
1988.01
328.462
-970.916
-1465
-1635.4
-997.191
-1183.73
225.408
-1183.07
35984.8
36972.3
37136.5
36949
36734.6
36519.2
36264.3
36090.4
36044.1
35993.7
35841.4
35616.9
35374.9
35108.1
34780.9
34377.7
33932.9
33554.5
33375.1
33386.5
33465
33577.7
33739.3
33878.2
33860
33627.3
33282.9
32953.7
32713.2
32399.2
31940.3
31374.4
30698.2
29915.9
29049.9
28082.8
27055.7
25994.7
24969.9
24050.3
23288.8
22727.2
22296.7
21548.2
19328.5
15980.5
12636.3
9682.78
7030.85
4574.92
2521.74
634.796
-1070.9
-2612.11
-3225.64
-2980.45
-1843.69
-1706.64
-100.158
-1223.86
34758.3
35197.5
35393.8
35542.5
35612.5
35610.8
35501.8
35455.5
35541
35612.2
35556.7
35397.2
35194.7
34960.2
34667.7
34304.1
33903.9
33575.9
33452.2
33521.2
33653.6
33813
34013.4
34191
34221
34043
33720.9
33334.6
33050.8
32690.5
32195.4
31614.9
30936.5
30163.8
29311.2
28401.1
27412.7
26374.5
25374.2
24506.1
23847.5
23510.5
23422.7
22922.3
20769.4
17498.3
14399.1
11638.5
9068.74
6704.22
4594.7
2544.86
586.217
-1185.97
-2040.82
-2334.52
-1089.33
-703.65
1193.93
-812.649
41905.7
38578.2
37243.1
36804
36530.2
36306
36059.3
35901.5
35880.9
35869.7
35762.7
35571.7
35346.9
35096.9
34793.4
34420.2
34012.1
33682.6
33569
33659.6
33820.4
34011.9
34249
34456.7
34505.8
34331.9
33996.3
33589.1
33237.9
32786.3
32204.4
31555.4
30821.8
30004
29110.3
28140
27112.2
26048.7
25019.7
24109
23417.6
23042.7
23035.7
22688.5
20219.8
16420.6
12876.5
9899.53
7326.81
5015.56
2981.55
1025.79
-795.897
-2448.29
-3181.61
-3312.85
-2112.93
-1886.28
18.0464
-1686.89
41943.1
38615.2
37277.1
36884
36670.6
36511.7
36311.6
36035.6
35756.6
35619.6
35623.8
35614.1
35543.2
35448.5
35350.2
35227
35062.7
34857.4
34598.7
34325.7
34104.9
33877.4
33603
33304.8
33088.7
32969.1
32803.9
32467.7
31982.4
31515.2
31085
30582.7
29977.9
29284.7
28522.8
27713
26878.9
25982.4
24983.8
23882.9
22687.1
21399.6
20032.3
18496.1
16647.1
14507.2
12295.5
10169.2
8113.31
5930.04
3642.13
1451.61
-281.26
-1028.25
-1176.13
-1273.59
-880.282
-1809.69
-152.416
-5961.85
34877.5
35226.6
35416.3
35633.6
35759.7
35757.9
35707.7
35592.3
35452.5
35400.5
35431.4
35449.6
35399.4
35339.8
35292.7
35233.6
35139.4
34998.5
34782.2
34521.4
34289.8
34032.9
33713.7
33362.2
33086
32937.7
32755.2
32420.1
31959.7
31524.6
31115.7
30622.9
30017.1
29318.1
28547.8
27728.8
26884.8
25979.8
24975.3
23871.9
22675.4
21383.9
20008.6
18456.6
16579.9
14417.9
12220.3
10148
8146.17
5865.4
3297.24
942.338
-805.072
-1619.71
-1674.22
-1626.78
-1087.34
-1906.98
-330.674
-5221.46
36044.8
36961.5
37133
36990.7
36835.6
36760.2
36633.9
36335
35973.7
35757
35711.3
35693.8
35628.5
35549.5
35468.9
35360.1
35207.2
35009.4
34750.3
34465.4
34227.3
33980.3
33684.9
33362.6
33107.3
32967.5
32795.6
32478.7
32031.7
31591.2
31159.4
30648
30025.9
29310
28521.8
27687
26828.5
25912.2
24901.7
23801.9
22621.4
21359.1
20027.5
18503.4
16591
14331.7
12022
9822.38
7658.79
5357.47
3098.3
1143.82
-150.503
-871.744
-1119.83
-1444.43
-1392.81
-2479.67
-1219.78
-5432.24
36064.1
36399.8
36335
36134.9
35994.4
35893.1
35795.7
35649
35487.6
35417.4
35432.5
35438.9
35396.9
35345.7
35299.2
35236.7
35139.5
34994.2
34771.2
34500.4
34260
34002.2
33693.2
33356
33079.5
32913.1
32729.3
32421.1
31997.7
31572.7
31143.2
30641.9
30052.2
29369.9
28603.1
27778.8
26922.7
26008.9
25008.8
23934.7
22796.6
21588.3
20313.1
18807.4
16845.3
14519.3
12201.8
10043.5
7920.45
5620.49
3345.73
1324.87
-41.4397
-829.351
-1139.6
-1414.25
-1231.4
-1952.38
-769.122
-3654.95
36134.6
36437.4
36529.3
36445.4
36364.2
36301.5
36243.7
36073
35819
35650.9
35600.3
35583.1
35541.2
35494.7
35447.7
35378.5
35271.3
35114
34880.1
34600.1
34354.4
34096.4
33790.6
33453.4
33167.7
32987.1
32804.5
32501.8
32079.9
31641.4
31189.1
30669.6
30073.9
29393.4
28628.8
27796.8
26923.5
25994.1
24992.5
23942.1
22862.5
21757
20630.8
19218.6
17169.3
14618.1
12102.7
9811.41
7574.4
5259.05
3143.39
1437.65
202.067
-593.339
-969.5
-1363.75
-1393.42
-2113.51
-1166.93
-2703.63
36143.9
36460.9
36551.2
36471
36387.2
36318.1
36270.3
36115.2
35865.9
35686.8
35615.8
35587
35545.8
35498.6
35445.3
35368.3
35253
35083.9
34833.1
34532.2
34268.1
34000.4
33696.6
33369.7
33091.1
32908.2
32734.6
32447.3
32053.9
31639.8
31201.7
30692.2
30108.4
29441
28687.5
27856.6
26977.9
26042.2
25037.4
23995
22948.1
21919
20927.8
19638
17577
14883.2
12188.2
9710.61
7253.55
4692.47
2448.52
649.115
-621.677
-1522.49
-1851.86
-1924.43
-1546.77
-1775.74
-785.859
-1417.22
36083.5
36428.5
36310.9
36071.8
35909.1
35810.4
35775.1
35691.3
35547.3
35452.9
35428.2
35428.2
35417.2
35401
35383
35353.3
35297.4
35189.6
34990.4
34722.4
34475.1
34211.8
33902.4
33559.1
33252.5
33034
32837.1
32521.4
32107.1
31674.2
31221.5
30705.7
30125.5
29465.9
28715.9
27879.7
26990.1
26047.1
25043
24012.7
22989.4
22008.6
21131.8
20023.3
18097.4
15337.9
12521.7
9861.82
7293.72
4792.85
2563.35
724.452
-747.955
-1811.8
-2152.57
-2132.68
-1545.18
-1477.73
-418.326
-798.839
36110.9
37133.9
37251.5
37061.9
36847.6
36659.9
36574.5
36406
36111.1
35862.2
35726.2
35664.7
35623.1
35578.8
35520.2
35432.6
35301.3
35107
34823.7
34487.1
34194.1
33910.8
33607.2
33290.6
33018.2
32826.4
32667.3
32380.5
32005.9
31605.9
31169.8
30658.2
30080
29424.7
28682.3
27840.1
26945.6
25986.1
24960.1
23918.7
22916.2
22052.3
21470.7
20672.2
18440.4
15035.9
11576.1
8521
5830.49
3353.36
1305.93
-455.842
-1964.36
-3229.97
-3709.85
-3327.02
-2267.7
-1836.24
-610.88
-719.833
34835.9
35263.7
35420.5
35578.5
35649.5
35667.6
35719.2
35703.9
35590
35489.7
35447.4
35442.8
35445.5
35443.1
35436.2
35422.9
35389.7
35302.7
35112.7
34837.5
34574.7
34292.9
33963.3
33600.3
33268.5
33011.6
32805.5
32464.6
32040.8
31610.5
31161.8
30657.5
30099.9
29463.9
28722.3
27912.7
27038.3
26098.1
25104.7
24136.2
23272.1
22659.8
22402.8
21748.3
19382.8
15824
12406.5
9410.81
6706.85
4244.36
2158.32
311.773
-1335.24
-2723.8
-3309.94
-3300.09
-2146.79
-1445.25
5.37898
-599.185
42100.1
38711.8
37300.2
36857.7
36566.9
36345.5
36261.9
36133.1
35901.1
35703.4
35595.2
35549.1
35520.5
35479.1
35414.7
35319.4
35180.3
34974.2
34674.9
34320.5
34013.5
33723.9
33429.4
33134.1
32890.1
32726.6
32608.1
32342.4
31990.4
31601.8
31154.9
30624
30026.8
29352.9
28586.9
27749.1
26862.4
25926.7
24951.1
24015
23227.7
22686.6
22499.5
21843.8
19126
15242.9
11746
8867.48
6358.22
4048.92
2047.25
241.109
-1348.87
-2693.93
-3270.85
-3204.51
-2136.49
-1594.25
-252.178
-782.625
)
;

boundaryField
{
    wall
    {
        type            fixedFluxPressure;
        gradient        nonuniform List<scalar> 
1200
(
4167.23
1930.39
-100.169
-3982.67
-8879.4
-13938
-18098.3
-25290.2
-15536.3
-38938.1
33360.6
17566.2
25291
11067.1
3386.82
-5550.23
-10759.2
-32436
-13322.5
-26860.3
12273.9
5564.75
18211.4
3472.27
2924.8
-2457.9
-184.817
-23096.6
-5361.72
-11497.5
-12214.8
-10817.1
-3979.11
-10840.1
-6957.55
-10396.3
-2774.86
-22678.1
-7238.01
-10835.1
-35631.7
-28710.7
-29301.4
-24574.7
-19437.5
-20346.5
-7650.77
-22644.6
-7415.59
-7397.88
-60785.8
-49272.8
-62078.7
-41872.6
-39285.6
-36230.4
-17717
-28080.6
-11280.8
-7822.36
-59944.7
-53538.5
-77209.5
-53758.9
-62872.7
-63318.3
-45504.9
-62112.3
-43513.5
-40531.3
-8802.19
-11506
-33282.4
-20995.9
-39613.1
-47992.2
-39152.2
-63362.5
-49847.9
-46481.5
60372.8
52682.3
42184.1
41181.1
23811.7
11033.8
9974.87
-13625.7
-9948.68
-4193.69
72617.7
66024.6
66992.2
61557.5
53419.1
44365.7
41436.6
26146.9
24420.5
33188
21904.6
19775.5
26511.8
25698.5
27470.5
26586.6
28512.4
22972.9
21856.2
33516.4
-26189.5
-26530.3
-22243.4
-19434.5
-15755.7
-13116.9
-8165.87
-9602.05
-9095.94
4580.12
-49770.4
-51516.1
-51586.7
-48146.6
-49013.2
-48775.4
-45875.5
-49698.5
-50134.4
-34676
-70089.3
-76522.6
-80203.6
-77548.4
-84109.1
-86988.2
-87089.8
-94211.1
-96581.8
-76433.5
-97936.5
-112625
-118190
-117586
-129418
-135187
-138917
-148025
-153800
-124294
-125511
-151834
-157797
-162138
-180006
-190575
-201046
-211331
-224013
-179992
-139934
-180330
-186337
-199070
-224650
-242625
-263725
-274311
-297657
-233972
-127296
-181639
-187885
-210269
-244011
-269843
-302906
-311469
-346146
-258825
-72554.9
-136785
-143294
-173351
-213669
-245168
-287664
-290947
-333040
-221694
4234.29
-63085.4
-69343
-102722
-146342
-179674
-226373
-221424
-264133
-132483
66270.2
1569.01
-4156.43
-37267.8
-81788
-114571
-161347
-147256
-185033
-38691.5
128203
70259.2
63975.5
32373.8
-12780.3
-45447.9
-90417.6
-68242.9
-96693.1
57744.3
199678
152631
145132
116269
71194.5
37840.2
-3985.64
24692.8
9498.77
164335
245104
213418
207357
185295
145245
114384
80051
115809
117990
265279
205844
194799
193776
183657
156532
136671
118641
166737
190824
324209
99183.2
99303
101052
102522
90502.3
87583.7
92545.4
158608
207016
322259
21431.3
22888.6
22189.6
26574.2
19802.2
25513.2
45572.4
121436
183961
278444
19945.2
22829.8
17418.6
17214.6
6543.42
10082.1
35890.7
113024
175300
249715
83311.4
86835
77175.4
70015.1
51996.3
44920.2
67794.8
139978
203718
249894
130202
136544
125600
116528
95166.4
77180.9
93472.1
157268
217992
237280
133843
144990
134739
129408
110167
85586
95970.4
152735
208780
210212
122475
139592
126869
126035
110298
82330.6
88661.4
141944
193484
186579
108073
132483
116029
116758
101964
70670.1
72195.4
122345
169124
159238
88856.6
120204
99579.2
100008
84083.8
51961.6
49684.1
96878.7
141488
130394
65919.6
103498
80737.4
81015.2
64579.9
32864.3
27984.2
71979.6
118952
104681
40519.1
82930
59179.4
59334
42808.8
12556.8
6487.76
46941.6
98455.9
78169.5
6983.92
52838.2
29545.8
30165.4
14258.4
-13550.1
-18851.8
20422.8
75525.2
49891.5
-17754.3
30362.5
8094.12
9125.72
-7278.71
-33654.8
-39127.8
55.8169
55901.3
24070
-18496.4
31820.5
10642.8
12232.9
-5791.41
-31513.3
-38789.9
371.218
54488.9
12981.7
6254.02
59569.2
38606.9
40358
20506.3
-4150.52
-13738.5
24940.9
74579.9
17572.1
49901.4
108012
86861.8
88301.8
68361.2
46050.2
35871
73486.1
115734
36520.1
100931
166172
145107
145310
127894
108810
101221
134351
170911
71009.4
133601
207158
185778
183785
169871
152996
147107
164806
204558
109934
145166
227634
205219
203158
193195
181723
177587
175308
235763
172748
153665
246559
222995
225353
214771
207488
194219
177570
278531
219816
170407
275118
249267
258561
240050
236606
207894
188706
336310
233211
189236
306940
274353
287108
258372
254537
218221
211797
399650
222603
193040
330691
283831
293280
253948
247228
222101
232218
445934
203570
185886
360204
289395
286737
241272
227184
233467
240505
471946
192083
178484
403128
313094
286625
255059
220741
261700
244705
490989
192769
155447
426784
338332
281734
268935
215142
272233
243374
486054
186879
108260
407862
343154
266080
259667
194317
252194
218150
445289
157202
57917.6
351817
316207
248890
228655
164114
214657
178364
382923
110871
3722.38
283749
248592
221351
179656
123143
167746
122985
306047
49441.7
-27956
242231
179333
205110
144386
102554
136841
97134.1
252143
18286
-76322.1
191664
92333.7
167755
97509.4
76252.5
99063.8
69638.5
192531
-21156.7
-78704.6
194379
62847.1
170303
96493.5
91184.3
109385
84783.8
211702
5309.63
-157763
116972
-30255.1
93868.1
31115.8
41634.7
58957.5
25977.3
148629
-57575.3
-31498.9
230461
85926.2
187575
119039
117668
128821
102306
237832
55157.4
-245390
3226.17
-175971
-80114.7
-108466
-81721.3
-76613.6
-101223
-43464.6
-180419
-4167.22
-1930.4
100.17
3982.67
8879.4
13938
18098.3
25290.2
15536.3
38938.1
-33362.3
-17566.6
-25291.4
-11067.6
-3387.46
5549.43
10758.3
32434.9
13322
26858.4
-12273.6
-5564.23
-18210.9
-3472.54
-2925.99
2455.09
180.718
23086.6
5358.11
11484.2
12223.7
10820.3
3983.04
10841.7
6957.57
10393.1
2769.12
22653.8
7230.38
10808
35646.3
28715.5
29308.3
24577.5
19439.3
20343.4
7645
22605.2
7404.39
7359.32
60805.3
49283.2
62088.6
41880.9
39292.4
36229.1
17712.1
28029.3
11266.2
7775.68
59985.8
53560.2
77252
53775
62891.8
63324.2
45504.8
62063.8
43501.2
40491.6
8828.3
11514.7
33343.1
21002.2
39635.9
47995.5
39154.7
63307.8
49837.1
46446.7
-60381.7
-52702
-42154.4
-41207.3
-23819.7
-11068.7
-9994.16
13526.4
9918.21
4139.32
-72626.3
-66040.2
-66976.4
-61587.2
-53443.6
-44425.3
-41475.1
-26288.3
-24476.7
-33264.9
-21902
-19775.8
-26492.4
-25707.5
-27481.3
-26633
-28543.3
-23117.4
-21915.8
-33590.7
26199.2
26533.3
22265.2
19435.1
15759.7
13091.2
8148.57
9475.68
9047.04
-4635.91
49784.8
51527.6
51630.7
48154.5
49031
48763.7
45865.5
49587.5
50094
34637.4
70128.7
76561
80289.9
77572.6
84148.6
86990
87086.8
94106.7
96545.3
76407.6
98003.8
112702
118334
117638
129489
135203
138922
147914
153761
124278
125600
151956
158001
162217
180101
190588
201041
211183
223952
179972
140028
180486
186578
199150
224726
242581
263650
274061
297517
233908
127380
181813
188131
210305
243996
269650
302648
311009
345828
258645
72626.3
136973
143523
173307
213492
244727
287100
290168
332447
221341
-4136.48
63331.4
69591.1
102628
146011
178970
225472
220329
263298
132021
-66096.2
-1198.78
4491.72
37201.2
81378.6
113667
160177
145954
184123
38301
-127979
-69779.3
-63558.5
-32402.7
12305.2
44346.5
88988.6
66783
95825.3
-57953.1
-199461
-152097
-144676
-116286
-71757.8
-39177.2
2254.73
-26315.8
-10258.1
-164339
-244931
-212851
-206863
-185274
-145859
-115939
-82084.3
-117571
-118569
-265062
-205796
-194204
-193218
-183524
-157085
-138343
-120901
-168553
-191112
-323766
-99167.9
-98744.3
-100468
-102265
-90934.7
-89297
-94960
-160389
-206925
-321663
-21417.2
-22414.5
-21644.8
-26285.2
-20202
-27344.6
-48189.7
-123181
-183487
-277907
-19933.8
-22420.7
-16936.2
-16989.7
-7041.57
-12168.7
-38819.5
-114808
-174598
-249633
-83304.5
-86522.6
-76793.6
-69910.9
-52659.7
-47333.9
-71073.7
-141762
-202719
-249859
-130199
-136389
-125336
-116509
-95933.9
-79862.4
-97048.9
-158976
-216687
-237255
-133842
-144984
-134608
-129414
-110958
-88462
-99816.3
-154341
-207273
-210191
-122474
-139589
-126863
-126038
-111070
-85366.4
-92796.4
-143472
-191939
-186562
-108073
-132481
-116025
-116753
-102693
-73837
-76630.9
-123804
-167700
-159224
-88857.3
-120203
-99576
-100004
-84754.5
-55241
-54433.5
-98290.3
-140334
-130383
-65921
-103499
-80735.1
-81009.8
-65189.8
-36245.3
-33057.6
-73393.3
-118205
-104672
-40521.1
-82931.8
-59177.8
-59328.2
-43359.8
-16010.9
-11849.8
-48427.3
-98273.5
-78161.6
-6986.35
-52840.8
-29544.8
-30159.5
-14759.1
10066.7
13341.4
-22008
-75505.2
-49884.5
17751.5
-30365.6
-8093.28
-9119.56
6797.44
30166.8
33560.7
-1751.15
-55884.4
-24062.8
18492.9
-31824.2
-10642
-12226.4
5288.69
28040.3
33224.5
-2121.92
-54473.3
-12974.3
-6258.42
-59573.7
-38606.3
-40350.8
-21059
737.771
8315.15
-26649.6
-74565.4
-17566.1
-49907.2
-108018
-86861.7
-88292.9
-68975.9
-49354.8
-40875.4
-74956.4
-115722
-36521.2
-100938
-166182
-145108
-145297
-128561
-111970
-105361
-135289
-170923
-71033.4
-133610
-207173
-185779
-183762
-170531
-155961
-149897
-164955
-204776
-110004
-145177
-227654
-205221
-203118
-193703
-184419
-178927
-174720
-236547
-172865
-153676
-246582
-222997
-225294
-214749
-209795
-194668
-177797
-279692
-219942
-170422
-275144
-249273
-258503
-239997
-238466
-208234
-189612
-337297
-233310
-189268
-306978
-274371
-287063
-258313
-255939
-218853
-212882
-400265
-222660
-193122
-330761
-283863
-293256
-253891
-248167
-222997
-233200
-446278
-203593
-186067
-360328
-289437
-286734
-241222
-227552
-234191
-241222
-472127
-192085
-178757
-403295
-313145
-286637
-255022
-220662
-261757
-245119
-491053
-192758
-155709
-426944
-338394
-281757
-268913
-215052
-272242
-243514
-486014
-186859
-108410
-407971
-343235
-266116
-259664
-194245
-252139
-218063
-445151
-157173
-57967.6
-351852
-316289
-248948
-228664
-164092
-214561
-178122
-382706
-110832
-3765.2
-283739
-248648
-221422
-179676
-123144
-167703
-122688
-305787
-49397.1
27914.1
-242205
-179349
-205171
-144413
-102556
-136824
-96906.8
-251893
-18244
76289.5
-191637
-92310.2
-167787
-97537.3
-76255.3
-99055.4
-69556.6
-192327
21188.1
78688.1
-194351
-62791.5
-170298
-96513.8
-91188
-109377
-84732.4
-211554
-5295.12
157758
-116944
30329.4
-93833
-31124.9
-41638.5
-58949.7
-25936.2
-148519
57571.7
31507.9
-230419
-85834.4
-187515
-119035
-117671
-128812
-102271
-237744
-55175.8
245390
-3186.53
176053
80178.8
108475
81720.1
76620.7
101252
43537.1
180400
)
;
        value           nonuniform List<scalar> 
1200
(
41974.6
34892.1
36044.2
36034.2
36068.1
36039.5
35947.8
35921.4
34719.4
41808.2
38864.9
35358.1
37150.9
36482.7
36462.7
36419.3
36347.9
36890.9
35163.9
38510.7
37368.9
35457.9
37269.3
36360.9
36551.2
36532.8
36309.5
37078.5
35380.3
37214.1
36792.1
35552.3
36960.6
36053.5
36393.1
36393
36051
36892.1
35524.3
36776.7
36403.2
35544.3
36615.6
35810
36218.2
36234.5
35851.7
36678
35593.9
36511.6
36055.9
35388.5
36294.5
35579.1
36006.7
36046.2
35677.4
36449.3
35582.9
36286.8
35862.4
35306.5
36055
35392.8
35772.4
35795.6
35434
36109
35392.9
35958.1
35969.9
35506.3
36085.6
35491.9
35776.3
35755.7
35398
35931.4
35330.4
35784.9
36209.2
35847.5
36289.8
35796.6
35997.7
35949
35622.3
36009.6
35515.8
35870.1
36163.8
35895.2
36258.8
35878.9
36051.3
36019.7
35763.7
36059.1
35673.2
35952.6
35787.7
35579.4
35909.6
35625
35806
35815.1
35642
35899.1
35611.5
35846.7
35417.5
35250.5
35526.6
35293
35464.7
35488.6
35366.8
35593.1
35374.7
35583.5
35169.9
35012.8
35241.2
35035.6
35173.4
35179.8
35073
35250.8
35069.5
35260.5
34922.6
34765.6
34947.5
34763.9
34863.6
34846.1
34747.8
34872.7
34718.8
34905.9
34615.5
34447.6
34581.8
34417.1
34476.8
34431.4
34341.2
34410.7
34283.1
34482.6
34285.4
34094.3
34175.7
34020.4
34028.3
33939.2
33845.9
33848.8
33743.5
33969.8
34012.9
33786.2
33808.7
33646.5
33586.5
33434.2
33320.6
33246
33158.7
33426.4
33902.4
33635.4
33599.3
33417.4
33284.7
33062
32920.2
32774.3
32709.1
33034.6
34054
33755.1
33674.4
33471.5
33279
32997.3
32836.7
32646.4
32618.5
33014.3
34356.5
34046.5
33943.7
33730.3
33504.3
33188.6
33029.7
32832.3
32860.8
33328.9
34600.8
34299.3
34194.1
33980.6
33743.2
33413.8
33271.4
33096.4
33191.3
33724.6
34837.7
34557.2
34457.8
34245.1
34003.1
33665.7
33541.4
33406.6
33571.8
34157.3
35099.3
34855.4
34770.8
34565.1
34327.4
33987.5
33881.7
33800.7
34037.9
34661.1
35141.6
34959.2
34914.5
34744.9
34545.4
34235.5
34169.8
34167.8
34487.3
35121.5
34631.6
34543.1
34557
34455.5
34343.9
34124.4
34153.6
34277.3
34699.9
35318.2
33712.9
33679.5
33722.3
33680.5
33667.9
33573.8
33740.2
34024.4
34562.4
35139.3
32965.2
32925
32959.8
32927.6
32955.4
32935.7
33192.4
33586.6
34182
34693.2
32618.1
32590
32607.6
32549.8
32554
32534.1
32805.5
33236.7
33774.7
34214.2
32607.6
32609.8
32608.9
32522.6
32473.6
32403.4
32632
33064
33562.3
33863.7
32491.7
32547.7
32531.8
32446.6
32359
32232.3
32393.1
32793.2
33237.6
33380.5
32088.7
32202.7
32169.1
32113.7
32019.2
31858.2
31960.5
32322.8
32719
32730.8
31501
31669.4
31599.2
31586.9
31500.5
31324.9
31391.3
31729.8
32099.9
32022.7
30788.2
31010.3
30895.7
30927.5
30842
30654.3
30689.1
31004.4
31360.4
31220.5
29950.9
30219.1
30056.4
30119.5
30027.1
29847.1
29862.3
30158.1
30518.6
30330.4
29017
29323.5
29126.9
29210.2
29115.8
28950.7
28951.1
29229.3
29609.7
29371.9
28016.8
28350.3
28130.3
28223.4
28120.3
27967.7
27954.9
28199.7
28648.9
28335.4
26931.3
27280.8
27049.7
27148.6
27032.7
26893.3
26876.1
27106.6
27603.3
27236.7
25849.5
26207.5
25972.7
26077.2
25941.9
25807
25781.3
25994.9
26516
26107.8
24845.5
25214
24981.4
25100.4
24951.7
24818.1
24779.6
24971.3
25512.2
25049.9
23930.2
24318.7
24091.3
24237.2
24098.7
23980.5
23936.5
24113.6
24694.3
24149.2
23061.7
23485.4
23272.4
23458.5
23378.2
23309.5
23283.1
23473.7
24138.7
23504.9
22156.7
22630
22446.6
22677.3
22719.2
22750
22788.2
23063.9
23939.9
23220.8
21034.4
21561.9
21419.9
21690.4
21907.5
22088.9
22249.6
22707.8
23935.5
23319.7
19585.2
20163.6
20041.8
20329.8
20669.6
21013
21363.3
21984.5
23514.3
23131.3
17800
18429
18263.1
18534.5
18779.6
19143.4
19558.4
19768.9
21468.7
20771.3
15785.6
16481.2
16200.8
16457.6
16417.6
16665.6
16900.6
16449.1
18342.8
16996.3
13714.9
14521.8
14078.7
14354.2
14039.3
14103
14162.6
13163.2
15401.4
13423.1
11616.8
12625.8
11949.5
12242.2
11715
11568.7
11532.3
10261.7
12754.5
10400.7
9507.25
10842.7
9826.54
10070.5
9383.18
8959.09
9048.65
7632.61
10247.5
7802.65
7269.1
8883.4
7701.61
7770.21
7171.41
6348.21
6756.23
5187.38
7928.94
5496.08
4809.58
6495.23
5631.32
5458.51
5159.94
4062.4
4605.78
3130.5
5806.38
3448.87
2265.51
4001.94
3713.86
3318.75
3385.31
2106.56
2617.12
1180
3654.23
1419.49
150.08
1837.34
2220.93
1821.92
1917.29
609.108
863.525
-626.252
1539.46
-518.065
-1003.88
508.779
996.731
827.345
754.87
-599.611
-553.355
-2305.7
-425.667
-2323.92
-1389.19
141.108
232.369
396.797
115.136
-1083.87
-1125.11
-2981.82
-1415.76
-3134.73
-1847.6
-191.083
-744.008
-156.233
-630.083
-1353.64
-1388.94
-2805.99
-1854.67
-3364.35
-1468.82
370.724
-913.789
47.8113
-666.758
-863.297
-724.334
-1632.03
-559.815
-2097.94
-2991.72
-1030.08
-2702.23
-1246.52
-1878.23
-1463.84
-1035.85
-1641.65
-331.621
-2027.73
-382.24
1402.9
-569.417
641.676
-271.9
96.9555
547.63
155.987
1788.34
159.249
-7808.01
-5200.81
-6755.28
-4256.14
-3517.67
-2029.99
-1373.81
-1478.14
-923.711
-2136.51
41933
34872.8
36045.2
36074.1
36156.9
36178.9
36128.9
36174.3
34874.8
42197.6
38531.1
35182.4
36897.9
36372
36428.8
36474.8
36455.6
37215.3
35297.2
38779.4
37246
35402.1
37087.1
36326.2
36521.9
36557.4
36311.3
37309.5
35433.9
37329.1
36914.2
35660.4
37000.3
36161.9
36462.6
36496.9
36078.7
37118.8
35596.7
36884.9
36759.6
35831.4
36908.5
36055.7
36412.5
36437.9
35928.1
36904.1
35668
36585.3
36664
35881.4
36915.4
35997.9
36399.6
36408.5
35854.4
36729.6
35695.5
36364.5
36462.4
35842.2
36827.6
35930.7
36401.4
36428.9
35889.1
36729.8
35828
36363.1
36058.2
35621.6
36419
35702.1
36172.8
36235.8
35789.7
36564.8
35828.9
36249.6
35605.3
35320.4
35868.1
35384.5
35759.5
35838.5
35522.5
36145.3
35615.2
35911.7
35437.3
35234.6
35588.8
35262.9
35516.9
35575.5
35349
35796.5
35428.6
35620.2
35568.6
35381.5
35644.5
35367.8
35531.1
35548.8
35356.6
35668.2
35392.4
35510.9
35679.4
35515.7
35749.1
35487.3
35622.2
35619.5
35448.3
35688.1
35465.2
35537.2
35667.7
35528
35757.4
35517.1
35663.6
35667.4
35531.6
35746.9
35570.5
35606.9
35623.9
35531.1
35750.1
35539.5
35704.9
35716
35618.6
35814
35684.4
35670
35595.4
35574.4
35764.8
35593.3
35771.5
35783.4
35730.5
35890.1
35820.8
35725.5
35541.2
35613.5
35755.3
35642.5
35829.2
35845.3
35856.5
35961.1
35983.3
35769.7
35413
35590.7
35674
35637.9
35833.8
35860.4
35957.6
35987.6
36134.5
35765.8
35176
35453.1
35480.1
35520.5
35724.9
35759.4
35947.9
35886
36168.6
35621.8
34780
35124.3
35109
35204.7
35414.6
35446.1
35709.6
35550.5
35944.8
35228.7
34314.7
34679
34638.9
34756.7
34965.3
34980.3
35287
35038.5
35495.9
34650.1
33939.3
34286.2
34238.1
34352.7
34558.1
34553
34876.5
34559.4
35034.7
34108.3
33557.3
33858.1
33821.1
33921.1
34127.5
34112.2
34435.3
34078.3
34532
33578
33104.1
33332.9
33322.7
33402.2
33611.3
33599.4
33909
33541.8
33936.9
33017.3
32691.7
32829
32844.3
32891.8
33088.2
33080.1
33354.3
32996.5
33302.6
32469.9
32573.3
32599.2
32623
32619.5
32774.1
32745.1
32950.4
32596.3
32788.9
32078.8
32721.2
32690.6
32716
32657.1
32759.5
32685.3
32796.8
32424.8
32492.4
31920.7
32751.2
32699.9
32742.2
32664.2
32754.5
32667.2
32717.3
32359.2
32345.6
31912.5
32419.1
32365.2
32437.4
32379.6
32485.1
32418.1
32425
32093
32026.3
31717.5
31774.7
31743.9
31840.2
31823.4
31948.8
31936.4
31929.7
31650.6
31531.9
31364.7
31189.7
31183.4
31277.7
31281.4
31401.5
31440.6
31431.8
31207.5
31066.7
31007.6
30750.2
30752.7
30822.6
30819.4
30911.5
30980.9
30972.2
30783.2
30642
30628.6
30276.2
30273.3
30330.4
30326.4
30391.5
30478.9
30474
30298.9
30176.3
30156.8
29707.4
29685.3
29735.2
29759.8
29816.7
29923.9
29934.2
29770
29679.6
29628.1
29062.3
29017
29060.5
29119.3
29181
29302.9
29330
29178.9
29112
29026.5
28357.8
28288.4
28319.4
28399.9
28465.2
28596.7
28633.4
28499.3
28425.5
28325.3
27611.6
27520.8
27538.4
27629.8
27687.8
27816
27849.9
27719.4
27665.2
27553.7
26861.6
26752.3
26754.2
26846.8
26886.2
27002.5
27023.2
26890.6
26847.7
26737.9
26027.2
25903.8
25891.8
25985.8
26010.9
26117.1
26130.8
25981.6
25956.6
25867.6
25030.7
24895.8
24875
24978.1
25005.7
25106.9
25125.8
24954.3
24966.8
24921
23867.8
23723.1
23705.1
23833.5
23889.4
23996.1
24033.1
23851.1
23948
23974.9
22562.9
22405.3
22403.6
22575.3
22689.8
22823.8
22886.7
22727.6
22980.9
23140.4
21147.5
20968.2
20995.2
21223.7
21434.9
21637.6
21744.9
21713.5
22230.3
22508.4
19698.5
19490.2
19561.8
19851.9
20203.3
20536
20757.8
21059.4
21889.4
22215.2
18133.7
17887.1
17989.5
18297.6
18733.2
19174.8
19578
20237.5
21154.2
21400.7
16263.6
15963.3
16033.1
16280.6
16631.2
17050.6
17613.9
17999.3
18680.6
18574.2
14081.7
13729.7
13707.9
13871.7
14016.5
14285
14820.3
14565
14977.1
14667
11822.5
11451.3
11334.6
11482.7
11455
11546.4
11977
11046.5
11402.8
11199.3
9686.13
9316.21
9110.03
9309.19
9174.82
9088.57
9306.04
7939.73
8293.93
8366.24
7648.23
7236.94
6930.7
7203.16
6969.78
6683.37
6710.47
5227
5527.68
5882.38
5484.51
4849.11
4568.08
4903.83
4620.18
4140
4140.43
2739.92
3019.51
3568.43
3255.79
2226.12
2245.38
2640.64
2470.09
1910.5
1883.93
696.875
946.767
1579.98
1182.15
-76.1417
280.924
656.147
788.359
163.011
95.4839
-1000.79
-797.233
-152.518
-429.159
-1682.55
-940.15
-669.16
-369.428
-1032.3
-1282.78
-2408.38
-2287.94
-1626.61
-1042.96
-2329.53
-1486.37
-1387.57
-1041.38
-1831.24
-2229.27
-3535.65
-3483.45
-2818.2
-1110.38
-2281.54
-1557.36
-1654.55
-1328.01
-2109.66
-2492.42
-3953.13
-3934.38
-3317.63
-1083.78
-2107.42
-1664.08
-1833.07
-1604.3
-2116.27
-2379.12
-3501.28
-3779.44
-3152.94
-680.16
-1571.72
-1539.34
-1653.49
-1630.75
-1774.99
-1818.01
-2479.23
-2675.94
-2151.45
-1413.67
-2198.98
-2398.29
-2183.64
-2189.09
-1880.16
-1625.59
-1901.13
-1817.01
-1452.82
-64.8271
-898.504
-1426.1
-1231.32
-1461.58
-1079.32
-740.528
-866.938
-588.81
-393.427
-5357.28
-5233.86
-4997.43
-3454.97
-2434.1
-1212.81
-608.085
-465.476
-487.943
-333.051
)
;
    }
    inlet
    {
        type            fixedFluxPressure;
        gradient        nonuniform List<scalar> 
20
(
-3.23909e-05
-0.0005147
0.000581859
2.1133e-05
0.000196679
0.000257658
6.04334e-05
0.00178814
-0.00264706
-0.000880318
-2.50807e-05
-0.000505293
0.000587733
2.58309e-05
0.000180361
0.000222062
-1.4969e-05
0.00169645
-0.00271188
-0.00105083
)
;
        value           nonuniform List<scalar> 
20
(
41964.4
34887.3
36044.5
36044.3
36090.4
36074.4
35993.2
35984.8
34758.3
41905.7
41943.1
34877.5
36044.8
36064.1
36134.6