/*--------------------------------*- C++ -*----------------------------------*\
  =========                 |
  \\      /  F ield         | OpenFOAM: The Open Source CFD Toolbox
   \\    /   O peration     | Website:  https://openfoam.org
    \\  /    A nd           | Version:  8
     \\/     M anipulation  |
\*---------------------------------------------------------------------------*/
FoamFile
{
    version     2.0;
    format      ascii;
    class       surfaceScalarField;
    location    "1000";
    object      phi;
}
// * * * * * * * * * * * * * * * * * * * * * * * * * * * * * * * * * * * * * //

dimensions      [1 0 -1 0 0 0 0];

internalField   nonuniform List<scalar> 
2860
(
1.60313
-0.00775851
0.0116869
1.60414
0.00473783
0.113748
1.60466
0.00496592
0.151934
1.60365
0.00616364
0.114175
1.60184
0.00655159
0.00393635
1.59951
0.00571446
-0.183922
1.59673
0.00492126
-0.369619
1.59406
0.0044456
-0.39711
1.59223
0.00428381
-0.209809
1.59107
0.00418194
0.0160912
1.58974
0.00373598
0.0849482
1.58816
0.00341425
0.00355502
1.58661
0.00297359
-0.151876
1.58507
0.00252101
-0.370978
1.58353
0.00206083
-0.677294
1.58202
0.00164059
-1.07002
1.58064
0.0012984
-1.50795
1.57946
0.00101406
-1.90604
1.57857
0.00076707
-2.13166
1.5779
0.000574639
-2.11506
1.57718
0.000445316
-1.90299
1.57638
0.000421864
-1.49687
1.57597
0.00045669
-0.86744
1.57725
0.000318455
-0.0974043
1.57913
-0.000179299
0.550563
1.58053
-0.00040216
0.863491
1.58099
1.8897e-05
0.931341
1.58081
0.000292455
0.993264
1.58116
0.000138736
1.25292
1.58251
-0.000638414
1.65928
1.58487
-0.00151808
2.0764
1.58816
-0.00235931
2.45727
1.59232
-0.00314342
2.79247
1.59718
-0.0037874
3.06717
1.60259
-0.00432146
3.27009
1.60845
-0.00474923
3.394
1.61449
-0.00511136
3.41382
1.62053
-0.00546172
3.35658
1.6266
-0.00592274
3.29589
1.633
-0.00666995
3.30945
1.64033
-0.00797099
3.45426
1.64955
-0.010133
3.75178
1.66157
-0.0133394
4.14502
1.67673
-0.017137
4.56829
1.69434
-0.0204047
5.01003
1.71319
-0.0223872
5.4932
1.73288
-0.0234376
6.02679
1.75439
-0.024617
6.57879
1.77928
-0.0267868
7.13522
1.80698
-0.0291187
7.70078
1.83312
-0.028998
8.20886
1.8528
-0.023083
8.5732
1.86375
-0.00413695
8.83441
1.86416
0.0255171
9.16913
1.84777
0.0577593
9.62902
1.80983
0.0842459
10.0451
1.74962
0.0995657
10.3821
1.677
0.101067
10.3364
1.59432
0.0955588
10.4454
0.0690326
9.82769
1.59289
-0.0129942
0.00522509
1.59265
-0.000120817
0.0597577
1.59162
0.000151395
0.0777898
1.59152
0.000186626
0.0447365
1.59201
-0.00010136
-0.0439711
1.59204
-0.000295839
-0.196399
1.59149
0.000208284
-0.362365
1.59092
0.000936902
-0.398004
1.59126
0.00134997
-0.234151
1.5925
0.00125795
-0.0285984
1.59352
0.000777556
0.0336364
1.59437
0.000384441
-0.0484188
1.5951
0.000280968
-0.208336
1.59565
0.000409268
-0.445849
1.59595
0.000609288
-0.795374
1.59609
0.000671881
-1.26661
1.59632
0.000459397
-1.82612
1.59688
-4.6854e-05
-2.38889
1.59795
-0.000755396
-2.81044
1.59941
-0.00147553
-2.99996
1.60101
-0.00207659
-2.98624
1.60274
-0.00247581
-2.75871
1.60484
-0.00271561
-2.27671
1.60753
-0.00302895
-1.60854
1.6105
-0.00359824
-1.00035
1.61271
-0.00409797
-0.687645
1.61404
-0.00412609
-0.610925
1.61499
-0.00393285
-0.535635
1.61652
-0.00391386
-0.266032
1.61902
-0.00406893
0.15477
1.62233
-0.00430814
0.60288
1.62653
-0.00464373
1.03578
1.63157
-0.00517066
1.44863
1.63729
-0.0056899
1.82567
1.64359
-0.00620351
2.15344
1.65037
-0.0066321
2.4203
1.65739
-0.00697449
2.59721
1.66441
-0.0072911
2.70651
1.67142
-0.00781802
2.81946
1.67867
-0.00893318
3.01387
1.68677
-0.0112374
3.3499
1.69672
-0.0153981
3.85393
1.70953
-0.0217743
4.47128
1.72561
-0.0292829
5.13763
1.74426
-0.0353187
5.84841
1.76438
-0.0378661
6.64188
1.78694
-0.0363839
7.57347
1.81719
-0.0299243
8.76112
1.8603
-0.0180223
10.4504
1.91035
-0.00589307
12.7301
1.95103
0.000743837
15.1747
1.96972
0.00544879
17.186
1.96484
0.0188996
18.45
1.94256
0.0466004
18.9876
1.90941
0.0824934
19.1132
1.8709
0.113676
18.9932
1.82981
0.131656
18.8396
1.7929
0.129724
18.4985
1.7575
0.117987
18.3989
0.0820222
17.7742
1.58363
-0.00350347
-0.000774016
1.58438
0.00268279
0.0778659
1.58523
0.00362244
0.134944
1.58659
0.0035488
0.122481
1.58785
0.00366418
0.0306291
1.58879
0.00311152
-0.163535
1.58923
0.00261087
-0.404835
1.58969
0.00262111
-0.509363
1.5908
0.00288616
-0.37839
1.59241
0.00295091
-0.169523
1.59378
0.00244545
-0.0861268
1.59481
0.00173758
-0.154613
1.59573
0.00120373
-0.314808
1.59651
0.000803971
-0.563906
1.59712
0.000412341
-0.930723
1.59767
-7.27698e-05
-1.42011
1.59832
-0.000732084
-1.99755
1.59923
-0.00162427
-2.57919
1.60052
-0.00266404
-3.02134
1.60208
-0.00368172
-3.23219
1.60368
-0.00454369
-3.23964
1.60537
-0.00516314
-3.03628
1.60737
-0.00559626
-2.58302
1.60987
-0.00606229
-1.93919
1.6126
-0.00674289
-1.3392
1.61463
-0.00745146
-1.02579
1.61594
-0.00773992
-0.955895
1.61712
-0.00761498
-0.902123
1.61895
-0.00743106
-0.666866
1.62164
-0.00731453
-0.28474
1.62515
-0.00731225
0.124756
1.62946
-0.00754136
0.510896
1.63459
-0.00801128
0.864523
1.64032
-0.0083857
1.16891
1.64652
-0.00878264
1.41703
1.65311
-0.00910143
1.60093
1.65983
-0.00929583
1.6964
1.66645
-0.00939967
1.72789
1.67296
-0.00969585
1.76713
1.67952
-0.0107045
1.88966
1.68667
-0.0132956
2.15504
1.69535
-0.018582
2.59134
1.70669
-0.0275148
3.14309
1.72136
-0.038763
3.74225
1.73882
-0.0481422
4.38081
1.75783
-0.0523178
5.0867
1.77793
-0.050913
5.86739
1.79994
-0.0434284
6.70209
1.82566
-0.0290524
7.62455
1.85676
-0.0120707
8.75219
1.89371
0.000719425
10.1471
1.93425
0.00954743
11.732
1.9721
0.0229442
13.2891
1.99909
0.0481646
14.5264
2.00966
0.0822548
15.3196
2.00354
0.113092
15.6159
1.98214
0.13216
15.5984
1.95115
0.130479
15.1839
1.90678
0.122943
14.9018
0.0785542
13.9232
1.58937
-0.00162492
-0.0116307
1.5907
0.00095703
0.0226407
1.59187
0.00152841
0.0338484
1.59286
0.0011529
0.000499959
1.59389
0.000914832
-0.0755859
1.59456
0.000404855
-0.205447
1.59439
0.00044951
-0.372355
1.59397
0.00100912
-0.438024
1.59427
0.00151532
-0.310771
1.59536
0.00154319
-0.119938
1.59647
0.000916598
-0.0401101
1.59734
0.000168907
-0.10052
1.59815
-0.000224361
-0.250425
1.59879
-0.000350736
-0.49159
1.59919
-0.000424499
-0.857105
1.59944
-0.000644337
-1.3614
1.59977
-0.001211
-1.98134
1.60043
-0.00219138
-2.63763
1.60161
-0.00344887
-3.18065
1.60316
-0.0047002
-3.50461
1.60485
-0.00575814
-3.62563
1.60669
-0.0065405
-3.5318
1.60881
-0.0071292
-3.17936
1.61127
-0.00774371
-2.61399
1.61379
-0.00858714
-2.05393
1.6157
-0.00951235
-1.74416
1.61715
-0.0100996
-1.66918
1.61869
-0.010151
-1.62486
1.6209
-0.00998479
-1.42048
1.62382
-0.0097607
-1.07491
1.62729
-0.00951549
-0.690926
1.6313
-0.00929276
-0.318194
1.63614
-0.00912296
0.0254482
1.64151
-0.00951896
0.317598
1.64742
-0.0102905
0.550822
1.65374
-0.0110388
0.717215
1.66014
-0.0115361
0.794907
1.66637
-0.0117121
0.808792
1.67237
-0.0119084
0.830994
1.67832
-0.0129284
0.93467
1.68474
-0.0160856
1.17492
1.69259
-0.0229962
1.57171
1.70302
-0.0350399
2.06069
1.71671
-0.0503383
2.57871
1.73301
-0.0631028
3.13606
1.75062
-0.0684936
3.77516
1.76911
-0.0667667
4.49686
1.78918
-0.0587256
5.25444
1.81181
-0.0445399
6.02924
1.83697
-0.0272771
6.85688
1.86421
-0.0108636
7.76077
1.89458
0.00418424
8.77223
1.93043
0.0240078
9.93556
1.97028
0.0509888
11.1837
2.00699
0.0818542
12.3657
2.03304
0.107898
13.2339
2.04337
0.124001
13.7925
2.03887
0.121754
13.8788
2.01882
0.116637
13.9589
0.0678539
13.2861
1.58934
0.000489287
-0.0255347
1.58938
0.00115347
-0.0152454
1.59005
0.00136888
-0.0062282
1.59069
0.00124045
-0.028123
1.59157
0.000955497
-0.0890887
1.59235
0.000424345
-0.211761
1.59255
0.00033413
-0.407498
1.59264
0.000757377
-0.531153
1.59335
0.00128285
-0.457639
1.59461
0.00141905
-0.291694
1.59584
0.000893646
-0.20614
1.59678
0.000152409
-0.255024
1.5976
-0.000304407
-0.407547
1.59824
-0.000542091
-0.669097
1.5987
-0.000764732
-1.07142
1.59908
-0.00111209
-1.63135
1.59957
-0.001738
-2.33138
1.6004
-0.0027352
-3.09441
1.60171
-0.00396497
-3.76666
1.60335
-0.00515437
-4.23226
1.60513
-0.00613129
-4.49976
1.60707
-0.0068439
-4.55616
1.60927
-0.0074069
-4.35448
1.61166
-0.00805416
-3.92332
1.61394
-0.00895605
-3.45556
1.61581
-0.00993991
-3.19076
1.6176
-0.0106933
-3.14543
1.61979
-0.0109035
-3.1439
1.62264
-0.0108786
-3.00503
1.62606
-0.0107927
-2.73478
1.62992
-0.0107145
-2.41919
1.63424
-0.010718
-2.10381
1.6391
-0.0108735
-1.81476
1.64438
-0.0114443
-1.58166
1.65005
-0.0123579
-1.40984
1.65607
-0.0132619
-1.30597
1.66224
-0.0139748
-1.28993
1.6685
-0.0143962
-1.34026
1.67485
-0.0147206
-1.38816
1.68127
-0.0156222
-1.36097
1.68781
-0.0183093
-1.1983
1.69493
-0.0245734
-0.872397
1.70387
-0.036588
-0.44509
1.71703
-0.0542511
0.0211989
1.73293
-0.0716481
0.517824
1.74989
-0.0818324
1.06799
1.76725
-0.0831917
1.66553
1.78489
-0.0761689
2.26018
1.80268
-0.0615233
2.8416
1.82033
-0.0428584
3.48965
1.83762
-0.0242623
4.20857
1.85544
-0.00550144
4.96319
1.87616
0.0166859
5.73251
1.90278
0.0451499
6.51486
1.9359
0.0750891
7.36008
1.97194
0.0981051
8.16466
2.00484
0.110531
8.92791
2.02996
0.106963
9.39187
2.04448
0.102036
9.91334
0.0642937
9.70338
1.58935
0.00258453
-0.0398985
1.58927
0.0013034
-0.0573629
1.58987
0.00114038
-0.0651286
1.59046
0.00124989
-0.0975979
1.59127
0.000991507
-0.161217
1.59211
0.000482178
-0.274269
1.59242
0.000249402
-0.471211
1.59261
0.000489041
-0.620795
1.59334
0.000909783
-0.586835
1.59455
0.0010283
-0.448789
1.59576
0.00056631
-0.365791
1.59671
-0.000127817
-0.4063
1.59753
-0.000595259
-0.557829
1.59821
-0.000911095
-0.828138
1.59876
-0.00122607
-1.24841
1.59927
-0.00160889
-1.84165
1.5999
-0.0021616
-2.59906
1.60089
-0.00294386
-3.44602
1.60235
-0.00385243
-4.22297
1.60412
-0.004633
-4.80269
1.606
-0.00513222
-5.18671
1.608
-0.00534581
-5.36357
1.61019
-0.00544221
-5.28834
1.61248
-0.00567428
-4.97833
1.61462
-0.00621513
-4.59869
1.6165
-0.00685047
-4.37129
1.61849
-0.00733165
-4.33985
1.62096
-0.00723992
-4.36254
1.62407
-0.00697258
-4.28296
1.62773
-0.0067259
-4.10676
1.63189
-0.00657404
-3.90618
1.6366
-0.00663279
-3.71647
1.64191
-0.00696267
-3.56333
1.64781
-0.00773022
-3.46871
1.65428
-0.00889564
-3.43399
1.66127
-0.0101083
-3.46251
1.66868
-0.0112143
-3.57157
1.67643
-0.0120921
-3.74285
1.68442
-0.0128531
-3.90887
1.69248
-0.0141054
-3.99372
1.7006
-0.0171314
-3.9301
1.70952
-0.0244035
-3.68286
1.72105
-0.0393335
-3.30933
1.73676
-0.0618192
-2.85311
1.75514
-0.0827829
-2.31731
1.77299
-0.0930538
-1.68984
1.78923
-0.0931077
-1.00297
1.80502
-0.0857003
-0.327275
1.82099
-0.0730658
0.300129
1.83623
-0.0575158
0.91019
1.8504
-0.0415137
1.4977
1.86281
-0.0231934
2.01465
1.87402
0.00250919
2.4709
1.88465
0.0361231
2.89099
1.89717
0.0700311
3.35502
1.91297
0.0947292
3.84273
1.93277
0.105055
4.42477
1.95344
0.10003
4.86912
1.97487
0.0907538
5.47181
0.0661529
5.45237
1.58953
0.00424894
-0.0518107
1.59059
-0.000622224
-0.0856913
1.59177
-0.00116974
-0.0870276
1.59269
-0.00107709
-0.0965299
1.59361
-0.00138322
-0.121531
1.59451
-0.00178981
-0.177988
1.59461
-0.00172086
-0.320258
1.5943
-0.00114797
-0.443094
1.59443
-0.000486632
-0.413729
1.59519
-0.000185144
-0.286545
1.59619
-0.000459335
-0.199404
1.59709
-0.000995276
-0.226263
1.59787
-0.00131662
-0.370504
1.59843
-0.00141373
-0.643
1.59872
-0.00144884
-1.07704
1.59884
-0.00154775
-1.70557
1.59904
-0.0018404
-2.53234
1.59966
-0.00236624
-3.48754
1.60089
-0.00294853
-4.40412
1.60256
-0.003312
-5.13831
1.60445
-0.00331215
-5.67862
1.60655
-0.0029637
-6.00796
1.6089
-0.00244984
-6.07765
1.61134
-0.00203445
-5.89168
1.61364
-0.0018941
-5.58776
1.61581
-0.00185826
-5.36729
1.61823
-0.00183229
-5.29848
1.62118
-0.00128859
-5.2677
1.62474
-0.000703511
-5.1446
1.62881
-0.000187708
-4.94648
1.63337
0.000236651
-4.74447
1.63853
0.000417679
-4.56882
1.64436
0.000271467
-4.44804
1.65093
-0.000295063
-4.40138
1.65826
-0.00121653
-4.42638
1.66622
-0.00228349
-4.52046
1.67466
-0.00364218
-4.6921
1.68346
-0.00496323
-4.92467
1.69235
-0.00630862
-5.15272
1.70101
-0.00851051
-5.29324
1.70918
-0.0133663
-5.25573
1.71738
-0.0243389
-4.96858
1.72753
-0.0456061
-4.46605
1.74198
-0.0752151
-3.79453
1.75992
-0.0999367
-3.02493
1.77777
-0.108857
-2.20017
1.79429
-0.105975
-1.34541
1.80979
-0.0963601
-0.486242
1.82548
-0.0856224
0.388059
1.84178
-0.0768014
1.30397
1.85805
-0.0691694
2.20133
1.87335
-0.0580345
2.97191
1.88621
-0.0381206
3.52694
1.89594
-0.00599591
3.80647
1.9043
0.03049
3.98319
1.9124
0.0585539
4.08266
1.92259
0.070221
4.24305
1.93349
0.0679366
4.30685
1.94813
0.056895
4.56884
0.0455075
4.31655
1.58386
0.0133955
-0.0719018
1.58425
0.00133823
-0.173308
1.58482
0.00130518
-0.245827
1.5859
0.000974345
-0.316964
1.58722
0.00042528
-0.38822
1.58857
-3.52339e-05
-0.476599
1.58944
-0.000439653
-0.670651
1.59016
-0.000590927
-0.868675
1.59123
-0.000498935
-0.91158
1.59256
-0.000440574
-0.830132
1.59382
-0.000652312
-0.758333
1.5948
-0.00101301
-0.787994
1.59558
-0.00126685
-0.942666
1.59627
-0.00143121
-1.23622
1.59694
-0.00156331
-1.69805
1.59766
-0.00167595
-2.35881
1.59857
-0.00180163
-3.21993
1.59986
-0.00195793
-4.2047
1.6016
-0.00205953
-5.13554
1.60361
-0.00193566
-5.85828
1.60567
-0.00148845
-6.3572
1.60779
-0.000757009
-6.61706
1.61
9.34062e-05
-6.59322
1.61221
0.00079526
-6.28755
1.61426
0.00115188
-5.82098
1.61621
0.00120545
-5.37591
1.6184
0.00101693
-5.04452
1.62099
0.00135937
-4.738
1.62412
0.00149759
-4.34572
1.62773
0.00152041
-3.89695
1.63173
0.00148069
-3.45955
1.6362
0.00119825
-3.05327
1.64115
0.000607525
-2.70522
1.64657
-0.000363592
-2.43351
1.65254
-0.00159041
-2.23659
1.65888
-0.00257819
-2.11492
1.66552
-0.00342989
-2.07385
1.67231
-0.00432558
-2.09319
1.67897
-0.0054896
-2.10808
1.68509
-0.00775421
-2.04086
1.69002
-0.012934
-1.81065
1.69389
-0.0250532
-1.36483
1.69913
-0.0493397
-0.766324
1.71485
-0.0828478
-0.0445812
1.73693
-0.105762
0.801182
1.76232
-0.113862
1.79383
1.78818
-0.112088
2.94201
1.81343
-0.105521
4.19362
1.83782
-0.0983468
5.46952
1.86118
-0.09414
6.72691
1.88385
-0.092469
7.91323
1.90577
-0.0890722
8.89911
1.92592
-0.0787264
9.555
1.94255
-0.0578627
9.75031
1.95596
-0.0293767
9.51324
1.96856
-0.000629436
9.02986
1.98225
0.0134119
8.63453
1.99664
0.0148827
8.18375
2.01261
0.00653501
8.00838
0.00882943
7.41082
1.59268
0.00850881
-0.0449131
1.59204
-0.00366341
-0.0872083
1.59103
-0.00369924
-0.105177
1.5907
-0.00473579
-0.128919
1.59076
-0.00512675
-0.153437
1.59128
-0.00505211
-0.190124
1.59127
-0.00452989
-0.326281
1.59094
-0.00377866
-0.482158
1.59099
-0.0031266
-0.514098
1.59161
-0.00273434
-0.438918
1.59249
-0.00259694
-0.371591
1.59333
-0.00253968
-0.400569
1.59398
-0.00236296
-0.557312
1.59442
-0.0020744
-0.858823
1.59461
-0.0017615
-1.339
1.59465
-0.00149058
-2.03922
1.59478
-0.00133613
-2.97215
1.59537
-0.00130776
-4.06231
1.59664
-0.00131225
-5.11833
1.5984
-0.00122369
-5.96257
1.60041
-0.00098974
-6.55997
1.60264
-0.000673087
-6.87971
1.60507
-0.000457177
-6.86307
1.60755
-0.000422269
-6.50031
1.60986
-0.000666335
-5.90144
1.61207
-0.00120603
-5.24416
1.61455
-0.00199214
-4.65505
1.61718
-0.00201243
-4.09049
1.62021
-0.00258788
-3.43524
1.62352
-0.00313254
-2.73577
1.62705
-0.00343282
-2.06767
1.63097
-0.00354887
-1.4516
1.63538
-0.00346408
-0.915262
1.64037
-0.00315458
-0.467903
1.64592
-0.00245524
-0.0937753
1.65202
-0.00204983
0.220441
1.6584
-0.00169263
0.468842
1.66459
-0.001123
0.660761
1.67003
-0.000296849
0.850967
1.67416
0.000488081
1.10758
1.67638
-0.000433642
1.50312
1.67872
-0.00679201
2.1123
1.68924
-0.0269135
2.95785
1.71619
-0.0568186
4.17584
1.75515
-0.0743901
5.86247
1.7956
-0.0749876
7.98871
1.83167
-0.0680335
10.457
1.8607
-0.0627862
13.0532
1.88006
-0.0635126
15.4816
1.88774
-0.0700023
17.5202
1.88395
-0.0785594
19.0313
1.87131
-0.0846313
19.9557
1.85408
-0.0843458
20.3207
1.83688
-0.0752169
20.1826
1.82284
-0.058474
19.7138
1.81212
-0.0379434
19.0117
1.80139
-0.0219274
18.3906
1.78687
-0.0121325
17.7396
1.76788
-0.0119683
17.4883
-0.0138106
16.5393
1.60373
-0.111087
1.6041
-0.19366
1.60456
-0.229266
1.60349
-0.262575
1.60167
-0.285566
1.59985
-0.310206
1.59757
-0.435476
1.5951
-0.579254
1.59297
-0.592007
1.5913
-0.488506
1.58984
-0.383967
1.58836
-0.369686
1.58684
-0.478033
1.58534
-0.717117
1.58392
-1.10638
1.58261
-1.67102
1.58153
-2.40692
1.58082
-3.22429
1.58057
-3.92786
1.58055
-4.35024
1.58046
-4.47432
1.58021
-4.29162
1.57988
-3.77174
1.57954
-2.93414
1.57933
-1.91343
1.57966
-0.902981
1.58055
-0.0334014
1.58146
0.751611
1.58319
1.54232
1.58573
2.30131
1.58898
2.98395
1.59302
3.60133
1.59784
4.14191
1.60344
4.59986
1.60974
4.98173
1.61654
5.28422
1.62347
5.49939
1.62987
5.62775
1.63487
5.70504
1.63787
5.77508
1.6405
5.91252
1.65215
6.30822
1.68797
7.34367
1.74455
9.43029
1.79256
12.131
1.80996
14.5703
1.79627
16.3291
1.75915
17.46
1.70421
18.1878
1.63387
18.7156
1.54984
19.1066
1.45564
19.3015
1.35798
19.2363
1.26681
18.8663
1.1923
18.3625
1.14132
17.7911
1.11233
17.5367
1.10021
17.2587
1.09445
17.72
17.1634
1.60383
-0.00783322
1.60379
0.00416189
1.60397
0.00419532
1.60264
0.00557294
1.60058
0.00638945
1.59885
0.00607113
1.59742
0.0052789
1.59589
0.00440774
1.59366
0.00384238
1.59095
0.00357335
1.58869
0.00333392
1.5868
0.00330996
1.5851
0.00303255
1.58358
0.00256551
1.58234
0.00196095
1.58138
0.00135715
1.58071
0.000817609
1.58029
0.000354922
1.57986
-1.29599e-05
1.57923
-0.000234507
1.57861
-0.000308086
1.57816
-0.000278655
1.57777
-0.000247162
1.57713
-0.000255082
1.57701
-8.89899e-05
1.57794
5.48888e-05
1.57938
0.000543351
1.58067
0.000856539
1.58144
0.000519131
1.58247
-0.000396375
1.58452
-0.00153296
1.58763
-0.00248639
1.59166
-0.00327096
1.59645
-0.0038995
1.6018
-0.00439061
1.60758
-0.00476854
1.61367
-0.00505924
1.61993
-0.00532732
1.62626
-0.00569912
1.63284
-0.0063693
1.64014
-0.00759324
1.64902
-0.0096488
1.66058
-0.0127473
1.6754
-0.0165054
1.69282
-0.0198308
1.71157
-0.0219593
1.73109
-0.0232125
1.75231
-0.0244973
1.77684
-0.026515
1.80424
-0.0284615
1.83049
-0.0281246
1.85073
-0.0228522
1.86216
-0.00601255
1.86381
0.0223734
1.84967
0.053946
1.81462
0.0807907
1.75766
0.0972384
1.68647
0.100159
1.60644
0.0958249
0.0689205
1.59325
-0.0132223
1.5925
-0.00114361
1.59114
-0.00096539
1.59063
-0.000595317
1.59078
-0.000217191
1.59112
0.000474929
1.59184
0.000791201
1.59255
0.000697226
1.59274
0.000286737
1.59256
-0.000145438
1.59259
-9.49155e-05
1.59296
8.17443e-05
1.5933
0.00026674
1.59366
0.000290194
1.59415
0.000148534
1.59486
-0.00019805
1.59588
-0.000810172
1.59729
-0.00162887
1.59889
-0.00251552
1.60046
-0.00327202
1.60218
-0.00380754
1.60415
-0.00416066
1.6062
-0.00442291
1.60782
-0.00462714
1.60889
-0.00456855
1.61024
-0.00413076
1.61238
-0.00357396
1.61506
-0.0034009
1.61754
-0.00387442
1.61987
-0.00458144
1.62278
-0.00502713
1.62653
-0.00537018
1.6312
-0.00582983
1.63668
-0.00634247
1.64282
-0.00678926
1.64946
-0.00712663
1.65651
-0.00733382
1.66378
-0.00749711
1.67111
-0.00784943
1.6786
-0.00879876
1.68672
-0.0109148
1.69633
-0.0148331
1.70867
-0.021006
1.72439
-0.0284704
1.74285
-0.0346346
1.76283
-0.0374308
1.78505
-0.0363664
1.81443
-0.0305436
1.85645
-0.0192507
1.90623
-0.00721256
1.94799
-0.000477233
1.96856
0.00396738
1.96538
0.0160212
1.94427
0.0422907
1.91189
0.0775787
1.87375
0.109494
1.83293
0.129245
1.79547
0.129368
1.76048
0.119358
0.0832701
1.58422
-0.00406729
1.58451
0.0010364
1.58487
0.00181828
1.58563
0.00216404
1.58623
0.00316591
1.58737
0.0036434
1.58926
0.00318374
1.59122
0.002167
1.59237
0.00127786
1.59269
0.000867921
1.593
0.00100713
1.59351
0.00114736
1.59404
0.000985039
1.59465
0.000431537
1.59548
-0.000393498
1.59656
-0.00140894
1.59794
-0.002592
1.59964
-0.00388171
1.60142
-0.00514686
1.60307
-0.00620905
1.60476
-0.00700348
1.60665
-0.00759592
1.60859
-0.0080995
1.61015
-0.00851375
1.61124
-0.00856574
1.61259
-0.00804815
1.61471
-0.00749607
1.61741
-0.00742207
1.62011
-0.00796544
1.62278
-0.00859113
1.62592
-0.00880153
1.6297
-0.00879878
1.6343
-0.00915589
1.63967
-0.00963068
1.64564
-0.0100126
1.65204
-0.0102502
1.65879
-0.0102888
1.66576
-0.0102361
1.67273
-0.0103921
1.6797
-0.0113022
1.68699
-0.0137513
1.69532
-0.0187447
1.70612
-0.0272685
1.72036
-0.0381699
1.73755
-0.047509
1.75633
-0.0520542
1.77619
-0.0514029
1.79796
-0.0449993
1.82334
-0.0317336
1.85383
-0.0151422
1.89005
-0.00202296
1.93006
0.0070865
1.96804
0.0199932
1.99594
0.0444152
2.00794
0.078275
2.00329
0.109946
1.98347
0.13057
1.95339
0.130603
1.91115
0.124195
0.0797677
1.58977
-0.00230759
1.59072
-0.000882673
1.59159
-0.000479673
1.59229
-0.000368906
1.593
0.000402544
1.59371
0.00113944
1.59462
0.00126754
1.59545
0.000643895
1.59575
-0.00026374
1.59567
-0.000864378
1.59576
-0.000813246
1.59608
-0.000541262
1.59642
-0.00052939
1.59681
-0.000835882
1.59735
-0.00137187
1.59811
-0.00218405
1.59919
-0.00334519
1.60068
-0.00476292
1.60239
-0.00623336
1.60406
-0.00749266
1.60584
-0.00845082
1.60783
-0.00918746
1.6099
-0.00984108
1.61163
-0.0104139
1.61292
-0.0106514
1.61438
-0.0103396
1.61649
-0.0100232
1.61914
-0.0100188
1.62188
-0.0104933
1.62472
-0.0110332
1.62793
-0.0112457
1.6316
-0.0112217
1.63589
-0.011321
1.64081
-0.011728
1.64632
-0.0124622
1.65228
-0.0131206
1.65866
-0.0134321
1.66533
-0.0134667
1.67204
-0.013628
1.67872
-0.0146744
1.6855
-0.0177583
1.69303
-0.0244084
1.70286
-0.0361384
1.71609
-0.0510754
1.73208
-0.0633839
1.74933
-0.0688378
1.76745
-0.0677484
1.78721
-0.0606796
1.80957
-0.0472614
1.83437
-0.0300224
1.86121
-0.0134393
1.89093
0.00123173
1.92593
0.0201524
1.96528
0.0462462
2.00236
0.0768099
2.02949
0.103699
2.04157
0.121473
2.03851
0.121199
2.0207
0.117219
0.0693724
1.5897
-0.000220393
1.58959
-0.00074355
1.59
-0.000765824
1.59035
-0.000487807
1.5908
0.000165683
1.59135
0.000955983
1.59251
0.00109505
1.59388
0.000428623
1.59475
-0.000479701
1.59507
-0.00101864
1.5953
-0.000942477
1.59565
-0.000683675
1.59599
-0.00075254
1.59641
-0.00115654
1.59699
-0.00178071
1.59782
-0.00264943
1.59899
-0.0038144
1.60057
-0.00518631
1.60236
-0.00655708
1.60411
-0.00767934
1.60594
-0.0084911
1.60799
-0.00909174
1.61013
-0.00964637
1.61201
-0.0102011
1.6135
-0.010531
1.61511
-0.0103831
1.61736
-0.0102727
1.62022
-0.0103007
1.62333
-0.0107246
1.62663
-0.0113015
1.63031
-0.0117598
1.63445
-0.0121293
1.63911
-0.012656
1.64426
-0.0134845
1.64982
-0.0145483
1.6557
-0.0154562
1.66196
-0.0159983
1.66863
-0.0162369
1.67559
-0.0164794
1.68271
-0.0174097
1.68993
-0.0202226
1.69748
-0.0267144
1.70666
-0.0391331
1.71969
-0.0567242
1.73479
-0.0734953
1.75038
-0.0833106
1.76642
-0.0851202
1.78331
-0.0791516
1.80092
-0.065239
1.81831
-0.0461873
1.83523
-0.0270404
1.85255
-0.00797868
1.87251
0.0137306
1.89812
0.0419212
1.93043
0.071887
1.96616
0.0954763
1.99964
0.108863
2.02549
0.106518
2.04157
0.10208
0.0654658
1.58964
0.00195362
1.58955
-0.000409489
1.58991
-0.000802742
1.59029
-0.000414916
1.59076
0.000119924
1.59124
0.000864667
1.59232
0.000983521
1.59369
0.000316188
1.59463
-0.000571373
1.59508
-0.00110396
1.59536
-0.00109654
1.5957
-0.000930779
1.59607
-0.00106696
1.59652
-0.0015112
1.59716
-0.00212501
1.59805
-0.00290148
1.5993
-0.00386482
1.601
-0.00490408
1.60293
-0.00583267
1.6048
-0.00642816
1.60671
-0.00665176
1.60879
-0.00662016
1.61094
-0.00653422
1.61285
-0.00649968
1.61442
-0.00638032
1.6161
-0.00589398
1.61839
-0.0055062
1.62132
-0.0050775
1.62457
-0.00498943
1.62814
-0.00517916
1.63221
-0.00546639
1.63685
-0.0058511
1.64212
-0.00651377
1.64803
-0.00757134
1.65454
-0.00896975
1.66154
-0.0103217
1.66905
-0.0114441
1.67705
-0.012333
1.68533
-0.0131828
1.69367
-0.0146183
1.70205
-0.0179649
1.71115
-0.025777
1.72299
-0.0416346
1.73906
-0.0645126
1.75774
-0.0850865
1.77573
-0.0953815
1.79165
-0.0960105
1.80644
-0.089595
1.82127
-0.077512
1.83508
-0.0603004
1.84814
-0.0433998
1.85989
-0.025332
1.87075
-0.000386435
1.881
0.0324729
1.89309
0.066077
1.90831
0.0916885
1.92775
0.10346
1.94795
0.0997871
1.96931
0.091177
0.067436
1.58985
0.00367519
1.59107
-0.00209667
1.59207
-0.00290062
1.59288
-0.00268031
1.5935
-0.00233861
1.59383
-0.00159081
1.59447
-0.00105688
1.59524
-0.00117832
1.59568
-0.00166763
1.59582
-0.00198738
1.59588
-0.0019033
1.59602
-0.00166722
1.59619
-0.001647
1.59641
-0.00181374
1.59675
-0.00207589
1.5973
-0.00247026
1.59821
-0.00304017
1.59963
-0.00367363
1.60138
-0.00414203
1.60318
-0.00421111
1.60512
-0.00384026
1.60729
-0.00312575
1.60962
-0.00226499
1.61179
-0.00140526
1.61366
-0.000511702
1.61564
0.000628494
1.61827
0.0014887
1.62155
0.00241174
1.62519
0.00305934
1.62919
0.00341898
1.6337
0.00363655
1.63882
0.00369838
1.64466
0.00340934
1.6513
0.00268823
1.6587
0.0016301
1.66671
0.000340335
1.67526
-0.00113673
1.68423
-0.002591
1.69333
-0.00416992
1.70217
-0.00674467
1.71048
-0.0121763
1.7188
-0.0239967
1.7293
-0.0463964
1.74408
-0.0760977
1.76218
-0.0994148
1.78016
-0.107884
1.79657
-0.104959
1.81161
-0.0954466
1.82621
-0.0840213
1.84087
-0.0757317
1.8559
-0.0686766
1.87064
-0.0582655
1.88336
-0.0394314
1.89285
-0.00860178
1.90104
0.0280331
1.90883
0.0565934
1.91878
0.0692962
1.92919
0.0678913
1.94322
0.0578141
0.0460052
1.58392
0.0131836
1.5845
0.000609689
1.585
0.000278775
1.58611
-7.39832e-05
1.58724
-0.000193796
1.58797
0.000146344
1.58925
7.11294e-05
1.59094
-0.000530402
1.59231
-0.00119725
1.59315
-0.00153377
1.59362
-0.00149123
1.59398
-0.00134267
1.59436
-0.00140122
1.59486
-0.0016196
1.59556
-0.00187086
1.59658
-0.00213419
1.59802
-0.00240217
1.59995
-0.00257953
1.60214
-0.00252322
1.60425
-0.00209089
1.60634
-0.00127371
1.60852
-0.000152625
1.61073
0.00111519
1.61273
0.00233785
1.6144
0.00344062
1.61612
0.00448051
1.61844
0.00500878
1.62132
0.00544784
1.6245
0.0056709
1.62799
0.00561988
1.63191
0.00546033
1.63628
0.00515028
1.64113
0.00455748
1.64654
0.00371302
1.65249
0.00290885
1.65883
0.00172363
1.6656
0.000531125
1.6727
-0.000826867
1.6798
-0.00267735
1.68639
-0.00591702
1.69172
-0.012229
1.69566
-0.0250135
1.70077
-0.0483768
1.71538
-0.0788095
1.73648
-0.101236
1.76075
-0.110168
1.78607
-0.109802
1.81122
-0.104291
1.83568
-0.0975898
1.85896
-0.0935716
1.88146
-0.0920613
1.90318
-0.0890956
1.92321
-0.0795138
1.93975
-0.0596514
1.95295
-0.0318329
1.96519
-0.00259589
1.9786
0.0128369
1.99263
0.0151687
2.00833
0.00758058
0.00938749
1.59282
0.00838172
1.59236
-0.0039945
1.59125
-0.00436257
1.59094
-0.00541144
1.59082
-0.0055253
1.59059
-0.00494896
1.59087
-0.00419331
1.59151
-0.00368755
1.592
-0.00345754
1.59223
-0.00326081
1.5923
-0.00294831
1.59235
-0.00257471
1.59243
-0.00227164
1.59257
-0.00202361
1.59279
-0.00180287
1.59319
-0.00163608
1.59399
-0.0015559
1.59535
-0.0015058
1.59714
-0.00137101
1.59906
-0.00105865
1.60112
-0.000574859
1.60343
-3.27244e-06
1.60589
0.000509281
1.6082
0.000906776
1.61018
0.00113726
1.61211
0.00117213
1.6146
0.00096011
1.61753
7.73085e-05
1.62056
-0.00083982
1.62367
-0.00181687
1.627
-0.00251438
1.6306
-0.00286947
1.63461
-0.00295356
1.63913
-0.00282946
1.64418
-0.00247876
1.64994
-0.00205194
1.65634
-0.00175655
1.66301
-0.00148967
1.6692
-0.00121697
1.67416
-0.00117699
1.67691
-0.0028347
1.6788
-0.00879532
1.68797
-0.026215
1.71352
-0.0536471
1.75173
-0.0713291
1.79229
-0.0733585
1.82894
-0.0675695
1.85869
-0.0627035
1.87878
-0.0632917
1.88709
-0.0695299
1.8838
-0.0779885
1.87146
-0.0842231
1.85427
-0.0844025
1.83685
-0.0759274
1.82255
-0.0596852
1.81171
-0.0393547
1.80133
-0.0229011
1.78736
-0.0125041
1.76897
-0.0115573
-0.0131776
1.60398
1.60497
1.60526
1.60412
1.6021
1.59956
1.59753
1.59591
1.5941
1.59198
1.58972
1.58754
1.58559
1.58391
1.58257
1.58163
1.58119
1.58125
1.58152
1.5816
1.58152
1.58135
1.58105
1.58042
1.5794
1.57825
1.57858
1.57989
1.58193
1.58466
1.58809
1.59219
1.59704
1.60267
1.60896
1.61575
1.62273
1.6293
1.63457
1.63783
1.6403
1.65029
1.68334
1.73898
1.78897
1.8095
1.79844
1.76308
1.70932
1.63977
1.55631
1.46239
1.36454
1.27251
1.19656
1.14388
1.11356
1.10055
1.09452
)
;

boundaryField
{
    wall
    {
        type            calculated;
        value           nonuniform List<scalar> 
1200
(
-0.0154379
-0.00127065
-0.000731691
0.0119924
0.025702
0.0400751
0.0522323
0.0705188
0.04874
0.107485
-0.119502
-0.054661
-0.0814272
-0.0222443
0.0150033
0.0572892
0.0865609
0.170957
0.0928513
0.189637
-0.157423
-0.0719468
-0.139269
-0.0329217
0.00571924
0.0647515
0.0881579
0.242784
0.1112
0.225099
-0.119327
-0.038653
-0.127202
0.000901349
0.0273999
0.0970021
0.0979395
0.31383
0.134953
0.258912
-0.00867029
0.0501358
-0.0356536
0.0773025
0.088165
0.160362
0.122979
0.385088
0.158927
0.28226
0.180536
0.202377
0.159193
0.207485
0.210963
0.273367
0.179358
0.473497
0.194621
0.306972
0.367475
0.367629
0.401991
0.374693
0.407417
0.470989
0.322127
0.668499
0.330379
0.433221
0.395332
0.402084
0.507219
0.440058
0.531311
0.620878
0.445051
0.867393
0.485683
0.577951
0.207362
0.236742
0.375746
0.311843
0.45717
0.586489
0.414996
0.910528
0.516667
0.591002
-0.0191201
0.0302944
0.166224
0.120262
0.290553
0.447962
0.286995
0.82905
0.440596
0.487447
-0.087352
-0.0317013
0.0830849
0.0405222
0.204933
0.364905
0.199426
0.757265
0.372652
0.382828
-0.00538702
0.0505973
0.152229
0.101212
0.254094
0.405624
0.226223
0.787028
0.401261
0.368616
0.150449
0.210297
0.312965
0.251045
0.40681
0.557307
0.370449
0.941838
0.557751
0.477189
0.369995
0.447407
0.562736
0.492104
0.668643
0.827826
0.642943
1.23555
0.859033
0.716542
0.676778
0.796533
0.930308
0.857546
1.0713
1.24832
1.07697
1.6975
1.33901
1.10605
1.06989
1.26745
1.4203
1.36172
1.63144
1.84164
1.70539
2.35821
2.039
1.67083
1.50804
1.82673
1.99809
1.98149
2.33142
2.59884
2.53183
3.21898
2.97156
2.40667
1.90622
2.38939
2.57986
2.63753
3.09413
3.44524
3.48634
4.203
4.06106
3.22368
2.13178
2.81089
3.02196
3.18026
3.76587
4.2214
4.40198
5.1329
5.11631
3.9268
2.11515
3.00055
3.23284
3.50407
4.23107
4.80039
5.13531
5.85489
5.9601
4.34904
1.90327
2.98717
3.2405
3.62515
4.49836
5.18384
5.6749
6.35332
6.55746
4.47343
1.49724
2.75988
3.03727
3.53135
4.55452
5.36008
6.00347
6.61274
6.8774
4.2912
0.867403
2.27778
2.5839
3.17877
4.35256
5.28418
6.07231
6.58846
6.86119
3.77161
0.0958024
1.6092
1.93973
2.61322
3.92125
4.97366
5.8856
6.28251
6.49905
2.93406
-0.55226
1.0008
1.33961
2.05327
3.45365
4.59381
5.58113
5.81588
5.90094
1.91297
-0.864495
0.689138
1.02712
1.74431
3.18933
4.36632
5.36013
5.3709
5.24435
0.901442
-0.931817
0.613739
0.958198
1.67009
3.14423
4.33449