/*--------------------------------*- C++ -*----------------------------------*\
  =========                 |
  \\      /  F ield         | OpenFOAM: The Open Source CFD Toolbox
   \\    /   O peration     | Website:  https://openfoam.org
    \\  /    A nd           | Version:  8
     \\/     M anipulation  |
\*---------------------------------------------------------------------------*/
FoamFile
{
    version     2.0;
    format      ascii;
    class       volScalarField;
    location    "1000";
    object      T;
}
// * * * * * * * * * * * * * * * * * * * * * * * * * * * * * * * * * * * * * //

dimensions      [0 0 0 1 0 0 0];

internalField   nonuniform List<scalar> 
1200
(
303.15
303.15
303.151
303.146
303.141
303.137
303.133
303.129
303.125
303.122
303.119
303.115
303.112
303.109
303.106
303.103
303.1
303.098
303.095
303.093
303.09
303.088
303.085
303.083
303.081
303.078
303.076
303.074
303.072
303.069
303.067
303.065
303.064
303.062
303.06
303.058
303.057
303.055
303.054
303.053
303.051
303.05
303.05
303.049
303.048
303.046
303.035
303.001
302.915
302.739
302.428
301.951
301.299
300.532
299.769
299.118
298.623
298.271
298.024
297.851
303.15
303.15
303.15
303.15
303.15
303.15
303.15
303.149
303.149
303.149
303.149
303.149
303.149
303.149
303.148
303.148
303.148
303.148
303.148
303.148
303.148
303.148
303.148
303.148
303.148
303.148
303.148
303.148
303.147
303.147
303.147
303.147
303.147
303.147
303.147
303.147
303.147
303.147
303.146
303.146
303.146
303.146
303.145
303.144
303.14
303.12
303.042
302.829
302.435
301.95
301.537
301.26
301.088
300.97
300.883
300.834
300.831
300.87
300.938
301.014
303.15
303.15
303.15
303.15
303.15
303.15
303.15
303.15
303.15
303.15
303.15
303.15
303.15
303.15
303.15
303.15
303.15
303.15
303.15
303.15
303.15
303.15
303.15
303.15
303.15
303.15
303.15
303.15
303.15
303.15
303.15
303.15
303.15
303.15
303.15
303.15
303.15
303.15
303.15
303.15
303.15
303.15
303.15
303.149
303.149
303.148
303.144
303.129
303.079
302.956
302.737
302.458
302.189
301.986
301.869
301.83
301.853
301.921
302.02
302.126
303.15
303.15
303.15
303.15
303.15
303.15
303.15
303.15
303.15
303.15
303.15
303.15
303.15
303.15
303.15
303.15
303.15
303.15
303.15
303.15
303.15
303.15
303.15
303.15
303.15
303.15
303.15
303.15
303.15
303.15
303.15
303.15
303.15
303.15
303.15
303.15
303.15
303.15
303.15
303.15
303.15
303.15
303.149
303.148
303.146
303.143
303.139
303.134
303.128
303.115
303.078
302.997
302.868
302.719
302.595
302.526
302.516
302.549
302.611
302.678
303.15
303.15
303.15
303.15
303.15
303.15
303.15
303.15
303.15
303.15
303.15
303.15
303.15
303.15
303.15
303.15
303.15
303.15
303.15
303.15
303.15
303.15
303.15
303.15
303.15
303.15
303.15
303.15
303.15
303.15
303.15
303.15
303.15
303.15
303.15
303.15
303.149
303.149
303.148
303.148
303.146
303.144
303.141
303.135
303.124
303.11
303.092
303.073
303.054
303.038
303.025
303.017
303.003
302.977
302.937
302.896
302.868
302.859
302.87
302.892
303.15
303.15
303.15
303.15
303.15
303.15
303.15
303.15
303.15
303.15
303.15
303.15
303.15
303.15
303.15
303.15
303.15
303.15
303.15
303.15
303.15
303.15
303.15
303.15
303.15
303.15
303.15
303.15
303.15
303.149
303.149
303.148
303.147
303.146
303.144
303.141
303.136
303.129
303.119
303.104
303.083
303.055
303.017
302.972
302.923
302.878
302.841
302.813
302.788
302.759
302.728
302.696
302.673
302.654
302.641
302.633
302.632
302.639
302.656
302.678
303.15
303.15
303.15
303.15
303.15
303.15
303.15
303.15
303.15
303.15
303.15
303.15
303.15
303.15
303.15
303.15
303.15
303.15
303.15
303.15
303.15
303.15
303.15
303.15
303.15
303.15
303.149
303.149
303.148
303.146
303.142
303.137
303.129
303.117
303.099
303.073
303.038
302.991
302.928
302.853
302.769
302.688
302.62
302.571
302.536
302.506
302.478
302.451
302.412
302.35
302.269
302.181
302.108
302.074
302.056
302.049
302.048
302.049
302.049
302.047
303.15
303.15
303.15
303.15
303.15
303.15
303.15
303.15
303.15
303.15
303.15
303.15
303.15
303.15
303.15
303.15
303.15
303.15
303.15
303.15
303.15
303.15
303.15
303.15
303.15
303.15
303.15
303.149
303.148
303.146
303.144
303.142
303.138
303.134
303.129
303.122
303.114
303.104
303.09
303.074
303.057
303.043
303.031
303.007
302.93
302.781
302.559
302.282
301.973
301.652
301.339
301.064
300.864
300.764
300.763
300.802
300.831
300.844
300.839
300.82
303.15
303.15
303.15
303.15
303.15
303.15
303.15
303.15
303.15
303.149
303.149
303.149
303.149
303.149
303.149
303.149
303.148
303.148
303.148
303.148
303.148
303.149
303.149
303.149
303.149
303.149
303.149
303.149
303.149
303.149
303.148
303.148
303.148
303.147
303.147
303.147
303.147
303.146
303.146
303.146
303.143
303.125
303.013
302.676
302.086
301.327
300.495
299.691
299.014
298.52
298.218
298.093
298.116
298.25
298.448
298.655
298.812
298.873
298.821
298.663
303.15
303.15
303.151
303.151
303.146
303.142
303.138
303.134
303.13
303.127
303.123
303.12
303.117
303.114
303.111
303.108
303.105
303.102
303.1
303.097
303.095
303.093
303.09
303.088
303.086
303.084
303.081
303.079
303.077
303.075
303.073
303.07
303.068
303.066
303.064
303.062
303.057
303.044
303.006
302.908
302.666
302.106
301.019
299.526
298.138
297.142
296.48
296.021
295.684
295.442
295.287
295.21
295.188
295.195
295.207
295.213
295.218
295.23
295.264
295.309
303.15
303.15
303.151
303.146
303.141
303.137
303.133
303.129
303.125
303.122
303.119
303.115
303.112
303.109
303.106
303.103
303.1
303.098
303.095
303.093
303.09
303.088
303.085
303.083
303.081
303.078
303.076
303.074
303.072
303.069
303.067
303.065
303.064
303.062
303.06
303.058
303.057
303.055
303.054
303.053
303.051
303.05
303.049
303.049
303.048
303.046
303.037
303.006
302.927
302.763
302.471
302.017
301.391
300.639
299.873
299.205
298.687
298.316
298.055
297.872
303.15
303.15
303.15
303.15
303.15
303.15
303.15
303.149
303.149
303.149
303.149
303.149
303.149
303.149
303.148
303.148
303.148
303.148
303.148
303.148
303.148
303.148
303.148
303.148
303.148
303.148
303.148
303.147
303.147
303.147
303.147
303.147
303.147
303.147
303.147
303.147
303.147
303.147
303.146
303.146
303.146
303.146
303.145
303.145
303.141
303.123
303.054
302.858
302.482
302.001
301.575
301.284
301.103
300.979
300.888
300.833
300.824
300.857
300.923
301
303.15
303.15
303.15
303.15
303.15
303.15
303.15
303.15
303.15
303.15
303.15
303.15
303.15
303.15
303.15
303.15
303.15
303.15
303.15
303.15
303.15
303.15
303.15
303.151
303.15
303.15
303.15
303.15
303.15
303.15
303.15
303.15
303.15
303.15
303.15
303.15
303.15
303.15
303.15
303.15
303.15
303.15
303.15
303.149
303.149
303.148
303.145
303.132
303.087
302.973
302.764
302.489
302.216
302.004
301.877
301.829
301.846
301.909
302.005
302.11
303.15
303.15
303.15
303.15
303.15
303.15
303.15
303.15
303.15
303.15
303.15
303.15
303.15
303.15
303.15
303.15
303.15
303.15
303.15
303.15
303.15
303.15
303.15
303.15
303.15
303.15
303.15
303.15
303.15
303.15
303.15
303.15
303.15
303.15
303.15
303.15
303.15
303.15
303.15
303.15
303.15
303.15
303.149
303.148
303.146
303.143
303.139
303.135
303.129
303.116
303.083
303.008
302.884
302.735
302.607
302.53
302.513
302.542
302.601
302.668
303.15
303.15
303.15
303.15
303.15
303.15
303.15
303.15
303.15
303.15
303.15
303.15
303.15
303.15
303.15
303.15
303.15
303.15
303.15
303.15
303.15
303.15
303.15
303.151
303.15
303.15
303.15
303.15
303.15
303.15
303.15
303.15
303.15
303.15
303.15
303.15
303.149
303.149
303.148
303.147
303.146
303.144
303.14
303.133
303.123
303.109
303.093
303.075
303.057
303.041
303.028
303.018
303.006
302.981
302.942
302.899
302.869
302.858
302.867
302.888
303.15
303.15
303.15
303.15
303.15
303.15
303.15
303.15
303.15
303.15
303.15
303.15
303.15
303.15
303.15
303.15
303.15
303.15
303.15
303.15
303.15
303.15
303.15
303.15
303.15
303.15
303.15
303.15
303.15
303.149
303.149
303.148
303.147
303.146
303.144
303.14
303.135
303.127
303.116
303.101
303.079
303.048
303.008
302.96
302.91
302.865
302.827
302.799
302.778
302.757
302.733
302.706
302.684
302.665
302.65
302.641
302.637
302.641
302.655
302.675
303.15
303.15
303.15
303.15
303.15
303.15
303.15
303.15
303.15
303.15
303.15
303.15
303.15
303.15
303.15
303.15
303.15
303.15
303.15
303.15
303.15
303.15
303.15
303.15
303.15
303.15
303.149
303.149
303.148
303.145
303.142
303.136
303.127
303.114
303.094
303.067
303.03
302.98
302.915
302.837
302.751
302.669
302.6
302.551
302.515
302.486
302.458
302.433
302.404
302.356
302.285
302.2
302.125
302.088
302.069
302.061
302.058
302.058
302.057
302.055
303.15
303.15
303.15
303.15
303.15
303.15
303.15
303.15
303.15
303.15
303.15
303.15
303.15
303.15
303.15
303.15
303.15
303.15
303.15
303.15
303.15
303.15
303.15
303.15
303.15
303.15
303.15
303.149
303.148
303.146
303.144
303.141
303.137
303.132
303.126
303.119
303.11
303.099
303.084
303.067
303.048
303.033
303.021
303.001
302.938
302.804
302.591
302.317
302.008
301.683
301.366
301.085
300.877
300.769
300.762
300.801
300.833
300.848
300.846
300.828
303.15
303.15
303.15
303.15
303.15
303.15
303.15
303.15
303.15
303.149
303.149
303.149
303.149
303.149
303.149
303.148
303.148
303.148
303.148
303.148
303.148
303.149
303.149
303.149
303.149
303.149
303.149
303.149
303.149
303.149
303.148
303.148
303.148
303.147
303.147
303.147
303.147
303.146
303.146
303.145
303.144
303.128
303.034
302.73
302.165
301.414
300.577
299.76
299.064
298.551
298.232
298.093
298.107
298.234
298.428
298.636
298.798
298.867
298.824
298.673
303.15
303.15
303.151
303.151
303.146
303.142
303.138
303.134
303.13
303.127
303.123
303.12
303.117
303.114
303.111
303.108
303.105
303.102
303.1
303.097
303.095
303.093
303.09
303.088
303.086
303.084
303.081
303.079
303.077
303.075
303.073
303.07
303.068
303.066
303.064
303.062
303.057
303.046
303.012
302.925
302.708
302.197
301.178
299.71
298.284
297.235
296.537
296.057
295.709
295.459
295.298
295.215
295.19
295.195
295.207
295.213
295.218
295.23
295.263
295.307
)
;

boundaryField
{
    wall
    {
        type            zeroGradient;
    }
    inlet
    {
        type            fixedValue;
        value           uniform 303.15;
    }
    outlet
    {
        type            inletOutlet;
        inletValue      uniform 300;
        value           nonuniform List<scalar> 
20
(
297.844
301.019
302.131
302.682
302.893
302.679
302.045
300.817
298.659
295.31
297.865
301.004
302.116
302.672
302.889
302.676
302.052
300.825
298.67
295.308
)
;
    }
    heatWall
    {
        type            fixedGradient;
        gradient        uniform -500;
    }
}


// ************************************************************************* //
