/*--------------------------------*- C++ -*----------------------------------*\
  =========                 |
  \\      /  F ield         | OpenFOAM: The Open Source CFD Toolbox
   \\    /   O peration     | Website:  https://openfoam.org
    \\  /    A nd           | Version:  8
     \\/     M anipulation  |
\*---------------------------------------------------------------------------*/
FoamFile
{
    version     2.0;
    format      ascii;
    class       volScalarField;
    location    "1000";
    object      alphat;
}
// * * * * * * * * * * * * * * * * * * * * * * * * * * * * * * * * * * * * * //

dimensions      [1 -1 -1 0 0 0 0];

internalField   nonuniform List<scalar> 
8400
(
0.120183
0.120345
0.120421
0.120425
0.120387
0.120338
0.120293
0.120272
0.120271
0.120258
0.120201
0.120052
0.119767
0.119326
0.118724
0.117953
0.117029
0.115971
0.1148
0.113551
0.112242
0.110915
0.109585
0.108291
0.107035
0.105822
0.104745
0.103805
0.10303
0.102523
0.102431
0.104786
0.104965
0.0999153
0.096932
0.0950448
0.0935974
0.0923983
0.0913701
0.0904224
0.089546
0.088754
0.0880475
0.0874278
0.0869098
0.0865038
0.0862055
0.086028
0.0859886
0.0861031
0.112417
0.113991
0.115401
0.116661
0.117793
0.118832
0.119806
0.120751
0.121697
0.122649
0.123598
0.124504
0.125301
0.125919
0.126308
0.126439
0.126283
0.125831
0.125066
0.124006
0.122648
0.121072
0.119323
0.117445
0.115505
0.113568
0.111662
0.10986
0.108259
0.106988
0.106038
0.105796
0.107094
0.105592
0.101852
0.0986049
0.0960066
0.0937865
0.0918416
0.0900664
0.0884124
0.0868434
0.0853172
0.0838173
0.0823538
0.0809238
0.079509
0.0781185
0.0767752
0.0754777
0.110015
0.112506
0.114828
0.116959
0.118897
0.120661
0.122278
0.12379
0.125253
0.126721
0.128238
0.129832
0.131496
0.133184
0.13481
0.136284
0.13751
0.138391
0.138848
0.138812
0.13822
0.137039
0.135351
0.133217
0.130659
0.127737
0.124566
0.121271
0.118013
0.114961
0.112095
0.109491
0.107892
0.107086
0.104828
0.101703
0.0988614
0.096469
0.0944441
0.0926326
0.090997
0.0894685
0.0880098
0.0866055
0.0852287
0.0838635
0.0825273
0.0811934
0.0798657
0.0785445
0.0983092
0.101119
0.103833
0.106415
0.108843
0.111123
0.113267
0.11532
0.117339
0.119401
0.121583
0.12396
0.126586
0.129476
0.132588
0.135831
0.139089
0.142157
0.144904
0.147115
0.148646
0.149382
0.149263
0.148238
0.146276
0.143367
0.139555
0.135032
0.130056
0.124943
0.119969
0.11538
0.111391
0.108421
0.106396
0.103959
0.101208
0.0987534
0.0966263
0.0947035
0.0930483
0.0916173
0.0902556
0.0889189
0.0875884
0.0862773
0.0850119
0.0837509
0.0824943
0.081256
0.0831191
0.085548
0.0879849
0.090395
0.0927552
0.095057
0.0973048
0.0995352
0.101799
0.104171
0.106745
0.109621
0.112892
0.116636
0.120886
0.125608
0.130716
0.136038
0.141371
0.146486
0.151085
0.154951
0.157852
0.159616
0.160015
0.158757
0.15568
0.150813
0.144492
0.137355
0.130038
0.123139
0.117071
0.112047
0.108064
0.105417
0.102984
0.100554
0.0984694
0.0965762
0.0949082
0.0935163
0.0921593
0.0908297
0.0895364
0.0882382
0.0869708
0.0857154
0.0844892
0.0832607
0.0703168
0.0718494
0.0734722
0.0751584
0.0769009
0.078687
0.0805147
0.0824069
0.0844022
0.0865633
0.0889777
0.0917585
0.0950182
0.098874
0.103406
0.108692
0.114727
0.121463
0.128763
0.136401
0.144084
0.151489
0.158313
0.164246
0.168828
0.171339
0.171049
0.16762
0.16124
0.15265
0.142968
0.133431
0.124918
0.117836
0.112161
0.107732
0.104349
0.101935
0.0999998
0.0981409
0.0964138
0.0950423
0.093748
0.0924535
0.0911364
0.089813
0.0885712
0.087344
0.0860852
0.0847684
0.0631986
0.0638152
0.064525
0.0653159
0.0661959
0.0671648
0.0682249
0.0693893
0.0706863
0.0721608
0.0738775
0.0759343
0.0784267
0.0814921
0.0852754
0.0898993
0.0954954
0.102138
0.109895
0.118692
0.128347
0.138606
0.14919
0.159772
0.16975
0.177971
0.182948
0.183506
0.179173
0.17051
0.158995
0.146635
0.135124
0.125446
0.117833
0.112001
0.107521
0.104113
0.101487
0.0994166
0.0977072
0.0963669
0.0950795
0.0937617
0.0924599
0.0911693
0.089975
0.0887567
0.0874497
0.0860157
0.0609264
0.0610291
0.0611823
0.0613842
0.0616373
0.061946
0.062328
0.0627877
0.0633499
0.0640385
0.0648834
0.0659474
0.0673176
0.0690803
0.0713848
0.074397
0.0783111
0.0833479
0.0897141
0.0976097
0.10713
0.118256
0.130961
0.145184
0.160489
0.175496
0.187911
0.195361
0.19613
0.189965
0.178124
0.163295
0.148499
0.135693
0.125454
0.117638
0.111786
0.107461
0.104157
0.101554
0.0994725
0.0977494
0.0962612
0.0949325
0.0937182
0.0924986
0.0913187
0.0900872
0.0887809
0.0873751
0.0607547
0.0606918
0.0606599
0.0606494
0.06066
0.0606867
0.0607478
0.0608383
0.0609769
0.0611693
0.0614468
0.0618073
0.0623109
0.063013
0.0639686
0.0653281
0.0672378
0.0699329
0.0737063
0.0788981
0.0859025
0.0950993
0.106962
0.122083
0.140795
0.162053
0.1829
0.199704
0.208942
0.208809
0.199394
0.183539
0.165705
0.149332
0.13586
0.125479
0.117731
0.11201
0.107727
0.104468
0.101946
0.0998927
0.0981519
0.0966652
0.0953047
0.0939729
0.0926497
0.0912957
0.0898999
0.0883885
0.060997
0.0608977
0.0608315
0.060739
0.0607211
0.0606899
0.0606833
0.0606489
0.0606723
0.0606647
0.060724
0.0608047
0.060907
0.0610748
0.0613475
0.061783
0.062476
0.0635376
0.0651083
0.067395
0.0707664
0.0757756
0.0834759
0.0954262
0.113342
0.137631
0.165648
0.192874
0.213449
0.2235
0.220742
0.20674
0.187035
0.167125
0.149941
0.136347
0.126033
0.118376
0.11272
0.108492
0.105292
0.102798
0.100739
0.0990142
0.0974952
0.0960663
0.0946935
0.0933459
0.0919794
0.0905261
0.0611607
0.0610909
0.0610404
0.0609622
0.0609195
0.0608621
0.0608244
0.0607882
0.0607847
0.0607759
0.0607635
0.0607453
0.0607498
0.0607299
0.0607138
0.060802
0.0610714
0.0615466
0.0623107
0.0633516
0.0645947
0.0659251
0.067979
0.0730817
0.0848856
0.106416
0.136907
0.172775
0.205727
0.22954
0.238458
0.230681
0.211775
0.189497
0.168687
0.151348
0.137771
0.127528
0.119927
0.114262
0.110011
0.106783
0.104224
0.102134
0.100391
0.0988664
0.0974711
0.0961294
0.0948028
0.0934554
0.0611898
0.0611403
0.0611018
0.0610603
0.0610218
0.0609853
0.0609369
0.0609188
0.0608894
0.0608657
0.0608522
0.0608555
0.0608487
0.0608274
0.0608044
0.0608011
0.0609051
0.0612175
0.0618155
0.062741
0.0639422
0.0648823
0.0644404
0.0632877
0.0651825
0.077142
0.101983
0.140364
0.183145
0.222244
0.247784
0.252019
0.238195
0.216052
0.192636
0.171613
0.154354
0.140861
0.130572
0.122796
0.116933
0.112516
0.109089
0.106378
0.104218
0.102429
0.100877
0.0994841
0.0981878
0.0969397
0.0612064
0.0611726
0.0611401
0.0611072
0.0610735
0.0610539
0.0610227
0.061007
0.0609828
0.0609737
0.0609671
0.0609676
0.0609647
0.0609467
0.0609161
0.0609119
0.0610135
0.0613101
0.0618785
0.0627728
0.0639729
0.065397
0.0667178
0.0665378
0.0633417
0.0622112
0.0723741
0.10254
0.146614
0.197917
0.243111
0.265627
0.262556
0.244714
0.221362
0.197925
0.177232
0.160115
0.146484
0.13587
0.127672
0.12138
0.116515
0.112717
0.109734
0.107331
0.105326
0.103636
0.10218
0.100883
0.0612124
0.0611867
0.0611614
0.0611404
0.0611161
0.0610952
0.0610756
0.0610713
0.0610779
0.0610965
0.0611151
0.0611305
0.0611273
0.0611056
0.0610876
0.0611171
0.0612646
0.0616126
0.062233
0.0631744
0.064434
0.065943
0.0674486
0.0680138
0.065842
0.062418
0.0643069
0.0745488
0.104009
0.156298
0.219417
0.26588
0.280176
0.272004
0.252741
0.229463
0.206732
0.186538
0.169558
0.15571
0.144559
0.135671
0.128622
0.123022
0.11854
0.114924
0.111961
0.109515
0.107473
0.105741
0.0612163
0.0611966
0.0611783
0.0611587
0.0611484
0.0611375
0.0611588
0.0612147
0.0612958
0.0613906
0.0614717
0.061518
0.061518
0.0614857
0.0614648
0.0615306
0.0617667
0.0622409
0.0630051
0.0641003
0.0655494
0.0673059
0.0691523
0.0703416
0.0691449
0.0646601
0.0614736
0.0648512
0.0759945
0.10545
0.17419
0.246723
0.285003
0.29295
0.283295
0.264037
0.241952
0.220416
0.201056
0.184354
0.170206
0.158398
0.148622
0.140545
0.133832
0.128234
0.123552
0.119604
0.116239
0.113352
0.061221
0.0612053
0.0611892
0.061172
0.0612139
0.0612868
0.0615241
0.0618889
0.0622919
0.0626261
0.0628007
0.0628042
0.0626901
0.0625525
0.062463
0.0625605
0.0629343
0.0636133
0.0646419
0.0660593
0.0679156
0.0701648
0.0726017
0.0746344
0.0748062
0.0710022
0.0647663
0.0613958
0.0644199
0.0732371
0.11112
0.202763
0.270049
0.300852
0.307883
0.297794
0.280179
0.259925
0.24022
0.222182
0.206083
0.19199
0.179802
0.169252
0.160081
0.152085
0.145095
0.138922
0.133412
0.12845
0.061223
0.061211
0.0611978
0.0611949
0.0620498
0.062592
0.06414
0.0657714
0.0671055
0.0678218
0.0678124
0.0672348
0.066594
0.0667344
0.0669024
0.0670892
0.067307
0.0675703
0.0687308
0.0708657
0.0735629
0.076544
0.0795786
0.0823205
0.0840146
0.0826274
0.0766551
0.0677318
0.0626469
0.0627496
0.0672174
0.130779
0.227024
0.286346
0.319643
0.325078
0.31744
0.302028
0.284739
0.267641
0.251619
0.23695
0.223733
0.211825
0.201091
0.191358
0.182459
0.174231
0.166526
0.159211
0.0612261
0.0612234
0.0612327
0.0613567
0.0738103
0.0723911
0.0781085
0.0807939
0.0822969
0.0827037
0.0823618
0.0829259
0.083395
0.0830438
0.082637
0.0824316
0.082681
0.0834775
0.0842248
0.0848088
0.0854821
0.0864163
0.0875968
0.0885004
0.0886239
0.0857166
0.080254
0.0742819
0.0724337
0.0800097
0.0880298
0.0856566
0.145787
0.232191
0.306586
0.335481
0.34753
0.342095
0.331137
0.318219
0.305103
0.292389
0.280424
0.269274
0.258923
0.249263
0.240139
0.231409
0.222931
0.214561
0.0614939
0.0619131
0.0626034
0.069434
0.425541
0.155082
0.135307
0.121911
0.109487
0.0972973
0.0852957
0.0732604
0.0747697
0.0796665
0.0820587
0.0832324
0.0837701
0.0842743
0.0848407
0.0854228
0.0859703
0.0864218
0.0866115
0.0852818
0.0939901
0.101004
0.0881288
0.0781499
0.0815284
0.0923723
0.109367
0.113177
0.104603
0.111111
0.246839
0.304206
0.358905
0.372637
0.373904
0.369932
0.36383
0.356799
0.349529
0.342327
0.335318
0.328548
0.321944
0.315412
0.308837
0.302119
0.205511
0.203719
0.198298
0.185493
0.167809
0.154973
0.143567
0.132967
0.123156
0.114219
0.10625
0.0993414
0.0935296
0.0910694
0.0913484
0.0918037
0.0926308
0.0954247
0.101276
0.111344
0.126154
0.14145
0.1499
0.152022
0.15463
0.160922
0.159051
0.150051
0.120891
0.107099
0.11747
0.125338
0.130698
0.134597
0.14299
0.141478
0.317258
0.375355
0.400335
0.41413
0.422882
0.428778
0.432863
0.435756
0.437776
0.439135
0.439986
0.440463
0.440623
0.440476
0.271149
0.267933
0.264614
0.261342
0.258358
0.255613
0.252955
0.250304
0.247676
0.245114
0.242634
0.240229
0.237884
0.235593
0.233354
0.231168
0.229037
0.226958
0.224931
0.222951
0.221017
0.219126
0.217276
0.215468
0.213701
0.211977
0.210292
0.208642
0.207026
0.205447
0.203907
0.202405
0.200938
0.199509
0.198123
0.196779
0.195473
0.194199
0.19295
0.191718
0.190508
0.189316
0.188138
0.186972
0.185814
0.184659
0.183505
0.182343
0.181154
0.1799
0.269117
0.263098
0.257518
0.251909
0.246361
0.241063
0.236097
0.231418
0.226947
0.222641
0.2185
0.21453
0.210728
0.207078
0.203565
0.200181
0.196921
0.193779
0.190746
0.187814
0.184973
0.182219
0.179548
0.17696
0.17445
0.172012
0.169637
0.167327
0.165083
0.162908
0.160798
0.15875
0.156767
0.154853
0.153005
0.151213
0.149468
0.147763
0.1461
0.144484
0.142898
0.141344
0.13982
0.138327
0.136861
0.135425
0.13402
0.132642
0.131282
0.129935
0.269152
0.262723
0.256887
0.251383
0.246035
0.240838
0.235843
0.231073
0.22651
0.22213
0.217914
0.213853
0.209938
0.206162
0.202518
0.199001
0.195607
0.192328
0.189156
0.186083
0.183104
0.180213
0.177408
0.174688
0.172046
0.169476
0.166973
0.16454
0.162177
0.159883
0.157654
0.15549
0.153393
0.151365
0.1494
0.147491
0.145636
0.143831
0.142075
0.140362
0.138688
0.137052
0.135452
0.133885
0.132352
0.130857
0.129404
0.127991
0.126609
0.125244
0.269293
0.263019
0.25705
0.251463
0.246156
0.241047
0.236113
0.231365
0.226809
0.222438
0.218235
0.214182
0.210266
0.206483
0.202833
0.199311
0.195911
0.192623
0.18944
0.186356
0.183366
0.180465
0.177651
0.174919
0.172262
0.169676
0.16716
0.164715
0.162341
0.160034
0.15779
0.155611
0.153501
0.151457
0.149475
0.147551
0.145682
0.143867
0.1421
0.140376
0.13869
0.137041
0.135427
0.133846
0.132299
0.13079
0.129321
0.127892
0.126503
0.12514
0.269251
0.263148
0.257193
0.251524
0.246145
0.241009
0.236072
0.231321
0.226757
0.222376
0.218162
0.2141
0.210178
0.206395
0.202749
0.199233
0.195836
0.192551
0.189372
0.186293
0.18331
0.180417
0.177609
0.174882
0.172229
0.169649
0.16714
0.164702
0.162331
0.160025
0.157784
0.15561
0.153504
0.151464
0.149484
0.147563
0.1457
0.14389
0.142126
0.140403
0.138718
0.13707
0.135456
0.133876
0.132331
0.130825
0.129353
0.127915
0.126518
0.125154
0.269176
0.263098
0.257228
0.251584
0.246193
0.241044
0.236112
0.231378
0.226829
0.222455
0.218242
0.21418
0.210265
0.206491
0.202853
0.199341
0.195944
0.19266
0.189483
0.186408
0.183428
0.180536
0.177728
0.175
0.172348
0.169768
0.167259
0.164818
0.162441
0.160131
0.157887
0.155714
0.153607
0.151564
0.149582
0.14766
0.145795
0.143982
0.142213
0.140485
0.138796
0.137144
0.135525
0.133938
0.132389
0.130877
0.1294
0.127955
0.126548
0.125179
0.269162
0.263022
0.257181
0.251574
0.246194
0.241038
0.236097
0.231359
0.226808
0.222428
0.218209
0.214143
0.210227
0.206454
0.202813
0.199295
0.195894
0.192609
0.189434
0.186362
0.183382
0.180491
0.177686
0.174961
0.172311
0.169732
0.167222
0.164778
0.162401
0.160092
0.157853
0.155682
0.153576
0.151533
0.149552
0.147633
0.14577
0.143955
0.142184
0.140456
0.138768
0.137116
0.135496
0.133907
0.132354
0.130839
0.12936
0.127915
0.126508
0.125139
0.269186
0.263006
0.257147
0.251551
0.246185
0.241034
0.236095
0.231357
0.226806
0.222427
0.218211
0.21415
0.210238
0.206466
0.202824
0.199305
0.195907
0.192628
0.189458
0.186389
0.183412
0.180525
0.177723
0.175
0.172351
0.169771
0.167259
0.164814
0.162438
0.160131
0.157892
0.15572
0.153611
0.151566
0.149585
0.147665
0.145799
0.143979
0.142206
0.140476
0.138787
0.137131
0.135506
0.133914
0.132357
0.130837
0.129354
0.127907
0.126497
0.125122
0.2692
0.263026
0.257145
0.251538
0.246171
0.241023
0.236086
0.231347
0.226793
0.222411
0.218192
0.214129
0.210213
0.206436
0.202788
0.199268
0.195873
0.192597
0.189429
0.186359
0.183384
0.180499
0.177698
0.174976
0.172325
0.169744
0.167232
0.164789
0.162415
0.160107
0.157865
0.155689
0.153578
0.151534
0.149554
0.147632
0.145764
0.143944
0.142171
0.140443
0.138752
0.137093
0.135465
0.133873
0.132317
0.130795
0.129309
0.12786
0.126447
0.125067
0.269197
0.263037
0.257151
0.251532
0.246159
0.241013
0.236078
0.23134
0.226785
0.2224
0.218177
0.21411
0.210191
0.206411
0.202765
0.199248
0.195857
0.192583
0.189416
0.186348
0.183376
0.180494
0.177695
0.174972
0.172323
0.169744
0.167235
0.164792
0.162416
0.160105
0.157859
0.15568
0.153569
0.151525
0.149544
0.147621
0.145751
0.143932
0.142161
0.140432
0.138738
0.137075
0.135447
0.133853
0.132295
0.130769
0.129277
0.127822
0.126404
0.125018
0.269188
0.26303
0.257147
0.251526
0.24615
0.241004
0.23607
0.231332
0.226773
0.222383
0.218156
0.214086
0.210166
0.206386
0.20274
0.199224
0.195833
0.192559
0.189392
0.186326
0.183356
0.180475
0.177678
0.174958
0.17231
0.169733
0.167223
0.164778
0.162398
0.160084
0.157838
0.155658
0.153547
0.151501
0.14952
0.147596
0.145728
0.14391
0.142139
0.140408
0.138711
0.137048
0.135418
0.133822
0.132257
0.130725
0.129229
0.12777
0.126348
0.12496
0.269184
0.263018
0.257137
0.251518
0.246142
0.240995
0.23606
0.231318
0.226754
0.22236
0.218132
0.214062
0.210142
0.20636
0.202712
0.199194
0.195801
0.192525
0.189358
0.186293
0.183325
0.180447
0.177652
0.174933
0.172286
0.169707
0.167194
0.164747
0.162367
0.160054
0.157807
0.155627
0.153515
0.15147
0.149488
0.147566
0.145698
0.14388
0.142107
0.140374
0.138676
0.137012
0.135381
0.13378
0.13221
0.130674
0.129175
0.127714
0.12629
0.124899
0.269184
0.263013
0.257129
0.251509
0.246131
0.240982
0.236044
0.2313
0.226734
0.222342
0.218116
0.214048
0.210125
0.206341
0.202692
0.199175
0.195783
0.192509
0.189344
0.186282
0.183317
0.180442
0.177649
0.174931
0.172283
0.169703
0.16719
0.164745
0.162366
0.160053
0.157806
0.155625
0.153512
0.151467
0.149486
0.147562
0.145692
0.143872
0.142097
0.140362
0.138662
0.136994
0.135358
0.133752
0.132178
0.130639
0.129137
0.127672
0.126243
0.124847
0.269186
0.263012
0.257121
0.251495
0.246113
0.240961
0.236019
0.23127
0.226703
0.222308
0.218079
0.214004
0.210074
0.206285
0.202633
0.199116
0.195724
0.192448
0.189282
0.18622
0.183256
0.180382
0.177588
0.174868
0.17222
0.169642
0.167132
0.164688
0.162309
0.159994
0.157746
0.155566
0.153455
0.151411
0.149428
0.147503
0.145633
0.143813
0.142039
0.140303
0.138601
0.136931
0.135293
0.133686
0.132112
0.130572
0.129067
0.127599
0.126166
0.124768
0.269186
0.263008
0.25711
0.251479
0.246096
0.240945
0.236006
0.23126
0.226694
0.222301
0.218072
0.213996
0.210068
0.206282
0.202636
0.199123
0.195734
0.192459
0.189294
0.186234
0.183272
0.180398
0.177604
0.174885
0.172239
0.169662
0.167152
0.164705
0.162322
0.160005
0.157756
0.155575
0.153463
0.151415
0.14943
0.147503
0.145632
0.143811
0.142033
0.140292
0.138585
0.136911
0.13527
0.13366
0.132081
0.130535
0.129024
0.12755
0.126113
0.124712
0.269184
0.262998
0.257089
0.251448
0.246056
0.240895
0.235943
0.231182
0.226602
0.222196
0.217956
0.213872
0.209938
0.20615
0.202503
0.198987
0.195593
0.192316
0.189151
0.186093
0.183132
0.180258
0.177465
0.174748
0.172105
0.169529
0.167018
0.16457
0.162187
0.159872
0.157627
0.155449
0.153337
0.151291
0.149308
0.147386
0.145518
0.143697
0.141917
0.140175
0.138469
0.136798
0.135157
0.133547
0.131966
0.13042
0.12891
0.127437
0.126
0.124598
0.269182
0.26299
0.257085
0.251453
0.246073
0.240921
0.235973
0.231215
0.226639
0.222239
0.218003
0.213922
0.209989
0.206201
0.20255
0.19903
0.195632
0.192352
0.189185
0.186124
0.183157
0.180277
0.177478
0.174757
0.172108
0.169526
0.167007
0.164554
0.162168
0.159852
0.157602
0.155419
0.153304
0.151256
0.149273
0.147347
0.145474
0.143647
0.141863
0.14012
0.138412
0.136738
0.135094
0.133481
0.1319
0.130355
0.128846
0.127375
0.12594
0.124543
0.26918
0.262944
0.256987
0.251306
0.245879
0.240682
0.235698
0.230915
0.226323
0.221913
0.21767
0.213583
0.209648
0.20586
0.202213
0.198699
0.19531
0.192043
0.188889
0.185839
0.182882
0.180013
0.177227
0.17452
0.171885
0.169317
0.166815
0.16438
0.162013
0.159713
0.157479
0.155313
0.153217
0.151189
0.149224
0.147316
0.145461
0.143657
0.141898
0.140181
0.1385
0.136852
0.135239
0.133661
0.132121
0.13062
0.129161
0.127747
0.126384
0.125077
0.269188
0.262976
0.257063
0.25142
0.246029
0.240876
0.235953
0.231245
0.226741
0.222425
0.218281
0.2143
0.210478
0.206811
0.203291
0.19991
0.196661
0.193536
0.190527
0.18762
0.184807
0.182085
0.179448
0.176889
0.174399
0.171974
0.169614
0.167319
0.165087
0.162919
0.160818
0.158787
0.15683
0.154943
0.153122
0.151363
0.149664
0.148023
0.146431
0.144883
0.143373
0.141902
0.140472
0.139087
0.137749
0.136462
0.135237
0.134089
0.13304
0.132123
0.271131
0.267772
0.264566
0.261493
0.258535
0.255671
0.252891
0.250189
0.247559
0.244995
0.242495
0.240062
0.237697
0.235396
0.233158
0.230979
0.228859
0.226791
0.224772
0.222799
0.220872
0.218989
0.217148
0.215343
0.213573
0.211839
0.21014
0.208478
0.206852
0.205264
0.203717
0.202212
0.200746
0.199317
0.197924
0.196565
0.195236
0.193932
0.192649
0.191384
0.190136
0.188906
0.187693
0.186495
0.185312
0.184145
0.182998
0.181871
0.180759
0.179653
0.244919
0.10611
0.102241
0.117646
0.127084
0.1264
0.116289
0.10199
0.0910519
0.0856075
0.0815492
0.0759255
0.0654888
0.0575317
0.0582323
0.0637314
0.0719901
0.0863577
0.131173
0.354977
0.24349
0.105956
0.102526
0.118011
0.127422
0.12664
0.116406
0.102045
0.0911894
0.0858964
0.0819566
0.0765899
0.0672644
0.0587229
0.0576319
0.0624956
0.0705045
0.0843072
0.128442
0.354564
0.242078
0.105756
0.102813
0.118382
0.127763
0.126878
0.116515
0.102086
0.0913169
0.0861801
0.0823503
0.0771482
0.0681304
0.0594433
0.0574783
0.061916
0.0698078
0.083378
0.127342
0.35519
0.240649
0.105539
0.103104
0.118761
0.12811
0.127116
0.116616
0.102114
0.091437
0.0864702
0.0827707
0.0778504
0.0690645
0.0601973
0.0574069
0.0613601
0.069114
0.0824578
0.126271
0.355867
0.239221
0.105307
0.103398
0.119146
0.128462
0.127353
0.116707
0.102125
0.0915423
0.0867459
0.0831525
0.0783991
0.0699659
0.0609666
0.0574146
0.0608342
0.0684251
0.0815469
0.125222
0.356565
0.237792
0.105058
0.103697
0.119537
0.128817
0.127588
0.116786
0.102121
0.0916398
0.0870218
0.0835199
0.0788365
0.0707734
0.0617402
0.0574977
0.0603429
0.0677426
0.0806434
0.124188
0.357261
0.23636
0.104794
0.103999
0.119935
0.129176
0.127818
0.116852
0.1021
0.0917272
0.0872984
0.0838895
0.0792733
0.0715179
0.0625261
0.0576573
0.0598921
0.0670691
0.0797488
0.123168
0.357953
0.234924
0.104516
0.104305
0.120338
0.129538
0.128046
0.116906
0.102063
0.091808
0.0875781
0.0842663
0.0797702
0.0722635
0.0633345
0.0578934
0.0594899
0.0664082
0.0788646
0.122164
0.358647
0.233482
0.104229
0.104615
0.120749
0.129904
0.12827
0.116949
0.102011
0.0918846
0.0878653
0.0846538
0.0803489
0.0730558
0.0641672
0.0582014
0.0591401
0.0657629
0.0779915
0.121177
0.359343
0.232036
0.103936
0.104933
0.121168
0.130276
0.128492
0.116978
0.101943
0.0919568
0.0881606
0.0850466
0.0809664
0.0738989
0.0650172
0.058573
0.0588443
0.065135
0.0771297
0.120206
0.360035
0.230589
0.103637
0.10526
0.121598
0.130653
0.128709
0.116993
0.101857
0.0920218
0.0884592
0.0854336
0.0815376
0.0747343
0.0658675
0.0589993
0.0586031
0.0645255
0.0762789
0.119248
0.360722
0.229142
0.103331
0.105594
0.122037
0.131034
0.128921
0.116991
0.101752
0.0920808
0.0887575
0.0857956
0.08201
0.0754985
0.0666983
0.0594695
0.058416
0.0639363
0.0754387
0.118303
0.361401
0.227696
0.103015
0.105937
0.122484
0.131419
0.129127
0.11697
0.101626
0.0921341
0.0890606
0.0861376
0.0823838
0.0761644
0.0675013
0.0599752
0.0582827
0.0633695
0.0746098
0.117371
0.362076
0.22625
0.102685
0.106287
0.122939
0.131804
0.129324
0.116932
0.10148
0.0921836
0.0893718
0.0864717
0.0827268
0.076757
0.0682812
0.0605117
0.0582042
0.0628286
0.0737944
0.116453
0.362749
0.224801
0.102343
0.106644
0.123401
0.132193
0.129514
0.116877
0.101317
0.0922339
0.0896963
0.086805
0.0831029
0.0773293
0.0690459
0.0610755
0.0581805
0.0623177
0.0729948
0.115551
0.363426
0.223349
0.101994
0.107009
0.123871
0.132585
0.129699
0.116806
0.101138
0.0922887
0.090041
0.0871397
0.0835232
0.077916
0.0697992
0.0616615
0.0582108
0.0618399
0.0722131
0.114666
0.364111
0.221892
0.101641
0.107384
0.124351
0.132983
0.129881
0.11672
0.100942
0.0923473
0.0904057
0.0874706
0.083942
0.078505
0.0705346
0.0622631
0.0582919
0.0613974
0.0714505
0.113797
0.364807
0.220434
0.101288
0.10777
0.124842
0.133387
0.130058
0.116617
0.100728
0.0924083
0.0907851
0.0877801
0.0842937
0.0790499
0.0712367
0.0628705
0.0584182
0.0609907
0.0707074
0.112946
0.365514
0.218976
0.100935
0.108168
0.125343
0.133795
0.130228
0.116495
0.100494
0.0924725
0.0911784
0.0880534
0.0845305
0.0794972
0.071888
0.0634727
0.0585825
0.0606195
0.0699845
0.112113
0.366238
0.217519
0.100581
0.108576
0.125853
0.134206
0.13039
0.116352
0.10024
0.0925428
0.0915897
0.0882918
0.084652
0.0798225
0.0724768
0.0640596
0.0587775
0.0602833
0.0692827
0.111298
0.366984
0.216061
0.100226
0.108994
0.12637
0.134617
0.130543
0.116192
0.0999704
0.0926242
0.0920243
0.0885034
0.0847012
0.0800383
0.0730007
0.0646233
0.058996
0.0599814
0.068603
0.110504
0.36776
0.214601
0.0998699
0.109421
0.126891
0.135027
0.130687
0.116015
0.0996916
0.0927234
0.0924888
0.088697
0.0847307
0.0801796
0.073463
0.0651569
0.0592308
0.0597127
0.0679468
0.109732
0.368576
0.213137
0.0995199
0.109856
0.127417
0.135439
0.130825
0.115827
0.0994099
0.0928474
0.0929885
0.0888766
0.0847623
0.0802766
0.0738653
0.0656534
0.059474
0.0594749
0.0673151
0.108987
0.369444
0.21167
0.0991823
0.1103
0.127948
0.13585
0.130959
0.115632
0.0991304
0.0929995
0.093523
0.0890364
0.084762
0.0803245
0.0741998
0.066104
0.0597169
0.0592654
0.0667091
0.108271
0.370378
0.2102
0.0988635
0.110753
0.128485
0.136263
0.13109
0.115432
0.0988582
0.093181
0.0940868
0.0891636
0.0846515
0.0802777
0.0744487
0.0664983
0.0599506
0.0590809
0.0661302
0.10759
0.371393
0.20873
0.0985691
0.111217
0.129026
0.136677
0.131218
0.115232
0.0985977
0.0933921
0.0946724
0.0892464
0.0843391
0.0800677
0.0745905
0.0668262
0.0601667
0.0589181
0.0655792
0.106948
0.372505
0.20726
0.0983014
0.11169
0.129571
0.13709
0.131343
0.115032
0.0983541
0.0936325
0.0952737
0.089283
0.0837752
0.079635
0.0746079
0.0670796
0.0603576
0.0587731
0.0650566
0.106351
0.373727
0.205793
0.0980617
0.112171
0.130117
0.1375
0.131465
0.114839
0.0981339
0.0939033
0.0958876
0.0892852
0.0829717
0.0789607
0.0744947
0.067253
0.0605168
0.0586419
0.0645624
0.105802
0.375072
0.204327
0.0978514
0.112659
0.130661
0.137904
0.131585
0.114656
0.0979453
0.094207
0.0965144
0.089275
0.0819687
0.0780681
0.0742571
0.0673441
0.0606392
0.0585205
0.0640955
0.105305
0.376546
0.202861
0.0976733
0.11315
0.131201
0.138304
0.131706
0.114492
0.0977965
0.0945456
0.0971554
0.0892749
0.0807853
0.0770049
0.0739101
0.0673537
0.0607215
0.0584049
0.0636542
0.104861
0.378154
0.201395
0.0975308
0.113646
0.131738
0.138699
0.131831
0.114352
0.0976938
0.0949192
0.0978085
0.0892997
0.0793746
0.0758232
0.0734734
0.0672863
0.0607626
0.0582916
0.063236
0.10447
0.379894
0.199928
0.0974274
0.114145
0.132272
0.139091
0.131963
0.11424
0.0976402
0.0953241
0.098468
0.0893535
0.0776035
0.074567
0.0729676
0.0671489
0.0607635
0.0581779
0.0628376
0.104128
0.38176
0.198461
0.0973653
0.114647
0.132802
0.139479
0.132104
0.11416
0.0976357
0.0957547
0.0991259
0.0894346
0.0753049
0.073269
0.0724119
0.0669509
0.0607273
0.0580618
0.0624558
0.103832
0.383747
0.196994
0.0973448
0.115153
0.133328
0.139865
0.132252
0.114111
0.097678
0.0962047
0.0997755
0.0895412
0.0723869
0.0719641
0.071823
0.0667025
0.0606585
0.0579425
0.0620875
0.103575
0.385845
0.195529
0.0973647
0.115662
0.133851
0.140248
0.132408
0.114092
0.0977648
0.0966698
0.100412
0.0896753
0.0689533
0.0706965
0.0712154
0.0664135
0.0605625
0.0578202
0.0617298
0.103351
0.388047
0.194066
0.0974231
0.116174
0.134371
0.140628
0.132572
0.114104
0.0978939
0.0971475
0.101036
0.0898447
0.0653824
0.0695102
0.0706049
0.0660945
0.0604449
0.0576952
0.0613786
0.103148
0.390343
0.192604
0.0975178
0.116689
0.134888
0.141005
0.132743
0.114145
0.0980629
0.0976365
0.101646
0.0900599
0.062256
0.0684579
0.0700191
0.065756
0.0603107
0.0575671
0.0610284
0.102949
0.392722
0.191143
0.0976471
0.117208
0.135402
0.14138
0.132922
0.114216
0.0982684
0.0981373
0.102233
0.0903069
0.0605124
0.0675722
0.0694582
0.0653983
0.0601633
0.0574347
0.0606709
0.102729
0.395171
0.189684
0.097809
0.117732
0.135916
0.141755
0.133109
0.114287
0.0985415
0.0986778
0.102719
0.0905298
0.0610355
0.0667576
0.0688991
0.0650311
0.0600029
0.0572955
0.0602938
0.102447
0.39768
0.188226
0.0980015
0.118261
0.136434
0.142118
0.133269
0.114425
0.0988761
0.0992216
0.103239
0.090867
0.0614458
0.0659875
0.0683173
0.0646651
0.0598308
0.0571452
0.0598781
0.10204
0.400241
0.18677
0.0982348
0.118803
0.136946
0.142465
0.133456
0.114581
0.099221
0.0997698
0.103786
0.0912843
0.0617797
0.0652379
0.0677125
0.0642881
0.0596524
0.0569766
0.059395
0.101425
0.402863
0.185315
0.0985009
0.119355
0.137451
0.142821
0.133656
0.114753
0.0995754
0.100324
0.104356
0.0917618
0.0620742
0.0644885
0.0670857
0.0638996
0.0594613
0.0567791
0.0588015
0.100479
0.405583
0.183837
0.0988373
0.119912
0.137962
0.143183
0.133867
0.114937
0.0999387
0.100886
0.104947
0.0922889
0.0623721
0.0637266
0.0664374
0.0634977
0.0592487
0.0565359
0.0580379
0.0990396
0.408491
0.182353
0.0992074
0.120477
0.13848
0.143552
0.134086
0.115132
0.100311
0.101457
0.10556
0.09286
0.062712
0.0629447
0.0657661
0.0630777
0.0590009
0.0562205
0.0570211
0.0970031
0.411722
0.180874
0.099586
0.121048
0.139004
0.143927
0.134312
0.115337
0.100693
0.102042
0.106198
0.0934717
0.063119
0.0621369
0.0650655
0.0626291
0.0586969
0.0557917
0.0556514
0.0944593
0.415431
0.179401
0.0999734
0.121629
0.139535
0.144309
0.134547
0.115552
0.101087
0.102644
0.106865
0.0941216
0.0635921
0.0612875
0.0643191
0.0621301
0.0583026
0.0551875
0.0538577
0.0934472
0.419243
0.177932
0.100371
0.122218
0.140075
0.144699
0.13479
0.115777
0.101492
0.103263
0.107561
0.0948091
0.06411
0.0603579
0.0634936
0.061543
0.0577651
0.0543177
0.051735
0.0943615
0.423133
0.17647
0.100779
0.122819
0.140624
0.145096
0.135043
0.116013
0.101908
0.103901
0.108293
0.0955384
0.0646478
0.0592854
0.0625344
0.0608065
0.0570067
0.0530738
0.0502601
0.0971882
0.427095
0.175013
0.101199
0.123431
0.141183
0.145503
0.135305
0.11626
0.102335
0.104559
0.109065
0.0963227
0.0652054
0.0580005
0.0613674
0.0598367
0.0559317
0.05149
0.0500067
0.101959
0.431118
0.173563
0.10163
0.124054
0.141753
0.145919
0.135579
0.116519
0.102771
0.105237
0.109886
0.0971867
0.0658226
0.0564609
0.0599152
0.0585486
0.0545188
0.0498766
0.05134
0.108595
0.435193
0.172119
0.102073
0.124688
0.142332
0.146345
0.135864
0.116793
0.103216
0.105935
0.110766
0.098166
0.0665721
0.0547036
0.0581408
0.0569125
0.0528929
0.0487349
0.0544585
0.116944
0.439307
0.170682
0.102527
0.125334
0.142922
0.146782
0.136164
0.117082
0.10367
0.106652
0.111717
0.0993031
0.0675516
0.0529108
0.0561273
0.0550475
0.0513866
0.0486208
0.0594039
0.126804
0.443445
0.169251
0.102992
0.125991
0.143522
0.14723
0.136481
0.117389
0.10413
0.107389
0.112753
0.100645
0.0688844
0.0514489
0.0541601
0.0532958
0.0505059
0.0499941
0.0661076
0.137942
0.447592
0.167827
0.103466
0.126656
0.144131
0.147692
0.136818
0.117718
0.104597
0.108141
0.113885
0.102239
0.0707166
0.0508152
0.0527294
0.0521898
0.0507819
0.0531197
0.0744269
0.150112
0.45173
0.166411
0.103951
0.127331
0.144751
0.148168
0.137177
0.118072
0.10507
0.108907
0.11512
0.10413
0.073197
0.0514891
0.0524008
0.0522901
0.0526101
0.0580667
0.0841671
0.163059
0.455839
0.165002
0.104444
0.128015
0.145381
0.14866
0.137563
0.118455
0.105549
0.109679
0.11646
0.106353
0.0764416
0.0537815
0.0536274
0.0540029
0.0561767
0.0647541
0.0950964
0.176531
0.4599
0.163601
0.104946
0.128707
0.146022
0.14917
0.137978
0.118872
0.106034
0.110446
0.117899
0.10892
0.0805007
0.0577729
0.0566304
0.0574966
0.0614743
0.072997
0.106959
0.190284
0.463891
0.162209
0.105457
0.129407
0.146674
0.149699
0.138425
0.119325
0.106526
0.111199
0.119419
0.111816
0.0853445
0.0633402
0.061392
0.0627219
0.068353
0.0825434
0.11949
0.204094
0.467791
0.160825
0.105977
0.130115
0.147336
0.150248
0.138906
0.119819
0.107026
0.111924
0.120995
0.114994
0.0908667
0.0702219
0.0677124
0.0694754
0.0765708