/*--------------------------------*- C++ -*----------------------------------*\
  =========                 |
  \\      /  F ield         | OpenFOAM: The Open Source CFD Toolbox
   \\    /   O peration     | Website:  https://openfoam.org
    \\  /    A nd           | Version:  8
     \\/     M anipulation  |
\*---------------------------------------------------------------------------*/
FoamFile
{
    version     2.0;
    format      ascii;
    class       volScalarField;
    location    "1000";
    object      epsilon;
}
// * * * * * * * * * * * * * * * * * * * * * * * * * * * * * * * * * * * * * //

dimensions      [0 2 -3 0 0 0 0];

internalField   nonuniform List<scalar> 
8400
(
0.0673686
0.0684997
0.0695158
0.0703586
0.0710185
0.0714868
0.0717751
0.0718956
0.0718795
0.071763
0.071571
0.0713197
0.0710021
0.0705818
0.0700064
0.0692273
0.0682054
0.0669299
0.0654154
0.0636966
0.0618302
0.0598833
0.0579205
0.0560178
0.0542555
0.0526821
0.0513058
0.05011
0.0490809
0.0481806
0.0472083
0.0449354
0.0418144
0.0398261
0.0384544
0.03743
0.0366382
0.0360354
0.0355929
0.0352943
0.0351319
0.035102
0.0352028
0.0354305
0.0357818
0.0362569
0.0368572
0.0375867
0.0384567
0.0394942
0.050097
0.0533592
0.0566875
0.0600302
0.063336
0.0665483
0.0696162
0.0724926
0.0751412
0.0775459
0.0797006
0.0816019
0.0832386
0.0845721
0.0855214
0.085984
0.0858437
0.0850026
0.0834138
0.0810956
0.0781311
0.0746798
0.0709747
0.0672777
0.0638009
0.0606616
0.0579085
0.0555317
0.0534229
0.0513998
0.0493864
0.0470969
0.0437861
0.040309
0.0374137
0.0350092
0.0329498
0.0311461
0.0295349
0.0280785
0.0267524
0.0255386
0.0244264
0.0234095
0.0224815
0.0216381
0.020876
0.0201907
0.0195781
0.0190358
0.0443085
0.0482361
0.052472
0.0569943
0.0617719
0.0667574
0.0718869
0.0770843
0.0822636
0.0873403
0.0922439
0.0969147
0.101302
0.105351
0.108963
0.111984
0.114182
0.115268
0.114933
0.112944
0.109227
0.103915
0.0973574
0.0901205
0.0828592
0.0761021
0.0701199
0.0649603
0.0605277
0.0566779
0.0533202
0.0503996
0.0475626
0.0443314
0.0411555
0.0384174
0.0360809
0.034044
0.0322255
0.0305862
0.0290849
0.0276917
0.0263887
0.0251685
0.0240297
0.0229688
0.0219805
0.0210617
0.0202084
0.0194171
0.0332208
0.036458
0.0400926
0.0441493
0.048653
0.0536154
0.0590374
0.0649015
0.0711743
0.0778086
0.084754
0.0919615
0.0993886
0.106986
0.11467
0.122278
0.129509
0.135886
0.140743
0.143302
0.142809
0.138766
0.131218
0.120944
0.109287
0.097652
0.0869982
0.0777426
0.0699639
0.0635392
0.058287
0.05401
0.0505261
0.0475358
0.0445905
0.0417889
0.039311
0.037141
0.035198
0.0334592
0.0318635
0.0303632
0.0289437
0.0276038
0.0263441
0.0251614
0.0240465
0.0229904
0.0219869
0.0210272
0.0230334
0.0250099
0.0273022
0.0299525
0.0330142
0.0365411
0.0405924
0.0452245
0.0504962
0.0564679
0.0632003
0.07076
0.0792308
0.0886978
0.0992326
0.110835
0.123372
0.136456
0.149304
0.160674
0.168899
0.172119
0.168888
0.159064
0.144265
0.127269
0.110629
0.0957997
0.0833138
0.0731762
0.0651597
0.0589201
0.0540976
0.0503706
0.047415
0.0447642
0.0423012
0.0401031
0.0380881
0.0362845
0.0346478
0.0330993
0.0316155
0.030209
0.02888
0.0276207
0.0264239
0.0252718
0.0241577
0.0230702
0.0166131
0.0175217
0.0186099
0.019912
0.0214712
0.0233413
0.0255889
0.0282927
0.0315479
0.0354714
0.0402052
0.0459227
0.0528459
0.0612409
0.0714265
0.0837298
0.0984246
0.115623
0.135079
0.15591
0.176238
0.192914
0.201894
0.19994
0.186898
0.166321
0.143207
0.121243
0.102276
0.0868624
0.074863
0.0657893
0.0590148
0.0539479
0.0501259
0.0471703
0.0447803
0.0426873
0.0406946
0.0388879
0.0372789
0.0357493
0.0342322
0.0327724
0.0313921
0.0300687
0.0287897
0.0275396
0.0263156
0.0250864
0.0137311
0.0140243
0.0143941
0.0148596
0.015444
0.0161811
0.0171131
0.0182986
0.0198127
0.0217546
0.024259
0.0275055
0.0317445
0.037307
0.044626
0.0542509
0.0668362
0.0831024
0.103735
0.129118
0.158738
0.190123
0.217723
0.233684
0.232153
0.214108
0.186562
0.156822
0.129511
0.10675
0.0889942
0.0757559
0.0661202
0.0591326
0.0540039
0.0501475
0.047163
0.0447755
0.042781
0.0410437
0.039497
0.038054
0.0365766
0.0350994
0.0336774
0.0323032
0.0309686
0.0296479
0.0283207
0.0269278
0.0129295
0.0129707
0.0130381
0.0131362
0.013274
0.0134658
0.0137301
0.0140966
0.0146072
0.0153224
0.0163302
0.0177538
0.0197721
0.0226503
0.0267567
0.0326025
0.0408829
0.0525315
0.0688185
0.0913648
0.121876
0.161052
0.205864
0.246635
0.26931
0.265775
0.240737
0.205105
0.168236
0.135695
0.109729
0.0903679
0.0764647
0.0666217
0.0596136
0.0545101
0.0506718
0.0476777
0.0452652
0.04324
0.0414644
0.0398509
0.0383401
0.0368956
0.0355015
0.0341474
0.0328142
0.031471
0.0300736
0.0285527
0.0129041
0.0128733
0.012856
0.0128507
0.0128567
0.0128729
0.0129074
0.0129685
0.0130682
0.0132379
0.0135193
0.0139899
0.0147506
0.0159702
0.0178943
0.0208745
0.0253991
0.0321557
0.0422577
0.0575024
0.0807414
0.115944
0.166158
0.227462
0.282615
0.309306
0.300728
0.266785
0.222032
0.177866
0.140615
0.112262
0.0919054
0.0776783
0.0677747
0.060791
0.0557402
0.0519434
0.0489758
0.046559
0.0444913
0.0426543
0.040971
0.0393811
0.0378563
0.0363732
0.0349013
0.0334138
0.0318737
0.0302402
0.0130268
0.0129797
0.012939
0.0129129
0.0128953
0.0128764
0.0128671
0.0128678
0.0128648
0.0128867
0.0129259
0.0130299
0.0132589
0.0137105
0.0145396
0.0159781
0.0183276
0.0219356
0.0274311
0.0359307
0.0496293
0.0729469
0.113222
0.177406
0.258803
0.32736
0.354946
0.338489
0.293407
0.23828
0.186727
0.145537
0.11544
0.094427
0.0799928
0.070035
0.0630513
0.0579965
0.0541976
0.0512304
0.0487953
0.0467078
0.0448567
0.0431572
0.0415537
0.0400065
0.0384742
0.0369295
0.0353552
0.0337295
0.0131206
0.0130736
0.0130353
0.0130044
0.0129757
0.0129541
0.0129375
0.0129289
0.012913
0.0129085
0.0129175
0.0129454
0.0130285
0.0132218
0.0136233
0.0144087
0.0157958
0.0179308
0.021106
0.0257804
0.0329204
0.0450863
0.0685804
0.11581
0.198903
0.302471
0.382698
0.407879
0.380227
0.321526
0.254992
0.196781
0.152334
0.120719
0.0989808
0.0841417
0.0739334
0.0667606
0.0615641
0.0576777
0.0546597
0.0522123
0.050138
0.0483053
0.0466256
0.0450451
0.0435203
0.0420084
0.0404807
0.0389143
0.0131415
0.0131125
0.0130851
0.0130601
0.0130358
0.0130156
0.0130003
0.0129833
0.0129721
0.0129651
0.0129702
0.0129959
0.0130698
0.0132421
0.0135889
0.0142114
0.0152314
0.0167895
0.0190434
0.0221822
0.0264849
0.0327581
0.0439582
0.068665
0.127084
0.233854
0.361586
0.451697
0.470964
0.428495
0.353169
0.275421
0.21109
0.163325
0.129801
0.10679
0.0910259
0.0801209
0.0724305
0.066872
0.0627349
0.0595493
0.057002
0.0548901
0.0530703
0.0514367
0.0499195
0.0484654
0.0470315
0.0455829
0.0131502
0.0131298
0.0131094
0.0130903
0.0130723
0.0130533
0.0130402
0.0130248
0.0130161
0.013015
0.013028
0.0130703
0.0131682
0.0133636
0.0137174
0.0143077
0.0152272
0.0165824
0.0184941
0.0211036
0.0246092
0.0293016
0.0358457
0.0473632
0.076273
0.1503
0.285299
0.439535
0.538562
0.549423
0.486508
0.393705
0.305136
0.234025
0.181831
0.145158
0.119763
0.102157
0.0898146
0.0810205
0.0746295
0.0698802
0.0662536
0.0634025
0.0610982
0.0591758
0.0575136
0.0560221
0.054634
0.0532957
0.0131554
0.0131399
0.013124
0.0131085
0.0130943
0.0130802
0.0130694
0.0130624
0.0130642
0.0130814
0.0131255
0.0132136
0.0133727
0.0136389
0.0140578
0.0146843
0.0155824
0.0168277
0.0185098
0.0207331
0.0236291
0.0273838
0.0323666
0.0400453
0.0563062
0.0970563
0.188072
0.355537
0.541008
0.653751
0.649017
0.562699
0.452999
0.352317
0.272369
0.213472
0.171471
0.141799
0.12075
0.105666
0.0947014
0.0865999
0.0805081
0.0758417
0.0721957
0.0692873
0.0669128
0.0649249
0.0632171
0.0617071
0.0131585
0.013146
0.0131332
0.0131208
0.0131081
0.0131011
0.0131025
0.0131209
0.0131673
0.0132521
0.0133885
0.0135926
0.0138845
0.0142866
0.0148244
0.0155302
0.016449
0.0176387
0.0191692
0.0211236
0.0235912
0.0266794
0.0305643
0.0359514
0.0458221
0.0693378
0.124993
0.239986
0.443852
0.681946
0.806787
0.781097
0.674699
0.547134
0.431054
0.338488
0.269015
0.218184
0.181141
0.154007
0.133929
0.118874
0.107422
0.0985757
0.0916337
0.0860961
0.0816036
0.0778999
0.0748008
0.0721717
0.0131608
0.0131506
0.0131404
0.0131307
0.013125
0.0131508
0.0132339
0.0133923
0.0136396
0.0139727
0.0143832
0.0148609
0.015397
0.0159881
0.0166449
0.0173919
0.0182852
0.019397
0.020798
0.022577
0.0248035
0.0275276
0.0307677
0.034755
0.0408984
0.0540765
0.0851384
0.154178
0.292213
0.564718
0.879423
1.00911
0.974869
0.852534
0.704076
0.568298
0.457527
0.372008
0.306959
0.257562
0.219849
0.19077
0.16807
0.150098
0.135653
0.123854
0.114058
0.105796
0.0987223
0.0925812
0.0131616
0.0131524
0.013144
0.0131369
0.0132053
0.0135989
0.0143006
0.0152717
0.0164215
0.0176219
0.0187523
0.0197127
0.0204382
0.0209801
0.0215926
0.0222919
0.0230856
0.0239806
0.0249824
0.0265276
0.0287873
0.03168
0.0349541
0.0384254
0.0425719
0.0497263
0.0655945
0.102228
0.178166
0.342529
0.74435
1.12569
1.29594
1.27995
1.14569
0.978747
0.819206
0.685466
0.577197
0.490612
0.421449
0.365932
0.320958
0.284091
0.253453
0.227597
0.205418
0.186072
0.168908
0.153408
0.0131651
0.0131616
0.013162
0.0131728
0.0143833
0.0190349
0.0241865
0.0297866
0.0344497
0.0377675
0.0397336
0.0407281
0.0415876
0.0424914
0.0432004
0.0438179
0.0445106
0.0455162
0.0470946
0.0489264
0.0508706
0.0528983
0.0550359
0.0576275
0.0619238
0.0703275
0.087948
0.123539
0.186994
0.283505
0.475083
0.917305
1.42477
1.73494
1.76563
1.65907
1.4829
1.30998
1.15527
1.02181
0.90829
0.812023
0.730088
0.659796
0.59882
0.545199
0.497292
0.45371
0.41329
0.374939
0.0132752
0.013418
0.0136328
0.0140576
0.0936786
0.33433
0.302453
0.25022
0.199315
0.152175
0.11043
0.0761371
0.0525162
0.0468376
0.0457165
0.0458067
0.0466132
0.0478083
0.0492927
0.0509977
0.0528226
0.0546588
0.0565103
0.0592302
0.0651395
0.0785748
0.103752
0.145431
0.207251
0.288939
0.389424
0.564226
0.951845
1.83634
2.33635
2.61661
2.5831
2.47149
2.33551
2.19743
2.06618
1.94489
1.83403
1.73282
1.63999
1.55402
1.4732
1.39568
1.31959
1.24285
0.635004
0.677397
0.724529
0.744528
0.708524
0.626971
0.540788
0.458921
0.384043
0.317381
0.259452
0.210244
0.169387
0.136618
0.114928
0.102081
0.0946456
0.0909056
0.0907882
0.0950747
0.10464
0.119367
0.136083
0.14963
0.159002
0.165364
0.174264
0.193339
0.261896
0.346715
0.450401
0.583726
0.778132
1.10237
1.72399
3.47359
4.10055
4.44156
4.65148
4.79018
4.88503
4.95055
4.99517
5.02404
5.04048
5.04683
5.04451
5.03459
5.01788
4.99481
1.14672
1.10483
1.06571
1.02912
0.994701
0.962133
0.931147
0.901632
0.873499
0.846659
0.821038
0.796566
0.77318
0.750826
0.729449
0.709001
0.689434
0.670704
0.65277
0.635594
0.619141
0.603374
0.588259
0.573765
0.559859
0.546512
0.533696
0.521383
0.509546
0.498162
0.487206
0.476657
0.466494
0.456697
0.447251
0.438141
0.429354
0.420877
0.412699
0.404783
0.397093
0.389611
0.382321
0.375208
0.368252
0.361427
0.354697
0.348003
0.341241
0.334201
1.12232
1.04708
0.978344
0.915404
0.857806
0.805076
0.756782
0.712448
0.671665
0.634074
0.599363
0.567254
0.537499
0.509883
0.484212
0.460317
0.438046
0.417264
0.397848
0.379689
0.362687
0.346751
0.331796
0.317746
0.304533
0.292092
0.280365
0.269298
0.258842
0.248951
0.239583
0.2307
0.222267
0.214253
0.206626
0.199358
0.192424
0.185799
0.179459
0.173403
0.167629
0.16212
0.156863
0.151842
0.147044
0.142456
0.138065
0.13386
0.129824
0.125937
1.12216
1.04673
0.977674
0.914475
0.856563
0.80343
0.754605
0.709661
0.668214
0.629929
0.59451
0.561691
0.531239
0.502945
0.47662
0.452097
0.429228
0.407877
0.387922
0.369254
0.351773
0.335386
0.320009
0.305567
0.29199
0.279214
0.267181
0.255835
0.245128
0.235014
0.22545
0.216399
0.207827
0.1997
0.191993
0.184679
0.177732
0.171131
0.164854
0.158882
0.153196
0.147782
0.142624
0.13771
0.133028
0.128566
0.124313
0.120256
0.116391
0.112716
1.12214
1.04715
0.978654
0.91598
0.858505
0.805696
0.757089
0.712273
0.670886
0.632607
0.597151
0.564266
0.533725
0.505326
0.478886
0.454244
0.431251
0.409777
0.389699
0.37091
0.353309
0.336805
0.321316
0.306765
0.293084
0.280208
0.268079
0.256642
0.245849
0.235652
0.226012
0.216889
0.20825
0.200062
0.192297
0.184928
0.17793
0.17128
0.164957
0.158942
0.153216
0.147763
0.142568
0.13762
0.132906
0.128416
0.124138
0.120059
0.116163
0.112451
1.12216
1.04715
0.978584
0.915806
0.858226
0.805321
0.756634
0.711759
0.670335
0.632039
0.596583
0.563711
0.533193
0.504824
0.478421
0.453818
0.430867
0.409434
0.389398
0.370648
0.353085
0.336617
0.321161
0.306641
0.292988
0.280139
0.268033
0.256617
0.245842
0.235662
0.226037
0.216928
0.208301
0.200125
0.19237
0.185011
0.178021
0.171379
0.165062
0.159052
0.153329
0.147878
0.142685
0.137735
0.133018
0.128522
0.124239
0.120157
0.116259
0.112538
1.12218
1.04722
0.978729
0.916032
0.858542
0.805733
0.757139
0.712348
0.670996
0.632759
0.597351
0.564514
0.534021
0.505669
0.479273
0.454671
0.431715
0.410273
0.390222
0.371454
0.353869
0.337377
0.321896
0.30735
0.293669
0.28079
0.268655
0.25721
0.246405
0.236196
0.226543
0.217407
0.208754
0.200554
0.192776
0.185394
0.178383
0.17172
0.165383
0.159353
0.153611
0.148141
0.142928
0.13796
0.133223
0.128706
0.124399
0.120293
0.116372
0.112628
1.12218
1.04725
0.978779
0.91609
0.858593
0.805766
0.757147
0.712327
0.670944
0.632677
0.597242
0.564383
0.533872
0.505507
0.479103
0.454497
0.431541
0.4101
0.390053
0.37129
0.353711
0.337226
0.321751
0.307211
0.293535
0.280661
0.268529
0.257087
0.246285
0.23608
0.22643
0.217298
0.208649
0.200453
0.19268
0.185302
0.178296
0.171637
0.165304
0.159277
0.153537
0.148069
0.142857
0.137888
0.133151
0.128633
0.124324
0.120212
0.116287
0.112536
1.12217
1.04725
0.978794
0.916125
0.858648
0.805841
0.757241
0.712441
0.671077
0.63283
0.597413
0.564573
0.53408
0.505732
0.479343
0.454751
0.431806
0.410374
0.390333
0.371575
0.353999
0.337513
0.322035
0.307489
0.293805
0.280921
0.268778
0.257324
0.24651
0.236292
0.22663
0.217486
0.208826
0.200618
0.192834
0.185446
0.17843
0.171761
0.165418
0.159381
0.15363
0.14815
0.142925
0.137944
0.133193
0.128662
0.124338
0.120211
0.11627
0.112503
1.12217
1.04724
0.978786
0.916122
0.85865
0.805844
0.757242
0.712436
0.671066
0.632812
0.597389
0.564542
0.534044
0.505691
0.4793
0.454705
0.431758
0.410326
0.390286
0.371528
0.353952
0.337465
0.321985
0.307435
0.293748
0.280859
0.268712
0.257254
0.246437
0.236216
0.226551
0.217405
0.208743
0.200535
0.192751
0.185363
0.178347
0.171679
0.165336
0.159298
0.153546
0.148064
0.142838
0.137853
0.133098
0.128562
0.124233
0.1201
0.116151
0.112376
1.12217
1.04724
0.97878
0.916116
0.858643
0.805836
0.757233
0.712428
0.671059
0.632809
0.597391
0.564552
0.534063
0.505719
0.479337
0.454751
0.431814
0.41039
0.390358
0.371605
0.354032
0.337546
0.322065
0.307513
0.293822
0.280928
0.268776
0.257312
0.246488
0.236261
0.22659
0.217437
0.20877
0.200557
0.192768
0.185376
0.178356
0.171683
0.165334
0.159291
0.153534
0.148046
0.142812
0.13782
0.133056
0.12851
0.124171
0.120026
0.116066
0.112279
1.12217
1.04724
0.97878
0.916111
0.858632
0.805819
0.757211
0.712401
0.671031
0.632781
0.597365
0.56453
0.534045
0.505707
0.479331
0.454752
0.431821
0.410403
0.390375
0.371625
0.354052
0.337566
0.322082
0.307527
0.293832
0.280934
0.268777
0.257307
0.246477
0.236244
0.226567
0.217411
0.208739
0.200523
0.192731
0.185336
0.178312
0.171635
0.165284
0.159236
0.153475
0.147982
0.142744
0.137745
0.132975
0.128421
0.124073
0.119919
0.11595
0.112154
1.12217
1.04724
0.978776
0.916101
0.858614
0.805792
0.757175
0.712359
0.670984
0.632731
0.597314
0.564478
0.533994
0.505657
0.479283
0.454707
0.431779
0.410363
0.390336
0.371586
0.354012
0.337523
0.322038
0.30748
0.293781
0.280879
0.268716
0.257242
0.246407
0.23617
0.22649
0.217331
0.208658
0.20044
0.192647
0.18525
0.178226
0.171548
0.165195
0.159147
0.153384
0.147889
0.142647
0.137644
0.132869
0.12831
0.123956
0.119797
0.115821
0.112018
1.12217
1.04723
0.978767
0.916082
0.858586
0.805757
0.757137
0.712322
0.670952
0.632706
0.597299
0.564474
0.534003
0.50568
0.479319
0.454756
0.431839
0.410432
0.390411
0.371665
0.354094
0.337606
0.32212
0.307559
0.293856
0.280947
0.268778
0.257296
0.246455
0.236212
0.226525
0.21736
0.208681
0.200456
0.192657
0.185255
0.178224
0.17154
0.165181
0.159126
0.153355
0.147853
0.142603
0.137592
0.132807
0.128239
0.123875
0.119705
0.115719
0.111905
1.12217
1.04723
0.978744
0.91604
0.858521
0.80567
0.757027
0.712189
0.670797
0.632531
0.597106
0.564266
0.533783
0.50545
0.479083
0.454515
0.431594
0.410185
0.390163
0.371417
0.353846
0.33736
0.321874
0.307313
0.29361
0.280703
0.268535
0.257056
0.246218
0.235978
0.226296
0.217135
0.208461
0.200241
0.192447
0.185051
0.178025
0.171347
0.164992
0.158941
0.153173
0.147673
0.142425
0.137415
0.132632
0.128063
0.123699
0.119528
0.11554
0.111723
1.12217
1.04722
0.978715
0.915999
0.85848
0.805639
0.757015
0.712202
0.670837
0.632599
0.5972
0.564385
0.533923
0.505609
0.479257
0.4547
0.431787
0.410382
0.390362
0.371614
0.354039
0.337545
0.32205
0.307478
0.293763
0.280843
0.268663
0.257171
0.246321
0.236069
0.226374
0.217201
0.208516
0.200286
0.192482
0.185076
0.17804
0.171351
0.164986
0.158924
0.153146
0.147635
0.142376
0.137355
0.132561
0.127981
0.123604
0.119421
0.115419
0.111588
1.12217
1.04717
0.978592
0.915777
0.858151
0.805203
0.75648
0.71158
0.670142
0.631845
0.596403
0.563558
0.533079
0.504758
0.478407
0.453858
0.430958
0.409571
0.38957
0.370844
0.353291
0.33682
0.321347
0.306798
0.293106
0.280209
0.268052
0.256582
0.245752
0.235521
0.225847
0.216694
0.208029
0.199819
0.192034
0.184645
0.177626
0.170953
0.164602
0.158553
0.152787
0.147287
0.142038
0.137026
0.132239
0.127666
0.123296
0.119118
0.115121
0.111293
1.12217
1.04716
0.978605
0.915862
0.858328
0.80547
0.756827
0.711988
0.670592
0.63232
0.596887
0.564039
0.533546
0.505204
0.478826
0.454247
0.431314
0.409891
0.389853
0.371091
0.353501
0.336994
0.321488
0.306906
0.293184
0.280257
0.268072
0.256576
0.245723
0.235469
0.225776
0.216607
0.207926
0.199703
0.191905
0.184505
0.177476
0.170794
0.164436
0.15838
0.152609
0.147105
0.141853
0.13684
0.132054
0.127483
0.123119
0.118949
0.114965
0.111157
1.12217
1.04663
0.977484
0.914225
0.85627
0.803102
0.75425
0.709287
0.667836
0.629562
0.594169
0.561391
0.53099
0.502755
0.476496
0.452041
0.429236
0.407942
0.388034
0.369397
0.351931
0.335545
0.320155
0.305687
0.292073
0.279251
0.267166
0.255766
0.245007
0.234844
0.22524
0.216156
0.207559
0.199417
0.191699
0.184378
0.177427
0.170823
0.164543
0.158568
0.152878
0.147459
0.142297
0.137379
0.132697
0.128242
0.124007
0.119987
0.116182
0.112596
1.12227
1.04697
0.978277
0.91539
0.857807
0.805044
0.756696
0.712308
0.671482
0.633867
0.599149
0.567052
0.53733
0.509763
0.484156
0.460334
0.438137
0.417425
0.398071
0.37996
0.362991
0.347072
0.332121
0.318063
0.304831
0.292367
0.280615
0.269527
0.259058
0.249167
0.239818
0.230974
0.222604
0.214678
0.207168
0.200049
0.193296
0.186887
0.180803
0.175025
0.16954
0.164334
0.1594
0.154732
0.150328
0.146191
0.142328
0.138758
0.135522
0.132709
1.14673
1.1049
1.06579
1.02912
0.994606
0.961965
0.930938
0.901409
0.873281
0.84647
0.820898
0.796493
0.77319
0.750925
0.72964
0.709278
0.689786
0.671116
0.653223
0.636066
0.619605
0.603807
0.588638
0.574068
0.560068
0.546614
0.53368
0.521241
0.509276
0.49776
0.486671
0.475989
0.465693
0.455763
0.446178
0.436922
0.427975
0.419321
0.410943
0.402828
0.394961
0.387333
0.379931
0.372744
0.365761
0.358967
0.352346
0.345881
0.33955
0.333321
0.811997
0.0646751
0.0590783
0.0918057
0.117779
0.117321
0.0915776
0.0608812
0.0421933
0.0346739
0.0301287
0.0252194
0.0183912
0.0128973
0.0111091
0.0128798
0.0178026
0.0294798
0.10364
2.43172
0.797818
0.0641166
0.0595568
0.0927149
0.11879
0.118006
0.0917686
0.0608224
0.0422431
0.0349493
0.0305212
0.0257053
0.0191276
0.0136159
0.0111317
0.0123299
0.0167865
0.0274651
0.0972879
2.4235
0.783727
0.063528
0.0600445
0.0936414
0.119816
0.11869
0.0919427
0.0607423
0.0422829
0.0352306
0.0309263
0.0262536
0.0196523
0.0140248
0.011218
0.0121045
0.0163296
0.0265849
0.094853
2.43692
0.769877
0.0629151
0.0605418
0.0945859
0.120855
0.119373
0.0920976
0.0606389
0.0423108
0.0355126
0.0313218
0.0267041
0.0201802
0.0144429
0.0113356
0.011906
0.0158922
0.0257386
0.0925395
2.45183
0.756171
0.0622909
0.0610495
0.0955492
0.12191
0.120053
0.0922316
0.0605117
0.0423305
0.0358063
0.0317375
0.0271934
0.0207113
0.0148708
0.0114823
0.0117346
0.0154749
0.0249246
0.0903216
2.46742
0.742617
0.0616589
0.0615683
0.0965323
0.12298
0.12073
0.0923414
0.0603571
0.0423378
0.0361056
0.0321593
0.0276998
0.0212555
0.0153091
0.0116566
0.0115905
0.0150775
0.02414
0.088177
2.48311
0.729217
0.0610199
0.0620987
0.0975357
0.124066
0.121403
0.0924271
0.0601761
0.0423358
0.036414
0.0325856
0.0282012
0.021814
0.0157578
0.0118565
0.0114737
0.0147002
0.0233832
0.0860992
2.49881
0.715972
0.0603744
0.0626414
0.0985599
0.125167
0.122071
0.0924856
0.0599676
0.0423255
0.0367342
0.0330187
0.0286951
0.0223841
0.0162164
0.01208
0.0113841
0.0143436
0.0226541
0.0840866
2.51455
0.702879
0.0597236
0.0631973
0.0996057
0.126284
0.122731
0.0925157
0.0597307
0.0423078
0.0370684
0.0334607
0.0291836
0.0229581
0.016684
0.0123248
0.0113212
0.014008
0.0219524
0.0821373
2.53037
0.689936
0.0590684
0.0637667
0.100674
0.127416
0.123384
0.0925164
0.0594654
0.0422841
0.0374174
0.0339098
0.0296696
0.0235295
0.0171587
0.0125887
0.0112842
0.0136939
0.0212777
0.0802491
2.54629
0.677143
0.0584108
0.0643507
0.101763
0.128564
0.124027
0.0924868
0.0591731
0.0422576
0.0377851
0.0343646
0.0301453
0.0240951
0.0176384
0.0128693
0.0112723
0.0134014
0.0206299
0.0784206
2.56234
0.664498
0.0577529
0.06495
0.102876
0.129725
0.124661
0.0924262
0.0588543
0.0422296
0.0381744
0.0348264
0.0306074
0.0246484
0.0181202
0.0131641
0.0112842
0.0131306
0.0200086
0.0766507
2.57859
0.651999
0.0570968
0.0655656
0.104012
0.130901
0.125283
0.0923343
0.0585109
0.0422036
0.0385877
0.0352929
0.0310546
0.0251838
0.0186007
0.0134701
0.0113184
0.0128817
0.0194138
0.0749394
2.59513
0.639649
0.0564454
0.0661982
0.105171
0.132091
0.125893
0.0922107
0.0581441
0.0421823
0.0390279
0.0357617
0.0314817
0.0256964
0.0190758
0.0137845
0.0113731
0.0126543
0.0188453
0.073287
2.61207
0.627445
0.0558012
0.0668485
0.106353
0.133293
0.12649
0.092056
0.0577561
0.042169
0.0394978
0.0362296
0.0318787
0.0261793
0.0195407
0.0141037
0.0114462
0.0124481
0.018303
0.0716946
2.62956
0.615389
0.0551667
0.0675173
0.107558
0.134507
0.127073
0.0918707
0.0573493
0.0421671
0.0399999
0.0366934
0.032236
0.0266243
0.0199899
0.014424
0.0115353
0.0122626
0.0177869
0.0701636
2.64776
0.603481
0.0545448
0.0682052
0.108787
0.135732
0.127641
0.0916555
0.0569265
0.04218
0.0405367
0.0371494
0.0325436
0.0270219
0.0204168
0.0147411
0.0116378
0.012097
0.0172966
0.068696
2.66686
0.59172
0.0539382
0.0689124
0.110037
0.136967
0.128194
0.0914122
0.056491
0.0422115
0.0411106
0.0375929
0.0327896
0.027362
0.020814
0.0150504
0.0117506
0.0119503
0.0168321
0.0672945
2.68707
0.580105
0.05335
0.0696395
0.111309
0.138211
0.128731
0.0911426
0.0560463
0.0422649
0.0417236
0.0380181
0.0329587
0.0276335
0.0211735
0.0153468
0.0118705
0.0118213
0.016393
0.065962
2.70864
0.568637
0.0527829
0.0703867
0.112602
0.139462
0.129252
0.0908489
0.0555962
0.0423436
0.0423771
0.0384187
0.0330317
0.0278242
0.0214868
0.0156249
0.011994
0.0117084
0.015979
0.0647023
2.73182
0.557316
0.0522401
0.0711539
0.113915
0.14072
0.129758
0.0905338
0.0551446
0.0424509
0.043072
0.0387876
0.0329842
0.02792
0.0217449
0.0158791
0.0121174
0.0116102
0.0155895
0.0635191
2.7569
0.546139
0.0517248
0.0719412
0.115247
0.141982
0.130248
0.0902005
0.0546962
0.04259
0.0438086
0.0391181
0.0327878
0.0279048
0.0219387
0.0161035
0.0122369
0.0115247
0.0152241
0.0624167
2.78415
0.535107
0.05124
0.0727482
0.116596
0.143248
0.130724
0.0898531
0.0542561
0.0427642
0.0445868
0.0394043
0.0324114
0.0277615
0.0220592
0.0162924
0.0123484
0.0114499
0.0148818
0.0613993
2.81389
0.524221
0.0507889
0.0735745
0.11796
0.144515
0.131185
0.0894965
0.0538303
0.0429766
0.0454053
0.0396421
0.0318242
0.0274737
0.0220982
0.0164403
0.0124484
0.0113838
0.0145618
0.0604709
2.8464
0.513478
0.0503748
0.0744195
0.119338
0.145781
0.131634
0.0891365
0.0534254
0.0432305
0.0462625
0.0398303
0.0309981
0.0270278
0.0220493
0.0165425
0.0125331
0.0113242
0.014263
0.0596348
2.88195
0.50288
0.050001
0.0752825
0.120727
0.147045
0.132072
0.0887801
0.0530489
0.0435285
0.0471553
0.0399711
0.0299126
0.0264164
0.021909
0.0165957
0.0125996
0.0112689
0.0139842
0.058894
2.92078
0.492427
0.0496708
0.0761626
0.122126
0.148306
0.132503
0.0884351
0.0527088
0.0438729
0.0480797
0.040071
0.0285612
0.0256417
0.0216777
0.0165982
0.0126459
0.0112163
0.0137239
0.0582502
2.96312
0.48212
0.0493871
0.0770588
0.123531
0.149561
0.132929
0.0881098
0.052413
0.0442652
0.0490305
0.0401414
0.0269595
0.0247194
0.0213614
0.0165505
0.0126706
0.0111646
0.0134806
0.057704
3.0091
0.471959
0.0491528
0.07797
0.124941
0.150809
0.133354
0.0878129
0.0521695
0.0447058
0.0500018
0.0401983
0.025151
0.0236811
0.0209717
0.0164559
0.0126738
0.0111126
0.013253
0.0572553
3.05885
0.461945
0.0489701
0.078895
0.126354
0.15205
0.133781
0.087553
0.0519855
0.0451943
0.0509872
0.0402617
0.0232095
0.0225727
0.0205251
0.0163197
0.0126566
0.0110596
0.0130397
0.0569033
3.11244
0.452077
0.0488408
0.0798325
0.127766
0.153282
0.134216
0.0873385
0.0518675
0.0457291
0.0519807
0.0403536
0.0212344
0.0214475
0.0200405
0.016149
0.0126212
0.0110051
0.0128393
0.0566472
3.16991
0.442357
0.048766
0.0807816
0.129177
0.154504
0.134661
0.0871767
0.0518203
0.0463078
0.0529766
0.0404953
0.0193399
0.0203553
0.0195354
0.0159511
0.0125697
0.010949
0.012651
0.056487
3.23131
0.432785
0.0487465
0.0817411
0.130584
0.155717
0.135121
0.087074
0.0518474
0.046927
0.0539705
0.0407059
0.0176412
0.0193336
0.0190239
0.0157328
0.0125047
0.0108912
0.0124741
0.0564241
3.29668
0.42336
0.0487822
0.0827103
0.131988
0.156922
0.135601
0.0870354
0.0519507
0.0475829
0.0549592
0.0409999
0.0162423
0.0184043
0.0185158
0.0154993
0.0124282
0.0108321
0.0123082
0.056463
3.36609
0.414082
0.0488728
0.0836886
0.133386
0.158118
0.136102
0.0870643
0.0521304
0.0482713
0.0559405
0.0413875
0.0152287
0.0175741
0.0180183
0.0152547
0.0123421
0.0107718
0.0121539
0.0566118
3.43965
0.404951
0.0490173
0.0846756
0.13478
0.159307
0.136628
0.0871628
0.0523854
0.0489882
0.0569135
0.0418745
0.0146643
0.0168374
0.0175364
0.0150027
0.0122482
0.010711
0.012012
0.0568854
3.51751
0.395967
0.0492145
0.0856715
0.13617
0.16049
0.137181
0.0873317
0.0527135
0.0497299
0.057878
0.0424622
0.0145984
0.0161744
0.0170676
0.014746
0.0121484
0.0106505
0.0118847
0.0573087
3.59989
0.38713
0.0494626
0.0866763
0.137556
0.16167
0.137763
0.0875702
0.0531116
0.0504929
0.0588415
0.043158
0.014996
0.0155523
0.016604
0.0144888
0.0120445
0.0105918
0.0117761
0.0579244
3.68712
0.378438
0.0497599
0.0876907
0.138939
0.162847
0.138375
0.0878986
0.0535567
0.0512556
0.0598763
0.0440294
0.015399
0.0149658
0.0161413
0.0142349
0.0119389
0.0105366
0.0116925
0.0588048
3.77966
0.369891
0.0501047
0.0887153
0.140318
0.164037
0.139059
0.0882852
0.054019
0.0520185
0.0609763
0.0450473
0.0158384
0.0144138
0.0156837
0.013983
0.0118349
0.0104878
0.0116449
0.0600717
3.87813
0.361487
0.0504892
0.0897452
0.141701
0.165264
0.139804
0.0887246
0.0544972
0.0527829
0.0621354
0.0461894
0.016333
0.0138951
0.0152354
0.0137354
0.011734
0.0104498
0.0116513
0.0619236
3.98321
0.353225
0.0509088
0.09078
0.1431
0.16653
0.140608
0.0892137
0.0549906
0.0535496
0.0633492
0.0474422
0.0168941
0.0134094
0.0148
0.0134945
0.0116389
0.010429
0.0117411
0.064702
4.09544
0.34515
0.0513364
0.0918212
0.144515
0.167833
0.141469
0.0897507
0.0554985
0.0543187
0.0646159
0.0488034
0.0175311
0.0129578
0.0143814
0.0132635
0.0115541
0.0104362
0.0119628
0.0689946
4.21472
0.337262
0.0517693
0.09287
0.14595
0.169177
0.142388
0.090335
0.0560209
0.0550894
0.0659371
0.0502826
0.0182572
0.0125441
0.0139842
0.0130467
0.0114871
0.0104885
0.0123981
0.0757471
4.33988
0.329554
0.0522079
0.0939276
0.147405
0.170563
0.143365
0.0909678
0.0565575
0.0558597
0.0673168
0.051902
0.019095
0.0121763
0.0136155
0.0128512
0.0114505
0.0106138
0.0131879
0.0864017
4.46839
0.322021
0.0526524
0.0949949
0.148883
0.171992
0.144405
0.0916514
0.0571084
0.0566269
0.0687612
0.0536949
0.0200798
0.0118694
0.0132869
0.012689
0.0114652
0.0108589
0.014574
0.101951
4.5999
0.314658
0.053103
0.0960726
0.150384
0.173468
0.14551
0.0923895
0.0576739
0.0573869
0.0702767
0.0557034
0.0212616
0.0116489
0.0130178
0.012581
0.0115663
0.011304
0.0169492
0.123532
4.734
0.30746
0.0535599
0.0971614
0.15191
0.174994
0.146685
0.0931864
0.0582542
0.0581343
0.0718688
0.0579765
0.022707
0.0115563
0.0128406
0.0125633
0.011813
0.0120895
0.0207853
0.152497
4.87022
0.300423
0.0540234
0.0982619
0.153463
0.176571
0.147936
0.094047
0.0588498
0.0588626
0.0735404
0.0605665
0.0245014
0.0116558
0.0128088
0.0126963
0.0123047
0.0134318
0.0267115
0.190236
5.00799
0.293543
0.0544936
0.099375
0.155044
0.178205
0.149267
0.0949765
0.0594612
0.0595639
0.0752896
0.0635265
0.0267522
0.0120443
0.0130064
0.0130776
0.0131937
0.0156405
0.0355387
0.238043
5.14669
0.286816
0.054971
0.100502
0.156655
0.179897
0.150683
0.0959802
0.0600892
0.060229
0.0771083
0.0669058
0.0295916
0.0128645
0.0135621
0.0138567
0.0147041
0.0191458
0.0482353
0.296978
5.28562
0.280237
0.0554559
0.101643
0.158297
0.181651
0.152189
0.0970633
0.0607352
0.0608476
0.0789803
0.0707459
0.0331771
0.0143186
0.0146628
0.0152512
0.0171496
0.0245166
0.0658587
0.367713
5.42403
0.273801
0.0559489
0.1028
0.159973
0.183468
0.153788
0.0982309
0.0614011
0.0614086
0.0808803
0.0750734
0.0376832
0.0166759
0.016567
0.0175592
0.0209451
0.0324523
0.0894435
0.450425
5.56114
0.267502
0.0564508
0.103974
0.161684
0.185351
0.155483
0.0994875
0.0620896
0.0619008
0.0827717
0.0798903
0.0432823
0.0202662
0.0196073
0.0211626
0.0266012
0.0437331
0.119865
0.544721
5.69612
0.261335
0.0569624
0.105169
0.163432
0.187302
0.157276
0.100837
0.0628047
0.0623134
0.0846065
0.085162
0.0501115
0.0254432
0.0241732
0.0265076
0.0346879
0.0591267
0.157706
0.649634
5.82814
0.255292
0.0574849
0.106385
0.165221
0.189321
0.159167
0.102284
0.0635517
0.0626378
0.0863268
0.0908078
0.058233
0.0325204
0.030662
0.0340558
0.0457627
0.0792671
0.203151
0.763669
5.95635
0.249367
0.0580197
0.107627
0.167053
0.191409
0.161157
0.10383
0.0643371
0.062869
0.0878677
0.0966969
0.0676013
0.0416902
0.0394017
0.0442055
0.0602749
0.104536
0.255931
0.884901
6.0799