/*--------------------------------*- C++ -*----------------------------------*\
  =========                 |
  \\      /  F ield         | OpenFOAM: The Open Source CFD Toolbox
   \\    /   O peration     | Website:  https://openfoam.org
    \\  /    A nd           | Version:  8
     \\/     M anipulation  |
\*---------------------------------------------------------------------------*/
FoamFile
{
    version     2.0;
    format      ascii;
    class       volScalarField;
    location    "1000";
    object      k;
}
// * * * * * * * * * * * * * * * * * * * * * * * * * * * * * * * * * * * * * //

dimensions      [0 2 -2 0 0 0 0];

internalField   nonuniform List<scalar> 
8400
(
0.00950511
0.00959103
0.00966504
0.00972373
0.00976778
0.00979809
0.00981614
0.00982373
0.0098228
0.00981451
0.00979925
0.00977616
0.00974297
0.00969636
0.0096325
0.00954776
0.00944
0.00930909
0.00915667
0.0089864
0.00880271
0.00861173
0.00841852
0.00823012
0.00805253
0.00788986
0.00774639
0.00762115
0.00751426
0.00742669
0.007348
0.00725065
0.00700004
0.00666499
0.00645049
0.00630156
0.00618676
0.00609611
0.00602466
0.00596806
0.00592532
0.00589649
0.00588136
0.00587952
0.00589104
0.00591613
0.0059546
0.00600704
0.00607476
0.00616026
0.00792751
0.00823861
0.0085441
0.00884035
0.00912455
0.00939436
0.00964794
0.00988415
0.0101027
0.0103034
0.0104862
0.0106496
0.0107906
0.0109037
0.0109819
0.0110175
0.0110019
0.0109285
0.010793
0.0105969
0.0103444
0.0100482
0.00972484
0.00939339
0.0090716
0.00877113
0.00849754
0.00825391
0.00803644
0.00783636
0.00764712
0.00745915
0.00723605
0.00689379
0.00652274
0.00620813
0.00594275
0.00571049
0.00550275
0.00531316
0.00513824
0.0049755
0.00482294
0.00467973
0.00454577
0.00442075
0.00430404
0.0041956
0.00409576
0.00400434
0.00737542
0.007782
0.00819989
0.00862491
0.00905331
0.00948124
0.00990463
0.0103199
0.010724
0.0111148
0.0114911
0.0118518
0.0121949
0.0125162
0.0128068
0.0130542
0.0132411
0.0133467
0.0133495
0.0132318
0.0129846
0.0126107
0.012131
0.011579
0.0109956
0.0104192
0.0098764
0.0093795
0.00893138
0.00853016
0.00816982
0.00785005
0.00756997
0.00728088
0.0069408
0.00660514
0.00631097
0.00605551
0.00582931
0.00562429
0.0054358
0.0052592
0.00509188
0.00493285
0.00478143
0.00463704
0.00449985
0.004369
0.0042444
0.00412587
0.00603694
0.00641398
0.00681581
0.00724074
0.00768741
0.0081541
0.00863879
0.00913956
0.00965472
0.0101833
0.0107251
0.0112809
0.0118516
0.0124363
0.0130294
0.0136186
0.0141829
0.0146875
0.0150916
0.015344
0.0153972
0.0152152
0.0147898
0.0141501
0.0133616
0.0125041
0.0116443
0.0108276
0.0100805
0.00941578
0.00883687
0.00834215
0.00792786
0.00758644
0.00727866
0.00696505
0.00666537
0.00639968
0.0061625
0.00594822
0.00575364
0.00557313
0.00540065
0.00523491
0.0050756
0.00492305
0.00477726
0.00463635
0.00449985
0.00436736
0.00462211
0.00488621
0.00517745
0.00549672
0.00584573
0.00622596
0.00663926
0.00708785
0.00757446
0.00810286
0.00867784
0.00930544
0.00999294
0.0107474
0.0115735
0.0124684
0.0134198
0.0143982
0.0153534
0.016213
0.0168818
0.0172586
0.0172552
0.0168391
0.0160567
0.0150217
0.0138688
0.0127025
0.0115949
0.0105947
0.00972763
0.00900138
0.00840992
0.00793895
0.00756435
0.00725923
0.00697475
0.00671047
0.00647151
0.00625536
0.00605958
0.00587898
0.00570382
0.00553509
0.00537325
0.00521653
0.00506544
0.00491786
0.00477368
0.00463092
0.00361046
0.00374807
0.00390609
0.00408654
0.00429246
0.00452721
0.00479496
0.00510091
0.00545132
0.00585407
0.006319
0.00685836
0.00748706
0.00822212
0.00908121
0.0100808
0.0112294
0.0125235
0.0139373
0.0154114
0.0168406
0.0180665
0.0188939
0.0191512
0.0187726
0.0178401
0.0165401
0.0150655
0.0135711
0.0121689
0.010933
0.00990123
0.00907348
0.00842566
0.0079237
0.00753319
0.00722368
0.00697073
0.00674114
0.00652821
0.0063352
0.00615953
0.0059862
0.00581655
0.00565201
0.00549124
0.00533587
0.00518243
0.00502928
0.00487269
0.00311182
0.00316016
0.00321931
0.00329094
0.00337757
0.00348245
0.00360952
0.00376421
0.00395335
0.00418565
0.0044724
0.00482829
0.00527168
0.0058258
0.00651822
0.00737946
0.00844223
0.00973588
0.0112833
0.0130827
0.0150845
0.0171558
0.019047
0.0204206
0.0209795
0.0206297
0.0195243
0.0179278
0.0160985
0.0142578
0.0125708
0.0111382
0.00998893
0.00910172
0.00842996
0.00791978
0.00752524
0.00721512
0.00696305
0.00675022
0.0065646
0.00639918
0.00623164
0.00606202
0.00589656
0.00573451
0.00557787
0.00542053
0.00525863
0.00508543
0.00296484
0.00297207
0.00298351
0.00299965
0.00302156
0.00305092
0.0030902
0.00314272
0.00321345
0.00330907
0.00343869
0.00361482
0.00385432
0.00417918
0.00461759
0.00520381
0.0059789
0.00699221
0.00830339
0.00997977
0.0120756
0.0145846
0.0173527
0.0199983
0.0219713
0.0228242
0.0224777
0.0211549
0.0191969
0.0169674
0.0147746
0.0128377
0.0112611
0.0100479
0.009139
0.00846241
0.00795343
0.00756413
0.00725601
0.00700263
0.00678666
0.00659539
0.00641969
0.00625393
0.00609525
0.00593882
0.00578445
0.00562646
0.00546008
0.0052779
0.00295777
0.00295271
0.00294994
0.00294907
0.00295002
0.00295252
0.00295797
0.00296717
0.00298195
0.003006
0.0030447
0.00310636
0.00320274
0.00335135
0.00357444
0.00390163
0.00436643
0.00501074
0.00589734
0.00711778
0.00880102
0.011097
0.0140889
0.0176112
0.0210814
0.0236609
0.0247858
0.0243939
0.0227628
0.0203668
0.0176959
0.0151698
0.0130417
0.011382
0.0101407
0.0092298
0.00856078
0.00806074
0.00767594
0.00737001
0.00711696
0.00689791
0.00670123
0.00651993
0.00634728
0.00617804
0.00600895
0.00583636
0.00565649
0.00546309
0.00297773
0.00296992
0.00296364
0.0029584
0.00295595
0.00295302
0.00295179
0.00295103
0.00295126
0.00295358
0.00295953
0.00297341
0.00300199
0.00305695
0.00315513
0.00331939
0.00357513
0.00394452
0.00446546
0.00519987
0.00626249
0.00785684
0.010274
0.0137506
0.0181004
0.0224327
0.0256262
0.0270035
0.0264479
0.0243888
0.0214561
0.0183317
0.0155289
0.013276
0.011574
0.010327
0.00942064
0.00875629
0.00825992
0.00787853
0.0075747
0.00732256
0.00710375
0.00690792
0.00672614
0.00655115
0.00637836
0.00620435
0.00602603
0.00583914
0.00299244
0.00298537
0.00297976
0.00297432
0.00296999
0.00296612
0.0029633
0.00296143
0.00295952
0.0029588
0.00295953
0.00296229
0.00297191
0.00299343
0.0030382
0.00312691
0.00328134
0.00350981
0.00383166
0.00427019
0.00487275
0.00576115
0.00721549
0.00972231
0.0137322
0.0189607
0.0241909
0.0280555
0.0295583
0.0287109
0.0260602
0.0225167
0.018982
0.0159843
0.0136558
0.011926
0.0106659
0.00975119
0.00908059
0.00857917
0.00819482
0.00789084
0.00763926
0.00742274
0.00722999
0.00705221
0.00688269
0.00671534
0.00654643
0.00637272
0.00299554
0.00299102
0.00298694
0.00298308
0.00297937
0.00297617
0.00297323
0.00297085
0.00296885
0.00296748
0.00296774
0.00297076
0.00297905
0.00299813
0.00303661
0.00310537
0.00321773
0.00338708
0.003625
0.00394171
0.00434829
0.00487154
0.0056242
0.00696637
0.00961844
0.0141946
0.0202946
0.0266112
0.0310388
0.0326138
0.0312636
0.0278436
0.0236979
0.0198525
0.0167115
0.0143069
0.0125269
0.0112272
0.0102775
0.00957661
0.00905149
0.00865046
0.00833353
0.00807538
0.00785935
0.0076707
0.00749922
0.00733798
0.00718133
0.00702476
0.00299694
0.00299379
0.00299067
0.00298768
0.0029848
0.00298216
0.0029799
0.00297775
0.00297617
0.00297583
0.00297716
0.00298201
0.00299311
0.00301481
0.00305374
0.00311871
0.00322013
0.00336864
0.0035741
0.00384557
0.00419238
0.00462547
0.00516759
0.00593225
0.00734534
0.010219
0.0151862
0.0224365
0.0296974
0.0348505
0.0363464
0.0341771
0.0299137
0.0252914
0.0212029
0.0179135
0.0153972
0.0135163
0.012122
0.0110883
0.0103159
0.00973315
0.00928533
0.00893402
0.00865331
0.00842233
0.00822523
0.00805247
0.00789598
0.007749
0.00299768
0.00299528
0.00299286
0.00299057
0.00298835
0.00298623
0.00298452
0.00298362
0.002984
0.00298643
0.00299192
0.00300234
0.00302031
0.0030497
0.00309577
0.00316483
0.00326418
0.00340182
0.00358582
0.00382379
0.00412276
0.00449007
0.00493711
0.00551477
0.00643426
0.00822529
0.0116222
0.0172056
0.0250697
0.0337829
0.0398821
0.0408786
0.0376512
0.0327167
0.0277288
0.0233905
0.0198981
0.0171883
0.0151222
0.0135562
0.0123654
0.0114554
0.0107544
0.0102083
0.00977673
0.00943056
0.00914728
0.0089114
0.00871102
0.0085367
0.00299813
0.00299621
0.00299431
0.00299242
0.00299073
0.00298966
0.00299036
0.00299382
0.00300111
0.0030131
0.00303058
0.00305476
0.00308742
0.00313102
0.00318891
0.00326574
0.00336748
0.00350056
0.00367171
0.0038878
0.00415492
0.00447744
0.0048578
0.00531382
0.00594806
0.00707581
0.00926349
0.0131841
0.0194097
0.0283408
0.0396192
0.0463951
0.0463442
0.0423116
0.0369318
0.0315951
0.026963
0.0231764
0.0201688
0.0178078
0.0159565
0.0145021
0.0133537
0.0124395
0.0117036
0.0111046
0.0106118
0.0102012
0.00985456
0.00955885
0.00299851
0.00299695
0.0029954
0.00299387
0.00299426
0.00299899
0.00301428
0.00304126
0.00307921
0.00312495
0.00317497
0.00322739
0.00328214
0.00334091
0.00340646
0.00348484
0.00358393
0.00371121
0.00387392
0.0040803
0.00433655
0.00464362
0.00499396
0.00538163
0.00584481
0.0065479
0.00784717
0.0102818
0.0144997
0.0214926
0.0330374
0.0478054
0.0542261
0.0535238
0.049206
0.0434772
0.0378392
0.0328637
0.0286986
0.025282
0.0224957
0.020226
0.018372
0.0168449
0.015574
0.0145049
0.0135958
0.0128125
0.0121288
0.011525
0.00299864
0.00299728
0.002996
0.00299513
0.00302383
0.00308196
0.00319935
0.00334803
0.00350686
0.00365217
0.00376728
0.00384611
0.00389759
0.00395314
0.00401553
0.00408578
0.00416469
0.00425301
0.00437812
0.00458109
0.00486227
0.00520314
0.00557279
0.00594289
0.00631949
0.00677343
0.00749324
0.00879343
0.0111648
0.0154937
0.0236395
0.04055
0.0573245
0.0639816
0.0639559
0.0596134
0.0538942
0.0480874
0.0428451
0.0382967
0.034416
0.0311204
0.0283208
0.0259259
0.0238595
0.0220558
0.0204606
0.0190292
0.0177249
0.0165168
0.0029991
0.00299865
0.00299896
0.00300328
0.00344207
0.00392156
0.00459183
0.00518274
0.00562541
0.00590474
0.00604405
0.00614022
0.00622228
0.00627636
0.00631307
0.00635021
0.00640995
0.00651317
0.00665479
0.00680652
0.00696798
0.00714427
0.00733686
0.00754634
0.00782817
0.00820464
0.00887811
0.0101234
0.0122992
0.0159166
0.0216124
0.0296241
0.0481661
0.0670773
0.0777568
0.0788459
0.0758692
0.0707487
0.0653671
0.0602646
0.0556353
0.0514967
0.0478201
0.0445469
0.0416149
0.0389604
0.0365219
0.0342449
0.0320796
0.0299759
0.00301816
0.00304461
0.00308585
0.00329995
0.021088
0.0240531
0.0213717
0.0184532
0.015609
0.0128579
0.0102558
0.00789228
0.00662174
0.00645488
0.00647208
0.00652454
0.0066029
0.00670709
0.00683328
0.00697429
0.00712073
0.00726249
0.00739265
0.00751025
0.00826849
0.00941421
0.010105
0.0112663
0.0137372
0.0172653
0.02181
0.026706
0.0333472
0.0477376
0.0802572
0.0942893
0.101758
0.101422
0.0987601
0.0952861
0.0916315
0.0880384
0.084617
0.0813974
0.0783722
0.0755164
0.0727838
0.0701205
0.067468
0.0647608
0.0381691
0.0392503
0.0400502
0.0392682
0.036437
0.0329401
0.0294458
0.0261055
0.0229834
0.0201215
0.0175468
0.0152732
0.0133019
0.0117879
0.010828
0.01023
0.00989452
0.00984207
0.0101327
0.0108724
0.0121412
0.0137314
0.0150932
0.0159384
0.0165705
0.0172392
0.0175939
0.018
0.0188043
0.0203647
0.0243088
0.0285855
0.0337024
0.0407081
0.0524713
0.0740862
0.12054
0.136456
0.144215
0.14885
0.151897
0.153974
0.155402
0.15637
0.156988
0.157331
0.157447
0.157378
0.157145
0.156757
0.058932
0.0575017
0.0561234
0.0548094
0.0535767
0.0524116
0.0512919
0.0502072
0.0491576
0.0481455
0.047171
0.0462317
0.0453251
0.0444495
0.0436034
0.0427861
0.0419966
0.0412338
0.0404967
0.0397841
0.0390951
0.0384286
0.0377837
0.0371597
0.0365558
0.0359714
0.0354056
0.0348571
0.0343255
0.0338102
0.0333108
0.0328266
0.0323568
0.0319012
0.0314597
0.0310319
0.030617
0.0302143
0.0298229
0.0294411
0.0290679
0.0287025
0.0283441
0.0279921
0.0276453
0.0273027
0.0269626
0.0266223
0.0262763
0.0259137
0.058083
0.0554714
0.053048
0.0507513
0.0485847
0.046559
0.0446735
0.0429136
0.0412627
0.0397093
0.0382463
0.0368682
0.0355688
0.0343417
0.0331809
0.0320818
0.0310403
0.0300523
0.0291143
0.0282226
0.0273741
0.0265659
0.0257956
0.0250609
0.0243597
0.0236896
0.0230484
0.0224346
0.0218468
0.0212837
0.0207437
0.0202255
0.019728
0.0192505
0.0187916
0.0183498
0.0179235
0.0175114
0.017113
0.0167284
0.0163571
0.0159984
0.0156518
0.0153168
0.0149928
0.0146794
0.0143762
0.0140826
0.0137974
0.0135194
0.0580826
0.0554223
0.0529649
0.0506726
0.0485174
0.0464897
0.0445852
0.0427976
0.041117
0.0395338
0.0380401
0.0366291
0.0352948
0.0340317
0.032835
0.0317003
0.0306236
0.0296009
0.0286287
0.0277036
0.0268225
0.0259827
0.0251819
0.0244177
0.0236879
0.0229902
0.0223226
0.0216838
0.0210722
0.0204864
0.0199249
0.0193865
0.0188701
0.0183748
0.0178994
0.0174426
0.0170035
0.016581
0.0161744
0.0157827
0.0154051
0.0150409
0.0146895
0.0143505
0.0140235
0.0137082
0.0134045
0.0131118
0.0128295
0.0125571
0.0580972
0.0554647
0.0530081
0.0507224
0.0485843
0.0465753
0.0446841
0.0429034
0.0412263
0.0396452
0.0381526
0.0367411
0.0354048
0.0341387
0.0329386
0.0318002
0.0307195
0.0296925
0.0287158
0.027786
0.0269002
0.0260559
0.0252505
0.0244816
0.0237471
0.0230446
0.0223726
0.0217295
0.0211139
0.0205239
0.0199583
0.019416
0.0188959
0.018397
0.017918
0.0174579
0.0170156
0.0165903
0.0161809
0.0157864
0.0154061
0.0150393
0.0146853
0.0143438
0.0140143
0.0136967
0.0133908
0.013096
0.0128116
0.0125372
0.0580932
0.0554783
0.053021
0.0507237
0.0485753
0.0465608
0.0446667
0.0428838
0.0412046
0.0396219
0.0381281
0.036716
0.0353798
0.0341145
0.0329158
0.031779
0.0306999
0.0296745
0.0286995
0.0277715
0.0268876
0.0260451
0.0252414
0.0244741
0.0237409
0.0230399
0.0223694
0.0217276
0.0211129
0.0205238
0.0199591
0.0194176
0.0188984
0.0184003
0.017922
0.0174625
0.017021
0.0165964
0.0161875
0.0157934
0.0154134
0.0150468
0.0146929
0.0143514
0.0140219
0.0137042
0.0133979
0.0131025
0.0128176
0.0125427
0.0580858
0.0554751
0.0530285
0.050736
0.048589
0.0465761
0.0446855
0.0429068
0.0412314
0.0396515
0.0381596
0.0367491
0.0354146
0.034151
0.0329535
0.0318175
0.0307386
0.0297133
0.0287382
0.0278102
0.0269261
0.0260831
0.0252787
0.0245107
0.0237767
0.0230749
0.0224033
0.0217603
0.0211443
0.0205538
0.0199879
0.0194455
0.0189253
0.0184261
0.0179467
0.0174863
0.0170439
0.0166182
0.0162082
0.015813
0.0154319
0.0150642
0.0147092
0.0143664
0.0140357
0.0137167
0.013409
0.013112
0.0128254
0.012549
0.0580843
0.0554678
0.053025
0.0507366
0.0485906
0.0465765
0.0446843
0.0429045
0.0412279
0.0396466
0.0381531
0.0367416
0.0354064
0.0341424
0.0329444
0.0318078
0.0307285
0.0297032
0.0287283
0.0278006
0.0269167
0.026074
0.02527
0.0245024
0.0237687
0.0230671
0.0223956
0.0217525
0.0211365
0.0205463
0.0199808
0.0194386
0.0189186
0.0184196
0.0179405
0.0174804
0.0170382
0.0166126
0.0162027
0.0158076
0.0154267
0.015059
0.0147039
0.014361
0.0140301
0.0137109
0.0134028
0.0131056
0.0128187
0.0125419
0.0580865
0.0554661
0.0530219
0.0507353
0.0485912
0.0465783
0.0446868
0.0429077
0.0412319
0.0396513
0.0381588
0.0367484
0.0354143
0.0341511
0.0329536
0.0318174
0.0307389
0.0297145
0.0287405
0.0278133
0.0269299
0.0260875
0.0252838
0.0245162
0.0237824
0.0230804
0.0224084
0.0217649
0.0211485
0.0205581
0.0199921
0.0194494
0.0189288
0.0184292
0.0179496
0.0174891
0.0170463
0.01662
0.0162095
0.0158139
0.0154323
0.0150639
0.014708
0.0143642
0.0140325
0.0137123
0.0134033
0.013105
0.0128172
0.0125391
0.058088
0.0554678
0.0530215
0.0507338
0.0485898
0.0465773
0.044686
0.0429066
0.0412303
0.0396493
0.0381564
0.0367456
0.035411
0.0341471
0.0329492
0.0318129
0.0307346
0.0297104
0.0287365
0.0278094
0.026926
0.0260838
0.0252801
0.0245124
0.0237783
0.023076
0.0224039
0.0217603
0.0211439
0.0205532
0.0199869
0.0194439
0.018923
0.0184234
0.0179439
0.0174832
0.0170403
0.016614
0.0162035
0.0158079
0.0154262
0.0150575
0.0147013
0.0143573
0.0140253
0.0137048
0.0133953
0.0130966
0.0128081
0.0125293
0.0580876
0.0554689
0.053022
0.0507331
0.0485885
0.0465761
0.044685
0.0429057
0.0412294
0.0396481
0.0381552
0.0367443
0.0354097
0.0341461
0.0329485
0.0318129
0.0307353
0.0297116
0.0287382
0.0278114
0.0269285
0.0260866
0.025283
0.0245152
0.0237812
0.0230789
0.0224067
0.021763
0.0211462
0.020555
0.0199882
0.0194448
0.0189237
0.0184238
0.0179441
0.0174832
0.01704
0.0166135
0.0162028
0.0158069
0.0154247
0.0150556
0.014699
0.0143546
0.0140219
0.0137006
0.0133903
0.0130906
0.0128013
0.0125215
0.0580868
0.0554682
0.0530215
0.0507323
0.0485873
0.0465747
0.0446837
0.0429042
0.0412274
0.0396457
0.0381525
0.0367415
0.035407
0.0341436
0.0329463
0.031811
0.0307337
0.0297102
0.028737
0.0278105
0.0269278
0.026086
0.0252825
0.0245148
0.0237807
0.0230784
0.0224059
0.0217618
0.0211445
0.020553
0.0199859
0.0194422
0.0189209
0.0184208
0.0179409
0.0174798
0.0170365
0.0166099
0.0161991
0.0158029
0.0154203
0.0150508
0.0146939
0.014349
0.0140157
0.0136936
0.0133825
0.0130821
0.012792
0.0125116
0.0580863
0.055467
0.0530205
0.0507312
0.048586
0.0465731
0.0446816
0.0429016
0.0412243
0.0396422
0.0381487
0.0367378
0.0354033
0.0341397
0.0329424
0.031807
0.0307297
0.0297062
0.028733
0.0278066
0.026924
0.0260823
0.0252789
0.0245111
0.0237769
0.0230743
0.0224015
0.021757
0.0211395
0.0205478
0.0199806
0.0194367
0.0189153
0.0184151
0.0179351
0.017474
0.0170307
0.016604
0.016193
0.0157965
0.0154138
0.0150441
0.0146868
0.0143415
0.0140076
0.013685
0.0133734
0.0130726
0.012782
0.012501
0.0580864
0.0554664
0.0530194
0.0507298
0.0485842
0.0465708
0.044679
0.0428988
0.0412215
0.0396397
0.0381469
0.0367364
0.0354022
0.0341389
0.032942
0.0318072
0.0307304
0.0297074
0.0287347
0.0278087
0.0269265
0.0260852
0.0252819
0.0245141
0.0237797
0.0230768
0.0224038
0.0217592
0.0211415
0.0205496
0.019982
0.0194379
0.0189161
0.0184157
0.0179354
0.017474
0.0170302
0.0166031
0.0161917
0.0157948
0.0154116
0.0150413
0.0146833
0.0143372
0.0140026
0.0136793
0.0133671
0.0130655
0.012774
0.012492
0.0580865
0.0554661
0.053018
0.0507272
0.0485805
0.0465662
0.0446733
0.0428921
0.0412138
0.0396313
0.0381375
0.0367259
0.0353906
0.0341265
0.0329291
0.0317941
0.030717
0.0296938
0.0287208
0.0277948
0.0269126
0.0260713
0.0252679
0.0245
0.0237655
0.0230626
0.0223898
0.0217452
0.0211276
0.0205356
0.0199681
0.0194241
0.0189026
0.0184024
0.0179222
0.0174609
0.0170173
0.0165904
0.0161791
0.0157823
0.015399
0.0150287
0.0146707
0.0143245
0.0139899
0.0136665
0.013354
0.013052
0.0127602
0.0124779
0.0580865
0.0554654
0.053016
0.0507245
0.0485777
0.0465638
0.0446718
0.0428915
0.0412143
0.0396328
0.0381399
0.0367291
0.0353947
0.0341317
0.0329353
0.0318012
0.0307247
0.0297018
0.028729
0.0278032
0.0269211
0.0260796
0.0252759
0.0245077
0.023773
0.0230698
0.0223964
0.0217513
0.0211329
0.0205402
0.0199722
0.0194277
0.0189056
0.0184047
0.0179239
0.017462
0.017018
0.0165905
0.0161785
0.0157809
0.0153968
0.0150257
0.0146669
0.01432
0.0139845
0.0136601
0.0133466
0.0130437
0.0127508
0.0124675
0.0580863
0.0554632
0.0530105
0.0507152
0.0485645
0.0465464
0.04465
0.0428655
0.0411846
0.0395998
0.0381043
0.0366915
0.0353558
0.034092
0.0328953
0.0317608
0.0306842
0.0296614
0.0286891
0.0277638
0.0268824
0.0260415
0.0252384
0.024471
0.0237371
0.0230347
0.022362
0.0217174
0.0210997
0.0205079
0.0199407
0.0193971
0.0188758
0.0183757
0.0178958
0.0174348
0.0169915
0.0165646
0.0161531
0.0157559
0.0153723
0.0150017
0.0146434
0.0142968
0.0139615
0.0136373
0.0133241
0.0130213
0.0127286
0.0124454
0.058086
0.055462
0.0530104
0.0507181
0.0485711
0.0465566
0.0446631
0.0428809
0.0412018
0.0396185
0.0381238
0.0367114
0.0353756
0.0341113
0.0329136
0.0317779
0.0306998
0.0296757
0.0287021
0.0277754
0.0268922
0.0260496
0.0252449
0.0244759
0.0237405
0.0230365
0.0223621
0.0217161
0.0210972
0.0205043
0.0199361
0.0193913
0.0188691
0.0183682
0.0178876
0.0174259
0.0169818
0.0165541
0.0161418
0.0157442
0.0153602
0.0149892
0.0146304
0.0142835
0.0139482
0.0136241
0.0133112
0.0130089
0.012717
0.012435
0.0580858
0.055443
0.05297
0.050658
0.0484937
0.0464651
0.044561
0.0427716
0.0410884
0.039503
0.0380079
0.0365962
0.0352621
0.0340004
0.032806
0.0316742
0.0306006
0.0295813
0.0286126
0.0276908
0.0268123
0.0259744
0.0251747
0.0244107
0.0236801
0.0229809
0.0223114
0.0216703
0.0210564
0.0204682
0.0199046
0.0193645
0.018847
0.018351
0.0178751
0.017418
0.0169786
0.016556
0.0161491
0.0157569
0.0153786
0.0150135
0.0146611
0.0143213
0.0139938
0.0136785
0.0133754
0.0130846
0.0128066
0.0125421
0.0580894
0.0554556
0.0529993
0.0507016
0.048552
0.04654
0.0446573
0.0428933
0.0412384
0.0396835
0.0382203
0.0368419
0.0355421
0.0343155
0.0331567
0.0320607
0.0310229
0.0300393
0.0291057
0.0282181
0.0273733
0.0265684
0.025801
0.0250683
0.0243681
0.0236982
0.0230571
0.0224436
0.0218562
0.0212937
0.0207552
0.0202399
0.0197469
0.0192752
0.0188234
0.0183906
0.0179758
0.0175781
0.0171964
0.0168297
0.0164773
0.016139
0.0158146
0.0155043
0.0152083
0.0149274
0.0146626
0.014416
0.014191
0.0139945
0.0589304
0.0574861
0.0561203
0.0548254
0.0535924
0.052413
0.0512796
0.0501895
0.0491398
0.0481284
0.0471534
0.0462136
0.0453076
0.0444339
0.0435908
0.042777
0.041991
0.0412313
0.0404964
0.0397853
0.0390969
0.0384304
0.0377847
0.0371587
0.0365517
0.0359631
0.0353923
0.0348388
0.034302
0.0337815
0.033277
0.0327879
0.0323136
0.0318533
0.0314062
0.0309718
0.0305493
0.0301377
0.0297362
0.0293442
0.0289615
0.0285875
0.0282219
0.0278644
0.0275144
0.0271717
0.026836
0.0265066
0.0261825
0.0258617
0.0471302
0.00875519
0.00821381
0.0109834
0.0129294
0.0128687
0.0109045
0.00832585
0.00654863
0.00575615
0.0052369
0.00462313
0.00366657
0.00287788
0.00268717
0.00302695
0.00378218
0.00533046
0.0123176
0.0981507
0.0465804
0.00871097
0.00825848
0.0110547
0.013002
0.0129185
0.0109214
0.00832407
0.00655744
0.00578871
0.00528405
0.00468783
0.00378961
0.00298743
0.002676
0.00293277
0.00363457
0.00508363
0.0118093
0.0979275
0.0460331
0.0086627
0.00830383
0.0111273
0.0130755
0.012968
0.0109368
0.00832026
0.0065651
0.00582154
0.00533176
0.00475479
0.00386588
0.00305049
0.00268276
0.00289233
0.00356701
0.00497387
0.0116105
0.0982849
0.0454898
0.00861198
0.00834992
0.0112011
0.0131499
0.0130175
0.0109508
0.0083143
0.00657158
0.00585463
0.00537943
0.00481719
0.00394423
0.0031152
0.00269511
0.0028556
0.00350137
0.00486697
0.0114198
0.0986789
0.0449491
0.00855971
0.00839683
0.0112763
0.0132253
0.0130667
0.010963
0.00830602
0.00657689
0.00588815
0.00542748
0.00487823
0.00402179
0.00318115
0.00271267
0.00282279
0.00343782
0.00476287
0.0112351
0.0990893
0.0444112
0.00850612
0.0084446
0.0113527
0.0133016
0.0131155
0.0109732
0.00829523
0.00658095
0.0059221
0.00547549
0.00493716
0.00409774
0.0032481
0.00273515
0.00279404
0.00337643
0.00466126
0.011055
0.0995007
0.043876
0.00845126
0.00849323
0.0114305
0.0133787
0.0131639
0.0109814
0.00828191
0.00658393
0.00595678
0.00552385
0.00499543
0.004173
0.00331626
0.00276233
0.00276953
0.0033173
0.00456209
0.010879
0.0999113
0.0433434
0.0083953
0.0085428
0.0115097
0.0134568
0.0132118
0.0109874
0.00826604
0.00658602
0.0059925
0.00557291
0.00505475
0.00424916
0.00338586
0.00279394
0.0027494
0.00326062
0.00446543
0.0107072
0.100323
0.0428133
0.00833846
0.00859339
0.0115903
0.0135358
0.0132591
0.0109912
0.00824758
0.00658738
0.00602955
0.00562297
0.00511605
0.00432683
0.00345683
0.00282961
0.00273372
0.00320655
0.00437132
0.0105395
0.100735
0.0422857
0.00828092
0.00864513
0.0116725
0.0136157
0.0133057
0.0109926
0.00822649
0.00658812
0.00606804
0.0056737
0.00517826
0.00440554
0.00352881
0.00286886
0.00272241
0.00315521
0.00427978
0.0103758
0.101149
0.041761
0.00822285
0.00869811
0.0117563
0.0136967
0.0133517
0.0109915
0.00820278
0.00658837
0.0061081
0.0057246
0.00523799
0.00448331
0.00360111
0.00291119
0.00271539
0.00310669
0.00419081
0.010216
0.101564
0.0412392
0.00816433
0.0087524
0.0118417
0.0137785
0.0133968
0.0109878
0.00817643
0.0065883
0.00614983
0.00577514
0.00529326
0.00455763
0.00367291
0.00295604
0.00271247
0.00306107
0.00410442
0.0100599
0.101981
0.0407205
0.00810539
0.00880804
0.0119287
0.0138611
0.0134408
0.0109814
0.00814747
0.00658816
0.00619357
0.00582527
0.00534393
0.00462714
0.00374363
0.00300289
0.00271347
0.00301843
0.00402068
0.00990774
0.102403
0.0402047
0.00804612
0.00886503
0.0120172
0.0139443
0.0134838
0.0109722
0.00811605
0.00658827
0.00623968
0.00587519
0.00539174
0.00469214
0.00381298
0.00305129
0.00271818
0.00297887
0.00393966
0.00975951
0.102832
0.0396916
0.00798674
0.00892342
0.0121072
0.0140283
0.0135256
0.0109604
0.00808241
0.00658901
0.00628851
0.00592489
0.00543795
0.00475365
0.00388072
0.00310076
0.00272635
0.00294246
0.00386147
0.00961542
0.103272
0.0391813
0.00792764
0.00898329
0.0121988
0.0141129
0.0135664
0.010946
0.00804677
0.00659081
0.0063405
0.00597418
0.00548215
0.00481203
0.00394642
0.00315078
0.00273765
0.00290924
0.00378618
0.00947568
0.103727
0.0386736
0.00786919
0.00904474
0.012292
0.0141983
0.0136062
0.0109292
0.00800927
0.00659391
0.00639581
0.00602259
0.00552204
0.00486613
0.0040093
0.00320073
0.0027517
0.00287916
0.00371387
0.00934049
0.104199
0.0381689
0.0078117
0.00910784
0.0123868
0.0142843
0.0136449
0.0109098
0.00797009
0.00659854
0.00645443
0.00606914
0.00555447
0.00491362
0.00406821
0.00324986
0.00276799
0.00285215
0.00364456
0.00921008
0.104695
0.0376673
0.00775544
0.00917264
0.0124832
0.014371
0.0136824
0.010888
0.00792941
0.006605
0.00651644
0.00611287
0.0055766
0.00495189
0.00412191
0.00329739
0.00278598
0.00282806
0.00357827
0.00908474
0.105218
0.0371688
0.0077006
0.00923911
0.012581
0.0144581
0.0137186
0.0108638
0.00788751
0.00661365
0.00658206
0.00615331
0.00558678
0.00497911
0.00416926
0.00334247
0.00280509
0.00280671
0.00351503
0.00896481
0.105775
0.0366733
0.00764734
0.0093072
0.0126801
0.0145453
0.0137535
0.0108374
0.00784483
0.00662493
0.00665154
0.00619019
0.00558439
0.00499441
0.00420936
0.00338434
0.00282471
0.0027879
0.00345485
0.0088507
0.106372
0.0361809
0.00759601
0.00937683
0.0127803
0.0146326
0.013787
0.0108092
0.00780196
0.00663932
0.00672509
0.00622331
0.0055687
0.00499745
0.00424144
0.00342221
0.00284423
0.00277138
0.00339774
0.00874288
0.107015
0.0356913
0.00754707
0.009448
0.0128815
0.0147201
0.0138194
0.0107796
0.0077595
0.00665732
0.00680285
0.00625235
0.00553769
0.00498762
0.00426469
0.00345531
0.00286303
0.00275687
0.00334367
0.00864181
0.107711
0.0352045
0.00750102
0.00952068
0.0129836
0.0148074
0.0138508
0.0107491
0.0077181
0.00667929
0.00688472
0.00627683
0.00548728
0.00496317
0.00427811
0.00348284
0.00288045
0.00274404
0.00329261
0.00854802
0.108469
0.0347208
0.00745836
0.00959486
0.0130866
0.0148948
0.0138814
0.0107182
0.00767844
0.00670552
0.00697031
0.00629621
0.00541206
0.0049213
0.00428054
0.00350405
0.00289588
0.00273258
0.00324448
0.00846198
0.109293
0.0342402
0.00741957
0.00967051
0.0131902
0.0149819
0.0139113
0.0106874
0.00764124
0.0067362
0.00705912
0.00631026
0.00530663
0.00485895
0.00427095
0.00351831
0.00290878
0.00272214
0.00319919
0.00838414
0.110192
0.033763
0.00738498
0.00974754
0.0132944
0.0150687
0.0139405
0.0106573
0.00760728
0.00677149
0.00715057
0.00631944
0.00516801
0.00477422
0.00424884
0.00352523
0.00291872
0.00271243
0.00315662
0.00831487
0.11117
0.0332893
0.00735488
0.00982582
0.0133987
0.0151549
0.0139694
0.0106287
0.00757739
0.00681151
0.00724416
0.00632507
0.00499687
0.00466768
0.00421452
0.00352471
0.00292542
0.00270314
0.00311662
0.00825442
0.11223
0.0328192
0.00732954
0.00990519
0.0135031
0.0152404
0.0139981
0.0106024
0.00755248
0.00685638
0.00733943
0.00632919
0.0047971
0.00454269
0.00416923
0.00351699
0.00292874
0.00269405
0.003079
0.00820293
0.113376
0.0323524
0.00730924
0.0099855
0.0136073
0.015325
0.0140269
0.010579
0.00753341
0.00690611
0.00743598
0.00633418
0.00457483
0.00440479
0.00411494
0.00350265
0.00292874
0.00268496
0.00304358
0.00816042
0.114609
0.0318892
0.00729426
0.0100666
0.0137111
0.0154089
0.0140563
0.0105596
0.00752089
0.00696056
0.00753327
0.00634229
0.00433747
0.00426053
0.00405403
0.00348253
0.00292562
0.00267573
0.00301017
0.00812683
0.115928
0.0314294
0.00728481
0.0101485
0.0138145
0.0154921
0.0140867
0.0105447
0.00751539
0.00701939
0.00763069
0.00635533
0.00409301
0.0041161
0.00398881
0.00345759
0.00291967
0.0026663
0.00297859
0.00810203
0.117333
0.0309732
0.00728103
0.010231
0.0139173
0.0155745
0.0141182
0.0105347
0.00751717
0.0070821
0.00772763
0.00637472
0.00385078
0.00397639
0.00392121
0.00342877
0.00291124
0.0026566
0.00294868
0.00808599
0.118821
0.0305207
0.00728293
0.0103142
0.0140196
0.0156562
0.0141511
0.0105301
0.00752627
0.00714815
0.00782359
0.00640152
0.00362265
0.00384494
0.00385273
0.00339691
0.00290068
0.00264665
0.00292037
0.00807877
0.120394
0.030072
0.00729043
0.0103979
0.0141213
0.0157372
0.0141856
0.0105309
0.00754261
0.00721705
0.00791829
0.00643652
0.00342359
0.00372398
0.0037845
0.00336268
0.00288831
0.00263649
0.00289362
0.00808064
0.122049
0.0296271
0.00730339
0.0104821
0.0142224
0.0158176
0.0142217
0.0105374
0.00756602
0.00728838
0.00801161
0.00648039
0.0032714
0.00361437
0.0037175
0.00332677
0.00287451
0.00262619
0.00286849
0.00809219
0.123787
0.029186
0.00732162
0.010567
0.014323
0.0158975
0.0142597
0.0105495
0.00759622
0.00736181
0.00810359
0.00653352
0.00318505
0.00351556
0.00365222
0.00328973
0.00285959
0.00261586
0.0028451
0.00811442
0.125609
0.0287489
0.00734492
0.0106524
0.0144231
0.015977
0.0142995
0.0105672
0.00763282
0.00743707
0.00819432
0.00659586
0.0031826
0.00342491
0.00358781
0.00325202
0.00284386
0.00260563
0.00282376
0.00814917
0.127517
0.0283156
0.00737307
0.0107384
0.0145229
0.0160563
0.0143413
0.0105902
0.00767537
0.00751363
0.00828568
0.00667033
0.00323899
0.0033394
0.0035232
0.00321435
0.00282759
0.00259569
0.00280496
0.00819957
0.129517
0.0278862
0.00740585
0.0108252
0.0146226
0.0161355
0.0143853
0.0106199
0.00772149
0.00759016
0.00838256
0.00675955
0.0032959
0.00325827
0.00345821
0.0031768
0.0028112
0.00258627
0.00278959
0.00827096
0.131615
0.0274608
0.00744304
0.0109128
0.014722
0.0162155
0.0144339
0.0106535
0.0077691
0.00766682
0.00848425
0.0068604
0.00335605
0.00318088
0.0033933
0.00313935
0.00279502
0.00257777
0.00277907
0.00837216
0.133822
0.0270392
0.00748403
0.011001
0.0148218
0.0162977
0.0144861
0.0106908
0.00781811
0.00774372
0.0085902
0.00697099
0.00342134
0.00310679
0.00332895
0.00310229
0.00277921
0.00257074
0.00277579
0.00851789
0.136152
0.0266216
0.00752821
0.0110897
0.0149225
0.0163821
0.0145418
0.0107315
0.00786844
0.00782092
0.00870019