/*--------------------------------*- C++ -*----------------------------------*\
  =========                 |
  \\      /  F ield         | OpenFOAM: The Open Source CFD Toolbox
   \\    /   O peration     | Website:  https://openfoam.org
    \\  /    A nd           | Version:  8
     \\/     M anipulation  |
\*---------------------------------------------------------------------------*/
FoamFile
{
    version     2.0;
    format      ascii;
    class       volScalarField;
    location    "1000";
    object      nut;
}
// * * * * * * * * * * * * * * * * * * * * * * * * * * * * * * * * * * * * * //

dimensions      [0 2 -1 0 0 0 0];

internalField   nonuniform List<scalar> 
8400
(
0.000120698
0.000120861
0.000120939
0.000120946
0.00012091
0.000120865
0.000120823
0.000120807
0.000120811
0.000120803
0.000120751
0.000120606
0.000120325
0.000119886
0.000119284
0.000118514
0.000117589
0.00011653
0.000115355
0.000114103
0.000112791
0.000111459
0.000110124
0.000108825
0.000107563
0.000106345
0.000105263
0.000104318
0.000103538
0.000103029
0.000102935
0.000105295
0.000105467
0.000100386
9.73826e-05
9.54815e-05
9.40232e-05
9.28149e-05
9.17791e-05
9.08247e-05
8.99424e-05
8.91453e-05
8.84344e-05
8.7811e-05
8.729e-05
8.68816e-05
8.65815e-05
8.6403e-05
8.63632e-05
8.64781e-05
0.000112903
0.000114483
0.000115901
0.000117169
0.000118308
0.000119355
0.000120338
0.000121291
0.000122247
0.00012321
0.000124169
0.000125086
0.000125894
0.000126521
0.000126918
0.000127055
0.000126903
0.000126453
0.000125687
0.000124625
0.000123263
0.00012168
0.000119923
0.000118036
0.000116087
0.000114141
0.000112224
0.000110413
0.000108803
0.000107525
0.000106569
0.000106323
0.000107624
0.00010611
0.000102346
9.90792e-05
9.6464e-05
9.42291e-05
9.22714e-05
9.04844e-05
8.88196e-05
8.72406e-05
8.57049e-05
8.41961e-05
8.27241e-05
8.1286e-05
7.98635e-05
7.84656e-05
7.71152e-05
7.58111e-05
0.000110491
0.000112993
0.000115327
0.000117468
0.000119417
0.000121192
0.00012282
0.000124345
0.00012582
0.000127302
0.000128833
0.000130443
0.000132124
0.000133828
0.00013547
0.000136958
0.000138196
0.000139085
0.000139549
0.000139515
0.000138921
0.000137735
0.00013604
0.000133895
0.000131323
0.000128386
0.000125198
0.000121886
0.000118611
0.000115543
0.000112662
0.000110042
0.000108434
0.000107621
0.00010535
0.000102206
9.93475e-05
9.69402e-05
9.49024e-05
9.30792e-05
9.14329e-05
8.98942e-05
8.84259e-05
8.70125e-05
8.5627e-05
8.42532e-05
8.29087e-05
8.15668e-05
8.02312e-05
7.89023e-05
9.87338e-05
0.000101556
0.000104283
0.000106877
0.000109318
0.00011161
0.000113768
0.000115835
0.000117869
0.000119948
0.000122147
0.000124545
0.000127193
0.000130106
0.000133242
0.000136509
0.00013979
0.000142878
0.000145642
0.000147866
0.000149407
0.000150147
0.000150028
0.000148997
0.000147025
0.000144101
0.000140268
0.00013572
0.000130718
0.000125578
0.000120578
0.000115964
0.000111954
0.000108968
0.000106931
0.000104479
0.000101713
9.92442e-05
9.71045e-05
9.51702e-05
9.35047e-05
9.20647e-05
9.06944e-05
8.93492e-05
8.80104e-05
8.66912e-05
8.54178e-05
8.41491e-05
8.28848e-05
8.16389e-05
8.34767e-05
8.59162e-05
8.83643e-05
9.07857e-05
9.31577e-05
9.54716e-05
9.77322e-05
9.99765e-05
0.000102256
0.000104645
0.000107237
0.000110136
0.000113432
0.000117203
0.000121483
0.000126237
0.000131377
0.000136731
0.000142095
0.000147239
0.000151863
0.00015575
0.000158666
0.000160438
0.000160839
0.000159573
0.000156479
0.000151585
0.000145231
0.000138055
0.000130701
0.000123765
0.000117665
0.000112614
0.00010861
0.000105948
0.000103502
0.000101058
9.89609e-05
9.70567e-05
9.53788e-05
9.39785e-05
9.26132e-05
9.12757e-05
8.99746e-05
8.86687e-05
8.73937e-05
8.61309e-05
8.48975e-05
8.36617e-05
7.06183e-05
7.21575e-05
7.37876e-05
7.54815e-05
7.72323e-05
7.90275e-05
8.08651e-05
8.27684e-05
8.47763e-05
8.69519e-05
8.93833e-05
9.2184e-05
9.54672e-05
9.93501e-05
0.000103913
0.000109233
0.000115306
0.000122082
0.000129424
0.000137104
0.000144829
0.000152274
0.000159133
0.000165097
0.000169701
0.000172223
0.00017193
0.000168482
0.000162068
0.000153432
0.000143698
0.000134111
0.000125554
0.000118434
0.000112729
0.000108276
0.000104875
0.000102447
0.000100501
9.86317e-05
9.68945e-05
9.55148e-05
9.42128e-05
9.29106e-05
9.15857e-05
9.02546e-05
8.90055e-05
8.77712e-05
8.65051e-05
8.51808e-05
6.34694e-05
6.40885e-05
6.48013e-05
6.55958e-05
6.64799e-05
6.74535e-05
6.85193e-05
6.96904e-05
7.09954e-05
7.24797e-05
7.42083e-05
7.62797e-05
7.87901e-05
8.18771e-05
8.56864e-05
9.03409e-05
9.59722e-05
0.000102655
0.000110456
0.000119303
0.000129011
0.000139325
0.000149966
0.000160603
0.000170631
0.000178894
0.000183895
0.000184454
0.000180097
0.000171387
0.000159811
0.000147386
0.000135814
0.000126085
0.000118432
0.000112569
0.000108064
0.000104638
0.000101998
9.99155e-05
9.81963e-05
9.68481e-05
9.55531e-05
9.42274e-05
9.29181e-05
9.16199e-05
9.04186e-05
8.91933e-05
8.78788e-05
8.64366e-05
6.11878e-05
6.12908e-05
6.14446e-05
6.16472e-05
6.19014e-05
6.22115e-05
6.25955e-05
6.3058e-05
6.36238e-05
6.43172e-05
6.51684e-05
6.62407e-05
6.76218e-05
6.93983e-05
7.17201e-05
7.47539e-05
7.86943e-05
8.37628e-05
9.0167e-05
9.8108e-05
0.000107682
0.000118868
0.000131642
0.000145941
0.000161325
0.000176409
0.000188888
0.000196375
0.000197145
0.000190946
0.000179042
0.000164134
0.00014926
0.000136388
0.000126094
0.000118237
0.000112353
0.000108005
0.000104682
0.000102065
9.99722e-05
9.82392e-05
9.67423e-05
9.54058e-05
9.41844e-05
9.29577e-05
9.17708e-05
9.05322e-05
8.92185e-05
8.78047e-05
6.1016e-05
6.09527e-05
6.09205e-05
6.09098e-05
6.09203e-05
6.09471e-05
6.10085e-05
6.10995e-05
6.12391e-05
6.14331e-05
6.1713e-05
6.20772e-05
6.2586e-05
6.32954e-05
6.42605e-05
6.56324e-05
6.75579e-05
7.02729e-05
7.40712e-05
7.92948e-05
8.634e-05
9.55886e-05
0.000107516
0.000122719
0.00014153
0.000162899
0.000183854
0.000200744
0.000210028
0.000209893
0.000200427
0.000184488
0.000166559
0.000150099
0.000136557
0.000126121
0.000118331
0.00011258
0.000108274
0.000104997
0.00010246
0.000100396
9.86449e-05
9.71495e-05
9.5781e-05
9.44414e-05
9.31105e-05
9.17487e-05
9.03448e-05
8.88248e-05
6.12598e-05
6.11599e-05
6.10934e-05
6.10003e-05
6.09823e-05
6.09509e-05
6.09442e-05
6.09096e-05
6.09331e-05
6.09257e-05
6.09856e-05
6.10675e-05
6.11719e-05
6.13431e-05
6.16207e-05
6.20631e-05
6.27653e-05
6.38384e-05
6.54231e-05
6.77271e-05
7.1121e-05
7.61608e-05
8.39051e-05
9.59212e-05
0.000113933
0.00013835
0.000166514
0.000193882
0.000214563
0.000224664
0.00022189
0.000207814
0.000188004
0.000167989
0.000150715
0.000137048
0.00012668
0.000118982
0.000113296
0.000109045
0.000105827
0.000103319
0.000101249
9.95139e-05
9.79861e-05
9.65488e-05
9.5168e-05
9.38126e-05
9.24382e-05
9.09765e-05
6.14242e-05
6.13542e-05
6.13034e-05
6.12248e-05
6.11819e-05
6.11241e-05
6.10862e-05
6.10499e-05
6.10464e-05
6.10377e-05
6.10253e-05
6.10074e-05
6.10128e-05
6.09943e-05
6.09807e-05
6.10729e-05
6.13484e-05
6.18315e-05
6.26051e-05
6.36571e-05
6.49121e-05
6.62547e-05
6.83242e-05
7.34576e-05
8.53264e-05
0.000106972
0.000137623
0.000173679
0.000206803
0.000230739
0.000239703
0.000231884
0.000212877
0.000190481
0.000169562
0.000152131
0.000138483
0.000128185
0.000120543
0.000114848
0.000110574
0.000107329
0.000104756
0.000102654
0.000100901
9.93676e-05
9.79642e-05
9.66147e-05
9.52804e-05
9.39252e-05
6.14536e-05
6.14039e-05
6.13651e-05
6.13235e-05
6.12848e-05
6.12481e-05
6.11994e-05
6.11813e-05
6.11519e-05
6.11281e-05
6.11148e-05
6.11184e-05
6.11123e-05
6.10922e-05
6.10711e-05
6.10706e-05
6.11789e-05
6.14973e-05
6.21033e-05
6.30386e-05
6.42511e-05
6.52013e-05
6.47626e-05
6.36091e-05
6.55181e-05
7.75431e-05
0.000102516
0.000141099
0.000184105
0.000223408
0.00024908
0.000253337
0.000239439
0.000217179
0.000193639
0.000172505
0.000155156
0.000141591
0.000131248
0.00012343
0.000117537
0.000113095
0.00010965
0.000106924
0.000104752
0.000102953
0.000101392
9.99916e-05
9.86878e-05
9.74325e-05
6.14703e-05
6.14363e-05
6.14037e-05
6.13706e-05
6.13368e-05
6.13171e-05
6.12858e-05
6.12702e-05
6.12459e-05
6.1237e-05
6.12306e-05
6.12315e-05
6.12294e-05
6.12125e-05
6.11837e-05
6.11819e-05
6.12872e-05
6.1589e-05
6.21645e-05
6.30678e-05
6.42787e-05
6.57149e-05
6.70473e-05
6.68714e-05
6.36641e-05
6.25321e-05
7.27508e-05
0.000103076
0.000147382
0.000198954
0.000244385
0.000267019
0.000263931
0.000245994
0.000222519
0.000198958
0.000178157
0.000160949
0.000147246
0.000136576
0.000128335
0.00012201
0.000117119
0.0001133
0.000110301
0.000107885
0.000105869
0.00010417
0.000102705
0.000101401
6.14764e-05
6.14506e-05
6.14252e-05
6.1404e-05
6.13797e-05
6.13588e-05
6.13392e-05
6.13351e-05
6.1342e-05
6.13609e-05
6.138e-05
6.1396e-05
6.13937e-05
6.13732e-05
6.13569e-05
6.13888e-05
6.15399e-05
6.18928e-05
6.25197e-05
6.34696e-05
6.47397e-05
6.62606e-05
6.77783e-05
6.83512e-05
6.61734e-05
6.27367e-05
6.46392e-05
7.49372e-05
0.000104554
0.000157117
0.000220568
0.000267274
0.000281646
0.00027343
0.000254065
0.000230665
0.000207814
0.000187514
0.000170444
0.000156523
0.000145313
0.000136379
0.000129293
0.000123662
0.000119157
0.000115522
0.000112543
0.000110084
0.00010803
0.000106289
6.14803e-05
6.14604e-05
6.14421e-05
6.14225e-05
6.14122e-05
6.14015e-05
6.14232e-05
6.14797e-05
6.15615e-05
6.16572e-05
6.17393e-05
6.17866e-05
6.17878e-05
6.17568e-05
6.17376e-05
6.1806e-05
6.20456e-05
6.25248e-05
6.32957e-05
6.43995e-05
6.58592e-05
6.7628e-05
6.94876e-05
7.06872e-05
6.94894e-05
6.49867e-05
6.17883e-05
6.51868e-05
7.63907e-05
0.000106002
0.000175104
0.000248017
0.000286499
0.000294487
0.000284782
0.000265422
0.000243221
0.000221571
0.00020211
0.00018532
0.000171098
0.000159228
0.0001494
0.00014128
0.000134532
0.000128904
0.000124197
0.000120228
0.000116845
0.000113943
6.14852e-05
6.14693e-05
6.14532e-05
6.1436e-05
6.14782e-05
6.15517e-05
6.17905e-05
6.21576e-05
6.25631e-05
6.28997e-05
6.30762e-05
6.3081e-05
6.29679e-05
6.28314e-05
6.27434e-05
6.28434e-05
6.32211e-05
6.39056e-05
6.49416e-05
6.63685e-05
6.82367e-05
7.04999e-05
7.29522e-05
7.49986e-05
7.51755e-05
7.13572e-05
6.50943e-05
6.17106e-05
6.47534e-05
7.3619e-05
0.000111701
0.000203826
0.000271465
0.00030243
0.000309499
0.000299357
0.00028165
0.00026129
0.000241481
0.000223348
0.000207165
0.000192997
0.000180746
0.000170139
0.000160921
0.000152883
0.000145855
0.00013965
0.000134111
0.000129123
6.14867e-05
6.14742e-05
6.14608e-05
6.14582e-05
6.23173e-05
6.28629e-05
6.44189e-05
6.60592e-05
6.74011e-05
6.81226e-05
6.81152e-05
6.75369e-05
6.6895e-05
6.70377e-05
6.72082e-05
6.73977e-05
6.76186e-05
6.78851e-05
6.9053e-05
7.12003e-05
7.39129e-05
7.69109e-05
7.99632e-05
8.27215e-05
8.44274e-05
8.30374e-05
7.70396e-05
6.80756e-05
6.29684e-05
6.30745e-05
6.75679e-05
0.000131463
0.000228212
0.000287846
0.000321319
0.000326783
0.000319105
0.000303613
0.000286234
0.000269046
0.000252941
0.000238195
0.000224908
0.000212938
0.000202147
0.000192363
0.000183417
0.000175146
0.000167401
0.000160047
6.14894e-05
6.14875e-05
6.14983e-05
6.16246e-05
7.4135e-05
7.27124e-05
7.84586e-05
8.11599e-05
8.26734e-05
8.30855e-05
8.27448e-05
8.33136e-05
8.37872e-05
8.34366e-05
8.30301e-05
8.2826e-05
8.30784e-05
8.38806e-05
8.46332e-05
8.52214e-05
8.58994e-05
8.68394e-05
8.80274e-05
8.89377e-05
8.90646e-05
8.61463e-05
8.06598e-05
7.46608e-05
7.28061e-05
8.04233e-05
8.84868e-05
8.61029e-05
0.000146548
0.000233405
0.00030819
0.000337238
0.00034935
0.000343888
0.000332873
0.000319888
0.000306703
0.000293923
0.000281896
0.000270688
0.000260282
0.000250572
0.0002414
0.000232624
0.000224102
0.000215688
6.17569e-05
6.21753e-05
6.28651e-05
6.9718e-05
0.00042724
0.000155744
0.000135914
0.00012248
0.000110015
9.77775e-05
8.57231e-05
7.36294e-05
7.51437e-05
8.00616e-05
8.24626e-05
8.36398e-05
8.41789e-05
8.46853e-05
8.52546e-05
8.58403e-05
8.63916e-05
8.68467e-05
8.70393e-05
8.57055e-05
9.44606e-05
0.000101514
8.85773e-05
7.85504e-05
8.19485e-05
9.285e-05
0.000109934
0.000113765
0.000105146
0.000111689
0.000248126
0.000305793
0.000360778
0.000374584
0.000375858
0.000371866
0.000365733
0.000358666
0.000351359
0.000344119
0.000337074
0.000330269
0.00032363
0.000317065
0.000310456
0.000303703
0.000206485
0.000204685
0.000199249
0.000186399
0.000168645
0.000155756
0.000144299
0.00013365
0.000123792
0.000114811
0.000106802
9.98574e-05
9.40141e-05
9.15384e-05
9.18152e-05
9.22687e-05
9.30961e-05
9.59014e-05
0.000101781
0.0001119
0.000126786
0.000142163
0.000150661
0.000152797
0.000155421
0.000161747
0.000159868
0.000150823
0.000121515
0.000107653
0.000118078
0.000125987
0.000131375
0.000135294
0.000143731
0.000142213
0.000318906
0.000377306
0.000402416
0.000416282
0.000425081
0.000431008
0.000435115
0.000438024
0.000440054
0.000441421
0.000442277
0.000442756
0.000442918
0.00044277
0.000272576
0.000269344
0.000266007
0.000262717
0.000259717
0.000256958
0.000254285
0.00025162
0.000248978
0.000246402
0.000243909
0.000241491
0.000239133
0.00023683
0.000234579
0.000232381
0.000230239
0.000228149
0.000226111
0.000224121
0.000222176
0.000220275
0.000218415
0.000216597
0.000214821
0.000213088
0.000211393
0.000209734
0.00020811
0.000206523
0.000204975
0.000203464
0.000201989
0.000200553
0.000199159
0.000197809
0.000196496
0.000195214
0.000193959
0.00019272
0.000191504
0.000190306
0.000189121
0.000187949
0.000186785
0.000185624
0.000184463
0.000183295
0.0001821
0.000180839
0.000270534
0.000264484
0.000258875
0.000253236
0.000247658
0.000242333
0.00023734
0.000232637
0.000228142
0.000223814
0.000219651
0.00021566
0.000211838
0.000208168
0.000204637
0.000201235
0.000197958
0.0001948
0.000191751
0.000188802
0.000185947
0.000183178
0.000180494
0.000177891
0.000175368
0.000172917
0.00017053
0.000168208
0.000165952
0.000163766
0.000161644
0.000159585
0.000157592
0.000155668
0.000153811
0.000152009
0.000150254
0.00014854
0.000146869
0.000145244
0.00014365
0.000142088
0.000140556
0.000139055
0.000137582
0.000136138
0.000134725
0.00013334
0.000131973
0.000130618
0.000270569
0.000264106
0.00025824
0.000252706
0.000247331
0.000242107
0.000237086
0.00023229
0.000227703
0.0002233
0.000219062
0.000214979
0.000211044
0.000207248
0.000203584
0.000200049
0.000196638
0.000193341
0.000190153
0.000187064
0.000184068
0.000181162
0.000178343
0.000175608
0.000172952
0.000170368
0.000167853
0.000165406
0.000163031
0.000160725
0.000158484
0.000156309
0.000154201
0.000152162
0.000150187
0.000148268
0.000146403
0.000144589
0.000142823
0.000141101
0.000139419
0.000137774
0.000136165
0.00013459
0.000133049
0.000131546
0.000130085
0.000128665
0.000127275
0.000125903
0.000270711
0.000264404
0.000258403
0.000252788
0.000247453
0.000242316
0.000237357
0.000232583
0.000228004
0.00022361
0.000219384
0.00021531
0.000211373
0.000207571
0.000203901
0.000200361
0.000196943
0.000193638
0.000190438
0.000187338
0.000184331
0.000181416
0.000178587
0.00017584
0.000173169
0.00017057
0.000168041
0.000165583
0.000163196
0.000160876
0.000158621
0.000156431
0.000154309
0.000152254
0.000150262
0.000148328
0.000146449
0.000144625
0.000142849
0.000141115
0.00013942
0.000137763
0.000136141
0.000134551
0.000132996
0.000131479
0.000130002
0.000128565
0.000127169
0.000125799
0.000270669
0.000264534
0.000258548
0.000252848
0.000247442
0.000242278
0.000237315
0.000232539
0.000227952
0.000223547
0.000219311
0.000215227
0.000211285
0.000207483
0.000203817
0.000200282
0.000196867
0.000193565
0.000190369
0.000187274
0.000184276
0.000181367
0.000178545
0.000175803
0.000173136
0.000170542
0.00016802
0.000165569
0.000163186
0.000160868
0.000158615
0.000156429
0.000154313
0.000152261
0.000150271
0.000148341
0.000146467
0.000144648
0.000142874
0.000141142
0.000139449
0.000137792
0.00013617
0.000134581
0.000133028
0.000131514
0.000130034
0.000128589
0.000127184
0.000125813
0.000270594
0.000264484
0.000258583
0.000252909
0.000247489
0.000242313
0.000237356
0.000232596
0.000228024
0.000223626
0.000219392
0.000215308
0.000211372
0.000207579
0.000203922
0.000200391
0.000196976
0.000193674
0.000190481
0.00018739
0.000184394
0.000181487
0.000178664
0.000175922
0.000173256
0.000170663
0.00016814
0.000165686
0.000163297
0.000160974
0.000158719
0.000156534
0.000154416
0.000152362
0.000150369
0.000148437
0.000146563
0.00014474
0.000142962
0.000141224
0.000139527
0.000137866
0.000136238
0.000134644
0.000133086
0.000131566
0.000130082
0.000128629
0.000127215
0.000125838
0.00027058
0.000264408
0.000258535
0.000252899
0.000247491
0.000242307
0.000237341
0.000232578
0.000228003
0.0002236
0.000219358
0.000215271
0.000211334
0.000207541
0.000203881
0.000200344
0.000196926
0.000193623
0.000190432
0.000187343
0.000184348
0.000181442
0.000178621
0.000175882
0.000173218
0.000170626
0.000168103
0.000165646
0.000163256
0.000160935
0.000158684
0.000156502
0.000154385
0.000152331
0.00015034
0.00014841
0.000146537
0.000144713
0.000142933
0.000141196
0.000139499
0.000137838
0.000136209
0.000134612
0.000133051
0.000131528
0.000130042
0.000128589
0.000127175
0.000125798
0.000270603
0.000264391
0.000258501
0.000252876
0.000247481
0.000242304
0.000237338
0.000232575
0.000228001
0.000223599
0.00021936
0.000215277
0.000211345
0.000207554
0.000203892
0.000200354
0.000196939
0.000193642
0.000190456
0.000187371
0.000184378
0.000181475
0.000178659
0.000175922
0.000173259
0.000170665
0.00016814
0.000165682
0.000163294
0.000160975
0.000158724
0.00015654
0.00015442
0.000152364
0.000150373
0.000148443
0.000146566
0.000144738
0.000142955
0.000141216
0.000139518
0.000137853
0.000136219
0.000134619
0.000133054
0.000131526
0.000130035
0.00012858
0.000127163
0.000125781
0.000270618
0.000264411
0.000258499
0.000252863
0.000247467
0.000242293
0.000237329
0.000232565
0.000227987
0.000223583
0.000219341
0.000215257
0.00021132
0.000207523
0.000203856
0.000200318
0.000196905
0.000193611
0.000190426
0.000187341
0.00018435
0.000181449
0.000178634
0.000175897
0.000173233
0.000170638
0.000168113
0.000165657
0.00016327
0.00016095
0.000158697
0.000156509
0.000154387
0.000152332
0.000150341
0.00014841
0.000146531
0.000144702
0.00014292
0.000141182
0.000139482
0.000137815
0.000136179
0.000134578
0.000133014
0.000131484
0.00012999
0.000128533
0.000127113
0.000125725
0.000270614
0.000264422
0.000258505
0.000252857
0.000247456
0.000242282
0.000237321
0.000232559
0.000227979
0.000223571
0.000219326
0.000215238
0.000211298
0.000207498
0.000203833
0.000200297
0.000196888
0.000193597
0.000190413
0.00018733
0.000184342
0.000181444
0.000178631
0.000175894
0.000173231
0.000170638
0.000168115
0.00016566
0.000163271
0.000160948
0.000158691
0.0001565
0.000154378
0.000152323
0.000150331
0.000148398
0.000146519
0.00014469
0.000142909
0.000141171
0.000139468
0.000137797
0.00013616
0.000134558
0.000132991
0.000131458
0.000129958
0.000128495
0.000127069
0.000125677
0.000270606
0.000264415
0.000258501
0.00025285
0.000247447
0.000242273
0.000237314
0.00023255
0.000227967
0.000223554
0.000219305
0.000215214
0.000211273
0.000207473
0.000203808
0.000200274
0.000196865
0.000193573
0.000190389
0.000187307
0.000184321
0.000181426
0.000178614
0.000175879
0.000173218
0.000170627
0.000168103
0.000165646
0.000163253
0.000160927
0.000158669
0.000156478
0.000154355
0.000152299
0.000150307
0.000148374
0.000146495
0.000144668
0.000142887
0.000141147
0.000139442
0.000137769
0.000136131
0.000134527
0.000132954
0.000131414
0.000129909
0.000128443
0.000127013
0.000125618
0.000270602
0.000264403
0.000258491
0.000252842
0.000247438
0.000242264
0.000237303
0.000232536
0.000227948
0.000223531
0.000219281
0.00021519
0.000211248
0.000207447
0.000203779
0.000200243
0.000196832
0.000193539
0.000190355
0.000187274
0.000184291
0.000181397
0.000178587
0.000175854
0.000173193
0.000170601
0.000168075
0.000165615
0.000163222
0.000160897
0.000158638
0.000156447
0.000154324
0.000152268
0.000150276
0.000148343
0.000146466
0.000144638
0.000142856
0.000141113
0.000139407
0.000137734
0.000136094
0.000134484
0.000132906
0.000131362
0.000129855
0.000128387
0.000126955
0.000125557
0.000270602
0.000264398
0.000258483
0.000252833
0.000247428
0.000242252
0.000237288
0.000232518
0.000227929
0.000223513
0.000219265
0.000215175
0.000211232
0.000207428
0.000203759
0.000200224
0.000196814
0.000193523
0.000190341
0.000187263
0.000184283
0.000181393
0.000178585
0.000175852
0.00017319
0.000170597
0.000168071
0.000165613
0.000163221
0.000160896
0.000158637
0.000156445
0.000154321
0.000152265
0.000150273
0.000148339
0.00014646
0.00014463
0.000142845
0.000141101
0.000139392
0.000137716
0.000136071
0.000134456
0.000132874
0.000131327
0.000129817
0.000128345
0.000126908
0.000125504
0.000270604
0.000264397
0.000258476
0.000252819
0.000247409
0.00024223
0.000237262
0.000232488
0.000227897
0.000223479
0.000219227
0.000215131
0.000211181
0.000207371
0.0002037
0.000200164
0.000196755
0.000193462
0.000190279
0.000187201
0.000184221
0.000181332
0.000178523
0.000175789
0.000173127
0.000170535
0.000168012
0.000165555
0.000163164
0.000160837
0.000158577
0.000156385
0.000154263
0.000152208
0.000150215
0.00014828
0.0001464
0.000144571
0.000142787
0.000141042
0.000139331
0.000137652
0.000136005
0.00013439
0.000132808
0.00013126
0.000129747
0.000128271
0.000126831
0.000125426
0.000270604
0.000264393
0.000258464
0.000252803
0.000247392
0.000242214
0.000237249
0.000232478
0.000227888
0.000223472
0.00021922
0.000215123
0.000211174
0.000207368
0.000203703
0.000200172
0.000196765
0.000193473
0.000190291
0.000187215
0.000184237
0.000181348
0.00017854
0.000175806
0.000173146
0.000170556
0.000168032
0.000165573
0.000163177
0.000160848
0.000158586
0.000156395
0.000154271
0.000152213
0.000150217
0.00014828
0.000146399
0.000144569
0.000142781
0.00014103
0.000139314
0.000137632
0.000135982
0.000134364
0.000132776
0.000131222
0.000129703
0.000128222
0.000126777
0.000125368
0.000270602
0.000264383
0.000258443
0.000252772
0.000247352
0.000242164
0.000237185
0.000232399
0.000227795
0.000223366
0.000219104
0.000214999
0.000211044
0.000207236
0.000203569
0.000200035
0.000196624
0.000193329
0.000190147
0.000187073
0.000184096
0.000181207
0.000178399
0.000175668
0.000173011
0.000170422
0.000167898
0.000165437
0.000163041
0.000160714
0.000158457
0.000156267
0.000154145
0.000152088
0.000150095
0.000148162
0.000146284
0.000144454
0.000142665
0.000140914
0.000139199
0.000137518
0.000135869
0.00013425
0.000132661
0.000131107
0.000129589
0.000128108
0.000126664
0.000125254
0.000270599
0.000264375
0.000258439
0.000252778
0.000247369
0.000242189
0.000237216
0.000232433
0.000227833
0.000223409
0.000219151
0.000215048
0.000211095
0.000207287
0.000203617
0.000200078
0.000196662
0.000193365
0.000190181
0.000187104
0.000184122
0.000181226
0.000178413
0.000175677
0.000173014
0.000170419
0.000167887
0.00016542
0.000163022
0.000160693
0.000158432
0.000156238
0.000154111
0.000152053
0.000150059
0.000148124
0.00014624
0.000144404
0.000142611
0.000140858
0.000139141
0.000137458
0.000135806
0.000134184
0.000132595
0.000131041
0.000129525
0.000128045
0.000126604
0.000125198
0.000270598
0.000264329
0.000258341
0.00025263
0.000247174
0.00024195
0.000236939
0.000232131
0.000227515
0.000223082
0.000218816
0.000214708
0.000210752
0.000206945
0.000203278
0.000199745
0.000196339
0.000193054
0.000189884
0.000186818
0.000183846
0.000180961
0.00017816
0.000175439
0.000172791
0.000170209
0.000167693
0.000165245
0.000162866
0.000160554
0.000158308
0.00015613
0.000154023
0.000151985
0.00015001
0.000148092
0.000146227
0.000144413
0.000142645
0.000140919
0.000139229
0.000137573
0.000135951
0.000134365
0.000132817
0.000131308
0.000129841
0.000128419
0.000127049
0.000125736
0.000270606
0.000264361
0.000258417
0.000252744
0.000247324
0.000242145
0.000237195
0.000232463
0.000227935
0.000223596
0.00021943
0.000215428
0.000211587
0.0002079
0.000204362
0.000200962
0.000197696
0.000194556
0.00019153
0.000188608
0.00018578
0.000183043
0.000180392
0.00017782
0.000175317
0.00017288
0.000170507
0.0001682
0.000165956
0.000163777
0.000161664
0.000159623
0.000157655
0.000155759
0.000153928
0.000152159
0.000150452
0.000148802
0.000147202
0.000145645
0.000144127
0.000142649
0.000141211
0.000139819
0.000138473
0.00013718
0.000135948
0.000134794
0.00013374
0.000132818
0.000272559
0.000269182
0.000265958
0.000262869
0.000259895
0.000257016
0.000254221
0.000251504
0.00024886
0.000246282
0.00024377
0.000241324
0.000238945
0.000236632
0.000234382
0.000232192
0.00023006
0.000227981
0.000225951
0.000223968
0.00022203
0.000220137
0.000218286
0.000216472
0.000214692
0.000212949
0.000211241
0.00020957
0.000207935
0.000206338
0.000204783
0.00020327
0.000201797
0.00020036
0.000198959
0.000197593
0.000196257
0.000194947
0.000193656
0.000192384
0.00019113
0.000189893
0.000188673
0.000187469
0.00018628
0.000185107
0.000183954
0.00018282
0.000181702
0.000180591
0.0002462
0.000106669
0.000102779
0.000118261
0.000127741
0.000127039
0.00011686
0.000102475
9.14744e-05
8.60012e-05
8.19238e-05
7.62743e-05
6.57888e-05
5.7795e-05
5.84999e-05
6.40242e-05
7.23178e-05
8.67456e-05
0.000131756
0.000356546
0.000244763
0.000106514
0.000103065
0.000118629
0.000128081
0.000127281
0.000116978
0.00010253
9.16125e-05
8.62914e-05
8.23331e-05
7.69418e-05
6.75726e-05
5.89916e-05
5.78964e-05
6.27824e-05
7.08253e-05
8.46858e-05
0.000129012
0.00035613
0.000243343
0.000106312
0.000103354
0.000119002
0.000128424
0.00012752
0.000117087
0.000102571
9.17405e-05
8.65764e-05
8.27287e-05
7.75027e-05
6.84427e-05
5.97153e-05
5.7742e-05
6.21999e-05
7.01252e-05
8.37523e-05
0.000127907
0.000356759
0.000241907
0.000106095
0.000103646
0.000119382
0.000128772
0.000127759
0.000117188
0.000102599
9.1861e-05
8.68678e-05
8.31511e-05
7.82082e-05
6.93812e-05
6.04727e-05
5.767e-05
6.16412e-05
6.9428e-05
8.28278e-05
0.000126832
0.000357438
0.000240472
0.000105861
0.000103942
0.000119769
0.000129126
0.000127997
0.000117279
0.00010261
9.19666e-05
8.71447e-05
8.35347e-05
7.87595e-05
7.02869e-05
6.12455e-05
5.76777e-05
6.11126e-05
6.87358e-05
8.19126e-05
0.000125778
0.00035814
0.000239035
0.000105611
0.000104242
0.000120163
0.000129483
0.000128233
0.000117359
0.000102606
9.20644e-05
8.74218e-05
8.39039e-05
7.91991e-05
7.10983e-05
6.20228e-05
5.7761e-05
6.06188e-05
6.80499e-05
8.10049e-05
0.000124739
0.000358838
0.000237596
0.000105345
0.000104546
0.000120562
0.000129843
0.000128464
0.000117425
0.000102584
9.21521e-05
8.76997e-05
8.42752e-05
7.96379e-05
7.18463e-05
6.28123e-05
5.79212e-05
6.01658e-05
6.73731e-05
8.01061e-05
0.000123714
0.000359534
0.000236152
0.000105066
0.000104853
0.000120968
0.000130207
0.000128693
0.000117479
0.000102547
9.2233e-05
8.79806e-05
8.46538e-05
8.01372e-05
7.25954e-05
6.36245e-05
5.81583e-05
5.97614e-05
6.6709e-05
7.92178e-05
0.000122706
0.000360231
0.000234703
0.000104778
0.000105166
0.00012138
0.000130575
0.000128918
0.000117521
0.000102494
9.23098e-05
8.82691e-05
8.50431e-05
8.07186e-05
7.33915e-05
6.4461e-05
5.84675e-05
5.94098e-05
6.60605e-05
7.83405e-05
0.000121715
0.000360929
0.00023325
0.000104483
0.000105485
0.000121802
0.000130949
0.000129141
0.000117551
0.000102425
9.23822e-05
8.85657e-05
8.54378e-05
8.13391e-05
7.42386e-05
6.53151e-05
5.88408e-05
5.91124e-05
6.54294e-05
7.74747e-05
0.000120739
0.000361624
0.000231795
0.000104182
0.000105813
0.000122234
0.000131327
0.000129359
0.000117565
0.000102339
9.24473e-05
8.88657e-05
8.58267e-05
8.19129e-05
7.50779e-05
6.61693e-05
5.92689e-05
5.88699e-05
6.4817e-05
7.66198e-05
0.000119777
0.000362314
0.000230341
0.000103875
0.000106149
0.000122675
0.000131711
0.000129572
0.000117563
0.000102233
9.25064e-05
8.91653e-05
8.61904e-05
8.23876e-05
7.58458e-05
6.7004e-05
5.97413e-05
5.86817e-05
6.42248e-05
7.57756e-05
0.000118828
0.000362996
0.000228887
0.000103557
0.000106494
0.000123125
0.000132097
0.000129778
0.000117542
0.000102106
9.25597e-05
8.94698e-05
8.6534e-05
8.27633e-05
7.65148e-05
6.78108e-05
6.02491e-05
5.85477e-05
6.36551e-05
7.49429e-05
0.000117891
0.000363673
0.000227433
0.000103225
0.000106846
0.000123582
0.000132485
0.000129976
0.000117503
0.000101959
9.26093e-05
8.97824e-05
8.68697e-05
8.31078e-05
7.71103e-05
6.85944e-05
6.07881e-05
5.84685e-05
6.31115e-05
7.41236e-05
0.000116969
0.00036435
0.000225977
0.000102882
0.000107205
0.000124046
0.000132875
0.000130166
0.000117447
0.000101795
9.26595e-05
9.01083e-05
8.72046e-05
8.34858e-05
7.76853e-05
6.93627e-05
6.13543e-05
5.84445e-05
6.25981e-05
7.33202e-05
0.000116063
0.00036503
0.000224517
0.00010253
0.000107572
0.000124519
0.000133269
0.000130353
0.000117376
0.000101615
9.27144e-05
9.04546e-05
8.7541e-05
8.39081e-05
7.82748e-05
7.01195e-05
6.1943e-05
5.84748e-05
6.2118e-05
7.25348e-05
0.000115173
0.000365718
0.000223053
0.000102176
0.000107949
0.000125001
0.000133669
0.000130535
0.000117289
0.000101418
9.2773e-05
9.08208e-05
8.78735e-05
8.43289e-05
7.88666e-05
7.08584e-05
6.25473e-05
5.85561e-05
6.16732e-05
7.17686e-05
0.000114301
0.000366416
0.000221587
0.000101821
0.000108337
0.000125494
0.000134075
0.000130713
0.000117185
0.000101202
9.28341e-05
9.12019e-05
8.81845e-05
8.46823e-05
7.94141e-05
7.15638e-05
6.31574e-05
5.86827e-05
6.12644e-05
7.1022e-05
0.000113446
0.000367126
0.000220122
0.000101466
0.000108737
0.000125998
0.000134485
0.000130884
0.000117062
0.000100966
9.28983e-05
9.1597e-05
8.84591e-05
8.49202e-05
7.98635e-05
7.22181e-05
6.37622e-05
5.88476e-05
6.08913e-05
7.02957e-05
0.000112609
0.000367854
0.000218657
0.000101111
0.000109147
0.000126511
0.000134898
0.000131046
0.000116918
0.000100711
9.29688e-05
9.20102e-05
8.86986e-05
8.50423e-05
8.01903e-05
7.28095e-05
6.43517e-05
5.90432e-05
6.05534e-05
6.95906e-05
0.000111791
0.000368603
0.000217191
0.000100753
0.000109567
0.00012703
0.00013531
0.000131199
0.000116756
0.00010044
9.30503e-05
9.24468e-05
8.89114e-05
8.50918e-05
8.04072e-05
7.33359e-05
6.49179e-05
5.92625e-05
6.025e-05
6.89077e-05
0.000110993
0.000369382
0.000215724
0.000100396
0.000109996
0.000127554
0.000135723
0.000131344
0.000116578
0.00010016
9.31498e-05
9.29134e-05
8.9106e-05
8.51215e-05
8.05492e-05
7.38003e-05
6.54538e-05
5.94982e-05
5.99798e-05
6.82484e-05
0.000110217
0.000370201
0.000214253
0.000100044
0.000110433
0.000128083
0.000136136
0.000131482
0.000116389
9.9876e-05
9.32741e-05
9.34154e-05
8.92865e-05
8.51532e-05
8.06466e-05
7.42043e-05
6.59524e-05
5.97423e-05
5.97407e-05
6.76138e-05
0.000109468
0.000371073
0.000212777