/*--------------------------------*- C++ -*----------------------------------*\
  =========                 |
  \\      /  F ield         | OpenFOAM: The Open Source CFD Toolbox
   \\    /   O peration     | Website:  https://openfoam.org
    \\  /    A nd           | Version:  8
     \\/     M anipulation  |
\*---------------------------------------------------------------------------*/
FoamFile
{
    version     2.0;
    format      ascii;
    class       volScalarField;
    location    "1000";
    object      p;
}
// * * * * * * * * * * * * * * * * * * * * * * * * * * * * * * * * * * * * * //

dimensions      [1 -1 -2 0 0 0 0];

internalField   nonuniform List<scalar> 
8400
(
137700
232044
335622
432977
527474
623231
727109
847932
994981
1.1755e+06
1.39093e+06
1.63443e+06
1.89142e+06
2.14419e+06
2.37901e+06
2.59038e+06
2.77949e+06
2.94969e+06
3.10332e+06
3.24168e+06
3.36693e+06
3.48316e+06
3.59642e+06
3.71099e+06
3.82609e+06
3.93624e+06
4.03463e+06
4.11586e+06
4.17607e+06
4.21301e+06
4.22878e+06
4.2358e+06
4.23936e+06
4.23926e+06
4.2351e+06
4.22726e+06
4.21728e+06
4.20662e+06
4.19602e+06
4.18523e+06
4.17315e+06
4.15866e+06
4.14133e+06
4.12168e+06
4.10088e+06
4.08031e+06
4.0611e+06
4.04355e+06
4.02745e+06
4.01271e+06
133280
232406
340411
443477
544852
647906
758065
882180
1.02735e+06
1.19924e+06
1.39916e+06
1.62251e+06
1.85899e+06
2.09584e+06
2.3224e+06
2.53297e+06
2.72648e+06
2.90373e+06
3.06582e+06
3.21364e+06
3.34912e+06
3.47505e+06
3.59503e+06
3.71163e+06
3.8245e+06
3.93024e+06
4.02393e+06
4.10092e+06
4.15841e+06
4.1963e+06
4.21686e+06
4.22556e+06
4.2285e+06
4.22807e+06
4.22436e+06
4.21777e+06
4.2091e+06
4.19928e+06
4.18878e+06
4.17747e+06
4.16471e+06
4.1499e+06
4.13292e+06
4.11423e+06
4.09472e+06
4.07542e+06
4.0571e+06
4.03988e+06
4.02343e+06
4.00743e+06
121992
227024
338880
447958
557715
670769
790659
921393
1.06718e+06
1.23143e+06
1.4152e+06
1.61596e+06
1.82793e+06
2.04356e+06
2.25622e+06
2.46138e+06
2.65657e+06
2.84052e+06
3.01249e+06
3.17238e+06
3.32085e+06
3.45914e+06
3.58845e+06
3.70949e+06
3.82182e+06
3.92362e+06
4.01208e+06
4.0845e+06
4.13943e+06
4.17745e+06
4.20087e+06
4.21293e+06
4.21748e+06
4.21762e+06
4.21466e+06
4.20909e+06
4.20138e+06
4.19204e+06
4.18138e+06
4.1695e+06
4.15625e+06
4.14149e+06
4.12529e+06
4.108e+06
4.09016e+06
4.07232e+06
4.05481e+06
4.0377e+06
4.02075e+06
4.00369e+06
104139
212924
325244
436659
550750
669713
795508
929833
1.07466e+06
1.23201e+06
1.40323e+06
1.5877e+06
1.78248e+06
1.983e+06
2.18471e+06
2.38414e+06
2.57865e+06
2.76694e+06
2.94731e+06
3.11873e+06
3.28002e+06
3.43031e+06
3.56902e+06
3.69578e+06
3.80991e+06
3.91038e+06
3.99602e+06
4.06582e+06
4.11953e+06
4.15811e+06
4.18365e+06
4.19875e+06
4.20592e+06
4.20738e+06
4.20512e+06
4.20019e+06
4.19297e+06
4.18387e+06
4.17322e+06
4.16126e+06
4.14804e+06
4.13366e+06
4.11829e+06
4.10217e+06
4.08555e+06
4.06862e+06
4.05149e+06
4.03424e+06
4.01674e+06
3.99892e+06
89718.3
202090
313713
424912
539289
658996
785068
917720
1.05755e+06
1.20601e+06
1.36526e+06
1.53684e+06
1.72014e+06
1.91211e+06
2.10844e+06
2.30547e+06
2.5004e+06
2.69192e+06
2.87914e+06
3.06066e+06
3.23403e+06
3.39584e+06
3.54364e+06
3.67616e+06
3.79304e+06
3.89409e+06
3.97904e+06
4.04796e+06
4.10145e+06
4.14076e+06
4.16787e+06
4.18503e+06
4.19436e+06
4.19767e+06
4.19649e+06
4.1921e+06
4.18531e+06
4.1765e+06
4.1661e+06
4.15439e+06
4.14151e+06
4.1276e+06
4.11284e+06
4.09738e+06
4.08134e+06
4.06482e+06
4.04785e+06
4.03046e+06
4.01264e+06
3.99443e+06
78859.2
193200
302954
411446
522365
638234
760098
887629
1.02054e+06
1.15977e+06
1.30801e+06
1.46857e+06
1.64308e+06
1.82993e+06
2.02494e+06
2.2229e+06
2.42027e+06
2.61561e+06
2.80905e+06
2.99993e+06
3.18485e+06
3.35832e+06
3.51557e+06
3.65431e+06
3.77463e+06
3.87742e+06
3.96333e+06
4.03286e+06
4.08691e+06
4.12706e+06
4.15533e+06
4.17379e+06
4.18445e+06
4.18903e+06
4.18899e+06
4.18543e+06
4.17909e+06
4.17058e+06
4.16045e+06
4.14897e+06
4.13631e+06
4.12263e+06
4.10814e+06
4.09298e+06
4.0772e+06
4.06087e+06
4.04398e+06
4.02659e+06
4.0087e+06
3.99037e+06
74094.1
189275
295783
398660
502092
609449
722729
842188
967299
1.09839e+06
1.23793e+06
1.38997e+06
1.55815e+06
1.74239e+06
1.93836e+06
2.13992e+06
2.34189e+06
2.54259e+06
2.74255e+06
2.94225e+06
3.13826e+06
3.32319e+06
3.48982e+06
3.63474e+06
3.75862e+06
3.86367e+06
3.95136e+06
4.02233e+06
4.07752e+06
4.11856e+06
4.14757e+06
4.16673e+06
4.17809e+06
4.18334e+06
4.18381e+06
4.18064e+06
4.17467e+06
4.16651e+06
4.15662e+06
4.14531e+06
4.13279e+06
4.11923e+06
4.10488e+06
4.08983e+06
4.07415e+06
4.05788e+06
4.04102e+06
4.02363e+06
4.00572e+06
3.98737e+06
74600.9
190364
293414
390203
485151
582348
684690
793754
909811
1.03318e+06
1.16569e+06
1.31116e+06
1.4739e+06
1.65566e+06
1.85307e+06
2.05965e+06
2.26891e+06
2.47748e+06
2.68578e+06
2.8945e+06
3.10068e+06
3.29607e+06
3.47127e+06
3.62163e+06
3.74848e+06
3.85558e+06
3.94532e+06
4.01833e+06
4.07503e+06
4.1168e+06
4.146e+06
4.16516e+06
4.17648e+06
4.18167e+06
4.18214e+06
4.179e+06
4.17306e+06
4.16488e+06
4.15496e+06
4.14363e+06
4.1311e+06
4.11758e+06
4.10326e+06
4.08823e+06
4.07254e+06
4.05626e+06
4.0394e+06
4.02198e+06
4.00407e+06
3.9857e+06
76966.2
192356
292424
385891
476681
568450
663877
765085
873489
990114
1.11645e+06
1.25561e+06
1.4119e+06
1.58817e+06
1.78358e+06
1.99291e+06
2.20954e+06
2.42786e+06
2.64576e+06
2.86324e+06
3.07785e+06
3.28142e+06
3.46328e+06
3.61767e+06
3.74649e+06
3.85518e+06
3.94717e+06
4.0226e+06
4.0809e+06
4.12305e+06
4.15168e+06
4.1699e+06
4.18025e+06
4.18465e+06
4.18456e+06
4.18099e+06
4.1747e+06
4.16625e+06
4.15611e+06
4.14459e+06
4.13189e+06
4.11823e+06
4.10376e+06
4.08856e+06
4.07272e+06
4.0563e+06
4.03931e+06
4.02179e+06
4.0038e+06
3.98533e+06
75590.1
190096
289050
381411
471593
563200
658419
758905
865969
980951
1.10538e+06
1.24168e+06
1.3934e+06
1.56366e+06
1.75357e+06
1.9611e+06
2.18059e+06
2.40515e+06
2.63014e+06
2.85365e+06
3.07317e+06
3.28126e+06
3.46695e+06
3.62378e+06
3.75386e+06
3.86382e+06
3.95808e+06
4.03625e+06
4.09629e+06
4.13825e+06
4.16524e+06
4.18134e+06
4.18975e+06
4.1926e+06
4.1913e+06
4.1868e+06
4.17981e+06
4.17086e+06
4.1603e+06
4.14841e+06
4.1354e+06
4.12143e+06
4.10667e+06
4.09119e+06
4.07506e+06
4.05835e+06
4.04109e+06
4.02335e+06
4.00521e+06
3.9865e+06
68631.3
182159
282565
374159
463723
555873
653120
756690
867373
986124
1.11447e+06
1.25451e+06
1.40862e+06
1.57945e+06
1.76857e+06
1.97453e+06
2.19296e+06
2.41844e+06
2.64544e+06
2.87015e+06
3.08954e+06
3.29712e+06
3.4829e+06
3.64036e+06
3.77111e+06
3.88203e+06
3.9784e+06
4.05947e+06
4.12137e+06
4.16261e+06
4.18669e+06
4.19933e+06
4.2047e+06
4.20516e+06
4.20206e+06
4.19624e+06
4.18832e+06
4.17864e+06
4.16748e+06
4.15509e+06
4.14161e+06
4.12717e+06
4.11194e+06
4.09604e+06
4.0795e+06
4.06235e+06
4.04466e+06
4.02658e+06
4.00814e+06
3.98903e+06
46092.2
160811
266650
359901
449633
542486
642685
751703
869758
996940
1.13401e+06
1.28233e+06
1.44342e+06
1.61866e+06
1.80926e+06
2.01507e+06
2.2338e+06
2.46057e+06
2.68879e+06
2.91309e+06
3.12945e+06
3.3323e+06
3.51413e+06
3.66969e+06
3.79971e+06
3.91036e+06
4.00755e+06
4.09078e+06
4.15447e+06
4.19463e+06
4.2146e+06
4.22233e+06
4.22362e+06
4.22109e+06
4.21592e+06
4.20869e+06
4.19972e+06
4.18922e+06
4.17736e+06
4.16434e+06
4.15027e+06
4.13523e+06
4.11943e+06
4.10297e+06
4.08584e+06
4.06809e+06
4.04986e+06
4.03129e+06
4.01238e+06
3.99267e+06
20002.3
130218
240907
336099
425269
516972
617788
731133
857570
996682
1.14858e+06
1.31314e+06
1.49012e+06
1.67884e+06
1.87892e+06
2.09006e+06
2.31057e+06
2.53649e+06
2.76211e+06
2.9819e+06
3.19171e+06
3.38734e+06
3.56337e+06
3.71476e+06
3.84145e+06
3.94906e+06
4.04389e+06
4.12662e+06
4.19131e+06
4.23061e+06
4.24588e+06
4.24766e+06
4.24422e+06
4.23858e+06
4.23145e+06
4.22296e+06
4.21309e+06
4.20187e+06
4.1894e+06
4.17572e+06
4.16098e+06
4.14527e+06
4.12875e+06
4.11156e+06
4.09369e+06
4.07522e+06
4.05633e+06
4.03715e+06
4.01757e+06
3.99711e+06
-17973.7
90389.8
205094
299813
385028
470666
565432
675832
805340
955234
1.12593e+06
1.31622e+06
1.52308e+06
1.74149e+06
1.96655e+06
2.19525e+06
2.42532e+06
2.6535e+06
2.87553e+06
3.08733e+06
3.28596e+06
3.46881e+06
3.63248e+06
3.77351e+06
3.89215e+06
3.99376e+06
4.08365e+06
4.1624e+06
4.22544e+06
4.26414e+06
4.27533e+06
4.27101e+06
4.26305e+06
4.25501e+06
4.24677e+06
4.23772e+06
4.22746e+06
4.21587e+06
4.20291e+06
4.18861e+06
4.17316e+06
4.15671e+06
4.13939e+06
4.12132e+06
4.10259e+06
4.0833e+06
4.06361e+06
4.04361e+06
4.0232e+06
4.00186e+06
-22239.3
82604.4
199784
290048
364673
433605
506501
594095
705929
849678
1.03062e+06
1.24939e+06
1.49974e+06
1.76887e+06
2.04267e+06
2.31069e+06
2.56665e+06
2.80695e+06
3.02933e+06
3.2323e+06
3.41569e+06
3.57968e+06
3.72374e+06
3.84664e+06
3.94946e+06
4.03768e+06
4.11778e+06
4.19042e+06
4.24963e+06
4.28687e+06
4.29584e+06
4.28707e+06
4.27615e+06
4.26749e+06
4.25984e+06
4.25155e+06
4.24176e+06
4.23027e+06
4.21709e+06
4.20233e+06
4.18623e+06
4.16902e+06
4.15085e+06
4.13187e+06
4.11224e+06
4.09209e+06
4.0715e+06
4.05059e+06
4.02925e+06
4.00698e+06
-73714.5
61762.1
193907
285944
360435
421426
472988
526737
599236
710731
881038
1.12246e+06
1.42892e+06
1.77201e+06
2.11718e+06
2.44136e+06
2.73324e+06
2.9904e+06
3.21575e+06
3.41096e+06
3.57787e+06
3.71836e+06
3.8347e+06
3.92925e+06
4.0063e+06
4.07326e+06
4.13794e+06
4.20156e+06
4.25631e+06
4.29164e+06
4.30066e+06
4.29086e+06
4.27999e+06
4.27353e+06
4.26894e+06
4.26318e+06
4.25496e+06
4.24417e+06
4.23109e+06
4.216e+06
4.19928e+06
4.18125e+06
4.16211e+06
4.14211e+06
4.12145e+06
4.10028e+06
4.07867e+06
4.05671e+06
4.03428e+06
4.01091e+06
-87864.9
51226.2
142333
184310
227239
263001
285170
299906
323445
388365
538845
820020
1.24203e+06
1.75106e+06
2.26123e+06
2.70708e+06
3.05838e+06
3.31752e+06
3.51241e+06
3.66833e+06
3.79586e+06
3.89616e+06
3.97006e+06
4.02191e+06
4.0603e+06
4.09588e+06
4.1383e+06
4.18978e+06
4.24214e+06
4.27662e+06
4.28761e+06
4.28114e+06
4.27359e+06
4.27199e+06
4.27298e+06
4.27177e+06
4.26632e+06
4.25696e+06
4.24445e+06
4.22938e+06
4.21227e+06
4.19359e+06
4.17368e+06
4.15286e+06
4.13137e+06
4.10934e+06
4.08689e+06
4.06406e+06
4.04071e+06
4.01642e+06
84667.4
415491
495761
451864
379532
265646
134665
-4112.04
-135019
-216793
-183629
62164.9
587172
1.3306e+06
2.13276e+06
2.86014e+06
3.41083e+06
3.74412e+06
3.91714e+06
4.00733e+06
4.05991e+06
4.09245e+06
4.10927e+06
4.11406e+06
4.11575e+06
4.12351e+06
4.14212e+06
4.17308e+06
4.21346e+06
4.24737e+06
4.26346e+06
4.26514e+06
4.26237e+06
4.26493e+06
4.27182e+06
4.27622e+06
4.27436e+06
4.26688e+06
4.25515e+06
4.24014e+06
4.22255e+06
4.20306e+06
4.18217e+06
4.16029e+06
4.13767e+06
4.11448e+06
4.09083e+06
4.06674e+06
4.04206e+06
4.01641e+06
265500
528671
543626
446668
342754
235820
109750
-34810.5
-181905
-288700
-292200
-102856
378321
1.11203e+06
1.93905e+06
2.7221e+06
3.36739e+06
3.797e+06
4.0211e+06
4.11706e+06
4.14955e+06
4.15149e+06
4.13903e+06
4.12438e+06
4.11518e+06
4.1164e+06
4.13237e+06
4.16135e+06
4.19541e+06
4.22783e+06
4.24678e+06
4.25272e+06
4.25502e+06
4.25965e+06
4.26783e+06
4.27588e+06
4.278e+06
4.2733e+06
4.26329e+06
4.24914e+06
4.23184e+06
4.21229e+06
4.19116e+06
4.16894e+06
4.14596e+06
4.12242e+06
4.09846e+06
4.07406e+06
4.04893e+06
4.02267e+06
262481
498923
531023
438349
320890
231284
134935
25416.6
-79759.7
-145913
-126031
48155.9
465470
1.14668e+06
1.96409e+06
2.74833e+06
3.38315e+06
3.80444e+06
4.0301e+06
4.12612e+06
4.15429e+06
4.15036e+06
4.13313e+06
4.11568e+06
4.10698e+06
4.11234e+06
4.13429e+06
4.16333e+06
4.19166e+06
4.21839e+06
4.23876e+06
4.24807e+06
4.25219e+06
4.25801e+06
4.26649e+06
4.27281e+06
4.27507e+06
4.27196e+06
4.26327e+06
4.24992e+06
4.23299e+06
4.21349e+06
4.1922e+06
4.16967e+06
4.14627e+06
4.1222e+06
4.0976e+06
4.07235e+06
4.04584e+06
4.01751e+06
3.91983e+06
3.91931e+06
3.91905e+06
3.91895e+06
3.91888e+06
3.91882e+06
3.91876e+06
3.91872e+06
3.91868e+06
3.91865e+06
3.91862e+06
3.91859e+06
3.91856e+06
3.91853e+06
3.9185e+06
3.91847e+06
3.91844e+06
3.91841e+06
3.91838e+06
3.91835e+06
3.91833e+06
3.91831e+06
3.9183e+06
3.9183e+06
3.91831e+06
3.91833e+06
3.91836e+06
3.91839e+06
3.91844e+06
3.91848e+06
3.91853e+06
3.91858e+06
3.91863e+06
3.91867e+06
3.9187e+06
3.91872e+06
3.91875e+06
3.91876e+06
3.91878e+06
3.91879e+06
3.9188e+06
3.91881e+06
3.91881e+06
3.91881e+06
3.91881e+06
3.9188e+06
3.91877e+06
3.91873e+06
3.91867e+06
3.91858e+06
3.91814e+06
3.91842e+06
3.91849e+06
3.91852e+06
3.91854e+06
3.91854e+06
3.91853e+06
3.91851e+06
3.91849e+06
3.91848e+06
3.91846e+06
3.91844e+06
3.91841e+06
3.91839e+06
3.91836e+06
3.91834e+06
3.91831e+06
3.91828e+06
3.91825e+06
3.91823e+06
3.91821e+06
3.91819e+06
3.91819e+06
3.91819e+06
3.9182e+06
3.91822e+06
3.91825e+06
3.91829e+06
3.91833e+06
3.91838e+06
3.91843e+06
3.91848e+06
3.91852e+06
3.91856e+06
3.9186e+06
3.91862e+06
3.91865e+06
3.91866e+06
3.91868e+06
3.91869e+06
3.9187e+06
3.91871e+06
3.91872e+06
3.91872e+06
3.91872e+06
3.91871e+06
3.91869e+06
3.91865e+06
3.9186e+06
3.91853e+06
3.91851e+06
3.91865e+06
3.9187e+06
3.91869e+06
3.91866e+06
3.91863e+06
3.9186e+06
3.91857e+06
3.91853e+06
3.9185e+06
3.91846e+06
3.91843e+06
3.9184e+06
3.91837e+06
3.91833e+06
3.9183e+06
3.91827e+06
3.91824e+06
3.91821e+06
3.91818e+06
3.91816e+06
3.91814e+06
3.91813e+06
3.91812e+06
3.91813e+06
3.91815e+06
3.91818e+06
3.91822e+06
3.91826e+06
3.91831e+06
3.91836e+06
3.91841e+06
3.91845e+06
3.91849e+06
3.91852e+06
3.91855e+06
3.91857e+06
3.91859e+06
3.91861e+06
3.91862e+06
3.91863e+06
3.91864e+06
3.91865e+06
3.91866e+06
3.91866e+06
3.91865e+06
3.91863e+06
3.91861e+06
3.91856e+06
3.91851e+06
3.91844e+06
3.91847e+06
3.91847e+06
3.91845e+06
3.91842e+06
3.9184e+06
3.91838e+06
3.91836e+06
3.91833e+06
3.91831e+06
3.91828e+06
3.91826e+06
3.91824e+06
3.91821e+06
3.91819e+06
3.91816e+06
3.91813e+06
3.9181e+06
3.91807e+06
3.91805e+06
3.91803e+06
3.91801e+06
3.918e+06
3.91801e+06
3.91802e+06
3.91804e+06
3.91807e+06
3.91811e+06
3.91815e+06
3.9182e+06
3.91825e+06
3.9183e+06
3.91835e+06
3.91839e+06
3.91843e+06
3.91845e+06
3.91848e+06
3.9185e+06
3.91851e+06
3.91853e+06
3.91854e+06
3.91856e+06
3.91857e+06
3.91858e+06
3.91859e+06
3.91858e+06
3.91858e+06
3.91856e+06
3.91853e+06
3.91849e+06
3.91839e+06
3.9184e+06
3.91842e+06
3.91842e+06
3.91841e+06
3.91839e+06
3.91838e+06
3.91835e+06
3.91833e+06
3.9183e+06
3.91828e+06
3.91825e+06
3.91822e+06
3.91819e+06
3.91816e+06
3.91813e+06
3.9181e+06
3.91807e+06
3.91804e+06
3.91801e+06
3.91799e+06
3.91797e+06
3.91796e+06
3.91796e+06
3.91797e+06
3.91799e+06
3.91802e+06
3.91805e+06
3.9181e+06
3.91815e+06
3.9182e+06
3.91825e+06
3.9183e+06
3.91834e+06
3.91837e+06
3.9184e+06
3.91842e+06
3.91844e+06
3.91846e+06
3.91847e+06
3.91849e+06
3.91851e+06
3.91852e+06
3.91854e+06
3.91855e+06
3.91855e+06
3.91855e+06
3.91854e+06
3.91852e+06
3.91849e+06
3.91832e+06
3.91833e+06
3.91833e+06
3.91832e+06
3.9183e+06
3.91828e+06
3.91826e+06
3.91823e+06
3.91821e+06
3.91818e+06
3.91815e+06
3.91813e+06
3.9181e+06
3.91807e+06
3.91804e+06
3.91801e+06
3.91798e+06
3.91795e+06
3.91792e+06
3.9179e+06
3.91787e+06
3.91786e+06
3.91785e+06
3.91785e+06
3.91786e+06
3.91788e+06
3.91791e+06
3.91795e+06
3.918e+06
3.91805e+06
3.9181e+06
3.91816e+06
3.9182e+06
3.91824e+06
3.91828e+06
3.91831e+06
3.91833e+06
3.91835e+06
3.91838e+06
3.9184e+06
3.91842e+06
3.91844e+06
3.91846e+06
3.91848e+06
3.9185e+06
3.91851e+06
3.91851e+06
3.91851e+06
3.9185e+06
3.91848e+06
3.91826e+06
3.91826e+06
3.91825e+06
3.91825e+06
3.91824e+06
3.91822e+06
3.9182e+06
3.91818e+06
3.91816e+06
3.91813e+06
3.91811e+06
3.91808e+06
3.91806e+06
3.91803e+06
3.918e+06
3.91797e+06
3.91794e+06
3.91791e+06
3.91788e+06
3.91785e+06
3.91783e+06
3.91781e+06
3.9178e+06
3.9178e+06
3.91781e+06
3.91783e+06
3.91786e+06
3.9179e+06
3.91795e+06
3.918e+06
3.91806e+06
3.91811e+06
3.91815e+06
3.91819e+06
3.91823e+06
3.91826e+06
3.91828e+06
3.91831e+06
3.91833e+06
3.91835e+06
3.91837e+06
3.9184e+06
3.91842e+06
3.91845e+06
3.91847e+06
3.91849e+06
3.9185e+06
3.91851e+06
3.9185e+06
3.91849e+06
3.91819e+06
3.91819e+06
3.91818e+06
3.91817e+06
3.91816e+06
3.91814e+06
3.91812e+06
3.9181e+06
3.91808e+06
3.91805e+06
3.91802e+06
3.918e+06
3.91797e+06
3.91794e+06
3.91791e+06
3.91788e+06
3.91785e+06
3.91782e+06
3.91779e+06
3.91776e+06
3.91774e+06
3.91772e+06
3.91771e+06
3.91771e+06
3.91772e+06
3.91774e+06
3.91777e+06
3.91782e+06
3.91787e+06
3.91792e+06
3.91797e+06
3.91802e+06
3.91807e+06
3.91811e+06
3.91815e+06
3.91818e+06
3.91821e+06
3.91823e+06
3.91826e+06
3.91828e+06
3.91831e+06
3.91834e+06
3.91837e+06
3.9184e+06
3.91843e+06
3.91846e+06
3.91848e+06
3.91849e+06
3.91849e+06
3.91849e+06
3.91812e+06
3.91812e+06
3.91811e+06
3.9181e+06
3.91809e+06
3.91808e+06
3.91806e+06
3.91804e+06
3.91801e+06
3.91799e+06
3.91796e+06
3.91794e+06
3.91791e+06
3.91788e+06
3.91786e+06
3.91783e+06
3.9178e+06
3.91776e+06
3.91773e+06
3.9177e+06
3.91768e+06
3.91766e+06
3.91765e+06
3.91765e+06
3.91766e+06
3.91768e+06
3.91772e+06
3.91776e+06
3.91781e+06
3.91786e+06
3.91792e+06
3.91797e+06
3.91802e+06
3.91806e+06
3.9181e+06
3.91813e+06
3.91816e+06
3.91818e+06
3.91821e+06
3.91824e+06
3.91827e+06
3.9183e+06
3.91834e+06
3.91838e+06
3.91841e+06
3.91844e+06
3.91847e+06
3.91849e+06
3.9185e+06
3.9185e+06
3.91804e+06
3.91804e+06
3.91804e+06
3.91803e+06
3.91802e+06
3.91801e+06
3.91799e+06
3.91797e+06
3.91794e+06
3.91792e+06
3.91789e+06
3.91787e+06
3.91784e+06
3.91781e+06
3.91778e+06
3.91775e+06
3.91772e+06
3.91769e+06
3.91766e+06
3.91763e+06
3.91761e+06
3.91759e+06
3.91758e+06
3.91758e+06
3.91759e+06
3.91761e+06
3.91765e+06
3.91769e+06
3.91774e+06
3.9178e+06
3.91785e+06
3.9179e+06
3.91795e+06
3.918e+06
3.91803e+06
3.91807e+06
3.9181e+06
3.91812e+06
3.91815e+06
3.91818e+06
3.91822e+06
3.91826e+06
3.9183e+06
3.91834e+06
3.91838e+06
3.91842e+06
3.91845e+06
3.91848e+06
3.91849e+06
3.9185e+06
3.91797e+06
3.91797e+06
3.91797e+06
3.91796e+06
3.91795e+06
3.91794e+06
3.91792e+06
3.9179e+06
3.91788e+06
3.91785e+06
3.91783e+06
3.9178e+06
3.91777e+06
3.91775e+06
3.91772e+06
3.91769e+06
3.91766e+06
3.91762e+06
3.91759e+06
3.91756e+06
3.91754e+06
3.91752e+06
3.91751e+06
3.91751e+06
3.91752e+06
3.91755e+06
3.91758e+06
3.91763e+06
3.91768e+06
3.91773e+06
3.91779e+06
3.91784e+06
3.91789e+06
3.91794e+06
3.91797e+06
3.91801e+06
3.91804e+06
3.91807e+06
3.9181e+06
3.91813e+06
3.91817e+06
3.91822e+06
3.91826e+06
3.91831e+06
3.91836e+06
3.9184e+06
3.91844e+06
3.91847e+06
3.91849e+06
3.91851e+06
3.9179e+06
3.9179e+06
3.9179e+06
3.91789e+06
3.91788e+06
3.91787e+06
3.91785e+06
3.91783e+06
3.91781e+06
3.91779e+06
3.91776e+06
3.91774e+06
3.91771e+06
3.91768e+06
3.91765e+06
3.91762e+06
3.91759e+06
3.91756e+06
3.91753e+06
3.9175e+06
3.91748e+06
3.91746e+06
3.91745e+06
3.91745e+06
3.91746e+06
3.91749e+06
3.91752e+06
3.91757e+06
3.91762e+06
3.91768e+06
3.91773e+06
3.91779e+06
3.91784e+06
3.91788e+06
3.91792e+06
3.91795e+06
3.91798e+06
3.91801e+06
3.91805e+06
3.91808e+06
3.91813e+06
3.91817e+06
3.91823e+06
3.91828e+06
3.91833e+06
3.91838e+06
3.91842e+06
3.91846e+06
3.91849e+06
3.91851e+06
3.91783e+06
3.91783e+06
3.91782e+06
3.91782e+06
3.91781e+06
3.9178e+06
3.91778e+06
3.91776e+06
3.91774e+06
3.91771e+06
3.91769e+06
3.91766e+06
3.91763e+06
3.9176e+06
3.91757e+06
3.91754e+06
3.91751e+06
3.91748e+06
3.91745e+06
3.91742e+06
3.91739e+06
3.91738e+06
3.91737e+06
3.91737e+06
3.91738e+06
3.91741e+06
3.91745e+06
3.91749e+06
3.91755e+06
3.9176e+06
3.91766e+06
3.91771e+06
3.91776e+06
3.91781e+06
3.91785e+06
3.91788e+06
3.91791e+06
3.91795e+06
3.91798e+06
3.91802e+06
3.91807e+06
3.91812e+06
3.91818e+06
3.91824e+06
3.91829e+06
3.91835e+06
3.9184e+06
3.91844e+06
3.91847e+06
3.9185e+06
3.91775e+06
3.91775e+06
3.91775e+06
3.91775e+06
3.91774e+06
3.91773e+06
3.91772e+06
3.9177e+06
3.91768e+06
3.91765e+06
3.91763e+06
3.9176e+06
3.91758e+06
3.91755e+06
3.91752e+06
3.91749e+06
3.91746e+06
3.91743e+06
3.9174e+06
3.91737e+06
3.91734e+06
3.91733e+06
3.91732e+06
3.91732e+06
3.91734e+06
3.91736e+06
3.9174e+06
3.91744e+06
3.9175e+06
3.91755e+06
3.91761e+06
3.91766e+06
3.91771e+06
3.91776e+06
3.91779e+06
3.91783e+06
3.91786e+06
3.91789e+06
3.91793e+06
3.91798e+06
3.91802e+06
3.91808e+06
3.91814e+06
3.9182e+06
3.91827e+06
3.91833e+06
3.91838e+06
3.91843e+06
3.91847e+06
3.9185e+06
3.91766e+06
3.91767e+06
3.91767e+06
3.91767e+06
3.91766e+06
3.91765e+06
3.91763e+06
3.91761e+06
3.91758e+06
3.91756e+06
3.91753e+06
3.9175e+06
3.91747e+06
3.91744e+06
3.91741e+06
3.91738e+06
3.91735e+06
3.91732e+06
3.91729e+06
3.91727e+06
3.91724e+06
3.91723e+06
3.91722e+06
3.91722e+06
3.91724e+06
3.91727e+06
3.91731e+06
3.91735e+06
3.91741e+06
3.91747e+06
3.91752e+06
3.91758e+06
3.91762e+06
3.91767e+06
3.91771e+06
3.91774e+06
3.91778e+06
3.91781e+06
3.91785e+06
3.9179e+06
3.91795e+06
3.91801e+06
3.91808e+06
3.91815e+06
3.91821e+06
3.91828e+06
3.91834e+06
3.91839e+06
3.91844e+06
3.91847e+06
3.91757e+06
3.91758e+06
3.9176e+06
3.91761e+06
3.91761e+06
3.91761e+06
3.91759e+06
3.91758e+06
3.91755e+06
3.91753e+06
3.9175e+06
3.91747e+06
3.91744e+06
3.91741e+06
3.91738e+06
3.91735e+06
3.91732e+06
3.91729e+06
3.91726e+06
3.91723e+06
3.9172e+06
3.91719e+06
3.91718e+06
3.91718e+06
3.9172e+06
3.91723e+06
3.91726e+06
3.91731e+06
3.91736e+06
3.91742e+06
3.91747e+06
3.91752e+06
3.91757e+06
3.91761e+06
3.91765e+06
3.91769e+06
3.91772e+06
3.91776e+06
3.9178e+06
3.91785e+06
3.9179e+06
3.91797e+06
3.91803e+06
3.9181e+06
3.91817e+06
3.91824e+06
3.91831e+06
3.91836e+06
3.91842e+06
3.91846e+06
3.91745e+06
3.91748e+06
3.91749e+06
3.91748e+06
3.91746e+06
3.91745e+06
3.91743e+06
3.91742e+06
3.91739e+06
3.91737e+06
3.91734e+06
3.91732e+06
3.91729e+06
3.91727e+06
3.91724e+06
3.91721e+06
3.91718e+06
3.91716e+06
3.91713e+06
3.9171e+06
3.91708e+06
3.91707e+06
3.91707e+06
3.91707e+06
3.91709e+06
3.91712e+06
3.91716e+06
3.91721e+06
3.91726e+06
3.91732e+06
3.91737e+06
3.91743e+06
3.91747e+06
3.91752e+06
3.91756e+06
3.91759e+06
3.91763e+06
3.91767e+06
3.91771e+06
3.91776e+06
3.91782e+06
3.91789e+06
3.91796e+06
3.91803e+06
3.9181e+06
3.91818e+06
3.91824e+06
3.91831e+06
3.91837e+06
3.91842e+06
3.91734e+06
3.91748e+06
3.91755e+06
3.91755e+06
3.91753e+06
3.91751e+06
3.91749e+06
3.91746e+06
3.91742e+06
3.91739e+06
3.91735e+06
3.91732e+06
3.91729e+06
3.91725e+06
3.91722e+06
3.91719e+06
3.91715e+06
3.91712e+06
3.91709e+06
3.91706e+06
3.91704e+06
3.91703e+06
3.91702e+06
3.91703e+06
3.91704e+06
3.91707e+06
3.91711e+06
3.91715e+06
3.9172e+06
3.91726e+06
3.91731e+06
3.91736e+06
3.91741e+06
3.91745e+06
3.91749e+06
3.91753e+06
3.91756e+06
3.9176e+06
3.91765e+06
3.9177e+06
3.91776e+06
3.91782e+06
3.9179e+06
3.91797e+06
3.91805e+06
3.91812e+06
3.91819e+06
3.91826e+06
3.91833e+06
3.91839e+06
3.91679e+06
3.91708e+06
3.91717e+06
3.9172e+06
3.91722e+06
3.91723e+06
3.91723e+06
3.91722e+06
3.91721e+06
3.91719e+06
3.91717e+06
3.91714e+06
3.91712e+06
3.91709e+06
3.91707e+06
3.91704e+06
3.91701e+06
3.91698e+06
3.91696e+06
3.91694e+06
3.91692e+06
3.91691e+06
3.9169e+06
3.91691e+06
3.91693e+06
3.91696e+06
3.917e+06
3.91705e+06
3.9171e+06
3.91715e+06
3.91721e+06
3.91726e+06
3.9173e+06
3.91735e+06
3.91739e+06
3.91742e+06
3.91746e+06
3.9175e+06
3.91755e+06
3.9176e+06
3.91766e+06
3.91773e+06
3.9178e+06
3.91788e+06
3.91796e+06
3.91804e+06
3.91811e+06
3.91818e+06
3.91826e+06
3.91833e+06
3.9183e+06
3.91778e+06
3.91753e+06
3.91743e+06
3.91737e+06
3.91732e+06
3.91728e+06
3.91724e+06
3.91721e+06
3.91717e+06
3.91714e+06
3.91711e+06
3.91708e+06
3.91705e+06
3.91701e+06
3.91698e+06
3.91695e+06
3.91692e+06
3.91689e+06
3.91687e+06
3.91685e+06
3.91684e+06
3.91683e+06
3.91684e+06
3.91686e+06
3.91688e+06
3.91692e+06
3.91697e+06
3.91702e+06
3.91707e+06
3.91712e+06
3.91717e+06
3.91722e+06
3.91726e+06
3.9173e+06
3.91734e+06
3.91738e+06
3.91742e+06
3.91746e+06
3.91752e+06
3.91758e+06
3.91765e+06
3.91772e+06
3.9178e+06
3.91788e+06
3.91795e+06
3.91803e+06
3.91811e+06
3.91819e+06
3.91827e+06
3.65347e+06
3.66481e+06
3.66666e+06
3.67593e+06
3.67874e+06
3.68547e+06
3.68819e+06
3.69218e+06
3.69392e+06
3.69561e+06
3.69618e+06
3.69651e+06
3.69632e+06
3.69674e+06
3.69645e+06
3.69847e+06
3.69855e+06
3.70354e+06
3.70445e+06
3.71361e+06
3.65152e+06
3.66288e+06
3.6647e+06
3.67401e+06
3.67681e+06
3.68355e+06
3.68628e+06
3.69028e+06
3.69204e+06
3.69375e+06
3.69432e+06
3.69465e+06
3.69447e+06
3.69488e+06
3.69459e+06
3.69661e+06
3.69666e+06
3.70163e+06
3.7025e+06
3.71189e+06
3.64944e+06
3.66084e+06
3.66263e+06
3.67198e+06
3.67478e+06
3.68153e+06
3.68427e+06
3.68829e+06
3.69006e+06
3.69177e+06
3.69234e+06
3.69266e+06
3.69249e+06
3.6929e+06
3.69263e+06
3.69469e+06
3.69478e+06
3.69997e+06
3.70116e+06
3.71124e+06
3.64723e+06
3.65869e+06
3.66046e+06
3.66985e+06
3.67264e+06
3.67941e+06
3.68216e+06
3.68619e+06
3.68798e+06
3.68968e+06
3.69025e+06
3.69056e+06
3.6904e+06
3.69081e+06
3.69055e+06
3.69265e+06
3.69283e+06
3.69825e+06
3.69979e+06
3.7104e+06
3.64491e+06
3.65643e+06
3.65818e+06
3.66761e+06
3.6704e+06
3.67718e+06
3.67995e+06
3.684e+06
3.68579e+06
3.68749e+06
3.68806e+06
3.68837e+06
3.68821e+06
3.68861e+06
3.68834e+06
3.69045e+06
3.6906e+06
3.69603e+06
3.69742e+06
3.70804e+06
3.64248e+06
3.65406e+06
3.65579e+06
3.66526e+06
3.66805e+06
3.67486e+06
3.67765e+06
3.68171e+06
3.68351e+06
3.6852e+06
3.68577e+06
3.68606e+06
3.68592e+06
3.68631e+06
3.68604e+06
3.68812e+06
3.68823e+06
3.69362e+06
3.69485e+06
3.70548e+06
3.63994e+06
3.6516e+06
3.65332e+06
3.66283e+06
3.66561e+06
3.67245e+06
3.67526e+06
3.67933e+06
3.68113e+06
3.6828e+06
3.68337e+06
3.68365e+06
3.68351e+06
3.6839e+06
3.68362e+06
3.68571e+06
3.68578e+06
3.69119e+06
3.69235e+06
3.70308e+06
3.63732e+06
3.64905e+06
3.65075e+06
3.6603e+06
3.66309e+06
3.66995e+06
3.67278e+06
3.67685e+06
3.67863e+06
3.68029e+06
3.68084e+06
3.68112e+06
3.68098e+06
3.68136e+06
3.6811e+06
3.6832e+06
3.68326e+06
3.6887e+06
3.68982e+06
3.70066e+06
3.63461e+06
3.64642e+06
3.64811e+06
3.65769e+06
3.66049e+06
3.66736e+06
3.6702e+06
3.67425e+06
3.67601e+06
3.67765e+06
3.67819e+06
3.67846e+06
3.67832e+06
3.6787e+06
3.67845e+06
3.68058e+06
3.68064e+06
3.68613e+06
3.6872e+06
3.69816e+06
3.63182e+06
3.6437e+06
3.64537e+06
3.65498e+06
3.65778e+06
3.66467e+06
3.66751e+06
3.67153e+06
3.67326e+06
3.67488e+06
3.67542e+06
3.67567e+06
3.67554e+06
3.67591e+06
3.67568e+06
3.67784e+06
3.67792e+06
3.68347e+06
3.68452e+06
3.6956e+06
3.62894e+06
3.6409e+06
3.64254e+06
3.65218e+06
3.65497e+06
3.66187e+06
3.66469e+06
3.66868e+06
3.67038e+06
3.67199e+06
3.67252e+06
3.67277e+06
3.67263e+06
3.67301e+06
3.6728e+06
3.675e+06
3.6751e+06
3.68074e+06
3.68179e+06
3.69301e+06
3.62596e+06
3.63799e+06
3.63961e+06
3.64926e+06
3.65206e+06
3.65895e+06
3.66174e+06
3.66569e+06
3.66737e+06
3.66897e+06
3.66951e+06
3.66975e+06
3.66963e+06
3.67e+06
3.66981e+06
3.67204e+06
3.67217e+06
3.67791e+06
3.67897e+06
3.69035e+06
3.62289e+06
3.63497e+06
3.63657e+06
3.64624e+06
3.64903e+06
3.65592e+06
3.65867e+06
3.66258e+06
3.66424e+06
3.66584e+06
3.66639e+06
3.66663e+06
3.66651e+06
3.66688e+06
3.6667e+06
3.66896e+06
3.6691e+06
3.67494e+06
3.67602e+06
3.68755e+06
3.61972e+06
3.63186e+06
3.63344e+06
3.64313e+06
3.64592e+06
3.65278e+06
3.65548e+06
3.65936e+06
3.661e+06
3.66261e+06
3.66316e+06
3.6634e+06
3.66328e+06
3.66365e+06
3.66346e+06
3.66574e+06
3.66589e+06
3.67179e+06
3.67287e+06
3.68455e+06
3.61646e+06
3.62867e+06
3.63024e+06
3.63994e+06
3.64272e+06
3.64955e+06
3.65219e+06
3.65604e+06
3.65766e+06
3.65927e+06
3.65981e+06
3.66005e+06
3.65994e+06
3.66029e+06
3.66011e+06
3.66239e+06
3.66252e+06
3.66847e+06
3.66952e+06
3.68134e+06
3.61314e+06
3.62541e+06
3.62697e+06
3.63668e+06
3.63944e+06
3.64622e+06
3.64881e+06
3.65263e+06
3.65424e+06
3.65584e+06
3.65637e+06
3.65659e+06
3.65647e+06
3.65682e+06
3.65663e+06
3.65891e+06
3.659e+06
3.66498e+06
3.66599e+06
3.67795e+06
3.60975e+06
3.62209e+06
3.62364e+06
3.63336e+06
3.63609e+06
3.64282e+06
3.64536e+06
3.64915e+06
3.65074e+06
3.65232e+06
3.65281e+06
3.65302e+06
3.6529e+06
3.65324e+06
3.65304e+06
3.65531e+06
3.65537e+06
3.66137e+06
3.66233e+06
3.67442e+06
3.60631e+06
3.61872e+06
3.62026e+06
3.62997e+06
3.63268e+06
3.63934e+06
3.64183e+06
3.64561e+06
3.64718e+06
3.64873e+06
3.64917e+06
3.64935e+06
3.64923e+06
3.64957e+06
3.64936e+06
3.65164e+06
3.65166e+06
3.65768e+06
3.65859e+06
3.67082e+06
3.60281e+06
3.61528e+06
3.61682e+06
3.62652e+06
3.6292e+06
3.63581e+06
3.63827e+06
3.64203e+06
3.64357e+06
3.64506e+06
3.64545e+06
3.6456e+06
3.64547e+06
3.64582e+06
3.64561e+06
3.64789e+06
3.64789e+06
3.65395e+06
3.65482e+06
3.66719e+06
3.59927e+06
3.61178e+06
3.61332e+06
3.62302e+06
3.62568e+06
3.63224e+06
3.63467e+06
3.63842e+06
3.63992e+06
3.64134e+06
3.64167e+06
3.64179e+06
3.64165e+06
3.642e+06
3.6418e+06
3.6441e+06
3.64409e+06
3.6502e+06
3.65105e+06
3.66356e+06
3.59568e+06
3.60825e+06
3.6098e+06
3.61948e+06
3.62212e+06
3.62863e+06
3.63104e+06
3.63478e+06
3.63621e+06
3.63755e+06
3.63781e+06
3.6379e+06
3.63775e+06
3.63811e+06
3.63793e+06
3.64026e+06
3.64027e+06
3.64645e+06
3.64729e+06
3.65996e+06
3.59208e+06
3.6047e+06
3.60625e+06
3.61592e+06
3.61854e+06
3.62501e+06
3.62741e+06
3.6311e+06
3.63244e+06
3.6337e+06
3.6339e+06
3.63396e+06
3.6338e+06
3.63417e+06
3.634e+06
3.63639e+06
3.63643e+06
3.6427e+06
3.64355e+06
3.65639e+06
3.58848e+06
3.60115e+06
3.60271e+06
3.61236e+06
3.61495e+06
3.62138e+06
3.62375e+06
3.62738e+06
3.6286e+06
3.62977e+06
3.62992e+06
3.62997e+06
3.62981e+06
3.63018e+06
3.63005e+06
3.6325e+06
3.63258e+06
3.63896e+06
3.63984e+06
3.65284e+06
3.58492e+06
3.59762e+06
3.59919e+06
3.6088e+06
3.61137e+06
3.61774e+06
3.62007e+06
3.62361e+06
3.6247e+06
3.6258e+06
3.62592e+06
3.62596e+06
3.62579e+06
3.62619e+06
3.62609e+06
3.62862e+06
3.62875e+06
3.63525e+06
3.63615e+06
3.64933e+06
3.5814e+06
3.59414e+06
3.59571e+06
3.60528e+06
3.60781e+06
3.61413e+06
3.6164e+06
3.61982e+06
3.62078e+06
3.62182e+06
3.62191e+06
3.62195e+06
3.6218e+06
3.62222e+06
3.62216e+06
3.62476e+06
3.62495e+06
3.63157e+06
3.63251e+06
3.64587e+06
3.57795e+06
3.59072e+06
3.59229e+06
3.6018e+06
3.6043e+06
3.61055e+06
3.61276e+06
3.61605e+06
3.61689e+06
3.61789e+06
3.61797e+06
3.61801e+06
3.61786e+06
3.61831e+06
3.61829e+06
3.62098e+06
3.62122e+06
3.62796e+06
3.62895e+06
3.64248e+06
3.5746e+06
3.58738e+06
3.58896e+06
3.59841e+06
3.60088e+06
3.60707e+06
3.60921e+06
3.61236e+06
3.6131e+06
3.61409e+06
3.61415e+06
3.61417e+06
3.61402e+06
3.61451e+06
3.61452e+06
3.61729e+06
3.6176e+06
3.62445e+06
3.62549e+06
3.63919e+06
3.57135e+06
3.58415e+06
3.58573e+06
3.59514e+06