/*--------------------------------*- C++ -*----------------------------------*\
  =========                 |
  \\      /  F ield         | OpenFOAM: The Open Source CFD Toolbox
   \\    /   O peration     | Website:  https://openfoam.org
    \\  /    A nd           | Version:  8
     \\/     M anipulation  |
\*---------------------------------------------------------------------------*/
FoamFile
{
    version     2.0;
    format      ascii;
    class       volScalarField;
    location    "1000";
    object      p_rgh;
}
// * * * * * * * * * * * * * * * * * * * * * * * * * * * * * * * * * * * * * //

dimensions      [1 -1 -2 0 0 0 0];

internalField   nonuniform List<scalar> 
8400
(
167694
309791
465988
620938
778860
943508
1.11921e+06
1.31022e+06
1.51927e+06
1.74601e+06
1.98577e+06
2.22946e+06
2.46615e+06
2.68779e+06
2.89268e+06
3.08393e+06
3.26439e+06
3.43445e+06
3.59206e+06
3.73654e+06
3.86795e+06
3.98883e+06
4.10195e+06
4.20725e+06
4.30082e+06
4.37893e+06
4.44034e+06
4.48557e+06
4.51514e+06
4.5305e+06
4.53575e+06
4.53678e+06
4.53596e+06
4.53299e+06
4.52717e+06
4.5182e+06
4.50661e+06
4.49349e+06
4.47998e+06
4.46675e+06
4.45371e+06
4.4402e+06
4.42544e+06
4.40899e+06
4.39098e+06
4.37201e+06
4.35298e+06
4.33471e+06
4.31784e+06
4.30314e+06
156746
302393
459751
615939
775000
940051
1.11461e+06
1.302e+06
1.50445e+06
1.72187e+06
1.95095e+06
2.18511e+06
2.41629e+06
2.63792e+06
2.84742e+06
3.0453e+06
3.23221e+06
3.40769e+06
3.57078e+06
3.72061e+06
3.85741e+06
3.98222e+06
4.09635e+06
4.19986e+06
4.29098e+06
4.36732e+06
4.42756e+06
4.47182e+06
4.50137e+06
4.51843e+06
4.52614e+06
4.52819e+06
4.52727e+06
4.52409e+06
4.51838e+06
4.51003e+06
4.49941e+06
4.48726e+06
4.4744e+06
4.46132e+06
4.448e+06
4.43405e+06
4.41899e+06
4.40259e+06
4.38498e+06
4.36666e+06
4.34827e+06
4.33039e+06
4.31336e+06
4.2975e+06
140754
290144
447743
604813
765191
931225
1.10526e+06
1.28934e+06
1.4849e+06
1.692e+06
1.90868e+06
2.13103e+06
2.35413e+06
2.5735e+06
2.78634e+06
2.99117e+06
3.18649e+06
3.37022e+06
3.54119e+06
3.69862e+06
3.84224e+06
3.97226e+06
4.0888e+06
4.19163e+06
4.28031e+06
4.35415e+06
4.41269e+06
4.45626e+06
4.48626e+06
4.50497e+06
4.51498e+06
4.51883e+06
4.51859e+06
4.51555e+06
4.5101e+06
4.50239e+06
4.49271e+06
4.4815e+06
4.46924e+06
4.45627e+06
4.44266e+06
4.42832e+06
4.41308e+06
4.39691e+06
4.37992e+06
4.36243e+06
4.34479e+06
4.32732e+06
4.31015e+06
4.2934e+06
116182
264543
418694
573621
732497
897083
1.06876e+06
1.24874e+06
1.43808e+06
1.63724e+06
1.84546e+06
2.06042e+06
2.27874e+06
2.49687e+06
2.71203e+06
2.92207e+06
3.12458e+06
3.31698e+06
3.49716e+06
3.6635e+06
3.81492e+06
3.95087e+06
4.07108e+06
4.17542e+06
4.26396e+06
4.33694e+06
4.39489e+06
4.4387e+06
4.46982e+06
4.49027e+06
4.50232e+06
4.508e+06
4.50893e+06
4.50637e+06
4.50125e+06
4.49402e+06
4.48496e+06
4.47437e+06
4.46256e+06
4.44978e+06
4.43616e+06
4.42178e+06
4.40668e+06
4.39092e+06
4.37458e+06
4.3578e+06
4.34073e+06
4.3235e+06
4.30619e+06
4.28883e+06
95909.6
241482
389698
539180
692703
851844
1.01755e+06
1.19068e+06
1.37238e+06
1.56385e+06
1.7656e+06
1.97658e+06
2.19392e+06
2.41392e+06
2.63312e+06
2.84874e+06
3.05791e+06
3.25807e+06
3.44712e+06
3.62261e+06
3.78239e+06
3.92478e+06
4.04921e+06
4.1559e+06
4.24555e+06
4.31904e+06
4.37742e+06
4.42201e+06
4.45442e+06
4.47654e+06
4.49034e+06
4.49762e+06
4.49985e+06
4.49818e+06
4.49359e+06
4.48677e+06
4.47812e+06
4.46793e+06
4.45649e+06
4.44399e+06
4.43059e+06
4.41643e+06
4.40161e+06
4.38622e+06
4.37032e+06
4.35397e+06
4.33721e+06
4.32011e+06
4.30269e+06
4.28499e+06
80481.2
221734
362312
503740
648837
799423
956556
1.12103e+06
1.29406e+06
1.47743e+06
1.67286e+06
1.88061e+06
2.09841e+06
2.32225e+06
2.54762e+06
2.77037e+06
2.98715e+06
3.19558e+06
3.39373e+06
3.57875e+06
3.74739e+06
3.89692e+06
4.02633e+06
4.13615e+06
4.22777e+06
4.30268e+06
4.3623e+06
4.40813e+06
4.44186e+06
4.46539e+06
4.48056e+06
4.48906e+06
4.49233e+06
4.49153e+06
4.48758e+06
4.48116e+06
4.47276e+06
4.4628e+06
4.45158e+06
4.43929e+06
4.42608e+06
4.41212e+06
4.39752e+06
4.38238e+06
4.36673e+06
4.3506e+06
4.33401e+06
4.31698e+06
4.29954e+06
4.28171e+06
71842.4
208517
340936
472970
607916
748215
895472
1.05068e+06
1.21496e+06
1.39029e+06
1.57916e+06
1.78307e+06
2.0009e+06
2.22857e+06
2.4605e+06
2.69133e+06
2.91671e+06
3.13425e+06
3.34196e+06
3.53684e+06
3.71477e+06
3.87189e+06
4.0066e+06
4.11982e+06
4.2137e+06
4.29041e+06
4.35162e+06
4.39884e+06
4.43376e+06
4.45831e+06
4.47437e+06
4.48364e+06
4.48756e+06
4.48727e+06
4.48371e+06
4.47758e+06
4.46943e+06
4.45966e+06
4.44857e+06
4.43638e+06
4.42326e+06
4.40939e+06
4.3949e+06
4.37985e+06
4.36429e+06
4.34824e+06
4.33171e+06
4.3147e+06
4.29723e+06
4.27937e+06
68873.1
201415
326293
449809
575613
706709
845090
992105
1.14892e+06
1.31729e+06
1.49974e+06
1.6986e+06
1.91408e+06
2.14307e+06
2.37984e+06
2.61826e+06
2.85293e+06
3.08028e+06
3.2979e+06
3.50247e+06
3.68935e+06
3.85378e+06
3.99355e+06
4.1099e+06
4.20588e+06
4.28436e+06
4.34722e+06
4.39582e+06
4.43173e+06
4.45684e+06
4.47318e+06
4.48259e+06
4.48658e+06
4.48633e+06
4.48278e+06
4.47665e+06
4.46849e+06
4.45869e+06
4.44757e+06
4.43535e+06
4.42223e+06
4.40837e+06
4.39389e+06
4.37884e+06
4.36327e+06
4.34721e+06
4.33065e+06
4.31361e+06
4.29612e+06
4.27823e+06
69507.3
198494
317415
435115
555235
681065
814549
957076
1.10986e+06
1.27426e+06
1.45222e+06
1.64602e+06
1.85692e+06
2.08333e+06
2.32094e+06
2.56406e+06
2.80647e+06
3.04269e+06
3.26876e+06
3.4811e+06
3.67508e+06
3.84546e+06
3.98948e+06
4.10853e+06
4.20639e+06
4.28656e+06
4.35099e+06
4.40073e+06
4.43709e+06
4.46206e+06
4.47791e+06
4.48673e+06
4.49017e+06
4.48945e+06
4.48554e+06
4.4791e+06
4.47066e+06
4.4606e+06
4.44925e+06
4.43682e+06
4.42352e+06
4.40949e+06
4.39484e+06
4.37962e+06
4.3639e+06
4.34769e+06
4.331e+06
4.31386e+06
4.29632e+06
4.27834e+06
68852.1
196618
313606
428644
545913
669294
801178
942997
1.09578e+06
1.26049e+06
1.43845e+06
1.63129e+06
1.84015e+06
2.06429e+06
2.30077e+06
2.54511e+06
2.7909e+06
3.03149e+06
3.26164e+06
3.47744e+06
3.67481e+06
3.84863e+06
3.99567e+06
4.11702e+06
4.21662e+06
4.29829e+06
4.36403e+06
4.41451e+06
4.45071e+06
4.47467e+06
4.48909e+06
4.49648e+06
4.49868e+06
4.49697e+06
4.49225e+06
4.48516e+06
4.47616e+06
4.46565e+06
4.45389e+06
4.44109e+06
4.42744e+06
4.41307e+06
4.39809e+06
4.38256e+06
4.36653e+06
4.35002e+06
4.33307e+06
4.31576e+06
4.2981e+06
4.27991e+06
63310
191851
310423
424723
540635
662563
793862
936463
1.09135e+06
1.25928e+06
1.44122e+06
1.63825e+06
1.85079e+06
2.07813e+06
2.31743e+06
2.56357e+06
2.80997e+06
3.05082e+06
3.28087e+06
3.49569e+06
3.69183e+06
3.8653e+06
4.01326e+06
4.13623e+06
4.23736e+06
4.32021e+06
4.38677e+06
4.43741e+06
4.47269e+06
4.49467e+06
4.50659e+06
4.51163e+06
4.51189e+06
4.50867e+06
4.50276e+06
4.49472e+06
4.48497e+06
4.47379e+06
4.46144e+06
4.44811e+06
4.43393e+06
4.41904e+06
4.40355e+06
4.38755e+06
4.37106e+06
4.35412e+06
4.33678e+06
4.31914e+06
4.30122e+06
4.28264e+06
44772.9
177938
302528
419437
535970
657160
787860
931376
1.08906e+06
1.26158e+06
1.44962e+06
1.65379e+06
1.87387e+06
2.10813e+06
2.35269e+06
2.60226e+06
2.85101e+06
3.0934e+06
3.32374e+06
3.53695e+06
3.72961e+06
3.8993e+06
4.04506e+06
4.16772e+06
4.26917e+06
4.35207e+06
4.41829e+06
4.46812e+06
4.50169e+06
4.52082e+06
4.52927e+06
4.53111e+06
4.52885e+06
4.52375e+06
4.51644e+06
4.50731e+06
4.49666e+06
4.48469e+06
4.47159e+06
4.45754e+06
4.44268e+06
4.42712e+06
4.41099e+06
4.39436e+06
4.37725e+06
4.35971e+06
4.34184e+06
4.32373e+06
4.30534e+06
4.2862e+06
24876.7
159900
290763
410959
528247
647814
775679
917299
1.07559e+06
1.25205e+06
1.44767e+06
1.66286e+06
1.89656e+06
2.14503e+06
2.40189e+06
2.66044e+06
2.9144e+06
3.15826e+06
3.38742e+06
3.59744e+06
3.78551e+06
3.95059e+06
4.09276e+06
4.21267e+06
4.31174e+06
4.39219e+06
4.45595e+06
4.50348e+06
4.53458e+06
4.55041e+06
4.55484e+06
4.55299e+06
4.548e+06
4.54101e+06
4.53234e+06
4.52216e+06
4.51059e+06
4.49778e+06
4.48387e+06
4.469e+06
4.45333e+06
4.43697e+06
4.42004e+06
4.40264e+06
4.38477e+06
4.36652e+06
4.34798e+06
4.32924e+06
4.31021e+06
4.29037e+06
-2990.34
139945
278642
401336
517667
632736
753120
886354
1.03849e+06
1.2136e+06
1.41441e+06
1.64204e+06
1.89473e+06
2.16646e+06
2.44694e+06
2.72518e+06
2.99259e+06
3.24313e+06
3.47298e+06
3.6793e+06
3.86096e+06
4.0184e+06
4.15308e+06
4.26651e+06
4.36011e+06
4.43569e+06
4.49497e+06
4.53857e+06
4.56642e+06
4.5791e+06
4.57979e+06
4.57451e+06
4.56717e+06
4.55876e+06
4.54915e+06
4.53819e+06
4.52587e+06
4.51227e+06
4.49752e+06
4.48176e+06
4.46517e+06
4.44791e+06
4.43006e+06
4.41174e+06
4.393e+06
4.3739e+06
4.35455e+06
4.33501e+06
4.31516e+06
4.29449e+06
950.564
154271
303910
429294
542378
647815
751542
862991
992629
1.14996e+06
1.34273e+06
1.57526e+06
1.8462e+06
2.14719e+06
2.46336e+06
2.77622e+06
3.07035e+06
3.33791e+06
3.57468e+06
3.77957e+06
3.95396e+06
4.10057e+06
4.22298e+06
4.32446e+06
4.4076e+06
4.47469e+06
4.52771e+06
4.56681e+06
4.59133e+06
4.60154e+06
4.59986e+06
4.59244e+06
4.584e+06
4.57531e+06
4.56566e+06
4.55453e+06
4.5418e+06
4.52757e+06
4.51205e+06
4.49542e+06
4.4779e+06
4.45968e+06
4.44088e+06
4.4216e+06
4.40195e+06
4.38197e+06
4.36174e+06
4.34133e+06
4.32059e+06
4.29905e+06
-49273.8
151861
322210
453147
570028
675785
769774
859295
957686
1.08153e+06
1.24791e+06
1.47111e+06
1.7561e+06
2.09241e+06
2.4558e+06
2.81621e+06
3.14752e+06
3.43849e+06
3.6869e+06
3.89342e+06
4.0606e+06
4.1927e+06
4.29642e+06
4.37919e+06
4.44643e+06
4.50161e+06
4.54688e+06
4.5814e+06
4.60354e+06
4.61271e+06
4.61082e+06
4.60364e+06
4.59615e+06
4.58887e+06
4.58042e+06
4.56989e+06
4.55715e+06
4.54247e+06
4.52621e+06
4.50866e+06
4.49012e+06
4.47083e+06
4.45094e+06
4.43059e+06
4.40988e+06
4.38888e+06
4.36764e+06
4.34619e+06
4.32438e+06
4.30178e+06
-14590
213650
365602
453144
527331
598613
659584
712472
768496
847597
976131
1.18602e+06
1.50396e+06
1.92913e+06
2.41521e+06
2.89059e+06
3.29915e+06
3.62202e+06
3.86904e+06
4.05812e+06
4.2021e+06
4.30694e+06
4.38012e+06
4.43337e+06
4.47658e+06
4.51503e+06
4.5501e+06
4.57968e+06
4.601e+06
4.61097e+06
4.61122e+06
4.60703e+06
4.60269e+06
4.59863e+06
4.59279e+06
4.58384e+06
4.57168e+06
4.55695e+06
4.54025e+06
4.52205e+06
4.50272e+06
4.48257e+06
4.46182e+06
4.44063e+06
4.4191e+06
4.39729e+06
4.37525e+06
4.35295e+06
4.33023e+06
4.30673e+06
127562
546285
761224
842215
862046
831701
755343
656027
558127
491279
488973
600738
884397
1.38664e+06
2.0627e+06
2.77803e+06
3.39398e+06
3.84183e+06
4.12626e+06
4.29122e+06
4.38433e+06
4.43711e+06
4.46731e+06
4.48597e+06
4.5025e+06
4.52215e+06
4.5447e+06
4.56721e+06
4.58697e+06
4.59965e+06
4.60447e+06
4.60499e+06
4.6044e+06
4.60369e+06
4.60091e+06
4.59404e+06
4.58278e+06
4.56813e+06
4.55099e+06
4.53203e+06
4.51174e+06
4.49052e+06
4.46866e+06
4.44635e+06
4.42368e+06
4.40073e+06
4.37751e+06
4.35398e+06
4.32992e+06
4.30507e+06
272634
656163
856392
926014
915782
857707
765805
653895
539791
446675
406500
472394
716352
1.18177e+06
1.83512e+06
2.56877e+06
3.25178e+06
3.78569e+06
4.13973e+06
4.33913e+06
4.43527e+06
4.47449e+06
4.4891e+06
4.49689e+06
4.50651e+06
4.52076e+06
4.53945e+06
4.55981e+06
4.578e+06
4.59169e+06
4.59944e+06
4.60318e+06
4.6054e+06
4.60646e+06
4.6054e+06
4.60065e+06
4.59108e+06
4.5774e+06
4.56068e+06
4.54174e+06
4.52123e+06
4.49967e+06
4.47743e+06
4.45473e+06
4.43172e+06
4.40845e+06
4.38498e+06
4.36119e+06
4.33673e+06
4.31121e+06
284704
631788
828522
906508
897391
844961
772086
686515
603088
540721
526146
604668
845037
1.29543e+06
1.92915e+06
2.64086e+06
3.30049e+06
3.81283e+06
4.15322e+06
4.34765e+06
4.44234e+06
4.47972e+06
4.49212e+06
4.49865e+06
4.50836e+06
4.52341e+06
4.54244e+06
4.56117e+06
4.57681e+06
4.58891e+06
4.59747e+06
4.60238e+06
4.60496e+06
4.60601e+06
4.60482e+06
4.59988e+06
4.59084e+06
4.57794e+06
4.56171e+06
4.54294e+06
4.52237e+06
4.50059e+06
4.47802e+06
4.4549e+06
4.43139e+06
4.40753e+06
4.38334e+06
4.35861e+06
4.3326e+06
4.30474e+06
4.51356e+06
4.51305e+06
4.51279e+06
4.5127e+06
4.51264e+06
4.51259e+06
4.51256e+06
4.51252e+06
4.5125e+06
4.51248e+06
4.51246e+06
4.51245e+06
4.51243e+06
4.51241e+06
4.5124e+06
4.51238e+06
4.51236e+06
4.51234e+06
4.51232e+06
4.5123e+06
4.51228e+06
4.51226e+06
4.51224e+06
4.51222e+06
4.5122e+06
4.51218e+06
4.51216e+06
4.51215e+06
4.51214e+06
4.51213e+06
4.51212e+06
4.51211e+06
4.5121e+06
4.51209e+06
4.51207e+06
4.51206e+06
4.51204e+06
4.51202e+06
4.512e+06
4.51197e+06
4.51194e+06
4.51191e+06
4.51188e+06
4.51184e+06
4.5118e+06
4.51175e+06
4.5117e+06
4.51163e+06
4.51154e+06
4.51143e+06
4.51197e+06
4.51225e+06
4.51234e+06
4.51237e+06
4.51239e+06
4.51241e+06
4.51241e+06
4.51241e+06
4.51241e+06
4.5124e+06
4.51239e+06
4.51239e+06
4.51238e+06
4.51237e+06
4.51236e+06
4.51234e+06
4.51233e+06
4.51231e+06
4.5123e+06
4.51228e+06
4.51226e+06
4.51224e+06
4.51222e+06
4.5122e+06
4.51218e+06
4.51217e+06
4.51215e+06
4.51214e+06
4.51213e+06
4.51212e+06
4.51211e+06
4.5121e+06
4.51209e+06
4.51208e+06
4.51207e+06
4.51205e+06
4.51203e+06
4.51202e+06
4.51199e+06
4.51197e+06
4.51194e+06
4.51191e+06
4.51188e+06
4.51184e+06
4.5118e+06
4.51176e+06
4.5117e+06
4.51164e+06
4.51156e+06
4.51147e+06
4.51243e+06
4.51256e+06
4.51263e+06
4.51263e+06
4.51262e+06
4.5126e+06
4.51258e+06
4.51256e+06
4.51253e+06
4.51251e+06
4.51249e+06
4.51247e+06
4.51246e+06
4.51244e+06
4.51242e+06
4.5124e+06
4.51238e+06
4.51236e+06
4.51234e+06
4.51232e+06
4.5123e+06
4.51228e+06
4.51226e+06
4.51223e+06
4.51221e+06
4.51219e+06
4.51218e+06
4.51216e+06
4.51215e+06
4.51214e+06
4.51213e+06
4.51212e+06
4.51211e+06
4.5121e+06
4.51209e+06
4.51207e+06
4.51205e+06
4.51203e+06
4.51201e+06
4.51199e+06
4.51196e+06
4.51193e+06
4.5119e+06
4.51187e+06
4.51183e+06
4.51179e+06
4.51174e+06
4.51168e+06
4.51162e+06
4.51154e+06
4.51245e+06
4.51247e+06
4.51249e+06
4.51248e+06
4.51246e+06
4.51245e+06
4.51244e+06
4.51243e+06
4.51242e+06
4.51241e+06
4.5124e+06
4.51239e+06
4.51238e+06
4.51237e+06
4.51236e+06
4.51234e+06
4.51233e+06
4.51232e+06
4.5123e+06
4.51228e+06
4.51226e+06
4.51224e+06
4.51222e+06
4.5122e+06
4.51219e+06
4.51217e+06
4.51215e+06
4.51214e+06
4.51213e+06
4.51212e+06
4.51211e+06
4.5121e+06
4.5121e+06
4.51209e+06
4.51208e+06
4.51206e+06
4.51205e+06
4.51203e+06
4.51201e+06
4.51198e+06
4.51196e+06
4.51193e+06
4.5119e+06
4.51187e+06
4.51184e+06
4.5118e+06
4.51176e+06
4.51171e+06
4.51166e+06
4.5116e+06
4.51249e+06
4.5125e+06
4.51252e+06
4.51253e+06
4.51253e+06
4.51253e+06
4.51252e+06
4.51252e+06
4.51251e+06
4.51249e+06
4.51248e+06
4.51247e+06
4.51245e+06
4.51244e+06
4.51242e+06
4.51241e+06
4.51239e+06
4.51237e+06
4.51235e+06
4.51233e+06
4.51231e+06
4.51229e+06
4.51227e+06
4.51225e+06
4.51222e+06
4.51221e+06
4.51219e+06
4.51217e+06
4.51216e+06
4.51215e+06
4.51214e+06
4.51213e+06
4.51213e+06
4.51212e+06
4.5121e+06
4.51209e+06
4.51207e+06
4.51206e+06
4.51204e+06
4.51201e+06
4.51199e+06
4.51197e+06
4.51194e+06
4.51191e+06
4.51188e+06
4.51185e+06
4.51182e+06
4.51178e+06
4.51173e+06
4.51169e+06
4.5125e+06
4.51251e+06
4.51251e+06
4.51251e+06
4.51251e+06
4.5125e+06
4.51249e+06
4.51248e+06
4.51246e+06
4.51245e+06
4.51244e+06
4.51242e+06
4.51241e+06
4.5124e+06
4.51238e+06
4.51237e+06
4.51235e+06
4.51234e+06
4.51232e+06
4.5123e+06
4.51228e+06
4.51226e+06
4.51224e+06
4.51222e+06
4.5122e+06
4.51218e+06
4.51217e+06
4.51216e+06
4.51215e+06
4.51214e+06
4.51213e+06
4.51212e+06
4.51211e+06
4.51211e+06
4.5121e+06
4.51208e+06
4.51207e+06
4.51205e+06
4.51203e+06
4.51202e+06
4.51199e+06
4.51197e+06
4.51195e+06
4.51193e+06
4.5119e+06
4.51188e+06
4.51185e+06
4.51182e+06
4.51179e+06
4.51175e+06
4.51252e+06
4.51252e+06
4.51252e+06
4.51252e+06
4.51252e+06
4.51252e+06
4.51251e+06
4.5125e+06
4.51249e+06
4.51248e+06
4.51247e+06
4.51246e+06
4.51245e+06
4.51244e+06
4.51242e+06
4.51241e+06
4.51239e+06
4.51238e+06
4.51236e+06
4.51234e+06
4.51232e+06
4.5123e+06
4.51228e+06
4.51226e+06
4.51224e+06
4.51222e+06
4.5122e+06
4.51219e+06
4.51218e+06
4.51217e+06
4.51216e+06
4.51215e+06
4.51214e+06
4.51214e+06
4.51213e+06
4.51211e+06
4.5121e+06
4.51208e+06
4.51207e+06
4.51205e+06
4.51203e+06
4.51201e+06
4.51199e+06
4.51197e+06
4.51195e+06
4.51193e+06
4.51191e+06
4.51189e+06
4.51186e+06
4.51183e+06
4.51253e+06
4.51253e+06
4.51253e+06
4.51253e+06
4.51252e+06
4.51252e+06
4.51251e+06
4.5125e+06
4.51249e+06
4.51248e+06
4.51247e+06
4.51245e+06
4.51244e+06
4.51243e+06
4.51241e+06
4.5124e+06
4.51238e+06
4.51236e+06
4.51235e+06
4.51233e+06
4.51231e+06
4.51229e+06
4.51227e+06
4.51225e+06
4.51223e+06
4.51221e+06
4.51219e+06
4.51218e+06
4.51217e+06
4.51216e+06
4.51216e+06
4.51215e+06
4.51214e+06
4.51214e+06
4.51213e+06
4.51212e+06
4.5121e+06
4.51209e+06
4.51207e+06
4.51206e+06
4.51204e+06
4.51203e+06
4.51201e+06
4.512e+06
4.51199e+06
4.51197e+06
4.51196e+06
4.51194e+06
4.51192e+06
4.5119e+06
4.51253e+06
4.51254e+06
4.51254e+06
4.51253e+06
4.51253e+06
4.51253e+06
4.51252e+06
4.51251e+06
4.5125e+06
4.51249e+06
4.51248e+06
4.51247e+06
4.51246e+06
4.51244e+06
4.51243e+06
4.51242e+06
4.5124e+06
4.51239e+06
4.51237e+06
4.51235e+06
4.51233e+06
4.51231e+06
4.51229e+06
4.51227e+06
4.51225e+06
4.51223e+06
4.51222e+06
4.5122e+06
4.51219e+06
4.51219e+06
4.51218e+06
4.51217e+06
4.51217e+06
4.51216e+06
4.51215e+06
4.51214e+06
4.51213e+06
4.51212e+06
4.5121e+06
4.51209e+06
4.51208e+06
4.51206e+06
4.51205e+06
4.51204e+06
4.51203e+06
4.51202e+06
4.51202e+06
4.51201e+06
4.512e+06
4.51199e+06
4.51254e+06
4.51254e+06
4.51254e+06
4.51254e+06
4.51254e+06
4.51254e+06
4.51253e+06
4.51252e+06
4.51251e+06
4.5125e+06
4.51249e+06
4.51248e+06
4.51246e+06
4.51245e+06
4.51244e+06
4.51242e+06
4.51241e+06
4.51239e+06
4.51237e+06
4.51235e+06
4.51233e+06
4.51231e+06
4.51229e+06
4.51227e+06
4.51225e+06
4.51224e+06
4.51222e+06
4.51221e+06
4.5122e+06
4.51219e+06
4.51219e+06
4.51218e+06
4.51218e+06
4.51217e+06
4.51216e+06
4.51215e+06
4.51214e+06
4.51213e+06
4.51212e+06
4.51211e+06
4.5121e+06
4.51209e+06
4.51208e+06
4.51208e+06
4.51207e+06
4.51207e+06
4.51207e+06
4.51207e+06
4.51206e+06
4.51206e+06
4.51255e+06
4.51255e+06
4.51255e+06
4.51255e+06
4.51255e+06
4.51254e+06
4.51254e+06
4.51253e+06
4.51252e+06
4.51251e+06
4.5125e+06
4.51249e+06
4.51247e+06
4.51246e+06
4.51245e+06
4.51243e+06
4.51242e+06
4.5124e+06
4.51238e+06
4.51236e+06
4.51234e+06
4.51232e+06
4.5123e+06
4.51228e+06
4.51226e+06
4.51225e+06
4.51223e+06
4.51222e+06
4.51221e+06
4.51221e+06
4.5122e+06
4.5122e+06
4.51219e+06
4.51219e+06
4.51218e+06
4.51217e+06
4.51216e+06
4.51215e+06
4.51214e+06
4.51213e+06
4.51212e+06
4.51212e+06
4.51211e+06
4.51211e+06
4.51211e+06
4.51212e+06
4.51212e+06
4.51213e+06
4.51213e+06
4.51213e+06
4.51255e+06
4.51256e+06
4.51256e+06
4.51256e+06
4.51255e+06
4.51255e+06
4.51255e+06
4.51254e+06
4.51253e+06
4.51252e+06
4.51251e+06
4.5125e+06
4.51249e+06
4.51247e+06
4.51246e+06
4.51245e+06
4.51243e+06
4.51241e+06
4.5124e+06
4.51238e+06
4.51236e+06
4.51234e+06
4.51232e+06
4.5123e+06
4.51228e+06
4.51227e+06
4.51225e+06
4.51224e+06
4.51223e+06
4.51222e+06
4.51222e+06
4.51221e+06
4.51221e+06
4.51221e+06
4.5122e+06
4.51219e+06
4.51218e+06
4.51217e+06
4.51217e+06
4.51216e+06
4.51215e+06
4.51215e+06
4.51215e+06
4.51215e+06
4.51216e+06
4.51217e+06
4.51218e+06
4.51219e+06
4.5122e+06
4.51221e+06
4.51256e+06
4.51256e+06
4.51256e+06
4.51256e+06
4.51256e+06
4.51256e+06
4.51256e+06
4.51255e+06
4.51254e+06
4.51253e+06
4.51251e+06
4.5125e+06
4.51249e+06
4.51247e+06
4.51246e+06
4.51244e+06
4.51243e+06
4.51241e+06
4.51239e+06
4.51238e+06
4.51236e+06
4.51234e+06
4.51232e+06
4.5123e+06
4.51228e+06
4.51226e+06
4.51225e+06
4.51224e+06
4.51223e+06
4.51223e+06
4.51222e+06
4.51222e+06
4.51221e+06
4.51221e+06
4.51221e+06
4.5122e+06
4.51219e+06
4.51219e+06
4.51218e+06
4.51217e+06
4.51217e+06
4.51217e+06
4.51218e+06
4.51218e+06
4.51219e+06
4.51221e+06
4.51222e+06
4.51224e+06
4.51226e+06
4.51227e+06
4.51256e+06
4.51256e+06
4.51257e+06
4.51257e+06
4.51257e+06
4.51257e+06
4.51257e+06
4.51257e+06
4.51256e+06
4.51255e+06
4.51254e+06
4.51253e+06
4.51251e+06
4.5125e+06
4.51249e+06
4.51247e+06
4.51246e+06
4.51244e+06
4.51242e+06
4.51241e+06
4.51239e+06
4.51237e+06
4.51235e+06
4.51233e+06
4.51231e+06
4.51229e+06
4.51228e+06
4.51227e+06
4.51226e+06
4.51225e+06
4.51225e+06
4.51225e+06
4.51224e+06
4.51224e+06
4.51223e+06
4.51223e+06
4.51222e+06
4.51221e+06
4.51221e+06
4.5122e+06
4.5122e+06
4.51221e+06
4.51221e+06
4.51222e+06
4.51224e+06
4.51226e+06
4.51228e+06
4.5123e+06
4.51232e+06
4.51235e+06
4.51256e+06
4.51257e+06
4.51257e+06
4.51257e+06
4.51257e+06
4.51257e+06
4.51256e+06
4.51255e+06
4.51254e+06
4.51253e+06
4.51252e+06
4.5125e+06
4.51249e+06
4.51248e+06
4.51246e+06
4.51245e+06
4.51243e+06
4.51242e+06
4.5124e+06
4.51238e+06
4.51237e+06
4.51235e+06
4.51233e+06
4.51231e+06
4.51229e+06
4.51228e+06
4.51227e+06
4.51226e+06
4.51225e+06
4.51224e+06
4.51224e+06
4.51224e+06
4.51224e+06
4.51223e+06
4.51223e+06
4.51222e+06
4.51222e+06
4.51221e+06
4.51221e+06
4.51221e+06
4.51221e+06
4.51222e+06
4.51223e+06
4.51224e+06
4.51226e+06
4.51229e+06
4.51231e+06
4.51234e+06
4.51237e+06
4.5124e+06
4.51255e+06
4.51257e+06
4.51259e+06
4.5126e+06
4.51261e+06
4.51261e+06
4.51261e+06
4.51261e+06
4.5126e+06
4.51259e+06
4.51257e+06
4.51256e+06
4.51254e+06
4.51253e+06
4.51251e+06
4.5125e+06
4.51248e+06
4.51246e+06
4.51245e+06
4.51243e+06
4.51241e+06
4.51239e+06
4.51237e+06
4.51235e+06
4.51233e+06
4.51231e+06
4.5123e+06
4.51229e+06
4.51228e+06
4.51228e+06
4.51227e+06
4.51227e+06
4.51227e+06
4.51226e+06
4.51226e+06
4.51225e+06
4.51225e+06
4.51224e+06
4.51224e+06
4.51224e+06
4.51224e+06
4.51225e+06
4.51227e+06
4.51228e+06
4.51231e+06
4.51233e+06
4.51236e+06
4.5124e+06
4.51244e+06
4.51247e+06
4.51252e+06
4.51255e+06
4.51256e+06
4.51255e+06
4.51255e+06
4.51254e+06
4.51254e+06
4.51253e+06
4.51253e+06
4.51252e+06
4.51251e+06
4.51249e+06
4.51248e+06
4.51247e+06
4.51246e+06
4.51245e+06
4.51243e+06
4.51242e+06
4.5124e+06
4.51239e+06
4.51237e+06
4.51235e+06
4.51234e+06
4.51232e+06
4.5123e+06
4.51229e+06
4.51228e+06
4.51227e+06
4.51227e+06
4.51226e+06
4.51226e+06
4.51226e+06
4.51225e+06
4.51225e+06
4.51225e+06
4.51225e+06
4.51224e+06
4.51224e+06
4.51224e+06
4.51224e+06
4.51225e+06
4.51226e+06
4.51227e+06
4.51229e+06
4.51232e+06
4.51235e+06
4.51239e+06
4.51243e+06
4.51247e+06
4.51252e+06
4.5125e+06
4.51264e+06
4.51271e+06
4.51272e+06
4.51271e+06
4.51269e+06
4.51268e+06
4.51266e+06
4.51264e+06
4.51262e+06
4.5126e+06
4.51259e+06
4.51257e+06
4.51255e+06
4.51253e+06
4.51251e+06
4.51249e+06
4.51247e+06
4.51246e+06
4.51244e+06
4.51242e+06
4.5124e+06
4.51238e+06
4.51236e+06
4.51234e+06
4.51233e+06
4.51231e+06
4.5123e+06
4.5123e+06
4.51229e+06
4.51229e+06
4.51228e+06
4.51228e+06
4.51228e+06
4.51227e+06
4.51227e+06
4.51226e+06
4.51226e+06
4.51226e+06
4.51226e+06
4.51227e+06
4.51228e+06
4.5123e+06
4.51232e+06
4.51235e+06
4.51239e+06
4.51243e+06
4.51247e+06
4.51253e+06
4.51258e+06
4.51205e+06
4.51233e+06
4.51243e+06
4.51246e+06
4.51249e+06
4.51251e+06
4.51252e+06
4.51252e+06
4.51252e+06
4.51252e+06
4.51251e+06
4.5125e+06
4.51249e+06
4.51248e+06
4.51247e+06
4.51246e+06
4.51244e+06
4.51243e+06
4.51242e+06
4.5124e+06
4.51238e+06
4.51237e+06
4.51235e+06
4.51233e+06
4.51232e+06
4.5123e+06
4.51229e+06
4.51229e+06
4.51228e+06
4.51228e+06
4.51227e+06
4.51227e+06
4.51227e+06
4.51227e+06
4.51226e+06
4.51226e+06
4.51226e+06
4.51225e+06
4.51226e+06
4.51226e+06
4.51227e+06
4.51228e+06
4.5123e+06
4.51233e+06
4.51236e+06
4.51239e+06
4.51244e+06
4.51249e+06
4.51255e+06
4.51261e+06
4.51365e+06
4.51314e+06
4.51288e+06
4.51279e+06
4.51273e+06
4.51269e+06
4.51266e+06
4.51264e+06
4.51262e+06
4.5126e+06
4.51258e+06
4.51256e+06
4.51255e+06
4.51253e+06
4.51251e+06
4.5125e+06
4.51248e+06
4.51246e+06
4.51245e+06
4.51243e+06
4.51241e+06
4.51239e+06
4.51237e+06
4.51235e+06
4.51234e+06
4.51232e+06
4.51231e+06
4.5123e+06
4.51229e+06
4.51229e+06
4.51229e+06
4.51228e+06
4.51228e+06
4.51228e+06
4.51227e+06
4.51227e+06
4.51227e+06
4.51227e+06
4.51227e+06
4.51227e+06
4.51228e+06
4.51229e+06
4.51231e+06
4.51234e+06
4.51237e+06
4.51241e+06
4.51246e+06
4.51251e+06
4.51258e+06
4.51265e+06
4.18847e+06
4.19992e+06
4.2017e+06
4.21102e+06
4.21379e+06
4.22052e+06
4.22324e+06
4.22722e+06
4.22895e+06
4.23061e+06
4.23116e+06
4.23146e+06
4.23129e+06
4.2317e+06
4.2314e+06
4.23349e+06
4.23349e+06
4.23869e+06
4.23944e+06
4.24906e+06
4.18689e+06
4.19837e+06
4.20013e+06
4.20949e+06
4.21226e+06
4.21901e+06
4.22174e+06
4.22574e+06
4.22748e+06
4.22915e+06
4.2297e+06
4.23e+06
4.22983e+06
4.23022e+06
4.22992e+06
4.23201e+06
4.23198e+06
4.23716e+06
4.23788e+06
4.24774e+06
4.1852e+06
4.19673e+06
4.19847e+06
4.20787e+06
4.21064e+06
4.21741e+06
4.22016e+06
4.22417e+06
4.22591e+06
4.22757e+06
4.22812e+06
4.22841e+06
4.22825e+06
4.22864e+06
4.22837e+06
4.23051e+06
4.23053e+06
4.23594e+06
4.23699e+06
4.24758e+06
4.18341e+06
4.195e+06
4.19672e+06
4.20615e+06
4.20892e+06
4.21571e+06
4.21848e+06
4.2225e+06
4.22425e+06
4.2259e+06
4.22644e+06
4.22673e+06
4.22657e+06
4.22697e+06
4.22672e+06
4.22892e+06
4.22904e+06
4.23469e+06
4.23611e+06
4.24727e+06
4.1815e+06
4.19316e+06
4.19486e+06
4.20433e+06
4.20711e+06
4.21392e+06
4.21671e+06
4.22073e+06
4.22248e+06
4.22412e+06
4.22467e+06
4.22494e+06
4.22479e+06
4.22519e+06
4.22493e+06
4.22713e+06
4.22725e+06
4.2329e+06
4.23418e+06
4.24535e+06
4.17949e+06
4.19121e+06
4.19291e+06
4.20242e+06
4.2052e+06
4.21204e+06
4.21483e+06
4.21886e+06
4.2206e+06
4.22224e+06
4.22278e+06
4.22306e+06
4.22291e+06
4.2233e+06
4.22303e+06
4.22521e+06
4.22528e+06
4.23092e+06
4.23203e+06
4.2432e+06
4.17738e+06
4.18917e+06
4.19086e+06
4.20041e+06
4.2032e+06
4.21006e+06
4.21286e+06
4.21688e+06
4.21862e+06
4.22025e+06
4.22079e+06
4.22106e+06
4.22092e+06
4.2213e+06
4.22103e+06
4.22321e+06
4.22325e+06
4.2289e+06
4.22995e+06
4.24124e+06
4.17517e+06
4.18704e+06
4.18871e+06
4.1983e+06
4.2011e+06
4.20798e+06
4.21079e+06
4.2148e+06
4.21653e+06
4.21815e+06
4.21869e+06
4.21895e+06
4.21882e+06
4.21919e+06
4.21893e+06
4.22111e+06
4.22113e+06
4.22683e+06
4.22786e+06
4.23927e+06
4.17287e+06
4.18481e+06
4.18647e+06
4.19609e+06
4.1989e+06
4.20579e+06
4.2086e+06
4.2126e+06
4.21432e+06
4.21594e+06
4.21647e+06
4.21673e+06
4.2166e+06
4.21697e+06
4.21671e+06
4.21891e+06
4.21892e+06
4.22466e+06
4.22565e+06
4.23719e+06
4.17048e+06
4.18248e+06
4.18414e+06
4.19379e+06
4.19661e+06
4.2035e+06
4.2063e+06
4.21028e+06
4.21198e+06
4.2136e+06
4.21414e+06
4.21439e+06
4.21426e+06
4.21463e+06
4.21439e+06
4.2166e+06
4.21662e+06
4.2224e+06
4.22334e+06
4.235e+06
4.16799e+06
4.18007e+06
4.18172e+06
4.19139e+06
4.19421e+06
4.2011e+06
4.20388e+06
4.20784e+06
4.20953e+06
4.21115e+06
4.21168e+06
4.21193e+06
4.21181e+06
4.21219e+06
4.21195e+06
4.2142e+06
4.21422e+06
4.22006e+06
4.22097e+06
4.23275e+06
4.16542e+06
4.17756e+06
4.17919e+06
4.18889e+06
4.19171e+06
4.19859e+06
4.20134e+06
4.20529e+06
4.20697e+06
4.20858e+06
4.20912e+06
4.20937e+06
4.20926e+06
4.20963e+06
4.20941e+06
4.21169e+06
4.21173e+06
4.21764e+06
4.21855e+06
4.23047e+06
4.16275e+06
4.17496e+06
4.17658e+06
4.18629e+06
4.18911e+06
4.19598e+06
4.1987e+06
4.20263e+06
4.2043e+06
4.20592e+06
4.20645e+06
4.2067e+06
4.20659e+06
4.20697e+06
4.20677e+06
4.20908e+06
4.20914e+06
4.21514e+06
4.21605e+06
4.22813e+06
4.16001e+06
4.17227e+06
4.17389e+06
4.18361e+06
4.18643e+06
4.19327e+06
4.19597e+06
4.19988e+06
4.20154e+06
4.20315e+06
4.20368e+06
4.20392e+06
4.20381e+06
4.20419e+06
4.20401e+06
4.20635e+06
4.20643e+06
4.21252e+06
4.21344e+06
4.22568e+06
4.15719e+06
4.16951e+06
4.17113e+06
4.18087e+06
4.18367e+06
4.19049e+06
4.19315e+06
4.19706e+06
4.1987e+06
4.2003e+06
4.20081e+06
4.20103e+06
4.20093e+06
4.20131e+06
4.20114e+06
4.20351e+06
4.20361e+06
4.20978e+06
4.2107e+06
4.22309e+06
4.15431e+06
4.1667e+06
4.16832e+06
4.17806e+06
4.18086e+06
4.18764e+06
4.19028e+06
4.19416e+06
4.19579e+06
4.19736e+06
4.19784e+06
4.19805e+06
4.19794e+06
4.19833e+06
4.19816e+06
4.20056e+06
4.20067e+06
4.20691e+06
4.20782e+06
4.22038e+06
4.15139e+06
4.16384e+06
4.16547e+06
4.17521e+06
4.178e+06
4.18474e+06
4.18735e+06
4.19122e+06
4.1928e+06
4.19434e+06
4.19478e+06
4.19497e+06
4.19486e+06
4.19525e+06
4.1951e+06
4.19752e+06
4.19763e+06
4.20393e+06
4.20483e+06
4.21754e+06
4.14844e+06
4.16095e+06
4.16258e+06
4.17232e+06
4.17509e+06
4.18179e+06
4.18437e+06
4.18822e+06
4.18976e+06
4.19125e+06
4.19165e+06
4.19181e+06
4.1917e+06
4.1921e+06
4.19195e+06
4.1944e+06
4.19451e+06
4.20087e+06
4.20176e+06
4.21462e+06
4.14547e+06
4.15802e+06
4.15966e+06
4.16939e+06
4.17214e+06
4.1788e+06
4.18136e+06
4.18517e+06
4.18666e+06
4.1881e+06
4.18845e+06
4.18859e+06
4.18848e+06
4.18888e+06
4.18875e+06
4.19122e+06
4.19133e+06
4.19776e+06
4.19863e+06
4.21165e+06
4.14247e+06
4.15508e+06
4.15672e+06
4.16644e+06
4.16917e+06
4.17579e+06
4.17832e+06
4.1821e+06
4.18351e+06
4.18489e+06
4.1852e+06
4.18532e+06
4.1852e+06
4.18561e+06
4.18549e+06
4.18801e+06
4.18812e+06
4.19462e+06
4.19547e+06
4.20865e+06
4.13948e+06
4.15213e+06
4.15378e+06
4.16348e+06
4.1662e+06
4.17277e+06
4.17527e+06
4.17899e+06
4.18033e+06
4.18164e+06
4.1819e+06
4.18201e+06
4.18188e+06
4.18231e+06
4.1822e+06
4.18476e+06
4.1849e+06
4.19147e+06
4.19232e+06
4.20566e+06
4.13651e+06
4.1492e+06
4.15086e+06
4.16053e+06
4.16323e+06
4.16976e+06
4.17223e+06
4.17587e+06
4.17712e+06
4.17837e+06
4.17859e+06
4.17868e+06
4.17855e+06
4.17899e+06
4.1789e+06
4.18152e+06
4.18168e+06
4.18834e+06
4.1892e+06
4.2027e+06
4.13359e+06
4.14631e+06
4.14798e+06
4.15762e+06
4.1603e+06
4.16678e+06
4.1692e+06
4.17276e+06
4.1739e+06
4.1751e+06
4.17528e+06
4.17536e+06
4.17522e+06
4.17568e+06
4.17562e+06
4.1783e+06
4.1785e+06
4.18525e+06
4.18612e+06
4.19978e+06
4.13073e+06
4.14349e+06
4.14516e+06
4.15476e+06
4.15743e+06
4.16385e+06
4.16622e+06
4.16967e+06
4.17071e+06
4.17187e+06
4.172e+06
4.17206e+06
4.17193e+06
4.17241e+06
4.17238e+06
4.17513e+06
4.17538e+06
4.18223e+06
4.18312e+06
4.19694e+06
4.12796e+06
4.14075e+06
4.14244e+06
4.15199e+06
4.15464e+06
4.16099e+06
4.1633e+06
4.16664e+06
4.1676e+06
4.16871e+06
4.16881e+06
4.16885e+06
4.1687e+06
4.16922e+06
4.16923e+06
4.17205e+06
4.17234e+06
4.17929e+06
4.18021e+06
4.19419e+06
4.12531e+06
4.13811e+06
4.13982e+06
4.14933e+06
4.15195e+06
4.15825e+06
4.16049e+06
4.16371e+06
4.1646e+06
4.16569e+06
4.16573e+06
4.16575e+06
4.1656e+06
4.16614e+06
4.16619e+06
4.16909e+06
4.16943e+06
4.17647e+06
4.17742e+06
4.19156e+06
4.12279e+06
4.13561e+06
4.13732e+06
4.1468e+06
4.14941e+06
4.15564e+06
4.15782e+06
4.16094e+06
4.16178e+06
4.16284e+06
4.16283e+06
4.16281e+06
4.16265e+06