/*--------------------------------*- C++ -*----------------------------------*\
  =========                 |
  \\      /  F ield         | OpenFOAM: The Open Source CFD Toolbox
   \\    /   O peration     | Website:  https://openfoam.org
    \\  /    A nd           | Version:  8
     \\/     M anipulation  |
\*---------------------------------------------------------------------------*/
FoamFile
{
    version     2.0;
    format      ascii;
    class       surfaceScalarField;
    location    "1000";
    object      phi;
}
// * * * * * * * * * * * * * * * * * * * * * * * * * * * * * * * * * * * * * //

dimensions      [1 0 -1 0 0 0 0];

internalField   nonuniform List<scalar> 
16360
(
-8.75187
-0.259
-8.49848
-0.25334
-8.25111
-0.247405
-8.00781
-0.243311
-7.76667
-0.241137
-7.5258
-0.240975
-7.2829
-0.24292
-7.03565
-0.247126
-6.782
-0.253659
-6.5196
-0.262425
-6.24648
-0.273209
-5.96093
-0.28567
-5.66171
-0.2992
-5.34862
-0.312904
-5.02292
-0.325619
-4.68697
-0.335931
-4.34421
-0.342803
-3.9984
-0.345948
-3.65306
-0.345303
-3.31181
-0.341212
-2.97708
-0.334308
-2.65222
-0.324715
-2.33975
-0.312397
-2.04165
-0.298275
-1.7586
-0.283415
-1.48961
-0.268721
-1.23423
-0.25534
-0.990979
-0.243578
-0.755401
-0.235869
-0.514089
-0.241749
-0.247995
-0.265971
0.0334809
-0.28111
0.301687
-0.267979
0.54323
-0.241354
0.761997
-0.21877
0.965631
-0.203894
1.1595
-0.193574
1.34589
-0.186115
1.52592
-0.180227
1.701
-0.175125
1.87179
-0.170637
2.03865
-0.166787
2.20211
-0.163528
2.36281
-0.160668
2.52095
-0.158034
2.67634
-0.155407
2.8288
-0.152355
2.97724
-0.148304
3.1193
-0.142131
-0.131522
3.25074
-8.65624
-0.493941
-8.42242
-0.487167
-8.18986
-0.479971
-7.95692
-0.476241
-7.72198
-0.475935
-7.48381
-0.479116
-7.24097
-0.485855
-6.99192
-0.496192
-6.73533
-0.510312
-6.46944
-0.528204
-6.19276
-0.549751
-5.90418
-0.574284
-5.60325
-0.60043
-5.29043
-0.626034
-4.96708
-0.6489
-4.63577
-0.667141
-4.29932
-0.679175
-3.96093
-0.684485
-3.62343
-0.682647
-3.29086
-0.674268
-2.96581
-0.659582
-2.65118
-0.639597
-2.34849
-0.615324
-2.05799
-0.588677
-1.77974
-0.5615
-1.51381
-0.534811
-1.25921
-0.509801
-1.01336
-0.489242
-0.772769
-0.476596
-0.540448
-0.474273
-0.324452
-0.482327
-0.117763
-0.48799
0.0882338
-0.474146
0.291931
-0.445202
0.487269
-0.414034
0.669331
-0.386039
0.838492
-0.363013
0.996582
-0.34409
1.14483
-0.328357
1.28489
-0.315059
1.41793
-0.303651
1.54487
-0.2939
1.66679
-0.285533
1.78465
-0.278448
1.89907
-0.272519
2.0106
-0.267257
2.11996
-0.261815
2.22736
-0.255577
2.33251
-0.247336
-0.234694
2.43548
-8.30788
-0.685103
-8.1166
-0.678473
-7.92314
-0.673484
-7.72517
-0.674374
-7.52055
-0.68054
-7.30787
-0.691836
-7.08573
-0.708024
-6.85309
-0.728901
-6.60912
-0.754388
-6.35304
-0.784328
-6.08417
-0.81848
-5.80225
-0.855974
-5.50749
-0.894954
-5.20108
-0.932622
-4.88448
-0.965692
-4.56015
-0.991487
-4.23135
-1.00788
-3.90131
-1.01451
-3.57323
-1.01073
-3.25017
-0.997312
-2.93488
-0.974947
-2.62919
-0.944853
-2.33484
-0.909294
-2.05272
-0.870942
-1.78269
-0.831807
-1.52416
-0.793379
-1.27651
-0.757462
-1.03959
-0.726127
-0.814863
-0.70113
-0.606547
-0.682776
-0.419397
-0.669531
-0.248917
-0.658107
-0.0815309
-0.641982
0.0864187
-0.613629
0.250496
-0.578055
0.408085
-0.543492
0.556125
-0.511074
0.694412
-0.482359
0.823248
-0.457444
0.943716
-0.435878
1.05658
-0.416828
1.16263
-0.399888
1.26243
-0.385118
1.35661
-0.372503
1.44578
-0.361713
1.53068
-0.352102
1.61176
-0.343037
1.68984
-0.33371
1.76548
-0.322991
-0.309083
1.83986
-7.68247
-0.81819
-7.54696
-0.814018
-7.40656
-0.813821
-7.25902
-0.821965
-7.10192
-0.837623
-6.93327
-0.860516
-6.75112
-0.890132
-6.5541
-0.92588
-6.34125
-0.967216
-6.11224
-1.01351
-5.86699
-1.06386
-5.60602
-1.11694
-5.33031
-1.17049
-5.04158
-1.22132
-4.74185
-1.26547
-4.43329
-1.29962
-4.11996
-1.32158
-3.80434
-1.32981
-3.49054
-1.32467
-3.18125
-1.30658
-2.87918
-1.2771
-2.58646
-1.23766
-2.30481
-1.19119
-2.03492
-1.14082
-1.77699
-1.08944
-1.53123
-1.03921
-1.29766
-0.991192
-1.07691
-0.946754
-0.870787
-0.906994
-0.681699
-0.871711
-0.511477
-0.839872
-0.359751
-0.810042
-0.220857
-0.780851
-0.0844484
-0.750165
0.0509118
-0.713464
0.181417
-0.673661
0.306575
-0.636243
0.4251
-0.601209
0.536507
-0.569022
0.64124
-0.540437
0.739447
-0.514914
0.831448
-0.491985
0.917653
-0.47156
0.998605
-0.453593
1.07493
-0.437842
1.14707
-0.424055
1.21538
-0.411492
1.28082
-0.399168
1.34407
-0.386079
-0.371029
1.40602
-6.79693
-0.898667
-6.71563
-0.895376
-6.63012
-0.899344
-6.53762
-0.914365
-6.43557
-0.939652
-6.32131
-0.974797
-6.19221
-1.01916
-6.04622
-1.07181
-5.88164
-1.13166
-5.6976
-1.19744
-5.49396
-1.2676
-5.27114
-1.33993
-5.03025
-1.41146
-4.77308
-1.4783
-4.50247
-1.53626
-4.22121
-1.58083
-3.93327
-1.6096
-3.64208
-1.62111
-3.35092
-1.61569
-3.06303
-1.59471
-2.78055
-1.55929
-2.50662
-1.51153
-2.24336
-1.45448
-1.99207
-1.39224
-1.75305
-1.32853
-1.52603
-1.26594
-1.31172
-1.20574
-1.1109
-1.14817
-0.924514
-1.09345
-0.7541
-1.04208
-0.600181
-0.993899
-0.462015
-0.948117
-0.338144
-0.904249
-0.226039
-0.86209
-0.118346
-0.821043
-0.0121611
-0.779607
0.0898315
-0.738371
0.186881
-0.698326
0.27921
-0.661259
0.366822
-0.628149
0.449568
-0.597831
0.52761
-0.57011
0.601323
-0.544991
0.67095
-0.52301
0.736822
-0.503788
0.799637
-0.486777
0.859706
-0.4714
0.917863
-0.456938
0.974497
-0.442613
-0.427037
1.03027
-5.69061
-0.935494
-5.65493
-0.931038
-5.61765
-0.936746
-5.57585
-0.956034
-5.52696
-0.988522
-5.4681
-1.03379
-5.39618
-1.09117
-5.30856
-1.15962
-5.20284
-1.23754
-5.07723
-1.32308
-4.93059
-1.41406
-4.76253
-1.5077
-4.5734
-1.60048
-4.36463
-1.6874
-4.13821
-1.76249
-3.89807
-1.82108
-3.64811
-1.8594
-3.39255
-1.87663
-3.13495
-1.87333
-2.87805
-1.85157
-2.62434
-1.81309
-2.37699
-1.75911
-2.13911
-1.69239
-1.91307
-1.61815
-1.69966
-1.54196
-1.49824
-1.46748
-1.30849
-1.39554
-1.1309
-1.32558
-0.966676
-1.25757
-0.816731
-1.19202
-0.681007
-1.12944
-0.558956
-1.07008
-0.449329
-1.01405
-0.350731
-0.960997
-0.261441
-0.910347
-0.178704
-0.862127
-0.0998063
-0.816971
-0.0230353
-0.774526
0.0506319
-0.734436
0.119971
-0.69769
0.185852
-0.663883
0.248474
-0.632654
0.3081
-0.604376
0.365017
-0.580042
0.419425
-0.558434
0.471961
-0.539238
0.522759
-0.522077
0.572426
-0.506433
0.621416
-0.49155
-0.475919
0.670146
-4.42068
-0.94504
-4.41685
-0.934787
-4.41578
-0.937911
-4.41436
-0.957399
-4.40969
-0.992996
-4.3992
-1.04434
-4.37992
-1.11047
-4.34904
-1.19044
-4.30394
-1.28265
-4.24214
-1.38498
-4.16125
-1.49492
-4.05978
-1.60942
-3.93628
-1.724
-3.79052
-1.83297
-3.62415
-1.92901
-3.43982
-2.00536
-3.2422
-2.05742
-3.03511
-2.08333
-2.82306
-2.08528
-2.60891
-2.06584
-2.39464
-2.0273
-2.18331
-1.97043
-1.97911
-1.89666
-1.78592
-1.81136
-1.60553
-1.72255
-1.43673
-1.63634
-1.27789
-1.55413
-1.12885
-1.47454
-0.990556
-1.39613
-0.863958
-1.31891
-0.749356
-1.2441
-0.646647
-1.17315
-0.554601
-1.10638
-0.471765
-1.04365
-0.397139
-0.985084
-0.329355
-0.930492
-0.26702
-0.879675
-0.209403
-0.832381
-0.155375
-0.788663
-0.104404
-0.748747
-0.0555404
-0.712495
-0.00828992
-0.679829
0.0372064
-0.649948
0.0803338
-0.623538
0.121848
-0.600117
0.162326
-0.579531
0.201676
-0.561435
0.24041
-0.545312
0.278945
-0.530245
-0.514228
0.31741
-3.04987
-0.945434
-3.06418
-0.920364
-3.08652
-0.915549
-3.11279
-0.931164
-3.13952
-0.966261
-3.16455
-1.01929
-3.18607
-1.08906
-3.20195
-1.17444
-3.2102
-1.27431
-3.20831
-1.38699
-3.19326
-1.51005
-3.16196
-1.64061
-3.11168
-1.7745
-3.03981
-1.90472
-2.946
-2.02285
-2.8313
-2.11984
-2.69904
-2.18938
-2.5538
-2.22883
-2.39947
-2.23961
-2.23977
-2.22552
-2.07679
-2.19034
-1.91256
-2.13468
-1.75148
-2.05783
-1.59918
-1.96372
-1.45926
-1.86243
-1.33083
-1.76463
-1.21085
-1.67421
-1.09722
-1.58837
-0.989973
-1.50324
-0.890748
-1.41789
-0.800962
-1.33396
-0.720644
-1.25349
-0.648984
-1.17767
-0.585262
-1.10712
-0.528425
-1.04194
-0.477373
-0.981644
-0.430858
-0.925829
-0.38856
-0.874533
-0.349682
-0.827606
-0.31357
-0.784788
-0.279992
-0.745941
-0.248812
-0.711035
-0.219128
-0.679742
-0.190678
-0.651909
-0.16331
-0.627449
-0.136421
-0.606145
-0.11008
-0.587748
-0.083866
-0.571639
-0.0574103
-0.556657
-0.5409
-0.0303351
-1.63005
-0.951428
-1.65351
-0.896824
-1.6873
-0.881725
-1.72795
-0.890747
-1.77174
-0.92269
-1.8171
-0.973901
-1.86355
-1.04246
-1.91092
-1.12712
-1.95875
-1.2265
-2.00541
-1.34013
-2.04831
-1.46706
-2.08362
-1.60526
-2.10657
-1.75131
-2.11332
-1.89848
-2.09995
-2.03598
-2.06546
-2.1545
-2.01066
-2.24425
-1.93887
-2.30036
-1.85395
-2.32434
-1.75991
-2.31941
-1.6594
-2.29077
-1.55371
-2.24044
-1.44604
-2.16546
-1.34297
-2.06671
-1.25099
-1.9546
-1.17093
-1.84486
-1.09824
-1.74685
-1.02808
-1.65849
-0.958901
-1.57239
-0.892457
-1.4842
-0.831281
-1.39491
-0.776567
-1.30796
-0.728382
-1.22581
-0.686369
-1.14954
-0.649405
-1.07902
-0.61684
-1.01403
-0.588082
-0.95442
-0.562748
-0.899974
-0.540138
-0.850264
-0.519822
-0.805071
-0.501695
-0.764236
-0.485369
-0.727501
-0.470277
-0.694806
-0.456326
-0.66594
-0.443324
-0.640662
-0.430814
-0.618778
-0.418607
-0.600017
-0.406396
-0.583792
-0.394003
-0.569053
-0.554488
-0.380287
-0.164113
-0.964542
-0.183306
-0.877671
-0.211947
-0.85297
-0.249941
-0.852163
-0.2968
-0.876026
-0.350098
-0.920627
-0.410341
-0.982552
-0.477975
-1.05942
-0.554646
-1.15007
-0.640578
-1.25419
-0.734445
-1.37309
-0.832676
-1.5074
-0.928785
-1.65489
-1.01647
-1.81055
-1.09005
-1.96301
-1.14383
-2.10087
-1.17646
-2.21125
-1.18991
-2.28702
-1.18569
-2.329
-1.16703
-2.33825
-1.13796
-2.31999
-1.10033
-2.27827
-1.05617
-2.20972
-1.01086
-2.11196
-0.972918
-1.99239
-0.94743
-1.87019
-0.930497
-1.76372
-0.913562
-1.67551
-0.891098
-1.59504
-0.863934
-1.5115
-0.836132
-1.42281
-0.810681
-1.33375
-0.788652
-1.24831
-0.770073
-1.16843
-0.754516
-1.09447
-0.741945
-1.02656
-0.732017
-0.964485
-0.724329
-0.907716
-0.718599
-0.855941
-0.714553
-0.809027
-0.712031
-0.766711
-0.710936
-0.728646
-0.710723
-0.694802
-0.711331
-0.665206
-0.712656
-0.639498
-0.714268
-0.617288
-0.715867
-0.598312
-0.71718
-0.582257
-0.717902
-0.568333
-0.555602
-0.716667
1.15297
-0.926907
1.10956
-0.834381
1.06567
-0.80968
1.02607
-0.812435
0.986972
-0.837107
0.946671
-0.88008
0.901983
-0.937808
0.849622
-1.0071
0.786278
-1.08668
0.708256
-1.17656
0.612851
-1.27817
0.499571
-1.39385
0.369171
-1.52491
0.226361
-1.66776
0.0772414
-1.81353
-0.0698649
-1.95373
-0.204127
-2.07726
-0.31696
-2.17398
-0.405813
-2.23984
-0.471924
-2.27218
-0.519703
-2.27217
-0.554877
-2.24293
-0.581327
-2.18337
-0.601244
-2.09221
-0.622122
-1.97128
-0.654542
-1.83757
-0.699192
-1.71911
-0.745245
-1.6297
-0.780049
-1.56023
-0.800503
-1.49084
-0.811929
-1.41132
-0.819479
-1.32611
-0.825967
-1.2416
-0.832441
-1.1616
-0.839538
-1.08725
-0.847665
-1.01871
-0.856697
-0.955636
-0.866722
-0.897746
-0.877848
-0.844899
-0.889842
-0.796956
-0.902572
-0.753763
-0.916307
-0.715048
-0.930667
-0.680767
-0.945262
-0.650782
-0.960028
-0.624706
-0.974799
-0.602408
-0.989445
-0.58377
-1.00352
-0.568306
-1.01648
-0.555441
-0.544695
-1.02735
2.47023
-0.839717
2.40225
-0.766216
2.34371
-0.75133
2.29456
-0.763446
2.25188
-0.794404
2.21152
-0.839893
2.1693
-0.895303
2.11939
-0.957312
2.05678
-1.02405
1.9768
-1.09618
1.87561
-1.1769
1.75104
-1.26945
1.6027
-1.37636
1.43215
-1.49689
1.24464
-1.62614
1.04718
-1.75632
0.847698
-1.8778
0.655315
-1.98171
0.477173
-2.06168
0.318232
-2.1132
0.180507
-2.13442
0.0636228
-2.12595
-0.0352163
-2.0845
-0.121939
-2.00569
-0.203741
-1.88966
-0.293358
-1.74798
-0.399248
-1.61306
-0.514437
-1.51436
-0.618162
-1.45637
-0.697136
-1.41173
-0.755111
-1.35346
-0.800154
-1.28123
-0.837946
-1.20392
-0.871211
-1.12846
-0.901616
-1.05693
-0.930283
-0.98993
-0.957957
-0.927639
-0.9853
-0.870214
-1.0127
-0.817638
-1.04012
-0.769655
-1.06743
-0.726314
-1.09518
-0.68758
-1.12303
-0.653207
-1.15048
-0.623112
-1.17776
-0.597191
-1.20483
-0.57526
-1.23136
-0.557232
-1.25702
-0.542668
-1.28131
-0.531149
-0.522449
-1.30357
3.81455
-0.734419
3.7304
-0.682092
3.66556
-0.686418
3.61584
-0.713642
3.57747
-0.755794
3.54491
-0.807446
3.51195
-0.862619
3.47127
-0.916603
3.41531
-0.967791
3.33678
-1.01777
3.23066
-1.07058
3.09246
-1.13135
2.91986
-1.20418
2.71325
-1.29068
2.47738
-1.39034
2.22152
-1.5002
1.95693
-1.61315
1.69492
-1.72
1.44499
-1.81197
1.2133
-1.88146
1.00168
-1.92277
0.806502
-1.93099
0.623084
-1.90103
0.448
-1.83034
0.281067
-1.72277
0.122368
-1.58953
-0.037902
-1.45279
-0.21645
-1.33593
-0.39714
-1.27616
-0.547783
-1.26142
-0.662222
-1.23912
-0.750414
-1.19291
-0.822688
-1.13144
-0.884193
-1.06689
-0.938256
-1.00286
-0.98734
-0.94078
-1.03334
-0.881704
-1.07742
-0.826371
-1.12012
-0.77506
-1.162
-0.727903
-1.20305
-0.685166
-1.2437
-0.647048
-1.28388
-0.613289
-1.3232
-0.583706
-1.36192
-0.558441
-1.40016
-0.537311
-1.43744
-0.520044
-1.47355
-0.506461
-1.50817
-0.4964
-0.48975
-1.54088
5.198
-0.601141
5.1045
-0.58857
5.03804
-0.619793
4.99512
-0.670902
4.96944
-0.730211
4.95323
-0.791186
4.93778
-0.846969
4.91301
-0.891887
4.86856
-0.923491
4.79434
-0.943857
4.68224
-0.958436
4.52525
-0.974335
4.31939
-0.99807
4.06479
-1.03572
3.76794
-1.09352
3.44232
-1.17475
3.10419
-1.275
2.76834
-1.38399
2.44631
-1.48986
2.14486
-1.5801
1.86568
-1.64365
1.60474
-1.67017
1.35523
-1.6515
1.11089
-1.58603
0.868548
-1.48062
0.627984
-1.34905
0.387661
-1.2125
0.144599
-1.09262
-0.108883
-1.02236
-0.343395
-1.02674
-0.528233
-1.05423
-0.667167
-1.05389
-0.777945
-1.02073
-0.869552
-0.975276
-0.947794
-0.924494
-1.01723
-0.871277
-1.08108
-0.8179
-1.14112
-0.766195
-1.19837
-0.717431
-1.25389
-0.672288
-1.30788
-0.631197
-1.36051
-0.594369
-1.41191
-0.561794
-1.46217
-0.533401
-1.51133
-0.509261
-1.55951
-0.489299
-1.60646
-0.473183
-1.65205
-0.460846
-1.69609
-0.452368
-0.447715
-1.73821
6.62613
-0.490341
6.54042
-0.502838
6.49046
-0.569865
6.46609
-0.646471
6.46183
-0.726082
6.4697
-0.799071
6.47908
-0.856496
6.47712
-0.88999
6.44873
-0.894968
6.37856
-0.873597
6.25369
-0.833518
6.06517
-0.785908
5.80904
-0.742061
5.48674
-0.713496
5.10873
-0.71548
4.69558
-0.761393
4.27043
-0.849916
3.85279
-0.966592
3.45716
-1.09427
3.09036
-1.21315
2.75192
-1.30487
2.43462
-1.35289
2.12862
-1.34573
1.82558
-1.28277
1.5208
-1.17553
1.2143
-1.04238
0.905169
-0.903371
0.590555
-0.778068
0.260828
-0.692661
-0.0703206
-0.695544
-0.345681
-0.778722
-0.545536
-0.854089
-0.699251
-0.867264
-0.823336
-0.851378
-0.926967
-0.820852
-1.01708
-0.780999
-1.09872
-0.736214
-1.17469
-0.690301
-1.24637
-0.645618
-1.31517
-0.603621
-1.38145
-0.565085
-1.44546
-0.530407
-1.50747
-0.499662
-1.56787
-0.473019
-1.62669
-0.450468
-1.68394
-0.431942
-1.7397
-0.417296
-1.79406
-0.406528
-1.84682
-0.399741
-0.396978
-1.89766
8.44297
-0.306286
8.29459
-0.354418
8.1858
-0.46109
8.12068
-0.581219
8.1009
-0.706301
8.11487
-0.81298
8.14387
-0.885466
8.16462
-0.910503
8.14981
-0.880142
8.07395
-0.797913
7.91749
-0.677002
7.67175
-0.540274
7.3403
-0.410561
6.93099
-0.304051
6.45663
-0.241175
5.94343
-0.248189
5.42131
-0.327659
4.9139
-0.459093
4.44105
-0.621358
4.00942
-0.781599
3.61499
-0.910412
3.24585
-0.983733
2.88909
-0.989101
2.53574
-0.9295
2.18151
-0.821368
1.82503
-0.685906
1.46594
-0.544365
1.09867
-0.410976
0.722713
-0.316621
0.302904
-0.275655
-0.100199
-0.375665
-0.376574
-0.577915
-0.577354
-0.666417
-0.736632
-0.691921
-0.86801
-0.689175
-0.980578
-0.668229
-1.08135
-0.635328
-1.17414
-0.597417
-1.26089
-0.558703
-1.34323
-0.521483
-1.42178
-0.486714
-1.49688
-0.455154
-1.56922
-0.427241
-1.63923
-0.40316
-1.70706
-0.382822
-1.77276
-0.36619
-1.83666
-0.353335
-1.89897
-0.344303
-1.9596
-0.339256
-0.338398
-2.01833
9.12388
-0.203048
9.21246
-0.443155
9.35572
-0.604233
9.52437
-0.749929
9.70132
-0.883415
9.84508
-0.956686
9.93365
-0.974239
9.95731
-0.934303
9.902
-0.824764
9.75407
-0.649987
9.49891
-0.421696
9.13193
-0.173234
8.6706
0.0506688
8.14178
0.224783
7.56623
0.334361
6.97461
0.343189
6.39855
0.248293
5.84715
0.0924774
5.31768
-0.0917728
4.80676
-0.270838
4.32129
-0.424944
3.86694
-0.529314
3.44566
-0.56787
3.05818
-0.541942
2.70305
-0.466119
2.36623
-0.348996
2.0167
-0.194558
1.63437
-0.0285326
1.22059
0.0970743
0.733249
0.211828
0.228037
0.129639
-0.143625
-0.206292
-0.394454
-0.415407
-0.591034
-0.495262
-0.755114
-0.525375
-0.894774
-0.528848
-1.01877
-0.511484
-1.13193
-0.484569
-1.23656
-0.454226
-1.33435
-0.423638
-1.4266
-0.39438
-1.514
-0.367524
-1.59746
-0.343718
-1.67746
-0.32315
-1.75447
-0.305859
-1.8289
-0.29183
-1.90119
-0.281127
-1.97173
-0.273839
-2.04066
-0.27032
-0.271164
-2.10792
14.3263
0.0215919
14.0496
-0.166316
13.6807
-0.235532
13.2448
-0.313822
12.7751
-0.413661
12.2807
-0.461835
11.7927
-0.48605
11.3232
-0.464708
10.8833
-0.384686
10.4785
-0.245301
10.0935
-0.0364873
9.63676
0.283757
9.05461
0.632901
8.35527
0.92428
7.52896
1.16096
6.66296
1.20938
5.85538
1.056
5.1095
0.838389
4.42601
0.591783
3.82894
0.326401
3.32601
0.0781057
2.89447
-0.0978647
2.49662
-0.169962
2.12198
-0.167127
1.76127
-0.105633
1.40525
0.0064538
1.10146
0.108987
0.882627
0.19024
0.710949
0.268942
0.604671
0.318357
0.457518
0.277102
0.16947
0.0821274
-0.121561
-0.123914
-0.352002
-0.264505
-0.554184
-0.323407
-0.72898
-0.354311
-0.883513
-0.356846
-1.02266
-0.345438
-1.14973
-0.327423
-1.26662
-0.306616
-1.37542
-0.285571
-1.47721
-0.265696
-1.57314
-0.247815
-1.66403
-0.232255
-1.75066
-0.219206
-1.83386
-0.208726
-1.9143
-0.200866
-1.9926
-0.195731
-2.0691
-0.193823
-0.196405
-2.14377
1.35167
0.399245
0.816568
0.368448
0.374378
0.207118
0.0379564
0.0223233
-0.254503
-0.121199
-0.574187
-0.142377
-0.874074
-0.186406
-1.1136
-0.225084
-1.24764
-0.250737
-1.24519
-0.24764
-1.079
-0.20297
-0.706191
-0.0893412
-0.259972
0.186659
0.167467
0.496724
0.674632
0.653396
1.10963
0.774581
1.27687
0.888659
1.24169
0.873136
1.11308
0.720575
0.940646
0.498843
0.73453
0.284192
0.503108
0.133988
0.27535
0.0584511
0.0699895
0.0385251
-0.0702872
0.0351606
-0.0595708
-0.00312213
0.0657142
-0.0157833
0.2043
0.0516526
0.265964
0.207214
0.320326
0.263828
0.386125
0.211221
0.350539
0.117599
0.192016
0.034018
-0.00628226
-0.066521
-0.216287
-0.11334
-0.434397
-0.136106
-0.63225
-0.158805
-0.806873
-0.170507
-0.96547
-0.168962
-1.11093
-0.161111
-1.24546
-0.151115
-1.37038
-0.140857
-1.48695
-0.131335
-1.59636
-0.122948
-1.69966
-0.115891
-1.79804
-0.110334
-1.89255
-0.106361
-1.98433
-0.103999
-2.07462
-0.103467
-0.106254
-2.16456
-5.31338
-4.94501
-4.73796
-4.71562
-4.83677
-4.97918
-5.16553
-5.39058
-5.64136
-5.88911
-6.09203
-6.1813
-5.9945
-5.49786
-4.84439
-4.06965
-3.18098
-2.30784
-1.58712
-1.08835
-0.804316
-0.670486
-0.61235
-0.574264
-0.539108
-0.542238
-0.557956
-0.506274
-0.298905
-0.034984
0.176313
0.294096
0.328057
0.261556
0.148527
0.0126808
-0.146294
-0.316854
-0.485955
-0.646987
-0.798036
-0.93892
-1.07029
-1.19333
-1.30931
-1.41972
-1.52606
-1.62999
-1.7335
-1.83994
0.40656
-0.00865548
0.40945
-0.00308451
0.411637
-0.00203223
0.41287
-0.000876224
0.413307
-0.000280479
0.413257
-2.50304e-05
0.41297
0.000149256
0.412594
0.000301125
0.412178
0.000405557
0.411726
0.000455213
0.411234
0.000471248
0.410714
0.000476609
0.41018
0.000480498
0.409642
0.000482786
0.409103
0.000482617
0.408561
0.000480835
0.408014
0.000478232
0.40746
0.000474517
0.4069
0.000469061
0.406339
0.000461536
0.405781
0.000451979
0.405232
0.00044104
0.404697
0.000429395
0.40418
0.000416484
0.403681
0.000399996
0.403207
0.000378164
0.402767
0.000352854
0.402368
0.000328123
0.402013
0.000305439
0.401699
0.000282584
0.401423
0.000257953
0.401187
0.000233722
0.400989
0.000212575
0.400819
0.000192633
0.400668
0.000167672
0.400534
0.000133911
0.400426
9.20767e-05
0.400357
4.34691e-05
0.400337
-1.37339e-05
0.40038
-8.37073e-05
0.400505
-0.000169712
0.400733
-0.000273537
0.401088
-0.000398989
0.401597
-0.000552865
0.402297
-0.000742638
0.403239
-0.00097927
0.404493
-0.00128844
0.406172
-0.00172442
0.408502
-0.00239102
-0.00350238
0.41193
0.394016
-0.00456639
0.393187
-0.00245819
0.391626
-0.00100124
0.390918
-0.000398384
0.390698
1.11899e-05
0.390606
0.000195991
0.390532
0.000242991
0.39049
0.000260707
0.390507
0.000283727
0.39058
0.000303792
0.390681
0.000308971
0.390789
0.000298462
0.390896
0.000279966
0.391005
0.000262093
0.391119
0.000249068
0.391232
0.000239921
0.391336
0.000231546
0.391429
0.000222063
0.391511
0.000211612
0.391585
0.000200908
0.391656
0.000190353
0.39173
0.000180015
0.391811
0.000168794
0.3919
0.00015406
0.391999
0.000133724
0.392116
0.000109021
0.392264
8.36806e-05
0.392447
5.95552e-05
0.392664
3.4336e-05
0.392913
4.92449e-06
0.393194
-2.82737e-05
0.39351
-6.28417e-05
0.393854
-9.99876e-05
0.394214
-0.000144862
0.394581
-0.00020143
0.394959
-0.000269494
0.395356
-0.000347746
0.395783
-0.000438369
0.39625
-0.000547567
0.396771
-0.000681912
0.397367
-0.000845816
0.398058
-0.00104427
0.398864
-0.00128521
0.399812
-0.00157786
0.400932
-0.00193318
0.402258
-0.00237148
0.403823
-0.00293044
0.405678
-0.00366677
0.407877
-0.00466753
-0.00607284
0.41039
0.39444
-0.000988111
0.393506
-0.0011151
0.393286
-0.000782046
0.393264
-0.00055033
0.393509
-0.000353641
0.393873
-0.00018904
0.394221
-9.36651e-05
0.394512
-4.49164e-05
0.394759
-9.8456e-06
0.394976
2.14505e-05
0.395169
4.32864e-05
0.395337
5.15136e-05
0.395483
5.02717e-05
0.395611
4.71172e-05
0.395722
4.5857e-05
0.395813
4.50557e-05
0.395883
4.20657e-05
0.395933
3.66047e-05
0.395965
3.00621e-05
0.395984
2.33845e-05
0.395998
1.63034e-05
0.39601
7.56974e-06
0.396025
-4.90361e-06
0.396045
-2.3251e-05
0.396076
-4.74512e-05
0.39613
-7.4704e-05
0.396217
-0.000102624
0.396339
-0.000132313
0.396494
-0.000167034
0.396682
-0.000207772
0.396907
-0.000252354
0.397168
-0.000300116
0.397454
-0.000355113
0.397754
-0.000422802
0.398062
-0.000504774
0.398385
-0.000600481
0.398726
-0.000711573
0.399093
-0.000844114
0.399493
-0.00100589
0.399946
-0.00120293
0.400468
-0.00144039
0.401077
-0.00172576
0.401793
-0.00206895
0.402638
-0.00248066
0.403635
-0.00297595
0.404795
-0.00358151
0.406132
-0.00433591
0.407662
-0.00528581
0.409396
-0.00649445
-0.00805334
0.411305
0.397442
-0.000738459
0.397444
-0.000956782
0.397635
-0.000797934
0.397712
-0.000610688
0.397724
-0.000437743
0.39774
-0.000273516
0.397759
-0.000145478
0.397764
-6.53686e-05
0.397748
-2.13396e-05
0.397716
3.80365e-07
0.397678
7.55725e-06
0.397644
5.70455e-06
0.397618
2.67152e-07
0.3976
-5.68188e-06
0.39758
-1.29197e-05
0.397555
-2.32316e-05
0.397521
-3.62586e-05
0.39748
-4.95463e-05
0.397433
-6.15019e-05
0.397382
-7.2874e-05
0.397332
-8.55938e-05
0.397287
-0.000101494
0.397247
-0.000122059
0.397218
-0.000147896
0.397208
-0.000177986
0.397227
-0.000210714
0.397282
-0.000246574
0.397372
-0.000287947
0.397496
-0.00033589
0.39766
-0.000388372
0.397863
-0.000443555
0.3981
-0.000504248
0.398358
-0.000576417
0.398629
-0.000664412
0.398911
-0.000769025
0.399207
-0.000891093
0.399518
-0.00103561
0.399847
-0.00121076
0.400207
-0.00142321
0.400613
-0.00167748
0.401083
-0.00197993
0.40163
-0.00234059
0.402273
-0.00277044
0.403029
-0.00328083
0.403909
-0.00388942
0.404914
-0.00462342
0.406045
-0.0055165
0.407302
-0.00660606
0.408668
-0.00793546
-0.00955838
0.4101
0.397553
-0.000505863
0.397169
-0.00066107
0.396984
-0.000531294
0.396853
-0.000408838
0.396742
-0.000324099
0.396682
-0.000251984
0.396686
-0.000187507
0.396735
-0.000141944
0.396802
-0.000120638
0.396872
-0.000119131
0.396944
-0.000127977
0.397023
-0.000138413
0.397111
-0.000146708
0.3972
-0.000154927
0.39728
-0.000166584
0.397347
-0.000181791
0.397402
-0.000197053
0.397444
-0.000209569
0.397474
-0.000220068
0.397494
-0.000231393
0.397506
-0.000245787
0.397517
-0.000264022
0.397529
-0.000286417
0.397548
-0.000313192
0.397583
-0.000344368
0.397644
-0.000380414
0.397735
-0.000422622
0.397857
-0.000471692
0.398012
-0.000525859
0.398206
-0.000582762
0.398434
-0.000643792
0.398688
-0.000714628
0.398957
-0.000800844
0.399236
-0.000904657
0.399524
-0.0010269
0.399817
-0.00117137
0.400116
-0.0013457
0.400424
-0.00155736
0.400756
-0.00181084
0.401126
-0.00211059
0.401547
-0.00246519
0.402033
-0.00288653
0.402599
-0.00338603
0.403259
-0.00397571
0.404013
-0.0046732
0.404854
-0.00550194
0.405784
-0.00648872
0.406798
-0.0076642
0.407868
-0.00906178
-0.0107168
0.408961
0.397854
-0.000404441
0.397714
-0.000603709
0.397699
-0.000531652
0.397764
-0.000442096
0.39784
-0.000376822
0.397912
-0.000326825
0.397987
-0.000281577
0.398063
-0.00024497
0.398131
-0.000223993
0.398187
-0.000218488
0.398235
-0.000221701
0.39828
-0.000227196
0.398322
-0.000233903
0.398355
-0.000244495
0.398376
-0.000259784
0.398385
-0.000276416
0.398385
-0.000290228
0.398372
-0.00030101
0.398345
-0.000312128
0.398306
-0.000326513
0.398263
-0.000344571
0.398219
-0.000365864
0.398179
-0.00039098
0.398149
-0.000421272
0.398138
-0.000457704
0.398154
-0.000500664
0.398201
-0.000549902
0.398284
-0.000604164
0.398405
-0.000661818
0.398566
-0.000723602
0.398757
-0.00079386
0.398971
-0.000877834
0.399199
-0.000978411
0.399439
-0.00109648
0.399685
-0.00123485
0.39993
-0.00140067
0.400175
-0.00160207
0.400425
-0.00184413
0.400696
-0.00213005
0.400998
-0.00246636
0.40134
-0.00286444
0.401735
-0.00333605
0.402199
-0.00389101
0.402741
-0.00454136
0.403352
-0.00530449
0.404025
-0.00620025
0.404756
-0.00724914
0.405539
-0.00847572
0.406343
-0.00990791
-0.0115702
0.407136
0.397907
-0.000324383
0.397841
-0.00051062
0.397768
-0.000478228
0.397731
-0.000408931
0.397714
-0.000347831
0.397703
-0.000305389
0.397698
-0.000277503
0.3977
-0.000261955
0.397709
-0.000258775
0.397727
-0.000265702
0.397756
-0.000278289
0.397794
-0.000293829
0.397835
-0.00031257
0.397872
-0.000334761
0.397907
-0.000357563
0.397939
-0.00037682
0.397964
-0.000391437
0.397975
-0.000404497
0.39797
-0.000419848
0.397955
-0.00043849
0.397935
-0.000459381
0.397914
-0.000482712
0.397895
-0.000510577
0.397885
-0.000544917
0.397894
-0.000585844
0.397929
-0.00063226
0.397997
-0.000683117
0.398101
-0.000738003
0.398243
-0.000797976
0.398419
-0.000866255
0.39862
-0.000946714
0.39884
-0.00104155
0.399072
-0.00115145
0.399312
-0.00127861
0.39955
-0.00142929
0.39978
-0.00161196
0.400001
-0.00183294
0.400225
-0.00209537
0.400461
-0.00240369
0.400716
-0.00276756
0.400997
-0.00319907
0.401321
-0.00370773
0.401702
-0.0043017
0.402141
-0.00499299
0.40263
-0.00579898
0.403159
-0.00673799
0.403722
-0.0078262
0.404309
-0.00908279
0.404895
-0.010532
-0.0121945
0.405455
0.39791
-0.000298701
0.397925
-0.000447508
0.397905
-0.00043756
0.397896
-0.000399866
0.397911
-0.000358302
0.397947
-0.00032806
0.397991
-0.000312823
0.398038
-0.000311126
0.398089
-0.000319878
0.398145
-0.000335154
0.398207
-0.000353883
0.398269
-0.000375098
0.398326
-0.000398744
0.398375
-0.000422852
0.398419
-0.000443942
0.398455
-0.000460213
0.398477
-0.000473756
0.398477
-0.000488437
0.398457
-0.000506
0.398424
-0.000525504
0.398385
-0.000546391
0.398341
-0.000570513
0.398297
-0.000600442
0.39826
-0.000636841
0.398243
-0.000678428
0.398254
-0.000724095
0.398298
-0.000774236
0.398378
-0.000830627
0.398492
-0.00089572
0.398637
-0.000971693
0.398806
-0.00105972
0.398993
-0.00116029
0.399192
-0.00127502
0.399392
-0.00140897
0.399582
-0.00157
0.399758
-0.00176507
0.399923
-0.00199807
0.400087
-0.00227262
0.400254
-0.00259657
0.400427
-0.00298132
0.400618
-0.00343685
0.400844
-0.00396966
0.401115
-0.00458796
0.401428
-0.00530547
0.401772
-0.00613889
0.402142
-0.00710437
0.402527
-0.00821536
0.402913
-0.00948701
0.403279
-0.0109383
-0.0125839
0.403605
0.397904
-0.000300115
0.397936
-0.000416856
0.397943
-0.000397908
0.397938
-0.000372574
0.39794
-0.000345093
0.397953
-0.000324718
0.397972
-0.000317459
0.397992
-0.000324248
0.398015
-0.000341982
0.398046
-0.000365929
0.398084
-0.00039256
0.398123
-0.000420412
0.398159
-0.00044861
0.398195
-0.000475155
0.39823
-0.000497998
0.398258
-0.000517535
0.398271
-0.000536487
0.398262
-0.000556936
0.398237
-0.00057847
0.398201
-0.000600062
0.398159
-0.000622718
0.398112
-0.000649153
0.398065
-0.000681032
0.398029
-0.000717778
0.398014
-0.000758478
0.398027
-0.000803765
0.398073
-0.000855488
0.398154
-0.000915543
0.398267
-0.000985038
0.39841
-0.00106428
0.398577
-0.00115371
0.398761
-0.00125498
0.398952
-0.00137199
0.399136
-0.00151094
0.399303
-0.00167832
0.399452
-0.00187895
0.399586
-0.0021167
0.399711
-0.00239768
0.399827
-0.00273183
0.399939
-0.00312924
0.400062
-0.00359666
0.400212
-0.00414015
0.400393
-0.00477029
0.400598
-0.00550233
0.40082
-0.00635048
0.401053
-0.00732679
0.401286
-0.00844378
0.401503
-0.00971501
0.401686
-0.0111554
-0.0127771
0.401829
0.397908
-0.000297513
0.397932
-0.000399582
0.397949
-0.000365004
0.397958
-0.000341315
0.397968
-0.000325366
0.397985
-0.000318432
0.398008
-0.000323337
0.398036
-0.000340669
0.398071
-0.000367186
0.398116
-0.000397927
0.398167
-0.000429329
0.398219
-0.000460338
0.398269
-0.000490575
0.398317
-0.000519019
0.398361
-0.000544695
0.398394
-0.00056826
0.398407
-0.000591418
0.398398
-0.000614717
0.398371
-0.000637356
0.398332
-0.000659271
0.398282
-0.000682328
0.398224
-0.000708933
0.398167
-0.000740016
0.398121
-0.000775352
0.398095
-0.000815351
0.398097
-0.000861397
0.398128
-0.000914671
0.398193
-0.00097539
0.398291
-0.00104348
0.398418
-0.00111983
0.398568
-0.00120655
0.398732
-0.00130677
0.398896
-0.00142481
0.399047
-0.00156571
0.399177
-0.00173426
0.399284
-0.00193485
0.39937
-0.00217315
0.399437
-0.0024572
0.399486
-0.00279582
0.399524
-0.00319626
0.399566
-0.00366427
0.399625
-0.00420799
0.3997
-0.00483994
0.399785
-0.00557449
0.399875
-0.00642258
0.399964
-0.00739322
0.40004
-0.0084988
0.400085
-0.00975445
0.400086
-0.011173
-0.0127645
0.400038
0.39791
-0.000277398
0.397923
-0.000368709
0.397934
-0.000326491
0.397943
-0.000304577
0.397956
-0.000298831
0.397972
-0.000305372
0.397992
-0.000323147
0.398019
-0.000350624
0.398057
-0.000383764
0.398106
-0.000418278
0.398161
-0.000452326
0.398215
-0.000486213
0.398267
-0.000519806
0.398317
-0.000551581
0.398362
-0.000580272
0.398393
-0.000606389
0.398403
-0.000631293
0.398391
-0.00065538
0.398361
-0.000678196
0.398317
-0.000700156
0.398259
-0.000723122
0.398193
-0.000749098
0.398128
-0.000779215
0.398074
-0.000814075
0.398039
-0.000854149
0.39803
-0.000899651
0.398052
-0.000950434
0.398107
-0.00100651
0.398195
-0.00106911
0.398311
-0.00114076
0.398447