/*--------------------------------*- C++ -*----------------------------------*\
  =========                 |
  \\      /  F ield         | OpenFOAM: The Open Source CFD Toolbox
   \\    /   O peration     | Website:  https://openfoam.org
    \\  /    A nd           | Version:  8
     \\/     M anipulation  |
\*---------------------------------------------------------------------------*/
FoamFile
{
    version     2.0;
    format      ascii;
    class       volScalarField;
    location    "1000";
    object      T;
}
// * * * * * * * * * * * * * * * * * * * * * * * * * * * * * * * * * * * * * //

dimensions      [0 0 0 1 0 0 0];

internalField   nonuniform List<scalar> 
8400
(
299.904
299.91
299.979
300.047
300.13
300.227
300.339
300.462
300.595
300.731
300.868
301.001
301.128
301.247
301.359
301.466
301.566
301.66
301.748
301.828
301.901
301.963
302.014
302.05
302.072
302.082
302.084
302.081
302.074
302.057
302.009
301.823
301.561
301.327
301.121
300.942
300.79
300.661
300.552
300.463
300.39
300.33
300.283
300.246
300.217
300.195
300.178
300.166
300.158
300.154
300.04
300.034
300.086
300.14
300.212
300.302
300.412
300.542
300.691
300.855
301.03
301.209
301.386
301.555
301.712
301.853
301.976
302.082
302.171
302.243
302.3
302.342
302.372
302.39
302.398
302.398
302.392
302.38
302.362
302.336
302.296
302.231
302.112
301.961
301.804
301.649
301.498
301.354
301.219
301.093
300.977
300.872
300.777
300.692
300.617
300.551
300.493
300.442
300.398
300.358
300.07
300.067
300.109
300.158
300.225
300.312
300.422
300.558
300.718
300.902
301.104
301.317
301.531
301.737
301.926
302.089
302.225
302.333
302.415
302.475
302.517
302.543
302.557
302.561
302.557
302.547
302.534
302.517
302.497
302.473
302.443
302.407
302.358
302.285
302.195
302.099
301.998
301.895
301.79
301.686
301.582
301.481
301.383
301.288
301.198
301.112
301.031
300.954
300.88
300.811
300.037
300.041
300.076
300.12
300.182
300.267
300.376
300.515
300.683
300.881
301.104
301.345
301.592
301.833
302.052
302.24
302.39
302.502
302.582
302.635
302.666
302.681
302.683
302.676
302.662
302.644
302.623
302.601
302.576
302.55
302.521
302.49
302.456
302.417
302.365
302.305
302.242
302.175
302.106
302.036
301.964
301.892
301.819
301.747
301.676
301.605
301.536
301.467
301.399
301.331
299.978
299.984
300.01
300.046
300.1
300.175
300.277
300.41
300.577
300.779
301.013
301.273
301.547
301.82
302.074
302.294
302.468
302.597
302.686
302.743
302.774
302.786
302.783
302.77
302.751
302.727
302.7
302.672
302.642
302.611
302.579
302.545
302.511
302.476
302.438
302.395
302.347
302.297
302.245
302.192
302.138
302.084
302.03
301.977
301.925
301.873
301.822
301.771
301.721
301.67
299.932
299.934
299.946
299.969
300.006
300.063
300.145
300.258
300.407
300.595
300.821
301.083
301.37
301.668
301.957
302.217
302.432
302.595
302.712
302.791
302.838
302.861
302.864
302.853
302.833
302.806
302.776
302.744
302.71
302.675
302.638
302.601
302.563
302.524
302.485
302.446
302.406
302.365
302.32
302.274
302.228
302.182
302.135
302.089
302.044
302
301.956
301.914
301.872
301.83
299.921
299.916
299.916
299.922
299.939
299.97
300.022
300.099
300.21
300.361
300.554
300.791
301.066
301.369
301.683
301.985
302.251
302.467
302.633
302.756
302.841
302.893
302.918
302.92
302.906
302.882
302.852
302.819
302.784
302.746
302.707
302.667
302.625
302.583
302.541
302.498
302.456
302.414
302.373
302.333
302.293
302.253
302.21
302.168
302.126
302.086
302.046
302.006
301.966
301.926
299.942
299.933
299.925
299.921
299.921
299.93
299.95
299.987
300.049
300.143
300.278
300.46
300.691
300.968
301.279
301.606
301.922
302.2
302.432
302.617
302.76
302.863
302.928
302.959
302.962
302.948
302.923
302.892
302.858
302.822
302.783
302.742
302.7
302.657
302.613
302.568
302.523
302.479
302.435
302.391
302.349
302.307
302.267
302.227
302.189
302.151
302.114
302.076
302.039
302
299.975
299.966
299.957
299.95
299.944
299.941
299.943
299.951
299.971
300.011
300.079
300.188
300.349
300.566
300.837
301.153
301.492
301.819
302.113
302.367
302.579
302.749
302.874
302.954
302.991
302.996
302.982
302.957
302.928
302.895
302.86
302.822
302.782
302.741
302.699
302.655
302.611
302.567
302.522
302.478
302.435
302.392
302.35
302.309
302.268
302.228
302.188
302.148
302.107
302.065
299.997
299.992
299.988
299.982
299.976
299.971
299.967
299.966
299.969
299.978
300.001
300.047
300.134
300.275
300.477
300.743
301.062
301.4
301.729
302.035
302.307
302.545
302.74
302.888
302.979
303.018
303.022
303.009
302.988
302.961
302.931
302.899
302.865
302.829
302.791
302.751
302.711
302.671
302.63
302.589
302.548
302.507
302.467
302.428
302.389
302.35
302.311
302.273
302.233
302.193
300.001
300.001
300
299.997
299.994
299.991
299.988
299.987
299.988
299.993
300.002
300.022
300.065
300.148
300.283
300.483
300.748
301.052
301.373
301.692
301.992
302.273
302.528
302.744
302.906
303
303.038
303.043
303.032
303.014
302.992
302.967
302.94
302.911
302.88
302.847
302.814
302.78
302.745
302.71
302.675
302.64
302.605
302.57
302.536
302.502
302.468
302.434
302.399
302.364
300.004
300.005
300.004
300.004
300.002
300.001
300
300.001
300.004
300.01
300.021
300.041
300.078
300.146
300.255
300.412
300.617
300.863
301.14
301.43
301.718
302.001
302.277
302.535
302.762
302.927
303.018
303.053
303.058
303.051
303.038
303.021
303.002
302.98
302.957
302.933
302.907
302.881
302.854
302.826
302.799
302.771
302.743
302.716
302.688
302.661
302.633
302.605
302.577
302.548
300.009
300.009
300.008
300.008
300.008
300.01
300.012
300.016
300.022
300.032
300.046
300.07
300.11
300.175
300.274
300.41
300.584
300.792
301.029
301.286
301.552
301.815
302.07
302.32
302.568
302.79
302.947
303.031
303.062
303.069
303.066
303.058
303.047
303.034
303.019
303.002
302.984
302.965
302.946
302.926
302.906
302.886
302.866
302.845
302.825
302.805
302.784
302.763
302.742
302.72
300.014
300.013
300.012
300.012
300.015
300.019
300.026
300.036
300.047
300.062
300.084
300.115
300.162
300.232
300.329
300.454
300.607
300.784
300.984
301.202
301.433
301.67
301.907
302.144
302.385
302.62
302.82
302.964
303.038
303.067
303.077
303.078
303.075
303.069
303.061
303.052
303.041
303.029
303.017
303.004
302.991
302.978
302.964
302.95
302.937
302.923
302.909
302.894
302.879
302.864
300.013
300.012
300.011
300.014
300.021
300.032
300.046
300.064
300.086
300.112
300.146
300.19
300.251
300.33
300.429
300.547
300.682
300.833
300.999
301.18
301.372
301.572
301.778
301.989
302.211
302.443
302.663
302.845
302.973
303.041
303.068
303.079
303.084
303.085
303.084
303.081
303.077
303.072
303.065
303.059
303.051
303.044
303.036
303.028
303.02
303.011
303.003
302.994
302.985
302.975
300.019
300.019
300.018
300.023
300.033
300.049
300.074
300.107
300.15
300.201
300.26
300.328
300.406
300.494
300.593
300.702
300.818
300.943
301.078
301.222
301.376
301.537
301.704
301.877
302.064
302.271
302.487
302.691
302.857
302.977
303.038
303.062
303.075
303.083
303.088
303.091
303.092
303.092
303.091
303.09
303.088
303.085
303.082
303.079
303.075
303.072
303.068
303.064
303.059
303.054
299.994
299.972
299.967
299.979
300.01
300.061
300.132
300.218
300.315
300.416
300.516
300.61
300.697
300.777
300.863
300.955
301.052
301.151
301.25
301.357
301.474
301.597
301.723
301.852
301.99
302.147
302.327
302.523
302.707
302.859
302.979
303.025
303.047
303.061
303.072
303.08
303.086
303.09
303.094
303.097
303.098
303.1
303.101
303.101
303.102
303.102
303.101
303.101
303.1
303.1
299.977
300.016
300.093
300.192
300.297
300.428
300.573
300.727
300.878
301.014
301.123
301.208
301.295
301.387
301.477
301.564
301.641
301.711
301.777
301.833
301.883
301.934
301.997
302.079
302.185
302.314
302.459
302.606
302.736
302.83
302.904
302.963
302.996
303.019
303.034
303.046
303.055
303.064
303.07
303.076
303.081
303.086
303.089
303.093
303.096
303.098
303.101
303.103
303.105
303.107
299.899
299.758
299.579
299.281
298.961
299.854
300.572
301.172
301.675
302.062
302.306
302.394
302.282
302.14
302.017
301.926
301.882
301.867
301.876
301.905
301.946
302
302.072
302.169
302.293
302.432
302.566
302.684
302.776
302.837
302.872
302.897
302.918
302.951
302.974
302.989
303
303.009
303.017
303.024
303.031
303.037
303.042
303.047
303.051
303.055
303.059
303.063
303.067
303.07
301.428
301.422
301.599
301.898
302.216
302.442
302.602
302.72
302.812
302.878
302.914
302.911
302.863
302.766
302.636
302.486
302.35
302.26
302.226
302.247
302.313
302.41
302.512
302.593
302.647
302.685
302.718
302.751
302.806
302.833
302.846
302.851
302.855
302.862
302.874
302.899
302.909
302.915
302.92
302.925
302.929
302.933
302.936
302.94
302.943
302.947
302.95
302.953
302.957
302.96
303.147
303.143
303.139
303.135
303.131
303.127
303.123
303.12
303.116
303.112
303.109
303.105
303.102
303.098
303.095
303.092
303.088
303.085
303.082
303.079
303.075
303.072
303.069
303.066
303.063
303.06
303.057
303.054
303.051
303.048
303.045
303.043
303.04
303.037
303.034
303.032
303.029
303.026
303.024
303.021
303.018
303.016
303.013
303.011
303.009
303.007
303.004
303.003
303.001
303
303.15
303.15
303.15
303.15
303.15
303.149
303.149
303.149
303.149
303.149
303.148
303.148
303.148
303.147
303.147
303.147
303.146
303.146
303.146
303.145
303.145
303.144
303.144
303.143
303.143
303.142
303.142
303.141
303.141
303.141
303.14
303.14
303.139
303.139
303.138
303.138
303.137
303.137
303.136
303.136
303.135
303.135
303.135
303.134
303.134
303.134
303.133
303.133
303.133
303.132
303.15
303.15
303.15
303.15
303.15
303.15
303.15
303.15
303.15
303.15
303.15
303.15
303.15
303.15
303.15
303.15
303.15
303.15
303.15
303.15
303.15
303.15
303.15
303.15
303.15
303.15
303.15
303.15
303.15
303.149
303.149
303.149
303.149
303.149
303.149
303.149
303.149
303.149
303.149
303.149
303.149
303.149
303.149
303.149
303.149
303.149
303.149
303.149
303.149
303.149
303.15
303.15
303.15
303.15
303.15
303.15
303.15
303.15
303.15
303.15
303.15
303.15
303.15
303.15
303.15
303.15
303.15
303.15
303.15
303.15
303.15
303.15
303.15
303.15
303.15
303.15
303.15
303.15
303.15
303.15
303.15
303.15
303.15
303.15
303.15
303.15
303.15
303.15
303.15
303.15
303.15
303.15
303.15
303.15
303.15
303.15
303.15
303.15
303.15
303.15
303.15
303.15
303.15
303.15
303.15
303.15
303.15
303.15
303.15
303.15
303.15
303.15
303.15
303.15
303.15
303.15
303.15
303.15
303.15
303.15
303.15
303.15
303.15
303.15
303.15
303.15
303.15
303.15
303.15
303.15
303.15
303.15
303.15
303.15
303.15
303.15
303.15
303.15
303.15
303.15
303.15
303.15
303.15
303.15
303.15
303.15
303.15
303.15
303.15
303.15
303.15
303.15
303.15
303.15
303.15
303.15
303.15
303.15
303.15
303.15
303.15
303.15
303.15
303.15
303.15
303.15
303.15
303.15
303.15
303.15
303.15
303.15
303.15
303.15
303.15
303.15
303.15
303.15
303.15
303.15
303.15
303.15
303.15
303.15
303.15
303.15
303.15
303.15
303.15
303.15
303.15
303.15
303.15
303.15
303.15
303.15
303.15
303.15
303.15
303.15
303.15
303.15
303.15
303.15
303.15
303.15
303.15
303.15
303.15
303.15
303.15
303.15
303.15
303.15
303.15
303.15
303.15
303.15
303.15
303.15
303.15
303.15
303.15
303.15
303.15
303.15
303.15
303.15
303.15
303.15
303.15
303.15
303.15
303.15
303.15
303.15
303.15
303.15
303.15
303.15
303.15
303.15
303.15
303.15
303.15
303.15
303.15
303.15
303.15
303.15
303.15
303.15
303.15
303.15
303.15
303.15
303.15
303.15
303.15
303.15
303.15
303.15
303.15
303.15
303.15
303.15
303.15
303.15
303.15
303.15
303.15
303.15
303.15
303.15
303.15
303.15
303.15
303.15
303.15
303.15
303.15
303.15
303.15
303.15
303.15
303.15
303.15
303.15
303.15
303.15
303.15
303.15
303.15
303.15
303.15
303.15
303.15
303.15
303.15
303.15
303.15
303.15
303.15
303.15
303.15
303.15
303.15
303.15
303.15
303.15
303.15
303.15
303.15
303.15
303.15
303.15
303.15
303.15
303.15
303.15
303.15
303.15
303.15
303.15
303.15
303.15
303.15
303.15
303.15
303.15
303.15
303.15
303.15
303.15
303.15
303.15
303.15
303.15
303.15
303.15
303.15
303.15
303.15
303.15
303.15
303.15
303.15
303.15
303.15
303.15
303.15
303.15
303.15
303.15
303.15
303.15
303.15
303.15
303.15
303.15
303.15
303.15
303.15
303.15
303.15
303.15
303.15
303.15
303.15
303.15
303.15
303.15
303.15
303.15
303.15
303.15
303.15
303.15
303.15
303.15
303.15
303.15
303.15
303.15
303.15
303.15
303.15
303.15
303.15
303.15
303.15
303.15
303.15
303.15
303.15
303.15
303.15
303.15
303.15
303.15
303.15
303.15
303.15
303.15
303.15
303.15
303.15
303.15
303.15
303.15
303.15
303.15
303.15
303.15
303.15
303.15
303.15
303.15
303.15
303.15
303.15
303.15
303.15
303.15
303.15
303.15
303.15
303.15
303.15
303.15
303.15
303.15
303.15
303.15
303.15
303.15
303.15
303.15
303.15
303.15
303.15
303.15
303.15
303.15
303.15
303.15
303.15
303.15
303.15
303.15
303.15
303.15
303.15
303.15
303.15
303.15
303.15
303.15
303.15
303.15
303.15
303.15
303.15
303.15
303.15
303.15
303.15
303.15
303.15
303.15
303.15
303.15
303.15
303.15
303.15
303.15
303.15
303.15
303.15
303.15
303.15
303.15
303.15
303.15
303.15
303.15
303.15
303.15
303.15
303.15
303.15
303.15
303.15
303.15
303.15
303.15
303.15
303.15
303.15
303.15
303.15
303.15
303.15
303.15
303.15
303.15
303.15
303.15
303.15
303.15
303.15
303.15
303.15
303.15
303.15
303.15
303.15
303.15
303.15
303.15
303.15
303.15
303.15
303.15
303.15
303.15
303.15
303.15
303.15
303.15
303.15
303.15
303.15
303.15
303.15
303.15
303.15
303.15
303.15
303.15
303.15
303.15
303.15
303.15
303.15
303.15
303.15
303.15
303.15
303.15
303.15
303.15
303.15
303.15
303.15
303.15
303.15
303.15
303.15
303.15
303.15
303.15
303.15
303.15
303.15
303.15
303.15
303.15
303.15
303.15
303.15
303.15
303.15
303.15
303.15
303.15
303.15
303.15
303.15
303.15
303.15
303.15
303.15
303.15
303.15
303.15
303.15
303.15
303.15
303.15
303.15
303.15
303.15
303.15
303.15
303.15
303.15
303.15
303.15
303.15
303.15
303.15
303.15
303.15
303.15
303.15
303.15
303.15
303.15
303.15
303.15
303.15
303.15
303.15
303.15
303.15
303.15
303.15
303.15
303.15
303.15
303.15
303.15
303.15
303.15
303.15
303.15
303.15
303.15
303.15
303.15
303.15
303.15
303.15
303.15
303.15
303.15
303.15
303.15
303.15
303.15
303.15
303.15
303.15
303.15
303.15
303.15
303.15
303.15
303.15
303.15
303.15
303.15
303.15
303.15
303.15
303.15
303.15
303.15
303.15
303.15
303.15
303.15
303.15
303.15
303.15
303.15
303.15
303.15
303.15
303.15
303.15
303.15
303.15
303.15
303.15
303.15
303.15
303.15
303.15
303.15
303.15
303.15
303.15
303.15
303.15
303.15
303.15
303.15
303.15
303.15
303.15
303.15
303.15
303.15
303.15
303.15
303.15
303.15
303.15
303.15
303.15
303.15
303.15
303.15
303.15
303.15
303.15
303.15
303.15
303.15
303.15
303.15
303.15
303.15
303.15
303.15
303.15
303.15
303.15
303.15
303.15
303.15
303.15
303.15
303.15
303.15
303.15
303.15
303.15
303.15
303.15
303.15
303.15
303.15
303.15
303.15
303.15
303.15
303.15
303.15
303.15
303.15
303.15
303.15
303.15
303.15
303.15
303.15
303.15
303.15
303.15
303.15
303.15
303.15
303.15
303.15
303.15
303.15
303.15
303.15
303.15
303.15
303.15
303.15
303.15
303.15
303.15
303.15
303.15
303.15
303.15
303.15
303.15
303.15
303.15
303.15
303.15
303.149
303.149
303.149
303.149
303.149
303.149
303.149
303.149
303.149
303.149
303.149
303.149
303.149
303.149
303.148
303.148
303.148
303.148
303.148
303.147
303.147
303.147
303.15
303.15
303.15
303.15
303.15
303.149
303.149
303.149
303.149
303.149
303.148
303.148
303.148
303.147
303.147
303.147
303.146
303.146
303.145
303.145
303.145
303.144
303.144
303.143
303.143
303.142
303.142
303.141
303.141
303.14
303.14
303.139
303.139
303.138
303.137
303.137
303.136
303.136
303.135
303.134
303.134
303.133
303.132
303.131
303.13
303.129
303.128
303.127
303.126
303.124
303.147
303.143
303.139
303.135
303.131
303.127
303.123
303.12
303.116
303.112
303.109
303.105
303.102
303.098
303.095
303.092
303.088
303.085
303.082
303.079
303.075
303.072
303.069
303.066
303.063
303.06
303.057
303.054
303.051
303.048
303.045
303.043
303.04
303.037
303.034
303.031
303.029
303.026
303.023
303.021
303.018
303.015
303.013
303.01
303.008
303.005
303.002
303
302.997
302.995
303.023
303.134
303.124
303.035
302.833
302.475
301.981
301.464
301.094
300.952
300.939
300.938
300.896
300.881
300.942
300.941
300.804
300.604
300.45
300.361
303.024
303.134
303.124
303.035
302.832
302.472
301.976
301.458
301.089
300.952
300.941
300.942
300.901
300.878
300.927
300.924
300.793
300.598
300.446
300.36
303.024
303.134
303.124
303.035
302.831
302.469
301.97
301.451
301.084
300.951
300.943
300.945
300.907
300.878
300.916
300.91
300.784
300.593
300.444
300.358
303.025
303.135
303.124
303.034
302.829
302.465
301.964
301.444
301.079
300.951
300.945
300.948
300.913
300.879
300.906
300.897
300.774
300.588
300.441
300.356
303.025
303.135
303.124
303.034
302.828
302.461
301.957
301.436
301.074
300.95
300.948
300.952
300.918
300.88
300.898
300.883
300.763
300.581
300.437
300.355
303.026
303.135
303.124
303.033
302.826
302.457
301.951
301.429
301.068
300.949
300.95
300.955
300.924
300.882
300.889
300.869
300.751
300.574
300.434
300.353
303.027
303.136
303.124
303.033
302.824
302.453
301.944
301.421
301.063
300.948
300.952
300.958
300.93
300.885
300.882
300.856
300.738
300.566
300.43
300.352
303.027
303.136
303.124
303.032
302.821
302.448
301.937
301.413
301.057
300.947
300.954
300.961
300.936
300.888
300.876
300.842
300.725
300.557
300.426
300.35
303.028
303.136
303.124
303.031
302.819
302.443
301.93
301.404
301.051
300.945
300.956
300.964
300.941
300.892
300.87
300.829
300.712
300.548
300.422
300.348
303.029
303.137
303.123
303.03
302.816
302.438
301.922
301.395
301.044
300.944
300.959
300.968
300.946
300.896
300.865
300.816
300.698
300.539
300.418
300.347
303.029
303.137
303.123
303.029
302.814
302.433
301.914
301.386
301.038
300.942
300.961
300.971
300.952
300.901
300.861
300.803
300.684
300.53
300.414
300.345
303.03
303.137
303.123
303.028
302.811
302.428
301.906
301.377
301.031
300.941
300.963
300.974
300.957
300.905
300.857
300.791
300.67
300.52
300.409
300.344
303.031
303.138
303.123
303.027
302.808
302.422
301.897
301.367
301.023
300.939
300.965
300.977
300.962
300.909
300.853
300.779
300.657
300.51
300.405
300.342
303.032
303.138
303.122
303.025
302.805
302.416
301.888
301.357
301.016
300.938
300.968
300.98
300.966
300.914
300.85
300.767
300.643
300.5
300.401
300.341
303.032
303.138
303.122
303.024
302.801
302.41
301.879
301.347
301.008
300.936
300.971
300.983
300.97
300.918
300.847
300.756
300.629
300.491
300.397
300.34
303.033
303.139
303.122
303.023
302.798
302.403
301.869
301.336
301.001
300.935
300.973
300.986
300.975
300.922
300.844
300.745
300.616
300.481
300.393
300.339
303.034
303.139
303.121
303.021
302.794
302.396
301.859
301.325
300.993
300.933
300.976
300.988
300.978
300.925
300.841
300.734
300.603
300.472
300.389
300.338
303.035
303.139
303.121
303.019
302.79
302.389
301.849
301.313
300.985
300.932
300.979
300.991
300.981
300.928
300.837
300.723
300.59
300.463
300.385
300.337
303.035
303.14
303.121
303.018
302.786
302.382
301.838
301.302
300.976
300.931
300.983
300.993
300.984
300.93
300.833
300.712
300.577
300.454
300.382
300.336
303.036
303.14
303.12
303.016
302.782
302.374
301.827
301.29
300.968
300.93
300.986
300.995
300.986
300.931
300.828
300.701
300.565
300.446
300.379
300.335
303.037
303.14
303.12
303.014
302.777
302.365
301.815
301.278
300.96
300.929
300.99
300.997
300.988
300.931
300.822
300.689
300.553
300.438
300.376
300.335
303.038
303.141
303.119
303.012
302.772
302.357
301.803
301.265
300.952
300.929
300.994
300.998
300.989
300.93
300.815
300.678
300.542
300.43
300.373
300.334
303.039
303.141
303.118
303.01
302.767
302.348
301.791
301.253
300.944
300.929
300.998
300.999
300.989
300.927
300.807
300.666
300.531
300.423
300.371
300.334
303.039
303.141
303.118
303.007
302.762
302.339
301.779
301.24
300.936
300.929
301.002
300.999
300.988
300.923
300.798
300.654
300.52
300.417
300.369
300.333
303.04
303.142
303.117
303.005
302.756
302.329
301.766
301.227
300.929
300.929
301.006
300.998
300.986
300.917
300.787
300.641
300.509
300.411
300.367
300.333
303.041
303.142
303.116
303.002
302.75
302.319
301.752
301.215
300.921
300.93
301.01
300.996
300.982
300.91
300.776
300.629
300.5
300.405
300.365
300.332
303.042
303.142
303.115
302.999
302.744
302.308
301.739
301.202
300.914
300.931
301.015
300.992
300.978
300.901
300.763
300.617
300.49
300.401
300.364
300.332
303.043
303.142
303.115
302.996
302.737
302.298
301.725
301.189
300.908
300.932
301.019
300.987
300.972
300.89
300.749
300.605
300.482
300.396
300.363
300.331
303.044
303.142
303.114
302.993
302.731
302.287
301.711
301.176
300.901
300.934
301.023
300.979
300.965
300.877
300.735
300.593
300.474
300.392
300.362
300.33
303.044
303.142
303.113
302.99
302.724
302.275
301.697
301.164
300.895
300.936
301.026
300.971
300.956
300.864
300.721
300.582
300.467
300.389
300.361
300.33
303.045
303.143
303.111
302.986
302.716
302.264
301.683
301.152
300.89
300.937
301.029
300.961
300.947
300.849
300.706
300.571
300.461
300.386
300.36
300.329
303.046
303.143
303.11
302.983
302.709
302.252
301.669
301.14
300.885
300.939
301.031
300.95
300.936
300.833
300.693
300.562
300.456
300.384
300.36
300.328
303.047
303.143
303.109
302.979
302.701
302.24
301.655
301.129
300.881
300.941
301.032
300.94
300.924
300.818
300.68
300.554
300.452
300.383
300.359
300.327
303.048
303.143
303.108
302.975
302.693
302.228
301.642
301.119
300.878
300.943
301.034
300.93
300.912
300.803
300.669
300.548
300.449
300.382
300.359
300.325
303.048
303.142
303.106
302.971
302.685
302.216
301.628
301.109
300.875
300.945
301.034
300.922
300.899
300.788
300.659
300.543
300.447
300.381
300.359
300.324
303.049
303.142
303.105
302.967
302.677
302.203
301.615
301.099
300.872
300.946
301.034
300.917
300.885
300.775
300.651
300.539
300.446
300.381
300.358
300.323
303.05
303.142
303.103
302.962
302.668
302.191
301.602
301.091
300.87
300.948
301.034
300.913
300.869
300.763
300.644
300.537
300.446
300.381
300.358
300.321
303.051
303.142
303.101
302.958
302.66
302.179
301.589
301.083
300.869
300.948
301.034
300.913
300.853
300.753
300.641
300.536
300.447
300.382
300.358
300.32
303.051
303.142
303.1
302.953
302.651
302.166
301.577
301.075
300.867
300.949
301.034
300.913
300.837
300.746
300.639
300.537
300.448
300.383
300.358
300.318
303.052
303.141
303.098
302.949
302.642
302.155
301.566
301.068
300.865
300.95
301.035
300.914
300.824
300.741
300.64
300.54
300.451
300.385
300.359
300.316
303.053
303.141
303.096
302.944
302.633
302.143
301.554
301.061
300.863
300.95
301.036
300.917
300.815
300.739
300.642
300.544
300.455
300.387
300.359
300.314
303.054
303.141
303.094
302.939
302.625
302.131
301.543
301.053
300.861
300.95
301.037
300.92
300.808
300.739
300.647
300.549
300.459
300.389
300.359
300.312
303.054
303.141
303.092
302.934
302.616
302.119
301.531
301.046
300.858
300.95
301.039
300.924
300.805
300.741
300.653
300.556
300.465
300.392
300.36
300.311
303.055
303.14
303.09
302.929
302.607
302.108
301.52
301.039
300.855
300.95
301.04
300.928
300.805
300.746
300.661
300.563
300.47
300.395
300.361
300.309
303.056
303.14
303.088
302.925
302.598
302.096
301.509
301.032
300.853
300.95
301.042
300.933
300.808
300.752
300.67
300.572
300.477
300.398
300.361
300.307
303.057
303.139
303.086
302.92
302.589
302.084
301.498
301.025
300.85
300.949
301.044
300.939
300.813
300.76
300.68
300.58
300.483
300.402
300.362
300.304
303.057
303.139
303.084
302.914
302.58
302.073
301.487
301.018
300.847
300.949
301.046
300.946
300.82
300.769
300.69
300.59
300.491
300.406
300.364
300.302
303.058
303.139
303.082
302.909
302.572
302.061
301.477
301.011
300.843
300.948
301.049
300.953
300.828
300.779
300.701
300.6
300.498
300.41
300.365
300.3
303.059
303.138
303.08
302.904
302.563
302.05
301.466
301.003
300.84
300.947
301.051
300.961
300.838
300.791
300.713
300.61
300.507
300.415
300.366
300.297
303.059
303.138
303.078
302.899
302.554
302.039
301.456
300.997
300.836
300.945
301.054
300.97
300.85
300.802
300.724
300.621
300.515
300.421
300.368
300.294
303.06
303.137
303.075
302.893
302.544
302.027
301.445
300.99
300.832
300.944
301.058
300.98
300.863
300.815
300.737
300.632
300.525
300.427
300.369
300.291
303.061
303.137
303.073
302.888
302.535
302.016
301.435
300.983
300.828
300.941
301.061
300.992
300.877
300.829
300.75
300.645
300.535
300.433
300.37
300.287
303.061
303.136
303.071
302.882
302.526
302.005
301.425
300.976
300.823
300.939
301.064
301.004
300.893
300.844
300.764
300.658
300.547
300.441
300.371
300.283
303.062
303.135
303.068
302.877
302.516
301.993
301.415
300.969
300.818
300.935
301.068
301.018
300.91
300.86
300.78
300.674
300.559
300.449
300.372
300.279
303.062
303.135
303.066
302.871
302.507
301.982
301.405
300.962
300.813
300.932
301.071
301.032
300.929
300.879
300.797
300.69
300.573
300.458
300.373
300.275
303.063
303.134
303.063
302.865
302.497
301.97
301.394
300.955
300.807
300.927
301.074
301.047
300.95
300.899
300.817
300.709
300.588
300.468
300.374
300.27
303.063
303.133
303.06
302.858
302.487
301.958
301.384
300.948
300.801
300.922
301.076
301.062
300.972
300.92
300.838
300.729
300.605
300.478
300.375
300.265
303.064
303.132
303.057
302.851
302.476
301.945
301.373
300.941
300.795
300.916
301.078
301.077
300.995
300.943
300.861
300.751
300.623
300.49
300.377
300.261
303.064
303.131
303.053
302.844
302.465
301.932
301.362
300.933
300.788
300.909
301.079
301.092
301.018
300.967
300.886
300.775
300.643
300.502
300.379
300.256
303.065
303.13
303.05
302.837
302.453
301.919
301.351
300.926
300.782
300.902
301.078
301.106
301.041
300.992
300.911
300.8
300.664
300.516
300.382
300.252
303.065
303.129
303.046
302.829
302.441
301.905
301.339
300.918
300.775
300.894
301.076
301.119
301.064
301.016
300.938
300.827
300.686
300.53
300.385
300.247
303.065
303.128
303.042
302.82
302.427
301.89
301.327
300.91
300.768
300.885
301.073
301.13
301.085
301.04
300.964
300.854
300.71
300.546
300.389
300.244
303.066
303.126
303.037
302.811
302.413
301.874
301.314
300.901
300.761
300.877
301.068
301.139
301.105
301.064
300.991
300.881
300.735
300.563
300.394
300.24
303.066
303.125
303.033
302.801
302.398
301.857
301.3
300.893
300.754
300.868
301.062
301.146
301.123
301.085
301.017
300.91
300.761
300.581
300.399
300.237
303.066
303.123
303.027
302.79
302.382
301.839
301.285
300.884
300.748
300.859
301.055
301.151
301.138
301.105
301.042
300.937
300.787
300.6
300.405
300.234
303.067
303.121
303.021
302.778
302.364
301.82
301.27
300.875
300.741
300.85
301.046
301.153
301.15
301.123
301.065
300.965
300.814
300.62
300.412
300.232
303.067
303.119
303.015
302.765
302.345
301.799
301.253
300.865
300.735
300.841
301.037
301.153
301.159
301.138
301.087
300.992
300.841
300.64
300.42
300.231
303.067
303.117
303.008
302.752
302.325
301.777
301.236
300.856
300.73
300.833
301.027
301.15
301.165
301.15
301.107
301.017
300.867
300.661
300.428
300.229
303.067
303.114
303.001
302.737
302.304
301.754
301.218
300.845
300.724
300.825
301.017
301.145
301.168
301.16
301.124
301.041
300.894
300.682
300.437
300.229
303.068
303.111
302.992
302.721
302.28
301.729
301.198
300.835
300.719
300.818
301.006
301.139
301.169
301.166
301.139
301.063
300.919
300.703
300.446
300.228
303.068
303.108
302.983
302.703
302.256
301.703
301.178
300.825
300.715
300.812
300.995
301.13
301.166
301.17
301.151
301.083
300.943
300.724
300.455
300.228
303.068
303.105
302.974
302.684
302.229
301.675
301.157
300.814
300.711
300.807
300.985
301.12
301.161
301.171
301.16
301.101
300.966
300.744
300.465
300.228
303.068
303.101
302.963
302.664
302.201
301.646
301.135
300.803
300.707
300.802
300.975
301.109
301.154
301.169
301.167
301.116
300.987
300.764
300.474
300.229
303.068
303.097
302.951
302.642
302.171
301.615
301.113
300.792
300.704
300.799
300.966
301.098
301.145
301.165
301.17
301.129
301.006
300.783
300.483
300.23
303.068
303.092
302.938
302.619
302.14
301.584
301.09
300.782
300.701
300.796
300.957
301.085
301.134
301.159
301.171
301.139
301.023
300.8
300.492
300.231
303.068
303.087
302.925
302.594
302.106
301.551
301.066
300.771
300.699
300.794
300.949
301.073
301.123
301.151
301.17
301.146
301.037
300.816
300.5
300.232
303.067
303.081
302.91
302.567
302.072
301.517
301.043
300.761
300.697
300.792
300.942
301.061
301.11
301.141
301.167
301.15
301.049
300.83
300.507
300.233
303.067
303.075
302.894
302.539
302.035
301.482
301.019
300.751
300.696
300.791
300.935
301.049
301.097
301.131
301.161
301.152
301.058
300.842
300.514
300.234
303.067
303.069
302.877
302.509
301.998
301.447
300.995
300.741
300.695
300.79
300.929
301.037
301.085
301.119
301.154
301.151
301.064
300.852
300.52
300.235
303.066
303.061
302.858
302.478
301.959
301.411
300.972
300.732
300.694
300.79
300.923
301.026
301.072
301.107
301.145
301.148
301.067
300.859
300.525
300.235
303.065
303.053
302.839
302.446
301.92
301.376
300.949
300.723
300.694
300.789
300.918
301.016
301.06
301.095
301.134
301.142
301.067
300.864
300.529
300.236
303.064
303.045
302.818
302.412
301.88
301.34
300.927
300.715
300.693
300.789
300.913
301.006
301.048
301.083
301.123
301.134
301.064
300.866
300.531
300.237
303.063
303.036
302.797
302.378
301.839
301.305
300.905
300.707
300.693
300.788
300.907
300.996
301.037
301.071
301.111
301.124
301.058
300.865
300.532
300.237
303.061
303.027
302.775
302.343
301.799
301.271
300.885
300.699
300.692
300.786
300.902
300.987
301.026
301.058
301.097
301.111
301.049
300.861
300.532
300.238
303.06
303.017
302.752
302.308
301.76
301.238
300.865
300.692
300.691
300.784
300.896
300.977
301.016
301.046
301.083
301.097
301.037
300.854
300.53
300.238
303.058
303.007
302.73
302.274
301.722
301.207
300.847
300.686
300.689
300.781
300.889
300.967
301.005
301.034
301.068
301.08
301.022
300.844
300.527
300.238
303.056
302.997
302.707
302.24
301.685
301.177
300.83
300.679
300.686
300.777
300.881
300.957
300.994
301.021
301.052
301.061
301.004
300.831
300.523
300.237
303.054
302.987
302.686
302.209
301.651
301.15
300.814
300.673
300.683
300.77
300.871
300.945
300.983
301.007
301.034
301.04
300.983
300.815
300.517
300.237
303.052
302.978
302.666
302.179
301.62
301.126
300.8
300.666
300.678
300.763
300.859
300.932
300.969
300.991
301.015
301.017
300.959
300.795
300.509
300.236
303.051
302.969
302.648
302.154
301.593
301.105
300.788
300.659
300.671
300.752
300.845
300.916
300.954
300.974
300.993
300.991
300.932
300.773
300.5
300.235
303.049
302.962
302.634