/*--------------------------------*- C++ -*----------------------------------*\
  =========                 |
  \\      /  F ield         | OpenFOAM: The Open Source CFD Toolbox
   \\    /   O peration     | Website:  https://openfoam.org
    \\  /    A nd           | Version:  8
     \\/     M anipulation  |
\*---------------------------------------------------------------------------*/
FoamFile
{
    version     2.0;
    format      ascii;
    class       volVectorField;
    location    "1000";
    object      U;
}
// * * * * * * * * * * * * * * * * * * * * * * * * * * * * * * * * * * * * * //

dimensions      [0 1 -1 0 0 0 0];

internalField   nonuniform List<vector> 
8400
(
(-90.392 -1.37605 2.11311e-15)
(-86.9294 -1.32033 2.08853e-15)
(-84.552 -1.25548 2.06408e-15)
(-82.1527 -1.19717 2.03798e-15)
(-79.8 -1.14643 2.00851e-15)
(-77.4517 -1.10538 1.97382e-15)
(-75.0648 -1.07887 1.93169e-15)
(-72.5898 -1.07465 1.87998e-15)
(-69.9791 -1.10368 1.81702e-15)
(-67.2021 -1.17711 1.74038e-15)
(-64.2585 -1.30191 1.6534e-15)
(-61.1872 -1.47577 1.55911e-15)
(-58.0553 -1.68116 1.45831e-15)
(-54.9196 -1.88551 1.35781e-15)
(-51.7841 -2.05245 1.26369e-15)
(-48.6008 -2.15839 1.18067e-15)
(-45.3227 -2.20165 1.11517e-15)
(-41.9497 -2.19588 1.07054e-15)
(-38.5292 -2.15523 1.04512e-15)
(-35.1127 -2.07762 1.0559e-15)
(-31.726 -1.96289 1.10337e-15)
(-28.3522 -1.80907 1.17606e-15)
(-24.9312 -1.63955 1.29402e-15)
(-21.4355 -1.50502 1.39957e-15)
(-17.9479 -1.45328 1.51576e-15)
(-14.6187 -1.48764 1.68415e-15)
(-11.548 -1.59125 1.86571e-15)
(-8.76334 -1.76778 1.87213e-15)
(-6.30655 -2.04709 1.69197e-15)
(-4.25108 -2.41204 1.60371e-15)
(-2.56031 -2.72846 1.69843e-15)
(-0.103022 -2.67995 2.03894e-15)
(2.15393 -2.34332 2.24692e-15)
(4.49397 -1.95475 2.41229e-15)
(6.66406 -1.66776 2.54163e-15)
(8.75571 -1.473 2.6414e-15)
(10.7792 -1.35004 2.71699e-15)
(12.7159 -1.28115 2.76944e-15)
(14.5504 -1.24693 2.80246e-15)
(16.2892 -1.22846 2.82281e-15)
(17.9587 -1.21165 2.83243e-15)
(19.5918 -1.18882 2.83201e-15)
(21.2152 -1.15838 2.83292e-15)
(22.8419 -1.12258 2.84301e-15)
(24.469 -1.08498 2.85311e-15)
(26.0818 -1.04797 2.87248e-15)
(27.6608 -1.01115 2.90129e-15)
(29.1873 -0.970716 2.93782e-15)
(30.6415 -0.918478 2.99065e-15)
(32.0144 -0.839424 3.06019e-15)
(-89.1915 -3.74872 6.82497e-16)
(-86.0654 -3.65606 5.92753e-16)
(-83.8354 -3.53746 5.01506e-16)
(-81.5467 -3.42718 4.07401e-16)
(-79.2587 -3.32323 3.12515e-16)
(-76.9386 -3.22701 2.17256e-16)
(-74.5572 -3.14676 1.18714e-16)
(-72.0812 -3.09901 1.72853e-17)
(-69.4786 -3.10912 -8.79034e-17)
(-66.7271 -3.20585 -1.98382e-16)
(-63.8248 -3.41234 -3.12969e-16)
(-60.7959 -3.73435 -4.31108e-16)
(-57.6849 -4.14704 -5.53649e-16)
(-54.5341 -4.5914 -6.77637e-16)
(-51.3557 -4.99261 -7.99932e-16)
(-48.1312 -5.29171 -9.17933e-16)
(-44.8428 -5.46565 -1.02556e-15)
(-41.4994 -5.52252 -1.11813e-15)
(-38.1287 -5.48405 -1.19447e-15)
(-34.7644 -5.35602 -1.25793e-15)
(-31.4318 -5.13914 -1.30655e-15)
(-28.1346 -4.83177 -1.30553e-15)
(-24.8577 -4.46021 -1.2618e-15)
(-21.5894 -4.09488 -1.17271e-15)
(-18.3582 -3.81966 -1.11469e-15)
(-15.2407 -3.66764 -1.04625e-15)
(-12.323 -3.62487 -8.26367e-16)
(-9.66054 -3.67778 -5.69346e-16)
(-7.2687 -3.8392 -4.76827e-16)
(-5.15303 -4.09934 -3.90342e-16)
(-3.33439 -4.34532 -1.96376e-16)
(-1.64565 -4.3607 1.01546e-16)
(0.236724 -4.07257 3.7541e-16)
(2.12331 -3.69561 6.35721e-16)
(4.0707 -3.32037 8.16102e-16)
(5.94512 -3.02718 9.26133e-16)
(7.71475 -2.8261 1.00243e-15)
(9.36219 -2.70202 1.03751e-15)
(10.8805 -2.62699 1.03586e-15)
(12.2806 -2.56988 1.00491e-15)
(13.5898 -2.50787 9.52053e-16)
(14.841 -2.43177 8.79418e-16)
(16.0614 -2.34501 7.87306e-16)
(17.2662 -2.25834 6.9474e-16)
(18.4568 -2.18283 6.01368e-16)
(19.6254 -2.12405 5.05872e-16)
(20.7616 -2.07887 4.15461e-16)
(21.8589 -2.03558 3.36652e-16)
(22.9133 -1.97298 2.72886e-16)
(23.946 -1.85742 2.30624e-16)
(-85.3153 -6.0861 2.05093e-16)
(-82.7864 -5.98752 1.03395e-16)
(-80.9401 -5.8894 -4.44058e-18)
(-79.0065 -5.82425 -1.19364e-16)
(-77.0238 -5.7819 -2.38529e-16)
(-74.9624 -5.75951 -3.60997e-16)
(-72.8008 -5.76111 -4.88896e-16)
(-70.5171 -5.79986 -6.20456e-16)
(-68.0918 -5.89689 -7.54982e-16)
(-65.5116 -6.07609 -8.9277e-16)
(-62.7761 -6.35628 -1.03168e-15)
(-59.9007 -6.74111 -1.1709e-15)
(-56.9117 -7.21002 -1.31223e-15)
(-53.8353 -7.71569 -1.4545e-15)
(-50.6855 -8.19447 -1.59707e-15)
(-47.4637 -8.58776 -1.73878e-15)
(-44.1771 -8.85667 -1.87791e-15)
(-40.8525 -8.9857 -2.01192e-15)
(-37.522 -8.97385 -2.13719e-15)
(-34.21 -8.82971 -2.24822e-15)
(-30.9377 -8.56531 -2.36033e-15)
(-27.7164 -8.1995 -2.44756e-15)
(-24.553 -7.76304 -2.47969e-15)
(-21.46 -7.30611 -2.43589e-15)
(-18.4577 -6.89063 -2.37195e-15)
(-15.5764 -6.56567 -2.36793e-15)
(-12.8601 -6.35013 -2.2323e-15)
(-10.3541 -6.23714 -1.93975e-15)
(-8.08953 -6.20653 -1.69182e-15)
(-6.07964 -6.22632 -1.45796e-15)
(-4.32581 -6.24 -1.15466e-15)
(-2.78827 -6.16407 -7.7806e-16)
(-1.29099 -5.9309 -4.19381e-16)
(0.296474 -5.56089 -2.27047e-18)
(1.88323 -5.17249 3.31343e-16)
(3.46967 -4.81835 5.12997e-16)
(4.98596 -4.53293 6.26674e-16)
(6.40526 -4.31283 6.46577e-16)
(7.72024 -4.13668 5.92236e-16)
(8.93527 -3.97908 4.79832e-16)
(10.0658 -3.82124 3.18347e-16)
(11.1314 -3.65819 1.08132e-16)
(12.1481 -3.49705 -1.44045e-16)
(13.1243 -3.35089 -4.28781e-16)
(14.0615 -3.23079 -7.27241e-16)
(14.9559 -3.13967 -1.03522e-15)
(15.8032 -3.07061 -1.34643e-15)
(16.6036 -3.00822 -1.64784e-15)
(17.361 -2.92973 -1.92659e-15)
(18.0965 -2.80417 -2.1643e-15)
(-78.5328 -7.61799 2.21387e-17)
(-76.7938 -7.51676 -7.1592e-17)
(-75.4746 -7.45259 -1.73941e-16)
(-74.05 -7.45548 -2.85782e-16)
(-72.5425 -7.5118 -4.06362e-16)
(-70.9253 -7.61729 -5.35463e-16)
(-69.1791 -7.77257 -6.74157e-16)
(-67.2849 -7.985 -8.21588e-16)
(-65.2239 -8.26633 -9.76954e-16)
(-62.9812 -8.6273 -1.13987e-15)
(-60.552 -9.07047 -1.30731e-15)
(-57.9469 -9.5835 -1.47724e-15)
(-55.1894 -10.1374 -1.64979e-15)
(-52.3065 -10.6911 -1.82295e-15)
(-49.3174 -11.1981 -1.99575e-15)
(-46.2318 -11.616 -2.16805e-15)
(-43.0644 -11.9127 -2.34024e-15)
(-39.8442 -12.0682 -2.51384e-15)
(-36.6056 -12.0669 -2.69269e-15)
(-33.3847 -11.9047 -2.87947e-15)
(-30.2141 -11.5938 -3.08402e-15)
(-27.1163 -11.1636 -3.30058e-15)
(-24.106 -10.6613 -3.48765e-15)
(-21.1965 -10.1369 -3.58161e-15)
(-18.4039 -9.63271 -3.57447e-15)
(-15.7478 -9.18175 -3.61079e-15)
(-13.252 -8.80506 -3.57256e-15)
(-10.9422 -8.5073 -3.32578e-15)
(-8.84173 -8.27428 -3.01688e-15)
(-6.96319 -8.07738 -2.68231e-15)
(-5.29879 -7.88339 -2.27103e-15)
(-3.82624 -7.6622 -1.77253e-15)
(-2.50737 -7.38841 -1.29321e-15)
(-1.24976 -7.0421 -7.80126e-16)
(0.0720453 -6.63411 -2.82058e-16)
(1.33772 -6.24845 4.0296e-18)
(2.58428 -5.88826 1.75819e-16)
(3.7782 -5.56693 1.54554e-16)
(4.90879 -5.28023 -2.76508e-17)
(5.96868 -5.0195 -3.32739e-16)
(6.96188 -4.77465 -7.53689e-16)
(7.89726 -4.54363 -1.29773e-15)
(8.78251 -4.3322 -1.95624e-15)
(9.62149 -4.14862 -2.71257e-15)
(10.4165 -3.99778 -3.5049e-15)
(11.1678 -3.87762 -4.31169e-15)
(11.8756 -3.77843 -5.10491e-15)
(12.5436 -3.68479 -5.87344e-15)
(13.1786 -3.57794 -6.59839e-15)
(13.7939 -3.43524 -7.20579e-15)
(-69.1758 -8.71883 1.15589e-16)
(-68.1688 -8.62449 4.64075e-17)
(-67.3853 -8.59241 -3.17433e-17)
(-66.5096 -8.65812 -1.20244e-16)
(-65.5466 -8.81176 -2.19183e-16)
(-64.4721 -9.04896 -3.2947e-16)
(-63.2668 -9.367 -4.53382e-16)
(-61.9107 -9.76616 -5.91648e-16)
(-60.3791 -10.2496 -7.45051e-16)
(-58.6453 -10.8192 -9.14753e-16)
(-56.6894 -11.4676 -1.09876e-15)
(-54.5089 -12.1705 -1.29545e-15)
(-52.1241 -12.8864 -1.50394e-15)
(-49.568 -13.5658 -1.71966e-15)
(-46.8711 -14.1603 -1.93734e-15)
(-44.0537 -14.6318 -2.15292e-15)
(-41.1354 -14.9575 -2.36124e-15)
(-38.1416 -15.1236 -2.56097e-15)
(-35.1012 -15.1176 -2.76128e-15)
(-32.0555 -14.9305 -2.97383e-15)
(-29.0546 -14.5675 -3.22914e-15)
(-26.1401 -14.059 -3.54008e-15)
(-23.3383 -13.4609 -3.88762e-15)
(-20.6592 -12.8333 -4.18426e-15)
(-18.1096 -12.2194 -4.32031e-15)
(-15.6995 -11.6425 -4.42493e-15)
(-13.4438 -11.1125 -4.48779e-15)
(-11.3591 -10.6335 -4.33698e-15)
(-9.45788 -10.2025 -4.03312e-15)
(-7.74563 -9.80646 -3.63992e-15)
(-6.21549 -9.4276 -3.14724e-15)
(-4.84937 -9.05166 -2.53254e-15)
(-3.62634 -8.67158 -1.89767e-15)
(-2.52501 -8.28261 -1.26002e-15)
(-1.49963 -7.87709 -6.62993e-16)
(-0.460693 -7.44927 -2.42071e-16)
(0.533731 -7.04858 3.58461e-17)
(1.48961 -6.67171 3.02413e-17)
(2.41915 -6.31553 -2.58917e-16)
(3.30218 -5.98966 -7.74518e-16)
(4.13682 -5.69122 -1.53184e-15)
(4.92773 -5.41851 -2.56915e-15)
(5.68039 -5.17371 -3.88443e-15)
(6.39436 -4.96108 -5.42822e-15)
(7.07175 -4.78001 -7.00961e-15)
(7.71584 -4.62609 -8.55559e-15)
(8.32947 -4.49048 -9.97683e-15)
(8.91746 -4.36129 -1.12703e-14)
(9.48684 -4.22545 -1.24116e-14)
(10.0437 -4.06832 -1.30876e-14)
(-57.6841 -9.25456 1.72554e-16)
(-57.2812 -9.16422 1.35338e-16)
(-56.9611 -9.16571 9.1315e-17)
(-56.5864 -9.29876 3.89713e-17)
(-56.1449 -9.55711 -2.20506e-17)
(-55.6142 -9.93432 -9.32474e-17)
(-54.9763 -10.4216 -1.77939e-16)
(-54.2122 -11.0092 -2.78615e-16)
(-53.2947 -11.6902 -3.98439e-16)
(-52.1858 -12.4595 -5.41618e-16)
(-50.845 -13.3071 -7.10279e-16)
(-49.2467 -14.2071 -9.06967e-16)
(-47.3968 -15.1125 -1.13405e-15)
(-45.328 -15.9617 -1.38862e-15)
(-43.0779 -16.6955 -1.66236e-15)
(-40.6769 -17.2709 -1.9425e-15)
(-38.1495 -17.6653 -2.21185e-15)
(-35.5142 -17.8703 -2.45879e-15)
(-32.7912 -17.8788 -2.68062e-15)
(-30.0253 -17.6849 -2.88004e-15)
(-27.2848 -17.2887 -3.1185e-15)
(-24.6342 -16.7144 -3.43659e-15)
(-22.1111 -16.0203 -3.87391e-15)
(-19.7236 -15.2802 -4.37594e-15)
(-17.4689 -14.5486 -4.74086e-15)
(-15.3485 -13.8486 -4.98601e-15)
(-13.3704 -13.1813 -5.16852e-15)
(-11.5445 -12.5437 -5.15109e-15)
(-9.87753 -11.9368 -4.91242e-15)
(-8.37063 -11.3618 -4.50327e-15)
(-7.01736 -10.8156 -3.94882e-15)
(-5.8053 -10.2928 -3.23182e-15)
(-4.71791 -9.78964 -2.45828e-15)
(-3.73739 -9.30371 -1.67556e-15)
(-2.84555 -8.83311 -9.48599e-16)
(-2.02448 -8.37917 -4.16497e-16)
(-1.25394 -7.94419 -8.70905e-18)
(-0.503245 -7.52503 1.49247e-16)
(0.234983 -7.12932 -1.56303e-17)
(0.922132 -6.77687 -4.70388e-16)
(1.57613 -6.45227 -1.27909e-15)
(2.20112 -6.15367 -2.53896e-15)
(2.80518 -5.88023 -4.28457e-15)
(3.38212 -5.63866 -6.42282e-15)
(3.934 -5.42737 -8.54753e-15)
(4.46484 -5.2416 -1.05155e-14)
(4.97793 -5.07506 -1.2156e-14)
(5.47719 -4.92007 -1.3561e-14)
(5.96772 -4.76795 -1.46137e-14)
(6.45315 -4.60625 -1.44854e-14)
(-44.6751 -9.4436 1.35363e-16)
(-44.692 -9.32097 1.21159e-16)
(-44.7195 -9.32512 1.0321e-16)
(-44.748 -9.50398 8.12796e-17)
(-44.7413 -9.85272 5.51843e-17)
(-44.6789 -10.3615 2.35402e-17)
(-44.5461 -11.0122 -1.57822e-17)
(-44.33 -11.784 -6.59406e-17)
(-44.0103 -12.6564 -1.31107e-16)
(-43.5479 -13.6146 -2.16987e-16)
(-42.8864 -14.6462 -3.30865e-16)
(-41.9725 -15.7307 -4.81909e-16)
(-40.7849 -16.8251 -6.80532e-16)
(-39.3449 -17.8602 -9.35131e-16)
(-37.6928 -18.7606 -1.24478e-15)
(-35.8616 -19.4706 -1.59232e-15)
(-33.8739 -19.958 -1.94384e-15)
(-31.7394 -20.2151 -2.27772e-15)
(-29.4668 -20.2479 -2.56959e-15)
(-27.1023 -20.0616 -2.77173e-15)
(-24.7306 -19.6552 -2.9609e-15)
(-22.44 -19.0388 -3.18771e-15)
(-20.2814 -18.2624 -3.5882e-15)
(-18.2606 -17.411 -4.21038e-15)
(-16.3666 -16.5606 -4.83077e-15)
(-14.5955 -15.745 -5.3262e-15)
(-12.9502 -14.9596 -5.7332e-15)
(-11.4343 -14.1922 -5.94535e-15)
(-10.0489 -13.4417 -5.8794e-15)
(-8.79198 -12.7166 -5.5455e-15)
(-7.65838 -12.0251 -4.99685e-15)
(-6.64121 -11.371 -4.21341e-15)
(-5.72963 -10.7536 -3.31999e-15)
(-4.90984 -10.1704 -2.38704e-15)
(-4.16783 -9.6197 -1.46073e-15)
(-3.49072 -9.1016 -6.74435e-16)
(-2.86717 -8.61682 4.93716e-17)
(-2.28789 -8.16514 6.33e-16)
(-1.74563 -7.7465 1.04199e-15)
(-1.23655 -7.3631 1.28208e-15)
(-0.75728 -7.01447 1.21084e-15)
(-0.298281 -6.69549 6.29916e-16)
(0.158625 -6.39945 -6.16262e-16)
(0.586369 -6.14519 -2.50062e-15)
(1.00005 -5.9193 -4.43382e-15)
(1.40263 -5.71895 -6.28685e-15)
(1.79601 -5.54043 -7.80682e-15)
(2.18207 -5.37939 -9.18887e-15)
(2.56455 -5.22833 -1.04499e-14)
(2.94856 -5.06827 -1.05437e-14)
(-30.7707 -9.42444 1.09607e-16)
(-31.05 -9.20021 1.12678e-16)
(-31.3066 -9.14627 1.12663e-16)
(-31.6352 -9.30675 1.09356e-16)
(-31.9533 -9.68101 1.04127e-16)
(-32.2439 -10.2624 9.7752e-17)
(-32.4955 -11.0293 8.92462e-17)
(-32.708 -11.9516 7.74433e-17)
(-32.8774 -12.9949 6.01716e-17)
(-32.9785 -14.1292 3.29505e-17)
(-32.9549 -15.3353 -1.03648e-17)
(-32.7341 -16.5984 -8.09674e-17)
(-32.2634 -17.8863 -1.98158e-16)
(-31.5401 -19.1298 -3.87796e-16)
(-30.5971 -20.235 -6.74053e-16)
(-29.4598 -21.1183 -1.05382e-15)
(-28.1393 -21.7268 -1.46618e-15)
(-26.6371 -22.0478 -1.89411e-15)
(-24.9482 -22.1059 -2.31572e-15)
(-23.1126 -21.931 -2.57483e-15)
(-21.2296 -21.5361 -2.74295e-15)
(-19.4127 -20.9167 -2.81475e-15)
(-17.7217 -20.0961 -3.01401e-15)
(-16.1547 -19.1541 -3.55751e-15)
(-14.6933 -18.191 -4.29787e-15)
(-13.3369 -17.268 -5.00753e-15)
(-12.093 -16.3859 -5.66563e-15)
(-10.9581 -15.5208 -6.20005e-15)
(-9.91943 -14.6624 -6.5116e-15)
(-8.96684 -13.8213 -6.52097e-15)
(-8.09814 -13.0143 -6.27521e-15)
(-7.31539 -12.2528 -5.70639e-15)
(-6.61467 -11.5397 -4.82527e-15)
(-5.98774 -10.8741 -3.68428e-15)
(-5.42519 -10.2541 -2.32339e-15)
(-4.91717 -9.67682 -8.54699e-16)
(-4.45469 -9.14028 6.95122e-16)
(-4.03074 -8.64416 2.21643e-15)
(-3.64042 -8.18827 3.59314e-15)
(-3.27997 -7.77216 4.73757e-15)
(-2.94626 -7.39492 5.5394e-15)
(-2.63525 -7.05466 5.8808e-15)
(-2.34184 -6.74903 5.67914e-15)
(-2.06159 -6.47728 4.73459e-15)
(-1.79149 -6.23785 3.34931e-15)
(-1.5286 -6.02818 1.66782e-15)
(-1.2715 -5.8457 -1.43786e-16)
(-1.01806 -5.68613 -2.02929e-15)
(-0.761792 -5.53839 -3.68102e-15)
(-0.501299 -5.37741 -3.87779e-15)
(-16.4785 -9.4362 -2.47596e-17)
(-16.9908 -9.04212 -1.9289e-17)
(-17.3478 -8.91118 -1.47506e-17)
(-17.8621 -8.98092 -1.26094e-17)
(-18.3824 -9.26391 -1.18416e-17)
(-18.9041 -9.76826 -1.02389e-17)
(-19.4084 -10.5003 -7.34608e-18)
(-19.9047 -11.4424 -3.24986e-18)
(-20.4087 -12.5563 2.40344e-18)
(-20.9224 -13.8005 8.84582e-18)
(-21.4096 -15.1447 1.52643e-17)
(-21.7966 -16.5724 1.73371e-17)
(-22.008 -18.0603 -1.07764e-20)
(-22.0114 -19.5424 -7.2001e-17)
(-21.8195 -20.9013 -2.61291e-16)
(-21.4393 -22.0155 -6.2078e-16)
(-20.8667 -22.7961 -1.03947e-15)
(-20.0978 -23.2209 -1.51008e-15)
(-19.1122 -23.3309 -2.09605e-15)
(-17.9311 -23.1835 -2.48536e-15)
(-16.6582 -22.8238 -2.73379e-15)
(-15.4345 -22.2481 -2.70503e-15)
(-14.3262 -21.4404 -2.64085e-15)
(-13.3095 -20.4463 -2.94235e-15)
(-12.3527 -19.3779 -3.61614e-15)
(-11.4722 -18.3453 -4.40887e-15)
(-10.6993 -17.3802 -5.19591e-15)
(-10.0291 -16.4526 -5.84928e-15)
(-9.42325 -15.5319 -6.26795e-15)
(-8.84896 -14.6193 -6.31873e-15)
(-8.29997 -13.7349 -6.0475e-15)
(-7.79188 -12.8967 -5.42783e-15)
(-7.33459 -12.1128 -4.46271e-15)
(-6.92814 -11.3847 -3.17383e-15)
(-6.56783 -10.71 -1.63428e-15)
(-6.24763 -10.0855 4.38591e-17)
(-5.96297 -9.50809 1.76741e-15)
(-5.7099 -8.97659 3.42068e-15)
(-5.48431 -8.48976 4.89757e-15)
(-5.28292 -8.04564 6.09477e-15)
(-5.10312 -7.64279 6.87938e-15)
(-4.94142 -7.27988 7.22336e-15)
(-4.79398 -6.95561 7.0652e-15)
(-4.65752 -6.6687 6.37117e-15)
(-4.52958 -6.41739 5.20102e-15)
(-4.40827 -6.19962 3.64024e-15)
(-4.29191 -6.01287 1.83982e-15)
(-4.17609 -5.851 -6.05034e-17)
(-4.0542 -5.70115 -1.89992e-15)
(-3.93374 -5.54669 -3.21716e-15)
(-1.96234 -9.60279 -4.01605e-17)
(-2.86247 -8.89551 -3.41006e-17)
(-3.234 -8.70477 -2.67916e-17)
(-3.76245 -8.70392 -2.26861e-17)
(-4.31617 -8.89962 -2.11725e-17)
(-4.92058 -9.26561 -2.10473e-17)
(-5.55692 -9.83062 -1.96196e-17)
(-6.22367 -10.6151 -1.70938e-17)
(-6.9389 -11.6064 -1.25408e-17)
(-7.72769 -12.7807 -4.46422e-18)
(-8.59071 -14.1124 9.20073e-18)
(-9.47043 -15.5855 3.22725e-17)
(-10.2851 -17.1838 6.85254e-17)
(-10.9736 -18.8551 1.04252e-16)
(-11.5164 -20.4639 6.28921e-17)
(-11.8989 -21.8547 -2.32718e-16)
(-12.1031 -22.8874 -6.18952e-16)
(-12.1321 -23.5121 -1.03166e-15)
(-11.9476 -23.7704 -1.73743e-15)
(-11.5301 -23.7214 -2.26335e-15)
(-10.97 -23.4401 -2.67042e-15)
(-10.4398 -22.9523 -2.649e-15)
(-10.0214 -22.2156 -2.35293e-15)
(-9.65124 -21.2219 -2.30225e-15)
(-9.26467 -20.0643 -2.72693e-15)
(-8.90452 -18.9073 -3.51798e-15)
(-8.66164 -17.855 -4.47976e-15)
(-8.54955 -16.8969 -5.36187e-15)
(-8.48755 -15.973 -6.03091e-15)
(-8.38892 -15.0517 -6.33871e-15)
(-8.22604 -14.1417 -6.31087e-15)
(-8.03515 -13.267 -5.94456e-15)
(-7.85099 -12.4424 -5.24992e-15)
(-7.68633 -11.6743 -4.23112e-15)
(-7.54455 -10.9616 -2.91276e-15)
(-7.42598 -10.3027 -1.34945e-15)
(-7.33033 -9.69529 3.69796e-16)
(-7.25639 -9.13689 2.1539e-15)
(-7.20169 -8.62581 3.87664e-15)
(-7.16429 -8.16036 5.4188e-15)
(-7.14251 -7.73879 6.66875e-15)
(-7.13402 -7.35969 7.53451e-15)
(-7.13611 -7.02233 7.94493e-15)
(-7.14614 -6.72535 7.85581e-15)
(-7.1626 -6.46677 7.22427e-15)
(-7.18408 -6.24444 6.06878e-15)
(-7.20753 -6.05541 4.46744e-15)
(-7.22658 -5.89389 2.50277e-15)
(-7.23563 -5.74977 3.12265e-16)
(-7.24708 -5.61323 -1.94071e-15)
(11.7084 -9.87881 -4.29043e-17)
(10.8006 -8.95246 -3.87303e-17)
(10.0973 -8.6294 -3.17798e-17)
(9.54808 -8.61685 -2.66279e-17)
(9.04469 -8.82427 -2.31384e-17)
(8.53886 -9.16985 -2.19859e-17)
(7.98056 -9.62249 -2.09129e-17)
(7.34943 -10.2003 -1.9577e-17)
(6.62819 -10.9269 -1.78581e-17)
(5.79654 -11.8211 -1.38634e-17)
(4.82821 -12.8974 -7.03986e-18)
(3.7281 -14.1681 5.99182e-18)
(2.53383 -15.6369 3.62245e-17)
(1.30809 -17.2696 1.01848e-16)
(0.121626 -18.9438 1.85985e-16)
(-0.996929 -20.531 -1.18988e-17)
(-2.00975 -21.8353 -3.76487e-16)
(-2.89304 -22.7344 -6.83809e-16)
(-3.58714 -23.2528 -1.40767e-15)
(-4.02079 -23.4173 -2.00811e-15)
(-4.24485 -23.2978 -2.55205e-15)
(-4.45674 -22.9508 -2.64339e-15)
(-4.79055 -22.3337 -2.2578e-15)
(-5.14727 -21.3978 -1.85467e-15)
(-5.39355 -20.1892 -1.8627e-15)
(-5.57601 -18.8961 -2.47308e-15)
(-5.88489 -17.7301 -3.60057e-15)
(-6.40933 -16.7532 -4.83286e-15)
(-7.02315 -15.8896 -5.87699e-15)
(-7.53197 -15.0447 -6.53047e-15)
(-7.84245 -14.1849 -6.83412e-15)
(-8.01583 -13.3308 -6.83954e-15)
(-8.1324 -12.5061 -6.54377e-15)
(-8.22671 -11.7275 -5.87041e-15)
(-8.3143 -10.9992 -4.81258e-15)
(-8.40431 -10.3226 -3.38448e-15)
(-8.50124 -9.69702 -1.64952e-15)
(-8.60747 -9.12047 3.00636e-16)
(-8.72355 -8.59195 2.3409e-15)
(-8.84893 -8.11096 4.33006e-15)
(-8.98302 -7.67628 6.13512e-15)
(-9.1252 -7.28643 7.63538e-15)
(-9.27373 -6.94061 8.74098e-15)
(-9.42602 -6.63737 9.39469e-15)
(-9.58062 -6.37447 9.50554e-15)
(-9.73659 -6.14999 9.01496e-15)
(-9.89102 -5.9611 7.89579e-15)
(-10.0372 -5.80268 6.17261e-15)
(-10.1709 -5.66786 3.94704e-15)
(-10.3077 -5.5515 1.37196e-15)
(25.2071 -8.99852 -4.76215e-17)
(24.1448 -8.33744 -4.60124e-17)
(23.2821 -8.13709 -4.17078e-17)
(22.6646 -8.21488 -3.76953e-17)
(22.1722 -8.49584 -3.42332e-17)
(21.7436 -8.90227 -3.22517e-17)
(21.2931 -9.37386 -3.03762e-17)
(20.756 -9.89381 -2.84272e-17)
(20.0913 -10.4753 -2.65689e-17)
(19.2681 -11.1505 -2.3475e-17)
(18.2581 -11.9615 -1.90463e-17)
(17.0455 -12.9536 -1.092e-17)
(15.6385 -14.1573 9.31264e-18)
(14.0766 -15.5511 5.65036e-17)
(12.4193 -17.0451 1.26977e-16)
(10.7209 -18.5149 1.3411e-17)
(9.01773 -19.8405 -3.0595e-16)
(7.34595 -20.9166 -6.13761e-16)
(5.78895 -21.6834 -1.24353e-15)
(4.44953 -22.1217 -1.8364e-15)
(3.3499 -22.2524 -2.38025e-15)
(2.34029 -22.1136 -2.59533e-15)
(1.23969 -21.6576 -2.29469e-15)
(0.149348 -20.8374 -1.70984e-15)
(-0.772627 -19.6534 -1.22555e-15)
(-1.50584 -18.2572 -1.35119e-15)
(-2.32666 -16.9491 -2.39282e-15)
(-3.5005 -15.9301 -3.93447e-15)
(-4.91734 -15.1751 -5.43243e-15)
(-6.2105 -14.5111 -6.48718e-15)
(-7.11814 -13.808 -7.07444e-15)
(-7.71119 -13.0563 -7.32821e-15)
(-8.15505 -12.2871 -7.3199e-15)
(-8.52294 -11.5366 -6.93897e-15)
(-8.84701 -10.82 -6.15521e-15)
(-9.14715 -10.1446 -4.9717e-15)
(-9.43492 -9.51434 -3.42844e-15)
(-9.71761 -8.93067 -1.57522e-15)
(-9.99976 -8.39429 4.97806e-16)
(-10.2831 -7.90563 2.67269e-15)
(-10.5675 -7.46471 4.82877e-15)
(-10.8532 -7.07031 6.84122e-15)
(-11.1393 -6.72114 8.58595e-15)
(-11.4239 -6.41602 9.97313e-15)
(-11.7066 -6.15302 1.0901e-14)
(-11.9872 -5.93024 1.12696e-14)
(-12.2621 -5.74539 1.10142e-14)
(-12.5252 -5.59419 1.00917e-14)
(-12.7744 -5.47221 8.5097e-15)
(-13.0272 -5.37696 6.30132e-15)
(38.7673 -7.9654 -5.76835e-17)
(37.6452 -7.54465 -5.71665e-17)
(36.7041 -7.51934 -5.43836e-17)
(36.07 -7.72759 -5.16187e-17)
(35.6247 -8.1041 -4.90021e-17)
(35.3041 -8.57703 -4.71002e-17)
(35.0077 -9.0714 -4.49536e-17)
(34.631 -9.5405 -4.24325e-17)
(34.0971 -9.98131 -3.99637e-17)
(33.346 -10.4274 -3.67422e-17)
(32.3286 -10.9378 -3.25908e-17)
(31.0079 -11.5808 -2.5807e-17)
(29.37 -12.4114 -9.14952e-18)
(27.4397 -13.4459 2.78257e-17)
(25.2762 -14.6501 7.0733e-17)
(22.955 -15.9409 -3.64163e-17)
(20.5552 -17.2059 -3.40039e-16)
(18.1484 -18.3362 -6.86724e-16)
(15.8207 -19.2493 -1.26375e-15)
(13.6678 -19.8972 -1.79781e-15)
(11.7262 -20.2622 -2.22582e-15)
(9.926 -20.3324 -2.43469e-15)
(8.13242 -20.0622 -2.28848e-15)
(6.31448 -19.3903 -1.77585e-15)
(4.62636 -18.3159 -1.02511e-15)
(3.19392 -16.9165 -5.26372e-16)
(1.90082 -15.5001 -1.03552e-15)
(0.221538 -14.3924 -2.59178e-15)
(-2.03568 -13.7419 -4.54155e-15)
(-4.32535 -13.3593 -6.07703e-15)
(-6.01569 -12.9496 -6.93036e-15)
(-7.09984 -12.4131 -7.29917e-15)
(-7.8981 -11.7722 -7.50881e-15)
(-8.55243 -11.0978 -7.46351e-15)
(-9.11754 -10.4245 -7.10719e-15)
(-9.62723 -9.77172 -6.42927e-15)
(-10.103 -9.15203 -5.43743e-15)
(-10.5582 -8.57304 -4.13864e-15)
(-11.0006 -8.03861 -2.54843e-15)
(-11.4342 -7.5505 -7.27385e-16)
(-11.8606 -7.10988 1.23596e-15)
(-12.2804 -6.71653 3.2511e-15)
(-12.6944 -6.36899 5.21609e-15)
(-13.1014 -6.06632 7.03109e-15)
(-13.5014 -5.80741 8.60184e-15)
(-13.8948 -5.58993 9.83114e-15)
(-14.2787 -5.41155 1.06342e-14)
(-14.6481 -5.26964 1.09374e-14)
(-15.0029 -5.1618 1.06461e-14)
(-15.3611 -5.08675 9.66571e-15)
(52.7626 -7.06248 -7.52369e-17)
(51.5018 -6.92496 -7.57708e-17)
(50.5173 -7.15989 -7.47079e-17)
(49.9356 -7.59217 -7.33452e-17)
(49.6074 -8.14306 -7.16042e-17)
(49.4569 -8.73567 -7.02554e-17)
(49.3745 -9.28218 -6.80621e-17)
(49.2277 -9.71138 -6.48735e-17)
(48.8972 -9.9983 -6.1117e-17)
(48.2829 -10.1684 -5.68641e-17)
(47.2979 -10.2869 -5.21065e-17)
(45.869 -10.4389 -4.45267e-17)
(43.9495 -10.7072 -2.71021e-17)
(41.5473 -11.1634 7.82144e-18)
(38.7429 -11.8603 3.63586e-17)
(35.669 -12.7908 -8.56513e-17)
(32.4665 -13.8709 -3.71956e-16)
(29.256 -14.9922 -7.54523e-16)
(26.1457 -16.0366 -1.2897e-15)
(23.2253 -16.9006 -1.7315e-15)
(20.5314 -17.5041 -2.03469e-15)
(18.0165 -17.7684 -2.18867e-15)
(15.5642 -17.6159 -2.1008e-15)
(13.1046 -17.0148 -1.6781e-15)
(10.7272 -16.0227 -8.79997e-16)
(8.60265 -14.7737 8.0848e-19)
(6.76442 -13.4479 3.73518e-16)
(4.65283 -12.2148 -5.41075e-16)
(1.73327 -11.5695 -2.70068e-15)
(-1.71529 -11.5061 -4.88109e-15)
(-4.47435 -11.5386 -6.22924e-15)
(-6.14962 -11.3691 -6.61666e-15)
(-7.32872 -10.9494 -6.98414e-15)
(-8.28277 -10.4092 -7.19179e-15)
(-9.09721 -9.8166 -7.20152e-15)
(-9.82001 -9.21139 -7.012e-15)
(-10.4838 -8.61988 -6.62249e-15)
(-11.1089 -8.0587 -6.01547e-15)
(-11.7069 -7.53699 -5.16411e-15)
(-12.2849 -7.05928 -4.06829e-15)
(-12.8462 -6.62798 -2.74809e-15)
(-13.3924 -6.24403 -1.24867e-15)
(-13.9247 -5.90638 3.93717e-16)
(-14.4442 -5.61366 2.13109e-15)
(-14.9515 -5.36497 3.90327e-15)
(-15.447 -5.15843 5.64654e-15)
(-15.9293 -4.99172 7.27639e-15)
(-16.3949 -4.86345 8.69909e-15)
(-16.8454 -4.77293 9.79578e-15)
(-17.2981 -4.71946 1.04317e-14)
(66.9426 -4.86826 -1.05777e-16)
(65.83 -5.09022 -1.0666e-16)
(65.0053 -5.69906 -1.06405e-16)
(64.6148 -6.46261 -1.06111e-16)
(64.491 -7.30801 -1.05498e-16)
(64.5684 -8.16542 -1.04777e-16)
(64.7491 -8.92991 -1.02542e-16)
(64.8909 -9.49458 -9.83979e-17)
(64.8321 -9.79005 -9.28807e-17)
(64.4093 -9.80582 -8.60096e-17)
(63.47 -9.58692 -7.82943e-17)
(61.8871 -9.22673 -6.70735e-17)
(59.577 -8.85633 -4.41823e-17)
(56.5336 -8.63339 -5.96641e-18)
(52.8731 -8.71378 1.41038e-17)
(48.8253 -9.18345 -1.24997e-16)
(44.6333 -10.0012 -4.28847e-16)
(40.4885 -11.0522 -8.60045e-16)
(36.5382 -12.1932 -1.32584e-15)
(32.875 -13.265 -1.66614e-15)
(29.5171 -14.1095 -1.87108e-15)
(26.3976 -14.5712 -1.96795e-15)
(23.3809 -14.5338 -1.89669e-15)
(20.3569 -13.9871 -1.54077e-15)
(17.3599 -13.0369 -7.93593e-16)
(14.5339 -11.8602 2.01236e-16)
(12.0317 -10.6492 1.05714e-15)
(9.64495 -9.55814 1.12504e-15)
(6.50656 -8.80636 -4.14903e-16)
(1.86293 -8.91525 -3.24249e-15)
(-2.38035 -9.49164 -5.74031e-15)
(-4.80378 -9.88579 -6.12959e-15)
(-6.38739 -9.80186 -6.68277e-15)
(-7.65457 -9.46145 -7.06721e-15)
(-8.73555 -8.99035 -7.27471e-15)
(-9.68563 -8.45864 -7.35189e-15)
(-10.5466 -7.91265 -7.30368e-15)
(-11.3472 -7.38182 -7.13384e-15)
(-12.1036 -6.88227 -6.81004e-15)
(-12.8255 -6.42239 -6.3154e-15)
(-13.5189 -6.00625 -5.61023e-15)
(-14.187 -5.63567 -4.67556e-15)
(-14.8321 -5.31035 -3.49961e-15)
(-15.457 -5.02926 -2.08e-15)
(-16.0635 -4.79126 -4.4222e-16)
(-16.653 -4.59506 1.38361e-15)
(-17.2255 -4.43887 3.34805e-15)
(-17.7797 -4.32189 5.38176e-15)
(-18.3185 -4.24453 7.37144e-15)
(-18.8578 -4.20694 9.20974e-15)
(85.7689 -5.29658 -1.53809e-16)
(83.7549 -5.67339 -1.56341e-16)
(82.2784 -6.31146 -1.59186e-16)
(81.4207 -6.94308 -1.62696e-16)
(81.0065 -7.54419 -1.66821e-16)
(81.0058 -8.10994 -1.72548e-16)
(81.3008 -8.57401 -1.76295e-16)
(81.6762 -8.82854 -1.76032e-16)
(81.8628 -8.76828 -1.70255e-16)
(81.5868 -8.33375 -1.59334e-16)
(80.6017 -7.52116 -1.44887e-16)
(78.7087 -6.41261 -1.23142e-16)
(75.7937 -5.21398 -8.55163e-17)
(71.879 -4.27115 -4.16139e-17)
(67.158 -3.93402 -2.49976e-17)
(61.9673 -4.34166 -1.75139e-16)
(56.6607 -5.354 -6.46574e-16)
(51.4969 -6.68896 -1.19698e-15)
(46.6617 -8.10197 -1.61517e-15)
(42.264 -9.40728 -1.91615e-15)
(38.2834 -10.444 -1.96931e-15)
(34.5994 -11.0427 -1.89275e-15)
(31.0355 -11.0787 -1.71345e-15)
(27.4677 -10.5645 -1.37233e-15)
(23.9346 -9.64535 -8.13805e-16)
(20.5647 -8.5279 -4.39665e-17)
(17.5218 -7.40518 7.742e-16)
(14.7016 -6.41478 1.17103e-15)
(11.6288 -5.74044 5.36222e-16)
(6.93481 -5.71887 -1.64782e-15)
(0.474485 -6.71125 -6.22308e-15)
(-2.96146 -7.92189 -6.21811e-15)
(-4.96016 -8.31373 -6.975e-15)
(-6.54247 -8.24167 -7.43584e-15)
(-7.92375 -7.93735 -7.47654e-15)
(-9.1397 -7.51303 -7.43422e-15)
(-10.2269 -7.03908 -7.24969e-15)
(-11.2232 -6.56215 -6.92358e-15)
(-12.1513 -6.10669 -6.45639e-15)
(-13.0253 -5.68575 -5.84526e-15)
(-13.8546 -5.30526 -5.06811e-15)
(-14.6448 -4.96797 -4.10078e-15)
(-15.4007 -4.67417 -2.95854e-15)
(-16.127 -4.4231 -1.66864e-15)
(-16.8274 -4.21323 -2.38002e-16)
(-17.5046 -4.04324 1.35169e-15)
(-18.1601 -3.91202 3.10023e-15)
(-18.7951 -3.81939 5.01849e-15)
(-19.4141 -3.76702 7.07409e-15)
(-20.0316 -3.75687 9.23074e-15)
(91.5576 -1.2663 -2.63831e-16)
(91.4793 -3.29102 -2.68423e-16)
(92.6288 -5.55253 -2.75698e-16)
(94.4609 -7.70395 -2.8874e-16)
(96.3804 -9.5303 -3.11917e-16)
(98.0336 -10.83 -3.46278e-16)
(99.2071 -11.4853 -3.71916e-16)
(99.8037 -11.4353 -3.85596e-16)
(99.7339 -10.6621 -3.80598e-16)
(98.9091 -9.19789 -3.53794e-16)
(97.2197 -7.0758 -3.09822e-16)
(94.4902 -4.37066 -2.52834e-16)
(90.4767 -1.27979 -1.73253e-16)
(85.1978 1.65864 -1.721e-16)
(79.0806 3.67488 -5.756e-16)
(72.6706 4.21104 -1.26036e-15)
(66.4634 3.2342 -1.52826e-15)
(60.7134 1.162 -1.6775e-15)
(55.4654 -1.42704 -1.68643e-15)
(50.4662 -3.8082 -1.4389e-15)
(45.6422 -5.57024 -1.16351e-15)
(41.0238 -6.57626 -1.01723e-15)
(36.6342 -6.85489 -1.01448e-15)
(32.4853 -6.52563 -9.83543e-16)
(28.7282 -5.78333 -6.07903e-16)
(25.4486 -4.84243 4.38095e-16)
(22.6112 -3.90075 2.13571e-15)
(19.7074 -2.98671 3.35796e-15)
(16.5402 -2.36497 3.69935e-15)
(12.3513 -2.34522 2.96557e-15)
(4.40781 -3.09115 -5.98799e-15)
(-0.472999 -5.39529 -4.86947e-15)
(-2.87511 -6.45272 -6.38162e-15)
(-4.72084 -6.70144 -7.74544e-15)
(-6.45194 -6.59698 -7.87477e-15)
(-8.02005 -6.30972 -8.11926e-15)
(-9.40417 -5.92615 -8.35465e-15)
(-10.6476 -5.51473 -8.39243e-15)
(-11.7866 -5.1084 -8.18983e-15)
(-12.8414 -4.72482 -7.80814e-15)
(-13.8267 -4.37263 -7.26095e-15)
(-14.7533 -4.05642 -6.52323e-15)
(-15.6297 -3.77816 -5.60675e-15)
(-16.4634 -3.53793 -4.55744e-15)
(-17.2609 -3.3349 -3.4113e-15)
(-18.0277 -3.16843 -2.14124e-15)
(-18.7678 -3.03849 -6.90897e-16)
(-19.4858 -2.94577 1.00479e-15)
(-20.1883 -2.89269 2.92645e-15)
(-20.8886 -2.88233 5.15517e-15)
(145.684 -2.42563 -4.13584e-16)
(142.129 -3.69344 -4.45943e-16)
(138.611 -5.09617 -5.03788e-16)
(134.793 -6.69453 -5.93259e-16)
(130.315 -8.38397 -7.51649e-16)
(125.449 -9.54509 -9.64744e-16)
(120.622 -10.114 -1.08002e-15)
(115.793 -10.1826 -1.17025e-15)
(111.234 -9.60945 -1.23065e-15)
(107.141 -8.41804 -1.28804e-15)
(103.68 -6.61712 -1.39176e-15)
(100.737 -4.23699 -1.60552e-15)
(96.1977 -1.29931 -1.83332e-15)
(89.5657 1.94116 -1.48182e-15)
(80.9001 4.99217 -1.6491e-15)
(71.2314 7.19664 -1.68353e-15)
(61.806 8.05514 -1.94795e-15)
(53.3789 7.51032 -2.42196e-15)
(46.1441 5.93579 -3.10333e-15)
(40.1005 3.80705 -3.93675e-15)
(35.0533 1.67076 -5.03848e-15)
(30.7021 -0.00849219 -6.50718e-15)
(26.6114 -1.03921 -8.33442e-15)
(22.5092 -1.41688 -1.02017e-14)
(18.8319 -1.14344 -1.27826e-14)
(15.3697 -0.323616 -1.50027e-14)
(12.4799 0.77201 -1.67287e-14)
(10.9171 1.52781 -1.67547e-14)
(10.0545 1.77052 -1.64003e-14)
(8.38086 1.97163 -1.87338e-14)
(6.55382 0.81933 -1.76974e-14)
(2.75065 -2.09704 -6.22794e-15)
(0.0320366 -4.13831 -7.80948e-15)
(-1.81102 -4.83366 -1.19493e-14)
(-3.88395 -4.96162 -1.16955e-14)
(-5.94835 -4.86861 -1.20048e-14)
(-7.76162 -4.63331 -1.29091e-14)
(-9.3385 -4.35136 -1.38869e-14)
(-10.7534 -4.06063 -1.47498e-14)
(-12.0386 -3.78223 -1.54706e-14)
(-13.2174 -3.52805 -1.59691e-14)
(-14.3075 -3.30401 -1.61436e-14)
(-15.323 -3.11263 -1.58979e-14)
(-16.276 -2.95398 -1.52223e-14)
(-17.1774 -2.82744 -1.41596e-14)
(-18.0364 -2.73223 -1.26172e-14)
(-18.8607 -2.66795 -1.05368e-14)
(-19.6579 -2.6347 -7.85523e-15)
(-20.4378 -2.63507 -4.69653e-15)
(-21.2128 -2.67642 -1.08073e-15)
(18.0977 4.54632 -2.95503e-15)
(4.82574 2.4984 -2.98892e-15)
(-5.52198 0.196057 -3.07067e-15)
(-12.1659 -4.44825 -3.21167e-15)
(-10.8713 -9.46051 -4.65146e-15)
(-8.77974 -4.36319 -5.61528e-15)
(-9.67447 -2.243 -3.57538e-15)
(-12.2068 -1.3837 -1.81912e-15)
(-13.5967 -0.545879 -2.378e-16)
(-13.132 0.62633 1.29389e-15)
(-10.1359 2.09705 2.84517e-15)
(-3.13045 3.83784 3.90854e-15)
(9.8946 5.86653 4.48809e-15)
(13.1726 8.74071 4.07061e-15)