/*--------------------------------*- C++ -*----------------------------------*\
  =========                 |
  \\      /  F ield         | OpenFOAM: The Open Source CFD Toolbox
   \\    /   O peration     | Website:  https://openfoam.org
    \\  /    A nd           | Version:  8
     \\/     M anipulation  |
\*---------------------------------------------------------------------------*/
FoamFile
{
    version     2.0;
    format      ascii;
    class       volScalarField;
    location    "900";
    object      p_rgh;
}
// * * * * * * * * * * * * * * * * * * * * * * * * * * * * * * * * * * * * * //

dimensions      [1 -1 -2 0 0 0 0];

internalField   nonuniform List<scalar> 
8400
(
0.183663
18.8434
34.5612
49.8061
64.8424
79.8852
95.0737
110.52
126.326
142.593
159.426
176.94
195.261
214.534
234.921
256.608
279.809
304.77
331.773
361.152
393.291
428.627
467.668
511.039
559.497
613.821
674.7
743.061
820.162
907.406
1006.39
1118.98
1247.28
1393.78
1561.32
1753.22
1973.31
2226.08
2516.75
2851.46
3237.4
3683.08
4199.16
4799.56
5500.67
6316.63
7262.6
8399.32
9893.41
11839.1
-9.33987
4.43568
18.0358
32.0901
46.22
60.4343
74.798
89.3916
104.3
119.613
135.426
151.844
168.985
186.981
205.983
226.164
247.722
270.886
295.917
323.124
352.872
385.57
421.667
461.699
506.273
556.101
612.095
675.242
746.597
827.438
919.253
1023.76
1142.95
1279.12
1434.9
1613.35
1817.99
2052.86
2322.65
2632.76
2989.35
3399.55
3871.84
4416.68
5045.32
5766.12
6586.27
7536.68
8700.64
10128.9
22.3497
40.5879
56.6754
71.9088
87.0314
102.275
117.756
133.558
149.766
166.465
183.754
201.738
220.539
240.294
261.159
283.315
306.967
332.35
359.734
389.436
421.836
457.361
496.431
539.527
587.257
640.332
699.641
766.182
841.051
925.525
1021.08
1129.44
1252.56
1392.73
1552.57
1735.1
1943.8
2182.68
2456.34
2770.04
3129.78
3542.35
4015.62
4558.6
5180.45
5888.19
6687.66
7593.77
8637.1
9812.9
-14.6775
-10.3349
-0.432318
11.5483
24.2444
37.2704
50.5327
64.0365
77.8239
91.9553
106.503
121.551
137.195
153.544
170.725
188.887
208.2
228.853
251.066
275.092
301.231
329.863
361.463
396.511
435.509
479.081
527.959
582.98
645.109
715.47
795.363
886.294
989.998
1108.48
1244.05
1399.35
1577.45
1781.83
2016.49
2285.97
2595.41
2950.59
3358.07
3825.09
4358.93
4965.71
5650.9
6423.61
7298.6
8272.24
37.7788
59.4119
76.3724
91.4308
106.155
120.969
136.023
151.391
167.132
183.31
199.999
217.283
235.256
254.028
273.724
294.494
316.509
339.953
365.03
391.971
421.032
452.516
486.819
524.408
565.79
611.554
662.374
719.023
782.385
853.481
933.486
1023.75
1125.83
1241.5
1372.8
1522.06
1691.91
1885.34
2105.72
2356.78
2642.65
2967.78
3336.97
3755.15
4226.83
4755.2
5341.8
5988.64
6701.96
7480.42
-22.9852
-22.6444
-14.6057
-3.7446
8.0731
20.3071
32.8037
45.5358
58.5212
71.7982
85.4184
99.4437
113.946
129.008
144.727
161.216
178.616
197.105
216.873
238.13
261.11
286.073
313.33
343.249
376.255
412.844
453.588
499.147
550.286
607.886
672.965
746.697
830.436
925.737
1034.38
1158.4
1300.12
1462.16
1647.45
1859.27
2101.18
2377
2690.76
3046.44
3447.6
3896.57
4393.52
4937.46
5530.47
6173.19
45.0516
68.9544
86.1753
100.696
114.597
128.451
142.444
156.649
171.108
185.859
200.949
216.429
232.36
248.807
265.844
283.554
302.032
321.4
341.811
363.437
386.472
411.137
437.689
466.421
497.677
531.848
569.387
610.815
656.733
707.833
764.913
828.89
900.818
981.906
1073.54
1177.28
1294.92
1428.48
1580.18
1752.51
1948.16
2169.97
2420.88
2703.78
3021.24
3374.85
3764.37
4188.42
4648.58
5147.29
-27.5304
-29.0575
-21.9017
-11.5995
-0.269272
11.4818
23.4773
35.6753
48.0783
60.7059
73.5885
86.7671
100.291
114.221
128.622
143.567
159.136
175.419
192.528
210.588
229.748
250.175
272.065
295.646
321.18
348.972
379.371
412.78
449.664
490.559
536.082
586.941
643.952
708.047
780.291
861.895
954.227
1058.82
1177.39
1311.81
1464.08
1636.33
1830.68
2049.22
2293.76
2565.36
2863.66
3187.47
3538.24
3919.21
47.2838
71.5567
88.2871
101.954
114.819
127.506
140.21
152.989
165.866
178.854
191.965
205.214
218.621
232.214
246.029
260.106
274.49
289.238
304.411
320.086
336.347
353.295
371.045
389.734
409.518
430.581
453.134
477.424
503.737
532.404
563.81
598.399
636.685
679.261
726.807
780.105
840.045
907.634
984.004
1070.41
1168.23
1278.93
1404.02
1545.03
1703.4
1880.12
2075.32
2288.68
2522.05
2779.31
-28.6666
-30.9236
-24.3152
-14.5138
-3.70027
7.49488
18.8801
30.3987
42.0361
53.7925
65.6738
77.6875
89.8443
102.158
114.646
127.329
140.229
153.373
166.791
180.52
194.598
209.073
223.997
239.43
255.44
272.105
289.516
307.774
326.996
347.318
368.895
391.905
416.557
443.089
471.781
502.954
536.982
574.3
615.409
660.887
711.398
767.692
830.615
901.117
980.228
1068.92
1167.88
1277.87
1401.38
1543
46.3441
69.9343
85.87
98.6971
110.658
122.363
133.988
145.574
157.124
168.627
180.07
191.44
202.723
213.905
224.971
235.906
246.693
257.313
267.746
277.97
287.96
297.687
307.121
316.226
324.965
333.295
341.167
348.528
355.32
361.477
366.929
371.598
375.402
378.253
380.059
380.732
380.183
378.339
375.148
370.595
364.724
357.672
349.709
341.307
333.197
326.408
322.302
322.858
331.542
353.625
-27.4902
-29.8877
-23.7927
-14.6724
-4.63272
5.70375
16.1334
26.5801
37.006
47.3849
57.6928
67.906
77.999
87.9443
97.7112
107.265
116.566
125.568
134.219
142.457
150.212
157.401
163.928
169.683
174.538
178.341
180.921
182.077
181.577
179.154
174.5
167.264
157.043
143.379
125.754
103.59
76.2466
43.024
3.17725
-44.0656
-99.4677
-163.724
-237.37
-320.659
-413.415
-514.834
-623.199
-735.56
-847.366
-951.375
42.9664
65.1989
80.275
92.4661
103.839
114.938
125.907
136.763
147.487
158.046
168.403
178.516
188.338
197.817
206.896
215.507
223.575
231.012
237.719
243.58
248.462
252.212
254.655
255.585
254.767
251.932
246.766
238.909
227.946
213.403
194.732
171.308
142.417
107.249
64.8859
14.2965
-45.6672
-116.268
-198.874
-294.928
-405.913
-533.26
-678.226
-841.699
-1023.99
-1224.5
-1441.21
-1669.97
-1904.26
-2134.87
-23.903
-25.825
-20.1232
-11.7473
-2.60274
6.7224
16.0166
25.1843
34.1645
42.905
51.3539
59.4554
67.1479
74.3624
81.0207
87.0334
92.2981
96.6976
100.097
102.339
103.247
102.611
100.194
95.7188
88.8678
79.2731
66.5103
50.09
29.4474
3.93199
-27.2056
-64.8269
-109.921
-163.621
-227.221
-302.192
-390.199
-493.11
-612.998
-752.135
-912.956
-1098
-1309.75
-1550.43
-1821.67
-2124.22
-2457.14
-2816.61
-3194.73
-3577.36
36.258
56.2671
70.2756
81.9196
92.8882
103.603
114.156
124.538
134.71
144.623
154.221
163.439
172.205
180.438
188.044
194.914
200.925
205.933
209.77
212.245
213.133
212.177
209.076
203.482
194.992
183.139
167.381
147.09
121.539
89.8874
51.1599
4.23147
-52.1975
-119.625
-199.772
-294.612
-406.399
-537.685
-691.342
-870.556
-1078.81
-1319.85
-1597.45
-1915.17
-2275.84
-2681.25
-3131.53
-3622.93
-4144.24
-4675.04
-17.086
-17.2872
-11.3086
-3.24781
5.3469
13.9717
22.4292
30.6167
38.4589
45.885
52.8206
59.1833
64.8804
69.8067
73.8416
76.8473
78.6651
79.1128
77.9802
75.0255
69.9695
62.4904
52.2166
38.7192
21.5031
-0.00378693
-26.462
-58.6347
-97.403
-143.785
-198.955
-264.271
-341.295
-431.832
-537.954
-662.044
-806.834
-975.441
-1171.4
-1398.7
-1661.79
-1965.58
-2315.39
-2716.56
-3173.92
-3691.85
-4274.77
-4924.84
-5633.16
-6368.75
23.7853
40.998
53.7274
64.8308
75.3963
85.6884
95.7507
105.559
115.067
124.215
132.935
141.148
148.764
155.677
161.768
166.896
170.899
173.592
174.757
174.143
171.459
166.367
158.477
147.334
132.413
113.104
88.6991
58.3772
21.1859
-23.9803
-78.4043
-143.576
-221.224
-313.357
-422.31
-550.792
-701.952
-879.449
-1087.53
-1331.08
-1615.77
-1948.15
-2335.76
-2786.86
-3309.67
-3912.62
-4606.62
-5403.37
-6296.33
-7234.91
-8.88037
-4.49893
3.27552
12.0387
20.877
29.5168
37.8449
45.7888
53.2807
60.2468
66.6029
72.2522
77.0835
80.9684
83.7589
85.2846
85.3487
83.7243
80.1494
74.3213
65.8902
54.4517
39.5378
20.6075
-2.96607
-31.9086
-67.0611
-109.398
-160.051
-220.333
-291.767
-376.125
-475.468
-592.197
-729.109
-889.468
-1077.09
-1296.44
-1552.75
-1852.12
-2201.71
-2609.91
-3086.73
-3643.66
-4292.49
-5044.6
-5915.42
-6930.22
-8102.02
-9366.81
1.81756
20.5568
32.6131
43.3356
53.4331
63.1484
72.5234
81.5382
90.1465
98.2859
105.88
112.839
119.058
124.413
128.764
131.945
133.767
134.009
132.417
128.695
122.501
113.441
101.056
84.8149
64.1036
38.2094
6.30633
-32.5634
-79.5107
-135.825
-203.004
-282.788
-377.199
-488.596
-619.726
-773.796
-954.56
-1166.42
-1414.58
-1705.12
-2045.23
-2443.5
-2910.56
-3459.48
-4104.32
-4857.82
-5739.38
-6802.87
-8134.25
-9708.23
-1.33332
8.19417
17.888
27.6002
37.0583
46.1961
54.9718
63.3403
71.2458
78.6194
85.3785
91.426
96.6482
100.913
104.068
105.935
106.311
104.958
101.602
95.9278
87.5674
76.0966
61.0239
41.78
17.7047
-11.9672
-48.1236
-91.7952
-144.179
-206.668
-280.881
-368.707
-472.351
-594.389
-737.846
-906.273
-1103.87
-1335.62
-1607.49
-1926.64
-2301.7
-2743.39
-3265.58
-3886.6
-4628.36
-5513.54
-6577.75
-7925.05
-9764.8
-12141.6
29237
21074.7
17041.7
15523.3
14689
14080.1
13656.5
13372.1
13172
13020.9
12901.1
12802.9
12719.7
12647
12581.7
12521.6
12465.4
12411.7
12359.7
12308.5
12257.4
12205.9
12153.3
12098.9
12042.2
11982.4
11918.7
11850.2
11776
11694.9
11605.5
11506.3
11395.6
11271.5
11131.3
10972.2
10790.7
10582.8
10343.8
10067.6
9747.16
9373.8
8936.88
8422.89
7814.33
7087.77
6210.23
5132.48
3774.09
1998.41
3701.95
8291.11
9792.81
10359.1
10793.4
11119
11343.4
11503.5
11622.3
11711.1
11777.2
11825.9
11861.2
11885.8
11901.7
11910.2
11912.4
11909.2
11901
11888.3
11871.2
11849.9
11824.3
11794.3
11759.6
11719.8
11674.5
11623
11564.5
11498.1
11422.3
11336
11237.3
11124.2
10994.5
10845.5
10674
10475.9
10246.8
9981.18
9672.37
9312.21
8890.71
8395.54
7811.25
7118.3
6291.72
5300.01
4105.63
2674.71
11031.4
13201.4
14384.5
14487.2
14330.6
14158.9
13972.6
13781.4
13603
13443.9
13303.1
13178.1
13066.6
12966.4
12875.4
12791.8
12714.3
12641.5
12572.3
12505.8
12441.2
12377.6
12314.3
12250.7
12185.8
12119
12049.5
11976.4
11898.7
11815.5
11725.4
11626.9
11518.3
11397.5
11262.2
11109.8
10937.1
10740.6
10515.7
10257.4
9959.5
9614.84
9214.72
8748.77
8204.59
7567.47
6820.41
5944.85
4923.59
3748.34
11380
11789.1
11980.5
11908.9
11806.7
11763.3
11751.7
11749.4
11753.7
11763.5
11776.1
11788.9
11800.3
11809.4
11815.8
11819.2
11819.4
11816.2
11809.8
11799.9
11786.6
11769.7
11749.2
11724.7
11696.1
11662.8
11624.3
11580.2
11529.6
11471.9
11406
11330.9
11244.9
11146.6
11034
10904.6
10755.7
10584
10385.7
10156.4
9890.85
9582.92
9225.55
8810.56
8328.74
7770.05
7124.33
6382.87
5541.81
4607.96
11919
12168.1
12484.7
12716.4
12856.3
12945.6
12997.9
13016.8
13010.4
12987.5
12953.7
12912.8
12867.1
12818.6
12768.3
12717
12665.2
12613.1
12560.7
12508.1
12455.1
12401.4
12346.9
12291.3
12234
12174.8
12113.1
12048
11978.9
11904.8
11824.8
11737.7
11642.2
11536.8
11419.7
11288.7
11141.4
10975.1
10786.2
10571.2
10325.7
10044.6
9722.42
9353.01
8929.84
8446.44
7897.18
7278.72
6592.41
5847.06
12122.7
12208.4
12316.5
12378.5
12381.2
12353
12314.6
12272.3
12229.2
12187.9
12150
12115.6
12084.3
12055.6
12029
12003.9
11979.7
11956
11932.3
11908.2
11883.3
11857.3
11829.9
11800.5
11768.9
11734.6
11697.2
11656.2
11611
11560.8
11504.8
11442.1
11371.6
11292
11201.8
11099.3
10982.6
10849.2
10696.5
10521.6
10321.1
10091.1
9827.59
9526.29
9182.96
8793.88
8356.61
7871.08
7341.31
6776.85
12235.9
12280.3
12352
12424.2
12479.5
12520.4
12552
12575
12589.1
12594.9
12593.7
12586.4
12574
12557
12536.2
12512.1
12485.3
12455.9
12424.4
12391
12355.7
12318.7
12279.9
12239.2
12196.5
12151.6
12104.2
12054.1
12000.7
11943.6
11882.2
11815.7
11743.3
11664
11576.6
11479.9
11372.2
11251.8
11116.7
10964.5
10792.9
10599.1
10380.2
10133.4
9856.22
9546.58
9203.8
8829.1
8426.65
8003.75
12294.4
12316.6
12354.4
12394.3
12422.5
12435.4
12435.5
12425.6
12407.5
12383.4
12355.3
12324.6
12292.6
12260
12227.3
12194.9
12162.9
12131.2
12100
12069
12038.2
12007.3
11976.2
11944.6
11912.3
11878.9
11844.2
11807.8
11769.4
11728.4
11684.3
11636.6
11584.7
11527.7
11464.9
11395.2
11317.6
11230.8
11133.4
11023.9
10900.6
10761.8
10605.7
10430.8
10235.6
10019.6
9783.06
9527.79
9257.74
8979.07
12325.8
12339.4
12364.5
12395.1
12422.6
12442.9
12456.1
12463.2
12465.1
12462.2
12455.4
12445.1
12432
12416.3
12398.5
12378.8
12357.4
12334.4
12310.1
12284.6
12257.8
12230
12201
12171
12139.8
12107.5
12074
12039.1
12002.6
11964.4
11924.3
11881.8
11836.8
11788.8
11737.3
11681.8
11621.7
11556.2
11484.7
11406.3
11320.1
11225.2
11120.9
11006.5
10881.6
10746.2
10601.1
10448
10289.8
10130.4
12339.9
12350
12369.2
12393.7
12416.7
12433.3
12442.6
12444.8
12440.6
12430.9
12416.6
12398.7
12378
12355.2
12331
12305.7
12279.7
12253.3
12226.7
12199.8
12172.9
12145.9
12118.9
12091.9
12064.8
12037.6
12010.3
11982.7
11954.9
11926.7
11898
11868.8
11838.8
11808.1
11776.5
11743.7
11709.7
11674.2
11637.1
11598.2
11557.4
11514.7
11469.9
11423.2
11375
11325.9
11276.7
11228.9
11184.6
11146.1
12341.1
12351.2
12370.5
12395.1
12418.1
12434.9
12444.4
12446.8
12442.9
12433.6
12419.7
12402.2
12382.1
12360.1
12336.7
12312.4
12287.5
12262.5
12237.4
12212.4
12187.6
12163.1
12139
12115.3
12092.1
12069.5
12047.4
12026
12005.3
11985.4
11966.4
11948.4
11931.6
11916.1
11902.2
11890
11879.9
11872.2
11867.3
11865.7
11868
11874.7
11886.6
11904.7
11929.6
11962.6
12004.4
12056.2
12118.8
12192.9
12329.3
12343
12368.2
12399.1
12426.9
12447.6
12461.3
12469.2
12471.8
12470
12464.3
12455.4
12443.9
12430.2
12414.6
12397.4
12379.1
12359.7
12339.6
12319
12298
12276.9
12255.8
12235
12214.7
12195.1
12176.4
12158.9
12142.7
12128.3
12115.9
12106
12098.9
12095.2
12095.3
12100.1
12110.2
12126.4
12149.8
12181.5
12222.7
12274.8
12339.2
12417.5
12511.2
12621.6
12749.8
12896.3
13061.1
13243.2
12300.2
12322.5
12360.5
12400.8
12429.5
12443.1
12444.2
12435.4
12418.7
12396.3
12370.1
12341.8
12312.6
12283.2
12254.4
12226.5
12199.7
12174.2
12150.2
12127.7
12106.8
12087.5
12069.8
12053.9
12039.9
12027.9
12018.2
12010.9
12006.3
12004.9
12007
12013.2
12024.1
12040.4
12063
12092.9
12131.1
12179.1
12238.4
12310.5
12397.6
12501.6
12624.7
12769.2
12937.4
13131.1
13351.7
13599.4
13873.5
14171.8
12243.7
12288.3
12360.3
12433.1
12489.2
12531
12563.9
12588.4
12604.2
12612.3
12613.6
12609.5
12600.7
12588
12572.3
12554.2
12534.3
12513.1
12491.1
12468.9
12446.6
12424.8
12403.9
12384.1
12365.9
12349.6
12335.8
12324.8
12317.2
12313.7
12314.8
12321.5
12334.5
12354.9
12383.9
12422.9
12473.5
12537.4
12616.7
12713.8
12831.2
12971.8
13138.5
13334.6
13563.1
13826.5
14126.7
14464.1
14836.9
15241.2
12132.5
12218.3
12326.8
12389.5
12393.1
12366.2
12329.4
12289
12248.2
12209.7
12175.2
12144.7
12118.1
12094.9
12074.7
12057.2
12041.8
12028.4
12016.8
12006.9
11998.6
11992
11987.2
11984.4
11983.8
11985.7
11990.6
11998.8
12011
12027.9
12050.2
12078.9
12115
12159.9
12214.9
12281.7
12362.4
12459.1
12574.5
12711.4
12873.1
13063.4
13286
13545.3
13845.5
14190.3
14582.8
15024.3
15513.4
16045.9
11930.5
12179.8
12496.9
12729.3
12870.3
12961
13015.1
13036.2
13032.5
13012.7
12982.8
12946.4
12906.2
12863.9
12821.1
12778.6
12737
12696.9
12658.6
12622.5
12588.7
12557.6
12529.4
12504.5
12483.1
12465.6
12452.6
12444.6
12442.2
12446.2
12457.5
12477.1
12506.3
12546.6
12599.5
12667.1
12751.6
12855.7
12982.3
13135.1
13317.8
13535
13791.6
14092.9
14444.6
14852.2
15320.4
15852.1
16446.4
17098
11392.8
11802.1
11994.1
11923.3
11822.3
11780.5
11770.9
11771.2
11778.5
11792
11809
11826.8
11844.3
11860.5
11875.3
11888.5
11900.1
11910.4
11919.7
11928.3
11936.5
11944.8
11953.7
11963.7
11975.2
11989
12005.7
12026.1
12051.1
12081.5
12118.6
12163.6
12218
12283.5
12362.1
12456
12567.9
12700.8
12858.2
13044.1
13263.2
13520.7
13822.7
14176
14587.9
15066.5
15619.5
16253.6
16971.9
17773
11045.3
13215.6
14399.2
14502.8
14347.5
14177.6
13993.4
13804.9
13629.9
13474.7
13338.7
13219.3
13114.4
13022
12940.1
12867.3
12802.3
12744.2
12692.2
12645.9
12604.8
12568.7
12537.7
12511.6
12490.7
12475.2
12465.7
12462.5
12466.5
12478.4
12499.4
12530.5
12573.3
12629.6
12701.3
12790.8
12901
13035
13196.7
13390.6
13621.7
13896.2
14221.1
14604.5
15055.8
15585.8
16206.5
16930
17766.4
18721.2
3716.55
8305.97
9808.25
10375.5
10811.2
11138.5
11365.2
11528
11650.3
11743.2
11814.1
11868.7
11910.8
11943.5
11968.8
11988.4
12003.7
12015.7
12025.4
12033.6
12041
12048.2
12056.1
12065.1
12076.1
12089.8
12106.9
12128.4
12155.3
12188.6
12229.7
12280
12341.1
12415.1
12504.2
12611
12738.4
12890.1
13070
13283.1
13535
13832.2
14182.7
14595.8
15082.9
15657.7
16337.1
17141.6
18095
19223.2
29251.9
21089.9
17057.4
15540.1
14707.1
14100.3
13679
13397.6
13201
13054.2
12939.5
12847.4
12771.2
12706.8
12651.3
12602.8
12560.1
12522.2
12488.7
12459.1
12433.4
12411.4
12393.4
12379.5
12370
12365.4
12366.2
12373.1
12387
12408.8
12439.7
12481
12534.5
12602
12685.7
12788.3
12912.8
13062.8
13242.6
13457
13711.9
14014.4
14372.6
14797
15300
15897.9
16612.5
17474.5
18530.8
19863.6
-20153
-15537.8
-13966.7
-10008.5
-8041.32
-4623.33
-2521.32
534.334
2639.81
5449.05
7480.42
10124.5
12023.7
14571.8
16279.8
18803.5
20236.1
22820.3
23821.5
26455.5
-20082.9
-15479.8
-13917.6
-9960.6
-7999.38
-4578.99
-2481.76
577.005
2679.01
5491.35
7520.19
10167.8
12065.3
14618.2
16326
18857.6
20294
22894
23910.1
26583.6
-20021.1
-15419.8
-13866.3
-9909.46
-7954.09
-4531.79
-2438.83
622.631
2721.52
5536.97
7563.62
10214.9
12111.4
14669.1
16377.8
18916.5
20357.5
22969.1
23995.9
26687.8
-19963.6
-15360.4
-13813.8
-9856.35
-7906.42
-4482.17
-2393.29
670.84
2766.73
5585.33
7609.96
10265
12160.6
14723.1
16432.7
18977.5
20422.4
23042.1
24074.9
26775.4
-19908.4
-15301.7
-13760.8
-9801.91
-7857
-4430.59
-2345.63
721.215
2814.17
5635.95
7658.61
10317.4
12212.1
14778.9
16489.1
19039.3
20486.6
23111.9
24147.6
26853.4
-19854.2
-15243.5
-13707.3
-9746.54
-7806.25
-4377.47
-2296.29
773.343
2863.42
5688.36
7709.02
10371.4
12265.1
14835.9
16546.3
19100.7
20549.3
23178.8
24215.4
26925.3
-19800.5
-15185.4
-13653.5
-9690.44
-7754.49
-4323.13
-2245.62
826.859
2914.08
5742.11
7760.72
10426.4
12318.9
14893.3
16603.5
19161.4
20610.3
23243.1
24279.5
26992.8
-19747
-15127.2
-13599.3
-9633.75
-7701.92
-4267.85
-2193.91
881.446
2965.8
5796.87
7813.33
10482.2
12373.3
14950.9
16660.4
19221.3
20669.8
23305.2
24340.9
27057.2
-19693.4
-15069
-13544.8
-9576.56
-7648.71
-4211.83
-2141.4
936.842
3018.32
5852.33
7866.55
10538.4
12427.8
15008.3
16716.8
19280.3
20727.8
23365.5
24400.1
27119.2
-19639.6
-15010.5
-13490
-9518.97
-7595
-4155.23
-2088.28
992.833
3071.41
5908.26
7920.14
10594.8
12482.4
15065.5
16772.6
19338.5
20784.6
23424.4
24457.5
27179.4
-19585.7
-14951.8
-13435
-9461.03
-7540.9
-4098.21
-2034.71
1049.25
3124.89
5964.48
7973.94
10651.2
12536.9
15122.4
16827.8
19395.8
20840.4
23481.9
24513.5
27238.1
-19531.7
-14892.9
-13379.7
-9402.83
-7486.51
-4040.87
-1980.83
1105.95
3178.62
6020.86
8027.83
10707.6
12591.1
15178.9
16882.5
19452.5
20895.3
23538.5
24568.4
27295.7
-19477.5
-14833.9
-13324.3
-9344.4
-7431.89
-3983.3
-1926.73
1162.82
3232.5
6077.3
8081.7
10763.8
12645.2
15235
16936.7
19508.4
20949.3
23594.2
24622.4
27352.3
-19423.1
-14774.7
-13268.7
-9285.82
-7377.12
-3925.59
-1872.49
1219.78
3286.43
6133.7
8135.49
10819.8
12698.9
15290.7
16990.3
19563.8
21002.7
23649.1
24675.5
27408
-19368.7
-14715.4
-13213
-9227.14
-7322.26
-3867.8
-1818.19
1276.75
3340.35
6190.02
8189.16
10875.6
12752.4
15346
17043.5
19618.7
21055.5
23703.3
24727.9
27463.1
-19314.2
-14656
-13157.3
-9168.39
-7267.35
-3809.98
-1763.88
1333.7
3394.22
6246.21
8242.67
10931.1
12805.6
15400.9
17096.2
19673
21107.7
23756.9
24779.6
27517.5
-19259.7
-14596.5
-13101.5
-9109.62
-7212.44
-3752.19
-1709.61
1390.55
3448
6302.23
8295.99
10986.4
12858.4
15455.5
17148.6
19726.9
21159.4
23810.1
24830.9
27571.4
-19205.1
-14537.1
-13045.8
-9050.87
-7157.57
-3694.44
-1655.4
1447.3
3501.64
6358.07
8349.11
11041.4
12911
15509.7
17200.5
19780.3
21210.6
23862.7
24881.6
27624.8
-19150.7
-14477.6
-12990.2
-8992.16
-7102.77
-3636.79
-1601.29
1503.9
3555.14
6413.69
8402.02
11096.1
12963.3
15563.6
17252.2
19833.4
21261.5
23914.9
24931.9
27677.7
-19096.2
-14418.3
-12934.6
-8933.54
-7048.07
-3579.26
-1547.31
1560.33
3608.48
6469.09
8454.7
11150.6
13015.3
15617.1
17303.4
19886.1
21311.9
23966.7
24981.8
27730.3
-19041.9
-14358.9
-12879.1
-8875.02
-6993.48
-3521.87
-1493.47
1616.58
3661.63
6524.26
8507.16
11204.7
13067.1
15670.4
17354.3
19938.4
21362
24018.1
25031.2
27782.5
-18987.7
-14299.7
-12823.7
-8816.63
-6939.04
-3464.64
-1439.8
1672.62
3714.59
6579.18
8559.39
11258.6
13118.5
15723.3
17405
19990.3
21411.7
24069.2
25080.4
27834.3
-18933.6
-14240.7
-12768.5
-8758.38
-6884.75
-3407.59
-1386.29
1728.45
3767.35
6633.85
8611.39
11312.2
13169.7
15775.8
17455.3
20042
21461.2
24120
25129.1
27885.8
-18879.7
-14181.7
-12713.5
-8700.3
-6830.64
-3350.73
-1332.98
1784.06
3819.9
6688.27
8663.16
11365.5
13220.7
15828.1
17505.3
20093.3
21510.3
24170.4
25177.6
27937
-18826
-14122.9
-12658.6
-8642.4
-6776.72
-3294.07
-1279.86
1839.44
3872.24
6742.42
8714.69
11418.5
13271.3
15880.1
17555.1
20144.3
21559.1
24220.5
25225.7
27987.9
-18772.5
-14064.3
-12604
-8584.68
-6722.99
-3237.63
-1226.95
1894.57
3924.37
6796.31
8765.98
11471.3
13321.7
15931.8
17604.6
20195.1
21607.6
24270.3
25273.5
28038.4
-18719.1
-14005.9
-12549.5
-8527.18
-6669.47
-3181.42
-1174.25
1949.45
3976.27
6849.93
8817.04
11523.7
13371.9
15983.2
17653.8
20245.5
21655.8
24319.8
25321.1
28088.7
-18666
-13947.7
-12495.3
-8469.88
-6616.16
-3125.44
-1121.77
2004.08
4027.94
6903.29
8867.86
11575.9
13421.8
16034.3
17702.7
20295.6
21703.8
24369.1
25368.3
28138.8
-18613.1
-13889.6
-12441.3
-8412.81
-6563.08
-3069.7
-1069.5
2058.46
4079.39
6956.36
8918.44
11627.8
13471.5
16085.1
17751.4
20345.5
21751.4
24418
25415.3
28188.5
-18560.5
-13831.8
-12387.5
-8355.97
-6510.22
-3014.21
-1017.47
2112.56
4130.6
7009.16
8968.79
11679.4
13520.9
16135.7
17799.8
20395.1
21798.8
24466.7
25462
28238
-18508
-13774.2
-12334
-8299.37
-6457.6
-2958.97
-965.67
2166.4
4181.59
7061.68
9018.9
11730.7
13570.1
16185.9
17847.9
20444.4
21846
24515.2
25508.4
28287.3
-18455.9
-13716.9
-12280.7
-8243.01
-6405.22
-2903.99
-914.102
2219.97
4232.34
7113.92
9068.77
11781.8
13619
16235.9
17895.9
20493.4
21892.9
24563.3
25554.5
28336.3
-18404
-13659.8
-12227.7
-8186.9
-6353.08
-2849.28
-862.772
2273.26
4282.85
7165.88
9118.4
11832.5
13667.7
16285.6
17943.5
20542.1
21939.5
24611.2
25600.4
28385
-18352.3
-13602.9
-12174.9
-8131.04
-6301.19
-2794.83
-811.682
2326.27
4333.13
7217.55
9167.8
11883
13716.1
16335
17990.9
20590.6
21985.8
24658.8
25646
28433.4
-18300.9
-13546.2
-12122.4
-8075.44
-6249.55
-2740.66
-760.833
2379
4383.17
7268.93
9216.96
11933.1
13764.3
16384.1
18038.1
20638.7
22032
24706.2
25691.3
28481.7
-18249.8
-13489.9
-12070.2
-8020.11
-6198.16
-2686.76
-710.229
2431.45
4432.97
7320.02
9265.88
11983
13812.3
16432.9
18085
20686.7
22077.8
24753.2
25736.4
28529.6
-18198.9
-13433.7
-12018.2
-7965.05
-6147.03
-2633.14
-659.87
2483.6
4482.54
7370.82
9314.55
12032.6
13860
16481.4
18131.6
20734.3
22123.4
24800.1
25781.2
28577.3
-18148.4
-13377.9
-11966.5
-7910.25
-6096.15
-2579.8
-609.758
2535.47
4531.86
7421.32
9363
12081.9
13907.4
16529.7
18178.1
20781.7
22168.7
24846.6
25825.8
28624.8
-18098.1
-13322.3
-11915
-7855.73
-6045.54
-2526.74
-559.895
2587.04
4580.93
7471.53
9411.2
12130.9
13954.7
16577.7
18224.2
20828.7
22213.8
24892.9
25870
28672
-18048.1
-13266.9
-11863.9
-7801.48
-5995.18
-2473.98
-510.281
2638.32
4629.77
7521.44
9459.16
12179.6
14001.7
16625.4
18270.1
20875.5
22258.6
24939
25914.1
28719
-17998.3
-13211.8
-11813
-7747.51
-5945.09
-2421.5
-460.917
2689.3
4678.36
7571.04
9506.88
12228
14048.4
16672.7
18315.8
20922.1
22303.2
24984.8
25957.8
28765.7
-17948.9
-13157
-11762.4
-7693.83
-5895.26
-2369.32
-411.805
2739.98
4726.71
7620.35
9554.36
12276.1
14094.9
16719.9
18361.2
20968.3
22347.5
25030.3
26001.3
28812.1
-17899.7
-13102.5
-11712.1
-7640.43
-5845.7
-2317.43
-362.945
2790.36
4774.82
7669.35
9601.6
12323.9
14141.2
16766.7
18406.4
21014.3
22391.6
25075.5
26044.5
28858.3
-17850.9
-13048.2
-11662.1
-7587.31
-5796.41
-2265.84
-314.338
2840.43
4822.68
7718.04
9648.6
12371.4
14187.2
16813.2
18451.3
21060
22435.4
25120.5
26087.5
28904.3
-17802.3
-12994.2
-11612.3
-7534.49
-5747.38
-2214.55
-265.984
2890.19
4870.3
7766.43
9695.36
12418.6
14233
16859.4
18496
21105.4
22478.9
25165.3
26130.2
28950
-17754
-12940.5
-11562.8
-7481.95
-5698.62
-2163.56
-217.885
2939.65
4917.67
7814.5
9741.87
12465.5
14278.5
16905.3
18540.4
21150.6
22522.2
25209.7
26172.6
28995.4
-17706
-12887.1
-11513.7
-7429.71
-5650.13
-2112.88
-170.039
2988.79
4964.8
7862.27
9788.15
12512.1
14323.8
16951
18584.6
21195.4
22565.3
25253.9
26214.7
29040.7
-17658.3
-12833.9
-11464.8
-7377.77
-5601.9
-2062.5
-122.449
3037.62
5011.69
7909.71
9834.18
12558.4
14368.8
16996.3
18628.6
21240
22608
25297.8
26256.6
29085.6
-17610.9
-12781
-11416.2
-7326.12
-5553.95
-2012.44
-75.1138
3086.13
5058.32
7956.85
9879.98
12604.4
14413.6
17041.3
18672.2
21284.3
22650.6
25341.5
26298.3
29130.3
-17563.8
-12728.4
-11367.9
-7274.77
-5506.27
-1962.68
-28.0339
3134.33
5104.71
8003.66
9925.53
12650
14458.2
17086.1
18715.7
21328.3
22692.8
25384.9
26339.6
29174.7
-17517
-12676.1
-11319.9
-7223.72
-5458.86
-1913.24
18.7904
3182.2
5150.86
8050.15
9970.84
12695.4
14502.5
17130.5
18758.9
21372
22734.8
25428
26380.7
29218.9
-17470.5
-12624.1
-11272.1
-7172.97
-5411.72
-1864.11
65.3591
3229.76
5196.76
8096.32
10015.9
12740.4
14546.6
17174.6
18801.8
21415.4
22776.6
25470.9
26421.5
29262.8
-17424.3
-12572.4
-11224.7
-7122.52
-5364.86
-1815.3
111.672
3276.99
5242.42
8142.17
10060.7
12785.1
14590.4
17218.5
18844.5
21458.5
22818.1
25513.5
26462.1
29306.5
-17378.4
-12520.9
-11177.6
-7072.39
-5318.26
-1766.8
157.729
3323.89
5287.82
8187.69
10105.3
12829.5
14634
17262
18886.9
21501.4
22859.3
25555.8
26502.3
29349.9
-17332.8
-12469.8
-11130.7
-7022.56
-5271.94
-1718.63
203.531
3370.47
5332.99
8232.88
10149.7
12873.5
14677.3
17305.2
18929.1
21543.9
22900.3
25597.8
26542.3
29393
-17287.5
-12418.9
-11084.1
-6973.03
-5225.89
-1670.78
249.076
3416.71
5377.91
8277.74
10193.8
12917.3
14720.4
17348.1
18971
21586.2
22941
25639.6
26582.1
29435.9
-17242.5
-12368.4
-11037.9
-6923.83
-5180.12
-1623.26
294.367
3462.63
5422.58
8322.27
10237.6
12960.7
14763.3
17390.7
19012.7
21628.2
22981.4
25681.1
26621.5
29478.5
-17197.9
-12318.1
-10991.9
-6874.93
-5134.61
-1576.06
339.402
3508.21
5467.01
8366.47
10281.2
13003.8
14805.9
17433
19054.1
21669.8
23021.6
25722.3
26660.7
29520.9
-17153.5
-12268.1
-10946.3
-6826.35
-5089.38
-1529.19
384.181
3553.45
5511.19
8410.33
10324.6
13046.6
14848.2
17474.9
19095.3
21711.2
23061.5
25763.2
26699.6
29563
-17109.4
-12218.4
-10900.9
-6778.08
-5044.42
-1482.65
428.706
3598.36
5555.13
8453.86
10367.7
13089
14890.4
17516.6
19136.2
21752.3
23101.1
25803.9
26738.2
29604.8
-17065.6
-12169.1
-10855.8
-6730.13
-4999.73
-1436.45
472.977
3642.92
5598.82
8497.04
10410.6
13131.1
14932.2
17557.9
19176.9
21793.1
23140.5
25844.3
26776.6
29646.4
-17022.2
-12120
-10811
-6682.5
-4955.32
-1390.58
516.993
3687.14
5642.27
8539.89
10453.3
13172.9
14973.9
17599
19217.3
21833.6
23179.7
25884.4
26814.7
29687.7
-16979
-12071.2
-10766.5
-6635.2
-4911.17
-1345.04
560.755
3731.02
5685.48
8582.39
10495.7
13214.4
15015.2
17639.7
19257.4
21873.8
23218.5
25924.2
26852.5
29728.8
-16936.2
-12022.7
-10722.3
-6588.21
-4867.3
-1299.85
604.265
3774.56
5728.44
8624.55
10537.9
13255.5
15056.4
17680
19297.3
21913.7
23257.1
25963.7
26890
29769.5
-16893.6
-11974.5
-10678.4
-6541.55
-4823.7
-1255
647.521
3817.74
5771.17
8666.36
10579.8
13296.2
15097.3
17720.1
19337
21953.3
23295.4
26003
26927.2
29810.1
-16851.4
-11926.7
-10634.8
-6495.22
-4780.37
-1210.48
690.526
3860.58
5813.64
8707.82
10621.5
13336.7
15137.9
17759.8
19376.4
21992.5
23333.5
26042
26964.2
29850.3
-16809.4
-11879.1
-10591.5
-6449.21
-4737.31
-1166.32
733.279
3903.06
5855.88
8748.93
10662.9
13376.8
15178.3
17799.3
19415.5
22031.5
23371.3
26080.7
27000.9
29890.3
-16767.8
-11831.8
-10548.5
-6403.54
-4694.52
-1122.5
775.781
3945.19
5897.88
8789.69
10704.1
13416.5
15218.5
17838.4
19454.4
22070.2
23408.8
26119.1
27037.3
29930
-16726.5
-11784.9
-10505.8
-6358.19
-4651.99
-1079.03
818.033
3986.96
5939.64
8830.1
10745.1
13456
15258.4
17877.1
19493
22108.6
23446.1
26157.2
27073.4
29969.4
-16685.5
-11738.2
-10463.4
-6313.18
-4609.74
-1035.91
860.036
4028.37
5981.15
8870.15
10785.8
13495
15298
17915.6
19531.4
22146.6
23483.1
26195.1
27109.2
30008.6
-16644.8
-11691.9
-10421.3
-6268.51
-4567.75
-993.139
901.791
4069.43
6022.43
8909.85
10826.3
13533.7
15337.5
17953.7
19569.5
22184.4
23519.8
26232.6
27144.8
30047.5
-16604.4
-11645.9
-10379.4
-6224.17
-4526.03
-950.727
943.297
4110.12
6063.47
8949.19
10866.6
13572.1
15376.6
17991.5
19607.4
22221.9
23556.3
26269.9
27180.1
30086.1
-16564.3
-11600.1
-10337.9
-6180.17
-4484.58
-908.672
984.558
4150.45
6104.27
8988.16
10906.6
13610.2
15415.6
18028.9
19645
22259
23592.5
26306.9
27215.1
30124.5
-16524.5
-11554.7
-10296.6
-6136.51
-4443.39
-866.976
1025.57
4190.41
6144.84
9026.78
10946.4
13647.8
15454.3
18066.1
19682.3
22295.8
23628.4
26343.6
27249.8
30162.6
-16485.1
-11509.7
-10255.7
-6093.19
-4402.46
-825.642
1066.34
4230
6185.17
9065.03
10985.9
13685.2
15492.7
18102.8
19719.4
22332.4
23664.1
26380
27284.2
30200.4
-16445.9
-11464.9
-10215
-6050.22
-4361.8
-784.671
1106.87
4269.22
6225.26
9102.91
11025.2
13722.1
15530.9
18139.3
19756.3
22368.6
23699.5
26416.1
27318.3
30237.9
-16407.1
-11420.4
-10174.7
-6007.6
-4321.4
-744.067
1147.15
4308.07
6265.12
9140.43
11064.3
13758.8
15568.9
18175.4
19792.9
22404.5
23734.6
26452
27352.2
30275.2
-16368.5
-11376.3
-10134.6
-5965.32
-4281.26
-703.83
1187.2
4346.55
6304.75
9177.58
11103.2
13795
15606.6
18211.2
19829.2
22440.1
23769.4
26487.5
27385.7
30312.2
-16330.3
-11332.4
-10094.8
-5923.39
-4241.38
-663.964
1227
4384.65
6344.14
9214.36
11141.8
13831
15644
18246.7
19865.3
22475.3
23804
26522.8
27419
30348.9
-16292.3
-11288.9
-10055.3
-5881.81
-4201.76
-624.47
1266.57
4422.37
6383.31
9250.76
11180.1
13866.5
15681.3
18281.8
19901.1
22510.3
23838.3
26557.8
27452
30385.3
-16254.7
-11245.8
-10016.1
-5840.59
-4162.39
-585.351
1305.9
4459.71
6422.24
9286.79
11218.3
13901.7
15718.3
18316.6
19936.7
22544.9
23872.4
26592.4
27484.7
30421.5
-16217.4
-11202.9
-9977.19
-5799.72
-4123.27
-546.609
1344.99
4496.66
6460.95
9322.45
11256.2
13936.6
15755
18351
19972
22579.3
23906.1
26626.8
27517.1
30457.4
-16180.4
-11160.3