/*--------------------------------*- C++ -*----------------------------------*\
  =========                 |
  \\      /  F ield         | OpenFOAM: The Open Source CFD Toolbox
   \\    /   O peration     | Website:  https://openfoam.org
    \\  /    A nd           | Version:  8
     \\/     M anipulation  |
\*---------------------------------------------------------------------------*/
FoamFile
{
    version     2.0;
    format      ascii;
    class       volScalarField;
    location    "200";
    object      alphat;
}
// * * * * * * * * * * * * * * * * * * * * * * * * * * * * * * * * * * * * * //

dimensions      [1 -1 -1 0 0 0 0];

internalField   nonuniform List<scalar> 
8400
(
0.050757
0.0494459
0.0477161
0.0457509
0.043608
0.041396
0.0393317
0.037831
0.0376232
0.0392786
0.0415874
0.0416246
0.0402762
0.0389041
0.037944
0.0375335
0.0377405
0.038764
0.0403807
0.0416584
0.0424868
0.0428303
0.0426548
0.0422326
0.0417963
0.0413433
0.0408754
0.0403903
0.0398897
0.0393778
0.0387806
0.0381947
0.0376716
0.0372094
0.036805
0.0364518
0.0361417
0.0358673
0.0356221
0.0353988
0.0351911
0.0349948
0.0348066
0.0346238
0.0344439
0.0342649
0.0340859
0.0339079
0.033733
0.0335648
0.0583416
0.0570437
0.055023
0.0528717
0.0500439
0.0462776
0.0413695
0.0348945
0.026783
0.0180757
0.0182627
0.0213838
0.0241957
0.0258508
0.0270865
0.0259233
0.0226027
0.018433
0.0185069
0.0188427
0.0192674
0.0195731
0.0198657
0.0199695
0.0196344
0.0190622
0.0183853
0.0177039
0.0170936
0.0166072
0.0164566
0.0164325
0.0164133
0.0163988
0.0163895
0.0163847
0.016384
0.0163874
0.0163946
0.0164047
0.016417
0.0164316
0.0164484
0.0164669
0.0164865
0.0165067
0.0165271
0.0165474
0.0165676
0.0165876
0.0611515
0.0611091
0.0610527
0.0609282
0.0607016
0.0603359
0.0597599
0.059137
0.057971
0.0276384
0.0302886
0.0376752
0.0405144
0.0439683
0.0461099
0.041783
0.0366232
0.0192303
0.0176207
0.0160977
0.0158529
0.0158049
0.0159346
0.0159723
0.015945
0.0159001
0.0158674
0.0158607
0.0158827
0.0159269
0.0160216
0.0161089
0.0161651
0.0161917
0.0161944
0.0161811
0.0161603
0.0161392
0.0161228
0.0161137
0.0161129
0.0161207
0.016137
0.0161611
0.0161922
0.016229
0.0162702
0.0163151
0.0163634
0.0164146
0.0611716
0.0610971
0.0610203
0.0609408
0.0608568
0.0607689
0.0606761
0.0604934
0.0602463
0.0581379
0.0556278
0.0533227
0.0520269
0.0527588
0.0531607
0.0541576
0.0596733
0.0237676
0.0251863
0.0172363
0.0162056
0.0162797
0.0163405
0.01646
0.0166202
0.0168125
0.0170305
0.0172675
0.0175136
0.0177559
0.0180951
0.0183605
0.0184949
0.0185043
0.0184092
0.018239
0.0180266
0.0178016
0.0175872
0.0173994
0.0172458
0.0171275
0.017042
0.0169847
0.0169503
0.0169334
0.0169299
0.0169376
0.0169547
0.0169797
0.06117
0.061095
0.0610173
0.0609385
0.0608556
0.0607728
0.0606844
0.0605873
0.0604736
0.0601606
0.0595172
0.0587005
0.0579648
0.0575365
0.0572117
0.057272
0.0578521
0.0563107
0.0558123
0.0191759
0.0190617
0.0188009
0.0189101
0.0192178
0.0196479
0.0201582
0.0207206
0.0213082
0.0218915
0.022436
0.0231385
0.0236341
0.0238543
0.023809
0.0235257
0.0230475
0.0224303
0.0217362
0.0210271
0.020357
0.0197656
0.0192741
0.0188868
0.0185952
0.0183839
0.0182359
0.0181362
0.0180727
0.0180359
0.0180188
0.0611547
0.0610622
0.0609681
0.0608739
0.0607784
0.0606845
0.060591
0.0604987
0.0604028
0.0602772
0.0600571
0.0597283
0.0593329
0.0589421
0.0585734
0.0584492
0.0584481
0.0573914
0.0543294
0.0448843
0.0223146
0.0223322
0.0228816
0.0236663
0.0245884
0.0255994
0.0266562
0.0277179
0.0287355
0.0296435
0.0306392
0.0312697
0.0315533
0.0315082
0.0311559
0.030519
0.0296226
0.0285078
0.0272346
0.0258802
0.0245299
0.0232656
0.0221512
0.0212235
0.0204907
0.0199391
0.019542
0.0192683
0.0190883
0.0189771
0.0611432
0.0610364
0.0609264
0.0608146
0.0607059
0.0605947
0.0604871
0.0603821
0.0602793
0.0601746
0.0600444
0.0598655
0.0596317
0.0593559
0.0590641
0.0588926
0.0586531
0.0576387
0.0547984
0.0480327
0.0322926
0.0256843
0.0269381
0.0283876
0.0299172
0.031473
0.0330092
0.0344911
0.0358574
0.037022
0.0379681
0.0385245
0.0388165
0.0388621
0.0386659
0.0382262
0.0375331
0.0365787
0.0353644
0.0339053
0.0322353
0.0304145
0.0285294
0.0266832
0.0249774
0.0234906
0.0222642
0.0213025
0.0205806
0.0200584
0.0611269
0.0609968
0.060868
0.0607401
0.0606158
0.0604888
0.0603669
0.0602474
0.0601336
0.0600222
0.0599086
0.0597776
0.0596147
0.0594171
0.0591966
0.0590174
0.0586799
0.0576604
0.0550224
0.0493616
0.0385277
0.0291277
0.0306857
0.0325884
0.0343969
0.0361546
0.0378124
0.0393344
0.0406744
0.0417926
0.0423199
0.04272
0.0430144
0.0431826
0.0432069
0.043075
0.0427784
0.0423099
0.0416595
0.0408076
0.0397272
0.0383926
0.0367904
0.0349354
0.032881
0.0307208
0.0285753
0.0265668
0.0247909
0.0232944
0.0611052
0.0609437
0.0607864
0.0606344
0.0604848
0.0603411
0.0602052
0.0600749
0.0599531
0.0598355
0.0597219
0.0596075
0.0594802
0.0593304
0.0591611
0.0589902
0.0586177
0.0576108
0.0551865
0.0503429
0.0419651
0.0333837
0.0320955
0.0357126
0.0377301
0.0393125
0.040632
0.041733
0.0426112
0.0432954
0.0435302
0.0439383
0.0443845
0.0447474
0.0449722
0.0450448
0.0449737
0.0447771
0.0444718
0.0440691
0.0435694
0.0429596
0.0422107
0.0412782
0.0401126
0.0386744
0.0369537
0.0349779
0.0328279
0.0306254
0.061063
0.0608498
0.0606515
0.0604622
0.0602836
0.0601213
0.0599752
0.0598435
0.0597198
0.0596045
0.0594972
0.059391
0.0592826
0.0591679
0.05904
0.0588853
0.0585057
0.0575312
0.0553277
0.05118
0.0444876
0.0371275
0.0335879
0.0351337
0.0388697
0.0406241
0.0417358
0.0424156
0.0425374
0.042489
0.0426705
0.0434622
0.0443664
0.0450961
0.0455916
0.045863
0.0459465
0.0458809
0.0456945
0.0454108
0.0450486
0.0446201
0.0441317
0.0435763
0.0429471
0.0422429
0.0414792
0.0406443
0.0396737
0.0384435
0.0609874
0.0606722
0.0604061
0.060172
0.059977
0.059811
0.059667
0.0595408
0.0594227
0.0593155
0.0592194
0.05913
0.0590487
0.0589673
0.0588723
0.058733
0.0583569
0.0574256
0.0554366
0.0518922
0.0464922
0.0404261
0.0363064
0.035529
0.0371843
0.0388322
0.0398194
0.0400081
0.0388327
0.0351038
0.0403998
0.0421424
0.043853
0.045081
0.0458874
0.0463695
0.0466074
0.0466603
0.0465713
0.0463737
0.0460935
0.0457482
0.0453463
0.0448867
0.0443686
0.0437948
0.0431743
0.0425121
0.0417996
0.0410257
0.0608057
0.0602354
0.0599316
0.059703
0.05953
0.0593827
0.0592609
0.0591545
0.0590563
0.0589794
0.0589079
0.0588423
0.0587914
0.0587406
0.0586749
0.0585489
0.0581769
0.0572868
0.0554909
0.0524637
0.0480957
0.043214
0.0394023
0.0376341
0.0375987
0.0381868
0.0386483
0.0387379
0.0384427
0.0384847
0.0401437
0.0423289
0.0441493
0.0454658
0.0463504
0.0469004
0.047196
0.0472995
0.0472586
0.0471093
0.0468781
0.0465837
0.0462362
0.0458417
0.0454054
0.0449331
0.0444297
0.0438963
0.0433296
0.042728
0.0600652
0.0595641
0.0593164
0.0591274
0.0589872
0.0588734
0.0587834
0.0587131
0.0586536
0.0586108
0.0585708
0.0585387
0.0585196
0.0584975
0.0584599
0.0583384
0.0579596
0.0571004
0.0554699
0.0528813
0.049349
0.0454892
0.0423001
0.0404018
0.0396848
0.0396368
0.0398136
0.0400396
0.0403626
0.04101
0.0422157
0.0437077
0.0450764
0.0461614
0.0469395
0.0474445
0.0477254
0.0478304
0.047801
0.0476702
0.047463
0.0471968
0.0468834
0.0465315
0.0461485
0.0457398
0.0453088
0.0448571
0.0443843
0.0438901
0.0591157
0.0587744
0.058591
0.058457
0.0583648
0.0583018
0.0582621
0.0582377
0.0582251
0.0582215
0.058222
0.058231
0.0582427
0.0582399
0.0582072
0.0580775
0.0577174
0.0568611
0.0553564
0.0531391
0.0502895
0.0472859
0.0447715
0.0431246
0.0423032
0.0420558
0.0421422
0.0424394
0.0429267
0.0435809
0.0444891
0.0455154
0.0464507
0.0472053
0.0477539
0.0481065
0.0482896
0.0483338
0.0482685
0.0481191
0.0479058
0.0476433
0.0473425
0.0470119
0.0466585
0.0462877
0.0459022
0.0455044
0.0450946
0.044672
0.0581094
0.0579255
0.057825
0.0577673
0.0577392
0.0577392
0.0577569
0.0577811
0.0578147
0.0578537
0.0578903
0.0579244
0.0579487
0.0579447
0.057891
0.0577303
0.0573555
0.0565663
0.0551987
0.0532373
0.0509527
0.0486576
0.0467652
0.0454902
0.044803
0.044565
0.044638
0.0449255
0.0453677
0.0459136
0.0465349
0.0471922
0.0477773
0.0482387
0.0485589
0.048742
0.0488035
0.048763
0.0486404
0.0484536
0.0482173
0.0479429
0.0476395
0.0473145
0.0469743
0.0466236
0.0462654
0.0459015
0.0455325
0.0451573
0.0572189
0.0571663
0.0571527
0.0571673
0.0572008
0.0572518
0.057311
0.0573717
0.0574317
0.0574897
0.0575392
0.0575745
0.0575871
0.0575605
0.0574694
0.0572669
0.0568722
0.0561525
0.0549899
0.0532334
0.0513779
0.0496655
0.0483071
0.0474028
0.046917
0.0467552
0.0468258
0.0470588
0.0473924
0.047774
0.0481625
0.0485417
0.0488581
0.0490853
0.0492148
0.0492499
0.0492004
0.0490788
0.048898
0.0486701
0.048405
0.0481113
0.0477961
0.0474661
0.047127
0.0467829
0.0464367
0.04609
0.0457434
0.0453971
0.0565321
0.0565587
0.0566016
0.0566562
0.0567206
0.0567923
0.0568633
0.0569314
0.0569934
0.0570462
0.0570849
0.057103
0.0570901
0.0570316
0.0569046
0.0566727
0.0562783
0.0556367
0.0546589
0.0532539
0.0515222
0.0503587
0.0494506
0.0488665
0.0485647
0.0484795
0.0485438
0.0487035
0.0489135
0.0491376
0.0493415
0.0495158
0.0496354
0.0496891
0.049675
0.0495973
0.0494629
0.04928
0.0490568
0.0488004
0.0485162
0.0482095
0.0478852
0.0475485
0.0472038
0.0468544
0.046503
0.0461521
0.045804
0.0454615
0.0559051
0.0559551
0.0560113
0.0560724
0.0561381
0.0562042
0.0562673
0.0563248
0.0563747
0.0564132
0.0564344
0.0564313
0.0563952
0.0563145
0.0561701
0.0559348
0.0555698
0.0550222
0.0542269
0.0530991
0.0515897
0.0507974
0.0502416
0.0499135
0.0497565
0.0497206
0.0497641
0.0498503
0.0499499
0.0500406
0.0500993
0.0501251
0.050113
0.0500626
0.0499756
0.0498546
0.0497025
0.0495221
0.0493156
0.0490841
0.0488283
0.0485497
0.0482498
0.0479302
0.0475919
0.0472357
0.0468623
0.0464737
0.0460732
0.0456642
0.0550622
0.0551044
0.0551508
0.0552011
0.0552548
0.055308
0.0553594
0.055406
0.0554445
0.055471
0.0554812
0.0554688
0.0554268
0.0553454
0.0552113
0.0550058
0.0547039
0.0542723
0.0536647
0.0528077
0.0515873
0.0510078
0.050714
0.050557
0.0504886
0.0504733
0.0504839
0.0504997
0.0505055
0.0504895
0.0505261
0.050573
0.0506242
0.050672
0.0507099
0.0507322
0.0507348
0.0507142
0.0506677
0.050593
0.0504883
0.0503533
0.0501877
0.0499905
0.0497594
0.0494902
0.049177
0.0488098
0.048365
0.047753
0.0638903
0.063339
0.0627888
0.0622331
0.0616748
0.0611166
0.0605619
0.0600132
0.0594716
0.0589364
0.0584064
0.0578793
0.0573513
0.0568174
0.0562708
0.0557028
0.0551029
0.0544581
0.0537499
0.0529369
0.051795
0.0519705
0.0520014
0.0522829
0.0526723
0.0531188
0.0535938
0.0540832
0.0545812
0.0550853
0.0555177
0.0559001
0.0562359
0.0565286
0.0567814
0.0569977
0.0571801
0.0573314
0.0574541
0.0575514
0.0576266
0.0576837
0.0577268
0.0577592
0.0577847
0.0578078
0.0578345
0.0578736
0.0579415
0.0581
0.00545329
0.00542427
0.00539767
0.00537377
0.00535166
0.00532989
0.00530838
0.00528709
0.00526602
0.00524515
0.00522448
0.00520397
0.00518359
0.00516333
0.00514316
0.00512308
0.0051031
0.0050832
0.00506339
0.00504357
0.00500216
0.00500449
0.00499605
0.00498088
0.00494223
0.00490935
0.00488037
0.00485388
0.00482903
0.00480536
0.00478262
0.00476069
0.0047395
0.00471905
0.00469931
0.00468029
0.00466196
0.00464433
0.0046274
0.00461119
0.0045957
0.00458066
0.00456615
0.00455209
0.0045384
0.00452503
0.00451191
0.00449882
0.00448518
0.00446987
0.00538125
0.00525159
0.00513151
0.00501949
0.00491383
0.00481468
0.0047211
0.00463238
0.00454794
0.00446734
0.00439021
0.00431631
0.00424542
0.00417737
0.00411202
0.00404918
0.00398868
0.00393031
0.00387382
0.00381849
0.00373538
0.0160464
0.0160171
0.0159091
0.0157749
0.0157474
0.0157631
0.0157904
0.0158146
0.0158296
0.0158335
0.0158264
0.0158096
0.0157847
0.0157531
0.0157164
0.0156758
0.0156322
0.0155857
0.0155367
0.015485
0.0154317
0.0153768
0.0153199
0.0152607
0.0151986
0.0151335
0.0150655
0.0149948
0.0149198
0.00538145
0.00525151
0.0051299
0.00501581
0.00490793
0.00480553
0.00470801
0.00461487
0.00452567
0.00444005
0.00435769
0.00427833
0.00420176
0.00412778
0.00405623
0.00398696
0.00391982
0.00385468
0.00379155
0.0159062
0.0157753
0.0156459
0.0155201
0.0153968
0.0152806
0.0151694
0.0150632
0.0149608
0.0148612
0.0147636
0.0146674
0.0145722
0.0144778
0.0143843
0.0142917
0.0142003
0.0141101
0.0140214
0.0139346
0.0138496
0.0137663
0.0136845
0.013604
0.0135246
0.0134459
0.0133673
0.013288
0.0132075
0.0131267
0.0130495
0.00538152
0.00525266
0.00513221
0.00501914
0.00491207
0.00481025
0.0047131
0.00462015
0.00453103
0.00444539
0.00436297
0.00428351
0.00420678
0.00413261
0.00406082
0.00399124
0.00392374
0.00385821
0.00379466
0.0159242
0.0157866
0.0156528
0.0155223
0.0153945
0.0152693
0.0151462
0.0150251
0.0149056
0.0147875
0.0146705
0.0145545
0.0144394
0.0143253
0.014212
0.0140999
0.013989
0.0138795
0.0137717
0.0136657
0.0135615
0.0134592
0.0133586
0.0132598
0.0131626
0.0130671
0.0129733
0.0128807
0.0127878
0.0126938
0.0126013
0.00538154
0.00525273
0.00513225
0.00501907
0.00491184
0.00480983
0.00471249
0.00461938
0.00453011
0.00444437
0.00436188
0.00428238
0.00420565
0.00413151
0.00405976
0.00399025
0.00392282
0.00385737
0.00379391
0.0159138
0.0157798
0.0156486
0.01552
0.0153937
0.0152694
0.0151469
0.0150258
0.014906
0.0147872
0.0146692
0.0145519
0.0144351
0.0143189
0.0142034
0.0140887
0.013975
0.0138624
0.0137512
0.0136415
0.0135334
0.0134269
0.0133219
0.0132184
0.0131162
0.0130153
0.012916
0.0128184
0.0127224
0.0126263
0.0125307
0.00538155
0.0052528
0.00513246
0.00501946
0.00491245
0.00481067
0.00471354
0.00462063
0.00453155
0.00444597
0.00436361
0.00428422
0.00420759
0.00413351
0.00406181
0.00399232
0.00392492
0.00385947
0.00379495
0.00365389
0.0154562
0.0154399
0.0153873
0.0153112
0.01522
0.0151192
0.0150125
0.0149021
0.0147894
0.0146752
0.0145602
0.0144447
0.0143292
0.0142137
0.0140987
0.0139844
0.013871
0.0137587
0.0136478
0.0135383
0.0134302
0.0133236
0.0132184
0.0131145
0.0130117
0.0129097
0.0128089
0.0127097
0.0126113
0.0125135
0.00538154
0.00525283
0.00513252
0.00501954
0.00491252
0.0048107
0.00471353
0.00462055
0.0045314
0.00444575
0.00436332
0.00428386
0.00420716
0.00413302
0.00406126
0.00399174
0.0039243
0.00385883
0.00379428
0.00365162
0.0154445
0.0154292
0.0153782
0.0153037
0.0152138
0.0151139
0.0150078
0.0148977
0.0147853
0.0146714
0.0145567
0.0144416
0.0143264
0.0142114
0.0140967
0.0139825
0.0138692
0.0137569
0.0136457
0.0135358
0.0134271
0.0133196
0.0132134
0.0131085
0.0130048
0.012902
0.0127999
0.012699
0.012599
0.0124997
0.00538155
0.00525284
0.00513255
0.00501958
0.00491258
0.00481079
0.00471364
0.00462071
0.0045316
0.004446
0.00436362
0.00428421
0.00420756
0.00413347
0.00406176
0.00399228
0.00392487
0.00385943
0.00379493
0.00365385
0.0154488
0.01543
0.015377
0.0153002
0.0152072
0.0151034
0.0149931
0.0148791
0.0147634
0.0146472
0.0145311
0.0144157
0.0143009
0.0141869
0.0140736
0.0139611
0.0138494
0.0137387
0.0136289
0.0135201
0.0134123
0.0133053
0.0131992
0.0130941
0.01299
0.0128868
0.0127844
0.0126827
0.012582
0.012482
0.00538155
0.00525285
0.00513256
0.0050196
0.00491259
0.00481079
0.00471364
0.0046207
0.00453158
0.00444597
0.00436357
0.00428414
0.00420748
0.00413337
0.00406165
0.00399215
0.00392472
0.00385926
0.00379653
0.0160482
0.0157596
0.0155655
0.0154202
0.0152987
0.0151874
0.0150792
0.0149707
0.0148606
0.014749
0.014636
0.0145222
0.014408
0.0142939
0.0141799
0.0140665
0.0139536
0.0138415
0.0137304
0.0136203
0.0135111
0.013403
0.0132958
0.0131894
0.0130838
0.0129791
0.0128753
0.0127723
0.01267
0.0125686
0.0124681
0.00538156
0.00525285
0.00513255
0.00501958
0.00491256
0.00481077
0.00471363
0.00462069
0.00453158
0.00444597
0.00436358
0.00428417
0.00420751
0.00413343
0.00406171
0.00399221
0.00392477
0.00385929
0.00379574
0.015977
0.0158155
0.015646
0.0154868
0.015342
0.0152096
0.015086
0.0149677
0.0148526
0.0147389
0.0146258
0.0145128
0.0143998
0.0142868
0.0141739
0.0140611
0.0139487
0.0138369
0.0137258
0.0136157
0.0135064
0.013398
0.0132905
0.0131838
0.0130779
0.0129727
0.0128683
0.0127647
0.0126619
0.0125599
0.0124586
0.00538156
0.00525284
0.00513252
0.00501953
0.00491252
0.00481072
0.00471359
0.00462066
0.00453155
0.00444594
0.00436354
0.00428413
0.00420748
0.00413338
0.00406166
0.00399213
0.00392467
0.00385915
0.00379558
0.0159718
0.0158173
0.0156529
0.0154964
0.0153518
0.015218
0.0150923
0.014972
0.014855
0.0147399
0.0146257
0.0145118
0.0143981
0.0142845
0.014171
0.0140578
0.0139451
0.013833
0.0137219
0.0136116
0.0135024
0.013394
0.0132866
0.0131799
0.013074
0.0129687
0.0128641
0.0127602
0.012657
0.0125545
0.0124526
0.00538156
0.00525282
0.00513249
0.00501949
0.00491247
0.00481069
0.00471355
0.00462062
0.0045315
0.00444587
0.00436346
0.00428403
0.00420736
0.00413324
0.00406148
0.00399191
0.0039244
0.00385886
0.0037943
0.00365615
0.0154662
0.0154454
0.0153863
0.0153019
0.0152015
0.015092
0.0149777
0.0148614
0.0147445
0.0146279
0.0145119
0.0143966
0.014282
0.0141682
0.0140551
0.0139427
0.0138313
0.0137208
0.0136113
0.0135027
0.0133948
0.0132877
0.0131812
0.0130752
0.0129697
0.0128646
0.01276
0.0126559
0.0125524
0.0124494
0.00538155
0.00525281
0.00513246
0.00501945
0.00491242
0.00481064
0.00471351
0.00462058
0.00453146
0.00444584
0.00436344
0.00428402
0.00420735
0.00413322
0.00406145
0.00399187
0.00392437
0.00385886
0.00379615
0.0160584
0.0157695
0.0155748
0.0154268
0.0153002
0.0151826
0.0150685
0.0149555
0.0148427
0.0147299
0.0146171
0.0145042
0.0143914
0.0142788
0.0141665
0.0140545
0.0139429
0.0138319
0.0137216
0.0136121
0.0135033
0.0133951
0.0132875
0.0131804
0.0130736
0.0129672
0.0128612
0.0127555
0.0126503
0.0125457
0.0124415
0.00538155
0.0052528
0.00513242
0.00501938
0.00491232
0.00481049
0.00471331
0.00462033
0.00453116
0.00444549
0.00436303
0.00428355
0.00420681
0.00413261
0.00406077
0.00399113
0.00392359
0.00385806
0.00379533
0.0160593
0.0157703
0.0155736
0.0154238
0.0152961
0.0151783
0.0150645
0.0149521
0.0148401
0.0147282
0.014616
0.0145038
0.0143915
0.0142793
0.0141672
0.0140552
0.0139435
0.0138323
0.0137215
0.0136114
0.0135019
0.013393
0.0132845
0.0131764
0.0130687
0.0129613
0.0128542
0.0127474
0.0126411
0.0125355
0.0124304
0.00538155
0.00525279
0.00513239
0.00501933
0.00491226
0.00481045
0.0047133
0.00462036
0.00453125
0.00444563
0.00436322
0.00428378
0.00420707
0.00413289
0.00406107
0.00399146
0.00392395
0.00385844
0.00379571
0.0160589
0.0157758
0.015584
0.0154355
0.0153076
0.0151889
0.0150739
0.0149605
0.0148475
0.0147346
0.0146217
0.0145089
0.014396
0.0142831
0.0141704
0.0140577
0.0139453
0.0138332
0.0137216
0.0136105
0.0135
0.0133901
0.0132806
0.0131715
0.0130627
0.0129543
0.0128462
0.0127387
0.0126317
0.0125256
0.0124203
0.00538156
0.00525274
0.0051322
0.00501895
0.00491166
0.00480961
0.00471224
0.0046191
0.00452981
0.00444404
0.00436149
0.00428193
0.00420511
0.00413085
0.00405896
0.0039893
0.00392175
0.00385621
0.00379166
0.00365293
0.0154498
0.0154306
0.0153741
0.0152924
0.0151948
0.0150876
0.0149753
0.0148606
0.0147449
0.0146291
0.0145137
0.0143987
0.0142843
0.0141703
0.0140567
0.0139436
0.013831
0.013719
0.0136078
0.0134973
0.0133874
0.0132781
0.0131693
0.0130611
0.0129534
0.0128465
0.0127404
0.0126354
0.0125317
0.0124297
0.00538156
0.00525274
0.00513224
0.00501911
0.00491199
0.00481013
0.00471293
0.00461994
0.00453076
0.00444505
0.00436255
0.00428298
0.00420615
0.00413185
0.00405991
0.00399019
0.00392258
0.00385697
0.00379417
0.0160483
0.0157659
0.0155748
0.0154274
0.0153007
0.0151832
0.0150696
0.0149577
0.0148465
0.0147356
0.014625
0.0145148
0.0144046
0.0142946
0.0141847
0.014075
0.0139657
0.0138571
0.0137493
0.0136424
0.0135367
0.0134319
0.0133283
0.0132257
0.0131244
0.0130243
0.0129258
0.012829
0.0127345
0.0126428
0.0125545
0.00538157
0.00525183
0.00513024
0.0050161
0.00490809
0.00480553
0.00470784
0.00461454
0.00452522
0.00443951
0.00435713
0.0042778
0.00420129
0.00412738
0.0040559
0.00398667
0.00391956
0.00385447
0.00379148
0.0159428
0.0158086
0.0156686
0.0155246
0.015384
0.0152497
0.0151229
0.0150036
0.014891
0.0147842
0.0146887
0.0146027
0.0145204
0.0144388
0.0143566
0.0142734
0.0141896
0.0141057
0.0140221
0.0139393
0.0138577
0.0137775
0.0136989
0.0136221
0.0135473
0.0134745
0.013404
0.0133364
0.0132722
0.0132128
0.0131596
0.00538192
0.00525325
0.00513342
0.00502122
0.00491493
0.00481467
0.00472015
0.00463081
0.00454614
0.00446571
0.00438912
0.00431602
0.00424606
0.00417895
0.00411441
0.00405221
0.00399215
0.00393404
0.00387775
0.003823
0.00377137
0.0159675
0.0158994
0.0157866
0.0156624
0.0155438
0.0154383
0.0153476
0.0152706
0.0152014
0.0152482
0.0153351
0.0154237
0.0154968
0.0155486
0.015579
0.0155906
0.0155871
0.0155719
0.0155481
0.0155183
0.0154844
0.0154479
0.01541
0.0153715
0.0153332
0.0152962
0.0152616
0.0152317
0.0152108
0.00545095
0.00542378
0.0053989
0.00537566
0.00535417
0.00533333
0.00531257
0.00529179
0.00527089
0.00524986
0.00522868
0.00520737
0.00518598
0.00516456
0.00514316
0.00512185
0.00510071
0.00507978
0.00505914
0.00503879
0.00501882
0.00501286
0.00499943
0.00498223
0.00496297
0.00494238
0.00492086
0.00489873
0.00487617
0.00483444
0.00479946
0.00476949
0.00474319
0.00471956
0.00469787
0.0046776
0.00465838
0.00463993
0.00462207
0.00460465
0.00458761
0.00457088
0.00455442
0.0045382
0.00452217
0.00450629
0.00449051
0.00447484
0.00445914
0.00444329
0.0195079
0.0115795
0.0111571
0.0107549
0.0098238
0.00865818
0.00754094
0.00663175
0.00597083
0.00556164
0.00535106
0.00550251
0.00587215
0.0061859
0.00640611
0.00657337
0.00671522
0.00682769
0.00725482
0.0171044
0.0193
0.0115131
0.0111718
0.0107661
0.00981031
0.0086176
0.00747951
0.00655807
0.00588897
0.00547519
0.0052695
0.00545179
0.00583981
0.00616084
0.00639349
0.00657505
0.00672919
0.00685074
0.0073014
0.0174079
0.0190846
0.0114518
0.0111877
0.0107773
0.00979658
0.00857682
0.00741818
0.00648483
0.00580736
0.00538745
0.00516643
0.00536567
0.00577448
0.00611631
0.00636537
0.00655845
0.00672057
0.00684793
0.00731798
0.0176317
0.0188731
0.0113927
0.0112044
0.0107883
0.00978257
0.00853593
0.00735708
0.00641228
0.00572661
0.00530115
0.00507991
0.0052895
0.00571337
0.00607254
0.00633724
0.00654191
0.0067121
0.0068453
0.00733529
0.0178579
0.01866
0.0113367
0.011222
0.0107992
0.00976835
0.00849498
0.00729625
0.00634035
0.00564624
0.00521427
0.00499213
0.00521669
0.00565393
0.00602917
0.00630919
0.00652547
0.0067038
0.00684286
0.00735339
0.0180871
0.0184459
0.0112841
0.0112404
0.0108099
0.00975396
0.00845408
0.00723584
0.00626922
0.0055665
0.00512722
0.00490442
0.00514461
0.00559475
0.00598578
0.00628116
0.00650914
0.00669568
0.00684063
0.00737231
0.0183193
0.0182311
0.0112348
0.0112595
0.0108205
0.00973945
0.00841324
0.00717586
0.00619884
0.00548731
0.00503966
0.00481645
0.00507234
0.00553522
0.00594214
0.00625308
0.00649294
0.00668776
0.00683861
0.00739208
0.0185546
0.0180161
0.0111887
0.0112792
0.010831
0.00972489
0.00837259
0.00711636
0.00612922
0.00540851
0.004951
0.00472736
0.00499967
0.00547536
0.0058983
0.00622497
0.00647686
0.00668005
0.00683681
0.00741273
0.018793
0.017801
0.0111459
0.0112994
0.0108413
0.00971036
0.0083322
0.00705744
0.00606042
0.00533009
0.00486086
0.00463614
0.00492671
0.00541546
0.00585445
0.00619695
0.00646095
0.00667255
0.00683522
0.00743428
0.0190345
0.017586
0.0111064
0.0113201
0.0108516
0.00969592
0.0082922
0.00699923
0.00599256
0.00525212
0.00476897
0.00454183
0.00485348
0.00535596
0.00581085
0.00616915
0.00644528
0.00666529
0.00683384
0.00745676
0.0192793
0.0173713
0.0110702
0.0113411
0.0108618
0.00968169
0.00825274
0.00694191
0.00592584
0.00517484
0.00467523
0.00444525
0.0047803
0.0052973
0.00576784
0.00614173
0.0064299
0.0066583
0.0068327
0.00748021
0.0195274
0.0171571
0.0110372
0.0113625
0.0108719
0.00966779
0.00821402
0.00688576
0.00586055
0.00509861
0.00457967
0.00434577
0.00470777
0.00523995
0.00572573
0.00611483
0.00641489
0.0066516
0.00683179
0.00750469
0.019779
0.0169435
0.0110075
0.0113841
0.0108821
0.00965437
0.00817631
0.00683112
0.00579715
0.005024
0.0044828
0.00424068
0.0046363
0.00518433
0.00568485
0.00608862
0.0064003
0.00664522
0.00683114
0.00753026
0.0200343
0.0167306
0.0109811
0.0114059
0.0108923
0.00964163
0.00813995
0.00677843
0.00573617
0.00495177
0.0043857
0.00412763
0.00456538
0.00513071
0.00564552
0.00606331
0.00638623
0.00663916
0.00683072
0.00755696
0.0202934
0.0165187
0.010958
0.0114277
0.0109026
0.00962977
0.00810528
0.00672819
0.00567818
0.00488273
0.00428978
0.00401248
0.00449461
0.00507922
0.00560787
0.00603907
0.00637283
0.00663353
0.00683054
0.00758483
0.0205565
0.0163077
0.0109381
0.0114495
0.0109131
0.00961903
0.00807273
0.00668098
0.00562385
0.00481773
0.00419642
0.00390548
0.00442672
0.00503035
0.00557207
0.0060159
0.0063601
0.00662835
0.00683066
0.00761399
0.0208239
0.0160979
0.0109215
0.0114712
0.0109238
0.00960963
0.00804272
0.00663735
0.00557387
0.00475767
0.00410748
0.0037915
0.00436617
0.004985
0.00553861
0.00599397
0.00634798
0.00662354
0.00683103
0.00764449
0.0210956
0.0158892
0.010908
0.0114927
0.0109348
0.00960181
0.00801564
0.00659783
0.00552884
0.00470352
0.00402647
0.00363442
0.0043074
0.00494321
0.00550795
0.0059738
0.0063368
0.00661918
0.00683162
0.00767634
0.0213718
0.0156817
0.0108977
0.0115139
0.0109463
0.00959579
0.00799183
0.0065628
0.00548905
0.00465571
0.00395686
0.00354297
0.00423647
0.00490404
0.00547947
0.00595522
0.0063267
0.0066155
0.00683259
0.00770972
0.0216526
0.0154755
0.0108903
0.0115348
0.0109581
0.00959176
0.00797161
0.00653255
0.00545452
0.00461356
0.00389715
0.0163333
0.00419542
0.00487012
0.00545345
0.00593786
0.00631726
0.00661218
0.00683375
0.00774458
0.0219378
0.0152707
0.0108858
0.0115554
0.0109705
0.00958985
0.0079552
0.00650733
0.00542535
0.00457656
0.00384383
0.0162769
0.00418393
0.00484193
0.00543175
0.00592299
0.00630921
0.00660966
0.00683538
0.00778114
0.0222277
0.0150672
0.010884
0.0115755
0.0109835
0.00959011
0.00794262
0.00648711
0.00540159
0.00454564
0.0038043
0.00332054
0.00410475
0.00481895
0.00541239
0.00590929
0.00630165
0.00660736
0.00683712
0.00781925
0.0225217
0.0148652
0.0108847
0.0115951
0.0109971
0.00959268
0.00793395
0.00647164
0.00538247
0.00452031
0.00379073
0.019558
0.00405763
0.00479965
0.00539764
0.00589877
0.00629593
0.00660595
0.00683926
0.00785904
0.0228197
0.0146645
0.0108877
0.0116143
0.0110113
0.00959766
0.00792946
0.00646123
0.00536784
0.00449802
0.00376867
0.00290152
0.0040259
0.0047812
0.00538146
0.00588786
0.00629044
0.00660488
0.00684165
0.00790048
0.0231212
0.0144653
0.0108927
0.0116329
0.011026
0.00960499
0.00792925
0.0064565
0.00535991
0.00448894
0.0038026
0.0116844
0.00428139
0.00477688
0.00537173
0.00587922
0.00628583
0.00660421
0.00684424
0.00794353
0.0234258
0.0142675
0.0108995
0.0116513
0.0110424
0.00961518
0.00793302
0.0064556
0.00535628
0.00448677
0.00382379
0.00921878
0.00427292
0.00476665
0.00536215
0.00587157
0.0062819
0.00660391
0.00684701
0.00798815
0.0237329
0.0140711
0.0109073
0.0116703
0.0110607
0.00962842
0.00794051
0.00645903
0.00535956
0.00450161
0.00394285
0.019966
0.00422145
0.00475596
0.0053525
0.00586452
0.00627847
0.00660391
0.00684995
0.00803433
0.0240423
0.013877
0.0109149
0.0116899
0.0110808
0.00964432
0.00795084
0.00646479
0.00536412
0.00451231
0.00391212
0.0179241
0.00419097
0.00474644
0.00534202
0.00585807
0.00627545
0.00660413
0.006853
0.00808821
0.0243517
0.013685
0.0109221
0.0117099
0.0111027
0.00966332
0.0079652
0.00647551
0.00537635
0.00453811
0.00393604
0.0172804
0.00418181
0.00473755
0.00533244
0.00585135
0.00627289
0.0066046
0.00685616
0.00815026
0.0246606
0.013495
0.0109287
0.0117303
0.0111261
0.00968456
0.00798196
0.00648848
0.00539131
0.00456898
0.00397924
0.0171519
0.00417489
0.00472909
0.00532354
0.00584522
0.00627018
0.00660535
0.00685951
0.00822057
0.0249691
0.0133069
0.0109349
0.0117513
0.0111514
0.00970843
0.00800151
0.00650382
0.00540815
0.00460125
0.00402553
0.0170101
0.00416871
0.00472194
0.00531564
0.00583957
0.00626776
0.00660614
0.00686322
0.00829898
0.0252772
0.0131205
0.0109405
0.0117726
0.0111782
0.00973477
0.00802374
0.00652141
0.00542658
0.00463388
0.00407322
0.00383642
0.00415992
0.00471668
0.00530938
0.00583501
0.00626598
0.00660723
0.00686773
0.00838603
0.0255848
0.0129356
0.0109455
0.0117944
0.0112065
0.00976345
0.00804847
0.00654111
0.00544647
0.00466718
0.00413575
0.00391117
0.0041358
0.00471148
0.00530364
0.00583106
0.00626472
0.00660864
0.00687327
0.00848267
0.0258918
0.0127521
0.0109498
0.0118165
0.0112366
0.00979455
0.00807573
0.00656285
0.00546759
0.00469958
0.0041965
0.00416471
0.00414491
0.00470997
0.00529965
0.00582804
0.00626403
0.00661037
0.00688004
0.00858983
0.0261981
0.0125698
0.0109535
0.0118391
0.0112683
0.00982821
0.00810573
0.00658696
0.00549052
0.00473145
0.00423232
0.00404276
0.00415991
0.00471179
0.0052977
0.00582622
0.00626404
0.00661248
0.00688838
0.00870852
0.0265036
0.0123887
0.0109564
0.011862
0.0113018
0.0098646
0.0081387
0.00661383
0.00551639
0.004768
0.00428353
0.00407822
0.00417701
0.00471696
0.00529788
0.00582573
0.00626484
0.00661504
0.00689865
0.00883979
0.0268081
0.0122087
0.0109584
0.0118854
0.0113372
0.00990395
0.00817486
0.00664344
0.00554449
0.00480668
0.00433631
0.00413706
0.00420132
0.00472606
0.00530043
0.00582667
0.00626651
0.00661812
0.00691132
0.00898466
0.0271115
0.0120297
0.0109594
0.0119092
0.0113747
0.00994657
0.00821479
0.0066766
0.00557575
0.00484816
0.00438964
0.00418732
0.00423425
0.0047395
0.00530561
0.0058292
0.00626912
0.00662179
0.00692692
0.00914411
0.0274134
0.0118515
0.0109594
0.0119335
0.0114143
0.00999252
0.00825857
0.00671343
0.00561041
0.00489284
0.00444535
0.00423629
0.00427478
0.00475742
0.00531363
0.00583343
0.00627274
0.00662614
0.0069461
0.009319
0.0277138
0.011674
0.0109583
0.0119582
0.0114562
0.0100421
0.00830648
0.00675411
0.00564842
0.00494056
0.0045039
0.00428941
0.0043217
0.00477984
0.0053246
0.00583947
0.00627743
0.00663128
0.00696959
0.00951006
0.0280124
0.0114972
0.0109559
0.0119833
0.0115005
0.0100956
0.00835889
0.00679893
0.00568985
0.00499107
0.00456489
0.00434678
0.00437414
0.00480676
0.00533863
0.0058474
0.00628325
0.00663738
0.00699824
0.00971789
0.0283088
0.0113208
0.010952
0.0120087
0.0115473
0.0101533
0.00841608
0.00684819
0.00573479
0.00504417
0.00462793
0.00440751
0.00443133
0.00483819
0.00535581
0.00585728
0.00629026
0.00664459
0.007033
0.00994293
0.0286028
0.0111449
0.0109466
0.0120346
0.0115967
0.0102152
0.00847833
0.00690211
0.00578329
0.00509963
0.00469277
0.0044713
0.00449268
0.00487409