/*--------------------------------*- C++ -*----------------------------------*\
  =========                 |
  \\      /  F ield         | OpenFOAM: The Open Source CFD Toolbox
   \\    /   O peration     | Website:  https://openfoam.org
    \\  /    A nd           | Version:  8
     \\/     M anipulation  |
\*---------------------------------------------------------------------------*/
FoamFile
{
    version     2.0;
    format      ascii;
    class       volScalarField;
    location    "200";
    object      epsilon;
}
// * * * * * * * * * * * * * * * * * * * * * * * * * * * * * * * * * * * * * //

dimensions      [0 2 -3 0 0 0 0];

internalField   nonuniform List<scalar> 
8400
(
0.00592414
0.00572883
0.00554635
0.00530232
0.0049615
0.00453761
0.00406192
0.00357982
0.00315604
0.0028856
0.00286902
0.00307543
0.00322703
0.00325634
0.00324703
0.00328144
0.00343363
0.00372975
0.00400936
0.00418867
0.00426324
0.00424945
0.00417877
0.00410108
0.00401719
0.00392789
0.00383401
0.00373612
0.00363491
0.00353094
0.0034315
0.00334199
0.00326149
0.00318868
0.0031221
0.00306044
0.00300251
0.00294712
0.00289322
0.00284008
0.00278727
0.00273441
0.00268131
0.00262796
0.00257454
0.00252139
0.00246893
0.00241772
0.00236842
0.00232189
0.00972846
0.00928732
0.00925364
0.00899682
0.00850424
0.00775407
0.00673319
0.00544159
0.00390647
0.00228139
0.000961207
0.000637075
0.000553852
0.000546366
0.000545588
0.000501228
0.000374945
0.000306156
0.000309218
0.000318366
0.000329678
0.000340234
0.000346522
0.000338064
0.000322163
0.000304134
0.000287387
0.000274054
0.000265379
0.000261998
0.000261243
0.000260693
0.000260332
0.000260127
0.000260058
0.000260121
0.000260292
0.000260534
0.000260829
0.000261168
0.000261535
0.000261909
0.000262278
0.000262644
0.000263014
0.000263396
0.000263796
0.000264222
0.000264679
0.000265174
0.0130547
0.0128844
0.0127061
0.0125343
0.0123779
0.0122345
0.0120863
0.0118938
0.011641
0.00990721
0.00230966
0.00177807
0.00185833
0.00198041
0.0021406
0.00192272
0.000826469
0.000310042
0.000274624
0.000249523
0.000240647
0.000237842
0.000235582
0.000232804
0.000230064
0.000227828
0.000226299
0.000225518
0.000225412
0.000225902
0.000226407
0.000226517
0.000226301
0.000225886
0.000225423
0.000225041
0.000224837
0.000224861
0.000225138
0.000225666
0.000226423
0.000227382
0.000228521
0.000229821
0.00023127
0.000232863
0.000234592
0.000236447
0.000238416
0.000240494
0.0131293
0.013081
0.0130313
0.0129797
0.012926
0.0128703
0.0128121
0.0127509
0.0126688
0.0124977
0.0116084
0.0108858
0.0104576
0.0103851
0.0104707
0.010255
0.00329347
0.000503506
0.000496732
0.000348969
0.000327146
0.000314408
0.000306178
0.000300853
0.000297553
0.00029576
0.000295103
0.000295281
0.000296071
0.00029731
0.000296988
0.000293821
0.000288388
0.0002815
0.000274014
0.000266694
0.000260095
0.000254558
0.000250212
0.000247022
0.000244858
0.000243558
0.00024296
0.000242924
0.000243346
0.000244147
0.00024526
0.00024662
0.000248177
0.000249889
0.0131286
0.0130807
0.0130314
0.0129804
0.0129277
0.0128727
0.0128162
0.0127572
0.0126943
0.0126196
0.0124571
0.0122337
0.0119865
0.0117373
0.011471
0.0109913
0.00860155
0.00685371
0.00180578
0.000648008
0.000609176
0.000588425
0.000580324
0.000578923
0.000582048
0.000587614
0.000593962
0.000599919
0.00060453
0.000607094
0.000601055
0.000583247
0.000556026
0.000522538
0.000486193
0.000450116
0.000416739
0.000387642
0.000363547
0.000344482
0.000330001
0.000319421
0.000311988
0.000306994
0.000303834
0.000302017
0.000301158
0.000300974
0.000301267
0.000301888
0.0131195
0.0130613
0.0130017
0.0129401
0.0128772
0.0128127
0.0127476
0.0126823
0.0126179
0.0125526
0.0124729
0.0123674
0.0122305
0.0120549
0.0118199
0.0113876
0.0100476
0.00839175
0.00543688
0.00252385
0.00112428
0.00113806
0.00117045
0.00121545
0.00126848
0.00132143
0.00136984
0.00141021
0.0014384
0.00145162
0.00143528
0.00138553
0.00130755
0.00120825
0.00109581
0.000978834
0.000865191
0.000760928
0.000669894
0.000593848
0.000532829
0.000485632
0.000450337
0.000424758
0.000406763
0.000394467
0.000386326
0.000381144
0.000378051
0.000376423
0.013113
0.0130464
0.0129783
0.0129086
0.0128372
0.0127648
0.0126912
0.0126173
0.0125449
0.0124742
0.012403
0.0123252
0.0122316
0.0121084
0.0119271
0.0115779
0.0106825
0.00933468
0.00712449
0.00458152
0.00235377
0.0018058
0.00199504
0.00217396
0.00234973
0.00251781
0.00267371
0.00280473
0.0028983
0.00294644
0.00293585
0.00287172
0.00275631
0.00259432
0.00239426
0.00216754
0.0019271
0.00168575
0.00145495
0.001244
0.00105931
0.000904069
0.000778407
0.000680066
0.000605323
0.000549892
0.000509623
0.000480839
0.000460512
0.000446298
0.0131029
0.0130243
0.0129445
0.0128638
0.0127822
0.0127004
0.0126182
0.0125372
0.0124581
0.0123827
0.0123108
0.0122402
0.0121649
0.0120715
0.0119312
0.0116542
0.0110043
0.00993253
0.00821012
0.0060656
0.00389481
0.00266836
0.00268141
0.00305586
0.00338978
0.00368277
0.00393685
0.00414534
0.0043034
0.00439475
0.00442737
0.00441725
0.00435424
0.00423374
0.00405721
0.00383023
0.00356037
0.00325667
0.00292973
0.00259184
0.00225629
0.00193624
0.00164327
0.00138572
0.0011678
0.000989739
0.000848653
0.000739733
0.000657177
0.000595068
0.0130886
0.0129913
0.0128953
0.0127991
0.0127038
0.01261
0.0125181
0.0124298
0.0123455
0.0122674
0.0121963
0.0121306
0.0120667
0.0119934
0.0118832
0.0116623
0.0111672
0.0103149
0.00895623
0.00719033
0.00525752
0.00380737
0.00325703
0.00349864
0.00392471
0.00426401
0.00452798
0.00473443
0.00490095
0.00502397
0.0051397
0.00523698
0.00528628
0.00527648
0.00520792
0.00508552
0.00491489
0.00470137
0.0044499
0.00416473
0.00385018
0.00351172
0.00315702
0.00279623
0.00244075
0.00210209
0.00179091
0.00151662
0.00128512
0.00109718
0.0130659
0.0129377
0.0128158
0.0126985
0.0125856
0.0124782
0.0123767
0.012282
0.0121961
0.0121202
0.0120538
0.0119965
0.0119455
0.0118894
0.0118032
0.0116251
0.0112345
0.0105496
0.00946745
0.00803312
0.00640165
0.00498612
0.00413337
0.00391201
0.00405767
0.00431934
0.00447625
0.00458668
0.00473369
0.00490584
0.00519571
0.00545861
0.00563981
0.00573762
0.00576127
0.00572227
0.00563116
0.00549741
0.00532978
0.0051348
0.00491662
0.00467802
0.00442132
0.0041502
0.00386745
0.00357329
0.0032641
0.00293873
0.00260257
0.00227052
0.0130243
0.0128368
0.0126738
0.0125279
0.0123948
0.0122759
0.0121704
0.0120772
0.0119976
0.0119325
0.0118798
0.0118384
0.0118041
0.011766
0.0117008
0.0115551
0.0112364
0.0106764
0.00980402
0.00864535
0.00730729
0.00605566
0.00514307
0.0046679
0.00452183
0.00454287
0.00456781
0.00454888
0.00440111
0.0044355
0.00507339
0.00553477
0.00583217
0.00601186
0.0060976
0.00610787
0.0060587
0.00596376
0.00583406
0.0056777
0.00550002
0.00530453
0.00509414
0.00487246
0.0046424
0.00440549
0.00416131
0.00390937
0.00365072
0.00338719
0.0129148
0.0125711
0.0123873
0.0122273
0.012091
0.0119776
0.0118843
0.0118103
0.0117537
0.0117103
0.0116805
0.0116623
0.0116487
0.0116288
0.011581
0.0114583
0.0111884
0.0107198
0.0100058
0.00906843
0.00798745
0.0069395
0.00610087
0.00555842
0.00527317
0.00515448
0.0051146
0.00511274
0.00513754
0.00525717
0.00552493
0.00584595
0.00611374
0.0062951
0.00639153
0.00641593
0.00638327
0.00630687
0.00619741
0.00606309
0.00590969
0.00574124
0.00556107
0.00537203
0.0051761
0.00497431
0.00476693
0.00455419
0.00433648
0.00411399
0.0124605
0.01216
0.0119806
0.0118302
0.0117106
0.0116211
0.011558
0.011515
0.0114898
0.0114771
0.0114748
0.0114804
0.0114867
0.0114833
0.0114484
0.0113378
0.0110983
0.0106949
0.0100999
0.00933728
0.00847
0.00762
0.00690841
0.0064011
0.0060885
0.00592339
0.00585745
0.00586092
0.00591996
0.00602354
0.00618365
0.00637067
0.00653129
0.00664103
0.0066942
0.00669516
0.00665227
0.00657451
0.00646989
0.00634492
0.00620453
0.0060524
0.00589156
0.00572429
0.00555219
0.00537626
0.00519708
0.00501493
0.00482998
0.00464218
0.0118574
0.0116339
0.0114855
0.0113746
0.0112979
0.011252
0.0112302
0.011226
0.0112351
0.0112533
0.0112761
0.0112991
0.0113169
0.0113199
0.011289
0.01119
0.0109826
0.0106084
0.0101048
0.00947996
0.00878607
0.00811012
0.00753457
0.007105
0.00682095
0.00665695
0.00658345
0.00657636
0.00661694
0.00668907
0.00677219
0.00686224
0.00693412
0.00697271
0.00697364
0.00693885
0.00687321
0.00678253
0.00667238
0.0065474
0.00641128
0.00626699
0.00611699
0.00596318
0.00580685
0.00564879
0.00548956
0.00532935
0.00516827
0.00500641
0.0112211
0.0110882
0.0110031
0.0109523
0.0109303
0.0109303
0.0109465
0.0109742
0.0110078
0.011044
0.0110794
0.0111093
0.0111281
0.0111272
0.011091
0.0109947
0.0108084
0.0104945
0.0100494
0.009518
0.00896416
0.00843458
0.00798392
0.00764082
0.00740514
0.0072605
0.00718618
0.00716235
0.00717115
0.00719647
0.00722168
0.0072431
0.00724903
0.00723116
0.00718743
0.0071194
0.00703039
0.00692437
0.00680518
0.00667611
0.0065399
0.00639885
0.00625491
0.00610953
0.0059637
0.00581799
0.00567273
0.00552807
0.00538414
0.00524104
0.0106946
0.0106459
0.0106251
0.0106254
0.0106424
0.0106708
0.0107069
0.0107471
0.0107886
0.0108279
0.0108622
0.0108877
0.0108991
0.0108887
0.010845
0.0107506
0.0105843
0.0103199
0.00995323
0.00949044
0.00902749
0.00861835
0.00827477
0.00801158
0.00782563
0.00770381
0.00763014
0.00758897
0.00756631
0.00755018
0.00752931
0.00749958
0.00745615
0.0073953
0.00731656
0.00722144
0.00711251
0.00699265
0.00686459
0.00673072
0.00659311
0.00645355
0.00631349
0.00617395
0.00603556
0.00589871
0.00576365
0.00563054
0.0054995
0.00537055
0.0103193
0.0103204
0.0103336
0.0103566
0.0103865
0.010421
0.0104583
0.0104957
0.0105317
0.0105639
0.0105895
0.0106052
0.0106068
0.0105878
0.01054
0.0104515
0.0103076
0.0100911
0.00979324
0.0094207
0.00900088
0.00868159
0.00842612
0.00823012
0.00808654
0.00798382
0.00790959
0.00785249
0.00780288
0.00775285
0.00769589
0.00762835
0.0075488
0.00745638
0.00735182
0.0072368
0.00711344
0.00698386
0.00684994
0.00671332
0.00657551
0.00643773
0.00630093
0.00616573
0.00603253
0.00590172
0.00577367
0.0056487
0.00552698
0.00540837
0.00999007
0.0100046
0.0100237
0.0100468
0.0100728
0.0101007
0.0101296
0.0101578
0.010184
0.0102063
0.0102225
0.0102299
0.0102249
0.0102026
0.0101572
0.0100809
0.00996415
0.00979527
0.0095649
0.00926941
0.00892492
0.0086357
0.00844999
0.00830602
0.00819374
0.00810321
0.00802547
0.0079532
0.00788054
0.00780313
0.00771778
0.00762292
0.0075193
0.00740802
0.00729059
0.00716856
0.00704327
0.00691574
0.0067867
0.00665668
0.00652614
0.00639536
0.00626449
0.00613364
0.00600313
0.00587353
0.0057456
0.00562021
0.00549826
0.00538087
0.0095522
0.00956209
0.00957443
0.00958893
0.00960538
0.00962364
0.00964267
0.00966153
0.00967914
0.00969403
0.00970436
0.00970803
0.00970227
0.00968378
0.00964868
0.00959208
0.00950792
0.00938878
0.00922675
0.0090145
0.00875463
0.00846372
0.00833192
0.00822449
0.00813086
0.00804429
0.00795956
0.00787287
0.00778144
0.00768353
0.00758344
0.00749267
0.00740821
0.00732821
0.00725104
0.0071752
0.00709919
0.00702154
0.00694087
0.00685593
0.00676556
0.00666854
0.00656365
0.00644988
0.00632653
0.00619323
0.00604987
0.00589655
0.00573467
0.00557543
0.0150273
0.0146599
0.0142977
0.0139358
0.0135755
0.0132191
0.0128689
0.0125271
0.0121955
0.0118754
0.0115671
0.0112705
0.0109848
0.0107085
0.0104395
0.0101752
0.00991203
0.00964622
0.00937375
0.00909066
0.00879249
0.00840503
0.00836408
0.00836886
0.00841057
0.00848069
0.00857173
0.00867737
0.00879402
0.00892036
0.00905146
0.00917506
0.0092914
0.00940107
0.00950494
0.00960388
0.00969872
0.00979024
0.00987934
0.00996691
0.0100539
0.010141
0.0102291
0.0103191
0.0104118
0.0105081
0.0106084
0.0107121
0.0108154
0.0108981
9.32912e-06
9.21175e-06
9.09961e-06
8.99107e-06
8.88523e-06
8.78001e-06
8.67511e-06
8.57022e-06
8.46517e-06
8.35993e-06
8.25455e-06
8.14915e-06
8.04386e-06
7.93884e-06
7.8343e-06
7.73045e-06
7.62757e-06
7.52593e-06
7.42583e-06
7.32752e-06
7.23081e-06
7.10385e-06
6.98429e-06
6.87178e-06
6.76449e-06
6.66042e-06
6.55974e-06
6.46265e-06
6.36923e-06
6.27941e-06
6.19307e-06
6.11004e-06
6.03015e-06
5.95324e-06
5.8792e-06
5.80791e-06
5.73929e-06
5.67327e-06
5.60975e-06
5.54863e-06
5.48981e-06
5.43306e-06
5.3777e-06
5.32369e-06
5.27084e-06
5.21886e-06
5.16738e-06
5.11619e-06
5.06527e-06
5.01417e-06
8.98372e-06
8.39521e-06
7.85854e-06
7.36682e-06
6.91716e-06
6.50649e-06
6.13042e-06
5.78533e-06
5.4681e-06
5.17597e-06
4.90652e-06
4.65758e-06
4.42722e-06
4.21372e-06
4.01553e-06
3.83126e-06
3.6597e-06
3.49978e-06
3.35064e-06
3.21157e-06
3.16698e-06
7.3005e-07
7.20609e-07
7.13974e-07
7.21231e-07
7.256e-07
7.28119e-07
7.29407e-07
7.29842e-07
7.29669e-07
7.29057e-07
7.2813e-07
7.26978e-07
7.25665e-07
7.24234e-07
7.22709e-07
7.21099e-07
7.19396e-07
7.17568e-07
7.1558e-07
7.13407e-07
7.1105e-07
7.08574e-07
7.05964e-07
7.03213e-07
7.00315e-07
6.97232e-07
6.93846e-07
6.89912e-07
6.85143e-07
8.98122e-06
8.38656e-06
7.84134e-06
7.34116e-06
6.88187e-06
6.45951e-06
6.0704e-06
5.71129e-06
5.3793e-06
5.07193e-06
4.78696e-06
4.52243e-06
4.27658e-06
4.04784e-06
3.8348e-06
3.63622e-06
3.45097e-06
3.27803e-06
3.11682e-06
7.30881e-07
7.25198e-07
7.1957e-07
7.13987e-07
7.08488e-07
7.03283e-07
6.9826e-07
6.93356e-07
6.88542e-07
6.83802e-07
6.79134e-07
6.74542e-07
6.70036e-07
6.65622e-07
6.6131e-07
6.57104e-07
6.53005e-07
6.49007e-07
6.45095e-07
6.41266e-07
6.37511e-07
6.33813e-07
6.30158e-07
6.26531e-07
6.22915e-07
6.19295e-07
6.15682e-07
6.12121e-07
6.08681e-07
6.05339e-07
6.01776e-07
8.98111e-06
8.39033e-06
7.8494e-06
7.35298e-06
6.89675e-06
6.47662e-06
6.089e-06
5.73074e-06
5.39906e-06
5.09152e-06
4.80598e-06
4.54054e-06
4.2935e-06
4.06335e-06
3.84873e-06
3.64844e-06
3.46142e-06
3.28668e-06
3.12363e-06
7.316e-07
7.25647e-07
7.19776e-07
7.13981e-07
7.0825e-07
7.02577e-07
6.96954e-07
6.91375e-07
6.85833e-07
6.80329e-07
6.74866e-07
6.69452e-07
6.64095e-07
6.58804e-07
6.5359e-07
6.4846e-07
6.43422e-07
6.3848e-07
6.33631e-07
6.2887e-07
6.24186e-07
6.19575e-07
6.15032e-07
6.10551e-07
6.06117e-07
6.01706e-07
5.97281e-07
5.92826e-07
5.88396e-07
5.84112e-07
5.7988e-07
8.98109e-06
8.39034e-06
7.84913e-06
7.35209e-06
6.89511e-06
6.47428e-06
6.0861e-06
5.72744e-06
5.39554e-06
5.08796e-06
4.80251e-06
4.53725e-06
4.29047e-06
4.06062e-06
3.84635e-06
3.64643e-06
3.45977e-06
3.28539e-06
3.12268e-06
7.31512e-07
7.25613e-07
7.19788e-07
7.14031e-07
7.08332e-07
7.0268e-07
6.97065e-07
6.91477e-07
6.85911e-07
6.80366e-07
6.74847e-07
6.6936e-07
6.63913e-07
6.58518e-07
6.53183e-07
6.47919e-07
6.42734e-07
6.37629e-07
6.32603e-07
6.27651e-07
6.22765e-07
6.17941e-07
6.13176e-07
6.0847e-07
6.03825e-07
5.99243e-07
5.9471e-07
5.9018e-07
5.85625e-07
5.81117e-07
5.76646e-07
8.98108e-06
8.39065e-06
7.85001e-06
7.35367e-06
6.89747e-06
6.4774e-06
6.08992e-06
5.73188e-06
5.40051e-06
5.09334e-06
4.8082e-06
4.54316e-06
4.29652e-06
4.06676e-06
3.85251e-06
3.65257e-06
3.46586e-06
3.29138e-06
3.12856e-06
3.09031e-06
7.26496e-07
7.20654e-07
7.14881e-07
7.09166e-07
7.03498e-07
6.97864e-07
6.92254e-07
6.86662e-07
6.81087e-07
6.75533e-07
6.70006e-07
6.64516e-07
6.59071e-07
6.53683e-07
6.4836e-07
6.4311e-07
6.37934e-07
6.32832e-07
6.27798e-07
6.22826e-07
6.17913e-07
6.1305e-07
6.0823e-07
6.03449e-07
5.98712e-07
5.94036e-07
5.89412e-07
5.84803e-07
5.80225e-07
5.75682e-07
8.98108e-06
8.3907e-06
7.85018e-06
7.35393e-06
6.89774e-06
6.47763e-06
6.09004e-06
5.73187e-06
5.40033e-06
5.093e-06
4.80772e-06
4.54256e-06
4.29583e-06
4.066e-06
3.85172e-06
3.65178e-06
3.46509e-06
3.29066e-06
3.12791e-06
3.08993e-06
7.26462e-07
7.20624e-07
7.14839e-07
7.09105e-07
7.03418e-07
6.97771e-07
6.92156e-07
6.86567e-07
6.81002e-07
6.7546e-07
6.69946e-07
6.64465e-07
6.59025e-07
6.53633e-07
6.48299e-07
6.43029e-07
6.37827e-07
6.32688e-07
6.27611e-07
6.22592e-07
6.17629e-07
6.12719e-07
6.07857e-07
6.03032e-07
5.98237e-07
5.93479e-07
5.88775e-07
5.84106e-07
5.79474e-07
5.74876e-07
8.98107e-06
8.39072e-06
7.85031e-06
7.35424e-06
6.89826e-06
6.47839e-06
6.09106e-06
5.73312e-06
5.40182e-06
5.0947e-06
4.80961e-06
4.54461e-06
4.29801e-06
4.06829e-06
3.85409e-06
3.65421e-06
3.46756e-06
3.29318e-06
3.13043e-06
3.09078e-06
7.26439e-07
7.20332e-07
7.14226e-07
7.0818e-07
7.02231e-07
6.96397e-07
6.90676e-07
6.85057e-07
6.79524e-07
6.74061e-07
6.68653e-07
6.63291e-07
6.57968e-07
6.52685e-07
6.47445e-07
6.4225e-07
6.37104e-07
6.32003e-07
6.26945e-07
6.21926e-07
6.16947e-07
6.1201e-07
6.07119e-07
6.02269e-07
5.97453e-07
5.92669e-07
5.87929e-07
5.8323e-07
5.78569e-07
5.73944e-07
8.98106e-06
8.39072e-06
7.85038e-06
7.35442e-06
6.89857e-06
6.4788e-06
6.09157e-06
5.73371e-06
5.40245e-06
5.09536e-06
4.81028e-06
4.54527e-06
4.29865e-06
4.06889e-06
3.85465e-06
3.65473e-06
3.46806e-06
3.29368e-06
3.13028e-06
7.20336e-07
7.18493e-07
7.1526e-07
7.11112e-07
7.06359e-07
7.01226e-07
6.95871e-07
6.90402e-07
6.84889e-07
6.79377e-07
6.73888e-07
6.68434e-07
6.6302e-07
6.5765e-07
6.52327e-07
6.47056e-07
6.41838e-07
6.36673e-07
6.31557e-07
6.26485e-07
6.21452e-07
6.16455e-07
6.11494e-07
6.06571e-07
6.01691e-07
5.96851e-07
5.92045e-07
5.8728e-07
5.82556e-07
5.77872e-07
5.73223e-07
8.98105e-06
8.39072e-06
7.85045e-06
7.35458e-06
6.89884e-06
6.47918e-06
6.09203e-06
5.73427e-06
5.40311e-06
5.09612e-06
4.81112e-06
4.54619e-06
4.29963e-06
4.06992e-06
3.85572e-06
3.65585e-06
3.46926e-06
3.29496e-06
3.13229e-06
7.29183e-07
7.21826e-07
7.15855e-07
7.10495e-07
7.05332e-07
7.00178e-07
6.94966e-07
6.89687e-07
6.84353e-07
6.78985e-07
6.736e-07
6.68213e-07
6.62837e-07
6.57485e-07
6.52165e-07
6.46889e-07
6.4166e-07
6.36481e-07
6.31349e-07
6.26259e-07
6.21207e-07
6.1619e-07
6.11207e-07
6.06259e-07
6.01349e-07
5.9648e-07
5.91649e-07
5.86858e-07
5.82106e-07
5.77394e-07
5.72717e-07
8.98105e-06
8.39075e-06
7.85054e-06
7.35474e-06
6.89907e-06
6.47947e-06
6.09239e-06
5.73468e-06
5.40358e-06
5.09664e-06
4.8117e-06
4.54681e-06
4.30028e-06
4.0706e-06
3.85644e-06
3.65663e-06
3.47012e-06
3.29591e-06
3.13333e-06
7.29475e-07
7.22152e-07
7.16133e-07
7.10678e-07
7.05424e-07
7.00204e-07
6.94947e-07
6.89636e-07
6.84276e-07
6.78883e-07
6.73473e-07
6.68061e-07
6.62663e-07
6.57293e-07
6.51962e-07
6.4668e-07
6.41453e-07
6.36278e-07
6.31153e-07
6.2607e-07
6.21023e-07
6.16009e-07
6.11028e-07
6.06076e-07
6.01157e-07
5.96272e-07
5.91422e-07
5.86609e-07
5.8183e-07
5.77088e-07
5.72377e-07
8.98105e-06
8.39079e-06
7.85062e-06
7.35487e-06
6.89923e-06
6.47965e-06
6.0926e-06
5.73491e-06
5.40384e-06
5.09692e-06
4.81199e-06
4.54711e-06
4.30058e-06
4.07092e-06
3.8568e-06
3.65706e-06
3.47061e-06
3.29647e-06
3.13398e-06
3.09281e-06
7.26348e-07
7.19851e-07
7.13475e-07
7.07288e-07
7.01298e-07
6.95481e-07
6.898e-07
6.84221e-07
6.78717e-07
6.73268e-07
6.67866e-07
6.62505e-07
6.57186e-07
6.51911e-07
6.46683e-07
6.41504e-07
6.36369e-07
6.31272e-07
6.26207e-07
6.21167e-07
6.16149e-07
6.11151e-07
6.06174e-07
6.0122e-07
5.96291e-07
5.91393e-07
5.86525e-07
5.81692e-07
5.76893e-07
5.72126e-07
8.98106e-06
8.39081e-06
7.85065e-06
7.35489e-06
6.89926e-06
6.47971e-06
6.0927e-06
5.73508e-06
5.40409e-06
5.09726e-06
4.81242e-06
4.54765e-06
4.30124e-06
4.07171e-06
3.85774e-06
3.65814e-06
3.47183e-06
3.29781e-06
3.13471e-06
7.20775e-07
7.18609e-07
7.14924e-07
7.1037e-07
7.05357e-07
7.0012e-07
6.94784e-07
6.8941e-07
6.84025e-07
6.78644e-07
6.73274e-07
6.67922e-07
6.62591e-07
6.57288e-07
6.52018e-07
6.46785e-07
6.41591e-07
6.36436e-07
6.31314e-07
6.26219e-07
6.21145e-07
6.16088e-07
6.11047e-07
6.06023e-07
6.0102e-07
5.96041e-07
5.91091e-07
5.86175e-07
5.81295e-07
5.76453e-07
5.71645e-07
8.98107e-06
8.39078e-06
7.85055e-06
7.3547e-06
6.89896e-06
6.47931e-06
6.09219e-06
5.73447e-06
5.40338e-06
5.09645e-06
4.81151e-06
4.54666e-06
4.30021e-06
4.07067e-06
3.85672e-06
3.65715e-06
3.47088e-06
3.2969e-06
3.13384e-06
7.20501e-07
7.18325e-07
7.14681e-07
7.10189e-07
7.05239e-07
7.00057e-07
6.94765e-07
6.89423e-07
6.8406e-07
6.78693e-07
6.73331e-07
6.67979e-07
6.62643e-07
6.57326e-07
6.52034e-07
6.46773e-07
6.41545e-07
6.36351e-07
6.31188e-07
6.2605e-07
6.20932e-07
6.15828e-07
6.10739e-07
6.05667e-07
6.00615e-07
5.9559e-07
5.90598e-07
5.85643e-07
5.80732e-07
5.75864e-07
5.71037e-07
8.98106e-06
8.39069e-06
7.85035e-06
7.35446e-06
6.89877e-06
6.47927e-06
6.09236e-06
5.73487e-06
5.40402e-06
5.09733e-06
4.81262e-06
4.54798e-06
4.30173e-06
4.07237e-06
3.85857e-06
3.65912e-06
3.47294e-06
3.29901e-06
3.13599e-06
7.21005e-07
7.18765e-07
7.15076e-07
7.10552e-07
7.05577e-07
7.00374e-07
6.95061e-07
6.89697e-07
6.84313e-07
6.78923e-07
6.73536e-07
6.68154e-07
6.62783e-07
6.57425e-07
6.52088e-07
6.46776e-07
6.41496e-07
6.36248e-07
6.31031e-07
6.25838e-07
6.20664e-07
6.15507e-07
6.10366e-07
6.05245e-07
6.0015e-07
5.95088e-07
5.90066e-07
5.85092e-07
5.80171e-07
5.75308e-07
5.705e-07
8.98105e-06
8.39035e-06
7.8494e-06
7.3528e-06
6.89638e-06
6.47616e-06
6.08861e-06
5.73057e-06
5.39926e-06
5.09222e-06
4.80726e-06
4.54248e-06
4.29616e-06
4.0668e-06
3.85306e-06
3.65373e-06
3.46769e-06
3.29394e-06
3.13182e-06
3.09068e-06
7.26141e-07
7.19774e-07
7.135e-07
7.07386e-07
7.01442e-07
6.9565e-07
6.89979e-07
6.84399e-07
6.78884e-07
6.73415e-07
6.6798e-07
6.6257e-07
6.57184e-07
6.51825e-07
6.46496e-07
6.41203e-07
6.35945e-07
6.3072e-07
6.25523e-07
6.20349e-07
6.15197e-07
6.1007e-07
6.04973e-07
5.99915e-07
5.94904e-07
5.8995e-07
5.85064e-07
5.80257e-07
5.75537e-07
5.70909e-07
8.98103e-06
8.39021e-06
7.84949e-06
7.3535e-06
6.89784e-06
6.47836e-06
6.09143e-06
5.73386e-06
5.40287e-06
5.096e-06
4.81111e-06
4.54629e-06
4.29986e-06
4.07034e-06
3.85641e-06
3.65685e-06
3.47059e-06
3.29661e-06
3.13359e-06
7.20789e-07
7.18582e-07
7.14893e-07
7.1038e-07
7.0543e-07
7.00263e-07
6.94996e-07
6.89687e-07
6.84363e-07
6.79036e-07
6.73714e-07
6.684e-07
6.63101e-07
6.57825e-07
6.52582e-07
6.47384e-07
6.42235e-07
6.37139e-07
6.32092e-07
6.27092e-07
6.22138e-07
6.1723e-07
6.12373e-07
6.07575e-07
6.02844e-07
5.98193e-07
5.93637e-07
5.89196e-07
5.84889e-07
5.8074e-07
5.76769e-07
8.98101e-06
8.38606e-06
7.8409e-06
7.34112e-06
6.88252e-06
6.46107e-06
6.07307e-06
5.71518e-06
5.38444e-06
5.07828e-06
4.79442e-06
4.53087e-06
4.28589e-06
4.05791e-06
3.84559e-06
3.64769e-06
3.46311e-06
3.2908e-06
3.13006e-06
7.31829e-07
7.24881e-07
7.18383e-07
7.12451e-07
7.06947e-07
7.01779e-07
6.96862e-07
6.92116e-07
6.87481e-07
6.82918e-07
6.78573e-07
6.74199e-07
6.69821e-07
6.65466e-07
6.6116e-07
6.56925e-07
6.52773e-07
6.48712e-07
6.44742e-07
6.40857e-07
6.37056e-07
6.33335e-07
6.29693e-07
6.26136e-07
6.22668e-07
6.19306e-07
6.16068e-07
6.12987e-07
6.10098e-07
6.07451e-07
6.05111e-07
8.98275e-06
8.3927e-06
7.8553e-06
7.36367e-06
6.91522e-06
6.5068e-06
6.13367e-06
5.79179e-06
5.47765e-06
5.18825e-06
4.92099e-06
4.67362e-06
4.44425e-06
4.23123e-06
4.03314e-06
3.84874e-06
3.6769e-06
3.5166e-06
3.36699e-06
3.2271e-06
3.09778e-06
7.23397e-07
7.16477e-07
7.11658e-07
7.0828e-07
7.05859e-07
7.04016e-07
7.02468e-07
7.01179e-07
7.11751e-07
7.1813e-07
7.21686e-07
7.23355e-07
7.23776e-07
7.23386e-07
7.22476e-07
7.2124e-07
7.19799e-07
7.18231e-07
7.16579e-07
7.1487e-07
7.13121e-07
7.11342e-07
7.09549e-07
7.07763e-07
7.06016e-07
7.04352e-07
7.02831e-07
7.01547e-07
7.00656e-07
9.33255e-06
9.21345e-06
9.09904e-06
8.98945e-06
8.88244e-06
8.77552e-06
8.66846e-06
8.56115e-06
8.4536e-06
8.34591e-06
8.23821e-06
8.13074e-06
8.02379e-06
7.91766e-06
7.81268e-06
7.70915e-06
7.60732e-06
7.50738e-06
7.40947e-06
7.31365e-06
7.21972e-06
7.09613e-06
6.97955e-06
6.8673e-06
6.75836e-06
6.6526e-06
6.55011e-06
6.45101e-06
6.35535e-06
6.26394e-06
6.176e-06
6.09101e-06
6.00864e-06
5.92865e-06
5.85088e-06
5.77519e-06
5.7015e-06
5.62972e-06
5.55976e-06
5.49156e-06
5.425e-06
5.36001e-06
5.29645e-06
5.23428e-06
5.17338e-06
5.11368e-06
5.05501e-06
4.99712e-06
4.93963e-06
4.88171e-06
0.000422384
8.98469e-05
8.13165e-05
7.33431e-05
5.62966e-05
3.87717e-05
2.57135e-05
1.75266e-05
1.28065e-05
1.04224e-05
9.58567e-06
1.0572e-05
1.22848e-05
1.40358e-05
1.56297e-05
1.70747e-05
1.83905e-05
1.94511e-05
2.34776e-05
0.000309932
0.000410114
8.8549e-05
8.17469e-05
7.36303e-05
5.60848e-05
3.82263e-05
2.50788e-05
1.69371e-05
1.22754e-05
9.93014e-06
9.10055e-06
1.02229e-05
1.19784e-05
1.38208e-05
1.55383e-05
1.71052e-05
1.85245e-05
1.96646e-05
2.39481e-05
0.000326395
0.000398043
8.72722e-05
8.21901e-05
7.39106e-05
5.58678e-05
3.76859e-05
2.44594e-05
1.63689e-05
1.17663e-05
9.45971e-06
8.68838e-06
9.78035e-06
1.15951e-05
1.35289e-05
1.53381e-05
1.69809e-05
1.8459e-05
1.96456e-05
2.41174e-05
0.000339003
0.00038588
8.60683e-05
8.26482e-05
7.41861e-05
5.56474e-05
3.71516e-05
2.38558e-05
1.58217e-05
1.12776e-05
9.00459e-06
8.26663e-06
9.35966e-06
1.12181e-05
1.32381e-05
1.51384e-05
1.68576e-05
1.83949e-05
1.96282e-05
2.42949e-05
0.000352098
0.000373842
8.49364e-05
8.312e-05
7.44569e-05
5.54251e-05
3.66253e-05
2.32696e-05
1.52965e-05
1.08104e-05
8.56721e-06
7.8661e-06
8.95397e-06
1.08477e-05
1.29493e-05
1.49396e-05
1.67354e-05
1.83323e-05
1.96122e-05
2.44809e-05
0.0003657
0.000361935
8.38774e-05
8.36044e-05
7.47234e-05
5.52028e-05
3.61088e-05
2.27018e-05
1.47934e-05
1.03642e-05
8.14638e-06
7.48023e-06
8.56329e-06
1.04857e-05
1.26635e-05
1.4742e-05
1.66144e-05
1.82712e-05
1.95977e-05
2.46753e-05
0.000379817
0.000350171
8.28936e-05
8.41003e-05
7.49863e-05
5.49821e-05
3.56036e-05
2.21534e-05
1.43127e-05
9.93879e-06
7.74094e-06
7.10791e-06
8.18798e-06
1.01337e-05
1.23821e-05
1.45463e-05
1.64948e-05
1.82114e-05
1.95844e-05
2.48785e-05
0.000394466
0.000338569
8.19852e-05
8.46065e-05
7.52461e-05
5.47645e-05
3.51114e-05
2.16251e-05
1.38545e-05
9.53363e-06
7.34975e-06
6.74777e-06
7.82813e-06
9.79348e-06
1.21065e-05
1.43533e-05
1.6377e-05
1.81533e-05
1.95725e-05
2.50908e-05
0.000409673
0.000327145
8.11518e-05
8.51217e-05
7.55035e-05
5.45516e-05
3.46334e-05
2.11177e-05
1.34184e-05
9.14818e-06
6.97157e-06
6.39932e-06
7.48369e-06
9.46602e-06
1.1838e-05
1.41638e-05
1.62613e-05
1.80968e-05
1.9562e-05
2.53129e-05
0.000425468
0.000315916
8.03921e-05
8.56445e-05
7.57594e-05
5.43452e-05
3.4171e-05
2.06318e-05
1.30043e-05
8.78188e-06
6.60532e-06
6.06102e-06
7.15449e-06
9.15214e-06
1.15776e-05
1.39785e-05
1.61483e-05
1.80424e-05
1.9553e-05
2.55452e-05
0.000441881
0.000304897
7.97049e-05
8.61737e-05
7.60141e-05
5.41467e-05
3.37258e-05
2.01678e-05
1.26121e-05
8.43436e-06
6.25024e-06
5.72968e-06
6.8398e-06
8.85243e-06
1.13266e-05
1.37983e-05
1.60382e-05
1.799e-05
1.95454e-05
2.57885e-05
0.000458946
0.000294101
7.90885e-05
8.67078e-05
7.62688e-05
5.39581e-05
3.32992e-05
1.97265e-05
1.22417e-05
8.10543e-06
5.90614e-06
5.40562e-06
6.53862e-06
8.56719e-06
1.10857e-05
1.36239e-05
1.59318e-05
1.794e-05
1.95393e-05
2.60434e-05
0.000476697
0.000283538
7.85416e-05
8.72455e-05
7.65242e-05
5.37813e-05
3.2893e-05
1.9309e-05
1.18933e-05
7.79522e-06
5.57317e-06
5.09307e-06
6.25089e-06
8.29666e-06
1.08558e-05
1.34564e-05
1.58294e-05
1.78926e-05
1.95349e-05
2.63107e-05
0.00049517
0.000273217
7.80626e-05
8.77855e-05
7.67814e-05
5.36183e-05
3.25091e-05
1.89162e-05
1.15673e-05
7.50424e-06
5.25215e-06
4.79419e-06
5.97846e-06
8.04148e-06
1.06376e-05
1.32962e-05
1.57318e-05
1.78483e-05
1.95323e-05
2.65912e-05
0.000514402
0.000263147
7.76499e-05
8.83264e-05
7.70414e-05
5.34715e-05
3.21498e-05
1.85496e-05
1.12646e-05
7.23357e-06
4.9452e-06
4.49795e-06
5.72269e-06
7.80286e-06
1.04324e-05
1.31443e-05
1.56391e-05
1.78072e-05
1.95317e-05
2.68862e-05
0.000534434
0.000253334
7.73019e-05
8.88668e-05
7.73055e-05
5.33433e-05
3.18175e-05
1.82109e-05
1.09863e-05
6.98477e-06
4.65609e-06
4.19428e-06
5.48048e-06
7.58153e-06
1.02414e-05
1.30019e-05
1.55523e-05
1.77694e-05
1.95328e-05
2.71962e-05
0.000555305
0.000243782
7.70167e-05
8.94054e-05
7.75749e-05
5.32366e-05
3.15151e-05
1.79021e-05
1.07337e-05
6.75952e-06
4.38916e-06
3.91869e-06
5.25035e-06
7.37715e-06
1.0065e-05
1.287e-05
1.54723e-05
1.77358e-05
1.95362e-05
2.75224e-05
0.000577051
0.000234495
7.67926e-05
8.99407e-05
7.78508e-05
5.31541e-05
3.12455e-05
1.76254e-05
1.05082e-05
6.55948e-06
4.14783e-06
3.7231e-06
5.0461e-06
7.19102e-06
9.90287e-06
1.27481e-05
1.53991e-05
1.77065e-05
1.95421e-05
2.78663e-05
0.000599715
0.000225475
7.66272e-05
9.04716e-05
7.81346e-05
5.30985e-05
3.10115e-05
1.7383e-05
1.03117e-05
6.38677e-06
3.93646e-06
3.47237e-06
4.87974e-06
7.02747e-06
9.75762e-06
1.2637e-05
1.53324e-05
1.76808e-05
1.95498e-05
2.82279e-05
0.00062332
0.000216724
7.65182e-05
9.09967e-05
7.84277e-05
5.30723e-05
3.08157e-05
1.71766e-05
1.01457e-05
6.24376e-06
3.7633e-06
6.96902e-07
4.7075e-06
6.88473e-06
9.63055e-06
1.25387e-05
1.52741e-05
1.76604e-05
1.95605e-05
2.86093e-05
0.000647902
0.000208239
7.64627e-05
9.15149e-05
7.87313e-05
5.30781e-05
3.06603e-05
1.70073e-05
1.00103e-05
6.13068e-06
3.6336e-06
6.49547e-07
4.52661e-06
6.75632e-06
9.51572e-06
1.24491e-05
1.52211e-05
1.76429e-05
1.95727e-05
2.90102e-05
0.000673472
0.000200021
7.64577e-05
9.20254e-05
7.90464e-05
5.31176e-05
3.05472e-05
1.6876e-05
9.90491e-06
6.04433e-06
3.53682e-06
3.23423e-06
4.47498e-06
6.65712e-06
9.42152e-06
1.23734e-05
1.51767e-05
1.76301e-05
1.9587e-05
2.94315e-05
0.000700042
0.000192067
7.64998e-05
9.25273e-05
7.93738e-05
5.31921e-05
3.04772e-05
1.67833e-05
9.83029e-06
5.98461e-06
3.47029e-06
5.38033e-07
4.29458e-06
6.56234e-06
9.33378e-06
1.23043e-05
1.51378e-05
1.76209e-05
1.96033e-05
2.98738e-05
0.000727618
0.000184374
7.65856e-05
9.30203e-05
7.97143e-05
5.33017e-05
3.04495e-05
1.67274e-05
9.78494e-06
5.95314e-06
3.46416e-06
4.60538e-06
4.26867e-06
6.49244e-06
9.26007e-06
1.22435e-05
1.51039e-05
1.76146e-05
1.9621e-05
3.03374e-05
0.0007562
0.000176937
7.67114e-05
9.35041e-05
8.00691e-05
5.34477e-05
3.0464e-05
1.67059e-05
9.76295e-06
5.93506e-06
3.44844e-06
6.46895e-07
4.2129e-06
6.42791e-06
9.19535e-06
1.21898e-05
1.5075e-05
1.7611e-05
1.964e-05
3.08228e-05
0.000785788
0.000169753
7.68724e-05
9.39808e-05
8.04501e-05
5.36342e-05
3.05219e-05
1.67153e-05
9.76496e-06
5.94345e-06
3.50821e-06
6.91915e-07
4.14477e-06
6.36233e-06
9.13633e-06
1.21414e-05
1.50501e-05
1.76099e-05
1.96601e-05
3.13305e-05
0.000816385
0.000162817
7.70564e-05
9.44711e-05
8.0867e-05
5.38609e-05
3.0609e-05
1.67409e-05
9.7747e-06
5.95523e-06
3.54705e-06
7.23552e-07
4.07966e-06
6.29897e-06
9.08121e-06
1.20976e-05
1.50289e-05
1.7611e-05
1.96812e-05
3.18612e-05
0.000848001
0.00015614
7.72466e-05
9.49758e-05
8.13215e-05
5.41303e-05
3.07294e-05
1.67889e-05
9.80112e-06
5.9823e-06
3.58461e-06
7.18933e-07
4.01879e-06
6.24198e-06
9.0275e-06
1.20581e-05
1.50112e-05
1.76144e-05
1.97035e-05
3.2462e-05
0.000880518