/*--------------------------------*- C++ -*----------------------------------*\
  =========                 |
  \\      /  F ield         | OpenFOAM: The Open Source CFD Toolbox
   \\    /   O peration     | Website:  https://openfoam.org
    \\  /    A nd           | Version:  8
     \\/     M anipulation  |
\*---------------------------------------------------------------------------*/
FoamFile
{
    version     2.0;
    format      ascii;
    class       volScalarField;
    location    "200";
    object      k;
}
// * * * * * * * * * * * * * * * * * * * * * * * * * * * * * * * * * * * * * //

dimensions      [0 2 -2 0 0 0 0];

internalField   nonuniform List<scalar> 
8400
(
0.00183039
0.0017766
0.00171728
0.00164418
0.00155279
0.00144683
0.00133431
0.00122846
0.00115023
0.00112371
0.00115286
0.00119408
0.00120314
0.00118781
0.00117137
0.00117116
0.00120129
0.00126887
0.00134272
0.00139395
0.00142022
0.00142364
0.00140885
0.00138877
0.00136737
0.00134474
0.00132103
0.0012963
0.00127067
0.0012443
0.00121732
0.00119223
0.00116969
0.00114944
0.00113118
0.00111457
0.00109926
0.00108493
0.00107129
0.00105807
0.00104511
0.00103226
0.00101944
0.00100659
0.000993715
0.000980845
0.00096805
0.000955454
0.000943221
0.00093158
0.00251583
0.00243061
0.00238293
0.0023033
0.00217867
0.00200054
0.00176253
0.00145515
0.00108008
0.000678006
0.000442297
0.0003896
0.000386389
0.000396667
0.00040574
0.000380445
0.000307239
0.000250705
0.000252453
0.00025847
0.000265967
0.000272325
0.000276876
0.000274189
0.000265407
0.000254088
0.000242568
0.000232443
0.000224757
0.000220121
0.000218804
0.000218414
0.000218134
0.000217953
0.000217862
0.000217856
0.000217923
0.000218047
0.000218219
0.000218428
0.000218664
0.000218917
0.000219183
0.00021946
0.000219745
0.000220039
0.000220343
0.000220657
0.000220982
0.000221323
0.00298467
0.00296407
0.00294207
0.00291909
0.0028954
0.00286989
0.00283881
0.0028014
0.00274401
0.00174783
0.000883125
0.000864095
0.000916041
0.000985128
0.00104884
0.000946212
0.000580729
0.000257718
0.000232169
0.000211518
0.000206132
0.000204613
0.000204471
0.0002035
0.000202125
0.000200856
0.000199974
0.000199586
0.000199678
0.000200172
0.000200991
0.000201586
0.00020184
0.000201821
0.000201631
0.000201378
0.000201157
0.000201036
0.000201058
0.000201237
0.000201569
0.000202046
0.000202653
0.000203381
0.000204218
0.000205154
0.000206176
0.000207276
0.000208446
0.00020968
0.0029937
0.00298636
0.00297882
0.00297098
0.00296278
0.00295425
0.00294531
0.00293384
0.0029184
0.00284743
0.0026843
0.00254492
0.00246384
0.00247249
0.00249208
0.00248919
0.00148016
0.000365173
0.000373367
0.000258871
0.000243029
0.000238789
0.000236078
0.000234868
0.000234707
0.000235347
0.000236603
0.000238314
0.000240326
0.000242488
0.000244659
0.000245129
0.000243738
0.00024087
0.000237033
0.000232762
0.000228522
0.00022466
0.00022139
0.000218797
0.000216873
0.000215554
0.000214751
0.000214375
0.000214345
0.000214591
0.000215059
0.000215705
0.000216495
0.000217402
0.00299357
0.00298628
0.00297875
0.002971
0.00296295
0.00295463
0.00294599
0.00293684
0.00292684
0.00291066
0.00287634
0.0028308
0.00278441
0.00274508
0.00270604
0.00265013
0.00235597
0.00207467
0.00105994
0.000372143
0.000359733
0.000351118
0.000349698
0.000352101
0.000356975
0.000363303
0.000370317
0.000377407
0.000384003
0.00038957
0.000393646
0.000391899
0.000384418
0.000372304
0.000356978
0.000339966
0.000322707
0.000306382
0.000291826
0.000279508
0.000269567
0.000261893
0.000256215
0.000252187
0.000249458
0.000247709
0.00024668
0.000246174
0.000246045
0.000246184
0.00299216
0.00298327
0.00297415
0.00296481
0.00295527
0.00294558
0.00293583
0.00292606
0.00291631
0.00290574
0.00289119
0.00287104
0.00284563
0.00281579
0.00277943
0.00272513
0.00255959
0.00231781
0.00181499
0.00112386
0.000528853
0.000532288
0.000546405
0.000566276
0.000589659
0.000614089
0.000638012
0.000660109
0.0006788
0.000692598
0.000700152
0.000694943
0.000678149
0.000651414
0.000616875
0.000577021
0.000534457
0.000491692
0.000450919
0.00041386
0.000381656
0.000354845
0.000333423
0.000316962
0.000304774
0.000296065
0.000290062
0.000286087
0.00028359
0.000282154
0.00299114
0.00298093
0.00297046
0.00295976
0.00294892
0.0029379
0.00292681
0.00291575
0.00290489
0.00289418
0.00288278
0.00286944
0.00285292
0.00283193
0.0028037
0.00275827
0.00264396
0.00244997
0.00208682
0.00156662
0.000920649
0.000719161
0.000774151
0.000829589
0.000885418
0.000940081
0.000992122
0.00103871
0.0010766
0.001103
0.00111498
0.00111078
0.00109233
0.00106035
0.00101606
0.000961223
0.000898073
0.000829191
0.000757434
0.000685765
0.000617027
0.000553686
0.000497587
0.000449793
0.000410567
0.00037949
0.000355666
0.000337932
0.000325059
0.000315917
0.00298959
0.00297744
0.00296517
0.00295281
0.00294041
0.00292792
0.00291548
0.00290323
0.00289133
0.00287989
0.0028688
0.00285743
0.00284473
0.00282908
0.00280734
0.00277031
0.00268418
0.00252779
0.0022449
0.00182751
0.0012937
0.000931041
0.000957975
0.00105394
0.00114045
0.00121874
0.00128867
0.00134872
0.00139741
0.00143145
0.00144579
0.00145094
0.0014455
0.00142813
0.00139842
0.00135665
0.00130346
0.00123977
0.0011668
0.00108617
0.000999903
0.000910575
0.000821166
0.000734812
0.000654426
0.000582342
0.000520068
0.000468172
0.000426269
0.000393191
0.00298743
0.00297237
0.00295754
0.0029428
0.00292821
0.00291391
0.00290001
0.00288663
0.0028739
0.00286199
0.00285097
0.00284056
0.00283003
0.00281786
0.00280086
0.00277066
0.00270259
0.00257494
0.00234828
0.00200955
0.00156882
0.00119071
0.00107983
0.00118058
0.00128529
0.00136753
0.00143271
0.00148474
0.00152645
0.00155785
0.00157996
0.0016023
0.00161798
0.00162307
0.00161653
0.0015987
0.00157041
0.00153255
0.0014859
0.00143097
0.00136803
0.00129734
0.0012193
0.00113476
0.0010451
0.000952336
0.000859244
0.00076928
0.00068603
0.000612248
0.00298381
0.00296395
0.00294514
0.00292705
0.00290971
0.00289336
0.00287807
0.00286388
0.0028509
0.00283927
0.00282893
0.00281968
0.00281111
0.00280178
0.00278857
0.0027638
0.00270816
0.00260233
0.00241752
0.00214173
0.00178249
0.00143707
0.00124448
0.00123825
0.00132648
0.00139916
0.00144373
0.0014733
0.00149888
0.00152503
0.00157279
0.00162698
0.00167088
0.00169911
0.00171194
0.0017112
0.00169907
0.00167757
0.00164843
0.00161296
0.00157201
0.00152607
0.00147546
0.00142047
0.00136128
0.00129771
0.00122903
0.00115436
0.00107328
0.000986808
0.00297721
0.00294806
0.00292285
0.00290034
0.00288022
0.0028624
0.00284663
0.00283271
0.00282056
0.00281036
0.00280188
0.00279487
0.0027889
0.00278247
0.0027725
0.0027519
0.00270496
0.00261555
0.00246259
0.00223731
0.00194691
0.00165265
0.00144333
0.00136024
0.00136962
0.00140291
0.00142454
0.00142496
0.00138089
0.00131804
0.00151225
0.00161323
0.00168928
0.00173896
0.00176691
0.00177766
0.00177503
0.00176206
0.00174113
0.00171399
0.00168184
0.00164548
0.00160541
0.00156211
0.00151595
0.00146717
0.00141578
0.00136168
0.00130478
0.00124511
0.00296025
0.00290686
0.00287825
0.00285414
0.00283407
0.00281726
0.00280339
0.00279214
0.00278312
0.00277618
0.00277096
0.00276726
0.00276444
0.00276088
0.00275365
0.00273607
0.00269503
0.00261771
0.00248905
0.00230403
0.00207035
0.00182919
0.0016377
0.00152771
0.0014873
0.00148192
0.00148508
0.00148653
0.00148445
0.00150246
0.0015731
0.00166162
0.00173542
0.00178703
0.0018181
0.00183235
0.00183343
0.00182442
0.00180773
0.0017852
0.00175814
0.00172744
0.00169376
0.0016576
0.00161932
0.00157916
0.0015372
0.00149345
0.00144787
0.0014004
0.00288996
0.00284296
0.00281604
0.00279385
0.00277639
0.0027631
0.00275347
0.0027467
0.00274231
0.00273978
0.00273858
0.00273849
0.0027388
0.00273787
0.00273283
0.00271675
0.00267915
0.00261042
0.00250028
0.00234725
0.00215961
0.00196663
0.00180571
0.00169869
0.00164192
0.00161852
0.00161308
0.00161813
0.00163281
0.00166019
0.00170667
0.00176263
0.00181244
0.00184947
0.00187245
0.00188263
0.00188213
0.00187315
0.00185762
0.00183707
0.00181267
0.00178528
0.00175553
0.00172392
0.0016908
0.0016564
0.00162087
0.00158424
0.00154653
0.00150769
0.00279678
0.00276229
0.00274033
0.00272395
0.00271261
0.00270563
0.00270209
0.00270102
0.00270182
0.00270392
0.00270667
0.00270963
0.00271205
0.00271233
0.00270786
0.00269294
0.00265958
0.0025944
0.00249834
0.00237089
0.00222042
0.0020686
0.0019401
0.001849
0.00179432
0.00176743
0.00175945
0.00176469
0.00178026
0.00180353
0.00183351
0.00186683
0.00189577
0.00191641
0.00192764
0.00192992
0.00192441
0.00191255
0.00189567
0.00187492
0.00185121
0.00182523
0.00179755
0.00176859
0.00173868
0.00170802
0.00167674
0.0016449
0.00161254
0.00157962
0.00269745
0.00267718
0.00266457
0.00265709
0.00265377
0.00265377
0.00265615
0.00266006
0.0026649
0.00267019
0.0026753
0.0026797
0.00268253
0.00268232
0.00267671
0.00266136
0.00263013
0.00257375
0.00248794
0.00237785
0.00225756
0.00213997
0.00204112
0.00196936
0.00192405
0.0019001
0.00189189
0.00189482
0.0019053
0.00192011
0.00193644
0.00195296
0.00196583
0.00197286
0.0019734
0.00196774
0.00195663
0.00194101
0.00192181
0.00189984
0.00187576
0.00185013
0.0018234
0.00179592
0.00176796
0.00173969
0.00171122
0.0016826
0.00165385
0.00162498
0.00261315
0.002606
0.00260314
0.00260351
0.00260635
0.00261099
0.00261676
0.00262306
0.00262948
0.0026356
0.0026409
0.00264482
0.00264649
0.00264461
0.0026372
0.00262106
0.00259173
0.00254291
0.00247132
0.00237432
0.00227497
0.00218545
0.00211195
0.00205855
0.00202406
0.00200478
0.00199667
0.00199622
0.00200029
0.00200619
0.00201154
0.00201545
0.00201615
0.00201256
0.00200446
0.0019921
0.00197602
0.00195687
0.00193529
0.00191185
0.00188705
0.00186129
0.00183493
0.00180826
0.00178148
0.00175472
0.00172808
0.00170161
0.00167535
0.00164931
0.00255143
0.00255217
0.00255478
0.00255884
0.002564
0.00256987
0.00257607
0.00258223
0.00258805
0.0025932
0.00259722
0.00259957
0.00259946
0.00259581
0.00258705
0.0025709
0.00254425
0.00250299
0.002444
0.00236604
0.0022748
0.00220872
0.00215626
0.00211841
0.00209335
0.00207819
0.00206987
0.00206578
0.00206367
0.00206175
0.00205842
0.00205298
0.00204471
0.00203326
0.00201866
0.00200124
0.00198142
0.00195965
0.00193637
0.00191194
0.00188669
0.00186091
0.00183482
0.00180863
0.00178249
0.00175651
0.00173082
0.00170551
0.00168065
0.00165629
0.00249644
0.00249937
0.00250302
0.00250726
0.00251197
0.00251694
0.00252194
0.00252674
0.00253112
0.00253475
0.00253724
0.00253809
0.00253665
0.00253207
0.00252319
0.00250843
0.0024857
0.00245237
0.00240577
0.00234356
0.00226667
0.00221245
0.00217652
0.00215084
0.00213289
0.0021203
0.00211103
0.00210332
0.00209578
0.00208735
0.00207712
0.00206484
0.00205051
0.00203426
0.00201632
0.00199695
0.00197639
0.00195486
0.00193249
0.00190939
0.00188564
0.00186131
0.00183646
0.00181115
0.00178544
0.00175943
0.00173327
0.00170713
0.00168121
0.00165576
0.00242263
0.00242481
0.0024274
0.00243034
0.00243361
0.00243709
0.00244064
0.00244405
0.00244713
0.0024496
0.00245112
0.00245131
0.00244966
0.00244552
0.00243813
0.00242644
0.00240913
0.00238452
0.00235058
0.00230476
0.00224489
0.00219484
0.0021714
0.00215401
0.00214027
0.00212852
0.0021175
0.00210626
0.00209411
0.00208057
0.00206772
0.00205626
0.00204567
0.00203555
0.00202556
0.00201538
0.00200473
0.00199332
0.00198093
0.00196731
0.00195228
0.00193563
0.00191719
0.00189676
0.00187418
0.0018493
0.00182197
0.001792
0.00175916
0.00172355
0.00327308
0.00321886
0.00316501
0.00311084
0.00305657
0.0030025
0.00294899
0.00289636
0.00284485
0.00279461
0.00274567
0.00269798
0.00265138
0.00260561
0.00256028
0.00251487
0.00246873
0.00242111
0.0023711
0.0023173
0.00225426
0.00220776
0.00220303
0.00220961
0.00222334
0.00224203
0.00226409
0.00228837
0.00231428
0.00234158
0.00236796
0.00239227
0.00241461
0.00243513
0.00245401
0.00247144
0.00248758
0.00250259
0.00251664
0.0025299
0.00254256
0.00255482
0.00256685
0.00257883
0.00259095
0.00260342
0.00261641
0.00263005
0.00264423
0.00265794
2.38379e-05
2.36244e-05
2.34225e-05
2.32308e-05
2.30461e-05
2.28625e-05
2.26796e-05
2.24968e-05
2.23139e-05
2.21308e-05
2.19475e-05
2.1764e-05
2.15806e-05
2.13973e-05
2.12144e-05
2.10321e-05
2.08509e-05
2.0671e-05
2.04931e-05
2.03171e-05
2.00995e-05
1.99269e-05
1.97418e-05
1.95524e-05
1.93237e-05
1.91106e-05
1.89096e-05
1.87181e-05
1.85347e-05
1.83584e-05
1.81885e-05
1.80247e-05
1.78666e-05
1.77139e-05
1.75665e-05
1.74243e-05
1.72871e-05
1.71549e-05
1.70275e-05
1.69047e-05
1.67866e-05
1.66723e-05
1.65608e-05
1.64521e-05
1.63456e-05
1.62408e-05
1.6137e-05
1.60336e-05
1.59294e-05
1.58217e-05
2.32375e-05
2.21912e-05
2.12233e-05
2.03231e-05
1.94847e-05
1.87058e-05
1.79799e-05
1.73016e-05
1.66665e-05
1.60709e-05
1.55113e-05
1.4985e-05
1.44892e-05
1.40218e-05
1.35806e-05
1.31636e-05
1.2769e-05
1.23952e-05
1.20407e-05
1.17037e-05
1.1495e-05
1.14389e-05
1.13543e-05
1.12638e-05
1.1273e-05
1.12972e-05
1.13225e-05
1.13423e-05
1.13543e-05
1.13584e-05
1.1355e-05
1.13452e-05
1.13302e-05
1.13111e-05
1.12886e-05
1.12636e-05
1.12365e-05
1.12076e-05
1.11767e-05
1.11436e-05
1.11081e-05
1.10707e-05
1.10317e-05
1.0991e-05
1.09483e-05
1.09035e-05
1.08562e-05
1.08054e-05
1.07494e-05
1.06853e-05
2.32347e-05
2.21796e-05
2.11967e-05
2.02802e-05
1.94233e-05
1.86204e-05
1.78668e-05
1.7158e-05
1.64901e-05
1.58599e-05
1.52643e-05
1.47009e-05
1.41672e-05
1.36612e-05
1.31811e-05
1.27252e-05
1.2292e-05
1.18801e-05
1.1489e-05
1.13953e-05
1.13041e-05
1.12139e-05
1.11253e-05
1.10382e-05
1.09561e-05
1.08771e-05
1.08008e-05
1.07266e-05
1.0654e-05
1.05826e-05
1.05124e-05
1.04431e-05
1.03749e-05
1.03078e-05
1.02418e-05
1.01771e-05
1.01137e-05
1.00514e-05
9.99044e-06
9.93072e-06
9.87205e-06
9.81426e-06
9.75716e-06
9.70052e-06
9.64413e-06
9.58781e-06
9.53165e-06
9.47597e-06
9.42098e-06
9.36554e-06
2.32347e-05
2.2187e-05
2.12124e-05
2.03033e-05
1.94524e-05
1.86542e-05
1.79038e-05
1.7197e-05
1.65301e-05
1.59e-05
1.53039e-05
1.47392e-05
1.42037e-05
1.36954e-05
1.32125e-05
1.27534e-05
1.23168e-05
1.19012e-05
1.15063e-05
1.14074e-05
1.13116e-05
1.1218e-05
1.1126e-05
1.10356e-05
1.09465e-05
1.08586e-05
1.07717e-05
1.06857e-05
1.06005e-05
1.0516e-05
1.04323e-05
1.03493e-05
1.02671e-05
1.01859e-05
1.01057e-05
1.00267e-05
9.94901e-06
9.87259e-06
9.79749e-06
9.72367e-06
9.65108e-06
9.57964e-06
9.50929e-06
9.43992e-06
9.37134e-06
9.30324e-06
9.23532e-06
9.16754e-06
9.10046e-06
9.03433e-06
2.32347e-05
2.21872e-05
2.12121e-05
2.03019e-05
1.94497e-05
1.86501e-05
1.78984e-05
1.71906e-05
1.65231e-05
1.58927e-05
1.52964e-05
1.47319e-05
1.41967e-05
1.36889e-05
1.32067e-05
1.27483e-05
1.23124e-05
1.18976e-05
1.15034e-05
1.1403e-05
1.13089e-05
1.12166e-05
1.11256e-05
1.1036e-05
1.09474e-05
1.08597e-05
1.07728e-05
1.06865e-05
1.06007e-05
1.05154e-05
1.04306e-05
1.03463e-05
1.02626e-05
1.01797e-05
1.00975e-05
1.00164e-05
9.93625e-06
9.85724e-06
9.77933e-06
9.70253e-06
9.62677e-06
9.55203e-06
9.47825e-06
9.40544e-06
9.33359e-06
9.26266e-06
9.19241e-06
9.1225e-06
9.05292e-06
8.98382e-06
2.32347e-05
2.21877e-05
2.12137e-05
2.03049e-05
1.94542e-05
1.86562e-05
1.7906e-05
1.71996e-05
1.65333e-05
1.59039e-05
1.53085e-05
1.47447e-05
1.421e-05
1.37026e-05
1.32206e-05
1.27624e-05
1.23265e-05
1.19117e-05
1.15158e-05
1.12305e-05
1.11992e-05
1.11482e-05
1.10845e-05
1.10128e-05
1.0936e-05
1.0856e-05
1.07741e-05
1.06909e-05
1.06071e-05
1.05229e-05
1.04386e-05
1.03544e-05
1.02706e-05
1.01873e-05
1.01046e-05
1.00227e-05
9.9417e-06
9.86171e-06
9.78274e-06
9.70476e-06
9.62775e-06
9.55165e-06
9.47639e-06
9.4019e-06
9.32814e-06
9.25516e-06
9.18301e-06
9.11154e-06
9.04061e-06
8.97017e-06
2.32347e-05
2.21878e-05
2.12141e-05
2.03054e-05
1.94547e-05
1.86566e-05
1.79062e-05
1.71994e-05
1.65328e-05
1.5903e-05
1.53073e-05
1.47431e-05
1.42081e-05
1.37005e-05
1.32184e-05
1.27601e-05
1.23242e-05
1.19094e-05
1.15136e-05
1.12263e-05
1.11947e-05
1.11441e-05
1.10809e-05
1.10097e-05
1.09332e-05
1.08534e-05
1.07716e-05
1.06886e-05
1.06049e-05
1.05209e-05
1.04369e-05
1.03529e-05
1.02693e-05
1.0186e-05
1.01033e-05
1.00214e-05
9.94023e-06
9.85994e-06
9.78054e-06
9.70203e-06
9.6244e-06
9.54763e-06
9.47169e-06
9.3965e-06
9.32197e-06
9.24806e-06
9.17483e-06
9.10228e-06
9.03033e-06
8.95893e-06
2.32347e-05
2.21879e-05
2.12143e-05
2.03059e-05
1.94556e-05
1.86578e-05
1.79079e-05
1.72016e-05
1.65354e-05
1.59061e-05
1.53108e-05
1.4747e-05
1.42124e-05
1.37051e-05
1.32232e-05
1.27652e-05
1.23295e-05
1.19149e-05
1.15192e-05
1.12313e-05
1.11961e-05
1.11421e-05
1.10758e-05
1.10012e-05
1.09215e-05
1.08389e-05
1.07548e-05
1.06702e-05
1.05856e-05
1.05014e-05
1.04176e-05
1.03345e-05
1.02519e-05
1.01699e-05
1.00884e-05
1.00076e-05
9.92752e-06
9.84809e-06
9.76933e-06
9.69124e-06
9.6138e-06
9.537e-06
9.46086e-06
9.3854e-06
9.31057e-06
9.23632e-06
9.16266e-06
9.08962e-06
9.01718e-06
8.94533e-06
2.32347e-05
2.21879e-05
2.12145e-05
2.03062e-05
1.9456e-05
1.86584e-05
1.79086e-05
1.72025e-05
1.65364e-05
1.59071e-05
1.53118e-05
1.47479e-05
1.42133e-05
1.3706e-05
1.3224e-05
1.27659e-05
1.23301e-05
1.19155e-05
1.15214e-05
1.13632e-05
1.12461e-05
1.11515e-05
1.10671e-05
1.09865e-05
1.09066e-05
1.08261e-05
1.07446e-05
1.06622e-05
1.05793e-05
1.0496e-05
1.04127e-05
1.03296e-05
1.02469e-05
1.01646e-05
1.00828e-05
1.00017e-05
9.92133e-06
9.84163e-06
9.76264e-06
9.68432e-06
9.60663e-06
9.52955e-06
9.45306e-06
9.3772e-06
9.30196e-06
9.22732e-06
9.15327e-06
9.07982e-06
9.00698e-06
8.93471e-06
2.32347e-05
2.21879e-05
2.12145e-05
2.03063e-05
1.94563e-05
1.86589e-05
1.79093e-05
1.72033e-05
1.65374e-05
1.59083e-05
1.53131e-05
1.47495e-05
1.4215e-05
1.37078e-05
1.32259e-05
1.27679e-05
1.23323e-05
1.19179e-05
1.15239e-05
1.14074e-05
1.12922e-05
1.11849e-05
1.10862e-05
1.09941e-05
1.09064e-05
1.08215e-05
1.0738e-05
1.06552e-05
1.05726e-05
1.04901e-05
1.04076e-05
1.03253e-05
1.02431e-05
1.01611e-05
1.00796e-05
9.99859e-06
9.91817e-06
9.83838e-06
9.75923e-06
9.68071e-06
9.60278e-06
9.52543e-06
9.44864e-06
9.37241e-06
9.29678e-06
9.22173e-06
9.14726e-06
9.07339e-06
9.00012e-06
8.92738e-06
2.32347e-05
2.21879e-05
2.12146e-05
2.03065e-05
1.94566e-05
1.86593e-05
1.79097e-05
1.72039e-05
1.6538e-05
1.5909e-05
1.5314e-05
1.47504e-05
1.4216e-05
1.37089e-05
1.32271e-05
1.27692e-05
1.23337e-05
1.19194e-05
1.15255e-05
1.14078e-05
1.12953e-05
1.11896e-05
1.1091e-05
1.09983e-05
1.09096e-05
1.08236e-05
1.07391e-05
1.06554e-05
1.05722e-05
1.04891e-05
1.04061e-05
1.03233e-05
1.02407e-05
1.01585e-05
1.00768e-05
9.99568e-06
9.91521e-06
9.83543e-06
9.75631e-06
9.67783e-06
9.59994e-06
9.52261e-06
9.44581e-06
9.36951e-06
9.29372e-06
9.21845e-06
9.14371e-06
9.0695e-06
8.99581e-06
8.92259e-06
2.32347e-05
2.21879e-05
2.12146e-05
2.03066e-05
1.94567e-05
1.86594e-05
1.791e-05
1.72041e-05
1.65383e-05
1.59093e-05
1.53143e-05
1.47507e-05
1.42163e-05
1.37092e-05
1.32274e-05
1.27695e-05
1.23341e-05
1.19199e-05
1.15248e-05
1.12385e-05
1.12017e-05
1.1144e-05
1.10733e-05
1.09949e-05
1.09123e-05
1.08277e-05
1.07425e-05
1.06573e-05
1.05725e-05
1.04883e-05
1.04046e-05
1.03215e-05
1.0239e-05
1.01571e-05
1.00758e-05
9.99524e-06
9.91529e-06
9.83598e-06
9.75726e-06
9.67906e-06
9.60132e-06
9.52398e-06
9.44703e-06
9.37044e-06
9.29422e-06
9.21839e-06
9.14299e-06
9.06804e-06
8.99354e-06
8.91949e-06
2.32347e-05
2.21879e-05
2.12146e-05
2.03065e-05
1.94567e-05
1.86594e-05
1.791e-05
1.72043e-05
1.65386e-05
1.59098e-05
1.5315e-05
1.47516e-05
1.42174e-05
1.37105e-05
1.3229e-05
1.27714e-05
1.23363e-05
1.19223e-05
1.15289e-05
1.13703e-05
1.12506e-05
1.11522e-05
1.10637e-05
1.09792e-05
1.08963e-05
1.08138e-05
1.07315e-05
1.06491e-05
1.05667e-05
1.04844e-05
1.04023e-05
1.03203e-05
1.02387e-05
1.01573e-05
1.00764e-05
9.99597e-06
9.91603e-06
9.8366e-06
9.75764e-06
9.67911e-06
9.60094e-06
9.5231e-06
9.44556e-06
9.36832e-06
9.29139e-06
9.21482e-06
9.13866e-06
9.06294e-06
8.98769e-06
8.91292e-06
2.32347e-05
2.21879e-05
2.12144e-05
2.03061e-05
1.9456e-05
1.86586e-05
1.79089e-05
1.72029e-05
1.6537e-05
1.59079e-05
1.53128e-05
1.47492e-05
1.42148e-05
1.37077e-05
1.32261e-05
1.27685e-05
1.23334e-05
1.19195e-05
1.15261e-05
1.13684e-05
1.12486e-05
1.11499e-05
1.10612e-05
1.09769e-05
1.08943e-05
1.08122e-05
1.07303e-05
1.06484e-05
1.05665e-05
1.04845e-05
1.04026e-05
1.03208e-05
1.02391e-05
1.01577e-05
1.00766e-05
9.99584e-06
9.91549e-06
9.83558e-06
9.75608e-06
9.67695e-06
9.59815e-06
9.51963e-06
9.44138e-06
9.3634e-06
9.28574e-06
9.20846e-06
9.13161e-06
9.05524e-06
8.97945e-06
8.90417e-06
2.32347e-05
2.21878e-05
2.12141e-05
2.03057e-05
1.94557e-05
1.86584e-05
1.79091e-05
1.72036e-05
1.65381e-05
1.59095e-05
1.53149e-05
1.47517e-05
1.42177e-05
1.3711e-05
1.32298e-05
1.27724e-05
1.23376e-05
1.19239e-05
1.15306e-05
1.13722e-05
1.1254e-05
1.11567e-05
1.10682e-05
1.09836e-05
1.09005e-05
1.08179e-05
1.07355e-05
1.0653e-05
1.05706e-05
1.04882e-05
1.04058e-05
1.03235e-05
1.02413e-05
1.01593e-05
1.00775e-05
9.9961e-06
9.91504e-06
9.83438e-06
9.75412e-06
9.67421e-06
9.59462e-06
9.51532e-06
9.43631e-06
9.35762e-06
9.27932e-06
9.20148e-06
9.12417e-06
9.04751e-06
8.97158e-06
8.89639e-06
2.32347e-05
2.21872e-05
2.12124e-05
2.03026e-05
1.94511e-05
1.86523e-05
1.79016e-05
1.71948e-05
1.65282e-05
1.58987e-05
1.53033e-05
1.47396e-05
1.42052e-05
1.36983e-05
1.32169e-05
1.27596e-05
1.23248e-05
1.19113e-05
1.15168e-05
1.12297e-05
1.11942e-05
1.11381e-05
1.10691e-05
1.09922e-05
1.09109e-05
1.08274e-05
1.0743e-05
1.06584e-05
1.0574e-05
1.04899e-05
1.04061e-05
1.03228e-05
1.02398e-05
1.01572e-05
1.0075e-05
9.99319e-06
9.91187e-06
9.83105e-06
9.75068e-06
9.67075e-06
9.59123e-06
9.51211e-06
9.43341e-06
9.35521e-06
9.27759e-06
9.20066e-06
9.12457e-06
9.04948e-06
8.97554e-06
8.90293e-06
2.32347e-05
2.2187e-05
2.12126e-05
2.03039e-05
1.94538e-05
1.86565e-05
1.79071e-05
1.72013e-05
1.65355e-05
1.59064e-05
1.53113e-05
1.47476e-05
1.42131e-05
1.37059e-05
1.32242e-05
1.27664e-05
1.23312e-05
1.19173e-05
1.15239e-05
1.13668e-05
1.12491e-05
1.1152e-05
1.1064e-05
1.098e-05
1.08976e-05
1.08159e-05
1.07344e-05
1.06531e-05
1.05718e-05
1.04907e-05
1.04098e-05
1.0329e-05
1.02485e-05
1.01683e-05
1.00884e-05
1.00092e-05
9.93051e-06
9.85256e-06
9.77532e-06
9.69881e-06
9.62304e-06
9.54805e-06
9.47391e-06
9.40072e-06
9.32863e-06
9.25781e-06
9.18854e-06
9.12111e-06
9.05589e-06
8.99332e-06
2.32347e-05
2.21796e-05
2.11969e-05
2.02807e-05
1.94245e-05
1.86227e-05
1.78704e-05
1.71632e-05
1.64972e-05
1.58688e-05
1.52752e-05
1.47137e-05
1.41818e-05
1.36775e-05
1.31991e-05
1.27448e-05
1.23132e-05
1.19029e-05
1.15133e-05
1.14158e-05
1.13136e-05
1.12127e-05
1.11149e-05
1.10217e-05
1.09333e-05
1.08495e-05
1.07698e-05
1.06933e-05
1.06195e-05
1.05514e-05
1.04865e-05
1.04229e-05
1.03597e-05
1.02967e-05
1.02339e-05
1.01715e-05
1.01098e-05
1.00489e-05
9.98895e-06
9.93008e-06
9.87235e-06
9.81583e-06
9.76058e-06
9.70673e-06
9.65443e-06
9.60396e-06
9.55572e-06
9.51022e-06
9.46831e-06
9.43101e-06
2.32377e-05
2.21914e-05
2.12229e-05
2.03222e-05
1.94841e-05
1.87062e-05
1.79828e-05
1.73083e-05
1.66778e-05
1.6087e-05
1.55322e-05
1.50102e-05
1.45182e-05
1.40535e-05
1.36143e-05
1.31985e-05
1.28045e-05
1.24308e-05
1.20762e-05
1.17389e-05
1.14233e-05
1.13586e-05
1.128e-05
1.12021e-05
1.11314e-05
1.10702e-05
1.10182e-05
1.09737e-05
1.0936e-05
1.09932e-05
1.10593e-05
1.11182e-05
1.11632e-05
1.11929e-05
1.12085e-05
1.12124e-05
1.1207e-05
1.11945e-05
1.11769e-05
1.11555e-05
1.11315e-05
1.11057e-05
1.10788e-05
1.10512e-05
1.10235e-05
1.09962e-05
1.09699e-05
1.09457e-05
1.0925e-05
1.09105e-05
2.38372e-05
2.36255e-05
2.34244e-05
2.32328e-05
2.30478e-05
2.2864e-05
2.26799e-05
2.24949e-05
2.2309e-05
2.21221e-05
2.19345e-05
2.17465e-05
2.15586e-05
2.13713e-05
2.11851e-05
2.10006e-05
2.08183e-05
2.06386e-05
2.04619e-05
2.02882e-05
2.01175e-05
1.99327e-05
1.97418e-05
1.95487e-05
1.93555e-05
1.91635e-05
1.89739e-05
1.87874e-05
1.86046e-05
1.83911e-05
1.81954e-05
1.80132e-05
1.78416e-05
1.76782e-05
1.75215e-05
1.73702e-05
1.72235e-05
1.70808e-05
1.69416e-05
1.68057e-05
1.66726e-05
1.65421e-05
1.64141e-05
1.62884e-05
1.61647e-05
1.60429e-05
1.59227e-05
1.58036e-05
1.56848e-05
1.55649e-05
0.000302936
0.000107641
0.000100515
9.37219e-05
7.84754e-05
6.11395e-05
4.64671e-05
3.59764e-05
2.91803e-05
2.54064e-05
2.38995e-05
2.54517e-05
2.83425e-05
3.10939e-05
3.3391e-05
3.53532e-05
3.7084e-05
3.84564e-05
4.35512e-05
0.000242965
0.00029691
0.000106554
0.000100848
9.39541e-05
7.82739e-05
6.05656e-05
4.57028e-05
3.51692e-05
2.83723e-05
2.46057e-05
2.31087e-05
2.49122e-05
2.79097e-05
3.07923e-05
3.32604e-05
3.53893e-05
3.72575e-05
3.87321e-05
4.41265e-05
0.000251537
0.000290874
0.000105502
0.000101193
9.41819e-05
7.80676e-05
5.99935e-05
4.49495e-05
3.43807e-05
2.75846e-05
2.38225e-05
2.23575e-05
2.41739e-05
2.73054e-05
3.03551e-05
3.29726e-05
3.52159e-05
3.71677e-05
3.87055e-05
4.43324e-05
0.000257991
0.000284806
0.000104501
0.000101551
9.44055e-05
7.78577e-05
5.94245e-05
4.42082e-05
3.36116e-05
2.68173e-05
2.30555e-05
2.16247e-05
2.34798e-05
2.67155e-05
2.99195e-05
3.26849e-05
3.50435e-05
3.70798e-05
3.86809e-05
4.45479e-05
0.000264608
0.000278744
0.000103557
0.00010192
9.46252e-05
7.76456e-05
5.88605e-05
4.34808e-05
3.2863e-05
2.6071e-05
2.23036e-05
2.09113e-05
2.28067e-05
2.61337e-05
2.94855e-05
3.23976e-05
3.48724e-05
3.69938e-05
3.86583e-05
4.47732e-05
0.000271396
0.000272693
0.000102671
0.000102301
9.48415e-05
7.74326e-05
5.83031e-05
4.27689e-05
3.21363e-05
2.53465e-05
2.15666e-05
2.0212e-05
2.2149e-05
2.55591e-05
2.90532e-05
3.21111e-05
3.47026e-05
3.69097e-05
3.86376e-05
4.50084e-05
0.000278354
0.000266662
0.000101844
0.000102691
9.50548e-05
7.72202e-05
5.77539e-05
4.20737e-05
3.14321e-05
2.46436e-05
2.08428e-05
1.95251e-05
2.15055e-05
2.49925e-05
2.86236e-05
3.18259e-05
3.45345e-05
3.68275e-05
3.86189e-05
4.52539e-05
0.000285487
0.000260659
0.000101077
0.000103089
9.52655e-05
7.70096e-05
5.72145e-05
4.13964e-05
3.07507e-05
2.39622e-05
2.01299e-05
1.88473e-05
2.08765e-05
2.44361e-05
2.81987e-05
3.15429e-05
3.43683e-05
3.67474e-05
3.86021e-05
4.551e-05
0.000292801
0.000254692
0.00010037
0.000103496
9.5474e-05
7.68024e-05
5.66865e-05
4.07382e-05
3.00925e-05
2.3302e-05
1.94259e-05
1.81763e-05
2.02626e-05
2.38923e-05
2.77804e-05
3.12634e-05
3.42046e-05
3.66697e-05
3.85872e-05
4.57773e-05
0.000300304
0.00024877
9.97228e-05
0.000103908
9.56809e-05
7.65999e-05
5.61715e-05
4.01003e-05
2.94583e-05
2.26631e-05
1.87292e-05
1.75085e-05
1.96641e-05
2.33635e-05
2.73708e-05
3.09885e-05
3.40441e-05
3.65945e-05
3.85744e-05
4.60564e-05
0.000308003
0.000242899
9.91341e-05
0.000104326
9.58867e-05
7.64038e-05
5.56714e-05
3.94842e-05
2.88487e-05
2.20462e-05
1.80389e-05
1.68412e-05
1.90813e-05
2.28516e-05
2.6972e-05
3.07196e-05
3.38875e-05
3.65222e-05
3.85637e-05
4.6348e-05
0.000315907
0.000237087
9.86034e-05
0.000104748
9.6092e-05
7.62158e-05
5.51883e-05
3.88917e-05
2.8265e-05
2.14523e-05
1.73552e-05
1.61739e-05
1.85144e-05
2.23584e-05
2.65861e-05
3.0458e-05
3.37353e-05
3.6453e-05
3.85552e-05
4.66526e-05
0.000324025
0.00023134
9.81301e-05
0.000105172
9.62978e-05
7.6038e-05
5.47247e-05
3.83249e-05
2.77087e-05
2.08833e-05
1.66796e-05
1.55084e-05
1.79645e-05
2.18855e-05
2.62149e-05
3.02052e-05
3.35886e-05
3.63874e-05
3.8549e-05
4.69712e-05
0.000332368
0.000225663
9.77136e-05
0.000105598
9.65046e-05
7.58726e-05
5.42833e-05
3.77865e-05
2.71822e-05
2.0342e-05
1.60158e-05
1.48446e-05
1.74338e-05
2.14346e-05
2.58602e-05
2.99624e-05
3.3448e-05
3.63258e-05
3.85452e-05
4.73046e-05
0.000340945
0.000220061
9.73528e-05
0.000106024
9.67136e-05
7.57221e-05
5.38674e-05
3.72797e-05
2.66883e-05
1.98321e-05
1.53699e-05
1.41767e-05
1.69241e-05
2.10079e-05
2.5524e-05
2.97311e-05
3.33143e-05
3.62685e-05
3.85441e-05
4.76539e-05
0.000349766
0.000214538
9.70468e-05
0.000106449
9.69258e-05
7.55891e-05
5.34806e-05
3.68079e-05
2.62302e-05
1.93578e-05
1.47506e-05
1.3506e-05
1.64365e-05
2.0608e-05
2.52084e-05
2.95129e-05
3.31885e-05
3.62159e-05
3.85456e-05
4.80199e-05
0.000358841
0.000209099
9.67945e-05
0.000106873
9.71422e-05
7.54766e-05
5.31269e-05
3.63752e-05
2.58114e-05
1.89241e-05
1.4169e-05
1.28628e-05
1.59773e-05
2.02365e-05
2.49152e-05
2.93093e-05
3.30716e-05
3.61685e-05
3.855e-05
4.84037e-05
0.000368179
0.000203747
9.65946e-05
0.000107293
9.7364e-05
7.53874e-05
5.281e-05
3.59854e-05
2.54355e-05
1.85356e-05
1.36375e-05
1.22753e-05
1.55577e-05
1.98956e-05
2.46452e-05
2.9121e-05
3.29642e-05
3.61267e-05
3.85574e-05
4.88064e-05
0.000377788
0.000198484
9.64453e-05
0.000107709
9.75923e-05
7.53243e-05
5.25337e-05
3.56421e-05
2.51058e-05
1.81967e-05
1.31701e-05
1.17046e-05
1.51726e-05
1.959e-05
2.44005e-05
2.89486e-05
3.28665e-05
3.60905e-05
3.85678e-05
4.92289e-05
0.000387673
0.000193313
9.63447e-05
0.000108119
9.78283e-05
7.52899e-05
5.23014e-05
3.53482e-05
2.48244e-05
1.79102e-05
1.27796e-05
1.12586e-05
1.48301e-05
1.93229e-05
2.41835e-05
2.87939e-05
3.27794e-05
3.60606e-05
3.85816e-05
4.96722e-05
0.000397839
0.000188236
9.62904e-05
0.000108523
9.80728e-05
7.52865e-05
5.21156e-05
3.51056e-05
2.45922e-05
1.7676e-05
1.24713e-05
1.08506e-05
1.45224e-05
1.90864e-05
2.3991e-05
2.86548e-05
3.27016e-05
3.60359e-05
3.85982e-05
5.01369e-05
0.000408284
0.000183254
9.62796e-05
0.00010892
9.83269e-05
7.53156e-05
5.19783e-05
3.49154e-05
2.44088e-05
1.74917e-05
1.22406e-05
1.09358e-05
1.43021e-05
1.89007e-05
2.38294e-05
2.85345e-05
3.26344e-05
3.60165e-05
3.86173e-05
5.06232e-05
0.000419004
0.000178368
9.63096e-05
0.000109309
9.85911e-05
7.53784e-05
5.18904e-05
3.47779e-05
2.42736e-05
1.73565e-05
1.21033e-05
1.0825e-05
1.39302e-05
1.87281e-05
2.36859e-05
2.84294e-05
3.25777e-05
3.60032e-05
3.86393e-05
5.11318e-05
0.000429993
0.000173578
9.63772e-05
0.00010969
9.88661e-05
7.54757e-05
5.18521e-05
3.4692e-05
2.41846e-05
1.72681e-05
1.20574e-05
1.21985e-05
1.38337e-05
1.85922e-05
2.35568e-05
2.83328e-05
3.25271e-05
3.59939e-05
3.86635e-05
5.16627e-05
0.000441244
0.000168885
9.64791e-05
0.000110063
9.91523e-05
7.56079e-05
5.18638e-05
3.4657e-05
2.41395e-05
1.72244e-05
1.2084e-05
9.17444e-06
1.41724e-05
1.84912e-05
2.34531e-05
2.82498e-05
3.24839e-05
3.59885e-05
3.86896e-05
5.2216e-05
0.000452746
0.000164289
9.66106e-05
0.000110431
9.94617e-05
7.57798e-05
5.19254e-05
3.46643e-05
2.41338e-05
1.72325e-05
1.22222e-05
8.42797e-06
1.40434e-05
1.8377e-05
2.33568e-05
2.81754e-05
3.2447e-05
3.59865e-05
3.87172e-05
5.27919e-05
0.000464492
0.000159789
9.67615e-05
0.000110809
9.98016e-05
7.59921e-05
5.2024e-05
3.47002e-05
2.41533e-05