/*--------------------------------*- C++ -*----------------------------------*\
  =========                 |
  \\      /  F ield         | OpenFOAM: The Open Source CFD Toolbox
   \\    /   O peration     | Website:  https://openfoam.org
    \\  /    A nd           | Version:  8
     \\/     M anipulation  |
\*---------------------------------------------------------------------------*/
FoamFile
{
    version     2.0;
    format      ascii;
    class       volScalarField;
    location    "200";
    object      nut;
}
// * * * * * * * * * * * * * * * * * * * * * * * * * * * * * * * * * * * * * //

dimensions      [0 2 -1 0 0 0 0];

internalField   nonuniform List<scalar> 
8400
(
5.08982e-05
4.95855e-05
4.78537e-05
4.58853e-05
4.37376e-05
4.15193e-05
3.9448e-05
3.79406e-05
3.77285e-05
3.93834e-05
4.16926e-05
4.17254e-05
4.03712e-05
3.89946e-05
3.80314e-05
3.76193e-05
3.78258e-05
3.88507e-05
4.04705e-05
4.17506e-05
4.25806e-05
4.29247e-05
4.27487e-05
4.23256e-05
4.18883e-05
4.14342e-05
4.09653e-05
4.04791e-05
3.99774e-05
3.94643e-05
3.88658e-05
3.82786e-05
3.77543e-05
3.72911e-05
3.68858e-05
3.65318e-05
3.6221e-05
3.5946e-05
3.57003e-05
3.54765e-05
3.52684e-05
3.50717e-05
3.4883e-05
3.46999e-05
3.45196e-05
3.43402e-05
3.41609e-05
3.39825e-05
3.38073e-05
3.36388e-05
5.85547e-05
5.72509e-05
5.52274e-05
5.30706e-05
5.02332e-05
4.64522e-05
4.15237e-05
3.50214e-05
2.68763e-05
1.81347e-05
1.8317e-05
2.14432e-05
2.42605e-05
2.59186e-05
2.71565e-05
2.5989e-05
2.26582e-05
1.84767e-05
1.85498e-05
1.88858e-05
1.93111e-05
1.96173e-05
1.99104e-05
2.00144e-05
1.96785e-05
1.91049e-05
1.84265e-05
1.77435e-05
1.71318e-05
1.66444e-05
1.64934e-05
1.64692e-05
1.64499e-05
1.64354e-05
1.64261e-05
1.64213e-05
1.64206e-05
1.6424e-05
1.64313e-05
1.64414e-05
1.64538e-05
1.64684e-05
1.64853e-05
1.65038e-05
1.65235e-05
1.65438e-05
1.65643e-05
1.65847e-05
1.6605e-05
1.66252e-05
6.14141e-05
6.13696e-05
6.13108e-05
6.11842e-05
6.09555e-05
6.0588e-05
6.00096e-05
5.93841e-05
5.82132e-05
2.77518e-05
3.03905e-05
3.77935e-05
4.06397e-05
4.41034e-05
4.62514e-05
4.19087e-05
3.67251e-05
1.92802e-05
1.76649e-05
1.61371e-05
1.5891e-05
1.58424e-05
1.59721e-05
1.60097e-05
1.59821e-05
1.59369e-05
1.59041e-05
1.58973e-05
1.59193e-05
1.59636e-05
1.60584e-05
1.61459e-05
1.62022e-05
1.62288e-05
1.62316e-05
1.62182e-05
1.61973e-05
1.61762e-05
1.61598e-05
1.61507e-05
1.61499e-05
1.61579e-05
1.61742e-05
1.61985e-05
1.62298e-05
1.62668e-05
1.63082e-05
1.63533e-05
1.64018e-05
1.64533e-05
6.14352e-05
6.13604e-05
6.12832e-05
6.12034e-05
6.11191e-05
6.10308e-05
6.09375e-05
6.0754e-05
6.05056e-05
5.83876e-05
5.58639e-05
5.35465e-05
5.22439e-05
5.29783e-05
5.33815e-05
5.43779e-05
5.98698e-05
2.3836e-05
2.52576e-05
1.72831e-05
1.62486e-05
1.63221e-05
1.63825e-05
1.65019e-05
1.66622e-05
1.68547e-05
1.7073e-05
1.73104e-05
1.7557e-05
1.77997e-05
1.81396e-05
1.84055e-05
1.85401e-05
1.85493e-05
1.8454e-05
1.82833e-05
1.80703e-05
1.78447e-05
1.76299e-05
1.74416e-05
1.72877e-05
1.71693e-05
1.70836e-05
1.70264e-05
1.6992e-05
1.69752e-05
1.69719e-05
1.69798e-05
1.69972e-05
1.70224e-05
6.14336e-05
6.13583e-05
6.12802e-05
6.12011e-05
6.11179e-05
6.10347e-05
6.09459e-05
6.08484e-05
6.07341e-05
6.04197e-05
5.97731e-05
5.89523e-05
5.82125e-05
5.77812e-05
5.74528e-05
5.75082e-05
5.80771e-05
5.65214e-05
5.5994e-05
1.92345e-05
1.91188e-05
1.88564e-05
1.89652e-05
1.92733e-05
1.97042e-05
2.02157e-05
2.07793e-05
2.13683e-05
2.19529e-05
2.24987e-05
2.32028e-05
2.36994e-05
2.39197e-05
2.38738e-05
2.35893e-05
2.31095e-05
2.24902e-05
2.17941e-05
2.10829e-05
2.0411e-05
1.98181e-05
1.93254e-05
1.89371e-05
1.86449e-05
1.84332e-05
1.8285e-05
1.81852e-05
1.81217e-05
1.80851e-05
1.80682e-05
6.14182e-05
6.13253e-05
6.12308e-05
6.11361e-05
6.10403e-05
6.0946e-05
6.0852e-05
6.07594e-05
6.0663e-05
6.05369e-05
6.03157e-05
5.99852e-05
5.95876e-05
5.91941e-05
5.88219e-05
5.86932e-05
5.86846e-05
5.76164e-05
5.45306e-05
4.50407e-05
2.23892e-05
2.24064e-05
2.29573e-05
2.37444e-05
2.46695e-05
2.56839e-05
2.67442e-05
2.78093e-05
2.88301e-05
2.97407e-05
3.07391e-05
3.13709e-05
3.16544e-05
3.16082e-05
3.12536e-05
3.06137e-05
2.97137e-05
2.85947e-05
2.73171e-05
2.59581e-05
2.46036e-05
2.33353e-05
2.22175e-05
2.1287e-05
2.05521e-05
1.99989e-05
1.96007e-05
1.93263e-05
1.91459e-05
1.90344e-05
6.14066e-05
6.12993e-05
6.11889e-05
6.10766e-05
6.09674e-05
6.08558e-05
6.07477e-05
6.06423e-05
6.0539e-05
6.04338e-05
6.0303e-05
6.01231e-05
5.98881e-05
5.96103e-05
5.93158e-05
5.91405e-05
5.88954e-05
5.78715e-05
5.50121e-05
4.82128e-05
3.24091e-05
2.57766e-05
2.7036e-05
2.84916e-05
3.00276e-05
3.15901e-05
3.31328e-05
3.46208e-05
3.59925e-05
3.71615e-05
3.81107e-05
3.86684e-05
3.89604e-05
3.9005e-05
3.88067e-05
3.8364e-05
3.7667e-05
3.67079e-05
3.54882e-05
3.4023e-05
3.23465e-05
3.05189e-05
2.86269e-05
2.67742e-05
2.50624e-05
2.35704e-05
2.23398e-05
2.13747e-05
2.06503e-05
2.01262e-05
6.13903e-05
6.12596e-05
6.11303e-05
6.10018e-05
6.08769e-05
6.07494e-05
6.0627e-05
6.0507e-05
6.03927e-05
6.02808e-05
6.01667e-05
6.0035e-05
5.98711e-05
5.96722e-05
5.94496e-05
5.92675e-05
5.89255e-05
5.78979e-05
5.5244e-05
4.95552e-05
3.86746e-05
2.92371e-05
3.08026e-05
3.27148e-05
3.45324e-05
3.62987e-05
3.79644e-05
3.94935e-05
4.08396e-05
4.19625e-05
4.24918e-05
4.28933e-05
4.31884e-05
4.33567e-05
4.33802e-05
4.32469e-05
4.2948e-05
4.24766e-05
4.18225e-05
4.09663e-05
3.98808e-05
3.85402e-05
3.69313e-05
3.50687e-05
3.30061e-05
3.08374e-05
2.86836e-05
2.66672e-05
2.48844e-05
2.33821e-05
6.13684e-05
6.12062e-05
6.10483e-05
6.08957e-05
6.07453e-05
6.06011e-05
6.04646e-05
6.03337e-05
6.02114e-05
6.00933e-05
5.99791e-05
5.98642e-05
5.97361e-05
5.95853e-05
5.94144e-05
5.92413e-05
5.88651e-05
5.78514e-05
5.54136e-05
5.05465e-05
4.21314e-05
3.3514e-05
3.22206e-05
3.5854e-05
3.78822e-05
3.94731e-05
4.07995e-05
4.19059e-05
4.27883e-05
4.34757e-05
4.37115e-05
4.41214e-05
4.45694e-05
4.49337e-05
4.51592e-05
4.52318e-05
4.516e-05
4.49621e-05
4.4655e-05
4.425e-05
4.37476e-05
4.31347e-05
4.23822e-05
4.14454e-05
4.02747e-05
3.88303e-05
3.71024e-05
3.51185e-05
3.29597e-05
3.07483e-05
6.13261e-05
6.1112e-05
6.09128e-05
6.07227e-05
6.05434e-05
6.03803e-05
6.02336e-05
6.01013e-05
5.99771e-05
5.98613e-05
5.97535e-05
5.96468e-05
5.95378e-05
5.94223e-05
5.92932e-05
5.91368e-05
5.87541e-05
5.77737e-05
5.55586e-05
5.13912e-05
4.46687e-05
3.72768e-05
3.37222e-05
3.52745e-05
3.9027e-05
4.07905e-05
4.19082e-05
4.25917e-05
4.27146e-05
4.26663e-05
4.28488e-05
4.36441e-05
4.45523e-05
4.5285e-05
4.57826e-05
4.60551e-05
4.61389e-05
4.60727e-05
4.58853e-05
4.56001e-05
4.5236e-05
4.48053e-05
4.43143e-05
4.37561e-05
4.31237e-05
4.24161e-05
4.16487e-05
4.08099e-05
3.9835e-05
3.85995e-05
6.12502e-05
6.09336e-05
6.06664e-05
6.04312e-05
6.02354e-05
6.00687e-05
5.9924e-05
5.97973e-05
5.96788e-05
5.9571e-05
5.94745e-05
5.93846e-05
5.93029e-05
5.92209e-05
5.91251e-05
5.89844e-05
5.86056e-05
5.76692e-05
5.56702e-05
5.21091e-05
4.66849e-05
4.05922e-05
3.64547e-05
3.56738e-05
3.73363e-05
3.89917e-05
3.99837e-05
4.01738e-05
3.89938e-05
3.52499e-05
4.05685e-05
4.23188e-05
4.40369e-05
4.52701e-05
4.608e-05
4.65641e-05
4.68029e-05
4.68559e-05
4.67664e-05
4.65677e-05
4.6286e-05
4.59389e-05
4.55349e-05
4.50729e-05
4.45521e-05
4.39754e-05
4.33517e-05
4.26862e-05
4.19702e-05
4.11927e-05
6.10676e-05
6.04949e-05
6.01898e-05
5.99603e-05
5.97865e-05
5.96386e-05
5.95162e-05
5.94093e-05
5.93108e-05
5.92335e-05
5.91617e-05
5.90957e-05
5.90445e-05
5.89933e-05
5.89269e-05
5.87998e-05
5.84255e-05
5.75307e-05
5.57261e-05
5.26849e-05
4.82974e-05
4.33941e-05
3.95658e-05
3.77898e-05
3.77543e-05
3.8345e-05
3.88087e-05
3.8899e-05
3.86029e-05
3.86453e-05
4.03116e-05
4.25063e-05
4.43345e-05
4.56567e-05
4.65451e-05
4.70975e-05
4.73943e-05
4.74981e-05
4.74569e-05
4.73068e-05
4.70743e-05
4.67783e-05
4.64291e-05
4.60324e-05
4.55939e-05
4.51191e-05
4.4613e-05
4.40768e-05
4.35072e-05
4.29026e-05
6.0324e-05
5.98207e-05
5.9572e-05
5.93821e-05
5.92413e-05
5.9127e-05
5.90366e-05
5.8966e-05
5.89063e-05
5.88633e-05
5.88232e-05
5.87908e-05
5.87716e-05
5.87492e-05
5.87112e-05
5.85886e-05
5.82077e-05
5.73441e-05
5.5706e-05
5.31056e-05
4.95574e-05
4.56806e-05
4.24775e-05
4.05709e-05
3.98507e-05
3.98025e-05
3.99801e-05
4.02072e-05
4.05318e-05
4.11821e-05
4.2393e-05
4.38914e-05
4.5266e-05
4.63557e-05
4.71371e-05
4.76442e-05
4.79262e-05
4.80315e-05
4.80019e-05
4.78704e-05
4.7662e-05
4.73945e-05
4.70794e-05
4.67256e-05
4.63406e-05
4.59297e-05
4.54964e-05
4.50423e-05
4.45671e-05
4.40703e-05
5.93704e-05
5.90277e-05
5.88434e-05
5.87089e-05
5.86163e-05
5.8553e-05
5.85131e-05
5.84886e-05
5.84759e-05
5.84723e-05
5.84728e-05
5.84818e-05
5.84935e-05
5.84905e-05
5.84574e-05
5.83268e-05
5.79647e-05
5.71043e-05
5.55926e-05
5.33653e-05
5.0503e-05
4.74861e-05
4.49606e-05
4.33064e-05
4.24813e-05
4.22328e-05
4.23195e-05
4.26181e-05
4.31075e-05
4.37646e-05
4.46767e-05
4.57073e-05
4.66467e-05
4.74045e-05
4.79553e-05
4.83094e-05
4.84932e-05
4.85374e-05
4.84717e-05
4.83215e-05
4.8107e-05
4.78432e-05
4.75408e-05
4.72084e-05
4.68532e-05
4.64805e-05
4.6093e-05
4.5693e-05
4.5281e-05
4.48561e-05
5.83598e-05
5.8175e-05
5.80741e-05
5.80162e-05
5.7988e-05
5.7988e-05
5.80058e-05
5.803e-05
5.80637e-05
5.81029e-05
5.81396e-05
5.81738e-05
5.81981e-05
5.8194e-05
5.81399e-05
5.79783e-05
5.76015e-05
5.68085e-05
5.54346e-05
5.34644e-05
5.11697e-05
4.88644e-05
4.69636e-05
4.56829e-05
4.49927e-05
4.47535e-05
4.48267e-05
4.51154e-05
4.55595e-05
4.61077e-05
4.67316e-05
4.73917e-05
4.79793e-05
4.84426e-05
4.87641e-05
4.89479e-05
4.90095e-05
4.89687e-05
4.88455e-05
4.86577e-05
4.84202e-05
4.81444e-05
4.78395e-05
4.75128e-05
4.71708e-05
4.68183e-05
4.64582e-05
4.60923e-05
4.57214e-05
4.53442e-05
5.74655e-05
5.74126e-05
5.7399e-05
5.74136e-05
5.74472e-05
5.74984e-05
5.75579e-05
5.76189e-05
5.76791e-05
5.77373e-05
5.7787e-05
5.78224e-05
5.7835e-05
5.78082e-05
5.77165e-05
5.7513e-05
5.71163e-05
5.63932e-05
5.52252e-05
5.34609e-05
5.15971e-05
4.98771e-05
4.85126e-05
4.76042e-05
4.71162e-05
4.69536e-05
4.70244e-05
4.72583e-05
4.75932e-05
4.79764e-05
4.83665e-05
4.87473e-05
4.90651e-05
4.92931e-05
4.94231e-05
4.94583e-05
4.94084e-05
4.92861e-05
4.91045e-05
4.88754e-05
4.8609e-05
4.83138e-05
4.7997e-05
4.76654e-05
4.73245e-05
4.69787e-05
4.66307e-05
4.62822e-05
4.59338e-05
4.55857e-05
5.67756e-05
5.68023e-05
5.68454e-05
5.69002e-05
5.69649e-05
5.70369e-05
5.71082e-05
5.71766e-05
5.72389e-05
5.72918e-05
5.73306e-05
5.73488e-05
5.73357e-05
5.7277e-05
5.71493e-05
5.69162e-05
5.65199e-05
5.58753e-05
5.4893e-05
5.34817e-05
5.17423e-05
5.05735e-05
4.96613e-05
4.90746e-05
4.87713e-05
4.86856e-05
4.87501e-05
4.89104e-05
4.91212e-05
4.93462e-05
4.95509e-05
4.97258e-05
4.98459e-05
4.98997e-05
4.98855e-05
4.98074e-05
4.96723e-05
4.94885e-05
4.92642e-05
4.90065e-05
4.87209e-05
4.84127e-05
4.80868e-05
4.77484e-05
4.7402e-05
4.70508e-05
4.66976e-05
4.63449e-05
4.5995e-05
4.56508e-05
5.61456e-05
5.61959e-05
5.62523e-05
5.63137e-05
5.63796e-05
5.64461e-05
5.65095e-05
5.65671e-05
5.66172e-05
5.66559e-05
5.66771e-05
5.6674e-05
5.66378e-05
5.65565e-05
5.64115e-05
5.61751e-05
5.58083e-05
5.52582e-05
5.44593e-05
5.33263e-05
5.18102e-05
5.10143e-05
5.04559e-05
5.01262e-05
4.99685e-05
4.99323e-05
4.99759e-05
5.00623e-05
5.01623e-05
5.02533e-05
5.03122e-05
5.0338e-05
5.03257e-05
5.02751e-05
5.01876e-05
5.0066e-05
4.99132e-05
4.97319e-05
4.95243e-05
4.92916e-05
4.90346e-05
4.87546e-05
4.84532e-05
4.8132e-05
4.7792e-05
4.7434e-05
4.70588e-05
4.66682e-05
4.62658e-05
4.58548e-05
5.52983e-05
5.53407e-05
5.53874e-05
5.5438e-05
5.54919e-05
5.55453e-05
5.5597e-05
5.56438e-05
5.56825e-05
5.57092e-05
5.57193e-05
5.5707e-05
5.56647e-05
5.5583e-05
5.54482e-05
5.52417e-05
5.49384e-05
5.45048e-05
5.38945e-05
5.30337e-05
5.18079e-05
5.12257e-05
5.09305e-05
5.07727e-05
5.07039e-05
5.06884e-05
5.06989e-05
5.07147e-05
5.07204e-05
5.07042e-05
5.0741e-05
5.0788e-05
5.08393e-05
5.08872e-05
5.09252e-05
5.09475e-05
5.09499e-05
5.09291e-05
5.08823e-05
5.0807e-05
5.07018e-05
5.0566e-05
5.03994e-05
5.02012e-05
4.99688e-05
4.96982e-05
4.93834e-05
4.90143e-05
4.85673e-05
4.79526e-05
6.41618e-05
6.36085e-05
6.30561e-05
6.24982e-05
6.19377e-05
6.13773e-05
6.08204e-05
6.02695e-05
5.97257e-05
5.91883e-05
5.8656e-05
5.81267e-05
5.75965e-05
5.70603e-05
5.65114e-05
5.5941e-05
5.53385e-05
5.4691e-05
5.39797e-05
5.31631e-05
5.20163e-05
5.21924e-05
5.22233e-05
5.2506e-05
5.28969e-05
5.33452e-05
5.38221e-05
5.43135e-05
5.48135e-05
5.53196e-05
5.57537e-05
5.61377e-05
5.64748e-05
5.67686e-05
5.70224e-05
5.72394e-05
5.74225e-05
5.75743e-05
5.76973e-05
5.77947e-05
5.787e-05
5.79271e-05
5.79701e-05
5.80023e-05
5.80276e-05
5.80505e-05
5.80769e-05
5.81157e-05
5.81835e-05
5.83424e-05
5.482e-06
5.45282e-06
5.42608e-06
5.40205e-06
5.37981e-06
5.35792e-06
5.33629e-06
5.31488e-06
5.29368e-06
5.2727e-06
5.25192e-06
5.23129e-06
5.2108e-06
5.19042e-06
5.17014e-06
5.14995e-06
5.12985e-06
5.10984e-06
5.08992e-06
5.07e-06
5.02836e-06
5.0307e-06
5.0222e-06
5.00696e-06
4.96809e-06
4.93503e-06
4.9059e-06
4.87927e-06
4.85429e-06
4.83049e-06
4.80762e-06
4.78557e-06
4.76427e-06
4.7437e-06
4.72386e-06
4.70473e-06
4.68631e-06
4.66858e-06
4.65156e-06
4.63525e-06
4.61968e-06
4.60456e-06
4.58998e-06
4.57583e-06
4.56207e-06
4.54863e-06
4.53544e-06
4.52228e-06
4.50856e-06
4.49317e-06
5.40959e-06
5.27925e-06
5.15854e-06
5.04592e-06
4.93971e-06
4.84003e-06
4.74596e-06
4.65677e-06
4.57189e-06
4.49086e-06
4.41333e-06
4.33904e-06
4.26777e-06
4.19937e-06
4.13367e-06
4.0705e-06
4.00968e-06
3.951e-06
3.89421e-06
3.83859e-06
3.75504e-06
1.61309e-05
1.61014e-05
1.59929e-05
1.5858e-05
1.58303e-05
1.58461e-05
1.58735e-05
1.58978e-05
1.59129e-05
1.59168e-05
1.59097e-05
1.58928e-05
1.58677e-05
1.5836e-05
1.57991e-05
1.57583e-05
1.57144e-05
1.56677e-05
1.56184e-05
1.55664e-05
1.55129e-05
1.54576e-05
1.54004e-05
1.53409e-05
1.52785e-05
1.52131e-05
1.51447e-05
1.50736e-05
1.49982e-05
5.40979e-06
5.27917e-06
5.15692e-06
5.04223e-06
4.93378e-06
4.83084e-06
4.73281e-06
4.63917e-06
4.5495e-06
4.46343e-06
4.38064e-06
4.30086e-06
4.22389e-06
4.14952e-06
4.07759e-06
4.00796e-06
3.94046e-06
3.87498e-06
3.81152e-06
1.599e-05
1.58584e-05
1.57283e-05
1.56019e-05
1.54778e-05
1.53611e-05
1.52493e-05
1.51425e-05
1.50396e-05
1.49395e-05
1.48414e-05
1.47446e-05
1.46489e-05
1.4554e-05
1.446e-05
1.4367e-05
1.42751e-05
1.41844e-05
1.40952e-05
1.40079e-05
1.39225e-05
1.38387e-05
1.37565e-05
1.36756e-05
1.35958e-05
1.35167e-05
1.34377e-05
1.3358e-05
1.3277e-05
1.31958e-05
1.31182e-05
5.40987e-06
5.28032e-06
5.15924e-06
5.04557e-06
4.93794e-06
4.83559e-06
4.73792e-06
4.64448e-06
4.55489e-06
4.46881e-06
4.38595e-06
4.30607e-06
4.22894e-06
4.15438e-06
4.08221e-06
4.01226e-06
3.94441e-06
3.87853e-06
3.81464e-06
1.60081e-05
1.58697e-05
1.57352e-05
1.5604e-05
1.54756e-05
1.53497e-05
1.5226e-05
1.51042e-05
1.49841e-05
1.48654e-05
1.47478e-05
1.46312e-05
1.45155e-05
1.44007e-05
1.42869e-05
1.41741e-05
1.40626e-05
1.39526e-05
1.38442e-05
1.37376e-05
1.36329e-05
1.35301e-05
1.3429e-05
1.33296e-05
1.32319e-05
1.3136e-05
1.30416e-05
1.29485e-05
1.28552e-05
1.27607e-05
1.26677e-05
5.40989e-06
5.28039e-06
5.15928e-06
5.04551e-06
4.93771e-06
4.83517e-06
4.73731e-06
4.64371e-06
4.55397e-06
4.46778e-06
4.38485e-06
4.30493e-06
4.2278e-06
4.15327e-06
4.08114e-06
4.01126e-06
3.94348e-06
3.87769e-06
3.81389e-06
1.59976e-05
1.58629e-05
1.5731e-05
1.56018e-05
1.54748e-05
1.53498e-05
1.52266e-05
1.5105e-05
1.49845e-05
1.48651e-05
1.47465e-05
1.46285e-05
1.45111e-05
1.43944e-05
1.42782e-05
1.41629e-05
1.40486e-05
1.39354e-05
1.38236e-05
1.37133e-05
1.36047e-05
1.34976e-05
1.33921e-05
1.3288e-05
1.31853e-05
1.30839e-05
1.2984e-05
1.2886e-05
1.27894e-05
1.26928e-05
1.25967e-05
5.40989e-06
5.28046e-06
5.15949e-06
5.0459e-06
4.93833e-06
4.836e-06
4.73837e-06
4.64497e-06
4.55542e-06
4.46939e-06
4.38659e-06
4.30679e-06
4.22975e-06
4.15528e-06
4.0832e-06
4.01335e-06
3.94559e-06
3.8798e-06
3.81494e-06
3.67314e-06
1.55376e-05
1.55213e-05
1.54684e-05
1.53918e-05
1.53002e-05
1.51989e-05
1.50916e-05
1.49806e-05
1.48673e-05
1.47525e-05
1.46369e-05
1.45208e-05
1.44046e-05
1.42886e-05
1.4173e-05
1.4058e-05
1.3944e-05
1.38312e-05
1.37197e-05
1.36096e-05
1.3501e-05
1.33938e-05
1.3288e-05
1.31836e-05
1.30802e-05
1.29777e-05
1.28764e-05
1.27767e-05
1.26777e-05
1.25794e-05
5.40989e-06
5.28049e-06
5.15955e-06
5.04598e-06
4.93839e-06
4.83604e-06
4.73835e-06
4.64489e-06
4.55526e-06
4.46916e-06
4.3863e-06
4.30642e-06
4.22932e-06
4.15479e-06
4.08265e-06
4.01276e-06
3.94497e-06
3.87916e-06
3.81427e-06
3.67085e-06
1.55259e-05
1.55104e-05
1.54592e-05
1.53843e-05
1.52939e-05
1.51936e-05
1.50868e-05
1.49762e-05
1.48631e-05
1.47486e-05
1.46333e-05
1.45177e-05
1.44019e-05
1.42862e-05
1.41709e-05
1.40562e-05
1.39422e-05
1.38293e-05
1.37176e-05
1.36071e-05
1.34978e-05
1.33897e-05
1.3283e-05
1.31775e-05
1.30733e-05
1.297e-05
1.28673e-05
1.27659e-05
1.26653e-05
1.25655e-05
5.40989e-06
5.2805e-06
5.15958e-06
5.04602e-06
4.93846e-06
4.83612e-06
4.73847e-06
4.64505e-06
4.55547e-06
4.46942e-06
4.3866e-06
4.30678e-06
4.22972e-06
4.15524e-06
4.08315e-06
4.0133e-06
3.94554e-06
3.87976e-06
3.81491e-06
3.67309e-06
1.55302e-05
1.55112e-05
1.5458e-05
1.53808e-05
1.52873e-05
1.5183e-05
1.50721e-05
1.49575e-05
1.48412e-05
1.47243e-05
1.46077e-05
1.44916e-05
1.43762e-05
1.42616e-05
1.41477e-05
1.40346e-05
1.39224e-05
1.38111e-05
1.37007e-05
1.35914e-05
1.34829e-05
1.33754e-05
1.32688e-05
1.31631e-05
1.30584e-05
1.29547e-05
1.28517e-05
1.27495e-05
1.26482e-05
1.25477e-05
5.4099e-06
5.28052e-06
5.1596e-06
5.04604e-06
4.93847e-06
4.83613e-06
4.73847e-06
4.64504e-06
4.55545e-06
4.46938e-06
4.38655e-06
4.30671e-06
4.22964e-06
4.15514e-06
4.08304e-06
4.01317e-06
3.94539e-06
3.87958e-06
3.81652e-06
1.61327e-05
1.58426e-05
1.56475e-05
1.55014e-05
1.53793e-05
1.52674e-05
1.51586e-05
1.50495e-05
1.49389e-05
1.48267e-05
1.47131e-05
1.45987e-05
1.44839e-05
1.43692e-05
1.42546e-05
1.41405e-05
1.40271e-05
1.39144e-05
1.38027e-05
1.3692e-05
1.35823e-05
1.34736e-05
1.33658e-05
1.32588e-05
1.31527e-05
1.30475e-05
1.29431e-05
1.28395e-05
1.27368e-05
1.26348e-05
1.25337e-05
5.4099e-06
5.28052e-06
5.15958e-06
5.04601e-06
4.93844e-06
4.8361e-06
4.73845e-06
4.64503e-06
4.55545e-06
4.46939e-06
4.38656e-06
4.30673e-06
4.22967e-06
4.1552e-06
4.08311e-06
4.01324e-06
3.94545e-06
3.87961e-06
3.81573e-06
1.60611e-05
1.58988e-05
1.57284e-05
1.55684e-05
1.54228e-05
1.52897e-05
1.51654e-05
1.50466e-05
1.49308e-05
1.48165e-05
1.47028e-05
1.45892e-05
1.44757e-05
1.43621e-05
1.42485e-05
1.41351e-05
1.40222e-05
1.39098e-05
1.37981e-05
1.36874e-05
1.35775e-05
1.34686e-05
1.33605e-05
1.32533e-05
1.31468e-05
1.3041e-05
1.29361e-05
1.28319e-05
1.27286e-05
1.2626e-05
1.25242e-05
5.4099e-06
5.2805e-06
5.15955e-06
5.04597e-06
4.93839e-06
4.83606e-06
4.73842e-06
4.645e-06
4.55542e-06
4.46935e-06
4.38652e-06
4.30669e-06
4.22963e-06
4.15515e-06
4.08305e-06
4.01316e-06
3.94534e-06
3.87948e-06
3.81557e-06
1.60559e-05
1.59006e-05
1.57353e-05
1.5578e-05
1.54326e-05
1.52981e-05
1.51718e-05
1.50508e-05
1.49333e-05
1.48175e-05
1.47027e-05
1.45883e-05
1.4474e-05
1.43597e-05
1.42457e-05
1.41319e-05
1.40185e-05
1.39059e-05
1.37941e-05
1.36833e-05
1.35735e-05
1.34646e-05
1.33565e-05
1.32493e-05
1.31428e-05
1.3037e-05
1.29319e-05
1.28274e-05
1.27237e-05
1.26206e-05
1.25182e-05
5.4099e-06
5.28049e-06
5.15952e-06
5.04592e-06
4.93835e-06
4.83602e-06
4.73838e-06
4.64495e-06
4.55537e-06
4.46929e-06
4.38644e-06
4.3066e-06
4.22952e-06
4.15501e-06
4.08287e-06
4.01293e-06
3.94507e-06
3.87918e-06
3.81428e-06
3.67541e-06
1.55476e-05
1.55267e-05
1.54674e-05
1.53825e-05
1.52816e-05
1.51715e-05
1.50566e-05
1.49396e-05
1.48222e-05
1.4705e-05
1.45883e-05
1.44724e-05
1.43572e-05
1.42428e-05
1.41291e-05
1.40162e-05
1.39042e-05
1.37931e-05
1.3683e-05
1.35738e-05
1.34654e-05
1.33577e-05
1.32506e-05
1.3144e-05
1.3038e-05
1.29323e-05
1.28272e-05
1.27226e-05
1.26185e-05
1.2515e-05
5.4099e-06
5.28048e-06
5.15949e-06
5.04588e-06
4.9383e-06
4.83598e-06
4.73833e-06
4.64491e-06
4.55533e-06
4.46926e-06
4.38643e-06
4.30659e-06
4.22951e-06
4.15499e-06
4.08284e-06
4.0129e-06
3.94504e-06
3.87919e-06
3.81614e-06
1.6143e-05
1.58526e-05
1.56568e-05
1.5508e-05
1.53808e-05
1.52626e-05
1.51479e-05
1.50343e-05
1.49209e-05
1.48075e-05
1.4694e-05
1.45806e-05
1.44672e-05
1.4354e-05
1.42411e-05
1.41285e-05
1.40163e-05
1.39048e-05
1.37939e-05
1.36838e-05
1.35744e-05
1.34657e-05
1.33575e-05
1.32498e-05
1.31425e-05
1.30355e-05
1.29289e-05
1.28227e-05
1.2717e-05
1.26117e-05
1.25071e-05
5.40989e-06
5.28046e-06
5.15945e-06
5.04581e-06
4.93819e-06
4.83582e-06
4.73813e-06
4.64466e-06
4.55502e-06
4.4689e-06
4.38601e-06
4.30611e-06
4.22896e-06
4.15437e-06
4.08215e-06
4.01215e-06
3.94426e-06
3.87838e-06
3.81532e-06
1.61438e-05
1.58534e-05
1.56557e-05
1.5505e-05
1.53767e-05
1.52583e-05
1.51438e-05
1.50309e-05
1.49183e-05
1.48057e-05
1.4693e-05
1.45802e-05
1.44673e-05
1.43545e-05
1.42418e-05
1.41292e-05
1.4017e-05
1.39051e-05
1.37938e-05
1.36831e-05
1.3573e-05
1.34635e-05
1.33545e-05
1.32458e-05
1.31375e-05
1.30295e-05
1.29219e-05
1.28146e-05
1.27077e-05
1.26015e-05
1.24958e-05
5.4099e-06
5.28046e-06
5.15942e-06
5.04576e-06
4.93814e-06
4.83578e-06
4.73812e-06
4.6447e-06
4.55511e-06
4.46904e-06
4.3862e-06
4.30634e-06
4.22922e-06
4.15465e-06
4.08245e-06
4.01248e-06
3.94461e-06
3.87876e-06
3.81571e-06
1.61434e-05
1.58588e-05
1.5666e-05
1.55168e-05
1.53882e-05
1.52689e-05
1.51533e-05
1.50393e-05
1.49257e-05
1.48122e-05
1.46988e-05
1.45853e-05
1.44718e-05
1.43584e-05
1.4245e-05
1.41318e-05
1.40188e-05
1.39061e-05
1.37939e-05
1.36822e-05
1.35711e-05
1.34606e-05
1.33505e-05
1.32408e-05
1.31315e-05
1.30225e-05
1.29139e-05
1.28058e-05
1.26983e-05
1.25916e-05
1.24857e-05
5.4099e-06
5.2804e-06
5.15923e-06
5.04538e-06
4.93753e-06
4.83494e-06
4.73706e-06
4.64343e-06
4.55367e-06
4.46744e-06
4.38447e-06
4.30448e-06
4.22726e-06
4.1526e-06
4.08034e-06
4.01031e-06
3.94241e-06
3.87652e-06
3.81163e-06
3.67216e-06
1.55312e-05
1.55119e-05
1.5455e-05
1.53729e-05
1.52748e-05
1.51671e-05
1.50542e-05
1.49388e-05
1.48225e-05
1.47061e-05
1.45901e-05
1.44746e-05
1.43595e-05
1.42449e-05
1.41307e-05
1.4017e-05
1.39038e-05
1.37913e-05
1.36795e-05
1.35683e-05
1.34579e-05
1.3348e-05
1.32387e-05
1.31299e-05
1.30217e-05
1.29141e-05
1.28075e-05
1.27019e-05
1.25977e-05
1.24951e-05
5.40991e-06
5.28041e-06
5.15927e-06
5.04555e-06
4.93787e-06
4.83546e-06
4.73776e-06
4.64427e-06
4.55462e-06
4.46847e-06
4.38552e-06
4.30554e-06
4.2283e-06
4.15361e-06
4.08129e-06
4.01121e-06
3.94324e-06
3.87729e-06
3.81415e-06
1.61328e-05
1.5849e-05
1.56568e-05
1.55087e-05
1.53813e-05
1.52631e-05
1.5149e-05
1.50365e-05
1.49247e-05
1.48132e-05
1.47021e-05
1.45912e-05
1.44805e-05
1.43699e-05
1.42594e-05
1.41491e-05
1.40392e-05
1.393e-05
1.38217e-05
1.37143e-05
1.36079e-05
1.35027e-05
1.33985e-05
1.32954e-05
1.31935e-05
1.30929e-05
1.29939e-05
1.28966e-05
1.28016e-05
1.27094e-05
1.26206e-05
5.40991e-06
5.27949e-06
5.15726e-06
5.04252e-06
4.93394e-06
4.83084e-06
4.73264e-06
4.63885e-06
4.54905e-06
4.4629e-06
4.38008e-06
4.30033e-06
4.22342e-06
4.14912e-06
4.07726e-06
4.00766e-06
3.9402e-06
3.87477e-06
3.81145e-06
1.60267e-05
1.58919e-05
1.57511e-05
1.56064e-05
1.5465e-05
1.533e-05
1.52025e-05
1.50826e-05
1.49694e-05
1.48621e-05
1.47661e-05
1.46796e-05
1.45968e-05
1.45148e-05
1.44322e-05
1.43486e-05
1.42644e-05
1.41799e-05
1.40959e-05
1.40127e-05
1.39306e-05
1.385e-05
1.37711e-05
1.36938e-05
1.36186e-05
1.35454e-05
1.34746e-05
1.34066e-05
1.33421e-05
1.32824e-05
1.32289e-05
5.41027e-06
5.28091e-06
5.16045e-06
5.04766e-06
4.94081e-06
4.84003e-06
4.74501e-06
4.6552e-06
4.57008e-06
4.48923e-06
4.41224e-06
4.33875e-06
4.26842e-06
4.20095e-06
4.13607e-06
4.07354e-06
4.01316e-06
3.95475e-06
3.89817e-06
3.84313e-06
3.79122e-06
1.60515e-05
1.59831e-05
1.58697e-05
1.57448e-05
1.56256e-05
1.55196e-05
1.54284e-05
1.53509e-05
1.52814e-05
1.53284e-05
1.54157e-05
1.55048e-05
1.55783e-05
1.56303e-05
1.56609e-05
1.56726e-05
1.56691e-05
1.56538e-05
1.56299e-05
1.55999e-05
1.55658e-05
1.55291e-05
1.5491e-05
1.54523e-05
1.54138e-05
1.53765e-05
1.53417e-05
1.53117e-05
1.52906e-05
5.47965e-06
5.45233e-06
5.42731e-06
5.40394e-06
5.38234e-06
5.36137e-06
5.3405e-06
5.3196e-06
5.29859e-06
5.27743e-06
5.25614e-06
5.23471e-06
5.2132e-06
5.19166e-06
5.17014e-06
5.14871e-06
5.12745e-06
5.10641e-06
5.08565e-06
5.06519e-06
5.04511e-06
5.03911e-06
5.0256e-06
5.00831e-06
4.98894e-06
4.96824e-06
4.9466e-06
4.92435e-06
4.90167e-06
4.85972e-06
4.82455e-06
4.79442e-06
4.76797e-06
4.74421e-06
4.72241e-06
4.70203e-06
4.6827e-06
4.66416e-06
4.64619e-06
4.62869e-06
4.61155e-06
4.59472e-06
4.57818e-06
4.56187e-06
4.54575e-06
4.52978e-06
4.51392e-06
4.49816e-06
4.48237e-06
4.46645e-06
1.9554e-05
1.16062e-05
1.11823e-05
1.07787e-05
9.84527e-06
8.67705e-06
7.55742e-06
6.64631e-06
5.98398e-06
5.5739e-06
5.36286e-06
5.51462e-06
5.88506e-06
6.1995e-06
6.42022e-06
6.58789e-06
6.7301e-06
6.84285e-06
7.27093e-06
1.71421e-05
1.93459e-05
1.15398e-05
1.1197e-05
1.07899e-05
9.83175e-06
8.63638e-06
7.49586e-06
6.57247e-06
5.90195e-06
5.48728e-06
5.28113e-06
5.4638e-06
5.85265e-06
6.17439e-06
6.40758e-06
6.58957e-06
6.7441e-06
6.86595e-06
7.31763e-06
1.74462e-05
1.91303e-05
1.14785e-05
1.1213e-05
1.08012e-05
9.818e-06
8.59553e-06
7.4344e-06
6.49907e-06
5.82017e-06
5.39935e-06
5.17784e-06
5.3775e-06
5.78719e-06
6.12976e-06
6.3794e-06
6.57294e-06
6.73547e-06
6.86314e-06
7.33424e-06
1.76705e-05
1.89186e-05
1.14194e-05
1.12298e-05
1.08122e-05
9.80395e-06
8.55454e-06
7.37318e-06
6.42638e-06
5.73925e-06
5.31287e-06
5.09114e-06
5.30116e-06
5.72595e-06
6.0859e-06
6.35121e-06
6.55637e-06
6.72697e-06
6.8605e-06
7.35159e-06
1.78972e-05
1.87053e-05
1.13634e-05
1.12475e-05
1.08231e-05
9.7897e-06
8.51351e-06
7.31222e-06
6.3543e-06
5.65871e-06
5.2258e-06
5.00317e-06
5.2282e-06
5.66638e-06
6.04244e-06
6.3231e-06
6.53989e-06
6.71866e-06
6.85806e-06
7.36973e-06
1.81269e-05
1.8491e-05
1.13107e-05
1.1266e-05
1.08339e-05
9.77529e-06
8.47252e-06
7.25169e-06
6.28302e-06
5.5788e-06
5.13857e-06
4.91527e-06
5.15596e-06
5.60707e-06
5.99896e-06
6.29501e-06
6.52353e-06
6.71052e-06
6.85582e-06
7.38869e-06
1.83596e-05
1.82761e-05
1.12614e-05
1.12851e-05
1.08445e-05
9.76075e-06
8.43161e-06
7.19158e-06
6.21249e-06
5.49944e-06
5.05081e-06
4.82711e-06
5.08354e-06
5.54742e-06
5.95522e-06
6.26686e-06
6.50729e-06
6.70259e-06
6.8538e-06
7.40851e-06
1.85954e-05
1.80609e-05
1.12154e-05
1.13049e-05
1.0855e-05
9.74616e-06
8.39086e-06
7.13196e-06
6.14272e-06
5.42047e-06
4.96196e-06
4.73783e-06
5.01072e-06
5.48744e-06
5.9113e-06
6.2387e-06
6.49118e-06
6.69486e-06
6.85199e-06
7.4292e-06
1.88343e-05
1.78457e-05
1.11726e-05
1.13252e-05
1.08654e-05
9.7316e-06
8.35039e-06
7.07292e-06
6.07378e-06
5.34188e-06
4.87163e-06
4.64641e-06
4.9376e-06
5.4274e-06
5.86735e-06
6.21062e-06
6.47524e-06
6.68735e-06
6.8504e-06
7.4508e-06
1.90764e-05
1.76306e-05
1.11331e-05
1.1346e-05
1.08757e-05
9.71713e-06
8.31031e-06
7.01458e-06
6.00578e-06
5.26375e-06
4.77954e-06
4.5519e-06
4.86421e-06
5.36778e-06
5.82366e-06
6.18276e-06
6.45953e-06
6.68007e-06
6.84903e-06
7.47333e-06
1.93217e-05
1.74157e-05
1.10969e-05
1.13672e-05
1.08859e-05
9.70287e-06
8.27076e-06
6.95715e-06
5.93891e-06
5.1863e-06
4.6856e-06
4.45511e-06
4.79087e-06
5.309e-06
5.78056e-06
6.15528e-06
6.44412e-06
6.67306e-06
6.84788e-06
7.49683e-06
1.95703e-05
1.72014e-05
1.1064e-05
1.13886e-05
1.08961e-05
9.68894e-06
8.23196e-06
6.90088e-06
5.87349e-06
5.1099e-06
4.58983e-06
4.35541e-06
4.71819e-06
5.25152e-06
5.73836e-06
6.12832e-06
6.42908e-06
6.66635e-06
6.84697e-06
7.52137e-06
1.98225e-05
1.69876e-05
1.10344e-05
1.14103e-05
1.09063e-05
9.6755e-06
8.19418e-06
6.84613e-06
5.80996e-06
5.03514e-06
4.49275e-06
4.25009e-06
4.64656e-06
5.19578e-06
5.69739e-06
6.10205e-06
6.41445e-06
6.65995e-06
6.84632e-06
7.547e-06
2.00783e-05
1.67747e-05
1.1008e-05
1.14322e-05
1.09165e-05
9.66273e-06
8.15774e-06
6.79333e-06
5.74884e-06
4.96275e-06
4.39544e-06
4.13679e-06
4.57549e-06
5.14204e-06
5.65797e-06
6.0767e-06
6.40036e-06
6.65389e-06
6.8459e-06
7.57375e-06
2.0338e-05
1.65626e-05
1.0985e-05
1.14541e-05
1.09268e-05
9.65085e-06
8.12301e-06
6.74299e-06
5.69073e-06
4.89356e-06
4.2993e-06
4.02139e-06
4.50457e-06
5.09045e-06
5.62025e-06
6.0524e-06
6.38693e-06
6.64824e-06
6.84572e-06
7.60168e-06
2.06017e-05
1.63515e-05
1.09652e-05
1.1476e-05
1.09373e-05
9.64008e-06
8.09039e-06
6.69567e-06
5.63628e-06
4.82842e-06
4.20573e-06
3.91415e-06
4.43653e-06
5.04147e-06
5.58437e-06
6.02919e-06
6.37417e-06
6.64306e-06
6.84584e-06
7.63091e-06
2.08696e-05
1.61416e-05
1.09486e-05
1.14977e-05
1.09481e-05
9.63066e-06
8.06032e-06
6.65196e-06
5.5862e-06
4.76823e-06
4.1166e-06
3.79992e-06
4.37585e-06
4.99602e-06
5.55084e-06
6.00721e-06
6.36203e-06
6.63824e-06
6.84621e-06
7.66147e-06
2.1142e-05
1.59328e-05
1.09352e-05
1.15193e-05
1.09591e-05
9.62283e-06
8.03318e-06
6.61236e-06
5.54107e-06
4.71397e-06
4.03542e-06
3.64249e-06
4.31695e-06
4.95414e-06
5.52011e-06
5.987e-06
6.35083e-06
6.63387e-06
6.8468e-06
7.6934e-06
2.14187e-05
1.57252e-05
1.0925e-05
1.15407e-05
1.09706e-05
9.61679e-06
8.00933e-06
6.57725e-06
5.5012e-06
4.66604e-06
3.96565e-06
3.55084e-06
4.24587e-06
4.91489e-06
5.49157e-06
5.96838e-06
6.34071e-06
6.63018e-06
6.84778e-06
7.72686e-06
2.17002e-05
1.55189e-05
1.09178e-05
1.15616e-05
1.09825e-05
9.61276e-06
7.98907e-06
6.54694e-06
5.4666e-06
4.6238e-06
3.9058e-06
1.63696e-05
4.20473e-06
4.8809e-06
5.4655e-06
5.95099e-06
6.33125e-06
6.62685e-06
6.84894e-06
7.76179e-06
2.1986e-05
1.53139e-05
1.09134e-05
1.15822e-05
1.09949e-05
9.61084e-06
7.97263e-06
6.52167e-06
5.43737e-06
4.58672e-06
3.85237e-06
1.63131e-05
4.19321e-06
4.85264e-06
5.44375e-06
5.93609e-06
6.32318e-06
6.62433e-06
6.85058e-06
7.79843e-06
2.22765e-05
1.51103e-05
1.09116e-05
1.16024e-05
1.10079e-05
9.61111e-06
7.96003e-06
6.50141e-06
5.41356e-06
4.55574e-06
3.81275e-06
3.32791e-06
4.11385e-06
4.82962e-06
5.42435e-06
5.92236e-06
6.31561e-06
6.62203e-06
6.85233e-06
7.83663e-06
2.25712e-05
1.49081e-05
1.09124e-05
1.16221e-05
1.10215e-05
9.61368e-06
7.95134e-06
6.48591e-06
5.3944e-06
4.53035e-06
3.79915e-06
1.96014e-05
4.06663e-06
4.81027e-06
5.40958e-06
5.91181e-06
6.30988e-06
6.62061e-06
6.85447e-06
7.87651e-06
2.28698e-05
1.47074e-05
1.09155e-05
1.16413e-05
1.10357e-05
9.61867e-06
7.94685e-06
6.47548e-06