/*--------------------------------*- C++ -*----------------------------------*\
  =========                 |
  \\      /  F ield         | OpenFOAM: The Open Source CFD Toolbox
   \\    /   O peration     | Website:  https://openfoam.org
    \\  /    A nd           | Version:  8
     \\/     M anipulation  |
\*---------------------------------------------------------------------------*/
FoamFile
{
    version     2.0;
    format      ascii;
    class       volScalarField;
    location    "200";
    object      p;
}
// * * * * * * * * * * * * * * * * * * * * * * * * * * * * * * * * * * * * * //

dimensions      [1 -1 -2 0 0 0 0];

internalField   nonuniform List<scalar> 
8400
(
27651.8
47052.5
61481.6
73436.5
83458.8
91506.4
97502.6
101473
103651
104382
104129
103639
104104
106516
111273
117774
124295
129142
132210
134052
135051
135472
135509
135296
134931
134491
134040
133628
133294
133061
132940
132928
133018
133193
133433
133721
134037
134366
134695
135017
135324
135611
135876
136118
136336
136533
136709
136868
137022
137180
31225
50969.1
62569.2
73914.9
84221.8
92961.3
99739.7
104235
106395
106439
104679
102455
101470
102912
107814
116073
124784
130287
133122
134728
135514
135754
135651
135332
134887
134387
133890
133448
133095
132853
132731
132725
132825
133012
133266
133566
133894
134233
134572
134900
135212
135503
135769
136011
136228
136421
136592
136744
136883
137016
25674.6
46766.8
62239.7
75150.6
85749.9
94493.7
101634
106400
108485
108074
104874
99786.1
96367.2
96917.4
103504
116070
128011
132907
134799
136031
136429
136344
135992
135479
134885
134272
133694
133196
132812
132559
132442
132453
132578
132794
133078
133407
133760
134122
134479
134823
135146
135444
135716
135961
136179
136372
136543
136693
136828
136951
4838.41
35885.6
58122.3
72157.3
81481.4
88440
94367.7
99748
104104
105804
102070
95891.1
93339.5
97394.8
108738
124868
133467
135177
136763
137744
137584
137081
136407
135642
134849
134087
133399
132827
132401
132136
132029
132068
132231
132490
132817
133186
133575
133967
134349
134711
135047
135354
135630
135876
136092
136282
136448
136593
136720
136832
10539.4
33429.2
51743.9
62938.3
69962.6
75420.9
80579.4
85740.1
90486.7
93965.7
95398.8
96467
99965.8
106818
116110
126602
132574
137303
139538
139378
138697
137794
136781
135731
134725
133803
132999
132351
131889
131622
131541
131623
131841
132159
132545
132969
133406
133838
134251
134637
134991
135309
135592
135840
136057
136244
136406
136546
136665
136768
14452.6
30727.3
43807.9
52707.1
59238.2
65085.4
70906.3
76745.9
82387.4
87609.6
92412.3
97470.9
103684
111085
118760
126275
131962
137067
139656
140316
139587
138267
136879
135560
134369
133307
132411
131714
131239
130992
130953
131096
131384
131776
132233
132721
133214
133691
134139
134550
134921
135250
135538
135788
136004
136189
136346
136479
136591
136686
12981.8
26699.4
37385.8
45405.5
52253.2
58819.3
65275.3
71533
77523.3
83308.9
89095
95236.9
102062
109439
116723
123619
129507
134715
138482
139896
139427
138133
136574
135150
133851
132712
131775
131044
130559
130336
130343
130548
130912
131386
131924
132484
133036
133561
134045
134482
134870
135209
135503
135756
135970
136152
136304
136432
136537
136624
14096.3
25856.9
35011.6
42245.4
48867.4
55364.4
61707.7
67812.6
73702.3
79513.5
85448
91722.9
98494.1
105681
112903
119865
126070
131428
135626
137920
138276
137293
135858
134463
133216
132153
131235
130461
129931
129694
129719
129975
130419
130985
131610
132246
132859
133430
133948
134408
134810
135159
135457
135710
135923
136102
136250
136372
136473
136554
14195
24772
32851.7
39473.2
45816.5
52132.2
58321.9
64332
70217.1
76100
82127.3
88434.1
95109.9
102116
109223
116162
122479
127920
132311
135234
136355
135849
134736
133496
132301
131317
130450
129703
129160
128923
128997
129347
129906
130586
131309
132023
132695
133308
133854
134331
134745
135098
135398
135651
135863
136039
136185
136304
136402
136480
14335.3
24107.2
31483
37779.2
43957.1
50097.8
56119.5
62026.7
67893.2
73814.2
79884.7
86182.7
92750.4
99550.8
106429
113183
119461
124973
129505
132707
134248
134242
133434
132319
131267
130309
129417
128675
128175
128013
128225
128734
129440
130239
131052
131832
132549
133191
133755
134244
134662
135017
135317
135568
135778
135952
136096
136214
136310
136389
14617.3
23915
30802.1
37002.1
43096.2
49076.9
54951
60783.3
66648
72606.5
78709.2
84990.6
91461.3
98082.9
104748
111324
117541
123090
127685
130981
132731
133021
132364
131318
130322
129361
128510
127928
127654
127605
127812
128368
129146
130010
130874
131686
132425
133080
133652
134145
134565
134921
135220
135471
135680
135854
135998
136116
136213
136291
15433.6
23729.8
30411.1
36760.7
42859
48772
54601.3
60434.4
66333.1
72337.1
78472.4
84752.6
91178
97714.7
104271
110765
116951
122497
127089
130393
132216
132627
132018
130917
129782
128752
127963
127509
127346
127362
127611
128201
129015
129911
130792
131610
132346
132995
133560
134047
134462
134814
135111
135359
135567
135740
135884
136002
136100
136180
15953.4
23510.7
30218.9
36740.8
42913.3
48889.5
54804
60737.3
66733.7
72819.2
79013.1
85332.3
91790.9
98368.4
105000
111558
117735
123219
127745
130988
132791
133218
132596
131401
130078
128883
127986
127465
127290
127394
127738
128357
129157
130020
130861
131637
132334
132951
133490
133957
134358
134700
134990
135235
135440
135611
135754
135873
135972
136053
15911.9
23457.8
30466
37081.9
43350.9
49457.2
55516
61592.8
67722
73923.9
80219.2
86635.7
93205.1
99932.5
106780
113512
119704
125103
129498
132607
134324
134703
134024
132712
131200
129805
128728
128058
127786
127865
128215
128799
129530
130308
131062
131758
132387
132949
133445
133879
134258
134584
134863
135101
135301
135471
135612
135731
135830
135913
15962
23645.9
30850.3
37557.3
43963.1
50228.8
56459.4
62720.6
69046.6
75456.3
81970.3
88618.9
95438
102436
109543
116449
122691
127956
132072
134962
136556
136846
136068
134608
132887
131257
129950
129077
128648
128613
128883
129382
130017
130691
131341
131942
132488
132980
133422
133815
134164
134469
134734
134962
135157
135322
135462
135579
135678
135761
16047
23847.4
31238.4
38129.1
44734
51199.6
57637.9
64125.4
70705.2
77401.1
84233.5
91225.4
98397.1
105729
113093
120140
126407
131527
135288
137779
139167
139364
138455
136801
134828
132922
131354
130254
129643
129465
129620
130011
130537
131100
131644
132147
132606
133027
133411
133760
134076
134358
134608
134826
135014
135175
135312
135427
135524
135606
16092.3
24003.9
31617.7
38768.8
45642.4
52375.1
59082.2
65848.9
72729.2
79756.4
86952.5
94329.2
101876
109525
117089
124211
130446
135403
138852
140868
141876
141966
140928
139037
136756
134534
132686
131367
130588
130277
130318
130600
131013
131467
131908
132320
132702
133057
133390
133699
133984
134245
134480
134690
134873
135031
135165
135278
135373
135452
16203.6
24220.5
32037.9
39446.9
46604.4
53633.8
60644.5
67721.9
74926.9
82300
89864.1
97616.8
105513
113433
121144
128286
134433
139200
142357
143971
144508
144376
143249
141105
138470
135895
133773
132274
131386
130994
130959
131151
131458
131802
132142
132467
132778
133076
133362
133636
133895
134138
134361
134564
134744
134900
135033
135143
135235
135310
16193.8
24217.9
32151.3
39734.5
47102.5
54364.3
61621.4
68959.1
76443.1
84120
92012.1
100105
108325
116515
124407
131631
137765
142425
145375
146676
146785
146367
145166
142774
139743
136767
134359
132719
131786
131385
131331
131474
131710
131974
132239
132501
132763
133024
133283
133536
133780
134012
134231
134432
134613
134770
134904
135014
135103
135174
16328.3
24395.5
32406
40095.7
47597
55015
62448.6
69983.6
77689.3
85615.2
93783.2
102170
110684
119140
127242
134600
140773
145349
148054
148909
148476
147755
146621
144134
140804
137468
134781
132992
132011
131603
131541
131658
131849
132062
132279
132501
132730
132968
133208
133447
133681
133907
134122
134322
134503
134661
134795
134905
134991
135056
119333
119332
119332
119332
119332
119332
119332
119332
119332
119331
119331
119331
119331
119331
119330
119330
119330
119329
119329
119329
119329
119328
119328
119328
119328
119327
119327
119327
119327
119327
119326
119326
119326
119326
119326
119325
119325
119325
119325
119325
119324
119324
119324
119324
119323
119323
119323
119323
119323
119323
119234
119235
119235
119235
119234
119234
119234
119234
119234
119234
119234
119233
119233
119233
119233
119232
119232
119232
119232
119231
119231
119231
119230
119230
119230
119230
119230
119229
119229
119229
119229
119229
119229
119228
119228
119228
119228
119227
119227
119227
119227
119226
119226
119226
119226
119226
119225
119225
119225
119225
119137
119137
119137
119137
119137
119137
119137
119137
119136
119136
119136
119136
119136
119135
119135
119135
119135
119134
119134
119134
119133
119133
119133
119133
119132
119132
119132
119132
119132
119132
119131
119131
119131
119131
119131
119130
119130
119130
119130
119129
119129
119129
119129
119128
119128
119128
119128
119128
119128
119127
119039
119039
119039
119039
119039
119039
119039
119039
119039
119039
119038
119038
119038
119038
119038
119037
119037
119037
119036
119036
119036
119036
119035
119035
119035
119035
119034
119034
119034
119034
119034
119034
119033
119033
119033
119033
119032
119032
119032
119032
119032
119031
119031
119031
119031
119031
119030
119030
119030
119030
118942
118942
118942
118942
118942
118942
118942
118941
118941
118941
118941
118941
118940
118940
118940
118940
118939
118939
118939
118939
118938
118938
118938
118937
118937
118937
118937
118937
118937
118936
118936
118936
118936
118936
118935
118935
118935
118935
118934
118934
118934
118934
118934
118933
118933
118933
118933
118933
118932
118932
118844
118844
118844
118844
118844
118844
118844
118844
118844
118844
118843
118843
118843
118843
118842
118842
118842
118842
118841
118841
118841
118840
118840
118840
118840
118840
118839
118839
118839
118839
118839
118838
118838
118838
118838
118838
118837
118837
118837
118837
118836
118836
118836
118836
118836
118835
118835
118835
118835
118835
118747
118747
118747
118747
118747
118747
118746
118746
118746
118746
118746
118746
118745
118745
118745
118745
118744
118744
118744
118743
118743
118743
118743
118742
118742
118742
118742
118742
118741
118741
118741
118741
118741
118740
118740
118740
118740
118740
118739
118739
118739
118739
118738
118738
118738
118738
118738
118738
118737
118737
118649
118649
118649
118649
118649
118649
118649
118649
118649
118648
118648
118648
118648
118648
118647
118647
118647
118646
118646
118646
118646
118645
118645
118645
118645
118644
118644
118644
118644
118644
118643
118643
118643
118643
118643
118642
118642
118642
118642
118641
118641
118641
118641
118641
118640
118640
118640
118640
118640
118640
118552
118552
118552
118551
118551
118551
118551
118551
118551
118551
118551
118550
118550
118550
118550
118549
118549
118549
118549
118548
118548
118548
118547
118547
118547
118547
118547
118546
118546
118546
118546
118546
118545
118545
118545
118545
118545
118544
118544
118544
118544
118543
118543
118543
118543
118543
118543
118542
118542
118542
118454
118454
118454
118454
118454
118454
118454
118454
118453
118453
118453
118453
118453
118452
118452
118452
118452
118451
118451
118451
118450
118450
118450
118450
118449
118449
118449
118449
118449
118449
118448
118448
118448
118448
118447
118447
118447
118447
118447
118446
118446
118446
118446
118445
118445
118445
118445
118445
118445
118445
118356
118356
118356
118356
118356
118356
118356
118356
118356
118356
118355
118355
118355
118355
118355
118354
118354
118354
118353
118353
118353
118353
118352
118352
118352
118352
118351
118351
118351
118351
118351
118351
118350
118350
118350
118350
118349
118349
118349
118349
118349
118348
118348
118348
118348
118348
118347
118347
118347
118347
118259
118259
118259
118259
118259
118259
118258
118258
118258
118258
118258
118258
118257
118257
118257
118257
118256
118256
118256
118256
118255
118255
118255
118255
118254
118254
118254
118254
118254
118253
118253
118253
118253
118253
118252
118252
118252
118252
118251
118251
118251
118251
118251
118250
118250
118250
118250
118250
118250
118250
118161
118161
118161
118161
118161
118161
118161
118161
118161
118161
118160
118160
118160
118160
118159
118159
118159
118159
118158
118158
118158
118157
118157
118157
118157
118157
118156
118156
118156
118156
118156
118155
118155
118155
118155
118154
118154
118154
118154
118154
118153
118153
118153
118153
118153
118152
118152
118152
118152
118152
118064
118064
118064
118064
118063
118063
118063
118063
118063
118063
118063
118063
118062
118062
118062
118062
118061
118061
118061
118060
118060
118060
118060
118059
118059
118059
118059
118059
118058
118058
118058
118058
118058
118057
118057
118057
118057
118056
118056
118056
118056
118056
118055
118055
118055
118055
118055
118055
118054
118054
117966
117966
117966
117966
117966
117966
117966
117966
117966
117965
117965
117965
117965
117965
117964
117964
117964
117963
117963
117963
117963
117962
117962
117962
117962
117961
117961
117961
117961
117961
117960
117960
117960
117960
117960
117959
117959
117959
117959
117958
117958
117958
117958
117958
117957
117957
117957
117957
117957
117957
117868
117868
117868
117868
117868
117868
117868
117868
117868
117868
117868
117867
117867
117867
117867
117866
117866
117866
117866
117865
117865
117865
117864
117864
117864
117864
117864
117863
117863
117863
117863
117863
117862
117862
117862
117862
117862
117861
117861
117861
117861
117860
117860
117860
117860
117860
117860
117859
117859
117859
117771
117771
117771
117771
117771
117771
117771
117770
117770
117770
117770
117770
117770
117769
117769
117769
117769
117768
117768
117768
117767
117767
117767
117767
117766
117766
117766
117766
117766
117765
117765
117765
117765
117765
117764
117764
117764
117764
117763
117763
117763
117763
117763
117763
117762
117762
117762
117762
117762
117762
117673
117673
117673
117673
117673
117673
117673
117673
117673
117673
117672
117672
117672
117672
117672
117671
117671
117671
117670
117670
117670
117670
117669
117669
117669
117669
117668
117668
117668
117668
117668
117667
117667
117667
117667
117667
117666
117666
117666
117666
117666
117665
117665
117665
117665
117665
117664
117664
117664
117664
117575
117576
117576
117576
117576
117575
117575
117575
117575
117575
117575
117575
117574
117574
117574
117574
117573
117573
117573
117572
117572
117572
117572
117572
117571
117571
117571
117571
117571
117570
117570
117570
117570
117569
117569
117569
117569
117569
117568
117568
117568
117568
117568
117567
117567
117567
117567
117567
117567
117567
117479
117478
117478
117478
117478
117478
117478
117478
117478
117477
117477
117477
117477
117477
117476
117476
117476
117475
117475
117475
117475
117474
117474
117474
117474
117474
117473
117473
117473
117473
117473
117472
117472
117472
117472
117471
117471
117471
117471
117471
117470
117470
117470
117470
117470
117469
117469
117469
117469
117469
128006
128042
128044
128069
128073
128086
128088
128092
128092
128092
128092
128091
128090
128091
128093
128100
128104
128117
128120
128142
127899
127934
127936
127960
127962
127975
127976
127980
127979
127978
127976
127974
127972
127973
127973
127979
127982
127995
127997
128019
127792
127827
127827
127851
127852
127864
127865
127867
127866
127864
127861
127858
127856
127855
127855
127860
127863
127875
127877
127899
127685
127719
127719
127742
127743
127754
127753
127755
127753
127750
127746
127743
127740
127739
127739
127743
127745
127757
127758
127780
127579
127612
127611
127633
127633
127644
127642
127643
127640
127636
127632
127628
127624
127623
127621
127625
127626
127638
127638
127660
127473
127506
127504
127525
127524
127534
127532
127532
127528
127523
127518
127512
127508
127506
127504
127507
127508
127519
127518
127539
127368
127400
127397
127417
127416
127424
127421
127421
127415
127410
127403
127397
127392
127389
127387
127389
127389
127399
127398
127418
127263
127294
127290
127310
127307
127315
127311
127310
127303
127297
127290
127282
127276
127273
127269
127271
127270
127280
127277
127297
127158
127189
127184
127203
127200
127206
127201
127199
127192
127184
127176
127168
127161
127156
127152
127153
127151
127160
127157
127176
127054
127084
127079
127096
127092
127098
127092
127088
127080
127072
127062
127053
127045
127040
127035
127035
127032
127041
127037
127055
126951
126979
126974
126990
126985
126990
126983
126978
126969
126960
126949
126939
126930
126924
126918
126918
126914
126922
126917
126934
126848
126876
126869
126884
126879
126882
126874
126869
126858
126848
126837
126826
126816
126808
126801
126800
126796
126803
126797
126814
126745
126772
126765
126779
126773
126775
126766
126760
126748
126737
126725
126713
126701
126693
126685
126684
126678
126685
126678
126694
126643
126670
126661
126675
126667
126668
126658
126651
126639
126626
126613
126600
126588
126579
126570
126567
126561
126567
126559
126575
126542
126567
126558
126571
126562
126562
126551
126543
126529
126516
126502
126488
126475
126465
126455
126452
126444
126449
126441
126456
126442
126466
126456
126467
126458
126457
126445
126435
126421
126407
126391
126376
126362
126351
126341
126337
126328
126333
126323
126338
126341
126365
126354
126364
126354
126352
126339
126328
126313
126298
126282
126266
126251
126239
126227
126222
126213
126217
126206
126220
126242
126265
126253
126262
126251
126248
126234
126222
126206
126190
126173
126156
126140
126127
126115
126109
126098
126101
126090
126103
126143
126165
126153
126161
126149
126145
126130
126117
126100
126083
126065
126047
126030
126016
126003
125996
125985
125987
125975
125987
126046
126066
126053
126060
126047
126042
126027
126013
125995
125977
125958
125939
125921
125906
125892
125884
125872
125873
125860
125872
125948
125968
125954
125960
125947
125940
125924
125910
125891
125871
125852
125832
125813
125797
125782
125773
125760
125761
125746
125757
125852
125871
125856
125861
125847
125840
125823
125807
125788
125767
125746
125725
125705
125689
125673
125664
125649
125649
125634
125643
125757
125774
125759
125763
125748
125740
125723
125706
125686
125664
125642
125621
125600
125582
125565
125555
125539
125538
125522
125531
125662
125679
125663
125666
125650
125641
125623
125606
125585
125562
125539
125516
125495
125477
125458
125447
125430
125428
125411
125419
125569
125584
125568
125570
125553
125543
125525
125507
125485
125461
125437
125413
125391
125372
125352
125340
125322
125319
125301
125308
125476
125491
125473
125474
125457
125447
125427
125408
125386
125362
125337
125313
125289
125268
125247
125234
125215
125211
125191
125197
125385
125398
125380
125380
125362
125351
125330
125311
125287
125263
125237
125212
125187
125165
125143
125129
125108
125103
125083
125088
125294
125306
125287
125286
125268
125255
125234
125214
125190
125164
125138
125112
125086
125063
125040
125024
125003
124996
124975
124979
125204
125216
125195
125193
125174
125161
125139
125117
125092
125066
125038
125011
124984
124961
124936
124920
124898
124890
124868
124871
125115
125125
125104
125101
125081
125067
125044
125021
124995
124967
124939
124911
124883
124859
124834
124816
124793
124785
124762
124764
125027
125036
125014
125010
124989
124973
124950
124926
124898
124869
124840
124811
124783
124758
124731
124713
124689
124680
124656
124658
124939
124948
124925
124919
124897
124881
124856
124831
124802
124772
124742
124712
124683
124657
124630
124611
124586
124577
124552
124552
124853
124860
124836
124829
124806
124788
124763
124737
124707
124675
124644
124613
124583
124557
124529
124510
124484
124473
124448
124448
124767
124773
124748
124740
124716
124697
124671
124643
124612
124580
124547
124516
124485
124458
124429
124409
124383
124371
124345
124344
124683
124687
124661
124652
124627
124607
124579
124551
124519
124485
124452
124420
124388
124360
124330
124309
124282
124270
124243
124241
124599
124602
124576
124565
124539
124517
124489
124459
124426
124392
124357
124324
124291
124263
124232
124211
124182
124170
124141
124139
124516
124518
124491
124479
124452
124429
124399
124368
124335
124299
124264
124230
124196
124167
124135
124113
124084
124070
124041
124037
124435
124435
124407
124394
124366
124342
124311
124279
124244
124208
124172
124137
124102
124072
124040
124016
123986
123972
123942
123937
124354
124354
124324
124309
124281
124255
124223
124191
124155
124117
124081
124045
124009
123978
123945
123921
123890
123874
123843
123838
124275
124273
124243
124226
124197
124170
124137
124103
124066
124028
123990
123954
123917
123885
123851
123826
123794
123778
123746
123740
124197
124193
124162
124145
124114
124086
124052
124017
123979
123940
123902
123864
123826
123793
123758
123733
123700
123683
123650
123643
124120
124115
124083
124064
124032
124003
123968
123932
123893
123853
123814
123775
123737
123703
123667
123641
123607
123589
123555
123547
124045
124038
124005
123985
123952
123922
123886
123849
123809
123768
123727
123688
123649
123614
123577
123550
123515
123496
123461
123453
123971
123963
123929
123907
123873
123841
123805
123766
123725
123683
123642
123602
123561
123526
123488
123460
123424
123405
123369
123359
123898
123889
123854
123830
123796
123762
123724
123685
123643
123600
123558
123516
123476
123439
123400
123371
123334
123315
123278
123267
123827
123816
123780
123755
123719
123685
123646
123605
123562
123518
123475
123433
123391
123353
123314
123284
123246
123226
123188
123176
123758
123745
123708
123682
123645
123609
123568
123527
123483
123438
123394
123350
123308
123269
123229
123198
123160
123138
123099
123087
123690
123676
123638
123609
123571
123534
123493
123450
123404
123358
123313
123269
123226
123187
123146
123114
123075
123052
123012
122999
123624
123608
123569
123539
123500
123461
123418
123374
123328
123281
123235
123190
123146
123106
123064
123031
122991
122968
122927
122912
123560
123542
123502
123470
123429
123389
123345
123300
123253
123205
123158
123112
123067
123026
122984
122950
122909
122885
122843
122828
123497
123477
123436
123403
123361
123319
123274
123227
123179
123130
123082
123036
122990
122948
122905
122871
122829
122804
122761
122744
123437
123415
123372
123337
123294
123251
123204
123156
123107
123057
123008
122961
122915
122872
122828
122793
122751
122725
122681
122663
123378
123354
123310
123273
123229
123184
123136
123087
123036
122986
122936
122888
122841
122797
122753
122717
122674
122647
122602
122583
123320
123295
123250
123211
123166
123119
123070
123019
122968
122916
122865
122816
122769
122724
122680
122642
122599
122571
122525
122505
123265
123238
123192
123151
123104
123056
123006
122954
122901
122848
122797
122747
122699
122653
122608
122570
122526
122497
122450
122429
123212
123182
123136
123093
123044
122995
122943
122890
122836
122782
122729
122679
122630
122584
122538
122499
122454
122425
122377
122354
123161
123129
123081
123037
122987
122935
122882
122827
122772
122717
122664
122613
122563
122516
122470
122430
122385
122354
122306
122282
123112
123078
123029
122982
122931
122878
122823
122767
122711
122655
122601
122549
122499
122451
122405
122364
122318
122286
122238
122212
123065
123029
122978
122930
122877
122822
122766
122709
122651
122594
122539
122487
122436
122388
122341
122299
122253
122220
122171
122144
123020
122981
122929
122879
122825
122769
122711
122652
122593
122536
122480
122426
122375
122326
122279
122236
122190
122156
122106
122078
122977
122936
122883
122831
122774
122717
122657
122598
122538
122479
122422
122368
122316
122267
122219
122176
122129
122094
122044
122014
122935
122892
122837
122784
122726
122667
122606
122545
122484
122424
122367
122312
122259
122209
122161
122117
122071
122034
121984
121952
122895
122850
122794
122738
122679
122618
122556
122494
122432
122371
122313
122258
122205
122154
122106
122061
122014
121977
121925
121892
122856
122809
122752
122695
122634
122572
122509
122445
122382
122321
122262
122205
122152
122101
122052
122006
121959
121921
121869
121833
122819
122769
122711
122652
122590
122527
122462
122398
122334
122272
122212
122155
122101
122049
122000
121954
121906
121867
121814
121777
122783
122731
122671
122611
122548
122483
122418
122352
122287
122224
122164
122106
122052
122000
121950
121903
121855
121814
121761
121721
122747
122693
122632
122571
122506
122441
122374
122308
122242
122178
122117
122059
122004
121951
121901
121854
121806
121763
121709
121668
122711
122656
122594
122531
122465
122399
122332
122264
122198
122134
122072
122014
121958
121905
121854
121805
121757
121713
121659
121615
122675
122618
122555
122491
122425
122358
122290
122222
122155
122090
122028
121969
121913
121859
121808
121758
121709
121663
121609
121562
122639
122580
122516
122451
122384
122316
122248
122180
122113
122047
121985
121925
121868
121814
121762
121711
121662
121614
121559
121510
122601
122540
122476
122410
122343
122275
122206
122138
122070
122005
121942
121882
121824
121769
121716
121665
121614
121565
121509
121457
122561
122500
122435
122369
122301
122232
122163
122095
122028
121962
121898
121838
121779
121724
121670
121618
121566
121515
121458
121404
122520
122457
122392
122325
122257
122188
122120
122051
121984
121918
121855
121793
121734
121678
121623
121569
121516
121463
121405
121349
122476
122412
122347
122280
122212
122143
122074
122006
121939
121873
121809
121748
121688
121630
121574
121520
121465
121410
121351
121292
122431
122365
122299
122232
122164
122096
122027
121959
121892
121826
121762
121700
121640
121581
121524
121468
121411
121355
121294
121233
122382
122316
122249
122182
122114
122046
121978
121910
121843
121777
121713
121651
121589
121530
121471
121413
121355
121296
121234
121172
122331
122265
122197
122130
122062
121994
121926
121858
121791
121726
121661
121598
121536
121475
121415
121356
121296
121235
121172
121108
122278
122211
122143
122075
122007
121940
121872
121804
121737
121672
121607
121543
121480
121418
121357
121295
121234
121171
121106
121041
122223
122155
122087
122019
121951
121883
121815
121748
121681
121615
121549
121485
121421
121358
121295
121232
121168
121104
121038
120971
122166
122097
122029
121960
121892
121824
121757
121689
121622
121556
121489
121424
121359
121295
121230
121165
121100
121034
120967
120899
122107
122038
121969
121900
121832
121763
121696
121628
121561
121494
121427
121361
121295
121229
121163
121096
121029
120962
120894
120826
122048
121978
121908
121839
121770
121701
121633
121565
121498
121431
121364
121296
121229
121162
121095
121027
120959
120890
120821
120752
121988
121917
121847
121777
121707
121637
121568
121500
121432
121364
121297
121229
121161
121093
121025
120956
120887
120818
120747
120677
121927
121856
121785
121714
121643
121573
121503
121434
121364
121296
121227
121158
121089
121019
120950
120881
120812
120742
120671
120599
121866
121794
121722
121651
121580
121509
121438
121367
121297
121226
121156
121086
121015
120944
120873
120803
120733
120663
120591
120518
121805
121732
121660
121588
121516
121444
121372
121301
121229
121158
121086
121015
120943
120871
120800
120728
120657
120585
120512
120439
121744
121671
121598
121525
121452
121379
121307
121234
121162
121090
121017
120945
120873
120800
120728
120655
120582
120509
120436
120362
121683
121609
121536
121462
121388
121315
121242
121168
121095
121022
120949
120876
120803
120729
120656
120583
120509
120435
120361
120287
121623
121548
121474
121399
121325
121251
121177
121103
121029
120955
120881
120807
120733
120659
120585
120511
120437
120362
120287
120212
121562
121487
121412
121337
121262
121188
121113
121038
120963
120889
120814
120739
120665
120590
120515
120440
120365
120290
120214
120139
121503
121427
121351
121276
121200
121125
121049
120974
120898
120823
120748
120672
120597
120521
120446
120370
120294
120218
120143
120067
121444
121367
121291
121215
121138
121062
120986
120910
120834
120758
120682
120606
120530
120453
120377
120301
120224
120148
120072
119995
121385
121308
121231
121154
121077
121001
120924
120847
120770
120694
120617
120540
120463
120386
120310
120233
120156
120079
120001
119924
121327
121250
121172
121095
121017
120940
120862
120785
120707
120630
120553
120475
120398
120320
120243
120165
120088
120010
119932
119854
121270
121192
121114
121035
120957
120879
120801
120723
120645
120567
120489
120411
120333
120255
120177
120099
120020
119942
119864
119786
121213
121134
121056
120977
120898
120820
120741
120663
120584
120505
120427
120348
120269
120191
120112
120033
119954
119875
119797
119718
121157
121078
120999
120919
120840
120761
120682
120603
120523
120444
120365
120286
120206
120127
120048
119968
119889
119810
119730
119651
121102
121022
120942
120863
120783
120703
120623
120543
120464
120384
120304
120224
120144
120064
119984
119904
119825
119745
119665
119585
121048
120967
120887
120806
120726
120646
120565
120485
120405
120324
120244
120163
120083
120002
119922
119842
119761
119681
119600
119519
120994
120913
120832
120751
120670
120589
120508
120427
120346
120265
120184
120103
120023
119942
119861
119779
119698
119617
119536
119455
120941
120859
120778
120696
120615
120533
120452
120370
120289
120207
120126
120045
119963
119881
119800
119718
119637
119555
119474
119392
120889
120807
120724
120642
120560
120478
120396
120314
120232
120150
120068
119986
119904
119822
119740
119658
119576
119494
119412
119330
120837
120755
120672
120589
120507
120424
120342
120259
120177
120094
120012
119929
119847
119764
119681
119599
119516
119434
119351
119268
120786
120703
120620
120537
120454
120371
120288
120205
120122
120039
119956
119873
119790
119707
119624
119540
119457
119374
119291
119208
120737
120653
120569
120486
120402
120319
120235
120152
120068
119985
119901
119817
119734
119650
119567
119483
119399
119316
119232
119148
120687
120603
120519
120435
120351
120267
120183
120099
120015
119931
119847
119763
119679
119595
119511
119426
119342
119258
119174
119090
120639
120555
120470
120386
120301
120216
120132
120047
119963
119878
119794
119709
119625
119540
119455
119371
119286
119202
119117
119032
120592
120507
120422
120337
120252
120167
120082
119997
119912
119826
119741
119656
119571
119486
119401
119316
119231
119146
119061
118976
120545
120460