/*--------------------------------*- C++ -*----------------------------------*\
  =========                 |
  \\      /  F ield         | OpenFOAM: The Open Source CFD Toolbox
   \\    /   O peration     | Website:  https://openfoam.org
    \\  /    A nd           | Version:  8
     \\/     M anipulation  |
\*---------------------------------------------------------------------------*/
FoamFile
{
    version     2.0;
    format      ascii;
    class       volScalarField;
    location    "200";
    object      p_rgh;
}
// * * * * * * * * * * * * * * * * * * * * * * * * * * * * * * * * * * * * * //

dimensions      [1 -1 -2 0 0 0 0];

internalField   nonuniform List<scalar> 
8400
(
13284.2
26990.2
37754.2
49208.1
61027.8
72237.5
82109.8
90216
96290
100129
101844
102554
103669
105979
109682
114229
118366
121124
122675
123435
123677
123583
123287
122884
122441
122012
121637
121344
121149
121059
121071
121174
121355
121597
121882
122193
122516
122839
123154
123454
123734
123993
124228
124442
124634
124807
124962
125104
125243
125388
16826.8
28579
36660.3
48227.4
60720.1
72626.8
83116.9
91697.9
98009
101680
102172
101341
101656
103786
108053
113985
119282
122087
123366
123921
124003
123780
123388
122912
122417
121951
121551
121243
121043
120954
120971
121084
121277
121531
121829
122151
122485
122816
123138
123443
123726
123987
124223
124435
124625
124793
124943
125076
125200
125320
7833.52
21721.6
34550.4
48360
61570.5
73548.3
84110.5
92839.3
99256.3
103026
103024
100594
99105.1
100710
106541
115426
122055
123878
124554
124800
124591
124132
123565
122960
122369
121837
121395
121064
120858
120775
120810
120946
121166
121449
121773
122121
122475
122825
123161
123476
123768
124033
124272
124486
124676
124844
124992
125124
125243
125352
-13342.6
11297
30839.8
46501
59281.3
69997.4
79290.8
87472.1
94439.5
99296.1
99671.9
97049.7
96596.7
101107
111026
121882
125486
125346
126094
125903
125264
124512
123729
122955
122238
121620
121122
120764
120551
120481
120541
120712
120972
121295
121658
122040
122424
122797
123151
123479
123779
124048
124289
124501
124688
124851
124994
125119
125229
125328
-6170.92
12520.4
30202.3
43383.5
53342.1
61527.9
68766.5
75403.4
81364.5
86197.7
89343.9
91874.1
96026.9
102870
111996
120700
124672
127728
128037
126619
125850
124861
123815
122851
122006
121304
120754
120374
120165
120119
120220
120442
120756
121135
121550
121977
122400
122804
123181
123526
123836
124113
124356
124569
124753
124913
125051
125169
125271
125360
1541.68
15548.5
28656.5
38705.1
46600.2
53545
60099.7
66421.4
72458.9
78096.8
83338.4
88705.9
94977.7
102361
110391
117854
122772
126462
127333
127452
126509
124945
123627
122573
121617
120841
120259
119873
119683
119673
119826
120110
120492
120936
121412
121893
122358
122796
123197
123559
123880
124162
124407
124618
124799
124954
125086
125198
125292
125372
1354.86
14100.1
24933.7
33476.6
40766.4
47607.1
54237
60651.2
66817.8
72773.9
78683.2
84885.3
91700.8
99040.5
106465
113387
118910
123440
126114
126763
125843
124608
123358
122158
121082
120329
119750
119349
119177
119208
119415
119765
120221
120742
121287
121826
122338
122811
123237
123616
123947
124234
124480
124690
124867
125017
125143
125248
125335
125407
2917.47
14526
23983.5
31511.8
38206
44637.2
50899.4
56969.1
62869.2
68693.5
74606.5
80823.5
87510.2
94600.2
101809
108757
114833
119872
123296
124735
124743
123849
122601
121382
120501
119775
119156
118755
118618
118689
118954
119384
119930
120536
121156
121757
122315
122822
123271
123664
124004
124295
124541
124749
124923
125068
125188
125287
125369
125435
3522.76
14373.1
22808
29569.5
35769.4
41817.5
47742.7
53539.3
59258.7
64995.8
70876.5
77040.1
83597.1
90538.5
97686.2
104707
111044
116321
120181
122419
123190
122694
121685
120663
119740
118952
118428
118090
117919
118025
118399
118957
119623
120331
121033
121694
122296
122832
123300
123705
124050
124343
124589
124795
124966
125108
125224
125320
125398
125461
3997.11
14237
21931.7
28233.4
34146.2
39921.4
45574.4
51141.5
56698.8
62340.2
68165.8
74275
80745
87573.1
94618.9
101587
107999
113456
117662
120405
121660
121628
120930
120000
119093
118371
117841
117489
117361
117511
117958
118619
119387
120180
120945
121650
122281
122835
123314
123724
124071
124363
124608
124812
124981
125120
125236
125330
125408
125470
4390.94
14224.2
21386.1
27501.1
33296.4
38895.3
44356.3
49767.7
55224
60812.8
66614.7
72701.8
79122.6
85859.7
92789.1
99664.9
106084
111662
116092
119139
120748
121094
120613
119745
118871
118136
117561
117234
117199
117390
117824
118501
119304
120132
120921
121642
122281
122839
123320
123729
124076
124368
124611
124814
124983
125122
125237
125332
125409
125471
5248.33
14120
20991.4
27197.7
33008.9
38545.1
43935.2
49299.1
54738.1
60336.3
66164.4
72277.9
78704
85406.6
92261.5
99070.3
105469
111094
115637
118865
120715
121318
121005
120188
119256
118409
117767
117424
117387
117574
117986
118628
119403
120211
120985
121690
122316
122861
123330
123732
124072
124360
124601
124803
124970
125110
125225
125320
125398
125462
5715.55
13851.8
20705.6
27091.3
33002.7
38605.9
44065.3
49508.7
55034.6
60723.8
66645.2
72851
79359.7
86124.9
93022.6
99822.4
106163
111741
116295
119593
121572
122330
122134
121351
120345
119369
118598
118128
117978
118108
118467
119029
119722
120455
121165
121818
122400
122911
123355
123737
124065
124343
124578
124776
124943
125082
125197
125293
125373
125438
5635.82
13550.9
20674.7
27223.9
33282.3
39046.9
44675.6
50288.2
55978.2
61823.8
67894.4
74246
80900.8
87816.7
94856.9
101701
107978
113451
117911
121169
123176
124000
123860
123076
121987
120871
119931
119281
118959
118946
119184
119624
120195
120819
121435
122009
122528
122990
123396
123750
124057
124322
124548
124741
124905
125042
125158
125255
125336
125403
5632.1
13493.9
20774.4
27443
33680.3
39662.5
45530
51392.5
57338.2
63440.5
69764.2
76360.3
83245.8
90367.4
97556.8
104462
110703
116002
120228
123336
125293
126112
125966
125134
123932
122650
121509
120648
120122
119924
120001
120295
120733
121238
121750
122238
122686
123090
123451
123772
124054
124301
124516
124701
124860
124996
125111
125208
125289
125357
5711.89
13552.1
20928.2
27736.9
34174
40392.7
46523.9
52675
58930.4
65359.3
72018
78943.1
86131
93500.6
100847
107814
114019
119161
123093
125868
127647
128425
128228
127302
125946
124464
123101
122017
121283
120898
120814
120963
121272
121662
122075
122477
122855
123202
123518
123803
124059
124287
124488
124665
124819
124951
125065
125161
125242
125310
5783.55
13623.6
21127.6
28129.6
34803.3
41286.5
47703.7
54161.2
60744.4
67519.5
74533.1
81802.3
89293.9
96892.5
104368
111374
117536
122540
126227
128643
130076
130706
130445
129396
127847
126131
124530
123228
122305
121760
121536
121561
121755
122041
122364
122690
123004
123300
123575
123829
124060
124270
124459
124627
124776
124906
125018
125113
125193
125260
5961.77
13832.8
21477.5
28685.4
35606.5
42363
49071.4
55834.4
62736.8
69841.8
77185.9
84765.4
92517.3
100295
107852
114854
120942
125806
129278
131397
132454
132816
132448
131268
129506
127530
125686
124191
123124
122467
122150
122086
122190
122388
122631
122888
123145
123396
123635
123861
124070
124263
124440
124601
124745
124873
124984
125078
125156
125220
6075.96
13919.7
21651.5
29008.2
36119
43091.7
50035.7
57050.2
64218.7
71601.4
79226.5
87074.5
95059.7
103012
110672
117709
123772
128554
131878
133773
134527
134612
134091
132767
130777
128519
126416
124744
123578
122867
122512
122406
122460
122603
122792
123002
123222
123443
123660
123868
124064
124246
124416
124572
124715
124842
124953
125046
125123
125183
6310.51
14167.4
21959.3
29410.4
36644.4
43764.9
50878.1
58081.9
65458.8
73066.5
80927.6
89012.1
97218.2
105358
113157
120276
126355
131075
134233
135831
136201
135973
135337
133944
131800
129316
126979
125137
123879
123125
122743
122613
122638
122748
122904
123085
123280
123483
123685
123882
124069
124245
124410
124563
124704
124830
124940
125033
125107
125161
129139
129139
129139
129139
129139
129139
129139
129139
129139
129139
129139
129139
129139
129139
129139
129139
129138
129138
129138
129138
129138
129138
129138
129137
129137
129137
129137
129137
129137
129137
129137
129136
129136
129136
129136
129136
129136
129136
129135
129135
129135
129135
129135
129135
129134
129134
129134
129134
129134
129133
129139
129139
129139
129139
129139
129139
129139
129139
129139
129139
129139
129139
129139
129139
129138
129138
129138
129138
129138
129138
129138
129138
129137
129137
129137
129137
129137
129137
129137
129136
129136
129136
129136
129136
129136
129136
129135
129135
129135
129135
129135
129135
129134
129134
129134
129134
129134
129133
129133
129133
129139
129139
129139
129139
129139
129139
129139
129139
129139
129139
129139
129139
129139
129139
129138
129138
129138
129138
129138
129138
129138
129137
129137
129137
129137
129137
129137
129137
129136
129136
129136
129136
129136
129136
129136
129136
129135
129135
129135
129135
129135
129134
129134
129134
129134
129134
129133
129133
129133
129133
129139
129139
129139
129139
129139
129139
129139
129139
129139
129139
129139
129139
129139
129139
129138
129138
129138
129138
129138
129138
129138
129137
129137
129137
129137
129137
129137
129137
129136
129136
129136
129136
129136
129136
129136
129136
129135
129135
129135
129135
129135
129134
129134
129134
129134
129134
129133
129133
129133
129133
129139
129139
129139
129139
129139
129139
129139
129139
129139
129139
129139
129139
129139
129139
129138
129138
129138
129138
129138
129138
129138
129137
129137
129137
129137
129137
129137
129137
129136
129136
129136
129136
129136
129136
129136
129136
129135
129135
129135
129135
129135
129134
129134
129134
129134
129134
129133
129133
129133
129133
129139
129139
129139
129139
129139
129139
129139
129139
129139
129139
129139
129139
129139
129139
129138
129138
129138
129138
129138
129138
129138
129137
129137
129137
129137
129137
129137
129137
129136
129136
129136
129136
129136
129136
129136
129136
129135
129135
129135
129135
129135
129134
129134
129134
129134
129134
129133
129133
129133
129133
129139
129139
129139
129139
129139
129139
129139
129139
129139
129139
129139
129139
129139
129139
129138
129138
129138
129138
129138
129138
129138
129137
129137
129137
129137
129137
129137
129137
129136
129136
129136
129136
129136
129136
129136
129136
129135
129135
129135
129135
129135
129134
129134
129134
129134
129134
129134
129133
129133
129133
129139
129139
129139
129139
129139
129139
129139
129139
129139
129139
129139
129139
129139
129139
129138
129138
129138
129138
129138
129138
129138
129137
129137
129137
129137
129137
129137
129137
129136
129136
129136
129136
129136
129136
129136
129136
129135
129135
129135
129135
129135
129134
129134
129134
129134
129134
129134
129133
129133
129133
129139
129139
129139
129139
129139
129139
129139
129139
129139
129139
129139
129139
129139
129139
129138
129138
129138
129138
129138
129138
129138
129137
129137
129137
129137
129137
129137
129137
129136
129136
129136
129136
129136
129136
129136
129136
129135
129135
129135
129135
129135
129134
129134
129134
129134
129134
129134
129133
129133
129133
129139
129139
129139
129139
129139
129139
129139
129139
129139
129139
129139
129139
129139
129139
129138
129138
129138
129138
129138
129138
129138
129137
129137
129137
129137
129137
129137
129137
129136
129136
129136
129136
129136
129136
129136
129136
129135
129135
129135
129135
129135
129134
129134
129134
129134
129134
129134
129133
129133
129133
129139
129139
129139
129139
129139
129139
129139
129139
129139
129139
129139
129139
129139
129139
129138
129138
129138
129138
129138
129138
129138
129137
129137
129137
129137
129137
129137
129137
129136
129136
129136
129136
129136
129136
129136
129136
129135
129135
129135
129135
129135
129135
129134
129134
129134
129134
129134
129133
129133
129133
129139
129139
129139
129139
129139
129139
129139
129139
129139
129139
129139
129139
129139
129139
129138
129138
129138
129138
129138
129138
129138
129137
129137
129137
129137
129137
129137
129137
129137
129136
129136
129136
129136
129136
129136
129136
129135
129135
129135
129135
129135
129135
129134
129134
129134
129134
129134
129133
129133
129133
129139
129139
129139
129139
129139
129139
129139
129139
129139
129139
129139
129139
129139
129139
129138
129138
129138
129138
129138
129138
129138
129137
129137
129137
129137
129137
129137
129137
129137
129136
129136
129136
129136
129136
129136
129136
129135
129135
129135
129135
129135
129135
129134
129134
129134
129134
129134
129133
129133
129133
129139
129139
129139
129139
129139
129139
129139
129139
129139
129139
129139
129139
129139
129139
129138
129138
129138
129138
129138
129138
129138
129137
129137
129137
129137
129137
129137
129137
129137
129136
129136
129136
129136
129136
129136
129136
129135
129135
129135
129135
129135
129135
129134
129134
129134
129134
129134
129133
129133
129133
129139
129139
129139
129139
129139
129139
129139
129139
129139
129139
129139
129139
129139
129139
129138
129138
129138
129138
129138
129138
129138
129137
129137
129137
129137
129137
129137
129137
129137
129136
129136
129136
129136
129136
129136
129136
129135
129135
129135
129135
129135
129135
129134
129134
129134
129134
129134
129134
129133
129133
129139
129139
129139
129139
129139
129139
129139
129139
129139
129139
129139
129139
129139
129139
129138
129138
129138
129138
129138
129138
129138
129137
129137
129137
129137
129137
129137
129137
129137
129136
129136
129136
129136
129136
129136
129136
129135
129135
129135
129135
129135
129135
129134
129134
129134
129134
129134
129134
129133
129133
129139
129139
129139
129139
129139
129139
129139
129139
129139
129139
129139
129139
129139
129139
129138
129138
129138
129138
129138
129138
129138
129137
129137
129137
129137
129137
129137
129137
129137
129136
129136
129136
129136
129136
129136
129136
129135
129135
129135
129135
129135
129135
129134
129134
129134
129134
129134
129134
129133
129133
129139
129139
129139
129139
129139
129139
129139
129139
129139
129139
129139
129139
129139
129139
129138
129138
129138
129138
129138
129138
129138
129137
129137
129137
129137
129137
129137
129137
129137
129136
129136
129136
129136
129136
129136
129136
129135
129135
129135
129135
129135
129135
129134
129134
129134
129134
129134
129134
129133
129133
129139
129139
129139
129139
129139
129139
129139
129139
129139
129139
129139
129139
129139
129139
129138
129138
129138
129138
129138
129138
129138
129137
129137
129137
129137
129137
129137
129137
129137
129136
129136
129136
129136
129136
129136
129136
129135
129135
129135
129135
129135
129135
129135
129134
129134
129134
129134
129134
129134
129133
129139
129139
129139
129139
129139
129139
129139
129139
129139
129139
129139
129139
129139
129139
129139
129139
129138
129138
129138
129138
129138
129138
129138
129138
129137
129137
129137
129137
129137
129137
129137
129137
129136
129136
129136
129136
129136
129136
129136
129135
129135
129135
129135
129135
129135
129135
129134
129134
129134
129134
128056
128093
128095
128121
128124
128138
128141
128146
128146
128147
128147
128147
128147
128150
128154
128162
128167
128182
128185
128208
128045
128082
128084
128110
128114
128128
128131
128136
128136
128137
128137
128137
128137
128140
128144
128152
128156
128172
128176
128199
128035
128072
128074
128100
128104
128118
128121
128126
128127
128127
128127
128127
128128
128131
128134
128142
128148
128163
128168
128193
128024
128061
128064
128090
128094
128108
128111
128116
128117
128118
128117
128117
128118
128122
128125
128134
128139
128156
128161
128187
128014
128051
128054
128080
128085
128099
128102
128107
128108
128108
128108
128108
128109
128112
128116
128125
128131
128147
128152
128179
128004
128042
128045
128071
128075
128089
128092
128098
128098
128099
128099
128099
128100
128104
128107
128116
128122
128139
128144
128171
127994
128032
128035
128062
128066
128080
128083
128089
128089
128090
128090
128090
128091
128095
128099
128108
128114
128131
128136
128163
127985
128023
128026
128053
128057
128072
128075
128080
128080
128081
128081
128081
128082
128086
128090
128099
128105
128123
128128
128156
127976
128015
128018
128044
128049
128063
128066
128071
128072
128072
128072
128072
128074
128078
128082
128091
128097
128115
128121
128148
127967
128006
128010
128036
128041
128055
128058
128063
128064
128064
128064
128064
128065
128069
128074
128083
128090
128108
128113
128141
127959
127998
128002
128028
128033
128047
128050
128055
128056
128056
128056
128056
128057
128061
128066
128076
128082
128101
128106
128135
127952
127991
127995
128021
128026
128040
128043
128048
128048
128048
128048
128048
128050
128054
128058
128069
128075
128094
128099
128128
127944
127984
127988
128014
128019
128033
128036
128041
128041
128041
128041
128041
128043
128047
128051
128062
128068
128087
128093
128122
127938
127977
127981
128008
128012
128026
128029
128034
128034
128034
128034
128034
128036
128040
128045
128055
128062
128081
128087
128117
127932
127971
127975
128002
128007
128020
128023
128028
128028
128028
128028
128028
128030
128034
128039
128050
128056
128076
128082
128112
127926
127965
127970
127996
128001
128015
128018
128022
128022
128023
128022
128022
128024
128029
128033
128044
128051
128071
128077
128107
127921
127960
127965
127991
127997
128010
128013
128017
128018
128018
128017
128018
128019
128024
128028
128040
128047
128067
128073
128103
127916
127956
127961
127987
127992
128006
128009
128013
128013
128013
128013
128013
128015
128020
128024
128036
128043
128063
128069
128100
127913
127952
127958
127984
127989
128003
128005
128010
128010
128010
128010
128010
128012
128016
128021
128033
128039
128060
128066
128097
127910
127949
127955
127981
127986
128000
128003
128007
128008
128007
128007
128007
128009
128014
128019
128030
128037
128058
128064
128095
127908
127947
127953
127979
127985
127998
128001
128006
128006
128006
128005
128006
128007
128012
128017
128029
128035
128056
128062
128093
127906
127946
127952
127977
127983
127997
128000
128005
128005
128005
128005
128005
128006
128011
128016
128028
128034
128055
128061
128092
127905
127945
127951
127977
127983
127996
128000
128005
128005
128005
128005
128005
128007
128011
128016
128028
128034
128055
128061
128092
127905
127945
127951
127977
127983
127997
128001
128005
128006
128006
128005
128006
128007
128012
128016
128028
128034
128055
128061
128093
127906
127945
127952
127978
127984
127998
128002
128007
128007
128007
128007
128007
128009
128013
128018
128029
128035
128056
128062
128094
127907
127947
127953
127979
127986
127999
128004
128009
128010
128010
128010
128010
128011
128016
128020
128031
128037
128058
128064
128095
127909
127949
127955
127981
127988
128002
128006
128011
128012
128013
128013
128013
128014
128018
128022
128033
128039
128060
128066
128097
127911
127951
127958
127983
127991
128004
128009
128014
128015
128016
128016
128016
128017
128021
128025
128036
128042
128062
128068
128100
127914
127954
127961
127987
127994
128007
128012
128017
128019
128019
128019
128019
128020
128024
128028
128039
128044
128065
128071
128102
127918
127958
127965
127990
127998
128011
128016
128021
128022
128022
128022
128023
128023
128027
128031
128042
128048
128068
128074
128106
127922
127962
127969
127994
128002
128015
128020
128024
128026
128026
128026
128026
128027
128031
128034
128046
128051
128072
128078
128109
127927
127967
127974
127998
128006
128019
128024
128028
128030
128030
128029
128030
128030
128035
128038
128050
128055
128076
128082
128114
127932
127972
127979
128003
128011
128024
128028
128033
128034
128033
128033
128034
128034
128039
128042
128054
128060
128081
128087
128118
127938
127978
127985
128009
128017
128029
128033
128037
128038
128038
128038
128038
128039
128044
128047
128059
128065
128086
128092
128123
127945
127984
127992
128015
128023
128034
128039
128043
128043
128043
128043
128043
128044
128049
128052
128064
128070
128091
128097
128129
127952
127991
127999
128022
128029
128041
128045
128049
128049
128049
128049
128049
128050
128055
128058
128071
128076
128098
128103
128135
127960
127999
128006
128029
128037
128048
128052
128055
128056
128055
128055
128056
128056
128061
128065
128077
128083
128104
128110
128142
127969
128007
128015
128037
128045
128055
128059
128062
128063
128062
128062
128063
128064
128069
128072
128085
128090
128112
128118
128150
127979
128016
128024
128046
128053
128063
128068
128070
128071
128070
128070
128071
128071
128077
128080
128093
128098
128120
128126
128158
127989
128026
128034
128055
128063
128073
128076
128079
128080
128079
128079
128079
128080
128085
128089
128102
128107
128129
128134
128166
128000
128037
128045
128066
128073
128082
128086
128089
128089
128088
128088
128089
128090
128095
128098
128111
128116
128138
128144
128176
128012
128049
128057
128077
128084
128093
128097
128099
128099
128098
128098
128099
128100
128105
128108
128121
128127
128149
128154
128186
128025
128062
128069
128089
128096
128105
128108
128110
128110
128109
128109
128110
128111
128116
128119
128132
128138
128160
128165
128197
128040
128075
128083
128102
128109
128117
128120
128122
128122
128121
128121
128121
128123
128128
128131
128144
128150
128172
128177
128209
128055
128090
128098
128116
128123
128131
128134
128135
128135
128134
128134
128134
128135
128140
128144
128157
128162
128185
128190
128221
128071
128106
128114
128131
128138
128145
128148
128149
128148
128147
128147
128147
128149
128154
128157
128171
128176
128198
128203
128235
128089
128122
128130
128147
128153
128160
128162
128163
128163
128162
128161
128162
128163
128168
128172
128185
128190
128213
128218
128249
128107
128140
128148
128165
128170
128176
128178
128179
128178
128177
128176
128177
128178
128184
128188
128201
128206
128229
128233
128265
128127
128160
128167
128183
128188
128194
128195
128196
128195
128193
128193
128193
128195
128200
128204
128217
128223
128245
128250
128281
128149
128180
128188
128202
128207
128212
128213
128213
128212
128210
128210
128210
128212
128217
128222
128235
128240
128263
128268
128299
128171
128202
128209
128223
128228
128232
128233
128232
128231
128229
128228
128229
128231
128236
128241
128254
128259
128282
128286
128317
128195
128225
128232
128245
128249
128253
128253
128252
128250
128249
128248
128248
128251
128256
128261
128274
128280
128302
128306
128337
128221
128249
128256
128268
128272
128275
128275
128274
128271
128269
128269
128269
128272
128277
128282
128295
128301
128323
128328
128358
128247
128275
128282
128293
128296
128299
128298
128296
128294
128292
128291
128291
128294
128299
128305
128318
128324
128346
128350
128380
128276
128302
128309
128320
128322
128324
128322
128320
128317
128315
128314
128315
128317
128323
128329
128341
128348
128370
128374
128404
128306
128331
128338
128347
128349
128350
128348
128345
128342
128340
128339
128340
128342
128348
128354
128367
128374
128395
128400
128429
128338
128362
128368
128376
128378
128378
128375
128372
128369
128366
128365
128366
128369
128374
128381
128393
128401
128422
128427
128455
128371
128393
128400
128407
128408
128407
128404
128400
128396
128393
128392
128393
128396
128402
128409
128421
128429
128451
128455
128483
128406
128427
128433
128439
128439
128437
128434
128429
128425
128422
128421
128422
128425
128431
128438
128451
128459
128480
128485
128512
128442
128462
128467
128472
128472
128469
128465
128460
128456
128453
128452
128453
128456
128462
128470
128482
128491
128511
128516
128543
128480
128498
128503
128507
128506
128503
128498
128493
128488
128484
128483
128484
128488
128494
128502
128514
128524
128544
128549
128575
128518
128535
128539
128543
128541
128537
128532
128526
128521
128517
128516
128518
128521
128528
128536
128548
128558
128578
128584
128608
128558
128573
128577
128580
128578
128573
128567
128561
128556
128552
128551
128552
128556
128563
128572
128584
128594
128614
128620
128643
128599
128612
128616
128618
128616
128610
128604
128597
128592
128588
128587
128588
128592
128599
128608
128621
128632
128651
128657
128679
128640
128652
128655
128657
128654
128648
128642
128635
128629
128625
128624
128625
128630
128637
128646
128658
128670
128688
128695
128716
128681
128692
128695
128696
128693
128687
128680
128673
128667
128663
128662
128664
128668
128675
128685
128697
128709
128727
128734
128753
128723
128732
128735
128735
128732
128726
128719
128712
128706
128702
128701
128703
128707
128715
128725
128737
128749
128766
128773
128791
128763
128771
128773
128774
128771
128765
128758
128751
128745
128741
128740
128743
128747
128755
128765
128777
128790
128806
128813
128829
128803
128809
128811
128812
128809
128804
128797
128790
128785
128781
128780
128783
128787
128795
128805
128817
128830
128845
128852
128867
128841
128846
128848
128849
128846
128841
128835
128829
128824
128821
128820
128822
128828
128835
128845
128857
128869
128884
128891
128904
128877
128881
128883
128883
128882
128878
128872
128867
128862
128859
128859
128862
128867
128875
128885
128896
128908
128922
128928
128939
128910
128913
128915
128916
128915
128912
128908
128903
128899
128897
128897
128900
128905
128913
128922
128934
128945
128957
128964
128973
128941
128943
128945
128946
128946
128945
128941
128938
128935
128933
128934
128937
128942
128949
128959
128969
128980
128991
128997
129005
128968
128970
128972
128973
128974
128974
128972
128970
128968
128967
128968
128971
128976
128983
128992
129002
129012
129022
129027
129033
128993
128994
128995
128997
128999
129000
129000
128999
128998
128998
129000
129003
129008
129015
129023
129032
129041
129049
129054
129059
129015
129015
129016
129018
129021
129023
129024
129025
129026
129026
129028
129031
129036
129043
129050
129058
129066
129073
129077
129081
129033
129033
129034
129036
129039
129042
129045
129047
129049
129051
129053
129057
129061
129067
129073
129080
129087
129093
129096
129099
129048
129049
129050
129051
129054
129057
129061
129065
129069
129072
129074
129078
129082
129087
129093
129099
129105
129109
129112
129114
129061
129062
129062
129064
129066
129069
129074
129079
129084
129088
129092
129096
129100
129104
129109
129114
129118
129122
129124
129126
129072
129072
129073
129074
129076
129079
129084
129089
129095
129100
129105
129109
129113
129117
129121
129125
129128
129131
129134
129135
129081
129081
129082
129083
129084
129087
129090
129096
129102
129108
129114
129119
129123
129127
129130
129133
129135
129138
129140
129140
129088
129088
129089
129090
129091
129093
129096
129100
129105
129111
129118
129124
129129
129132
129135
129137
129139
129140
129141
129141
129094
129094
129094
129095
129096
129098
129100
129103
129107
129112
129118
129124
129129
129133
129135
129137
129138
129138
129138
129138
129098
129098
129099
129100
129101
129102
129104
129106
129108
129112
129116
129120
129125
129129
129131
129132
129133
129132
129131
129131
129102
129102
129103
129103
129104
129105
129107
129108
129110
129112
129114
129117
129120
129123
129125
129126
129126
129125
129125
129126
129105
129105
129106
129106
129107
129108
129109
129110
129112
129113
129114
129116
129118
129119
129121
129122
129122
129122
129122
129123
129108
129108
129108
129109
129109
129110
129111
129112
129113
129114
129115
129116
129117
129118
129119
129120
129120
129121
129121
129122
129110
129110
129110
129110
129111
129112
129113
129113
129114
129115
129116
129117
129118
129119
129119
129120
129120
129121
129121
129121
129111
129111
129112
129112
129113
129113
129114
129115
129115
129116
129117
129118
129118
129119
129119
129120
129120
129121
129121
129121
129113
129113
129113
129113
129114
129114
129115
129115
129116
129117
129117
129118
129119
129119
129120
129120
129120
129121
129121
129121
129114
129114
129114
129114
129115
129115
129116
129116
129117
129117
129118
129118
129119
129119
129120
129120
129120
129121
129121
129121
129115
129115
129115
129115
129116
129116
129116
129117
129117
129118
129118
129119
129119
129120
129120
129120
129120
129121
129121
129121
129116
129116
129116
129116
129116
129117
129117
129118
129118
129118
129119
129119
129119
129120
129120
129120
129121
129121
129121
129122
129117
129117
129117
129117
129117
129117
129118
129118
129118
129119
129119
129119
129120
129120
129120
129120
129121
129121
129121
129122
129117
129117
129117
129117
129118
129118
129118
129119
129119
129119
129119
129120
129120
129120
129120
129121
129121
129121
129121
129122
129118
129118
129118
129118
129118
129119
129119
129119
129119
129120
129120
129120
129120
129120
129121
129121
129121
129121
129122
129122
129119
129118
129118
129119
129119
129119
129119
129119
129120
129120
129120
129120
129121
129121
129121
129121
129121
129121
129122
129122
129119
129119
129119
129119
129119
129119
129120
129120
129120
129120
129120
129121
129121
129121
129121
129121
129121
129122
129122
129122
129120
129119
129119
129119
129120
129120
129120
129120
129120
129121
129121
129121
129121
129121
129121
129121
129122
129122
129122
129123
129120
129120
129120
129120
129120
129120
129120
129121
129121
129121
129121
129121
129121
129121
129122
129122
129122
129122
129122
129123
129121
129120
129120
129120
129120
129121
129121
129121
129121
129121
129121
129122
129122
129122
129122
129122
129122
129122
129123
129123
129121
129121
129121
129121
129121
129121
129121
129121
129121
129122
129122
129122
129122
129122
129122
129122
129122
129123
129123
129123
129121
129121
129121
129121
129121
129121
129121
129122
129122
129122
129122
129122
129122
129122
129122
129123
129123
129123
129123
129124
129122
129121
129121
129121
129122
129122
129122
129122
129122
129122
129122
129122
129122
129123
129123
129123
129123
129123
129123
129124
129122
129122
129122
129122
129122
129122
129122
129122
129122
129122
129123
129123
129123
129123
129123
129123
129123
129123
129124
129124
129123
129122
129122
129122
129122
129122
129122
129123
129123
129123
129123
129123
129123
129123
129123
129123
129123
129124
129124
129125
129123
129123
129122
129123
129123
129123
129123
129123
129123
129123
129123
129123
129123
129123
129124
129124
129124
129124
129124
129125
129123
129123
129123
129123
129123
129123
129123
129123
129123
129123
129123
129124
129124
129124
129124
129124