/*--------------------------------*- C++ -*----------------------------------*\
  =========                 |
  \\      /  F ield         | OpenFOAM: The Open Source CFD Toolbox
   \\    /   O peration     | Website:  https://openfoam.org
    \\  /    A nd           | Version:  8
     \\/     M anipulation  |
\*---------------------------------------------------------------------------*/
FoamFile
{
    version     2.0;
    format      ascii;
    class       surfaceScalarField;
    location    "200";
    object      phi;
}
// * * * * * * * * * * * * * * * * * * * * * * * * * * * * * * * * * * * * * //

dimensions      [1 0 -1 0 0 0 0];

internalField   nonuniform List<scalar> 
16360
(
-1.43538
-0.0825751
-1.35322
-0.0821519
-1.26991
-0.0833574
-1.17699
-0.0929156
-1.07667
-0.100288
-0.972594
-0.104083
-0.868684
-0.103915
-0.770975
-0.0977134
-0.687941
-0.0830397
-0.628779
-0.0591683
-0.596906
-0.031901
-0.588444
-0.00849371
-0.588605
0.000151419
-0.582461
-0.00612293
-0.560268
-0.022186
-0.518136
-0.0421427
-0.463717
-0.0544573
-0.417738
-0.045987
-0.387761
-0.0299636
-0.37018
-0.0175486
-0.361845
-0.00832563
-0.360111
-0.00176995
-0.362552
0.00242715
-0.367285
0.00472808
-0.372922
0.00563568
-0.378467
0.00556728
-0.383264
0.00480779
-0.386846
0.00358566
-0.388919
0.00208195
-0.389353
0.000439961
-0.388144
-0.00121444
-0.385386
-0.00277067
-0.381252
-0.00415082
-0.375967
-0.00530032
-0.369784
-0.00619139
-0.362964
-0.0068219
-0.355747
-0.00721071
-0.348352
-0.00739144
-0.340957
-0.00740016
-0.333697
-0.00727237
-0.326667
-0.0070423
-0.319932
-0.00674232
-0.313529
-0.00640301
-0.307473
-0.00605204
-0.301755
-0.00571352
-0.296341
-0.00541005
-0.291171
-0.00516513
-0.286167
-0.0049975
-0.281229
-0.00493018
-0.00510255
-0.276119
-0.5895
-0.173597
-0.573545
-0.0981033
-0.555299
-0.101581
-0.536197
-0.112003
-0.520127
-0.116406
-0.509605
-0.114558
-0.502775
-0.110691
-0.498698
-0.101778
-0.498238
-0.0834856
-0.502618
-0.0547398
-0.514329
-0.0201368
-0.532481
0.0096795
-0.545317
0.0129727
-0.544533
-0.00688688
-0.52798
-0.0386956
-0.488831
-0.0812771
-0.430609
-0.112705
-0.387562
-0.0890415
-0.365874
-0.0516318
-0.353598
-0.0297991
-0.348867
-0.0129999
-0.34986
-0.000744228
-0.354314
0.00685549
-0.360498
0.0108778
-0.367118
0.0122738
-0.373324
0.0117958
-0.378522
0.0100085
-0.382297
0.00735715
-0.384408
0.00419266
-0.384766
0.000797931
-0.383407
-0.00258327
-0.380466
-0.00573562
-0.376138
-0.00850112
-0.370672
-0.0107764
-0.364344
-0.0125173
-0.357431
-0.0137325
-0.350185
-0.0144632
-0.342819
-0.0147723
-0.335505
-0.0147333
-0.328373
-0.0144219
-0.321518
-0.013911
-0.314999
-0.0132671
-0.308852
-0.0125484
-0.303091
-0.0118047
-0.297713
-0.0110784
-0.292698
-0.0104091
-0.288013
-0.00983319
-0.283613
-0.00938346
-0.279425
-0.00910808
-0.00911297
-0.275407
0.660882
-0.162593
0.646983
-0.0842325
0.618928
-0.0735508
0.57373
-0.066803
0.511904
-0.0545987
0.430315
-0.0329699
0.321155
-0.00154437
0.188199
0.0311154
0.0463973
0.0582108
-0.101769
0.0934031
-0.234121
0.112221
-0.325845
0.101384
-0.380173
0.06727
-0.395608
0.00854685
-0.385259
-0.049033
-0.364268
-0.102305
-0.332525
-0.144459
-0.323307
-0.0982281
-0.320661
-0.0542737
-0.31512
-0.0353446
-0.31665
-0.0114688
-0.322966
0.00554264
-0.33144
0.0153121
-0.340501
0.0199387
-0.349145
0.0209402
-0.356725
0.019381
-0.362797
0.0160769
-0.367062
0.0116363
-0.369374
0.00652451
-0.369698
0.0011237
-0.368107
-0.00418794
-0.364794
-0.00907225
-0.360012
-0.0132981
-0.354067
-0.0167249
-0.347285
-0.0193001
-0.339972
-0.0210466
-0.332397
-0.0220421
-0.324779
-0.0223967
-0.317289
-0.0222334
-0.310052
-0.0216719
-0.303151
-0.0208226
-0.296638
-0.0197849
-0.290534
-0.0186455
-0.284847
-0.0174778
-0.279565
-0.0163434
-0.274667
-0.0152939
-0.27012
-0.0143717
-0.265888
-0.0136097
-0.261941
-0.01305
-0.0127862
-0.25826
1.78747
-0.0377729
1.72175
-0.0184761
1.65317
-0.00498138
1.58261
0.00375017
1.51039
0.0176264
1.43831
0.0391114
1.36825
0.0685267
1.29357
0.105819
1.20416
0.147638
1.1103
0.187294
1.01715
0.205381
0.920593
0.197968
0.810925
0.17694
0.662194
0.157218
0.454139
0.159015
0.16424
0.187594
-0.113804
0.133538
-0.250323
0.0383234
-0.254664
-0.0498925
-0.259569
-0.0304575
-0.272106
0.00108205
-0.286681
0.0201087
-0.300756
0.0293756
-0.313893
0.0330785
-0.325461
0.0325059
-0.335008
0.0289272
-0.342344
0.0234236
-0.347346
0.0166549
-0.349972
0.00915796
-0.35025
0.00139787
-0.348336
-0.00611389
-0.344511
-0.0129064
-0.339124
-0.018679
-0.332565
-0.0232594
-0.325227
-0.0266065
-0.317467
-0.0287835
-0.309576
-0.0299244
-0.301779
-0.030198
-0.294236
-0.0297848
-0.287062
-0.0288567
-0.28033
-0.0275668
-0.274074
-0.0260483
-0.268306
-0.0244144
-0.263022
-0.0227589
-0.258204
-0.021158
-0.253824
-0.0196729
-0.249843
-0.0183504
-0.246222
-0.0172268
-0.242924
-0.0163396
-0.0157396
-0.239959
1.78754
0.0438483
1.7228
0.0462803
1.66361
0.0542258
1.60383
0.063529
1.54368
0.0778006
1.48348
0.0993054
1.42354
0.128445
1.36472
0.164646
1.3072
0.205147
1.25007
0.244416
1.18238
0.273051
1.09266
0.287694
0.975943
0.293695
0.832957
0.300234
0.676203
0.315768
0.527375
0.336415
0.344457
0.316438
0.0998333
0.282943
-0.109557
0.159554
-0.19557
0.0555741
-0.21892
0.02442
-0.241455
0.0425979
-0.262599
0.050496
-0.281114
0.0515896
-0.296104
0.0474903
-0.307808
0.0406388
-0.316509
0.0321473
-0.322232
0.0223979
-0.325069
0.0120007
-0.325125
0.00145465
-0.322648
-0.0085999
-0.318043
-0.0175186
-0.31179
-0.0249258
-0.304397
-0.0306347
-0.296349
-0.0346377
-0.288055
-0.0370675
-0.279826
-0.03815
-0.271884
-0.0381458
-0.264368
-0.0373089
-0.257362
-0.0358697
-0.250908
-0.0340267
-0.245014
-0.0319454
-0.23967
-0.0297596
-0.234855
-0.0275761
-0.230536
-0.0254787
-0.226679
-0.0235319
-0.223243
-0.0217843
-0.22019
-0.0202721
-0.217495
-0.0190243
-0.0180813
-0.215141
1.43592
0.0998024
1.38033
0.101854
1.33088
0.10366
1.28257
0.111825
1.23564
0.124735
1.19176
0.143185
1.15238
0.167812
1.11844
0.198588
1.08918
0.234416
1.06086
0.272749
1.02481
0.309107
0.972071
0.340429
0.897862
0.367865
0.803113
0.394956
0.694312
0.424571
0.579929
0.450813
0.447596
0.448789
0.309916
0.420644
0.123808
0.345705
-0.049426
0.228833
-0.147356
0.122345
-0.188265
0.0835007
-0.219109
0.0813361
-0.242498
0.0749624
-0.260651
0.0656323
-0.274686
0.0546807
-0.284683
0.0421573
-0.290948
0.0286628
-0.293832
0.0148641
-0.29345
0.00103681
-0.290125
-0.0119606
-0.284428
-0.0232401
-0.277007
-0.0323492
-0.268517
-0.039103
-0.259563
-0.043562
-0.250639
-0.0459768
-0.242089
-0.0467029
-0.234127
-0.0461214
-0.226863
-0.0445867
-0.220338
-0.0424047
-0.214541
-0.0398272
-0.209435
-0.0370518
-0.204965
-0.0342285
-0.201071
-0.0314691
-0.197695
-0.028855
-0.194782
-0.0264443
-0.192284
-0.0242787
-0.19016
-0.0223893
-0.188379
-0.0207965
-0.0195178
-0.186933
1.23927
0.157218
1.18871
0.152415
1.14
0.152389
1.09347
0.158393
1.04884
0.16935
1.0068
0.185239
0.968275
0.206334
0.934254
0.23261
0.904963
0.263695
0.878877
0.298817
0.851538
0.336442
0.816919
0.37506
0.770365
0.414436
0.710427
0.454907
0.638956
0.496061
0.558638
0.531147
0.465124
0.542317
0.359588
0.526201
0.232518
0.472792
0.0830531
0.37829
-0.0549663
0.260348
-0.133315
0.16184
-0.17261
0.120612
-0.201085
0.103422
-0.222196
0.0867438
-0.237171
0.0696661
-0.247277
0.0522673
-0.253926
0.0352915
-0.256964
0.017865
-0.255954
-1.12535e-05
-0.251525
-0.0164109
-0.244442
-0.0303254
-0.235514
-0.041272
-0.22557
-0.049038
-0.215358
-0.0537664
-0.20546
-0.0558814
-0.196265
-0.05592
-0.187998
-0.0544145
-0.180766
-0.05184
-0.174587
-0.0485963
-0.169416
-0.045002
-0.165168
-0.0412985
-0.161732
-0.0376598
-0.158992
-0.0342046
-0.156837
-0.0310071
-0.155169
-0.0281093
-0.15391
-0.0255335
-0.153
-0.0232941
-0.152392
-0.0213984
-0.0198455
-0.15206
1.01695
0.203541
0.972844
0.196547
0.931333
0.193922
0.89242
0.197304
0.856092
0.205635
0.822391
0.218939
0.791353
0.237376
0.763137
0.260834
0.737783
0.289057
0.714797
0.321817
0.692429
0.358805
0.667733
0.399744
0.637648
0.444523
0.600182
0.492378
0.555068
0.541182
0.502488
0.583752
0.439523
0.605308
0.365557
0.600181
0.277533
0.560815
0.170095
0.485718
0.0480747
0.382358
-0.0589455
0.268836
-0.124208
0.185851
-0.158217
0.13743
-0.181457
0.109998
-0.19706
0.0852787
-0.206947
0.0621469
-0.212863
0.041184
-0.215348
0.0203118
-0.213559
-0.00182921
-0.208022
-0.0219507
-0.199512
-0.0388239
-0.189097
-0.0516775
-0.177828
-0.0603041
-0.166525
-0.0650725
-0.155756
-0.0666641
-0.145878
-0.0658193
-0.137094
-0.063217
-0.12951
-0.0594365
-0.123162
-0.0549503
-0.118035
-0.0501293
-0.114073
-0.0452572
-0.111184
-0.0405448
-0.109245
-0.0361403
-0.108113
-0.0321363
-0.107644
-0.0285768
-0.107705
-0.0254712
-0.108183
-0.0228143
-0.108978
-0.0206016
-0.0188128
-0.11001
0.786198
0.246705
0.748663
0.234098
0.714432
0.228122
0.683572
0.22814
0.655945
0.233265
0.631066
0.243825
0.608556
0.259886
0.588254
0.28114
0.570032
0.307286
0.553605
0.33826
0.538221
0.374198
0.522517
0.41545
0.504772
0.462253
0.483498
0.513642
0.45802
0.56667
0.427865
0.613927
0.390691
0.642486
0.345062
0.6458
0.288073
0.617799
0.21633
0.55746
0.12967
0.469012
0.0350841
0.363415
-0.0461447
0.267083
-0.0995809
0.190882
-0.131741
0.14217
-0.149379
0.102909
-0.157894
0.0706399
-0.162203
0.0454554
-0.165364
0.0234175
-0.163594
-0.00363084
-0.156904
-0.0286475
-0.147151
-0.0485702
-0.135911
-0.0629154
-0.124373
-0.0718516
-0.11323
-0.0762351
-0.102867
-0.0770494
-0.0934832
-0.0752221
-0.0851551
-0.0715534
-0.0778943
-0.0666953
-0.0716826
-0.0611533
-0.0664959
-0.0553057
-0.0623148
-0.0494305
-0.0591241
-0.0437325
-0.0569044
-0.0383619
-0.0556194
-0.0334262
-0.0552088
-0.0289934
-0.05559
-0.0250962
-0.056663
-0.0217465
-0.058303
-0.018967
-0.0167787
-0.0603412
0.541618
0.287849
0.512036
0.263696
0.486343
0.253779
0.464926
0.249552
0.447216
0.251016
0.432152
0.258918
0.419192
0.272855
0.408124
0.292201
0.39878
0.316615
0.3909
0.346102
0.384096
0.380972
0.377758
0.421798
0.371059
0.468968
0.363202
0.521509
0.353713
0.576161
0.342116
0.625503
0.326526
0.658062
0.305209
0.667111
0.27559
0.64742
0.235099
0.597948
0.181641
0.522464
0.115969
0.429087
0.0489291
0.334136
-0.00892577
0.248746
-0.0509797
0.184216
-0.0781906
0.13009
-0.0939432
0.086343
-0.100748
0.0522072
-0.103735
0.0263579
-0.100919
-0.00646486
-0.0918262
-0.0377478
-0.0815957
-0.058807
-0.0713517
-0.0731696
-0.0616913
-0.0815322
-0.0528652
-0.0850879
-0.0449761
-0.08496
-0.0380406
-0.0821652
-0.0320201
-0.0775654
-0.026848
-0.0718455
-0.0224499
-0.0655229
-0.0187541
-0.0589751
-0.0156941
-0.0524739
-0.0132085
-0.0462143
-0.0112426
-0.0403351
-0.00975475
-0.0349285
-0.00872462
-0.0300412
-0.00816221
-0.0256772
-0.00811069
-0.0218157
-0.008648
-0.0184454
-0.0155607
-0.0098762
0.281479
0.328584
0.263536
0.281561
0.247745
0.269543
0.237917
0.259395
0.231509
0.257428
0.227091
0.263306
0.22442
0.275481
0.2234
0.293187
0.223856
0.316173
0.225522
0.344458
0.228171
0.37835
0.231587
0.418412
0.235535
0.46501
0.239813
0.517199
0.244233
0.571719
0.248603
0.621118
0.251522
0.655151
0.251273
0.667368
0.245557
0.653135
0.231787
0.611714
0.207601
0.546648
0.172434
0.464255
0.130622
0.375949
0.087856
0.29151
0.0523681
0.219696
0.0254731
0.15696
0.00723949
0.104536
-0.00306233
0.0624772
-0.00774189
0.0310246
-0.00982654
-0.00432661
-0.00516004
-0.0423825
0.000789146
-0.0647625
0.00654928
-0.0789503
0.0120148
-0.0870271
0.0170125
-0.0901139
0.0214414
-0.0894054
0.0252872
-0.0860121
0.0285813
-0.0808467
0.0313657
-0.0746087
0.0336792
-0.0678143
0.0355551
-0.0608354
0.0370221
-0.0539357
0.0381033
-0.0472997
0.0388121
-0.0410539
0.0391499
-0.0352793
0.039113
-0.0300186
0.0387047
-0.0252833
0.03794
-0.0210654
0.0368313
-0.0173489
-0.0141113
0.0353728
0.0102669
0.337964
0.0074527
0.284279
0.00663262
0.270411
0.00792198
0.258139
0.0113767
0.253947
0.0172344
0.25744
0.0252385
0.2675
0.0349258
0.283535
0.0458412
0.305298
0.0576115
0.332708
0.0701039
0.365873
0.0834095
0.405107
0.0978407
0.450551
0.113784
0.501243
0.130981
0.554526
0.14982
0.602291
0.169206
0.635775
0.187315
0.649261
0.202093
0.638354
0.210988
0.602817
0.211798
0.545834
0.20337
0.472679
0.187288
0.392028
0.166804
0.311995
0.147184
0.239317
0.129604
0.174535
0.11533
0.118822
0.105573
0.0722603
0.10408
0.0325441
0.104139
-0.00434441
0.101093
-0.0393092
0.0994236
-0.0630888
0.0983147
-0.0778543
0.0971603
-0.0858908
0.0959269
-0.0888952
0.0947098
-0.0881962
0.0935726
-0.0848741
0.0925299
-0.0797949
0.0915671
-0.0736318
0.0906565
-0.0668905
0.0897675
-0.0599384
0.0888697
-0.0530359
0.0879319
-0.0463638
0.0869186
-0.0400438
0.0857892
-0.0341537
0.0845021
-0.0287364
0.08302
-0.0238076
0.081312
-0.0193652
0.0793525
-0.0153966
-0.0118835
0.0771168
-0.247492
0.305347
-0.234702
0.271537
-0.219073
0.254842
-0.205058
0.244119
-0.191367
0.240238
-0.177001
0.243093
-0.16169
0.252218
-0.145321
0.267205
-0.127822
0.28783
-0.109133
0.314017
-0.0890563
0.345805
-0.0672342
0.383303
-0.0430604
0.42638
-0.0156625
0.473864
0.0150155
0.523865
0.0486326
0.568692
0.083276
0.601147
0.117289
0.615248
0.149494
0.60614
0.177335
0.574965
0.198803
0.524357
0.212463
0.459017
0.218569
0.385919
0.218815
0.311743
0.216198
0.241931
0.212116
0.178609
0.208053
0.122895
0.205395
0.0749485
0.204054
0.0338859
0.201474
-0.00176016
0.195067
-0.0328989
0.187424
-0.0554591
0.179743
-0.0701957
0.172442
-0.0786066
0.165695
-0.082155
0.159585
-0.0820825
0.154135
-0.079412
0.149322
-0.0749662
0.145093
-0.0693882
0.141378
-0.0631669
0.138104
-0.0566623
0.135199
-0.0501326
0.132591
-0.0437586
0.130209
-0.0376638
0.127982
-0.0319278
0.12584
-0.0265968
0.123718
-0.0216904
0.121556
-0.0172097
0.119296
-0.0131446
-0.00948166
0.116886
-0.489004
0.263539
-0.460695
0.243281
-0.435319
0.229485
-0.412486
0.221249
-0.390793
0.218517
-0.369305
0.221597
-0.347459
0.230357
-0.324821
0.244576
-0.301047
0.26408
-0.275788
0.28877
-0.248544
0.318581
-0.218628
0.353416
-0.185142
0.392911
-0.147207
0.435955
-0.103929
0.480604
-0.0558707
0.520641
-0.00485057
0.550128
0.0453379
0.565051
0.0922499
0.55922
0.135569
0.531637
0.173719
0.486204
0.205106
0.427631
0.229168
0.36186
0.246404
0.294512
0.258239
0.230111
0.265766
0.171089
0.270044
0.118624
0.271962
0.0730602
0.271747
0.0341186
0.268584
0.00140538
0.261393
-0.0257131
0.251927
-0.0460008
0.241586
-0.0598637
0.231213
-0.0682429
0.221285
-0.0722354
0.212065
-0.0728667
0.203678
-0.0710244
0.196164
-0.067446
0.189504
-0.062721
0.183645
-0.0573033
0.178517
-0.0515319
0.17404
-0.0456537
0.17013
-0.0398452
0.1667
-0.0342294
0.163663
-0.0288881
0.160936
-0.0238701
0.15844
-0.0191991
0.156104
-0.0148807
0.153857
-0.0109086
-0.00727263
0.151636
-0.709865
0.219459
-0.674029
0.20745
-0.642529
0.19797
-0.613723
0.192399
-0.586364
0.191153
-0.559439
0.194677
-0.532136
0.203046
-0.503759
0.216209
-0.473722
0.234073
-0.441462
0.256531
-0.406309
0.283447
-0.367458
0.314575
-0.323954
0.349404
-0.274873
0.386872
-0.21935
0.425077
-0.15824
0.459526
-0.0937821
0.485663
-0.0283759
0.499637
0.0337186
0.497125
0.0901646
0.475191
0.141635
0.434734
0.187149
0.382117
0.225466
0.323544
0.256155
0.263829
0.27959
0.206701
0.296403
0.154311
0.307366
0.107681
0.313287
0.0671567
0.314774
0.0326593
0.312214
0.00398743
0.30572
-0.0192158
0.29645
-0.0367419
0.285625
-0.0490564
0.274196
-0.0568299
0.262822
-0.060874
0.251937
-0.0619867
0.241802
-0.0608868
0.232552
-0.0581897
0.224238
-0.0544006
0.216857
-0.0499167
0.210371
-0.0450396
0.204717
-0.0399929
0.199821
-0.0349401
0.195597
-0.0299977
0.191958
-0.0252448
0.188818
-0.0207305
0.186093
-0.0164799
0.183703
-0.0125001
0.181565
-0.00878559
-0.0053252
0.1796
-0.913084
0.175402
-0.874252
0.168606
-0.839148
0.162844
-0.806337
0.15958
-0.774691
0.159542
-0.743187
0.163202
-0.710904
0.170764
-0.676984
0.182293
-0.640658
0.19776
-0.601195
0.217071
-0.55781
0.240057
-0.509668
0.266419
-0.455907
0.295621
-0.395765
0.326712
-0.32873
0.358029
-0.255683
0.386475
-0.178748
0.408727
-0.100644
0.421536
-0.0247891
0.421271
0.0443969
0.405999
0.107151
0.371968
0.164099
0.325165
0.213889
0.273759
0.255246
0.222474
0.2878
0.174136
0.31188
0.130237
0.328222
0.0913658
0.337754
0.0576349
0.341456
0.0289577
0.340253
0.00518522
0.334908
-0.0138791
0.326465
-0.0283067
0.316009
-0.0386082
0.304479
-0.0453071
0.29261
-0.0490101
0.280936
-0.0503141
0.269819
-0.0497686
0.259487
-0.0478553
0.250066
-0.0449774
0.241612
-0.0414585
0.234128
-0.0375491
0.227583
-0.0334391
0.221924
-0.0292703
0.21708
-0.0251453
0.212975
-0.0211348
0.209526
-0.017283
0.20665
-0.0136115
0.20426
-0.0101242
0.20227
-0.00681274
-0.00365702
0.20058
-1.09927
0.132321
-1.05924
0.128571
-1.02172
0.125313
-0.98576
0.123645
-0.950417
0.124241
-0.91472
0.127527
-0.877713
0.133748
-0.838455
0.143021
-0.796063
0.155358
-0.74969
0.170684
-0.698485
0.188837
-0.64162
0.209535
-0.578329
0.23231
-0.508019
0.25639
-0.430484
0.280495
-0.346605
0.302603
-0.258345
0.320475
-0.168547
0.331744
-0.0809605
0.333684
0.00103272
0.324006
0.0743014
0.298693
0.141051
0.258405
0.20035
0.21445
0.250141
0.172689
0.289681
0.134618
0.319213
0.10072
0.33964
0.0709583
0.352136
0.0451605
0.357946
0.0231673
0.358255
0.00488277
0.354105
-0.00973662
0.346569
-0.0207877
0.33668
-0.0287394
0.32536
-0.0340051
0.31337
-0.0370334
0.301301
-0.0382515
0.289586
-0.0380529
0.278521
-0.0367862
0.268297
-0.0347468
0.259024
-0.0321753
0.250749
-0.0292612
0.243476
-0.0261513
0.237177
-0.022957
0.231802
-0.01976
0.227288
-0.0166165
0.223563
-0.0135607
0.22055
-0.0106074
0.218161
-0.00775329
0.216303
-0.00497698
-0.00223978
0.214859
-1.26653
0.0889283
-1.2252
0.0872366
-1.18546
0.0855777
-1.14663
0.0848319
-1.10789
0.0855101
-1.06833
0.0879539
-1.02698
0.0923767
-0.982855
0.0988861
-0.935006
0.107502
-0.882507
0.118174
-0.824465
0.13078
-0.760056
0.145111
-0.688578
0.160822
-0.609561
0.17737
-0.522974
0.193914
-0.429628
0.209268
-0.331258
0.222116
-0.230579
0.231074
-0.131456
0.234562
-0.0379405
0.230489
0.0453072
0.215436
0.12293
0.180762
0.190419
0.146945
0.246462
0.116634
0.290662
0.0904124
0.323657
0.067731
0.346673
0.0479457
0.361127
0.0307077
0.368431
0.015863
0.369876
0.0034332
0.366637
-0.00650921
0.35983
-0.0139975
0.350432
-0.0193605
0.339343
-0.0229342
0.327331
-0.0250351
0.315013
-0.0259413
0.302861
-0.025904
0.291223
-0.0251455
0.280338
-0.0238549
0.270362
-0.0221873
0.261382
-0.0202665
0.253437
-0.0181897
0.246527
-0.0160322
0.240627
-0.0138498
0.235695
-0.0116806
0.231676
-0.00954619
0.228508
-0.00745161
0.226118
-0.00538384
0.22442
-0.00330587
-0.00114469
0.223295
-1.40987
0.0453761
-1.36712
0.0444821
-1.32526
0.0437087
-1.28384
0.0434161
-1.24217
0.0438361
-1.19936
0.0451409
-1.15444
0.0474506
-1.10639
0.0508321
-1.05419
0.055304
-0.996856
0.0608411
-0.933446
0.0673744
-0.863118
0.0747872
-0.785193
0.0829005
-0.699251
0.0914377
-0.605311
0.0999916
-0.504053
0.108031
-0.396922
0.115002
-0.286262
0.120424
-0.175689
0.123993
-0.0704028
0.125194
0.0279064
0.1171
0.117687
0.0909451
0.190487
0.0741169
0.2495
0.0576136
0.295548
0.0443629
0.329818
0.0334591
0.353811
0.0239491
0.369034
0.0154785
0.376897
0.0079891
0.378691
0.00162289
0.375628
-0.00346622
0.368862
-0.00725353
0.359412
-0.00993166
0.348174
-0.0117129
0.335901
-0.0127735
0.323204
-0.0132506
0.310564
-0.0132637
0.298342
-0.0129184
0.286802
-0.0123045
0.276124
-0.0114957
0.266426
-0.0105511
0.257772
-0.00951837
0.250189
-0.00843479
0.243677
-0.00732845
0.238217
-0.00621821
0.233778
-0.00511326
0.230322
-0.00401106
0.227807
-0.00289199
0.226177
-0.00170529
-0.000338096
0.225337
-1.52394
-1.47945
-1.43573
-1.39231
-1.34848
-1.30335
-1.2559
-1.20506
-1.14974
-1.0889
-1.02152
-0.946731
-0.863824
-0.772381
-0.672385
-0.564352
-0.449348
-0.328925
-0.204945
-0.0797746
0.0372929
0.128198
0.202285
0.259885
0.304244
0.337704
0.361656
0.377135
0.38512
0.386732
0.383253
0.375986
0.366043
0.354322
0.341544
0.328293
0.315032
0.302119
0.289822
0.278336
0.267794
0.258284
0.249855
0.242528
0.236306
0.231185
0.227162
0.224253
0.22253
0.222174
0.00812672
-0.00016863
0.00818584
-5.54643e-05
0.00822707
-3.71926e-05
0.00824512
-1.43225e-05
0.00824849
2.63708e-07
0.0082445
7.60458e-06
0.00823673
1.13564e-05
0.00822682
1.34608e-05
0.0082157
1.4626e-05
0.00820396
1.51933e-05
0.00819194
1.54191e-05
0.00817981
1.54814e-05
0.00816764
1.54746e-05
0.00815545
1.54342e-05
0.00814328
1.53604e-05
0.00813119
1.52277e-05
0.0081193
1.49831e-05
0.0081078
1.45445e-05
0.00809689
1.39017e-05
0.00808626
1.35738e-05
0.008075
1.41391e-05
0.00806257
1.5238e-05
0.00804987
1.54998e-05
0.00803725
1.53869e-05
0.00802477
1.51828e-05
0.00801215
1.52574e-05
0.0079996
1.51424e-05
0.00798741
1.47461e-05
0.00797574
1.419e-05
0.00796471
1.35169e-05
0.0079544
1.27629e-05
0.00794486
1.19544e-05
0.00793614
1.11012e-05
0.0079283
1.01997e-05
0.0079214
9.23739e-06
0.00791551
8.19601e-06
0.00791074
7.05334e-06
0.00790722
5.77985e-06
0.00790512
4.33987e-06
0.00790465
2.69737e-06
0.00790605
8.01613e-07
0.00790965
-1.42646e-06
0.00791589
-4.08662e-06
0.00792533
-7.33635e-06
0.00793883
-1.1448e-05
0.00795759
-1.67841e-05
0.0079832
-2.36984e-05
0.00801766
-3.25753e-05
0.00806432
-4.46539e-05
-6.47206e-05
0.0081313
0.00788222
-8.9125e-05
0.00787379
-4.00325e-05
0.00785352
-9.99265e-06
0.00784618
-3.16226e-07
0.00784628
6.73161e-06
0.00784991
1.04743e-05
0.00785601
1.16771e-05
0.00786397
1.18433e-05
0.00787312
1.17291e-05
0.00788293
1.15461e-05
0.00789304
1.13644e-05
0.00790324
1.12386e-05
0.00791337
1.11999e-05
0.00792332
1.12407e-05
0.00793302
1.13119e-05
0.0079425
1.13188e-05
0.00795187
1.10851e-05
0.00796158
1.02115e-05
0.00797208
8.69495e-06
0.00798136
9.46375e-06
0.00799009
1.03948e-05
0.00799856
1.169e-05
0.00800558
1.33784e-05
0.00801079
1.4982e-05
0.00801501
1.56225e-05
0.00801932
1.54982e-05
0.00802392
1.50176e-05
0.00802884
1.42422e-05
0.00803408
1.3291e-05
0.00803964
1.22327e-05
0.00804552
1.11101e-05
0.0080517
9.93233e-06
0.00805823
8.68454e-06
0.00806516
7.33814e-06
0.00807256
5.85562e-06
0.00808054
4.19271e-06
0.00808923
2.30812e-06
0.00809877
1.47673e-07
0.00810933
-2.3555e-06
0.00812113
-5.27212e-06
0.0081344
-8.68978e-06
0.00814942
-1.27202e-05
0.0081665
-1.75176e-05
0.00818601
-2.3279e-05
0.00820833
-3.02968e-05
0.00823399
-3.90859e-05
0.00826395
-5.04983e-05
0.00829989
-6.57086e-05
0.00834345
-8.60686e-05
-0.000113605
0.00839368
0.0078915
-1.95831e-05
0.00787507
-1.75066e-05
0.0078773
-6.0861e-06
0.0078839
-1.04634e-06
0.00789477
1.6759e-06
0.00790734
3.65842e-06
0.00792008
4.61266e-06
0.00793261
4.90622e-06
0.00794482
5.03328e-06
0.00795658
5.19894e-06
0.00796784
5.4345e-06
0.00797858
5.73859e-06
0.0079888
6.11046e-06
0.00799856
6.53581e-06
0.00800785
6.97278e-06
0.00801669
7.35014e-06
0.00802499
7.57109e-06
0.00803237
7.52267e-06
0.00803819
7.46415e-06
0.00804395
8.10887e-06
0.00804933
9.24191e-06
0.00805514
1.00771e-05
0.00806122
1.1423e-05
0.00806758
1.26526e-05
0.00807365
1.34721e-05
0.0080796
1.33964e-05
0.00808553
1.28819e-05
0.00809144
1.20703e-05
0.00809737
1.10349e-05
0.00810341
9.81744e-06
0.00810963
8.45027e-06
0.00811614
6.9407e-06
0.00812302
5.27417e-06
0.00813037
3.41964e-06
0.00813827
1.34061e-06
0.00814682
-1.00435e-06
0.00815612
-3.67258e-06
0.00816628
-6.72599e-06
0.00817742
-1.02498e-05
0.00818973
-1.43623e-05
0.00820342
-1.92058e-05
0.00821877
-2.49561e-05
0.00823614
-3.18359e-05
0.00825593
-4.01033e-05
0.00827857
-5.00573e-05
0.00830446
-6.21173e-05
0.0083339
-7.70152e-05
0.00836719
-9.59466e-05
0.00840434
-0.000120241
-0.000150962
0.00844375
0.00795285
-1.14565e-05
0.00795503
-1.37103e-05
0.00796212
-7.19723e-06
0.00796881
-2.00159e-06
0.00797514
1.01575e-06
0.00798143
2.97237e-06
0.00798758
4.0043e-06
0.00799368
4.27805e-06
0.00799989
4.20131e-06
0.0080063
4.09278e-06
0.00801286
4.08735e-06
0.00801951
4.21423e-06
0.00802618
4.46789e-06
0.00803283
4.83081e-06
0.0080394
5.26425e-06
0.00804581
5.71508e-06
0.00805194
6.13147e-06
0.00805757
6.50058e-06
0.00806241
7.10255e-06
0.00806682
7.96814e-06
0.00807159
8.58496e-06
0.00807646
9.26627e-06
0.00808181
1.00597e-05
0.00808764
1.074e-05
0.00809383
1.11347e-05
0.00809999
1.10395e-05
0.00810608
1.05305e-05
0.00811214
9.69378e-06
0.00811822
8.57555e-06
0.00812441
7.20159e-06
0.00813078
5.59382e-06
0.00813744
3.75589e-06
0.00814445
1.68316e-06
0.0081519
-6.44553e-07
0.00815984
-3.26034e-06
0.00816836
-6.20789e-06
0.00817753
-9.56554e-06
0.00818749
-1.34305e-05
0.00819836
-1.79079e-05
0.0082103
-2.31254e-05
0.00822346
-2.92382e-05
0.00823803
-3.64418e-05
0.00825422
-4.49937e-05
0.00827227
-5.52199e-05
0.0082925
-6.74933e-05
0.00831523
-8.22163e-05
0.00834062
-9.99175e-05
0.00836867
-0.000121491
0.00839922
-0.00014808
-0.000180245
0.00843082
0.007954
-4.50509e-06
0.00795106
-4.81797e-06
0.00795094
-1.11973e-06
0.00795274
1.90225e-06
0.00795631
3.09913e-06
0.00796163
3.24051e-06
0.00796832
2.84327e-06
0.00797594
2.11621e-06
0.0079842
1.31065e-06
0.00799291
6.68762e-07
0.00800188
3.17427e-07
0.00801093
2.77417e-07
0.00801991
5.14049e-07
0.00802871
9.68295e-07
0.00803725
1.57446e-06
0.00804545
2.2711e-06
0.00805327
2.99687e-06
0.00806068
3.68633e-06
0.00806788
4.36559e-06
0.0080747
5.40006e-06
0.00808127
6.12586e-06
0.00808782
6.76315e-06
0.00809445
7.40607e-06
0.00810117
7.9361e-06
0.00810794
8.22339e-06
0.00811463
8.14931e-06
0.0081212
7.69635e-06
0.00812769
6.88942e-06
0.00813413
5.75202e-06
0.0081406
4.30041e-06
0.00814716
2.5459e-06
0.00815389
4.95057e-07
0.00816084
-1.85408e-06
0.0081681
-4.51893e-06
0.00817572
-7.53897e-06
0.0081838
-1.09842e-05
0.00819245
-1.49377e-05
0.00820177
-1.95032e-05
0.00821187
-2.48028e-05
0.00822289
-3.09799e-05
0.00823497
-3.82012e-05
0.00824827
-4.6662e-05
0.0082629
-5.66046e-05
0.00827902
-6.83461e-05
0.00829674
-8.22853e-05
0.00831621
-9.88629e-05
0.00833742
-0.000118536
0.00836023
-0.000141899
0.00838447
-0.000169846
-0.000202758
0.00840934
0.00795846
-2.01981e-06
0.00796102
-1.42659e-06
0.0079652
6.62226e-07
0.00797076
2.06303e-06
0.00797726
2.24832e-06
0.00798449
1.59965e-06
0.00799225
6.10774e-07
0.00800027
-4.5998e-07
0.00800839
-1.43726e-06
0.0080165
-2.16326e-06
0.00802455
-2.53823e-06
0.00803247
-2.53681e-06
0.0080402
-2.19163e-06
0.00804767
-1.57268e-06
0.00805484
-7.57015e-07
0.00806168
1.86639e-07
0.00806815
1.20506e-06
0.00807415
2.27193e-06
0.00807951
3.46182e-06
0.00808451
4.66236e-06
0.00808964
5.10514e-06
0.00809495
5.49067e-06
0.00810047
5.86605e-06
0.00810617
6.16058e-06
0.00811198
6.26163e-06
0.00811786
6.06962e-06
0.00812376
5.53531e-06
0.00812968
4.64591e-06
0.00813566
3.40245e-06
0.00814171
1.81128e-06
0.00814789
-1.16766e-07
0.00815423
-2.37319e-06
0.00816077
-4.97187e-06
0.00816758
-7.94616e-06
0.00817473
-1.13466e-05
0.00818231
-1.52423e-05
0.00819037
-1.97204e-05
0.00819901
-2.48876e-05
0.00820829
-3.08721e-05
0.0082183
-3.78281e-05
0.00822916
-4.5938e-05
0.00824097
-5.54104e-05
0.00825384
-6.6481e-05
0.00826785
-7.94325e-05
0.00828307
-9.46249e-05
0.00829952
-0.000112484
0.00831715
-0.000133438
0.00833565
-0.000157921
0.0083548
-0.000186587
-0.000219814
0.00837422
0.00795948
-5.52935e-07
0.00796295
1.04208e-06
0.00796666
2.90653e-06
0.00797082
3.61654e-06
0.00797554
3.16503e-06
0.00798086
1.86326e-06
0.0079868
1.86159e-07
0.00799329
-1.50603e-06
0.0080002
-2.98622e-06
0.00800742
-4.10489e-06
0.00801485
-4.77728e-06
0.0080224
-4.98443e-06
0.00802998
-4.76186e-06
0.00803751
-4.17806e-06
0.00804492
-3.31723e-06
0.00805213
-2.2683e-06
0.00805911
-1.10051e-06
0.00806583
1.44204e-07
0.00807232
1.42635e-06
0.00807887
2.37359e-06
0.00808548
2.61678e-06
0.00809198
3.03426e-06
0.00809848
3.35128e-06
0.00810494
3.62678e-06
0.00811134
3.715e-06
0.00811769
3.52195e-06
0.00812398
2.99163e-06
0.00813021
2.09492e-06
0.00813641
8.23742e-07
0.00814261
-8.18311e-07
0.00814883
-2.82406e-06
0.00815512
-5.19514e-06
0.00816154
-7.95769e-06
0.00816813
-1.11481e-05
0.00817495
-1.48188e-05
0.00818207
-1.90409e-05
0.00818955
-2.39045e-05
0.00819744
-2.95186e-05
0.00820579
-3.60119e-05
0.00821469
-4.35386e-05
0.00822417
-5.22856e-05
0.00823433
-6.24731e-05
0.00824521
-7.43459e-05
0.00825688
-8.81683e-05
0.00826936
-0.000104253
0.00828264
-0.000122986
0.00829666
-0.000144744
0.00831116
-0.000169868
0.00832584
-0.000198812
-0.000232
0.00834037
0.00796015
2.48086e-07
0.00796469
2.45691e-06
0.00796931
4.24848e-06
0.00797422
4.4236e-06
0.00797969
3.34554e-06
0.0079857
1.44311e-06
0.00799222
-8.0557e-07
0.00799916
-2.99644e-06
0.00800641
-4.86201e-06
0.00801384
-6.25071e-06
0.00802136
-7.09535e-06
0.00802888
-7.39524e-06
0.00803633
-7.19944e-06
0.00804367
-6.58818e-06
0.00805086
-5.65523e-06
0.00805784
-4.49141e-06
0.00806459
-3.16037e-06
0.00807092
-1.59404e-06
0.00807673
8.12493e-08
0.00808255
8.4424e-07
0.00808837
9.37661e-07
0.00809413
1.3312e-06
0.00809977
1.70082e-06
0.00810544
1.88872e-06
0.00811115
1.871e-06
0.0081169
1.58677e-06
0.00812265
9.81875e-07
0.00812842
2.13546e-08
0.00813418
-1.30709e-06
0.00813994
-3.00682e-06
0.00814572
-5.0858e-06
0.00815155
-7.56035e-06
0.00815748
-1.04567e-05
0.00816354
-1.38139e-05
0.00816977
-1.76869e-05
0.0081762
-2.21489e-05
0.00818288
-2.72922e-05
0.00818984
-3.32282e-05
0.00819713
-4.00877e-05
0.00820479
-4.80237e-05
0.00821285
-5.72168e-05
0.00822134
-6.78833e-05
0.00823031
-8.02732e-05
0.00823975
-9.46512e-05
0.00824965
-0.000111298
0.00825998
-0.000130555
0.00827069
-0.000152767
0.00828162
-0.000178208
0.00829247
-0.000207186
-0.000240091
0.00830289
0.00796042
7.72507e-07
0.00796541
3.41371e-06
0.00797037
5.24408e-06
0.00797534
5.15673e-06
0.00798064
3.69273e-06
0.00798627
1.39697e-06
0.00799221
-1.23244e-06
0.00799843
-3.7825e-06
0.00800489
-5.96487e-06
0.00801153
-7.61466e-06
0.00801828
-8.66393e-06
0.00802509
-9.11666e-06
0.00803193
-9.02769e-06
0.00803875
-8.48493e-06
0.00804553
-7.59438e-06
0.00805227
-6.47411e-06
0.00805905
-5.27063e-06
0.00806629
-4.23512e-06
0.00807412
-3.27268e-06
0.00808075
-1.45284e-06
0.00808602
-1.73083e-07
0.00809146
-4.98691e-08
0.00809714
1.88739e-08
0.00810293
3.89395e-08
0.00810875
-8.23366e-08
0.00811458
-4.26464e-07
0.00812038
-1.06505e-06
0.00812614
-2.04235e-06
0.00813184
-3.38077e-06
0.0081375
-5.09678e-06
0.00814314
-7.2041e-06
0.00814878
-9.72189e-06
0.00815443
-1.2679e-05
0.00816012
-1.61165e-05
0.00816589
-2.00909e-05
0.00817175
-2.46759e-05
0.00817771
-2.99631e-05
0.00818381
-3.60639e-05
0.00819006
-4.31111e-05
0.00819648
-5.126e-05
0.00820309