/*--------------------------------*- C++ -*----------------------------------*\
  =========                 |
  \\      /  F ield         | OpenFOAM: The Open Source CFD Toolbox
   \\    /   O peration     | Website:  https://openfoam.org
    \\  /    A nd           | Version:  8
     \\/     M anipulation  |
\*---------------------------------------------------------------------------*/
FoamFile
{
    version     2.0;
    format      ascii;
    class       volScalarField;
    location    "200";
    object      T;
}
// * * * * * * * * * * * * * * * * * * * * * * * * * * * * * * * * * * * * * //

dimensions      [0 0 0 1 0 0 0];

internalField   nonuniform List<scalar> 
8400
(
294.968
295.109
295.308
295.486
295.596
295.619
295.541
295.347
295.028
294.598
294.132
293.777
293.571
293.462
293.393
293.327
293.247
293.169
293.12
293.091
293.074
293.064
293.058
293.054
293.05
293.047
293.044
293.042
293.04
293.038
293.037
293.035
293.034
293.033
293.032
293.031
293.031
293.03
293.031
293.031
293.032
293.033
293.035
293.037
293.04
293.043
293.047
293.051
293.056
293.061
297.841
297.775
298.041
298.201
298.268
298.237
298.088
297.79
297.293
296.553
295.595
294.961
294.617
294.437
294.315
294.161
293.897
293.618
293.451
293.347
293.284
293.247
293.222
293.205
293.192
293.183
293.176
293.171
293.168
293.165
293.163
293.161
293.16
293.159
293.159
293.159
293.159
293.161
293.163
293.166
293.17
293.175
293.18
293.187
293.195
293.204
293.215
293.226
293.238
293.251
299.953
299.852
299.737
299.644
299.591
299.573
299.573
299.573
299.569
299.317
296.89
296.152
295.998
295.925
295.912
295.722
294.972
294.355
294.082
293.863
293.717
293.627
293.56
293.51
293.473
293.444
293.421
293.404
293.392
293.383
293.375
293.368
293.363
293.358
293.355
293.354
293.355
293.358
293.364
293.372
293.382
293.394
293.409
293.425
293.444
293.465
293.488
293.513
293.539
293.567
300.004
300.003
300.002
300.002
300.002
300.001
300
299.996
299.984
299.956
299.79
299.635
299.543
299.516
299.489
299.206
296.653
295.296
295.124
294.743
294.548
294.396
294.281
294.193
294.124
294.068
294.023
293.985
293.954
293.928
293.903
293.877
293.852
293.828
293.809
293.794
293.785
293.782
293.785
293.793
293.807
293.825
293.848
293.875
293.906
293.939
293.976
294.014
294.055
294.096
300.001
300.001
300.001
300.001
300.002
300.002
300.002
300.002
300
299.995
299.973
299.936
299.887
299.815
299.69
299.395
298.623
298.138
296.536
295.89
295.682
295.525
295.411
295.323
295.255
295.199
295.15
295.103
295.059
295.015
294.964
294.904
294.838
294.772
294.71
294.655
294.611
294.578
294.557
294.548
294.549
294.56
294.579
294.604
294.635
294.671
294.709
294.749
294.79
294.832
300
299.999
299.999
300
300
300
300.001
300.001
300
299.998
299.991
299.976
299.948
299.893
299.783
299.556
299.14
298.72
298.01
297.284
296.82
296.742
296.699
296.681
296.681
296.683
296.682
296.671
296.648
296.61
296.549
296.466
296.366
296.257
296.144
296.035
295.935
295.849
295.779
295.727
295.691
295.67
295.662
295.664
295.674
295.689
295.707
295.727
295.746
295.763
300
299.999
299.999
300
300
300
300
300
300
299.999
299.995
299.986
299.967
299.927
299.842
299.678
299.416
299.11
298.655
298.158
297.695
297.64
297.773
297.876
297.973
298.06
298.136
298.191
298.218
298.212
298.174
298.11
298.025
297.922
297.806
297.684
297.561
297.444
297.338
297.247
297.172
297.113
297.068
297.036
297.014
296.997
296.983
296.97
296.956
296.937
300
299.999
299.999
299.999
300
300
300
300
300
299.999
299.997
299.991
299.977
299.947
299.884
299.768
299.594
299.379
299.076
298.729
298.364
298.189
298.355
298.587
298.786
298.936
299.05
299.132
299.184
299.201
299.193
299.171
299.135
299.085
299.023
298.95
298.87
298.785
298.7
298.619
298.544
298.478
298.423
298.377
298.341
298.311
298.285
298.26
298.235
298.206
300
299.999
299.999
299.999
300
300
300
300
300
299.999
299.998
299.993
299.983
299.961
299.915
299.832
299.714
299.565
299.363
299.126
298.862
298.664
298.652
298.847
299.085
299.262
299.384
299.458
299.502
299.522
299.531
299.536
299.533
299.524
299.508
299.486
299.456
299.42
299.378
299.333
299.286
299.238
299.193
299.151
299.115
299.086
299.064
299.048
299.036
299.027
300
299.999
299.999
299.999
300
300
300
300
300
299.999
299.998
299.995
299.987
299.97
299.936
299.877
299.794
299.691
299.556
299.397
299.217
299.056
298.977
299.013
299.14
299.299
299.42
299.487
299.528
299.549
299.573
299.592
299.604
299.611
299.612
299.608
299.599
299.585
299.565
299.54
299.511
299.476
299.438
299.397
299.354
299.311
299.269
299.231
299.199
299.177
300
299.999
299.999
299.999
299.999
300
300
300
300
299.999
299.998
299.996
299.989
299.976
299.95
299.907
299.849
299.777
299.686
299.579
299.459
299.344
299.264
299.241
299.273
299.336
299.401
299.448
299.475
299.512
299.565
299.597
299.616
299.627
299.632
299.633
299.629
299.621
299.608
299.59
299.567
299.539
299.507
299.471
299.431
299.388
299.344
299.3
299.256
299.216
300
299.999
299.999
300
300
300
300
300
300
299.999
299.998
299.996
299.99
299.979
299.959
299.926
299.884
299.834
299.771
299.7
299.62
299.54
299.478
299.443
299.439
299.456
299.482
299.508
299.532
299.557
299.588
299.613
299.631
299.642
299.647
299.649
299.646
299.639
299.629
299.614
299.595
299.572
299.545
299.513
299.478
299.44
299.399
299.356
299.313
299.27
300
300
300
300
300
300
300
300
300
299.999
299.998
299.995
299.99
299.98
299.963
299.938
299.907
299.871
299.828
299.779
299.725
299.67
299.625
299.594
299.579
299.579
299.587
299.599
299.614
299.63
299.645
299.658
299.667
299.672
299.674
299.673
299.669
299.662
299.652
299.639
299.622
299.602
299.578
299.551
299.52
299.486
299.45
299.411
299.371
299.33
300.001
300
300
300
300
300
300
300
299.999
299.998
299.997
299.994
299.989
299.98
299.966
299.947
299.923
299.895
299.864
299.83
299.792
299.754
299.721
299.696
299.681
299.674
299.673
299.677
299.683
299.69
299.696
299.7
299.702
299.703
299.701
299.698
299.693
299.685
299.675
299.663
299.648
299.629
299.608
299.584
299.556
299.526
299.494
299.46
299.425
299.389
300.002
300.001
300.001
300.001
300.001
300
300
299.999
299.998
299.997
299.995
299.992
299.987
299.98
299.969
299.954
299.935
299.913
299.888
299.862
299.835
299.808
299.784
299.764
299.749
299.74
299.735
299.734
299.733
299.734
299.735
299.734
299.733
299.73
299.727
299.722
299.715
299.707
299.697
299.685
299.671
299.654
299.634
299.612
299.588
299.562
299.534
299.504
299.474
299.443
300.002
300.001
300.001
300.001
300.001
300
300
299.999
299.998
299.996
299.994
299.991
299.986
299.98
299.971
299.96
299.945
299.927
299.906
299.883
299.862
299.841
299.823
299.807
299.794
299.785
299.778
299.773
299.77
299.767
299.765
299.762
299.758
299.754
299.749
299.743
299.736
299.727
299.717
299.705
299.691
299.675
299.657
299.638
299.616
299.592
299.568
299.542
299.516
299.489
299.999
299.998
299.998
299.998
299.997
299.997
299.996
299.995
299.994
299.992
299.99
299.987
299.983
299.978
299.971
299.962
299.95
299.935
299.918
299.898
299.877
299.861
299.846
299.834
299.823
299.814
299.807
299.801
299.796
299.791
299.787
299.783
299.778
299.773
299.767
299.761
299.753
299.745
299.735
299.723
299.709
299.694
299.678
299.659
299.639
299.618
299.596
299.573
299.55
299.527
299.983
299.983
299.983
299.983
299.983
299.983
299.983
299.982
299.982
299.98
299.978
299.976
299.973
299.968
299.963
299.955
299.946
299.935
299.921
299.905
299.888
299.872
299.86
299.85
299.841
299.833
299.826
299.819
299.814
299.809
299.804
299.799
299.794
299.788
299.782
299.776
299.768
299.759
299.749
299.738
299.725
299.71
299.694
299.677
299.658
299.638
299.618
299.597
299.576
299.555
299.934
299.936
299.939
299.942
299.944
299.946
299.948
299.949
299.95
299.95
299.95
299.948
299.946
299.944
299.94
299.936
299.93
299.923
299.914
299.903
299.891
299.876
299.867
299.859
299.851
299.844
299.838
299.832
299.826
299.821
299.816
299.811
299.805
299.8
299.793
299.786
299.778
299.769
299.759
299.748
299.735
299.72
299.705
299.688
299.67
299.651
299.632
299.612
299.592
299.572
299.81
299.82
299.831
299.842
299.851
299.86
299.868
299.874
299.88
299.884
299.888
299.89
299.892
299.893
299.893
299.893
299.892
299.891
299.889
299.887
299.883
299.873
299.865
299.858
299.851
299.844
299.838
299.831
299.825
299.819
299.813
299.807
299.801
299.794
299.787
299.78
299.771
299.761
299.75
299.737
299.723
299.708
299.691
299.673
299.654
299.634
299.613
299.592
299.57
299.549
303.147
303.142
303.137
303.132
303.127
303.123
303.118
303.113
303.109
303.104
303.099
303.095
303.09
303.086
303.082
303.077
303.073
303.069
303.064
303.06
303.056
303.052
303.048
303.044
303.041
303.038
303.034
303.031
303.028
303.024
303.021
303.018
303.015
303.012
303.009
303.006
303.003
303
302.997
302.994
302.991
302.989
302.986
302.983
302.981
302.978
302.976
302.974
302.973
302.972
303.15
303.15
303.15
303.15
303.15
303.149
303.149
303.149
303.148
303.148
303.148
303.147
303.147
303.146
303.146
303.145
303.144
303.144
303.143
303.143
303.142
303.141
303.14
303.139
303.137
303.136
303.135
303.134
303.132
303.131
303.13
303.129
303.127
303.126
303.125
303.124
303.123
303.121
303.12
303.119
303.118
303.117
303.116
303.115
303.114
303.113
303.112
303.111
303.11
303.109
303.15
303.15
303.15
303.15
303.15
303.15
303.15
303.15
303.15
303.15
303.15
303.15
303.15
303.15
303.15
303.15
303.15
303.15
303.15
303.15
303.149
303.149
303.149
303.149
303.149
303.149
303.148
303.148
303.148
303.147
303.147
303.147
303.147
303.146
303.146
303.146
303.145
303.145
303.144
303.144
303.144
303.143
303.143
303.143
303.142
303.142
303.142
303.141
303.141
303.141
303.15
303.15
303.15
303.15
303.15
303.15
303.15
303.15
303.15
303.15
303.15
303.15
303.15
303.15
303.15
303.15
303.15
303.15
303.15
303.15
303.15
303.15
303.15
303.15
303.15
303.15
303.15
303.15
303.15
303.15
303.15
303.15
303.15
303.15
303.149
303.149
303.149
303.149
303.149
303.149
303.149
303.149
303.149
303.149
303.149
303.149
303.149
303.149
303.148
303.148
303.15
303.15
303.15
303.15
303.15
303.15
303.15
303.15
303.15
303.15
303.15
303.15
303.15
303.15
303.15
303.15
303.15
303.15
303.15
303.15
303.15
303.15
303.15
303.15
303.15
303.15
303.15
303.15
303.15
303.15
303.15
303.15
303.15
303.15
303.15
303.15
303.15
303.15
303.15
303.15
303.15
303.15
303.15
303.15
303.15
303.15
303.15
303.15
303.15
303.15
303.15
303.15
303.15
303.15
303.15
303.15
303.15
303.15
303.15
303.15
303.15
303.15
303.15
303.15
303.15
303.15
303.15
303.15
303.15
303.15
303.15
303.15
303.15
303.15
303.15
303.15
303.15
303.15
303.15
303.15
303.15
303.15
303.15
303.15
303.15
303.15
303.15
303.15
303.15
303.15
303.15
303.15
303.15
303.15
303.15
303.15
303.15
303.15
303.15
303.15
303.15
303.15
303.15
303.15
303.15
303.15
303.15
303.15
303.15
303.15
303.15
303.15
303.15
303.15
303.15
303.15
303.15
303.15
303.15
303.15
303.15
303.15
303.15
303.15
303.15
303.15
303.15
303.15
303.15
303.15
303.15
303.15
303.15
303.15
303.15
303.15
303.15
303.15
303.15
303.15
303.15
303.15
303.15
303.15
303.15
303.15
303.15
303.15
303.15
303.15
303.15
303.15
303.15
303.15
303.15
303.15
303.15
303.15
303.15
303.15
303.15
303.15
303.15
303.15
303.15
303.15
303.15
303.15
303.15
303.15
303.15
303.15
303.15
303.15
303.15
303.15
303.15
303.15
303.15
303.15
303.15
303.15
303.15
303.15
303.15
303.15
303.15
303.15
303.15
303.15
303.15
303.15
303.15
303.15
303.15
303.15
303.15
303.15
303.15
303.15
303.15
303.15
303.15
303.15
303.15
303.15
303.15
303.15
303.15
303.15
303.15
303.15
303.15
303.15
303.15
303.15
303.15
303.15
303.15
303.15
303.15
303.15
303.15
303.15
303.15
303.15
303.15
303.15
303.15
303.15
303.15
303.15
303.15
303.15
303.15
303.15
303.15
303.15
303.15
303.15
303.15
303.15
303.15
303.15
303.15
303.15
303.15
303.15
303.15
303.15
303.15
303.15
303.15
303.15
303.15
303.15
303.15
303.15
303.15
303.15
303.15
303.15
303.15
303.15
303.15
303.15
303.15
303.15
303.15
303.15
303.15
303.15
303.15
303.15
303.15
303.15
303.15
303.15
303.15
303.15
303.15
303.15
303.15
303.15
303.15
303.15
303.15
303.15
303.15
303.15
303.15
303.15
303.15
303.15
303.15
303.15
303.15
303.15
303.15
303.15
303.15
303.15
303.15
303.15
303.15
303.15
303.15
303.15
303.15
303.15
303.15
303.15
303.15
303.15
303.15
303.15
303.15
303.15
303.15
303.15
303.15
303.15
303.15
303.15
303.15
303.15
303.15
303.15
303.15
303.15
303.15
303.15
303.15
303.15
303.15
303.15
303.15
303.15
303.15
303.15
303.15
303.15
303.15
303.15
303.15
303.15
303.15
303.15
303.15
303.15
303.15
303.15
303.15
303.15
303.15
303.15
303.15
303.15
303.15
303.15
303.15
303.15
303.15
303.15
303.15
303.15
303.15
303.15
303.15
303.15
303.15
303.15
303.15
303.15
303.15
303.15
303.15
303.15
303.15
303.15
303.15
303.15
303.15
303.15
303.15
303.15
303.15
303.15
303.15
303.15
303.15
303.15
303.15
303.15
303.15
303.15
303.15
303.15
303.15
303.15
303.15
303.15
303.15
303.15
303.15
303.15
303.15
303.15
303.15
303.15
303.15
303.15
303.15
303.15
303.15
303.15
303.15
303.15
303.15
303.15
303.15
303.15
303.15
303.15
303.15
303.15
303.15
303.15
303.15
303.15
303.15
303.15
303.15
303.15
303.15
303.15
303.15
303.15
303.15
303.15
303.15
303.15
303.15
303.15
303.15
303.15
303.15
303.15
303.15
303.15
303.15
303.15
303.15
303.15
303.15
303.15
303.15
303.15
303.15
303.15
303.15
303.15
303.15
303.15
303.15
303.15
303.15
303.15
303.15
303.15
303.15
303.15
303.15
303.15
303.15
303.15
303.15
303.15
303.15
303.15
303.15
303.15
303.15
303.15
303.15
303.15
303.15
303.15
303.15
303.15
303.15
303.15
303.15
303.15
303.15
303.15
303.15
303.15
303.15
303.15
303.15
303.15
303.15
303.15
303.15
303.15
303.15
303.15
303.15
303.15
303.15
303.15
303.15
303.15
303.15
303.15
303.15
303.15
303.15
303.15
303.15
303.15
303.15
303.15
303.15
303.15
303.15
303.15
303.15
303.15
303.15
303.15
303.15
303.15
303.15
303.15
303.15
303.15
303.15
303.15
303.15
303.15
303.15
303.15
303.15
303.15
303.15
303.15
303.15
303.15
303.15
303.15
303.15
303.15
303.15
303.15
303.15
303.15
303.15
303.15
303.15
303.15
303.15
303.15
303.15
303.15
303.15
303.15
303.15
303.15
303.15
303.15
303.15
303.15
303.15
303.15
303.15
303.15
303.15
303.15
303.15
303.15
303.15
303.15
303.15
303.15
303.15
303.15
303.15
303.15
303.15
303.15
303.15
303.15
303.15
303.15
303.15
303.15
303.149
303.149
303.15
303.15
303.15
303.15
303.15
303.15
303.15
303.15
303.15
303.15
303.15
303.15
303.15
303.15
303.15
303.15
303.15
303.15
303.15
303.15
303.15
303.15
303.15
303.15
303.15
303.15
303.15
303.15
303.15
303.15
303.15
303.15
303.15
303.149
303.149
303.149
303.149
303.149
303.149
303.149
303.149
303.149
303.149
303.148
303.148
303.148
303.148
303.148
303.147
303.147
303.15
303.15
303.15
303.15
303.15
303.15
303.15
303.15
303.15
303.15
303.15
303.15
303.15
303.15
303.15
303.15
303.15
303.15
303.15
303.15
303.149
303.149
303.149
303.149
303.149
303.149
303.148
303.148
303.148
303.147
303.147
303.147
303.146
303.146
303.146
303.145
303.145
303.144
303.144
303.143
303.143
303.142
303.142
303.141
303.14
303.14
303.139
303.138
303.137
303.136
303.15
303.15
303.15
303.15
303.15
303.149
303.149
303.149
303.148
303.148
303.148
303.147
303.147
303.146
303.146
303.145
303.145
303.144
303.143
303.143
303.142
303.141
303.14
303.139
303.138
303.137
303.135
303.134
303.133
303.131
303.13
303.128
303.127
303.126
303.124
303.123
303.121
303.12
303.119
303.117
303.116
303.114
303.113
303.111
303.109
303.108
303.106
303.104
303.102
303.099
303.147
303.142
303.137
303.132
303.127
303.123
303.118
303.113
303.109
303.104
303.099
303.095
303.09
303.086
303.081
303.077
303.073
303.068
303.064
303.06
303.055
303.051
303.048
303.044
303.04
303.037
303.033
303.03
303.027
303.024
303.021
303.018
303.015
303.011
303.008
303.005
303.002
302.999
302.997
302.994
302.991
302.988
302.985
302.982
302.979
302.977
302.974
302.971
302.968
302.965
293.587
293.421
293.229
293.079
292.999
292.981
293
293.031
293.056
293.068
293.066
293.052
293.043
293.044
293.057
293.077
293.099
293.116
293.12
293.055
293.637
293.451
293.243
293.084
293
292.982
293.003
293.035
293.06
293.072
293.071
293.056
293.046
293.047
293.059
293.079
293.1
293.117
293.12
293.053
293.69
293.481
293.257
293.088
293.001
292.984
293.006
293.039
293.065
293.077
293.075
293.06
293.049
293.048
293.06
293.079
293.101
293.117
293.12
293.052
293.746
293.513
293.271
293.092
293.002
292.985
293.009
293.043
293.069
293.081
293.08
293.064
293.052
293.05
293.061
293.08
293.101
293.117
293.12
293.051
293.806
293.546
293.285
293.097
293.003
292.987
293.012
293.047
293.074
293.086
293.084
293.068
293.055
293.052
293.062
293.081
293.102
293.118
293.12
293.05
293.869
293.58
293.3
293.101
293.004
292.988
293.015
293.051
293.078
293.09
293.088
293.072
293.057
293.054
293.063
293.082
293.103
293.118
293.12
293.049
293.935
293.615
293.314
293.105
293.005
292.99
293.018
293.055
293.082
293.094
293.092
293.076
293.06
293.056
293.064
293.082
293.103
293.119
293.12
293.048
294.004
293.651
293.329
293.109
293.006
292.992
293.021
293.059
293.086
293.098
293.096
293.079
293.063
293.058
293.066
293.083
293.104
293.119
293.12
293.047
294.076
293.688
293.343
293.112
293.007
292.993
293.024
293.062
293.09
293.101
293.099
293.083
293.066
293.06
293.067
293.084
293.104
293.119
293.121
293.046
294.151
293.726
293.357
293.115
293.007
292.995
293.027
293.066
293.093
293.104
293.103
293.086
293.069
293.062
293.068
293.085
293.105
293.12
293.121
293.045
294.229
293.763
293.37
293.118
293.008
292.997
293.031
293.07
293.097
293.107
293.106
293.089
293.071
293.064
293.069
293.086
293.106
293.12
293.121
293.045
294.31
293.801
293.383
293.121
293.009
292.999
293.034
293.073
293.1
293.11
293.108
293.092
293.074
293.066
293.071
293.087
293.106
293.121
293.121
293.044
294.393
293.839
293.396
293.123
293.009
293.001
293.037
293.077
293.103
293.112
293.111
293.095
293.077
293.067
293.072
293.088
293.107
293.121
293.121
293.043
294.479
293.877
293.407
293.125
293.01
293.003
293.04
293.08
293.105
293.114
293.113
293.097
293.079
293.069
293.074
293.089
293.108
293.121
293.121
293.043
294.567
293.915
293.418
293.126
293.01
293.005
293.043
293.083
293.108
293.115
293.114
293.1
293.081
293.071
293.075
293.09
293.108
293.122
293.122
293.042
294.657
293.952
293.428
293.127
293.011
293.007
293.046
293.086
293.11
293.116
293.116
293.102
293.083
293.073
293.077
293.091
293.109
293.122
293.122
293.042
294.749
293.989
293.437
293.127
293.011
293.009
293.049
293.089
293.112
293.117
293.117
293.103
293.085
293.075
293.078
293.092
293.11
293.123
293.122
293.041
294.843
294.025
293.445
293.127
293.011
293.011
293.052
293.091
293.113
293.118
293.118
293.105
293.086
293.076
293.079
293.093
293.111
293.123
293.122
293.041
294.938
294.06
293.452
293.126
293.012
293.014
293.055
293.094
293.115
293.119
293.118
293.106
293.088
293.078
293.081
293.094
293.112
293.124
293.123
293.04
295.034
294.094
293.459
293.126
293.012
293.016
293.058
293.096
293.116
293.119
293.118
293.107
293.089
293.079
293.082
293.096
293.112
293.124
293.123
293.04
295.132
294.127
293.464
293.124
293.013
293.018
293.06
293.098
293.117
293.119
293.119
293.107
293.09
293.081
293.084
293.097
293.113
293.125
293.124
293.039
295.23
294.159
293.468
293.123
293.013
293.021
293.063
293.1
293.118
293.119
293.118
293.108
293.091
293.082
293.085
293.098
293.114
293.125
293.124
293.039
295.329
294.19
293.471
293.121
293.014
293.023
293.065
293.102
293.119
293.118
293.117
293.108
293.092
293.083
293.086
293.099
293.115
293.126
293.124
293.038
295.429
294.22
293.474
293.12
293.015
293.026
293.068
293.103
293.119
293.118
293.116
293.108
293.093
293.084
293.088
293.1
293.116
293.127
293.125
293.038
295.529
294.249
293.476
293.118
293.016
293.028
293.07
293.104
293.119
293.118
293.114
293.109
293.094
293.086
293.089
293.102
293.117
293.127
293.125
293.037
295.63
294.277
293.478
293.117
293.016
293.03
293.072
293.106
293.12
293.117
293.113
293.109
293.094
293.087
293.091
293.103
293.118
293.128
293.126
293.037
295.731
294.306
293.48
293.115
293.017
293.033
293.074
293.107
293.12
293.117
293.112
293.109
293.095
293.088
293.092
293.104
293.119
293.128
293.126
293.036
295.833
294.334
293.481
293.114
293.019
293.035
293.076
293.108
293.12
293.117
293.112
293.109
293.096
293.089
293.093
293.105
293.119
293.129
293.126
293.035
295.936
294.363
293.483
293.112
293.02
293.037
293.078
293.109
293.12
293.116
293.111
293.109
293.096
293.09
293.095
293.107
293.12
293.129
293.127
293.035
296.04
294.393
293.485
293.111
293.021
293.039
293.08
293.109
293.12
293.116
293.111
293.109
293.097
293.092
293.096
293.108
293.121
293.13
293.127
293.034
296.146
294.424
293.488
293.111
293.022
293.041
293.081
293.11
293.12
293.116
293.11
293.109
293.098
293.093
293.097
293.109
293.122
293.13
293.127
293.033
296.255
294.457
293.492
293.11
293.023
293.043
293.083
293.111
293.121
293.116
293.11
293.108
293.098
293.094
293.099
293.11
293.123
293.131
293.128
293.032
296.365
294.492
293.498
293.111
293.025
293.045
293.085
293.112
293.121
293.115
293.109
293.108
293.099
293.095
293.1
293.111
293.124
293.131
293.128
293.032
296.478
294.53
293.505
293.112
293.026
293.047
293.086
293.112
293.121
293.115
293.109
293.108
293.099
293.096
293.102
293.113
293.125
293.132
293.128
293.031
296.594
294.571
293.515
293.114
293.028
293.049
293.087
293.113
293.121
293.115
293.109
293.108
293.1
293.098
293.103
293.114
293.125
293.132
293.128
293.03
296.714
294.617
293.527
293.117
293.03
293.051
293.088
293.114
293.121
293.115
293.109
293.107
293.101
293.099
293.104
293.115
293.126
293.133
293.128
293.029
296.837
294.667
293.541
293.121
293.032
293.053
293.09
293.114
293.121
293.115
293.108
293.107
293.102
293.1
293.106
293.116
293.127
293.133
293.128
293.028
296.965
294.722
293.56
293.127
293.035
293.054
293.091
293.115
293.122
293.116
293.108
293.107
293.102
293.102
293.107
293.117
293.128
293.134
293.128
293.027
297.098
294.784
293.581
293.134
293.038
293.056
293.091
293.115
293.122
293.116
293.109
293.107
293.103
293.103
293.109
293.119
293.128
293.134
293.128
293.025
297.235
294.851
293.607
293.142
293.041
293.058
293.092
293.116
293.122
293.116
293.109
293.107
293.104
293.104
293.11
293.12
293.129
293.135
293.128
293.024
297.377
294.926
293.637
293.152
293.044
293.059
293.093
293.116
293.123
293.117
293.109
293.108
293.105
293.106
293.112
293.121
293.13
293.135
293.127
293.023
297.524
295.007
293.671
293.164
293.048
293.061
293.094
293.116
293.123
293.118
293.11
293.108
293.107
293.108
293.113
293.122
293.131
293.135
293.127
293.022
297.676
295.097
293.711
293.178
293.052
293.062
293.094
293.116
293.123
293.118
293.111
293.109
293.108
293.109
293.115
293.123
293.131
293.135
293.126
293.02
297.833
295.194
293.755
293.194
293.057
293.063
293.095
293.117
293.124
293.119
293.112
293.11
293.109
293.111
293.116
293.124
293.132
293.136
293.126
293.019
297.994
295.299
293.805
293.212
293.063
293.065
293.095
293.117
293.124
293.12
293.113
293.111
293.11
293.112
293.118
293.126
293.132
293.136
293.125
293.017
298.16
295.412
293.861
293.233
293.068
293.066
293.096
293.117
293.124
293.121
293.114
293.112
293.112
293.114
293.119
293.127
293.133
293.136
293.124
293.015
298.33
295.533
293.922
293.256
293.075
293.068
293.096
293.117
293.125
293.122
293.116
293.114
293.113
293.116
293.121
293.128
293.134
293.136
293.123
293.014
298.504
295.663
293.989
293.281
293.082
293.069
293.096
293.117
293.125
293.123
293.117
293.115
293.115
293.117
293.122
293.129
293.134
293.136
293.122
293.012
298.681
295.8
294.062
293.31
293.09
293.07
293.096
293.117
293.126
293.124
293.119
293.117
293.117
293.119
293.124
293.129
293.134
293.135
293.12
293.01
298.86
295.945
294.141
293.341
293.099
293.072
293.096
293.117
293.126
293.125
293.12
293.118
293.118
293.121
293.125
293.13
293.135
293.135
293.119
293.008
299.04
296.097
294.227
293.376
293.109
293.073
293.095
293.117
293.126
293.126
293.122
293.12
293.12
293.122
293.126
293.131
293.135
293.135
293.117
293.006
299.222
296.257
294.32
293.414
293.12
293.075
293.095
293.116
293.126
293.127
293.124
293.122
293.122
293.124
293.127
293.132
293.135
293.134
293.115
293.004
299.405
296.425
294.419
293.456
293.132
293.077
293.094
293.116
293.126
293.128
293.125
293.123
293.123
293.125
293.128
293.132
293.135
293.133
293.113
293.001
299.588
296.599
294.527
293.503
293.146
293.079
293.093
293.115
293.126
293.128
293.126
293.125
293.125
293.127
293.13
293.133
293.135
293.133
293.111
292.999
299.77
296.781
294.643
293.555
293.162
293.081
293.093
293.114
293.126
293.129
293.128
293.126
293.126
293.128
293.13
293.133
293.135
293.131
293.108
292.997
299.952
296.97
294.767
293.612
293.18
293.083
293.091
293.113
293.126
293.13
293.129
293.128
293.128
293.129
293.131
293.134
293.135
293.13
293.105
292.994
300.133
297.168
294.902
293.676
293.2
293.087
293.09
293.111
293.125
293.13
293.13
293.129
293.129
293.13
293.132
293.134
293.134
293.128
293.102
292.991
300.313
297.373
295.047
293.748
293.225
293.091
293.089
293.11
293.124
293.13
293.131
293.13
293.13
293.131
293.133
293.134
293.133
293.127
293.098
292.988
300.491
297.587
295.205
293.829
293.253
293.096
293.087
293.108
293.123
293.13
293.131
293.131
293.131
293.132
293.133
293.134
293.132
293.124
293.095
292.985
300.668
297.811
295.377
293.921
293.287
293.102
293.086
293.105
293.121
293.129
293.131
293.131
293.132
293.132
293.133
293.133
293.131
293.122
293.09
292.982
300.844
298.045
295.565
294.025
293.327
293.111
293.084
293.102
293.119
293.128
293.131
293.132
293.132
293.132
293.133
293.132
293.129
293.119
293.086
292.979
301.018
298.291
295.772
294.145
293.375
293.122
293.083
293.099
293.116
293.127
293.131
293.132
293.132
293.132
293.132
293.131
293.127
293.115
293.081
292.975
301.192
298.55
296
294.284
293.434
293.137
293.082
293.095
293.113
293.125
293.13
293.131
293.131
293.131
293.131
293.129
293.124
293.111
293.075
292.972
301.364
298.823
296.253
294.446
293.507
293.157
293.081
293.09
293.109
293.122
293.128
293.13
293.13
293.13
293.129
293.127
293.121
293.106
293.069
292.968
301.534
299.111
296.534
294.634
293.596
293.184
293.083
293.085
293.104
293.118
293.125
293.128
293.128
293.128
293.127
293.124
293.117
293.101
293.063
292.963
301.703
299.414
296.847
294.857
293.709
293.221
293.086
293.079
293.098
293.113
293.122
293.125
293.126
293.126
293.124
293.12
293.112
293.095
293.056
292.959
301.868
299.734
297.196
295.119
293.85
293.273
293.094
293.074
293.091
293.107
293.117
293.121
293.122
293.122
293.12
293.116
293.106
293.088
293.048
292.954
302.03
300.068
297.584
295.428
294.028
293.344
293.109
293.069
293.082
293.1
293.111
293.116
293.118
293.117
293.115
293.11
293.1
293.08
293.04
292.949
302.187
300.416
298.015
295.795
294.254
293.443
293.134
293.065
293.073
293.091
293.103
293.11
293.111
293.111
293.109
293.103
293.092
293.071
293.031
292.944
302.335
300.773
298.489
296.226
294.54
293.58
293.175
293.066
293.063
293.08
293.094
293.101
293.103
293.103
293.101
293.094
293.083
293.061
293.022
292.938
302.474
301.134
299.005
296.732
294.904
293.771
293.243
293.074
293.053
293.067
293.082
293.091
293.094
293.094
293.091
293.084
293.072
293.051
293.012
292.932
302.6
301.49
299.557
297.317
295.361
294.037
293.351
293.096
293.044
293.053
293.068
293.078
293.082
293.082
293.08
293.073
293.06
293.039
293.001
292.925
302.709
301.833
300.135
297.984
295.93
294.402
293.521
293.144
293.042
293.038
293.052
293.063
293.068
293.069
293.066
293.06
293.047
293.026
292.989
292.918
302.801
302.15
300.721
298.726
296.626
294.898
293.784
293.238
293.053
293.024
293.035
293.046
293.052
293.053
293.051
293.045
293.033
293.012
292.977
292.909
302.874
302.429
301.29
299.523
297.456
295.559
294.183
293.41
293.093
293.015
293.015
293.027
293.034
293.036
293.035
293.029
293.017
292.997
292.964
292.9
302.926
302.66
301.814
300.339
298.406
296.411
294.772
293.711
293.194
293.022
292.997
293.006
293.014
293.017
293.016
293.011
293
292.981
292.95
292.89
302.961
302.836
302.262
301.126
299.439
297.462
295.605
294.217
293.411
293.072
292.986
292.984
292.992
292.996
292.996
292.991
292.981
292.964
292.935
292.878
302.981
302.959
302.613
301.822
300.48
298.675
296.721
295.016
293.841
293.226
293.004
292.963
292.968
292.972
292.973
292.97
292.961
292.945
292.918
292.864
302.989
303.035
302.857
302.374
301.43
299.958
298.098
296.19
294.618
293.604
293.119
292.967
292.946
292.949
292.95
292.947
292.939
292.925
292.899
292.848
302.99
303.076
303.004
302.755
302.189
301.155
299.616
297.741
295.882
294.408
293.5
293.086
292.96
292.946
292.941
292.935
292.926
292.911
292.885
292.836
302.986
303.095
303.08
302.975
302.698
302.102
301.047
299.506
297.657
295.857
294.457
293.609
293.222
293.106
293.066
293.043
293.026
293.007
292.976
292.909
302.979
303.102
303.114
303.079
302.971
302.703
302.135
301.136
299.68
297.937
296.248
294.94
294.14
293.768
293.646
293.589
293.561
293.534
293.484
293.371
302.97
303.103
303.126
303.12
303.086
302.992
302.763
302.279
301.424
300.17
298.668
297.219
296.097
295.385
295.136
295.06
295.043
294.992
294.842
294.838
302.961
303.102
303.131
303.134
303.125
303.098
303.027
302.855
302.493
301.846
300.897
299.777
298.746
298.005
297.554
297.556
297.649
297.601
297.376
297.349
302.951
303.099
303.133
303.139
303.137
303.131
303.114
303.072
302.973
302.766
302.395
301.853
301.248
300.804
300.667
300.72
300.876
300.923
300.502
300.036
302.942
303.095
303.133
303.142
303.142
303.14
303.137
303.129
303.113
303.081
303.018
302.91
302.754
302.577
302.459
302.505
302.668
302.666
302.352
301.39
302.932
303.091
303.132
303.143
303.145
303.144
303.143
303.14
303.137
303.13
303.12
303.105
303.085
303.06
303.033
303
302.959
302.899
302.802
302.63
302.923
303.087
303.131
303.144
303.146
303.146
303.145
303.144
303.142
303.139
303.134
303.125
303.113
303.095
303.071
303.039
302.994
302.933
302.856
302.765
302.914
303.083
303.13
303.144
303.147
303.147
303.147
303.146
303.145
303.144
303.14
303.134
303.125
303.111
303.09
303.059
303.015
302.955
302.876
302.777
302.906
303.079
303.128
303.144
303.147
303.148
303.148
303.148
303.147
303.146
303.144
303.14
303.133
303.122
303.104
303.076
303.033
302.973
302.891
302.783
302.898
303.075
303.127
303.144
303.148
303.149
303.149
303.148
303.148
303.148
303.146
303.144
303.139
303.13
303.115
303.089
303.05
302.99
302.905
302.787
302.891
303.071
303.125
303.143
303.148
303.149
303.149