/*--------------------------------*- C++ -*----------------------------------*\
  =========                 |
  \\      /  F ield         | OpenFOAM: The Open Source CFD Toolbox
   \\    /   O peration     | Website:  https://openfoam.org
    \\  /    A nd           | Version:  8
     \\/     M anipulation  |
\*---------------------------------------------------------------------------*/
FoamFile
{
    version     2.0;
    format      ascii;
    class       volScalarField;
    location    "1000";
    object      alphat;
}
// * * * * * * * * * * * * * * * * * * * * * * * * * * * * * * * * * * * * * //

dimensions      [1 -1 -1 0 0 0 0];

internalField   nonuniform List<scalar> 
8400
(
0.346643
0.346327
0.346009
0.345689
0.345367
0.345043
0.344716
0.344386
0.344053
0.343717
0.343378
0.343034
0.342687
0.342336
0.34198
0.341619
0.341254
0.340884
0.340509
0.340128
0.339742
0.33935
0.338953
0.33855
0.338141
0.337726
0.337308
0.336888
0.33647
0.336053
0.33564
0.335232
0.334831
0.33444
0.33406
0.333695
0.333349
0.333024
0.332727
0.332462
0.332236
0.332057
0.331934
0.33188
0.331908
0.332038
0.332295
0.332713
0.333336
0.334222
0.147157
0.147223
0.147283
0.14734
0.147394
0.147447
0.147498
0.147548
0.147597
0.147644
0.147691
0.147736
0.147781
0.147826
0.14787
0.147915
0.14796
0.148005
0.148053
0.148102
0.148154
0.14821
0.148269
0.148334
0.148405
0.148483
0.14857
0.148659
0.148752
0.14885
0.148952
0.149061
0.149176
0.149298
0.149429
0.149571
0.149723
0.149889
0.15007
0.150269
0.150488
0.15073
0.150999
0.151299
0.151637
0.152019
0.152455
0.152955
0.153536
0.154218
0.092737
0.0929137
0.0930902
0.0932663
0.0934416
0.0936163
0.0937903
0.0939637
0.0941365
0.0943087
0.0944804
0.0946517
0.0948225
0.0949931
0.0951635
0.0953338
0.0955042
0.0956748
0.0958459
0.0960176
0.0961903
0.0963641
0.0965393
0.0967166
0.0968964
0.0970792
0.0972638
0.0974488
0.0976342
0.0978203
0.098007
0.0981947
0.0983835
0.0985735
0.0987649
0.0989582
0.0991535
0.0993512
0.0995517
0.0997554
0.099963
0.100175
0.100392
0.100616
0.100846
0.101086
0.101335
0.101597
0.101874
0.10217
0.0871917
0.0873584
0.0875256
0.0876931
0.0878611
0.0880294
0.0881983
0.0883676
0.0885374
0.0887077
0.0888785
0.0890499
0.0892218
0.0893942
0.0895673
0.0897409
0.0899152
0.0900902
0.0902658
0.0904421
0.0906193
0.0907972
0.0909759
0.0911553
0.0913353
0.0915159
0.0916972
0.0918791
0.0920617
0.0922449
0.0924288
0.0926134
0.0927987
0.0929846
0.0931713
0.0933587
0.0935469
0.0937359
0.0939256
0.0941161
0.0943076
0.0944999
0.0946931
0.0948874
0.0950828
0.0952794
0.0954774
0.0956769
0.0958783
0.0960819
0.0873171
0.0874803
0.0876444
0.087809
0.0879742
0.0881401
0.0883066
0.0884738
0.0886417
0.0888102
0.0889795
0.0891496
0.0893203
0.0894918
0.0896641
0.0898372
0.0900111
0.0901857
0.0903612
0.0905374
0.0907144
0.0908922
0.0910706
0.0912499
0.0914298
0.0916105
0.0917918
0.0919739
0.0921565
0.0923398
0.0925236
0.0927079
0.0928927
0.0930779
0.0932634
0.0934492
0.093635
0.0938209
0.0940066
0.0941921
0.094377
0.0945612
0.0947444
0.0949263
0.0951065
0.0952845
0.0954598
0.0956318
0.0957995
0.095962
0.088823
0.0889928
0.0891634
0.0893346
0.0895064
0.0896788
0.0898518
0.0900255
0.0901998
0.0903747
0.0905504
0.0907267
0.0909038
0.0910815
0.09126
0.0914392
0.0916191
0.0917998
0.0919811
0.0921632
0.0923461
0.0925297
0.0927141
0.0928993
0.0930852
0.0932718
0.0934592
0.0936473
0.0938361
0.0940255
0.0942157
0.0944064
0.0945978
0.0947897
0.0949821
0.0951749
0.0953681
0.0955616
0.0957552
0.095949
0.0961427
0.0963363
0.0965295
0.0967222
0.0969141
0.0971051
0.0972948
0.097483
0.0976693
0.0978534
0.0898194
0.089993
0.0901674
0.0903423
0.0905178
0.0906939
0.0908707
0.0910482
0.0912263
0.0914052
0.0915847
0.091765
0.091946
0.0921278
0.0923103
0.0924936
0.0926777
0.0928625
0.0930481
0.0932345
0.0934216
0.0936095
0.0937982
0.0939877
0.0941779
0.0943689
0.0945606
0.0947529
0.0949459
0.0951396
0.0953338
0.0955285
0.0957237
0.0959193
0.0961152
0.0963113
0.0965074
0.0967036
0.0968995
0.097095
0.0972899
0.0974839
0.0976767
0.0978681
0.0980575
0.0982446
0.0984288
0.0986095
0.0987859
0.0989574
0.0911706
0.0913503
0.0915309
0.091712
0.0918938
0.0920761
0.0922591
0.0924427
0.0926271
0.092812
0.0929977
0.0931841
0.0933712
0.093559
0.0937476
0.0939369
0.094127
0.0943178
0.0945095
0.0947019
0.0948951
0.095089
0.0952838
0.0954793
0.0956756
0.0958726
0.0960704
0.0962689
0.0964681
0.0966679
0.0968684
0.0970695
0.097271
0.0974731
0.0976755
0.0978782
0.0980812
0.0982842
0.0984872
0.09869
0.0988924
0.0990943
0.0992952
0.0994951
0.0996936
0.0998903
0.100085
0.100277
0.100466
0.100651
0.0922875
0.0924723
0.0926579
0.092844
0.0930308
0.0932181
0.0934061
0.0935948
0.0937841
0.0939741
0.0941648
0.0943563
0.0945484
0.0947413
0.094935
0.0951294
0.0953246
0.0955206
0.0957174
0.095915
0.0961134
0.0963125
0.0965125
0.0967133
0.0969148
0.097117
0.09732
0.0975237
0.0977281
0.0979332
0.0981388
0.098345
0.0985516
0.0987587
0.0989661
0.0991736
0.0993813
0.0995889
0.0997964
0.100003
0.10021
0.100415
0.10062
0.100822
0.101023
0.101222
0.101417
0.10161
0.101798
0.101982
0.0935284
0.0937191
0.0939106
0.0941026
0.0942953
0.0944885
0.0946823
0.0948768
0.095072
0.0952679
0.0954644
0.0956617
0.0958597
0.0960585
0.096258
0.0964583
0.0966594
0.0968613
0.097064
0.0972675
0.0974717
0.0976768
0.0978827
0.0980894
0.0982969
0.0985051
0.0987141
0.0989238
0.0991342
0.0993452
0.0995569
0.0997691
0.0999819
0.100195
0.100408
0.100622
0.100836
0.10105
0.101263
0.101476
0.101689
0.1019
0.102111
0.10232
0.102526
0.102731
0.102932
0.10313
0.103324
0.103513
0.0947345
0.0949314
0.095129
0.0953273
0.0955261
0.0957255
0.0959255
0.0961262
0.0963275
0.0965295
0.0967322
0.0969357
0.0971398
0.0973447
0.0975504
0.0977569
0.0979641
0.0981722
0.098381
0.0985907
0.0988012
0.0990125
0.0992246
0.0994375
0.0996512
0.0998657
0.100081
0.100297
0.100514
0.100731
0.100949
0.101168
0.101387
0.101607
0.101827
0.102047
0.102268
0.102488
0.102709
0.102929
0.103148
0.103367
0.103585
0.103801
0.104016
0.104228
0.104438
0.104645
0.104848
0.105048
0.0958853
0.0960881
0.0962915
0.0964955
0.0967
0.0969051
0.0971108
0.0973171
0.097524
0.0977317
0.09794
0.0981491
0.0983589
0.0985694
0.0987807
0.0989928
0.0992057
0.0994193
0.0996338
0.0998491
0.100065
0.100282
0.1005
0.100718
0.100938
0.101158
0.101379
0.101601
0.101823
0.102046
0.10227
0.102494
0.102719
0.102944
0.103169
0.103395
0.103621
0.103846
0.104072
0.104296
0.104521
0.104743
0.104965
0.105185
0.105402
0.105616
0.105827
0.106034
0.106235
0.10643
0.0971836
0.0973935
0.0976042
0.0978155
0.0980274
0.0982398
0.0984528
0.0986664
0.0988807
0.0990956
0.0993112
0.0995275
0.0997446
0.0999623
0.100181
0.1004
0.10062
0.100841
0.101063
0.101285
0.101509
0.101733
0.101958
0.102184
0.10241
0.102638
0.102866
0.103095
0.103325
0.103556
0.103787
0.104019
0.104252
0.104485
0.104719
0.104953
0.105188
0.105422
0.105657
0.105892
0.106126
0.10636
0.106593
0.106825
0.107055
0.107284
0.107511
0.107735
0.107957
0.108175
0.0982382
0.0984545
0.0986713
0.0988886
0.0991063
0.0993246
0.0995434
0.0997628
0.0999829
0.100203
0.100425
0.100647
0.100869
0.101093
0.101317
0.101542
0.101767
0.101993
0.102221
0.102449
0.102677
0.102907
0.103137
0.103368
0.1036
0.103833
0.104067
0.104301
0.104536
0.104771
0.105008
0.105244
0.105482
0.105719
0.105957
0.106195
0.106433
0.106671
0.106909
0.107146
0.107382
0.107616
0.107849
0.10808
0.108308
0.108533
0.108753
0.108968
0.109178
0.10938
0.0998566
0.100082
0.100308
0.100535
0.100762
0.100989
0.101217
0.101446
0.101675
0.101904
0.102134
0.102365
0.102596
0.102828
0.103061
0.103294
0.103528
0.103763
0.103998
0.104234
0.104471
0.104709
0.104947
0.105187
0.105427
0.105667
0.105909
0.106151
0.106394
0.106637
0.106881
0.107126
0.107371
0.107616
0.107862
0.108108
0.108354
0.1086
0.108846
0.109091
0.109336
0.10958
0.109823
0.110064
0.110304
0.110542
0.110777
0.11101
0.11124
0.111467
0.101714
0.101955
0.102195
0.102436
0.102676
0.102916
0.103156
0.103396
0.103636
0.103876
0.104116
0.104356
0.104597
0.104837
0.105078
0.105319
0.10556
0.105802
0.106044
0.106286
0.106529
0.106772
0.107015
0.107258
0.107502
0.107746
0.10799
0.108234
0.108478
0.108722
0.108965
0.109208
0.10945
0.109691
0.10993
0.110168
0.110403
0.110636
0.110866
0.111092
0.111313
0.111528
0.111738
0.111939
0.112132
0.112314
0.112484
0.112641
0.112782
0.112906
0.108745
0.109025
0.109305
0.109584
0.109861
0.110136
0.11041
0.110683
0.110954
0.111224
0.111493
0.11176
0.112026
0.112291
0.112556
0.112819
0.113081
0.113342
0.113603
0.113862
0.114121
0.114379
0.114636
0.114892
0.115146
0.115399
0.115651
0.115901
0.116148
0.116394
0.116636
0.116875
0.117109
0.117339
0.117563
0.11778
0.11799
0.11819
0.11838
0.118556
0.118718
0.118863
0.118988
0.119089
0.119164
0.119207
0.119214
0.11918
0.119098
0.118961
0.131102
0.131508
0.131906
0.132299
0.132686
0.133069
0.133447
0.133821
0.13419
0.134555
0.134916
0.135272
0.135625
0.135974
0.136319
0.136661
0.136999
0.137334
0.137666
0.137993
0.138318
0.138639
0.138956
0.139269
0.139577
0.13988
0.140178
0.14047
0.140755
0.141032
0.1413
0.141556
0.141801
0.142031
0.142244
0.142437
0.142607
0.14275
0.142861
0.142935
0.142966
0.142944
0.142862
0.142707
0.142465
0.14212
0.141647
0.141018
0.140196
0.139127
0.197208
0.197748
0.198299
0.198851
0.199404
0.199957
0.200511
0.201065
0.201619
0.202174
0.202729
0.203284
0.203841
0.204398
0.204956
0.205514
0.206073
0.206633
0.207194
0.207754
0.208315
0.208876
0.209436
0.209996
0.210553
0.211108
0.21166
0.212207
0.212748
0.213281
0.213806
0.214318
0.214817
0.215298
0.215759
0.216194
0.216599
0.216968
0.217294
0.217568
0.217779
0.217917
0.217965
0.217904
0.217709
0.217348
0.216775
0.215929
0.214728
0.213054
0.376285
0.37672
0.377161
0.377607
0.378057
0.378512
0.378973
0.379439
0.379912
0.38039
0.380875
0.381367
0.381865
0.38237
0.382882
0.383401
0.383927
0.38446
0.385
0.385547
0.386102
0.386664
0.387233
0.387809
0.388392
0.388983
0.38958
0.390185
0.390797
0.391415
0.39204
0.392672
0.393309
0.393953
0.394601
0.395255
0.395913
0.396574
0.397238
0.397903
0.398568
0.399232
0.399893
0.400548
0.401195
0.40183
0.402449
0.403049
0.403621
0.404156
1.08355
1.06874
1.05457
1.04098
1.02789
1.01526
1.00302
0.991131
0.979585
0.968363
0.957454
0.946844
0.936523
0.926479
0.916704
0.907187
0.897919
0.888893
0.880099
0.87153
0.863178
0.855037
0.847099
0.839358
0.831807
0.82444
0.817253
0.810239
0.803392
0.796709
0.790184
0.783813
0.777592
0.771516
0.765582
0.759787
0.754128
0.7486
0.743192
0.737887
0.732678
0.72756
0.722523
0.71756
0.712659
0.707804
0.702973
0.698128
0.693203
0.688066
1.07683
1.05216
1.02859
1.00603
0.984429
0.963764
0.944006
0.9251
0.906993
0.889635
0.872982
0.85699
0.841621
0.82684
0.812612
0.798908
0.785698
0.772956
0.760658
0.74878
0.737302
0.726202
0.715462
0.705064
0.694992
0.685231
0.675765
0.66658
0.657664
0.649004
0.640588
0.632404
0.624441
0.616687
0.609132
0.601765
0.594575
0.587552
0.580699
0.574021
0.567514
0.561168
0.554979
0.54894
0.543044
0.537284
0.531653
0.526142
0.52074
0.51543
1.0768
1.05207
1.02836
1.00568
0.983955
0.963152
0.943214
0.924088
0.905725
0.88808
0.871111
0.85478
0.839049
0.823888
0.809265
0.795152
0.781522
0.768353
0.755619
0.743301
0.731379
0.719834
0.708648
0.697805
0.68729
0.677088
0.667186
0.65757
0.648229
0.639152
0.630327
0.621743
0.613393
0.605267
0.597358
0.589656
0.582155
0.574848
0.567728
0.560789
0.554024
0.54743
0.541
0.53473
0.528616
0.522654
0.516841
0.511174
0.505649
0.500263
1.0768
1.05225
1.02876
1.00628
0.984746
0.964102
0.944292
0.925267
0.906979
0.889389
0.872456
0.856145
0.840423
0.825259
0.810625
0.796494
0.782841
0.769642
0.756875
0.744521
0.732559
0.720972
0.709742
0.698854
0.688293
0.678044
0.668095
0.658432
0.649043
0.639918
0.631046
0.622417
0.614021
0.60585
0.597895
0.590148
0.582602
0.57525
0.568085
0.561101
0.554293
0.547654
0.541181
0.534867
0.52871
0.522705
0.516848
0.511135
0.505565
0.500132
1.0768
1.05225
1.02875
1.00625
0.984678
0.963996
0.944148
0.92509
0.906775
0.889164
0.872218
0.8559
0.840176
0.825016
0.810389
0.796268
0.782628
0.769444
0.756694
0.744358
0.732415
0.720847
0.709637
0.698769
0.688227
0.677997
0.668067
0.658422
0.649051
0.639943
0.631087
0.622474
0.614093
0.605936
0.597994
0.59026
0.582726
0.575384
0.568229
0.561254
0.554453
0.54782
0.541351
0.535041
0.528885
0.522878
0.517018
0.511299
0.505719
0.500271
1.0768
1.05226
1.02879
1.00633
0.984802
0.964168
0.944369
0.925358
0.907088
0.889517
0.872607
0.85632
0.840623
0.825485
0.810876
0.79677
0.783141
0.769965
0.757221
0.744888
0.732947
0.721378
0.710167
0.699295
0.688749
0.678514
0.668577
0.658925
0.649546
0.64043
0.631565
0.622942
0.614551
0.606383
0.59843
0.590684
0.583138
0.575783
0.568615
0.561625
0.554809
0.54816
0.541674
0.535345
0.529169
0.523141
0.517257
0.511512
0.505902
0.500422
1.0768
1.05227
1.0288
1.00634
0.984815
0.964177
0.944371
0.925349
0.907066
0.889482
0.872558
0.856258
0.840548
0.825399
0.81078
0.796665
0.783029
0.769847
0.757099
0.744762
0.732819
0.721249
0.710037
0.699166
0.688621
0.678388
0.668453
0.658804
0.649428
0.640315
0.631454
0.622834
0.614447
0.606283
0.598333
0.590591
0.583047
0.575695
0.568529
0.561541
0.554725
0.548077
0.54159
0.535259
0.529079
0.523046
0.517155
0.511402
0.505781
0.500288
1.0768
1.05227
1.02881
1.00635
0.984836
0.964207
0.944411
0.925401
0.907131
0.889559
0.872648
0.856361
0.840664
0.825526
0.810918
0.796814
0.783187
0.770013
0.757272
0.744942
0.733003
0.721438
0.710229
0.699361
0.688818
0.678585
0.66865
0.659
0.649623
0.640508
0.631643
0.62302
0.614629
0.606459
0.598504
0.590755
0.583205
0.575845
0.568669
0.561672
0.554846
0.548185
0.541685
0.53534
0.529144
0.523093
0.517182
0.511407
0.505762
0.500243
1.0768
1.05227
1.02881
1.00636
0.984842
0.964215
0.94442
0.925409
0.907137
0.889563
0.872648
0.856357
0.840655
0.825512
0.8109
0.79679
0.783158
0.76998
0.757234
0.744899
0.732957
0.721388
0.710176
0.699305
0.688759
0.678524
0.668587
0.658935
0.649556
0.640439
0.631574
0.622949
0.614556
0.606385
0.598429
0.590678
0.583125
0.575763
0.568584
0.561583
0.554753
0.548087
0.541581
0.535229
0.529025
0.522964
0.517042
0.511254
0.505595
0.50006
1.0768
1.05227
1.02881
1.00636
0.984846
0.96422
0.944427
0.925418
0.907148
0.889576
0.872664
0.856375
0.840676
0.825536
0.810926
0.796819
0.78319
0.770014
0.757271
0.744938
0.732998
0.721431
0.71022
0.699349
0.688804
0.678569
0.668632
0.65898
0.649601
0.640482
0.631615
0.622989
0.614593
0.606419
0.598459
0.590704
0.583147
0.575779
0.568595
0.561587
0.554749
0.548074
0.541558
0.535194
0.528978
0.522903
0.516965
0.51116
0.505481
0.499925
1.0768
1.05227
1.02881
1.00636
0.984846
0.96422
0.944426
0.925417
0.907148
0.889576
0.872664
0.856374
0.840675
0.825535
0.810925
0.796818
0.783188
0.770012
0.757268
0.744935
0.732994
0.721426
0.710215
0.699344
0.688797
0.678562
0.668624
0.65897
0.649589
0.640469
0.6316
0.622971
0.614573
0.606396
0.598433
0.590674
0.583112
0.57574
0.56855
0.561535
0.55469
0.548008
0.541482
0.535108
0.52888
0.522793
0.516841
0.511019
0.505323
0.499748
1.0768
1.05227
1.02881
1.00636
0.984842
0.964215
0.944419
0.925408
0.907136
0.889562
0.872647
0.856355
0.840653
0.82551
0.810896
0.796786
0.783153
0.769974
0.757227
0.744891
0.732948
0.721377
0.710163
0.69929
0.688741
0.678504
0.668564
0.658908
0.649525
0.640404
0.631533
0.622902
0.614502
0.606323
0.598357
0.590596
0.583031
0.575655
0.568461
0.561442
0.554591
0.547903
0.541371
0.534989
0.528751
0.522653
0.516689
0.510854
0.505143
0.499551
1.0768
1.05227
1.02881
1.00635
0.984836
0.964206
0.944411
0.9254
0.90713
0.889558
0.872646
0.856358
0.84066
0.825522
0.810913
0.796807
0.783178
0.770004
0.75726
0.744928
0.732987
0.721419
0.710207
0.699334
0.688787
0.678549
0.668609
0.658953
0.649568
0.640445
0.631571
0.622938
0.614534
0.606351
0.59838
0.590613
0.583042
0.57566
0.568458
0.56143
0.55457
0.547871
0.541327
0.534932
0.52868
0.522566
0.516585
0.510731
0.504999
0.499384
1.0768
1.05227
1.0288
1.00634
0.984815
0.964176
0.94437
0.925348
0.907065
0.88948
0.872555
0.856254
0.840544
0.825393
0.810773
0.796656
0.783018
0.769835
0.757084
0.744745
0.732798
0.721225
0.710009
0.699133
0.688582
0.678343
0.668401
0.658744
0.649359
0.640235
0.631361
0.622728
0.614324
0.606141
0.598171
0.590404
0.582833
0.57545
0.568248
0.561219
0.554357
0.547656
0.541109
0.53471
0.528453
0.522332
0.516343
0.510479
0.504736
0.499108
1.0768
1.05226
1.02879
1.00633
0.984802
0.964167
0.944368
0.925357
0.907086
0.889515
0.872603
0.856315
0.840617
0.825477
0.810867
0.796758
0.783127
0.769948
0.757201
0.744864
0.732918
0.721345
0.710127
0.69925
0.688696
0.678453
0.668506
0.658843
0.649452
0.640322
0.631441
0.6228
0.614388
0.606197
0.598217
0.59044
0.582859
0.575465
0.568251
0.56121
0.554335
0.547619
0.541057
0.534642
0.528367
0.522227
0.516217
0.510331
0.504564
0.498909
1.0768
1.05225
1.02875
1.00625
0.984678
0.963995
0.944147
0.925088
0.906773
0.889161
0.872214
0.855895
0.84017
0.825008
0.810379
0.796255
0.782612
0.769425
0.756672
0.744332
0.732384
0.720811
0.709595
0.698719
0.688169
0.677931
0.667989
0.658332
0.648947
0.639823
0.630949
0.622314
0.613909
0.605725
0.597752
0.589981
0.582406
0.575017
0.567809
0.560772
0.553901
0.547189
0.540628
0.534214
0.52794
0.521799
0.515786
0.509896
0.504123
0.498461
1.0768
1.05225
1.02876
1.00628
0.984745
0.964101
0.944291
0.925265
0.906977
0.889385
0.872451
0.856138
0.840415
0.825249
0.810613
0.796479
0.782822
0.769619
0.756848
0.744489
0.732521
0.720928
0.709691
0.698795
0.688224
0.677964
0.668002
0.658325
0.64892
0.639777
0.630884
0.622231
0.613808
0.605606
0.597616
0.58983
0.582239
0.574835
0.567612
0.560562
0.553678
0.546953
0.540382
0.533957
0.527674
0.521526
0.515509
0.509617
0.503847
0.498196
1.0768
1.05207
1.02836
1.00567
0.983955
0.963151
0.943212
0.924086
0.905722
0.888076
0.871106
0.854773
0.839041
0.823878
0.809253
0.795137
0.781505
0.768332
0.755595
0.743273
0.731346
0.719796
0.708604
0.697755
0.687233
0.677024
0.667114
0.657489
0.648139
0.639051
0.630215
0.62162
0.613256
0.605116
0.597189
0.589468
0.581945
0.574613
0.567465
0.560495
0.553697
0.547065
0.540595
0.534283
0.528125
0.52212
0.516268
0.51057
0.505037
0.499684
1.07683
1.05216
1.02859
1.00602
0.984428
0.963764
0.944005
0.925099
0.906993
0.889635
0.872982
0.856991
0.841623
0.826843
0.812617
0.798914
0.785707
0.772969
0.760675
0.748803
0.737331
0.72624
0.71551
0.705126
0.69507
0.685328
0.675886
0.666731
0.65785
0.649233
0.640869
0.632748
0.624861
0.617199
0.609757
0.602526
0.5955
0.588676
0.582047
0.575612
0.569367
0.563312
0.557447
0.551775
0.5463
0.541034
0.535992
0.531205
0.526732
0.522686
1.08355
1.06874
1.05457
1.04098
1.02789
1.01526
1.00302
0.99113
0.979582
0.96836
0.957449
0.946837
0.936513
0.926467
0.916688
0.907167
0.897895
0.888863
0.880063
0.871486
0.863126
0.854974
0.847025
0.83927
0.831703
0.824319
0.81711
0.810071
0.803197
0.796481
0.789918
0.783503
0.777231
0.771097
0.765096
0.759222
0.753472
0.747839
0.742321
0.73691
0.731604
0.726395
0.72128
0.716251
0.711305
0.706432
0.701627
0.69688
0.69218
0.68751
0.463698
0.251399
0.194342
0.186907
0.183043
0.181783
0.179049
0.177366
0.175021
0.173054
0.171035
0.16883
0.167127
0.164659
0.163282
0.160456
0.160173
0.163108
0.207935
0.388716
0.46427
0.252006
0.195036
0.187621
0.183768
0.182498
0.179766
0.178074
0.175729
0.173755
0.171734
0.169523
0.167817
0.165345
0.163963
0.161133
0.160845
0.16378
0.208606
0.389268
0.464847
0.252593
0.195731
0.188341
0.184498
0.183218
0.180488
0.178788
0.176443
0.174462
0.17244
0.170223
0.168513
0.166037
0.16465
0.161817
0.161522
0.164457
0.209273
0.389769
0.465429
0.253175
0.19643
0.189066
0.185234
0.183945
0.181217
0.179508
0.177163
0.175175
0.173151
0.170929
0.169215
0.166735
0.165343
0.162507
0.162205
0.165137
0.209894
0.390277
0.466016
0.253756
0.197133
0.189798
0.185976
0.184677
0.181952
0.180234
0.177889
0.175895
0.173868
0.171641
0.169924
0.16744
0.166042
0.163204
0.162894
0.165816
0.210499
0.390792
0.466608
0.25434
0.197842
0.190535
0.186725
0.185416
0.182693
0.180967
0.178621
0.17662
0.174592
0.17236
0.170639
0.168151
0.166747
0.163907
0.163589
0.166498
0.211097
0.391314
0.467205
0.254928
0.198557
0.191279
0.18748
0.18616
0.18344
0.181706
0.17936
0.177352
0.175322
0.173085
0.17136
0.168869
0.167459
0.164617
0.16429
0.167182
0.211694
0.391842
0.467807
0.255521
0.199277
0.192028
0.188241
0.186911
0.184194
0.182451
0.180105
0.178091
0.176059
0.173816
0.172087
0.169593
0.168178
0.165333
0.164998
0.167872
0.212291
0.392377
0.468414
0.256119
0.200005
0.192784
0.189008
0.187669
0.184954
0.183202
0.180857
0.178836
0.176802
0.174554
0.172822
0.170324
0.168903
0.166056
0.165711
0.168566
0.212892
0.392918
0.469026
0.256723
0.200738
0.193547
0.189782
0.188433
0.185721
0.18396
0.181615
0.179587
0.177552
0.175299
0.173562
0.171061
0.169635
0.166786
0.166432
0.169266
0.213496
0.393466
0.469644
0.257332
0.201479
0.194316
0.190563
0.189203
0.186494
0.184725
0.18238
0.180345
0.178308
0.17605
0.17431
0.171806
0.170373
0.167522
0.167158
0.169972
0.214105
0.39402
0.470266
0.257947
0.202226
0.195091
0.191351
0.18998
0.187274
0.185496
0.183152
0.18111
0.179071
0.176808
0.175064
0.172557
0.171119
0.168265
0.167892
0.170684
0.214719
0.394581
0.470894
0.258568
0.20298
0.195873
0.192145
0.190763
0.188061
0.186274
0.18393
0.181882
0.179841
0.177573
0.175825
0.173314
0.171871
0.169014
0.168632
0.171402
0.215338
0.395148
0.471527
0.259194
0.203741
0.196662
0.192946
0.191554
0.188854
0.187058
0.184716
0.18266
0.180618
0.178345
0.176593
0.174079
0.17263
0.169771
0.169379
0.172127
0.215963
0.395722
0.472166
0.259827
0.204509
0.197458
0.193754
0.192351
0.189655
0.18785
0.185508
0.183446
0.181401
0.179123
0.177368
0.174851
0.173395
0.170534
0.170132
0.172859
0.216594
0.396303
0.47281
0.260466
0.205284
0.19826
0.194569
0.193155
0.190462
0.188649
0.186307
0.184238
0.182192
0.179909
0.17815
0.17563
0.174168
0.171305
0.170893
0.173598
0.217232
0.396891
0.47346
0.261111
0.206066
0.199069
0.195391
0.193966
0.191277
0.189454
0.187114
0.185038
0.18299
0.180702
0.178939
0.176416
0.174949
0.172083
0.171661
0.174344
0.217876
0.397485
0.474115
0.261762
0.206856
0.199886
0.19622
0.194785
0.192099
0.190267
0.187927
0.185845
0.183795
0.181502
0.179736
0.17721
0.175736
0.172868
0.172436
0.175097
0.218527
0.398087
0.474776
0.262418
0.207652
0.200709
0.197056
0.19561
0.192928
0.191087
0.188748
0.186659
0.184608
0.18231
0.18054
0.17801
0.176531
0.173661
0.173219
0.175857
0.219185
0.398695
0.475443
0.263081
0.208456
0.20154
0.1979
0.196443
0.193765
0.191915
0.189577
0.18748
0.185427
0.183125
0.181351
0.178818
0.177333
0.174461
0.174009
0.176625
0.21985
0.399311
0.476115
0.263751
0.209268
0.202378
0.198751
0.197283
0.194609
0.19275
0.190412
0.188309
0.186255
0.183948
0.18217
0.179634
0.178143
0.175269
0.174806
0.177401
0.220522
0.399934
0.476793
0.264426
0.210087
0.203224
0.19961
0.19813
0.19546
0.193592
0.191256
0.189146
0.18709
0.184778
0.182996
0.180458
0.17896
0.176084
0.175611
0.178184
0.221201
0.400564
0.477477
0.265108
0.210913
0.204077
0.200476
0.198985
0.196319
0.194442
0.192107
0.18999
0.187932
0.185616
0.18383
0.181289
0.179785
0.176907
0.176424
0.178975
0.221888
0.401202
0.478167
0.265795
0.211747
0.204937
0.20135
0.199848
0.197186
0.1953
0.192965
0.190842
0.188782
0.186462
0.184672
0.182128
0.180618
0.177738
0.177244
0.179774
0.222583
0.401848
0.478863
0.26649
0.212589
0.205805
0.202232
0.200718
0.198061
0.196165
0.193832
0.191702
0.189641
0.187316
0.185522
0.182975
0.181459
0.178577
0.178073
0.180581
0.223285
0.402501
0.479564
0.26719
0.213438
0.206681
0.203121
0.201597
0.198943
0.197039
0.194706
0.192569
0.190507
0.188177
0.186379
0.18383
0.182308
0.179424
0.178909
0.181396
0.223995
0.403162
0.480272
0.267897
0.214296
0.207565
0.204019
0.202483
0.199834
0.19792
0.195589
0.193445
0.191381
0.189047
0.187245
0.184693
0.183165
0.18028
0.179754
0.182219
0.224713
0.40383
0.480986
0.268611
0.215161
0.208456
0.204925
0.203377
0.200732
0.19881
0.19648
0.19433
0.192264
0.189925
0.188119
0.185565
0.18403
0.181143
0.180607
0.183051
0.225439
0.404507
0.481706
0.269331
0.216034
0.209356
0.205839
0.204279
0.201639
0.199707
0.197379
0.195222
0.193155
0.190812
0.189002
0.186445
0.184903
0.182015
0.181468
0.183891
0.226173
0.405191
0.482433
0.270058
0.216916
0.210264
0.206761
0.20519
0.202555
0.200613
0.198286
0.196123
0.194054
0.191707
0.189893
0.187333
0.185786
0.182896
0.182338
0.18474
0.226916
0.405884
0.483166
0.270792
0.217806
0.21118
0.207691
0.206109
0.203478
0.201528
0.199202
0.197032
0.194962
0.192611
0.190792
0.18823
0.186676
0.183786
0.183217
0.185597
0.227666
0.406585
0.483905
0.271532
0.218704
0.212104
0.208631
0.207036
0.204411
0.202451
0.200127
0.19795
0.195878
0.193523
0.191701
0.189136
0.187576
0.184684
0.184104
0.186464
0.228426
0.407295
0.48465
0.27228
0.219611
0.213037
0.209578
0.207972
0.205352
0.203383
0.20106
0.198877
0.196803
0.194444
0.192618
0.190051
0.188484
0.185591
0.185
0.18734
0.229194
0.408013
0.485402
0.273034
0.220527
0.213979
0.210535
0.208917
0.206301
0.204324
0.202002
0.199812
0.197737
0.195374
0.193544
0.190975
0.189401
0.186507
0.185905
0.188224
0.229971
0.40874
0.486161
0.273796
0.221451
0.214929
0.2115
0.209871
0.20726
0.205273
0.202953
0.200757
0.19868
0.196313
0.194479
0.191908
0.190328
0.187433
0.186819
0.189118
0.230757
0.409475
0.486926
0.274564
0.222384
0.215888
0.212474
0.210833
0.208228
0.206232
0.203913
0.201711
0.199633
0.197262
0.195423
0.19285
0.191263
0.188367
0.187743
0.190022
0.231552
0.41022
0.487698
0.27534
0.223326
0.216856
0.213458
0.211805
0.209204
0.207199
0.204882
0.202674
0.200594
0.19822
0.196377
0.193802
0.192208
0.189312
0.188676
0.190935
0.232357
0.410973
0.488476
0.276123
0.224276
0.217833
0.21445
0.212785
0.21019
0.208176
0.205861
0.203646
0.201565
0.199187
0.19734
0.194763
0.193163
0.190266
0.189618
0.191858
0.233171
0.411736
0.489262
0.276914
0.225237
0.218819
0.215452
0.213775
0.211186
0.209163
0.206849
0.204628
0.202546
0.200164
0.198312
0.195734
0.194127
0.191229
0.190571
0.19279
0.233994
0.412508
0.490054
0.277712
0.226206
0.219814
0.216463
0.214775
0.212191
0.210159
0.207847
0.20562
0.203536
0.20115
0.199295
0.196715
0.195101
0.192203
0.191533
0.193733
0.234827
0.413289
0.490853
0.278518
0.227185
0.220819
0.217484
0.215784
0.213206
0.211165
0.208854
0.206621
0.204536
0.202147
0.200287
0.197705
0.196085
0.193186
0.192505
0.194686
0.23567
0.41408
0.491659
0.279332
0.228173
0.221834
0.218515
0.216803
0.21423
0.21218
0.209872
0.207633
0.205546
0.203153
0.20129
0.198706
0.197079
0.19418
0.193487
0.195649
0.236522
0.414881
0.492473
0.280153
0.229171
0.222858
0.219556
0.217831
0.215265
0.213206
0.210899
0.208654
0.206566
0.20417
0.202302
0.199717
0.198084
0.195184
0.194479
0.196623
0.237385
0.415691
0.493293
0.280983
0.230179
0.223892
0.220606
0.21887
0.216309
0.214242
0.211937
0.209686
0.207596
0.205197
0.203325
0.200739
0.199098
0.196199
0.195482
0.197607
0.238259
0.416512
0.494121
0.28182
0.231197
0.224936
0.221667
0.219919
0.217364
0.215288
0.212985
0.210728
0.208637
0.206235
0.204359
0.201771
0.200124
0.197224
0.196496
0.198602
0.239142
0.417343
0.494956
0.282666
0.232225
0.22599
0.222738
0.220978
0.218429
0.216344
0.214043
0.211781
0.209689
0.207283
0.205403
0.202814
0.20116
0.19826
0.197521
0.199608
0.240037
0.418184
0.495798
0.28352
0.233263
0.227055
0.223819
0.222047
0.219505
0.217411
0.215112
0.212844
0.210751
0.208343
0.206458
0.203868
0.202207
0.199308
0.198556
0.200625
0.240942
0.419035
0.496648
0.284383
0.234312
0.228129
0.224911
0.223127
0.220591
0.218489
0.216192
0.213919
0.211824
0.209413
0.207524
0.204933
0.203265
0.200366
0.199602
0.201654
0.241858
0.419898
0.497506
0.285254
0.235371
0.229215
0.226014
0.224218
0.221688
0.219578
0.217283
0.215004
0.212908
0.210494
0.208601
0.206009
0.204334
0.201436
0.20066
0.202694
0.242785
0.420771
0.498371
0.286134
0.236441
0.230311
0.227127
0.22532
0.222796
0.220677
0.218385
0.216101
0.214003
0.211587
0.209689
0.207097
0.205415
0.202517
0.20173
0.203746
0.243724
0.421655
0.499244
0.287023
0.237521
0.231418
0.228252
0.226433
0.223916
0.221788
0.219498
0.217209
0.21511
0.212691
0.210789
0.208196
0.206507
0.203611
0.202811
0.20481
0.244674
0.42255
0.500124
0.287921
0.238613
0.232536
0.229388
0.227557
0.225047
0.222911
0.220623
0.218328
0.216228
0.213807
0.211901
0.209307
0.207612
0.204716
0.203904
0.205886
0.245636
0.423457
0.501013
0.288827
0.239716
0.233666
0.230535
0.228692
0.226189
0.224045
0.221759
0.219459
0.217358
0.214934
0.213025
0.21043
0.208728
0.205833
0.205009
0.206974
0.24661
0.424375
0.501909
0.289743
0.24083
0.234806
0.231693
0.22984
0.227343
0.225191
0.222908
0.220603
0.2185
0.216074
0.21416
0.211566
0.209856
0.206962
0.206126
0.208075
0.247596
0.425305
0.502814
0.290669
0.241956
0.235959
0.232864
0.230998
0.228508
0.226348
0.224068
0.221758
0.219655
0.217226
0.215308
0.212713
0.210997
0.208104
0.207256
0.209188
0.248595
0.426247
0.503727
0.291604
0.243093
0.237123
0.234046
0.232169
0.229686
0.227518
0.22524
0.222925
0.220821
0.218391
0.216469
0.213874
0.212151
0.209259
0.208399
0.210314
0.249606
0.427202
0.504648
0.292549
0.244242
0.238299
0.235241
0.233352
0.230876
0.2287
0.226425
0.224106
0.222
0.219568
0.217642
0.215047
0.213317
0.210427
0.209554
0.211454
0.25063
0.428168
0.505578
0.293503
0.245403
0.239487
0.236447
0.234548
0.232079
0.229895
0.227622
0.225298
0.223192
0.220758
0.218828
0.216233
0.214496
0.211608
0.210723
0.212607
0.251667
0.429147
0.506515
0.294468
0.246577
0.240687
0.237666
0.235755
0.233294
0.231103
0.228832
0.226504
0.224397
0.221961
0.220027
0.217432
0.215688
0.212802
0.211905
0.213773
0.252717
0.430139
0.507462
0.295443
0.247763
0.2419
0.238898
0.236976
0.234521
0.232323
0.230056
0.227723
0.225615
0.223178
0.22124
0.218645
0.216894
0.21401
0.2131
0.214953
0.25378
0.431144
0.508417
0.296428
0.248961
0.243125
0.240143
0.238209
0.235762
0.233557
0.231292
0.228955
0.226846
0.224408
0.222466
0.219872
0.218114
0.215231
0.21431
0.216148
0.254858
0.432162
0.509381
0.297424
0.250172
0.244364
0.2414
0.239456
0.237016
0.234803
0.232542
0.230201
0.228091
0.225651
0.223705
0.221112
0.219348
0.216467
0.215533
0.217356
0.255949
0.433194
0.510354
0.29843
0.251396
0.245615
0.242671
0.240716
0.238284
0.236064
0.233805
0.23146
0.22935
0.226909
0.224959
0.222367
0.220595
0.217717
0.216771
0.21858
0.257054
0.434239