/*--------------------------------*- C++ -*----------------------------------*\
  =========                 |
  \\      /  F ield         | OpenFOAM: The Open Source CFD Toolbox
   \\    /   O peration     | Website:  https://openfoam.org
    \\  /    A nd           | Version:  8
     \\/     M anipulation  |
\*---------------------------------------------------------------------------*/
FoamFile
{
    version     2.0;
    format      ascii;
    class       volScalarField;
    location    "1000";
    object      k;
}
// * * * * * * * * * * * * * * * * * * * * * * * * * * * * * * * * * * * * * //

dimensions      [0 2 -2 0 0 0 0];

internalField   nonuniform List<scalar> 
8400
(
0.0962791
0.0961038
0.0959275
0.0957502
0.095572
0.0953926
0.095212
0.0950299
0.0948464
0.0946612
0.0944743
0.0942856
0.0940948
0.093902
0.0937069
0.0935095
0.0933097
0.0931074
0.0929025
0.0926949
0.0924846
0.0922715
0.0920557
0.0918369
0.0916154
0.0913909
0.0911644
0.0909379
0.0907121
0.0904877
0.0902654
0.0900463
0.0898312
0.0896213
0.0894179
0.0892227
0.0890375
0.0888643
0.0887056
0.0885643
0.088444
0.0883487
0.0882835
0.0882545
0.0882696
0.0883388
0.0884755
0.0886982
0.0890302
0.0895044
0.0173554
0.017371
0.0173852
0.0173985
0.0174113
0.0174238
0.0174359
0.0174477
0.0174593
0.0174705
0.0174815
0.0174924
0.017503
0.0175136
0.0175241
0.0175346
0.0175453
0.0175562
0.0175674
0.0175792
0.0175915
0.0176047
0.0176188
0.0176342
0.0176511
0.0176698
0.0176903
0.0177116
0.0177339
0.0177571
0.0177816
0.0178075
0.017835
0.0178643
0.0178957
0.0179296
0.0179662
0.018006
0.0180496
0.0180974
0.0181501
0.0182085
0.0182735
0.0183464
0.0184284
0.0185214
0.0186276
0.0187501
0.0188927
0.0190609
0.00689328
0.00691957
0.00694589
0.00697218
0.00699843
0.00702462
0.00705076
0.00707686
0.00710291
0.00712892
0.0071549
0.00718086
0.00720681
0.00723276
0.00725873
0.00728474
0.0073108
0.00733695
0.00736322
0.00738963
0.00741622
0.00744304
0.00747014
0.0074976
0.00752551
0.00755394
0.00758269
0.00761155
0.00764055
0.0076697
0.00769902
0.00772853
0.00775827
0.00778827
0.00781856
0.00784918
0.00788019
0.00791165
0.00794361
0.00797616
0.00800939
0.00804341
0.00807833
0.00811433
0.00815157
0.0081903
0.00823079
0.0082734
0.00831859
0.00836694
0.00609371
0.00611704
0.00614047
0.006164
0.00618763
0.00621137
0.00623522
0.00625918
0.00628326
0.00630745
0.00633177
0.00635621
0.00638077
0.00640546
0.00643029
0.00645524
0.00648034
0.00650558
0.00653097
0.00655652
0.00658222
0.00660809
0.00663413
0.00666032
0.00668665
0.00671312
0.00673975
0.00676651
0.00679343
0.0068205
0.00684772
0.0068751
0.00690264
0.00693033
0.00695819
0.00698621
0.0070144
0.00704276
0.0070713
0.00710002
0.00712893
0.00715804
0.00718734
0.00721687
0.00724662
0.00727662
0.00730689
0.00733746
0.00736838
0.0073997
0.00611127
0.00613415
0.00615717
0.00618032
0.00620361
0.00622702
0.00625057
0.00627426
0.0062981
0.00632207
0.0063462
0.00637048
0.0063949
0.00641949
0.00644423
0.00646913
0.0064942
0.00651943
0.00654482
0.00657037
0.00659608
0.00662196
0.00664799
0.00667418
0.00670053
0.00672704
0.0067537
0.00678051
0.00680747
0.00683457
0.00686181
0.00688918
0.00691667
0.00694427
0.00697198
0.00699978
0.00702765
0.00705558
0.00708354
0.00711152
0.00713947
0.00716737
0.00719517
0.00722282
0.00725027
0.00727743
0.00730424
0.00733057
0.00735631
0.00738129
0.00632389
0.00634809
0.00637246
0.00639695
0.00642158
0.00644634
0.00647124
0.00649628
0.00652146
0.00654678
0.00657225
0.00659788
0.00662365
0.00664958
0.00667567
0.00670191
0.00672831
0.00675487
0.00678159
0.00680847
0.00683551
0.00686273
0.0068901
0.00691765
0.00694536
0.00697324
0.00700129
0.0070295
0.00705787
0.0070864
0.00711509
0.00714393
0.00717292
0.00720205
0.00723131
0.0072607
0.00729021
0.00731982
0.00734952
0.00737929
0.00740912
0.00743899
0.00746886
0.0074987
0.0075285
0.0075582
0.00758776
0.00761714
0.00764628
0.00767512
0.00646657
0.0064916
0.00651677
0.00654208
0.00656753
0.00659311
0.00661884
0.00664472
0.00667074
0.00669692
0.00672326
0.00674975
0.00677641
0.00680323
0.00683022
0.00685737
0.00688469
0.00691217
0.00693983
0.00696766
0.00699566
0.00702383
0.00705218
0.0070807
0.00710939
0.00713825
0.00716727
0.00719646
0.00722581
0.00725531
0.00728497
0.00731476
0.00734468
0.00737473
0.00740488
0.00743512
0.00746544
0.00749581
0.00752622
0.00755662
0.00758698
0.00761727
0.00764744
0.00767743
0.00770718
0.00773662
0.00776566
0.00779419
0.00782211
0.00784928
0.0066626
0.00668889
0.00671536
0.00674196
0.00676871
0.0067956
0.00682264
0.00684983
0.00687717
0.00690466
0.00693232
0.00696014
0.00698811
0.00701626
0.00704457
0.00707305
0.0071017
0.00713053
0.00715953
0.00718871
0.00721807
0.00724761
0.00727733
0.00730723
0.0073373
0.00736755
0.00739798
0.00742858
0.00745936
0.00749029
0.00752139
0.00755265
0.00758405
0.00761558
0.00764725
0.00767903
0.00771091
0.00774286
0.00777488
0.00780693
0.00783899
0.00787102
0.00790298
0.00793483
0.00796652
0.00799798
0.00802917
0.00805999
0.00809038
0.00812025
0.00682683
0.0068542
0.00688174
0.00690942
0.00693724
0.00696522
0.00699334
0.00702162
0.00705005
0.00707865
0.00710741
0.00713634
0.00716543
0.0071947
0.00722414
0.00725377
0.00728357
0.00731355
0.00734372
0.00737406
0.0074046
0.00743532
0.00746623
0.00749732
0.00752859
0.00756005
0.00759169
0.0076235
0.00765549
0.00768765
0.00771997
0.00775244
0.00778505
0.0078178
0.00785067
0.00788363
0.00791669
0.0079498
0.00798295
0.0080161
0.00804922
0.00808226
0.00811519
0.00814793
0.00818043
0.00821262
0.0082444
0.0082757
0.00830641
0.00833642
0.00701166
0.00704028
0.00706908
0.00709802
0.00712711
0.00715635
0.00718575
0.0072153
0.00724502
0.0072749
0.00730495
0.00733517
0.00736557
0.00739615
0.0074269
0.00745785
0.00748897
0.00752029
0.00755179
0.00758349
0.00761538
0.00764746
0.00767973
0.0077122
0.00774486
0.0077777
0.00781074
0.00784396
0.00787736
0.00791094
0.00794469
0.00797859
0.00801265
0.00804685
0.00808118
0.00811561
0.00815013
0.00818472
0.00821935
0.00825398
0.00828858
0.00832311
0.00835751
0.00839172
0.00842569
0.00845932
0.00849253
0.00852523
0.0085573
0.00858862
0.00719366
0.00722359
0.00725371
0.00728397
0.00731438
0.00734495
0.00737568
0.00740657
0.00743763
0.00746886
0.00750026
0.00753184
0.0075636
0.00759555
0.00762768
0.00766
0.00769251
0.00772522
0.00775812
0.00779123
0.00782453
0.00785803
0.00789173
0.00792564
0.00795974
0.00799405
0.00802855
0.00806324
0.00809813
0.00813321
0.00816846
0.00820389
0.00823948
0.00827522
0.00831111
0.00834711
0.00838323
0.00841942
0.00845567
0.00849195
0.00852822
0.00856444
0.00860056
0.00863653
0.00867228
0.00870775
0.00874286
0.00877753
0.00881166
0.00884517
0.0073695
0.0074007
0.00743208
0.00746359
0.00749526
0.00752709
0.00755907
0.00759123
0.00762355
0.00765605
0.00768873
0.00772159
0.00775463
0.00778786
0.00782129
0.00785491
0.00788873
0.00792275
0.00795697
0.00799139
0.00802602
0.00806086
0.00809591
0.00813116
0.00816662
0.00820228
0.00823814
0.00827421
0.00831047
0.00834692
0.00838355
0.00842036
0.00845733
0.00849444
0.00853169
0.00856906
0.00860651
0.00864403
0.00868159
0.00871913
0.00875663
0.00879402
0.00883126
0.00886825
0.00890493
0.00894119
0.00897693
0.009012
0.00904627
0.00907956
0.00757041
0.00760315
0.00763609
0.00766919
0.00770245
0.00773586
0.00776945
0.0078032
0.00783713
0.00787124
0.00790552
0.00794
0.00797467
0.00800953
0.00804458
0.00807984
0.00811531
0.00815097
0.00818685
0.00822294
0.00825925
0.00829577
0.00833251
0.00836947
0.00840664
0.00844403
0.00848164
0.00851947
0.00855751
0.00859576
0.00863421
0.00867286
0.00871171
0.00875073
0.00878993
0.00882928
0.00886877
0.00890838
0.00894809
0.00898787
0.00902768
0.0090675
0.00910728
0.00914696
0.0091865
0.00922583
0.00926489
0.0093036
0.00934188
0.00937965
0.00773561
0.0077697
0.00780397
0.00783837
0.00787293
0.00790765
0.00794254
0.00797759
0.00801281
0.00804821
0.0080838
0.00811957
0.00815553
0.00819168
0.00822804
0.00826459
0.00830135
0.00833832
0.00837551
0.0084129
0.00845051
0.00848834
0.00852639
0.00856465
0.00860313
0.00864183
0.00868075
0.00871987
0.0087592
0.00879873
0.00883845
0.00887836
0.00891843
0.00895866
0.00899903
0.00903951
0.00908009
0.00912072
0.00916138
0.00920201
0.00924258
0.00928301
0.00932323
0.00936318
0.00940273
0.00944178
0.00948018
0.00951778
0.00955438
0.00958974
0.00799258
0.00802871
0.00806504
0.00810152
0.00813815
0.00817494
0.00821189
0.00824901
0.00828629
0.00832374
0.00836137
0.00839919
0.00843719
0.00847538
0.00851377
0.00855235
0.00859114
0.00863014
0.00866934
0.00870876
0.00874839
0.00878824
0.0088283
0.00886859
0.00890909
0.00894981
0.00899075
0.00903191
0.00907327
0.00911484
0.00915661
0.00919857
0.00924071
0.00928302
0.00932548
0.00936807
0.00941077
0.00945356
0.0094964
0.00953928
0.00958213
0.00962493
0.00966763
0.00971018
0.00975252
0.00979459
0.00983634
0.00987771
0.00991868
0.00995921
0.00829267
0.00833198
0.00837135
0.00841077
0.00845025
0.00848981
0.00852946
0.00856919
0.00860901
0.00864893
0.00868896
0.00872911
0.00876937
0.00880976
0.00885027
0.00889092
0.00893171
0.00897265
0.00901373
0.00905496
0.00909633
0.00913786
0.00917953
0.00922135
0.0092633
0.00930538
0.00934757
0.00938986
0.00943224
0.00947467
0.00951713
0.00955959
0.009602
0.00964431
0.00968648
0.00972843
0.00977008
0.00981134
0.00985212
0.00989229
0.0099317
0.00997021
0.0100076
0.0100437
0.0100783
0.0101111
0.0101418
0.0101701
0.0101957
0.0102181
0.0094786
0.00952758
0.00957657
0.00962545
0.00967418
0.00972277
0.00977121
0.00981952
0.00986769
0.00991575
0.0099637
0.0100115
0.0100593
0.010107
0.0101546
0.0102021
0.0102496
0.0102971
0.0103444
0.0103918
0.0104391
0.0104863
0.0105334
0.0105805
0.0106274
0.0106742
0.0107208
0.0107671
0.0108132
0.0108589
0.0109042
0.0109488
0.0109929
0.011036
0.0110782
0.0111192
0.0111588
0.0111967
0.0112327
0.0112662
0.011297
0.0113246
0.0113484
0.0113677
0.011382
0.0113903
0.0113916
0.011385
0.0113694
0.0113433
0.0137762
0.0138616
0.0139457
0.0140288
0.0141112
0.0141927
0.0142735
0.0143536
0.0144329
0.0145115
0.0145894
0.0146666
0.0147432
0.0148192
0.0148946
0.0149693
0.0150435
0.0151171
0.0151902
0.0152626
0.0153345
0.0154057
0.0154762
0.015546
0.0156149
0.0156829
0.0157498
0.0158155
0.0158797
0.0159422
0.0160028
0.016061
0.0161165
0.0161688
0.0162173
0.0162614
0.0163003
0.016333
0.0163585
0.0163755
0.0163824
0.0163775
0.0163586
0.0163232
0.016268
0.0161892
0.0160817
0.0159392
0.0157539
0.0155145
0.0311686
0.0313396
0.0315142
0.03169
0.0318665
0.0320436
0.0322213
0.0323996
0.0325785
0.032758
0.0329382
0.033119
0.0333005
0.0334828
0.0336658
0.0338495
0.034034
0.0342192
0.0344051
0.0345916
0.0347787
0.0349662
0.035154
0.035342
0.0355299
0.0357175
0.0359044
0.0360902
0.0362745
0.0364567
0.0366362
0.0368121
0.0369836
0.0371495
0.0373086
0.0374593
0.0375998
0.037728
0.0378414
0.0379369
0.0380108
0.0380589
0.0380756
0.0380543
0.0379863
0.0378604
0.0376613
0.037368
0.0369535
0.0363797
0.113451
0.113713
0.11398
0.114249
0.114522
0.114798
0.115078
0.115362
0.115649
0.115941
0.116237
0.116537
0.116842
0.117151
0.117465
0.117784
0.118107
0.118435
0.118769
0.119107
0.119449
0.119797
0.12015
0.120508
0.120871
0.121239
0.121612
0.12199
0.122373
0.12276
0.123153
0.12355
0.123952
0.124358
0.124768
0.125181
0.125598
0.126018
0.126441
0.126865
0.127289
0.127714
0.128137
0.128557
0.128973
0.129382
0.129781
0.130168
0.130538
0.130884
0.941092
0.915544
0.891419
0.868586
0.846892
0.826206
0.806393
0.787391
0.76915
0.751628
0.734787
0.718591
0.703008
0.688009
0.673566
0.659652
0.646242
0.633313
0.620843
0.608811
0.597198
0.585985
0.575154
0.564689
0.554574
0.544794
0.535335
0.526184
0.517329
0.508757
0.500457
0.492419
0.484632
0.477087
0.469776
0.462691
0.455822
0.449165
0.442698
0.436399
0.430259
0.424268
0.418414
0.412685
0.407066
0.401538
0.396075
0.390634
0.385141
0.379454
0.929455
0.887359
0.848051
0.811243
0.776787
0.744518
0.714304
0.685979
0.659388
0.634391
0.610863
0.588687
0.567762
0.547994
0.529297
0.511595
0.494816
0.478897
0.46378
0.449409
0.435735
0.422714
0.410303
0.398464
0.387161
0.376362
0.366035
0.356153
0.346689
0.337618
0.328919
0.320568
0.312546
0.304833
0.297409
0.290259
0.283364
0.276709
0.270291
0.264111
0.258156
0.252416
0.246879
0.241535
0.236374
0.231386
0.226562
0.221889
0.217356
0.212945
0.929404
0.887197
0.847667
0.810679
0.77604
0.743573
0.713106
0.684479
0.657546
0.632176
0.608248
0.585655
0.564298
0.544089
0.524946
0.506797
0.489572
0.473211
0.457657
0.442857
0.428764
0.415334
0.402526
0.390303
0.378629
0.367472
0.356802
0.346591
0.336815
0.327447
0.318467
0.309853
0.301586
0.293648
0.286024
0.278696
0.271651
0.264874
0.258353
0.252076
0.246032
0.24021
0.2346
0.229194
0.223983
0.218959
0.214115
0.209445
0.204942
0.2006
0.929405
0.8875
0.848317
0.81165
0.777288
0.74504
0.714738
0.686227
0.659369
0.63404
0.610127
0.587527
0.566147
0.545902
0.526713
0.508509
0.491225
0.4748
0.459179
0.444311
0.430149
0.416649
0.403771
0.391478
0.379735
0.368511
0.357775
0.3475
0.337661
0.328234
0.319195
0.310525
0.302204
0.294214
0.286539
0.279162
0.272068
0.265245
0.258679
0.252358
0.246271
0.240407
0.234757
0.229312
0.224062
0.219001
0.214121
0.209414
0.204874
0.200494
0.929405
0.887507
0.848309
0.811599
0.777181
0.744876
0.71452
0.685964
0.659072
0.633721
0.609795
0.587191
0.565815
0.54558
0.526406
0.508221
0.490958
0.474556
0.45896
0.444117
0.42998
0.416504
0.403651
0.391382
0.379662
0.368459
0.357745
0.34749
0.337669
0.328259
0.319237
0.310582
0.302275
0.294298
0.286634
0.279267
0.272184
0.265369
0.25881
0.252495
0.246412
0.240552
0.234905
0.22946
0.22421
0.219147
0.214262
0.209548
0.204999
0.200607
0.929405
0.88753
0.848379
0.811728
0.777377
0.745142
0.714854
0.686362
0.659527
0.634224
0.610339
0.587768
0.566417
0.5462
0.527039
0.508861
0.491602
0.4752
0.459599
0.44475
0.430604
0.417119
0.404254
0.391972
0.380238
0.369021
0.358292
0.348021
0.338185
0.328759
0.31972
0.311049
0.302726
0.294732
0.287052
0.279669
0.272569
0.265737
0.259161
0.252829
0.246729
0.240851
0.235185
0.229722
0.224452
0.219367
0.21446
0.209722
0.205147
0.200727
0.929405
0.887535
0.848393
0.811748
0.777397
0.745156
0.714856
0.686348
0.659495
0.634174
0.61027
0.587682
0.566316
0.546086
0.526914
0.508728
0.491461
0.475054
0.459451
0.4446
0.430454
0.41697
0.404106
0.391827
0.380097
0.368884
0.358159
0.347893
0.338062
0.328641
0.319608
0.310942
0.302623
0.294635
0.286959
0.27958
0.272484
0.265656
0.259083
0.252753
0.246655
0.240778
0.235112
0.229647
0.224376
0.219288
0.214376
0.209632
0.205049
0.20062
0.929405
0.887538
0.848403
0.811769
0.77743
0.745202
0.714917
0.686425
0.659589
0.634284
0.610396
0.587824
0.566472
0.546255
0.527094
0.508917
0.491659
0.475259
0.459661
0.444814
0.430671
0.417188
0.404325
0.392045
0.380314
0.369099
0.35837
0.348101
0.338265
0.328838
0.319799
0.311127
0.302802
0.294807
0.287123
0.279736
0.272631
0.265794
0.259211
0.252871
0.246762
0.240873
0.235195
0.229717
0.22443
0.219327
0.214398
0.209636
0.205034
0.200584
0.929405
0.887539
0.848407
0.811776
0.777441
0.745214
0.71493
0.686437
0.659598
0.634289
0.610397
0.587818
0.56646
0.546237
0.52707
0.508887
0.491623
0.475217
0.459615
0.444763
0.430616
0.41713
0.404265
0.391982
0.380249
0.369032
0.358302
0.348032
0.338195
0.328768
0.319729
0.311056
0.302731
0.294735
0.287051
0.279663
0.272557
0.265718
0.259133
0.252791
0.246679
0.240787
0.235104
0.229621
0.224329
0.219219
0.214282
0.209511
0.204899
0.200437
0.929405
0.88754
0.848409
0.81178
0.777446
0.745222
0.714941
0.68645
0.659614
0.634308
0.610419
0.587843
0.566489
0.546268
0.527104
0.508924
0.491663
0.47526
0.459659
0.44481
0.430664
0.417179
0.404314
0.392032
0.380299
0.369081
0.358351
0.348079
0.338241
0.328812
0.319771
0.311096
0.302767
0.294768
0.28708
0.279688
0.272577
0.265733
0.259143
0.252794
0.246675
0.240776
0.235084
0.229592
0.224289
0.219168
0.214218
0.209434
0.204807
0.200329
0.929405
0.88754
0.848409
0.81178
0.777446
0.745222
0.714941
0.68645
0.659614
0.634307
0.610418
0.587843
0.566488
0.546267
0.527103
0.508923
0.491661
0.475258
0.459656
0.444806
0.43066
0.417175
0.404309
0.392026
0.380291
0.369073
0.358341
0.348069
0.338229
0.328799
0.319755
0.311078
0.302747
0.294745
0.287055
0.279659
0.272545
0.265697
0.259102
0.252748
0.246624
0.240717
0.235019
0.229518
0.224207
0.219075
0.214115
0.209319
0.204678
0.200187
0.929405
0.887539
0.848407
0.811776
0.77744
0.745214
0.71493
0.686437
0.659597
0.634288
0.610395
0.587816
0.566458
0.546233
0.527065
0.508882
0.491617
0.47521
0.459606
0.444754
0.430605
0.417118
0.40425
0.391966
0.38023
0.36901
0.358277
0.348004
0.338163
0.328732
0.319687
0.311009
0.302677
0.294674
0.286982
0.279585
0.272469
0.265618
0.259021
0.252664
0.246536
0.240625
0.234922
0.229415
0.224097
0.218958
0.213989
0.209183
0.204532
0.200029
0.929405
0.887538
0.848403
0.811769
0.77743
0.745201
0.714917
0.686424
0.659587
0.634281
0.610393
0.58782
0.566467
0.546249
0.527087
0.508909
0.491649
0.475247
0.459647
0.444797
0.430652
0.417166
0.4043
0.392016
0.38028
0.36906
0.358326
0.34805
0.338208
0.328774
0.319726
0.311045
0.302709
0.294701
0.287004
0.279602
0.27248
0.265623
0.259018
0.252654
0.246517
0.240597
0.234884
0.229367
0.224037
0.218885
0.213903
0.209083
0.204416
0.199896
0.929405
0.887535
0.848393
0.811748
0.777397
0.745155
0.714855
0.686346
0.659493
0.634171
0.610266
0.587677
0.56631
0.546079
0.526905
0.508717
0.491448
0.475039
0.459433
0.444579
0.43043
0.416941
0.404074
0.39179
0.380054
0.368835
0.358103
0.34783
0.337989
0.328558
0.319514
0.310835
0.302502
0.294498
0.286803
0.279404
0.272284
0.265429
0.258827
0.252463
0.246328
0.240408
0.234694
0.229176
0.223844
0.218689
0.213703
0.208877
0.204203
0.199675
0.929405
0.88753
0.848379
0.811728
0.777377
0.745141
0.714853
0.68636
0.659524
0.63422
0.610333
0.587761
0.566409
0.54619
0.527027
0.508846
0.491584
0.475179
0.459575
0.444721
0.430571
0.41708
0.404209
0.391921
0.38018
0.368954
0.358215
0.347935
0.338087
0.328647
0.319594
0.310907
0.302565
0.294551
0.286848
0.279438
0.272308
0.265443
0.25883
0.252455
0.246308
0.240376
0.23465
0.229118
0.223772
0.218601
0.213599
0.208755
0.204064
0.199515
0.929405
0.887507
0.848309
0.811599
0.777181
0.744875
0.714518
0.685961
0.659069
0.633716
0.609789
0.587184
0.565806
0.545569
0.526392
0.508204
0.490939
0.474533
0.458933
0.444085
0.429943
0.416463
0.403603
0.391326
0.379598
0.368387
0.357662
0.347395
0.337561
0.328136
0.319097
0.310423
0.302094
0.294093
0.286401
0.279004
0.271885
0.26503
0.258427
0.252061
0.245922
0.239998
0.234278
0.228752
0.22341
0.218243
0.213242
0.2084
0.203707
0.199157
0.929405
0.8875
0.848317
0.811649
0.777287
0.745039
0.714736
0.686224
0.659365
0.634035
0.61012
0.587519
0.566136
0.545888
0.526696
0.508489
0.491201
0.474772
0.459147
0.444273
0.430105
0.416598
0.403712
0.391411
0.379658
0.368423
0.357676
0.347387
0.337533
0.328088
0.319031
0.310339
0.301994
0.293978
0.286272
0.278861
0.271729
0.264863
0.258248
0.251873
0.245724
0.239792
0.234064
0.228532
0.223185
0.218015
0.213013
0.208172
0.203484
0.198945
0.929404
0.887197
0.847667
0.810679
0.77604
0.743571
0.713104
0.684476
0.657542
0.63217
0.608241
0.585646
0.564287
0.544076
0.524931
0.506778
0.48955
0.473185
0.457627
0.442823
0.428726
0.41529
0.402477
0.390247
0.378566
0.367402
0.356725
0.346506
0.336721
0.327344
0.318354
0.30973
0.301452
0.293502
0.285862
0.278518
0.271455
0.264658
0.258114
0.251812
0.245741
0.239889
0.234249
0.22881
0.223567
0.218511
0.21364
0.208951
0.204446
0.200135
0.929455
0.887359
0.848051
0.811243
0.776787
0.744517
0.714303
0.685978
0.659388
0.634391
0.610863
0.588689
0.567765
0.547998
0.529303
0.511603
0.494828
0.478914
0.463801
0.449436
0.43577
0.422758
0.410359
0.398534
0.387248
0.376469
0.366167
0.356314
0.346885
0.337857
0.329208
0.320917
0.312966
0.305339
0.298019
0.290993
0.284246
0.277768
0.271548
0.265577
0.259845
0.254348
0.249079
0.244035
0.239217
0.234627
0.230274
0.22618
0.222386
0.218983
0.941092
0.915544
0.891419
0.868586
0.846892
0.826206
0.806392
0.787389
0.769146
0.751622
0.734778
0.71858
0.702994
0.687991
0.673543
0.659623
0.646207
0.63327
0.620792
0.60875
0.597126
0.585899
0.575053
0.564571
0.554436
0.544633
0.535148
0.525967
0.517077
0.508465
0.50012
0.492029
0.484183
0.476569
0.469179
0.462003
0.45503
0.448252
0.44166
0.435245
0.428998
0.422911
0.416975
0.411181
0.40552
0.399983
0.39456
0.389238
0.384005
0.37884
0.172114
0.0506564
0.0302736
0.0280017
0.026856
0.0264875
0.0256968
0.0252158
0.0245535
0.0240046
0.023448
0.0228471
0.0223885
0.0217323
0.0213704
0.0206369
0.0205643
0.0213244
0.0346539
0.121194
0.172528
0.0509014
0.0304901
0.0282161
0.027069
0.0266961
0.0259029
0.0254176
0.0247525
0.0241995
0.0236401
0.0230352
0.0225738
0.0219137
0.0215489
0.0208115
0.020737
0.0215004
0.0348782
0.12153
0.172946
0.0511389
0.0307078
0.028433
0.0272846
0.0269073
0.0261115
0.0256219
0.024954
0.0243969
0.0238346
0.0232258
0.0227614
0.0220975
0.0217298
0.0209885
0.020912
0.0216785
0.0351014
0.121835
0.173369
0.0513746
0.0309275
0.0286524
0.0275027
0.0271211
0.0263228
0.0258287
0.0251581
0.0245968
0.0240316
0.0234188
0.0229516
0.0222838
0.0219131
0.0211679
0.0210893
0.0218582
0.03531
0.122146
0.173796
0.0516108
0.0311494
0.0288745
0.0277236
0.0273375
0.0265367
0.0260381
0.0253648
0.0247993
0.0242312
0.0236144
0.0231442
0.0224725
0.0220988
0.0213499
0.0212688
0.0220384
0.0355138
0.122461
0.174227
0.0518487
0.0313738
0.0290993
0.0279472
0.0275566
0.0267533
0.0262502
0.0255741
0.0250043
0.0244334
0.0238125
0.0233393
0.0226638
0.022287
0.0215343
0.0214507
0.0222199
0.035716
0.122781
0.174663
0.0520887
0.0316008
0.0293269
0.0281736
0.0277784
0.0269726
0.0264649
0.0257861
0.025212
0.0246382
0.0240133
0.023537
0.0228577
0.0224777
0.0217212
0.021635
0.0224031
0.0359182
0.123105
0.175103
0.0523313
0.0318307
0.0295572
0.0284028
0.028003
0.0271947
0.0266824
0.0260009
0.0254224
0.0248457
0.0242166
0.0237373
0.0230542
0.022671
0.0219106
0.0218217
0.0225882
0.0361214
0.123434
0.175548
0.0525765
0.0320634
0.0297904
0.0286349
0.0282304
0.0274196
0.0269026
0.0262184
0.0256355
0.0250558
0.0244227
0.0239403
0.0232533
0.022867
0.0221026
0.0220109
0.0227755
0.036326
0.123767
0.175997
0.0528246
0.0322991
0.0300265
0.02887
0.0284607
0.0276474
0.0271257
0.0264387
0.0258514
0.0252688
0.0246315
0.024146
0.0234551
0.0230655
0.0222972
0.0222026
0.022965
0.0365325
0.124106
0.17645
0.0530756
0.0325378
0.0302655
0.029108
0.0286939
0.0278781
0.0273516
0.0266619
0.0260702
0.0254845
0.0248431
0.0243544
0.0236596
0.0232668
0.0224945
0.0223969
0.0231569
0.0367411
0.124448
0.176908
0.0533297
0.0327796
0.0305076
0.029349
0.02893
0.0281118
0.0275805
0.0268879
0.0262917
0.0257031
0.0250575
0.0245656
0.0238669
0.0234708
0.0226944
0.0225938
0.0233513
0.0369521
0.124796
0.177371
0.0535867
0.0330246
0.0307527
0.0295931
0.0291692
0.0283485
0.0278123
0.027117
0.0265162
0.0259246
0.0252747
0.0247797
0.0240771
0.0236775
0.0228971
0.0227935
0.0235483
0.0371656
0.125148
0.177839
0.0538469
0.0332727
0.0310008
0.0298404
0.0294114
0.0285883
0.0280471
0.027349
0.0267437
0.026149
0.0254949
0.0249966
0.02429
0.0238871
0.0231025
0.0229958
0.023748
0.0373817
0.125505
0.178311
0.0541101
0.033524
0.0312522
0.0300908
0.0296567
0.0288311
0.028285
0.0275841
0.0269742
0.0263764
0.025718
0.0252165
0.0245059
0.0240996
0.0233108
0.023201
0.0239504
0.0376006
0.125867
0.178788
0.0543765
0.0337786
0.0315067
0.0303444
0.0299052
0.0290772
0.028526
0.0278223
0.0272078
0.0266068
0.0259442
0.0254394
0.0247247
0.0243149
0.023522
0.023409
0.0241555
0.0378223
0.126234
0.179271
0.054646
0.0340365
0.0317645
0.0306014
0.0301569
0.0293265
0.0287702
0.0280637
0.0274444
0.0268404
0.0261734
0.0256652
0.0249465
0.0245332
0.0237361
0.0236198
0.0243636
0.038047
0.126605
0.179758
0.0549188
0.0342977
0.0320256
0.0308617
0.0304119
0.029579
0.0290176
0.0283083
0.0276843
0.0270771
0.0264058
0.0258942
0.0251714
0.0247546
0.0239532
0.0238336
0.0245745
0.0382747
0.126982
0.18025
0.0551948
0.0345624
0.0322901
0.0311253
0.0306702
0.0298349
0.0292683
0.0285561
0.0279274
0.027317
0.0266413
0.0261264
0.0253994
0.024979
0.0241734
0.0240504
0.0247884
0.0385055
0.127364
0.180747
0.0554741
0.0348306
0.0325579
0.0313924
0.0309318
0.0300942
0.0295223
0.0288073
0.0281737
0.0275601
0.02688
0.0263617
0.0256306
0.0252065
0.0243966
0.0242703
0.0250053
0.0387395
0.127752
0.18125
0.0557567
0.0351022
0.0328293
0.0316631
0.0311969
0.0303569
0.0297797
0.0290619
0.0284234
0.0278066
0.0271221
0.0266002
0.025865
0.0254372
0.0246231
0.0244932
0.0252254
0.0389767
0.128144
0.181758
0.0560426
0.0353775
0.0331041
0.0319372
0.0314656
0.0306231
0.0300406
0.0293199
0.0286765
0.0280565
0.0273675
0.0268421
0.0261026
0.0256712
0.0248527
0.0247193
0.0254486
0.0392173
0.128542
0.182271
0.0563319
0.0356563
0.0333826
0.032215
0.0317377
0.0308929
0.0303049
0.0295814
0.0289331
0.0283097
0.0276162
0.0270873
0.0263437
0.0259084
0.0250856
0.0249487
0.025675
0.0394612
0.128946
0.182789
0.0566246
0.0359389
0.0336647
0.0324965
0.0320135
0.0311663
0.0305729
0.0298464
0.0291931
0.0285665
0.0278685
0.027336
0.0265881
0.026149
0.0253218
0.0251813
0.0259047
0.0397086
0.129355
0.183313
0.0569208
0.0362252
0.0339505
0.0327818
0.032293
0.0314434
0.0308445
0.0301151
0.0294568
0.0288268
0.0281243
0.0275881
0.0268359
0.026393
0.0255615
0.0254172
0.0261378
0.0399596
0.129769
0.183842
0.0572206
0.0365153
0.0342401
0.0330709
0.0325762
0.0317243
0.0311197
0.0303874
0.0297241
0.0290908
0.0283837
0.0278438
0.0270873
0.0266405
0.0258045
0.0256566
0.0263743
0.0402141
0.13019
0.184377
0.0575239
0.0368093
0.0345335
0.0333638
0.0328632
0.032009
0.0313988
0.0306635
0.0299951
0.0293584
0.0286467
0.0281032
0.0273423
0.0268916
0.0260512
0.0258995
0.0266143
0.0404723
0.130616
0.184917
0.0578308
0.0371072
0.0348308
0.0336607
0.0331541
0.0322975
0.0316817
0.0309435
0.0302699
0.0296298
0.0289135
0.0283662
0.027601
0.0271463
0.0263014
0.0261458
0.0268578
0.0407343
0.131048
0.185463
0.0581413
0.0374091
0.0351321
0.0339616
0.033449
0.03259
0.0319685
0.0312273
0.0305486
0.029905
0.029184
0.0286329
0.0278634
0.0274046
0.0265553
0.0263958
0.0271049
0.0410001
0.131487
0.186015
0.0584556
0.037715
0.0354374
0.0342666
0.0337478
0.0328865
0.0322592
0.0315151
0.0308311
0.0301841
0.0294584
0.0289035
0.0281296
0.0276667
0.0268129
0.0266495
0.0273557
0.0412697
0.131931
0.186573
0.0587737
0.0380251
0.0357469
0.0345757
0.0340508
0.0331872
0.032554
0.0318069
0.0311177
0.0304671
0.0297368
0.029178
0.0283997
0.0279326
0.0270743
0.0269069
0.0276103
0.0415433
0.132382
0.187136
0.0590956
0.0383394
0.0360605
0.0348891
0.0343579
0.033492
0.0328529
0.0321028
0.0314083
0.0307542
0.0300192
0.0294565
0.0286737
0.0282024
0.0273396
0.0271681
0.0278688
0.041821
0.132839
0.187706
0.0594213
0.038658
0.0363784
0.0352068
0.0346693
0.033801
0.033156
0.0324029
0.0317031
0.0310455
0.0303056
0.029739
0.0289517
0.0284762
0.0276088
0.0274332
0.0281311
0.0421028
0.133302
0.188281
0.0597511
0.038981
0.0367007
0.0355289
0.034985
0.0341144
0.0334634
0.0327073
0.0320021
0.0313409
0.0305962
0.0300256
0.0292339
0.0287541
0.0278821
0.0277023
0.0283974
0.0423888
0.133772
0.188863
0.0600848
0.0393084
0.0370273
0.0358554
0.035305
0.0344322
0.0337752
0.033016
0.0323054
0.0316405
0.0308911
0.0303164
0.0295202
0.029036
0.0281594
0.0279754
0.0286678
0.0426791
0.134249
0.18945
0.0604227
0.0396403
0.0373585
0.0361865
0.0356296
0.0347544
0.0340914
0.0333291
0.0326131
0.0319446
0.0311903
0.0306115
0.0298108
0.0293222
0.028441
0.0282527
0.0289424
0.0429737
0.134732
0.190044
0.0607647
0.0399768
0.0376942
0.0365222
0.0359587
0.0350813
0.0344121
0.0336467
0.0329253
0.032253
0.0314939
0.030911
0.0301057
0.0296127
0.0287269
0.0285342
0.0292212
0.0432728
0.135222
0.190645
0.0611109
0.0403179
0.0380347
0.0368627
0.0362925
0.0354128
0.0347374
0.0339689
0.033242
0.032566
0.031802
0.0312149
0.0304051
0.0299076
0.0290171
0.02882
0.0295044
0.0435765
0.13572
0.191251
0.0614614
0.0406639
0.0383798
0.0372079
0.036631
0.035749
0.0350674
0.0342958
0.0335633
0.0328836
0.0321147
0.0315234
0.030709
0.0302069
0.0293118
0.0291102
0.0297919
0.0438847
0.136224
0.191865
0.0618162
0.0410147
0.0387298
0.0375581
0.0369743
0.0360901
0.0354021
0.0346275
0.0338894
0.0332059
0.0324321
0.0318365
0.0310175
0.0305108
0.029611
0.0294048
0.030084
0.0441978
0.136736
0.192484
0.0621755
0.0413704
0.0390847
0.0379132
0.0373225
0.036436
0.0357418
0.034964
0.0342203
0.033533
0.0327543
0.0321544
0.0313307
0.0308193
0.0299148
0.0297041
0.0303806
0.0445156
0.137255
0.193111
0.0625394
0.0417311
0.0394447
0.0382734
0.0376758
0.0367871
0.0360864
0.0353055
0.0345562
0.033865
0.0330813
0.032477
0.0316487
0.0311326
0.0302234
0.0300079
0.030682
0.0448384
0.137782
0.193744
0.0629078
0.042097
0.0398097
0.0386387
0.0380341
0.0371432
0.0364361
0.035652
0.034897
0.034202
0.0334132
0.0328046
0.0319716
0.0314507
0.0305368
0.0303166
0.0309881
0.0451662
0.138317
0.194384
0.0632809
0.0424681
0.04018
0.0390094
0.0383977
0.0375045
0.036791
0.0360037
0.035243
0.0345441
0.0337503
0.0331372
0.0322995
0.0317738
0.0308551
0.0306301
0.0312991
0.0454991
0.138859
0.195031
0.0636587
0.0428446
0.0405556
0.0393854
0.0387666
0.0378712
0.0371511
0.0363606
0.0355942
0.0348913
0.0340925
0.0334749
0.0326326
0.0321019
0.0311784
0.0309486
0.0316152
0.0458372
0.139409
0.195685
0.0640415
0.0432264
0.0409366
0.0397669
0.0391409
0.0382432
0.0375166
0.0367229
0.0359507
0.0352439
0.03444
0.0338179
0.0329708
0.0324351
0.0315069
0.0312721
0.0319363
0.0461807
0.139967
0.196346
0.0644291
0.0436138
0.0413232
0.0401539
0.0395207
0.0386208
0.0378876
0.0370907
0.0363127
0.0356018
0.0347928
0.0341661
0.0333143
0.0327737
0.0318407
0.0316008
0.0322627
0.0465297
0.140534
0.197014
0.0648218
0.0440068
0.0417154
0.0405467
0.0399061
0.039004
0.0382642
0.037464
0.0366801
0.0359652
0.0351512
0.0345199
0.0336633
0.0331176
0.0321797
0.0319348
0.0325943
0.0468843
0.141109
0.197689
0.0652196
0.0444055
0.0421133
0.0409452
0.0402972
0.039393
0.0386465
0.037843
0.0370533
0.0363343
0.0355151
0.0348791
0.0340178
0.0334669
0.0325243
0.0322742
0.0329315
0.0472445
0.141693
0.198372
0.0656226
0.0448101
0.042517
0.0413497
0.0406942
0.0397878
0.0390345
0.0382279
0.0374322
0.0367091
0.0358848
0.0352441
0.0343779
0.0338219
0.0328744
0.0326192
0.0332742
0.0476106
0.142285
0.199063
0.0660309
0.0452207
0.0429268
0.0417602
0.0410972
0.0401887
0.0394286