/*--------------------------------*- C++ -*----------------------------------*\
  =========                 |
  \\      /  F ield         | OpenFOAM: The Open Source CFD Toolbox
   \\    /   O peration     | Website:  https://openfoam.org
    \\  /    A nd           | Version:  8
     \\/     M anipulation  |
\*---------------------------------------------------------------------------*/
FoamFile
{
    version     2.0;
    format      ascii;
    class       volScalarField;
    location    "1000";
    object      p;
}
// * * * * * * * * * * * * * * * * * * * * * * * * * * * * * * * * * * * * * //

dimensions      [1 -1 -2 0 0 0 0];

internalField   nonuniform List<scalar> 
8400
(
11664
11682.6
11698.3
11713.6
11728.6
11743.6
11758.8
11774.3
11790.1
11806.3
11823.2
11840.7
11859
11878.3
11898.6
11920.3
11943.5
11968.5
11995.5
12024.9
12057
12092.3
12131.4
12174.7
12223.2
12277.5
12338.4
12406.8
12483.8
12571.1
12670.1
12782.7
12911
13057.5
13225
13416.9
13637
13889.7
14180.4
14515.1
14901.1
15346.7
15862.8
16463.2
17164.3
17980.3
18926.3
20063
21557.1
23502.8
11555.4
11569.2
11582.8
11596.9
11611
11625.2
11639.6
11654.1
11669.1
11684.4
11700.2
11716.6
11733.7
11751.7
11770.7
11790.9
11812.5
11835.6
11860.7
11887.9
11917.6
11950.3
11986.4
12026.4
12071
12120.8
12176.8
12240
12311.3
12392.2
12484
12588.5
12707.7
12843.8
12999.6
13178.1
13382.7
13617.6
13887.4
14197.5
14554.1
14964.3
15436.6
15981.4
16610
17330.8
18151
19101.4
20265.4
21693.7
11488.9
11507.1
11523.2
11538.5
11553.6
11568.8
11584.3
11600.1
11616.3
11633
11650.3
11668.3
11687.1
11706.8
11727.7
11749.9
11773.5
11798.9
11826.3
11856
11888.4
11923.9
11963
12006.1
12053.8
12106.9
12166.2
12232.7
12307.6
12392.1
12487.6
12596
12719.1
12859.3
13019.1
13201.6
13410.3
13649.2
13922.9
14236.6
14596.3
15008.9
15482.2
16025.1
16647
17354.7
18154.2
19060.3
20103.6
21279.4
11354.1
11358.5
11368.4
11380.4
11393
11406.1
11419.3
11432.8
11446.6
11460.8
11475.3
11490.4
11506
11522.3
11539.5
11557.7
11577
11597.7
11619.9
11643.9
11670
11698.7
11730.3
11765.3
11804.3
11847.9
11896.8
11951.8
12013.9
12084.3
12164.2
12255.1
12358.8
12477.3
12612.9
12768.2
12946.3
13150.6
13385.3
13654.8
13964.2
14319.4
14726.9
15193.9
15727.7
16334.5
17019.7
17792.4
18667.4
19641.1
11309
11330.6
11347.6
11362.6
11377.3
11392.2
11407.2
11422.6
11438.3
11454.5
11471.2
11488.5
11506.4
11525.2
11544.9
11565.7
11587.7
11611.1
11636.2
11663.2
11692.2
11723.7
11758
11795.6
11837
11882.7
11933.6
11990.2
12053.6
12124.7
12204.7
12294.9
12397
12512.7
12644
12793.3
12963.1
13156.5
13376.9
13628
13913.8
14239
14608.2
15026.3
15498
16026.4
16613
17259.8
17973.2
18751.6
11150.6
11151
11159
11169.9
11181.7
11193.9
11206.4
11219.1
11232.1
11245.4
11259
11273
11287.5
11302.6
11318.3
11334.8
11352.2
11370.7
11390.5
11411.7
11434.7
11459.7
11486.9
11516.9
11549.9
11586.4
11627.2
11672.8
11723.9
11781.5
11846.6
11920.3
12004
12099.3
12208
12332
12473.7
12635.8
12821.1
13032.9
13274.8
13550.6
13864.4
14220
14621.2
15070.2
15567.1
16111.1
16704.1
17346.8
11121.1
11145
11162.2
11176.7
11190.6
11204.5
11218.5
11232.7
11247.1
11261.9
11277
11292.4
11308.4
11324.8
11341.9
11359.6
11378
11397.4
11417.8
11439.5
11462.5
11487.2
11513.7
11542.4
11573.7
11607.9
11645.4
11686.8
11732.8
11783.9
11840.9
11904.9
11976.8
12057.9
12149.6
12253.3
12370.9
12504.5
12656.2
12828.5
13024.2
13246
13496.9
13779.8
14097.3
14450.9
14840.4
15264.4
15724.6
16223.3
10950.9
10949.4
10956.5
10966.8
10978.2
10989.9
11001.9
11014.1
11026.5
11039.1
11052
11065.2
11078.7
11092.6
11107.1
11122
11137.6
11153.8
11171
11189
11208.2
11228.6
11250.5
11274.1
11299.6
11327.4
11357.8
11391.2
11428.1
11469
11514.5
11565.4
11622.4
11686.5
11758.7
11840.3
11932.7
12037.3
12155.8
12290.2
12442.5
12614.8
12809.1
13027.7
13272.2
13543.8
13842.1
14165.9
14516.7
14897.6
10928.1
10952.4
10969.1
10982.8
10995.7
11008.3
11021.1
11033.8
11046.7
11059.7
11072.8
11086.1
11099.5
11113.1
11126.9
11140.9
11155.3
11170.1
11185.3
11200.9
11217.2
11234.1
11251.9
11270.6
11290.4
11311.4
11334
11358.3
11384.6
11413.2
11444.7
11479.2
11517.5
11560.1
11607.7
11661
11720.9
11788.5
11864.8
11951.3
12049.1
12159.8
12284.9
12425.9
12584.2
12761
12956.2
13169.5
13402.9
13660.2
10754.6
10752.3
10758.9
10768.7
10779.6
10790.8
10802.1
10813.7
10825.3
10837
10848.9
10860.9
10873.1
10885.4
10897.9
10910.6
10923.5
10936.6
10950
10963.8
10977.9
10992.3
11007.3
11022.7
11038.7
11055.4
11072.8
11091
11110.3
11130.6
11152.2
11175.2
11199.8
11226.3
11255
11286.2
11320.2
11357.6
11398.7
11444.1
11494.7
11551
11613.9
11684.4
11763.5
11852.2
11951.1
12061.1
12184.6
12326.3
10732
10755.6
10771.5
10784.4
10796.3
10808
10819.7
10831.2
10842.8
10854.3
10865.7
10877.1
10888.4
10899.6
10910.6
10921.6
10932.4
10943
10953.4
10963.6
10973.6
10983.4
10992.8
11001.9
11010.6
11019
11026.8
11034.2
11041
11047.1
11052.6
11057.3
11061.1
11063.9
11065.7
11066.4
11065.9
11064
11060.8
11056.3
11050.4
11043.3
11035.4
11027
11018.9
11012.1
11008
11008.5
11017.2
11039.3
10560.6
10558.2
10564.3
10573.4
10583.5
10593.8
10604.2
10614.7
10625.1
10635.5
10645.8
10656
10666.1
10676
10685.8
10695.3
10704.7
10713.7
10722.3
10730.5
10738.3
10745.5
10752
10757.8
10762.6
10766.4
10769
10770.2
10769.7
10767.2
10762.6
10755.4
10745.1
10731.5
10713.8
10691.7
10664.3
10631.1
10591.3
10544
10488.6
10424.4
10350.7
10267.4
10174.7
10073.3
9964.89
9852.53
9740.72
9636.71
10533.5
10555.7
10570.8
10583
10594.3
10605.4
10616.4
10627.3
10638
10648.5
10658.9
10669
10678.8
10688.3
10697.4
10706
10714.1
10721.5
10728.2
10734.1
10739
10742.7
10745.2
10746.1
10745.3
10742.4
10737.3
10729.4
10718.4
10703.9
10685.2
10661.8
10632.9
10597.7
10555.4
10504.8
10444.8
10374.2
10291.6
10195.6
10084.6
9957.24
9812.28
9648.8
9466.52
9266
9049.3
8820.53
8586.24
8355.63
10369
10367.1
10372.8
10381.2
10390.3
10399.6
10408.9
10418.1
10427.1
10435.8
10444.3
10452.4
10460.1
10467.3
10473.9
10479.9
10485.2
10489.6
10493
10495.3
10496.2
10495.5
10493.1
10488.6
10481.8
10472.2
10459.4
10443
10422.4
10396.8
10365.7
10328.1
10283
10229.3
10165.7
10090.7
10002.7
9899.81
9779.92
9640.78
9479.96
9294.92
9083.16
8842.49
8571.24
8268.7
7935.78
7576.31
7198.19
6815.56
10331.6
10351.6
10365.6
10377.2
10388.2
10398.9
10409.5
10419.9
10430
10440
10449.5
10458.8
10467.5
10475.8
10483.4
10490.2
10496.3
10501.3
10505.1
10507.6
10508.5
10507.5
10504.4
10498.8
10490.3
10478.5
10462.7
10442.4
10416.9
10385.2
10346.5
10299.6
10243.1
10175.7
10095.6
10000.7
9888.93
9757.65
9603.99
9424.77
9216.52
8975.48
8697.88
8380.16
8019.5
7614.08
7163.8
6672.4
6151.09
5620.29
10180.7
10180.5
10186.4
10194.5
10203.1
10211.7
10220.2
10228.4
10236.2
10243.6
10250.6
10256.9
10262.6
10267.6
10271.6
10274.6
10276.4
10276.9
10275.7
10272.8
10267.7
10260.2
10250
10236.5
10219.3
10197.8
10171.3
10139.1
10100.4
10054
9998.8
9933.49
9856.46
9765.93
9659.8
9535.71
9390.92
9222.32
9026.35
8799.06
8535.97
8232.18
7882.37
7481.2
7023.84
6505.9
5922.98
5272.91
4564.59
3829
10124
10141.2
10153.9
10165.1
10175.6
10185.9
10196
10205.8
10215.3
10224.4
10233.2
10241.4
10249
10255.9
10262
10267.1
10271.1
10273.8
10275
10274.4
10271.7
10266.6
10258.7
10247.6
10232.6
10213.3
10188.9
10158.6
10121.4
10076.2
10021.8
9956.64
9878.99
9786.86
9677.91
9549.43
9398.26
9220.77
9012.69
8769.13
8484.44
8152.06
7764.45
7313.35
6790.54
6187.58
5493.58
4696.83
3803.87
2865.29
9993.95
9998.33
10006.1
10014.9
10023.7
10032.3
10040.7
10048.6
10056.1
10063.1
10069.4
10075.1
10079.9
10083.8
10086.6
10088.1
10088.2
10086.5
10083
10077.1
10068.7
10057.3
10042.4
10023.4
9999.85
9970.91
9935.75
9893.41
9842.76
9782.48
9711.04
9626.68
9527.34
9410.61
9273.7
9113.34
8925.71
8706.36
8450.05
8150.68
7801.09
7392.88
6916.06
6359.13
5710.3
4958.18
4087.35
3072.55
1900.75
635.947
9907.56
9926.29
9938.35
9949.07
9959.17
9968.88
9978.25
9987.27
9995.87
10004
10011.6
10018.6
10024.8
10030.1
10034.5
10037.7
10039.5
10039.7
10038.1
10034.4
10028.2
10019.2
10006.8
9990.52
9969.81
9943.91
9912.01
9873.14
9826.19
9769.87
9702.69
9622.91
9528.49
9417.09
9285.96
9131.89
8951.13
8739.26
8491.1
8200.56
7860.44
7462.17
6995.11
6446.18
5801.34
5047.84
4166.27
3102.77
1771.38
197.391
9807.86
9817.39
9827.08
9836.79
9846.24
9855.38
9864.15
9872.52
9880.42
9887.79
9894.54
9900.59
9905.81
9910.07
9913.22
9915.08
9915.46
9914.1
9910.74
9905.06
9896.7
9885.22
9870.15
9850.9
9826.82
9797.15
9760.99
9717.31
9664.93
9602.43
9528.22
9440.39
9336.74
9214.7
9071.24
8902.81
8705.21
8473.45
8201.58
7882.43
7507.36
7065.67
6543.48
5922.45
5180.69
4295.5
3231.29
1883.99
44.2323
-2332.56
19429.6
11267.3
7234.28
5715.94
4881.57
4272.72
3849.02
3564.7
3364.51
3213.4
3093.68
2995.47
2912.23
2839.47
2774.14
2714.12
2657.85
2604.17
2552.11
2500.91
2449.86
2398.34
2345.71
2291.36
2234.63
2174.8
2111.09
2042.62
1968.4
1887.24
1797.83
1698.66
1587.97
1463.79
1323.6
1164.48
982.997
775.14
536.089
259.907
-60.5584
-433.923
-870.856
-1384.85
-1993.41
-2719.98
-3597.52
-4675.28
-6033.67
-7809.36
-6203.01
-1613.86
-112.15
454.144
888.449
1214.04
1438.4
1598.48
1717.33
1806.15
1872.2
1920.92
1956.23
1980.83
1996.68
2005.21
2007.47
2004.24
1996.07
1983.34
1966.26
1944.92
1919.31
1889.28
1854.57
1814.82
1769.51
1718.03
1659.56
1593.07
1517.34
1430.98
1332.28
1219.2
1089.52
940.536
768.978
570.932
341.809
76.1768
-232.635
-592.798
-1014.3
-1509.47
-2093.75
-2786.71
-3613.29
-4605
-5799.38
-7230.31
1028.84
3198.86
4381.99
4484.65
4328.01
4156.37
3970.06
3778.84
3600.45
3441.32
3300.52
3175.57
3064.08
2963.84
2872.82
2789.28
2711.73
2638.9
2569.73
2503.25
2438.62
2375.04
2311.78
2248.1
2183.25
2116.47
2046.94
1973.83
1896.18
1812.92
1722.8
1624.31
1515.71
1394.91
1259.61
1107.21
934.573
738.019
513.151
254.813
-43.0587
-387.716
-787.833
-1253.78
-1797.97
-2435.09
-3182.15
-4057.7
-5078.96
-6254.22
1279.87
1688.94
1880.41
1808.76
1706.54
1663.15
1651.53
1649.28
1653.53
1663.39
1676.01
1688.77
1700.15
1709.3
1715.71
1719.07
1719.23
1716.09
1709.62
1699.76
1686.46
1669.61
1649.07
1624.61
1595.93
1562.62
1524.21
1480.06
1429.48
1371.74
1305.89
1230.71
1144.79
1046.51
933.854
804.455
655.544
483.866
285.598
56.2804
-209.291
-517.214
-874.588
-1289.58
-1771.4
-2330.09
-2975.81
-3717.27
-4558.33
-5492.18
1721.3
1970.39
2287.02
2518.69
2658.57
2747.84
2800.16
2819.09
2812.71
2789.74
2755.99
2715.05
2669.43
2620.87
2570.58
2519.31
2467.49
2415.36
2363.01
2310.38
2257.34
2203.71
2149.2
2093.53
2036.32
1977.12
1915.34
1850.28
1781.15
1707.07
1627.05
1539.95
1444.47
1339.09
1221.97
1090.99
943.726
777.331
588.523
373.511
127.947
-153.13
-475.303
-844.714
-1267.88
-1751.28
-2300.55
-2919.01
-3605.31
-4350.67
1827.43
1913.05
2021.17
2083.2
2085.85
2057.74
2019.32
1977.04
1933.9
1892.63
1854.68
1820.26
1788.98
1760.32
1733.71
1708.58
1684.39
1660.66
1636.96
1612.87
1588.02
1562.04
1534.56
1505.19
1473.57
1439.3
1401.92
1360.9
1315.66
1265.46
1209.48
1146.77
1076.26
996.671
906.502
804.027
687.249
553.862
401.222
226.319
25.7597
-204.223
-467.721
-769.022
-1112.35
-1501.43
-1938.7
-2424.23
-2954
-3518.46
1842.97
1887.36
1959.08
2031.3
2086.64
2127.54
2159.14
2182.13
2196.18
2202.01
2200.79
2193.54
2181.07
2164.11
2143.32
2119.25
2092.37
2063.03
2031.53
1998.07
1962.79
1925.76
1886.96
1846.29
1803.61
1758.7
1711.33
1661.17
1607.81
1550.71
1489.27
1422.77
1350.37
1271.07
1183.72
1086.98
979.292
858.889
723.757
571.634
400.016
206.192
-12.6842
-259.447
-536.676
-846.314
-1189.1
-1563.79
-1966.25
-2389.14
1803.9
1826.1
1863.88
1903.87
1932.02
1944.91
1945.05
1935.1
1917.05
1892.96
1864.8
1834.16
1802.15
1769.55
1736.87
1704.43
1672.37
1640.74
1609.49
1578.53
1547.7
1516.84
1485.72
1454.13
1421.81
1388.45
1353.75
1317.37
1278.89
1237.88
1193.82
1146.15
1094.2
1037.24
974.418
904.749
827.132
740.32
642.922
533.403
410.107
271.295
115.222
-59.7305
-254.864
-470.866
-707.418
-962.695
-1232.74
-1511.41
1737.74
1751.34
1776.4
1807.03
1834.52
1854.8
1867.99
1875.15
1876.99
1874.15
1867.29
1857.04
1843.91
1828.27
1810.46
1790.73
1769.31
1746.38
1722.07
1696.5
1669.76
1641.89
1612.94
1582.91
1551.78
1519.47
1485.91
1450.98
1414.53
1376.34
1336.19
1293.77
1248.76
1200.73
1149.24
1093.73
1033.59
968.138
896.61
818.182
731.99
637.161
532.878
418.468
293.535
158.143
13.0429
-140.064
-298.269
-457.712
1654.28
1664.37
1683.55
1708.09
1731.01
1747.7
1756.96
1759.16
1754.99
1745.27
1730.95
1713.01
1692.31
1669.55
1645.32
1620.05
1594.09
1567.68
1541
1514.17
1487.25
1460.28
1433.29
1406.25
1379.16
1351.96
1324.61
1297.05
1269.21
1241
1212.33
1183.1
1153.19
1122.48
1090.81
1058.04
1024
988.52
951.426
912.557
871.778
829.002
784.226
737.577
689.373
640.204
591.023
543.252
498.898
460.495
1557.87
1567.99
1587.21
1611.84
1634.87
1651.7
1661.15
1663.58
1659.7
1650.33
1636.43
1618.98
1598.87
1576.82
1553.42
1529.13
1504.31
1479.24
1454.13
1429.11
1404.32
1379.84
1355.73
1332.06
1308.87
1286.22
1264.15
1242.74
1222.04
1202.15
1183.16
1165.18
1148.37
1132.89
1118.94
1106.77
1096.66
1088.96
1084.07
1082.47
1084.72
1091.45
1103.41
1121.42
1146.41
1179.33
1221.19
1272.97
1335.54
1409.63
1448.5
1462.17
1487.37
1518.23
1546.05
1566.78
1580.52
1588.36
1591.02
1589.15
1583.46
1574.59
1563.07
1549.33
1533.74
1516.63
1498.26
1478.91
1458.79
1438.14
1417.16
1396.04
1375
1354.22
1333.92
1314.3
1295.58
1278.03
1261.89
1247.47
1235.1
1225.16
1218.07
1214.33
1214.52
1219.27
1229.34
1245.6
1269.01
1300.7
1341.91
1393.99
1458.42
1536.71
1630.38
1740.77
1868.97
2015.52
2180.26
2362.37
1321.74
1344.05
1382.06
1422.43
1451.13
1464.74
1465.8
1456.98
1440.31
1417.88
1391.7
1363.41
1334.17
1304.83
1275.99
1248.05
1221.27
1195.82
1171.82
1149.32
1128.38
1109.05
1091.4
1075.52
1061.51
1049.53
1039.77
1032.47
1027.92
1026.49
1028.62
1034.82
1045.72
1062.03
1084.61
1114.46
1152.72
1200.71
1259.94
1332.12
1419.16
1523.14
1646.27
1790.83
1959.01
2152.71
2373.25
2621.03
2895.06
3193.34
1167.75
1212.28
1284.32
1357.06
1413.16
1455.04
1487.87
1512.37
1528.24
1536.26
1537.65
1533.49
1524.68
1512.03
1496.3
1478.18
1458.27
1437.1
1415.15
1392.86
1370.63
1348.84
1327.87
1308.08
1289.86
1273.61
1259.76
1248.8
1241.24
1237.7
1238.85
1245.48
1258.48
1278.9
1307.91
1346.91
1397.46
1461.38
1540.72
1637.8
1755.2
1895.78
2062.55
2258.64
2487.07
2750.49
3050.7
3388.13
3760.94
4165.19
958.946
1044.74
1153.25
1215.94
1219.52
1192.64
1155.78
1115.43
1074.63
1036.17
1001.57
971.111
944.504
921.335
901.166
883.586
868.241
854.862
843.262
833.335
825.05
818.45
813.645
810.813
810.199
812.121
816.972
825.227
837.457
854.332
876.646
905.323
941.447
986.275
1041.27
1108.12
1188.79
1285.52
1400.88
1537.79
1699.54
1889.78
2112.46
2371.76
2671.87
3016.69
3409.19
3850.73
4339.8
4872.33
659.316
908.605
1225.69
1458.14
1599.13
1689.84
1743.97
1765.07
1761.33
1741.55
1711.63
1675.24
1634.99
1592.77
1549.93
1507.4
1465.85
1425.74
1387.46
1351.3
1317.53
1286.42
1258.24
1233.28
1211.89
1194.47
1181.47
1173.45
1171.06
1175.06
1186.34
1205.97
1235.17
1275.39
1328.31
1395.89
1480.41
1584.49
1711.15
1863.89
2046.63
2263.83
2520.43
2821.78
3173.48
3581.03
4049.19
4580.88
5175.25
5826.87
24.0862
433.38
625.356
554.554
453.546
411.782
402.18
402.433
409.739
423.25
440.197
458.089
475.519
491.789
506.561
519.732
531.376
541.691
550.958
559.514
567.743
576.07
584.956
594.908
606.478
620.28
636.993
657.382
682.31
712.758
749.845
794.856
849.267
914.782
993.365
1087.29
1199.17
1332.05
1489.43
1675.33
1894.4
2151.93
2453.95
2807.22
3219.18
3697.74
4250.73
4884.81
5603.15
6404.2
-421.055
1749.22
2932.9
3036.5
2881.17
2711.22
2527.03
2338.59
2163.55
2008.39
1872.32
1752.98
1648.1
1555.63
1473.75
1400.93
1335.94
1277.82
1225.86
1179.52
1138.43
1102.39
1071.31
1045.24
1024.34
1008.9
999.342
996.201
1000.17
1012.1
1033.02
1064.17
1107
1163.25
1234.94
1324.47
1434.62
1568.65
1730.38
1924.23
2155.39
2429.9
2754.76
3138.14
3589.46
4119.49
4740.11
5463.61
6300.09
7254.82
-7847.37
-3257.96
-1755.67
-1188.41
-752.737
-425.408
-198.776
-35.891
86.3603
179.277
250.207
304.724
346.869
379.527
404.843
424.481
439.77
451.799
461.493
469.657
477.026
484.286
492.109
501.167
512.158
525.821
542.961
564.463
591.319
624.647
665.723
716.007
777.178
851.177
940.246
1046.99
1174.43
1326.08
1506.06
1719.15
1971
2268.23
2618.71
3031.83
3518.9
4093.69
4773.08
5577.62
6530.95
7659.21
17590.4
9428.34
5395.89
3878.53
3045.59
2438.7
2017.44
1736.04
1539.4
1392.56
1277.92
1185.73
1109.59
1045.19
989.678
941.17
898.397
860.508
826.946
797.375
771.629
749.685
731.643
717.715
708.224
703.607
704.416
711.334
725.189
746.967
777.842
819.195
872.654
940.124
1023.84
1126.42
1250.92
1400.94
1580.68
1795.09
2050.02
2352.44
2710.71
3135.02
3638.02
4235.96
4950.53
5812.5
6868.8
8201.57
-20201.1
-15586.4
-14015.7
-10058.1
-8091.36
-4673.85
-2572.31
482.858
2587.85
5396.61
7427.51
10071.1
11969.8
14517.4
16225
18748.2
20180.3
22764
23764.8
26398.2
-20227.3
-15625.6
-14064.9
-10109.3
-8149.53
-4730.58
-2634.79
422.535
2523.1
5334
7361.4
10007.6
11903.6
14455.1
16161.4
18691.6
20126.5
22725.2
23739.7
26411.8
-20261.7
-15662.8
-14111.7
-10157.3
-8204.34
-4784.44
-2693.88
365.182
2461.67
5274.71
7298.97
9947.86
11841.9
14397.2
16103.5
18639.8
20078.4
22687.7
23712
26401.5
-20300.6
-15700.7
-14157.4
-10203.3
-8256.74
-4835.85
-2750.33
310.435
2402.96
5218.2
7239.47
9891.17
11783.4
14342.5
16048.7
18590.2
20031.7
22648.1
23677.5
26374.6
-20341.5
-15739.1
-14202.5
-10248
-8307.36
-4885.27
-2804.64
257.889
2346.53
5163.98
7182.32
9836.77
11727.2
14289.7
15995.6
18541.3
19984.4
22605.4
23636.7
26338.2
-20383.5
-15778
-14247.1
-10291.6
-8356.61
-4933.1
-2857.21
207.141
2291.94
5111.59
7126.97
9784.03
11672.5
14238
15943.1
18492.2
19935.6
22559.8
23591.1
26295.6
-20425.9
-15816.9
-14291.3
-10334.5
-8404.79
-4979.67
-2908.4
157.834
2238.81
5060.61
7072.97
9732.46
11618.7
14186.8
15890.8
18442.5
19885.1
22511.7
23541.8
26248.8
-20468.4
-15855.8
-14335.1
-10376.7
-8452.1
-5025.23
-2958.49
109.663
2186.82
5010.68
7019.94
9681.65
11565.5
14135.9
15838.2
18391.9
19833.2
22461.4
23489.9
26198.9
-20510.8
-15894.5
-14378.5
-10418.4
-8498.7
-5069.98
-3007.7
62.3751
2135.7
4961.54
6967.6
9631.34
11512.6
14084.9
15785.2
18340.6
19779.9
22409.5
23435.8
26146.7
-20553
-15932.9
-14421.5
-10459.6
-8544.72
-5114.07
-3056.23
15.7664
2085.23
4912.96
6915.73
9581.29
11459.7
14033.7
15731.7
18288.5
19725.5
22356.1
23380.1
26092.8
-20594.9
-15971
-14464.2
-10500.3
-8590.26
-5157.64
-3104.21
-30.3259
2035.24
4864.76
6864.15
9531.37
11406.9
13982.4
15677.7
18235.7
19670.2
22301.6
23323.1
26037.5
-20636.6
-16008.8
-14506.6
-10540.7
-8635.39
-5200.79
-3151.77
-76.0302
1985.62
4816.83
6812.77
9481.5
11354
13930.7
15623.3
18182.2
19614
22246.2
23265.1
25981.2
-20678
-16046.3
-14548.6
-10580.7
-8680.2
-5243.6
-3199.01
-121.447
1936.25
4769.07
6761.48
9431.6
11301
13878.8
15568.5
18128.3
19557.2
22190
23206.2
25924
-20719.1
-16083.5
-14590.4
-10620.5
-8724.73
-5286.15
-3245.98
-166.652
1887.06
4721.4
6710.25
9381.64
11247.8
13826.6
15513.3
18073.9
19499.8
22133.2
23146.7
25866.1
-20760.1
-16120.5
-14632
-10660
-8769.05
-5328.48
-3292.76
-211.707
1838
4673.78
6659.03
9331.58
11194.5
13774.2
15457.8
18019.1
19442
22075.9
23086.5
25807.7
-20800.8
-16157.3
-14673.4
-10699.4
-8813.17
-5370.65
-3339.39
-256.655
1789.03
4626.18
6607.79
9281.43
11141
13721.5
15402
17963.9
19383.7
22018.2
23026
25748.8
-20841.4
-16193.9
-14714.7
-10738.5
-8857.15
-5412.69
-3385.9
-301.531
1740.12
4578.57
6556.53
9231.17
11087.4
13668.7
15346
17908.5
19325.2
21960
22965
25689.6
-20881.8
-16230.3
-14755.8
-10777.6
-8901.01
-5454.62
-3432.32
-346.361
1691.24
4530.93
6505.23
9180.81
11033.7
13615.6
15289.7
17852.7
19266.3
21901.6
22903.7
25630
-20922.1
-16266.6
-14796.8
-10816.5
-8944.77
-5496.48
-3478.66
-391.161
1642.4
4483.26
6453.9
9130.34
10979.8
13562.4
15233.3
17796.8
19207.2
21843
22842.2
25570.2
-20962.3
-16302.8
-14837.7
-10855.3
-8988.45
-5538.27
-3524.95
-435.947
1593.57
4435.55
6402.53
9079.78
10925.9
13509.1
15176.7
17740.7
19147.9
21784.1
22780.4
25510.1
-21002.4
-16338.8
-14878.5
-10894
-9032.06
-5580.02
-3571.2
-480.725
1544.75
4387.8
6351.13
9029.14
10871.9
13455.6
15120
17684.5
19088.5
21725.1
22718.5
25450
-21042.4
-16374.8
-14919.3
-10932.7
-9075.61
-5621.73
-3617.4
-525.503
1495.95
4340.02
6299.72
8978.43
10817.8
13402
15063.2
17628.1
19029
21665.9
22656.5
25389.7
-21082.4
-16410.7
-14960
-10971.3
-9119.12
-5663.41
-3663.57
-570.283
1447.16
4292.2
6248.28
8927.65
10763.7
13348.4
15006.4
17571.6
18969.3
21606.6
22594.3
25329.2
-21122.3
-16446.5
-15000.7
-11009.8
-9162.58
-5705.06
-3709.71
-615.065
1398.38
4244.35
6196.84
8876.81
10709.6
13294.6
14949.4
17515
18909.6
21547.3
22532
25268.8
-21162.2
-16482.3
-15041.3
-11048.4
-9206.01
-5746.7
-3755.82
-659.851
1349.63
4196.47
6145.41
8825.93
10655.4
13240.8
14892.5
17458.4
18849.8
21487.9
22469.7
25208.3
-21202.1
-16518
-15081.9
-11086.8
-9249.4
-5788.31
-3801.89
-704.636
1300.9
4148.58
6093.98
8775.02
10601.2
13187
14835.5
17401.7
18790
21428.4
22407.3
25147.7
-21241.9
-16553.7
-15122.4
-11125.3
-9292.75
-5829.9
-3847.93
-749.42
1252.2
4100.67
6042.58
8724.08
10547.1
13133.2
14778.5
17345.1
18730.2
21369
22345
25087.2
-21281.7
-16589.3
-15163
-11163.7
-9336.07
-5871.47
-3893.92
-794.197
1203.54
4052.76
5991.2
8673.13
10492.9
13079.3
14721.5
17288.4
18670.4
21309.5
22282.6
25026.6
-21321.5
-16624.8
-15203.5
-11202
-9379.35
-5913.02
-3939.87
-838.965
1154.92
4004.84
5939.87
8622.18
10438.8
13025.4
14664.6
17231.7
18610.6
21250.1
22220.2
24966.1
-21361.2
-16660.3
-15244
-11240.4
-9422.58
-5954.54
-3985.78
-883.717
1106.35
3956.94
5888.59
8571.23
10384.7
12971.5
14607.7
17175
18550.8
21190.7
22157.9
24905.7
-21400.9
-16695.8
-15284.4
-11278.6
-9465.77
-5996.03
-4031.62
-928.449
1057.84
3909.04
5837.36
8520.29
10330.7
12917.7
14550.8
17118.3
18491.1
21131.3
22095.6
24845.3
-21440.6
-16731.2
-15324.8
-11316.9
-9508.9
-6037.49
-4077.41
-973.154
1009.4
3861.17
5786.21
8469.38
10276.8
12863.9
14494
17061.7
18431.4
21072
22033.3
24785
-21480.2
-16766.6
-15365.1
-11355.1
-9551.98
-6078.91
-4123.13
-1017.83
961.039
3813.33
5735.13
8418.5
10222.9
12810.1
14437.3
17005.2
18371.8
21012.8
21971.2
24724.7
-21519.9
-16801.9
-15405.5
-11393.2
-9595
-6120.29
-4168.78
-1062.46
912.757
3765.53
5684.14
8367.66
10169.2
12756.4
14380.7
16948.7
18312.3
20953.6
21909.1
24664.6
-21559.4
-16837.1
-15445.7
-11431.3
-9637.96
-6161.61
-4214.34
-1107.05
864.567
3717.77
5633.25
8316.88
10115.5
12702.7
14324.2
16892.3
18252.9
20894.6
21847.1
24604.5
-21599
-16872.3
-15485.9
-11469.3
-9680.83
-6202.89
-4259.81
-1151.59
816.476
3670.06
5582.46
8266.15
10061.9
12649.1
14267.8
16836
18193.6
20835.6
21785.2
24544.6
-21638.4
-16907.3
-15526.1
-11507.3
-9723.63
-6244.1
-4305.19
-1196.08
768.494
3622.42
5531.79
8215.48
10008.5
12595.6
14211.4
16779.7
18134.5
20776.8
21723.4
24484.9
-21677.9
-16942.4
-15566.2
-11545.2
-9766.34
-6285.25
-4350.47
-1240.5
720.629
3574.83
5481.25
8164.89
9955.18
12542.2
14155.3
16723.6
18075.4
20718.1
21661.8
24425.2
-21717.2
-16977.3
-15606.2
-11583
-9808.96
-6326.32
-4395.63
-1284.84
672.89
3527.33
5430.84
8114.39
9902.01
12488.9
14099.2
16667.6
18016.5
20659.5
21600.3
24365.8
-21756.5
-17012.1
-15646.1
-11620.7
-9851.47
-6367.32
-4440.67
-1329.12
625.285
3479.9
5380.58
8063.97
9848.98
12435.6
14043.4
16611.7
17957.8
20601
21538.9
24306.4
-21795.7
-17046.9
-15685.9
-11658.4
-9893.88
-6408.23
-4485.58
-1373.3
577.824
3432.57
5330.46
8013.65
9796.11
12382.5
13987.6
16556
17899.2
20542.8
21477.7
24247.3
-21834.9
-17081.5
-15725.7
-11695.9
-9936.17
-6449.05
-4530.36
-1417.4
530.514
3385.33
5280.51
7963.44
9743.41
12329.5
13932.1
16500.4
17840.7
20484.7
21416.7
24188.4
-21873.9
-17116.1
-15765.3
-11733.4
-9978.34
-6489.77
-4574.99
-1461.4
483.365
3338.19
5230.73
7913.35
9690.89
12276.7
13876.7
16444.9
17782.5
20426.7
21355.9
24129.6
-21912.9
-17150.5
-15804.9
-11770.7
-10020.4
-6530.39
-4619.47
-1505.29
436.386
3291.16
5181.13
7863.38
9638.56
12224
13821.5
16389.6
17724.4
20369
21295.2
24071
-21951.7
-17184.8
-15844.3
-11807.9
-10062.3
-6570.9
-4663.79
-1549.07
389.584
3244.25
5131.72
7813.54
9586.42
12171.4
13766.6
16334.5
17666.6
20311.4
21234.7
24012.7
-21990.5
-17219
-15883.6
-11845
-10104
-6611.29
-4707.93
-1592.73
342.97
3197.47
5082.51
7763.84
9534.48
12119
13711.8
16279.6
17608.9
20254
21174.4
23954.6
-22029.1
-17253.1
-15922.8
-11882
-10145.6
-6651.55
-4751.9
-1636.27
296.552
3150.82
5033.51
7714.28
9482.76
12066.8
13657.2
16224.8
17551.5
20196.9
21114.4
23896.7
-22067.6
-17287
-15961.8
-11918.8
-10187
-6691.68
-4795.68
-1679.67
250.338
3104.31
4984.72
7664.88
9431.27
12014.7
13602.9
16170.2
17494.2
20140
21054.6
23839.1
-22106
-17320.7
-16000.7
-11955.5
-10228.3
-6731.68
-4839.27
-1722.94
204.338
3057.95
4936.16
7615.63
9380
11962.8
13548.8
16115.9
17437.3
20083.3
20995
23781.7
-22144.3
-17354.3
-16039.4
-11992.1
-10269.4
-6771.53
-4882.65
-1766.06
158.56
3011.74
4887.84
7566.56
9328.98
11911.1
13494.9
16061.7
17380.5
20026.8
20935.6
23724.5
-22182.4
-17387.8
-16078
-12028.5
-10310.2
-6811.24
-4925.82
-1809.03
113.014
2965.69
4839.76
7517.66
9278.21
11859.6
13441.3
16007.8
17324.1
19970.6
20876.5
23667.7
-22220.3
-17421.1
-16116.4
-12064.7
-10350.9
-6850.78
-4968.77
-1851.84
67.7076
2919.81
4791.93
7468.95
9227.69
11808.3
13388
15954.1
17267.8
19914.7
20817.7
23611.1
-22258.1
-17454.2
-16154.7
-12100.8
-10391.4
-6890.16
-5011.49
-1894.48
22.65
2874.1
4744.36
7420.43
9177.45
11757.2
13334.9
15900.7
17211.9
19859
20759.1
23554.8
-22295.8
-17487.1
-16192.7
-12136.7
-10431.7
-6929.37
-5053.98
-1936.95
-22.1501
2828.58
4697.07
7372.1
9127.49
11706.3
13282.1
15847.5
17156.2
19803.5
20700.8
23498.8
-22333.2
-17519.8
-16230.6
-12172.4
-10471.8
-6968.41
-5096.21
-1979.24
-66.6837
2783.24
4650.05
7323.98
9077.81
11655.7
13229.6
15794.5
17100.9
19748.4
20642.8
23443.1
-22370.5
-17552.4
-16268.3
-12207.9
-10511.6
-7007.26
-5138.19
-2021.35
-110.942
2738.1
4603.32
7276.07
9028.42
11605.3
13177.4
15741.8
17045.8
19693.6
20585.1
23387.7
-22407.6
-17584.7
-16305.7
-12243.3
-10551.2
-7045.92
-5179.91
-2063.26
-154.917
2693.17
4556.89
7228.39
8979.34
11555.1
13125.5
15689.4
16991
19639
20527.7
23332.7
-22444.5
-17616.8
-16343
-12278.4
-10590.5
-7084.39
-5221.35
-2104.97
-198.599
2648.44
4510.77
7180.93
8930.57
11505.2
13073.9
15637.3
16936.6
19584.8
20470.7
23277.9
-22481.2
-17648.7
-16380
-12313.3
-10629.6
-7122.65
-5262.51
-2146.48
-241.979
2603.93
4464.96
7133.7
8882.13
11455.6
13022.7
15585.4
16882.4
19530.9
20413.9
23223.6
-22517.7
-17680.4
-16416.8
-12348.1
-10668.4
-7160.71
-5303.39
-2187.78
-285.05
2559.64
4419.47
7086.72
8834.01
11406.2
12971.8
15533.8
16828.6
19477.3
20357.5
23169.5
-22554
-17711.9
-16453.4
-12382.5
-10707
-7198.55
-5343.96
-2228.86
-327.801
2515.58
4374.32
7039.99
8786.24
11357.1
12921.2
15482.6
16775.2
19424
20301.4
23115.8
-22590
-17743.1
-16489.7
-12416.8
-10745.3
-7236.17
-5384.23
-2269.72
-370.225
2471.75
4329.5
6993.51
8738.81
11308.3
12870.9
15431.6
16722.1
19371.1
20245.6
23062.5
-22625.9
-17774.1
-16525.8
-12450.9
-10783.3
-7273.56
-5424.19
-2310.34
-412.313
2428.17
4285.04
6947.29
8691.73
11259.7
12821.1
15381
16669.3
19318.5
20190.2
23009.6
-22661.5
-17804.9
-16561.6
-12484.7
-10821
-7310.72
-5463.82
-2350.73
-454.056
2384.84
4240.93
6901.34
8645.03
11211.5
12771.6
15330.7
16616.9
19266.3
20135.2
22957
-22696.8
-17835.4
-16597.1
-12518.2
-10858.4
-7347.64
-5503.11
-2390.88
-495.445
2341.76
4197.2
6855.67
8598.69
11163.6
12722.4
15280.7
16564.9
19214.4
20080.5
22904.9
-22731.9
-17865.6
-16632.4
-12551.5
-10895.4
-7384.32
-5542.07
-2430.78
-536.472
2298.94
4153.83
6810.28
8552.74
11115.9
12673.7
15231.1
16513.3
19163
20026.3
22853.1
-22766.7
-17895.5
-16667.4
-12584.6
-10932.2
-7420.75
-5580.68
-2470.43
-577.129
2256.39
4110.85
6765.19
8507.18
11068.6
12625.3
15181.8
16462.1
19111.9
19972.4
22801.7
-22801.3
-17925.2
-16702.1
-12617.4
-10968.6
-7456.92
-5618.93
-2509.81
-617.406
2214.12
4068.27
6720.39
8462.01
11021.6
12577.4
15132.9
16411.2
19061.2
19918.9
22750.8
-22835.6
-17954.6
-16736.5
-12649.9
-11004.7
-7492.83
-5656.81
-2548.93
-657.295
2172.13
4026.08
6675.89
8417.26
10975
12529.8
15084.3
16360.8
19010.9
19865.8
22700.3
-22869.6
-17983.7
-16770.6
-12682.2
-11040.5
-7528.47
-5694.32
-2587.77
-696.788
2130.42
3984.3
6631.7
8372.92
10928.7
12482.7
15036.2
16310.8
18960.9
19813.2
22650.2
-22903.3
-18012.6
-16804.4
-12714.1
-11075.9
-7563.84
-5731.44
-2626.34
-735.876
2089.01
3942.95
6587.83
8329
10882.7
12436
14988.3
16261.2
18911.5
19760.9
22600.5
-22936.8
-18041.1
-16837.8
-12745.8
-11111
-7598.93
-5768.17
-2664.63
-774.55
2047.89
3902.01
6544.28
8285.51
10837.1
12389.7
14940.9
16212.1
18862.4
19709.1
22551.4
-22969.9
-18069.3
-16870.9
-12777.2
-11145.6
-7633.73
-5804.51
-2702.62
-812.803
2007.08
3861.51
6501.07
8242.47
10791.8
12343.9
14893.9
16163.4
18813.7
19657.7
22502.6
-23002.7
-18097.2
-16903.7
-12808.3
-11179.9
-7668.25
-5840.43
-2740.33
-850.625
1966.58
3821.46
6458.19
8199.87
10746.9
12298.5
14847.3
16115.1
18765.5
19606.8
22454.3
-23035.2
-18124.8
-16936.2
-12839.1
-11213.8
-7702.47
-5875.94
-2777.73
-888.009
1926.4
3781.85
6415.65
8157.73
10702.4
12253.6
14801
16067.3
18717.8
19556.3
22406.5
-23067.4
-18152.1
-16968.3
-12869.6
-11247.4
-7736.4
-5911.02
-2814.82
-924.945
1886.54
3742.71
6373.46
8116.05
10658.3
12209.1
14755.2
16020
18670.4
19506.3
22359.2
-23099.2
-18179
-17000
-12899.8
-11280.5
-7770.02
-5945.66
-2851.61
-961.426
1847.01
3704.03
6331.63
8074.84
10614.6
12165.1
14709.9
15973.1
18623.6
19456.8
22312.4
-23130.7
-18205.6
-17031.4
-12929.7
-11313.2
-7803.33
-5979.86
-2888.08
-997.443
1807.82
3665.83
6290.16
8034.12
10571.2
12121.6
14664.9
15926.7
18577.2
19407.7
22266
-23161.9
-18231.9
-17062.4
-12959.2
-11345.5
-7836.32
-6013.61
-2924.23
-1032.99
1768.96
3628.11
6249.05
7993.88
10528.3
12078.6
14620.4
15880.8
18531.3
19359.1
22220.2
-23192.7
-18257.8
-17093
-12988.5
-11377.3
-7869
-6046.91
-2960.05
-1068.05
1730.45
3590.88
6208.32
7954.14
10485.7
12036.1
14576.3
15835.4
18485.9
19311
22174.8
-23223.2
-18283.4
-17123.3
-13017.3
-11408.8
-7901.35
-6079.73
-2995.54
-1102.63
1692.3
3554.15
6167.98
7914.9
10443.6
11994.1
14532.7
15790.5
18440.9
19263.4
22130
-23253.2
-18308.6
-17153.1
-13045.9
-11439.7
-7933.38
-6112.07
-3030.7
-1136.71
1654.5
3517.93
6128.02
7876.17
10401.9
11952.6
14489.5
15746.1
18396.5
19216.3
22085.7