/*--------------------------------*- C++ -*----------------------------------*\
  =========                 |
  \\      /  F ield         | OpenFOAM: The Open Source CFD Toolbox
   \\    /   O peration     | Website:  https://openfoam.org
    \\  /    A nd           | Version:  8
     \\/     M anipulation  |
\*---------------------------------------------------------------------------*/
FoamFile
{
    version     2.0;
    format      ascii;
    class       surfaceScalarField;
    location    "1000";
    object      phi;
}
// * * * * * * * * * * * * * * * * * * * * * * * * * * * * * * * * * * * * * //

dimensions      [1 0 -1 0 0 0 0];

internalField   nonuniform List<scalar> 
16360
(
-1.36721
0.000234141
-1.36748
0.000264227
-1.36775
0.000275514
-1.36803
0.000279934
-1.36831
0.000281348
-1.3686
0.000281147
-1.36888
0.000279882
-1.36915
0.000277776
-1.36943
0.000274915
-1.3697
0.000271307
-1.36997
0.000266921
-1.37023
0.000261692
-1.37048
0.000255528
-1.37073
0.000248312
-1.37097
0.000239899
-1.3712
0.00023012
-1.37142
0.000218773
-1.37163
0.000205622
-1.37182
0.000190388
-1.37199
0.000172733
-1.37214
0.000152256
-1.37227
0.000128519
-1.37237
0.000101041
-1.37244
6.91415e-05
-1.37247
3.19292e-05
-1.37246
-1.21834e-05
-1.37239
-6.5454e-05
-1.37227
-0.000128987
-1.37206
-0.000203214
-1.37177
-0.000289419
-1.37138
-0.000389323
-1.37088
-0.000505027
-1.37024
-0.000639022
-1.36945
-0.000794237
-1.36847
-0.000974121
-1.36729
-0.00118274
-1.36586
-0.00142493
-1.36416
-0.00170646
-1.36212
-0.0020343
-1.35971
-0.00241705
-1.35684
-0.00286542
-1.35345
-0.00339305
-1.34943
-0.00401755
-1.34467
-0.00476261
-1.339
-0.00566316
-1.33223
-0.00677317
-1.32407
-0.00816419
-1.31416
-0.00990253
-1.30207
-0.0120976
-0.0153424
-1.28672
-1.565
0.000505999
-1.56524
0.000505765
-1.56547
0.000506203
-1.5657
0.000508698
-1.56593
0.000509676
-1.56616
0.000508891
-1.56638
0.00050649
-1.56661
0.000502622
-1.56683
0.000497354
-1.56705
0.000490676
-1.56727
0.000482511
-1.56748
0.00047273
-1.56768
0.000461155
-1.56788
0.000447558
-1.56807
0.000431663
-1.56826
0.000413139
-1.56843
0.000391599
-1.56859
0.000366592
-1.56874
0.00033758
-1.56887
0.000303918
-1.56898
0.000264821
-1.56907
0.000219436
-1.56914
0.000167022
-1.56917
0.000106274
-1.56918
3.56215e-05
-1.56914
-4.67919e-05
-1.56907
-0.000142693
-1.56894
-0.000253867
-1.56876
-0.000382749
-1.56852
-0.000532028
-1.5682
-0.000704835
-1.5678
-0.000904823
-1.56731
-0.00113625
-1.5667
-0.00140409
-1.56596
-0.00171413
-1.56507
-0.00207318
-1.564
-0.00248919
-1.56274
-0.00297161
-1.56124
-0.00353165
-1.55947
-0.00418284
-1.5574
-0.00494168
-1.55496
-0.00582855
-1.55211
-0.00686897
-1.54878
-0.0080962
-1.54488
-0.00955664
-1.54034
-0.0113159
-1.53505
-0.0134562
-1.52888
-0.0160753
-1.5216
-0.0193695
-0.0237985
-1.51315
-1.60398
0.000333154
-1.60387
0.000396184
-1.60379
0.000420675
-1.60371
0.000428938
-1.60363
0.000430632
-1.60355
0.000428805
-1.60346
0.000424536
-1.60338
0.00041821
-1.60329
0.000409931
-1.6032
0.000399659
-1.60311
0.000387265
-1.60301
0.000372551
-1.6029
0.00035525
-1.60279
0.000335032
-1.60267
0.000311492
-1.60254
0.000284151
-1.6024
0.000252448
-1.60225
0.000215743
-1.60208
0.000173259
-1.6019
0.000124077
-1.60171
6.70641e-05
-1.60149
9.61011e-07
-1.60125
-7.61272e-05
-1.60097
-0.000165988
-1.60067
-0.000270208
-1.60032
-0.000390777
-1.59994
-0.000530171
-1.5995
-0.000691447
-1.599
-0.000878082
-1.59844
-0.00109402
-1.5978
-0.00134383
-1.59707
-0.00163279
-1.59624
-0.00196707
-1.59529
-0.00235382
-1.59421
-0.00280136
-1.59296
-0.00331943
-1.59153
-0.0039194
-1.58989
-0.00461465
-1.588
-0.00542094
-1.58582
-0.00635707
-1.58332
-0.00744556
-1.58043
-0.00871357
-1.57711
-0.0101943
-1.57328
-0.0119292
-1.56886
-0.0139724
-1.56378
-0.0163934
-1.55797
-0.0192736
-1.55133
-0.0227126
-1.54381
-0.0268861
-0.0321485
-1.53546
-1.64889
0.000492265
-1.64893
0.000429043
-1.64891
0.000408171
-1.64889
0.000402511
-1.64886
0.000399423
-1.64882
0.000395511
-1.64879
0.000389793
-1.64875
0.000381975
-1.64871
0.000371908
-1.64867
0.000359435
-1.64863
0.000344348
-1.64859
0.000326371
-1.64853
0.000305159
-1.64848
0.000280286
-1.64842
0.000251237
-1.64835
0.000217395
-1.64828
0.000178043
-1.6482
0.0001324
-1.6481
7.9487e-05
-1.648
1.81394e-05
-1.64788
-5.28379e-05
-1.64774
-0.000134915
-1.64759
-0.000229827
-1.64741
-0.000339447
-1.64722
-0.000466293
-1.64699
-0.000613048
-1.64674
-0.000782832
-1.64645
-0.000979314
-1.64613
-0.00120671
-1.64575
-0.00146987
-1.64532
-0.00177437
-1.64483
-0.00212668
-1.64426
-0.00253431
-1.64361
-0.00300594
-1.64286
-0.00355165
-1.64199
-0.00418318
-1.641
-0.00491418
-1.63985
-0.00576059
-1.63853
-0.00674109
-1.63701
-0.00787764
-1.63526
-0.00919621
-1.63325
-0.0107276
-1.63093
-0.0125087
-1.62828
-0.0145844
-1.62524
-0.0170101
-1.62178
-0.0198527
-1.61786
-0.0231888
-1.61347
-0.0271113
-1.60859
-0.0317583
-0.037325
-1.60342
-1.63384
0.000167158
-1.63366
0.000251404
-1.63353
0.000281416
-1.63342
0.000289092
-1.63331
0.000288767
-1.6332
0.000284416
-1.63309
0.000277208
-1.63297
0.00026742
-1.63285
0.000255022
-1.63273
0.000239846
-1.63261
0.000221632
-1.63249
0.000200044
-1.63235
0.000174662
-1.63222
0.000144985
-1.63208
0.000110396
-1.63193
7.01647e-05
-1.63178
2.34266e-05
-1.63161
-3.08359e-05
-1.63144
-9.38381e-05
-1.63126
-0.000166864
-1.63106
-0.000251412
-1.63084
-0.000349376
-1.63061
-0.000462793
-1.63035
-0.000593992
-1.63008
-0.000745765
-1.62977
-0.000921313
-1.62943
-0.00112435
-1.62905
-0.0013592
-1.62862
-0.00163084
-1.62815
-0.00194502
-1.62761
-0.00230837
-1.62701
-0.00272858
-1.62633
-0.0032145
-1.62556
-0.00377641
-1.62469
-0.00442618
-1.62369
-0.00517756
-1.62256
-0.00604649
-1.62127
-0.00705142
-1.61979
-0.0082138
-1.61811
-0.00955858
-1.6162
-0.0111148
-1.61401
-0.0129163
-1.61151
-0.0150029
-1.60868
-0.0174212
-1.60546
-0.0202269
-1.60183
-0.0234841
-1.59775
-0.0272656
-1.59321
-0.0316555
-1.58821
-0.0367584
-0.0427068
-1.58282
-1.64882
0.0003812
-1.64885
0.000286599
-1.64883
0.000252662
-1.64878
0.000240827
-1.64872
0.000233847
-1.64867
0.000226739
-1.64861
0.00021787
-1.64854
0.000206622
-1.64848
0.000192652
-1.64842
0.000175652
-1.64835
0.000155277
-1.64828
0.000131122
-1.64821
0.000102699
-1.64814
6.94403e-05
-1.64806
3.06207e-05
-1.64797
-1.45489e-05
-1.64788
-6.69718e-05
-1.64778
-0.000127762
-1.64768
-0.000198181
-1.64757
-0.000279715
-1.64744
-0.000374138
-1.64731
-0.000483481
-1.64716
-0.000610056
-1.647
-0.000756543
-1.64682
-0.000926059
-1.64662
-0.00112221
-1.64639
-0.00134915
-1.64614
-0.00161173
-1.64586
-0.00191552
-1.64553
-0.00226694
-1.64517
-0.00267344
-1.64475
-0.0031436
-1.64428
-0.00368733
-1.64374
-0.00431607
-1.64313
-0.00504304
-1.64242
-0.00588348
-1.64161
-0.00685495
-1.64068
-0.00797771
-1.63962
-0.0092751
-1.63841
-0.010774
-1.63702
-0.0125051
-1.63543
-0.014504
-1.63362
-0.016811
-1.63157
-0.0194727
-1.62926
-0.0225415
-1.62666
-0.0260764
-1.62379
-0.0301412
-1.62064
-0.0348053
-1.61725
-0.0401454
-0.0462439
-1.61371
-1.64016
2.92352e-07
-1.63997
0.000100478
-1.63985
0.000134216
-1.63975
0.00014127
-1.63966
0.000139134
-1.63956
0.000132583
-1.63947
0.000122933
-1.63937
0.000110416
-1.63928
9.4911e-05
-1.63918
7.61473e-05
-1.63907
5.3751e-05
-1.63897
2.72819e-05
-1.63886
-3.80507e-06
-1.63875
-4.01872e-05
-1.63864
-8.26196e-05
-1.63852
-0.000131969
-1.6384
-0.000189296
-1.63827
-0.00025585
-1.63814
-0.000333003
-1.638
-0.000422385
-1.63784
-0.000525905
-1.63768
-0.000645769
-1.63751
-0.000784515
-1.63732
-0.000945085
-1.63711
-0.00113089
-1.63689
-0.00134586
-1.63665
-0.00159457
-1.63637
-0.0018823
-1.63608
-0.00221515
-1.63574
-0.00260015
-1.63537
-0.00304545
-1.63495
-0.00356042
-1.63448
-0.0041559
-1.63396
-0.00484439
-1.63336
-0.00564027
-1.63268
-0.00656012
-1.63191
-0.00762298
-1.63104
-0.00885075
-1.63005
-0.0102685
-1.62892
-0.0119048
-1.62763
-0.0137923
-1.62617
-0.0159681
-1.6245
-0.0184737
-1.62262
-0.0213558
-1.6205
-0.0246662
-1.61811
-0.0284606
-1.61545
-0.0327982
-1.61252
-0.0377386
-1.60933
-0.0433404
-0.049663
-1.60591
-1.64621
0.000248615
-1.64625
0.000141463
-1.64622
0.000101963
-1.64617
8.69952e-05
-1.64611
7.75645e-05
-1.64604
6.81562e-05
-1.64598
5.69277e-05
-1.64591
4.31425e-05
-1.64584
2.63612e-05
-1.64577
6.19171e-06
-1.6457
-1.77833e-05
-1.64563
-4.60614e-05
-1.64555
-7.92417e-05
-1.64547
-0.000118017
-1.64539
-0.000163168
-1.64531
-0.000215661
-1.64522
-0.00027661
-1.64513
-0.00034731
-1.64503
-0.000429249
-1.64493
-0.000524164
-1.64482
-0.000634074
-1.64471
-0.000761315
-1.64458
-0.000908587
-1.64445
-0.00107901
-1.6443
-0.00127621
-1.64415
-0.00150437
-1.64397
-0.00176832
-1.64378
-0.00207367
-1.64357
-0.00242687
-1.64333
-0.0028354
-1.64307
-0.00330787
-1.64278
-0.00385423
-1.64245
-0.00448595
-1.64208
-0.00521624
-1.64166
-0.00606031
-1.64118
-0.00703563
-1.64064
-0.00816224
-1.64003
-0.00946308
-1.63933
-0.0109643
-1.63854
-0.0126957
-1.63764
-0.0146908
-1.63662
-0.0169873
-1.63547
-0.0196275
-1.63417
-0.0226574
-1.63271
-0.0261273
-1.63108
-0.0300905
-1.62927
-0.0346012
-1.6273
-0.039712
-1.62517
-0.0454704
-0.0519217
-1.62291
-1.64244
-0.000147822
-1.64226
-4.20891e-05
-1.64215
-7.33766e-06
-1.64206
-9.57719e-07
-1.64198
-4.33128e-06
-1.6419
-1.23373e-05
-1.64182
-2.35676e-05
-1.64174
-3.77892e-05
-1.64166
-5.51604e-05
-1.64157
-7.60029e-05
-1.64149
-0.000100742
-1.64141
-0.000129908
-1.64132
-0.000164118
-1.64124
-0.000204089
-1.64115
-0.000250662
-1.64106
-0.000304829
-1.64097
-0.000367747
-1.64087
-0.000440755
-1.64078
-0.000525407
-1.64068
-0.000623504
-1.64058
-0.000737139
-1.64047
-0.000868735
-1.64036
-0.0010211
-1.64024
-0.00119747
-1.64011
-0.00140162
-1.63998
-0.00163788
-1.63984
-0.00191129
-1.63968
-0.00222766
-1.63951
-0.00259371
-1.63933
-0.00301722
-1.63913
-0.00350713
-1.63891
-0.00407381
-1.63867
-0.00472918
-1.6384
-0.00548698
-1.6381
-0.00636303
-1.63776
-0.00737549
-1.63737
-0.00854518
-1.63694
-0.00989589
-1.63645
-0.0114547
-1.63589
-0.0132524
-1.63526
-0.0153235
-1.63454
-0.0177068
-1.63372
-0.0204451
-1.6328
-0.0235851
-1.63175
-0.0271769
-1.63057
-0.031273
-1.62924
-0.0359261
-1.62777
-0.0411855
-1.62614
-0.0470937
-0.0536898
-1.62438
-1.64368
0.000107712
-1.64372
-8.47859e-07
-1.64369
-4.14454e-05
-1.64363
-5.75811e-05
-1.64357
-6.82265e-05
-1.6435
-7.88698e-05
-1.64343
-9.1344e-05
-1.64336
-0.000106396
-1.64329
-0.000124488
-1.64322
-0.000146045
-1.64315
-0.000171533
-1.64308
-0.000201496
-1.64301
-0.000236567
-1.64294
-0.000277484
-1.64286
-0.000325109
-1.64279
-0.000380451
-1.64271
-0.000444684
-1.64263
-0.00051917
-1.64255
-0.000605488
-1.64247
-0.00070547
-1.64238
-0.000821239
-1.6423
-0.000955255
-1.64221
-0.00111036
-1.64212
-0.00128986
-1.64202
-0.00149755
-1.64192
-0.00173786
-1.64182
-0.00201588
-1.64171
-0.00233753
-1.64159
-0.00270961
-1.64147
-0.00314003
-1.64134
-0.00363789
-1.6412
-0.00421371
-1.64105
-0.00487963
-1.64088
-0.00564964
-1.64071
-0.00653985
-1.64051
-0.00756878
-1.6403
-0.00875766
-1.64007
-0.0101308
-1.6398
-0.0117159
-1.63951
-0.0135444
-1.63918
-0.0156518
-1.63881
-0.0180777
-1.63839
-0.0208661
-1.63791
-0.0240648
-1.63736
-0.0277252
-1.63674
-0.031901
-1.63602
-0.0366461
-1.63519
-0.0420109
-1.63425
-0.0480386
-0.0547651
-1.63317
-1.64369
-0.000277703
-1.64352
-0.000174006
-1.64342
-0.000140595
-1.64334
-0.000135189
-1.64327
-0.000139402
-1.6432
-0.000148145
-1.64313
-0.000160012
-1.64307
-0.000174776
-1.643
-0.000192607
-1.64293
-0.000213843
-1.64286
-0.000238928
-1.6428
-0.000268397
-1.64273
-0.000302881
-1.64266
-0.000343114
-1.6426
-0.000389957
-1.64254
-0.000444409
-1.64247
-0.000507634
-1.64241
-0.000580983
-1.64235
-0.00066602
-1.64229
-0.000764562
-1.64223
-0.000878714
-1.64218
-0.00101091
-1.64212
-0.00116398
-1.64207
-0.00134119
-1.64202
-0.00154632
-1.64198
-0.00178375
-1.64194
-0.00205856
-1.6419
-0.0023766
-1.64186
-0.00274465
-1.64183
-0.00317058
-1.64181
-0.00366343
-1.64179
-0.0042337
-1.64177
-0.00489348
-1.64176
-0.00565674
-1.64176
-0.00653958
-1.64177
-0.00756054
-1.64179
-0.0087409
-1.64182
-0.0101051
-1.64185
-0.0116811
-1.64189
-0.0135005
-1.64195
-0.0155995
-1.64201
-0.0180183
-1.64207
-0.020802
-1.64213
-0.024
-1.64219
-0.0276655
-1.64224
-0.0318548
-1.64226
-0.0366247
-1.64224
-0.0420296
-1.64217
-0.0481163
-0.0549261
-1.642
-1.64059
-3.51198e-05
-1.64063
-0.000138241
-1.64059
-0.000177252
-1.64053
-0.000193347
-1.64047
-0.000204291
-1.6404
-0.000215198
-1.64033
-0.000227772
-1.64027
-0.000242719
-1.6402
-0.00026049
-1.64013
-0.000281508
-1.64006
-0.000306238
-1.64
-0.000335217
-1.63993
-0.000369068
-1.63987
-0.000408515
-1.6398
-0.0004544
-1.63974
-0.000507703
-1.63968
-0.000569559
-1.63962
-0.000641286
-1.63956
-0.000724411
-1.6395
-0.000820705
-1.63945
-0.000932219
-1.6394
-0.00106133
-1.63935
-0.00121078
-1.63931
-0.00138377
-1.63927
-0.00158398
-1.63924
-0.00181569
-1.63921
-0.00208383
-1.6392
-0.00239413
-1.63919
-0.00275321
-1.63919
-0.00316875
-1.6392
-0.0036496
-1.63923
-0.00420605
-1.63927
-0.00484995
-1.63934
-0.00559504
-1.63942
-0.00645717
-1.63952
-0.00745466
-1.63966
-0.00860865
-1.63982
-0.00994345
-1.64001
-0.011487
-1.64024
-0.0132714
-1.64051
-0.0153332
-1.64081
-0.017714
-1.64115
-0.0204606
-1.64153
-0.0236252
-1.64193
-0.0272652
-1.64234
-0.0314424
-1.64274
-0.0362215
-1.64311
-0.0416677
-1.64338
-0.0478406
-0.0547848
-1.64352
-1.64479
-0.000387567
-1.64463
-0.000292955
-1.64454
-0.000263383
-1.64448
-0.000259496
-1.64442
-0.000264345
-1.64436
-0.000273217
-1.6443
-0.000284816
-1.64425
-0.000298946
-1.64419
-0.000315785
-1.64414
-0.000335663
-1.64408
-0.000359008
-1.64403
-0.000386326
-1.64398
-0.000418208
-1.64394
-0.000455343
-1.64389
-0.000498528
-1.64385
-0.000548688
-1.64381
-0.000606896
-1.64378
-0.000674394
-1.64375
-0.000752623
-1.64373
-0.000843254
-1.64372
-0.000948219
-1.64371
-0.00106976
-1.64371
-0.00121047
-1.64372
-0.00137335
-1.64374
-0.00156189
-1.64378
-0.00178012
-1.64383
-0.0020327
-1.6439
-0.00232505
-1.64399
-0.00266342
-1.6441
-0.00305508
-1.64424
-0.00350843
-1.64441
-0.00403321
-1.64462
-0.00464071
-1.64487
-0.00534402
-1.64517
-0.0061583
-1.64553
-0.00710111
-1.64594
-0.00819281
-1.64643
-0.00945698
-1.64699
-0.0109209
-1.64765
-0.0126161
-1.6484
-0.0145789
-1.64927
-0.0168512
-1.65025
-0.0194808
-1.65135
-0.0225222
-1.65258
-0.0260365
-1.65393
-0.0300908
-1.65539
-0.0347581
-1.65695
-0.0401152
-1.65855
-0.046237
-0.0531901
-1.66014
-1.63563
-0.000180722
-1.63565
-0.000272197
-1.63561
-0.000307525
-1.63554
-0.000322888
-1.63547
-0.000333549
-1.6354
-0.000343941
-1.63533
-0.000355576
-1.63526
-0.000369108
-1.63519
-0.00038497
-1.63512
-0.000403566
-1.63506
-0.000425329
-1.63499
-0.000450746
-1.63493
-0.00048038
-1.63487
-0.000514875
-1.63481
-0.000554978
-1.63476
-0.000601553
-1.63471
-0.0006556
-1.63467
-0.000718278
-1.63463
-0.000790928
-1.6346
-0.000875105
-1.63457
-0.000972611
-1.63456
-0.00108553
-1.63455
-0.00121629
-1.63456
-0.00136768
-1.63458
-0.00154295
-1.63461
-0.00174587
-1.63466
-0.00198079
-1.63474
-0.00225276
-1.63483
-0.00256765
-1.63495
-0.00293225
-1.63511
-0.00335444
-1.6353
-0.00384339
-1.63553
-0.00440971
-1.63581
-0.00506577
-1.63614
-0.00582593
-1.63653
-0.00670693
-1.637
-0.00772823
-1.63754
-0.00891257
-1.63818
-0.0102865
-1.63891
-0.0118809
-1.63976
-0.0137321
-1.64073
-0.0158824
-1.64183
-0.0183813
-1.64306
-0.0212868
-1.64443
-0.0246659
-1.64593
-0.0285949
-1.64753
-0.0331604
-1.64918
-0.0384625
-1.65081
-0.0446114
-0.0516964
-1.6523
-1.64636
-0.00046669
-1.64624
-0.000391659
-1.64617
-0.000370171
-1.64613
-0.000369091
-1.64609
-0.000374619
-1.64605
-0.000383023
-1.64601
-0.000393364
-1.64597
-0.000405576
-1.64594
-0.000419869
-1.64591
-0.000436566
-1.64588
-0.000456047
-1.64585
-0.000478754
-1.64582
-0.000505189
-1.6458
-0.00053593
-1.64579
-0.000571642
-1.64577
-0.000613092
-1.64577
-0.000661168
-1.64577
-0.000716896
-1.64578
-0.000781466
-1.6458
-0.000856252
-1.64583
-0.000942851
-1.64587
-0.00104311
-1.64593
-0.00115916
-1.646
-0.00129349
-1.6461
-0.00144896
-1.64621
-0.00162891
-1.64636
-0.00183718
-1.64653
-0.00207826
-1.64674
-0.00235733
-1.64699
-0.00268041
-1.64729
-0.0030545
-1.64765
-0.00348773
-1.64807
-0.00398956
-1.64856
-0.00457101
-1.64914
-0.00524495
-1.64982
-0.0060264
-1.65062
-0.00693298
-1.65155
-0.00798538
-1.65263
-0.00920797
-1.65388
-0.0106296
-1.65532
-0.0122844
-1.65699
-0.014213
-1.65891
-0.0164643
-1.6611
-0.0190971
-1.66358
-0.022182
-1.66638
-0.0258022
-1.66948
-0.0300551
-1.67288
-0.0350607
-1.67653
-0.0409676
-0.0479294
-1.6803
-1.6238
-0.000326602
-1.62379
-0.000403368
-1.62373
-0.000433844
-1.62365
-0.000448228
-1.62357
-0.000458159
-1.62348
-0.000467294
-1.6234
-0.000476989
-1.62332
-0.000487884
-1.62324
-0.000500399
-1.62316
-0.000514899
-1.62308
-0.00053175
-1.62301
-0.000551352
-1.62294
-0.00057415
-1.62288
-0.00060065
-1.62282
-0.00063143
-1.62276
-0.000667159
-1.62271
-0.000708608
-1.62267
-0.000756669
-1.62264
-0.000812372
-1.62262
-0.000876914
-1.62261
-0.00095168
-1.62262
-0.00103827
-1.62264
-0.00113855
-1.62268
-0.00125468
-1.62274
-0.00138914
-1.62282
-0.00154485
-1.62293
-0.00172516
-1.62308
-0.00193397
-1.62326
-0.00217583
-1.62348
-0.002456
-1.62376
-0.00278062
-1.62409
-0.00315683
-1.62449
-0.00359299
-1.62496
-0.00409885
-1.62552
-0.00468585
-1.62618
-0.00536743
-1.62695
-0.00615949
-1.62785
-0.00708082
-1.62891
-0.00815386
-1.63013
-0.00940553
-1.63155
-0.0108683
-1.63318
-0.0125816
-1.63505
-0.0145939
-1.63718
-0.0169659
-1.63959
-0.0197736
-1.64228
-0.0231101
-1.64525
-0.0270864
-1.64846
-0.03185
-1.65181
-0.0376217
-0.0446572
-1.65508
-1.64192
-0.000470602
-1.64189
-0.000432078
-1.6419
-0.000424064
-1.64192
-0.000426712
-1.64194
-0.000432236
-1.64197
-0.000438902
-1.642
-0.000446459
-1.64204
-0.000455057
-1.64207
-0.00046494
-1.64211
-0.000476383
-1.64215
-0.000489679
-1.6422
-0.000505148
-1.64225
-0.000523147
-1.64231
-0.000544077
-1.64237
-0.000568398
-1.64244
-0.00059664
-1.64252
-0.000629411
-1.64261
-0.000667415
-1.64271
-0.000711468
-1.64282
-0.000762511
-1.64295
-0.000821637
-1.6431
-0.000890111
-1.64327
-0.000969398
-1.64346
-0.0010612
-1.64369
-0.00116748
-1.64394
-0.00129053
-1.64423
-0.00143299
-1.64457
-0.00159796
-1.64495
-0.00178899
-1.6454
-0.00201026
-1.64591
-0.00226662
-1.64651
-0.00256371
-1.64719
-0.00290815
-1.64798
-0.00330767
-1.6489
-0.00377139
-1.64996
-0.00431005
-1.65118
-0.00493638
-1.65259
-0.00566557
-1.65423
-0.00651587
-1.65613
-0.00750941
-1.65832
-0.00867329
-1.66086
-0.0100409
-1.6638
-0.0116543
-1.6672
-0.0135674
-1.67112
-0.0158519
-1.67563
-0.0186004
-1.68079
-0.0219251
-1.68667
-0.0259792
-1.69324
-0.0310431
-0.0375805
-1.70032
-1.56413
-0.000382987
-1.56411
-0.000454759
-1.56405
-0.000477174
-1.56399
-0.000487907
-1.56393
-0.000494995
-1.56387
-0.000501199
-1.5638
-0.0005075
-1.56375
-0.000514355
-1.56369
-0.00052205
-1.56363
-0.000530821
-1.56358
-0.000540891
-1.56354
-0.000552498
-1.56349
-0.000565899
-1.56346
-0.000581384
-1.56342
-0.000599285
-1.5634
-0.000619979
-1.56339
-0.000643903
-1.56338
-0.000671562
-1.56339
-0.00070354
-1.56341
-0.000740512
-1.56345
-0.000783261
-1.56351
-0.000832695
-1.56359
-0.000889863
-1.56369
-0.000955986
-1.56383
-0.00103248
-1.564
-0.00112098
-1.56421
-0.00122339
-1.56446
-0.00134193
-1.56477
-0.00147916
-1.56515
-0.00163808
-1.56559
-0.00182219
-1.56612
-0.00203555
-1.56674
-0.00228295
-1.56748
-0.00256997
-1.56835
-0.00290324
-1.56937
-0.00329057
-1.57056
-0.00374129
-1.57196
-0.00426661
-1.5736
-0.00488013
-1.57551
-0.0055986
-1.57774
-0.00644294
-1.58034
-0.00743965
-1.58337
-0.00862286
-1.5869
-0.0100386
-1.591
-0.0117524
-1.59574
-0.0138581
-1.60119
-0.0164754
-1.60741
-0.0197604
-1.61441
-0.024043
-0.0300713
-1.62192
-1.52358
-9.45814e-05
-1.52399
-4.44015e-05
-1.52443
-3.48946e-05
-1.52489
-3.31863e-05
-1.52535
-3.37542e-05
-1.52582
-3.5001e-05
-1.52629
-3.66089e-05
-1.52676
-3.85816e-05
-1.52724
-4.10037e-05
-1.52773
-4.39793e-05
-1.52822
-4.76206e-05
-1.52872
-5.20488e-05
-1.52923
-5.73974e-05
-1.52975
-6.38168e-05
-1.53028
-7.14782e-05
-1.53082
-8.0578e-05
-1.53137
-9.13425e-05
-1.53194
-0.000104033
-1.53252
-0.000118953
-1.53313
-0.000136453
-1.53375
-0.000156938
-1.5344
-0.000180881
-1.53509
-0.000208826
-1.5358
-0.000241409
-1.53655
-0.000279363
-1.53735
-0.000323544
-1.5382
-0.000374944
-1.53911
-0.000434718
-1.54008
-0.000504209
-1.54113
-0.000584986
-1.54228
-0.00067888
-1.54353
-0.000788035
-1.54489
-0.00091497
-1.5464
-0.00106266
-1.54807
-0.00123461
-1.54992
-0.00143503
-1.552
-0.00166896
-1.55432
-0.00194253
-1.55694
-0.00226327
-1.5599
-0.00264064
-1.56325
-0.0030867
-1.56707
-0.00361717
-1.57144
-0.00425288
-1.57646
-0.00502285
-1.58224
-0.00597091
-1.58893
-0.007165
-1.59671
-0.00869599
-1.60581
-0.0106596
-1.61662
-0.0132406
-0.0172496
-1.62944
-1.22762
-1.22767
-1.2277
-1.22773
-1.22777
-1.2278
-1.22784
-1.22788
-1.22792
-1.22796
-1.22801
-1.22806
-1.22812
-1.22818
-1.22826
-1.22834
-1.22843
-1.22853
-1.22865
-1.22879
-1.22894
-1.22913
-1.22933
-1.22958
-1.22986
-1.23018
-1.23055
-1.23099
-1.23149
-1.23208
-1.23276
-1.23354
-1.23446
-1.23552
-1.23676
-1.23819
-1.23986
-1.2418
-1.24407
-1.24671
-1.24979
-1.25341
-1.25766
-1.26269
-1.26866
-1.27582
-1.28452
-1.29518
-1.30842
-1.32567
1.62587
-0.0342492
1.638
-0.0121345
1.64684
-0.00883958
1.65127
-0.0044262
1.65284
-0.0015746
1.65294
-9.91189e-05
1.65225
0.000692701
1.65109
0.00116128
1.64964
0.00144749
1.64802
0.00161977
1.6463
0.00172103
1.64452
0.0017783
1.64271
0.00180765
1.64089
0.00181856
1.63908
0.00181687
1.63727
0.0018063
1.63548
0.00178923
1.63371
0.00176722
1.63197
0.00174123
1.63026
0.00171185
1.62858
0.00167938
1.62694
0.00164393
1.62533
0.00160541
1.62377
0.0015636
1.62225
0.00151815
1.62078
0.00146859
1.61937
0.00141427
1.61801
0.00135437
1.61673
0.00128792
1.61551
0.00121387
1.61438
0.00113102
1.61334
0.0010379
1.61241
0.000932905
1.6116
0.000812743
1.61092
0.000674965
1.61041
0.000516437
1.61007
0.000333471
1.60995
0.000121917
1.61007
-0.000123897
1.61049
-0.000412173
1.61124
-0.00075313
1.6124
-0.00115955
1.61405
-0.00164869
1.61629
-0.00224505
1.61928
-0.00298536
1.62321
-0.00392846
1.62838
-0.00517627
1.6353
-0.0069212
1.64487
-0.00956262
-0.0139726
1.65884
1.57532
-0.0179533
1.5719
-0.00871241
1.5662
-0.00314169
1.56319
-0.00141544
1.56174
-0.000121416
1.56096
0.000679824
1.56059
0.0010569
1.56052
0.00123069
1.56066
0.00131365
1.56093
0.00134736
1.5613
0.00135276
1.56173
0.0013428
1.56222
0.00132479
1.56273
0.00130238
1.56327
0.00127732
1.56383
0.0012504
1.5644
0.00122187
1.56497
0.00119163
1.56555
0.00115939
1.56614
0.00112468
1.56673
0.00108695
1.56733
0.00104548
1.56794
0.000999456
1.56855
0.000947932
1.56918
0.000889819
1.56983
0.000823876
1.57049
0.000748611
1.57118
0.0006621
1.57191
0.000562018
1.57268
0.000446273
1.5735
0.000312482
1.57438
0.000157054
1.57533
-2.42037e-05
1.57638
-0.000235752
1.57754
-0.000482693
1.57883
-0.000771376
1.58027
-0.00110951
1.5819
-0.00150644
1.58375
-0.00197438
1.58587
-0.00252828
1.5883
-0.00318623
1.59111
-0.00397208
1.59438
-0.00491743
1.5982
-0.00606553
1.60269
-0.00747758
1.60801
-0.00924359
1.61433
-0.011501
1.62188
-0.0144664
1.63081
-0.0184888
-0.0241166
1.64095
1.57763
-0.00396682
1.573
-0.00408398
1.57217
-0.00230619
1.57223
-0.00147691
1.57309
-0.000985548
1.57428
-0.000504722
1.57545
-0.000120032
1.57653
0.000155477
1.57749
0.000357111
1.57833
0.000507394
1.57906
0.00061809
1.57971
0.000698103
1.58028
0.000754593
1.58078
0.000792816
1.58125
0.000816472
1.58167
0.00082815
1.58206
0.000829631
1.58243
0.000822069
1.58278
0.000806118
1.58313
0.000782031
1.58346
0.000749714
1.5838
0.000708765
1.58414
0.000658488
1.58449
0.000597886
1.58485
0.000525758
1.58524
0.000440668
1.58565
0.00034086
1.58608
0.000223684
1.58656
8.59699e-05
1.58708
-7.55977e-05
1.58766
-0.000264999
1.5883
-0.000486966
1.58903
-0.000747143
1.58984
-0.00105109
1.59077
-0.00140696
1.59182
-0.00182409
1.59302
-0.00231368
1.59441
-0.00288935
1.596
-0.00356788
1.59784
-0.00436977
1.59997
-0.00532031
1.60245
-0.00645162
1.60534
-0.00780523
1.60871
-0.0094358
1.61265
-0.0114169
1.61726
-0.0138495
1.62263
-0.0168747
1.62886
-0.0206904
1.63594
-0.0255712
-0.0318751
1.6437
1.59001
-0.00235602
1.58927
-0.00334322
1.58952
-0.00256422
1.58974
-0.00169077
1.5898
-0.00104492
1.58979
-0.000496828
1.58972
-4.87357e-05
1.58959
0.000280379
1.58944
0.000509263
1.58928
0.000665794
1.58913
0.000769676
1.58899
0.000834588
1.58888
0.000870783
1.58879
0.000885767
1.58872
0.000884761
1.58867
0.000871265
1.58866
0.000847531
1.58866
0.000814896
1.5887
0.000773997
1.58875
0.000724923
1.58883
0.000667324
1.58894
0.000600443
1.58908
0.000523127
1.58924
0.000433716
1.58944
0.000330464
1.58967
0.000211445
1.58993
7.38758e-05
1.59024
-8.5305e-05
1.5906
-0.000269576
1.59101
-0.000483545
1.59147
-0.000732825
1.59201
-0.00102338
1.59263
-0.00136227
1.59333
-0.00175763
1.59414
-0.00221956
1.59508
-0.00275998
1.59616
-0.00339308
1.59741
-0.00413589
1.59885
-0.00500899
1.60052
-0.00603734
1.60245
-0.00725147
1.60468
-0.00868914
1.60728
-0.0103976
1.61028
-0.0124368
1.61374
-0.0148834
1.61773
-0.0178361
1.62228
-0.0214219
1.62739
-0.0258022
1.63299
-0.0311735
-0.0377526
1.63887
1.59022
-0.000962853
1.58845
-0.00156458
1.58719
-0.00131312
1.58635
-0.000846868
1.58579
-0.000487184
1.5855
-0.000208196
1.58543
2.10785e-05
1.58552
0.000197377
1.5857
0.000323846
1.58596
0.000412094
1.58625
0.000472099
1.58658
0.000510404
1.58692
0.000531638
1.58726
0.000539225
1.58761
0.000535544
1.58796
0.000522102
1.58831
0.000499733
1.58866
0.000468743
1.589
0.00042901
1.58935
0.000380045
1.58969
0.000321061
1.59004
0.000250932
1.5904
0.000168269
1.59076
7.08535e-05
1.59113
-4.35338e-05
1.59152
-0.000177661
1.59193
-0.000334827
1.59236
-0.000518515
1.59283
-0.000732853
1.59333
-0.000983275
1.59387
-0.00127605
1.59447
-0.00161836
1.59512
-0.00201863
1.59585
-0.00248677
1.59667
-0.00303452
1.59758
-0.00367586
1.59862
-0.00442731
1.59979
-0.00530854
1.60112
-0.00634305
1.60264
-0.00755899
1.60438
-0.00899023
1.60637
-0.0106777
1.60865
-0.0126714
1.61124
-0.015032
1.61419
-0.0178342
1.61752
-0.0211687
1.62125
-0.0251447
1.62534
-0.0298907
1.62971
-0.0355494
-0.0422647
1.63422
1.59117
-0.000510647
1.59055
-0.000953353
1.59023
-0.000991402
1.5902
-0.000809771
1.5903
-0.000594947
1.59049
-0.000390752
1.5907
-0.000198391
1.59093
-2.86506e-05
1.59114
0.000109966
1.59134
0.000217348
1.59151
0.000297195
1.59167
0.000353345
1.59181
0.000389186
1.59195
0.000407681
1.59207
0.000411244
1.59219
0.000401663
1.59231
0.000380111
1.59243
0.000347204
1.59256
0.000303064
1.59269
0.00024733
1.59283
0.000179383
1.59298
9.80648e-05
1.59315
1.84017e-06
1.59333
-0.000111128
1.59353
-0.000243429
1.59375
-0.000398332
1.594
-0.00057935
1.59427
-0.000790598
1.59457
-0.00103699
1.59492
-0.00132449
1.5953
-0.0016601
1.59573
-0.00205198
1.59622
-0.00250969
1.59678
-0.00304442
1.59742
-0.00366937
1.59814
-0.00440012
1.59897
-0.005255
1.59992
-0.00625565
1.601
-0.00742763
1.60224
-0.00880119
1.60366
-0.0104121
1.60529
-0.0123027
1.60714
-0.0145233
1.60924
-0.0171333
1.61161
-0.0202022
1.61425
-0.0238112
1.61716
-0.0280522
1.6203
-0.0330259
1.62358
-0.0388348
-0.0455712
1.62689
1.59137
-0.000263415
1.59094
-0.000521053
1.59052
-0.000578373
1.5902
-0.000484866
1.58995
-0.00034085
1.58975
-0.000197217
1.58962
-6.68397e-05
1.58955
4.382e-05
1.58953
0.000130262
1.58955
0.000192427
1.58962
0.000233192
1.58971
0.0002559
1.58984
0.000263409
1.58999
0.000258008
1.59016
0.000241411
1.59035
0.000214746
1.59055
0.000178586
1.59076
0.000132959
1.59099
7.74883e-05
1.59122
1.13628e-05
1.59147
-6.66501e-05
1.59173
-0.000158133
1.59199
-0.000265172
1.59227
-0.000389884
1.59256
-0.000535251
1.59287
-0.000704786
1.59319
-0.000902507
1.59354
-0.00113312
1.5939
-0.00140214
1.59429
-0.0017161
1.59472
-0.00208265
1.59517
-0.00251072
1.59567
-0.00301073
1.59623
-0.0035949
1.59683
-0.0042775
1.59751
-0.0050753
1.59826
-0.00600791
1.5991
-0.0070983
1.60005
-0.00837334
1.60111
-0.00986445
1.60231
-0.0116083
1.60365
-0.0136474
1.60516
-0.0160312
1.60684
-0.0188164
1.60871
-0.0220674
1.61075
-0.025856
1.61296
-0.0302602
1.6153
-0.0353609
1.6177
-0.0412367
-0.0479567
1.62009
1.59149
-0.000139562
1.59126
-0.000289952
1.59103
-0.000348086
1.59087
-0.000323267
1.59079
-0.00025926
1.59078
-0.00018737
1.59083
-0.000118753
1.59093
-5.76868e-05
1.59107
-7.4405e-06
1.59123
3.04358e-05
1.59141
5.61379e-05
1.59159
7.05391e-05
1.59178
7.44859e-05
1.59197
6.86299e-05
1.59216
5.33941e-05
1.59235
2.89327e-05
1.59253
-4.89338e-06
1.59271
-4.85159e-05
1.59289
-0.00010268
1.59307
-0.000168398
1.59325
-0.000247156
1.59343
-0.000340709
1.59362
-0.000451179
1.59381
-0.000581042
1.59401
-0.000733364
1.59422
-0.000911788
1.59443
-0.00112057
1.59467
-0.00136469
1.59491
-0.00164999
1.59518
-0.00198334
1.59547
-0.00237277
1.59579
-0.0028277
1.59614
-0.00335911
1.59652
-0.00397982
1.59695
-0.00470483
1.59743
-0.00555161
1.59796
-0.00654055
1.59856
-0.00769537
1.59923
-0.00904361
1.59998
-0.0106171
1.60082
-0.0124527
1.60177
-0.0145925
1.60282
-0.0170843
1.60399
-0.019982
1.60526
-0.0233451
1.60665
-0.0272379
1.60811
-0.0317276
1.60963
-0.0368807
1.61115
-0.0427581
-0.0494083
1.61261
1.59154
-6.24858e-05
1.59138
-0.000133374
1.5912
-0.000166794
1.59104
-0.00016258
1.59092
-0.000136941
1.59084
-0.000104918
1.59079
-7.38764e-05
1.59078
-4.71696e-05
1.5908
-2.71201e-05
1.59085
-1.50994e-05
1.59091
-1.1452e-05
1.591
-1.59708e-05
1.5911
-2.83471e-05
1.59122
-4.8361e-05
1.59135
-7.59548e-05
1.59149
-0.000111288
1.59164
-0.000154775
1.5918
-0.000207058
1.59197
-0.000269091
1.59214
-0.000342127
1.59232
-0.000427766
1.59251
-0.000527938
1.5927
-0.000644946
1.5929
-0.000781514
1.59311
-0.000940876
1.59332
-0.00112685
1.59355
-0.00134391
1.59378
-0.00159726
1.59402
-0.001893
1.59428
-0.00223827
1.59455
-0.00264138
1.59483
-0.00311206
1.59513
-0.00366162
1.59546
-0.00430327
1.5958
-0.00505236
1.59618
-0.00592676
1.59659
-0.00694719
1.59703
-0.00813767
1.59751
-0.00952592
1.59804
-0.0111438
1.59861
-0.0130277
1.59924
-0.0152189
1.59992
-0.0177637
1.60065
-0.0207135
1.60143
-0.0241239
1.60224
-0.0280537
1.60308
-0.0325632
1.60391
-0.0377104
1.6047
-0.0435471
-0.0501166
1.60541
1.59156
-5.0307e-06
1.59144
-1.25247e-05
1.59129
-2.03026e-05
1.59116
-2.85739e-05