/*--------------------------------*- C++ -*----------------------------------*\
  =========                 |
  \\      /  F ield         | OpenFOAM: The Open Source CFD Toolbox
   \\    /   O peration     | Website:  https://openfoam.org
    \\  /    A nd           | Version:  8
     \\/     M anipulation  |
\*---------------------------------------------------------------------------*/
FoamFile
{
    version     2.0;
    format      ascii;
    class       volVectorField;
    location    "1000";
    object      U;
}
// * * * * * * * * * * * * * * * * * * * * * * * * * * * * * * * * * * * * * //

dimensions      [0 1 -1 0 0 0 0];

internalField   nonuniform List<vector> 
8400
(
(-13.7396 -0.0754305 -1.87426e-15)
(-13.7429 -0.0761792 -1.87701e-15)
(-13.7455 -0.0771267 -1.87954e-15)
(-13.7483 -0.0781566 -1.88593e-15)
(-13.7512 -0.0792343 -1.88984e-15)
(-13.754 -0.0803495 -1.88919e-15)
(-13.7568 -0.0814996 -1.89065e-15)
(-13.7596 -0.0826844 -1.89223e-15)
(-13.7624 -0.0839051 -1.89379e-15)
(-13.7652 -0.0851635 -1.89928e-15)
(-13.7679 -0.0864618 -1.90275e-15)
(-13.7706 -0.0878025 -1.90174e-15)
(-13.7732 -0.0891886 -1.90263e-15)
(-13.7757 -0.0906232 -1.90394e-15)
(-13.7782 -0.0921102 -1.9074e-15)
(-13.7805 -0.0936535 -1.91387e-15)
(-13.7828 -0.0952579 -1.91228e-15)
(-13.7849 -0.0969285 -1.91095e-15)
(-13.7869 -0.098671 -1.91197e-15)
(-13.7888 -0.100492 -1.9133e-15)
(-13.7904 -0.1024 -1.91494e-15)
(-13.7918 -0.104402 -1.91664e-15)
(-13.793 -0.106507 -1.91838e-15)
(-13.7939 -0.108728 -1.9201e-15)
(-13.7944 -0.111079 -1.92177e-15)
(-13.7945 -0.11358 -1.92377e-15)
(-13.7942 -0.116255 -1.92192e-15)
(-13.7932 -0.119127 -1.9223e-15)
(-13.7916 -0.122209 -1.92725e-15)
(-13.7892 -0.125524 -1.93008e-15)
(-13.7858 -0.129099 -1.93275e-15)
(-13.7813 -0.132966 -1.93555e-15)
(-13.7756 -0.137162 -1.93438e-15)
(-13.7685 -0.141731 -1.9355e-15)
(-13.7597 -0.146725 -1.94123e-15)
(-13.7489 -0.152202 -1.945e-15)
(-13.7359 -0.158235 -1.94868e-15)
(-13.7203 -0.16491 -1.95242e-15)
(-13.7017 -0.17233 -1.95628e-15)
(-13.6795 -0.180623 -1.95921e-15)
(-13.6531 -0.189949 -1.96318e-15)
(-13.6219 -0.20051 -1.96495e-15)
(-13.585 -0.21257 -1.96935e-15)
(-13.5412 -0.226485 -1.97885e-15)
(-13.4892 -0.242756 -1.98661e-15)
(-13.4274 -0.262099 -1.99381e-15)
(-13.3542 -0.285489 -1.99804e-15)
(-13.2661 -0.314262 -2.007e-15)
(-13.1533 -0.350975 -2.02317e-15)
(-13.0043 -0.401538 -2.03998e-15)
(-15.7293 0.0789231 -1.18951e-15)
(-15.7326 0.0799464 -1.18996e-15)
(-15.7349 0.0809647 -1.19043e-15)
(-15.7372 0.0820008 -1.19408e-15)
(-15.7395 0.0830419 -1.19667e-15)
(-15.7418 0.0840911 -1.19599e-15)
(-15.7441 0.0851519 -1.19539e-15)
(-15.7464 0.0862272 -1.19442e-15)
(-15.7486 0.0873192 -1.19408e-15)
(-15.7508 0.0884292 -1.19745e-15)
(-15.753 0.0895583 -1.2001e-15)
(-15.7552 0.0907073 -1.19883e-15)
(-15.7573 0.0918767 -1.19675e-15)
(-15.7593 0.0930668 -1.1928e-15)
(-15.7613 0.0942777 -1.19705e-15)
(-15.7632 0.0955093 -1.21348e-15)
(-15.765 0.0967613 -1.21501e-15)
(-15.7667 0.0980331 -1.21239e-15)
(-15.7682 0.0993237 -1.21037e-15)
(-15.7696 0.100632 -1.2085e-15)
(-15.7709 0.101955 -1.20668e-15)
(-15.7719 0.103292 -1.20484e-15)
(-15.7727 0.104639 -1.20296e-15)
(-15.7732 0.105992 -1.20099e-15)
(-15.7735 0.10734 -1.19902e-15)
(-15.7733 0.108668 -1.19747e-15)
(-15.7728 0.109968 -1.19295e-15)
(-15.7718 0.111239 -1.18901e-15)
(-15.7703 0.112478 -1.18781e-15)
(-15.7682 0.113674 -1.1858e-15)
(-15.7654 0.114816 -1.1834e-15)
(-15.7618 0.115886 -1.1808e-15)
(-15.7574 0.116866 -1.17554e-15)
(-15.7518 0.117732 -1.17095e-15)
(-15.7451 0.118456 -1.1689e-15)
(-15.737 0.119004 -1.16589e-15)
(-15.7272 0.119336 -1.16241e-15)
(-15.7156 0.119401 -1.15869e-15)
(-15.7018 0.119138 -1.15336e-15)
(-15.6855 0.118468 -1.14897e-15)
(-15.6663 0.117289 -1.14575e-15)
(-15.6438 0.115467 -1.13854e-15)
(-15.6174 0.11282 -1.13187e-15)
(-15.5865 0.109085 -1.12772e-15)
(-15.5503 0.103853 -1.12e-15)
(-15.5082 0.0964958 -1.11344e-15)
(-15.4595 0.0861724 -1.106e-15)
(-15.403 0.0717599 -1.09629e-15)
(-15.3347 0.0506584 -1.08926e-15)
(-15.25 0.0158133 -1.08206e-15)
(-16.1252 -0.0663287 -1.52352e-15)
(-16.1234 -0.0667509 -1.52492e-15)
(-16.1225 -0.0674692 -1.52629e-15)
(-16.1217 -0.068306 -1.52921e-15)
(-16.1209 -0.0692109 -1.53135e-15)
(-16.1201 -0.0701639 -1.53128e-15)
(-16.1193 -0.0711572 -1.53148e-15)
(-16.1184 -0.0721882 -1.53185e-15)
(-16.1176 -0.0732563 -1.53219e-15)
(-16.1167 -0.0743624 -1.53423e-15)
(-16.1157 -0.0755085 -1.53547e-15)
(-16.1148 -0.0766969 -1.53418e-15)
(-16.1137 -0.077931 -1.53297e-15)
(-16.1126 -0.0792144 -1.53145e-15)
(-16.1115 -0.0805519 -1.52992e-15)
(-16.1102 -0.0819485 -1.53157e-15)
(-16.1089 -0.0834102 -1.53273e-15)
(-16.1074 -0.084944 -1.53132e-15)
(-16.1058 -0.0865576 -1.53044e-15)
(-16.1041 -0.0882604 -1.52965e-15)
(-16.1022 -0.0900631 -1.52889e-15)
(-16.1001 -0.0919785 -1.52809e-15)
(-16.0978 -0.0940202 -1.52721e-15)
(-16.0953 -0.0962091 -1.52631e-15)
(-16.0924 -0.0985611 -1.5254e-15)
(-16.0891 -0.101095 -1.52457e-15)
(-16.0855 -0.10384 -1.52186e-15)
(-16.0813 -0.106829 -1.51973e-15)
(-16.0767 -0.110097 -1.52003e-15)
(-16.0714 -0.113683 -1.52011e-15)
(-16.0654 -0.11763 -1.52013e-15)
(-16.0585 -0.12199 -1.52032e-15)
(-16.0507 -0.126819 -1.51877e-15)
(-16.0418 -0.132186 -1.51798e-15)
(-16.0317 -0.138168 -1.51987e-15)
(-16.02 -0.144855 -1.52188e-15)
(-16.0066 -0.15235 -1.5242e-15)
(-15.9913 -0.160773 -1.52703e-15)
(-15.9736 -0.170267 -1.53051e-15)
(-15.9533 -0.180997 -1.53389e-15)
(-15.9299 -0.193158 -1.53897e-15)
(-15.903 -0.206985 -1.54464e-15)
(-15.8719 -0.222757 -1.55211e-15)
(-15.8361 -0.240824 -1.56373e-15)
(-15.7948 -0.261643 -1.57705e-15)
(-15.7473 -0.285811 -1.59186e-15)
(-15.6929 -0.314006 -1.60823e-15)
(-15.6307 -0.346979 -1.62976e-15)
(-15.5587 -0.386197 -1.65988e-15)
(-15.4755 -0.435384 -1.69566e-15)
(-16.5749 0.0696424 2.11187e-16)
(-16.576 0.0702738 2.11713e-16)
(-16.576 0.0710153 2.12235e-16)
(-16.5758 0.0717876 2.11062e-16)
(-16.5755 0.0725577 2.10455e-16)
(-16.5752 0.0733182 2.12037e-16)
(-16.5749 0.0740681 2.13283e-16)
(-16.5745 0.0748072 2.14316e-16)
(-16.5741 0.075535 2.1522e-16)
(-16.5737 0.0762506 2.14526e-16)
(-16.5733 0.076952 2.14651e-16)
(-16.5729 0.0776367 2.17059e-16)
(-16.5724 0.0783015 2.19347e-16)
(-16.5719 0.0789421 2.21259e-16)
(-16.5713 0.0795537 2.22622e-16)
(-16.5707 0.0801303 2.2294e-16)
(-16.57 0.0806648 2.23675e-16)
(-16.5692 0.0811492 2.26222e-16)
(-16.5683 0.0815738 2.28744e-16)
(-16.5673 0.0819268 2.31079e-16)
(-16.5662 0.0821935 2.33311e-16)
(-16.5649 0.0823605 2.35474e-16)
(-16.5634 0.0824083 2.37596e-16)
(-16.5618 0.0823229 2.39724e-16)
(-16.5599 0.0820837 2.41866e-16)
(-16.5578 0.081667 2.43918e-16)
(-16.5555 0.0810457 2.47751e-16)
(-16.5528 0.0801866 2.51122e-16)
(-16.5497 0.0790502 2.52315e-16)
(-16.5462 0.0775907 2.53794e-16)
(-16.5421 0.0757554 2.55494e-16)
(-16.5375 0.0734829 2.57211e-16)
(-16.5322 0.0707015 2.60774e-16)
(-16.5261 0.0673277 2.63888e-16)
(-16.5191 0.0632637 2.64738e-16)
(-16.511 0.0583952 2.65781e-16)
(-16.5017 0.0525876 2.66908e-16)
(-16.491 0.0456825 2.67858e-16)
(-16.4787 0.0374919 2.70452e-16)
(-16.4645 0.027792 2.71406e-16)
(-16.4482 0.0163142 2.70092e-16)
(-16.4293 0.00273528 2.71801e-16)
(-16.4077 -0.0133372 2.72662e-16)
(-16.3828 -0.0323873 2.70525e-16)
(-16.3543 -0.0550223 2.69807e-16)
(-16.3217 -0.0819902 2.6672e-16)
(-16.2848 -0.114156 2.62611e-16)
(-16.2431 -0.152516 2.58585e-16)
(-16.196 -0.198468 2.50605e-16)
(-16.1431 -0.254163 2.41461e-16)
(-16.4265 -0.0554263 5.87312e-16)
(-16.4234 -0.055846 5.88629e-16)
(-16.422 -0.0563849 5.89911e-16)
(-16.4208 -0.0569812 5.8945e-16)
(-16.4197 -0.0576132 5.89476e-16)
(-16.4186 -0.0582739 5.91599e-16)
(-16.4174 -0.0589605 5.93375e-16)
(-16.4163 -0.0596721 5.94807e-16)
(-16.4151 -0.0604087 5.96071e-16)
(-16.4139 -0.061171 5.95544e-16)
(-16.4127 -0.0619604 5.95533e-16)
(-16.4115 -0.0627791 5.97823e-16)
(-16.4102 -0.0636295 5.99988e-16)
(-16.4088 -0.064515 6.02066e-16)
(-16.4075 -0.0654398 6.04176e-16)
(-16.406 -0.0664088 6.04244e-16)
(-16.4045 -0.0674279 6.04473e-16)
(-16.4029 -0.068504 6.07222e-16)
(-16.4012 -0.0696465 6.09484e-16)
(-16.3994 -0.0708657 6.11534e-16)
(-16.3975 -0.0721714 6.13463e-16)
(-16.3954 -0.0735806 6.15357e-16)
(-16.3932 -0.0751117 6.17261e-16)
(-16.3908 -0.0767866 6.1921e-16)
(-16.3881 -0.078631 6.21223e-16)
(-16.3851 -0.0806728 6.23214e-16)
(-16.3819 -0.0829446 6.27111e-16)
(-16.3783 -0.0854838 6.30647e-16)
(-16.3742 -0.0883337 6.32075e-16)
(-16.3697 -0.0915442 6.33947e-16)
(-16.3647 -0.095173 6.36212e-16)
(-16.359 -0.0992871 6.38694e-16)
(-16.3526 -0.103964 6.43333e-16)
(-16.3453 -0.109294 6.47767e-16)
(-16.3371 -0.115381 6.50179e-16)
(-16.3278 -0.122346 6.53187e-16)
(-16.3171 -0.130332 6.5673e-16)
(-16.305 -0.139502 6.60754e-16)
(-16.2912 -0.150049 6.65325e-16)
(-16.2754 -0.1622 6.71399e-16)
(-16.2574 -0.176223 6.77374e-16)
(-16.2368 -0.192433 6.8524e-16)
(-16.2134 -0.21121 6.93298e-16)
(-16.1867 -0.233015 6.9933e-16)
(-16.1563 -0.258411 7.07232e-16)
(-16.122 -0.288084 7.17406e-16)
(-16.0833 -0.322843 7.30587e-16)
(-16.0401 -0.363674 7.4423e-16)
(-15.9918 -0.411896 7.55905e-16)
(-15.938 -0.469258 7.70414e-16)
(-16.5739 0.0536373 8.30327e-17)
(-16.5754 0.0539789 8.32686e-17)
(-16.5753 0.054396 8.35311e-17)
(-16.5749 0.0548244 8.20629e-17)
(-16.5743 0.0552384 8.11269e-17)
(-16.5738 0.0556288 8.23561e-17)
(-16.5732 0.0559912 8.3234e-17)
(-16.5726 0.0563223 8.38294e-17)
(-16.572 0.0566189 8.43362e-17)
(-16.5713 0.056877 8.29612e-17)
(-16.5707 0.0570922 8.20091e-17)
(-16.57 0.0572588 8.32824e-17)
(-16.5693 0.0573703 8.44646e-17)
(-16.5686 0.0574193 8.54766e-17)
(-16.5678 0.0573968 8.66542e-17)
(-16.567 0.0572921 8.56134e-17)
(-16.5661 0.0570935 8.51884e-17)
(-16.5651 0.0567884 8.68308e-17)
(-16.5641 0.0563626 8.81579e-17)
(-16.563 0.0558006 8.92591e-17)
(-16.5619 0.0550832 9.02282e-17)
(-16.5606 0.0541898 9.11284e-17)
(-16.5592 0.053097 9.19937e-17)
(-16.5576 0.0517775 9.28543e-17)
(-16.5559 0.0501991 9.37143e-17)
(-16.554 0.0483244 9.44833e-17)
(-16.5519 0.0461104 9.70428e-17)
(-16.5495 0.0435075 9.90966e-17)
(-16.5468 0.0404588 9.89642e-17)
(-16.5437 0.036899 9.92151e-17)
(-16.5403 0.0327529 9.97414e-17)
(-16.5364 0.0279345 1.00382e-16)
(-16.532 0.0223446 1.03005e-16)
(-16.5269 0.0158693 1.05094e-16)
(-16.5211 0.00837783 1.0494e-16)
(-16.5145 -0.000280308 1.05239e-16)
(-16.5069 -0.0102779 1.05781e-16)
(-16.4983 -0.0218135 1.06329e-16)
(-16.4883 -0.0351148 1.08761e-16)
(-16.4769 -0.0504434 1.09766e-16)
(-16.4639 -0.0680988 1.08808e-16)
(-16.449 -0.0884235 1.1129e-16)
(-16.432 -0.111809 1.13316e-16)
(-16.4126 -0.138703 1.1281e-16)
(-16.3907 -0.169615 1.14233e-16)
(-16.366 -0.205113 1.1383e-16)
(-16.3386 -0.245813 1.13335e-16)
(-16.3083 -0.292384 1.14098e-16)
(-16.2752 -0.345597 1.12184e-16)
(-16.2392 -0.406366 1.08463e-16)
(-16.4904 -0.0402486 8.60741e-17)
(-16.4868 -0.040502 8.63103e-17)
(-16.4855 -0.0408079 8.65896e-17)
(-16.4844 -0.0411397 8.4389e-17)
(-16.4834 -0.0414889 8.29611e-17)
(-16.4825 -0.0418536 8.43435e-17)
(-16.4815 -0.0422335 8.50186e-17)
(-16.4806 -0.0426292 8.54471e-17)
(-16.4796 -0.0430414 8.57402e-17)
(-16.4786 -0.0434714 8.39598e-17)
(-16.4776 -0.0439211 8.24242e-17)
(-16.4766 -0.0443929 8.31956e-17)
(-16.4755 -0.0448898 8.38368e-17)
(-16.4744 -0.0454157 8.434e-17)
(-16.4733 -0.0459765 8.46889e-17)
(-16.4721 -0.0465777 8.32668e-17)
(-16.4709 -0.0472272 8.22132e-17)
(-16.4697 -0.0479357 8.34207e-17)
(-16.4684 -0.0487153 8.42971e-17)
(-16.467 -0.0495801 8.49354e-17)
(-16.4655 -0.0505472 8.54465e-17)
(-16.4639 -0.051636 8.58777e-17)
(-16.4622 -0.0528692 8.62918e-17)
(-16.4604 -0.0542729 8.66939e-17)
(-16.4584 -0.0558775 8.71313e-17)
(-16.4563 -0.0577188 8.74908e-17)
(-16.454 -0.0598383 8.97348e-17)
(-16.4514 -0.0622845 9.15499e-17)
(-16.4485 -0.0651141 9.12245e-17)
(-16.4453 -0.0683929 9.12834e-17)
(-16.4418 -0.0721976 9.17218e-17)
(-16.4379 -0.0766173 9.23284e-17)
(-16.4334 -0.0817557 9.50613e-17)
(-16.4285 -0.0877329 9.75775e-17)
(-16.4228 -0.0946888 9.80958e-17)
(-16.4165 -0.102785 9.91619e-17)
(-16.4092 -0.112209 1.00773e-16)
(-16.401 -0.123178 1.02836e-16)
(-16.3917 -0.135942 1.05423e-16)
(-16.381 -0.150791 1.08627e-16)
(-16.3689 -0.168056 1.13085e-16)
(-16.3552 -0.188118 1.19607e-16)
(-16.3395 -0.211413 1.25353e-16)
(-16.3217 -0.238435 1.3068e-16)
(-16.3016 -0.269739 1.37121e-16)
(-16.279 -0.30594 1.43788e-16)
(-16.2537 -0.347695 1.54211e-16)
(-16.2256 -0.395686 1.66656e-16)
(-16.1947 -0.450611 1.78367e-16)
(-16.1606 -0.513202 1.91871e-16)
(-16.5475 0.0341309 -1.7687e-16)
(-16.5492 0.034272 -1.76897e-16)
(-16.5491 0.0344294 -1.76832e-16)
(-16.5487 0.0345741 -1.78678e-16)
(-16.5481 0.0346937 -1.80186e-16)
(-16.5474 0.0347824 -1.7941e-16)
(-16.5468 0.034836 -1.78891e-16)
(-16.5461 0.0348505 -1.786e-16)
(-16.5454 0.0348216 -1.78445e-16)
(-16.5447 0.0347444 -1.80245e-16)
(-16.544 0.0346132 -1.81912e-16)
(-16.5433 0.0344219 -1.81359e-16)
(-16.5426 0.0341629 -1.81071e-16)
(-16.5418 0.0338274 -1.81377e-16)
(-16.541 0.033407 -1.81456e-16)
(-16.5402 0.0328904 -1.83364e-16)
(-16.5393 0.0322654 -1.84897e-16)
(-16.5384 0.0315184 -1.84253e-16)
(-16.5375 0.0306334 -1.84054e-16)
(-16.5365 0.0295922 -1.84179e-16)
(-16.5354 0.0283733 -1.84542e-16)
(-16.5343 0.026952 -1.85084e-16)
(-16.5331 0.0253003 -1.85781e-16)
(-16.5318 0.0233857 -1.86607e-16)
(-16.5304 0.021171 -1.87568e-16)
(-16.5289 0.0186134 -1.8875e-16)
(-16.5272 0.0156638 -1.88249e-16)
(-16.5254 0.0122662 -1.88379e-16)
(-16.5234 0.00835579 -1.90936e-16)
(-16.5211 0.00385874 -1.93325e-16)
(-16.5187 -0.00130986 -1.95676e-16)
(-16.5159 -0.00724734 -1.98171e-16)
(-16.5127 -0.0140653 -1.98999e-16)
(-16.5092 -0.0218917 -2.00499e-16)
(-16.5053 -0.0308731 -2.0454e-16)
(-16.5008 -0.0411771 -2.08594e-16)
(-16.4957 -0.0529956 -2.12853e-16)
(-16.49 -0.0665472 -2.1745e-16)
(-16.4834 -0.0820811 -2.22653e-16)
(-16.476 -0.0998801 -2.25636e-16)
(-16.4675 -0.120264 -2.31494e-16)
(-16.4579 -0.143591 -2.3948e-16)
(-16.447 -0.170264 -2.45108e-16)
(-16.4347 -0.200725 -2.55678e-16)
(-16.4208 -0.235459 -2.69169e-16)
(-16.4053 -0.274984 -2.82014e-16)
(-16.388 -0.319833 -2.95494e-16)
(-16.3691 -0.370529 -3.10671e-16)
(-16.3484 -0.427557 -3.32335e-16)
(-16.3258 -0.491392 -3.59312e-16)
(-16.5134 -0.0227973 3.65215e-16)
(-16.5098 -0.0228965 3.66998e-16)
(-16.5085 -0.0230122 3.68873e-16)
(-16.5075 -0.0231429 3.68751e-16)
(-16.5067 -0.0232884 3.68932e-16)
(-16.5059 -0.0234497 3.71499e-16)
(-16.5051 -0.0236281 3.73834e-16)
(-16.5042 -0.0238252 3.75956e-16)
(-16.5034 -0.0240431 3.7807e-16)
(-16.5026 -0.0242844 3.78217e-16)
(-16.5018 -0.0245521 3.78573e-16)
(-16.5009 -0.0248509 3.8111e-16)
(-16.5001 -0.025186 3.83238e-16)
(-16.4992 -0.0255636 3.8515e-16)
(-16.4984 -0.0259914 3.87213e-16)
(-16.4975 -0.0264786 3.87361e-16)
(-16.4966 -0.027036 3.87895e-16)
(-16.4956 -0.027676 3.90614e-16)
(-16.4947 -0.0284132 3.92938e-16)
(-16.4937 -0.0292647 3.94989e-16)
(-16.4927 -0.0302501 3.96834e-16)
(-16.4916 -0.0313925 3.98564e-16)
(-16.4905 -0.0327189 4.00188e-16)
(-16.4894 -0.0342604 4.01763e-16)
(-16.4882 -0.0360536 4.03275e-16)
(-16.4869 -0.0381408 4.04664e-16)
(-16.4855 -0.0405714 4.07857e-16)
(-16.484 -0.0434026 4.10537e-16)
(-16.4824 -0.0467013 4.10942e-16)
(-16.4806 -0.0505446 4.11691e-16)
(-16.4787 -0.0550222 4.12706e-16)
(-16.4766 -0.0602379 4.13811e-16)
(-16.4743 -0.0663119 4.16942e-16)
(-16.4717 -0.0733831 4.19713e-16)
(-16.4689 -0.0816115 4.2033e-16)
(-16.4657 -0.0911817 4.21442e-16)
(-16.462 -0.102305 4.22958e-16)
(-16.458 -0.115225 4.24687e-16)
(-16.4533 -0.130217 4.2854e-16)
(-16.4481 -0.147596 4.31344e-16)
(-16.4421 -0.167716 4.32585e-16)
(-16.4354 -0.190973 4.37672e-16)
(-16.4277 -0.217806 4.43094e-16)
(-16.4189 -0.248696 4.46904e-16)
(-16.409 -0.284159 4.53646e-16)
(-16.3978 -0.324737 4.59753e-16)
(-16.3852 -0.370981 4.67069e-16)
(-16.3712 -0.42341 4.77576e-16)
(-16.3557 -0.482492 4.87961e-16)
(-16.3383 -0.548666 5.02001e-16)
(-16.522 0.0134098 1.34061e-16)
(-16.5238 0.0134124 1.35303e-16)
(-16.5237 0.0133944 1.36704e-16)
(-16.5232 0.0133528 1.36195e-16)
(-16.5226 0.0132859 1.36077e-16)
(-16.5219 0.0131917 1.3835e-16)
(-16.5212 0.0130677 1.40403e-16)
(-16.5205 0.0129112 1.42309e-16)
(-16.5198 0.0127186 1.44281e-16)
(-16.5191 0.0124857 1.44365e-16)
(-16.5184 0.012208 1.4473e-16)
(-16.5177 0.0118798 1.47231e-16)
(-16.517 0.0114947 1.49409e-16)
(-16.5163 0.0110453 1.514e-16)
(-16.5155 0.0105228 1.53357e-16)
(-16.5148 0.00991721 1.53349e-16)
(-16.514 0.00921644 1.5377e-16)
(-16.5132 0.00840672 1.56326e-16)
(-16.5124 0.00747202 1.58493e-16)
(-16.5116 0.00639375 1.60311e-16)
(-16.5108 0.0051504 1.61929e-16)
(-16.5099 0.00371708 1.63322e-16)
(-16.509 0.00206505 1.64601e-16)
(-16.5081 0.000161077 1.65697e-16)
(-16.5072 -0.00203319 1.6669e-16)
(-16.5062 -0.00456206 1.67406e-16)
(-16.5052 -0.00747667 1.69863e-16)
(-16.5041 -0.0108361 1.716e-16)
(-16.503 -0.0147083 1.70897e-16)
(-16.5018 -0.0191721 1.70358e-16)
(-16.5005 -0.0243178 1.69876e-16)
(-16.4991 -0.03025 1.69216e-16)
(-16.4977 -0.0370888 1.70275e-16)
(-16.4961 -0.0449725 1.70606e-16)
(-16.4944 -0.0540599 1.68375e-16)
(-16.4926 -0.0645335 1.66169e-16)
(-16.4905 -0.0766018 1.6382e-16)
(-16.4883 -0.0905031 1.61128e-16)
(-16.4858 -0.106509 1.58093e-16)
(-16.483 -0.124925 1.55568e-16)
(-16.4799 -0.146097 1.51644e-16)
(-16.4764 -0.170411 1.47582e-16)
(-16.4725 -0.198292 1.42396e-16)
(-16.468 -0.230202 1.33593e-16)
(-16.4628 -0.266634 1.23816e-16)
(-16.4569 -0.308101 1.13298e-16)
(-16.4502 -0.355115 1.02113e-16)
(-16.4425 -0.408142 8.69562e-17)
(-16.4337 -0.467578 6.39331e-17)
(-16.4233 -0.533761 3.61267e-17)
(-16.5259 -0.00487202 4.56363e-16)
(-16.5224 -0.00484644 4.58897e-16)
(-16.5212 -0.00482397 4.61435e-16)
(-16.5204 -0.00481701 4.62055e-16)
(-16.5196 -0.00483065 4.63148e-16)
(-16.5189 -0.00486768 4.66656e-16)
(-16.5182 -0.00493068 4.70023e-16)
(-16.5175 -0.0050226 4.73271e-16)
(-16.5169 -0.00514697 4.76615e-16)
(-16.5162 -0.00530804 4.77991e-16)
(-16.5155 -0.00551086 4.79861e-16)
(-16.5148 -0.00576138 4.84001e-16)
(-16.5142 -0.00606652 4.8789e-16)
(-16.5135 -0.00643428 4.9163e-16)
(-16.5128 -0.00687394 4.95395e-16)
(-16.5122 -0.00739624 4.97331e-16)
(-16.5115 -0.00801359 4.99756e-16)
(-16.5109 -0.0087403 5.0448e-16)
(-16.5103 -0.00959288 5.08848e-16)
(-16.5097 -0.0105904 5.13066e-16)
(-16.5091 -0.0117549 5.17128e-16)
(-16.5085 -0.0131117 5.21209e-16)
(-16.508 -0.0146902 5.25236e-16)
(-16.5075 -0.0165242 5.29352e-16)
(-16.507 -0.0186528 5.33473e-16)
(-16.5065 -0.021121 5.37608e-16)
(-16.506 -0.0239809 5.43662e-16)
(-16.5056 -0.0272925 5.4932e-16)
(-16.5053 -0.0311253 5.52801e-16)
(-16.5049 -0.0355592 5.56848e-16)
(-16.5046 -0.0406866 5.61337e-16)
(-16.5044 -0.046614 5.66147e-16)
(-16.5042 -0.0534642 5.7322e-16)
(-16.5041 -0.0613789 5.80234e-16)
(-16.5041 -0.070521 5.8545e-16)
(-16.5041 -0.081078 5.91612e-16)
(-16.5043 -0.0932651 5.98687e-16)
(-16.5045 -0.107329 6.06592e-16)
(-16.5048 -0.12355 6.17408e-16)
(-16.5052 -0.14225 6.28029e-16)
(-16.5057 -0.163788 6.38013e-16)
(-16.5062 -0.188572 6.53318e-16)
(-16.5069 -0.217052 6.70491e-16)
(-16.5075 -0.249722 6.87805e-16)
(-16.5082 -0.287112 7.10533e-16)
(-16.5087 -0.329783 7.35562e-16)
(-16.5091 -0.378299 7.65692e-16)
(-16.5092 -0.433197 8.03785e-16)
(-16.5088 -0.494947 8.47345e-16)
(-16.5076 -0.563959 8.98881e-16)
(-16.491 -0.00694722 -4.17481e-16)
(-16.4927 -0.00706313 -4.18401e-16)
(-16.4926 -0.00722194 -4.1921e-16)
(-16.4921 -0.00740781 -4.21911e-16)
(-16.4914 -0.00761364 -4.24111e-16)
(-16.4908 -0.00783795 -4.23894e-16)
(-16.4901 -0.00808123 -4.23889e-16)
(-16.4894 -0.00834504 -4.2403e-16)
(-16.4887 -0.00863167 -4.24137e-16)
(-16.488 -0.00894405 -4.26111e-16)
(-16.4874 -0.00928582 -4.27555e-16)
(-16.4867 -0.00966137 -4.26694e-16)
(-16.486 -0.010076 -4.2615e-16)
(-16.4854 -0.0105358 -4.25794e-16)
(-16.4847 -0.0110484 -4.25429e-16)
(-16.4841 -0.0116224 -4.26975e-16)
(-16.4834 -0.0122683 -4.28024e-16)
(-16.4828 -0.012998 -4.26895e-16)
(-16.4822 -0.0138259 -4.26131e-16)
(-16.4816 -0.0147687 -4.25724e-16)
(-16.4811 -0.0158459 -4.2549e-16)
(-16.4806 -0.0170804 -4.25505e-16)
(-16.4801 -0.0184987 -4.25656e-16)
(-16.4796 -0.0201321 -4.26057e-16)
(-16.4792 -0.0220168 -4.26641e-16)
(-16.4789 -0.0241952 -4.27638e-16)
(-16.4786 -0.0267165 -4.27045e-16)
(-16.4784 -0.0296382 -4.27385e-16)
(-16.4782 -0.0330269 -4.30415e-16)
(-16.4782 -0.0369603 -4.33603e-16)
(-16.4783 -0.0415285 -4.37119e-16)
(-16.4785 -0.0468361 -4.41285e-16)
(-16.4788 -0.0530043 -4.44252e-16)
(-16.4793 -0.0601735 -4.48598e-16)
(-16.48 -0.0685064 -4.56285e-16)
(-16.481 -0.0781903 -4.64796e-16)
(-16.4822 -0.0894414 -4.74469e-16)
(-16.4836 -0.102508 -4.85654e-16)
(-16.4854 -0.117674 -4.98579e-16)
(-16.4875 -0.135264 -5.126e-16)
(-16.49 -0.155645 -5.29885e-16)
(-16.4929 -0.179231 -5.49469e-16)
(-16.4962 -0.206481 -5.72754e-16)
(-16.4998 -0.237902 -6.02805e-16)
(-16.5037 -0.27404 -6.37435e-16)
(-16.5078 -0.315471 -6.77196e-16)
(-16.512 -0.362782 -7.22781e-16)
(-16.516 -0.416535 -7.78683e-16)
(-16.5194 -0.477221 -8.4983e-16)
(-16.5216 -0.545225 -9.35386e-16)
(-16.5367 0.0122302 1.08636e-15)
(-16.5335 0.0123822 1.08942e-15)
(-16.5325 0.0125471 1.09249e-15)
(-16.5317 0.0127 1.09374e-15)
(-16.5311 0.0128309 1.09558e-15)
(-16.5305 0.0129354 1.09983e-15)
(-16.5299 0.0130101 1.10386e-15)
(-16.5294 0.0130511 1.1078e-15)
(-16.5288 0.0130542 1.11184e-15)
(-16.5282 0.0130144 1.11411e-15)
(-16.5277 0.0129259 1.11701e-15)
(-16.5272 0.012782 1.12228e-15)
(-16.5267 0.0125751 1.12735e-15)
(-16.5262 0.0122966 1.13233e-15)
(-16.5257 0.0119364 1.13743e-15)
(-16.5253 0.0114832 1.14072e-15)
(-16.5249 0.010924 1.14489e-15)
(-16.5246 0.0102439 1.1516e-15)
(-16.5242 0.00942577 1.15801e-15)
(-16.524 0.00845016 1.16444e-15)
(-16.5238 0.00729465 1.17095e-15)
(-16.5237 0.00593361 1.17767e-15)
(-16.5236 0.0043376 1.1846e-15)
(-16.5237 0.0024729 1.19182e-15)
(-16.5238 0.000300794 1.19932e-15)
(-16.5241 -0.00222315 1.20707e-15)
(-16.5245 -0.00514996 1.217e-15)
(-16.5251 -0.00853826 1.22681e-15)
(-16.5259 -0.0124554 1.23476e-15)
(-16.5269 -0.0169789 1.24356e-15)
(-16.5282 -0.0221979 1.25313e-15)
(-16.5298 -0.0282148 1.26334e-15)
(-16.5317 -0.0351477 1.2762e-15)
(-16.534 -0.0431324 1.28937e-15)
(-16.5367 -0.0523255 1.3012e-15)
(-16.54 -0.0629071 1.31444e-15)
(-16.5438 -0.0750847 1.32917e-15)
(-16.5483 -0.089097 1.34531e-15)
(-16.5536 -0.105219 1.3651e-15)
(-16.5597 -0.123765 1.38548e-15)
(-16.5668 -0.145098 1.40621e-15)
(-16.5749 -0.169629 1.43342e-15)
(-16.5841 -0.197827 1.46388e-15)
(-16.5946 -0.230221 1.49622e-15)
(-16.6063 -0.267399 1.53607e-15)
(-16.6193 -0.310004 1.5809e-15)
(-16.6336 -0.358725 1.63412e-15)
(-16.6488 -0.414273 1.69924e-15)
(-16.6648 -0.477329 1.7746e-15)
(-16.6811 -0.548468 1.86636e-15)
(-16.4413 -0.0256516 -5.36398e-16)
(-16.4427 -0.0259174 -5.3915e-16)
(-16.4425 -0.0262551 -5.4181e-16)
(-16.4419 -0.0266275 -5.46323e-16)
(-16.4412 -0.0270182 -5.50185e-16)
(-16.4405 -0.0274228 -5.51686e-16)
(-16.4398 -0.0278404 -5.53431e-16)
(-16.4391 -0.0282723 -5.55316e-16)
(-16.4384 -0.0287202 -5.5715e-16)
(-16.4377 -0.0291866 -5.60764e-16)
(-16.437 -0.0296744 -5.6377e-16)
(-16.4364 -0.0301871 -5.64384e-16)
(-16.4357 -0.0307292 -5.65332e-16)
(-16.4351 -0.0313056 -5.6637e-16)
(-16.4345 -0.0319223 -5.67388e-16)
(-16.434 -0.0325865 -5.70219e-16)
(-16.4335 -0.0333066 -5.72435e-16)
(-16.433 -0.0340924 -5.72295e-16)
(-16.4326 -0.0349557 -5.72549e-16)
(-16.4322 -0.0359103 -5.73011e-16)
(-16.4319 -0.0369725 -5.73611e-16)
(-16.4317 -0.0381612 -5.74323e-16)
(-16.4316 -0.0394988 -5.75129e-16)
(-16.4316 -0.0410116 -5.7607e-16)
(-16.4317 -0.0427302 -5.77162e-16)
(-16.432 -0.0446907 -5.78588e-16)
(-16.4324 -0.0469351 -5.78382e-16)
(-16.433 -0.0495126 -5.79094e-16)
(-16.4339 -0.0524807 -5.82574e-16)
(-16.435 -0.0559068 -5.86209e-16)
(-16.4363 -0.0598695 -5.90282e-16)
(-16.4381 -0.0644607 -5.95111e-16)
(-16.4402 -0.0697876 -5.98938e-16)
(-16.4427 -0.0759757 -6.04364e-16)
(-16.4457 -0.0831717 -6.13509e-16)
(-16.4494 -0.091547 -6.2385e-16)
(-16.4537 -0.101302 -6.35941e-16)
(-16.4587 -0.11267 -6.50192e-16)
(-16.4646 -0.125926 -6.67074e-16)
(-16.4715 -0.141389 -6.86051e-16)
(-16.4794 -0.159431 -7.09582e-16)
(-16.4885 -0.180486 -7.36922e-16)
(-16.4989 -0.205058 -7.6984e-16)
(-16.5106 -0.233726 -8.11736e-16)
(-16.5237 -0.26715 -8.60907e-16)
(-16.5382 -0.306066 -9.18589e-16)
(-16.5539 -0.351281 -9.86075e-16)
(-16.5704 -0.403662 -1.06898e-15)
(-16.5872 -0.464086 -1.1739e-15)
(-16.6034 -0.533279 -1.30119e-15)
(-16.552 0.0271388 1.81585e-15)
(-16.5495 0.0274396 1.82102e-15)
(-16.5487 0.0277909 1.82609e-15)
(-16.5482 0.0281511 1.82932e-15)
(-16.5478 0.0285032 1.83314e-15)
(-16.5474 0.0288403 1.83934e-15)
(-16.547 0.029158 1.84531e-15)
(-16.5466 0.0294522 1.85116e-15)
(-16.5463 0.0297187 1.85718e-15)
(-16.5459 0.0299527 1.86143e-15)
(-16.5456 0.0301491 1.86651e-15)
(-16.5453 0.030302 1.874e-15)
(-16.545 0.0304045 1.88139e-15)
(-16.5448 0.0304492 1.88876e-15)
(-16.5446 0.0304273 1.8964e-15)
(-16.5445 0.0303289 1.90236e-15)
(-16.5444 0.0301426 1.90915e-15)
(-16.5443 0.0298554 1.91852e-15)
(-16.5444 0.0294523 1.92781e-15)
(-16.5445 0.0289162 1.93722e-15)
(-16.5448 0.0282274 1.94685e-15)
(-16.5451 0.0273632 1.95681e-15)
(-16.5456 0.0262975 1.96716e-15)
(-16.5463 0.0250004 1.97798e-15)
(-16.5471 0.0234375 1.98931e-15)
(-16.5482 0.021569 2.00112e-15)
(-16.5495 0.0193492 2.01547e-15)
(-16.5511 0.0167254 2.02995e-15)
(-16.553 0.0136368 2.04289e-15)
(-16.5553 0.0100132 2.0571e-15)
(-16.558 0.00577364 2.07256e-15)
(-16.5613 0.000824458 2.08918e-15)
(-16.5652 -0.00494265 2.10919e-15)
(-16.5698 -0.011653 2.13021e-15)
(-16.5751 -0.019452 2.15085e-15)
(-16.5814 -0.0285079 2.174e-15)
(-16.5888 -0.0390165 2.19999e-15)
(-16.5974 -0.051205 2.22884e-15)
(-16.6074 -0.0653382 2.2632e-15)
(-16.6191 -0.0817245 2.30006e-15)
(-16.6326 -0.100724 2.33961e-15)
(-16.6482 -0.122755 2.38831e-15)
(-16.6662 -0.148311 2.44342e-15)
(-16.6868 -0.177966 2.50408e-15)
(-16.7102 -0.21239 2.57665e-15)
(-16.7367 -0.252344 2.65962e-15)
(-16.7664 -0.298697 2.75734e-15)
(-16.7993 -0.352471 2.87506e-15)
(-16.835 -0.414857 3.01287e-15)
(-16.8727 -0.486991 3.1782e-15)
(-16.3229 -0.0409567 -1.8538e-15)
(-16.3236 -0.0414486 -1.86461e-15)
(-16.3231 -0.0420322 -1.87569e-15)
(-16.3224 -0.0426586 -1.88896e-15)
(-16.3216 -0.0433044 -1.90197e-15)
(-16.3207 -0.0439652 -1.91286e-15)
(-16.3199 -0.0446417 -1.92447e-15)
(-16.319 -0.0453359 -1.93652e-15)
(-16.3182 -0.0460505 -1.94895e-15)
(-16.3174 -0.0467885 -1.9635e-15)
(-16.3167 -0.0475531 -1.97776e-15)
(-16.3159 -0.0483479 -1.98988e-15)
(-16.3152 -0.0491771 -2.00256e-15)
(-16.3145 -0.0500454 -2.01553e-15)
(-16.3139 -0.0509583 -2.02857e-15)
(-16.3133 -0.0519221 -2.04358e-15)
(-16.3128 -0.0529441 -2.05795e-15)
(-16.3124 -0.054033 -2.06989e-15)
(-16.312 -0.0551987 -2.08207e-15)
(-16.3117 -0.0564528 -2.09438e-15)
(-16.3116 -0.0578088 -2.10661e-15)
(-16.3116 -0.0592825 -2.11884e-15)
(-16.3117 -0.060892 -2.13088e-15)
(-16.312 -0.0626586 -2.1429e-15)
(-16.3125 -0.0646069 -2.15471e-15)
(-16.3132 -0.0667656 -2.16664e-15)
(-16.3141 -0.069168 -2.17647e-15)
(-16.3154 -0.0718527 -2.18702e-15)
(-16.317 -0.0748647 -2.19999e-15)
(-16.3191 -0.0782563 -2.21299e-15)
(-16.3216 -0.0820885 -2.2262e-15)
(-16.3246 -0.0864321 -2.2403e-15)
(-16.3282 -0.09137 -2.25334e-15)
(-16.3325 -0.0969988 -2.26842e-15)
(-16.3377 -0.103432 -2.28753e-15)
(-16.3438 -0.110802 -2.3085e-15)
(-16.3509 -0.119266 -2.33172e-15)
(-16.3593 -0.12901 -2.35797e-15)
(-16.3691 -0.140254 -2.3877e-15)
(-16.3805 -0.153263 -2.42071e-15)
(-16.3937 -0.168356 -2.4594e-15)
(-16.409 -0.185921 -2.50339e-15)
(-16.4265 -0.206433 -2.55488e-15)
(-16.4466 -0.230485 -2.61763e-15)
(-16.4694 -0.258816 -2.69042e-15)
(-16.495 -0.29233 -2.77526e-15)
(-16.5236 -0.332136 -2.87471e-15)
(-16.5549 -0.379669 -2.99541e-15)
(-16.5886 -0.436835 -3.14524e-15)
(-16.6227 -0.505679 -3.32637e-15)
(-16.5063 0.0379784 2.32093e-15)
(-16.5053 0.0383762 2.3343e-15)
(-16.5053 0.0389135 2.34823e-15)
(-16.5054 0.0395076 2.36064e-15)
(-16.5057 0.0401258 2.37421e-15)
(-16.506 0.0407543 2.39061e-15)
(-16.5062 0.0413864 2.40718e-15)
(-16.5066 0.0420177 2.42399e-15)
(-16.5069 0.0426449 2.44132e-15)
(-16.5073 0.0432648 2.45711e-15)
(-16.5077 0.0438744 2.47399e-15)
(-16.5081 0.04447 2.49367e-15)
(-16.5086 0.045048 2.51333e-15)
(-16.5092 0.0456038 2.5332e-15)
(-16.5098 0.0461324 2.55342e-15)
(-16.5104 0.046628 2.5721e-15)
(-16.5112 0.0470837 2.59176e-15)
(-16.512 0.0474916 2.61434e-15)
(-16.513 0.0478426 2.63689e-15)
(-16.514 0.048126 2.65982e-15)
(-16.5153 0.0483293 2.68315e-15)
(-16.5167 0.048438 2.70713e-15)
(-16.5182 0.0484353 2.73171e-15)
(-16.5201 0.0483016 2.7571e-15)
(-16.5221 0.0480138 2.78328e-15)
(-16.5245 0.0475455 2.81033e-15)
(-16.5272 0.0468656 2.84034e-15)
(-16.5304 0.0459377 2.87092e-15)
(-16.534 0.0447195 2.90044e-15)
(-16.5382 0.0431617 2.93188e-15)
(-16.543 0.0412062 2.96521e-15)
(-16.5485 0.0387851 3.00032e-15)
(-16.5549 0.0358187 3.03944e-15)
(-16.5622 0.032213 3.07998e-15)
(-16.5708 0.0278569 3.12016e-15)
(-16.5806 0.0226185 3.16287e-15)
(-16.592 0.0163411 3.20784e-15)
(-16.6052 0.00883656 3.25488e-15)
(-16.6205 -0.000121538 3.30617e-15)
(-16.6381 -0.0108082 3.35806e-15)
(-16.6586 -0.0235593 3.4107e-15)
(-16.6822 -0.0387879 3.47044e-15)
(-16.7096 -0.0570068 3.53302e-15)
(-16.7413 -0.0788635 3.59659e-15)
(-16.778 -0.105182 3.66929e-15)
(-16.8202 -0.136984 3.74679e-15)
(-16.8686 -0.175486 3.83245e-15)
(-16.9243 -0.222218 3.93185e-15)
(-16.9876 -0.279375 4.04275e-15)
(-17.0571 -0.349753 4.17345e-15)
(-15.7229 -0.0499752 -5.24746e-16)
(-15.7232 -0.0508455 -5.34651e-16)
(-15.7228 -0.0516764 -5.45003e-16)
(-15.7222 -0.052534 -5.58014e-16)
(-15.7216 -0.0534084 -5.70692e-16)
(-15.7209 -0.0543023 -5.8115e-16)
(-15.7203 -0.0552192 -5.9264e-16)
(-15.7197 -0.0561628 -6.04742e-16)
(-15.7191 -0.0571367 -6.17346e-16)
(-15.7186 -0.0581444 -6.32615e-16)
(-15.718 -0.0591897 -6.47602e-16)
(-15.7175 -0.0602764 -6.60392e-16)
(-15.7171 -0.061409 -6.7432e-16)
(-15.7167 -0.0625923 -6.88961e-16)
(-15.7163 -0.0638318 -7.04181e-16)
(-15.7161 -0.0651337 -7.2221e-16)
(-15.7159 -0.0665051 -7.40076e-16)
(-15.7158 -0.067954 -7.55874e-16)
(-15.7158 -0.0694895 -7.72994e-16)
(-15.7159 -0.0711222 -7.91037e-16)
(-15.7162 -0.0728638 -8.10003e-16)
(-15.7167 -0.0747283 -8.29805e-16)
(-15.7174 -0.0767311 -8.50509e-16)