/*--------------------------------*- C++ -*----------------------------------*\
  =========                 |
  \\      /  F ield         | OpenFOAM: The Open Source CFD Toolbox
   \\    /   O peration     | Website:  https://openfoam.org
    \\  /    A nd           | Version:  8
     \\/     M anipulation  |
\*---------------------------------------------------------------------------*/
FoamFile
{
    version     2.0;
    format      ascii;
    class       volScalarField;
    location    "200";
    object      alphat;
}
// * * * * * * * * * * * * * * * * * * * * * * * * * * * * * * * * * * * * * //

dimensions      [1 -1 -1 0 0 0 0];

internalField   nonuniform List<scalar> 
1200
(
0.200896
0.184964
0.171673
0.160443
0.150844
0.142559
0.135346
0.129022
0.12344
0.118483
0.114059
0.110091
0.106516
0.103283
0.100347
0.0976739
0.0952312
0.0929931
0.0909368
0.0890431
0.087295
0.085678
0.0841792
0.0827874
0.0814926
0.0802862
0.0791604
0.0781083
0.0771236
0.0762009
0.0753352
0.0745221
0.0737574
0.0730375
0.0723591
0.0717192
0.0711151
0.0705442
0.0700043
0.0694932
0.0690091
0.0685501
0.0681146
0.0677011
0.0673083
0.0669348
0.0665795
0.0662413
0.0659191
0.065612
0.0653191
0.0650396
0.0647728
0.0645178
0.0642742
0.0640411
0.0638181
0.0636047
0.0634003
0.0632044
0.116417
0.0999855
0.0873796
0.0774637
0.0694936
0.0629634
0.0575263
0.0529367
0.0490159
0.0456318
0.0426839
0.040095
0.037805
0.0357662
0.0339405
0.0322972
0.0308109
0.0294607
0.0282292
0.0271019
0.0260666
0.0251126
0.024231
0.0234143
0.0226558
0.0219496
0.0212908
0.0206749
0.0200981
0.0195569
0.0190483
0.0185697
0.0181186
0.0176929
0.0172907
0.0169102
0.0165499
0.0162084
0.0158843
0.0155766
0.015284
0.0150058
0.0147409
0.0144884
0.0142478
0.0140182
0.0137991
0.0135897
0.0133895
0.0131981
0.013015
0.0128397
0.0126717
0.0125108
0.0123564
0.0122083
0.012066
0.0119289
0.0117957
0.0116531
0.11639
0.0998143
0.087086
0.0770518
0.0689693
0.0623385
0.0568125
0.052144
0.0481532
0.0447063
0.0417017
0.0390616
0.0367247
0.0346428
0.0327771
0.0310963
0.0295747
0.0281911
0.0269279
0.0257703
0.0247057
0.0237237
0.0228151
0.021972
0.0211878
0.0204566
0.0197732
0.0191333
0.0185329
0.0179684
0.0174369
0.0169355
0.0164619
0.0160137
0.015589
0.0151861
0.0148034
0.0144393
0.0140927
0.0137622
0.0134468
0.0131456
0.0128575
0.0125819
0.0123178
0.0120646
0.0118217
0.0115885
0.0113643
0.0111488
0.0109414
0.0107417
0.0105492
0.0103637
0.0101847
0.0100119
0.00984508
0.00968382
0.00952781
0.00937645
0.11639
0.0998533
0.0871499
0.0771326
0.0690587
0.0624308
0.0569037
0.0522319
0.0482366
0.0447844
0.0417744
0.0391288
0.0367867
0.0346998
0.0328295
0.0311444
0.0296189
0.0282316
0.026965
0.0258043
0.0247369
0.0237522
0.0228411
0.0219958
0.0212095
0.0204763
0.0197911
0.0191495
0.0185474
0.0179813
0.0174481
0.0169452
0.01647
0.0160203
0.0155942
0.0151898
0.0148056
0.0144401
0.014092
0.01376
0.0134432
0.0131405
0.012851
0.0125738
0.0123083
0.0120536
0.0118092
0.0115744
0.0113487
0.0111315
0.0109225
0.0107212
0.0105271
0.0103398
0.0101591
0.0099846
0.00981596
0.00965291
0.00949518
0.00934252
0.11639
0.0998535
0.0871437
0.0771202
0.0690414
0.0624101
0.0568812
0.0522089
0.0482139
0.0447626
0.0417539
0.0391097
0.0367691
0.0346838
0.0328149
0.0311312
0.0296069
0.0282208
0.0269552
0.0257955
0.024729
0.0237451
0.0228347
0.0219901
0.0212044
0.0204718
0.0197871
0.0191459
0.0185442
0.0179784
0.0174456
0.016943
0.0164681
0.0160186
0.0155927
0.0151885
0.0148045
0.0144391
0.0140912
0.0137594
0.0134427
0.0131401
0.0128506
0.0125736
0.0123081
0.0120535
0.0118091
0.0115743
0.0113487
0.0111316
0.0109226
0.0107212
0.0105271
0.0103399
0.0101592
0.00998467
0.00981602
0.00965295
0.0094952
0.00934251
0.11639
0.0998535
0.0871437
0.0771202
0.0690415
0.0624101
0.0568813
0.052209
0.0482139
0.0447627
0.041754
0.0391098
0.0367692
0.0346838
0.032815
0.0311312
0.0296069
0.0282208
0.0269553
0.0257955
0.024729
0.0237451
0.0228348
0.0219901
0.0212044
0.0204718
0.0197871
0.0191459
0.0185441
0.0179784
0.0174456
0.016943
0.016468
0.0160186
0.0155926
0.0151885
0.0148044
0.0144391
0.0140911
0.0137593
0.0134426
0.01314
0.0128506
0.0125735
0.012308
0.0120534
0.011809
0.0115743
0.0113486
0.0111315
0.0109225
0.0107212
0.0105271
0.0103399
0.0101592
0.00998465
0.009816
0.00965294
0.0094952
0.00934252
0.11639
0.0998533
0.0871498
0.0771324
0.0690586
0.0624306
0.0569035
0.0522318
0.0482364
0.0447842
0.0417742
0.0391286
0.0367866
0.0346997
0.0328294
0.0311444
0.0296188
0.0282316
0.026965
0.0258043
0.0247369
0.0237522
0.0228411
0.0219958
0.0212095
0.0204764
0.0197912
0.0191496
0.0185474
0.0179814
0.0174482
0.0169453
0.0164701
0.0160204
0.0155942
0.0151899
0.0148056
0.0144401
0.014092
0.0137601
0.0134432
0.0131405
0.012851
0.0125738
0.0123082
0.0120535
0.0118091
0.0115742
0.0113485
0.0111314
0.0109223
0.0107209
0.0105268
0.0103395
0.0101588
0.00998421
0.00981553
0.00965243
0.00949466
0.00934195
0.11639
0.0998143
0.0870861
0.0770519
0.0689693
0.0623386
0.0568125
0.052144
0.0481532
0.0447063
0.0417017
0.0390615
0.0367246
0.0346427
0.032777
0.0310962
0.0295746
0.0281911
0.0269278
0.0257702
0.0247057
0.0237237
0.022815
0.021972
0.0211878
0.0204565
0.0197731
0.0191332
0.0185326
0.017968
0.0174362
0.0169345
0.0164605
0.016012
0.0155869
0.0151835
0.0148003
0.0144357
0.0140884
0.0137573
0.0134413
0.0131393
0.0128505
0.012574
0.0123091
0.0120551
0.0118113
0.0115771
0.011352
0.0111354
0.010927
0.0107262
0.0105327
0.0103461
0.010166
0.00999209
0.00982405
0.00966158
0.00950432
0.00935191
0.116417
0.0999857
0.0873796
0.0774636
0.0694937
0.0629643
0.0575281
0.0529395
0.0490201
0.0456368
0.0426897
0.0401017
0.0378125
0.0357744
0.0339491
0.0323056
0.0308189
0.0294679
0.0282355
0.027107
0.0260702
0.025115
0.0242323
0.0234145
0.0226551
0.0219483
0.0212891
0.0206732
0.0200965
0.0195557
0.0190479
0.0185702
0.0181202
0.0176957
0.0172949
0.0169159
0.0165571
0.0162171
0.0158947
0.0155886
0.0152978
0.0150212
0.014758
0.0145074
0.0142686
0.0140408
0.0138235
0.013616
0.0134177
0.0132282
0.013047
0.0128735
0.0127075
0.0125484
0.012396
0.0122498
0.0121094
0.0119741
0.0118425
0.0117012
0.200897
0.184964
0.171673
0.160443
0.150844
0.142558
0.135346
0.129021
0.123439
0.118483
0.114058
0.11009
0.106516
0.103282
0.100347
0.0976738
0.0952312
0.0929931
0.0909369
0.0890433
0.0872952
0.0856782
0.0841794
0.0827876
0.0814929
0.0802865
0.0791607
0.0781086
0.0771239
0.0762013
0.0753355
0.0745224
0.0737577
0.0730378
0.0723594
0.0717195
0.0711153
0.0705444
0.0700045
0.0694934
0.0690092
0.0685501
0.0681146
0.0677011
0.0673082
0.0669347
0.0665793
0.066241
0.0659187
0.0656115
0.0653185
0.0650389
0.0647719
0.0645168
0.064273
0.0640397
0.0638165
0.0636029
0.0633982
0.0632021
0.200897
0.184965
0.171674
0.160443
0.150844
0.142558
0.135346
0.129021
0.123439
0.118482
0.114058
0.11009
0.106515
0.103282
0.100347
0.0976736
0.095231
0.0929928
0.0909366
0.0890429
0.0872949
0.0856778
0.084179
0.0827872
0.0814924
0.080286
0.0791602
0.0781081
0.0771234
0.0762007
0.075335
0.0745219
0.0737572
0.0730373
0.072359
0.0717192
0.0711151
0.0705442
0.0700043
0.0694933
0.0690092
0.0685502
0.0681148
0.0677014
0.0673086
0.0669352
0.06658
0.0662418
0.0659197
0.0656126
0.0653198
0.0650404
0.0647737
0.0645188
0.0642753
0.0640423
0.0638195
0.0636061
0.0634019
0.0632062
0.116417
0.0999851
0.0873767
0.0774585
0.0694876
0.0629585
0.057523
0.0529356
0.0490175
0.0456357
0.0426897
0.0401025
0.0378137
0.0357756
0.0339502
0.0323063
0.0308188
0.0294672
0.0282341
0.027105
0.0260678
0.0251123
0.0242296
0.0234119
0.0226528
0.0219466
0.0212882
0.0206731
0.0200974
0.0195576
0.0190508
0.0185741
0.0181251
0.0177016
0.0173017
0.0169236
0.0165657
0.0162266
0.0159049
0.0155994
0.0153091
0.0150329
0.01477
0.0145196
0.0142808
0.0140529
0.0138354
0.0136276
0.013429
0.0132391
0.0130573
0.0128832
0.0127164
0.0125566
0.0124034
0.0122565
0.0121155
0.0119796
0.0118475
0.0117062
0.11639
0.0998142
0.087086
0.0770518
0.0689693
0.0623385
0.0568124
0.052144
0.0481531
0.0447062
0.0417016
0.0390614
0.0367245
0.0346426
0.0327769
0.0310961
0.0295745
0.0281909
0.0269277
0.0257701
0.0247056
0.0237235
0.0228149
0.0219718
0.0211876
0.0204564
0.019773
0.0191331
0.0185326
0.0179682
0.0174366
0.0169353
0.0164616
0.0160135
0.0155889
0.0151861
0.0148035
0.0144395
0.0140929
0.0137626
0.0134473
0.0131462
0.0128582
0.0125826
0.0123187
0.0120656
0.0118228
0.0115896
0.0113656
0.0111502
0.0109428
0.0107432
0.0105509
0.0103654
0.0101865
0.0100138
0.00984705
0.00968588
0.00952996
0.00937869
0.11639
0.0998532
0.0871497
0.0771324
0.0690587
0.0624307
0.0569037
0.0522319
0.0482365
0.0447843
0.0417743
0.0391287
0.0367866
0.0346998
0.0328295
0.0311444
0.0296188
0.0282315
0.0269649
0.0258042
0.0247368
0.0237521
0.022841
0.0219957
0.0212094
0.0204762
0.0197911
0.0191494
0.0185473
0.0179812
0.0174481
0.0169451
0.0164699
0.0160202
0.0155941
0.0151897
0.0148055
0.01444
0.0140919
0.0137599
0.0134431
0.0131404
0.0128509
0.0125737
0.0123081
0.0120534
0.011809
0.0115742
0.0113485
0.0111314
0.0109223
0.010721
0.0105268
0.0103396
0.0101589
0.00998435
0.0098157
0.00965264
0.00949489
0.00934222
0.11639
0.0998533
0.0871435
0.07712
0.0690413
0.06241
0.0568811
0.0522089
0.0482138
0.0447626
0.0417538
0.0391097
0.036769
0.0346837
0.0328148
0.0311311
0.0296067
0.0282207
0.0269551
0.0257954
0.0247289
0.023745
0.0228346
0.02199
0.0212043
0.0204717
0.019787
0.0191458
0.0185441
0.0179784
0.0174456
0.0169429
0.016468
0.0160185
0.0155926
0.0151884
0.0148044
0.014439
0.0140911
0.0137593
0.0134426
0.01314
0.0128505
0.0125734
0.012308
0.0120533
0.011809
0.0115742
0.0113485
0.0111314
0.0109224
0.0107211
0.010527
0.0103398
0.010159
0.00998451
0.00981585
0.00965278
0.00949502
0.00934233
0.11639
0.0998533
0.0871435
0.07712
0.0690413
0.06241
0.0568812
0.0522089
0.0482139
0.0447626
0.0417539
0.0391097
0.0367691
0.0346837
0.0328149
0.0311311
0.0296068
0.0282207
0.0269552
0.0257954
0.0247289
0.023745
0.0228347
0.02199
0.0212043
0.0204717
0.019787
0.0191458
0.0185441
0.0179784
0.0174456
0.0169429
0.016468
0.0160185
0.0155926
0.0151884
0.0148044
0.014439
0.0140911
0.0137593
0.0134426
0.0131399
0.0128505
0.0125734
0.0123079
0.0120533
0.0118089
0.0115742
0.0113485
0.0111314
0.0109224
0.0107211
0.010527
0.0103397
0.010159
0.00998448
0.00981582
0.00965275
0.009495
0.00934231
0.11639
0.0998532
0.0871498
0.0771324
0.0690586
0.0624306
0.0569035
0.0522317
0.0482363
0.0447841
0.0417741
0.0391285
0.0367864
0.0346996
0.0328293
0.0311443
0.0296187
0.0282315
0.0269649
0.0258042
0.0247368
0.0237521
0.022841
0.0219957
0.0212095
0.0204763
0.0197911
0.0191495
0.0185474
0.0179813
0.0174482
0.0169452
0.01647
0.0160203
0.0155942
0.0151898
0.0148056
0.0144401
0.014092
0.01376
0.0134432
0.0131405
0.0128509
0.0125738
0.0123082
0.0120535
0.011809
0.0115742
0.0113485
0.0111313
0.0109223
0.0107209
0.0105267
0.0103395
0.0101587
0.00998415
0.00981547
0.00965237
0.00949459
0.00934188
0.11639
0.0998142
0.087086
0.0770518
0.0689693
0.0623385
0.0568124
0.0521439
0.0481531
0.0447061
0.0417016
0.0390614
0.0367245
0.0346426
0.0327769
0.0310962
0.0295746
0.028191
0.0269278
0.0257702
0.0247057
0.0237237
0.022815
0.021972
0.0211878
0.0204566
0.0197732
0.0191332
0.0185326
0.017968
0.0174363
0.0169346
0.0164606
0.016012
0.0155869
0.0151836
0.0148003
0.0144357
0.0140885
0.0137574
0.0134413
0.0131394
0.0128506
0.0125741
0.0123092
0.0120552
0.0118114
0.0115772
0.011352
0.0111355
0.010927
0.0107261
0.0105326
0.0103459
0.0101657
0.00999171
0.0098236
0.00966106
0.00950374
0.00935144
0.116417
0.099985
0.0873774
0.0774601
0.0694901
0.0629619
0.0575277
0.0529412
0.0490236
0.0456422
0.0426964
0.0401089
0.0378195
0.0357808
0.0339548
0.0323107
0.0308234
0.0294721
0.0282395
0.0271111
0.0260746
0.0251196
0.0242371
0.0234195
0.0226601
0.0219531
0.0212937
0.0206773
0.0201001
0.0195588
0.0190502
0.0185717
0.0181209
0.0176956
0.0172939
0.0169141
0.0165546
0.016214
0.0158908
0.015584
0.0152925
0.0150153
0.0147514
0.0145001
0.0142605
0.014032
0.0138139
0.0136056
0.0134066
0.0132162
0.0130342
0.0128599
0.012693
0.012533
0.0123797
0.0122326
0.0120914
0.0119553
0.0118229
0.0116804
0.200897
0.184965
0.171674
0.160443
0.150844
0.142558
0.135345
0.129021
0.123439
0.118482
0.114058
0.11009
0.106516
0.103282
0.100347
0.097674
0.0952314
0.0929933
0.0909371
0.0890434
0.0872954
0.0856784
0.0841796
0.0827878
0.081493
0.0802867
0.0791608
0.0781087
0.077124
0.0762013
0.0753356
0.0745223
0.0737576
0.0730377
0.0723593
0.0717193
0.0711152
0.0705442
0.0700042
0.0694931
0.0690088
0.0685497
0.0681142
0.0677006
0.0673077
0.0669341
0.0665786
0.0662402
0.0659179
0.0656106
0.0653175
0.0650378
0.0647707
0.0645155
0.0642716
0.0640383
0.063815
0.0636012
0.0633964
0.0632002
)
;

boundaryField
{
    wall
    {
        type            compressible::alphatJayatillekeWallFunction;
        Prt             0.85;
        value           uniform 0;
    }
    inlet
    {
        type            calculated;
        value           uniform 9.47574;
    }
    outlet
    {
        type            calculated;
        value           nonuniform List<scalar> 
20
(
0.0632044
0.0116531
0.00937645
0.00934252
0.00934251
0.00934252
0.00934195
0.00935191
0.0117012
0.0632021
0.0632062
0.0117062
0.00937869
0.00934222
0.00934233
0.00934231
0.00934188
0.00935144
0.0116804
0.0632002
)
;
    }
    heatWall
    {
        type            compressible::alphatJayatillekeWallFunction;
        Prt             0.85;
        value           nonuniform List<scalar> 
240
(
0.0209458
0.0209458
0.0193321
0.0193322
0.0179824
0.0179825
0.0168392
0.0168393
0.01586
0.01586
0.0150131
0.015013
0.0142745
0.0142744
0.0136257
0.0136257
0.0130522
0.0130521
0.0125422
0.0125421
0.0120863
0.0120863
0.011677
0.0116769
0.0113077
0.0113077
0.0109734
0.0109734
0.0106696
0.0106696
0.0103926
0.0103926
0.0101393
0.0101393
0.00990702
0.00990704
0.00969343
0.00969345
0.00949658
0.0094966
0.00931473
0.00931475
0.00914641
0.00914642
0.00899028
0.0089903
0.00884522
0.00884523
0.0087102
0.00871021
0.00858432
0.00858433
0.00846679
0.0084668
0.0083569
0.0083569
0.008254
0.00825401
0.00815754
0.00815755
0.008067
0.00806701
0.00798192
0.00798192
0.00790188
0.00790188
0.00782651
0.0078265
0.00775546
0.00775545
0.00768842
0.0076884
0.0076251
0.00762508
0.00756525
0.00756522
0.00750862
0.0075086
0.00745501
0.00745498
0.00740421
0.00740417
0.00735604
0.00735599
0.00731032
0.00731027
0.0072669
0.00726685
0.00722565
0.00722559
0.00718641
0.00718634
0.00714908
0.007149
0.00711353
0.00711344
0.00707965
0.00707956
0.00704736
0.00704727
0.00701656
0.00701645
0.00698716
0.00698704
0.00695908
0.00695896
0.00693225
0.00693212
0.0069066
0.00690645
0.00688206
0.0068819
0.00685857
0.00685841
0.00683609
0.00683591
0.00681455
0.00681436
0.00679391
0.0067937
0.0209458
0.0209458
0.0193321
0.0193322
0.0179824
0.0179825
0.0168393
0.0168393
0.0158601
0.01586
0.0150131
0.015013
0.0142745
0.0142744
0.0136258
0.0136257
0.0130522
0.0130521
0.0125422
0.0125421
0.0120864
0.0120863
0.011677
0.0116769
0.0113078
0.0113077
0.0109734
0.0109734
0.0106696
0.0106696
0.0103926
0.0103926
0.0101393
0.0101393
0.00990701
0.00990699
0.00969342
0.0096934
0.00949656
0.00949654
0.00931471
0.00931469
0.00914638
0.00914636
0.00899026
0.00899024
0.00884519
0.00884517
0.00871017
0.00871015
0.00858429
0.00858427
0.00846676
0.00846673
0.00835686
0.00835684
0.00825397
0.00825395
0.00815751
0.00815749
0.00806697
0.00806695
0.00798189
0.00798187
0.00790185
0.00790184
0.00782648
0.00782647
0.00775543
0.00775542
0.00768839
0.00768838
0.00762507
0.00762507
0.00756523
0.00756522
0.00750861
0.00750861
0.007455
0.007455
0.0074042
0.00740421
0.00735603
0.00735605
0.00731032
0.00731034
0.00726691
0.00726693
0.00722566
0.00722569
0.00718643
0.00718647
0.0071491
0.00714914
0.00711356
0.00711361
0.0070797
0.00707976
0.00704742
0.00704748
0.00701662
0.0070167
0.00698724
0.00698732
0.00695917
0.00695927
0.00693236
0.00693246
0.00690673
0.00690684
0.00688221
0.00688233
0.00685874
0.00685888
0.00683628
0.00683643
0.00681477
0.00681494
0.00679415
0.00679433
)
;
    }
}


// ************************************************************************* //
