/*--------------------------------*- C++ -*----------------------------------*\
  =========                 |
  \\      /  F ield         | OpenFOAM: The Open Source CFD Toolbox
   \\    /   O peration     | Website:  https://openfoam.org
    \\  /    A nd           | Version:  8
     \\/     M anipulation  |
\*---------------------------------------------------------------------------*/
FoamFile
{
    version     2.0;
    format      ascii;
    class       volScalarField;
    location    "200";
    object      nut;
}
// * * * * * * * * * * * * * * * * * * * * * * * * * * * * * * * * * * * * * //

dimensions      [0 2 -1 0 0 0 0];

internalField   nonuniform List<scalar> 
1200
(
0.000201954
0.000185938
0.000172577
0.000161287
0.000151637
0.000143308
0.000136058
0.0001297
0.000124088
0.000119106
0.000114658
0.000110669
0.000107075
0.000103825
0.000100874
9.81863e-05
9.57307e-05
9.34807e-05
9.14136e-05
8.95099e-05
8.77526e-05
8.6127e-05
8.46202e-05
8.32211e-05
8.19195e-05
8.07067e-05
7.95749e-05
7.85172e-05
7.75273e-05
7.65998e-05
7.57295e-05
7.4912e-05
7.41432e-05
7.34195e-05
7.27376e-05
7.20943e-05
7.1487e-05
7.0913e-05
7.03702e-05
6.98564e-05
6.93697e-05
6.89083e-05
6.84705e-05
6.80548e-05
6.76599e-05
6.72844e-05
6.69272e-05
6.65872e-05
6.62632e-05
6.59545e-05
6.566e-05
6.53791e-05
6.51108e-05
6.48545e-05
6.46095e-05
6.43752e-05
6.4151e-05
6.39364e-05
6.37309e-05
6.35339e-05
0.00011703
0.000100512
8.78398e-05
7.78717e-05
6.98596e-05
6.3295e-05
5.78293e-05
5.32155e-05
4.92741e-05
4.58721e-05
4.29087e-05
4.03061e-05
3.8004e-05
3.59545e-05
3.41192e-05
3.24672e-05
3.09731e-05
2.96158e-05
2.83778e-05
2.72446e-05
2.62038e-05
2.52448e-05
2.43586e-05
2.35376e-05
2.27751e-05
2.20652e-05
2.14029e-05
2.07838e-05
2.02039e-05
1.96599e-05
1.91486e-05
1.86674e-05
1.82139e-05
1.7786e-05
1.73817e-05
1.69992e-05
1.6637e-05
1.62937e-05
1.59679e-05
1.56585e-05
1.53645e-05
1.50848e-05
1.48185e-05
1.45647e-05
1.43228e-05
1.4092e-05
1.38717e-05
1.36613e-05
1.346e-05
1.32676e-05
1.30835e-05
1.29072e-05
1.27384e-05
1.25766e-05
1.24214e-05
1.22725e-05
1.21295e-05
1.19917e-05
1.18577e-05
1.17144e-05
0.000117003
0.00010034
8.75447e-05
7.74576e-05
6.93325e-05
6.26669e-05
5.71117e-05
5.24186e-05
4.84068e-05
4.49417e-05
4.19214e-05
3.92673e-05
3.69181e-05
3.48252e-05
3.29497e-05
3.12601e-05
2.97305e-05
2.83396e-05
2.70697e-05
2.5906e-05
2.48359e-05
2.38487e-05
2.29352e-05
2.20877e-05
2.12994e-05
2.05643e-05
1.98774e-05
1.92341e-05
1.86305e-05
1.80631e-05
1.75287e-05
1.70247e-05
1.65486e-05
1.6098e-05
1.56711e-05
1.52661e-05
1.48813e-05
1.45154e-05
1.41669e-05
1.38347e-05
1.35177e-05
1.32148e-05
1.29253e-05
1.26481e-05
1.23827e-05
1.21282e-05
1.1884e-05
1.16495e-05
1.14242e-05
1.12075e-05
1.0999e-05
1.07982e-05
1.06048e-05
1.04183e-05
1.02383e-05
1.00647e-05
9.89693e-06
9.73482e-06
9.57799e-06
9.42583e-06
0.000117003
0.000100379
8.76089e-05
7.75388e-05
6.94225e-05
6.27596e-05
5.72034e-05
5.2507e-05
4.84906e-05
4.50202e-05
4.19944e-05
3.93349e-05
3.69804e-05
3.48826e-05
3.30024e-05
3.13085e-05
2.97749e-05
2.83803e-05
2.7107e-05
2.59402e-05
2.48672e-05
2.38773e-05
2.29614e-05
2.21116e-05
2.13212e-05
2.05842e-05
1.98954e-05
1.92503e-05
1.8645e-05
1.8076e-05
1.754e-05
1.70345e-05
1.65567e-05
1.61047e-05
1.56763e-05
1.52698e-05
1.48836e-05
1.45161e-05
1.41662e-05
1.38325e-05
1.3514e-05
1.32097e-05
1.29187e-05
1.26401e-05
1.23731e-05
1.21171e-05
1.18714e-05
1.16353e-05
1.14084e-05
1.11902e-05
1.098e-05
1.07776e-05
1.05825e-05
1.03943e-05
1.02126e-05
1.00372e-05
9.86765e-06
9.70375e-06
9.54519e-06
9.39173e-06
0.000117003
0.000100379
8.76027e-05
7.75264e-05
6.94051e-05
6.27388e-05
5.71808e-05
5.24839e-05
4.84678e-05
4.49983e-05
4.19738e-05
3.93157e-05
3.69628e-05
3.48664e-05
3.29877e-05
3.12951e-05
2.97628e-05
2.83694e-05
2.70972e-05
2.59313e-05
2.48592e-05
2.38702e-05
2.2955e-05
2.21059e-05
2.13161e-05
2.05796e-05
1.98913e-05
1.92467e-05
1.86418e-05
1.80731e-05
1.75375e-05
1.70322e-05
1.65548e-05
1.6103e-05
1.56748e-05
1.52685e-05
1.48825e-05
1.45152e-05
1.41654e-05
1.38319e-05
1.35135e-05
1.32093e-05
1.29183e-05
1.26398e-05
1.23729e-05
1.21169e-05
1.18713e-05
1.16353e-05
1.14084e-05
1.11902e-05
1.09801e-05
1.07777e-05
1.05826e-05
1.03944e-05
1.02127e-05
1.00373e-05
9.86772e-06
9.70379e-06
9.54521e-06
9.39172e-06
0.000117003
0.000100379
8.76027e-05
7.75264e-05
6.94051e-05
6.27388e-05
5.71808e-05
5.24839e-05
4.84679e-05
4.49984e-05
4.19739e-05
3.93158e-05
3.69629e-05
3.48665e-05
3.29878e-05
3.12952e-05
2.97628e-05
2.83694e-05
2.70972e-05
2.59314e-05
2.48592e-05
2.38702e-05
2.2955e-05
2.21059e-05
2.13161e-05
2.05796e-05
1.98913e-05
1.92467e-05
1.86418e-05
1.80731e-05
1.75375e-05
1.70322e-05
1.65547e-05
1.61029e-05
1.56748e-05
1.52685e-05
1.48824e-05
1.45151e-05
1.41653e-05
1.38318e-05
1.35134e-05
1.32092e-05
1.29183e-05
1.26397e-05
1.23728e-05
1.21169e-05
1.18712e-05
1.16352e-05
1.14084e-05
1.11901e-05
1.09801e-05
1.07777e-05
1.05825e-05
1.03943e-05
1.02127e-05
1.00372e-05
9.8677e-06
9.70378e-06
9.54521e-06
9.39173e-06
0.000117003
0.000100379
8.76088e-05
7.75387e-05
6.94223e-05
6.27594e-05
5.72032e-05
5.25068e-05
4.84904e-05
4.502e-05
4.19942e-05
3.93347e-05
3.69803e-05
3.48825e-05
3.30024e-05
3.13084e-05
2.97748e-05
2.83803e-05
2.7107e-05
2.59402e-05
2.48672e-05
2.38773e-05
2.29614e-05
2.21117e-05
2.13212e-05
2.05842e-05
1.98955e-05
1.92504e-05
1.86451e-05
1.80761e-05
1.75401e-05
1.70345e-05
1.65568e-05
1.61048e-05
1.56764e-05
1.52699e-05
1.48836e-05
1.45162e-05
1.41662e-05
1.38325e-05
1.3514e-05
1.32097e-05
1.29187e-05
1.264e-05
1.2373e-05
1.2117e-05
1.18713e-05
1.16352e-05
1.14083e-05
1.119e-05
1.09798e-05
1.07774e-05
1.05822e-05
1.0394e-05
1.02123e-05
1.00368e-05
9.86722e-06
9.70327e-06
9.54466e-06
9.39115e-06
0.000117003
0.00010034
8.75447e-05
7.74577e-05
6.93326e-05
6.26669e-05
5.71117e-05
5.24187e-05
4.84068e-05
4.49417e-05
4.19214e-05
3.92673e-05
3.69181e-05
3.48252e-05
3.29497e-05
3.126e-05
2.97304e-05
2.83395e-05
2.70697e-05
2.5906e-05
2.48358e-05
2.38486e-05
2.29352e-05
2.20877e-05
2.12993e-05
2.05643e-05
1.98773e-05
1.92339e-05
1.86302e-05
1.80626e-05
1.7528e-05
1.70237e-05
1.65472e-05
1.60963e-05
1.5669e-05
1.52635e-05
1.48782e-05
1.45117e-05
1.41626e-05
1.38298e-05
1.35121e-05
1.32085e-05
1.29182e-05
1.26403e-05
1.2374e-05
1.21186e-05
1.18735e-05
1.16381e-05
1.14117e-05
1.11941e-05
1.09845e-05
1.07827e-05
1.05882e-05
1.04006e-05
1.02195e-05
1.00447e-05
9.87579e-06
9.71247e-06
9.55438e-06
9.40116e-06
0.00011703
0.000100512
8.78398e-05
7.78716e-05
6.98597e-05
6.32959e-05
5.7831e-05
5.32183e-05
4.92782e-05
4.58772e-05
4.29145e-05
4.03129e-05
3.80116e-05
3.59628e-05
3.41278e-05
3.24757e-05
3.09812e-05
2.96231e-05
2.83841e-05
2.72497e-05
2.62075e-05
2.52472e-05
2.43598e-05
2.35378e-05
2.27743e-05
2.20638e-05
2.14012e-05
2.0782e-05
2.02023e-05
1.96587e-05
1.91481e-05
1.86679e-05
1.82155e-05
1.77889e-05
1.73859e-05
1.70049e-05
1.66442e-05
1.63025e-05
1.59783e-05
1.56706e-05
1.53783e-05
1.51003e-05
1.48357e-05
1.45838e-05
1.43437e-05
1.41147e-05
1.38963e-05
1.36877e-05
1.34883e-05
1.32978e-05
1.31156e-05
1.29413e-05
1.27744e-05
1.26145e-05
1.24612e-05
1.23142e-05
1.21731e-05
1.20371e-05
1.19049e-05
1.17627e-05
0.000201954
0.000185938
0.000172576
0.000161287
0.000151637
0.000143308
0.000136057
0.000129699
0.000124088
0.000119105
0.000114657
0.000110668
0.000107075
0.000103824
0.000100874
9.81862e-05
9.57307e-05
9.34808e-05
9.14137e-05
8.951e-05
8.77528e-05
8.61272e-05
8.46205e-05
8.32213e-05
8.19198e-05
8.0707e-05
7.95752e-05
7.85175e-05
7.75277e-05
7.66001e-05
7.57298e-05
7.49123e-05
7.41435e-05
7.34198e-05
7.27378e-05
7.20945e-05
7.14872e-05
7.09133e-05
7.03704e-05
6.98566e-05
6.93698e-05
6.89083e-05
6.84705e-05
6.80548e-05
6.76598e-05
6.72843e-05
6.6927e-05
6.65868e-05
6.62628e-05
6.5954e-05
6.56594e-05
6.53783e-05
6.51099e-05
6.48534e-05
6.46082e-05
6.43738e-05
6.41494e-05
6.39345e-05
6.37288e-05
6.35316e-05
0.000201955
0.000185938
0.000172577
0.000161287
0.000151637
0.000143307
0.000136057
0.000129699
0.000124087
0.000119105
0.000114657
0.000110668
0.000107074
0.000103824
0.000100873
9.8186e-05
9.57304e-05
9.34805e-05
9.14134e-05
8.95097e-05
8.77524e-05
8.61268e-05
8.46201e-05
8.32209e-05
8.19193e-05
8.07065e-05
7.95747e-05
7.8517e-05
7.75271e-05
7.65996e-05
7.57293e-05
7.49118e-05
7.41431e-05
7.34194e-05
7.27375e-05
7.20942e-05
7.14869e-05
7.0913e-05
7.03703e-05
6.98565e-05
6.93698e-05
6.89084e-05
6.84707e-05
6.80551e-05
6.76602e-05
6.72848e-05
6.69276e-05
6.65877e-05
6.62638e-05
6.59551e-05
6.56608e-05
6.53799e-05
6.51117e-05
6.48554e-05
6.46106e-05
6.43764e-05
6.41523e-05
6.39378e-05
6.37325e-05
6.35357e-05
0.00011703
0.000100512
8.78369e-05
7.78664e-05
6.98535e-05
6.32901e-05
5.7826e-05
5.32143e-05
4.92756e-05
4.5876e-05
4.29145e-05
4.03136e-05
3.80128e-05
3.5964e-05
3.41289e-05
3.24764e-05
3.09811e-05
2.96224e-05
2.83828e-05
2.72478e-05
2.62051e-05
2.52445e-05
2.43571e-05
2.35352e-05
2.27721e-05
2.20621e-05
2.14002e-05
2.07819e-05
2.02032e-05
1.96606e-05
1.91511e-05
1.86719e-05
1.82205e-05
1.77948e-05
1.73928e-05
1.70127e-05
1.66529e-05
1.6312e-05
1.59886e-05
1.56815e-05
1.53896e-05
1.5112e-05
1.48477e-05
1.4596e-05
1.4356e-05
1.41269e-05
1.39082e-05
1.36993e-05
1.34997e-05
1.33088e-05
1.3126e-05
1.2951e-05
1.27834e-05
1.26227e-05
1.24687e-05
1.2321e-05
1.21792e-05
1.20426e-05
1.19099e-05
1.17678e-05
0.000117003
0.00010034
8.75447e-05
7.74577e-05
6.93325e-05
6.26669e-05
5.71117e-05
5.24186e-05
4.84068e-05
4.49416e-05
4.19213e-05
3.92671e-05
3.69179e-05
3.4825e-05
3.29496e-05
3.12599e-05
2.97303e-05
2.83394e-05
2.70696e-05
2.59058e-05
2.48357e-05
2.38485e-05
2.29351e-05
2.20876e-05
2.12992e-05
2.05641e-05
1.98772e-05
1.92338e-05
1.86302e-05
1.80628e-05
1.75285e-05
1.70245e-05
1.65483e-05
1.60979e-05
1.5671e-05
1.52661e-05
1.48814e-05
1.45156e-05
1.41672e-05
1.38351e-05
1.35181e-05
1.32154e-05
1.29259e-05
1.26489e-05
1.23836e-05
1.21292e-05
1.18851e-05
1.16507e-05
1.14255e-05
1.12089e-05
1.10005e-05
1.07998e-05
1.06064e-05
1.042e-05
1.02401e-05
1.00666e-05
9.89891e-06
9.73689e-06
9.58016e-06
9.42808e-06
0.000117003
0.000100379
8.76087e-05
7.75386e-05
6.94224e-05
6.27595e-05
5.72034e-05
5.2507e-05
4.84906e-05
4.50202e-05
4.19943e-05
3.93348e-05
3.69804e-05
3.48825e-05
3.30024e-05
3.13084e-05
2.97748e-05
2.83802e-05
2.71069e-05
2.59401e-05
2.48671e-05
2.38772e-05
2.29613e-05
2.21116e-05
2.13211e-05
2.05841e-05
1.98953e-05
1.92503e-05
1.8645e-05
1.80759e-05
1.754e-05
1.70344e-05
1.65567e-05
1.61046e-05
1.56762e-05
1.52697e-05
1.48835e-05
1.4516e-05
1.41661e-05
1.38324e-05
1.35139e-05
1.32096e-05
1.29185e-05
1.26399e-05
1.23729e-05
1.21169e-05
1.18712e-05
1.16352e-05
1.14083e-05
1.119e-05
1.09798e-05
1.07774e-05
1.05823e-05
1.03941e-05
1.02124e-05
1.00369e-05
9.86739e-06
9.70347e-06
9.5449e-06
9.39143e-06
0.000117003
0.000100379
8.76025e-05
7.75262e-05
6.94049e-05
6.27387e-05
5.71807e-05
5.24838e-05
4.84678e-05
4.49983e-05
4.19737e-05
3.93156e-05
3.69627e-05
3.48663e-05
3.29876e-05
3.1295e-05
2.97627e-05
2.83693e-05
2.70971e-05
2.59312e-05
2.48591e-05
2.387e-05
2.29549e-05
2.21058e-05
2.1316e-05
2.05795e-05
1.98912e-05
1.92466e-05
1.86417e-05
1.8073e-05
1.75374e-05
1.70321e-05
1.65547e-05
1.61029e-05
1.56747e-05
1.52684e-05
1.48824e-05
1.45151e-05
1.41653e-05
1.38317e-05
1.35134e-05
1.32092e-05
1.29182e-05
1.26397e-05
1.23728e-05
1.21168e-05
1.18711e-05
1.16352e-05
1.14083e-05
1.11901e-05
1.098e-05
1.07776e-05
1.05824e-05
1.03942e-05
1.02125e-05
1.00371e-05
9.86755e-06
9.70362e-06
9.54503e-06
9.39153e-06
0.000117003
0.000100379
8.76025e-05
7.75262e-05
6.94049e-05
6.27387e-05
5.71807e-05
5.24839e-05
4.84678e-05
4.49984e-05
4.19738e-05
3.93157e-05
3.69628e-05
3.48664e-05
3.29877e-05
3.12951e-05
2.97627e-05
2.83693e-05
2.70971e-05
2.59313e-05
2.48591e-05
2.38701e-05
2.29549e-05
2.21058e-05
2.1316e-05
2.05795e-05
1.98912e-05
1.92466e-05
1.86417e-05
1.80731e-05
1.75374e-05
1.70322e-05
1.65547e-05
1.61029e-05
1.56747e-05
1.52684e-05
1.48824e-05
1.45151e-05
1.41653e-05
1.38317e-05
1.35134e-05
1.32092e-05
1.29182e-05
1.26397e-05
1.23728e-05
1.21168e-05
1.18711e-05
1.16351e-05
1.14083e-05
1.119e-05
1.09799e-05
1.07775e-05
1.05824e-05
1.03942e-05
1.02125e-05
1.00371e-05
9.86752e-06
9.70359e-06
9.545e-06
9.39151e-06
0.000117003
0.000100379
8.76088e-05
7.75386e-05
6.94223e-05
6.27594e-05
5.72032e-05
5.25068e-05
4.84903e-05
4.502e-05
4.19941e-05
3.93346e-05
3.69802e-05
3.48824e-05
3.30022e-05
3.13083e-05
2.97747e-05
2.83801e-05
2.71069e-05
2.59401e-05
2.48671e-05
2.38772e-05
2.29613e-05
2.21116e-05
2.13212e-05
2.05842e-05
1.98954e-05
1.92503e-05
1.86451e-05
1.8076e-05
1.75401e-05
1.70345e-05
1.65568e-05
1.61047e-05
1.56763e-05
1.52698e-05
1.48836e-05
1.45161e-05
1.41662e-05
1.38325e-05
1.3514e-05
1.32097e-05
1.29186e-05
1.264e-05
1.2373e-05
1.2117e-05
1.18712e-05
1.16352e-05
1.14082e-05
1.11899e-05
1.09798e-05
1.07773e-05
1.05822e-05
1.03939e-05
1.02122e-05
1.00367e-05
9.86716e-06
9.70321e-06
9.5446e-06
9.39108e-06
0.000117003
0.00010034
8.75446e-05
7.74577e-05
6.93326e-05
6.26668e-05
5.71116e-05
5.24185e-05
4.84067e-05
4.49416e-05
4.19212e-05
3.92671e-05
3.69179e-05
3.4825e-05
3.29496e-05
3.12599e-05
2.97303e-05
2.83395e-05
2.70696e-05
2.59059e-05
2.48358e-05
2.38486e-05
2.29352e-05
2.20877e-05
2.12994e-05
2.05643e-05
1.98773e-05
1.9234e-05
1.86302e-05
1.80627e-05
1.75281e-05
1.70238e-05
1.65473e-05
1.60964e-05
1.5669e-05
1.52636e-05
1.48783e-05
1.45118e-05
1.41627e-05
1.38298e-05
1.35121e-05
1.32086e-05
1.29183e-05
1.26403e-05
1.2374e-05
1.21187e-05
1.18736e-05
1.16381e-05
1.14118e-05
1.11941e-05
1.09845e-05
1.07826e-05
1.0588e-05
1.04004e-05
1.02192e-05
1.00443e-05
9.87534e-06
9.71194e-06
9.5538e-06
9.40069e-06
0.00011703
0.000100512
8.78376e-05
7.78681e-05
6.98561e-05
6.32935e-05
5.78306e-05
5.322e-05
4.92818e-05
4.58826e-05
4.29213e-05
4.03201e-05
3.80186e-05
3.59692e-05
3.41336e-05
3.24809e-05
3.09857e-05
2.96272e-05
2.83881e-05
2.72538e-05
2.62119e-05
2.52518e-05
2.43647e-05
2.35428e-05
2.27794e-05
2.20687e-05
2.14058e-05
2.07861e-05
2.0206e-05
1.96618e-05
1.91505e-05
1.86695e-05
1.82163e-05
1.77888e-05
1.7385e-05
1.70032e-05
1.66418e-05
1.62993e-05
1.59745e-05
1.56661e-05
1.5373e-05
1.50943e-05
1.48291e-05
1.45764e-05
1.43355e-05
1.41058e-05
1.38866e-05
1.36772e-05
1.34771e-05
1.32858e-05
1.31028e-05
1.29276e-05
1.27598e-05
1.2599e-05
1.24448e-05
1.2297e-05
1.2155e-05
1.20182e-05
1.18852e-05
1.17419e-05
0.000201955
0.000185939
0.000172577
0.000161287
0.000151637
0.000143307
0.000136057
0.000129699
0.000124087
0.000119105
0.000114657
0.000110668
0.000107075
0.000103824
0.000100874
9.81863e-05
9.57309e-05
9.34809e-05
9.14139e-05
8.95102e-05
8.77529e-05
8.61274e-05
8.46206e-05
8.32215e-05
8.19199e-05
8.07071e-05
7.95753e-05
7.85176e-05
7.75277e-05
7.66001e-05
7.57298e-05
7.49123e-05
7.41435e-05
7.34197e-05
7.27377e-05
7.20944e-05
7.1487e-05
7.0913e-05
7.03702e-05
6.98563e-05
6.93695e-05
6.89079e-05
6.847e-05
6.80542e-05
6.76592e-05
6.72836e-05
6.69263e-05
6.65861e-05
6.6262e-05
6.59531e-05
6.56584e-05
6.53772e-05
6.51087e-05
6.48521e-05
6.46069e-05
6.43723e-05
6.41478e-05
6.39328e-05
6.3727e-05
6.35297e-05
)
;

boundaryField
{
    wall
    {
        type            nutkWallFunction;
        Cmu             0.09;
        kappa           0.41;
        E               9.8;
        value           nonuniform List<scalar> 
1200
(
1.453e-05
1.35454e-05
1.35424e-05
1.35424e-05
1.35424e-05
1.35424e-05
1.35424e-05
1.35424e-05
1.35454e-05
1.45301e-05
1.34572e-05
1.17545e-05
1.17357e-05
1.174e-05
1.174e-05
1.174e-05
1.174e-05
1.17357e-05
1.17545e-05
1.34572e-05
1.25548e-05
1.03593e-05
1.03266e-05
1.03337e-05
1.0333e-05
1.0333e-05
1.03337e-05
1.03266e-05
1.03593e-05
1.25548e-05
1.17865e-05
9.24649e-06
9.19994e-06
9.20906e-06
9.20767e-06
9.20767e-06
9.20905e-06
9.19994e-06
9.24647e-06
1.17864e-05
1.11252e-05
8.34069e-06
8.28072e-06
8.29095e-06
8.28897e-06
8.28897e-06
8.29093e-06
8.28072e-06
8.3407e-06
1.11251e-05
1.05507e-05
7.58994e-06
7.51765e-06
7.52833e-06
7.52593e-06
7.52594e-06
7.52831e-06
7.51765e-06
7.59004e-06
1.05507e-05
1.00478e-05
6.95817e-06
6.87473e-06
6.88541e-06
6.88278e-06
6.88278e-06
6.88538e-06
6.87474e-06
6.95837e-06
1.00477e-05
9.60431e-06
6.4196e-06
6.32606e-06
6.33644e-06
6.33372e-06
6.33373e-06
6.33642e-06
6.32606e-06
6.41993e-06
9.60426e-06
9.2109e-06
5.95529e-06
5.85256e-06
5.86249e-06
5.85979e-06
5.85979e-06
5.86247e-06
5.85256e-06
5.95578e-06
9.21085e-06
8.85995e-06
5.55107e-06
5.43993e-06
5.44932e-06
5.4467e-06
5.44671e-06
5.44929e-06
5.43993e-06
5.55167e-06
8.85991e-06
8.54532e-06
5.19612e-06
5.07723e-06
5.08604e-06
5.08355e-06
5.08356e-06
5.08602e-06
5.07723e-06
5.19682e-06
8.54528e-06
8.26197e-06
4.88202e-06
4.75598e-06
4.76419e-06
4.76187e-06
4.76188e-06
4.76418e-06
4.75598e-06
4.88284e-06
8.26194e-06
8.00573e-06
4.60219e-06
4.46949e-06
4.47712e-06
4.47496e-06
4.47497e-06
4.47711e-06
4.46949e-06
4.60311e-06
8.00571e-06
7.77315e-06
4.35136e-06
4.21243e-06
4.2195e-06
4.21751e-06
4.21752e-06
4.21949e-06
4.21243e-06
4.35238e-06
7.77313e-06
7.5613e-06
4.1253e-06
3.9805e-06
3.98704e-06
3.98521e-06
3.98522e-06
3.98703e-06
3.98049e-06
4.12637e-06
7.56129e-06
7.36774e-06
3.92057e-06
3.77018e-06
3.77622e-06
3.77456e-06
3.77456e-06
3.77621e-06
3.77017e-06
3.92163e-06
7.36773e-06
7.19037e-06
3.73433e-06
3.57859e-06
3.58417e-06
3.58265e-06
3.58266e-06
3.58416e-06
3.57858e-06
3.73533e-06
7.19036e-06
7.02739e-06
3.56418e-06
3.40333e-06
3.40848e-06
3.4071e-06
3.40711e-06
3.40848e-06
3.40333e-06
3.5651e-06
7.02739e-06
6.87727e-06
3.40817e-06
3.24241e-06
3.24715e-06
3.2459e-06
3.2459e-06
3.24714e-06
3.2424e-06
3.40896e-06
6.87728e-06
6.73867e-06
3.26463e-06
3.09411e-06
3.09848e-06
3.09735e-06
3.09735e-06
3.09848e-06
3.0941e-06
3.26527e-06
6.73868e-06
6.61044e-06
3.13214e-06
2.95701e-06
2.96103e-06
2.96001e-06
2.96001e-06
2.96103e-06
2.95701e-06
3.13261e-06
6.61045e-06
6.49155e-06
3.00949e-06
2.82988e-06
2.83358e-06
2.83266e-06
2.83266e-06
2.83358e-06
2.82988e-06
3.00979e-06
6.49157e-06
6.38113e-06
2.89563e-06
2.71167e-06
2.71507e-06
2.71424e-06
2.71424e-06
2.71507e-06
2.71166e-06
2.89579e-06
6.38115e-06
6.27839e-06
2.78969e-06
2.60146e-06
2.60458e-06
2.60383e-06
2.60383e-06
2.60458e-06
2.60146e-06
2.78971e-06
6.27841e-06
6.18264e-06
2.69089e-06
2.49847e-06
2.50132e-06
2.50065e-06
2.50065e-06
2.50133e-06
2.49846e-06
2.69079e-06
6.18266e-06
6.09326e-06
2.59852e-06
2.40199e-06
2.4046e-06
2.404e-06
2.404e-06
2.40461e-06
2.40199e-06
2.59835e-06
6.09328e-06
6.00972e-06
2.51201e-06
2.31144e-06
2.31382e-06
2.31328e-06
2.31328e-06
2.31383e-06
2.31143e-06
2.5118e-06
6.00974e-06
5.93151e-06
2.43084e-06
2.22628e-06
2.22844e-06
2.22796e-06
2.22796e-06
2.22845e-06
2.22626e-06
2.43061e-06
5.93154e-06
5.85822e-06
2.35453e-06
2.14604e-06
2.14798e-06
2.14756e-06
2.14755e-06
2.14799e-06
2.14601e-06
2.35432e-06
5.85824e-06
5.78943e-06
2.28269e-06
2.07031e-06
2.07204e-06
2.07166e-06
2.07165e-06
2.07205e-06
2.07025e-06
2.28253e-06
5.78946e-06
5.72481e-06
2.21494e-06
1.99871e-06
2.00023e-06
1.99989e-06
1.99989e-06
2.00024e-06
1.99862e-06
2.21488e-06
5.72484e-06
5.66403e-06
2.15097e-06
1.93092e-06
1.93223e-06
1.93193e-06
1.93193e-06
1.93224e-06
1.93078e-06
2.15103e-06
5.66405e-06
5.60681e-06
2.09048e-06
1.86663e-06
1.86774e-06
1.86747e-06
1.86747e-06
1.86775e-06
1.86645e-06
2.09069e-06
5.60683e-06
5.55287e-06
2.03322e-06
1.80558e-06
1.80648e-06
1.80625e-06
1.80625e-06
1.80649e-06
1.80534e-06
2.03361e-06
5.55289e-06
5.50199e-06
1.97896e-06
1.74753e-06
1.74823e-06
1.74803e-06
1.74802e-06
1.74824e-06
1.74723e-06
1.97953e-06
5.50201e-06
5.45394e-06
1.92748e-06
1.69226e-06
1.69276e-06
1.69258e-06
1.69258e-06
1.69277e-06
1.6919e-06
1.92825e-06
5.45396e-06
5.40853e-06
1.87859e-06
1.63957e-06
1.63987e-06
1.63972e-06
1.63971e-06
1.63988e-06
1.63914e-06
1.87957e-06
5.40855e-06
5.36558e-06
1.83212e-06
1.58929e-06
1.58939e-06
1.58927e-06
1.58926e-06
1.5894e-06
1.58878e-06
1.83331e-06
5.3656e-06
5.32492e-06
1.78791e-06
1.54126e-06
1.54116e-06
1.54105e-06
1.54104e-06
1.54117e-06
1.54067e-06
1.78932e-06
5.32494e-06
5.2864e-06
1.74581e-06
1.49532e-06
1.49502e-06
1.49493e-06
1.49492e-06
1.49503e-06
1.49464e-06
1.74746e-06
5.28642e-06
5.24988e-06
1.7057e-06
1.45135e-06
1.45085e-06
1.45077e-06
1.45076e-06
1.45085e-06
1.45057e-06
1.70758e-06
5.24989e-06
5.21523e-06
1.66745e-06
1.40922e-06
1.40851e-06
1.40845e-06
1.40844e-06
1.40851e-06
1.40834e-06
1.66957e-06
5.21524e-06
5.18233e-06
1.63094e-06
1.36881e-06
1.36789e-06
1.36784e-06
1.36783e-06
1.36789e-06
1.36782e-06
1.63331e-06
5.18233e-06
5.15107e-06
1.59608e-06
1.33002e-06
1.32889e-06
1.32886e-06
1.32885e-06
1.32889e-06
1.32892e-06
1.5987e-06
5.15107e-06
5.12135e-06
1.56277e-06
1.29276e-06
1.29142e-06
1.29139e-06
1.29138e-06
1.29141e-06
1.29154e-06
1.56565e-06
5.12134e-06
5.09307e-06
1.53092e-06
1.25694e-06
1.25538e-06
1.25536e-06
1.25535e-06
1.25537e-06
1.25559e-06
1.53406e-06
5.09306e-06
5.06615e-06
1.50045e-06
1.22247e-06
1.22069e-06
1.22068e-06
1.22067e-06
1.22068e-06
1.22099e-06
1.50385e-06
5.06614e-06
5.04051e-06
1.47129e-06
1.18929e-06
1.18728e-06
1.18727e-06
1.18727e-06
1.18726e-06
1.18767e-06
1.47495e-06
5.04049e-06
5.01607e-06
1.44334e-06
1.15731e-06
1.15507e-06
1.15507e-06
1.15507e-06
1.15505e-06
1.15555e-06
1.44728e-06
5.01604e-06
4.99277e-06
1.41657e-06
1.12648e-06
1.12401e-06
1.12402e-06
1.12401e-06
1.12399e-06
1.12457e-06
1.42078e-06
4.99273e-06
4.97053e-06
1.39091e-06
1.09674e-06
1.09403e-06
1.09404e-06
1.09403e-06
1.094e-06
1.09467e-06
1.39539e-06
4.97048e-06
4.94929e-06
1.36629e-06
1.06802e-06
1.06507e-06
1.06508e-06
1.06508e-06
1.06504e-06
1.0658e-06
1.37105e-06
4.94923e-06
4.92901e-06
1.34268e-06
1.04029e-06
1.03709e-06
1.0371e-06
1.03709e-06
1.03705e-06
1.03791e-06
1.34771e-06
4.92894e-06
4.90962e-06
1.32e-06
1.01348e-06
1.01003e-06
1.01004e-06
1.01004e-06
1.00998e-06
1.01093e-06
1.32531e-06
4.90954e-06
4.89108e-06
1.29822e-06
9.87557e-07
9.83846e-07
9.83858e-07
9.83853e-07
9.83796e-07
9.84843e-07
1.3038e-06
4.89099e-06
4.87334e-06
1.27727e-06
9.62474e-07
9.58499e-07
9.5851e-07
9.58507e-07
9.58443e-07
9.59588e-07
1.28314e-06
4.87323e-06
4.85636e-06
1.25713e-06
9.38192e-07
9.33949e-07
9.33958e-07
9.33955e-07
9.33886e-07
9.35129e-07
1.26328e-06
4.85624e-06
4.8401e-06
1.23769e-06
9.14671e-07
9.10157e-07
9.10163e-07
9.10162e-07
9.10087e-07
9.11424e-07
1.24411e-06
4.83996e-06
4.82452e-06
1.21877e-06
8.91865e-07
8.87088e-07
8.87091e-07
8.8709e-07
8.87011e-07
8.88426e-07
1.22543e-06
4.82436e-06
4.80959e-06
1.19849e-06
8.69688e-07
8.6471e-07
8.64709e-07
8.6471e-07
8.64626e-07
8.66088e-07
1.20533e-06
4.80941e-06
1.45301e-05
1.35454e-05
1.35424e-05
1.35424e-05
1.35424e-05
1.35424e-05
1.35424e-05
1.35424e-05
1.35454e-05
1.45301e-05
1.34573e-05
1.17545e-05
1.17357e-05
1.174e-05
1.174e-05
1.174e-05
1.174e-05
1.17357e-05
1.17545e-05
1.34573e-05
1.25548e-05
1.0359e-05
1.03266e-05
1.03337e-05
1.0333e-05
1.0333e-05
1.03337e-05
1.03266e-05
1.03591e-05
1.25548e-05
1.17865e-05
9.2459e-06
9.19994e-06
9.20905e-06
9.20764e-06
9.20765e-06
9.20905e-06
9.19994e-06
9.24608e-06
1.17864e-05
1.11251e-05
8.34e-06
8.28072e-06
8.29094e-06
8.28895e-06
8.28895e-06
8.29093e-06
8.28072e-06
8.34029e-06
1.11251e-05
1.05507e-05
7.58936e-06
7.51765e-06
7.52832e-06
7.52592e-06
7.52592e-06
7.52831e-06
7.51765e-06
7.58976e-06
1.05507e-05
1.00477e-05
6.95779e-06
6.87473e-06
6.8854e-06
6.88277e-06
6.88277e-06
6.88538e-06
6.87473e-06
6.95833e-06
1.00477e-05
9.60424e-06
6.41947e-06
6.32605e-06
6.33644e-06
6.33372e-06
6.33372e-06
6.33641e-06
6.32605e-06
6.42013e-06
9.60422e-06
9.21083e-06
5.95547e-06
5.85255e-06
5.86249e-06
5.85978e-06
5.85979e-06
5.86246e-06
5.85254e-06
5.9562e-06
9.21082e-06
8.85989e-06
5.55154e-06
5.43992e-06
5.44931e-06
5.4467e-06
5.4467e-06
5.44928e-06
5.43991e-06
5.55232e-06
8.85988e-06
8.54527e-06
5.19681e-06
5.07722e-06
5.08603e-06
5.08355e-06
5.08355e-06
5.086e-06
5.07721e-06
5.19763e-06
8.54527e-06
8.26192e-06
4.88293e-06
4.75597e-06
4.76419e-06
4.76186e-06
4.76187e-06
4.76416e-06
4.75596e-06
4.88371e-06
8.26193e-06
8.00569e-06
4.60326e-06
4.46947e-06
4.47711e-06
4.47495e-06
4.47496e-06
4.47709e-06
4.46947e-06
4.60397e-06
8.00571e-06
7.77311e-06
4.35253e-06
4.21241e-06
4.21949e-06
4.2175e-06
4.21751e-06
4.21948e-06
4.21241e-06
4.35317e-06
7.77313e-06
7.56128e-06
4.12651e-06
3.98048e-06
3.98703e-06
3.9852e-06
3.98521e-06
3.98701e-06
3.98048e-06
4.12708e-06
7.5613e-06
7.36772e-06
3.92171e-06
3.77016e-06
3.77621e-06
3.77454e-06
3.77455e-06
3.7762e-06
3.77016e-06
3.92227e-06
7.36774e-06
7.19035e-06
3.73533e-06
3.57857e-06
3.58416e-06
3.58264e-06
3.58264e-06
3.58415e-06
3.57858e-06
3.7359e-06
7.19038e-06
7.02737e-06
3.56501e-06
3.40331e-06
3.40847e-06
3.40709e-06
3.40709e-06
3.40846e-06
3.40332e-06
3.56562e-06
7.02741e-06
6.87725e-06
3.40879e-06
3.24239e-06
3.24714e-06
3.24589e-06
3.24589e-06
3.24713e-06
3.2424e-06
3.40947e-06
6.87729e-06
6.73866e-06
3.26502e-06
3.09409e-06
3.09847e-06
3.09733e-06
3.09734e-06
3.09846e-06
3.0941e-06
3.26579e-06
6.7387e-06
6.61042e-06
3.1323e-06
2.95699e-06
2.96102e-06
2.96e-06
2.96e-06
2.96102e-06
2.95701e-06
3.13317e-06
6.61046e-06
6.49154e-06
3.00945e-06
2.82986e-06
2.83357e-06
2.83265e-06
2.83265e-06
2.83357e-06
2.82988e-06
3.01039e-06
6.49158e-06
6.38112e-06
2.89544e-06
2.71165e-06
2.71506e-06
2.71422e-06
2.71423e-06
2.71506e-06
2.71167e-06
2.89642e-06
6.38116e-06
6.27838e-06
2.78938e-06
2.60144e-06
2.60457e-06
2.60382e-06
2.60382e-06
2.60457e-06
2.60146e-06
2.79036e-06
6.27842e-06
6.18262e-06
2.6905e-06
2.49844e-06
2.50131e-06
2.50064e-06
2.50064e-06
2.50132e-06
2.49846e-06
2.69144e-06
6.18267e-06
6.09325e-06
2.59812e-06
2.40197e-06
2.4046e-06
2.40399e-06
2.40399e-06
2.4046e-06
2.40199e-06
2.59899e-06
6.09329e-06
6.0097e-06
2.51167e-06
2.31142e-06
2.31381e-06
2.31327e-06
2.31327e-06
2.31382e-06
2.31144e-06
2.51239e-06
6.00975e-06
5.9315e-06
2.4306e-06
2.22625e-06
2.22843e-06
2.22795e-06
2.22795e-06
2.22844e-06
2.22627e-06
2.43115e-06
5.93154e-06
5.8582e-06
2.35444e-06
2.14601e-06
2.14797e-06
2.14754e-06
2.14754e-06
2.14799e-06
2.14601e-06
2.35481e-06
5.85825e-06
5.78942e-06
2.28279e-06
2.07027e-06
2.07203e-06
2.07164e-06
2.07165e-06
2.07204e-06
2.07026e-06
2.28294e-06
5.78946e-06
5.7248e-06
2.21527e-06
1.99868e-06
2.00022e-06
1.99988e-06
1.99988e-06
2.00023e-06
1.99863e-06
2.21519e-06
5.72484e-06
5.66402e-06
2.15156e-06
1.93088e-06
1.93222e-06
1.93192e-06
1.93192e-06
1.93223e-06
1.93079e-06
2.15124e-06
5.66405e-06
5.60679e-06
2.09136e-06
1.8666e-06
1.86773e-06
1.86746e-06
1.86746e-06
1.86774e-06
1.86646e-06
2.09079e-06
5.60682e-06
5.55286e-06
2.0344e-06
1.80556e-06
1.80647e-06
1.80624e-06
1.80624e-06
1.80649e-06
1.80535e-06
2.03359e-06
5.55289e-06
5.50198e-06
1.98045e-06
1.74751e-06
1.74822e-06
1.74801e-06
1.74802e-06
1.74823e-06
1.74724e-06
1.9794e-06
5.502e-06
5.45394e-06
1.9293e-06
1.69225e-06
1.69275e-06
1.69257e-06
1.69257e-06
1.69276e-06
1.69191e-06
1.92801e-06
5.45395e-06
5.40853e-06
1.88074e-06
1.63958e-06
1.63986e-06
1.63971e-06
1.63971e-06
1.63988e-06
1.63915e-06
1.87923e-06
5.40854e-06
5.36558e-06
1.8346e-06
1.58932e-06
1.58938e-06
1.58925e-06
1.58925e-06
1.5894e-06
1.58879e-06
1.83288e-06
5.36558e-06
5.32493e-06
1.79072e-06
1.5413e-06
1.54115e-06
1.54104e-06
1.54104e-06
1.54116e-06
1.54068e-06
1.7888e-06
5.32492e-06
5.28641e-06
1.74894e-06
1.49538e-06
1.49501e-06
1.49492e-06
1.49492e-06
1.49502e-06
1.49465e-06
1.74684e-06
5.28639e-06
5.24989e-06
1.70913e-06
1.45142e-06
1.45083e-06
1.45076e-06
1.45075e-06
1.45084e-06
1.45059e-06
1.70687e-06
5.24986e-06
5.21524e-06
1.67118e-06
1.4093e-06
1.40849e-06
1.40843e-06
1.40843e-06
1.4085e-06
1.40835e-06
1.66876e-06
5.2152e-06
5.18234e-06
1.63496e-06
1.36891e-06
1.36787e-06
1.36783e-06
1.36782e-06
1.36788e-06
1.36783e-06
1.6324e-06
5.1823e-06
5.15109e-06
1.60038e-06
1.33014e-06
1.32887e-06
1.32884e-06
1.32884e-06
1.32888e-06
1.32893e-06
1.59769e-06
5.15103e-06
5.12137e-06
1.56734e-06
1.29289e-06
1.2914e-06
1.29137e-06
1.29137e-06
1.29141e-06
1.29155e-06
1.56453e-06
5.1213e-06
5.0931e-06
1.53574e-06
1.25708e-06
1.25536e-06
1.25534e-06
1.25534e-06
1.25536e-06
1.2556e-06
1.53283e-06
5.09301e-06
5.06619e-06
1.50551e-06
1.22263e-06
1.22067e-06
1.22066e-06
1.22066e-06
1.22067e-06
1.221e-06
1.50251e-06
5.06608e-06
5.04055e-06
1.47657e-06
1.18946e-06
1.18725e-06
1.18726e-06
1.18725e-06
1.18726e-06
1.18768e-06
1.4735e-06
5.04043e-06
5.01612e-06
1.44886e-06
1.15749e-06
1.15505e-06
1.15506e-06
1.15505e-06
1.15505e-06
1.15555e-06
1.44572e-06
5.01598e-06
4.99281e-06
1.4223e-06
1.12668e-06
1.12398e-06
1.124e-06
1.12399e-06
1.12398e-06
1.12457e-06
1.41911e-06
4.99266e-06
4.97058e-06
1.39684e-06
1.09695e-06
1.094e-06
1.09402e-06
1.09401e-06
1.09399e-06
1.09467e-06
1.3936e-06
4.9704e-06
4.94935e-06
1.37241e-06
1.06825e-06
1.06504e-06
1.06506e-06
1.06506e-06
1.06503e-06
1.06579e-06
1.36913e-06
4.94915e-06
4.92907e-06
1.34897e-06
1.04052e-06
1.03706e-06
1.03708e-06
1.03707e-06
1.03704e-06
1.03788e-06
1.34566e-06
4.92885e-06
4.90969e-06
1.32646e-06
1.01373e-06
1.01e-06
1.01002e-06
1.01001e-06
1.00998e-06
1.0109e-06
1.32314e-06
4.90944e-06
4.89116e-06
1.30486e-06
9.87817e-07
9.83811e-07
9.83835e-07
9.83831e-07
9.83788e-07
9.84799e-07
1.3015e-06
4.89088e-06
4.87343e-06
1.2841e-06
9.62748e-07
9.58463e-07
9.58486e-07
9.58483e-07
9.58435e-07
9.59533e-07
1.28072e-06
4.87312e-06
4.85646e-06
1.26414e-06
9.38479e-07
9.33911e-07
9.33933e-07
9.33929e-07
9.33878e-07
9.35063e-07
1.26073e-06
4.85612e-06
4.84021e-06
1.24488e-06
9.14972e-07
9.10117e-07
9.10138e-07
9.10134e-07
9.10079e-07
9.11348e-07
1.24144e-06
4.83983e-06
4.82464e-06
1.22613e-06
8.9218e-07
8.87046e-07
8.87064e-07
8.87061e-07
8.87002e-07
8.88342e-07
1.22264e-06
4.82423e-06
4.80972e-06
1.20605e-06
8.70016e-07
8.64666e-07
8.64681e-07
8.64679e-07
8.64616e-07
8.66019e-07
1.20238e-06
4.80926e-06
)
;
    }
    inlet
    {
        type            calculated;
        value           uniform 0.00952565;
    }
    outlet
    {
        type            calculated;
        value           nonuniform List<scalar> 
20
(
6.35339e-05
1.17144e-05
9.42583e-06
9.39173e-06
9.39172e-06
9.39173e-06
9.39115e-06
9.40116e-06
1.17627e-05
6.35316e-05
6.35357e-05
1.17678e-05
9.42808e-06
9.39143e-06
9.39153e-06
9.39151e-06
9.39108e-06
9.40069e-06
1.17419e-05
6.35297e-05
)
;
    }
    heatWall
    {
        type            nutkWallFunction;