/*--------------------------------*- C++ -*----------------------------------*\
  =========                 |
  \\      /  F ield         | OpenFOAM: The Open Source CFD Toolbox
   \\    /   O peration     | Website:  https://openfoam.org
    \\  /    A nd           | Version:  8
     \\/     M anipulation  |
\*---------------------------------------------------------------------------*/
FoamFile
{
    version     2.0;
    format      ascii;
    class       volScalarField;
    location    "200";
    object      p;
}
// * * * * * * * * * * * * * * * * * * * * * * * * * * * * * * * * * * * * * //

dimensions      [1 -1 -2 0 0 0 0];

internalField   nonuniform List<scalar> 
1200
(
515.151
307.855
220.045
189.289
168.604
151.474
137.704
126.078
115.866
106.784
98.4861
90.8459
83.8485
77.3818
71.383
65.7797
60.493
55.5167
50.8207
46.3472
42.0521
37.9265
33.9693
30.1348
26.395
22.7582
19.2039
15.7062
12.2649
8.874
5.51701
2.18927
-1.11346
-4.40405
-7.69193
-10.9789
-14.2641
-17.5528
-20.8547
-24.172
-27.5069
-30.8626
-34.2447
-37.653
-41.0767
-44.5286
-48.0116
-51.5275
-55.0749
-58.6334
-62.2341
-65.8582
-69.5084
-73.1986
-76.9067
-80.6338
-84.3823
-88.2001
-92.1086
-96.7229
-121.945
-96.5667
-90.3464
-84.5036
-83.6467
-86.5868
-91.0283
-96.0868
-101.395
-106.717
-111.986
-117.127
-122.072
-126.816
-131.36
-135.739
-139.971
-144.041
-147.968
-151.79
-155.526
-159.169
-162.721
-166.22
-169.67
-173.06
-176.41
-179.738
-183.036
-186.308
-189.568
-192.816
-196.057
-199.297
-202.541
-205.794
-209.054
-212.323
-215.61
-218.918
-222.245
-225.595
-228.974
-232.38
-235.809
-239.263
-242.748
-246.269
-249.816
-253.383
-256.992
-260.62
-264.276
-267.97
-271.683
-275.414
-279.166
-282.97
-286.827
-290.768
-245.728
-188.215
-181.685
-194.796
-209.949
-224.778
-238.821
-251.741
-263.506
-274.164
-283.855
-292.717
-300.827
-308.245
-315.062
-321.382
-327.257
-332.723
-337.847
-342.69
-347.285
-351.647
-355.819
-359.849
-363.739
-367.497
-371.165
-374.759
-378.276
-381.733
-385.146
-388.52
-391.866
-395.193
-398.503
-401.808
-405.11
-408.408
-411.718
-415.044
-418.378
-421.733
-425.112
-428.511
-431.937
-435.382
-438.857
-442.367
-445.897
-449.458
-453.052
-456.667
-460.311
-463.984
-467.682
-471.4
-475.136
-478.902
-482.664
-486.188
-440.424
-418.245
-424.912
-442.587
-456.499
-467.031
-475.903
-483.676
-490.598
-496.834
-502.595
-508.004
-513.098
-517.908
-522.484
-526.867
-531.069
-535.111
-539.03
-542.833
-546.528
-550.122
-553.644
-557.12
-560.533
-563.887
-567.217
-570.523
-573.796
-577.05
-580.292
-583.521
-586.748
-589.978
-593.207
-596.446
-599.695
-602.951
-606.231
-609.533
-612.847
-616.19
-619.559
-622.95
-626.373
-629.816
-633.293
-636.805
-640.339
-643.908
-647.501
-651.124
-654.776
-658.445
-662.148
-665.873
-669.613
-673.364
-677.097
-680.527
-631.989
-612.757
-609.319
-618.772
-628.844
-638.34
-648.022
-657.648
-666.835
-675.408
-683.414
-690.872
-697.791
-704.227
-710.22
-715.811
-721.046
-725.99
-730.687
-735.145
-739.393
-743.465
-747.398
-751.216
-754.918
-758.52
-762.058
-765.532
-768.946
-772.322
-775.666
-778.977
-782.27
-785.556
-788.83
-792.102
-795.377
-798.656
-801.955
-805.267
-808.588
-811.939
-815.311
-818.701
-822.121
-825.563
-829.039
-832.548
-836.08
-839.646
-843.228
-846.849
-850.498
-854.157
-857.854
-861.572
-865.307
-869.041
-872.737
-876.067
-827.163
-807.926
-804.466
-813.944
-824.087
-833.549
-843.293
-852.963
-862.125
-870.711
-878.725
-886.149
-893.032
-899.451
-905.421
-910.983
-916.196
-921.125
-925.808
-930.249
-934.486
-938.558
-942.491
-946.301
-949.997
-953.603
-957.14
-960.605
-964.014
-967.392
-970.737
-974.048
-977.341
-980.626
-983.9
-987.17
-990.442
-993.721
-997.019
-1000.33
-1003.65
-1007
-1010.37
-1013.76
-1017.18
-1020.62
-1024.09
-1027.6
-1031.13
-1034.7
-1038.28
-1041.9
-1045.55
-1049.21
-1052.91
-1056.62
-1060.36
-1064.1
-1067.81
-1071.16
-1025.95
-1003.73
-1010.27
-1027.95
-1041.92
-1052.39
-1061.3
-1069.09
-1075.98
-1082.27
-1088.09
-1093.52
-1098.62
-1103.47
-1108.07
-1112.46
-1116.67
-1120.73
-1124.66
-1128.46
-1132.16
-1135.78
-1139.33
-1142.8
-1146.21
-1149.58
-1152.92
-1156.2
-1159.46
-1162.72
-1165.96
-1169.18
-1172.4
-1175.62
-1178.84
-1182.07
-1185.3
-1188.56
-1191.84
-1195.12
-1198.43
-1201.77
-1205.13
-1208.52
-1211.93
-1215.37
-1218.86
-1222.36
-1225.89
-1229.46
-1233.05
-1236.67
-1240.32
-1243.99
-1247.69
-1251.41
-1255.16
-1258.92
-1262.66
-1266.12
-1221.61
-1164.23
-1157.68
-1170.76
-1185.9
-1200.78
-1214.85
-1227.72
-1239.42
-1250.06
-1259.75
-1268.58
-1276.66
-1284.06
-1290.86
-1297.17
-1303.03
-1308.51
-1313.64
-1318.48
-1323.07
-1327.45
-1331.64
-1335.67
-1339.55
-1343.32
-1346.98
-1350.55
-1354.05
-1357.51
-1360.91
-1364.28
-1367.61
-1370.93
-1374.23
-1377.52
-1380.81
-1384.11
-1387.42
-1390.73
-1394.06
-1397.42
-1400.79
-1404.19
-1407.6
-1411.05
-1414.53
-1418.04
-1421.57
-1425.13
-1428.73
-1432.35
-1436
-1439.67
-1443.37
-1447.09
-1450.84
-1454.62
-1458.41
-1462
-1488.09
-1462.65
-1456.41
-1450.51
-1449.63
-1452.67
-1457.14
-1462.18
-1467.55
-1473
-1478.32
-1483.49
-1488.47
-1493.24
-1497.78
-1502.17
-1506.4
-1510.47
-1514.41
-1518.23
-1521.95
-1525.58
-1529.14
-1532.63
-1536.05
-1539.43
-1542.77
-1546.06
-1549.34
-1552.59
-1555.83
-1559.06
-1562.29
-1565.51
-1568.74
-1571.97
-1575.21
-1578.47
-1581.74
-1585.03
-1588.34
-1591.68
-1595.05
-1598.44
-1601.85
-1605.3
-1608.79
-1612.3
-1615.83
-1619.4
-1623
-1626.63
-1630.28
-1633.96
-1637.68
-1641.41
-1645.17
-1648.99
-1652.88
-1656.89
-1241.6
-1448.5
-1536.61
-1567.25
-1587.76
-1605
-1618.84
-1630.37
-1640.57
-1649.79
-1658.09
-1665.69
-1672.7
-1679.17
-1685.17
-1690.79
-1696.06
-1701.03
-1705.72
-1710.18
-1714.45
-1718.55
-1722.5
-1726.32
-1730.03
-1733.66
-1737.21
-1740.69
-1744.11
-1747.5
-1750.85
-1754.17
-1757.48
-1760.77
-1764.06
-1767.34
-1770.62
-1773.91
-1777.22
-1780.52
-1783.86
-1787.22
-1790.59
-1794
-1797.42
-1800.88
-1804.37
-1807.88
-1811.42
-1814.98
-1818.59
-1822.22
-1825.87
-1829.55
-1833.26
-1836.99
-1840.75
-1844.59
-1848.54
-1853.22
514.775
307.317
219.071
188.907
168.877
151.824
137.913
126.332
116.136
106.87
98.5041
90.9052
83.8857
77.3936
71.355
65.7239
60.476
55.5272
50.8276
46.3633
42.1153
38.0379
34.0846
30.2598
26.5554
22.9293
19.37
15.8794
12.44
9.04152
5.68188
2.34864
-0.969302
-4.27255
-7.56335
-10.8501
-14.1435
-17.4475
-20.76
-24.0858
-27.4285
-30.79
-34.1693
-37.5704
-41.0076
-44.4703
-47.9562
-51.4656
-55.001
-58.5834
-62.1816
-65.8106
-69.4654
-73.1321
-76.8353
-80.5722
-84.3459
-88.1499
-92.0481
-96.6812
-122.257
-96.8661
-90.8139
-84.8008
-83.6704
-86.6418
-91.1096
-96.0841
-101.357
-106.763
-112.066
-117.184
-122.13
-126.893
-131.478
-135.87
-140.077
-144.152
-148.106
-151.932
-155.639
-159.265
-162.828
-166.312
-169.732
-173.119
-176.467
-179.776
-183.064
-186.337
-189.593
-192.84
-196.084
-199.326
-202.569
-205.817
-209.076
-212.354
-215.645
-218.952
-222.283
-225.636
-229.009
-232.407
-235.838
-239.299
-242.786
-246.296
-249.838
-253.418
-257.016
-260.65
-264.307
-267.979
-271.686
-275.426
-279.196
-282.986
-286.831
-290.784
-245.943
-188.396
-182.026
-195.28
-210.403
-225.205
-239.165
-251.981
-263.634
-274.255
-283.932
-292.745
-300.803
-308.214
-315.051
-321.357
-327.213
-332.697
-337.846
-342.69
-347.276
-351.657
-355.853
-359.867
-363.743
-367.516
-371.181
-374.753
-378.262
-381.718
-385.126
-388.498
-391.842
-395.163
-398.473
-401.772
-405.07
-408.378
-411.689
-415.008
-418.35
-421.707
-425.082
-428.481
-431.905
-435.362
-438.842
-442.343
-445.882
-449.447
-453.037
-456.661
-460.306
-463.975
-467.674
-471.401
-475.153
-478.913
-482.669
-486.208
-440.593
-418.166
-424.85
-442.677
-456.739
-467.172
-476.038
-483.805
-490.634
-496.86
-502.619
-507.982
-513.036
-517.845
-522.431
-526.811
-531.024
-535.09
-539.014
-542.817
-546.526
-550.161
-553.714
-557.181
-560.599
-563.981
-567.312
-570.603
-573.877
-577.129
-580.362
-583.589
-586.808
-590.025
-593.25
-596.479
-599.719
-602.98
-606.25
-609.538
-612.856
-616.192
-619.553
-622.946
-626.362
-629.815
-633.293
-636.795
-640.334
-643.898
-647.498
-651.123
-654.771
-658.454
-662.159
-665.887
-669.636
-673.39
-677.109
-680.55
-632.157
-612.636
-609.224
-618.818
-629.083
-638.557
-648.298
-657.92
-667.008
-675.543
-683.495
-690.886
-697.764
-704.16
-710.127
-715.718
-720.983
-725.94
-730.618
-735.079
-739.353
-743.461
-747.413
-751.225
-754.935
-758.559
-762.093
-765.561
-768.983
-772.354
-775.687
-779
-782.292
-785.567
-788.84
-792.109
-795.382
-798.667
-801.954
-805.256
-808.585
-811.925
-815.29
-818.687
-822.105
-825.556
-829.03
-832.528
-836.061
-839.619
-843.22
-846.836
-850.475
-854.157
-857.856
-861.577
-865.313
-869.052
-872.733
-876.059
-827.308
-807.791
-804.393
-813.969
-824.201
-833.743
-843.464
-853.087
-862.217
-870.739
-878.672
-886.069
-892.945
-899.315
-905.262
-910.845
-916.1
-921.048
-925.723
-930.188
-934.465
-938.567
-942.515
-946.333
-950.046
-953.665
-957.198
-960.673
-964.098
-967.468
-970.801
-974.116
-977.409
-980.685
-983.955
-987.223
-990.495
-993.774
-997.055
-1000.35
-1003.68
-1007.01
-1010.37
-1013.76
-1017.18
-1020.62
-1024.09
-1027.58
-1031.11
-1034.67
-1038.26
-1041.88
-1045.51
-1049.19
-1052.89
-1056.61
-1060.34
-1064.08
-1067.77
-1071.1
-1026.04
-1003.62
-1010.37
-1028.13
-1042.05
-1052.51
-1061.31
-1069.06
-1075.99
-1082.24
-1088.03
-1093.47
-1098.59
-1103.42
-1108.03
-1112.43
-1116.66
-1120.73
-1124.66
-1128.48
-1132.19
-1135.8
-1139.34
-1142.81
-1146.23
-1149.6
-1152.92
-1156.23
-1159.5
-1162.75
-1165.98
-1169.21
-1172.43
-1175.65
-1178.87
-1182.11
-1185.35
-1188.61
-1191.87
-1195.16
-1198.48
-1201.81
-1205.17
-1208.56
-1211.98
-1215.43
-1218.9
-1222.4
-1225.94
-1229.5
-1233.1
-1236.72
-1240.37
-1244.05
-1247.75
-1251.48
-1255.23
-1258.99
-1262.72
-1266.14
-1221.7
-1164.05
-1157.76
-1171.06
-1186.14
-1200.85
-1214.74
-1227.55
-1239.22
-1249.82
-1259.52
-1268.38
-1276.49
-1283.94
-1290.82
-1297.16
-1303.03
-1308.52
-1313.67
-1318.53
-1323.12
-1327.48
-1331.66
-1335.69
-1339.57
-1343.33
-1346.99
-1350.58
-1354.1
-1357.54
-1360.95
-1364.32
-1367.66
-1370.98
-1374.29
-1377.58
-1380.88
-1384.18
-1387.48
-1390.8
-1394.13
-1397.47
-1400.84
-1404.23
-1407.66
-1411.1
-1414.57
-1418.06
-1421.6
-1425.16
-1428.75
-1432.36
-1436.01
-1439.67
-1443.37
-1447.09
-1450.84
-1454.6
-1458.37
-1461.93
-1488.37
-1462.99
-1456.77
-1450.75
-1449.65
-1452.48
-1456.94
-1462.08
-1467.45
-1472.87
-1478.24
-1483.44
-1488.42
-1493.21
-1497.81
-1502.2
-1506.41
-1510.49
-1514.43
-1518.26
-1521.98
-1525.61
-1529.16
-1532.65
-1536.08
-1539.46
-1542.79
-1546.11
-1549.39
-1552.64
-1555.89
-1559.12
-1562.35
-1565.58
-1568.81
-1572.05
-1575.3
-1578.55
-1581.82
-1585.13
-1588.44
-1591.78
-1595.14
-1598.53
-1601.96
-1605.4
-1608.88
-1612.38
-1615.93
-1619.5
-1623.1
-1626.73
-1630.38
-1634.06
-1637.76
-1641.5
-1645.27
-1649.07
-1652.94
-1656.93
-1241.52
-1449.27
-1537.16
-1567.36
-1587.48
-1604.45
-1618.31
-1630.05
-1640.34
-1649.57
-1658
-1665.68
-1672.71
-1679.2
-1685.23
-1690.83
-1696.09
-1701.04
-1705.75
-1710.22
-1714.49
-1718.59
-1722.55
-1726.38
-1730.1
-1733.72
-1737.27
-1740.75
-1744.18
-1747.56
-1750.91
-1754.24
-1757.54
-1760.83
-1764.11
-1767.38
-1770.67
-1773.96
-1777.25
-1780.58
-1783.9
-1787.25
-1790.63
-1794.03
-1797.46
-1800.9
-1804.38
-1807.89
-1811.43
-1815.01
-1818.6
-1822.22
-1825.87
-1829.54
-1833.24
-1836.98
-1840.75
-1844.56
-1848.49
-1853.15
)
;

boundaryField
{
    wall
    {
        type            calculated;
        value           nonuniform List<scalar> 
1200
(
515.334
-121.786
-245.62
-440.339
-631.904
-827.089
-1025.9
-1221.57
-1487.95
-1241.64
308.128
-96.4171
-188.126
-418.286
-612.819
-807.995
-1003.79
-1164.33
-1462.49
-1448.1
220.546
-90.1107
-181.521
-424.947
-609.369
-804.505
-1010.23
-1157.64
-1456.23
-1536.33
189.49
-84.3514
-194.558
-442.545
-618.753
-813.936
-1027.86
-1170.61
-1450.39
-1567.19
168.472
-83.6325
-209.725
-456.377
-628.727
-824.035
-1041.85
-1185.78
-1449.62
-1587.9
151.297
-86.5554
-224.563
-466.96
-638.235
-833.454
-1052.33
-1200.74
-1452.76
-1605.28
137.597
-90.984
-238.647
-475.833
-647.885
-843.208
-1061.3
-1214.91
-1457.24
-1619.11
125.947
-96.0862
-251.619
-483.607
-657.511
-852.901
-1069.11
-1227.81
-1462.24
-1630.53
115.725
-101.412
-263.439
-490.577
-666.746
-862.078
-1075.98
-1239.52
-1467.59
-1640.68
106.736
-106.694
-274.116
-496.817
-675.337
-870.696
-1082.28
-1250.19
-1473.06
-1649.9
98.4726
-111.945
-283.814
-502.578
-683.369
-878.75
-1088.12
-1259.87
-1478.36
-1658.14
90.8117
-117.098
-292.7
-508.011
-690.86
-886.188
-1093.54
-1268.68
-1483.52
-1665.69
83.8266
-122.043
-300.837
-513.126
-697.801
-893.073
-1098.64
-1276.74
-1488.5
-1672.7
77.3734
-126.777
-308.259
-517.938
-704.258
-899.517
-1103.5
-1284.13
-1493.25
-1679.16
71.3958
-131.301
-315.066
-522.509
-710.264
-905.5
-1108.09
-1290.89
-1497.77
-1685.15
65.8081
-135.671
-321.394
-526.895
-715.856
-911.052
-1112.47
-1297.17
-1502.16
-1690.77
60.503
-139.917
-327.28
-531.091
-721.076
-916.245
-1116.67
-1303.03
-1506.39
-1696.05
55.5136
-143.984
-332.737
-535.122
-726.014
-921.163
-1120.73
-1308.5
-1510.47
-1701.02
50.8198
-147.897
-337.848
-539.038
-730.722
-925.851
-1124.66
-1313.62
-1514.39
-1705.7
46.3423
-151.717
-342.691
-542.842
-735.18
-930.281
-1128.46
-1318.45
-1518.21
-1710.16
42.0237
-155.467
-347.29
-546.53
-739.414
-934.497
-1132.15
-1323.05
-1521.94
-1714.44
37.8733
-159.118
-351.643
-550.104
-743.469
-938.555
-1135.78
-1327.44
-1525.57
-1718.52
33.9137
-162.665
-355.802
-553.61
-747.391
-942.48
-1139.32
-1331.63
-1529.13
-1722.48
30.0739
-166.172
-359.84
-557.091
-751.213
-946.286
-1142.79
-1335.65
-1532.62
-1726.3
26.3156
-169.637
-363.737
-560.502
-754.91
-949.973
-1146.2
-1339.53
-1536.03
-1730
22.6726
-173.028
-367.487
-563.841
-758.502
-953.573
-1149.58
-1343.31
-1539.42
-1733.63
19.1201
-176.38
-371.156
-567.169
-762.042
-957.111
-1152.92
-1346.98
-1542.76
-1737.18
15.6182
-179.718
-374.762
-570.482
-765.518
-960.571
-1156.19
-1350.54
-1546.04
-1740.65
12.1753
-183.021
-378.283
-573.755
-768.928
-963.971
-1159.45
-1354.03
-1549.31
-1744.08
8.78769
-186.293
-381.74
-577.009
-772.306
-967.353
-1162.71
-1357.49
-1552.57
-1747.47
5.43152
-189.555
-385.156
-580.255
-775.655
-970.705
-1165.95
-1360.9
-1555.8
-1750.81
2.10605
-192.804
-388.531
-583.485
-778.964
-974.012
-1169.17
-1364.25
-1559.03
-1754.14
-1.18934
-196.043
-391.878
-586.716
-782.259
-977.305
-1172.38
-1367.59
-1562.26
-1757.45
-4.47373
-199.283
-395.208
-589.951
-785.549
-980.595
-1175.61
-1370.9
-1565.48
-1760.74
-7.76033
-202.528
-398.518
-593.183
-788.824
-983.87
-1178.83
-1374.21
-1568.7
-1764.04
-11.0477
-205.783
-401.826
-596.426
-792.098
-987.142
-1182.05
-1377.5
-1571.93
-1767.32
-14.3287
-209.044
-405.13
-599.68
-795.374
-990.413
-1185.28
-1380.78
-1575.16
-1770.59
-17.6098
-212.307
-408.423
-602.934
-798.649
-993.692
-1188.54
-1384.08
-1578.42
-1773.89
-20.9064
-215.592
-411.733
-606.219
-801.954
-997
-1191.82
-1387.39
-1581.7
-1777.19
-24.2193
-218.902
-415.063
-609.529
-805.271
-1000.31
-1195.1
-1390.7
-1584.98
-1780.5
-27.5502
-222.226
-418.393
-612.841
-808.589
-1003.63
-1198.41
-1394.03
-1588.3
-1783.84
-30.9028
-225.576
-421.748
-616.188
-811.946
-1006.99
-1201.75
-1397.39
-1591.64
-1787.2
-34.2861
-228.957
-425.128
-619.562
-815.321
-1010.37
-1205.12
-1400.76
-1595
-1790.57
-37.6981
-232.368
-428.528
-622.952
-818.707
-1013.75
-1208.5
-1404.16
-1598.39
-1793.98
-41.1147
-235.795
-431.954
-626.378
-822.129
-1017.17
-1211.91
-1407.57
-1601.8
-1797.39
-44.561
-239.245
-435.394
-629.817
-825.566
-1020.61
-1215.35
-1411.02
-1605.25
-1800.87
-48.0424
-242.73
-438.866
-633.294
-829.044
-1024.1
-1218.83
-1414.52
-1608.74
-1804.36
-51.5614
-246.256
-442.38
-636.811
-832.558
-1027.61
-1222.35
-1418.03
-1612.25
-1807.87
-55.1149
-249.804
-445.906
-640.343
-836.089
-1031.14
-1225.87
-1421.55
-1615.78
-1811.41
-58.6613
-253.366
-449.465
-643.915
-839.659
-1034.71
-1229.44
-1425.12
-1619.34
-1814.97
-62.2629
-256.98
-453.062
-647.505
-843.232
-1038.28
-1233.03
-1428.72
-1622.95
-1818.58
-65.8845
-260.605
-456.672
-651.126
-846.856
-1041.91
-1236.65
-1432.34
-1626.58
-1822.21
-69.5322
-264.261
-460.316
-654.781
-850.51
-1045.56
-1240.3
-1435.99
-1630.23
-1825.86
-73.2342
-267.965
-463.99
-658.443
-854.157
-1049.22
-1243.96
-1439.66
-1633.91
-1829.55
-76.9448
-271.681
-467.688
-662.145
-857.853
-1052.91
-1247.66
-1443.37
-1637.63
-1833.26
-80.6671
-275.408
-471.401
-665.868
-861.571
-1056.63
-1251.38
-1447.09
-1641.36
-1836.99
-84.4028
-279.15
-475.13
-669.603
-865.304
-1060.38
-1255.13
-1450.84
-1645.12
-1840.75
-88.2275
-282.962
-478.897
-673.353
-869.036
-1064.11
-1258.88
-1454.63
-1648.94
-1844.6
-92.1413
-286.825
-482.663
-677.093
-872.74
-1067.83
-1262.63
-1458.42
-1652.84
-1848.56
-96.7464
-290.761
-486.179
-680.517
-876.072
-1071.19
-1266.11
-1462.03
-1656.86
-1853.25
514.592
-122.417
-246.051
-440.678
-632.243
-827.382
-1026.09
-1221.75
-1488.51
-1241.48
307.044
-97.0157
-188.485
-418.126
-612.575
-807.723
-1003.57
-1163.95
-1463.15
-1449.66
218.571
-91.0496
-182.19
-424.816
-609.173
-804.354
-1010.41
-1157.8
-1456.95
-1537.45
188.706
-84.9529
-195.518
-442.719
-618.837
-813.977
-1028.22
-1171.21
-1450.88
-1567.43
169.01
-83.6845
-210.628
-456.86
-629.2
-824.253
-1042.12
-1186.26
-1449.67
-1587.34
152.001
-86.6731
-225.42
-467.243
-638.662
-833.838
-1052.58
-1200.88
-1452.39
-1604.17
138.021
-91.1539
-239.34
-476.107
-648.434
-843.55
-1061.31
-1214.68
-1456.84
-1618.03
126.464
-96.0846
-252.103
-483.873
-658.057
-853.149
-1069.04
-1227.46
-1462.02
-1629.88
116.277
-101.34
-263.701
-490.656
-667.097
-862.264
-1075.99
-1239.11
-1467.4
-1640.23
106.918
-106.786
-274.303
-496.877
-675.614
-870.755
-1082.23
-1249.7
-1472.8
-1649.45
98.5178
-112.107
-283.973
-502.636
-683.54
-878.647
-1088
-1259.4
-1478.2
-1657.95
90.9395
-117.213
-292.762
-507.974
-690.897
-886.031
-1093.44
-1268.28
-1483.41
-1665.68
83.9077
-122.16
-300.793
-513.007
-697.755
-892.904
-1098.58
-1276.4
-1488.39
-1672.71
77.4019
-126.933
-308.2
-517.815
-704.13
-899.249
-1103.39
-1283.88
-1493.2
-1679.22
71.3421
-131.538
-315.046
-522.406
-710.082
-905.184
-1108.01
-1290.79
-1497.82
-1685.26
65.6954
-135.937
-321.346
-526.783
-715.673
-910.776
-1112.42
-1297.15
-1502.21
-1690.86
60.4658
-140.131
-327.19
-531.001
-720.952
-916.052
-1116.66
-1303.03
-1506.42
-1696.1
55.5302
-144.208
-332.683
-535.079
-725.916
-921.01
-1120.73
-1308.53
-1510.49
-1701.05
50.8283
-148.177
-337.844
-539.005
-730.584
-925.68
-1124.66
-1313.69
-1514.45
-1705.76
46.3681
-152.004
-342.689
-542.808
-735.044
-930.156
-1128.48
-1318.55
-1518.28
-1710.24
42.1436
-155.698
-347.27
-546.524
-739.332
-934.454
-1132.2
-1323.14
-1521.99
-1714.5
38.091
-159.316
-351.661
-550.179
-743.457
-938.57
-1135.81
-1327.5
-1525.62
-1718.62
34.1402
-162.884
-355.87
-553.747
-747.419
-942.526
-1139.35
-1331.68
-1529.17
-1722.57
30.3208
-166.361
-359.876
-557.21
-751.227
-946.348
-1142.82
-1335.7
-1532.66
-1726.4
26.6349
-169.766
-363.745
-560.63
-754.943
-950.07
-1146.24
-1339.59
-1536.1
-1730.13
23.015
-173.15
-367.525
-564.028
-758.578
-953.695
-1149.6
-1343.34
-1539.47
-1733.76
19.4539
-176.498
-371.189
-567.359
-762.11
-957.227
-1152.92
-1347
-1542.8
-1737.3
15.9676
-179.796
-374.75
-570.644
-765.575
-960.707
-1156.24
-1350.6
-1546.13
-1740.79
12.5297
-183.079
-378.255
-573.919
-769.001
-964.141
-1159.52
-1354.12
-1549.41
-1744.21
9.1279
-186.352
-381.711
-577.17
-772.37
-967.506
-1162.76
-1357.56
-1552.66
-1747.59
5.76742
-189.606
-385.116
-580.399
-775.698
-970.833
-1165.98
-1360.96
-1555.91
-1750.95
2.43187
-192.852
-388.488
-583.625
-779.013
-974.151
-1169.22
-1364.34
-1559.15
-1754.27
-0.893451
-196.098
-391.83
-586.841
-782.304
-977.445
-1172.45
-1367.69
-1562.38
-1757.56
-4.20294
-199.34
-395.149
-590.052
-785.574
-980.716
-1175.66
-1371.01
-1565.61
-1760.86
-7.49508
-202.583
-398.458
-593.273
-788.846
-983.984
-1178.89
-1374.31
-1568.84
-1764.13
-10.7815
-205.827
-401.755
-596.498
-792.114
-987.252
-1182.12
-1377.61
-1572.08
-1767.41
-14.0792
-209.086
-405.05
-599.734
-795.386
-990.524
-1185.38
-1380.92
-1575.34
-1770.7
-17.3907
-212.369
-408.363
-602.996
-798.674
-993.803
-1188.63
-1384.21
-1578.59
-1773.98
-20.7087
-215.662
-411.674
-606.262
-801.955
-997.074
-1191.89
-1387.51
-1581.87
-1777.28
-24.0389
-218.969
-414.99
-609.541
-805.252
-1000.37
-1195.18
-1390.83
-1585.17
-1780.6
-27.3858
-222.302
-418.335
-612.861
-808.584
-1003.69
-1198.5
-1394.16
-1588.48
-1783.92
-30.7504
-225.655
-421.692
-616.194
-811.919
-1007.02
-1201.83
-1397.5
-1591.82
-1787.27
-34.1285
-229.026
-425.065
-619.55
-815.28
-1010.38
-1205.19
-1400.87
-1595.19
-1790.65
-37.526
-232.42
-428.465
-622.943
-818.681
-1013.77
-1208.58
-1404.26
-1598.58
-1794.04
-40.9703
-235.852
-431.887
-626.357
-822.097
-1017.18
-1212
-1407.69
-1602.02
-1797.48
-44.4387
-239.317
-435.35
-629.814
-825.553
-1020.63
-1215.46
-1411.13
-1605.45
-1800.91
-47.9263
-242.805
-438.833
-633.292
-829.025
-1024.09
-1218.92
-1414.58
-1608.92
-1804.39
-51.4327
-246.309
-442.33
-636.788
-832.518
-1027.58
-1222.42
-1418.08
-1612.43
-1807.9
-54.9619
-249.849
-445.872
-640.33
-836.051
-1031.1
-1225.96
-1421.62
-1615.98
-1811.44
-58.5566
-253.435
-449.44
-643.892
-839.605
-1034.65
-1229.53
-1425.18
-1619.56
-1815.02
-62.1538
-257.028
-453.027
-647.494
-843.215
-1038.26
-1233.13
-1428.76
-1623.15
-1818.6
-65.7854
-260.665
-456.656
-651.121
-846.829
-1041.86
-1236.75
-1432.37
-1626.77
-1822.23
-69.4428
-264.323
-460.302
-654.765
-850.463
-1045.49
-1240.4
-1436.01
-1630.43
-1825.88
-73.0978
-267.984
-463.969
-658.456
-854.157
-1049.18
-1244.08
-1439.68
-1634.11
-1829.55
-76.7984
-271.688
-467.668
-662.162
-857.856
-1052.88
-1247.79
-1443.37
-1637.81
-1833.24
-80.5402
-275.432
-471.4
-665.892
-861.579
-1056.6
-1251.52
-1447.09
-1641.55
-1836.98
-84.3268
-279.212
-475.159
-669.646
-865.316
-1060.33
-1255.26
-1450.84
-1645.32
-1840.75
-88.1238
-282.993
-478.917
-673.4
-869.057
-1064.07
-1259.02
-1454.6
-1649.11
-1844.55
-92.0168
-286.833
-482.669
-677.113
-872.731
-1067.75
-1262.74
-1458.36
-1652.98
-1848.47
-96.6591
-290.791
-486.217
-680.561
-876.054
-1071.07
-1266.15
-1461.9
-1656.95
-1853.12
)
;
    }
    inlet
    {
        type            calculated;
        value           nonuniform List<scalar> 
20
(
515.151
-121.945
-245.728
-440.424
-631.989
-827.163
-1025.95
-1221.61
-1488.09
-1241.6
514.775
-122.257
-245.943
-440.593
-632.157
-827.308
-1026.04
-1221.7
-1488.37
-1241.52
)
;
    }
    outlet
    {
        type            calculated;
        value           nonuniform List<scalar> 
20
(
-97.5912
-292.76
-487.93
-683.102
-878.274
-1073.45
-1268.62
-1463.79
-1658.97
-1854.23
-97.5912
-292.76
-487.93
-683.102
-878.274
-1073.45
-1268.62
-1463.79
-1658.97
-1854.23
)
;
    }
    heatWall
    {
        type            calculated;
        value           nonuniform List<scalar> 
240
(
-1339.19
-1339.11
-1546.08
-1546.86
-1634.2
-1634.75
-1664.84
-1664.95
-1685.35
-1685.07
-1702.58
-1702.03
-1716.43
-1715.89
-1727.95
-1727.63
-1738.15
-1737.93
-1747.37
-1747.16
-1755.68
-1755.59
-1763.28
-1763.27
-1770.29
-1770.3
-1776.76
-1776.79
-1782.76
-1782.82
-1788.38
-1788.42
-1793.65
-1793.68
-1798.62
-1798.63
-1803.31
-1803.34
-1807.77
-1807.81
-1812.04
-1812.08
-1816.13
-1816.18
-1820.09
-1820.14
-1823.91
-1823.96
-1827.62
-1827.69
-1831.25
-1831.31
-1834.8
-1834.86
-1838.27
-1838.34
-1841.7
-1841.77
-1845.09
-1845.15
-1848.44
-1848.5
-1851.76
-1851.82
-1855.07
-1855.12
-1858.36
-1858.42
-1861.65
-1861.7
-1864.93
-1864.97
-1868.21
-1868.26
-1871.5
-1871.54
-1874.8
-1874.84
-1878.11
-1878.17
-1881.45
-1881.49
-1884.81
-1884.84
-1888.18
-1888.22
-1891.59
-1891.62
-1895.01
-1895.05
-1898.47
-1898.49
-1901.96
-1901.97
-1905.47
-1905.48
-1909.01
-1909.02
-1912.57
-1912.6
-1916.18
-1916.19
-1919.81
-1919.81
-1923.46
-1923.46
-1927.14
-1927.14
-1930.85
-1930.84
-1934.58
-1934.57
-1938.34
-1938.34
-1942.18
-1942.15
-1946.13
-1946.08
-1950.81
-1950.74
612.737
612.361
405.442
404.903
317.632
316.658
286.875
286.494
266.191
266.464
249.061
249.411
235.291
235.501
223.666
223.92
213.454
213.723
204.371
204.457
196.074
196.092
188.434
188.493
181.436
181.474
174.97
174.981
168.971
168.943
163.368
163.312
158.081
158.064
153.105
153.115
148.409
148.416
143.936
143.952
139.641
139.704
135.515
135.626
131.558
131.673
127.724
127.849
123.984
124.144
120.347
120.518
116.793
116.959
113.295
113.468
109.854
110.029
106.463
106.631
103.106
103.271
99.7786
99.938
96.476
96.6201
93.1855
93.317
89.8977
90.0262
86.6107
86.7396
83.3257
83.4462
80.037
80.1423
76.7352
76.8299
73.4179
73.5042
70.0831
70.1615
66.7274
66.8
63.3454
63.4208
59.9372
60.0198
56.5136
56.5827
53.0618
53.12
49.5788
49.6342
46.0629
46.1248
42.5156
42.5895
38.9571
39.0072
35.3566
35.409
31.7325
31.7801
28.0823
28.1254
24.3922
24.4587
20.6842
20.7556
16.9572
17.0188
13.2087
13.2451
9.39102
9.44123
5.48258
5.5431
0.868339
0.910062
)
;
    }
}


// ************************************************************************* //
