/*--------------------------------*- C++ -*----------------------------------*\
  =========                 |
  \\      /  F ield         | OpenFOAM: The Open Source CFD Toolbox
   \\    /   O peration     | Website:  https://openfoam.org
    \\  /    A nd           | Version:  8
     \\/     M anipulation  |
\*---------------------------------------------------------------------------*/
FoamFile
{
    version     2.0;
    format      ascii;
    class       volScalarField;
    location    "200";
    object      p_rgh;
}
// * * * * * * * * * * * * * * * * * * * * * * * * * * * * * * * * * * * * * //

dimensions      [1 -1 -2 0 0 0 0];

internalField   nonuniform List<scalar> 
1200
(
612.776
405.486
317.683
286.926
266.238
249.106
235.335
223.706
213.49
204.402
196.098
188.45
181.445
174.969
168.963
163.353
158.06
153.08
148.381
143.907
139.613
135.49
131.535
127.703
123.964
120.329
116.776
113.279
109.839
106.449
103.092
99.7658
96.465
93.1772
89.8925
86.6088
83.3271
80.0418
76.7431
73.429
70.0973
66.7447
63.3657
59.9606
56.5403
53.092
49.612
46.0991
42.5548
38.9995
35.402
31.7793
28.129
24.4367
20.7254
16.994
13.2389
9.41413
5.49707
0.875
170.856
196.233
202.454
208.3
209.159
206.222
201.779
196.718
191.406
186.077
180.801
175.651
170.697
165.945
161.392
157.007
152.768
148.694
144.765
140.942
137.207
133.567
130.017
126.52
123.072
119.684
116.335
113.008
109.711
106.438
103.179
99.9318
96.6933
93.4556
90.2143
86.9645
83.7073
80.4424
77.1583
73.8526
70.5291
67.1814
63.8053
60.4022
56.9768
53.5264
50.0438
46.5259
42.9824
39.4176
35.8119
32.1855
28.529
24.833
21.1168
17.3817
13.6228
9.81133
5.94571
1.99725
242.245
299.756
306.283
293.176
278.026
263.201
249.158
236.236
224.467
213.802
204.103
195.233
187.114
179.686
172.861
166.533
160.65
155.18
150.054
145.21
140.617
136.256
132.087
128.059
124.171
120.415
116.749
113.156
109.639
106.183
102.771
99.3987
96.0549
92.7312
89.4243
86.1231
82.8246
79.53
76.2225
72.8996
69.5686
66.2164
62.8411
59.4445
56.0222
52.5807
49.1085
45.6015
42.0745
38.5169
34.9254
31.3124
27.6676
23.9925
20.2917
16.5696
12.8261
9.05374
5.28253
1.75107
242.72
264.898
258.23
240.558
226.651
216.12
207.248
199.473
192.545
186.303
180.534
175.117
170.014
165.194
160.61
156.219
152.012
147.965
144.045
140.241
136.547
132.955
129.435
125.961
122.55
119.197
115.869
112.564
109.292
106.04
102.799
99.5719
96.3474
93.1207
89.8944
86.659
83.413
80.1599
76.8826
73.5834
70.2723
66.9318
63.5656
60.1778
56.7583
53.318
49.8442
46.3348
42.8038
39.2378
35.6476
32.0262
28.3732
24.7016
20.996
17.2667
13.5196
9.76147
6.02034
2.58308
246.327
265.558
268.996
259.544
249.474
239.979
230.298
220.671
211.481
202.901
194.887
187.421
180.492
174.046
168.045
162.446
157.205
152.257
147.557
143.098
138.851
134.781
130.851
127.035
123.336
119.735
116.199
112.726
109.314
105.939
102.596
99.2874
95.9959
92.7135
89.4424
86.1727
82.901
79.6255
76.3298
73.0198
69.701
66.353
62.9842
59.5979
56.1805
52.7422
49.2693
45.7635
42.2347
38.6718
35.093
31.4729
27.8234
24.1619
20.4621
16.7389
12.9964
9.25511
5.55019
2.21263
246.326
265.561
269.022
259.545
249.403
239.943
230.2
220.529
211.363
202.769
194.746
187.313
180.421
173.992
168.012
162.442
157.223
152.291
147.605
143.164
138.929
134.858
130.928
127.121
123.426
119.822
116.287
112.823
109.415
106.039
102.695
99.3868
96.0964
92.815
89.5447
86.2779
83.0103
79.7347
76.4389
73.133
69.8156
66.4679
63.1015
59.7167
56.3022
52.865
49.3906
45.8863
42.3593
38.7976
35.2205
31.6001
27.9521
24.2898
20.59
16.867
13.1194
9.37497
5.66157
2.29695
242.715
264.927
258.388
240.716
226.744
216.277
207.364
199.57
192.679
186.382
180.549
175.116
170.001
165.142
160.535
156.14
151.923
147.858
143.924
140.121
136.423
132.805
129.263
125.793
122.381
119.011
115.68
112.394
109.134
105.88
102.642
99.4225
96.2066
92.9882
89.7686
86.5446
83.3132
80.0628
76.7886
73.503
70.1973
66.8598
63.5012
60.1187
56.7081
53.2706
49.7929
46.2877
42.7612
39.1969
35.6103
31.9876
28.3393
24.6691
20.9648
17.2389
13.4845
9.72174
5.9687
2.49663
242.219
299.595
306.153
293.075
277.935
263.059
248.988
236.112
224.416
213.759
204.059
195.223
187.135
179.718
172.909
166.599
160.727
155.25
150.116
145.277
140.685
136.306
132.118
128.098
124.218
120.45
116.784
113.216
109.716
106.263
102.86
99.4998
96.1662
92.8528
89.5532
86.2641
82.9813
79.6861
76.3796
73.0707
69.742
66.3914
63.0225
59.6303
56.2167
52.773
49.2934
45.7903
42.2672
38.706
35.1128
31.493
27.8488
24.1739
20.4677
16.7426
12.9864
9.20009
5.4017
1.80267
170.915
196.349
202.594
208.494
209.377
206.346
201.869
196.826
191.46
186
180.665
175.487
170.492
165.719
161.164
156.771
152.536
148.458
144.524
140.706
136.983
133.352
129.797
126.314
122.894
119.513
116.175
112.881
109.61
106.354
103.118
99.8904
96.6667
93.4472
90.2221
86.9937
83.7613
80.5037
77.2314
73.9487
70.6342
67.2989
63.939
60.5513
57.1425
53.6931
50.2132
46.708
43.1787
39.6163
36.0132
32.3872
28.7369
25.0509
21.3348
17.6
13.8304
10.005
6.10894
2.08881
612.576
405.689
317.58
286.945
266.435
249.2
235.359
223.834
213.632
204.404
196.091
188.488
181.467
174.987
168.981
163.359
158.084
153.116
148.426
143.964
139.695
135.606
131.657
127.836
124.131
120.508
116.961
113.486
110.06
106.678
103.334
100.011
96.706
93.4203
90.1374
86.8609
83.5889
80.2972
77.0003
73.696
70.3599
67.0112
63.6388
60.2417
56.8265
53.3661
49.8843
46.377
42.8424
39.2836
35.6817
32.0575
28.4096
24.7267
21.0145
17.2805
13.5098
9.66795
5.71362
1.02376
612.406
404.944
316.694
286.533
266.507
249.458
235.548
223.966
213.766
204.494
196.121
188.514
181.485
174.984
168.936
163.296
158.041
153.088
148.385
143.92
139.673
135.598
131.648
127.826
124.124
120.5
116.943
113.454
110.016
106.619
103.261
99.929
96.6133
93.313
90.0255
86.7422
83.4521
80.1516
76.8422
73.5194
70.1796
66.821
63.4446
60.0467
56.6125
53.1531
49.67
46.1634
42.6312
39.0517
35.4563
31.8287
28.1735
24.5046
20.7983
17.0572
13.2766
9.46568
5.55896
0.918344
170.541
195.933
201.984
207.999
209.133
206.162
201.694
196.718
191.442
186.03
180.72
175.594
170.639
165.867
161.273
156.874
152.661
148.582
144.624
140.798
137.091
133.468
129.907
126.425
123.007
119.623
116.276
112.969
109.681
106.409
103.154
99.9078
96.6657
93.4266
90.1865
86.9423
83.6862
80.4114
77.1233
73.8191
70.4911
67.1415
63.7712
60.376
56.9484
53.4901
50.0062
46.4993
42.9599
39.3828
35.7877
32.1553
28.4979
24.8236
21.1135
17.3693
13.5921
9.79569
5.94183
1.98236
242.029
299.577
305.949
292.696
277.575
262.773
248.812
235.994
224.336
213.709
204.023
195.202
187.136
179.715
172.87
166.556
160.695
155.207
150.056
145.211
140.627
136.247
132.053
128.041
124.167
120.396
116.733
113.162
109.653
106.198
102.791
99.4201
96.0789
92.7608
89.4545
86.1587
82.8647
79.5602
76.2521
72.9362
69.598
66.2443
62.8725
59.4761
56.0558
52.6028
49.1255
45.6271
42.0918
38.5294
34.9431
31.3204
27.6749
24.0034
20.3017
16.5702
12.8115
9.04392
5.27971
1.73228
242.55
264.978
258.296
240.471
226.41
215.978
207.11
199.339
192.506
186.273
180.505
175.135
170.073
165.256
160.661
156.275
152.057
147.986
144.061
140.258
136.55
132.918
129.367
125.902
122.485
119.104
115.774
112.483
109.21
105.959
102.727
99.5022
96.2845
93.0704
89.849
86.6227
83.3861
80.1287
76.8612
73.577
70.2618
66.929
63.5715
60.1821
56.7689
53.3197
49.845
46.3465
42.8102
39.2492
35.6529
32.029
28.3813
24.6955
20.9879
17.2549
13.4985
9.73809
6.01035
2.56106
246.158
265.68
269.094
259.502
249.238
239.765
230.024
220.398
211.305
202.762
194.802
187.402
180.515
174.11
168.135
162.537
157.267
152.306
147.626
143.166
138.893
134.787
130.838
127.028
123.32
119.697
116.165
112.698
109.277
105.907
102.575
99.2633
95.9735
92.7009
89.4314
86.1646
82.8948
79.6134
76.329
73.0296
69.7037
66.3663
63.0046
59.611
56.1964
52.7487
49.2785
45.7837
42.2535
38.6988
35.1013
31.4866
27.8467
24.1622
20.4606
16.7347
12.9908
9.24453
5.55481
2.22189
246.179
265.698
269.097
259.524
249.294
239.752
230.029
220.405
211.269
202.739
194.797
187.391
180.506
174.126
168.171
162.581
157.32
152.368
147.691
143.227
138.951
134.851
130.905
127.09
123.378
119.761
116.229
112.755
109.33
105.962
102.631
99.3172
96.0264
92.7544
89.4875
86.2227
82.9544
79.6793
76.4014
73.1048
69.7846
66.4537
63.0967
59.7085
56.2978
52.8557
49.3935
45.9033
42.3771
38.8269
35.233
31.6238
27.9871
24.3073
20.6084
16.8834
13.1435
9.39566
5.70108
2.35834
242.617
265.037
258.295
240.533
226.613
216.151
207.357
199.602
192.67
186.406
180.613
175.164
170.031
165.193
160.578
156.163
151.929
147.855
143.928
140.111
136.399
132.787
129.252
125.779
122.362
118.999
115.676
112.373
109.097
105.854
102.625
99.3967
96.1754
92.9591
89.7381
86.5086
83.2665
80.0153
76.7532
73.4641
70.152
66.8238
63.466
60.0781
56.6626
53.2166
49.7507
46.252
42.7142
39.1545
35.558
31.9392
28.2912
24.6083
20.9028
17.168
13.4164
9.65018
5.91327
2.47665
242.127
299.786
306.073
292.778
277.694
262.991
249.099
236.29
224.618
214.002
204.299
195.427
187.304
179.844
172.957
166.609
160.727
155.233
150.081
145.227
140.638
136.274
132.096
128.075
124.192
120.435
116.775
113.186
109.672
106.228
102.826
99.4559
96.117
92.8009
89.4998
86.2047
82.9088
79.6183
76.3223
73.0057
69.6782
66.3357
62.9692
59.5795
56.1615
52.721
49.2602
45.7653
42.2312
38.6756
35.0934
31.4801
27.8362
24.1661
20.4706
16.7402
12.9871
9.21435
5.43534
1.87055
170.635
196.015
202.236
208.249
209.352
206.528
202.071
196.935
191.558
186.128
180.747
175.541
170.548
165.748
161.138
156.742
152.522
148.446
144.497
140.671
136.957
133.329
129.78
126.294
122.862
119.488
116.152
112.84
109.56
106.306
103.063
99.8298
96.6044
93.3785
90.1536
86.9195
83.6707
80.4195
77.1489
73.8509
70.5415
67.2055
63.8434
60.4552
57.0329
53.5934
50.1241
46.6194
43.0776
39.5072
35.9169
32.2911
28.6337
24.9543
21.247
17.502
13.7273
9.92011
6.03806
2.04492
612.657
404.908
317.018
286.824
266.715
249.755
235.899
224.16
213.86
204.628
196.19
188.494
181.461
174.96
168.925
163.315
158.056
153.1
148.396
143.928
139.663
135.559
131.609
127.785
124.062
120.442
116.9
113.417
109.993
106.614
103.264
99.9463
96.6502
93.3632
90.0896
86.8151
83.532
80.2544
76.9588
73.6418
70.3215
66.9729
63.6029
60.2084
56.7806
53.3438
49.8709
46.3653
42.8285
39.2576
35.6714
32.0509
28.3996
24.7264
21.0247
17.286
13.5128
9.69301
5.75569
1.08971
)
;

boundaryField
{
    wall
    {
        type            fixedFluxPressure;
        gradient        nonuniform List<scalar> 
1200
(
73.0743
63.6996
43.4209
34.1534
34.1361
29.6901
19.5416
18.3314
56.2961
-16.9147
109.045
59.8626
35.6057
-16.3357
-24.5765
-27.4192
-22.1515
-39.0594
66.9185
157.329
200.207
94.2906
65.802
-13.6753
-20.187
-15.4947
18.578
14.8444
72.0341
113.824
80.5276
60.8686
95.0356
16.8468
7.44709
3.37438
36.7023
58.6116
49.6192
25.2572
-53.0191
5.69159
89.7917
48.5249
46.566
20.9523
26.3668
47.5682
5.83172
-55.5679
-70.566
12.5498
85.9285
28.4219
41.8861
37.9102
25.8375
13.3182
-35.8595
-111.459
-42.8754
17.7338
69.6091
27.733
54.666
34.0436
1.61205
-22.5046
-40.0165
-108.745
-52.5919
0.241625
48.8853
27.2998
54.8233
24.812
-6.28822
-35.8427
-21.4876
-66.1558
-56.4648
-6.97687
26.8429
8.56938
35.4648
18.9176
1.93779
-40.7927
-19.5984
-46.4786
-19.289
9.46347
19.2438
6.70871
28.3929
6.30412
-4.71431
-48.9585
-25.7759
-45.8417
-5.39724
16.3358
16.3481
6.57151
17.8761
-9.90334
-13.0518
-48.209
-16.662
-20.4718
-13.6598
11.6879
6.63237
-3.05371
4.44148
-15.2924
-9.82446
-41.377
-11.0886
-1.72443
-8.7916
11.8766
-4.08583
-11.4383
-3.8629
-16.4324
-6.1021
-34.6039
-11.7182
0.901581
-3.33308
15.7395
-5.59988
-11.9675
-12.0862
-26.4137
-10.5946
-25.947
-6.19351
5.17294
5.10838
23.9613
-1.70021
-9.95368
-17.7108
-31.5008
-8.82128
-10.133
4.89469
11.1912
11.3318
26.8492
-4.68011
-11.0805
-17.9694
-27.6559
-4.78592
-2.41064
5.52922
8.61008
4.01411
21.6989
-9.05074
-8.92127
-12.1731
-19.3126
-1.4554
-0.263113
2.50924
5.5163
-1.26014
22.7075
-5.57901
-4.36248
-9.69308
-15.4606
0.290242
3.40368
2.18205
3.11403
-0.351356
28.4048
-0.557053
-3.53088
-13.7911
-17.4074
-0.957916
6.92201
5.29061
5.76224
-1.97631
29.1754
-0.350158
-3.67667
-13.7156
-12.9054
1.86214
10.133
6.91015
7.08272
-11.3609
23.5832
-2.21952
-1.04213
-8.52549
-4.65768
4.64718
9.69416
5.08325
6.25923
-21.2596
20.3424
1.64865
7.12081
-1.43829
1.14063
3.55093
6.7014
4.42846
9.25752
-22.248
22.4035
6.74223
13.4085
2.53245
4.42278
2.28172
4.51193
3.32906
9.43607
-24.3587
19.3935
3.53524
11.5449
1.09188
6.0021
2.61283
4.74205
3.92788
10.1417
-31.7526
13.2888
0.719339
12.6183
2.962
9.48849
3.80723
5.52009
6.22159
13.6768
-34.2353
12.6608
3.86665
18.6608
7.36363
12.1575
2.43096
3.02286
4.91405
13.1514
-33.517
12.1242
3.41513
19.0579
6.64983
11.5774
0.683619
1.73456
4.38517
12.2324
-35.2111
8.12093
-1.07424
16.275
5.54812
13.6291
4.0752
5.9516
8.00345
13.8422
-35.8333
6.04076
-2.64129
16.5952
7.30893
17.0628
7.39871
8.77747
9.75912
13.489
-34.522
6.00594
-2.78869
16.3993
6.44941
15.5069
5.07424
6.96718
9.31179
13.0371
-34.1981
5.15216
-3.86449
14.7349
4.3453
13.0618
3.12068
6.56978
10.7038
14.3581
-33.2857
4.84938
-4.1924
14.3649
4.91453
14.1313
4.97687
8.58184
11.9036
13.2165
-30.3503
5.52209
-4.73724
13.0457
4.61637
14.2637
6.04111
9.63656
12.2538
11.4779
-27.8739
5.77657
-5.87471
10.5234
2.67081
12.3996
5.62616
10.1996
13.5561
11.7721
-27.3617
5.4948
-6.02532
9.55037
2.37456
11.7476
5.91991
10.5167
13.5306
9.90278
-27.4922
4.3596
-7.1318
7.71489
1.80831
11.3682
7.00488
11.737
14.6786
9.49714
-25.8452
4.10975
-8.0945
5.80818
1.44103
11.5411
9.18116
14.4231
17.989
11.7125
-22.8111
6.08313
-6.122
6.6344
2.63996
11.4623
9.37057
13.5121
16.7301
8.8693
-20.6783
6.88696
-6.02461
4.64482
0.371735
7.88525
6.92997
11.4368
16.3762
8.61068
-18.9194
6.576
-7.47465
1.57324
-1.77044
6.02894
7.63541
13.0354
19.4836
11.1782
-17.2983
7.49173
-6.0492
2.3261
-0.335624
6.593
8.95004
12.8533
18.4874
7.99066
-16.0714
7.88451
-5.77479
0.721294
-2.48883
3.19713
7.07704
11.2725
18.6617
7.98445
-16.579
6.74913
-6.49521
-1.10001
-3.96348
1.29395
6.91706
10.8579
19.128
7.51341
-18.033
5.16556
-6.56243
-0.815274
-2.49737
1.95601
7.9996
10.3821
19.2468
6.99157
-15.2188
5.60728
-6.99454
-2.17773
-3.07487
1.17883
8.99579
11.3071
21.9869
9.57066
-12.9675
7.2058
-4.72316
-0.46026
-1.20092
2.17272
10.7093
10.7139
20.0067
4.8238
-12.3205
7.48633
-3.71771
-0.321008
-1.7663
-0.30585
8.34337
6.99051
17.8908
3.07427
-13.5477
5.27871
-5.4497
-2.57526
-3.9774
-3.16687
7.04824
5.36476
17.8176
2.73199
-16.0144
4.47558
-3.75882
-1.54226
-3.73181
-3.36792
9.34919
7.61809
20.3317
3.16032
-11.1272
6.97316
-2.80143
-2.60636
-5.44139
-5.72599
8.3735
6.52443
21.9876
5.65787
-11.5423
4.83642
-3.88754
-1.42734
-1.67803
-2.34221
10.3787
4.342
19.4124
2.49441
-10.5192
6.03299
-1.92018
-0.958893
-2.79794
-4.6395
9.58608
3.05743
19.4233
1.7969
-9.51468
6.24094
-1.77138
-2.07757
-4.7866
-6.95293
9.51874
3.03822
20.8816
2.50199
-14.2235
1.86286
-2.51607
0.773725
-0.158139
-3.44363
12.0745
2.07975
19.5932
0.560345
-15.2352
0.607967
-2.34525
1.1958
0.198566
-3.63824
12.3149
-0.0740733
17.8181
-1.51737
-13.3184
2.44423
-0.437007
1.91103
0.702972
-3.23229
14.09
0.983981
19.8926
-0.56985
-8.18785
6.11134
2.62252
3.79365
0.976009
-4.81746
13.538
0.370607
20.9357
-0.0297384
-10.9866
3.0548
1.67222
4.2845
1.94847
-4.1286
14.2689
-2.34239
17.3005
-4.43938
-13.0738
0.67205
0.298143
1.60965
-1.11932
-7.91911
11.0558
-6.21689
14.5099
-7.83543
-9.42238
2.85555
3.56813
4.12359
-2.07954
-12.3992
3.90427
-13.1808
9.10476
-12.627
-73.0743
-63.6997
-43.4209
-34.1534
-34.1361
-29.6901
-19.5416
-18.3314
-56.2961
16.9148
-109.065
-59.8568
-35.603
16.3378
24.5798
27.4225
22.1522
39.0599
-66.9157
-157.345
-200.246
-94.2738
-65.7981
13.6777
20.1936
15.5013
-18.5801
-14.8538
-72.0253
-113.84
-80.4921
-60.8498
-95.0481
-16.856
-7.45045
-3.37702
-36.7111
-58.6481
-49.606
-25.196
53.1703
-5.66204
-89.8293
-48.5484
-46.5861
-20.9685
-26.3749
-47.6264
-5.80813
55.6961
70.7815
-12.5094
-85.9793
-28.4506
-41.9226
-37.9425
-25.8418
-13.3886
35.8982
111.621
43.0976
-17.6862
-69.66
-27.7552
-54.7133
-34.088
-1.60936
22.4297
40.0662
108.904
52.7894
-0.184756
-48.9272
-27.3169
-54.8781
-24.8585
6.30154
35.7676
21.5403
66.2789
56.6281
7.03907
-26.8754
-8.57756
-35.5166
-18.962
-1.92038
40.7184
19.6512
46.5566
19.4059
-9.40125
-19.2663
-6.70551
-28.4367
-6.34368
4.73251
48.8852
25.8269
45.8774
5.46451
-16.2753
-16.3612
-6.55876
-17.9107
9.87122
13.0707
48.1316
16.7079
20.4664
13.6887
-11.6296
-6.63883
3.07554
-4.46463
15.2675
9.84111
41.2942
11.1282
1.68003
8.7886
-11.8209
4.08515
11.4683
3.85086
16.4139
6.11434
34.5147
11.7513
-0.97131
3.30256
-15.6861
5.6041
12.0032
12.0836
26.4017
10.6031
25.8485
6.21935
-5.25507
-5.15825
-23.9099
1.70754
9.99257
17.7161
31.495
8.82658
10.024
-4.87618
-11.2778
-11.3936
-26.7993
4.68968
11.1212
17.9805
27.6542
4.78755
2.29417
-5.51668
-8.69603
-4.07906
-21.6496
9.06188
8.96263
12.1876
19.3124
1.45343
0.143166
-2.50087
-5.5998
1.20095
-22.6584
5.59016
4.40283
9.70952
15.4606
-0.295303
-3.52454
-2.17695
-3.19526
0.302929
-28.356
0.566824
3.56924
13.8088
17.4072
0.950334
-7.04148
-5.28825
-5.8421
1.94128
-29.1265
0.358264
3.71246
13.7337
12.9042
-1.87176
-10.2484
-6.90987
-7.16304
11.3415
-23.5334
2.2261
1.07464
8.54253
4.65421
-4.65843
-9.80302
-5.08426
-6.34122
21.2574
-20.2911
-1.64377
-7.09234
1.45324
-1.14661
-3.5631
-6.80242
-4.43034
-9.34249
22.2617
-22.3508
-6.73914
-13.3842
-2.51993
-4.43088
-2.2943
-4.60534
-3.33174
-9.52411
24.3848
-19.3395
-3.53343
-11.5242
-1.08168
-6.01183
-2.62574
-4.82875
-3.93137
-10.2315
31.7883
-13.2334
-0.718291
-12.6006
-2.95406
-9.49941
-3.82047
-5.60077
-6.22596
-13.7672
34.2778
-12.6042
-3.86622
-18.6456
-7.35793
-12.1691
-2.44443
-3.09812
-4.91936
-13.2409
33.5621
-12.0669
-3.41508
-19.0445
-6.64602
-11.5888
-0.697323
-1.80574
-4.39146
-12.3187
35.2553
-8.06316
1.07441
-16.2624
-5.54569
-13.6401
-4.0894
-6.02009
-8.0109
-13.9238
35.8733
-5.98281
2.64184
-16.5826
-7.30757
-17.0728
-7.41362
-8.84366
-9.76779
-13.5643
34.5544
-5.94819
2.78962
-16.3864
-6.4488
-15.5158
-5.08979
-7.03116
-9.32163
-13.1052
34.2196
-5.09496
3.86581
-14.7212
-4.34504
-13.0694
-3.13677
-6.63226
-10.7148
-14.4188
33.2931
-4.79299
4.19409
-14.3499
-4.91432
-14.1373
-4.99365
-8.64343
-11.9159
-13.269
30.3404
-5.46677
4.73928
-13.0292
-4.61594
-14.2681
-6.0587
-9.69736
-12.2672
-11.5216
27.8439
-5.72253
5.87707
-10.5051
-2.66991
-12.4023
-5.64456
-10.2596
-13.5705
-11.8069
27.31
-5.44217
6.02785
-9.5302
-2.37302
-11.7484
-5.9391
-10.5758
-13.5459
-9.92874
27.4174
-4.30844
7.13439
-7.69289
-1.80607
-11.3671
-7.02484
-11.795
-14.6948
-9.51423
25.7458
-4.06012
8.09707
-5.78439
-1.43801
-11.5379
-9.20185
-14.4795
-18.0059
-11.7213
22.6856
-6.03511
6.12441
-6.60899
-2.63614
-11.4571
-9.39189
-13.5663
-16.7476
-8.87018
20.5263
-6.84058
6.02669
-4.61802
-0.367099
-7.87801
-6.95179
-11.4886
-16.3941
-8.60398
18.7406
-6.53122
7.47634
-1.54518
1.77595
-6.01961
-7.65767
-13.0849
-19.5019
-11.1647
17.0929
-7.4485
6.05038
-2.29705
0.341928
-6.58169
-8.97275
-12.9
-18.506
-7.97024
15.8403
-7.84276
5.77532
-0.691571
2.49585
-3.18392
-7.10013
-11.3163
-18.6803
-7.95706
16.3227
-6.70873
6.49501
1.13019
3.97118
-1.27888
-6.94046
-10.8987
-19.1467
-7.47961
17.7522
-5.12635
6.56146
0.845629
2.50559
-1.9393
-8.02333
-10.4198
-19.2654
-6.95124
14.9135
-5.56913
6.99276
2.20802
3.0835
-1.1606
-9.0198
-11.3416
-22.0053
-9.52388
12.6384
-7.16868
4.72051
0.490237
1.20991
-2.15308
-10.7336
-10.7451
-20.0249
-4.77024
11.9692
-7.45016
3.71407
0.350393
1.77555
0.326808
-8.36782
-7.01851
-17.9085
-3.01346
13.1754
-5.24334
5.44505
2.6039
3.9869
3.18912
-7.0728
-5.39032
-17.8349
-2.66443
15.6218
-4.44092
3.75313
1.56998
3.7415
3.39135
-9.37385
-7.64166
-20.3487
-3.08571
10.7138
-6.93918
2.79468
2.63301
5.4512
5.75046
-8.39826
-6.54608
-22.0041
-5.57616
11.1089
-4.80296
3.87987
1.45284
1.68777
2.36749
-10.4035
-4.36167
-19.4284
-2.40547
10.0673
-5.99997
1.91157
0.983075
2.8075
4.66544
-9.61096
-3.07514
-19.4385
-1.70004
9.04531
-6.20837
1.76177
2.10036
4.79602
6.97958
-9.5437
-3.05395
-20.8961
-2.39717
13.7379
-1.83054
2.50552
-0.752438
0.167257
3.47074
-12.0996
-2.09344
-19.6069
-0.4473
14.7326
-0.575803
2.33379
-1.17608
-0.189868
3.66566
-12.3402
0.062477
-17.8309
1.63896
12.7979
-2.41235
0.424631
-1.89281
-0.694623
3.26001
-14.1153
-0.993522
-19.9045
0.700121
7.64933
-6.07986
-2.63577
-3.77688
-0.96803
4.84548
-13.5634
-0.378159
-20.9467
0.168748
10.4314
-3.02361
-1.68627
-4.26917
-1.9409
4.15688
-14.2944
2.33683
-17.3106
4.58742
12.5016
-0.641092
-0.312932
-1.59563
1.12645
7.94762
-11.0813
6.21331
-14.519
7.9929
8.8317
-2.8248
-3.58362
-4.11079
2.08623
12.428
-3.92987
13.1791
-9.11297
12.7939
)
;
        value           nonuniform List<scalar> 
1200
(
612.956
171.017
242.354
242.806
246.413
246.401
242.764
242.265
171.056
612.532
405.761
196.382
299.844
264.856
265.496
265.492
264.871
299.495
196.516
406.086
318.191
202.691
306.444
258.194
268.944
268.982
258.434
306.187
202.775
317.869
287.133
208.454
293.411
240.599
259.56
259.551
240.808
293.219
208.62
287.011
266.108
209.175
278.249
226.773
249.588
249.453
226.81
278.052
209.394
266.297
248.929
206.255
263.417
216.191
240.081
240.037
216.344
263.091
206.258
248.92
235.226
201.826
249.333
207.318
230.434
230.285
207.369
248.931
201.77
235.084
223.572
196.72
236.359
199.543
220.809
220.591
199.555
236.022
196.773
223.666
213.345
191.389
224.536
192.569
211.571
211.411
192.684
224.313
191.411
213.513
204.351
186.101
213.852
186.322
202.974
202.786
186.37
213.636
185.935
204.286
196.082
180.842
204.145
180.553
194.934
194.723
180.516
203.938
180.622
196.038
188.413
175.681
195.251
175.111
187.434
187.276
175.091
195.118
175.458
188.482
181.421
170.728
187.104
169.986
180.484
180.381
169.986
187.046
170.461
181.468
174.959
165.984
179.673
165.165
174.018
173.927
165.114
179.651
165.702
175
168.975
161.452
172.857
160.586
168.002
167.934
160.512
172.882
161.175
169.009
163.381
157.074
166.521
156.192
162.402
162.373
156.128
166.592
156.784
163.38
158.071
152.823
160.628
151.99
157.175
157.175
151.918
160.725
152.542
158.098
153.078
148.751
155.166
147.954
152.233
152.252
147.858
155.259
148.463
153.123
148.382
144.837
150.052
144.035
147.522
147.561
143.921
150.133
144.536
148.44
143.904
141.016
145.209
140.231
143.063
143.131
140.125
145.303
140.723
143.981
139.587
137.267
140.61
136.543
138.83
138.917
136.434
140.71
136.995
139.71
135.438
133.619
136.26
132.972
134.777
134.861
132.814
136.324
133.363
135.629
131.48
130.074
132.104
129.468
130.857
130.939
129.269
132.13
129.805
131.68
127.643
126.57
128.068
125.989
127.037
127.135
125.799
128.11
126.324
127.861
123.885
123.106
124.173
122.58
123.343
123.45
122.391
124.233
122.909
124.165
120.243
119.717
120.425
119.244
119.753
119.852
119.017
120.458
119.525
120.541
116.692
116.366
116.758
115.917
116.215
116.316
115.681
116.788
116.186
116.992
113.191
113.029
113.154
112.605
112.739
112.857
112.404
113.231
112.901
113.521
109.748
109.726
109.633
109.334
109.332
109.458
109.152
109.738
109.634
110.094
106.361
106.454
106.176
106.082
105.955
106.078
105.893
106.28
106.377
106.711
103.005
103.192
102.762
102.837
102.607
102.728
102.649
102.876
103.144
103.371
99.6807
99.9441
99.3885
99.6091
99.2999
99.4228
99.4344
99.5208
99.9195
100.045
96.3871
96.7071
96.0433
96.3814
96.0078
96.1329
96.2211
96.1898
96.6967
96.7357
93.1054
93.4701
92.7167
93.1484
92.7206
92.8469
93.0017
92.8778
93.4805
93.4508
89.8219
90.2279
89.4094
89.9198
89.4488
89.5751
89.7829
89.5791
90.2553
90.1632
86.5377
86.9752
86.1053
86.6797
86.1778
86.3074
86.5615
86.2931
87.0299
86.8857
83.2601
83.7173
82.8042
83.4289
82.9052
83.0403
83.3357
83.0171
83.8058
83.6192
79.9824
80.4573
79.5145
80.1778
79.6328
79.7646
80.0858
79.7197
80.5451
80.3203
76.6891
77.1752
76.2072
76.8954
76.3313
76.4599
76.8054
76.4081
77.2719
77.0228
73.3794
73.8687
72.8805
73.5884
73.0159
73.1493
73.5216
73.1033
73.9971
73.725
70.0519
70.5476
69.553
70.279
69.7008
69.8334
70.2193
69.7744
70.6802
70.3808
66.7025
67.2008
66.2015
66.9343
66.3473
66.4771
66.8771
66.4199
67.3454
67.0321
63.3223
63.822
62.8243
63.5633
62.9747
63.1058
63.5181
63.0502
63.9867
63.6585
59.9136
60.4149
59.4274
60.1761
59.5921
59.7227
60.1383
59.6568
60.5994
60.2601
56.5005
56.9907
56.0039
56.7529
56.1732
56.3062
56.7302
56.2457
57.1975
56.8516
53.058
53.5443
52.568
53.3167
52.7395
52.8715
53.297
52.8007
53.7432
53.3791
49.5797
50.0625
49.0983
49.8431
49.2652
49.3908
49.8134
49.3118
50.258
49.893
46.0638
46.5391
45.5869
46.3278
45.7538
45.8793
46.305
45.8047
46.7527
46.3849
42.5133
42.9936
42.0642
42.7993
42.2255
42.3516
42.7843
42.2875
43.2297
42.8513
38.9704
39.4352
38.509
39.2304
38.6582
38.7839
39.2174
38.7236
39.6716
39.2989
35.3719
35.8241
34.9146
35.6431
35.0888
35.2153
35.6359
35.125
36.0621
35.6891
31.752
32.2007
31.3066
32.0227
31.4658
31.589
32.0112
31.5021
32.4362
32.0632
28.1043
28.5448
27.6622
28.3668
27.8112
27.9351
28.3627
27.858
28.7897
28.4171
24.4002
24.8378
23.9852
24.7023
24.1613
24.2815
24.6989
24.1807
25.1006
24.7294
20.6864
21.1183
20.2847
20.9978
20.4624
20.5812
20.9952
20.4691
21.38
21.012
16.9597
17.3879
16.5675
17.2702
16.7404
16.8592
17.2737
16.7467
17.6504
17.2804
13.2176
13.6382
12.8317
13.5278
12.9985
13.1076
13.5179
12.989
13.8835
13.5111
9.38579
9.81896
9.05694
9.771
9.25964
9.36485
9.75707
9.1959
10.0491
9.65824
5.4635
5.94729
5.28237
6.02318
5.54697
5.6419
5.99602
5.38784
6.14607
5.69541
0.850426
2.00424
1.75931
2.59251
2.20689
2.26577
2.50589
1.77107
2.11243
0.993512
612.226
170.38
241.92
242.464
246.071
246.104
242.568
242.082
170.493
612.702
404.67
195.784
299.489
265.02
265.742
265.767
265.093
299.886
195.847
404.511
316.186
201.747
305.787
258.332
269.147
269.137
258.248
306.039
202.055
316.729
286.326
207.845
292.461
240.431
259.486
259.518
240.441
292.634
208.123
286.758
266.638
209.117
277.351
226.288
249.123
249.244
226.547
277.577
209.335
266.853
249.636
206.129
262.557
215.907
239.663
239.658
216.085
262.958
206.616
250.035
235.657
201.648
248.637
207.04
229.887
229.944
207.352
249.156
202.17
236.174
224.1
196.717
235.87
199.269
220.261
220.343
199.617
236.38
196.988
224.329
213.912
191.459
224.267
192.482
211.215
211.221
192.665
224.72
191.607
213.979
204.546
186.006
213.659
186.254
202.69
202.722
186.418
214.125
186.193
204.746
196.137
180.679
203.981
180.487
194.755
194.821
180.646
204.42
180.789
196.243
188.551
175.564
195.184
175.141
187.389
187.428
175.189
195.532
175.57
188.5
181.509
170.609
187.145
170.1
180.522
180.545
170.047
187.393
170.579
181.459
174.993
165.827
179.728
165.285
174.138
174.191
165.221
179.91
165.764
174.948
168.924
161.213
172.874
160.685
168.178
168.249
160.601
172.983
161.127
168.897
163.268
156.806
166.568
156.303
162.581
162.65
156.176
166.616
156.729
163.293
158.03
152.606
160.718
152.079
157.296
157.368
151.933
160.728
152.517
158.042
153.09
148.524
155.221
147.998
152.329
152.407
147.855
155.224
148.441
153.092
148.385
144.552
150.058
144.071
147.66
147.735
143.931
150.063
144.484
148.382
143.923
140.724
145.213
140.268
143.2
143.26
140.107
145.201
140.654
143.91
139.7
137.031
140.633
136.554
138.915
138.963
136.388
140.613
136.944
139.647
135.65
133.415
136.244
132.901
134.792
134.849
132.778
136.256
133.319
135.536
131.703
129.85
132.037
129.334
130.832
130.895
129.246
132.084
129.772
131.586
127.886
126.376
128.033
125.874
127.026
127.075
125.773
128.062
126.284
127.759
124.203
122.973
124.166
122.455
123.313
123.355
122.353
124.177
122.847
124.028
120.586
119.59
120.386
119.057
119.68
119.731
118.993
120.427
119.476
120.409
117.027
116.245
116.724
115.726
116.149
116.2
115.675
116.77
116.142
116.869
113.543
112.948
113.164
112.443
112.684
112.72
112.363
113.171
112.821
113.382
110.107
109.666
109.659
109.168
109.259
109.287
109.078
109.65
109.536
109.959
106.707
106.394
106.204
105.918
105.891
105.923
105.842
106.21
106.284
106.58
103.348
103.141
102.8
102.69
102.564
102.597
102.618
102.81
103.037
103.227
100.014
99.8956
99.4303
99.4651
99.2508
99.2812
99.3848
99.4348
99.8007
99.912
96.6912
96.652
96.0905
96.2506
95.9616
95.9899
96.1608
96.0933
96.5744
96.6203
93.3847
93.4124
92.7753
93.0428
92.6938
92.7225
92.9455
92.7758
93.3452
93.3325
90.096
90.173
89.4695
89.8238
89.425
89.4572
89.7238
89.4738
90.1203
90.0637
86.8131
86.9318
86.1765
86.602
86.1596
86.1932
86.4916
86.1756
86.8833
86.7903
83.5188
83.6764
82.8851
83.3703
82.8906
82.9244
83.244
82.8728
83.6261
83.5017
80.2106
80.3967
79.5756
80.1109
79.6062
79.6495
79.9922
79.5846
80.378
80.2312
76.8958
77.1065
76.2674
76.8484
76.3274
76.3805
76.7363
76.2937
77.1084
76.9364
73.5685
73.8031
72.9553
73.5721
73.0334
73.0885
73.4454
72.9729
73.8025
73.6129
70.2245
70.4728
69.6136
70.2552
69.7039
69.7669
70.1299
69.6458
70.4955
70.3006
66.8626
67.1221
66.2593
66.9266
66.372
66.4446
66.8065
66.307
67.159
66.9521
63.4874
63.7546
62.8893
63.5739
63.0141
63.0924
63.4491
62.9415
63.7956
63.5832
60.093
60.3633
59.4932
60.1839
59.6168
59.7026
60.0585
59.5529
60.4071
60.1901
56.6516
56.9346
56.0741
56.7744
56.2037
56.2939
56.6405
56.1325
56.9778
56.7557
53.1864
53.4722
52.6155
53.3211
52.7513
52.8493
53.1901
52.6933
53.5432
53.3308
49.7014
49.9876
49.1357
49.8462
49.2826
49.3933
49.7302
49.2417
50.0792
49.8623
46.1977
46.4863
45.6417
46.3535
45.7934
45.9104
46.2347
45.7508
46.5747
46.3576
42.6717
42.9488
42.1021
42.8147
42.2627
42.3848
42.691
42.2109
43.0265
42.8198
39.0797
39.3653
38.5373
39.2566
38.7125
38.8407
39.1339
38.658
39.4518
39.2424
35.4852
35.7756
34.9538
35.6575
35.1055
35.2383
35.5323
35.0811
35.868
35.6643
31.8549
32.1402
31.3262
32.0325
31.4937
31.635
31.9155
31.471
32.242
32.0454
28.197
28.4822
27.6803
28.3878
27.859
28.0042
28.2678
27.827
28.5809
28.3923
24.5398
24.8189
24.0107
24.6949
24.1628
24.3156
24.5784
24.1593
24.9046
24.724
20.8361
21.112
20.3086
20.9862
20.4603
20.6172
20.8724
20.4692
21.2018
21.0275
17.0901
17.3632
16.5723
17.2515
16.7332
16.8912
17.1331
16.7361
17.4515
17.2865
13.2965
13.5768
12.8059
13.4903
12.9887
13.1554
13.3829
12.9845
13.6741
13.5118
9.49254
9.78815
9.04067
9.7286
9.24002
9.40586
9.61478
9.21853
9.87604
9.70309
5.591
5.94033
5.27983
6.00755
5.55805
5.72084
5.88588
5.44919
6.00089
5.77428
0.941343
1.97545
1.72401
2.55166
2.22765
2.3896
2.46732
1.90215
2.02128
1.12037
)
;
    }
    inlet
    {