/*--------------------------------*- C++ -*----------------------------------*\
  =========                 |
  \\      /  F ield         | OpenFOAM: The Open Source CFD Toolbox
   \\    /   O peration     | Website:  https://openfoam.org
    \\  /    A nd           | Version:  8
     \\/     M anipulation  |
\*---------------------------------------------------------------------------*/
FoamFile
{
    version     2.0;
    format      ascii;
    class       volVectorField;
    location    "200";
    object      U;
}
// * * * * * * * * * * * * * * * * * * * * * * * * * * * * * * * * * * * * * //

dimensions      [0 1 -1 0 0 0 0];

internalField   nonuniform List<vector> 
1200
(
(4.00453 -0.295093 0.00186559)
(4.029 -0.22802 0.00350319)
(4.03223 -0.190618 0.00605698)
(4.02779 -0.164888 0.00702635)
(4.02226 -0.146056 0.00628999)
(4.0164 -0.131779 0.00532127)
(4.01032 -0.120511 0.0046944)
(4.00421 -0.111373 0.00395004)
(3.99816 -0.103833 0.00316217)
(3.99219 -0.0975187 0.00284299)
(3.98634 -0.0921924 0.00270338)
(3.98058 -0.0876827 0.00246542)
(3.97492 -0.0838447 0.00229273)
(3.96934 -0.0805706 0.00219372)
(3.96386 -0.0777718 0.00220596)
(3.95846 -0.0753736 0.00230126)
(3.95314 -0.0733209 0.00230934)
(3.94791 -0.0715654 0.00225623)
(3.94274 -0.0700621 0.00222009)
(3.93766 -0.0687723 0.00216849)
(3.93264 -0.067667 0.00200276)
(3.9277 -0.0667219 0.00171624)
(3.92282 -0.0659111 0.0014215)
(3.91801 -0.0652123 0.00110349)
(3.91326 -0.0646113 0.000694428)
(3.90857 -0.0640944 0.000256434)
(3.90395 -0.0636472 -0.000170425)
(3.89938 -0.0632591 -0.000617647)
(3.89487 -0.0629213 -0.00107191)
(3.89042 -0.0626253 -0.00150874)
(3.88602 -0.0623641 -0.00194114)
(3.88167 -0.0621318 -0.00236189)
(3.87737 -0.0619227 -0.00274525)
(3.87312 -0.0617325 -0.0030973)
(3.86892 -0.0615589 -0.00344348)
(3.86476 -0.0613989 -0.00379231)
(3.86065 -0.0612491 -0.00412095)
(3.85659 -0.0611079 -0.00441137)
(3.85257 -0.0609732 -0.00467533)
(3.84859 -0.060843 -0.0049178)
(3.84465 -0.060717 -0.00514038)
(3.84076 -0.0605941 -0.00534824)
(3.8369 -0.0604736 -0.00556393)
(3.83309 -0.0603553 -0.00579971)
(3.8293 -0.0602369 -0.00600005)
(3.82556 -0.0601189 -0.00617194)
(3.82185 -0.0600014 -0.00633637)
(3.81818 -0.0598836 -0.00651793)
(3.81454 -0.0597674 -0.00673254)
(3.81093 -0.0596491 -0.00688422)
(3.80735 -0.0595295 -0.00704215)
(3.80381 -0.0594097 -0.00718741)
(3.8003 -0.059289 -0.00732029)
(3.79681 -0.0591684 -0.00751584)
(3.79335 -0.0590476 -0.00772548)
(3.78992 -0.0589268 -0.00791045)
(3.78652 -0.0588056 -0.00802856)
(3.78316 -0.0586899 -0.0081844)
(3.77993 -0.0585927 -0.00836837)
(3.77643 -0.058715 -0.00850607)
(4.00713 0.104007 -0.000227338)
(4.00327 0.133722 4.68254e-05)
(4.00192 0.134246 0.00101948)
(4.00124 0.129404 0.00171504)
(4.00163 0.123108 0.00178873)
(4.00264 0.116396 0.00197919)
(4.00386 0.11003 0.00225432)
(4.00514 0.104293 0.00232031)
(4.00641 0.0992327 0.00229816)
(4.00764 0.0948261 0.00248256)
(4.00882 0.090992 0.00275219)
(4.00993 0.0876574 0.00296069)
(4.01097 0.0847715 0.00316829)
(4.01194 0.0822698 0.00342094)
(4.01284 0.0800995 0.00377281)
(4.01369 0.0782192 0.0041577)
(4.01448 0.0765812 0.00447534)
(4.01522 0.0751481 0.00480224)
(4.01592 0.0738954 0.0051971)
(4.01658 0.0727999 0.00559894)
(4.01721 0.0718357 0.0059287)
(4.0178 0.0709796 0.00621576)
(4.01837 0.0702219 0.00652642)
(4.01892 0.0695536 0.00679781)
(4.01945 0.0689581 0.0069914)
(4.01996 0.068424 0.0071755)
(4.02046 0.0679471 0.00735142)
(4.02094 0.0675203 0.00747603)
(4.02142 0.0671355 0.00757331)
(4.02188 0.0667855 0.00766877)
(4.02233 0.0664652 0.00775222)
(4.02278 0.0661706 0.00783051)
(4.02322 0.0658996 0.00791583)
(4.02366 0.0656491 0.00800297)
(4.02409 0.0654141 0.00808525)
(4.02453 0.0651927 0.00815205)
(4.02495 0.0649838 0.00821446)
(4.02538 0.0647847 0.0083002)
(4.02581 0.0645946 0.00839475)
(4.02624 0.0644131 0.00848432)
(4.02667 0.0642368 0.00858424)
(4.0271 0.0640656 0.00868808)
(4.02753 0.063898 0.0087769)
(4.02796 0.0637325 0.00884525)
(4.0284 0.0635719 0.00891842)
(4.02883 0.0634132 0.00901089)
(4.02927 0.063256 0.00910633)
(4.02972 0.0631007 0.00917387)
(4.03016 0.0629437 0.00923094)
(4.03061 0.0627908 0.00931878)
(4.03106 0.0626391 0.00938006)
(4.03152 0.0624876 0.00945592)
(4.03198 0.0623372 0.00953431)
(4.03244 0.0621846 0.00955839)
(4.0329 0.0620316 0.00956673)
(4.03336 0.0618786 0.00959778)
(4.03383 0.0617249 0.00967446)
(4.03431 0.0615585 0.00971341)
(4.03481 0.0613525 0.00972305)
(4.03539 0.0608403 0.00976445)
(3.98982 -0.0196951 0.000903028)
(3.98186 -0.0406978 0.00172596)
(3.98279 -0.0575767 0.00280255)
(3.98643 -0.0670518 0.00414723)
(3.99027 -0.071898 0.00535723)
(3.99396 -0.0744058 0.00647042)
(3.99738 -0.0755664 0.00735024)
(4.00052 -0.0759171 0.00794962)
(4.00335 -0.0758004 0.00826016)
(4.00593 -0.0754333 0.00846964)
(4.00827 -0.0749443 0.00863872)
(4.01041 -0.0744002 0.00868423)
(4.01236 -0.0738353 0.00859619)
(4.01416 -0.0732728 0.0084899)
(4.01581 -0.0727213 0.00843353)
(4.01734 -0.072187 0.0083421)
(4.01877 -0.071679 0.00819785)
(4.0201 -0.0711943 0.00809795)
(4.02135 -0.0707259 0.00806175)
(4.02253 -0.0702758 0.00802951)
(4.02365 -0.0698495 0.00797522)
(4.02472 -0.0694479 0.00796995)
(4.02575 -0.0690643 0.00802918)
(4.02674 -0.0686957 0.0080499)
(4.0277 -0.0683459 0.00803672)
(4.02863 -0.0680135 0.00806385)
(4.02953 -0.0676938 0.00808683)
(4.03042 -0.0673866 0.00805551)
(4.0313 -0.0670924 0.00800611)
(4.03216 -0.0668066 0.00795624)
(4.033 -0.0665278 0.00789429)
(4.03384 -0.0662563 0.00782951)
(4.03468 -0.06599 0.00775918)
(4.03551 -0.065728 0.00767577)
(4.03633 -0.0654712 0.00759134)
(4.03715 -0.0652194 0.00749401)
(4.03798 -0.0649716 0.00738546)
(4.0388 -0.0647279 0.00730192)
(4.03962 -0.0644865 0.00722002)
(4.04045 -0.0642473 0.00712051)
(4.04128 -0.0640121 0.0070388)
(4.04212 -0.0637793 0.00696054)
(4.04296 -0.0635496 0.00687331)
(4.0438 -0.0633249 0.00678512)
(4.04465 -0.0631021 0.00669149)
(4.04551 -0.0628825 0.00662564)
(4.04637 -0.0626658 0.00657184)
(4.04724 -0.0624517 0.00649612)
(4.04812 -0.0622417 0.0064406)
(4.049 -0.0620314 0.00639658)
(4.04989 -0.061826 0.00633873)
(4.05078 -0.0616223 0.00630441)
(4.05168 -0.0614196 0.00627134)
(4.05259 -0.0612247 0.00622842)
(4.05351 -0.0610334 0.00618683)
(4.05443 -0.0608443 0.00616811)
(4.05535 -0.0606593 0.00618654)
(4.05628 -0.0604924 0.0061925)
(4.05718 -0.0603693 0.00618052)
(4.05805 -0.0604275 0.00620759)
(3.99818 -0.00163556 0.000341594)
(3.99616 0.00888471 1.97254e-05)
(3.99914 0.020165 -0.000283158)
(4.00302 0.0301752 -0.000182785)
(4.00601 0.0385106 0.000341188)
(4.00838 0.0451339 0.000646086)
(4.01041 0.0503815 0.000964747)
(4.0122 0.0546034 0.00129583)
(4.01381 0.0580268 0.00140911)
(4.01528 0.0608094 0.00151019)
(4.01665 0.0630796 0.00161809)
(4.01794 0.0649272 0.00161285)
(4.01916 0.0664202 0.00150778)
(4.02032 0.0676247 0.00139877)
(4.02143 0.0685904 0.00131679)
(4.0225 0.0693467 0.00122205)
(4.02352 0.0699217 0.00115413)
(4.02451 0.0703521 0.00114227)
(4.02548 0.0706669 0.00113988)
(4.02641 0.0708786 0.00113437)
(4.02732 0.0709985 0.00115974)
(4.0282 0.0710445 0.00128423)
(4.02908 0.0710319 0.00148474)
(4.02994 0.0709687 0.00166013)
(4.03078 0.0708613 0.00184668)
(4.03162 0.07072 0.00210635)
(4.03245 0.0705521 0.00236956)
(4.03327 0.0703597 0.00259708)
(4.03409 0.0701471 0.0028276)
(4.0349 0.0699208 0.00305505)
(4.03571 0.0696839 0.00326149)
(4.03652 0.0694377 0.00346328)
(4.03733 0.0691851 0.00364899)
(4.03814 0.0689288 0.00380385)
(4.03895 0.0686693 0.00394711)
(4.03976 0.0684067 0.00406823)
(4.04057 0.0681422 0.00416638)
(4.04139 0.0678778 0.00427535)
(4.04222 0.0676153 0.00436029)
(4.04304 0.067354 0.00440773)
(4.04388 0.0670938 0.00446487)
(4.04472 0.0668369 0.00450248)
(4.04556 0.0665822 0.00451768)
(4.04642 0.0663286 0.00453641)
(4.04727 0.0660774 0.00453828)
(4.04814 0.0658291 0.00456112)
(4.04901 0.0655845 0.0045853)
(4.04989 0.065343 0.00458106)
(4.05078 0.0651053 0.00458888)
(4.05168 0.0648721 0.00458297)
(4.05258 0.0646382 0.00459077)
(4.05349 0.0644093 0.00460343)
(4.05441 0.0641845 0.00460129)
(4.05533 0.0639585 0.00463311)
(4.05626 0.0637351 0.00466914)
(4.05719 0.0635149 0.00471299)
(4.05813 0.0632973 0.00477899)
(4.05907 0.0630737 0.00484999)
(4.05997 0.0628351 0.00488702)
(4.06105 0.0625484 0.00495387)
(3.99795 -0.00102189 0.000397696)
(3.99509 -0.00120605 0.000118683)
(3.99586 -0.00451586 -9.48117e-05)
(3.99833 -0.0103412 3.92773e-05)
(4.0008 -0.0172937 0.000655408)
(4.00322 -0.0245361 0.00120474)
(4.00566 -0.0314759 0.0019007)
(4.00803 -0.0378036 0.00259064)
(4.01026 -0.0434147 0.00303374)
(4.01235 -0.0482801 0.00338367)
(4.01429 -0.052437 0.00360061)
(4.0161 -0.0559631 0.00364965)
(4.01777 -0.0589319 0.00359501)
(4.01933 -0.0614028 0.0034385)
(4.02079 -0.0634441 0.00321299)
(4.02215 -0.0651241 0.00298491)
(4.02343 -0.0664954 0.00282931)
(4.02464 -0.0675983 0.0027053)
(4.02578 -0.0684707 0.002531)
(4.02687 -0.069152 0.00235776)
(4.02792 -0.0696723 0.00224883)
(4.02892 -0.0700514 0.00222772)
(4.02989 -0.0703103 0.00225573)
(4.03083 -0.0704721 0.00226559)
(4.03175 -0.0705521 0.00229821)
(4.03265 -0.0705599 0.00238517)
(4.03353 -0.070509 0.00246319)
(4.03439 -0.0704142 0.00252747)
(4.03524 -0.0702824 0.0026136)
(4.03609 -0.070117 0.00268926)
(4.03692 -0.0699243 0.0027391)
(4.03775 -0.0697111 0.0027964)
(4.03858 -0.0694817 0.00285058)
(4.0394 -0.0692394 0.00288128)
(4.04022 -0.0689866 0.00290894)
(4.04104 -0.0687264 0.00293031)
(4.04187 -0.0684617 0.00294786)
(4.04269 -0.0681922 0.00298098)
(4.04352 -0.0679189 0.00298677)
(4.04435 -0.0676453 0.00296674)
(4.04519 -0.0673716 0.0029651)
(4.04603 -0.0670973 0.00293752)
(4.04688 -0.0668247 0.00289221)
(4.04773 -0.0665546 0.00286546)
(4.04859 -0.0662878 0.00283209)
(4.04946 -0.0660236 0.00282229)
(4.05033 -0.0657607 0.00280585)
(4.05121 -0.0655008 0.00276235)
(4.0521 -0.0652435 0.00272217)
(4.053 -0.0649889 0.0026611)
(4.0539 -0.0647398 0.00264636)
(4.05481 -0.0644923 0.00261801)
(4.05573 -0.0642474 0.00256508)
(4.05665 -0.0640068 0.00256897)
(4.05758 -0.0637693 0.00257729)
(4.05851 -0.0635351 0.00259168)
(4.05945 -0.063302 0.00260928)
(4.06038 -0.0630747 0.00263856)
(4.06127 -0.0628588 0.00262961)
(4.06224 -0.0626717 0.00260841)
(3.99795 0.00102158 0.000346304)
(3.99509 0.00119219 3.13932e-05)
(3.99586 0.00444582 -0.000123499)
(3.99833 0.0102228 -3.96641e-05)
(4.00081 0.0171641 0.000259332)
(4.00324 0.0243633 0.000758702)
(4.00568 0.0312878 0.00120102)
(4.00805 0.0376153 0.00152077)
(4.01029 0.0432106 0.00176079)
(4.01237 0.0480851 0.0018402)
(4.01431 0.0522726 0.00171548)
(4.01611 0.0558243 0.00152196)
(4.01778 0.0588124 0.00131378)
(4.01934 0.0613104 0.000982114)
(4.02079 0.0633798 0.00058783)
(4.02214 0.0650811 0.000241442)
(4.02341 0.0664711 -1.42333e-06)
(4.02462 0.0675939 -0.00019637)
(4.02576 0.0684862 -0.000415741)
(4.02685 0.0691824 -0.000579877)
(4.02789 0.0697159 -0.000642173)
(4.0289 0.0701161 -0.000632824)
(4.02987 0.070402 -0.000583071)
(4.03081 0.0705866 -0.000514104)
(4.03172 0.0706874 -0.000402129)
(4.03262 0.0707217 -0.000257036)
(4.0335 0.0706972 -0.000119067)
(4.03436 0.0706199 4.44798e-05)
(4.03521 0.0705004 0.000250891)
(4.03606 0.0703483 0.000438419)
(4.03689 0.0701683 0.000596121)
(4.03772 0.0699649 0.00076767)
(4.03855 0.0697424 0.000941598)
(4.03937 0.0695043 0.00109323)
(4.04019 0.0692543 0.00123767)
(4.04101 0.0689941 0.00137842)
(4.04184 0.0687255 0.00152241)
(4.04266 0.0684529 0.00166658)
(4.04349 0.0681773 0.00176773)
(4.04432 0.0678978 0.00184713)
(4.04516 0.0676177 0.00193476)
(4.046 0.0673377 0.00198173)
(4.04685 0.0670579 0.00200635)
(4.0477 0.06678 0.00204034)
(4.04856 0.066503 0.002066)
(4.04942 0.0662289 0.0021051)
(4.0503 0.0659589 0.00211475)
(4.05118 0.0656913 0.00209012)
(4.05207 0.0654256 0.00206413)
(4.05296 0.0651628 0.00201002)
(4.05386 0.0649048 0.00199836)
(4.05477 0.0646499 0.00195941)
(4.05569 0.0643961 0.00189266)
(4.05661 0.0641465 0.00186984)
(4.05754 0.0638997 0.00184539)
(4.05848 0.0636553 0.00182662)
(4.05941 0.0634158 0.00178912)
(4.06035 0.063185 0.00176056)
(4.06124 0.0629722 0.00168582)
(4.06223 0.0628037 0.00155649)
(3.99817 0.00163936 0.000173047)
(3.99614 -0.00884135 -0.000226127)
(3.9991 -0.0200889 -0.000136089)
(4.003 -0.0300831 0.000200673)
(4.00598 -0.0384231 0.000438617)
(4.00834 -0.0450272 0.000694814)
(4.01038 -0.050266 0.000673101)
(4.01217 -0.0545047 0.000570022)
(4.01377 -0.0579622 0.000580505)
(4.01526 -0.0607887 0.000517271)
(4.01664 -0.0631026 0.000356085)
(4.01794 -0.0649928 0.00023779)
(4.01916 -0.0665259 0.000167759)
(4.02033 -0.0677662 4.35138e-05)
(4.02145 -0.0687634 -5.79114e-05)
(4.02251 -0.0695462 -0.000108938)
(4.02354 -0.070142 -0.000118683)
(4.02453 -0.0705849 -0.000107127)
(4.0255 -0.0709041 -0.000111531)
(4.02643 -0.0711156 -8.1508e-05)
(4.02734 -0.0712317 -1.73816e-05)
(4.02823 -0.071267 3.27824e-05)
(4.02911 -0.0712363 6.66187e-05)
(4.02997 -0.0711535 0.000103873)
(4.03082 -0.0710264 0.000155403)
(4.03165 -0.0708607 0.000189313)
(4.03248 -0.0706661 0.000200799)
(4.0333 -0.0704508 0.000253511)
(4.03412 -0.0702175 0.000346684)
(4.03493 -0.0699704 0.00041028)
(4.03574 -0.0697143 0.000448783)
(4.03655 -0.069451 0.000509372)
(4.03735 -0.0691829 0.000582251)
(4.03816 -0.0689128 0.000649076)
(4.03897 -0.0686412 0.000718594)
(4.03978 -0.0683699 0.000800649)
(4.04059 -0.0681007 0.000908794)
(4.04141 -0.0678318 0.00101843)
(4.04223 -0.0675656 0.00109703)
(4.04306 -0.067304 0.00118349)
(4.04389 -0.0670444 0.0012854)
(4.04473 -0.0667889 0.00136338)
(4.04557 -0.0665375 0.00143853)
(4.04642 -0.0662885 0.00152632)
(4.04728 -0.0660441 0.00162571)
(4.04814 -0.065802 0.00174542)
(4.04902 -0.0655624 0.00183515)
(4.0499 -0.0653271 0.00190807)
(4.05079 -0.0650967 0.00200866)
(4.05168 -0.06487 0.00209661)
(4.05258 -0.0646418 0.00220845)
(4.05349 -0.0644171 0.00230975)
(4.05441 -0.0641959 0.00240933)
(4.05533 -0.0639731 0.00253953)
(4.05626 -0.0637507 0.00267174)
(4.0572 -0.0635299 0.00282489)
(4.05814 -0.0633087 0.00297036)
(4.05908 -0.0630781 0.00312367)
(4.05999 -0.0628269 0.00323644)
(4.06104 -0.0625124 0.00326034)
(3.98984 0.019678 0.000620623)
(3.98188 0.0406564 0.000508311)
(3.9828 0.0575368 0.000946828)
(3.98644 0.0669944 0.00184112)
(3.99028 0.0717953 0.00252822)
(3.99397 0.0743064 0.00273776)
(3.99739 0.0754671 0.00246686)
(4.0005 0.0758077 0.0020088)
(4.00333 0.0757093 0.00147544)
(4.0059 0.0753839 0.000827444)
(4.00824 0.0749347 0.000179504)
(4.01037 0.0744343 -0.00038893)
(4.01232 0.0739219 -0.000877961)
(4.01411 0.0734054 -0.00126314)
(4.01576 0.0728937 -0.00145337)
(4.01729 0.0724003 -0.0015477)
(4.01872 0.0719288 -0.00161485)
(4.02005 0.0714763 -0.00163555)
(4.0213 0.0710375 -0.00161082)
(4.02248 0.0706159 -0.00154377)
(4.02361 0.0702132 -0.00147939)
(4.02468 0.0698246 -0.00144944)
(4.02571 0.0694496 -0.00144424)
(4.0267 0.0690872 -0.00143383)
(4.02766 0.0687356 -0.00141137)
(4.02859 0.0683949 -0.00141793)
(4.0295 0.0680632 -0.00143897)
(4.03038 0.0677406 -0.00140619)
(4.03125 0.0674277 -0.00133685)
(4.03211 0.0671211 -0.00128882)
(4.03296 0.0668194 -0.00124488)
(4.03379 0.0665252 -0.00117523)
(4.03463 0.0662383 -0.00109178)
(4.03545 0.0659563 -0.00100074)
(4.03628 0.0656802 -0.00090521)
(4.0371 0.0654095 -0.000793932)
(4.03792 0.0651429 -0.000648616)
(4.03875 0.0648822 -0.000513844)
(4.03957 0.0646243 -0.0004041)
(4.0404 0.0643688 -0.000273797)
(4.04124 0.0641191 -0.000144871)
(4.04207 0.0638717 -3.4632e-05)
(4.04292 0.0636275 7.14037e-05)
(4.04377 0.0633875 0.000172659)
(4.04462 0.0631494 0.000286504)
(4.04548 0.0629174 0.00039413)
(4.04635 0.0626882 0.000456911)
(4.04723 0.0624612 0.000500674)
(4.04811 0.0622361 0.000573479)
(4.049 0.0620099 0.000634338)
(4.0499 0.0617885 0.00066977)
(4.0508 0.0615677 0.000690794)
(4.05171 0.0613471 0.000713209)
(4.05263 0.061131 0.000725631)
(4.05355 0.0609183 0.00071322)
(4.05448 0.0607082 0.000715578)
(4.05542 0.0605028 0.000712156)
(4.05636 0.0603182 0.000676923)
(4.05728 0.060183 0.000595207)
(4.05817 0.0602328 0.000428696)
(4.00713 -0.103964 -0.000319229)
(4.00326 -0.133779 3.32965e-05)
(4.0019 -0.134305 0.00071239)
(4.00121 -0.129493 0.00124649)
(4.0016 -0.12327 0.00130065)
(4.00262 -0.116608 0.000867958)
(4.00384 -0.110274 0.000399247)
(4.00513 -0.104579 0.000171211)
(4.00642 -0.099535 -2.81285e-05)
(4.00767 -0.0950954 -0.000304323)
(4.00886 -0.0912219 -0.000466814)
(4.00998 -0.0878467 -0.000560159)
(4.01102 -0.084902 -0.000662927)
(4.01199 -0.0823354 -0.000699351)
(4.0129 -0.0800944 -0.000600181)
(4.01374 -0.0781336 -0.000495527)
(4.01453 -0.0764169 -0.00043106)
(4.01528 -0.0749098 -0.000373286)
(4.01598 -0.0735871 -0.000279171)
(4.01664 -0.0724223 -0.000166899)
(4.01727 -0.0713941 -7.91941e-05)
(4.01786 -0.0704885 -1.35752e-06)
(4.01844 -0.0696865 6.11713e-05)
(4.01898 -0.0689726 0.00012961)
(4.01951 -0.0683366 0.000225194)
(4.02002 -0.0677676 0.000303098)
(4.02051 -0.0672554 0.000372902)
(4.02099 -0.0667905 0.000486282)
(4.02146 -0.0663657 0.000620107)
(4.02192 -0.0659788 0.000746855)
(4.02237 -0.0656253 0.000889402)
(4.02281 -0.0652971 0.00104543)
(4.02324 -0.0649909 0.00120435)
(4.02367 -0.0647055 0.00137798)
(4.02409 -0.0644369 0.0015499)
(4.02452 -0.0641831 0.00173472)
(4.02494 -0.0639429 0.0019594)
(4.02535 -0.0637136 0.00216719)
(4.02577 -0.0634964 0.0023693)
(4.02619 -0.0632893 0.00260888)
(4.02661 -0.0630883 0.00283503)
(4.02703 -0.0628957 0.00306222)
(4.02745 -0.0627095 0.00329427)
(4.02787 -0.0625288 0.00352696)
(4.0283 -0.0623545 0.00379288)
(4.02873 -0.0621814 0.00403343)
(4.02916 -0.0620137 0.0042469)
(4.02959 -0.0618505 0.00445872)
(4.03002 -0.0616883 0.00470106)
(4.03046 -0.0615297 0.00496337)
(4.0309 -0.0613712 0.00519322)
(4.03134 -0.0612142 0.00542258)
(4.03178 -0.0610585 0.00566964)
(4.03223 -0.0609028 0.00590048)
(4.03268 -0.0607475 0.00610899)
(4.03314 -0.0605919 0.00634291)
(4.03359 -0.060434 0.00658958)
(4.03407 -0.0602621 0.00679104)
(4.03457 -0.0600473 0.00695757)
(4.03517 -0.0595175 0.00705767)
(4.00448 0.295173 0.000827102)
(4.02894 0.228072 0.00306716)
(4.0322 0.190752 0.0045592)
(4.02772 0.165084 0.00484762)
(4.02218 0.146266 0.00408209)
(4.01634 0.132015 0.00260518)
(4.01026 0.120791 0.00115884)
(4.00415 0.111673 0.000242122)
(3.99811 0.104131 -0.000426123)
(3.99216 0.0978203 -0.00108197)
(3.98631 0.0924844 -0.00141577)
(3.98056 0.0879433 -0.0015085)
(3.9749 0.0840668 -0.00156193)
(3.96933 0.08075 -0.00155539)
(3.96385 0.0779082 -0.00146674)
(3.95845 0.0754693 -0.00140513)
(3.95314 0.073372 -0.00137802)
(3.9479 0.0715677 -0.00137687)
(3.94274 0.0700122 -0.00133848)
(3.93765 0.0686692 -0.00128006)
(3.93263 0.0675069 -0.00122942)
(3.92769 0.0664969 -0.00113858)
(3.92281 0.0656185 -0.00104331)
(3.918 0.0648532 -0.000937087)
(3.91325 0.0641832 -0.000783983)
(3.90856 0.063595 -0.00063583)
(3.90394 0.0630774 -0.000497683)
(3.89937 0.062621 -0.000336989)
(3.89486 0.0622167 -0.000178906)
(3.89041 0.0618554 -2.50029e-05)
(3.88601 0.0615307 0.000147501)
(3.88166 0.0612387 0.000307119)
(3.87736 0.0609746 0.000446044)
(3.87311 0.0607334 0.000590355)
(3.86891 0.0605122 0.000712222)
(3.86476 0.0603079 0.000830412)
(3.86065 0.0601173 0.000978745)
(3.85659 0.0599387 0.00109173)
(3.85256 0.0597691 0.00120252)
(3.84859 0.0596072 0.00134791)
(3.84465 0.0594531 0.00145328)
(3.84075 0.0593041 0.0015596)
(3.8369 0.0591599 0.00166103)
(3.83308 0.0590195 0.00175684)
(3.82929 0.0588815 0.00188743)
(3.82555 0.0587477 0.00195743)
(3.82184 0.0586153 0.00200551)
(3.81817 0.0584844 0.00205036)
(3.81452 0.0583557 0.00210227)
(3.81092 0.0582263 0.00218807)
(3.80734 0.0580972 0.00223376)
(3.80379 0.0579681 0.00227159)
(3.80028 0.0578388 0.0023201)
(3.79679 0.057709 0.00234446)
(3.79333 0.0575787 0.00234285)
(3.7899 0.0574487 0.00235527)
(3.7865 0.0573195 0.0023763)
(3.78315 0.0571965 0.00234047)
(3.77993 0.057094 0.00226152)
(3.77647 0.0572103 0.00211902)
(4.00452 -0.295149 -0.000181848)
(4.02903 -0.228196 0.000880654)
(4.03222 -0.191027 0.00329583)
(4.02765 -0.165404 0.00434312)
(4.02206 -0.146547 0.00378359)
(4.01624 -0.132204 0.0030221)
(4.0102 -0.120902 0.00260454)
(4.00411 -0.111734 0.00205925)
(3.99809 -0.10416 0.00145545)
(3.99216 -0.0978405 0.00130551)
(3.98631 -0.0925199 0.00132065)
(3.98056 -0.0880088 0.00122309)
(3.9749 -0.0841751 0.00117746)
(3.96934 -0.0809076 0.00119338)
(3.96386 -0.0781179 0.0013096)
(3.95846 -0.0757362 0.00149899)
(3.95314 -0.0736976 0.00159189)
(3.9479 -0.0719478 0.00161503)
(3.94273 -0.0704453 0.0016474)
(3.93764 -0.0691554 0.00165724)
(3.93262 -0.0680453 0.00154647)
(3.92767 -0.0670856 0.00130898)
(3.9228 -0.0662565 0.00105799)
(3.91798 -0.0655412 0.000779038)
(3.91324 -0.0649209 0.000404819)
(3.90855 -0.0643807 -2.06023e-06)
(3.90393 -0.0639109 -0.000400783)
(3.89937 -0.0635015 -0.000822427)
(3.89486 -0.0631424 -0.00125346)
(3.89041 -0.062825 -0.00166921)
(3.88601 -0.0625421 -0.00208251)
(3.88167 -0.0622882 -0.00248598)
(3.87737 -0.0620592 -0.00285371)
(3.87313 -0.0618513 -0.00319165)
(3.86893 -0.0616599 -0.0035251)
(3.86478 -0.061482 -0.00386246)
(3.86067 -0.0613161 -0.00418079)
(3.85661 -0.0611595 -0.00446195)
(3.85259 -0.0610109 -0.0047176)
(3.84862 -0.0608693 -0.00495261)
(3.84468 -0.0607326 -0.00516853)
(3.84078 -0.0605999 -0.00537043)
(3.83693 -0.06047 -0.00558081)
(3.83311 -0.0603416 -0.00581189)
(3.82933 -0.0602162 -0.00600805)
(3.82559 -0.060092 -0.00617624)
(3.82188 -0.0599684 -0.00633741)
(3.8182 -0.0598453 -0.0065161)
(3.81456 -0.0597205 -0.00672822)
(3.81096 -0.0595972 -0.00687773)
(3.80738 -0.0594746 -0.00703378)
(3.80384 -0.0593511 -0.00717741)
(3.80032 -0.0592275 -0.00730889)
(3.79683 -0.0591025 -0.00750327)
(3.79337 -0.0589764 -0.00771199)
(3.78995 -0.0588496 -0.00789623)
(3.78655 -0.0587246 -0.00801374)
(3.78319 -0.0586049 -0.00816901)
(3.77995 -0.0585031 -0.00835332)
(3.77646 -0.0586227 -0.00848832)
(4.00712 0.103972 0.00168435)
(4.00327 0.133606 0.00291915)
(4.00191 0.133994 0.00432005)
(4.00117 0.129218 0.00516422)
(4.00153 0.123148 0.00524495)
(4.00255 0.116636 0.00536566)
(4.00377 0.110387 0.00552871)
(4.00504 0.104742 0.00546213)
(4.00632 0.099741 0.00529914)
(4.00757 0.0953286 0.00533986)
(4.00875 0.0914683 0.00546651)
(4.00986 0.088109 0.00553561)
(4.0109 0.0851792 0.00560885)
(4.01188 0.0826281 0.00573269)
(4.01279 0.0804057 0.00596116)
(4.01363 0.0784643 0.00622812)
(4.01443 0.0767741 0.00643365)
(4.01517 0.0753051 0.00665404)
(4.01588 0.0740238 0.00694749)
(4.01654 0.0729036 0.00725283)
(4.01717 0.0719267 0.00749103)
(4.01777 0.0710787 0.00769131)
(4.01834 0.0703371 0.00791961)
(4.01889 0.0696825 0.00811292)
(4.01942 0.0691068 0.00823269)
(4.01993 0.0686001 0.00834693)
(4.02042 0.0681478 0.00845674)
(4.0209 0.0677408 0.00851889)
(4.02137 0.0673725 0.00855715)
(4.02183 0.0670344 0.00859679)
(4.02228 0.0667224 0.00862741)
(4.02272 0.066433 0.00865571)
(4.02315 0.0661614 0.0086937)
(4.02358 0.0659048 0.008736)
(4.02401 0.065663 0.0087758)
(4.02443 0.0654333 0.00880236)
(4.02485 0.0652128 0.00882665)
(4.02527 0.0650012 0.00887623)
(4.02569 0.0647964 0.00893647)
(4.02611 0.0645966 0.00899349)
(4.02653 0.064403 0.0090625)
(4.02695 0.0642142 0.00913696)
(4.02737 0.0640299 0.00919786)
(4.0278 0.0638507 0.00923968)
(4.02823 0.0636728 0.00928764)
(4.02866 0.063498 0.00935614)
(4.0291 0.0633264 0.00942874)
(4.02953 0.0631568 0.00947455)
(4.02998 0.0629922 0.00951089)
(4.03042 0.0628266 0.00957895)
(4.03087 0.0626622 0.00962139)
(4.03132 0.0625001 0.00967926)
(4.03177 0.0623387 0.00974045)
(4.03223 0.0621813 0.0097481)
(4.03269 0.0620254 0.00974073)
(4.03315 0.0618694 0.00975674)
(4.03362 0.0617098 0.00981899)
(4.03409 0.0615403 0.00984412)
(4.03459 0.0613323 0.00984051)
(4.03516 0.0608174 0.00986909)
(3.98982 -0.0197285 9.80532e-05)
(3.98186 -0.0408238 0.000181315)
(3.98282 -0.0578231 0.000774303)
(3.98646 -0.0673163 0.00182222)
(3.99029 -0.0720692 0.00286685)
(3.99395 -0.0745255 0.00390739)
(3.99736 -0.0756498 0.00477842)
(4.00046 -0.0759455 0.00541152)
(4.00328 -0.0757957 0.005783)
(4.00585 -0.0754251 0.00607075)
(4.00819 -0.0749431 0.00632872)
(4.01032 -0.0744126 0.00646854)
(4.01228 -0.0738725 0.00647649)
(4.01408 -0.0733392 0.00646572)
(4.01573 -0.0728239 0.00650321)
(4.01727 -0.0723291 0.00650291)
(4.01869 -0.0718477 0.00644627)
(4.02003 -0.0713829 0.00643031)
(4.02129 -0.0709405 0.00647443)
(4.02247 -0.0705164 0.00651883)
(4.0236 -0.0701029 0.00653738)
(4.02467 -0.0696972 0.00660136)
(4.0257 -0.0693041 0.00672653)
(4.02669 -0.0689253 0.00680982)
(4.02765 -0.0685558 0.00685588)
(4.02858 -0.0681956 0.00693913)
(4.02949 -0.0678486 0.00701525)
(4.03037 -0.067514 0.00703408)
(4.03125 -0.0671891 0.007032)
(4.03211 -0.0668721 0.00702681)
(4.03295 -0.0665635 0.00700704)
(4.03379 -0.0662624 0.0069821)
(4.03463 -0.0659698 0.0069494)
(4.03545 -0.0656859 0.00690151)
(4.03628 -0.0654087 0.00685064)
(4.0371 -0.0651377 0.006785)
(4.03792 -0.0648735 0.00670641)
(4.03874 -0.0646154 0.00665123)
(4.03957 -0.0643643 0.00659621)
(4.0404 -0.0641201 0.00652216)
(4.04123 -0.0638806 0.00646462)
(4.04206 -0.0636468 0.00640933)
(4.0429 -0.0634177 0.00634392)
(4.04375 -0.0631909 0.00627649)
(4.0446 -0.0629693 0.00620262)
(4.04545 -0.0627511 0.00615562)
(4.04632 -0.0625365 0.00611982)
(4.04718 -0.062325 0.00606131)
(4.04806 -0.062115 0.00602225)
(4.04894 -0.0619106 0.005994)
(4.04983 -0.0617065 0.00595126)
(4.05073 -0.0615056 0.00593145)
(4.05163 -0.0613083 0.00591231)
(4.05254 -0.0611079 0.0058828)
(4.05345 -0.0609087 0.00585412)
(4.05437 -0.0607137 0.00584785)
(4.0553 -0.0605258 0.00587832)
(4.05623 -0.0603509 0.00589592)
(4.05712 -0.0602203 0.00589519)
(4.05799 -0.0602707 0.00593303)
(3.99815 -0.00164554 0.000453196)
(3.99612 0.00880021 0.000374678)
(3.99912 0.0199863 0.000351667)
(4.00304 0.0299175 0.000693334)
(4.00603 0.0382414 0.001399)
(4.00838 0.0448536 0.00183125)
(4.01041 0.0501269 0.00223227)
(4.01219 0.0543929 0.00260996)
(4.01378 0.0578558 0.00274293)
(4.01525 0.0606725 0.00284371)
(4.01662 0.0629614 0.0029367)
(4.0179 0.0648209 0.00290645)
(4.01912 0.0663292 0.00276973)
(4.02028 0.0675387 0.00262478)
(4.0214 0.0684957 0.00250421)
(4.02246 0.0692491 0.00236955)
(4.02349 0.069837 0.00226128)
(4.02449 0.0702788 0.00220919)
(4.02545 0.070592 0.00216712)
(4.02639 0.0708031 0.00212285)
(4.0273 0.0709337 0.00211058)
(4.0282 0.0709941 0.00219857)
(4.02907 0.070993 0.00236364)
(4.02993 0.0709427 0.00250481)
(4.03078 0.0708535 0.00265841)
(4.03162 0.07073 0.00288626)
(4.03245 0.070577 0.00311878)
(4.03327 0.0704028 0.00331678)
(4.03408 0.0702115 0.00351891)
(4.0349 0.0700031 0.00371905)
(4.0357 0.0697809 0.00389922)
(4.03651 0.0695491 0.00407574)
(4.03732 0.0693093 0.00423711)
(4.03812 0.0690614 0.00436854)
(4.03893 0.0688078 0.00448923)
(4.03974 0.0685508 0.00458861)
(4.04055 0.0682916 0.00466586)
(4.04137 0.0680305 0.00475467)
(4.04219 0.0677672 0.00482021)
(4.04302 0.067504 0.00484901)
(4.04385 0.0672419 0.0048882)
(4.04469 0.0669797 0.00490855)
(4.04553 0.0667192 0.0049072)
(4.04638 0.0664621 0.00491002)
(4.04724 0.0662076 0.00489663)
(4.04811 0.0659555 0.00490482)
(4.04898 0.0657054 0.00491492)
(4.04986 0.065458 0.00489719)
(4.05075 0.0652129 0.00489206)
(4.05164 0.0649692 0.00487375)
(4.05255 0.0647323 0.00486964)
(4.05346 0.0644964 0.00487089)
(4.05437 0.0642623 0.00485782)
(4.0553 0.0640349 0.00487915)
(4.05623 0.0638102 0.0049051)
(4.05716 0.0635866 0.00493927)
(4.0581 0.0633616 0.00499595)
(4.05904 0.0631336 0.00505795)
(4.05994 0.0628883 0.00508641)
(4.06101 0.0625888 0.0051449)
(3.99792 -0.00102711 0.000396972)
(3.99504 -0.00122503 6.30333e-05)
(3.99583 -0.00453539 -0.000226686)
(3.99833 -0.0103784 -0.000171773)
(4.00082 -0.0173661 0.000373248)
(4.00324 -0.0245909 0.000866283)
(4.00568 -0.0315176 0.00152166)
(4.00803 -0.0378404 0.00218474)
(4.01025 -0.0434265 0.00261199)
(4.01232 -0.0482822 0.00295458)
(4.01425 -0.0524506 0.00317048)
(4.01605 -0.0559805 0.003223)
(4.01772 -0.0589427 0.00317501)
(4.01928 -0.0614205 0.00302725)
(4.02073 -0.0634783 0.00281183)
(4.02209 -0.0651671 0.00259468)
(4.02338 -0.0665387 0.00245054)
(4.02459 -0.0676437 0.00233824)
(4.02574 -0.068523 0.00217569)
(4.02683 -0.0692054 0.00201406)
(4.02788 -0.0697201 0.00191659)
(4.0289 -0.0700981 0.00190671)
(4.02987 -0.0703611 0.00194574)
(4.03081 -0.0705233 0.00196634)
(4.03173 -0.0706005 0.00200939)
(4.03263 -0.0706105 0.00210647)
(4.03351 -0.0705634 0.00219427)
(4.03437 -0.070465 0.00226799)
(4.03523 -0.0703252 0.00236321)
(4.03607 -0.0701543 0.00244761)
(4.0369 -0.0699575 0.00250583)
(4.03773 -0.0697382 0.00257115)
(4.03856 -0.0695003 0.00263301)
(4.03938 -0.0692465 0.00267107)
(4.0402 -0.0689807 0.00270578)
(4.04102 -0.068705 0.00273389)
(4.04184 -0.0684212 0.0027579)
(4.04267 -0.0681336 0.00279718)
(4.04349 -0.0678446 0.00280887)
(4.04433 -0.0675533 0.00279448)
(4.04516 -0.0672621 0.00279822)
(4.046 -0.0669731 0.00277577)
(4.04685 -0.0666858 0.00273536)
(4.0477 -0.0664003 0.00271329)
(4.04856 -0.0661169 0.00268442)
(4.04943 -0.0658372 0.00267892)
(4.0503 -0.0655627 0.00266661)
(4.05118 -0.0652921 0.00262708)
(4.05207 -0.065026 0.0025907)
(4.05297 -0.0647645 0.00253327)
(4.05387 -0.064505 0.00252205)
(4.05478 -0.0642512 0.00249709)
(4.0557 -0.0640021 0.00244743)
(4.05662 -0.0637559 0.00245449)
(4.05755 -0.0635136 0.00246588)
(4.05849 -0.0632748 0.00248325)
(4.05943 -0.0630425 0.00250375)
(4.06036 -0.0628157 0.00253583)
(4.06124 -0.0626021 0.00252964)
(4.06221 -0.0624285 0.00251095)
(3.99792 0.00100423 0.000345606)
(3.99504 0.00118129 -2.41223e-05)
(3.99583 0.0044887 -0.00025491)
(3.99833 0.0103007 -0.000249685)
(4.00082 0.0172062 -2.13825e-05)
(4.00325 0.0243781 0.000422098)
(4.00569 0.0312242 0.000824044)
(4.00805 0.037466 0.00111669)
(4.01027 0.0430187 0.00134017)
(4.01234 0.0478527 0.0014111)
(4.01427 0.0520078 0.00128384)
(4.01607 0.0555552 0.00109202)
(4.01773 0.0585588 0.000888579)
(4.01928 0.061078 0.000563648)
(4.02073 0.0631772 0.00017736)
(4.0221 0.064912 -0.000160219)
(4.02338 0.0663297 -0.000393357)
(4.02459 0.0674773 -0.000577942)
(4.02573 0.068397 -0.000786546)
(4.02683 0.0691231 -0.000939745)
(4.02788 0.0696812 -0.00099115)
(4.02889 0.070093 -0.000971105)
(4.02986 0.0703827 -0.000910958)
(4.03081 0.0705745 -0.000831961)
(4.03173 0.0706812 -0.000710353)
(4.03263 0.0707128 -0.000556066)
(4.0335 0.0706845 -0.000409343)
(4.03437 0.0706098 -0.000237484)