/*--------------------------------*- C++ -*----------------------------------*\
  =========                 |
  \\      /  F ield         | OpenFOAM: The Open Source CFD Toolbox
   \\    /   O peration     | Website:  https://openfoam.org
    \\  /    A nd           | Version:  8
     \\/     M anipulation  |
\*---------------------------------------------------------------------------*/
FoamFile
{
    version     2.0;
    format      ascii;
    class       volScalarField;
    location    "600";
    object      alphat;
}
// * * * * * * * * * * * * * * * * * * * * * * * * * * * * * * * * * * * * * //

dimensions      [1 -1 -1 0 0 0 0];

internalField   nonuniform List<scalar> 
8400
(
0.330978
0.329355
0.327721
0.326072
0.324408
0.322725
0.321022
0.319299
0.317556
0.315795
0.314019
0.312228
0.310425
0.308611
0.306787
0.304955
0.303116
0.30127
0.299418
0.29756
0.295696
0.293826
0.29195
0.290067
0.288176
0.286278
0.284371
0.282454
0.280528
0.27859
0.276641
0.27468
0.272707
0.270719
0.268718
0.266702
0.26467
0.262623
0.260561
0.258483
0.256391
0.254285
0.252167
0.250041
0.247911
0.245784
0.243673
0.241593
0.239566
0.237625
0.0866077
0.0866006
0.0865912
0.0865778
0.0865594
0.0865353
0.086505
0.0864684
0.0864255
0.0863763
0.0863209
0.0862595
0.0861922
0.0861187
0.086039
0.0859531
0.085861
0.0857622
0.0856569
0.0855449
0.0854259
0.0852996
0.0851659
0.0850243
0.0848747
0.0847169
0.0845505
0.0843752
0.0841908
0.0839972
0.0837941
0.0835814
0.083359
0.0831267
0.0828843
0.082632
0.0823696
0.0820974
0.0818155
0.0815239
0.0812231
0.0809137
0.0805964
0.0802719
0.0799416
0.0796069
0.0792699
0.0789333
0.0786003
0.0782756
0.0748518
0.0749024
0.0749477
0.0749872
0.0750203
0.0750465
0.0750653
0.0750767
0.0750806
0.0750774
0.0750671
0.0750498
0.0750256
0.0749946
0.0749566
0.0749118
0.0748602
0.0748018
0.0747364
0.0746638
0.074584
0.0744968
0.0744021
0.0742999
0.0741898
0.0740717
0.0739454
0.0738109
0.0736682
0.0735171
0.0733577
0.07319
0.0730139
0.0728295
0.0726369
0.0724363
0.0722278
0.0720118
0.0717887
0.0715586
0.071322
0.0710796
0.0708321
0.0705803
0.0703253
0.0700682
0.0698107
0.0695548
0.0693029
0.0690578
0.0662412
0.0662799
0.0663168
0.0663499
0.0663781
0.0664009
0.0664179
0.0664293
0.0664352
0.0664359
0.0664315
0.0664222
0.0664081
0.0663894
0.0663661
0.0663386
0.0663065
0.06627
0.0662292
0.0661839
0.0661341
0.0660798
0.0660208
0.0659571
0.0658887
0.0658155
0.0657376
0.065655
0.0655677
0.0654759
0.0653797
0.065279
0.0651739
0.0650646
0.0649514
0.0648345
0.0647142
0.0645909
0.0644648
0.0643361
0.0642055
0.0640733
0.0639403
0.0638072
0.0636748
0.0635439
0.0634157
0.0632918
0.0631733
0.0630619
0.0595414
0.0595762
0.05961
0.0596422
0.0596722
0.0596999
0.059725
0.0597479
0.0597685
0.0597869
0.0598034
0.0598179
0.0598305
0.0598413
0.0598503
0.0598578
0.0598634
0.0598673
0.0598695
0.0598699
0.0598684
0.0598652
0.0598601
0.0598531
0.0598442
0.0598333
0.0598207
0.0598063
0.0597902
0.0597725
0.0597533
0.0597325
0.0597102
0.0596866
0.0596618
0.059636
0.0596097
0.0595828
0.0595552
0.0595274
0.0594996
0.059472
0.0594453
0.0594198
0.0593956
0.0593736
0.0593546
0.0593389
0.0593279
0.0593224
0.0561675
0.0561884
0.0562106
0.0562335
0.0562569
0.0562805
0.0563042
0.056328
0.0563518
0.0563756
0.0563994
0.056423
0.0564463
0.0564695
0.0564925
0.0565154
0.056538
0.0565602
0.0565822
0.0566037
0.0566249
0.0566456
0.0566658
0.0566856
0.0567048
0.0567234
0.0567415
0.0567594
0.0567769
0.0567941
0.0568108
0.0568272
0.0568432
0.0568588
0.0568742
0.0568897
0.0569053
0.0569207
0.0569362
0.0569521
0.0569682
0.0569853
0.0570034
0.0570224
0.0570432
0.0570657
0.0570901
0.0571178
0.0571483
0.0571831
0.0551823
0.0551624
0.0551466
0.0551349
0.0551273
0.0551232
0.0551221
0.0551239
0.0551279
0.0551338
0.0551411
0.0551496
0.0551593
0.0551699
0.0551814
0.0551938
0.0552065
0.0552196
0.0552331
0.055247
0.0552613
0.0552758
0.0552905
0.0553051
0.0553197
0.0553344
0.0553494
0.0553646
0.0553801
0.0553957
0.0554113
0.055427
0.0554427
0.0554583
0.0554743
0.0554907
0.055507
0.0555236
0.0555404
0.0555573
0.055575
0.0555937
0.0556128
0.055633
0.0556541
0.0556764
0.0557007
0.0557267
0.0557549
0.0557855
0.0557741
0.0556603
0.0555587
0.0554696
0.0553921
0.0553256
0.0552685
0.0552201
0.0551794
0.0551451
0.0551166
0.0550933
0.0550746
0.0550597
0.0550482
0.0550398
0.0550336
0.0550296
0.0550273
0.0550262
0.0550264
0.0550277
0.0550296
0.055032
0.055035
0.0550384
0.0550424
0.055047
0.0550517
0.0550567
0.0550617
0.0550665
0.055071
0.0550756
0.0550803
0.0550846
0.0550888
0.0550927
0.0550961
0.0550998
0.0551035
0.0551072
0.0551112
0.0551144
0.055118
0.0551206
0.0551239
0.0551258
0.0551282
0.0551294
0.0575631
0.0573159
0.0571036
0.0569114
0.0567351
0.056575
0.0564298
0.0562984
0.0561804
0.0560748
0.0559806
0.0558975
0.0558245
0.0557607
0.0557055
0.0556577
0.0556162
0.0555806
0.0555502
0.0555245
0.055503
0.0554854
0.0554713
0.0554602
0.0554518
0.0554463
0.0554432
0.0554422
0.0554428
0.0554451
0.0554487
0.0554529
0.055458
0.0554638
0.0554697
0.0554758
0.0554817
0.0554869
0.0554923
0.0554974
0.055502
0.0555066
0.0555096
0.0555113
0.0555111
0.0555097
0.0555057
0.0554995
0.055491
0.0554777
0.0597448
0.0594347
0.0592216
0.0590193
0.0588243
0.0586365
0.0584572
0.058284
0.0581177
0.0579576
0.0578048
0.0576603
0.0575226
0.0573921
0.0572707
0.0571559
0.0570457
0.0569414
0.0568426
0.0567484
0.0566608
0.05658
0.0565046
0.0564349
0.0563729
0.0563187
0.0562699
0.0562257
0.0561877
0.0561576
0.0561353
0.05612
0.0561109
0.0561075
0.0561089
0.0561135
0.0561199
0.0561294
0.0561425
0.0561588
0.0561792
0.0562009
0.0562213
0.0562447
0.0562602
0.05628
0.0562935
0.0563084
0.0563211
0.056336
0.0610284
0.0608012
0.0606409
0.060513
0.0604048
0.060294
0.060189
0.0600818
0.0599732
0.059838
0.0597167
0.0595905
0.0594752
0.0593745
0.0592833
0.0591811
0.0590742
0.0589696
0.0588577
0.0587281
0.058606
0.0585054
0.0583922
0.05826
0.0581478
0.0580628
0.0579718
0.0578584
0.0577394
0.0576413
0.0575757
0.0575259
0.0574776
0.0574494
0.0574407
0.0574214
0.0573805
0.0573228
0.0572898
0.057245
0.0572019
0.0572308
0.0572268
0.0572447
0.0572702
0.0572148
0.0572242
0.0571905
0.0571769
0.0572335
0.0611694
0.0610986
0.0610308
0.0609634
0.0608977
0.0608333
0.060771
0.0607096
0.0606486
0.0605883
0.0605284
0.0604671
0.0604048
0.0603413
0.0602766
0.0602126
0.0601502
0.060088
0.060026
0.0599654
0.0599064
0.0598473
0.059788
0.0597301
0.0596734
0.0596159
0.0595567
0.059497
0.0594388
0.0593824
0.0593267
0.0592713
0.0592173
0.059165
0.0591131
0.05906
0.0590064
0.0589536
0.0589018
0.0588531
0.0588071
0.0587628
0.0587207
0.0586754
0.0586301
0.0585869
0.0585459
0.0585018
0.058452
0.0583919
0.0611971
0.0611565
0.0611168
0.0610769
0.0610372
0.0609977
0.0609571
0.060918
0.0608781
0.0608381
0.060798
0.0607581
0.0607179
0.0606783
0.06064
0.0606019
0.0605633
0.0605238
0.0604837
0.0604434
0.060403
0.0603625
0.060322
0.0602816
0.0602411
0.0602009
0.0601608
0.0601209
0.0600811
0.0600414
0.0600018
0.0599627
0.0599242
0.059886
0.0598481
0.0598102
0.0597727
0.0597354
0.0596981
0.0596609
0.0596237
0.0595867
0.0595499
0.0595134
0.0594771
0.0594405
0.0594038
0.0593675
0.059331
0.0592924
0.061209
0.061181
0.0611531
0.061125
0.0610965
0.0610684
0.06104
0.0610117
0.0609826
0.0609537
0.0609251
0.0608962
0.0608674
0.0608383
0.060809
0.0607797
0.0607505
0.0607213
0.0606922
0.0606631
0.0606339
0.0606049
0.0605759
0.0605468
0.0605178
0.0604888
0.0604597
0.0604304
0.0604008
0.0603712
0.0603416
0.0603121
0.0602827
0.0602534
0.0602243
0.0601953
0.0601665
0.0601376
0.0601086
0.0600797
0.0600508
0.0600224
0.0599937
0.0599651
0.059937
0.059909
0.0598804
0.0598512
0.0598216
0.0597917
0.0612145
0.0611923
0.06117
0.061148
0.0611256
0.0611037
0.0610816
0.0610595
0.0610372
0.0610148
0.0609922
0.0609695
0.0609469
0.0609241
0.0609012
0.0608783
0.0608553
0.0608323
0.0608093
0.0607864
0.0607636
0.0607408
0.0607181
0.0606953
0.0606726
0.0606499
0.0606271
0.0606042
0.0605812
0.0605582
0.0605353
0.0605125
0.0604897
0.060467
0.0604443
0.0604217
0.0603992
0.0603766
0.0603538
0.0603311
0.0603082
0.0602855
0.0602629
0.0602403
0.0602172
0.0601944
0.0601719
0.0601489
0.0601254
0.0601015
0.0612192
0.061202
0.0611845
0.0611673
0.0611498
0.0611325
0.0611149
0.061097
0.0610788
0.0610606
0.0610427
0.0610248
0.0610067
0.0609885
0.0609702
0.0609518
0.0609334
0.0609149
0.0608964
0.0608779
0.0608595
0.060841
0.0608224
0.0608038
0.0607851
0.0607663
0.0607473
0.0607283
0.0607093
0.0606903
0.0606714
0.0606525
0.0606335
0.0606145
0.0605955
0.0605765
0.0605575
0.0605383
0.0605191
0.0604997
0.0604803
0.0604607
0.0604411
0.0604217
0.0604026
0.0603833
0.0603641
0.0603446
0.0603253
0.0603055
0.0612201
0.0612037
0.0611874
0.061171
0.0611547
0.0611383
0.0611219
0.0611053
0.0610888
0.0610722
0.0610555
0.0610388
0.0610223
0.0610058
0.0609892
0.0609726
0.0609558
0.060939
0.0609223
0.0609057
0.060889
0.0608724
0.0608557
0.060839
0.0608223
0.0608055
0.0607886
0.0607718
0.060755
0.0607384
0.0607219
0.0607054
0.0606889
0.0606724
0.060656
0.0606398
0.0606236
0.0606073
0.060591
0.0605746
0.0605583
0.0605423
0.0605262
0.0605102
0.0604944
0.0604786
0.060463
0.0604472
0.0604316
0.0604161
0.0612238
0.0612121
0.0612006
0.0611892
0.0611779
0.0611666
0.0611549
0.0611429
0.0611308
0.0611185
0.0611062
0.0610937
0.0610811
0.0610684
0.0610557
0.061043
0.0610306
0.0610183
0.0610064
0.0609946
0.0609827
0.0609708
0.0609587
0.0609465
0.060934
0.0609213
0.0609084
0.0608954
0.0608826
0.0608699
0.0608576
0.0608457
0.0608345
0.0608239
0.0608139
0.0608043
0.060795
0.0607858
0.0607766
0.0607675
0.0607584
0.0607496
0.0607414
0.0607337
0.0607268
0.0607205
0.0607152
0.0607105
0.0607071
0.0607051
0.0612973
0.0613567
0.0614147
0.0614714
0.0615265
0.0615803
0.0616327
0.0616836
0.0617331
0.0617811
0.0618278
0.0618731
0.0619167
0.0619586
0.0619979
0.0620251
0.0620489
0.0620817
0.0621269
0.0621745
0.0622168
0.0622511
0.0622798
0.062308
0.0623415
0.0623812
0.0624232
0.0624639
0.0625014
0.062536
0.0625683
0.0625989
0.0626282
0.0626571
0.0626862
0.0627163
0.062748
0.0627821
0.0628189
0.0628585
0.0629019
0.0629497
0.0630024
0.0630601
0.0631223
0.0631887
0.0632591
0.0633571
0.0636552
0.0640177
0.262898
0.262798
0.261799
0.260626
0.259433
0.258177
0.256842
0.255467
0.254104
0.252802
0.251604
0.250542
0.249642
0.248913
0.24834
0.247868
0.247436
0.247018
0.246583
0.246081
0.245469
0.244767
0.244016
0.243248
0.242482
0.241738
0.241048
0.240455
0.239998
0.239699
0.239563
0.239571
0.239672
0.239797
0.239882
0.239879
0.23977
0.239562
0.239282
0.238965
0.238638
0.238318
0.238002
0.23767
0.237274
0.236757
0.236061
0.235134
0.233968
0.232765
0.27115
0.267795
0.264587
0.261513
0.258557
0.2557
0.252925
0.250228
0.247603
0.245049
0.24256
0.240136
0.237774
0.235472
0.233229
0.231042
0.22891
0.22683
0.2248
0.222818
0.220884
0.218996
0.217152
0.215352
0.213595
0.211878
0.210203
0.208567
0.206971
0.205412
0.20389
0.202403
0.200949
0.199529
0.198141
0.196784
0.195459
0.194164
0.192899
0.191657
0.190437
0.189236
0.188053
0.186887
0.185733
0.184587
0.183442
0.182288
0.181107
0.17986
0.269198
0.26301
0.257112
0.251475
0.246089
0.240942
0.236028
0.23133
0.226834
0.222527
0.218395
0.21443
0.210621
0.206959
0.203436
0.200043
0.196773
0.193617
0.190571
0.187628
0.184784
0.182033
0.179372
0.176796
0.174302
0.171886
0.169544
0.167274
0.165073
0.162935
0.160859
0.158839
0.156874
0.154959
0.153094
0.151273
0.149495
0.147757
0.146055
0.144396
0.142779
0.141204
0.139669
0.138172
0.136712
0.135286
0.133891
0.132522
0.131176
0.129852
0.269191
0.262985
0.257048
0.251375
0.245948
0.240754
0.235778
0.231006
0.226426
0.222024
0.217791
0.213716
0.209792
0.20601
0.202361
0.19884
0.195437
0.192149
0.188967
0.185889
0.182908
0.180021
0.177224
0.174512
0.171882
0.16933
0.166855
0.164452
0.162119
0.159852
0.157649
0.155506
0.15342
0.15139
0.149413
0.147488
0.145613
0.143786
0.142005
0.140269
0.138578
0.136929
0.135323
0.133758
0.132232
0.130746
0.1293
0.127889
0.12651
0.125155
0.269191
0.263031
0.257148
0.251526
0.246146
0.240991
0.236047
0.231299
0.226736
0.222347
0.218122
0.214052
0.210128
0.206344
0.202691
0.199163
0.195753
0.192455
0.189264
0.186175
0.183183
0.180284
0.177474
0.174749
0.172106
0.169541
0.167052
0.164635
0.162288
0.160007
0.15779
0.155633
0.153535
0.151492
0.149503
0.147566
0.145678
0.143839
0.142045
0.140297
0.138593
0.136932
0.135314
0.133736
0.132197
0.130698
0.129237
0.127816
0.126432
0.125071
0.269191
0.263032
0.257147
0.251519
0.246129
0.240965
0.236011
0.231254
0.226685
0.222291
0.218062
0.21399
0.210067
0.206283
0.202632
0.199106
0.195699
0.192404
0.189218
0.186133
0.183146
0.180253
0.177448
0.174727
0.172089
0.169528
0.167044
0.164631
0.162289
0.160012
0.157799
0.155646
0.153551
0.151512
0.149527
0.147593
0.145708
0.143871
0.142079
0.140333
0.138631
0.136971
0.135353
0.133776
0.132239
0.130739
0.129275
0.127848
0.126461
0.125103
0.269191
0.263036
0.257158
0.251539
0.246161
0.241008
0.236066
0.231321
0.226763
0.222378
0.218159
0.214095
0.210178
0.2064
0.202753
0.19923
0.195825
0.192533
0.189348
0.186264
0.183277
0.180384
0.177578
0.174857
0.172217
0.169655
0.167169
0.164755
0.16241
0.160132
0.157917
0.155762
0.153664
0.151623
0.149635
0.147698
0.145809
0.143969
0.142174
0.140424
0.138718
0.137054
0.135431
0.133849
0.132307
0.130803
0.129334
0.127899
0.126501
0.125136
0.269192
0.263036
0.25716
0.251542
0.246164
0.24101
0.236066
0.231319
0.226757
0.22237
0.218147
0.21408
0.210159
0.206378
0.202729
0.199204
0.195797
0.192504
0.189317
0.186232
0.183245
0.18035
0.177544
0.174823
0.172183
0.169622
0.167137
0.164724
0.162381
0.160103
0.157889
0.155735
0.153639
0.151598
0.149611
0.147674
0.145787
0.143947
0.142152
0.140403
0.138697
0.137033
0.13541
0.133827
0.132282
0.130777
0.129307
0.127871
0.126469
0.1251
0.269192
0.263037
0.257162
0.251546
0.24617
0.241018
0.236076
0.231332
0.226773
0.222389
0.218169
0.214105
0.210188
0.20641
0.202763
0.199241
0.195837
0.192545
0.18936
0.186276
0.18329
0.180395
0.17759
0.174869
0.17223
0.16967
0.167185
0.164772
0.162429
0.160151
0.157936
0.155782
0.153685
0.151643
0.149654
0.147715
0.145826
0.143984
0.142187
0.140435
0.138727
0.13706
0.135433
0.133846
0.132297
0.130785
0.12931
0.12787
0.126462
0.125085
0.269192
0.263037
0.257163
0.251547
0.246172
0.24102
0.236079
0.231335
0.226775
0.22239
0.218169
0.214104
0.210186
0.206407
0.202759
0.199236
0.19583
0.192537
0.18935
0.186264
0.183276
0.180381
0.177574
0.174853
0.172213
0.169653
0.167168
0.164756
0.162412
0.160134
0.15792
0.155765
0.153667
0.151625
0.149636
0.147697
0.145807
0.143964
0.142167
0.140414
0.138704
0.137035
0.135407
0.133817
0.132266
0.130751
0.129272
0.127828
0.126417
0.125036
0.269192
0.263037
0.257163
0.251548
0.246173
0.241022
0.236081
0.231337
0.226778
0.222393
0.218173
0.214109
0.210192
0.206414
0.202767
0.199244
0.195839
0.192545
0.189358
0.186273
0.183284
0.180389
0.177582
0.174862
0.172223
0.169663
0.167179
0.164767
0.162423
0.160145
0.15793
0.155775
0.153678
0.151635
0.149644
0.147704
0.145813
0.143969
0.14217
0.140415
0.138703
0.137032
0.1354
0.133807
0.132252
0.130733
0.12925
0.127801
0.126384
0.124999
0.269192
0.263037
0.257163
0.251548
0.246174
0.241023
0.236082
0.231337
0.226778
0.222393
0.218173
0.214109
0.210192
0.206414
0.202767
0.199244
0.195838
0.192544
0.189356
0.18627
0.183282
0.180386
0.177579
0.174859
0.17222
0.16966
0.167176
0.164764
0.16242
0.160142
0.157927
0.155772
0.153673
0.15163
0.149639
0.147698
0.145805
0.14396
0.14216
0.140403
0.138689
0.137015
0.13538
0.133784
0.132225
0.130703
0.129215
0.127762
0.126341
0.124951
0.269192
0.263037
0.257163
0.251549
0.246174
0.241023
0.236081
0.231335
0.226775
0.222389
0.218168
0.214104
0.210186
0.206408
0.20276
0.199236
0.195829
0.192534
0.189345
0.186258
0.183269
0.180372
0.177566
0.174844
0.172205
0.169645
0.167161
0.164748
0.162404
0.160126
0.15791
0.155755
0.153657
0.151613
0.149621
0.14768
0.145787
0.14394
0.142139
0.140381
0.138665
0.136989
0.135352
0.133753
0.132191
0.130665
0.129175
0.127718
0.126293
0.124899
0.269192
0.263037
0.257163
0.251548
0.246173
0.241021
0.236079
0.231333
0.226773
0.222387
0.218168
0.214104
0.210188
0.206411
0.202764
0.199241
0.195835
0.19254
0.189353
0.186267
0.183278
0.180382
0.177576
0.174855
0.172216
0.169656
0.167171
0.164759
0.162414
0.160136
0.15792
0.155764
0.153665
0.151621
0.149628
0.147685
0.14579
0.143942
0.142138
0.140378
0.138659
0.13698
0.13534
0.133737
0.132172
0.130642
0.129147
0.127685
0.126256
0.124856
0.269192
0.263037
0.257163
0.251546
0.246169
0.241015
0.236069
0.23132
0.226756
0.222368
0.218145
0.214079
0.21016
0.206379
0.20273
0.199204
0.195795
0.192498
0.189309
0.186221
0.183231
0.180334
0.177527
0.174805
0.172166
0.169605
0.16712
0.164707
0.162362
0.160084
0.157868
0.155713
0.153614
0.15157
0.149577
0.147634
0.145739
0.143891
0.142087
0.140326
0.138606
0.136926
0.135285
0.133681
0.132114
0.130583
0.129086
0.127622
0.12619
0.124787
0.269192
0.263037
0.257161
0.251544
0.246167
0.241013
0.236069
0.231322
0.226761
0.222376
0.218157
0.214094
0.210178
0.206401
0.202753
0.199229
0.195822
0.192526
0.189338
0.186251
0.183261
0.180364
0.177557
0.174835
0.172194
0.169633
0.167146
0.164732
0.162386
0.160105
0.157888
0.155731
0.15363
0.151584
0.149589
0.147643
0.145746
0.143894
0.142087
0.140322
0.138599
0.136915
0.13527
0.133663
0.132092
0.130556
0.129054
0.127585
0.126147
0.124738
0.269192
0.263034
0.257152
0.251525
0.246136
0.24097
0.236013
0.231255
0.226683
0.222288
0.218061
0.21399
0.210068
0.206284
0.202632
0.199104
0.195694
0.192397
0.189206
0.186119
0.183129
0.180232
0.177425
0.174704
0.172065
0.169505
0.16702
0.164606
0.162262
0.159983
0.157768
0.155612
0.153513
0.151468
0.149474
0.14753
0.145634
0.143783
0.141977
0.140214
0.138491
0.136808
0.135164
0.133557
0.131987
0.130451
0.128949
0.127479
0.126039
0.124628
0.269192
0.263034
0.257153
0.251534
0.246153
0.240997
0.236049
0.231299
0.226734
0.222345
0.218121
0.214052
0.21013
0.206345
0.202691
0.19916
0.195746
0.192445
0.18925
0.186158
0.183163
0.180262
0.17745
0.174724
0.17208
0.169515
0.167025
0.164606
0.162257
0.159974
0.157753
0.155593
0.153489
0.15144
0.149442
0.147494
0.145594
0.14374
0.14193
0.140163
0.138438
0.136753
0.135107
0.133499
0.131927
0.130391
0.128889
0.12742
0.125983
0.124578
0.269192
0.262989
0.257055
0.251383
0.245956
0.24076
0.235781
0.231006
0.226424
0.222022
0.21779
0.213718
0.209794
0.206012
0.202361
0.198836
0.195429
0.192137
0.188952
0.185871
0.182889
0.180001
0.177203
0.174491
0.171862
0.169311
0.166836
0.164433
0.1621
0.159832
0.157628
0.155485
0.153399
0.151368
0.149389
0.14746
0.14558
0.143748
0.141961
0.140218
0.138519
0.136862
0.135247
0.133673
0.132141
0.130648
0.129197
0.127788
0.126424
0.125111
0.269201
0.263019
0.257125
0.25149
0.246103
0.240952
0.236034
0.231332
0.226834
0.222526
0.218396
0.214433
0.210626
0.206964
0.203439
0.200043
0.196769
0.193612
0.190565
0.187622
0.18478
0.182033
0.179377
0.176808
0.174322
0.171915
0.169583
0.167324
0.165135
0.163012
0.160954
0.158956
0.157017
0.155133
0.153303
0.151525
0.149797
0.148118
0.146489
0.144907
0.143375
0.141891
0.140457
0.139075
0.137746
0.136474
0.135264
0.134126
0.133077
0.13215
0.271142
0.267796
0.264594
0.261524
0.258569
0.255713
0.252938
0.25024
0.247615
0.24506
0.242572
0.240147
0.237784
0.235479
0.233231
0.231038
0.2289
0.226814
0.224779
0.222793
0.220856
0.218966
0.217121
0.21532
0.213561
0.211843
0.210164
0.208524
0.206922
0.205355
0.203823
0.202324
0.200856
0.199418
0.19801
0.19663
0.195277
0.19395
0.19265
0.191373
0.190121
0.188891
0.187682
0.186493
0.185323
0.18417
0.183032
0.181906
0.180789
0.179677
0.170213
0.0777881
0.0775504
0.0863976
0.0913548
0.0905361
0.0843492
0.074654
0.064066
0.055051
0.0486608
0.0448952
0.0438103
0.049622
0.0553574
0.0574799
0.057185
0.0566459
0.0585087
0.11942
0.168877
0.0770035
0.077311
0.086239
0.0912237
0.0903739
0.0840851
0.0742381
0.0635087
0.0544296
0.0480344
0.0442483
0.0432142
0.0493679
0.0552305
0.0574012
0.0571626
0.0567284
0.0587145
0.119528
0.167535
0.076267
0.0770781
0.0860742
0.0910866
0.090213
0.0838334
0.0738466
0.0629864
0.0538516
0.0474585
0.0436567
0.042436
0.0485953
0.0547612
0.0571748
0.0570554
0.0566814
0.0587578
0.120252
0.166204
0.0755726
0.0768518
0.0859056
0.0909467
0.0900551
0.0835936
0.0734765
0.0624949
0.0533121
0.0469303
0.0431408
0.0419095
0.0478837
0.0543001
0.056948
0.0569464
0.0566332
0.0588033
0.121016
0.164875
0.0749228
0.0766328
0.0857351
0.090805
0.0899002
0.0833644
0.0731245
0.0620271
0.0527993
0.0464287
0.0426437
0.0414573
0.0472089
0.0538454
0.0567203
0.0568353
0.0565835
0.0588505
0.121819
0.163547
0.0743157
0.0764217
0.0855645
0.0906629
0.0897487
0.0831447
0.072788
0.0615788
0.0523076
0.045948
0.0421566
0.0409941
0.0465536
0.0533955
0.0564908
0.0567217
0.0565318
0.058899
0.12266
0.16222
0.0737471
0.076219
0.0853955
0.0905218
0.0896009
0.0829331
0.0724632
0.0611443
0.0518302
0.0454812
0.0416725
0.0405013
0.0459141
0.0529514
0.0562599
0.0566054
0.0564783
0.0589489
0.123536
0.160894
0.0732118
0.0760253
0.0852298
0.090383
0.089457
0.0827282
0.0721472
0.0607195
0.0513631
0.0450249
0.0411902
0.0400027
0.0452979
0.0525158
0.0560286
0.056487
0.056423
0.0590004
0.124447
0.159568
0.0727064
0.0758409
0.0850688
0.0902476
0.0893169
0.0825285
0.071838
0.0603025
0.0509052
0.0445791
0.040711
0.0395296
0.0447144
0.0520919
0.0557982
0.056367
0.0563665
0.0590538
0.125392
0.158242
0.0722287
0.0756669
0.0849139
0.0901163
0.0891803
0.0823327
0.0715338
0.0598923
0.0504569
0.0441452
0.0402351
0.0390898
0.0441668
0.0516818
0.0555695
0.056246
0.056309
0.0591096
0.12637
0.156915
0.0717771
0.0755042
0.0847665
0.0899897
0.0890468
0.08214
0.0712342
0.0594894
0.0500196
0.0437247
0.03976
0.0386656
0.0436513
0.0512858
0.0553429
0.0561243
0.0562509
0.0591679
0.12738
0.155588
0.0713492
0.0753531
0.0846271
0.0898678
0.0889161
0.0819501
0.0709398
0.0590957
0.049596
0.0433201
0.0392852
0.0382353
0.0431624
0.0509037
0.0551189
0.0560023
0.0561923
0.059229
0.128422
0.154261
0.0709432
0.0752138
0.084496
0.0897509
0.0887886
0.0817641
0.0706526
0.0587142
0.0491897
0.0429353
0.0388138
0.037793
0.0426971
0.0505355
0.0548979
0.05588
0.0561335
0.0592931
0.129494
0.152935
0.0705578
0.0750861
0.0843731
0.0896392
0.088665
0.0815833
0.0703754
0.0583488
0.0488049
0.0425745
0.0383507
0.0373496
0.0422549
0.0501812
0.0546801
0.0557578
0.0560745
0.0593605
0.130597
0.151607
0.070193
0.0749696
0.0842585
0.0895331
0.0885464
0.0814099
0.0701111
0.0580033
0.0484451
0.0422406
0.037899
0.0369132
0.0418349
0.0498406
0.0544656
0.0556357
0.0560157
0.0594315
0.131729
0.150278
0.0698498
0.0748644
0.0841526
0.0894332
0.0884336
0.0812452
0.0698622
0.0576809
0.0481132
0.0419362
0.0374603
0.0364744
0.0414351
0.0495142
0.0542553
0.0555144
0.0559574
0.0595065
0.132891
0.148947
0.0695302
0.0747703
0.0840552
0.0893397
0.0883271
0.0810902
0.0696306
0.0573843
0.047812
0.0416635
0.0370394
0.0360198
0.0410549
0.0492027
0.0540499
0.0553943
0.0558998
0.0595856
0.134081
0.147614
0.0692361
0.0746871
0.0839661
0.0892521
0.0882268
0.0809457
0.069418
0.0571163
0.0475446
0.0414265
0.0366487
0.0355517
0.0406967
0.0489079
0.0538508
0.0552756
0.0558427
0.0596686
0.1353
0.14628
0.0689692
0.0746144
0.0838848
0.08917
0.0881323
0.0808122
0.0692266
0.0568807
0.0473151
0.0412308
0.0363065
0.0350922
0.0403646
0.0486313
0.0536585
0.0551584
0.0557859
0.0597553
0.136547
0.144945
0.068731
0.0745519
0.0838107
0.0890927
0.0880438
0.0806911
0.0690593
0.0566817
0.0471283
0.041082
0.0360311
0.0346679
0.0400607
0.0483733
0.0534732
0.0550423
0.055729
0.0598458
0.137819
0.143609
0.0685233
0.0744989
0.0837432
0.0890201
0.0879618
0.0805842
0.0689191
0.0565239
0.0469885
0.0409848
0.0358345
0.034291
0.0397837
0.0481332
0.0532946
0.054927
0.0556717
0.05994
0.139118
0.142273
0.0683474
0.074455
0.0836819
0.0889519
0.0878869
0.0804936
0.0688092
0.0564112
0.0468993
0.0409414
0.0357211
0.0339475
0.0395284
0.04791
0.0531224
0.0548125
0.0556145
0.0600385
0.140443
0.140938
0.0682044
0.0744194
0.0836258
0.0888879
0.0878194
0.0804209
0.0687319
0.0563474
0.0468634
0.040953
0.0356902
0.0336078
0.03929
0.047703
0.0529569
0.0546993
0.0555578
0.0601419
0.141795
0.139603
0.0680944
0.0743911
0.083574
0.0888271
0.0877596
0.0803676
0.0686892
0.0563354
0.0468825
0.0410191
0.035736
0.033241
0.0390671
0.0475128
0.0527989
0.0545881
0.0555021
0.0602507
0.143173
0.13827
0.0680157
0.0743668
0.0835238
0.0887728
0.0877091
0.0803301
0.0686825
0.0563775
0.0469576
0.0411379
0.0358489
0.0328168
0.0388619
0.0473412
0.0526496
0.0544794
0.0554476
0.060365
0.144577
0.136938
0.0679671
0.0743421
0.0834757
0.0887264
0.0876788
0.0803232
0.0687028
0.0564229
0.0470836
0.0413057
0.0360161
0.0322772
0.0386798
0.0471912
0.05251
0.0543734
0.0553941
0.060485
0.146009
0.135618
0.0679253
0.0743156
0.0834287
0.088688
0.0876665
0.0803445
0.0687613
0.0565181
0.0472088
0.0414611
0.0362298
0.0314252
0.0385261
0.0470655
0.0523808
0.0542699
0.0553414
0.0606106
0.147467
0.134314
0.0678838
0.0742865
0.0833825
0.0886577
0.0876729
0.0803952
0.0688548
0.0566455
0.0473619
0.0416437
0.0363933
0.0305208
0.0384087
0.0469651
0.0522622
0.0541689
0.0552896
0.0607424
0.148954
0.133028
0.0678427
0.0742547
0.0833368
0.0886356
0.0876982
0.0804754
0.0689833
0.0568044
0.0475358
0.0418487
0.0366802
0.0297632
0.0383375
0.0468917
0.052155
0.0540707
0.0552388
0.0608811
0.150472
0.131762
0.0678021
0.0742197
0.0832912
0.0886215
0.0877427
0.0805854
0.0691464
0.0569934
0.0477293
0.0420732
0.0370808
0.0302902
0.0383002
0.0468298
0.0520564
0.0539759
0.0551896
0.0610752
0.152005
0.130518
0.067762
0.0741807
0.0832445
0.0886147
0.0878062
0.0807255
0.0693447
0.0572124
0.0479418
0.0423153
0.0375442
0.0317332
0.0383544
0.0467955
0.0519626
0.0538836
0.0551424
0.0613455
0.153547
0.129296
0.0677215
0.0741363
0.0831954
0.0886142
0.0878888
0.0808969
0.06958
0.0574634
0.0481757
0.0425795
0.0380854
0.033691
0.0385193
0.0467916
0.0518747
0.0537946
0.0551051
0.0616949
0.155097
0.128097
0.0676796
0.0740849
0.0831423
0.0886195
0.0879914
0.0811018
0.0698555
0.0577507
0.0484359
0.0428726
0.0386965
0.0356589
0.0387995
0.0468187
0.0517933
0.0537091
0.0550783
0.0621339
0.156654
0.126922
0.0676352
0.0740248
0.0830835
0.08863
0.0881147
0.0813424
0.070175
0.0580792
0.0487273
0.0431973
0.0393419
0.0372776
0.0391894
0.0468761
0.0517185
0.0536279
0.0550642
0.0626698
0.158217
0.125771
0.0675873
0.0739545
0.0830179
0.0886453
0.0882596
0.0816212
0.0705425
0.0584539
0.0490541
0.0435531
0.0399878
0.03844
0.0396782
0.0469621
0.0516507
0.0535516
0.0550656
0.0633079
0.159787
0.124646
0.0675353
0.0738728
0.0829441
0.0886644
0.0884263
0.08194
0.070962
0.0588798
0.0494203
0.0439389
0.0406279
0.0392763
0.040253
0.0470744
0.0515903
0.0534809
0.0550856
0.0640526
0.16136
0.123548
0.0674791
0.0737787
0.0828605
0.0886861
0.0886147
0.0823009
0.0714375
0.0593623
0.04983
0.0443542
0.0412756
0.0400104
0.0408984
0.0472105
0.0515375
0.053417
0.0551282
0.0649066
0.162937
0.12248
0.0674183
0.0736706
0.0827649
0.0887088
0.0888246
0.0827054
0.071973
0.0599074
0.0502878
0.044798
0.0419429
0.0410068
0.041594
0.047367
0.0514924
0.0533607
0.0551973
0.0658717
0.164515
0.121441
0.0673524
0.0735469
0.0826551
0.0887304
0.0890555
0.0831556
0.072573
0.0605209
0.0507982
0.0452678
0.0425908
0.0418075
0.0423153
0.0475396
0.0514547
0.0533129
0.0552975
0.0669483
0.166094
0.120435
0.0672809
0.073406
0.0825286
0.0887489
0.0893067
0.0836529
0.0732418
0.0612094
0.0513667
0.045763
0.0432276
0.0426019
0.0430376
0.0477243
0.0514241
0.0532749
0.0554342
0.0681366
0.167672
0.119463
0.0672033
0.0732458
0.0823826
0.0887618
0.0895773
0.0841988
0.0739837
0.0619793
0.051999
0.0462826
0.0438405
0.043341
0.0437404
0.0479171
0.0514006
0.0532484
0.0556136
0.0694372
0.169249
0.118526
0.067119
0.0730645
0.0822142
0.0887665
0.089866
0.0847946
0.0748029
0.0628376
0.0527021
0.0468284
0.0444212
0.0439288
0.0444112
0.0481151
0.0513846
0.0532359
0.0558431
0.0708516
0.170821
0.117626
0.0670277
0.0728599
0.0820201
0.0887593
0.0901708
0.0854409
0.0757034
0.0637916
0.0534844
0.047406
0.0449856
0.0445115
0.045046
0.0483164
0.0513774
0.0532408
0.0561313
0.0723819
0.172389
0.116766
0.066929
0.07263
0.0817963
0.0887363
0.0904889
0.0861375
0.076689
0.0648494
0.0543566
0.048024
0.04554
0.0450906
0.0456419
0.0485195
0.0513804
0.0532675
0.0564884
0.0740308
0.17395
0.115949
0.0668227
0.0723722
0.0815384
0.0886921
0.0908162
0.0868836
0.0777632
0.0660198
0.0553313
0.0486932
0.0460907
0.045653
0.0461965
0.0487238
0.0513959
0.0533212
0.0569257
0.0758016
0.175501
0.115177
0.0667087
0.0720841
0.0812412
0.0886207
0.0911478
0.0876775
0.0789297
0.0673126
0.0564236
0.0494265
0.0466387
0.0461825
0.046709
0.0489298
0.0514266
0.0534087
0.057457
0.0776996
0.177042
0.114453
0.0665873
0.0717633
0.080899
0.0885144
0.0914773
0.0885164
0.0801916
0.0687388
0.0576511
0.0502412
0.0471906
0.0466735
0.0471813
0.0491387
0.0514768
0.0535392
0.0580985
0.0797321
0.17857
0.113783
0.0664594
0.0714072
0.0805052
0.0883645
0.0917963
0.0893964
0.081552
0.0703106
0.0590356
0.0511617
0.0477633
0.0471362
0.047618
0.049354
0.0515529
0.0537248
0.0588702
0.0819096
0.180084
0.11317
0.0663257
0.0710131
0.0800523
0.0881601
0.0920947
0.0903114
0.0830131
0.0720419
0.0606035
0.0522202
0.0483822
0.0475904
0.0480297
0.0495813
0.0516643
0.0539822
0.0597962
0.0842453
0.181581
0.11262
0.0661876
0.0705784
0.0795316
0.0878883
0.0923593
0.0912529
0.0845761
0.0739475
0.0623857
0.0534572
0.0490807
0.0480614
0.0484336
0.04983
0.0518239
0.054333
0.0609048
0.0867541
0.183058
0.112139
0.0660468
0.0701006
0.0789337
0.0875336
0.0925732
0.0922088
0.0862391
0.0760419
0.064417
0.0549228
0.0499011
0.0485732
0.0488503
0.0501133
0.0520494
0.0548047
0.062228
0.0894511
0.184512
0.111733
0.0659055
0.0695778
0.0782481
0.0870775
0.0927148
0.0931616
0.0879962
0.0783375
0.0667346
0.0566775
0.0508984
0.049151
0.0492999
0.0504493
0.0523645
0.0554323
0.063802
0.0923513
0.185938
0.111409
0.0657669
0.0690092
0.077464
0.0864984
0.0927573
0.0940868
0.0898341
0.0808417
0.0693766
0.0587923
0.0521479
0.0498345
0.0498063
0.0508623
0.0528017
0.0562602
0.0656674
0.0954688
0.187331
0.111175
0.0656353
0.0683958
0.0765711
0.085772
0.0926672
0.094951
0.0917303
0.0835547
0.0723786
0.0613483
0.0537525
0.0506921
0.0504052
0.0513879
0.0534065
0.0573448
0.0678687
0.0988173
0.188686
0.111039
0.0655168
0.0677412
0.0755606
0.0848714
0.0924035