/*--------------------------------*- C++ -*----------------------------------*\
  =========                 |
  \\      /  F ield         | OpenFOAM: The Open Source CFD Toolbox
   \\    /   O peration     | Website:  https://openfoam.org
    \\  /    A nd           | Version:  8
     \\/     M anipulation  |
\*---------------------------------------------------------------------------*/
FoamFile
{
    version     2.0;
    format      ascii;
    class       volScalarField;
    location    "600";
    object      nut;
}
// * * * * * * * * * * * * * * * * * * * * * * * * * * * * * * * * * * * * * //

dimensions      [0 2 -1 0 0 0 0];

internalField   nonuniform List<scalar> 
8400
(
0.000332588
0.000330957
0.000329315
0.00032766
0.000325988
0.000324297
0.000322586
0.000320855
0.000319104
0.000317335
0.00031555
0.000313751
0.000311939
0.000310116
0.000308284
0.000306443
0.000304595
0.00030274
0.000300878
0.000299011
0.000297137
0.000295258
0.000293372
0.000291479
0.000289579
0.00028767
0.000285753
0.000283826
0.00028189
0.000279942
0.000277983
0.000276011
0.000274027
0.000272028
0.000270016
0.000267989
0.000265946
0.000263888
0.000261815
0.000259726
0.000257622
0.000255504
0.000253375
0.000251237
0.000249096
0.000246958
0.000244835
0.000242743
0.000240706
0.000238754
8.70387e-05
8.70316e-05
8.70222e-05
8.70089e-05
8.69905e-05
8.69663e-05
8.69359e-05
8.68993e-05
8.68562e-05
8.68068e-05
8.67512e-05
8.66897e-05
8.6622e-05
8.65482e-05
8.64682e-05
8.63818e-05
8.62892e-05
8.619e-05
8.60841e-05
8.59715e-05
8.58518e-05
8.57249e-05
8.55903e-05
8.5448e-05
8.52975e-05
8.51387e-05
8.49713e-05
8.4795e-05
8.46095e-05
8.44147e-05
8.42104e-05
8.39963e-05
8.37726e-05
8.35388e-05
8.3295e-05
8.30412e-05
8.27772e-05
8.25033e-05
8.22197e-05
8.19264e-05
8.16237e-05
8.13125e-05
8.09933e-05
8.06668e-05
8.03345e-05
7.99979e-05
7.96589e-05
7.93203e-05
7.89852e-05
7.86586e-05
7.52315e-05
7.52823e-05
7.53279e-05
7.53677e-05
7.5401e-05
7.54274e-05
7.54463e-05
7.54578e-05
7.54619e-05
7.54587e-05
7.54484e-05
7.54311e-05
7.54068e-05
7.53757e-05
7.53376e-05
7.52926e-05
7.52407e-05
7.51821e-05
7.51164e-05
7.50434e-05
7.49631e-05
7.48754e-05
7.47802e-05
7.46774e-05
7.45668e-05
7.4448e-05
7.43209e-05
7.41857e-05
7.40421e-05
7.38901e-05
7.37298e-05
7.35611e-05
7.3384e-05
7.31985e-05
7.30048e-05
7.2803e-05
7.25932e-05
7.2376e-05
7.21516e-05
7.19201e-05
7.16821e-05
7.14383e-05
7.11894e-05
7.09361e-05
7.06796e-05
7.0421e-05
7.0162e-05
6.99046e-05
6.96512e-05
6.94047e-05
6.65797e-05
6.66187e-05
6.66559e-05
6.66893e-05
6.67178e-05
6.67407e-05
6.67579e-05
6.67695e-05
6.67755e-05
6.67762e-05
6.67719e-05
6.67626e-05
6.67485e-05
6.67297e-05
6.67064e-05
6.66787e-05
6.66465e-05
6.66098e-05
6.65688e-05
6.65232e-05
6.64732e-05
6.64186e-05
6.63592e-05
6.62952e-05
6.62264e-05
6.61528e-05
6.60744e-05
6.59913e-05
6.59035e-05
6.58112e-05
6.57144e-05
6.56131e-05
6.55073e-05
6.53974e-05
6.52835e-05
6.51659e-05
6.50449e-05
6.49209e-05
6.4794e-05
6.46645e-05
6.45331e-05
6.44001e-05
6.42663e-05
6.41324e-05
6.39992e-05
6.38675e-05
6.37386e-05
6.36139e-05
6.34947e-05
6.33827e-05
5.98414e-05
5.98765e-05
5.99107e-05
5.99433e-05
5.99737e-05
6.00017e-05
6.00271e-05
6.00502e-05
6.0071e-05
6.00897e-05
6.01063e-05
6.0121e-05
6.01337e-05
6.01447e-05
6.01537e-05
6.01612e-05
6.01669e-05
6.01708e-05
6.01731e-05
6.01734e-05
6.01719e-05
6.01686e-05
6.01635e-05
6.01564e-05
6.01474e-05
6.01364e-05
6.01237e-05
6.01091e-05
6.00928e-05
6.0075e-05
6.00556e-05
6.00346e-05
6.00121e-05
5.99883e-05
5.99632e-05
5.99373e-05
5.99107e-05
5.98836e-05
5.98557e-05
5.98277e-05
5.97997e-05
5.97719e-05
5.9745e-05
5.97192e-05
5.96949e-05
5.96727e-05
5.96535e-05
5.96377e-05
5.96267e-05
5.96213e-05
5.64394e-05
5.64606e-05
5.64832e-05
5.65066e-05
5.65304e-05
5.65544e-05
5.65785e-05
5.66025e-05
5.66266e-05
5.66507e-05
5.66747e-05
5.66986e-05
5.67221e-05
5.67455e-05
5.67687e-05
5.67917e-05
5.68144e-05
5.68368e-05
5.68589e-05
5.68805e-05
5.69018e-05
5.69226e-05
5.69429e-05
5.69627e-05
5.69819e-05
5.70006e-05
5.70187e-05
5.70366e-05
5.70542e-05
5.70714e-05
5.70881e-05
5.71045e-05
5.71204e-05
5.7136e-05
5.71514e-05
5.7167e-05
5.71825e-05
5.71979e-05
5.72135e-05
5.72293e-05
5.72455e-05
5.72626e-05
5.72807e-05
5.72998e-05
5.73206e-05
5.73433e-05
5.73678e-05
5.73956e-05
5.74264e-05
5.74615e-05
5.54352e-05
5.54155e-05
5.54e-05
5.53886e-05
5.53812e-05
5.53773e-05
5.53765e-05
5.53785e-05
5.53827e-05
5.53887e-05
5.53962e-05
5.54049e-05
5.54148e-05
5.54255e-05
5.54372e-05
5.54496e-05
5.54625e-05
5.54757e-05
5.54893e-05
5.55033e-05
5.55177e-05
5.55323e-05
5.5547e-05
5.55617e-05
5.55764e-05
5.55912e-05
5.56061e-05
5.56214e-05
5.56369e-05
5.56525e-05
5.56682e-05
5.56839e-05
5.56996e-05
5.57153e-05
5.57314e-05
5.57478e-05
5.57641e-05
5.57807e-05
5.57976e-05
5.58145e-05
5.58323e-05
5.5851e-05
5.58702e-05
5.58905e-05
5.59117e-05
5.59342e-05
5.59587e-05
5.59848e-05
5.60133e-05
5.60441e-05
5.60193e-05
5.59051e-05
5.58033e-05
5.5714e-05
5.56363e-05
5.55696e-05
5.55125e-05
5.5464e-05
5.54232e-05
5.53889e-05
5.53604e-05
5.53371e-05
5.53184e-05
5.53035e-05
5.52921e-05
5.52836e-05
5.52775e-05
5.52735e-05
5.52712e-05
5.52702e-05
5.52705e-05
5.52718e-05
5.52737e-05
5.52762e-05
5.52791e-05
5.52826e-05
5.52866e-05
5.52912e-05
5.5296e-05
5.5301e-05
5.5306e-05
5.53108e-05
5.53154e-05
5.532e-05
5.53247e-05
5.5329e-05
5.53332e-05
5.53371e-05
5.53405e-05
5.53443e-05
5.5348e-05
5.53517e-05
5.53557e-05
5.53589e-05
5.53626e-05
5.53653e-05
5.53687e-05
5.53706e-05
5.53731e-05
5.53745e-05
5.7812e-05
5.75637e-05
5.73505e-05
5.71576e-05
5.69806e-05
5.68199e-05
5.66741e-05
5.65421e-05
5.64237e-05
5.63177e-05
5.62231e-05
5.61397e-05
5.60664e-05
5.60024e-05
5.5947e-05
5.5899e-05
5.58574e-05
5.58216e-05
5.57911e-05
5.57653e-05
5.57438e-05
5.57261e-05
5.57119e-05
5.57008e-05
5.56924e-05
5.56869e-05
5.56838e-05
5.56828e-05
5.56835e-05
5.56858e-05
5.56893e-05
5.56936e-05
5.56987e-05
5.57046e-05
5.57105e-05
5.57166e-05
5.57226e-05
5.57278e-05
5.57332e-05
5.57384e-05
5.5743e-05
5.57476e-05
5.57506e-05
5.57524e-05
5.57522e-05
5.57508e-05
5.57468e-05
5.57406e-05
5.57322e-05
5.57188e-05
6.00024e-05
5.96909e-05
5.94769e-05
5.92738e-05
5.90779e-05
5.88893e-05
5.87093e-05
5.85354e-05
5.83683e-05
5.82076e-05
5.80541e-05
5.7909e-05
5.77708e-05
5.76396e-05
5.75178e-05
5.74024e-05
5.72918e-05
5.71871e-05
5.70878e-05
5.69933e-05
5.69052e-05
5.68242e-05
5.67485e-05
5.66784e-05
5.66161e-05
5.65617e-05
5.65127e-05
5.64683e-05
5.64302e-05
5.64e-05
5.63776e-05
5.63622e-05
5.63531e-05
5.63497e-05
5.63511e-05
5.63557e-05
5.63622e-05
5.63717e-05
5.63848e-05
5.64012e-05
5.64217e-05
5.64435e-05
5.6464e-05
5.64876e-05
5.65031e-05
5.6523e-05
5.65366e-05
5.65516e-05
5.65644e-05
5.65793e-05
6.12913e-05
6.10632e-05
6.09022e-05
6.07738e-05
6.06651e-05
6.05538e-05
6.04484e-05
6.03407e-05
6.02317e-05
6.00959e-05
5.99742e-05
5.98473e-05
5.97316e-05
5.96305e-05
5.95389e-05
5.94363e-05
5.93289e-05
5.92238e-05
5.91114e-05
5.89813e-05
5.88587e-05
5.87577e-05
5.8644e-05
5.85112e-05
5.83985e-05
5.83132e-05
5.82218e-05
5.81079e-05
5.79884e-05
5.78899e-05
5.7824e-05
5.7774e-05
5.77255e-05
5.76972e-05
5.76884e-05
5.7669e-05
5.7628e-05
5.75701e-05
5.7537e-05
5.7492e-05
5.74487e-05
5.74777e-05
5.74737e-05
5.74916e-05
5.75173e-05
5.74617e-05
5.74711e-05
5.74372e-05
5.74235e-05
5.74804e-05
6.1433e-05
6.13619e-05
6.12938e-05
6.12261e-05
6.11601e-05
6.10954e-05
6.10329e-05
6.09712e-05
6.091e-05
6.08494e-05
6.07893e-05
6.07277e-05
6.06652e-05
6.06014e-05
6.05364e-05
6.04722e-05
6.04095e-05
6.03471e-05
6.02848e-05
6.0224e-05
6.01647e-05
6.01054e-05
6.00459e-05
5.99877e-05
5.99308e-05
5.9873e-05
5.98135e-05
5.97536e-05
5.96951e-05
5.96385e-05
5.95826e-05
5.95269e-05
5.94727e-05
5.94202e-05
5.93681e-05
5.93148e-05
5.92609e-05
5.92079e-05
5.91559e-05
5.9107e-05
5.90609e-05
5.90163e-05
5.89741e-05
5.89286e-05
5.88831e-05
5.88397e-05
5.87985e-05
5.87543e-05
5.87042e-05
5.86438e-05
6.14609e-05
6.14201e-05
6.13802e-05
6.13401e-05
6.13002e-05
6.12606e-05
6.12198e-05
6.11806e-05
6.11405e-05
6.11004e-05
6.10602e-05
6.102e-05
6.09797e-05
6.094e-05
6.09015e-05
6.08633e-05
6.08245e-05
6.07848e-05
6.07446e-05
6.07041e-05
6.06635e-05
6.06228e-05
6.05822e-05
6.05416e-05
6.0501e-05
6.04605e-05
6.04203e-05
6.03803e-05
6.03403e-05
6.03004e-05
6.02607e-05
6.02214e-05
6.01827e-05
6.01444e-05
6.01063e-05
6.00683e-05
6.00306e-05
5.99932e-05
5.99557e-05
5.99183e-05
5.9881e-05
5.98439e-05
5.98069e-05
5.97702e-05
5.97338e-05
5.96971e-05
5.96602e-05
5.96238e-05
5.95871e-05
5.95483e-05
6.14729e-05
6.14448e-05
6.14167e-05
6.13885e-05
6.13599e-05
6.13317e-05
6.13032e-05
6.12748e-05
6.12455e-05
6.12165e-05
6.11878e-05
6.11588e-05
6.11299e-05
6.11007e-05
6.10713e-05
6.10419e-05
6.10126e-05
6.09833e-05
6.09541e-05
6.09248e-05
6.08955e-05
6.08664e-05
6.08372e-05
6.08081e-05
6.0779e-05
6.07499e-05
6.07206e-05
6.06912e-05
6.06615e-05
6.06317e-05
6.0602e-05
6.05724e-05
6.05429e-05
6.05135e-05
6.04842e-05
6.04551e-05
6.04262e-05
6.03972e-05
6.03681e-05
6.03391e-05
6.03101e-05
6.02815e-05
6.02527e-05
6.02241e-05
6.01958e-05
6.01677e-05
6.0139e-05
6.01096e-05
6.008e-05
6.00499e-05
6.14783e-05
6.1456e-05
6.14336e-05
6.14115e-05
6.1389e-05
6.13671e-05
6.13449e-05
6.13228e-05
6.13003e-05
6.12779e-05
6.12552e-05
6.12324e-05
6.12098e-05
6.11869e-05
6.11639e-05
6.11408e-05
6.11178e-05
6.10947e-05
6.10717e-05
6.10487e-05
6.10258e-05
6.10029e-05
6.09801e-05
6.09572e-05
6.09345e-05
6.09117e-05
6.08888e-05
6.08658e-05
6.08427e-05
6.08196e-05
6.07966e-05
6.07738e-05
6.07509e-05
6.07281e-05
6.07053e-05
6.06827e-05
6.066e-05
6.06373e-05
6.06145e-05
6.05917e-05
6.05688e-05
6.0546e-05
6.05233e-05
6.05005e-05
6.04774e-05
6.04545e-05
6.04319e-05
6.04088e-05
6.03853e-05
6.03613e-05
6.14833e-05
6.14661e-05
6.14485e-05
6.14313e-05
6.14137e-05
6.13964e-05
6.13788e-05
6.13608e-05
6.13426e-05
6.13244e-05
6.13064e-05
6.12884e-05
6.12703e-05
6.1252e-05
6.12336e-05
6.12152e-05
6.11968e-05
6.11782e-05
6.11596e-05
6.11411e-05
6.11226e-05
6.11041e-05
6.10854e-05
6.10667e-05
6.1048e-05
6.10291e-05
6.10101e-05
6.0991e-05
6.09719e-05
6.09529e-05
6.09339e-05
6.09149e-05
6.08959e-05
6.08767e-05
6.08577e-05
6.08386e-05
6.08195e-05
6.08003e-05
6.0781e-05
6.07615e-05
6.0742e-05
6.07224e-05
6.07027e-05
6.06832e-05
6.0664e-05
6.06446e-05
6.06254e-05
6.06058e-05
6.05864e-05
6.05666e-05
6.14839e-05
6.14674e-05
6.1451e-05
6.14345e-05
6.14181e-05
6.14017e-05
6.13852e-05
6.13685e-05
6.13519e-05
6.13353e-05
6.13185e-05
6.13018e-05
6.12851e-05
6.12686e-05
6.12519e-05
6.12352e-05
6.12184e-05
6.12016e-05
6.11848e-05
6.11681e-05
6.11514e-05
6.11346e-05
6.11179e-05
6.11012e-05
6.10844e-05
6.10675e-05
6.10506e-05
6.10337e-05
6.10169e-05
6.10002e-05
6.09836e-05
6.0967e-05
6.09504e-05
6.09339e-05
6.09175e-05
6.09011e-05
6.08849e-05
6.08685e-05
6.08521e-05
6.08357e-05
6.08194e-05
6.08033e-05
6.07871e-05
6.0771e-05
6.07552e-05
6.07394e-05
6.07237e-05
6.07079e-05
6.06922e-05
6.06766e-05
6.14881e-05
6.14764e-05
6.14649e-05
6.14535e-05
6.14422e-05
6.14309e-05
6.14193e-05
6.14073e-05
6.13952e-05
6.13829e-05
6.13706e-05
6.13581e-05
6.13455e-05
6.13328e-05
6.13201e-05
6.13074e-05
6.1295e-05
6.12828e-05
6.12708e-05
6.1259e-05
6.12471e-05
6.12352e-05
6.12231e-05
6.12109e-05
6.11984e-05
6.11857e-05
6.11728e-05
6.11598e-05
6.11469e-05
6.11342e-05
6.11219e-05
6.111e-05
6.10988e-05
6.10882e-05
6.10782e-05
6.10686e-05
6.10593e-05
6.105e-05
6.10409e-05
6.10318e-05
6.10227e-05
6.1014e-05
6.10057e-05
6.09981e-05
6.09912e-05
6.0985e-05
6.09796e-05
6.0975e-05
6.09716e-05
6.09696e-05
6.15615e-05
6.16212e-05
6.16795e-05
6.17364e-05
6.17919e-05
6.18459e-05
6.18985e-05
6.19497e-05
6.19994e-05
6.20477e-05
6.20946e-05
6.21401e-05
6.2184e-05
6.22261e-05
6.22656e-05
6.22929e-05
6.23168e-05
6.23499e-05
6.23954e-05
6.24432e-05
6.24857e-05
6.25203e-05
6.25491e-05
6.25776e-05
6.26113e-05
6.26512e-05
6.26935e-05
6.27344e-05
6.27722e-05
6.28071e-05
6.28397e-05
6.28705e-05
6.29001e-05
6.29293e-05
6.29586e-05
6.2989e-05
6.3021e-05
6.30555e-05
6.30926e-05
6.31326e-05
6.31764e-05
6.32246e-05
6.32778e-05
6.33359e-05
6.33986e-05
6.34655e-05
6.35364e-05
6.36351e-05
6.39347e-05
6.4299e-05
0.000264241
0.000264141
0.000263137
0.000261958
0.00026076
0.000259497
0.000258156
0.000256773
0.000255403
0.000254095
0.000252891
0.000251824
0.000250919
0.000250186
0.000249609
0.000249136
0.000248701
0.00024828
0.000247843
0.000247338
0.000246724
0.000246018
0.000245263
0.000244491
0.000243721
0.000242974
0.00024228
0.000241684
0.000241224
0.000240924
0.000240787
0.000240795
0.000240896
0.000241022
0.000241108
0.000241105
0.000240995
0.000240785
0.000240504
0.000240185
0.000239857
0.000239535
0.000239217
0.000238883
0.000238485
0.000237965
0.000237266
0.000236334
0.000235161
0.000233952
0.000272578
0.000269205
0.000265979
0.00026289
0.000259917
0.000257045
0.000254255
0.000251543
0.000248905
0.000246336
0.000243835
0.000241397
0.000239023
0.000236708
0.000234453
0.000232255
0.000230111
0.00022802
0.000225979
0.000223987
0.000222042
0.000220144
0.00021829
0.000216481
0.000214714
0.000212989
0.000211304
0.00020966
0.000208054
0.000206487
0.000204957
0.000203462
0.000202001
0.000200573
0.000199177
0.000197814
0.000196481
0.000195179
0.000193907
0.000192659
0.000191432
0.000190225
0.000189036
0.000187863
0.000186703
0.000185551
0.0001844
0.00018324
0.000182052
0.000180799
0.000270615
0.000264395
0.000258466
0.0002528
0.000247385
0.000242211
0.000237271
0.000232548
0.000228029
0.000223699
0.000219546
0.000215559
0.00021173
0.000208049
0.000204507
0.000201097
0.000197809
0.000194637
0.000191574
0.000188616
0.000185757
0.000182992
0.000180317
0.000177727
0.00017522
0.00017279
0.000170437
0.000168155
0.000165942
0.000163793
0.000161705
0.000159675
0.000157699
0.000155775
0.000153899
0.000152069
0.000150282
0.000148535
0.000146824
0.000145156
0.000143531
0.000141947
0.000140404
0.000138899
0.000137431
0.000135998
0.000134595
0.00013322
0.000131867
0.000130535
0.000270609
0.00026437
0.000258402
0.000252699
0.000247243
0.000242022
0.00023702
0.000232223
0.000227618
0.000223193
0.000218938
0.000214842
0.000210897
0.000207095
0.000203427
0.000199887
0.000196467
0.000193161
0.000189962
0.000186868
0.000183871
0.000180969
0.000178157
0.000175431
0.000172787
0.000170222
0.000167733
0.000165318
0.000162973
0.000160694
0.000158479
0.000156325
0.000154228
0.000152187
0.0001502
0.000148265
0.00014638
0.000144543
0.000142753
0.000141008
0.000139307
0.00013765
0.000136036
0.000134462
0.000132929
0.000131435
0.00012998
0.000128563
0.000127176
0.000125814
0.000270609
0.000264416
0.000258502
0.000252851
0.000247443
0.000242261
0.00023729
0.000232517
0.000227931
0.000223518
0.000219271
0.000215179
0.000211235
0.000207431
0.000203759
0.000200212
0.000196784
0.000193469
0.000190261
0.000187155
0.000184148
0.000181234
0.000178409
0.00017567
0.000173012
0.000170434
0.000167931
0.000165502
0.000163143
0.00016085
0.000158621
0.000156453
0.000154343
0.00015229
0.000150291
0.000148343
0.000146446
0.000144596
0.000142793
0.000141036
0.000139323
0.000137654
0.000136026
0.00013444
0.000132894
0.000131386
0.000129917
0.000128489
0.000127097
0.00012573
0.000270609
0.000264417
0.000258501
0.000252843
0.000247426
0.000242234
0.000237254
0.000232472
0.000227879
0.000223461
0.000219211
0.000215117
0.000211173
0.00020737
0.000203699
0.000200155
0.00019673
0.000193418
0.000190214
0.000187113
0.000184111
0.000181202
0.000178382
0.000175648
0.000172995
0.000170421
0.000167923
0.000165498
0.000163143
0.000160855
0.00015863
0.000156466
0.00015436
0.00015231
0.000150314
0.00014837
0.000146475
0.000144628
0.000142828
0.000141072
0.000139361
0.000137693
0.000136066
0.000134481
0.000132935
0.000131427
0.000129956
0.000128522
0.000127127
0.000125762
0.000270609
0.000264421
0.000258512
0.000252864
0.000247457
0.000242277
0.000237309
0.00023254
0.000227957
0.00022355
0.000219308
0.000215223
0.000211285
0.000207487
0.000203821
0.000200279
0.000196857
0.000193547
0.000190345
0.000187245
0.000184243
0.000181334
0.000178513
0.000175778
0.000173124
0.000170549
0.000168049
0.000165623
0.000163266
0.000160975
0.000158748
0.000156582
0.000154474
0.000152422
0.000150423
0.000148475
0.000146577
0.000144727
0.000142923
0.000141164
0.000139448
0.000137776
0.000136145
0.000134554
0.000133004
0.000131491
0.000130015
0.000128573
0.000127168
0.000125795
0.000270609
0.000264422
0.000258514
0.000252867
0.000247461
0.000242279
0.000237309
0.000232537
0.000227951
0.000223541
0.000219296
0.000215207
0.000211266
0.000207465
0.000203796
0.000200253
0.000196829
0.000193517
0.000190314
0.000187213
0.00018421
0.0001813
0.000178479
0.000175744
0.00017309
0.000170516
0.000168017
0.000165592
0.000163236
0.000160947
0.000158721
0.000156555
0.000154448
0.000152397
0.000150399
0.000148452
0.000146555
0.000144705
0.000142901
0.000141143
0.000139428
0.000137755
0.000136123
0.000134532
0.000132979
0.000131465
0.000129988
0.000128545
0.000127135
0.000125759
0.000270609
0.000264422
0.000258516
0.00025287
0.000247466
0.000242287
0.00023732
0.000232551
0.000227968
0.00022356
0.000219318
0.000215233
0.000211295
0.000207497
0.000203831
0.000200291
0.000196868
0.000193559
0.000190357
0.000187257
0.000184255
0.000181346
0.000178525
0.00017579
0.000173137
0.000170563
0.000168065
0.00016564
0.000163284
0.000160995
0.000158768
0.000156602
0.000154494
0.000152441
0.000150442
0.000148493
0.000146594
0.000144742
0.000142936
0.000141175
0.000139457
0.000137782
0.000136147
0.000134551
0.000132993
0.000131474
0.000129992
0.000128543
0.000127128
0.000125744
0.000270609
0.000264423
0.000258517
0.000252872
0.000247468
0.00024229
0.000237322
0.000232553
0.000227969
0.000223561
0.000219318
0.000215232
0.000211293
0.000207494
0.000203827
0.000200285
0.000196862
0.000193551
0.000190347
0.000187245
0.000184241
0.000181331
0.000178509
0.000175774
0.00017312
0.000170547
0.000168049
0.000165624
0.000163268
0.000160978
0.000158751
0.000156585
0.000154477
0.000152424
0.000150424
0.000148475
0.000146575
0.000144722
0.000142915
0.000141153
0.000139434
0.000137757
0.00013612
0.000134522
0.000132962
0.000131439
0.000129953
0.000128501
0.000127082
0.000125695
0.000270609
0.000264423
0.000258517
0.000252873
0.00024747
0.000242292
0.000237325
0.000232555
0.000227972
0.000223564
0.000219322
0.000215236
0.000211299
0.000207501
0.000203835
0.000200293
0.00019687
0.000193559
0.000190355
0.000187254
0.00018425
0.000181339
0.000178518
0.000175783
0.00017313
0.000170557
0.000168059
0.000165634
0.000163279
0.000160989
0.000158762
0.000156596
0.000154487
0.000152433
0.000150432
0.000148482
0.000146581
0.000144727
0.000142919
0.000141155
0.000139434
0.000137753
0.000136113
0.000134512
0.000132948
0.000131421
0.00012993
0.000128474
0.00012705
0.000125657
0.000270609
0.000264423
0.000258517
0.000252873
0.00024747
0.000242292
0.000237325
0.000232556
0.000227972
0.000223564
0.000219322
0.000215236
0.000211299
0.000207501
0.000203835
0.000200293
0.00019687
0.000193558
0.000190354
0.000187251
0.000184247
0.000181336
0.000178515
0.00017578
0.000173127
0.000170554
0.000168056
0.000165631
0.000163276
0.000160986
0.000158759
0.000156592
0.000154483
0.000152429
0.000150427
0.000148476
0.000146573
0.000144718
0.000142908
0.000141143
0.000139419
0.000137737
0.000136093
0.000134489
0.000132922
0.000131391
0.000129896
0.000128435
0.000127006
0.000125609
0.000270609
0.000264423
0.000258518
0.000252873
0.00024747
0.000242292
0.000237324
0.000232553
0.000227969
0.00022356
0.000219317
0.000215231
0.000211293
0.000207495
0.000203828
0.000200285
0.00019686
0.000193548
0.000190342
0.000187239
0.000184234
0.000181322
0.000178501
0.000175765
0.000173112
0.000170539
0.000168041
0.000165616
0.000163259
0.000160969
0.000158742
0.000156575
0.000154466
0.000152412
0.000150409
0.000148458
0.000146554
0.000144698
0.000142887
0.00014112
0.000139395
0.00013771
0.000136064
0.000134457
0.000132887
0.000131354
0.000129855
0.00012839
0.000126958
0.000125557
0.000270609
0.000264423
0.000258518
0.000252873
0.00024747
0.000242291
0.000237322
0.000232551
0.000227967
0.000223559
0.000219317
0.000215232
0.000211295
0.000207498
0.000203832
0.00020029
0.000196866
0.000193555
0.00019035
0.000187248
0.000184243
0.000181332
0.000178511
0.000175776
0.000173123
0.00017055
0.000168052
0.000165626
0.00016327
0.000160979
0.000158752
0.000156585
0.000154475
0.000152419
0.000150416
0.000148463
0.000146558
0.0001447
0.000142887
0.000141117
0.000139389
0.000137701
0.000136052
0.000134441
0.000132868
0.00013133
0.000129827
0.000128358
0.000126921
0.000125514
0.000270609
0.000264423
0.000258517
0.000252871
0.000247466
0.000242284
0.000237312
0.000232538
0.00022795
0.000223539
0.000219294
0.000215206
0.000211267
0.000207466
0.000203797
0.000200253
0.000196826
0.000193512
0.000190306
0.000187202
0.000184196
0.000181284
0.000178462
0.000175726
0.000173073
0.000170499
0.000168
0.000165574
0.000163217
0.000160927
0.0001587
0.000156533
0.000154423
0.000152368
0.000150365
0.000148412
0.000146507
0.000144649
0.000142835
0.000141065
0.000139336
0.000137647
0.000135997
0.000134385
0.00013281
0.000131271
0.000129766
0.000128294
0.000126854
0.000125445
0.000270609
0.000264423
0.000258516
0.000252869
0.000247463
0.000242282
0.000237312
0.00023254
0.000227955
0.000223547
0.000219306
0.000215222
0.000211285
0.000207488
0.000203821
0.000200278
0.000196853
0.00019354
0.000190335
0.000187232
0.000184226
0.000181314
0.000178492
0.000175755
0.000173101
0.000170526
0.000168027
0.000165599
0.000163241
0.000160949
0.00015872
0.000156551
0.000154439
0.000152382
0.000150377
0.000148421
0.000146513
0.000144652
0.000142835
0.000141061
0.000139329
0.000137636
0.000135983
0.000134367
0.000132788
0.000131244
0.000129734
0.000128257
0.000126811
0.000125395
0.00027061
0.00026442
0.000258506
0.00025285
0.000247433
0.000242239
0.000237256
0.000232473
0.000227877
0.000223459
0.000219209
0.000215117
0.000211174
0.000207371
0.000203699
0.000200153
0.000196725
0.00019341
0.000190203
0.000187099
0.000184093
0.000181182
0.00017836
0.000175624
0.000172972
0.000170398
0.000167899
0.000165473
0.000163116
0.000160826
0.000158599
0.000156431
0.000154321
0.000152266
0.000150262
0.000148307
0.000146401
0.000144541
0.000142725
0.000140952
0.000139221
0.000137529
0.000135876
0.000134261
0.000132682
0.000131138
0.000129628
0.00012815
0.000126703
0.000125285
0.00027061
0.000264419
0.000258508
0.000252858
0.00024745
0.000242266
0.000237293
0.000232517
0.000227928
0.000223516
0.000219269
0.000215179
0.000211237
0.000207432
0.000203759
0.000200209
0.000196777
0.000193458
0.000190247
0.000187138
0.000184128
0.000181211
0.000178385
0.000175645
0.000172987
0.000170408
0.000167905
0.000165473
0.000163112
0.000160816
0.000158584
0.000156412
0.000154297
0.000152237
0.000150229
0.000148271
0.000146361
0.000144497
0.000142678
0.000140902
0.000139167
0.000137473
0.000135818
0.000134202
0.000132622
0.000131078
0.000129568
0.000128091
0.000126647
0.000125234
0.00027061
0.000264374
0.000258409
0.000252707
0.000247251
0.000242028
0.000237022
0.000232223
0.000227616
0.000223191
0.000218937
0.000214843
0.000210899
0.000207097
0.000203427
0.000199883
0.000196459
0.000193149
0.000189948
0.00018685
0.000183852
0.000180949
0.000178136
0.00017541
0.000172767
0.000170203
0.000167715
0.000165299
0.000162953
0.000160674
0.000158459
0.000156304
0.000154207
0.000152165
0.000150175
0.000148237
0.000146347
0.000144505
0.000142708
0.000140956
0.000139248
0.000137583
0.000135959
0.000134377
0.000132836
0.000131336
0.000129877
0.000128461
0.00012709
0.000125769
0.000270618
0.000264404
0.000258479
0.000252814
0.000247399
0.000242221
0.000237277
0.00023255
0.000228028
0.000223698
0.000219547
0.000215563
0.000211735
0.000208054
0.00020451
0.000201096
0.000197805
0.000194631
0.000191568
0.00018861
0.000185753
0.000182992
0.000180322
0.000177739
0.00017524
0.00017282
0.000170476
0.000168205
0.000166004
0.00016387
0.000161801
0.000159793
0.000157844
0.00015595
0.00015411
0.000152322
0.000150585
0.000148898
0.000147259
0.00014567
0.000144129
0.000142637
0.000141196
0.000139806
0.00013847
0.000137192
0.000135976
0.000134832
0.000133777
0.000132845
0.00027257
0.000269205
0.000265987
0.000262901
0.000259929
0.000257058
0.000254268
0.000251556
0.000248917
0.000246348
0.000243847
0.000241409
0.000239032
0.000236715
0.000234455
0.000232251
0.000230101
0.000228004
0.000225958
0.000223962
0.000222015
0.000220114
0.000218259
0.000216448
0.00021468
0.000212953
0.000211265
0.000209617
0.000208005
0.00020643
0.00020489
0.000203383
0.000201907
0.000200462
0.000199046
0.000197658
0.000196298
0.000194965
0.000193657
0.000192374
0.000191114
0.000189878
0.000188662
0.000187467
0.000186291
0.000185132
0.000183987
0.000182856
0.000181733
0.000180615
0.000171101
7.81913e-05
7.79435e-05
8.68209e-05
9.17846e-05
9.09453e-05
8.47174e-05
7.49715e-05
6.43341e-05
5.52793e-05
4.88617e-05
4.50802e-05
4.39919e-05
4.98317e-05
5.55953e-05
5.77318e-05
5.74424e-05
5.69055e-05
5.87771e-05
0.000119964
0.000169758
7.74023e-05
7.77018e-05
8.66597e-05
9.16504e-05
9.07797e-05
8.44498e-05
7.45523e-05
6.37734e-05
5.46546e-05
4.82322e-05
4.44303e-05
4.33929e-05
4.95761e-05
5.54674e-05
5.76524e-05
5.74196e-05
5.69877e-05
5.89829e-05
0.00012007
0.000168409
7.66615e-05
7.74667e-05
8.64921e-05
9.15102e-05
9.06155e-05
8.4195e-05
7.41576e-05
6.3248e-05
5.40737e-05
4.76535e-05
4.38359e-05
4.26111e-05
4.87998e-05
5.49958e-05
5.74248e-05
5.73116e-05
5.69399e-05
5.90257e-05
0.000120797
0.000167071
7.59631e-05
7.72381e-05
8.63209e-05
9.13672e-05
9.04545e-05
8.39522e-05
7.37847e-05
6.27537e-05
5.35316e-05
4.71229e-05
4.33177e-05
4.20821e-05
4.80848e-05
5.45324e-05
5.71968e-05
5.72017e-05
5.6891e-05
5.90708e-05
0.000121563
0.000165734
7.53094e-05
7.70169e-05
8.61476e-05
9.12225e-05
9.02966e-05
8.37201e-05
7.343e-05
6.22833e-05
5.30163e-05
4.6619e-05
4.28184e-05
4.16278e-05
4.74067e-05
5.40754e-05
5.69678e-05
5.70898e-05
5.68405e-05
5.91176e-05
0.000122369
0.000164399
7.46987e-05
7.68036e-05
8.59743e-05
9.10774e-05
9.01422e-05
8.34979e-05
7.30911e-05
6.18327e-05
5.25224e-05
4.61363e-05
4.23291e-05
4.11624e-05
4.67483e-05
5.36232e-05
5.6737e-05
5.69753e-05
5.67881e-05
5.91658e-05
0.000123212
0.000163065
7.41266e-05
7.65988e-05
8.58027e-05
9.09335e-05
8.99917e-05
8.32839e-05
7.27641e-05
6.1396e-05
5.20429e-05
4.56675e-05
4.1843e-05
4.06674e-05
4.61058e-05
5.31769e-05
5.65049e-05
5.68582e-05
5.67338e-05
5.92153e-05
0.000124091
0.000161731
7.3588e-05
7.64029e-05
8.56343e-05
9.07919e-05
8.98453e-05
8.30768e-05
7.24461e-05
6.09692e-05
5.15738e-05
4.52093e-05
4.13587e-05
4.01666e-05
4.54867e-05
5.27392e-05
5.62723e-05
5.67389e-05
5.66778e-05
5.92665e-05
0.000125006
0.000160399
7.30795e-05
7.62165e-05
8.54708e-05
9.06539e-05
8.97029e-05
8.28751e-05
7.2135e-05
6.05503e-05
5.1114e-05
4.47616e-05
4.08775e-05
3.96915e-05
4.49005e-05
5.23133e-05
5.60406e-05
5.66181e-05
5.66205e-05
5.93197e-05
0.000125954
0.000159065
7.25988e-05
7.60405e-05
8.53135e-05
9.05202e-05
8.95641e-05
8.26775e-05
7.18292e-05
6.01383e-05
5.0664e-05
4.4326e-05
4.03996e-05
3.92498e-05
4.43504e-05
5.19011e-05
5.58106e-05
5.64962e-05
5.65623e-05
5.93752e-05
0.000126936
0.000157731
7.21443e-05
7.58758e-05
8.51637e-05
9.03912e-05
8.94286e-05
8.24831e-05
7.1528e-05
5.97338e-05
5.02249e-05
4.39038e-05
3.99226e-05
3.88238e-05
4.38326e-05
5.15031e-05
5.55828e-05
5.63736e-05
5.65035e-05
5.94333e-05
0.00012795
0.000156397
7.17137e-05
7.57229e-05
8.50221e-05
9.02671e-05
8.92962e-05
8.22918e-05
7.12322e-05
5.93385e-05
4.97996e-05
4.34976e-05
3.94459e-05
3.83918e-05
4.33415e-05
5.11192e-05
5.53577e-05
5.62507e-05
5.64443e-05
5.94942e-05
0.000128995
0.000155063
7.13051e-05
7.55819e-05
8.48888e-05
9.01482e-05
8.9167e-05
8.21045e-05
7.09437e-05
5.89555e-05
4.93918e-05
4.31113e-05
3.89726e-05
3.79476e-05
4.28741e-05
5.07492e-05
5.51354e-05
5.61276e-05
5.63847e-05
5.95581e-05
0.000130071
0.000153729
7.09172e-05
7.54525e-05
8.47639e-05
9.00346e-05
8.90419e-05
8.19226e-05
7.06653e-05
5.85888e-05
4.90055e-05
4.2749e-05
3.85076e-05
3.75024e-05
4.24298e-05
5.03931e-05
5.49164e-05
5.60045e-05
5.63251e-05
5.96254e-05
0.000131178
0.000152395
7.05499e-05
7.53345e-05
8.46476e-05
8.99268e-05
8.8922e-05
8.17481e-05
7.04e-05
5.8242e-05
4.86444e-05
4.24139e-05
3.80541e-05
3.70642e-05
4.20079e-05
5.00509e-05
5.47009e-05
5.58816e-05
5.62656e-05
5.96964e-05
0.000132314
0.000151058
7.02045e-05
7.52278e-05
8.45399e-05
8.98254e-05
8.8808e-05
8.15825e-05
7.01501e-05
5.79184e-05
4.83113e-05
4.21083e-05
3.76136e-05
3.66236e-05
4.16064e-05
4.97229e-05
5.44894e-05
5.57594e-05
5.62067e-05
5.97713e-05
0.00013348
0.00014972
6.98827e-05
7.51323e-05
8.44409e-05
8.97305e-05
8.87006e-05
8.14268e-05
6.99176e-05
5.76207e-05
4.80089e-05
4.18346e-05
3.7191e-05
3.61672e-05
4.12245e-05
4.94099e-05
5.42829e-05
5.56385e-05
5.61484e-05
5.98504e-05
0.000134676
0.00014838
6.95867e-05
7.50478e-05
8.43504e-05
8.96416e-05
8.85993e-05
8.12815e-05
6.97043e-05
5.73519e-05
4.77405e-05
4.15967e-05
3.67987e-05
3.56971e-05
4.08647e-05
4.91137e-05
5.40827e-05
5.5519e-05
5.60908e-05
5.99335e-05
0.000135899
0.000147039
6.9318e-05
7.49741e-05
8.42677e-05
8.95584e-05
8.85041e-05
8.11475e-05
6.95123e-05
5.71155e-05
4.75103e-05
4.14002e-05
3.64551e-05
3.52357e-05
4.05311e-05
4.88357e-05
5.38894e-05
5.5401e-05
5.60334e-05
6.00203e-05
0.00013715
0.000145696
6.90782e-05
7.49105e-05
8.41924e-05
8.94801e-05
8.84149e-05
8.10259e-05
6.93445e-05
5.69159e-05
4.73228e-05
4.12509e-05
3.61786e-05
3.48097e-05
4.0226e-05
4.85765e-05
5.37031e-05
5.52841e-05
5.59758e-05
6.01108e-05
0.000138428
0.000144353
6.8869e-05
7.48566e-05
8.41239e-05
8.94066e-05
8.83324e-05
8.09187e-05
6.9204e-05
5.67576e-05
4.71826e-05
4.11533e-05
3.59811e-05
3.44312e-05
3.99477e-05
4.83353e-05
5.35236e-05
5.5168e-05
5.5918e-05
6.02052e-05
0.000139732
0.00014301
6.86919e-05
7.48119e-05
8.40617e-05
8.93378e-05
8.8257e-05
8.08278e-05
6.90938e-05
5.66447e-05
4.70931e-05
4.11098e-05
3.58674e-05
3.40863e-05
3.96912e-05
4.8111e-05
5.33505e-05
5.50528e-05
5.58602e-05
6.03039e-05
0.000141062
0.000141668
6.85478e-05
7.47757e-05
8.40049e-05
8.92731e-05
8.81893e-05
8.0755e-05
6.90165e-05
5.65808e-05
4.70572e-05
4.11215e-05
3.58363e-05
3.37452e-05
3.94518e-05
4.7903e-05
5.31841e-05
5.49389e-05
5.5803e-05
6.04075e-05
0.000142419
0.000140327
6.84371e-05
7.47469e-05