/*--------------------------------*- C++ -*----------------------------------*\
  =========                 |
  \\      /  F ield         | OpenFOAM: The Open Source CFD Toolbox
   \\    /   O peration     | Website:  https://openfoam.org
    \\  /    A nd           | Version:  8
     \\/     M anipulation  |
\*---------------------------------------------------------------------------*/
FoamFile
{
    version     2.0;
    format      ascii;
    class       volScalarField;
    location    "600";
    object      p;
}
// * * * * * * * * * * * * * * * * * * * * * * * * * * * * * * * * * * * * * //

dimensions      [1 -1 -2 0 0 0 0];

internalField   nonuniform List<scalar> 
8400
(
38474.7
72024.7
106158
139196
171052
201582
230714
258429
284747
309708
333366
355785
377039
397210
416382
434640
452055
468698
484612
499854
514466
528485
541954
554912
567400
579464
591147
602486
613524
624307
634873
645263
655525
665712
675886
686115
696475
707063
717994
729403
741455
754347
768337
783792
801187
821001
843846
871700
909616
960764
36590.5
69936.5
104159
137355
169338
199947
229114
256827
283113
308019
331607
353943
375108
395187
414270
432441
449767
466317
482138
497277
511779
525685
539034
551865
564216
576128
587637
598787
609616
620163
630461
640551
650477
660291
670049
679811
689643
699624
709847
720426
731491
743178
755669
769216
784104
800601
819005
840216
866464
899463
39556.7
74510.9
109616
143345
175667
206480
235753
263503
289776
314637
338160
360428
381532
401563
420615
438767
456090
472643
488478
503650
518204
532183
545625
558567
571046
583107
594790
606135
617181
627966
638529
648914
659176
669374
679568
689823
700210
710807
721709
733035
744910
757472
770896
785393
801200
818556
837701
859062
883297
910174
36266.7
71114.1
106634
140815
173441
204397
233679
261339
287449
312104
335394
357422
378286
398078
416893
434799
451871
468166
483736
498634
512900
526578
539707
552319
564450
576139
587421
598332
608908
619180
629183
638963
648574
658067
667491
676902
686354
695909
705650
715669
726059
736937
748436
760711
773946
788343
804125
821545
840843
862083
39840.3
77313.6
114298
149350
182482
213695
243070
270712
296741
321285
344457
366371
387139
406850
425596
443443
460469
476733
492285
507181
521468
535187
548374
561068
573305
585123
596558
607646
618417
628904
639147
649195
659097
668901
678654
688399
698180
708055
718095
728362
738929
749879
761289
773256
785888
799284
813536
828715
844828
861895
36918.4
75181.1
113060
148733
182157
213411
242661
270082
295840
320090
342968
364593
385078
404512
422977
440540
457274
473238
488485
503068
517032
530419
543266
555610
567489
578938
589993
600683
611037
621089
630882
640459
649867
659152
668355
677508
686660
695872
705193
714685
724417
734445
744839
755683
767040
778978
791549
804682
818235
832306
39861.9
81336.6
120753
157129
190796
222041
251152
278375
303919
327960
350648
372107
392439
411740
430083
447536
464172
480052
495228
509752
523669
537022
549848
562188
574078
585550
596636
607362
617758
627860
637705
647333
656787
666105
675316
684452
693564
702691
711874
721169
730615
740255
750149
760344
770888
781825
793172
804866
816717
828734
38886.7
82327.4
122493
159032
192546
223489
252247
279120
304339
328090
350517
371741
391856
410950
429095
446357
462800
478484
493463
507791
521512
534669
547301
559446
571140
582414
593297
603817
614006
623897
633528
642935
652159
661232
670187
679064
687902
696739
705625
714593
723682
732934
742385
752076
762026
772260
782766
793478
804173
814820
42713.3
88821.1
128926
165141
198219
228715
257069
283603
308545
332072
354324
375410
395420
414432
432510
449718
466115
481757
496694
510979
524658
537774
550368
562476
574135
585374
596224
606714
616877
626743
636345
645714
654885
663888
672764
681543
690259
698955
707666
716429
725282
734257
743392
752718
762262
772031
782025
792190
802353
812394
47386.7
94477.9
132715
168315
200855
230819
258730
284912
309575
332878
354950
375891
395784
414699
432695
449830
466160
481736
496606
510825
524438
537488
550016
562062
573660
584841
595633
606071
616185
626007
635560
644873
653980
662920
671729
680440
689087
697710
706346
715034
723806
732694
741735
750956
760384
770022
779863
789854
799880
809723
42622.6
93445.9
133335
168983
201513
231412
259242
285349
309948
333201
355236
376153
396031
414935
432927
450061
466387
481957
496819
511028
524630
537670
550192
562233
573830
585013
595812
606257
616381
626210
635770
645087
654194
663131
671936
680641
689281
697897
706530
715216
723991
732887
741940
751177
760620
770279
780138
790149
800208
810072
30709.3
87925.6
131050
166926
199598
229716
257648
283766
308337
331547
353537
374418
394268
413157
431140
448269
464593
480160
495020
509224
522822
535863
548391
560448
572070
583290
594138
604642
614829
624726
634353
643735
652903
661893
670742
679483
688154
696794
705446
714150
722942
731858
740936
750208
759693
769400
779310
789372
799470
809354
26188.3
79262.6
126429
164841
198644
229693
258375
284937
309717
332997
354996
375875
395752
414702
432776
450010
466430
482060
496930
511082
524573
537467
549833
561741
573254
584425
595298
605908
616279
626426
636359
646083
655606
664943
674109
683128
692034
700867
709675
718504
727400
736411
745576
754927
764476
774222
784122
794087
803982
813520
2641.07
56487.7
107734
148644
183423
215093
244307
271173
296004
319160
340978
361725
381581
400664
419025
436659
453543
469641
484929
499415
513136
526166
538602
550550
562118
573399
584472
595393
606197
616899
627494
637960
648270
658400
668330
678058
687604
697004
706309
715574
724863
734235
743742
753407
763232
773190
783222
793203
802967
812191
17319.4
62333.9
115325
159352
195703
228169
257860
284803
309238
331608
352390
371994
390748
408885
426514
443653
460248
476203
491424
505849
519468
532324
544511
556151
567378
578328
589120
599853
610600
621395
632238
643094
653907
664605
675126
685426
695498
705363
715072
724698
734321
744017
753847
763833
773959
784140
794256
804123
813470
821834
-35570.2
19403.8
76904.9
122683
160322
194133
225248
253514
278986
302045
323173
342863
361557
379615
397279
414649
431709
448360
464467
479912
494618
508572
521821
534455
546597
558388
569975
581499
593075
604779
616641
628638
640695
652695
664516
676062
687281
698174
708792
719227
729582
739975
750481
761122
771879
782645
793218
803331
812598
820491
19036.5
57782.8
113973
160410
196550
227952
256580
282513
305827
326847
345969
363590
380116
395951
411414
426695
441857
456860
471600
485952
499819
513156
525983
538360
550371
562119
573738
585382
597203
609313
621764
634528
647490
660469
673255
685666
697581
708974
719905
730509
740950
751385
761945
772672
783530
794393
804981
814891
823417
829093
-78557.5
-8898.36
64107.8
117738
158256
192060
221678
248005
271653
293154
312934
331353
348746
365448
381755
397833
413713
429376
444771
459773
474228
488081
501417
514389
527126
539716
552268
564971
578069
591770
606159
621161
636562
652042
667237
681797
695466
708135
719890
730968
741687
752317
763078
774049
785165
796231
806896
816709
824993
830661
6767.47
50514
105069
153595
191795
221642
245733
266002
283789
300029
315384
330325
345211
360361
376011
392088
408248
424262
440058
455399
469871
483261
495750
507707
519455
531189
543051
555311
568412
582785
598638
615869
634072
652624
670818
687989
703638
717543
729819
740871
751275
761605
772293
783530
795287
807288
819111
830351
840603
850205
37819.3
84936
130667
173571
208931
236634
258338
275859
290692
303968
316531
329047
342084
356125
371460
387933
404947
422028
438955
455320
470515
484260
496817
508620
520005
531220
542547
554430
567454
582151
598823
617407
637404
657949
678018
696686
713304
727666
739988
750831
760917
770963
781526
792852
804838
817040
828791
839524
849042
856051
4.31041e+06
4.30989e+06
4.30964e+06
4.30954e+06
4.30948e+06
4.30943e+06
4.30939e+06
4.30936e+06
4.30933e+06
4.3093e+06
4.30927e+06
4.30925e+06
4.30922e+06
4.3092e+06
4.30917e+06
4.30915e+06
4.30913e+06
4.3091e+06
4.30908e+06
4.30907e+06
4.30905e+06
4.30904e+06
4.30902e+06
4.30901e+06
4.309e+06
4.30898e+06
4.30897e+06
4.30896e+06
4.30895e+06
4.30893e+06
4.30892e+06
4.30891e+06
4.3089e+06
4.30888e+06
4.30887e+06
4.30886e+06
4.30884e+06
4.30882e+06
4.3088e+06
4.30878e+06
4.30875e+06
4.30872e+06
4.30868e+06
4.30864e+06
4.30859e+06
4.30853e+06
4.30846e+06
4.30839e+06
4.30829e+06
4.30817e+06
4.30871e+06
4.309e+06
4.30909e+06
4.30912e+06
4.30914e+06
4.30914e+06
4.30915e+06
4.30914e+06
4.30913e+06
4.30912e+06
4.30911e+06
4.30909e+06
4.30907e+06
4.30905e+06
4.30903e+06
4.30901e+06
4.30899e+06
4.30898e+06
4.30896e+06
4.30894e+06
4.30893e+06
4.30892e+06
4.3089e+06
4.30889e+06
4.30888e+06
4.30887e+06
4.30886e+06
4.30885e+06
4.30884e+06
4.30882e+06
4.30881e+06
4.3088e+06
4.30879e+06
4.30878e+06
4.30877e+06
4.30875e+06
4.30874e+06
4.30872e+06
4.3087e+06
4.30868e+06
4.30865e+06
4.30862e+06
4.30858e+06
4.30854e+06
4.30849e+06
4.30844e+06
4.30837e+06
4.3083e+06
4.30821e+06
4.30811e+06
4.30907e+06
4.30921e+06
4.30928e+06
4.30928e+06
4.30926e+06
4.30924e+06
4.30921e+06
4.30919e+06
4.30916e+06
4.30913e+06
4.3091e+06
4.30908e+06
4.30905e+06
4.30902e+06
4.309e+06
4.30897e+06
4.30895e+06
4.30892e+06
4.3089e+06
4.30888e+06
4.30887e+06
4.30885e+06
4.30884e+06
4.30882e+06
4.30881e+06
4.3088e+06
4.30878e+06
4.30877e+06
4.30876e+06
4.30875e+06
4.30873e+06
4.30872e+06
4.30871e+06
4.3087e+06
4.30868e+06
4.30867e+06
4.30866e+06
4.30864e+06
4.30862e+06
4.3086e+06
4.30857e+06
4.30854e+06
4.3085e+06
4.30846e+06
4.30842e+06
4.30837e+06
4.30831e+06
4.30824e+06
4.30817e+06
4.30808e+06
4.309e+06
4.30902e+06
4.30903e+06
4.30902e+06
4.309e+06
4.30899e+06
4.30898e+06
4.30896e+06
4.30895e+06
4.30893e+06
4.30891e+06
4.30889e+06
4.30887e+06
4.30885e+06
4.30883e+06
4.30881e+06
4.30879e+06
4.30877e+06
4.30876e+06
4.30874e+06
4.30873e+06
4.30871e+06
4.3087e+06
4.30869e+06
4.30868e+06
4.30867e+06
4.30866e+06
4.30865e+06
4.30864e+06
4.30863e+06
4.30862e+06
4.3086e+06
4.30859e+06
4.30858e+06
4.30857e+06
4.30856e+06
4.30855e+06
4.30853e+06
4.30852e+06
4.3085e+06
4.30847e+06
4.30844e+06
4.30841e+06
4.30837e+06
4.30833e+06
4.30828e+06
4.30823e+06
4.30817e+06
4.30811e+06
4.30804e+06
4.30893e+06
4.30895e+06
4.30896e+06
4.30897e+06
4.30897e+06
4.30897e+06
4.30896e+06
4.30894e+06
4.30893e+06
4.30891e+06
4.30889e+06
4.30887e+06
4.30884e+06
4.30882e+06
4.30879e+06
4.30877e+06
4.30875e+06
4.30872e+06
4.3087e+06
4.30869e+06
4.30867e+06
4.30866e+06
4.30864e+06
4.30863e+06
4.30862e+06
4.3086e+06
4.30859e+06
4.30858e+06
4.30857e+06
4.30855e+06
4.30854e+06
4.30853e+06
4.30852e+06
4.30851e+06
4.3085e+06
4.30849e+06
4.30848e+06
4.30846e+06
4.30844e+06
4.30842e+06
4.3084e+06
4.30837e+06
4.30834e+06
4.30831e+06
4.30827e+06
4.30823e+06
4.30818e+06
4.30813e+06
4.30808e+06
4.30802e+06
4.30885e+06
4.30885e+06
4.30885e+06
4.30885e+06
4.30884e+06
4.30883e+06
4.30882e+06
4.3088e+06
4.30878e+06
4.30876e+06
4.30874e+06
4.30872e+06
4.3087e+06
4.30867e+06
4.30865e+06
4.30863e+06
4.30861e+06
4.30859e+06
4.30857e+06
4.30855e+06
4.30854e+06
4.30852e+06
4.30851e+06
4.3085e+06
4.30849e+06
4.30848e+06
4.30847e+06
4.30846e+06
4.30845e+06
4.30843e+06
4.30842e+06
4.30842e+06
4.30841e+06
4.3084e+06
4.30839e+06
4.30838e+06
4.30837e+06
4.30836e+06
4.30834e+06
4.30832e+06
4.3083e+06
4.30828e+06
4.30825e+06
4.30822e+06
4.30819e+06
4.30815e+06
4.30811e+06
4.30807e+06
4.30802e+06
4.30798e+06
4.30875e+06
4.30876e+06
4.30876e+06
4.30876e+06
4.30875e+06
4.30874e+06
4.30873e+06
4.30872e+06
4.30871e+06
4.30869e+06
4.30867e+06
4.30865e+06
4.30863e+06
4.30861e+06
4.30858e+06
4.30856e+06
4.30854e+06
4.30852e+06
4.3085e+06
4.30848e+06
4.30847e+06
4.30845e+06
4.30844e+06
4.30843e+06
4.30842e+06
4.30841e+06
4.30839e+06
4.30838e+06
4.30837e+06
4.30836e+06
4.30835e+06
4.30834e+06
4.30833e+06
4.30832e+06
4.30832e+06
4.30831e+06
4.3083e+06
4.30829e+06
4.30827e+06
4.30826e+06
4.30824e+06
4.30822e+06
4.30819e+06
4.30816e+06
4.30813e+06
4.3081e+06
4.30807e+06
4.30803e+06
4.30799e+06
4.30796e+06
4.30866e+06
4.30866e+06
4.30866e+06
4.30866e+06
4.30865e+06
4.30864e+06
4.30863e+06
4.30861e+06
4.3086e+06
4.30858e+06
4.30856e+06
4.30854e+06
4.30851e+06
4.30849e+06
4.30847e+06
4.30844e+06
4.30842e+06
4.3084e+06
4.30838e+06
4.30837e+06
4.30835e+06
4.30834e+06
4.30832e+06
4.30831e+06
4.3083e+06
4.30829e+06
4.30828e+06
4.30827e+06
4.30826e+06
4.30825e+06
4.30824e+06
4.30823e+06
4.30822e+06
4.30822e+06
4.30821e+06
4.30821e+06
4.3082e+06
4.30819e+06
4.30818e+06
4.30816e+06
4.30815e+06
4.30813e+06
4.30811e+06
4.30809e+06
4.30806e+06
4.30804e+06
4.30801e+06
4.30798e+06
4.30795e+06
4.30792e+06
4.30856e+06
4.30856e+06
4.30856e+06
4.30856e+06
4.30855e+06
4.30854e+06
4.30853e+06
4.30852e+06
4.3085e+06
4.30849e+06
4.30847e+06
4.30845e+06
4.30843e+06
4.3084e+06
4.30838e+06
4.30836e+06
4.30834e+06
4.30832e+06
4.3083e+06
4.30828e+06
4.30827e+06
4.30825e+06
4.30824e+06
4.30823e+06
4.30822e+06
4.3082e+06
4.30819e+06
4.30818e+06
4.30817e+06
4.30816e+06
4.30816e+06
4.30815e+06
4.30814e+06
4.30814e+06
4.30813e+06
4.30813e+06
4.30812e+06
4.30811e+06
4.3081e+06
4.30809e+06
4.30808e+06
4.30806e+06
4.30805e+06
4.30803e+06
4.30801e+06
4.30799e+06
4.30796e+06
4.30794e+06
4.30792e+06
4.30789e+06
4.30847e+06
4.30846e+06
4.30846e+06
4.30846e+06
4.30845e+06
4.30844e+06
4.30843e+06
4.30842e+06
4.3084e+06
4.30839e+06
4.30837e+06
4.30835e+06
4.30833e+06
4.3083e+06
4.30828e+06
4.30826e+06
4.30824e+06
4.30822e+06
4.3082e+06
4.30818e+06
4.30816e+06
4.30815e+06
4.30814e+06
4.30812e+06
4.30811e+06
4.3081e+06
4.30809e+06
4.30808e+06
4.30807e+06
4.30806e+06
4.30806e+06
4.30805e+06
4.30805e+06
4.30804e+06
4.30804e+06
4.30803e+06
4.30803e+06
4.30802e+06
4.30801e+06
4.30801e+06
4.308e+06
4.30798e+06
4.30797e+06
4.30796e+06
4.30794e+06
4.30793e+06
4.30791e+06
4.30789e+06
4.30787e+06
4.30786e+06
4.30837e+06
4.30837e+06
4.30836e+06
4.30836e+06
4.30835e+06
4.30835e+06
4.30834e+06
4.30832e+06
4.30831e+06
4.30829e+06
4.30827e+06
4.30825e+06
4.30823e+06
4.30821e+06
4.30818e+06
4.30816e+06
4.30814e+06
4.30812e+06
4.3081e+06
4.30808e+06
4.30807e+06
4.30805e+06
4.30804e+06
4.30803e+06
4.30801e+06
4.308e+06
4.30799e+06
4.30798e+06
4.30798e+06
4.30797e+06
4.30796e+06
4.30796e+06
4.30795e+06
4.30795e+06
4.30795e+06
4.30795e+06
4.30794e+06
4.30794e+06
4.30793e+06
4.30793e+06
4.30792e+06
4.30791e+06
4.3079e+06
4.30789e+06
4.30788e+06
4.30787e+06
4.30786e+06
4.30785e+06
4.30784e+06
4.30782e+06
4.30827e+06
4.30827e+06
4.30827e+06
4.30826e+06
4.30826e+06
4.30825e+06
4.30824e+06
4.30823e+06
4.30821e+06
4.30819e+06
4.30818e+06
4.30816e+06
4.30814e+06
4.30811e+06
4.30809e+06
4.30807e+06
4.30805e+06
4.30803e+06
4.30801e+06
4.30799e+06
4.30798e+06
4.30796e+06
4.30795e+06
4.30793e+06
4.30792e+06
4.30791e+06
4.3079e+06
4.30789e+06
4.30789e+06
4.30788e+06
4.30787e+06
4.30787e+06
4.30787e+06
4.30787e+06
4.30786e+06
4.30786e+06
4.30786e+06
4.30786e+06
4.30785e+06
4.30785e+06
4.30784e+06
4.30784e+06
4.30783e+06
4.30783e+06
4.30782e+06
4.30781e+06
4.30781e+06
4.3078e+06
4.3078e+06
4.30779e+06
4.30817e+06
4.30817e+06
4.30817e+06
4.30816e+06
4.30816e+06
4.30815e+06
4.30814e+06
4.30813e+06
4.30811e+06
4.30809e+06
4.30807e+06
4.30805e+06
4.30803e+06
4.30801e+06
4.30799e+06
4.30796e+06
4.30794e+06
4.30792e+06
4.3079e+06
4.30788e+06
4.30787e+06
4.30785e+06
4.30784e+06
4.30782e+06
4.30781e+06
4.3078e+06
4.30779e+06
4.30779e+06
4.30778e+06
4.30777e+06
4.30777e+06
4.30777e+06
4.30777e+06
4.30777e+06
4.30777e+06
4.30777e+06
4.30776e+06
4.30776e+06
4.30776e+06
4.30776e+06
4.30776e+06
4.30776e+06
4.30775e+06
4.30775e+06
4.30775e+06
4.30775e+06
4.30775e+06
4.30775e+06
4.30775e+06
4.30775e+06
4.30806e+06
4.30807e+06
4.30807e+06
4.30807e+06
4.30806e+06
4.30806e+06
4.30805e+06
4.30804e+06
4.30802e+06
4.30801e+06
4.30799e+06
4.30797e+06
4.30795e+06
4.30793e+06
4.30791e+06
4.30789e+06
4.30787e+06
4.30785e+06
4.30783e+06
4.30781e+06
4.30779e+06
4.30777e+06
4.30776e+06
4.30775e+06
4.30773e+06
4.30772e+06
4.30771e+06
4.30771e+06
4.3077e+06
4.3077e+06
4.30769e+06
4.30769e+06
4.30769e+06
4.30769e+06
4.30769e+06
4.30769e+06
4.30769e+06
4.30769e+06
4.30769e+06
4.30769e+06
4.30769e+06
4.30769e+06
4.30769e+06
4.30769e+06
4.30769e+06
4.3077e+06
4.3077e+06
4.30771e+06
4.30771e+06
4.30772e+06
4.30796e+06
4.30796e+06
4.30797e+06
4.30797e+06
4.30796e+06
4.30795e+06
4.30794e+06
4.30792e+06
4.3079e+06
4.30789e+06
4.30787e+06
4.30785e+06
4.30782e+06
4.3078e+06
4.30778e+06
4.30776e+06
4.30774e+06
4.30772e+06
4.3077e+06
4.30768e+06
4.30766e+06
4.30765e+06
4.30763e+06
4.30762e+06
4.30761e+06
4.3076e+06
4.30759e+06
4.30759e+06
4.30758e+06
4.30758e+06
4.30758e+06
4.30758e+06
4.30758e+06
4.30758e+06
4.30758e+06
4.30758e+06
4.30758e+06
4.30759e+06
4.30759e+06
4.30759e+06
4.30759e+06
4.3076e+06
4.3076e+06
4.30761e+06
4.30762e+06
4.30762e+06
4.30763e+06
4.30764e+06
4.30766e+06
4.30767e+06
4.30785e+06
4.30786e+06
4.30788e+06
4.30789e+06
4.30789e+06
4.30789e+06
4.30788e+06
4.30787e+06
4.30785e+06
4.30784e+06
4.30782e+06
4.3078e+06
4.30778e+06
4.30775e+06
4.30773e+06
4.30771e+06
4.30769e+06
4.30766e+06
4.30764e+06
4.30762e+06
4.3076e+06
4.30759e+06
4.30757e+06
4.30756e+06
4.30754e+06
4.30753e+06
4.30752e+06
4.30752e+06
4.30751e+06
4.30751e+06
4.30751e+06
4.30751e+06
4.30751e+06
4.30751e+06
4.30751e+06
4.30751e+06
4.30751e+06
4.30751e+06
4.30752e+06
4.30752e+06
4.30752e+06
4.30753e+06
4.30754e+06
4.30755e+06
4.30756e+06
4.30757e+06
4.30758e+06
4.3076e+06
4.30762e+06
4.30764e+06
4.30772e+06
4.30774e+06
4.30775e+06
4.30774e+06
4.30773e+06
4.30771e+06
4.3077e+06
4.30769e+06
4.30768e+06
4.30766e+06
4.30765e+06
4.30763e+06
4.30761e+06
4.30759e+06
4.30758e+06
4.30756e+06
4.30754e+06
4.30752e+06
4.3075e+06
4.30748e+06
4.30746e+06
4.30745e+06
4.30744e+06
4.30742e+06
4.30741e+06
4.30741e+06
4.3074e+06
4.30739e+06
4.30739e+06
4.30739e+06
4.30739e+06
4.30739e+06
4.30739e+06
4.30739e+06
4.3074e+06
4.3074e+06
4.3074e+06
4.30741e+06
4.30741e+06
4.30742e+06
4.30742e+06
4.30743e+06
4.30744e+06
4.30745e+06
4.30747e+06
4.30748e+06
4.3075e+06
4.30752e+06
4.30755e+06
4.30758e+06
4.3076e+06
4.30773e+06
4.3078e+06
4.3078e+06
4.30779e+06
4.30777e+06
4.30774e+06
4.30772e+06
4.3077e+06
4.30767e+06
4.30765e+06
4.30762e+06
4.30759e+06
4.30757e+06
4.30755e+06
4.30752e+06
4.3075e+06
4.30747e+06
4.30745e+06
4.30743e+06
4.30741e+06
4.30739e+06
4.30737e+06
4.30736e+06
4.30735e+06
4.30734e+06
4.30733e+06
4.30732e+06
4.30732e+06
4.30732e+06
4.30732e+06
4.30732e+06
4.30732e+06
4.30732e+06
4.30732e+06
4.30732e+06
4.30733e+06
4.30733e+06
4.30733e+06
4.30734e+06
4.30735e+06
4.30736e+06
4.30737e+06
4.30738e+06
4.3074e+06
4.30742e+06
4.30744e+06
4.30747e+06
4.3075e+06
4.30754e+06
4.30704e+06
4.30733e+06
4.30742e+06
4.30745e+06
4.30747e+06
4.30748e+06
4.30748e+06
4.30748e+06
4.30747e+06
4.30746e+06
4.30745e+06
4.30744e+06
4.30742e+06
4.30741e+06
4.30739e+06
4.30737e+06
4.30735e+06
4.30733e+06
4.30731e+06
4.30729e+06
4.30728e+06
4.30726e+06
4.30725e+06
4.30723e+06
4.30722e+06
4.30722e+06
4.30721e+06
4.30721e+06
4.3072e+06
4.3072e+06
4.3072e+06
4.3072e+06
4.30721e+06
4.30721e+06
4.30721e+06
4.30721e+06
4.30722e+06
4.30722e+06
4.30723e+06
4.30724e+06
4.30724e+06
4.30726e+06
4.30727e+06
4.30728e+06
4.3073e+06
4.30732e+06
4.30735e+06
4.30738e+06
4.30742e+06
4.30747e+06
4.30854e+06
4.30803e+06
4.30777e+06
4.30767e+06
4.30761e+06
4.30756e+06
4.30753e+06
4.3075e+06
4.30747e+06
4.30745e+06
4.30742e+06
4.3074e+06
4.30738e+06
4.30736e+06
4.30733e+06
4.30731e+06
4.30729e+06
4.30726e+06
4.30724e+06
4.30722e+06
4.3072e+06
4.30718e+06
4.30717e+06
4.30716e+06
4.30715e+06
4.30714e+06
4.30713e+06
4.30713e+06
4.30712e+06
4.30712e+06
4.30712e+06
4.30712e+06
4.30712e+06
4.30712e+06
4.30713e+06
4.30713e+06
4.30713e+06
4.30714e+06
4.30714e+06
4.30715e+06
4.30716e+06
4.30717e+06
4.30718e+06
4.3072e+06
4.30722e+06
4.30724e+06
4.30727e+06
4.3073e+06
4.30735e+06
4.30741e+06
4.19522e+06
4.20027e+06
4.20086e+06
4.20475e+06
4.20569e+06
4.2083e+06
4.20916e+06
4.21057e+06
4.21106e+06
4.21158e+06
4.21171e+06
4.21177e+06
4.21177e+06
4.21181e+06
4.21193e+06
4.2124e+06
4.21264e+06
4.21381e+06
4.21398e+06
4.21597e+06
4.19428e+06
4.19932e+06
4.19992e+06
4.20381e+06
4.20477e+06
4.20739e+06
4.20826e+06
4.20968e+06
4.21017e+06
4.2107e+06
4.21082e+06
4.21088e+06
4.21088e+06
4.21092e+06
4.21104e+06
4.21151e+06
4.21175e+06
4.21293e+06
4.21312e+06
4.21519e+06
4.19335e+06
4.1984e+06
4.19901e+06
4.20291e+06
4.20388e+06
4.20651e+06
4.20739e+06
4.20882e+06
4.20931e+06
4.20984e+06
4.20996e+06
4.21003e+06
4.21002e+06
4.21006e+06
4.21017e+06
4.21065e+06
4.21089e+06
4.2121e+06
4.21233e+06
4.21448e+06
4.19244e+06
4.19751e+06
4.19814e+06
4.20204e+06
4.20303e+06
4.20566e+06
4.20655e+06
4.20798e+06
4.20848e+06
4.20901e+06
4.20913e+06
4.20919e+06
4.20918e+06
4.20922e+06
4.20933e+06
4.20981e+06
4.21006e+06
4.21129e+06
4.21154e+06
4.21373e+06
4.19157e+06
4.19664e+06
4.19729e+06
4.20119e+06
4.2022e+06
4.20484e+06
4.20574e+06
4.20718e+06
4.20768e+06
4.2082e+06
4.20832e+06
4.20838e+06
4.20837e+06
4.20841e+06
4.20851e+06
4.20899e+06
4.20924e+06
4.21047e+06
4.21072e+06
4.21294e+06
4.19072e+06
4.1958e+06
4.19647e+06
4.20037e+06
4.2014e+06
4.20404e+06
4.20496e+06
4.2064e+06
4.20689e+06
4.20742e+06
4.20754e+06
4.20759e+06
4.20758e+06
4.20762e+06
4.20771e+06
4.20819e+06
4.20844e+06
4.20968e+06
4.20992e+06
4.21217e+06
4.1899e+06
4.19499e+06
4.19568e+06
4.19958e+06
4.20063e+06
4.20327e+06
4.2042e+06
4.20564e+06
4.20614e+06
4.20666e+06
4.20677e+06
4.20683e+06
4.20681e+06
4.20685e+06
4.20694e+06
4.20742e+06
4.20766e+06
4.20892e+06
4.20916e+06
4.21143e+06
4.18912e+06
4.19422e+06
4.19492e+06
4.19882e+06
4.19989e+06
4.20253e+06
4.20347e+06
4.2049e+06
4.2054e+06
4.20592e+06
4.20603e+06
4.20608e+06
4.20607e+06
4.2061e+06
4.20619e+06
4.20668e+06
4.20692e+06
4.20819e+06
4.20844e+06
4.21073e+06
4.18837e+06
4.19348e+06
4.1942e+06
4.1981e+06
4.19918e+06
4.20181e+06
4.20276e+06
4.20419e+06
4.20469e+06
4.20521e+06
4.20532e+06
4.20537e+06
4.20534e+06
4.20538e+06
4.20547e+06
4.20597e+06
4.20621e+06
4.2075e+06
4.20774e+06
4.21006e+06
4.18767e+06
4.19278e+06
4.19351e+06
4.1974e+06
4.19849e+06
4.20112e+06
4.20207e+06
4.2035e+06
4.204e+06
4.20452e+06
4.20462e+06
4.20467e+06
4.20465e+06
4.20469e+06
4.20477e+06
4.20529e+06
4.20553e+06
4.20683e+06
4.20708e+06
4.20943e+06
4.187e+06
4.19212e+06
4.19286e+06
4.19674e+06
4.19784e+06
4.20046e+06
4.20142e+06
4.20284e+06
4.20334e+06
4.20385e+06
4.20396e+06
4.204e+06
4.20398e+06
4.20402e+06
4.20411e+06
4.20463e+06
4.20488e+06
4.2062e+06
4.20645e+06
4.20882e+06
4.18638e+06
4.19149e+06
4.19225e+06
4.19611e+06
4.19723e+06
4.19983e+06
4.2008e+06
4.20221e+06
4.20272e+06
4.20322e+06
4.20332e+06
4.20336e+06
4.20334e+06
4.20338e+06
4.20347e+06
4.20401e+06
4.20426e+06
4.2056e+06
4.20585e+06
4.20824e+06
4.18579e+06
4.1909e+06
4.19167e+06
4.19552e+06
4.19665e+06
4.19924e+06
4.20021e+06
4.20161e+06
4.20212e+06
4.20262e+06
4.20272e+06
4.20275e+06
4.20273e+06
4.20277e+06
4.20286e+06
4.20341e+06
4.20366e+06
4.20502e+06
4.20528e+06
4.20769e+06
4.18524e+06
4.19035e+06
4.19113e+06
4.19496e+06
4.19611e+06
4.19868e+06
4.19966e+06
4.20105e+06
4.20156e+06
4.20205e+06
4.20215e+06
4.20218e+06
4.20215e+06
4.20219e+06
4.20229e+06
4.20284e+06
4.2031e+06
4.20447e+06
4.20474e+06
4.20717e+06
4.18473e+06
4.18984e+06
4.19063e+06
4.19445e+06
4.19561e+06
4.19817e+06
4.19915e+06
4.20053e+06
4.20104e+06
4.20152e+06
4.20161e+06
4.20164e+06
4.20161e+06
4.20165e+06
4.20175e+06
4.20231e+06
4.20257e+06
4.20396e+06
4.20423e+06
4.20668e+06
4.18426e+06
4.18937e+06
4.19017e+06
4.19398e+06
4.19515e+06
4.19769e+06
4.19868e+06
4.20004e+06
4.20055e+06
4.20102e+06
4.20111e+06
4.20114e+06
4.20111e+06
4.20115e+06
4.20125e+06
4.20182e+06
4.20207e+06
4.20347e+06
4.20374e+06
4.20621e+06
4.18385e+06
4.18895e+06
4.18976e+06
4.19356e+06
4.19473e+06
4.19726e+06
4.19825e+06
4.19959e+06
4.2001e+06
4.20056e+06
4.20065e+06
4.20068e+06
4.20064e+06
4.20069e+06
4.20079e+06
4.20136e+06
4.20161e+06
4.20302e+06
4.20329e+06
4.20578e+06
4.18348e+06
4.18858e+06
4.1894e+06
4.19318e+06
4.19436e+06
4.19686e+06
4.19786e+06
4.19918e+06
4.1997e+06
4.20015e+06
4.20024e+06
4.20026e+06
4.20022e+06
4.20027e+06
4.20037e+06
4.20094e+06
4.20119e+06
4.20261e+06
4.20287e+06
4.20538e+06
4.18317e+06
4.18826e+06
4.18909e+06
4.19284e+06
4.19403e+06
4.19651e+06
4.19751e+06
4.19882e+06
4.19933e+06
4.19978e+06
4.19987e+06
4.19989e+06
4.19985e+06
4.19989e+06
4.19999e+06
4.20056e+06
4.20081e+06
4.20223e+06
4.2025e+06
4.20502e+06
4.18291e+06
4.18799e+06
4.18883e+06
4.19256e+06
4.19375e+06
4.1962e+06
4.19721e+06
4.1985e+06
4.19901e+06
4.19945e+06
4.19954e+06
4.19956e+06
4.19952e+06
4.19956e+06
4.19965e+06
4.20023e+06
4.20047e+06
4.20191e+06
4.20217e+06
4.2047e+06
4.1827e+06
4.18777e+06
4.18862e+06
4.19232e+06
4.19352e+06
4.19594e+06
4.19695e+06
4.19822e+06
4.19874e+06
4.19917e+06
4.19926e+06
4.19928e+06
4.19924e+06
4.19928e+06
4.19937e+06
4.19995e+06
4.20018e+06
4.20162e+06
4.20189e+06
4.20443e+06
4.18254e+06
4.18759e+06
4.18845e+06
4.19212e+06
4.19333e+06
4.19573e+06
4.19674e+06
4.198e+06
4.19852e+06
4.19894e+06
4.19903e+06
4.19905e+06
4.199e+06
4.19905e+06
4.19913e+06
4.19971e+06
4.19994e+06
4.20139e+06
4.20165e+06
4.20421e+06
4.18243e+06
4.18747e+06
4.18832e+06
4.19197e+06
4.19319e+06
4.19556e+06
4.19658e+06
4.19782e+06
4.19835e+06
4.19875e+06
4.19885e+06
4.19887e+06
4.19882e+06
4.19886e+06
4.19894e+06
4.19952e+06
4.19975e+06
4.2012e+06
4.20147e+06
4.20403e+06
4.18236e+06
4.18739e+06
4.18825e+06
4.19187e+06
4.1931e+06
4.19544e+06
4.19647e+06
4.19769e+06
4.19822e+06
4.19862e+06
4.19872e+06
4.19873e+06
4.19868e+06
4.19872e+06
4.1988e+06
4.19938e+06
4.1996e+06
4.20107e+06
4.20133e+06
4.20391e+06
4.18235e+06
4.18736e+06
4.18822e+06
4.19181e+06
4.19305e+06
4.19536e+06
4.1964e+06
4.1976e+06
4.19814e+06
4.19853e+06
4.19863e+06
4.19864e+06
4.19858e+06
4.19863e+06
4.1987e+06
4.19929e+06
4.19951e+06
4.20098e+06
4.20125e+06
4.20384e+06
4.18241e+06
4.18739e+06
4.18826e+06
4.19182e+06
4.19306e+06
4.19534e+06
4.19638e+06
4.19756e+06
4.19811e+06
4.19849e+06
4.19859e+06
4.19859e+06
4.19853e+06
4.19858e+06
4.19866e+06
4.19924e+06
4.19947e+06
4.20095e+06
4.20122e+06
4.20382e+06
4.18253e+06
4.18749e+06
4.18836e+06
4.19188e+06
4.19313e+06
4.19538e+06
4.19642e+06
4.19758e+06
4.19812e+06
4.19848e+06
4.19859e+06
4.19859e+06
4.19853e+06
4.19858e+06
4.19866e+06
4.19925e+06
4.19948e+06
4.20097e+06
4.20124e+06
4.20385e+06
4.18273e+06
4.18766e+06
4.18854e+06
4.19202e+06
4.19327e+06
4.19548e+06
4.19652e+06
4.19765e+06
4.19818e+06
4.19854e+06
4.19864e+06
4.19863e+06
4.19859e+06
4.19864e+06
4.19872e+06
4.19931e+06
4.19954e+06
4.20104e+06
4.20132e+06
4.20394e+06
4.18301e+06
4.18792e+06
4.18879e+06
4.19223e+06
4.19348e+06
4.19564e+06
4.19667e+06
4.19778e+06
4.1983e+06
4.19864e+06
4.19874e+06
4.19873e+06
4.19869e+06
4.19874e+06
4.19882e+06
4.19942e+06
4.19966e+06
4.20116e+06
4.20146e+06
4.20408e+06
4.18339e+06
4.18827e+06
4.18914e+06
4.19252e+06
4.19376e+06
4.19587e+06
4.19689e+06
4.19797e+06
4.19847e+06
4.19879e+06
4.19888e+06
4.19886e+06
4.19881e+06
4.19887e+06
4.19896e+06
4.19958e+06
4.19983e+06
4.20135e+06
4.20165e+06
4.20428e+06
4.18387e+06
4.18871e+06
4.18957e+06
4.19289e+06
4.19412e+06
4.19618e+06
4.19719e+06
4.19822e+06
4.19871e+06
4.199e+06
4.19907e+06
4.19903e+06
4.19897e+06
4.19904e+06
4.19915e+06
4.1998e+06
4.20007e+06
4.2016e+06
4.20192e+06
4.20455e+06
4.18446e+06
4.18924e+06
4.1901e+06
4.19336e+06
4.19458e+06
4.19658e+06
4.19756e+06
4.19855e+06
4.19901e+06
4.19927e+06
4.19932e+06
4.19926e+06
4.19921e+06
4.1993e+06
4.19942e+06
4.20008e+06
4.20037e+06
4.20193e+06
4.20225e+06
4.20489e+06
4.18515e+06
4.18988e+06
4.19074e+06
4.19393e+06
4.19513e+06
4.19707e+06
4.19803e+06
4.19897e+06
4.1994e+06
4.19963e+06
4.19967e+06
4.19959e+06
4.19955e+06
4.19965e+06
4.19977e+06
4.20046e+06
4.20076e+06
4.20233e+06
4.20267e+06
4.20531e+06
4.18596e+06
4.19064e+06
4.19148e+06
4.1946e+06
4.19579e+06
4.19766e+06
4.19859e+06
4.19949e+06
4.1999e+06
4.2001e+06
4.20013e+06
4.20004e+06
4.20001e+06
4.20012e+06
4.20023e+06
4.20094e+06
4.20124e+06
4.20283e+06
4.20317e+06
4.20582e+06
4.1869e+06
4.19152e+06
4.19235e+06
4.19539e+06
4.19656e+06
4.19836e+06
4.19926e+06
4.20011e+06
4.2005e+06
4.20068e+06
4.20069e+06
4.2006e+06
4.20058e+06
4.20069e+06
4.2008e+06
4.20154e+06
4.20183e+06
4.20343e+06
4.20376e+06
4.20642e+06
4.18797e+06
4.19252e+06
4.19334e+06
4.1963e+06
4.19744e+06
4.19918e+06
4.20005e+06
4.20085e+06
4.20121e+06
4.20137e+06
4.20138e+06
4.20128e+06
4.20126e+06
4.20138e+06
4.20148e+06
4.20224e+06
4.20252e+06
4.20415e+06
4.20447e+06
4.20713e+06
4.18918e+06
4.19366e+06
4.19447e+06
4.19734e+06
4.19845e+06
4.20011e+06
4.20095e+06
4.20171e+06
4.20204e+06
4.20219e+06
4.20218e+06
4.20208e+06
4.20206e+06
4.20218e+06
4.20228e+06
4.20306e+06
4.20333e+06
4.20498e+06
4.20528e+06
4.20795e+06
4.19054e+06
4.19493e+06
4.19572e+06
4.1985e+06
4.19958e+06
4.20117e+06
4.20197e+06
4.20269e+06
4.203e+06
4.20313e+06
4.20311e+06
4.203e+06
4.20299e+06
4.20311e+06
4.2032e+06
4.204e+06
4.20426e+06
4.20592e+06
4.2062e+06
4.20888e+06
4.19203e+06
4.19634e+06
4.19712e+06
4.1998e+06
4.20085e+06
4.20236e+06
4.20313e+06
4.2038e+06
4.20408e+06
4.20419e+06
4.20416e+06
4.20405e+06
4.20404e+06
4.20416e+06
4.20425e+06
4.20506e+06
4.2053e+06
4.20698e+06
4.20724e+06
4.20993e+06
4.19368e+06
4.19789e+06
4.19866e+06
4.20124e+06
4.20225e+06
4.20369e+06
4.20441e+06
4.20503e+06
4.20529e+06
4.20538e+06
4.20534e+06
4.20522e+06
4.20522e+06
4.20533e+06
4.20543e+06
4.20625e+06
4.20647e+06
4.20817e+06
4.2084e+06
4.21109e+06
4.19548e+06
4.19959e+06
4.20034e+06
4.20282e+06
4.20379e+06
4.20515e+06
4.20583e+06
4.2064e+06
4.20663e+06
4.20669e+06
4.20664e+06
4.20652e+06
4.20652e+06
4.20663e+06
4.20673e+06
4.20756e+06
4.20777e+06
4.20948e+06
4.20968e+06
4.21237e+06
4.19744e+06
4.20145e+06
4.20217e+06
4.20454e+06
4.20548e+06
4.20674e+06
4.20738e+06
4.2079e+06
4.20809e+06
4.20814e+06
4.20807e+06
4.20795e+06
4.20794e+06
4.20806e+06
4.20817e+06
4.20899e+06
4.20919e+06
4.21091e+06
4.21108e+06
4.21377e+06
4.19956e+06
4.20346e+06
4.20416e+06
4.20642e+06
4.2073e+06
4.20848e+06
4.20907e+06
4.20953e+06
4.20969e+06
4.20971e+06
4.20963e+06
4.2095e+06
4.20949e+06
4.20961e+06
4.20973e+06
4.21055e+06
4.21073e+06
4.21246e+06
4.21261e+06
4.2153e+06
4.20186e+06
4.20563e+06
4.2063e+06
4.20845e+06
4.20928e+06
4.21037e+06
4.2109e+06
4.21129e+06
4.21141e+06
4.21141e+06
4.21131e+06