/*--------------------------------*- C++ -*----------------------------------*\
  =========                 |
  \\      /  F ield         | OpenFOAM: The Open Source CFD Toolbox
   \\    /   O peration     | Website:  https://openfoam.org
    \\  /    A nd           | Version:  8
     \\/     M anipulation  |
\*---------------------------------------------------------------------------*/
FoamFile
{
    version     2.0;
    format      ascii;
    class       volScalarField;
    location    "600";
    object      T;
}
// * * * * * * * * * * * * * * * * * * * * * * * * * * * * * * * * * * * * * //

dimensions      [0 0 0 1 0 0 0];

internalField   nonuniform List<scalar> 
8400
(
301.83
301.83
301.835
301.84
301.844
301.848
301.853
301.857
301.86
301.864
301.867
301.869
301.871
301.872
301.873
301.873
301.872
301.871
301.869
301.866
301.862
301.857
301.851
301.845
301.837
301.829
301.82
301.81
301.799
301.787
301.775
301.762
301.748
301.734
301.719
301.703
301.687
301.671
301.654
301.638
301.62
301.603
301.586
301.568
301.55
301.533
301.515
301.497
301.479
301.46
302.2
302.198
302.202
302.205
302.208
302.211
302.215
302.218
302.221
302.223
302.226
302.228
302.23
302.232
302.233
302.234
302.234
302.233
302.232
302.231
302.228
302.225
302.222
302.217
302.212
302.206
302.2
302.193
302.185
302.177
302.168
302.158
302.148
302.138
302.127
302.115
302.103
302.091
302.078
302.065
302.052
302.039
302.025
302.011
301.997
301.983
301.969
301.954
301.939
301.923
302.51
302.509
302.512
302.515
302.518
302.521
302.524
302.527
302.53
302.533
302.536
302.538
302.541
302.543
302.544
302.546
302.547
302.547
302.547
302.547
302.546
302.545
302.543
302.541
302.538
302.535
302.531
302.527
302.523
302.517
302.512
302.506
302.499
302.492
302.485
302.478
302.47
302.462
302.453
302.445
302.436
302.427
302.418
302.408
302.399
302.389
302.379
302.369
302.359
302.348
302.639
302.641
302.647
302.652
302.657
302.662
302.667
302.671
302.675
302.678
302.681
302.684
302.687
302.689
302.69
302.692
302.693
302.693
302.693
302.693
302.693
302.691
302.69
302.688
302.686
302.683
302.681
302.677
302.674
302.67
302.665
302.661
302.656
302.651
302.645
302.64
302.634
302.628
302.622
302.616
302.609
302.603
302.597
302.59
302.584
302.578
302.572
302.567
302.561
302.556
302.401
302.41
302.423
302.434
302.445
302.455
302.463
302.471
302.478
302.484
302.489
302.493
302.496
302.499
302.501
302.503
302.504
302.504
302.504
302.503
302.502
302.5
302.498
302.495
302.493
302.489
302.486
302.482
302.478
302.474
302.469
302.464
302.459
302.454
302.449
302.443
302.438
302.432
302.427
302.422
302.417
302.412
302.407
302.403
302.4
302.397
302.395
302.394
302.395
302.397
301.748
301.764
301.784
301.802
301.819
301.834
301.847
301.859
301.87
301.879
301.887
301.893
301.899
301.903
301.907
301.909
301.911
301.912
301.913
301.912
301.912
301.91
301.908
301.906
301.904
301.9
301.897
301.893
301.89
301.885
301.881
301.876
301.872
301.867
301.862
301.857
301.853
301.848
301.843
301.839
301.835
301.832
301.829
301.827
301.826
301.826
301.827
301.83
301.834
301.841
300.905
300.922
300.942
300.96
300.977
300.992
301.006
301.019
301.03
301.04
301.049
301.056
301.063
301.069
301.074
301.078
301.081
301.084
301.087
301.088
301.089
301.09
301.09
301.09
301.089
301.088
301.087
301.085
301.083
301.081
301.079
301.076
301.074
301.071
301.068
301.066
301.063
301.061
301.058
301.056
301.055
301.053
301.053
301.053
301.054
301.056
301.059
301.064
301.07
301.079
300.288
300.297
300.309
300.32
300.33
300.339
300.348
300.356
300.364
300.371
300.377
300.383
300.388
300.393
300.397
300.401
300.405
300.408
300.411
300.413
300.416
300.417
300.419
300.42
300.421
300.422
300.423
300.423
300.423
300.423
300.423
300.423
300.423
300.422
300.422
300.422
300.421
300.421
300.421
300.421
300.421
300.422
300.423
300.424
300.426
300.429
300.432
300.436
300.441
300.447
300.05
300.051
300.055
300.058
300.062
300.065
300.068
300.071
300.073
300.076
300.079
300.081
300.083
300.085
300.087
300.089
300.091
300.092
300.094
300.095
300.097
300.098
300.099
300.1
300.101
300.102
300.102
300.103
300.104
300.104
300.105
300.105
300.106
300.106
300.107
300.107
300.108
300.109
300.109
300.11
300.111
300.111
300.112
300.114
300.115
300.116
300.118
300.12
300.123
300.126
300.009
300.008
300.009
300.01
300.011
300.012
300.013
300.013
300.014
300.015
300.016
300.016
300.017
300.018
300.018
300.019
300.019
300.02
300.02
300.021
300.021
300.022
300.022
300.023
300.023
300.023
300.024
300.024
300.024
300.025
300.025
300.025
300.026
300.026
300.027
300.027
300.027
300.028
300.028
300.028
300.029
300.029
300.03
300.03
300.031
300.031
300.032
300.033
300.034
300.035
300.001
300.002
300.002
300.003
300.003
300.004
300.004
300.005
300.006
300.006
300.007
300.007
300.008
300.008
300.009
300.009
300.01
300.01
300.011
300.011
300.011
300.012
300.012
300.013
300.013
300.013
300.014
300.014
300.014
300.015
300.015
300.015
300.016
300.016
300.016
300.017
300.017
300.017
300.018
300.018
300.018
300.018
300.018
300.019
300.019
300.019
300.019
300.019
300.019
300.019
300.001
300.001
300.002
300.002
300.002
300.003
300.004
300.004
300.005
300.005
300.006
300.007
300.007
300.008
300.008
300.009
300.009
300.01
300.01
300.011
300.011
300.012
300.012
300.013
300.013
300.013
300.014
300.014
300.015
300.015
300.015
300.016
300.016
300.016
300.017
300.017
300.017
300.018
300.018
300.018
300.019
300.019
300.019
300.02
300.02
300.021
300.021
300.022
300.022
300.023
300.003
300.003
300.003
300.004
300.005
300.005
300.006
300.007
300.007
300.008
300.009
300.01
300.01
300.011
300.011
300.012
300.013
300.013
300.014
300.014
300.015
300.015
300.016
300.016
300.017
300.017
300.018
300.018
300.018
300.019
300.019
300.02
300.02
300.02
300.021
300.021
300.021
300.022
300.022
300.022
300.023
300.023
300.024
300.024
300.024
300.025
300.025
300.026
300.027
300.027
300.007
300.008
300.008
300.009
300.01
300.01
300.011
300.012
300.013
300.013
300.014
300.015
300.015
300.016
300.017
300.017
300.018
300.018
300.019
300.02
300.02
300.021
300.021
300.022
300.022
300.023
300.023
300.024
300.024
300.025
300.025
300.025
300.026
300.026
300.027
300.027
300.027
300.028
300.028
300.028
300.029
300.029
300.03
300.03
300.031
300.031
300.032
300.033
300.033
300.034
300.004
300.004
300.004
300.005
300.005
300.006
300.007
300.008
300.009
300.01
300.011
300.012
300.013
300.014
300.015
300.016
300.017
300.017
300.018
300.019
300.02
300.021
300.022
300.023
300.024
300.025
300.026
300.027
300.028
300.029
300.029
300.03
300.031
300.032
300.032
300.033
300.034
300.035
300.035
300.036
300.037
300.038
300.039
300.039
300.04
300.041
300.042
300.043
300.044
300.045
300.015
300.018
300.021
300.023
300.025
300.027
300.029
300.031
300.033
300.035
300.036
300.038
300.04
300.041
300.042
300.044
300.045
300.046
300.048
300.049
300.05
300.051
300.052
300.053
300.054
300.055
300.056
300.056
300.057
300.058
300.058
300.059
300.059
300.06
300.06
300.061
300.061
300.061
300.062
300.062
300.063
300.063
300.064
300.064
300.064
300.065
300.065
300.066
300.066
300.066
300.002
300.002
300
299.999
299.998
299.998
299.997
299.997
299.997
299.997
299.997
299.998
299.998
299.998
299.998
299.999
299.999
299.999
299.999
300
300
300
300.001
300.001
300.001
300.002
300.002
300.002
300.003
300.003
300.003
300.004
300.004
300.004
300.004
300.004
300.005
300.005
300.005
300.006
300.006
300.007
300.007
300.008
300.009
300.01
300.011
300.012
300.013
300.013
300.026
300.031
300.034
300.037
300.041
300.044
300.048
300.051
300.054
300.057
300.06
300.063
300.066
300.069
300.072
300.075
300.078
300.081
300.084
300.087
300.09
300.093
300.095
300.098
300.1
300.103
300.105
300.107
300.11
300.112
300.114
300.116
300.119
300.121
300.123
300.125
300.127
300.13
300.132
300.135
300.137
300.14
300.143
300.146
300.149
300.152
300.155
300.158
300.16
300.162
300.005
300.008
300.01
300.012
300.013
300.015
300.017
300.018
300.02
300.021
300.022
300.024
300.025
300.027
300.029
300.031
300.034
300.036
300.039
300.042
300.045
300.049
300.053
300.057
300.061
300.065
300.07
300.075
300.081
300.086
300.093
300.099
300.107
300.114
300.122
300.131
300.14
300.15
300.16
300.171
300.182
300.193
300.205
300.216
300.227
300.239
300.25
300.261
300.271
300.284
302.633
302.637
302.639
302.642
302.645
302.647
302.649
302.651
302.652
302.652
302.652
302.651
302.65
302.648
302.646
302.644
302.642
302.641
302.64
302.64
302.639
302.639
302.639
302.639
302.639
302.639
302.638
302.638
302.636
302.635
302.634
302.632
302.631
302.63
302.63
302.629
302.629
302.629
302.628
302.627
302.625
302.623
302.621
302.618
302.615
302.612
302.609
302.606
302.603
302.599
303.147
303.143
303.139
303.135
303.131
303.127
303.123
303.12
303.116
303.112
303.109
303.105
303.102
303.098
303.095
303.092
303.088
303.085
303.082
303.079
303.075
303.072
303.069
303.066
303.063
303.06
303.057
303.054
303.051
303.048
303.045
303.043
303.04
303.037
303.034
303.032
303.029
303.026
303.024
303.021
303.018
303.016
303.013
303.011
303.009
303.007
303.004
303.003
303.001
303
303.15
303.15
303.15
303.15
303.15
303.149
303.149
303.149
303.149
303.149
303.148
303.148
303.148
303.147
303.147
303.147
303.146
303.146
303.146
303.145
303.145
303.144
303.144
303.143
303.143
303.142
303.142
303.141
303.141
303.141
303.14
303.14
303.139
303.139
303.138
303.138
303.137
303.137
303.136
303.136
303.135
303.135
303.135
303.134
303.134
303.133
303.133
303.133
303.133
303.132
303.15
303.15
303.15
303.15
303.15
303.15
303.15
303.15
303.15
303.15
303.15
303.15
303.15
303.15
303.15
303.15
303.15
303.15
303.15
303.15
303.15
303.15
303.15
303.15
303.15
303.15
303.15
303.15
303.149
303.149
303.149
303.149
303.149
303.149
303.149
303.149
303.149
303.149
303.149
303.149
303.149
303.149
303.149
303.149
303.149
303.149
303.149
303.149
303.149
303.149
303.15
303.15
303.15
303.15
303.15
303.15
303.15
303.15
303.15
303.15
303.15
303.15
303.15
303.15
303.15
303.15
303.15
303.15
303.15
303.15
303.15
303.15
303.15
303.15
303.15
303.15
303.15
303.15
303.15
303.15
303.15
303.15
303.15
303.15
303.15
303.15
303.15
303.15
303.15
303.15
303.15
303.15
303.15
303.15
303.15
303.15
303.15
303.15
303.15
303.15
303.15
303.15
303.15
303.15
303.15
303.15
303.15
303.15
303.15
303.15
303.15
303.15
303.15
303.15
303.15
303.15
303.15
303.15
303.15
303.15
303.15
303.15
303.15
303.15
303.15
303.15
303.15
303.15
303.15
303.15
303.15
303.15
303.15
303.15
303.15
303.15
303.15
303.15
303.15
303.15
303.15
303.15
303.15
303.15
303.15
303.15
303.15
303.15
303.15
303.15
303.15
303.15
303.15
303.15
303.15
303.15
303.15
303.15
303.15
303.15
303.15
303.15
303.15
303.15
303.15
303.15
303.15
303.15
303.15
303.15
303.15
303.15
303.15
303.15
303.15
303.15
303.15
303.15
303.15
303.15
303.15
303.15
303.15
303.15
303.15
303.15
303.15
303.15
303.15
303.15
303.15
303.15
303.15
303.15
303.15
303.15
303.15
303.15
303.15
303.15
303.15
303.15
303.15
303.15
303.15
303.15
303.15
303.15
303.15
303.15
303.15
303.15
303.15
303.15
303.15
303.15
303.15
303.15
303.15
303.15
303.15
303.15
303.15
303.15
303.15
303.15
303.15
303.15
303.15
303.15
303.15
303.15
303.15
303.15
303.15
303.15
303.15
303.15
303.15
303.15
303.15
303.15
303.15
303.15
303.15
303.15
303.15
303.15
303.15
303.15
303.15
303.15
303.15
303.15
303.15
303.15
303.15
303.15
303.15
303.15
303.15
303.15
303.15
303.15
303.15
303.15
303.15
303.15
303.15
303.15
303.15
303.15
303.15
303.15
303.15
303.15
303.15
303.15
303.15
303.15
303.15
303.15
303.15
303.15
303.15
303.15
303.15
303.15
303.15
303.15
303.15
303.15
303.15
303.15
303.15
303.15
303.15
303.15
303.15
303.15
303.15
303.15
303.15
303.15
303.15
303.15
303.15
303.15
303.15
303.15
303.15
303.15
303.15
303.15
303.15
303.15
303.15
303.15
303.15
303.15
303.15
303.15
303.15
303.15
303.15
303.15
303.15
303.15
303.15
303.15
303.15
303.15
303.15
303.15
303.15
303.15
303.15
303.15
303.15
303.15
303.15
303.15
303.15
303.15
303.15
303.15
303.15
303.15
303.15
303.15
303.15
303.15
303.15
303.15
303.15
303.15
303.15
303.15
303.15
303.15
303.15
303.15
303.15
303.15
303.15
303.15
303.15
303.15
303.15
303.15
303.15
303.15
303.15
303.15
303.15
303.15
303.15
303.15
303.15
303.15
303.15
303.15
303.15
303.15
303.15
303.15
303.15
303.15
303.15
303.15
303.15
303.15
303.15
303.15
303.15
303.15
303.15
303.15
303.15
303.15
303.15
303.15
303.15
303.15
303.15
303.15
303.15
303.15
303.15
303.15
303.15
303.15
303.15
303.15
303.15
303.15
303.15
303.15
303.15
303.15
303.15
303.15
303.15
303.15
303.15
303.15
303.15
303.15
303.15
303.15
303.15
303.15
303.15
303.15
303.15
303.15
303.15
303.15
303.15
303.15
303.15
303.15
303.15
303.15
303.15
303.15
303.15
303.15
303.15
303.15
303.15
303.15
303.15
303.15
303.15
303.15
303.15
303.15
303.15
303.15
303.15
303.15
303.15
303.15
303.15
303.15
303.15
303.15
303.15
303.15
303.15
303.15
303.15
303.15
303.15
303.15
303.15
303.15
303.15
303.15
303.15
303.15
303.15
303.15
303.15
303.15
303.15
303.15
303.15
303.15
303.15
303.15
303.15
303.15
303.15
303.15
303.15
303.15
303.15
303.15
303.15
303.15
303.15
303.15
303.15
303.15
303.15
303.15
303.15
303.15
303.15
303.15
303.15
303.15
303.15
303.15
303.15
303.15
303.15
303.15
303.15
303.15
303.15
303.15
303.15
303.15
303.15
303.15
303.15
303.15
303.15
303.15
303.15
303.15
303.15
303.15
303.15
303.15
303.15
303.15
303.15
303.15
303.15
303.15
303.15
303.15
303.15
303.15
303.15
303.15
303.15
303.15
303.15
303.15
303.15
303.15
303.15
303.15
303.15
303.15
303.15
303.15
303.15
303.15
303.15
303.15
303.15
303.15
303.15
303.15
303.15
303.15
303.15
303.15
303.15
303.15
303.15
303.15
303.15
303.15
303.15
303.15
303.15
303.15
303.15
303.15
303.15
303.15
303.15
303.15
303.15
303.15
303.15
303.15
303.15
303.15
303.15
303.15
303.15
303.15
303.15
303.15
303.15
303.15
303.15
303.15
303.15
303.15
303.15
303.15
303.15
303.15
303.15
303.15
303.15
303.15
303.15
303.15
303.15
303.15
303.15
303.15
303.15
303.15
303.15
303.15
303.15
303.15
303.15
303.15
303.15
303.15
303.15
303.15
303.15
303.15
303.15
303.15
303.15
303.15
303.15
303.15
303.15
303.15
303.15
303.15
303.15
303.15
303.15
303.15
303.15
303.15
303.15
303.15
303.15
303.15
303.15
303.15
303.15
303.15
303.15
303.15
303.15
303.15
303.15
303.15
303.15
303.15
303.15
303.15
303.15
303.15
303.15
303.15
303.15
303.15
303.15
303.15
303.15
303.15
303.15
303.15
303.15
303.15
303.15
303.15
303.15
303.15
303.15
303.15
303.15
303.15
303.15
303.15
303.15
303.15
303.15
303.15
303.15
303.15
303.15
303.15
303.15
303.15
303.15
303.15
303.15
303.15
303.15
303.15
303.15
303.15
303.15
303.15
303.15
303.15
303.15
303.15
303.15
303.15
303.15
303.15
303.15
303.15
303.15
303.15
303.15
303.15
303.15
303.15
303.15
303.15
303.15
303.15
303.15
303.15
303.15
303.15
303.15
303.15
303.15
303.15
303.15
303.15
303.15
303.15
303.15
303.15
303.15
303.15
303.15
303.15
303.15
303.15
303.15
303.15
303.15
303.15
303.15
303.15
303.15
303.15
303.15
303.15
303.15
303.15
303.15
303.15
303.15
303.15
303.15
303.15
303.15
303.15
303.15
303.15
303.15
303.149
303.149
303.149
303.149
303.149
303.149
303.149
303.149
303.149
303.149
303.149
303.149
303.149
303.149
303.149
303.148
303.148
303.148
303.148
303.148
303.147
303.147
303.147
303.15
303.15
303.15
303.15
303.15
303.149
303.149
303.149
303.149
303.149
303.148
303.148
303.148
303.147
303.147
303.147
303.146
303.146
303.146
303.145
303.145
303.144
303.144
303.143
303.143
303.142
303.142
303.141
303.141
303.14
303.14
303.139
303.139
303.138
303.138
303.137
303.136
303.136
303.135
303.134
303.134
303.133
303.132
303.131
303.13
303.129
303.128
303.127
303.126
303.124
303.147
303.143
303.139
303.135
303.131
303.127
303.123
303.12
303.116
303.112
303.109
303.105
303.102
303.098
303.095
303.092
303.088
303.085
303.082
303.079
303.075
303.072
303.069
303.066
303.063
303.06
303.057
303.054
303.051
303.048
303.045
303.043
303.04
303.037
303.034
303.031
303.029
303.026
303.023
303.021
303.018
303.015
303.013
303.01
303.008
303.005
303.002
303
302.997
302.995
302.985
302.879
302.499
301.942
301.305
300.693
300.187
299.821
299.593
299.467
299.403
299.386
299.462
299.726
299.964
300.241
300.638
300.903
300.918
300.81
302.981
302.86
302.455
301.871
301.215
300.598
300.098
299.749
299.539
299.428
299.372
299.357
299.43
299.698
299.942
300.226
300.616
300.861
300.863
300.76
302.977
302.841
302.409
301.8
301.126
300.506
300.015
299.682
299.491
299.395
299.347
299.333
299.4
299.667
299.921
300.21
300.596
300.831
300.828
300.729
302.973
302.821
302.363
301.727
301.038
300.416
299.937
299.623
299.451
299.369
299.328
299.314
299.374
299.638
299.9
300.195
300.576
300.801
300.793
300.699
302.969
302.799
302.315
301.655
300.952
300.331
299.864
299.57
299.417
299.35
299.314
299.3
299.352
299.611
299.879
300.179
300.556
300.771
300.76
300.671
302.964
302.777
302.266
301.582
300.868
300.251
299.799
299.524
299.391
299.336
299.305
299.291
299.335
299.586
299.859
300.164
300.536
300.741
300.727
300.643
302.959
302.754
302.216
301.511
300.787
300.175
299.74
299.486
299.37
299.327
299.3
299.285
299.321
299.562
299.839
300.149
300.517
300.712
300.696
300.617
302.954
302.73
302.167
301.441
300.71
300.106
299.688
299.454
299.356
299.322
299.297
299.282
299.31
299.541
299.82
300.134
300.497
300.683
300.665
300.592
302.949
302.706
302.117
301.372
300.636
300.042
299.643
299.429
299.346
299.321
299.298
299.28
299.301
299.522
299.802
300.119
300.477
300.655
300.636
300.569
302.943
302.681
302.068
301.305
300.567
299.984
299.604
299.41
299.342
299.323
299.3
299.28
299.295
299.504
299.784
300.104
300.458
300.628
300.608
300.546
302.937
302.655
302.019
301.241
300.503
299.933
299.571
299.395
299.34
299.327
299.303
299.281
299.291
299.487
299.767
300.089
300.439
300.601
300.582
300.524
302.931
302.63
301.971
301.18
300.443
299.887
299.544
299.386
299.342
299.333
299.307
299.283
299.288
299.473
299.75
300.075
300.42
300.575
300.557
300.503
302.925
302.605
301.924
301.122
300.389
299.846
299.522
299.381
299.347
299.341
299.312
299.285
299.285
299.459
299.735
300.061
300.401
300.55
300.533
300.483
302.919
302.579
301.879
301.067
300.338
299.811
299.505
299.379
299.354
299.349
299.317
299.286
299.284
299.447
299.719
300.047
300.382
300.525
300.51
300.463
302.912
302.555
301.835
301.015
300.293
299.781
299.493
299.379
299.362
299.357
299.322
299.288
299.282
299.435
299.705
300.033
300.364
300.502
300.488
300.444
302.906
302.53
301.794
300.967
300.252
299.755
299.484
299.383
299.371
299.366
299.327
299.289
299.282
299.425
299.691
300.02
300.347
300.479
300.468
300.426
302.9
302.507
301.754
300.922
300.215
299.734
299.478
299.388
299.381
299.376
299.332
299.29
299.281
299.416
299.678
300.007
300.329
300.457
300.448
300.408
302.894
302.484
301.717
300.881
300.183
299.716
299.475
299.395
299.392
299.385
299.337
299.291
299.28
299.407
299.666
299.995
300.313
300.437
300.43
300.39
302.888
302.463
301.682
300.844
300.155
299.703
299.475
299.404
299.404
299.394
299.342
299.291
299.279
299.4
299.655
299.983
300.297
300.417
300.413
300.373
302.882
302.443
301.651
300.811
300.131
299.692
299.477
299.413
299.415
299.403
299.347
299.292
299.279
299.392
299.644
299.972
300.281
300.399
300.397
300.357
302.877
302.424
301.622
300.782
300.112
299.685
299.481
299.424
299.427
299.413
299.352
299.292
299.278
299.386
299.633
299.961
300.266
300.381
300.381
300.34
302.872
302.407
301.597
300.758
300.096
299.682
299.487
299.436
299.439
299.422
299.358
299.293
299.277
299.38
299.624
299.95
300.252
300.364
300.367
300.324
302.868
302.392
301.575
300.737
300.085
299.681
299.495
299.448
299.452
299.431
299.363
299.294
299.276
299.374
299.615
299.94
300.238
300.349
300.354
300.309
302.864
302.379
301.556
300.721
300.077
299.683
299.505
299.461
299.464
299.44
299.369
299.296
299.275
299.369
299.606
299.931
300.225
300.335
300.341
300.293
302.861
302.368
301.542
300.71
300.074
299.689
299.516
299.475
299.476
299.449
299.375
299.298
299.275
299.365
299.599
299.923
300.213
300.321
300.329
300.278
302.858
302.36
301.531
300.703
300.074
299.697
299.529
299.489
299.488
299.458
299.381
299.302
299.274
299.361
299.592
299.915
300.202
300.309
300.318
300.263
302.856
302.354
301.525
300.701
300.079
299.707
299.543
299.503
299.5
299.467
299.389
299.307
299.272
299.357
299.585
299.907
300.192
300.298
300.307
300.249
302.855
302.351
301.523
300.704
300.088
299.721
299.559
299.518
299.513
299.477
299.396
299.313
299.269
299.354
299.58
299.901
300.183
300.287
300.297
300.235
302.855
302.351
301.526
300.712
300.1
299.736
299.575
299.534
299.526
299.487
299.404
299.319
299.267
299.351
299.575
299.895
300.174
300.278
300.287
300.221
302.855
302.354
301.534
300.725
300.117
299.755
299.593
299.549
299.539
299.497
299.414
299.327
299.267
299.349
299.571
299.891
300.167
300.269
300.278
300.207
302.857
302.36
301.546
300.743
300.138
299.776
299.612
299.565
299.552
299.508
299.424
299.336
299.273
299.348
299.568
299.887
300.16
300.261
300.269
300.193
302.859
302.368
301.563
300.766
300.163
299.799
299.632
299.582
299.565
299.52
299.434
299.346
299.284
299.35
299.567
299.884
300.155
300.254
300.261
300.18
302.863
302.38
301.584
300.794
300.192
299.825
299.653
299.599
299.579
299.532
299.446
299.357
299.299
299.354
299.567
299.881
300.149
300.248
300.252
300.168
302.867
302.395
301.611
300.827
300.225
299.854
299.676
299.616
299.594
299.546
299.459
299.37
299.315
299.36
299.568
299.88
300.145
300.242
300.244
300.155
302.872
302.412
301.641
300.865
300.262
299.885
299.7
299.634
299.608
299.56
299.473
299.384
299.331
299.368
299.571
299.879
300.141
300.237
300.237
300.143
302.878
302.433
301.676
300.907
300.303
299.918
299.724
299.653
299.624
299.574
299.488
299.399
299.348
299.378
299.576
299.88
300.138
300.232
300.229
300.132
302.885
302.455
301.715
300.954
300.347
299.954
299.75
299.672
299.639
299.59
299.505
299.416
299.364
299.39
299.582
299.882
300.135
300.227
300.221
300.12
302.892
302.48
301.758
301.005
300.395
299.992
299.778
299.691
299.656
299.606
299.523
299.434
299.382
299.404
299.59
299.884
300.133
300.223
300.214
300.109
302.9
302.507
301.804
301.06
300.447
300.032
299.806
299.711
299.672
299.624
299.542
299.453
299.401
299.42
299.6
299.888
300.132
300.219
300.207
300.099
302.909
302.536
301.853
301.119
300.501
300.075
299.836
299.732
299.69
299.642
299.562
299.475
299.422
299.438
299.612
299.893
300.131
300.215
300.199
300.089
302.917
302.566
301.905
301.181
300.559
300.12
299.867
299.754
299.707
299.661
299.584
299.498
299.445
299.458
299.625
299.899
300.131
300.211
300.192
300.079
302.926
302.597
301.959
301.245
300.619
300.167
299.899
299.776
299.725
299.68
299.607
299.523
299.471
299.48
299.641
299.906
300.131
300.208
300.184
300.069
302.936
302.629
302.015
301.313
300.682
300.216
299.933
299.798
299.744
299.701
299.632
299.55
299.497
299.505
299.658
299.914
300.131
300.204
300.177
300.06
302.945
302.662
302.072
301.382
300.748
300.267
299.968
299.822
299.763
299.722
299.657
299.579
299.526
299.531
299.677
299.923
300.132
300.2
300.17
300.051
302.954
302.695
302.13
301.453
300.816
300.321
300.005
299.846
299.782
299.743
299.684
299.609
299.556
299.559
299.697
299.933
300.133
300.196
300.162
300.043
302.963
302.727
302.188
301.525
300.886
300.376
300.043
299.871
299.802
299.765
299.711
299.641
299.589
299.59
299.72
299.943
300.134
300.192
300.154
300.035
302.971
302.759
302.247
301.599
300.957
300.434
300.083
299.897
299.822
299.786
299.739
299.674
299.623
299.622
299.743
299.955
300.135
300.187
300.147
300.027
302.979
302.791
302.305
301.673
301.031
300.494
300.124
299.924
299.842
299.808
299.767
299.708
299.659
299.657
299.769
299.966
300.135
300.183
300.139
300.019
302.987
302.822
302.363
301.748
301.106
300.556
300.168
299.952
299.862
299.829
299.795
299.744
299.697
299.693
299.795
299.979
300.136
300.177
300.131
300.012
302.994
302.851
302.42
301.824
301.184
300.621
300.214
299.981
299.883
299.85
299.823
299.779
299.736
299.73
299.822
299.991
300.136
300.172
300.123
300.005
303.001
302.88
302.476
301.9
301.263
300.689
300.263
300.013
299.904
299.87
299.849
299.814
299.776
299.769
299.85
300.003
300.136
300.165
300.115
299.998
303.007
302.907
302.531
301.976
301.345
300.76
300.316
300.046
299.925
299.889
299.875
299.848
299.816
299.808
299.878
300.016
300.135
300.159
300.106
299.991
303.012
302.933
302.585
302.053
301.43
300.836
300.372
300.082
299.947
299.908
299.898
299.88
299.855
299.847
299.907
300.028
300.133
300.151
300.098
299.984
303.016
302.958
302.638
302.131
301.519
300.918
300.434
300.122
299.971
299.925
299.919
299.91
299.892
299.885
299.934
300.039
300.131
300.143
300.089
299.978
303.02
302.982
302.69
302.21
301.611
301.005
300.503
300.167
299.996
299.942
299.938
299.937
299.927
299.922
299.961
300.049
300.128
300.135
300.08
299.972
303.023
303.004
302.741
302.29
301.708
301.1
300.579
300.217
300.025
299.958
299.954
299.96
299.958
299.956
299.985
300.059
300.124
300.126
300.071
299.965
303.026
303.024
302.79
302.372
301.81
301.203
300.665
300.276
300.058
299.975
299.966
299.979
299.985
299.987
300.008
300.066
300.118
300.116
300.061
299.959
303.027
303.043
302.839
302.455
301.919
301.317
300.763
300.345
300.097
299.993
299.976
299.992
300.005
300.012
300.026
300.071
300.112
300.105
300.052
299.953
303.028
303.061
302.886
302.539
302.033
301.443
300.876
300.428
300.145
300.014
299.985
299.999
300.019
300.032
300.041
300.074
300.104
300.093
300.041
299.947
303.027
303.077
302.931
302.623
302.154
301.581
301.005
300.528
300.206
300.042
299.993
300.002
300.025
300.041
300.051
300.074
300.094
300.081
300.031
299.941
303.026
303.091
302.973
302.707
302.28
301.733
301.155
300.649
300.286
300.081
300.004
300.001
300.024
300.044
300.056
300.071
300.083
300.067
300.02
299.935
303.024
303.103
303.011
302.789
302.41
301.898
301.327
300.798
300.39
300.137
300.023
300
300.017
300.04
300.054
300.064
300.07
300.053
300.008
299.928
303.021
303.112
303.046
302.866
302.542
302.075
301.523
300.978
300.526
300.218
300.056
300.003
300.008
300.03
300.047
300.054
300.055
300.038
299.996
299.922
303.017
303.12
303.076
302.937
302.67
302.261
301.743
301.194
300.703
300.336
300.114
300.016
299.999
300.015
300.033
300.039
300.038
300.022
299.984
299.915
303.012
303.125
303.1
302.999
302.791
302.448
301.981
301.448
300.931
300.505
300.213
300.054
299.997
299.996
300.012
300.022
300.02
300.005
299.971
299.908
303.006
303.129
303.118
303.05
302.898
302.628
302.23
301.737
301.215
300.741
300.373
300.137
300.019
299.984
299.989
300.001
300
299.987
299.957
299.901
302.999
303.13
303.131
303.089
302.987
302.79
302.475
302.049
301.554
301.055
300.621
300.295
300.093
299.996
299.971
299.977
299.978
299.968
299.942
299.894
302.992
303.131
303.139
303.116
303.054
302.924
302.697
302.361
301.93
301.448
300.975
300.568
300.263
300.071
299.978
299.952
299.955
299.948
299.927
299.886
302.984
303.13
303.144
303.133
303.1
303.024
302.879
302.643
302.31
301.895
301.437
300.987
300.591
300.282
300.075
299.965
299.93
299.927
299.912
299.877
302.976
303.129
303.146
303.142
303.127
303.089
303.009
302.867
302.646
302.34
301.962
301.541
301.114
300.719
300.384
300.13
299.968
299.905
299.894
299.866
302.967
303.127
303.147
303.147
303.141
303.125
303.088
303.017
302.895
302.711
302.458
302.144
301.784
301.401
301.018
300.655
300.325
300.041
299.878
299.854
302.959
303.125
303.147
303.148
303.147
303.141
303.127
303.098
303.045
302.957
302.827
302.649
302.426
302.164
301.875
301.566
301.242
300.888
300.439
299.858
302.95
303.123
303.147
303.149
303.149
303.147
303.143
303.134
303.115
303.083
303.031
302.957
302.858
302.736
302.595
302.44
302.279
302.111
301.931
301.688
302.942
303.12
303.147
303.149
303.149
303.149
303.148
303.145
303.14
303.13
303.114
303.089
303.054
303.009
302.956
302.897
302.835
302.775
302.721
302.674
302.933
303.118
303.147
303.149
303.15
303.149
303.149
303.149
303.147
303.144
303.139
303.131
303.118
303.099
303.074
303.041
302.998
302.943
302.87
302.764
302.926
303.116
303.147
303.149
303.15
303.15
303.15
303.149
303.149
303.148
303.146
303.143
303.137
303.127
303.111
303.086
303.049
302.993
302.91
302.776
302.918
303.113
303.146
303.149
303.15
303.15
303.15
303.15
303.15
303.149
303.149
303.147
303.144
303.138
303.127
303.109
303.077
303.024
302.935
302.78
302.911
303.111
303.146
303.149
303.15
303.15
303.15
303.15
303.15
303.15
303.149
303.149
303.147
303.144
303.137
303.123
303.096
303.046
302.956
302.784
302.905
303.109
303.146
303.149
303.15
303.15
303.15
303.15
303.15
303.15
303.15
303.149
303.149
303.147
303.142
303.132
303.11
303.064
302.972
302.788
302.9
303.107
303.146
303.15
303.15
303.15
303.15
303.15
303.15
303.15
303.15
303.15
303.149
303.148
303.145
303.137
303.119
303.077
302.986
302.791
302.895
303.105
303.145
303.15
303.15
303.15
303.15
303.15
303.15
303.15
303.15
303.15
303.15
303.149
303.147
303.141
303.126
303.088
302.998
302.794
302.89
303.104
303.145
303.15
303.15
303.15
303.15
303.15
303.15
303.15
303.15
303.15
303.15
303.149
303.148
303.144
303.131
303.097
303.008
302.796
302.887
303.103
303.145
303.15
303.15
303.15
303.15
303.15
303.15
303.15
303.15
303.15
303.15
303.15
303.149
303.145
303.135
303.103
303.016
302.799
302.884
303.101
303.145
303.15
303.15
303.15
303.15
303.15
303.15
303.15
303.15
303.15
303.15
303.15
303.149
303.147
303.138
303.109
303.023
302.802
302.881
303.1
303.145
303.149
303.15
303.15
303.15
303.15
303.15
303.15
303.15
303.15
303.15
303.15
303.149
303.147
303.14
303.113
303.03
302.804
302.879
303.1
303.145
303.149
303.15
303.15
303.15
303.15
303.15
303.15
303.15
303.15
303.15
303.15
303.15
303.148
303.141
303.117
303.035
302.806
302.878
303.099
303.145
303.149
303.15
303.15
303.15
303.15
303.15
303.15
303.15
303.15
303.15
303.15
303.15
303.148
303.143
303.12
303.039
302.809
302.877
303.098
303.144
303.149
303.15
303.15
303.15
303.15
303.15
303.15
303.15
303.15
303.15
303.15
303.15
303.149
303.144
303.122
303.043
302.811
302.876
303.098
303.144
303.149
303.15
303.15
303.15
303.15
303.15
303.15
303.15
303.15
303.15
303.15
303.15
303.149
303.144
303.124
303.047
302.813
302.876
303.098
303.144
303.149
303.15
303.15
303.15
303.15
303.15
303.15
303.15
303.15
303.15
303.15
303.15
303.149
303.145
303.126
303.05
302.816
302.876
303.098
303.144
303.149
303.15
303.15
303.15
303.15
303.15
303.15
303.15
303.15
303.15
303.15
303.15
303.149