/*--------------------------------*- C++ -*----------------------------------*\
  =========                 |
  \\      /  F ield         | OpenFOAM: The Open Source CFD Toolbox
   \\    /   O peration     | Website:  https://openfoam.org
    \\  /    A nd           | Version:  8
     \\/     M anipulation  |
\*---------------------------------------------------------------------------*/
FoamFile
{
    version     2.0;
    format      ascii;
    class       volVectorField;
    location    "600";
    object      U;
}
// * * * * * * * * * * * * * * * * * * * * * * * * * * * * * * * * * * * * * //

dimensions      [0 1 -1 0 0 0 0];

internalField   nonuniform List<vector> 
8400
(
(-83.2927 -0.975479 2.23585e-14)
(-82.839 -0.994803 2.23982e-14)
(-82.4999 -1.01522 2.24321e-14)
(-82.1613 -1.03506 2.24596e-14)
(-81.8341 -1.05396 2.24814e-14)
(-81.5196 -1.07211 2.2497e-14)
(-81.219 -1.08984 2.25048e-14)
(-80.9329 -1.10745 2.25051e-14)
(-80.6612 -1.12518 2.24977e-14)
(-80.4034 -1.14324 2.24821e-14)
(-80.1591 -1.16179 2.24594e-14)
(-79.9274 -1.18094 2.2429e-14)
(-79.7076 -1.2008 2.23896e-14)
(-79.4988 -1.22145 2.23419e-14)
(-79.3004 -1.24296 2.22858e-14)
(-79.1116 -1.2654 2.22182e-14)
(-78.9317 -1.28881 2.21442e-14)
(-78.7602 -1.31327 2.20648e-14)
(-78.5966 -1.33884 2.19743e-14)
(-78.4404 -1.36555 2.18753e-14)
(-78.2912 -1.39347 2.17679e-14)
(-78.1486 -1.42266 2.16559e-14)
(-78.0122 -1.45317 2.154e-14)
(-77.8816 -1.48508 2.14125e-14)
(-77.7565 -1.51846 2.12728e-14)
(-77.6366 -1.55339 2.11305e-14)
(-77.5216 -1.58997 2.0989e-14)
(-77.4111 -1.6283 2.08405e-14)
(-77.3048 -1.6685 2.06791e-14)
(-77.2024 -1.71068 2.05157e-14)
(-77.1035 -1.75499 2.03484e-14)
(-77.0077 -1.80162 2.01744e-14)
(-76.9145 -1.85075 1.9995e-14)
(-76.8236 -1.90261 1.98078e-14)
(-76.7342 -1.95748 1.96124e-14)
(-76.6457 -2.01568 1.94138e-14)
(-76.5573 -2.07759 1.92115e-14)
(-76.468 -2.14372 1.90071e-14)
(-76.3767 -2.21464 1.88016e-14)
(-76.2818 -2.29112 1.85949e-14)
(-76.1817 -2.3741 1.8387e-14)
(-76.074 -2.46481 1.81821e-14)
(-75.9559 -2.56484 1.79759e-14)
(-75.8232 -2.67639 1.77649e-14)
(-75.6704 -2.80256 1.75534e-14)
(-75.4911 -2.94784 1.7341e-14)
(-75.2783 -3.11847 1.71282e-14)
(-75.0146 -3.32314 1.69069e-14)
(-74.6522 -3.5782 1.66762e-14)
(-74.133 -3.92012 1.64391e-14)
(-83.0369 0.236639 2.22111e-14)
(-82.622 0.259305 2.22106e-14)
(-82.3011 0.291022 2.22086e-14)
(-81.9787 0.32876 2.22042e-14)
(-81.667 0.370553 2.21966e-14)
(-81.3677 0.414854 2.2186e-14)
(-81.0822 0.460429 2.21717e-14)
(-80.8107 0.506357 2.2154e-14)
(-80.5532 0.552003 2.21327e-14)
(-80.3092 0.596989 2.21072e-14)
(-80.0781 0.641123 2.20797e-14)
(-79.8591 0.684334 2.20507e-14)
(-79.6515 0.726664 2.20184e-14)
(-79.4545 0.768203 2.19841e-14)
(-79.2676 0.809092 2.19479e-14)
(-79.09 0.8495 2.191e-14)
(-78.9212 0.889571 2.18706e-14)
(-78.7607 0.929474 2.18298e-14)
(-78.6081 0.969338 2.17876e-14)
(-78.463 1.00931 2.1744e-14)
(-78.325 1.04952 2.1699e-14)
(-78.1937 1.09008 2.16528e-14)
(-78.0689 1.1311 2.16112e-14)
(-77.9502 1.17268 2.15736e-14)
(-77.8374 1.21489 2.15308e-14)
(-77.7301 1.25779 2.14809e-14)
(-77.6282 1.30144 2.14418e-14)
(-77.5313 1.3459 2.14088e-14)
(-77.439 1.39122 2.13701e-14)
(-77.3512 1.43745 2.13319e-14)
(-77.2675 1.48464 2.12958e-14)
(-77.1877 1.53282 2.12576e-14)
(-77.1112 1.58203 2.12151e-14)
(-77.0377 1.63232 2.11668e-14)
(-76.9668 1.68373 2.11119e-14)
(-76.8978 1.73628 2.10523e-14)
(-76.8302 1.78995 2.09888e-14)
(-76.7633 1.84472 2.0923e-14)
(-76.6962 1.9005 2.08579e-14)
(-76.6278 1.95713 2.07929e-14)
(-76.5569 2.01431 2.07292e-14)
(-76.4821 2.07163 2.06695e-14)
(-76.4016 2.1284 2.06127e-14)
(-76.3128 2.18349 2.05599e-14)
(-76.2128 2.23489 2.05116e-14)
(-76.0986 2.27926 2.04646e-14)
(-75.9676 2.312 2.0422e-14)
(-75.813 2.32665 2.03812e-14)
(-75.6158 2.30721 2.0341e-14)
(-75.3513 2.20945 2.03033e-14)
(-80.0347 -1.52964 1.59006e-14)
(-79.5684 -1.54783 1.59668e-14)
(-79.2274 -1.55624 1.60304e-14)
(-78.8897 -1.55659 1.60907e-14)
(-78.5648 -1.55099 1.61477e-14)
(-78.2533 -1.54165 1.62009e-14)
(-77.9556 -1.53044 1.62496e-14)
(-77.6719 -1.5188 1.6294e-14)
(-77.4017 -1.50774 1.63342e-14)
(-77.1443 -1.49795 1.63702e-14)
(-76.899 -1.48983 1.64032e-14)
(-76.665 -1.48362 1.64338e-14)
(-76.4416 -1.47942 1.64612e-14)
(-76.228 -1.47725 1.6486e-14)
(-76.0236 -1.47707 1.65086e-14)
(-75.8278 -1.4788 1.65289e-14)
(-75.6401 -1.4824 1.6548e-14)
(-75.46 -1.48779 1.65664e-14)
(-75.2871 -1.49489 1.65834e-14)
(-75.121 -1.50366 1.65995e-14)
(-74.9614 -1.51401 1.66147e-14)
(-74.8078 -1.52592 1.66292e-14)
(-74.6601 -1.53934 1.66443e-14)
(-74.5178 -1.55428 1.66683e-14)
(-74.3806 -1.57072 1.66938e-14)
(-74.2482 -1.58869 1.67063e-14)
(-74.1203 -1.6082 1.67264e-14)
(-73.9966 -1.62928 1.67597e-14)
(-73.8766 -1.65197 1.67929e-14)
(-73.76 -1.67633 1.68271e-14)
(-73.6465 -1.70244 1.68649e-14)
(-73.5355 -1.73041 1.69047e-14)
(-73.4267 -1.76038 1.69431e-14)
(-73.3195 -1.7925 1.69769e-14)
(-73.2134 -1.82695 1.70034e-14)
(-73.1076 -1.86401 1.70233e-14)
(-73.0015 -1.90396 1.70369e-14)
(-72.8942 -1.9472 1.70458e-14)
(-72.7847 -1.99422 1.70529e-14)
(-72.6718 -2.04565 1.70603e-14)
(-72.5543 -2.10223 1.70707e-14)
(-72.4303 -2.16497 1.70862e-14)
(-72.298 -2.23509 1.71085e-14)
(-72.155 -2.31421 1.71388e-14)
(-71.9986 -2.40473 1.71797e-14)
(-71.8258 -2.50992 1.72286e-14)
(-71.6341 -2.63369 1.72877e-14)
(-71.4195 -2.7807 1.73562e-14)
(-71.1748 -2.96044 1.74334e-14)
(-70.8977 -3.19716 1.75217e-14)
(-75.9698 -0.616131 9.93561e-15)
(-75.5511 -0.591975 9.96949e-15)
(-75.2225 -0.549408 1.00025e-14)
(-74.8937 -0.493894 1.00335e-14)
(-74.5776 -0.429761 1.00628e-14)
(-74.2756 -0.360783 1.00903e-14)
(-73.9881 -0.289855 1.01154e-14)
(-73.7146 -0.218983 1.01382e-14)
(-73.4544 -0.149465 1.01588e-14)
(-73.2066 -0.0820532 1.0177e-14)
(-72.9705 -0.0170995 1.01938e-14)
(-72.7453 0.0452983 1.02096e-14)
(-72.5303 0.105195 1.02238e-14)
(-72.3249 0.162773 1.02367e-14)
(-72.1284 0.218235 1.02485e-14)
(-71.9406 0.2718 1.0259e-14)
(-71.7609 0.323675 1.02689e-14)
(-71.589 0.374048 1.02786e-14)
(-71.4246 0.423108 1.02873e-14)
(-71.2673 0.471016 1.02954e-14)
(-71.1169 0.517901 1.03028e-14)
(-70.9731 0.56387 1.03096e-14)
(-70.8356 0.608995 1.03159e-14)
(-70.704 0.653308 1.03282e-14)
(-70.5783 0.696825 1.035e-14)
(-70.4579 0.739557 1.0357e-14)
(-70.3427 0.781495 1.03621e-14)
(-70.2322 0.822606 1.03819e-14)
(-70.1262 0.862835 1.0406e-14)
(-70.0243 0.902087 1.0431e-14)
(-69.9262 0.940225 1.04595e-14)
(-69.8315 0.977076 1.04911e-14)
(-69.7399 1.01244 1.05225e-14)
(-69.6509 1.04606 1.05501e-14)
(-69.564 1.0776 1.05697e-14)
(-69.4787 1.10666 1.05804e-14)
(-69.3946 1.13275 1.05813e-14)
(-69.311 1.15525 1.05732e-14)
(-69.2272 1.17338 1.05598e-14)
(-69.1423 1.18618 1.05427e-14)
(-69.0556 1.19247 1.05258e-14)
(-68.9659 1.19073 1.0513e-14)
(-68.872 1.17911 1.05062e-14)
(-68.7726 1.15514 1.05065e-14)
(-68.6661 1.1156 1.05164e-14)
(-68.5511 1.05639 1.05312e-14)
(-68.4261 0.972616 1.05508e-14)
(-68.2898 0.858531 1.05733e-14)
(-68.1407 0.705941 1.05973e-14)
(-67.9802 0.502197 1.06221e-14)
(-69.8901 -2.03576 7.92197e-15)
(-69.4167 -2.05131 7.96931e-15)
(-69.0749 -2.04192 8.01501e-15)
(-68.7421 -2.01603 8.05809e-15)
(-68.4268 -1.98002 8.09879e-15)
(-68.1278 -1.93888 8.13712e-15)
(-67.8443 -1.89612 8.17239e-15)
(-67.5751 -1.85399 8.20487e-15)
(-67.319 -1.81387 8.23477e-15)
(-67.075 -1.77649 8.26192e-15)
(-66.8421 -1.74219 8.28735e-15)
(-66.6196 -1.71101 8.31149e-15)
(-66.4069 -1.68291 8.33376e-15)
(-66.2035 -1.65773 8.35455e-15)
(-66.0089 -1.63525 8.37401e-15)
(-65.8227 -1.6153 8.39184e-15)
(-65.6446 -1.59767 8.40892e-15)
(-65.4743 -1.58219 8.42553e-15)
(-65.3113 -1.56867 8.44099e-15)
(-65.1554 -1.55697 8.4555e-15)
(-65.0062 -1.54695 8.46893e-15)
(-64.8633 -1.53847 8.48145e-15)
(-64.7265 -1.53144 8.49299e-15)
(-64.5952 -1.52578 8.50689e-15)
(-64.4692 -1.52141 8.53598e-15)
(-64.348 -1.51827 8.55291e-15)
(-64.2312 -1.51629 8.55749e-15)
(-64.1183 -1.51543 8.57238e-15)
(-64.009 -1.51565 8.59414e-15)
(-63.9027 -1.51699 8.61703e-15)
(-63.7991 -1.51948 8.64247e-15)
(-63.6978 -1.52318 8.67229e-15)
(-63.5983 -1.52817 8.70408e-15)
(-63.5 -1.5346 8.73383e-15)
(-63.4026 -1.54269 8.75707e-15)
(-63.3055 -1.55269 8.77143e-15)
(-63.2082 -1.56494 8.77447e-15)
(-63.1103 -1.57993 8.76538e-15)
(-63.011 -1.59821 8.74692e-15)
(-62.9099 -1.62053 8.72265e-15)
(-62.8063 -1.64786 8.69631e-15)
(-62.6994 -1.68139 8.67128e-15)
(-62.5888 -1.72277 8.64982e-15)
(-62.4739 -1.77426 8.63268e-15)
(-62.3542 -1.83886 8.61993e-15)
(-62.2297 -1.92061 8.6043e-15)
(-62.1005 -2.02479 8.58373e-15)
(-61.9676 -2.15827 8.55333e-15)
(-61.8331 -2.33079 8.50947e-15)
(-61.6998 -2.5558 8.45132e-15)
(-61.6259 -1.51053 5.75831e-15)
(-61.1958 -1.48265 5.81268e-15)
(-60.8701 -1.41974 5.86733e-15)
(-60.5553 -1.33676 5.92067e-15)
(-60.2621 -1.24331 5.97292e-15)
(-59.9886 -1.14594 6.0241e-15)
(-59.7329 -1.04872 6.07338e-15)
(-59.4929 -0.953984 6.12106e-15)
(-59.2668 -0.86288 6.16734e-15)
(-59.0535 -0.775875 6.21203e-15)
(-58.8519 -0.693046 6.25625e-15)
(-58.6612 -0.614244 6.30057e-15)
(-58.4809 -0.539215 6.34445e-15)
(-58.3103 -0.467719 6.38842e-15)
(-58.1489 -0.399474 6.43282e-15)
(-57.9965 -0.334258 6.47744e-15)
(-57.8524 -0.271883 6.52351e-15)
(-57.7163 -0.212192 6.57156e-15)
(-57.5878 -0.155058 6.62087e-15)
(-57.4664 -0.100374 6.67191e-15)
(-57.3516 -0.0480574 6.72462e-15)
(-57.243 0.00194949 6.77948e-15)
(-57.14 0.0496729 6.83688e-15)
(-57.0424 0.0951105 6.89637e-15)
(-56.9495 0.138246 6.97912e-15)
(-56.8608 0.179046 7.05978e-15)
(-56.776 0.217461 7.12232e-15)
(-56.6943 0.253412 7.19167e-15)
(-56.6156 0.286774 7.27255e-15)
(-56.5392 0.317384 7.35684e-15)
(-56.4648 0.345065 7.44378e-15)
(-56.392 0.369622 7.53867e-15)
(-56.3203 0.390795 7.64202e-15)
(-56.2494 0.408251 7.75174e-15)
(-56.1789 0.421628 7.86395e-15)
(-56.1084 0.430485 7.97652e-15)
(-56.0377 0.434271 8.0859e-15)
(-55.9663 0.432393 8.18981e-15)
(-55.8939 0.424171 8.2906e-15)
(-55.8203 0.408768 8.39124e-15)
(-55.7451 0.38527 8.4963e-15)
(-55.6681 0.35259 8.6101e-15)
(-55.5894 0.309349 8.73467e-15)
(-55.5091 0.253911 8.87186e-15)
(-55.4277 0.184233 9.02014e-15)
(-55.3464 0.0978296 9.17702e-15)
(-55.2666 -0.00824504 9.34677e-15)
(-55.1918 -0.137473 9.53671e-15)
(-55.1276 -0.294409 9.76004e-15)
(-55.0791 -0.485354 1.00302e-14)
(-51.2708 -2.56415 4.06285e-15)
(-50.7977 -2.56042 4.08674e-15)
(-50.4861 -2.50776 4.1045e-15)
(-50.2037 -2.43431 4.11549e-15)
(-49.9528 -2.35299 4.12067e-15)
(-49.7271 -2.27082 4.12079e-15)
(-49.5223 -2.19138 4.11539e-15)
(-49.335 -2.11633 4.10454e-15)
(-49.1629 -2.04619 4.08814e-15)
(-49.0042 -1.98096 4.066e-15)
(-48.8576 -1.92041 4.03802e-15)
(-48.722 -1.8642 4.00408e-15)
(-48.5966 -1.81194 3.96369e-15)
(-48.4805 -1.76332 3.91644e-15)
(-48.3729 -1.71804 3.86212e-15)
(-48.273 -1.67582 3.80009e-15)
(-48.1802 -1.63645 3.73123e-15)
(-48.0937 -1.59973 3.65584e-15)
(-48.0129 -1.56547 3.57307e-15)
(-47.9369 -1.5335 3.48319e-15)
(-47.8652 -1.50365 3.38606e-15)
(-47.7971 -1.47579 3.28429e-15)
(-47.7321 -1.44979 3.17538e-15)
(-47.6696 -1.42555 3.05647e-15)
(-47.6091 -1.40297 2.95662e-15)
(-47.55 -1.38194 2.85611e-15)
(-47.4919 -1.36241 2.72359e-15)
(-47.4344 -1.34434 2.57707e-15)
(-47.377 -1.32771 2.43395e-15)
(-47.3195 -1.31254 2.28975e-15)
(-47.2616 -1.29881 2.13797e-15)
(-47.203 -1.28659 1.97979e-15)
(-47.1436 -1.27601 1.81607e-15)
(-47.0833 -1.26723 1.65313e-15)
(-47.022 -1.26051 1.48975e-15)
(-46.9596 -1.25622 1.32542e-15)
(-46.8962 -1.2548 1.1552e-15)
(-46.8318 -1.2568 9.73597e-16)
(-46.7664 -1.26294 7.82247e-16)
(-46.7002 -1.27401 5.79667e-16)
(-46.6333 -1.29102 3.65615e-16)
(-46.5661 -1.31531 1.33556e-16)
(-46.4991 -1.34846 -1.2332e-16)
(-46.4332 -1.39246 -4.123e-16)
(-46.3696 -1.44979 -7.37781e-16)
(-46.3099 -1.52347 -1.10486e-15)
(-46.2563 -1.61707 -1.502e-15)
(-46.2127 -1.73488 -1.94111e-15)
(-46.186 -1.88158 -2.43475e-15)
(-46.1826 -2.06273 -2.99811e-15)
(-39.21 -2.41192 3.71166e-15)
(-38.7816 -2.32875 3.92944e-15)
(-38.5287 -2.18979 4.15392e-15)
(-38.3186 -2.04391 4.37924e-15)
(-38.1478 -1.89906 4.60566e-15)
(-38.0062 -1.75994 4.83357e-15)
(-37.8871 -1.62849 5.06271e-15)
(-37.7858 -1.50499 5.29358e-15)
(-37.699 -1.38899 5.52658e-15)
(-37.6242 -1.2799 5.76163e-15)
(-37.5595 -1.17715 5.99933e-15)
(-37.5034 -1.08028 6.23994e-15)
(-37.4545 -0.98892 6.48265e-15)
(-37.4114 -0.902762 6.72699e-15)
(-37.3732 -0.821592 6.97248e-15)
(-37.3386 -0.745244 7.21826e-15)
(-37.3069 -0.67355 7.46432e-15)
(-37.2773 -0.606356 7.71051e-15)
(-37.249 -0.543512 7.95586e-15)
(-37.2214 -0.484858 8.19992e-15)
(-37.194 -0.430247 8.4405e-15)
(-37.1664 -0.379558 8.68662e-15)
(-37.1384 -0.332686 8.92835e-15)
(-37.1095 -0.289542 9.15554e-15)
(-37.0797 -0.250064 9.41084e-15)
(-37.0486 -0.214214 9.68515e-15)
(-37.0161 -0.181978 9.92874e-15)
(-36.9822 -0.153382 1.01434e-14)
(-36.9467 -0.128461 1.03554e-14)
(-36.9097 -0.107232 1.05721e-14)
(-36.8712 -0.0897109 1.07882e-14)
(-36.8314 -0.075956 1.10044e-14)
(-36.7904 -0.0660562 1.12212e-14)
(-36.7484 -0.0601441 1.14371e-14)
(-36.7055 -0.0584402 1.16501e-14)
(-36.6622 -0.0611913 1.18584e-14)
(-36.6185 -0.0686721 1.20741e-14)
(-36.5749 -0.0812753 1.23014e-14)
(-36.5315 -0.0993996 1.25387e-14)
(-36.4886 -0.123442 1.27849e-14)
(-36.4467 -0.153977 1.30359e-14)
(-36.4064 -0.191696 1.3279e-14)
(-36.3685 -0.237408 1.35184e-14)
(-36.3344 -0.29214 1.3741e-14)
(-36.3058 -0.357059 1.39958e-14)
(-36.285 -0.433608 1.42867e-14)
(-36.2749 -0.523607 1.46147e-14)
(-36.2802 -0.629309 1.49829e-14)
(-36.3093 -0.752774 1.53935e-14)
(-36.3706 -0.895837 1.58504e-14)
(-26.4433 -3.17172 5.30757e-17)
(-26.0255 -3.01336 6.41467e-17)
(-25.8501 -2.81802 7.8238e-17)
(-25.7448 -2.65651 9.49772e-17)
(-25.675 -2.50993 1.15862e-16)
(-25.6307 -2.37686 1.42179e-16)
(-25.604 -2.25731 1.73722e-16)
(-25.5894 -2.14964 2.10845e-16)
(-25.5832 -2.05192 2.54088e-16)
(-25.5828 -1.96274 3.03438e-16)
(-25.5861 -1.88105 3.60086e-16)
(-25.5913 -1.80605 4.24809e-16)
(-25.5969 -1.7371 4.96769e-16)
(-25.6017 -1.67366 5.75763e-16)
(-25.6047 -1.61533 6.61591e-16)
(-25.6052 -1.56174 7.53407e-16)
(-25.6025 -1.51256 8.51758e-16)
(-25.5965 -1.46744 9.56807e-16)
(-25.587 -1.42604 1.06753e-15)
(-25.5742 -1.38804 1.18342e-15)
(-25.5582 -1.35307 1.29696e-15)
(-25.5395 -1.32081 1.43508e-15)
(-25.5183 -1.29096 1.57217e-15)
(-25.4951 -1.26324 1.68425e-15)
(-25.4701 -1.23741 1.84035e-15)
(-25.4436 -1.21327 2.0475e-15)
(-25.4157 -1.19066 2.23229e-15)
(-25.3866 -1.16949 2.36826e-15)
(-25.3565 -1.14966 2.48024e-15)
(-25.3255 -1.13111 2.5928e-15)
(-25.2937 -1.1138 2.70592e-15)
(-25.2616 -1.09776 2.82287e-15)
(-25.2292 -1.08313 2.94243e-15)
(-25.197 -1.07018 3.06652e-15)
(-25.1651 -1.05926 3.19449e-15)
(-25.1339 -1.05082 3.31748e-15)
(-25.1037 -1.04543 3.43467e-15)
(-25.0746 -1.04373 3.5414e-15)
(-25.0468 -1.04639 3.64069e-15)
(-25.0206 -1.0542 3.72516e-15)
(-24.9964 -1.06796 3.78752e-15)
(-24.9748 -1.08857 3.84758e-15)
(-24.9567 -1.11704 3.89432e-15)
(-24.9435 -1.15436 3.92206e-15)
(-24.9369 -1.20156 3.94696e-15)
(-24.9395 -1.25966 3.96901e-15)
(-24.9545 -1.32983 3.98775e-15)
(-24.9867 -1.4136 3.99973e-15)
(-25.0448 -1.5121 3.99883e-15)
(-25.1398 -1.6248 3.97681e-15)
(-12.795 -3.1947 -6.46138e-17)
(-12.7655 -2.70789 -9.11572e-17)
(-12.5741 -2.46971 -1.17586e-16)
(-12.5906 -2.25339 -1.48489e-16)
(-12.6134 -2.06446 -1.83737e-16)
(-12.6454 -1.89805 -2.21717e-16)
(-12.685 -1.75016 -2.62627e-16)
(-12.7278 -1.6168 -3.0744e-16)
(-12.7706 -1.49524 -3.56352e-16)
(-12.8118 -1.38388 -4.09828e-16)
(-12.85 -1.28169 -4.67196e-16)
(-12.8846 -1.18785 -5.2668e-16)
(-12.9147 -1.10166 -5.88321e-16)
(-12.9399 -1.02249 -6.52843e-16)
(-12.9599 -0.949776 -7.2023e-16)
(-12.9745 -0.882959 -7.90906e-16)
(-12.9839 -0.82146 -8.64127e-16)
(-12.9885 -0.764723 -9.37207e-16)
(-12.9886 -0.71225 -1.00541e-15)
(-12.9849 -0.66361 -1.07302e-15)
(-12.978 -0.618466 -1.18645e-15)
(-12.9687 -0.576601 -1.2114e-15)
(-12.9578 -0.537914 -1.2115e-15)
(-12.946 -0.502366 -1.34276e-15)
(-12.9336 -0.469953 -1.44785e-15)
(-12.921 -0.440722 -1.36003e-15)
(-12.908 -0.414746 -1.19534e-15)
(-12.8944 -0.39207 -1.06663e-15)
(-12.8799 -0.372699 -1.02011e-15)
(-12.8646 -0.356581 -1.00432e-15)
(-12.8483 -0.343628 -1.00808e-15)
(-12.8309 -0.333795 -1.00277e-15)
(-12.8125 -0.327125 -9.82866e-16)
(-12.7936 -0.323683 -9.34451e-16)
(-12.7751 -0.32352 -8.49996e-16)
(-12.7578 -0.326789 -7.08535e-16)
(-12.7423 -0.333746 -5.02497e-16)
(-12.7291 -0.34462 -2.24223e-16)
(-12.7184 -0.359685 1.06975e-16)
(-12.7108 -0.379226 4.68228e-16)
(-12.7069 -0.403468 8.41917e-16)
(-12.7069 -0.43272 1.21637e-15)
(-12.712 -0.467268 1.59043e-15)
(-12.724 -0.507244 1.97284e-15)
(-12.744 -0.552736 2.36611e-15)
(-12.7759 -0.603659 2.77478e-15)
(-12.8222 -0.660133 3.20088e-15)
(-12.8892 -0.722748 3.65239e-15)
(-12.9834 -0.792539 4.14019e-15)
(-13.1223 -0.868135 4.67078e-15)
(2.20688 -4.69539 1.33051e-17)
(1.05722 -2.92252 1.37965e-17)
(1.46941 -2.66757 1.46368e-17)
(1.53123 -2.4325 1.66491e-17)
(1.44934 -2.22191 1.55498e-17)
(1.40174 -2.06197 1.20313e-17)
(1.36068 -1.93252 1.13757e-17)
(1.31171 -1.81934 1.21826e-17)
(1.25987 -1.71752 1.35315e-17)
(1.20767 -1.62481 1.66929e-17)
(1.1537 -1.53966 1.56754e-17)
(1.09639 -1.46117 1.1331e-17)
(1.03558 -1.38862 1.13302e-17)
(0.972211 -1.32165 1.32787e-17)
(0.907242 -1.26002 1.57891e-17)
(0.841245 -1.2032 1.99115e-17)
(0.774898 -1.15051 1.06474e-17)
(0.709739 -1.1014 -3.35535e-17)
(0.648083 -1.05514 -5.45805e-17)
(0.591262 -1.01074 2.01074e-16)
(0.538781 -0.967384 -2.56616e-16)
(0.489494 -0.924567 -5.83828e-16)
(0.443211 -0.882165 9.25548e-17)
(0.399524 -0.840256 4.80578e-16)
(0.356511 -0.799155 -5.30604e-16)
(0.31225 -0.759479 -1.52095e-15)
(0.267535 -0.721967 -1.91451e-15)
(0.225806 -0.687399 -1.579e-15)
(0.189073 -0.656317 -1.22964e-15)
(0.15649 -0.628792 -9.42747e-16)
(0.128449 -0.604772 -9.04583e-16)
(0.109447 -0.5846 -9.33054e-16)
(0.104862 -0.568767 -1.20513e-15)
(0.116118 -0.557264 -1.60612e-15)
(0.140289 -0.549677 -2.28078e-15)
(0.173957 -0.545716 -2.95373e-15)
(0.216867 -0.545621 -3.46173e-15)
(0.268343 -0.549807 -3.72103e-15)
(0.32345 -0.558181 -3.74784e-15)
(0.3781 -0.570505 -3.61875e-15)
(0.429281 -0.586601 -3.38709e-15)
(0.472889 -0.606704 -3.17051e-15)
(0.51011 -0.631061 -3.05855e-15)
(0.533687 -0.65923 -2.8357e-15)
(0.545228 -0.690961 -2.54781e-15)
(0.540686 -0.724387 -2.2662e-15)
(0.517857 -0.757189 -2.00744e-15)
(0.463721 -0.784171 -1.82536e-15)
(0.379356 -0.804055 -1.68264e-15)
(0.059057 -0.808715 -1.66616e-15)
(16.8021 -3.80871 1.30975e-17)
(16.2801 -3.21605 1.31581e-17)
(16.093 -2.86387 1.29405e-17)
(16.0076 -2.60671 1.33801e-17)
(15.9144 -2.39632 1.38187e-17)
(15.8151 -2.2294 1.32912e-17)
(15.7159 -2.09923 1.30049e-17)
(15.6175 -1.9961 1.29459e-17)
(15.5197 -1.91239 1.26606e-17)
(15.4229 -1.84284 1.31142e-17)
(15.3271 -1.78384 1.35533e-17)
(15.2326 -1.73288 1.30018e-17)
(15.1395 -1.6883 1.27586e-17)
(15.0479 -1.64904 1.27906e-17)
(14.9583 -1.61451 1.26029e-17)
(14.8709 -1.58433 1.28238e-17)
(14.7863 -1.55814 1.1137e-17)
(14.7046 -1.53548 2.09546e-18)
(14.6262 -1.51572 -7.56899e-18)
(14.5515 -1.49813 2.7214e-17)
(14.4804 -1.4819 -2.39315e-17)
(14.413 -1.46625 -1.05127e-16)
(14.3493 -1.45052 -7.35581e-17)
(14.2889 -1.43422 1.6094e-17)
(14.2317 -1.41712 3.26588e-18)
(14.1774 -1.39923 -8.38692e-17)
(14.1258 -1.38075 -2.13088e-16)
(14.0767 -1.36199 -3.0863e-16)
(14.0298 -1.34332 -3.76577e-16)
(13.9853 -1.32517 -4.29661e-16)
(13.9433 -1.30796 -4.87528e-16)
(13.9042 -1.2921 -5.41331e-16)
(13.8679 -1.27788 -6.25739e-16)
(13.8346 -1.26549 -7.34641e-16)
(13.8042 -1.25503 -8.51315e-16)
(13.7766 -1.24662 -9.62504e-16)
(13.7511 -1.24032 -1.05789e-15)
(13.7266 -1.23612 -1.13374e-15)
(13.702 -1.23391 -1.18917e-15)
(13.6759 -1.23349 -1.22671e-15)
(13.647 -1.23462 -1.24737e-15)
(13.6136 -1.237 -1.2512e-15)
(13.5739 -1.2402 -1.2569e-15)
(13.5258 -1.24362 -1.26378e-15)
(13.4667 -1.24629 -1.26437e-15)
(13.3936 -1.24679 -1.25637e-15)
(13.3034 -1.24308 -1.2362e-15)
(13.1932 -1.23239 -1.21295e-15)
(13.0628 -1.21165 -1.17696e-15)
(12.8933 -1.17725 -1.14073e-15)
(31.6647 -2.81566 1.26382e-17)
(31.2869 -2.36889 1.26517e-17)
(30.9882 -2.04411 1.23118e-17)
(30.7876 -1.79681 1.2586e-17)
(30.6111 -1.58183 1.30503e-17)
(30.4366 -1.39299 1.27816e-17)
(30.2676 -1.23017 1.2624e-17)
(30.1066 -1.08917 1.25781e-17)
(29.9528 -0.965007 1.22262e-17)
(29.805 -0.853668 1.25232e-17)
(29.6624 -0.75232 1.29886e-17)
(29.5243 -0.659023 1.26971e-17)
(29.3903 -0.572531 1.25521e-17)
(29.26 -0.49227 1.25404e-17)
(29.1334 -0.418102 1.21844e-17)
(29.0106 -0.350116 1.2239e-17)
(28.892 -0.288462 1.12635e-17)
(28.778 -0.23314 4.24465e-18)
(28.6689 -0.183892 -3.74596e-18)
(28.5648 -0.140202 2.03027e-17)
(28.4658 -0.101349 -7.33415e-18)
(28.3719 -0.0664816 -6.96221e-17)
(28.2826 -0.0347335 -7.84672e-17)
(28.1976 -0.00535346 -2.7099e-17)
(28.1162 0.0221835 1.57631e-17)
(28.038 0.0481478 2.63128e-17)
(27.9624 0.0725993 -1.226e-17)
(27.8891 0.0954421 -5.60463e-17)
(27.8177 0.116448 -1.02728e-16)
(27.748 0.135272 -1.50143e-16)
(27.68 0.151499 -1.93398e-16)
(27.6137 0.164733 -2.36095e-16)
(27.5491 0.174684 -2.83647e-16)
(27.4862 0.181186 -3.30889e-16)
(27.4251 0.184132 -3.69769e-16)
(27.3656 0.183428 -3.98512e-16)
(27.3072 0.179042 -4.20296e-16)
(27.2495 0.171085 -4.37121e-16)
(27.1916 0.159772 -4.48536e-16)
(27.1328 0.14541 -4.56149e-16)
(27.0722 0.128412 -4.63915e-16)
(27.0086 0.109319 -4.70998e-16)
(26.9408 0.0889425 -4.7698e-16)
(26.8675 0.068478 -4.84596e-16)
(26.787 0.0497189 -4.92977e-16)
(26.6977 0.0352152 -5.04367e-16)
(26.5977 0.028413 -5.24425e-16)
(26.4852 0.0337344 -5.54227e-16)
(26.3597 0.056051 -5.92552e-16)
(26.2041 0.101219 -6.37589e-16)
(47.2599 -3.43448 1.2239e-17)
(46.6752 -3.12104 1.2234e-17)
(46.1625 -2.87661 1.18586e-17)
(45.7817 -2.70032 1.21305e-17)
(45.4632 -2.55956 1.26525e-17)
(45.1699 -2.44354 1.24006e-17)
(44.8971 -2.35032 1.22448e-17)
(44.6452 -2.27635 1.21828e-17)
(44.4119 -2.21695 1.2049e-17)
(44.1941 -2.16799 1.21411e-17)
(43.989 -2.12625 1.23093e-17)
(43.7947 -2.08924 1.21899e-17)
(43.6094 -2.05526 1.21425e-17)
(43.4319 -2.02327 1.21638e-17)
(43.2614 -1.9928 1.22088e-17)
(43.0976 -1.96377 1.21389e-17)
(42.9403 -1.93632 1.08342e-17)
(42.7897 -1.91063 5.03153e-18)
(42.646 -1.88682 -2.32248e-18)
(42.5094 -1.86488 2.02732e-17)
(42.3798 -1.84463 4.65535e-18)
(42.2572 -1.8257 -5.2179e-17)
(42.141 -1.80765 -9.26841e-17)
(42.0307 -1.78999 -8.5231e-17)
(41.9255 -1.77238 -4.09439e-17)
(41.8244 -1.75458 5.54214e-18)
(41.7269 -1.73647 3.38391e-17)
(41.6322 -1.71807 4.24229e-17)
(41.5399 -1.69949 3.66208e-17)
(41.4496 -1.68093 2.49248e-17)
(41.361 -1.66262 2.2167e-17)
(41.2742 -1.64478 2.00006e-17)
(41.189 -1.62755 2.03851e-17)
(41.1057 -1.61103 2.45486e-17)
(41.0241 -1.59527 3.39163e-17)
(40.9442 -1.58031 4.71688e-17)
(40.8657 -1.56613 6.38685e-17)
(40.7884 -1.55265 8.17548e-17)
(40.7116 -1.5397 9.9677e-17)
(40.6349 -1.52704 1.15405e-16)
(40.5573 -1.51437 1.29145e-16)
(40.4781 -1.50124 1.37245e-16)
(40.3964 -1.48702 1.40046e-16)
(40.3113 -1.47077 1.43812e-16)
(40.2217 -1.45115 1.51618e-16)
(40.1266 -1.42621 1.67775e-16)
(40.0247 -1.39339 1.86809e-16)
(39.9144 -1.34938 1.9814e-16)
(39.7945 -1.29011 1.93836e-16)
(39.6451 -1.21031 1.66531e-16)
(59.7406 -0.885108 1.14189e-17)
(59.4386 -0.640333 1.1412e-17)
(59.0791 -0.432286 1.1019e-17)
(58.8039 -0.257454 1.11678e-17)
(58.5812 -0.103225 1.16313e-17)
(58.3743 0.0335276 1.14939e-17)
(58.1774 0.151759 1.14189e-17)
(57.9929 0.251984 1.14044e-17)
(57.8204 0.336303 1.10062e-17)
(57.6578 0.407049 1.11705e-17)
(57.5032 0.466498 1.1661e-17)
(57.3551 0.516824 1.15288e-17)
(57.212 0.560003 1.14634e-17)
(57.073 0.597701 1.14556e-17)
(56.9374 0.631157 1.10006e-17)
(56.805 0.661234 1.08507e-17)
(56.6759 0.688501 9.88546e-18)
(56.5502 0.71324 4.41214e-18)
(56.4285 0.735473 -1.29239e-18)
(56.311 0.755079 2.21436e-17)
(56.198 0.771927 2.26425e-17)
(56.0897 0.785995 -2.07627e-17)
(55.9858 0.797373 -8.83285e-17)
(55.8857 0.806212 -1.437e-16)
(55.7888 0.812649 -1.69456e-16)
(55.6944 0.816778 -1.62314e-16)
(55.6018 0.818657 -1.40164e-16)
(55.5105 0.818355 -1.16713e-16)
(55.4199 0.81599 -9.91582e-17)
(55.3298 0.811706 -8.93165e-17)
(55.24 0.805631 -8.20712e-17)
(55.1504 0.797877 -7.78883e-17)
(55.0612 0.788542 -7.38387e-17)
(54.9724 0.777707 -6.8453e-17)
(54.8842 0.765449 -6.79419e-17)
(54.7965 0.751848 -6.88313e-17)
(54.7091 0.736995 -6.63135e-17)
(54.622 0.72098 -6.0961e-17)
(54.5346 0.703959 -5.50449e-17)
(54.4465 0.68619 -5.27584e-17)
(54.3571 0.668082 -5.30106e-17)
(54.2658 0.650235 -5.53789e-17)
(54.1722 0.63353 -5.73209e-17)
(54.0758 0.619252 -4.95375e-17)
(53.9763 0.609149 -2.79681e-17)
(53.8737 0.605737 4.01408e-18)
(53.768 0.612543 3.71319e-17)
(53.6591 0.634246 6.13063e-17)
(53.5476 0.677153 7.1643e-17)
(53.4176 0.74933 5.88501e-17)
(78.6076 -3.6795 1.00184e-17)
(77.903 -3.53161 9.98883e-18)
(77.2395 -3.40332 9.68974e-18)
(76.6923 -3.29667 9.78668e-18)
(76.215 -3.19931 1.01368e-17)
(75.7725 -3.10737 1.00428e-17)
(75.3572 -3.02091 9.98934e-18)
(74.9696 -2.94036 9.98125e-18)
(74.6081 -2.866 9.67316e-18)
(74.2695 -2.79823 9.75652e-18)
(73.9511 -2.73731 1.01029e-17)
(73.6507 -2.68311 9.99456e-18)
(73.366 -2.63498 9.93782e-18)
(73.095 -2.59185 9.91505e-18)
(72.836 -2.55236 9.3858e-18)
(72.5876 -2.51505 8.99661e-18)
(72.3486 -2.47856 7.82582e-18)
(72.1181 -2.44184 2.75152e-18)
(71.8955 -2.40428 -1.3339e-18)
(71.6802 -2.36567 2.25016e-17)
(71.4719 -2.32606 4.55182e-17)
(71.2703 -2.28567 4.11709e-17)
(71.075 -2.2448 -2.34172e-18)
(70.8853 -2.20388 -6.78829e-17)
(70.7004 -2.16343 -1.456e-16)
(70.5197 -2.12405 -2.2918e-16)
(70.3425 -2.08626 -3.1465e-16)
(70.1685 -2.05044 -4.01633e-16)
(69.9973 -2.01672 -4.92522e-16)
(69.8287 -1.98509 -5.94716e-16)
(69.6623 -1.95542 -6.95341e-16)
(69.4982 -1.92747 -7.89681e-16)
(69.3364 -1.90089 -8.72597e-16)
(69.1769 -1.87537 -9.5101e-16)
(69.0197 -1.85059 -1.02997e-15)
(68.8646 -1.8263 -1.10585e-15)
(68.7117 -1.8023 -1.16639e-15)
(68.5604 -1.77851 -1.21583e-15)
(68.4107 -1.75483 -1.25747e-15)
(68.2621 -1.73113 -1.29005e-15)
(68.1142 -1.7072 -1.31429e-15)
(67.9668 -1.68269 -1.33071e-15)
(67.8197 -1.65699 -1.33477e-15)
(67.6731 -1.62911 -1.32426e-15)
(67.5274 -1.59756 -1.30562e-15)
(67.3836 -1.56027 -1.29171e-15)
(67.2432 -1.51419 -1.30001e-15)
(67.1079 -1.45494 -1.33617e-15)
(66.9801 -1.37551 -1.3965e-15)
(66.8443 -1.26242 -1.48196e-15)
(81.695 1.78145 5.08761e-18)
(81.4123 1.93872 5.07068e-18)
(81.0433 2.02566 4.66371e-18)
(80.7524 2.07082 4.93975e-18)
(80.5222 2.09099 5.61157e-18)
(80.3145 2.09695 5.56362e-18)
(80.1198 2.09643 5.57942e-18)
(79.9381 2.09342 5.62541e-18)
(79.768 2.08902 5.02736e-18)
(79.6074 2.0827 5.12019e-18)
(79.4546 2.07321 5.70624e-18)
(79.3091 2.0592 5.43636e-18)
(79.1708 2.03978 5.10879e-18)
(79.0394 2.01478 4.66734e-18)
(78.9152 1.98486 3.80376e-18)
(78.7979 1.95138 2.5128e-18)
(78.6874 1.91621 9.77622e-20)
(78.5831 1.88109 -5.24142e-18)
(78.4848 1.84719 -9.06738e-18)
(78.3926 1.8151 1.03504e-17)
(78.3067 1.78532 4.74069e-17)
(78.2268 1.75832 8.38557e-17)
(78.1523 1.7344 1.16003e-16)
(78.082 1.71338 1.44852e-16)
(78.0148 1.69448 1.78304e-16)
(77.9501 1.67651 2.18915e-16)
(77.8873 1.65839 2.69386e-16)
(77.8264 1.63946 3.2962e-16)
(77.767 1.61929 4.02572e-16)
(77.7086 1.59749 4.92152e-16)
(77.6511 1.57374 5.92598e-16)
(77.5947 1.54792 7.09771e-16)
(77.5395 1.52027 8.48483e-16)
(77.486 1.4912 1.00436e-15)
(77.4343 1.4611 1.16199e-15)
(77.3847 1.43024 1.32023e-15)
(77.3369 1.3988 1.47786e-15)
(77.291 1.36697 1.63551e-15)
(77.2465 1.33501 1.79785e-15)
(77.2031 1.30323 1.96296e-15)
(77.1606 1.27187 2.11939e-15)
(77.1187 1.24118 2.25689e-15)
(77.0775 1.21144 2.37521e-15)
(77.0376 1.18333 2.48327e-15)
(77.0001 1.15815 2.58494e-15)
(76.9667 1.13796 2.67629e-15)
(76.9402 1.12575 2.74327e-15)
(76.9252 1.12568 2.79789e-15)
(76.9324 1.14415 2.84868e-15)
(76.9582 1.1918 2.89747e-15)
(111.623 -4.51283 -8.10275e-18)
(110.952 -4.38369 -8.31244e-18)
(110.316 -4.21958 -8.4145e-18)
(109.796 -4.06351 -8.05105e-18)
(109.349 -3.93211 -7.19652e-18)
(108.941 -3.81826 -6.60343e-18)
(108.562 -3.71213 -5.62963e-18)
(108.208 -3.60867 -4.44631e-18)
(107.872 -3.50628 -3.72202e-18)
(107.552 -3.40519 -2.5188e-18)
(107.244 -3.30673 -1.00784e-18)
(106.948 -3.21274 -1.19602e-19)
(106.664 -3.12496 7.66813e-19)
(106.39 -3.04453 1.69756e-18)
(106.126 -2.97196 2.47379e-18)
(105.874 -2.9068 3.13532e-18)
(105.632 -2.84753 3.35088e-18)
(105.399 -2.79251 -3.55294e-19)
(105.174 -2.74082 -9.40999e-18)
(104.956 -2.69201 -1.91201e-17)
(104.744 -2.64519 -3.69371e-17)
(104.539 -2.59875 -7.89506e-17)
(104.338 -2.55109 -1.30501e-16)
(104.141 -2.50129 -1.7603e-16)
(103.946 -2.44973 -2.12823e-16)
(103.752 -2.39785 -2.50862e-16)
(103.559 -2.34688 -2.87906e-16)
(103.367 -2.29707 -3.24311e-16)
(103.177 -2.24834 -3.77218e-16)
(102.987 -2.20103 -4.30316e-16)
(102.799 -2.15597 -4.81757e-16)
(102.611 -2.11389 -5.37512e-16)
(102.426 -2.0749 -5.94506e-16)
(102.243 -2.03852 -6.48382e-16)
(102.061 -2.00412 -7.00668e-16)
(101.882 -1.97134 -7.52882e-16)
(101.705 -1.94011 -8.06966e-16)
(101.53 -1.9104 -8.62148e-16)
(101.356 -1.88199 -9.09448e-16)
(101.183 -1.85435 -9.48886e-16)
(101.011 -1.82713 -9.84285e-16)
(100.84 -1.8004 -1.02791e-15)
(100.67 -1.77447 -1.07616e-15)
(100.502 -1.74964 -1.10777e-15)
(100.337 -1.72613 -1.12783e-15)
(100.178 -1.70397 -1.14337e-15)
(100.027 -1.68324 -1.17305e-15)
(99.8908 -1.66503 -1.20149e-15)
(99.7776 -1.65171 -1.2288e-15)
(99.6967 -1.65233 -1.25761e-15)
(117.603 4.59219 -2.10309e-16)
(117.248 4.25831 -2.04965e-16)
(116.822 4.07226 -1.99657e-16)
(116.413 3.93074 -1.99354e-16)
(116.052 3.79508 -1.95033e-16)
(115.735 3.66316 -1.83867e-16)
(115.451 3.53951 -1.70264e-16)
(115.191 3.42636 -1.54714e-16)
(114.95 3.32397 -1.35238e-16)
(114.722 3.23177 -1.11132e-16)
(114.505 3.14854 -8.27059e-17)
(114.295 3.07256 -5.01311e-17)
(114.094 3.00187 -1.50507e-17)
(113.901 2.93474 1.99786e-17)
(113.717 2.8698 5.33705e-17)
(113.541 2.80608 8.82856e-17)
(113.373 2.74355 1.25753e-16)
(113.214 2.68287 1.6358e-16)
(113.063 2.62435 2.08832e-16)
(112.918 2.56755 2.64674e-16)
(112.779 2.51194 3.19398e-16)
(112.645 2.45776 3.5474e-16)
(112.515 2.40599 3.90007e-16)
(112.387 2.35766 4.23045e-16)
(112.259 2.31321 4.56414e-16)
(112.13 2.272 5.00544e-16)
(112.001 2.23273 5.42337e-16)
(111.872 2.19465 5.86611e-16)