/*--------------------------------*- C++ -*----------------------------------*\
  =========                 |
  \\      /  F ield         | OpenFOAM: The Open Source CFD Toolbox
   \\    /   O peration     | Website:  https://openfoam.org
    \\  /    A nd           | Version:  8
     \\/     M anipulation  |
\*---------------------------------------------------------------------------*/
FoamFile
{
    version     2.0;
    format      ascii;
    class       volScalarField;
    location    "300";
    object      epsilon;
}
// * * * * * * * * * * * * * * * * * * * * * * * * * * * * * * * * * * * * * //

dimensions      [0 2 -3 0 0 0 0];

internalField   nonuniform List<scalar> 
1200
(
1.13863
0.888647
0.710514
0.579996
0.481998
0.406852
0.348171
0.301606
0.264124
0.233565
0.208363
0.18736
0.169691
0.154699
0.141878
0.130835
0.12126
0.112907
0.105579
0.0991169
0.093391
0.0882946
0.0837394
0.0796521
0.0759713
0.0726453
0.0696303
0.066889
0.0643896
0.0621045
0.0600103
0.0580864
0.0563151
0.0546807
0.0531697
0.05177
0.0504712
0.0492639
0.0481397
0.0470913
0.0461122
0.0451964
0.0443386
0.0435342
0.0427788
0.0420686
0.0414001
0.0407702
0.0401759
0.0396146
0.039084
0.0385819
0.0381063
0.0376554
0.0372274
0.036821
0.0364346
0.036067
0.035717
0.0353834
1.45211
0.919936
0.614002
0.427786
0.308861
0.229724
0.175212
0.136543
0.108407
0.0874778
0.0716047
0.0593574
0.0497627
0.0421427
0.0360163
0.0310359
0.0269459
0.0235561
0.0207231
0.0183372
0.0163135
0.0145856
0.0131015
0.0118196
0.0107066
0.00973546
0.0088843
0.00813514
0.0074731
0.00688584
0.00636306
0.00589611
0.00547772
0.00510171
0.00476279
0.00445648
0.0041789
0.00392673
0.00369711
0.00348757
0.00329593
0.0031203
0.00295903
0.00281066
0.00267394
0.00254771
0.00243099
0.0023229
0.00222262
0.00212949
0.00204287
0.00196219
0.00188695
0.00181667
0.00175095
0.00168941
0.00163172
0.0015774
0.00152578
0.00147185
1.45109
0.915221
0.607844
0.421012
0.301935
0.222954
0.168762
0.130484
0.102759
0.0822326
0.0667417
0.0548502
0.0455825
0.0382609
0.0324058
0.0276714
0.0238045
0.0206171
0.0179677
0.0157483
0.013876
0.012286
0.0109276
0.00976025
0.00875192
0.00787659
0.0071132
0.00644454
0.00585646
0.00533727
0.00487722
0.00446819
0.00410335
0.00377692
0.00348401
0.00322046
0.00298273
0.00276775
0.00257287
0.00239583
0.00223463
0.00208755
0.00195309
0.00182993
0.00171691
0.00161302
0.00151736
0.00142912
0.00134761
0.00127221
0.00120235
0.00113754
0.00107732
0.00102131
0.000969141
0.000920492
0.000875071
0.00083261
0.000792855
0.000755502
1.45109
0.916296
0.609184
0.422339
0.303112
0.223946
0.169577
0.131145
0.103293
0.0826643
0.0670911
0.0551339
0.0458137
0.0384503
0.0325615
0.0278
0.0239112
0.020706
0.018042
0.0158107
0.0139284
0.0123303
0.0109649
0.00979191
0.00877877
0.00789938
0.00713255
0.00646096
0.00587038
0.00534905
0.00488717
0.00447656
0.00411034
0.00378271
0.00348876
0.00322428
0.0029857
0.00276995
0.00257436
0.00239666
0.00223485
0.00208721
0.00195222
0.00182857
0.0017151
0.00161078
0.00151472
0.00142612
0.00134427
0.00126854
0.00119837
0.00113327
0.00107279
0.00101652
0.000964111
0.000915235
0.0008696
0.000826945
0.000787029
0.000749638
1.45109
0.916299
0.609054
0.422135
0.302883
0.223723
0.169376
0.130972
0.103147
0.0825438
0.0669923
0.0550533
0.0457481
0.0383968
0.032518
0.0277644
0.0238821
0.0206821
0.0180223
0.0157944
0.013915
0.0123192
0.0109557
0.00978425
0.00877239
0.00789406
0.00712812
0.00645726
0.0058673
0.00534648
0.00488503
0.00447477
0.00410886
0.00378149
0.00348775
0.00322346
0.00298503
0.00276941
0.00257393
0.00239632
0.00223459
0.00208701
0.00195208
0.00182848
0.00171505
0.00161076
0.00151473
0.00142614
0.00134431
0.0012686
0.00119844
0.00113335
0.00107287
0.00101661
0.000964202
0.000915328
0.000869693
0.000827037
0.000787119
0.000749726
1.45109
0.916299
0.609054
0.422135
0.302884
0.223723
0.169376
0.130972
0.103148
0.0825442
0.0669927
0.0550536
0.0457484
0.038397
0.0325181
0.0277645
0.0238821
0.0206821
0.0180223
0.0157944
0.013915
0.0123191
0.0109557
0.00978421
0.00877234
0.00789401
0.00712807
0.00645721
0.00586725
0.00534643
0.00488498
0.00447473
0.00410881
0.00378145
0.00348771
0.00322342
0.002985
0.00276937
0.0025739
0.00239629
0.00223456
0.00208699
0.00195206
0.00182846
0.00171502
0.00161074
0.0015147
0.00142612
0.00134429
0.00126858
0.00119842
0.00113333
0.00107285
0.00101659
0.000964185
0.000915311
0.000869677
0.00082702
0.000787103
0.00074971
1.45109
0.916296
0.609183
0.422337
0.303111
0.223945
0.169576
0.131144
0.103292
0.0826635
0.0670903
0.0551332
0.0458132
0.0384498
0.0325611
0.0277997
0.0239109
0.0207057
0.0180417
0.0158105
0.0139283
0.0123301
0.0109648
0.00979181
0.00877868
0.0078993
0.00713248
0.00646091
0.00587034
0.00534901
0.00488713
0.00447653
0.00411031
0.00378269
0.00348874
0.00322427
0.00298569
0.00276994
0.00257435
0.00239665
0.00223484
0.0020872
0.00195221
0.00182856
0.00171509
0.00161077
0.00151471
0.0014261
0.00134425
0.00126852
0.00119835
0.00113324
0.00107276
0.00101649
0.000964076
0.000915197
0.00086956
0.000826901
0.000786982
0.000749589
1.45109
0.915223
0.607846
0.421014
0.301936
0.222955
0.168763
0.130485
0.102759
0.0822329
0.0667418
0.0548502
0.0455824
0.0382607
0.0324056
0.0276711
0.0238042
0.0206168
0.0179674
0.0157481
0.0138758
0.0122858
0.0109273
0.00976005
0.00875173
0.00787641
0.00711303
0.00644438
0.00585631
0.00533712
0.00487709
0.00446806
0.00410322
0.00377678
0.00348386
0.00322029
0.00298249
0.00276742
0.00257244
0.00239526
0.00223392
0.00208668
0.00195206
0.00182872
0.00171553
0.00161147
0.00151564
0.00142727
0.00134563
0.0012701
0.00120013
0.00113521
0.0010749
0.0010188
0.000966543
0.000917813
0.000872316
0.000829781
0.000789953
0.000752543
1.45211
0.919941
0.614007
0.427793
0.308873
0.229741
0.175232
0.136565
0.108431
0.0875021
0.0716281
0.0593799
0.0497839
0.0421623
0.0360342
0.031052
0.0269606
0.0235696
0.0207357
0.018349
0.0163247
0.0145965
0.0131121
0.0118299
0.0107166
0.00974515
0.00889362
0.00814398
0.0074814
0.0068936
0.0063703
0.00590286
0.005484
0.00510755
0.00476827
0.00446166
0.00418389
0.00393162
0.003702
0.00349253
0.00330102
0.00312559
0.00296457
0.0028165
0.0026801
0.0025542
0.0024378
0.00233001
0.00223005
0.00213723
0.00205091
0.00197051
0.00189555
0.00182555
0.0017601
0.00169882
0.00164135
0.00158723
0.00153574
0.00148178
1.13863
0.888645
0.710511
0.579992
0.481992
0.406847
0.348167
0.301602
0.26412
0.233562
0.208359
0.187357
0.169688
0.154697
0.141876
0.130833
0.121258
0.112905
0.105577
0.0991154
0.0933897
0.0882934
0.0837383
0.0796512
0.0759706
0.0726447
0.0696298
0.0668886
0.0643892
0.0621043
0.0600101
0.0580862
0.0563149
0.0546806
0.0531696
0.0517699
0.0504711
0.0492637
0.0481395
0.0470912
0.046112
0.0451962
0.0443384
0.0435339
0.0427785
0.0420683
0.0413997
0.0407697
0.0401753
0.0396139
0.0390832
0.038581
0.0381053
0.0376542
0.0372261
0.0368195
0.036433
0.0360652
0.0357151
0.0353813
1.13864
0.888651
0.710514
0.579991
0.481989
0.406844
0.348164
0.3016
0.264119
0.233561
0.208359
0.187357
0.169689
0.154697
0.141876
0.130833
0.121258
0.112905
0.105577
0.0991156
0.0933898
0.0882934
0.0837383
0.0796511
0.0759704
0.0726445
0.0696296
0.0668884
0.064389
0.062104
0.0600098
0.058086
0.0563147
0.0546804
0.0531694
0.0517698
0.050471
0.0492636
0.0481395
0.0470911
0.046112
0.0451962
0.0443385
0.0435341
0.0427787
0.0420686
0.0414001
0.0407701
0.0401759
0.0396146
0.0390841
0.038582
0.0381064
0.0376555
0.0372276
0.0368212
0.0364349
0.0360673
0.0357174
0.0353839
1.45211
0.91993
0.613971
0.427748
0.308836
0.229716
0.175215
0.136553
0.108421
0.0874915
0.0716156
0.0593651
0.0497668
0.0421434
0.0360141
0.031031
0.0269394
0.023549
0.0207161
0.0183307
0.016308
0.0145817
0.0130993
0.0118191
0.0107077
0.00973813
0.00888831
0.0081402
0.00747899
0.00689236
0.00637003
0.00590339
0.00548516
0.0051092
0.00477026
0.00446387
0.00418618
0.00393391
0.00370418
0.00349451
0.00330277
0.00312706
0.00296574
0.00281736
0.00268064
0.00255445
0.00243778
0.00232976
0.0022296
0.00213657
0.00205004
0.00196946
0.00189431
0.00182416
0.0017586
0.00169724
0.00163968
0.00158551
0.00153401
0.00148012
1.45109
0.915221
0.607846
0.421015
0.301936
0.222955
0.168763
0.130484
0.102758
0.082232
0.066741
0.0548495
0.0455818
0.0382603
0.0324052
0.0276708
0.023804
0.0206166
0.0179672
0.0157479
0.0138757
0.0122857
0.0109273
0.00975998
0.00875167
0.00787636
0.00711299
0.00644434
0.00585628
0.00533709
0.00487706
0.00446804
0.00410321
0.00377679
0.0034839
0.00322039
0.00298269
0.00276773
0.00257287
0.00239584
0.00223465
0.00208758
0.00195312
0.00182996
0.00171695
0.00161306
0.0015174
0.00142917
0.00134767
0.00127227
0.00120242
0.00113761
0.0010774
0.00102139
0.000969234
0.000920594
0.000875181
0.000832728
0.000792979
0.000755629
1.45109
0.916293
0.609182
0.422338
0.303112
0.223946
0.169577
0.131145
0.103292
0.0826637
0.0670905
0.0551334
0.0458133
0.0384499
0.0325612
0.0277997
0.0239109
0.0207058
0.0180418
0.0158105
0.0139283
0.0123301
0.0109648
0.00979182
0.00877869
0.0078993
0.00713248
0.00646089
0.00587032
0.00534899
0.00488711
0.0044765
0.00411028
0.00378266
0.0034887
0.00322423
0.00298565
0.0027699
0.00257431
0.00239661
0.0022348
0.00208716
0.00195218
0.00182853
0.00171506
0.00161074
0.00151468
0.00142607
0.00134422
0.00126849
0.00119833
0.00113323
0.00107274
0.00101648
0.000964068
0.000915192
0.000869558
0.000826901
0.000786985
0.000749594
1.45109
0.916296
0.609052
0.422134
0.302884
0.223723
0.169376
0.130972
0.103147
0.0825435
0.066992
0.0550529
0.0457477
0.0383964
0.0325176
0.0277641
0.0238818
0.0206818
0.018022
0.0157942
0.0139148
0.012319
0.0109556
0.00978411
0.00877226
0.00789394
0.007128
0.00645716
0.0058672
0.00534638
0.00488493
0.00447469
0.00410878
0.00378141
0.00348768
0.00322339
0.00298496
0.00276934
0.00257387
0.00239626
0.00223453
0.00208696
0.00195203
0.00182843
0.001715
0.00161071
0.00151468
0.0014261
0.00134427
0.00126855
0.0011984
0.00113331
0.00107283
0.00101657
0.000964161
0.000915287
0.000869653
0.000826996
0.000787079
0.000749685
1.45109
0.916296
0.609052
0.422134
0.302884
0.223723
0.169377
0.130972
0.103148
0.0825439
0.0669923
0.0550532
0.0457479
0.0383966
0.0325177
0.0277642
0.0238818
0.0206819
0.0180221
0.0157942
0.0139149
0.012319
0.0109556
0.0097841
0.00877225
0.00789393
0.00712799
0.00645714
0.00586719
0.00534637
0.00488492
0.00447467
0.00410877
0.0037814
0.00348767
0.00322338
0.00298496
0.00276933
0.00257386
0.00239625
0.00223453
0.00208695
0.00195202
0.00182842
0.00171499
0.00161071
0.00151467
0.00142609
0.00134426
0.00126855
0.00119839
0.0011333
0.00107282
0.00101656
0.000964154
0.00091528
0.000869645
0.000826988
0.000787071
0.000749677
1.45109
0.916293
0.609182
0.422337
0.303111
0.223945
0.169576
0.131144
0.103292
0.0826629
0.0670898
0.0551328
0.0458128
0.0384494
0.0325608
0.0277994
0.0239107
0.0207055
0.0180416
0.0158103
0.0139282
0.01233
0.0109647
0.00979172
0.0087786
0.00789923
0.00713242
0.00646084
0.00587028
0.00534896
0.00488708
0.00447648
0.00411027
0.00378265
0.0034887
0.00322423
0.00298566
0.0027699
0.00257432
0.00239662
0.00223481
0.00208717
0.00195218
0.00182853
0.00171506
0.00161074
0.00151468
0.00142607
0.00134422
0.00126849
0.00119832
0.00113322
0.00107273
0.00101646
0.00096405
0.000915171
0.000869534
0.000826875
0.000786956
0.000749562
1.45109
0.91522
0.607847
0.421016
0.301937
0.222956
0.168763
0.130484
0.102758
0.0822322
0.0667412
0.0548496
0.0455819
0.0382603
0.0324052
0.0276708
0.023804
0.0206166
0.0179672
0.0157479
0.0138756
0.0122857
0.0109272
0.00975997
0.00875166
0.00787635
0.00711298
0.00644434
0.00585627
0.00533709
0.00487706
0.00446804
0.00410319
0.00377676
0.00348384
0.00322027
0.00298247
0.0027674
0.00257242
0.00239524
0.0022339
0.00208666
0.00195204
0.0018287
0.00171551
0.00161144
0.0015156
0.00142719
0.00134552
0.00126997
0.00119998
0.00113504
0.00107471
0.00101859
0.00096633
0.000917593
0.00087209
0.000829554
0.000789725
0.000752319
1.45211
0.919933
0.613983
0.427768
0.308859
0.229742
0.175246
0.136586
0.108454
0.0875249
0.0716488
0.0593974
0.049798
0.0421735
0.0360428
0.0310585
0.0269652
0.0235728
0.0207376
0.0183498
0.0163245
0.0145954
0.0131103
0.0118277
0.0107141
0.00974246
0.00889095
0.0081415
0.00747922
0.00689173
0.00636868
0.00590146
0.00548278
0.00510645
0.00476723
0.00446061
0.00418274
0.00393033
0.00370048
0.00349071
0.00329889
0.00312313
0.00296176
0.00281336
0.00267663
0.00255049
0.0024339
0.00232599
0.00222594
0.00213303
0.00204664
0.00196621
0.00189124
0.00182126
0.00175588
0.00169471
0.00163737
0.00158341
0.00153211
0.00147831
1.13864
0.888653
0.710515
0.579991
0.481989
0.406843
0.348163
0.301599
0.264118
0.23356
0.208358
0.187356
0.169688
0.154697
0.141876
0.130833
0.121258
0.112905
0.105577
0.0991154
0.0933897
0.0882933
0.0837383
0.0796511
0.0759704
0.0726445
0.0696296
0.0668883
0.0643889
0.0621039
0.0600097
0.0580858
0.0563145
0.0546801
0.053169
0.0517693
0.0504705
0.0492631
0.0481389
0.0470904
0.0461112
0.0451954
0.0443375
0.043533
0.0427776
0.0420673
0.0413986
0.0407686
0.0401741
0.0396127
0.039082
0.0385797
0.038104
0.0376528
0.0372247
0.0368181
0.0364315
0.0360637
0.0357136
0.0353798
)
;

boundaryField
{
    wall
    {
        type            epsilonWallFunction;
        value           nonuniform List<scalar> 
1200
(
1.13863
1.45211
1.45109
1.45109
1.45109
1.45109
1.45109
1.45109
1.45211
1.13863
0.888647
0.919936
0.915221
0.916296
0.916299
0.916299
0.916296
0.915223
0.919941
0.888645
0.710514
0.614002
0.607844
0.609184
0.609054
0.609054
0.609183
0.607846
0.614007
0.710511
0.579996
0.427786
0.421012
0.422339
0.422135
0.422135
0.422337
0.421014
0.427793
0.579992
0.481998
0.308861
0.301935
0.303112
0.302883
0.302884
0.303111
0.301936
0.308873
0.481992
0.406852
0.229724
0.222954
0.223946
0.223723
0.223723
0.223945
0.222955
0.229741
0.406847
0.348171
0.175212
0.168762
0.169577
0.169376
0.169376
0.169576
0.168763
0.175232
0.348167
0.301606
0.136543
0.130484
0.131145
0.130972
0.130972
0.131144
0.130485
0.136565
0.301602
0.264124
0.108407
0.102759
0.103293
0.103147
0.103148
0.103292
0.102759
0.108431
0.26412
0.233565
0.0874778
0.0822326
0.0826643
0.0825438
0.0825442
0.0826635
0.0822329
0.0875021
0.233562
0.208363
0.0716047
0.0667417
0.0670911
0.0669923
0.0669927
0.0670903
0.0667418
0.0716281
0.208359
0.18736
0.0593574
0.0548502
0.0551339
0.0550533
0.0550536
0.0551332
0.0548502
0.0593799
0.187357
0.169691
0.0497627
0.0455825
0.0458137
0.0457481
0.0457484
0.0458132
0.0455824
0.0497839
0.169688
0.154699
0.0421427
0.0382609
0.0384503
0.0383968
0.038397
0.0384498
0.0382607
0.0421623
0.154697
0.141878
0.0360163
0.0324058
0.0325615
0.032518
0.0325181
0.0325611
0.0324056
0.0360342
0.141876
0.130835
0.0310359
0.0276714
0.0278
0.0277644
0.0277645
0.0277997
0.0276711
0.031052
0.130833
0.12126
0.0269459
0.0238045
0.0239112
0.0238821
0.0238821
0.0239109
0.0238042
0.0269606
0.121258
0.112907
0.0235561
0.0206171
0.020706
0.0206821
0.0206821
0.0207057
0.0206168
0.0235696
0.112905
0.105579
0.0207231
0.0179677
0.018042
0.0180223
0.0180223
0.0180417
0.0179674
0.0207357
0.105577
0.0991169
0.0183372
0.0157483
0.0158107
0.0157944
0.0157944
0.0158105
0.0157481
0.018349
0.0991154
0.093391
0.0163135
0.013876
0.0139284
0.013915
0.013915
0.0139283
0.0138758
0.0163247
0.0933897
0.0882946
0.0145856
0.012286
0.0123303
0.0123192
0.0123191
0.0123301
0.0122858
0.0145965
0.0882934
0.0837394
0.0131015
0.0109276
0.0109649
0.0109557
0.0109557
0.0109648
0.0109273
0.0131121
0.0837383
0.0796521
0.0118196
0.00976025
0.00979191
0.00978425
0.00978421
0.00979181
0.00976005
0.0118299
0.0796512
0.0759713
0.0107066
0.00875192
0.00877877
0.00877239
0.00877234
0.00877868
0.00875173
0.0107166
0.0759706
0.0726453
0.00973546
0.00787659
0.00789938
0.00789406
0.00789401
0.0078993
0.00787641
0.00974515
0.0726447
0.0696303
0.0088843
0.0071132
0.00713255
0.00712812
0.00712807
0.00713248
0.00711303
0.00889362
0.0696298
0.066889
0.00813514
0.00644454
0.00646096
0.00645726
0.00645721
0.00646091
0.00644438
0.00814398
0.0668886
0.0643896
0.0074731
0.00585646
0.00587038
0.0058673
0.00586725
0.00587034
0.00585631
0.0074814
0.0643892
0.0621045
0.00688584
0.00533727
0.00534905
0.00534648
0.00534643
0.00534901
0.00533712
0.0068936
0.0621043
0.0600103
0.00636306
0.00487722
0.00488717
0.00488503
0.00488498
0.00488713
0.00487709
0.0063703
0.0600101
0.0580864
0.00589611
0.00446819
0.00447656
0.00447477
0.00447473
0.00447653
0.00446806
0.00590286
0.0580862
0.0563151
0.00547772
0.00410335
0.00411034
0.00410886
0.00410881
0.00411031
0.00410322
0.005484
0.0563149
0.0546807
0.00510171
0.00377692
0.00378271
0.00378149
0.00378145
0.00378269
0.00377678
0.00510755
0.0546806
0.0531697
0.00476279
0.00348401
0.00348876
0.00348775
0.00348771
0.00348874
0.00348386
0.00476827
0.0531696
0.05177
0.00445648
0.00322046
0.00322428
0.00322346
0.00322342
0.00322427
0.00322029
0.00446166
0.0517699
0.0504712
0.0041789
0.00298273
0.0029857
0.00298503
0.002985
0.00298569
0.00298249
0.00418389
0.0504711
0.0492639
0.00392673
0.00276775
0.00276995
0.00276941
0.00276937
0.00276994
0.00276742
0.00393162
0.0492637
0.0481397
0.00369711
0.00257287
0.00257436
0.00257393
0.0025739
0.00257435
0.00257244
0.003702
0.0481395
0.0470913
0.00348757
0.00239583
0.00239666
0.00239632
0.00239629
0.00239665
0.00239526
0.00349253
0.0470912
0.0461122
0.00329593
0.00223463
0.00223485
0.00223459
0.00223456
0.00223484
0.00223392
0.00330102
0.046112
0.0451964
0.0031203
0.00208755
0.00208721
0.00208701
0.00208699
0.0020872
0.00208668
0.00312559
0.0451962
0.0443386
0.00295903
0.00195309
0.00195222
0.00195208
0.00195206
0.00195221
0.00195206
0.00296457
0.0443384
0.0435342
0.00281066
0.00182993
0.00182857
0.00182848
0.00182846
0.00182856
0.00182872
0.0028165
0.0435339
0.0427788
0.00267394
0.00171691
0.0017151
0.00171505
0.00171502
0.00171509
0.00171553
0.0026801
0.0427785
0.0420686
0.00254771
0.00161302
0.00161078
0.00161076
0.00161074
0.00161077
0.00161147
0.0025542
0.0420683
0.0414001
0.00243099
0.00151736
0.00151472
0.00151473
0.0015147
0.00151471
0.00151564
0.0024378
0.0413997
0.0407702
0.0023229
0.00142912
0.00142612
0.00142614
0.00142612
0.0014261
0.00142727
0.00233001
0.0407697
0.0401759
0.00222262
0.00134761
0.00134427
0.00134431
0.00134429
0.00134425
0.00134563
0.00223005
0.0401753
0.0396146
0.00212949
0.00127221
0.00126854
0.0012686
0.00126858
0.00126852
0.0012701
0.00213723
0.0396139
0.039084
0.00204287
0.00120235
0.00119837
0.00119844
0.00119842
0.00119835
0.00120013
0.00205091
0.0390832
0.0385819
0.00196219
0.00113754
0.00113327
0.00113335
0.00113333
0.00113324
0.00113521
0.00197051
0.038581
0.0381063
0.00188695
0.00107732
0.00107279
0.00107287
0.00107285
0.00107276
0.0010749
0.00189555
0.0381053
0.0376554
0.00181667
0.00102131
0.00101652
0.00101661
0.00101659
0.00101649
0.0010188
0.00182555
0.0376542
0.0372274
0.00175095
0.000969141
0.000964111
0.000964202
0.000964185
0.000964076
0.000966543
0.0017601
0.0372261
0.036821
0.00168941
0.000920492
0.000915235
0.000915328
0.000915311
0.000915197
0.000917813
0.00169882
0.0368195
0.0364346
0.00163172
0.000875071
0.0008696
0.000869693
0.000869677
0.00086956
0.000872316
0.00164135
0.036433
0.036067
0.0015774
0.00083261
0.000826945
0.000827037
0.00082702
0.000826901
0.000829781
0.00158723
0.0360652
0.035717
0.00152578
0.000792855
0.000787029
0.000787119
0.000787103
0.000786982
0.000789953
0.00153574
0.0357151
0.0353834
0.00147185
0.000755502
0.000749638
0.000749726
0.00074971
0.000749589
0.000752543
0.00148178
0.0353813
1.13864
1.45211
1.45109
1.45109
1.45109
1.45109
1.45109
1.45109
1.45211
1.13864
0.888651
0.91993
0.915221
0.916293
0.916296
0.916296
0.916293
0.91522
0.919933
0.888653
0.710514
0.613971
0.607846
0.609182
0.609052
0.609052
0.609182
0.607847
0.613983
0.710515
0.579991
0.427748
0.421015
0.422338
0.422134
0.422134
0.422337
0.421016
0.427768
0.579991
0.481989
0.308836
0.301936
0.303112
0.302884
0.302884
0.303111
0.301937
0.308859
0.481989
0.406844
0.229716
0.222955
0.223946
0.223723
0.223723
0.223945
0.222956
0.229742
0.406843
0.348164
0.175215
0.168763
0.169577
0.169376
0.169377
0.169576
0.168763
0.175246
0.348163
0.3016
0.136553
0.130484
0.131145
0.130972
0.130972
0.131144
0.130484
0.136586
0.301599
0.264119
0.108421
0.102758
0.103292
0.103147
0.103148
0.103292
0.102758
0.108454
0.264118
0.233561
0.0874915
0.082232
0.0826637
0.0825435
0.0825439
0.0826629
0.0822322
0.0875249
0.23356
0.208359
0.0716156
0.066741
0.0670905
0.066992
0.0669923
0.0670898
0.0667412
0.0716488
0.208358
0.187357
0.0593651
0.0548495
0.0551334
0.0550529
0.0550532
0.0551328
0.0548496
0.0593974
0.187356
0.169689
0.0497668
0.0455818
0.0458133
0.0457477
0.0457479
0.0458128
0.0455819
0.049798
0.169688
0.154697
0.0421434
0.0382603
0.0384499
0.0383964
0.0383966
0.0384494
0.0382603
0.0421735
0.154697
0.141876
0.0360141
0.0324052
0.0325612
0.0325176
0.0325177
0.0325608
0.0324052
0.0360428
0.141876
0.130833
0.031031
0.0276708
0.0277997
0.0277641
0.0277642
0.0277994
0.0276708
0.0310585
0.130833
0.121258
0.0269394
0.023804
0.0239109
0.0238818
0.0238818
0.0239107
0.023804
0.0269652
0.121258
0.112905
0.023549
0.0206166
0.0207058
0.0206818
0.0206819
0.0207055
0.0206166
0.0235728
0.112905
0.105577
0.0207161
0.0179672
0.0180418
0.018022
0.0180221
0.0180416
0.0179672
0.0207376
0.105577
0.0991156
0.0183307
0.0157479
0.0158105
0.0157942
0.0157942
0.0158103
0.0157479
0.0183498
0.0991154
0.0933898
0.016308
0.0138757
0.0139283
0.0139148
0.0139149
0.0139282
0.0138756
0.0163245
0.0933897
0.0882934
0.0145817
0.0122857
0.0123301
0.012319
0.012319
0.01233
0.0122857
0.0145954
0.0882933
0.0837383
0.0130993
0.0109273
0.0109648
0.0109556
0.0109556
0.0109647
0.0109272
0.0131103
0.0837383
0.0796511
0.0118191
0.00975998
0.00979182
0.00978411
0.0097841
0.00979172
0.00975997
0.0118277
0.0796511
0.0759704
0.0107077
0.00875167
0.00877869
0.00877226
0.00877225
0.0087786
0.00875166
0.0107141
0.0759704
0.0726445
0.00973813
0.00787636
0.0078993
0.00789394
0.00789393
0.00789923
0.00787635
0.00974246
0.0726445
0.0696296
0.00888831
0.00711299
0.00713248
0.007128
0.00712799
0.00713242
0.00711298
0.00889095
0.0696296
0.0668884
0.0081402
0.00644434
0.00646089
0.00645716
0.00645714
0.00646084
0.00644434
0.0081415
0.0668883
0.064389
0.00747899
0.00585628
0.00587032
0.0058672
0.00586719
0.00587028
0.00585627
0.00747922
0.0643889
0.062104
0.00689236
0.00533709
0.00534899
0.00534638
0.00534637
0.00534896
0.00533709
0.00689173
0.0621039
0.0600098
0.00637003
0.00487706
0.00488711
0.00488493
0.00488492
0.00488708
0.00487706
0.00636868
0.0600097
0.058086
0.00590339
0.00446804
0.0044765
0.00447469
0.00447467
0.00447648
0.00446804
0.00590146
0.0580858
0.0563147
0.00548516
0.00410321
0.00411028
0.00410878
0.00410877
0.00411027
0.00410319
0.00548278
0.0563145
0.0546804
0.0051092
0.00377679
0.00378266
0.00378141
0.0037814
0.00378265
0.00377676
0.00510645
0.0546801
0.0531694
0.00477026
0.0034839
0.0034887
0.00348768
0.00348767
0.0034887
0.00348384
0.00476723
0.053169
0.0517698
0.00446387
0.00322039
0.00322423
0.00322339
0.00322338
0.00322423
0.00322027
0.00446061
0.0517693
0.050471
0.00418618
0.00298269
0.00298565
0.00298496
0.00298496
0.00298566
0.00298247
0.00418274
0.0504705
0.0492636
0.00393391
0.00276773
0.0027699
0.00276934
0.00276933
0.0027699
0.0027674
0.00393033
0.0492631
0.0481395
0.00370418
0.00257287
0.00257431
0.00257387
0.00257386
0.00257432
0.00257242
0.00370048
0.0481389
0.0470911
0.00349451
0.00239584
0.00239661
0.00239626
0.00239625
0.00239662
0.00239524
0.00349071
0.0470904
0.046112
0.00330277
0.00223465
0.0022348
0.00223453
0.00223453
0.00223481
0.0022339
0.00329889
0.0461112
0.0451962
0.00312706
0.00208758
0.00208716
0.00208696
0.00208695
0.00208717
0.00208666
0.00312313
0.0451954
0.0443385
0.00296574
0.00195312
0.00195218
0.00195203
0.00195202
0.00195218
0.00195204
0.00296176
0.0443375
0.0435341
0.00281736
0.00182996
0.00182853
0.00182843
0.00182842
0.00182853
0.0018287
0.00281336
0.043533
0.0427787
0.00268064
0.00171695
0.00171506
0.001715
0.00171499
0.00171506
0.00171551
0.00267663
0.0427776
0.0420686
0.00255445
0.00161306
0.00161074
0.00161071
0.00161071
0.00161074
0.00161144
0.00255049
0.0420673
0.0414001
0.00243778
0.0015174
0.00151468
0.00151468
0.00151467
0.00151468
0.0015156
0.0024339
0.0413986
0.0407701
0.00232976
0.00142917
0.00142607
0.0014261
0.00142609
0.00142607
0.00142719
0.00232599
0.0407686
0.0401759
0.0022296
0.00134767
0.00134422
0.00134427
0.00134426
0.00134422
0.00134552
0.00222594
0.0401741
0.0396146
0.00213657
0.00127227
0.00126849
0.00126855
0.00126855
0.00126849
0.00126997
0.00213303
0.0396127
0.0390841
0.00205004
0.00120242
0.00119833
0.0011984
0.00119839
0.00119832
0.00119998
0.00204664
0.039082
0.038582
0.00196946
0.00113761
0.00113323
0.00113331
0.0011333
0.00113322
0.00113504
0.00196621
0.0385797
0.0381064
0.00189431
0.0010774
0.00107274
0.00107283
0.00107282
0.00107273
0.00107471
0.00189124
0.038104
0.0376555
0.00182416
0.00102139
0.00101648
0.00101657
0.00101656
0.00101646
0.00101859
0.00182126
0.0376528
0.0372276
0.0017586
0.000969234
0.000964068
0.000964161
0.000964154
0.00096405
0.00096633
0.00175588
0.0372247
0.0368212
0.00169724
0.000920594
0.000915192
0.000915287
0.00091528
0.000915171
0.000917593
0.00169471
0.0368181
0.0364349
0.00163968
0.000875181
0.000869558
0.000869653
0.000869645
0.000869534
0.00087209
0.00163737
0.0364315
0.0360673
0.00158551
0.000832728
0.000826901
0.000826996
0.000826988
0.000826875
0.000829554
0.00158341
0.0360637
0.0357174
0.00153401
0.000792979
0.000786985
0.000787079
0.000787071
0.000786956
0.000789725
0.00153211
0.0357136
0.0353839
0.00148012
0.000755629
0.000749594
0.000749685
0.000749677
0.000749562
0.000752319
0.00147831
0.0353798
)
;
    }
    inlet
    {
        type            turbulentMixingLengthDissipationRateInlet;
        mixingLength    0.071;
        phi             phi;
        k               k;
        value           uniform 0.0340134;
    }
    outlet
    {
        type            inletOutlet;
        inletValue      uniform 0.0001;
        value           nonuniform List<scalar> 
20
(
0.0353834
0.00147185
0.000755502
0.000749638
0.000749726
0.00074971
0.000749589
0.000752543
0.00148178
0.0353813
0.0353839
0.00148012
0.000755629
0.000749594
0.000749685
0.000749677
0.000749562
0.000752319
0.00147831
0.0353798
)
;
    }
    heatWall
    {
        type            epsilonWallFunction;
        value           nonuniform List<scalar> 
240
(
1.13863
1.13864
0.888645
0.888653
0.710511
0.710515
0.579992
0.579991
0.481992
0.481989
0.406847
0.406843
0.348167
0.348163
0.301602
0.301599
0.26412
0.264118
0.233562
0.23356
0.208359
0.208358
0.187357
0.187356
0.169688
0.169688
0.154697
0.154697
0.141876
0.141876
0.130833
0.130833
0.121258
0.121258
0.112905
0.112905
0.105577
0.105577
0.0991154
0.0991154
0.0933897
0.0933897
0.0882934
0.0882933
0.0837383
0.0837383
0.0796512
0.0796511
0.0759706
0.0759704
0.0726447
0.0726445
0.0696298
0.0696296
0.0668886
0.0668883
0.0643892
0.0643889
0.0621043
0.0621039
0.0600101
0.0600097
0.0580862
0.0580858
0.0563149
0.0563145
0.0546806
0.0546801
0.0531696
0.053169
0.0517699
0.0517693
0.0504711
0.0504705
0.0492637
0.0492631
0.0481395
0.0481389
0.0470912
0.0470904
0.046112
0.0461112
0.0451962
0.0451954
0.0443384
0.0443375
0.0435339
0.043533
0.0427785
0.0427776
0.0420683
0.0420673
0.0413997
0.0413986
0.0407697
0.0407686
0.0401753
0.0401741
0.0396139
0.0396127
0.0390832
0.039082
0.038581
0.0385797
0.0381053
0.038104
0.0376542
0.0376528
0.0372261
0.0372247
0.0368195
0.0368181
0.036433
0.0364315
0.0360652
0.0360637
0.0357151
0.0357136
0.0353813
0.0353798
1.13863
1.13864
0.888647
0.888651
0.710514
0.710514
0.579996
0.579991
0.481998
0.481989
0.406852
0.406844
0.348171
0.348164
0.301606
0.3016
0.264124
0.264119
0.233565
0.233561
0.208363
0.208359
0.18736
0.187357
0.169691
0.169689
0.154699
0.154697
0.141878
0.141876
0.130835
0.130833
0.12126
0.121258
0.112907
0.112905
0.105579
0.105577
0.0991169
0.0991156
0.093391
0.0933898
0.0882946
0.0882934
0.0837394
0.0837383
0.0796521
0.0796511
0.0759713
0.0759704
0.0726453
0.0726445
0.0696303
0.0696296
0.066889
0.0668884
0.0643896
0.064389
0.0621045
0.062104
0.0600103
0.0600098
0.0580864
0.058086
0.0563151
0.0563147
0.0546807
0.0546804
0.0531697
0.0531694
0.05177
0.0517698
0.0504712
0.050471
0.0492639
0.0492636
0.0481397
0.0481395
0.0470913
0.0470911
0.0461122
0.046112
0.0451964
0.0451962
0.0443386
0.0443385
0.0435342
0.0435341
0.0427788
0.0427787
0.0420686
0.0420686
0.0414001
0.0414001
0.0407702
0.0407701
0.0401759
0.0401759
0.0396146
0.0396146
0.039084
0.0390841
0.0385819
0.038582
0.0381063
0.0381064
0.0376554
0.0376555
0.0372274
0.0372276
0.036821
0.0368212
0.0364346
0.0364349
0.036067
0.0360673
0.035717
0.0357174
0.0353834
0.0353839
)
;
    }
}


// ************************************************************************* //
