/*--------------------------------*- C++ -*----------------------------------*\
  =========                 |
  \\      /  F ield         | OpenFOAM: The Open Source CFD Toolbox
   \\    /   O peration     | Website:  https://openfoam.org
    \\  /    A nd           | Version:  8
     \\/     M anipulation  |
\*---------------------------------------------------------------------------*/
FoamFile
{
    version     2.0;
    format      ascii;
    class       volScalarField;
    location    "300";
    object      p;
}
// * * * * * * * * * * * * * * * * * * * * * * * * * * * * * * * * * * * * * //

dimensions      [1 -1 -2 0 0 0 0];

internalField   nonuniform List<scalar> 
1200
(
494.209
286.668
198.741
168.125
147.646
130.645
116.949
105.45
95.4003
86.4707
78.3684
70.9609
64.1922
57.9594
52.1885
46.8027
41.7401
36.9872
32.5052
28.2396
24.1573
20.252
16.51
12.888
9.37029
5.96361
2.6464
-0.603945
-3.78847
-6.91499
-9.99759
-13.0397
-16.046
-19.0277
-21.991
-24.9367
-27.8645
-30.7791
-33.6889
-36.5973
-39.5042
-42.4132
-45.3287
-48.2482
-51.1669
-54.0934
-57.0313
-59.9829
-62.943
-65.905
-68.888
-71.879
-74.8848
-77.9106
-80.9408
-83.9783
-87.0325
-90.1398
-93.3302
-97.2475
-143.073
-117.63
-111.355
-105.533
-104.654
-107.573
-111.937
-116.861
-122
-127.126
-132.169
-137.068
-141.767
-146.268
-150.581
-154.735
-158.745
-162.605
-166.334
-169.96
-173.495
-176.934
-180.285
-183.577
-186.81
-189.975
-193.09
-196.17
-199.208
-202.211
-205.19
-208.145
-211.078
-213.999
-216.909
-219.812
-222.709
-225.598
-228.488
-231.382
-234.277
-237.177
-240.087
-243.002
-245.92
-248.845
-251.783
-254.736
-257.698
-260.665
-263.651
-266.645
-269.655
-272.683
-275.717
-278.759
-281.814
-284.907
-288.044
-291.297
-266.834
-209.238
-202.633
-215.791
-230.981
-245.815
-259.776
-272.569
-284.154
-294.586
-304.036
-312.644
-320.486
-327.647
-334.22
-340.297
-345.939
-351.191
-356.113
-360.755
-365.148
-369.316
-373.295
-377.123
-380.804
-384.348
-387.789
-391.14
-394.404
-397.596
-400.731
-403.814
-406.854
-409.86
-412.838
-415.795
-418.733
-421.655
-424.571
-427.483
-430.389
-433.296
-436.209
-439.122
-442.039
-444.96
-447.892
-450.838
-453.789
-456.751
-459.726
-462.709
-465.709
-468.721
-471.744
-474.775
-477.816
-480.871
-483.913
-486.744
-461.521
-439.281
-445.913
-463.607
-477.552
-488.005
-496.791
-504.447
-511.191
-517.223
-522.757
-527.916
-532.754
-537.318
-541.654
-545.802
-549.779
-553.611
-557.322
-560.92
-564.416
-567.82
-571.153
-574.431
-577.641
-580.789
-583.898
-586.968
-589.994
-592.99
-595.961
-598.907
-601.834
-604.748
-607.649
-610.542
-613.427
-616.305
-619.187
-622.071
-624.953
-627.843
-630.741
-633.643
-636.553
-639.469
-642.4
-645.345
-648.297
-651.263
-654.238
-657.227
-660.232
-663.244
-666.273
-669.311
-672.356
-675.399
-678.409
-681.146
-653.089
-633.793
-630.307
-639.718
-649.802
-659.263
-668.927
-678.478
-687.508
-695.884
-703.648
-710.834
-717.479
-723.642
-729.367
-734.707
-739.713
-744.437
-748.916
-753.165
-757.214
-761.096
-764.838
-768.46
-771.961
-775.359
-778.677
-781.92
-785.092
-788.212
-791.286
-794.313
-797.308
-800.277
-803.221
-806.146
-809.057
-811.957
-814.856
-817.751
-820.64
-823.535
-826.434
-829.334
-832.243
-835.157
-838.085
-841.025
-843.971
-846.931
-849.897
-852.882
-855.88
-858.882
-861.904
-864.935
-867.971
-870.995
-873.968
-876.601
-848.259
-828.961
-825.475
-834.919
-845.039
-854.503
-864.197
-873.756
-882.762
-891.132
-898.885
-906.044
-912.666
-918.815
-924.523
-929.845
-934.838
-939.552
-944.022
-948.26
-952.303
-956.183
-959.921
-963.534
-967.03
-970.427
-973.742
-976.979
-980.15
-983.273
-986.349
-989.379
-992.377
-995.351
-998.301
-1001.23
-1004.15
-1007.06
-1009.96
-1012.86
-1015.76
-1018.66
-1021.56
-1024.47
-1027.38
-1030.3
-1033.23
-1036.18
-1039.13
-1042.09
-1045.06
-1048.05
-1051.05
-1054.05
-1057.08
-1060.11
-1063.15
-1066.18
-1069.15
-1071.78
-1047.03
-1024.77
-1031.34
-1049.03
-1062.99
-1073.42
-1082.23
-1089.87
-1096.6
-1102.66
-1108.22
-1113.38
-1118.23
-1122.82
-1127.17
-1131.34
-1135.33
-1139.18
-1142.91
-1146.51
-1150.02
-1153.43
-1156.77
-1160.04
-1163.24
-1166.39
-1169.5
-1172.55
-1175.57
-1178.57
-1181.54
-1184.48
-1187.4
-1190.32
-1193.21
-1196.1
-1198.98
-1201.87
-1204.75
-1207.63
-1210.51
-1213.4
-1216.3
-1219.2
-1222.11
-1225.02
-1227.96
-1230.9
-1233.85
-1236.81
-1239.78
-1242.77
-1245.77
-1248.78
-1251.81
-1254.85
-1257.9
-1260.94
-1263.95
-1266.69
-1242.69
-1185.22
-1178.64
-1191.76
-1206.94
-1221.8
-1235.77
-1248.5
-1260
-1270.42
-1279.85
-1288.4
-1296.21
-1303.36
-1309.93
-1316.01
-1321.66
-1326.92
-1331.86
-1336.5
-1340.9
-1345.07
-1349.06
-1352.88
-1356.55
-1360.1
-1363.55
-1366.89
-1370.16
-1373.36
-1376.5
-1379.59
-1382.64
-1385.66
-1388.65
-1391.61
-1394.55
-1397.48
-1400.4
-1403.31
-1406.22
-1409.13
-1412.04
-1414.95
-1417.87
-1420.79
-1423.73
-1426.67
-1429.62
-1432.58
-1435.56
-1438.55
-1441.54
-1444.56
-1447.58
-1450.61
-1453.66
-1456.73
-1459.78
-1462.63
-1509.18
-1483.73
-1477.46
-1471.61
-1470.73
-1473.73
-1478.14
-1483.04
-1488.19
-1493.38
-1498.42
-1503.3
-1508.01
-1512.52
-1516.84
-1521.01
-1525.03
-1528.9
-1532.63
-1536.26
-1539.78
-1543.22
-1546.57
-1549.85
-1553.07
-1556.23
-1559.35
-1562.41
-1565.44
-1568.44
-1571.41
-1574.36
-1577.29
-1580.21
-1583.12
-1586.01
-1588.89
-1591.78
-1594.67
-1597.55
-1600.45
-1603.34
-1606.24
-1609.15
-1612.07
-1615
-1617.94
-1620.89
-1623.85
-1626.82
-1629.81
-1632.81
-1635.82
-1638.84
-1641.88
-1644.92
-1647.99
-1651.09
-1654.25
-1657.53
-1262.59
-1469.71
-1557.84
-1588.4
-1608.79
-1625.87
-1639.62
-1651.04
-1661.07
-1670.06
-1678.14
-1685.49
-1692.25
-1698.48
-1704.25
-1709.64
-1714.69
-1719.45
-1723.94
-1728.2
-1732.28
-1736.18
-1739.94
-1743.56
-1747.07
-1750.48
-1753.81
-1757.06
-1760.24
-1763.37
-1766.45
-1769.5
-1772.51
-1775.49
-1778.46
-1781.4
-1784.33
-1787.25
-1790.17
-1793.07
-1795.99
-1798.9
-1801.82
-1804.74
-1807.66
-1810.6
-1813.54
-1816.49
-1819.45
-1822.41
-1825.4
-1828.4
-1831.4
-1834.42
-1837.46
-1840.5
-1843.57
-1846.68
-1849.89
-1853.84
493.644
286.283
198.22
168.028
147.932
130.863
117.012
105.519
95.463
86.4266
78.3112
70.966
64.2208
57.9971
52.222
46.849
41.8335
37.0988
32.6058
28.3426
24.2847
20.3877
16.6204
12.9875
9.4759
6.05361
2.71598
-0.538797
-3.72988
-6.86813
-9.95665
-13.0051
-16.0209
-19.0067
-21.9668
-24.9074
-27.8368
-30.7594
-33.6723
-36.5797
-39.487
-42.3945
-45.3025
-48.215
-51.1401
-54.0732
-57.0108
-59.9543
-62.9099
-65.8867
-68.8663
-71.8602
-74.8658
-77.8757
-80.9068
-83.9585
-87.0312
-90.1286
-93.3119
-97.2462
-143.275
-117.908
-111.741
-105.718
-104.622
-107.553
-111.963
-116.853
-121.98
-127.181
-132.25
-137.118
-141.807
-146.317
-150.65
-154.802
-158.788
-162.647
-166.389
-170.009
-173.521
-176.954
-180.318
-183.604
-186.824
-189.996
-193.119
-196.191
-199.23
-202.24
-205.221
-208.179
-211.119
-214.041
-216.951
-219.851
-222.749
-225.646
-228.539
-231.43
-234.327
-237.226
-240.128
-243.038
-245.959
-248.892
-251.831
-254.775
-257.734
-260.71
-263.693
-266.691
-269.7
-272.716
-275.751
-278.805
-281.875
-284.959
-288.088
-291.347
-267.01
-209.487
-203.11
-216.333
-231.408
-246.131
-260.01
-272.7
-284.189
-294.616
-304.063
-312.629
-320.443
-327.608
-334.2
-340.28
-345.919
-351.187
-356.121
-360.76
-365.147
-369.323
-373.311
-377.122
-380.791
-384.343
-387.78
-391.118
-394.383
-397.58
-400.717
-403.805
-406.851
-409.861
-412.845
-415.804
-418.747
-421.682
-424.602
-427.513
-430.427
-433.336
-436.245
-439.158
-442.078
-445.008
-447.942
-450.88
-453.832
-456.796
-459.771
-462.759
-465.757
-468.767
-471.789
-474.828
-477.879
-480.928
-483.96
-486.792
-461.649
-439.261
-445.975
-463.783
-477.734
-488.09
-496.834
-504.441
-511.115
-517.148
-522.689
-527.83
-532.663
-537.245
-541.608
-545.777
-549.78
-553.636
-557.357
-560.962
-564.47
-567.893
-571.232
-574.49
-577.691
-580.844
-583.939
-586.991
-590.013
-593.005
-595.969
-598.914
-601.84
-604.751
-607.653
-610.546
-613.433
-616.32
-619.2
-622.082
-624.972
-627.861
-630.756
-633.661
-636.572
-639.496
-642.426
-645.362
-648.315
-651.278
-654.257
-657.247
-660.248
-663.265
-666.291
-669.33
-672.378
-675.417
-678.413
-681.148
-653.206
-633.731
-630.341
-639.931
-650.126
-659.538
-669.147
-678.615
-687.537
-695.856
-703.576
-710.731
-717.367
-723.528
-729.273
-734.647
-739.693
-744.439
-748.92
-753.183
-757.256
-761.155
-764.899
-768.503
-771.999
-775.396
-778.699
-781.929
-785.099
-788.21
-791.273
-794.302
-797.296
-800.261
-803.207
-806.136
-809.052
-811.96
-814.856
-817.751
-820.651
-823.546
-826.446
-829.355
-832.266
-835.189
-838.115
-841.048
-843.998
-846.956
-849.933
-852.915
-855.909
-858.923
-861.942
-864.972
-868.008
-871.03
-873.985
-876.609
-848.359
-828.888
-825.507
-835.09
-845.285
-854.724
-864.333
-873.815
-882.755
-891.06
-898.762
-905.91
-912.536
-918.68
-924.412
-929.779
-934.816
-939.553
-944.027
-948.288
-952.356
-956.248
-959.988
-963.596
-967.092
-970.488
-973.793
-977.029
-980.203
-983.313
-986.378
-989.411
-992.408
-995.375
-998.324
-1001.26
-1004.17
-1007.08
-1009.98
-1012.88
-1015.78
-1018.67
-1021.57
-1024.49
-1027.4
-1030.32
-1033.25
-1036.18
-1039.14
-1042.1
-1045.08
-1048.06
-1051.05
-1054.07
-1057.09
-1060.13
-1063.16
-1066.19
-1069.14
-1071.76
-1047.11
-1024.72
-1031.44
-1049.2
-1063.1
-1073.46
-1082.18
-1089.82
-1096.56
-1102.6
-1108.14
-1113.32
-1118.18
-1122.77
-1127.14
-1131.32
-1135.33
-1139.19
-1142.92
-1146.53
-1150.04
-1153.46
-1156.8
-1160.08
-1163.29
-1166.44
-1169.54
-1172.6
-1175.63
-1178.61
-1181.57
-1184.51
-1187.44
-1190.34
-1193.23
-1196.12
-1199
-1201.88
-1204.75
-1207.63
-1210.52
-1213.4
-1216.29
-1219.2
-1222.11
-1225.03
-1227.96
-1230.9
-1233.85
-1236.82
-1239.8
-1242.79
-1245.79
-1248.81
-1251.83
-1254.87
-1257.92
-1260.96
-1263.95
-1266.68
-1242.78
-1185.21
-1178.92
-1192.15
-1207.18
-1221.85
-1235.7
-1248.41
-1259.92
-1270.31
-1279.75
-1288.34
-1296.16
-1303.33
-1309.93
-1316.02
-1321.66
-1326.93
-1331.87
-1336.52
-1340.91
-1345.09
-1349.08
-1352.91
-1356.6
-1360.15
-1363.59
-1366.95
-1370.23
-1373.42
-1376.56
-1379.65
-1382.69
-1385.7
-1388.68
-1391.64
-1394.59
-1397.51
-1400.42
-1403.33
-1406.24
-1409.14
-1412.05
-1414.96
-1417.88
-1420.8
-1423.73
-1426.67
-1429.62
-1432.58
-1435.55
-1438.54
-1441.54
-1444.55
-1447.57
-1450.61
-1453.66
-1456.71
-1459.75
-1462.59
-1509.39
-1484
-1477.72
-1471.73
-1470.66
-1473.53
-1477.94
-1482.93
-1488.11
-1493.29
-1498.39
-1503.31
-1508.02
-1512.55
-1516.9
-1521.05
-1525.05
-1528.91
-1532.66
-1536.28
-1539.8
-1543.24
-1546.59
-1549.88
-1553.11
-1556.27
-1559.38
-1562.46
-1565.5
-1568.5
-1571.47
-1574.42
-1577.35
-1580.27
-1583.17
-1586.07
-1588.96
-1591.84
-1594.73
-1597.61
-1600.5
-1603.39
-1606.29
-1609.19
-1612.11
-1615.03
-1617.96
-1620.9
-1623.86
-1626.83
-1629.81
-1632.81
-1635.82
-1638.84
-1641.87
-1644.92
-1647.99
-1651.08
-1654.22
-1657.49
-1262.7
-1470.23
-1558.12
-1588.36
-1608.51
-1625.48
-1639.32
-1650.93
-1661.03
-1670.02
-1678.16
-1685.54
-1692.29
-1698.51
-1704.29
-1709.67
-1714.71
-1719.45
-1723.95
-1728.22
-1732.29
-1736.19
-1739.94
-1743.57
-1747.08
-1750.49
-1753.81
-1757.07
-1760.26
-1763.39
-1766.48
-1769.52
-1772.53
-1775.52
-1778.48
-1781.42
-1784.35
-1787.27
-1790.18
-1793.09
-1795.99
-1798.89
-1801.8
-1804.72
-1807.64
-1810.56
-1813.49
-1816.44
-1819.4
-1822.37
-1825.35
-1828.34
-1831.35
-1834.36
-1837.39
-1840.44
-1843.51
-1846.61
-1849.81
-1853.76
)
;

boundaryField
{
    wall
    {
        type            calculated;
        value           nonuniform List<scalar> 
1200
(
494.489
-142.97
-266.745
-461.456
-653.029
-848.208
-1046.98
-1242.64
-1509.08
-1262.54
286.864
-117.49
-209.115
-439.293
-633.825
-829
-1024.79
-1185.22
-1483.59
-1469.45
199.009
-111.161
-202.396
-445.884
-630.293
-825.461
-1031.29
-1178.51
-1477.32
-1557.7
168.177
-105.439
-215.519
-463.52
-639.615
-834.836
-1048.95
-1191.56
-1471.56
-1588.42
147.501
-104.669
-230.765
-477.459
-649.641
-844.918
-1062.93
-1206.82
-1470.77
-1608.93
130.534
-107.582
-245.655
-487.962
-659.125
-854.392
-1073.4
-1221.77
-1473.82
-1626.07
116.915
-111.924
-259.656
-496.767
-668.815
-864.127
-1082.25
-1235.81
-1478.24
-1639.77
105.413
-116.866
-272.501
-504.449
-678.407
-873.725
-1089.9
-1248.54
-1483.1
-1651.1
95.3665
-122.01
-284.136
-511.228
-687.49
-882.763
-1096.62
-1260.04
-1488.23
-1661.1
86.4919
-127.099
-294.57
-517.26
-695.896
-891.166
-1102.69
-1270.48
-1493.42
-1670.09
78.3972
-132.128
-304.022
-522.791
-703.682
-898.945
-1108.26
-1279.9
-1498.44
-1678.13
70.959
-137.042
-312.651
-527.959
-710.884
-906.111
-1113.41
-1288.44
-1503.3
-1685.47
64.1792
-141.747
-320.508
-532.799
-717.536
-912.732
-1118.25
-1296.23
-1508.01
-1692.24
57.9422
-146.242
-327.666
-537.355
-723.7
-918.884
-1122.84
-1303.37
-1512.51
-1698.46
52.1738
-150.545
-334.229
-541.678
-729.416
-924.581
-1127.19
-1309.93
-1516.82
-1704.22
46.7818
-154.7
-340.306
-545.815
-734.739
-929.88
-1131.34
-1316
-1520.99
-1709.62
41.6953
-158.723
-345.949
-549.78
-739.725
-934.851
-1135.33
-1321.66
-1525.02
-1714.69
36.9327
-162.583
-351.193
-553.6
-744.438
-939.554
-1139.18
-1326.92
-1528.89
-1719.44
32.4559
-166.305
-356.109
-557.306
-748.915
-944.02
-1142.91
-1331.85
-1532.62
-1723.93
28.1887
-169.934
-360.752
-560.9
-753.157
-948.248
-1146.5
-1336.49
-1536.24
-1728.19
24.0936
-173.481
-365.149
-564.389
-757.195
-952.277
-1150
-1340.89
-1539.77
-1732.27
20.1834
-176.923
-369.313
-567.783
-761.067
-956.15
-1153.42
-1345.07
-1543.21
-1736.17
16.4536
-180.267
-373.287
-571.113
-764.808
-959.887
-1156.76
-1349.05
-1546.56
-1739.93
12.8368
-183.562
-377.123
-574.4
-768.438
-963.503
-1160.02
-1352.86
-1549.84
-1743.56
9.31559
-186.803
-380.81
-577.615
-771.942
-966.998
-1163.22
-1356.53
-1553.05
-1747.06
5.91649
-189.964
-384.35
-580.761
-775.339
-970.396
-1166.37
-1360.08
-1556.21
-1750.48
2.6095
-193.076
-387.793
-583.876
-778.665
-973.716
-1169.48
-1363.52
-1559.33
-1753.81
-0.638578
-196.16
-391.152
-586.955
-781.914
-976.953
-1172.53
-1366.86
-1562.38
-1757.05
-3.81973
-199.198
-394.415
-589.983
-785.087
-980.122
-1175.54
-1370.12
-1565.41
-1760.23
-6.94024
-202.198
-397.604
-592.981
-788.212
-983.252
-1178.55
-1373.33
-1568.41
-1763.36
-10.0197
-205.175
-400.739
-595.957
-791.291
-986.334
-1181.52
-1376.48
-1571.38
-1766.44
-13.0585
-208.128
-403.82
-598.903
-794.319
-989.363
-1184.46
-1379.57
-1574.33
-1769.49
-16.0599
-211.059
-406.856
-601.831
-797.314
-992.361
-1187.39
-1382.62
-1577.26
-1772.5
-19.0394
-213.977
-409.861
-604.747
-800.285
-995.338
-1190.3
-1385.64
-1580.18
-1775.48
-22.0042
-216.888
-412.836
-607.647
-803.228
-998.288
-1193.2
-1388.63
-1583.09
-1778.45
-24.9522
-219.793
-415.791
-610.54
-806.152
-1001.22
-1196.09
-1391.59
-1585.98
-1781.39
-27.8792
-222.689
-418.727
-613.425
-809.061
-1004.13
-1198.97
-1394.53
-1588.86
-1784.31
-30.7897
-225.574
-421.642
-616.298
-811.956
-1007.04
-1201.86
-1397.47
-1591.75
-1787.24
-33.6979
-228.463
-424.556
-619.181
-814.856
-1009.96
-1204.75
-1400.39
-1594.64
-1790.16
-36.6066
-231.358
-427.469
-622.067
-817.751
-1012.86
-1207.63
-1403.3
-1597.52
-1793.07
-39.5133
-234.252
-430.371
-624.944
-820.634
-1015.75
-1210.51
-1406.21
-1600.42
-1795.99
-42.423
-237.153
-433.277
-627.835
-823.531
-1018.66
-1213.41
-1409.13
-1603.32
-1798.9
-45.3424
-240.066
-436.191
-630.734
-826.429
-1021.56
-1216.3
-1412.04
-1606.22
-1801.82
-48.2654
-242.984
-439.105
-633.634
-829.324
-1024.46
-1219.2
-1414.95
-1609.13
-1804.75
-51.1808
-245.901
-442.021
-636.545
-832.231
-1027.37
-1222.11
-1417.86
-1612.04
-1807.67
-54.1041
-248.822
-444.936
-639.457
-835.14
-1030.29
-1225.02
-1420.78
-1614.98
-1810.62
-57.0422
-251.76
-447.867
-642.387
-838.069
-1033.23
-1227.96
-1423.73
-1617.93
-1813.57
-59.9978
-254.718
-450.817
-645.338
-841.014
-1036.17
-1230.9
-1426.67
-1620.88
-1816.51
-62.9604
-257.68
-453.768
-648.289
-843.958
-1039.12
-1233.84
-1429.62
-1623.84
-1819.47
-65.9148
-260.643
-456.728
-651.255
-846.918
-1042.08
-1236.81
-1432.58
-1626.81
-1822.43
-68.8996
-263.631
-459.703
-654.228
-849.878
-1045.05
-1239.78
-1435.56
-1629.8
-1825.43
-71.8891
-266.623
-462.684
-657.217
-852.865
-1048.04
-1242.77
-1438.55
-1632.8
-1828.42
-74.8949
-269.633
-465.684
-660.224
-855.865
-1051.04
-1245.77
-1441.55
-1635.81
-1831.43
-77.9289
-272.667
-468.698
-663.234
-858.861
-1054.04
-1248.77
-1444.56
-1638.84
-1834.45
-80.9587
-275.701
-471.721
-666.265
-861.883
-1057.07
-1251.8
-1447.59
-1641.88
-1837.49
-83.9893
-278.737
-474.749
-669.302
-864.915
-1060.1
-1254.83
-1450.62
-1644.93
-1840.53
-87.034
-281.785
-477.784
-672.345
-867.952
-1063.14
-1257.88
-1453.67
-1647.99
-1843.59
-90.1463
-284.882
-480.843
-675.39
-870.977
-1066.17
-1260.93
-1456.73
-1651.1
-1846.72
-93.3402
-288.023
-483.889
-678.408
-873.958
-1069.16
-1263.95
-1459.8
-1654.26
-1849.93
-97.2488
-291.272
-486.719
-681.145
-876.596
-1071.8
-1266.7
-1462.66
-1657.55
-1853.89
493.364
-143.378
-267.099
-461.714
-653.266
-848.41
-1047.15
-1242.83
-1509.5
-1262.75
286.087
-118.048
-209.61
-439.25
-633.699
-828.85
-1024.7
-1185.21
-1484.14
-1470.5
197.953
-111.936
-203.348
-446.003
-630.356
-825.521
-1031.49
-1179.06
-1477.86
-1558.26
167.976
-105.812
-216.605
-463.87
-640.035
-835.173
-1049.28
-1192.35
-1471.79
-1588.34
148.077
-104.607
-231.623
-477.826
-650.288
-845.406
-1063.15
-1207.31
-1470.63
-1608.36
130.975
-107.544
-246.291
-488.134
-659.676
-854.835
-1073.48
-1221.88
-1473.44
-1625.28
117.047
-111.975
-260.129
-496.857
-669.26
-864.403
-1082.16
-1235.66
-1477.84
-1639.17
105.556
-116.848
-272.767
-504.44
-678.687
-873.846
-1089.79
-1248.36
-1482.87
-1650.87
95.4968
-121.97
-284.207
-511.078
-687.554
-882.754
-1096.54
-1259.87
-1488.07
-1661.01
86.4054
-127.209
-294.631
-517.112
-695.844
-891.026
-1102.57
-1270.25
-1493.25
-1670
78.2823
-132.292
-304.077
-522.656
-703.542
-898.701
-1108.11
-1279.7
-1498.37
-1678.17
70.9679
-137.144
-312.621
-527.787
-710.68
-905.843
-1113.29
-1288.3
-1503.31
-1685.57
64.2337
-141.828
-320.421
-532.617
-717.31
-912.471
-1118.16
-1296.14
-1508.03
-1692.3
58.0142
-146.343
-327.589
-537.207
-723.47
-918.61
-1122.74
-1303.32
-1512.56
-1698.53
52.2367
-150.686
-334.19
-541.584
-729.224
-924.355
-1127.13
-1309.93
-1516.92
-1704.32
46.8699
-154.838
-340.271
-545.763
-734.616
-929.744
-1131.32
-1316.02
-1521.07
-1709.69
41.8784
-158.811
-345.909
-549.779
-739.681
-934.803
-1135.33
-1321.66
-1525.06
-1714.71
37.1534
-162.67
-351.184
-553.648
-744.439
-939.551
-1139.2
-1326.93
-1528.92
-1719.46
32.6552
-166.418
-356.126
-557.373
-748.921
-944.028
-1142.92
-1331.87
-1532.67
-1723.96
28.3937
-170.035
-360.764
-560.982
-753.192
-948.3
-1146.54
-1336.52
-1536.3
-1728.23
24.3486
-173.535
-365.146
-564.496
-757.275
-952.381
-1150.06
-1340.92
-1539.81
-1732.29
20.4565
-176.964
-369.326
-567.93
-761.185
-956.28
-1153.48
-1345.1
-1543.25
-1736.2
16.677
-180.336
-373.319
-571.272
-764.929
-960.022
-1156.82
-1349.09
-1546.6
-1739.95
13.0389
-183.619
-377.122
-574.521
-768.526
-963.626
-1160.09
-1352.93
-1549.89
-1743.57
9.53071
-186.831
-380.784
-577.717
-772.018
-967.124
-1163.31
-1356.62
-1553.13
-1747.09
6.1008
-190.007
-384.34
-580.872
-775.416
-970.519
-1166.46
-1360.17
-1556.29
-1750.49
2.75294
-193.133
-387.775
-583.961
-778.711
-973.819
-1169.56
-1363.62
-1559.4
-1753.82
-0.504141
-196.201
-391.107
-587.003
-781.935
-977.055
-1172.63
-1366.99
-1562.49
-1757.08
-3.69863
-199.241
-394.371
-590.024
-785.104
-980.23
-1175.66
-1370.26
-1565.53
-1760.27
-6.84292
-202.254
-397.572
-593.013
-788.21
-983.334
-1178.63
-1373.45
-1568.53
-1763.4
-9.93456
-205.236
-400.709
-595.973
-791.267
-986.393
-1181.59
-1376.59
-1571.5
-1766.49
-12.9863
-208.196
-403.8
-598.918
-794.296
-989.427
-1184.53
-1379.68
-1574.46
-1769.54
-16.0072
-211.138
-406.849
-601.843
-797.29
-992.424
-1187.45
-1382.72
-1577.39
-1772.54
-18.9952
-214.063
-409.861
-604.752
-800.252
-995.388
-1190.35
-1385.73
-1580.3
-1775.53
-21.9538
-216.972
-412.847
-607.655
-803.2
-998.336
-1193.25
-1388.7
-1583.2
-1778.49
-24.892
-219.871
-415.807
-610.547
-806.13
-1001.27
-1196.13
-1391.66
-1586.1
-1781.43
-27.8223
-222.768
-418.753
-613.435
-809.049
-1004.19
-1199.01
-1394.61
-1589
-1784.37
-30.749
-225.67
-421.694
-616.327
-811.961
-1007.1
-1201.89
-1397.53
-1591.87
-1787.28
-33.6636
-228.564
-424.616
-619.206
-814.855
-1009.99
-1204.75
-1400.43
-1594.75
-1790.18
-36.5705
-231.454
-427.528
-622.086
-817.75
-1012.88
-1207.63
-1403.35
-1597.64
-1793.1
-39.4781
-234.352
-430.445
-624.98
-820.656
-1015.79
-1210.52
-1406.25
-1600.52
-1795.99
-42.3849
-237.25
-433.355
-627.869
-823.55
-1018.68
-1213.4
-1409.15
-1603.41
-1798.89
-45.289
-240.149
-436.262
-630.762
-826.451
-1021.58
-1216.29
-1412.06
-1606.31
-1801.8
-48.198
-243.055
-439.176
-633.669
-829.364
-1024.49
-1219.2
-1414.97
-1609.21
-1804.71
-51.1264
-245.978
-442.096
-636.58
-832.278
-1027.41
-1222.11
-1417.89
-1612.13
-1807.63
-54.0627
-248.915
-445.032
-639.509
-835.206
-1030.33
-1225.04
-1420.81
-1615.04
-1810.54
-57.0002
-251.854
-447.967
-642.438
-838.13
-1033.26
-1227.96
-1423.73
-1617.97
-1813.47
-59.9396
-254.794
-450.901
-645.37
-841.06
-1036.19
-1230.89
-1426.66
-1620.91
-1816.42
-62.8928
-257.751
-453.854
-648.323
-844.011
-1039.14
-1233.86
-1429.62
-1623.87
-1819.38
-65.8772
-260.732
-456.819
-651.285
-846.969
-1042.1
-1236.82
-1432.58
-1626.84
-1822.35
-68.8549
-263.713
-459.794
-654.267
-849.952
-1045.09
-1239.8
-1435.55
-1629.81
-1825.32
-71.8503
-266.714
-462.785
-657.257
-852.932
-1048.06
-1242.79
-1438.53
-1632.81
-1828.31
-74.8559
-269.722
-465.782
-660.255
-855.924
-1051.06
-1245.79
-1441.53
-1635.82
-1831.32
-77.8577
-272.732
-468.789
-663.275
-858.944
-1054.08
-1248.82
-1444.55
-1638.83
-1834.33
-80.8891
-275.767
-471.812
-666.3
-861.962
-1057.1
-1251.85
-1447.57
-1641.87
-1837.36
-83.9478
-278.826
-474.855
-669.339
-864.992
-1060.13
-1254.89
-1450.61
-1644.92
-1840.41
-87.0301
-281.905
-477.911
-672.389
-868.028
-1063.17
-1257.93
-1453.66
-1647.99
-1843.48
-90.1224
-284.984
-480.957
-675.426
-871.049
-1066.19
-1260.97
-1456.7
-1651.07
-1846.58
-93.3023
-288.109
-483.984
-678.414
-873.995
-1069.14
-1263.96
-1459.73
-1654.2
-1849.77
-97.2452
-291.372
-486.817
-681.149
-876.614
-1071.75
-1266.67
-1462.57
-1657.47
-1853.72
)
;
    }
    inlet
    {
        type            calculated;
        value           nonuniform List<scalar> 
20
(
494.209
-143.073
-266.834
-461.521
-653.089
-848.259
-1047.03
-1242.69
-1509.18
-1262.59
493.644
-143.275
-267.01
-461.649
-653.206
-848.359
-1047.11
-1242.78
-1509.39
-1262.7
)
;
    }
    outlet
    {
        type            calculated;
        value           nonuniform List<scalar> 
20
(
-97.5912
-292.76
-487.93
-683.102
-878.274
-1073.45
-1268.62
-1463.79
-1658.97
-1854.23
-97.5912
-292.76
-487.93
-683.102
-878.274
-1073.45
-1268.62
-1463.79
-1658.97
-1854.23
)
;
    }
    heatWall
    {
        type            calculated;
        value           nonuniform List<scalar> 
240
(
-1360.18
-1360.28
-1567.3
-1567.82
-1655.43
-1655.7
-1685.99
-1685.95
-1706.37
-1706.09
-1723.46
-1723.07
-1737.2
-1736.91
-1748.63
-1748.51
-1758.66
-1758.62
-1767.65
-1767.61
-1775.72
-1775.74
-1783.08
-1783.13
-1789.84
-1789.87
-1796.07
-1796.1
-1801.84
-1801.88
-1807.23
-1807.26
-1812.28
-1812.29
-1817.04
-1817.04
-1821.52
-1821.54
-1825.79
-1825.81
-1829.87
-1829.88
-1833.77
-1833.78
-1837.53
-1837.53
-1841.15
-1841.16
-1844.66
-1844.67
-1848.07
-1848.08
-1851.4
-1851.4
-1854.65
-1854.66
-1857.83
-1857.85
-1860.96
-1860.98
-1864.04
-1864.07
-1867.09
-1867.11
-1870.1
-1870.12
-1873.08
-1873.11
-1876.05
-1876.07
-1878.99
-1879.01
-1881.92
-1881.94
-1884.84
-1884.86
-1887.76
-1887.77
-1890.66
-1890.68
-1893.58
-1893.58
-1896.49
-1896.48
-1899.41
-1899.39
-1902.33
-1902.31
-1905.25
-1905.23
-1908.19
-1908.15
-1911.13
-1911.09
-1914.08
-1914.03
-1917.04
-1916.99
-1920
-1919.96
-1922.99
-1922.94
-1925.99
-1925.93
-1928.99
-1928.94
-1932.01
-1931.95
-1935.05
-1934.98
-1938.09
-1938.03
-1941.16
-1941.1
-1944.27
-1944.2
-1947.48
-1947.4
-1951.43
-1951.35
591.795
591.23
384.255
383.869
296.328
295.807
265.711
265.615
245.233
245.519
228.232
228.45
214.536
214.599
203.037
203.106
192.988
193.05
184.058
184.014
175.956
175.899
168.549
168.554
161.78
161.809
155.547
155.585
149.777
149.81
144.391
144.437
139.328
139.422
134.575
134.687
130.094
130.194
125.828
125.931
121.746
121.873
117.841
117.976
114.099
114.209
110.477
110.576
106.959
107.065
103.553
103.643
100.235
100.305
96.9851
97.0503
93.8007
93.8593
90.6742
90.7211
87.5917
87.6326
84.5497
84.5843
81.5434
81.5685
78.5618
78.5828
75.5985
75.6228
72.653
72.6823
69.7252
69.7529
66.8107
66.8304
63.9009
63.9175
60.9926
61.0102
58.0858
58.103
55.1769
55.1956
52.2614
52.2877
49.342
49.3752
46.4234
46.4501
43.4969
43.5172
40.5591
40.5796
37.6076
37.6361
34.6475
34.6806
31.6856
31.7039
28.7026
28.7244
25.7117
25.7305
22.706
22.725
19.6802
19.7151
16.6501
16.6841
13.6126
13.6325
10.5585
10.5598
7.45124
7.46247
4.26095
4.27921
0.343728
0.34506
)
;
    }
}


// ************************************************************************* //
