/*--------------------------------*- C++ -*----------------------------------*\
  =========                 |
  \\      /  F ield         | OpenFOAM: The Open Source CFD Toolbox
   \\    /   O peration     | Website:  https://openfoam.org
    \\  /    A nd           | Version:  8
     \\/     M anipulation  |
\*---------------------------------------------------------------------------*/
FoamFile
{
    version     2.0;
    format      ascii;
    class       volScalarField;
    location    "500";
    object      alphat;
}
// * * * * * * * * * * * * * * * * * * * * * * * * * * * * * * * * * * * * * //

dimensions      [1 -1 -1 0 0 0 0];

internalField   nonuniform List<scalar> 
1200
(
0.200897
0.184965
0.171674
0.160444
0.150844
0.142558
0.135346
0.129021
0.123438
0.118481
0.114057
0.110088
0.106512
0.103278
0.100342
0.0976672
0.0952235
0.0929843
0.0909269
0.089032
0.0872828
0.0856646
0.0841646
0.0827715
0.0814756
0.0802679
0.0791408
0.0780874
0.0771014
0.0761773
0.0753103
0.0744957
0.0737295
0.0730082
0.0723283
0.0716869
0.0710811
0.0705086
0.069967
0.0694542
0.0689682
0.0685073
0.0680699
0.0676545
0.0672596
0.066884
0.0665264
0.0661859
0.0658613
0.0655517
0.0652563
0.0649741
0.0647045
0.0644467
0.0642
0.0639638
0.0637376
0.0635207
0.0633128
0.0631132
0.116417
0.0999852
0.0873786
0.0774623
0.0694925
0.0629638
0.0575286
0.0529411
0.0490227
0.0456407
0.0426946
0.0401072
0.0378183
0.0357804
0.0339552
0.0323119
0.0308254
0.0294747
0.0282426
0.0271147
0.0260787
0.0251241
0.0242421
0.0234251
0.0226665
0.0219604
0.0213019
0.0206865
0.0201105
0.0195702
0.0190628
0.0185856
0.018136
0.017712
0.0173116
0.016933
0.0165748
0.0162353
0.0159135
0.0156079
0.0153176
0.0150416
0.014779
0.0145289
0.0142905
0.0140633
0.0138464
0.0136394
0.0134416
0.0132526
0.0130719
0.0128989
0.0127334
0.0125748
0.0124229
0.0122772
0.0121375
0.0120029
0.0118721
0.0117324
0.11639
0.0998142
0.0870858
0.0770516
0.0689691
0.0623383
0.0568122
0.0521436
0.0481527
0.0447056
0.0417009
0.0390605
0.0367235
0.0346414
0.0327755
0.0310945
0.0295727
0.0281889
0.0269255
0.0257677
0.0247031
0.0237208
0.0228121
0.0219688
0.0211845
0.0204531
0.0197696
0.0191295
0.0185288
0.0179641
0.0174322
0.0169304
0.0164563
0.0160077
0.0155825
0.015179
0.0147957
0.014431
0.0140837
0.0137526
0.0134366
0.0131348
0.0128461
0.0125698
0.0123051
0.0120514
0.0118079
0.011574
0.0113493
0.0111331
0.0109251
0.0107248
0.0105317
0.0103456
0.010166
0.00999256
0.00982505
0.00966312
0.00950644
0.00935434
0.11639
0.0998533
0.0871498
0.0771324
0.0690586
0.0624306
0.0569034
0.0522316
0.048236
0.0447837
0.0417735
0.0391277
0.0367854
0.0346984
0.0328279
0.0311426
0.0296168
0.0282294
0.0269626
0.0258017
0.0247341
0.0237493
0.022838
0.0219926
0.0212061
0.0204728
0.0197875
0.0191457
0.0185435
0.0179773
0.017444
0.016941
0.0164656
0.0160158
0.0155896
0.0151851
0.0148008
0.0144352
0.0140869
0.0137549
0.013438
0.0131351
0.0128455
0.0125683
0.0123026
0.0120478
0.0118032
0.0115683
0.0113425
0.0111253
0.0109161
0.0107146
0.0105204
0.010333
0.0101522
0.00997753
0.00980874
0.00964554
0.00948766
0.00933484
0.11639
0.0998534
0.0871436
0.07712
0.0690412
0.0624098
0.0568809
0.0522085
0.0482134
0.044762
0.0417531
0.0391087
0.0367679
0.0346823
0.0328133
0.0311293
0.0296048
0.0282185
0.0269528
0.0257929
0.0247262
0.0237421
0.0228316
0.0219868
0.021201
0.0204682
0.0197834
0.0191421
0.0185402
0.0179744
0.0174414
0.0169387
0.0164636
0.0160141
0.015588
0.0151838
0.0147996
0.0144342
0.0140861
0.0137542
0.0134374
0.0131347
0.0128452
0.012568
0.0123025
0.0120477
0.0118033
0.0115684
0.0113427
0.0111255
0.0109164
0.0107149
0.0105207
0.0103334
0.0101526
0.00997795
0.00980919
0.009646
0.00948813
0.00933532
0.11639
0.0998534
0.0871436
0.07712
0.0690412
0.0624099
0.056881
0.0522086
0.0482134
0.044762
0.0417531
0.0391088
0.036768
0.0346824
0.0328133
0.0311294
0.0296048
0.0282185
0.0269528
0.0257929
0.0247262
0.0237421
0.0228316
0.0219868
0.021201
0.0204682
0.0197834
0.019142
0.0185402
0.0179743
0.0174414
0.0169387
0.0164636
0.016014
0.015588
0.0151837
0.0147996
0.0144342
0.0140861
0.0137542
0.0134374
0.0131347
0.0128452
0.012568
0.0123024
0.0120477
0.0118032
0.0115684
0.0113426
0.0111254
0.0109163
0.0107149
0.0105207
0.0103334
0.0101526
0.00997792
0.00980915
0.00964597
0.00948809
0.00933529
0.11639
0.0998533
0.0871498
0.0771324
0.0690585
0.0624305
0.0569034
0.0522315
0.048236
0.0447836
0.0417735
0.0391277
0.0367854
0.0346983
0.0328278
0.0311425
0.0296168
0.0282293
0.0269625
0.0258016
0.0247341
0.0237492
0.022838
0.0219925
0.0212061
0.0204728
0.0197875
0.0191457
0.0185434
0.0179772
0.017444
0.0169409
0.0164656
0.0160158
0.0155895
0.015185
0.0148007
0.0144351
0.0140869
0.0137549
0.0134379
0.0131351
0.0128455
0.0125682
0.0123025
0.0120477
0.0118032
0.0115683
0.0113424
0.0111252
0.010916
0.0107146
0.0105203
0.0103329
0.0101521
0.00997742
0.00980863
0.00964542
0.00948752
0.0093347
0.11639
0.0998142
0.0870859
0.0770517
0.0689692
0.0623384
0.0568123
0.0521437
0.0481528
0.0447057
0.041701
0.0390606
0.0367235
0.0346414
0.0327755
0.0310945
0.0295727
0.0281889
0.0269255
0.0257677
0.024703
0.0237208
0.022812
0.0219688
0.0211845
0.0204531
0.0197696
0.0191295
0.0185288
0.017964
0.0174321
0.0169304
0.0164562
0.0160076
0.0155824
0.0151789
0.0147956
0.0144309
0.0140836
0.0137524
0.0134363
0.0131342
0.0128453
0.0125688
0.0123038
0.0120497
0.0118058
0.0115716
0.0113466
0.0111301
0.0109217
0.010721
0.0105275
0.010341
0.010161
0.00998715
0.00981922
0.00965686
0.00949973
0.0093473
0.116417
0.0999854
0.0873788
0.0774627
0.0694932
0.0629649
0.0575302
0.0529432
0.0490254
0.0456439
0.0426984
0.0401117
0.0378234
0.035786
0.0339613
0.0323185
0.0308323
0.0294818
0.02825
0.0271222
0.0260862
0.0251317
0.0242497
0.0234326
0.0226738
0.0219677
0.021309
0.0206936
0.0201174
0.0195771
0.0190696
0.0185923
0.0181426
0.0177185
0.017318
0.0169393
0.0165809
0.0162413
0.0159192
0.0156135
0.0153231
0.0150469
0.0147842
0.014534
0.0142957
0.0140684
0.0138516
0.0136446
0.0134469
0.0132579
0.0130772
0.0129044
0.0127389
0.0125805
0.0124287
0.0122832
0.0121436
0.0120091
0.0118785
0.0117384
0.200897
0.184965
0.171674
0.160443
0.150844
0.142558
0.135345
0.129021
0.123438
0.118481
0.114056
0.110087
0.106511
0.103277
0.100341
0.0976667
0.095223
0.0929838
0.0909265
0.0890316
0.0872824
0.0856642
0.0841642
0.0827712
0.0814752
0.0802676
0.0791405
0.0780871
0.0771011
0.0761771
0.07531
0.0744954
0.0737293
0.0730079
0.0723281
0.0716866
0.0710809
0.0705084
0.0699668
0.0694539
0.068968
0.0685071
0.0680697
0.0676542
0.0672593
0.0668837
0.0665262
0.0661856
0.065861
0.0655514
0.065256
0.0649738
0.0647041
0.0644463
0.0641996
0.0639634
0.0637371
0.0635203
0.0633124
0.0631127
0.200897
0.184965
0.171673
0.160443
0.150843
0.142557
0.135345
0.12902
0.123438
0.118481
0.114056
0.110087
0.106511
0.103277
0.100341
0.0976667
0.095223
0.0929838
0.0909265
0.0890317
0.0872825
0.0856643
0.0841643
0.0827713
0.0814753
0.0802677
0.0791406
0.0780872
0.0771012
0.0761771
0.0753101
0.0744955
0.0737293
0.073008
0.0723281
0.0716866
0.0710809
0.0705084
0.0699667
0.0694539
0.0689679
0.068507
0.0680696
0.0676542
0.0672593
0.0668836
0.0665261
0.0661855
0.0658609
0.0655514
0.0652559
0.0649737
0.0647041
0.0644462
0.0641995
0.0639634
0.0637371
0.0635203
0.0633124
0.0631128
0.116417
0.0999852
0.0873782
0.0774618
0.0694924
0.062964
0.0575289
0.0529413
0.0490227
0.0456402
0.0426936
0.0401059
0.0378168
0.0357787
0.0339535
0.0323105
0.0308242
0.029474
0.0282425
0.0271151
0.0260795
0.0251254
0.0242438
0.0234271
0.0226687
0.0219627
0.0213043
0.020689
0.020113
0.0195728
0.0190654
0.0185882
0.0181387
0.0177148
0.0173145
0.0169361
0.0165779
0.0162387
0.0159169
0.0156114
0.0153212
0.0150453
0.0147827
0.0145327
0.0142944
0.0140672
0.0138504
0.0136435
0.0134457
0.0132567
0.013076
0.0129031
0.0127375
0.012579
0.0124272
0.0122816
0.0121418
0.0120073
0.0118765
0.0117365
0.11639
0.0998142
0.087086
0.0770518
0.0689692
0.0623384
0.0568122
0.0521436
0.0481526
0.0447055
0.0417008
0.0390604
0.0367233
0.0346412
0.0327753
0.0310943
0.0295725
0.0281887
0.0269254
0.0257676
0.0247029
0.0237207
0.0228119
0.0219687
0.0211843
0.020453
0.0197695
0.0191293
0.0185287
0.0179639
0.017432
0.0169303
0.0164561
0.0160075
0.0155823
0.0151788
0.0147955
0.0144308
0.0140835
0.0137524
0.0134364
0.0131346
0.0128459
0.0125696
0.012305
0.0120512
0.0118077
0.0115738
0.0113491
0.0111329
0.0109249
0.0107246
0.0105315
0.0103453
0.0101657
0.00999226
0.00982473
0.00966278
0.00950606
0.00935393
0.11639
0.0998532
0.0871498
0.0771324
0.0690586
0.0624305
0.0569034
0.0522315
0.0482359
0.0447836
0.0417734
0.0391276
0.0367853
0.0346983
0.0328278
0.0311425
0.0296167
0.0282293
0.0269625
0.0258016
0.0247341
0.0237492
0.022838
0.0219925
0.0212061
0.0204728
0.0197875
0.0191457
0.0185434
0.0179772
0.017444
0.0169409
0.0164656
0.0160158
0.0155895
0.015185
0.0148007
0.0144351
0.0140869
0.0137548
0.0134379
0.0131351
0.0128454
0.0125682
0.0123025
0.0120477
0.0118031
0.0115682
0.0113424
0.0111251
0.010916
0.0107145
0.0105203
0.0103329
0.010152
0.00997738
0.00980859
0.00964538
0.00948749
0.00933467
0.11639
0.0998533
0.0871436
0.0771201
0.0690413
0.0624099
0.0568809
0.0522085
0.0482133
0.0447619
0.041753
0.0391086
0.0367678
0.0346822
0.0328132
0.0311292
0.0296047
0.0282184
0.0269527
0.0257928
0.0247261
0.0237421
0.0228315
0.0219867
0.0212009
0.0204681
0.0197833
0.019142
0.0185401
0.0179743
0.0174414
0.0169386
0.0164635
0.016014
0.0155879
0.0151837
0.0147995
0.0144341
0.014086
0.0137541
0.0134373
0.0131346
0.0128451
0.0125679
0.0123023
0.0120476
0.0118031
0.0115683
0.0113425
0.0111253
0.0109162
0.0107148
0.0105206
0.0103333
0.0101524
0.00997779
0.00980902
0.00964583
0.00948796
0.00933514
0.11639
0.0998533
0.0871436
0.0771201
0.0690413
0.0624099
0.056881
0.0522086
0.0482134
0.0447619
0.041753
0.0391087
0.0367679
0.0346823
0.0328132
0.0311293
0.0296047
0.0282185
0.0269527
0.0257928
0.0247261
0.0237421
0.0228316
0.0219868
0.0212009
0.0204681
0.0197833
0.019142
0.0185401
0.0179743
0.0174414
0.0169386
0.0164635
0.016014
0.0155879
0.0151837
0.0147995
0.0144341
0.014086
0.0137541
0.0134373
0.0131346
0.0128451
0.0125679
0.0123023
0.0120476
0.0118031
0.0115683
0.0113425
0.0111253
0.0109162
0.0107148
0.0105206
0.0103332
0.0101524
0.00997777
0.009809
0.00964581
0.00948794
0.00933513
0.11639
0.0998532
0.0871498
0.0771324
0.0690585
0.0624305
0.0569033
0.0522314
0.0482359
0.0447835
0.0417733
0.0391276
0.0367853
0.0346982
0.0328277
0.0311425
0.0296167
0.0282293
0.0269625
0.0258016
0.024734
0.0237492
0.0228379
0.0219925
0.021206
0.0204727
0.0197874
0.0191456
0.0185434
0.0179772
0.0174439
0.0169409
0.0164655
0.0160157
0.0155895
0.015185
0.0148007
0.0144351
0.0140868
0.0137548
0.0134379
0.013135
0.0128454
0.0125681
0.0123025
0.0120477
0.0118031
0.0115682
0.0113424
0.0111251
0.010916
0.0107145
0.0105202
0.0103329
0.010152
0.00997732
0.00980853
0.00964532
0.00948742
0.00933459
0.11639
0.0998142
0.087086
0.0770519
0.0689693
0.0623384
0.0568123
0.0521437
0.0481527
0.0447056
0.0417009
0.0390605
0.0367234
0.0346412
0.0327754
0.0310944
0.0295726
0.0281888
0.0269254
0.0257676
0.0247029
0.0237207
0.0228119
0.0219687
0.0211844
0.020453
0.0197695
0.0191294
0.0185287
0.0179639
0.017432
0.0169303
0.0164561
0.0160075
0.0155823
0.0151788
0.0147955
0.0144308
0.0140834
0.0137523
0.0134361
0.0131341
0.0128452
0.0125686
0.0123037
0.0120496
0.0118057
0.0115716
0.0113465
0.01113
0.0109216
0.0107209
0.0105275
0.0103409
0.0101609
0.00998708
0.00981913
0.00965677
0.00949962
0.00934716
0.116417
0.0999854
0.0873787
0.0774626
0.0694935
0.0629657
0.0575313
0.0529445
0.0490266
0.045645
0.0426991
0.040112
0.0378234
0.0357856
0.0339607
0.0323177
0.0308315
0.0294812
0.0282494
0.0271218
0.026086
0.0251317
0.0242498
0.0234328
0.0226741
0.0219678
0.021309
0.0206933
0.0201168
0.0195761
0.0190682
0.0185905
0.0181406
0.0177162
0.0173154
0.0169366
0.0165782
0.0162386
0.0159166
0.015611
0.0153208
0.0150449
0.0147824
0.0145325
0.0142943
0.0140673
0.0138507
0.0136438
0.0134462
0.0132574
0.0130768
0.0129041
0.0127387
0.0125804
0.0124287
0.0122833
0.0121437
0.0120094
0.0118788
0.0117387
0.200897
0.184965
0.171674
0.160443
0.150843
0.142557
0.135345
0.12902
0.123437
0.11848
0.114056
0.110087
0.106511
0.103277
0.100341
0.0976665
0.0952228
0.0929836
0.0909263
0.0890315
0.0872823
0.0856641
0.0841641
0.0827711
0.0814751
0.0802675
0.0791404
0.0780869
0.0771009
0.0761769
0.0753098
0.0744952
0.073729
0.0730076
0.0723277
0.0716863
0.0710806
0.070508
0.0699664
0.0694535
0.0689675
0.0685066
0.0680692
0.0676537
0.0672588
0.0668832
0.0665256
0.0661851
0.0658605
0.0655509
0.0652554
0.0649732
0.0647035
0.0644457
0.0641989
0.0639627
0.0637365
0.0635196
0.0633117
0.063112
)
;

boundaryField
{
    wall
    {
        type            compressible::alphatJayatillekeWallFunction;
        Prt             0.85;
        value           uniform 0;
    }
    inlet
    {
        type            calculated;
        value           uniform 9.47574;
    }
    outlet
    {
        type            calculated;
        value           nonuniform List<scalar> 
20
(
0.0631132
0.0117324
0.00935434
0.00933484
0.00933532
0.00933529
0.0093347
0.0093473
0.0117384
0.0631127
0.0631128
0.0117365
0.00935393
0.00933467
0.00933514
0.00933513
0.00933459
0.00934716
0.0117387
0.063112
)
;
    }
    heatWall
    {
        type            compressible::alphatJayatillekeWallFunction;
        Prt             0.85;
        value           nonuniform List<scalar> 
240
(
0.0209458
0.0209458
0.0193322
0.0193322
0.0179825
0.0179825
0.0168393
0.0168392
0.01586
0.01586
0.015013
0.015013
0.0142744
0.0142744
0.0136256
0.0136256
0.013052
0.013052
0.012542
0.0125419
0.0120861
0.012086
0.0116766
0.0116766
0.0113073
0.0113073
0.0109729
0.0109729
0.010669
0.0106689
0.0103919
0.0103919
0.0101385
0.0101384
0.00990605
0.00990603
0.00969234
0.00969233
0.00949536
0.00949535
0.0093134
0.00931338
0.00914494
0.00914493
0.00898869
0.00898868
0.0088435
0.00884349
0.00870835
0.00870833
0.00858234
0.00858232
0.00846467
0.00846466
0.00835464
0.00835463
0.00825161
0.00825159
0.00815501
0.00815499
0.00806433
0.0080643
0.0079791
0.00797907
0.00789891
0.00789888
0.00782338
0.00782335
0.00775217
0.00775214
0.00768497
0.00768493
0.00762148
0.00762145
0.00756146
0.00756142
0.00750466
0.00750462
0.00745087
0.00745082
0.00739988
0.00739983
0.00735151
0.00735146
0.0073056
0.00730555
0.00726198
0.00726192
0.0072205
0.00722045
0.00718105
0.00718099
0.00714349
0.00714343
0.0071077
0.00710764
0.00707359
0.00707353
0.00704104
0.00704098
0.00700998
0.00700991
0.0069803
0.00698024
0.00695195
0.00695188
0.00692482
0.00692476
0.00689887
0.0068988
0.00687402
0.00687395
0.00685021
0.00685014
0.00682739
0.00682731
0.0068055
0.00680543
0.00678449
0.00678442
0.0209458
0.0209458
0.0193322
0.0193322
0.0179825
0.0179824
0.0168393
0.0168392
0.0158601
0.01586
0.0150131
0.015013
0.0142745
0.0142744
0.0136257
0.0136256
0.0130521
0.013052
0.012542
0.012542
0.0120861
0.012086
0.0116767
0.0116766
0.0113074
0.0113073
0.0109729
0.0109729
0.010669
0.010669
0.0103919
0.0103919
0.0101385
0.0101385
0.0099061
0.00990605
0.00969239
0.00969235
0.00949541
0.00949537
0.00931344
0.00931341
0.00914498
0.00914495
0.00898873
0.00898871
0.00884354
0.00884351
0.00870838
0.00870836
0.00858237
0.00858235
0.00846471
0.00846468
0.00835467
0.00835465
0.00825164
0.00825162
0.00815504
0.00815502
0.00806435
0.00806433
0.00797913
0.0079791
0.00789894
0.00789891
0.00782341
0.00782338
0.0077522
0.00775217
0.00768499
0.00768497
0.00762151
0.00762148
0.00756148
0.00756146
0.00750469
0.00750466
0.00745089
0.00745086
0.0073999
0.00739988
0.00735154
0.00735151
0.00730562
0.00730559
0.007262
0.00726197
0.00722053
0.0072205
0.00718108
0.00718104
0.00714351
0.00714348
0.00710773
0.00710769
0.00707362
0.00707358
0.00704107
0.00704103
0.00701001
0.00700997
0.00698034
0.0069803
0.00695198
0.00695194
0.00692486
0.00692482
0.00689891
0.00689887
0.00687406
0.00687402
0.00685026
0.00685021
0.00682743
0.00682739
0.00680555
0.00680551
0.00678454
0.00678449
)
;
    }
}


// ************************************************************************* //
