/*--------------------------------*- C++ -*----------------------------------*\
  =========                 |
  \\      /  F ield         | OpenFOAM: The Open Source CFD Toolbox
   \\    /   O peration     | Website:  https://openfoam.org
    \\  /    A nd           | Version:  8
     \\/     M anipulation  |
\*---------------------------------------------------------------------------*/
FoamFile
{
    version     2.0;
    format      ascii;
    class       volScalarField;
    location    "500";
    object      nut;
}
// * * * * * * * * * * * * * * * * * * * * * * * * * * * * * * * * * * * * * //

dimensions      [0 2 -1 0 0 0 0];

internalField   nonuniform List<scalar> 
1200
(
0.000201954
0.000185938
0.000172577
0.000161287
0.000151638
0.000143308
0.000136057
0.000129699
0.000124087
0.000119104
0.000114655
0.000110665
0.000107071
0.00010382
0.000100868
9.81795e-05
9.57229e-05
9.34718e-05
9.14036e-05
8.94988e-05
8.77403e-05
8.61135e-05
8.46056e-05
8.32051e-05
8.19023e-05
8.06883e-05
7.95552e-05
7.84962e-05
7.7505e-05
7.6576e-05
7.57044e-05
7.48855e-05
7.41153e-05
7.33901e-05
7.27066e-05
7.20617e-05
7.14528e-05
7.08772e-05
7.03327e-05
6.98172e-05
6.93286e-05
6.88653e-05
6.84256e-05
6.80079e-05
6.76109e-05
6.72333e-05
6.68738e-05
6.65315e-05
6.62052e-05
6.58939e-05
6.55969e-05
6.53132e-05
6.50421e-05
6.47829e-05
6.45349e-05
6.42974e-05
6.407e-05
6.3852e-05
6.3643e-05
6.34423e-05
0.00011703
0.000100512
8.78388e-05
7.78702e-05
6.98585e-05
6.32954e-05
5.78316e-05
5.322e-05
4.92809e-05
4.5881e-05
4.29194e-05
4.03184e-05
3.80175e-05
3.59688e-05
3.4134e-05
3.24821e-05
3.09877e-05
2.96299e-05
2.83913e-05
2.72575e-05
2.6216e-05
2.52564e-05
2.43698e-05
2.35485e-05
2.27858e-05
2.2076e-05
2.1414e-05
2.07954e-05
2.02163e-05
1.96733e-05
1.91632e-05
1.86834e-05
1.82315e-05
1.78052e-05
1.74027e-05
1.70222e-05
1.6662e-05
1.63208e-05
1.59972e-05
1.56901e-05
1.53983e-05
1.51208e-05
1.48568e-05
1.46053e-05
1.43657e-05
1.41373e-05
1.39193e-05
1.37112e-05
1.35124e-05
1.33224e-05
1.31407e-05
1.29668e-05
1.28004e-05
1.2641e-05
1.24883e-05
1.23418e-05
1.22013e-05
1.20661e-05
1.19346e-05
1.17941e-05
0.000117003
0.00010034
8.75445e-05
7.74574e-05
6.93323e-05
6.26666e-05
5.71114e-05
5.24183e-05
4.84063e-05
4.49411e-05
4.19206e-05
3.92663e-05
3.69169e-05
3.48238e-05
3.29481e-05
3.12583e-05
2.97285e-05
2.83374e-05
2.70674e-05
2.59035e-05
2.48332e-05
2.38458e-05
2.29322e-05
2.20846e-05
2.12961e-05
2.05608e-05
1.98737e-05
1.92303e-05
1.86264e-05
1.80587e-05
1.7524e-05
1.70196e-05
1.6543e-05
1.6092e-05
1.56645e-05
1.5259e-05
1.48736e-05
1.4507e-05
1.41579e-05
1.3825e-05
1.35074e-05
1.32039e-05
1.29138e-05
1.2636e-05
1.237e-05
1.21148e-05
1.18701e-05
1.1635e-05
1.14091e-05
1.11918e-05
1.09827e-05
1.07813e-05
1.05872e-05
1.04001e-05
1.02195e-05
1.00452e-05
9.8768e-06
9.71402e-06
9.5565e-06
9.4036e-06
0.000117003
0.000100379
8.76088e-05
7.75387e-05
6.94223e-05
6.27594e-05
5.72031e-05
5.25067e-05
4.84901e-05
4.50195e-05
4.19935e-05
3.93338e-05
3.69792e-05
3.48811e-05
3.30008e-05
3.13066e-05
2.97728e-05
2.8378e-05
2.71046e-05
2.59376e-05
2.48644e-05
2.38744e-05
2.29583e-05
2.21084e-05
2.13178e-05
2.05806e-05
1.98917e-05
1.92466e-05
1.86411e-05
1.8072e-05
1.75359e-05
1.70302e-05
1.65523e-05
1.61002e-05
1.56717e-05
1.52651e-05
1.48787e-05
1.45112e-05
1.41611e-05
1.38273e-05
1.35087e-05
1.32043e-05
1.29132e-05
1.26344e-05
1.23674e-05
1.21112e-05
1.18654e-05
1.16293e-05
1.14023e-05
1.11839e-05
1.09736e-05
1.07711e-05
1.05758e-05
1.03875e-05
1.02057e-05
1.00301e-05
9.8604e-06
9.69634e-06
9.53763e-06
9.384e-06
0.000117003
0.000100379
8.76025e-05
7.75262e-05
6.94048e-05
6.27385e-05
5.71805e-05
5.24835e-05
4.84673e-05
4.49977e-05
4.1973e-05
3.93147e-05
3.69616e-05
3.4865e-05
3.29861e-05
3.12933e-05
2.97607e-05
2.83671e-05
2.70948e-05
2.59287e-05
2.48564e-05
2.38672e-05
2.29519e-05
2.21026e-05
2.13126e-05
2.0576e-05
1.98876e-05
1.92429e-05
1.86379e-05
1.8069e-05
1.75333e-05
1.70279e-05
1.65503e-05
1.60984e-05
1.56701e-05
1.52637e-05
1.48776e-05
1.45102e-05
1.41603e-05
1.38267e-05
1.35082e-05
1.32039e-05
1.29129e-05
1.26342e-05
1.23673e-05
1.21112e-05
1.18654e-05
1.16294e-05
1.14024e-05
1.11841e-05
1.09739e-05
1.07714e-05
1.05762e-05
1.03878e-05
1.02061e-05
1.00305e-05
9.86085e-06
9.69681e-06
9.5381e-06
9.38449e-06
0.000117003
0.000100379
8.76026e-05
7.75262e-05
6.94048e-05
6.27386e-05
5.71805e-05
5.24836e-05
4.84674e-05
4.49978e-05
4.1973e-05
3.93147e-05
3.69616e-05
3.4865e-05
3.29861e-05
3.12933e-05
2.97608e-05
2.83672e-05
2.70948e-05
2.59287e-05
2.48564e-05
2.38672e-05
2.29519e-05
2.21026e-05
2.13126e-05
2.0576e-05
1.98876e-05
1.92429e-05
1.86378e-05
1.8069e-05
1.75333e-05
1.70279e-05
1.65503e-05
1.60984e-05
1.56701e-05
1.52637e-05
1.48775e-05
1.45102e-05
1.41603e-05
1.38266e-05
1.35082e-05
1.32039e-05
1.29128e-05
1.26342e-05
1.23672e-05
1.21112e-05
1.18654e-05
1.16293e-05
1.14024e-05
1.1184e-05
1.09738e-05
1.07713e-05
1.05761e-05
1.03878e-05
1.0206e-05
1.00305e-05
9.86081e-06
9.69677e-06
9.53807e-06
9.38445e-06
0.000117003
0.000100379
8.76088e-05
7.75386e-05
6.94223e-05
6.27593e-05
5.72031e-05
5.25066e-05
4.849e-05
4.50195e-05
4.19935e-05
3.93337e-05
3.69791e-05
3.48811e-05
3.30007e-05
3.13066e-05
2.97727e-05
2.8378e-05
2.71046e-05
2.59375e-05
2.48643e-05
2.38743e-05
2.29583e-05
2.21084e-05
2.13178e-05
2.05806e-05
1.98917e-05
1.92465e-05
1.86411e-05
1.80719e-05
1.75358e-05
1.70301e-05
1.65523e-05
1.61001e-05
1.56716e-05
1.5265e-05
1.48787e-05
1.45111e-05
1.41611e-05
1.38273e-05
1.35087e-05
1.32043e-05
1.29131e-05
1.26344e-05
1.23673e-05
1.21112e-05
1.18653e-05
1.16292e-05
1.14022e-05
1.11838e-05
1.09735e-05
1.0771e-05
1.05757e-05
1.03874e-05
1.02056e-05
1.003e-05
9.86029e-06
9.69622e-06
9.53749e-06
9.38386e-06
0.000117003
0.00010034
8.75446e-05
7.74575e-05
6.93324e-05
6.26667e-05
5.71115e-05
5.24183e-05
4.84064e-05
4.49411e-05
4.19206e-05
3.92663e-05
3.69169e-05
3.48238e-05
3.29481e-05
3.12583e-05
2.97284e-05
2.83374e-05
2.70673e-05
2.59034e-05
2.48331e-05
2.38458e-05
2.29322e-05
2.20845e-05
2.1296e-05
2.05608e-05
1.98737e-05
1.92302e-05
1.86264e-05
1.80586e-05
1.7524e-05
1.70195e-05
1.65429e-05
1.60919e-05
1.56645e-05
1.52589e-05
1.48735e-05
1.45069e-05
1.41577e-05
1.38248e-05
1.3507e-05
1.32034e-05
1.2913e-05
1.2635e-05
1.23686e-05
1.21131e-05
1.1868e-05
1.16326e-05
1.14063e-05
1.11887e-05
1.09792e-05
1.07774e-05
1.0583e-05
1.03954e-05
1.02145e-05
1.00398e-05
9.87094e-06
9.70772e-06
9.54976e-06
9.39653e-06
0.00011703
0.000100512
8.7839e-05
7.78706e-05
6.98592e-05
6.32965e-05
5.78331e-05
5.3222e-05
4.92836e-05
4.58843e-05
4.29233e-05
4.03229e-05
3.80226e-05
3.59745e-05
3.41402e-05
3.24887e-05
3.09946e-05
2.96371e-05
2.83987e-05
2.7265e-05
2.62236e-05
2.5264e-05
2.43774e-05
2.3556e-05
2.27932e-05
2.20833e-05
2.14212e-05
2.08025e-05
2.02233e-05
1.96802e-05
1.917e-05
1.86902e-05
1.82381e-05
1.78118e-05
1.74091e-05
1.70285e-05
1.66681e-05
1.63267e-05
1.6003e-05
1.56957e-05
1.54037e-05
1.51261e-05
1.4862e-05
1.46105e-05
1.43709e-05
1.41424e-05
1.39245e-05
1.37164e-05
1.35176e-05
1.33277e-05
1.31461e-05
1.29723e-05
1.2806e-05
1.26467e-05
1.24941e-05
1.23478e-05
1.22075e-05
1.20723e-05
1.1941e-05
1.18001e-05
0.000201954
0.000185938
0.000172577
0.000161287
0.000151637
0.000143307
0.000136057
0.000129699
0.000124086
0.000119103
0.000114655
0.000110665
0.00010707
0.000103819
0.000100868
9.8179e-05
9.57224e-05
9.34714e-05
9.14032e-05
8.94983e-05
8.77399e-05
8.61131e-05
8.46052e-05
8.32048e-05
8.1902e-05
8.06879e-05
7.95549e-05
7.84959e-05
7.75047e-05
7.65758e-05
7.57041e-05
7.48852e-05
7.4115e-05
7.33898e-05
7.27063e-05
7.20615e-05
7.14526e-05
7.0877e-05
7.03325e-05
6.98169e-05
6.93284e-05
6.88651e-05
6.84253e-05
6.80076e-05
6.76106e-05
6.7233e-05
6.68736e-05
6.65312e-05
6.62049e-05
6.58936e-05
6.55966e-05
6.53129e-05
6.50418e-05
6.47825e-05
6.45345e-05
6.4297e-05
6.40695e-05
6.38515e-05
6.36425e-05
6.34418e-05
0.000201954
0.000185938
0.000172577
0.000161287
0.000151636
0.000143307
0.000136056
0.000129698
0.000124086
0.000119103
0.000114655
0.000110665
0.00010707
0.000103819
0.000100868
9.8179e-05
9.57224e-05
9.34714e-05
9.14032e-05
8.94984e-05
8.774e-05
8.61132e-05
8.46053e-05
8.32049e-05
8.19021e-05
8.06881e-05
7.9555e-05
7.8496e-05
7.75048e-05
7.65759e-05
7.57042e-05
7.48853e-05
7.4115e-05
7.33899e-05
7.27064e-05
7.20615e-05
7.14526e-05
7.0877e-05
7.03325e-05
6.98169e-05
6.93283e-05
6.8865e-05
6.84253e-05
6.80076e-05
6.76106e-05
6.72329e-05
6.68735e-05
6.65311e-05
6.62048e-05
6.58935e-05
6.55965e-05
6.53128e-05
6.50417e-05
6.47825e-05
6.45344e-05
6.4297e-05
6.40695e-05
6.38515e-05
6.36425e-05
6.34418e-05
0.00011703
0.000100512
8.78384e-05
7.78697e-05
6.98583e-05
6.32956e-05
5.78319e-05
5.32201e-05
4.92808e-05
4.58805e-05
4.29184e-05
4.03171e-05
3.80159e-05
3.59671e-05
3.41323e-05
3.24806e-05
3.09865e-05
2.96292e-05
2.83912e-05
2.72578e-05
2.62168e-05
2.52577e-05
2.43715e-05
2.35505e-05
2.2788e-05
2.20784e-05
2.14165e-05
2.07979e-05
2.02188e-05
1.96758e-05
1.91658e-05
1.86861e-05
1.82342e-05
1.78081e-05
1.74056e-05
1.70252e-05
1.66652e-05
1.63241e-05
1.60007e-05
1.56936e-05
1.54019e-05
1.51245e-05
1.48605e-05
1.46092e-05
1.43697e-05
1.41413e-05
1.39233e-05
1.37153e-05
1.35165e-05
1.33265e-05
1.31448e-05
1.2971e-05
1.28046e-05
1.26452e-05
1.24926e-05
1.23462e-05
1.22057e-05
1.20704e-05
1.1939e-05
1.17982e-05
0.000117003
0.00010034
8.75447e-05
7.74576e-05
6.93324e-05
6.26667e-05
5.71114e-05
5.24182e-05
4.84062e-05
4.4941e-05
4.19204e-05
3.92661e-05
3.69167e-05
3.48236e-05
3.29479e-05
3.12581e-05
2.97283e-05
2.83372e-05
2.70672e-05
2.59033e-05
2.4833e-05
2.38456e-05
2.2932e-05
2.20844e-05
2.12959e-05
2.05607e-05
1.98736e-05
1.92301e-05
1.86262e-05
1.80585e-05
1.75238e-05
1.70194e-05
1.65428e-05
1.60918e-05
1.56644e-05
1.52588e-05
1.48734e-05
1.45068e-05
1.41577e-05
1.38249e-05
1.35072e-05
1.32038e-05
1.29136e-05
1.26358e-05
1.23698e-05
1.21147e-05
1.18699e-05
1.16348e-05
1.14089e-05
1.11916e-05
1.09824e-05
1.0781e-05
1.0587e-05
1.03998e-05
1.02192e-05
1.00449e-05
9.87647e-06
9.71367e-06
9.55612e-06
9.40319e-06
0.000117003
0.000100379
8.76088e-05
7.75387e-05
6.94223e-05
6.27594e-05
5.72031e-05
5.25066e-05
4.849e-05
4.50194e-05
4.19934e-05
3.93337e-05
3.69791e-05
3.4881e-05
3.30007e-05
3.13065e-05
2.97727e-05
2.8378e-05
2.71045e-05
2.59375e-05
2.48643e-05
2.38743e-05
2.29583e-05
2.21083e-05
2.13178e-05
2.05806e-05
1.98917e-05
1.92465e-05
1.86411e-05
1.80719e-05
1.75358e-05
1.70301e-05
1.65523e-05
1.61001e-05
1.56716e-05
1.5265e-05
1.48786e-05
1.45111e-05
1.4161e-05
1.38273e-05
1.35087e-05
1.32042e-05
1.29131e-05
1.26344e-05
1.23673e-05
1.21111e-05
1.18653e-05
1.16292e-05
1.14021e-05
1.11837e-05
1.09735e-05
1.07709e-05
1.05757e-05
1.03873e-05
1.02055e-05
1.00299e-05
9.86025e-06
9.69618e-06
9.53746e-06
9.38383e-06
0.000117003
0.000100379
8.76026e-05
7.75262e-05
6.94049e-05
6.27386e-05
5.71805e-05
5.24835e-05
4.84673e-05
4.49976e-05
4.19729e-05
3.93146e-05
3.69615e-05
3.48649e-05
3.2986e-05
3.12932e-05
2.97606e-05
2.8367e-05
2.70947e-05
2.59286e-05
2.48563e-05
2.38671e-05
2.29518e-05
2.21025e-05
2.13126e-05
2.05759e-05
1.98875e-05
1.92428e-05
1.86378e-05
1.80689e-05
1.75332e-05
1.70278e-05
1.65502e-05
1.60983e-05
1.567e-05
1.52636e-05
1.48775e-05
1.45101e-05
1.41602e-05
1.38266e-05
1.35081e-05
1.32038e-05
1.29127e-05
1.26341e-05
1.23671e-05
1.21111e-05
1.18653e-05
1.16292e-05
1.14023e-05
1.11839e-05
1.09737e-05
1.07712e-05
1.0576e-05
1.03877e-05
1.02059e-05
1.00303e-05
9.86068e-06
9.69663e-06
9.53793e-06
9.38431e-06
0.000117003
0.000100379
8.76026e-05
7.75263e-05
6.94049e-05
6.27386e-05
5.71806e-05
5.24835e-05
4.84673e-05
4.49977e-05
4.19729e-05
3.93146e-05
3.69615e-05
3.48649e-05
3.2986e-05
3.12932e-05
2.97607e-05
2.83671e-05
2.70947e-05
2.59286e-05
2.48564e-05
2.38671e-05
2.29518e-05
2.21026e-05
2.13126e-05
2.05759e-05
1.98875e-05
1.92428e-05
1.86378e-05
1.80689e-05
1.75332e-05
1.70278e-05
1.65502e-05
1.60983e-05
1.567e-05
1.52636e-05
1.48775e-05
1.45101e-05
1.41602e-05
1.38266e-05
1.35081e-05
1.32038e-05
1.29127e-05
1.26341e-05
1.23671e-05
1.21111e-05
1.18653e-05
1.16292e-05
1.14023e-05
1.11839e-05
1.09737e-05
1.07712e-05
1.0576e-05
1.03877e-05
1.02059e-05
1.00303e-05
9.86066e-06
9.69662e-06
9.53791e-06
9.38429e-06
0.000117003
0.000100379
8.76088e-05
7.75386e-05
6.94223e-05
6.27593e-05
5.7203e-05
5.25065e-05
4.84899e-05
4.50194e-05
4.19934e-05
3.93336e-05
3.6979e-05
3.4881e-05
3.30006e-05
3.13065e-05
2.97727e-05
2.83779e-05
2.71045e-05
2.59375e-05
2.48643e-05
2.38743e-05
2.29582e-05
2.21083e-05
2.13177e-05
2.05806e-05
1.98916e-05
1.92465e-05
1.8641e-05
1.80719e-05
1.75358e-05
1.70301e-05
1.65523e-05
1.61001e-05
1.56716e-05
1.5265e-05
1.48786e-05
1.45111e-05
1.4161e-05
1.38272e-05
1.35086e-05
1.32042e-05
1.29131e-05
1.26343e-05
1.23672e-05
1.21111e-05
1.18653e-05
1.16291e-05
1.14021e-05
1.11837e-05
1.09735e-05
1.07709e-05
1.05756e-05
1.03873e-05
1.02055e-05
1.00299e-05
9.86019e-06
9.69612e-06
9.53739e-06
9.38375e-06
0.000117003
0.00010034
8.75447e-05
7.74577e-05
6.93325e-05
6.26668e-05
5.71115e-05
5.24183e-05
4.84063e-05
4.4941e-05
4.19205e-05
3.92662e-05
3.69168e-05
3.48237e-05
3.2948e-05
3.12581e-05
2.97283e-05
2.83373e-05
2.70672e-05
2.59033e-05
2.4833e-05
2.38457e-05
2.29321e-05
2.20844e-05
2.12959e-05
2.05607e-05
1.98736e-05
1.92301e-05
1.86263e-05
1.80585e-05
1.75239e-05
1.70194e-05
1.65428e-05
1.60918e-05
1.56644e-05
1.52588e-05
1.48734e-05
1.45068e-05
1.41576e-05
1.38247e-05
1.35069e-05
1.32032e-05
1.29128e-05
1.26348e-05
1.23685e-05
1.2113e-05
1.18679e-05
1.16325e-05
1.14063e-05
1.11886e-05
1.09791e-05
1.07774e-05
1.05829e-05
1.03954e-05
1.02144e-05
1.00397e-05
9.87085e-06
9.70762e-06
9.54965e-06
9.39639e-06
0.00011703
0.000100512
8.78389e-05
7.78705e-05
6.98595e-05
6.32973e-05
5.78343e-05
5.32233e-05
4.92848e-05
4.58853e-05
4.2924e-05
4.03232e-05
3.80225e-05
3.59741e-05
3.41395e-05
3.24879e-05
3.09938e-05
2.96364e-05
2.83982e-05
2.72646e-05
2.62234e-05
2.5264e-05
2.43775e-05
2.35562e-05
2.27934e-05
2.20834e-05
2.14212e-05
2.08022e-05
2.02227e-05
1.96792e-05
1.91686e-05
1.86884e-05
1.8236e-05
1.78094e-05
1.74066e-05
1.70258e-05
1.66654e-05
1.63241e-05
1.60004e-05
1.56932e-05
1.54014e-05
1.51241e-05
1.48602e-05
1.46089e-05
1.43696e-05
1.41413e-05
1.39236e-05
1.37156e-05
1.3517e-05
1.33272e-05
1.31456e-05
1.2972e-05
1.28058e-05
1.26466e-05
1.24941e-05
1.23479e-05
1.22076e-05
1.20725e-05
1.19413e-05
1.18004e-05
0.000201955
0.000185938
0.000172577
0.000161287
0.000151636
0.000143307
0.000136056
0.000129698
0.000124086
0.000119103
0.000114654
0.000110665
0.00010707
0.000103819
0.000100867
9.81788e-05
9.57222e-05
9.34712e-05
9.1403e-05
8.94982e-05
8.77397e-05
8.6113e-05
8.46051e-05
8.32047e-05
8.19018e-05
8.06878e-05
7.95548e-05
7.84957e-05
7.75045e-05
7.65756e-05
7.57039e-05
7.4885e-05
7.41147e-05
7.33895e-05
7.2706e-05
7.20612e-05
7.14522e-05
7.08766e-05
7.03321e-05
6.98165e-05
6.93279e-05
6.88646e-05
6.84248e-05
6.80071e-05
6.76101e-05
6.72325e-05
6.6873e-05
6.65306e-05
6.62043e-05
6.5893e-05
6.5596e-05
6.53122e-05
6.50411e-05
6.47819e-05
6.45338e-05
6.42964e-05
6.40689e-05
6.38508e-05
6.36418e-05
6.34411e-05
)
;

boundaryField
{
    wall
    {
        type            nutkWallFunction;
        Cmu             0.09;
        kappa           0.41;
        E               9.8;
        value           nonuniform List<scalar> 
1200
(
1.45301e-05
1.35454e-05
1.35424e-05
1.35424e-05
1.35424e-05
1.35424e-05
1.35424e-05
1.35424e-05
1.35454e-05
1.453e-05
1.34572e-05
1.17545e-05
1.17357e-05
1.174e-05
1.174e-05
1.174e-05
1.174e-05
1.17357e-05
1.17545e-05
1.34572e-05
1.25548e-05
1.03592e-05
1.03265e-05
1.03337e-05
1.0333e-05
1.0333e-05
1.03337e-05
1.03265e-05
1.03592e-05
1.25548e-05
1.17865e-05
9.24632e-06
9.19991e-06
9.20905e-06
9.20764e-06
9.20765e-06
9.20904e-06
9.19993e-06
9.24637e-06
1.17865e-05
1.11252e-05
8.34057e-06
8.28069e-06
8.29094e-06
8.28894e-06
8.28895e-06
8.29093e-06
8.2807e-06
8.34065e-06
1.11252e-05
1.05507e-05
7.58998e-06
7.51762e-06
7.52831e-06
7.5259e-06
7.52591e-06
7.5283e-06
7.51763e-06
7.59011e-06
1.05507e-05
1.00477e-05
6.95844e-06
6.8747e-06
6.88538e-06
6.88274e-06
6.88275e-06
6.88537e-06
6.87471e-06
6.95862e-06
1.00477e-05
9.60424e-06
6.42013e-06
6.32601e-06
6.3364e-06
6.33368e-06
6.33369e-06
6.33639e-06
6.32602e-06
6.42037e-06
9.6042e-06
9.2108e-06
5.9561e-06
5.8525e-06
5.86243e-06
5.85973e-06
5.85974e-06
5.86242e-06
5.85251e-06
5.95641e-06
9.21076e-06
8.85982e-06
5.55214e-06
5.43985e-06
5.44924e-06
5.44663e-06
5.44663e-06
5.44923e-06
5.43986e-06
5.55253e-06
8.85977e-06
8.54514e-06
5.19741e-06
5.07713e-06
5.08593e-06
5.08346e-06
5.08346e-06
5.08592e-06
5.07714e-06
5.19788e-06
8.5451e-06
8.26174e-06
4.88351e-06
4.75586e-06
4.76407e-06
4.76174e-06
4.76175e-06
4.76406e-06
4.75586e-06
4.88405e-06
8.2617e-06
8.00545e-06
4.60383e-06
4.46935e-06
4.47697e-06
4.47481e-06
4.47482e-06
4.47696e-06
4.46935e-06
4.60445e-06
8.0054e-06
7.7728e-06
4.35312e-06
4.21226e-06
4.21932e-06
4.21734e-06
4.21734e-06
4.21932e-06
4.21226e-06
4.35381e-06
7.77276e-06
7.56089e-06
4.12713e-06
3.9803e-06
3.98683e-06
3.98501e-06
3.98501e-06
3.98682e-06
3.9803e-06
4.12789e-06
7.56085e-06
7.36725e-06
3.92242e-06
3.76995e-06
3.77599e-06
3.77432e-06
3.77433e-06
3.77598e-06
3.76995e-06
3.92324e-06
7.36721e-06
7.1898e-06
3.73614e-06
3.57834e-06
3.58391e-06
3.58239e-06
3.5824e-06
3.5839e-06
3.57834e-06
3.73701e-06
7.18977e-06
7.02675e-06
3.56595e-06
3.40306e-06
3.4082e-06
3.40682e-06
3.40682e-06
3.40819e-06
3.40306e-06
3.56686e-06
7.02671e-06
6.87654e-06
3.40988e-06
3.24211e-06
3.24684e-06
3.24559e-06
3.24559e-06
3.24683e-06
3.2421e-06
3.41081e-06
6.87651e-06
6.73786e-06
3.26626e-06
3.09379e-06
3.09815e-06
3.09701e-06
3.09701e-06
3.09814e-06
3.09378e-06
3.26722e-06
6.73783e-06
6.60954e-06
3.13369e-06
2.95666e-06
2.96068e-06
2.95965e-06
2.95965e-06
2.96067e-06
2.95666e-06
3.13466e-06
6.60951e-06
6.49057e-06
3.01097e-06
2.82951e-06
2.8332e-06
2.83228e-06
2.83228e-06
2.8332e-06
2.82951e-06
3.01195e-06
6.49054e-06
6.38005e-06
2.89707e-06
2.71128e-06
2.71467e-06
2.71383e-06
2.71383e-06
2.71466e-06
2.71127e-06
2.89805e-06
6.38003e-06
6.27722e-06
2.7911e-06
2.60105e-06
2.60416e-06
2.6034e-06
2.6034e-06
2.60415e-06
2.60104e-06
2.79207e-06
6.27719e-06
6.18138e-06
2.69228e-06
2.49803e-06
2.50088e-06
2.5002e-06
2.5002e-06
2.50087e-06
2.49803e-06
2.69324e-06
6.18135e-06
6.0919e-06
2.59993e-06
2.40154e-06
2.40414e-06
2.40353e-06
2.40353e-06
2.40414e-06
2.40153e-06
2.60089e-06
6.09188e-06
6.00826e-06
2.51347e-06
2.31096e-06
2.31334e-06
2.31279e-06
2.31279e-06
2.31333e-06
2.31096e-06
2.51441e-06
6.00824e-06
5.92996e-06
2.43237e-06
2.22577e-06
2.22794e-06
2.22745e-06
2.22745e-06
2.22793e-06
2.22577e-06
2.4333e-06
5.92993e-06
5.85656e-06
2.35617e-06
2.1455e-06
2.14746e-06
2.14703e-06
2.14702e-06
2.14746e-06
2.14549e-06
2.35709e-06
5.85654e-06
5.78767e-06
2.28446e-06
2.06973e-06
2.0715e-06
2.07111e-06
2.07111e-06
2.07149e-06
2.06972e-06
2.28537e-06
5.78765e-06
5.72295e-06
2.21688e-06
1.99808e-06
1.99967e-06
1.99933e-06
1.99932e-06
1.99967e-06
1.99807e-06
2.21778e-06
5.72293e-06
5.66206e-06
2.15309e-06
1.93023e-06
1.93165e-06
1.93135e-06
1.93134e-06
1.93165e-06
1.93022e-06
2.15399e-06
5.66204e-06
5.60472e-06
2.09282e-06
1.86588e-06
1.86714e-06
1.86687e-06
1.86687e-06
1.86714e-06
1.86587e-06
2.09371e-06
5.6047e-06
5.55067e-06
2.0358e-06
1.80476e-06
1.80587e-06
1.80563e-06
1.80563e-06
1.80587e-06
1.80475e-06
2.03668e-06
5.55065e-06
5.49967e-06
1.98179e-06
1.74663e-06
1.7476e-06
1.74739e-06
1.74739e-06
1.74759e-06
1.74662e-06
1.98265e-06
5.49966e-06
5.45151e-06
1.93057e-06
1.69128e-06
1.69211e-06
1.69193e-06
1.69193e-06
1.69211e-06
1.69127e-06
1.93142e-06
5.45149e-06
5.40598e-06
1.88197e-06
1.63851e-06
1.63921e-06
1.63905e-06
1.63905e-06
1.6392e-06
1.6385e-06
1.8828e-06
5.40596e-06
5.3629e-06
1.8358e-06
1.58814e-06
1.58871e-06
1.58858e-06
1.58858e-06
1.58871e-06
1.58813e-06
1.8366e-06
5.36289e-06
5.32211e-06
1.79189e-06
1.54001e-06
1.54046e-06
1.54035e-06
1.54035e-06
1.54046e-06
1.54e-06
1.79267e-06
5.3221e-06
5.28346e-06
1.75011e-06
1.49399e-06
1.49431e-06
1.49422e-06
1.49421e-06
1.4943e-06
1.49396e-06
1.75087e-06
5.28344e-06
5.2468e-06
1.71031e-06
1.44993e-06
1.45011e-06
1.45004e-06
1.45003e-06
1.45011e-06
1.44987e-06
1.71106e-06
5.24678e-06
5.212e-06
1.67238e-06
1.4077e-06
1.40776e-06
1.4077e-06
1.40769e-06
1.40775e-06
1.40762e-06
1.67311e-06
5.21199e-06
5.17895e-06
1.6362e-06
1.3672e-06
1.36712e-06
1.36708e-06
1.36707e-06
1.36712e-06
1.36709e-06
1.63692e-06
5.17894e-06
5.14754e-06
1.60167e-06
1.32833e-06
1.32811e-06
1.32808e-06
1.32807e-06
1.3281e-06
1.32818e-06
1.60238e-06
5.14752e-06
5.11766e-06
1.56869e-06
1.29098e-06
1.29061e-06
1.2906e-06
1.29059e-06
1.29061e-06
1.29079e-06
1.5694e-06
5.11764e-06
5.08922e-06
1.53717e-06
1.25506e-06
1.25456e-06
1.25455e-06
1.25455e-06
1.25455e-06
1.25482e-06
1.53788e-06
5.0892e-06
5.06213e-06
1.50704e-06
1.22051e-06
1.21985e-06
1.21985e-06
1.21985e-06
1.21984e-06
1.22022e-06
1.50775e-06
5.06211e-06
5.03631e-06
1.47821e-06
1.18723e-06
1.18642e-06
1.18643e-06
1.18643e-06
1.18641e-06
1.18689e-06
1.47893e-06
5.03629e-06
5.01169e-06
1.45062e-06
1.15516e-06
1.1542e-06
1.15422e-06
1.15421e-06
1.15419e-06
1.15477e-06
1.45135e-06
5.01167e-06
4.98819e-06
1.4242e-06
1.12424e-06
1.12311e-06
1.12314e-06
1.12314e-06
1.1231e-06
1.1238e-06
1.42494e-06
4.98817e-06
4.96575e-06
1.39888e-06
1.0944e-06
1.09311e-06
1.09315e-06
1.09314e-06
1.0931e-06
1.09391e-06
1.39963e-06
4.96573e-06
4.94431e-06
1.37462e-06
1.0656e-06
1.06413e-06
1.06418e-06
1.06417e-06
1.06412e-06
1.06505e-06
1.37538e-06
4.94429e-06
4.92381e-06
1.35135e-06
1.03776e-06
1.03613e-06
1.03618e-06
1.03617e-06
1.03612e-06
1.03716e-06
1.35213e-06
4.92379e-06
4.9042e-06
1.32903e-06
1.01086e-06
1.00905e-06
1.0091e-06
1.00909e-06
1.00903e-06
1.0102e-06
1.32983e-06
4.90418e-06
4.88543e-06
1.3076e-06
9.84839e-07
9.82841e-07
9.82899e-07
9.82894e-07
9.82827e-07
9.84114e-07
1.30842e-06
4.8854e-06
4.86745e-06
1.28703e-06
9.59657e-07
9.57472e-07
9.57533e-07
9.57528e-07
9.57456e-07
9.58871e-07
1.28787e-06
4.86742e-06
4.85022e-06
1.26725e-06
9.35274e-07
9.32897e-07
9.32962e-07
9.32957e-07
9.32881e-07
9.34424e-07
1.26812e-06
4.85019e-06
4.8337e-06
1.24819e-06
9.11649e-07
9.09081e-07
9.09148e-07
9.09143e-07
9.09063e-07
9.10734e-07
1.24907e-06
4.83366e-06
4.81786e-06
1.22963e-06
8.88736e-07
8.85987e-07
8.86056e-07
8.86051e-07
8.85967e-07
8.87753e-07
1.23053e-06
4.81782e-06
4.80263e-06
1.20977e-06
8.66444e-07
8.63583e-07
8.63654e-07
8.63648e-07
8.63562e-07
8.65411e-07
1.21062e-06
4.8026e-06
1.45301e-05
1.35454e-05
1.35424e-05
1.35424e-05
1.35424e-05
1.35424e-05
1.35424e-05
1.35424e-05
1.35454e-05
1.45301e-05
1.34572e-05
1.17545e-05
1.17357e-05
1.174e-05
1.174e-05
1.174e-05
1.174e-05
1.17357e-05
1.17545e-05
1.34572e-05
1.25548e-05
1.03591e-05
1.03266e-05
1.03337e-05
1.0333e-05
1.0333e-05
1.03337e-05
1.03266e-05
1.03592e-05
1.25548e-05
1.17864e-05
9.24627e-06
9.19994e-06
9.20905e-06
9.20765e-06
9.20765e-06
9.20905e-06
9.19994e-06
9.24636e-06
1.17864e-05
1.11251e-05
8.34055e-06
8.2807e-06
8.29093e-06
8.28895e-06
8.28896e-06
8.29093e-06
8.28071e-06
8.34068e-06
1.11251e-05
1.05507e-05
7.59e-06
7.51763e-06
7.5283e-06
7.52591e-06
7.52591e-06
7.52829e-06
7.51764e-06
7.5902e-06
1.05506e-05
1.00477e-05
6.95847e-06
6.8747e-06
6.88537e-06
6.88274e-06
6.88275e-06
6.88536e-06
6.87471e-06
6.95875e-06
1.00476e-05
9.60418e-06
6.42015e-06
6.32601e-06
6.33639e-06
6.33368e-06
6.33368e-06
6.33638e-06
6.32602e-06
6.42052e-06
9.60417e-06
9.21074e-06
5.95609e-06
5.85249e-06
5.86242e-06
5.85972e-06
5.85973e-06
5.86241e-06
5.8525e-06
5.95656e-06
9.21073e-06
8.85976e-06
5.55208e-06
5.43984e-06
5.44922e-06
5.44661e-06
5.44662e-06
5.44921e-06
5.43985e-06
5.55265e-06
8.85975e-06
8.54509e-06
5.19729e-06
5.07712e-06
5.08592e-06
5.08344e-06
5.08345e-06
5.08591e-06
5.07713e-06
5.19796e-06
8.54508e-06
8.26169e-06
4.88334e-06
4.75584e-06
4.76405e-06
4.76173e-06
4.76174e-06
4.76404e-06
4.75585e-06
4.88409e-06
8.26168e-06
8.0054e-06
4.60363e-06
4.46932e-06
4.47696e-06
4.4748e-06
4.47481e-06
4.47695e-06
4.46933e-06
4.60445e-06
8.00539e-06
7.77276e-06
4.35291e-06
4.21223e-06
4.21931e-06
4.21732e-06
4.21733e-06
4.2193e-06
4.21224e-06
4.35377e-06
7.77274e-06
7.56085e-06
4.12693e-06
3.98027e-06
3.98682e-06
3.985e-06
3.985e-06
3.98681e-06
3.98028e-06
4.12781e-06
7.56083e-06
7.36721e-06
3.92224e-06
3.76993e-06
3.77598e-06
3.77431e-06
3.77432e-06
3.77597e-06
3.76994e-06
3.92314e-06
7.3672e-06
7.18977e-06
3.736e-06
3.57831e-06
3.5839e-06
3.58238e-06
3.58239e-06
3.58389e-06
3.57832e-06
3.73691e-06
7.18975e-06
7.02671e-06
3.56587e-06
3.40303e-06
3.40819e-06
3.40681e-06
3.40681e-06
3.40818e-06
3.40304e-06
3.56677e-06
7.0267e-06
6.87651e-06
3.40986e-06
3.24208e-06
3.24683e-06
3.24558e-06
3.24558e-06
3.24682e-06
3.24209e-06
3.41074e-06
6.8765e-06
6.73783e-06
3.2663e-06
3.09376e-06
3.09814e-06
3.097e-06
3.097e-06
3.09813e-06
3.09377e-06
3.26717e-06
6.73782e-06
6.60952e-06
3.1338e-06
2.95664e-06
2.96067e-06
2.95964e-06
2.95964e-06
2.96066e-06
2.95665e-06
3.13464e-06
6.6095e-06
6.49055e-06
3.01114e-06
2.82949e-06
2.83319e-06
2.83227e-06
2.83227e-06
2.83319e-06
2.8295e-06
3.01195e-06
6.49053e-06
6.38004e-06
2.89729e-06
2.71126e-06
2.71466e-06
2.71382e-06
2.71382e-06
2.71465e-06
2.71126e-06
2.89807e-06
6.38002e-06
6.2772e-06
2.79136e-06
2.60103e-06
2.60415e-06
2.60339e-06
2.60339e-06
2.60414e-06
2.60103e-06
2.7921e-06
6.27719e-06
6.18136e-06
2.69257e-06
2.49801e-06
2.50087e-06
2.50019e-06
2.50019e-06
2.50087e-06
2.49801e-06
2.69327e-06
6.18134e-06
6.09189e-06
2.60024e-06
2.40152e-06
2.40413e-06
2.40352e-06
2.40352e-06
2.40413e-06
2.40152e-06
2.6009e-06
6.09187e-06
6.00825e-06
2.51379e-06
2.31094e-06
2.31333e-06
2.31278e-06
2.31278e-06
2.31333e-06
2.31095e-06
2.51441e-06
6.00823e-06
5.92994e-06
2.4327e-06
2.22575e-06
2.22793e-06
2.22744e-06
2.22744e-06
2.22793e-06
2.22576e-06
2.43326e-06
5.92992e-06
5.85655e-06
2.3565e-06
2.14548e-06
2.14746e-06
2.14701e-06
2.14701e-06
2.14745e-06
2.14548e-06
2.35701e-06
5.85653e-06
5.78766e-06
2.2848e-06
2.0697e-06
2.07149e-06
2.0711e-06
2.0711e-06
2.07149e-06
2.06971e-06
2.28524e-06
5.78764e-06
5.72293e-06
2.21722e-06
1.99806e-06
1.99967e-06
1.99931e-06
1.99931e-06
1.99966e-06
1.99806e-06
2.2176e-06
5.72291e-06
5.66204e-06
2.15345e-06
1.9302e-06
1.93165e-06
1.93133e-06
1.93133e-06
1.93164e-06
1.93021e-06
2.15376e-06
5.66202e-06
5.60471e-06
2.09319e-06
1.86585e-06
1.86713e-06
1.86686e-06
1.86686e-06
1.86713e-06
1.86585e-06
2.09343e-06
5.60468e-06
5.55066e-06
2.03618e-06
1.80473e-06
1.80586e-06
1.80562e-06
1.80562e-06
1.80586e-06
1.80473e-06
2.03636e-06
5.55063e-06
5.49966e-06
1.98218e-06
1.74661e-06
1.74759e-06
1.74738e-06
1.74738e-06
1.74759e-06
1.74661e-06
1.98231e-06
5.49963e-06
5.45149e-06
1.93099e-06
1.69126e-06
1.6921e-06
1.69192e-06
1.69192e-06
1.6921e-06
1.69125e-06
1.93106e-06
5.45147e-06
5.40596e-06
1.8824e-06
1.63848e-06
1.6392e-06
1.63904e-06
1.63904e-06
1.6392e-06
1.63848e-06
1.88243e-06
5.40594e-06
5.36288e-06
1.83625e-06
1.58811e-06
1.5887e-06
1.58857e-06
1.58857e-06
1.5887e-06
1.58811e-06
1.83624e-06
5.36286e-06
5.32209e-06
1.79236e-06
1.53999e-06
1.54045e-06
1.54034e-06
1.54033e-06
1.54045e-06
1.53998e-06
1.79232e-06
5.32207e-06
5.28344e-06
1.75059e-06
1.49396e-06
1.4943e-06
1.4942e-06
1.4942e-06
1.49429e-06
1.49394e-06
1.75053e-06
5.28341e-06
5.24678e-06
1.71081e-06
1.4499e-06
1.4501e-06
1.45002e-06
1.45002e-06
1.4501e-06
1.44986e-06
1.71074e-06
5.24675e-06
5.21198e-06
1.67289e-06
1.40768e-06
1.40774e-06
1.40768e-06
1.40768e-06
1.40774e-06
1.40761e-06
1.67283e-06
5.21195e-06
5.17893e-06
1.63672e-06
1.36718e-06
1.36711e-06
1.36706e-06
1.36706e-06
1.36711e-06
1.36708e-06
1.63667e-06
5.1789e-06
5.14752e-06
1.6022e-06
1.3283e-06
1.32809e-06
1.32806e-06
1.32806e-06
1.32809e-06
1.32816e-06
1.60216e-06
5.14748e-06
5.11763e-06
1.56923e-06
1.29095e-06
1.2906e-06
1.29058e-06
1.29058e-06
1.2906e-06
1.29077e-06
1.56922e-06
5.1176e-06
5.08919e-06
1.53772e-06
1.25504e-06
1.25454e-06
1.25453e-06
1.25453e-06
1.25454e-06
1.25481e-06
1.53773e-06
5.08916e-06
5.0621e-06
1.5076e-06
1.22048e-06
1.21983e-06
1.21984e-06
1.21983e-06
1.21983e-06
1.22021e-06
1.50763e-06
5.06207e-06
5.03628e-06
1.47878e-06
1.1872e-06
1.1864e-06
1.18641e-06
1.18641e-06
1.1864e-06
1.18688e-06
1.47883e-06
5.03625e-06
5.01166e-06
1.45119e-06
1.15513e-06
1.15418e-06
1.1542e-06
1.1542e-06
1.15417e-06
1.15476e-06
1.45126e-06
5.01162e-06
4.98816e-06
1.42477e-06
1.12421e-06
1.1231e-06
1.12312e-06
1.12312e-06
1.12309e-06
1.12379e-06
1.42487e-06
4.98812e-06
4.96572e-06
1.39946e-06
1.09437e-06
1.09309e-06
1.09313e-06
1.09312e-06
1.09309e-06
1.0939e-06
1.39958e-06
4.96568e-06
4.94428e-06
1.3752e-06
1.06556e-06
1.06411e-06
1.06415e-06
1.06415e-06
1.06411e-06
1.06504e-06
1.37534e-06
4.94424e-06
4.92378e-06
1.35194e-06
1.03773e-06
1.03611e-06
1.03615e-06
1.03615e-06
1.0361e-06
1.03715e-06
1.3521e-06
4.92374e-06
4.90417e-06
1.32962e-06
1.01082e-06
1.00903e-06
1.00908e-06
1.00907e-06
1.00902e-06
1.01019e-06
1.32981e-06
4.90413e-06
4.8854e-06
1.30821e-06
9.84798e-07
9.8282e-07
9.82876e-07
9.82873e-07
9.82813e-07
9.84104e-07
1.30842e-06
4.88535e-06
4.86742e-06
1.28764e-06
9.59613e-07
9.5745e-07
9.57509e-07
9.57507e-07
9.57442e-07
9.5886e-07
1.28788e-06
4.86737e-06
4.85019e-06
1.26787e-06
9.35227e-07
9.32875e-07
9.32937e-07
9.32935e-07
9.32866e-07
9.34412e-07
1.26814e-06
4.85014e-06
4.83367e-06
1.24881e-06
9.11598e-07
9.09057e-07
9.09123e-07
9.0912e-07
9.09048e-07
9.1072e-07
1.2491e-06
4.83361e-06
4.81782e-06
1.23025e-06
8.88681e-07
8.85962e-07
8.8603e-07
8.86028e-07
8.85952e-07
8.87738e-07
1.23057e-06
4.81776e-06
4.8026e-06
1.21035e-06
8.66384e-07
8.63557e-07
8.63627e-07
8.63625e-07
8.63546e-07
8.65391e-07
1.21066e-06
4.80254e-06
)
;
    }
    inlet
    {
        type            calculated;
        value           uniform 0.00952565;
    }
    outlet
    {
        type            calculated;
        value           nonuniform List<scalar> 
20
(
6.34423e-05
1.17941e-05
9.4036e-06
9.384e-06
9.38449e-06
9.38445e-06
9.38386e-06
9.39653e-06
1.18001e-05
6.34418e-05
6.34418e-05
1.17982e-05
9.40319e-06
9.38383e-06
9.38431e-06
9.38429e-06
9.38375e-06
9.39639e-06
1.18004e-05
6.34411e-05
)
;
    }
    heatWall
    {
        type            nutkWallFunction;
        Cmu             0.09;
        kappa           0.41;