/*--------------------------------*- C++ -*----------------------------------*\
  =========                 |
  \\      /  F ield         | OpenFOAM: The Open Source CFD Toolbox
   \\    /   O peration     | Website:  https://openfoam.org
    \\  /    A nd           | Version:  8
     \\/     M anipulation  |
\*---------------------------------------------------------------------------*/
FoamFile
{
    version     2.0;
    format      ascii;
    class       volScalarField;
    location    "500";
    object      p;
}
// * * * * * * * * * * * * * * * * * * * * * * * * * * * * * * * * * * * * * //

dimensions      [1 -1 -2 0 0 0 0];

internalField   nonuniform List<scalar> 
1200
(
475.36
267.612
179.648
149.232
128.964
112.031
98.36
86.9388
76.9846
68.1413
60.1677
52.9251
46.3298
40.2878
34.7182
29.5509
24.7373
20.247
16.0339
12.0534
8.28151
4.70474
1.29726
-1.97572
-5.12695
-8.16205
-11.1033
-13.9673
-16.7579
-19.4856
-22.1632
-24.7969
-27.3937
-29.9625
-32.5083
-35.0346
-37.5438
-40.0407
-42.533
-45.0227
-47.5098
-49.999
-52.4927
-54.9894
-57.4892
-59.9976
-62.5194
-65.0552
-67.6003
-70.1555
-72.7288
-75.3158
-77.9197
-80.5409
-83.1728
-85.8193
-88.4905
-91.2131
-94.0234
-97.5957
-162.037
-136.567
-130.211
-124.363
-123.439
-126.312
-130.606
-135.424
-140.444
-145.454
-150.363
-155.108
-159.644
-163.97
-168.099
-172.047
-175.827
-179.44
-182.907
-186.249
-189.474
-192.585
-195.597
-198.53
-201.39
-204.177
-206.907
-209.591
-212.229
-214.827
-217.396
-219.938
-222.457
-224.961
-227.452
-229.933
-232.404
-234.87
-237.338
-239.809
-242.282
-244.761
-247.247
-249.738
-252.234
-254.741
-257.262
-259.798
-262.344
-264.901
-267.476
-270.066
-272.673
-275.298
-277.934
-280.584
-283.256
-285.963
-288.72
-291.632
-285.79
-228.109
-221.531
-234.744
-249.909
-264.66
-278.508
-291.17
-302.603
-312.889
-322.192
-330.635
-338.299
-345.277
-351.658
-357.524
-362.938
-367.951
-372.613
-376.972
-381.062
-384.912
-388.556
-392.025
-395.336
-398.506
-401.562
-404.518
-407.383
-410.174
-412.904
-415.579
-418.209
-420.803
-423.368
-425.909
-428.429
-430.934
-433.432
-435.925
-438.413
-440.903
-443.396
-445.89
-448.387
-450.892
-453.41
-455.941
-458.48
-461.03
-463.595
-466.175
-468.772
-471.384
-474.01
-476.649
-479.303
-481.973
-484.633
-487.117
-480.477
-458.164
-464.787
-482.486
-496.398
-506.767
-515.466
-523.017
-529.624
-535.521
-540.912
-545.91
-550.574
-554.958
-559.102
-563.042
-566.803
-570.404
-573.86
-577.183
-580.387
-583.483
-586.485
-589.406
-592.249
-595.022
-597.741
-600.409
-603.032
-605.62
-608.178
-610.709
-613.219
-615.714
-618.196
-620.669
-623.135
-625.596
-628.058
-630.521
-632.983
-635.453
-637.929
-640.41
-642.898
-645.396
-647.91
-650.437
-652.975
-655.526
-658.092
-660.675
-663.275
-665.889
-668.519
-671.162
-673.815
-676.472
-679.094
-681.474
-672.051
-652.667
-649.136
-658.554
-668.677
-678.126
-687.739
-697.181
-706.05
-714.254
-721.834
-728.832
-735.291
-741.26
-746.786
-751.923
-756.717
-761.207
-765.425
-769.398
-773.155
-776.725
-780.131
-783.394
-786.525
-789.544
-792.47
-795.311
-798.079
-800.79
-803.45
-806.064
-808.644
-811.196
-813.725
-816.235
-818.73
-821.216
-823.698
-826.174
-828.648
-831.127
-833.609
-836.094
-838.586
-841.087
-843.601
-846.128
-848.664
-851.214
-853.777
-856.358
-858.954
-861.563
-864.19
-866.829
-869.475
-872.116
-874.699
-876.967
-867.224
-847.846
-844.323
-853.755
-863.889
-873.344
-882.964
-892.399
-901.256
-909.458
-917.031
-924.016
-930.464
-936.426
-941.946
-947.077
-951.866
-956.353
-960.568
-964.538
-968.294
-971.864
-975.27
-978.532
-981.664
-984.686
-987.613
-990.455
-993.226
-995.94
-998.602
-1001.22
-1003.8
-1006.35
-1008.88
-1011.39
-1013.89
-1016.38
-1018.86
-1021.34
-1023.82
-1026.3
-1028.78
-1031.26
-1033.76
-1036.26
-1038.77
-1041.29
-1043.83
-1046.37
-1048.93
-1051.51
-1054.1
-1056.71
-1059.33
-1061.97
-1064.61
-1067.25
-1069.84
-1072.11
-1065.99
-1043.68
-1050.28
-1067.97
-1081.88
-1092.25
-1100.96
-1108.5
-1115.12
-1121.04
-1126.44
-1131.43
-1136.1
-1140.49
-1144.64
-1148.59
-1152.35
-1155.96
-1159.41
-1162.73
-1165.93
-1169.03
-1172.03
-1174.95
-1177.79
-1180.57
-1183.29
-1185.95
-1188.58
-1191.16
-1193.72
-1196.25
-1198.76
-1201.25
-1203.73
-1206.2
-1208.67
-1211.13
-1213.6
-1216.06
-1218.52
-1221
-1223.47
-1225.96
-1228.45
-1230.95
-1233.47
-1235.99
-1238.53
-1241.08
-1243.65
-1246.23
-1248.83
-1251.45
-1254.08
-1256.72
-1259.38
-1262.04
-1264.66
-1267.04
-1261.67
-1204.06
-1197.5
-1210.7
-1225.85
-1240.61
-1254.46
-1267.06
-1278.45
-1288.74
-1298.03
-1306.45
-1314.1
-1321.08
-1327.46
-1333.34
-1338.75
-1343.77
-1348.44
-1352.8
-1356.89
-1360.74
-1364.39
-1367.86
-1371.17
-1374.35
-1377.41
-1380.36
-1383.23
-1386.03
-1388.76
-1391.43
-1394.07
-1396.66
-1399.23
-1401.77
-1404.29
-1406.8
-1409.3
-1411.79
-1414.28
-1416.77
-1419.26
-1421.75
-1424.24
-1426.75
-1429.27
-1431.79
-1434.33
-1436.88
-1439.44
-1442.02
-1444.61
-1447.22
-1449.85
-1452.49
-1455.15
-1457.82
-1460.48
-1462.97
-1528.21
-1502.74
-1496.44
-1490.57
-1489.66
-1492.57
-1496.87
-1501.66
-1506.67
-1511.72
-1516.62
-1521.35
-1525.89
-1530.22
-1534.35
-1538.3
-1542.07
-1545.69
-1549.15
-1552.49
-1555.7
-1558.81
-1561.82
-1564.75
-1567.6
-1570.39
-1573.12
-1575.8
-1578.43
-1581.04
-1583.61
-1586.15
-1588.67
-1591.18
-1593.67
-1596.15
-1598.62
-1601.09
-1603.56
-1606.03
-1608.5
-1610.98
-1613.46
-1615.95
-1618.45
-1620.95
-1623.48
-1626.01
-1628.55
-1631.11
-1633.69
-1636.27
-1638.88
-1641.5
-1644.14
-1646.79
-1649.47
-1652.18
-1654.94
-1657.86
-1281.4
-1488.85
-1576.91
-1607.33
-1627.57
-1644.55
-1658.22
-1669.59
-1679.52
-1688.39
-1696.35
-1703.56
-1710.16
-1716.21
-1721.79
-1726.96
-1731.78
-1736.27
-1740.49
-1744.47
-1748.23
-1751.81
-1755.22
-1758.49
-1761.64
-1764.68
-1767.62
-1770.48
-1773.27
-1776
-1778.68
-1781.32
-1783.92
-1786.49
-1789.04
-1791.56
-1794.07
-1796.58
-1799.07
-1801.56
-1804.05
-1806.54
-1809.03
-1811.53
-1814.03
-1816.54
-1819.06
-1821.59
-1824.13
-1826.69
-1829.26
-1831.85
-1834.45
-1837.07
-1839.7
-1842.35
-1845.03
-1847.75
-1850.57
-1854.16
474.69
267.417
179.487
149.233
129.082
112.057
98.312
86.9288
77.0124
68.1614
60.221
53.0374
46.4649
40.4169
34.8295
29.6529
24.835
20.3191
16.0745
12.0809
8.3064
4.71475
1.28606
-1.98735
-5.13013
-8.16896
-11.1105
-13.9646
-16.7505
-19.4783
-22.1537
-24.7868
-27.3848
-29.952
-32.4944
-35.0187
-37.5312
-40.0347
-42.5279
-45.0146
-47.5009
-49.9871
-52.4749
-54.9692
-57.4735
-59.9861
-62.5053
-65.0331
-67.5756
-70.1346
-72.7044
-75.2902
-77.8894
-80.5025
-83.1369
-85.7921
-88.4676
-91.1783
-93.9781
-97.553
-162.177
-136.743
-130.495
-124.492
-123.439
-126.327
-130.651
-135.44
-140.44
-145.475
-150.376
-155.082
-159.604
-163.938
-168.081
-172.035
-175.815
-179.444
-182.93
-186.278
-189.502
-192.624
-195.651
-198.583
-201.438
-204.231
-206.964
-209.641
-212.278
-214.879
-217.447
-219.99
-222.511
-225.014
-227.503
-229.983
-232.458
-234.931
-237.4
-239.869
-242.343
-244.82
-247.302
-249.792
-252.293
-254.805
-257.324
-259.852
-262.396
-264.957
-267.531
-270.12
-272.723
-275.341
-277.978
-280.636
-283.311
-286.008
-288.753
-291.657
-285.934
-228.431
-222.013
-235.189
-250.207
-264.861
-278.655
-291.242
-302.617
-312.902
-322.192
-330.597
-338.243
-345.225
-351.62
-357.495
-362.912
-367.934
-372.606
-376.969
-381.062
-384.922
-388.575
-392.042
-395.353
-398.532
-401.591
-404.545
-407.415
-410.209
-412.939
-415.616
-418.248
-420.843
-423.406
-425.945
-428.467
-430.976
-433.473
-435.963
-438.453
-440.94
-443.427
-445.92
-448.421
-450.929
-453.443
-455.966
-458.503
-461.055
-463.62
-466.199
-468.792
-471.399
-474.025
-476.668
-479.325
-481.987
-484.636
-487.114
-480.572
-458.232
-464.925
-482.642
-496.468
-506.749
-515.408
-522.93
-529.525
-535.451
-540.862
-545.862
-550.535
-554.938
-559.106
-563.063
-566.831
-570.432
-573.884
-577.205
-580.408
-583.506
-586.506
-589.419
-592.261
-595.041
-597.76
-600.43
-603.059
-605.65
-608.209
-610.744
-613.258
-615.753
-618.236
-620.708
-623.175
-625.639
-628.098
-630.558
-633.023
-635.489
-637.961
-640.441
-642.931
-645.431
-647.94
-650.459
-652.995
-655.547
-658.115
-660.696
-663.292
-665.905
-668.533
-671.178
-673.834
-676.485
-679.096
-681.473
-672.134
-652.716
-649.318
-658.842
-668.924
-678.248
-687.763
-697.14
-705.973
-714.182
-721.779
-728.793
-735.266
-741.25
-746.798
-751.95
-756.748
-761.23
-765.437
-769.406
-773.163
-776.73
-780.129
-783.383
-786.514
-789.537
-792.463
-795.308
-798.084
-800.797
-803.459
-806.081
-808.666
-811.219
-813.75
-816.262
-818.76
-821.247
-823.724
-826.199
-828.675
-831.15
-833.628
-836.113
-838.604
-841.105
-843.613
-846.132
-848.668
-851.218
-853.784
-856.362
-858.955
-861.567
-864.19
-866.83
-869.478
-872.114
-874.687
-876.955
-867.297
-847.881
-844.489
-854.019
-864.108
-873.438
-882.954
-892.339
-901.174
-909.373
-916.964
-923.977
-930.446
-936.424
-941.967
-947.115
-951.908
-956.387
-960.592
-964.56
-968.316
-971.882
-975.281
-978.536
-981.667
-984.69
-987.616
-990.462
-993.239
-995.952
-998.615
-1001.24
-1003.82
-1006.38
-1008.91
-1011.42
-1013.92
-1016.41
-1018.89
-1021.37
-1023.84
-1026.32
-1028.79
-1031.28
-1033.77
-1036.27
-1038.77
-1041.29
-1043.83
-1046.38
-1048.94
-1051.52
-1054.11
-1056.72
-1059.34
-1061.98
-1064.63
-1067.26
-1069.84
-1072.11
-1066.06
-1043.71
-1050.4
-1068.11
-1081.93
-1092.21
-1100.87
-1108.42
-1115.04
-1120.96
-1126.38
-1131.4
-1136.08
-1140.49
-1144.66
-1148.62
-1152.39
-1155.99
-1159.44
-1162.76
-1165.96
-1169.06
-1172.05
-1174.97
-1177.81
-1180.58
-1183.3
-1185.96
-1188.59
-1191.18
-1193.73
-1196.27
-1198.78
-1201.27
-1203.76
-1206.23
-1208.7
-1211.16
-1213.62
-1216.08
-1218.54
-1221.01
-1223.48
-1225.96
-1228.46
-1230.95
-1233.46
-1235.99
-1238.52
-1241.08
-1243.65
-1246.23
-1248.83
-1251.44
-1254.07
-1256.72
-1259.38
-1262.03
-1264.65
-1267.03
-1261.75
-1204.27
-1197.88
-1211.06
-1226.06
-1240.69
-1254.47
-1267.08
-1278.47
-1288.73
-1298.02
-1306.44
-1314.09
-1321.07
-1327.47
-1333.34
-1338.76
-1343.78
-1348.45
-1352.81
-1356.91
-1360.77
-1364.42
-1367.89
-1371.2
-1374.37
-1377.43
-1380.39
-1383.26
-1386.05
-1388.78
-1391.45
-1394.08
-1396.68
-1399.24
-1401.79
-1404.31
-1406.81
-1409.31
-1411.8
-1414.29
-1416.77
-1419.26
-1421.75
-1424.25
-1426.75
-1429.26
-1431.79
-1434.33
-1436.88
-1439.45
-1442.03
-1444.63
-1447.24
-1449.86
-1452.51
-1455.17
-1457.83
-1460.49
-1462.97
-1528.27
-1502.86
-1496.59
-1490.63
-1489.59
-1492.45
-1496.78
-1501.63
-1506.67
-1511.7
-1516.62
-1521.36
-1525.89
-1530.22
-1534.36
-1538.3
-1542.08
-1545.69
-1549.17
-1552.51
-1555.73
-1558.85
-1561.87
-1564.8
-1567.65
-1570.44
-1573.17
-1575.85
-1578.48
-1581.07
-1583.64
-1586.17
-1588.69
-1591.19
-1593.68
-1596.16
-1598.64
-1601.1
-1603.57
-1606.04
-1608.51
-1610.98
-1613.47
-1615.96
-1618.46
-1620.96
-1623.48
-1626.01
-1628.56
-1631.12
-1633.7
-1636.29
-1638.89
-1641.51
-1644.15
-1646.81
-1649.48
-1652.18
-1654.93
-1657.85
-1281.8
-1489.1
-1577
-1607.28
-1627.44
-1644.42
-1658.17
-1669.62
-1679.56
-1688.39
-1696.35
-1703.56
-1710.13
-1716.17
-1721.75
-1726.92
-1731.73
-1736.24
-1740.47
-1744.46
-1748.23
-1751.82
-1755.24
-1758.52
-1761.66
-1764.7
-1767.63
-1770.49
-1773.28
-1776
-1778.67
-1781.3
-1783.89
-1786.46
-1789
-1791.53
-1794.04
-1796.54
-1799.03
-1801.53
-1804.02
-1806.51
-1809
-1811.5
-1814.01
-1816.52
-1819.04
-1821.57
-1824.12
-1826.68
-1829.25
-1831.84
-1834.44
-1837.06
-1839.69
-1842.35
-1845.02
-1847.74
-1850.55
-1854.14
)
;

boundaryField
{
    wall
    {
        type            calculated;
        value           nonuniform List<scalar> 
1200
(
475.695
-161.966
-285.719
-480.43
-672.01
-867.188
-1065.96
-1261.62
-1528.18
-1281.21
267.71
-136.477
-227.948
-458.131
-652.643
-847.829
-1043.66
-1203.96
-1502.68
-1488.73
179.73
-130.069
-221.29
-464.717
-649.046
-844.241
-1050.22
-1197.3
-1496.36
-1576.87
149.231
-124.299
-234.52
-482.407
-658.41
-853.623
-1067.9
-1210.52
-1490.55
-1607.35
128.904
-123.44
-249.758
-496.362
-668.553
-863.778
-1081.85
-1225.74
-1489.69
-1627.64
112.017
-126.305
-264.558
-506.776
-678.063
-873.295
-1092.27
-1240.57
-1492.63
-1644.62
98.3838
-130.583
-278.434
-515.495
-687.726
-882.968
-1101
-1254.45
-1496.92
-1658.25
86.9441
-135.415
-291.133
-523.06
-697.202
-892.429
-1108.54
-1267.05
-1501.67
-1669.57
76.9713
-140.445
-302.596
-529.673
-706.088
-901.297
-1115.16
-1278.44
-1506.67
-1679.5
68.1323
-145.443
-312.882
-535.556
-714.291
-909.501
-1121.08
-1288.75
-1511.72
-1688.38
60.1422
-150.356
-322.192
-540.937
-721.863
-917.066
-1126.47
-1298.04
-1516.62
-1696.34
52.8698
-155.12
-330.654
-545.934
-728.853
-924.037
-1131.45
-1306.45
-1521.35
-1703.57
46.2627
-159.664
-338.327
-550.594
-735.304
-930.474
-1136.11
-1314.1
-1525.89
-1710.17
40.2233
-163.986
-345.302
-554.968
-741.265
-936.428
-1140.49
-1321.08
-1530.22
-1716.23
34.6624
-168.107
-351.676
-559.1
-746.78
-941.935
-1144.63
-1327.46
-1534.35
-1721.8
29.4994
-172.053
-357.539
-563.032
-751.909
-947.057
-1148.57
-1333.33
-1538.3
-1726.98
24.6876
-175.833
-362.951
-566.789
-756.701
-951.845
-1152.33
-1338.75
-1542.07
-1731.8
20.2098
-179.439
-367.959
-570.389
-761.195
-956.336
-1155.94
-1343.77
-1545.68
-1736.29
16.0126
-182.896
-372.617
-573.847
-765.419
-960.556
-1159.4
-1348.43
-1549.14
-1740.5
12.0387
-186.235
-376.974
-577.172
-769.393
-964.526
-1162.72
-1352.79
-1552.47
-1744.47
8.26809
-189.46
-381.063
-580.376
-773.151
-968.282
-1165.92
-1356.88
-1555.69
-1748.23
4.69885
-192.566
-384.908
-583.471
-776.722
-971.855
-1169.02
-1360.73
-1558.79
-1751.8
1.30225
-195.57
-388.547
-586.475
-780.132
-975.265
-1172.02
-1364.38
-1561.8
-1755.22
-1.97028
-198.504
-392.017
-589.4
-783.399
-978.53
-1174.94
-1367.85
-1564.73
-1758.48
-5.12562
-201.366
-395.328
-592.243
-786.53
-981.663
-1177.79
-1371.16
-1567.58
-1761.62
-8.15868
-204.15
-398.494
-595.013
-789.547
-984.684
-1180.56
-1374.34
-1570.37
-1764.66
-11.0996
-206.879
-401.548
-597.731
-792.473
-987.612
-1183.28
-1377.4
-1573.1
-1767.61
-13.9685
-209.566
-404.504
-600.4
-795.313
-990.452
-1185.95
-1380.35
-1575.78
-1770.47
-16.7615
-212.204
-407.367
-603.019
-798.077
-993.22
-1188.57
-1383.21
-1578.41
-1773.26
-19.4891
-214.801
-410.156
-605.605
-800.787
-995.935
-1191.16
-1386.01
-1581.02
-1776
-22.1678
-217.371
-412.886
-608.163
-803.446
-998.595
-1193.72
-1388.75
-1583.59
-1778.69
-24.8019
-219.912
-415.56
-610.692
-806.056
-1001.21
-1196.24
-1391.42
-1586.14
-1781.33
-27.3981
-222.43
-418.189
-613.2
-808.634
-1003.79
-1198.75
-1394.06
-1588.66
-1783.94
-29.9677
-224.934
-420.784
-615.695
-811.185
-1006.34
-1201.24
-1396.65
-1591.17
-1786.51
-32.5153
-227.426
-423.349
-618.177
-813.712
-1008.87
-1203.72
-1399.22
-1593.66
-1789.06
-35.0426
-229.908
-425.891
-620.65
-816.221
-1011.38
-1206.19
-1401.76
-1596.14
-1791.58
-37.5501
-232.378
-428.41
-623.115
-818.716
-1013.88
-1208.66
-1404.28
-1598.61
-1794.09
-40.0438
-234.84
-430.912
-625.574
-821.201
-1016.36
-1211.12
-1406.79
-1601.09
-1796.6
-42.5356
-237.307
-433.411
-628.038
-823.684
-1018.85
-1213.59
-1409.3
-1603.56
-1799.09
-45.0267
-239.779
-435.906
-630.502
-826.161
-1021.33
-1216.05
-1411.79
-1606.03
-1801.58
-47.5142
-242.251
-438.393
-632.963
-828.634
-1023.8
-1218.51
-1414.28
-1608.5
-1804.07
-50.0049
-244.731
-440.885
-635.435
-831.115
-1026.29
-1220.99
-1416.77
-1610.98
-1806.56
-52.5016
-247.219
-443.379
-637.913
-833.599
-1028.77
-1223.47
-1419.25
-1613.46
-1809.05
-54.9995
-249.711
-445.874
-640.394
-836.084
-1031.25
-1225.95
-1421.74
-1615.95
-1811.54
-57.4971
-252.205
-448.371
-642.882
-838.577
-1033.75
-1228.44
-1424.24
-1618.44
-1814.03
-60.0033
-254.709
-450.873
-645.378
-841.077
-1036.25
-1230.95
-1426.75
-1620.95
-1816.55
-62.5264
-257.231
-453.393
-647.894
-843.595
-1038.77
-1233.47
-1429.27
-1623.48
-1819.07
-65.0661
-259.77
-455.928
-650.426
-846.126
-1041.29
-1236
-1431.79
-1626
-1821.6
-67.6126
-262.317
-458.468
-652.964
-848.662
-1043.83
-1238.53
-1434.32
-1628.54
-1824.14
-70.1658
-264.873
-461.017
-655.515
-851.211
-1046.37
-1241.09
-1436.87
-1631.1
-1826.69
-72.7408
-267.449
-463.582
-658.08
-853.774
-1048.93
-1243.65
-1439.44
-1633.68
-1829.27
-75.3283
-270.039
-466.163
-660.664
-856.356
-1051.51
-1246.24
-1442.02
-1636.27
-1831.86
-77.9346
-272.648
-468.762
-663.266
-858.953
-1054.1
-1248.84
-1444.61
-1638.87
-1834.46
-80.5599
-275.276
-471.376
-665.88
-861.561
-1056.7
-1251.45
-1447.22
-1641.49
-1837.07
-83.1905
-277.912
-474.002
-668.512
-864.189
-1059.33
-1254.08
-1449.84
-1644.13
-1839.71
-85.8325
-280.558
-476.639
-671.154
-866.828
-1061.96
-1256.72
-1452.48
-1646.78
-1842.35
-88.5015
-283.227
-479.291
-673.806
-869.474
-1064.61
-1259.38
-1455.14
-1649.46
-1845.03
-91.2301
-285.941
-481.966
-676.465
-872.117
-1067.25
-1262.04
-1457.81
-1652.17
-1847.76
-94.0456
-288.703
-484.631
-679.093
-874.706
-1069.84
-1264.67
-1460.48
-1654.94
-1850.58
-97.6167
-291.62
-487.119
-681.474
-876.973
-1072.11
-1267.05
-1462.97
-1657.86
-1854.17
474.356
-162.247
-286.006
-480.62
-672.176
-867.333
-1066.09
-1261.8
-1528.3
-1281.99
267.318
-136.833
-228.592
-458.265
-652.74
-847.898
-1043.73
-1204.37
-1502.92
-1489.23
179.405
-130.637
-222.253
-464.995
-649.408
-844.571
-1050.46
-1198.07
-1496.67
-1577.04
149.234
-124.557
-235.413
-482.72
-658.986
-854.151
-1068.18
-1211.23
-1490.66
-1607.26
129.142
-123.438
-250.358
-496.504
-669.048
-864.219
-1081.96
-1226.17
-1489.56
-1627.38
112.071
-126.334
-264.962
-506.741
-678.311
-873.487
-1092.19
-1240.73
-1492.38
-1644.35
98.2882
-130.674
-278.729
-515.379
-687.776
-882.951
-1100.82
-1254.48
-1496.73
-1658.15
86.9236
-135.449
-291.279
-522.886
-697.12
-892.31
-1108.38
-1267.09
-1501.62
-1669.63
77.0258
-140.439
-302.624
-529.475
-705.934
-901.133
-1115
-1278.47
-1506.67
-1679.58
68.1704
-145.486
-312.909
-535.416
-714.146
-909.33
-1120.92
-1288.73
-1511.7
-1688.4
60.2465
-150.383
-322.192
-540.837
-721.751
-916.929
-1126.34
-1298.02
-1516.63
-1696.35
53.0928
-155.07
-330.578
-545.837
-728.772
-923.956
-1131.38
-1306.44
-1521.37
-1703.56
46.532
-159.585
-338.215
-550.515
-735.253
-930.437
-1136.08
-1314.09
-1525.89
-1710.12
40.4814
-163.922
-345.199
-554.927
-741.244
-936.422
-1140.49
-1321.07
-1530.22
-1716.15
34.8853
-168.073
-351.602
-559.108
-746.803
-941.977
-1144.67
-1327.47
-1534.36
-1721.74
29.7045
-172.029
-357.48
-563.074
-751.964
-947.134
-1148.64
-1333.34
-1538.3
-1726.9
24.8849
-175.809
-362.899
-566.846
-756.763
-951.93
-1152.41
-1338.76
-1542.08
-1731.71
20.3563
-179.446
-367.926
-570.447
-761.242
-956.405
-1156.01
-1343.78
-1545.7
-1736.22
16.0959
-182.941
-372.603
-573.897
-765.444
-960.604
-1159.45
-1348.46
-1549.18
-1740.46
12.0957
-186.292
-376.967
-577.217
-769.411
-964.572
-1162.78
-1352.82
-1552.53
-1744.46
8.31982
-189.516
-381.062
-580.42
-773.167
-968.327
-1165.98
-1356.92
-1555.75
-1748.24
4.72063
-192.643
-384.926
-583.517
-776.732
-971.891
-1169.07
-1360.78
-1558.87
-1751.83
1.28104
-195.678
-388.584
-586.517
-780.128
-975.287
-1172.06
-1364.43
-1561.89
-1755.25
-1.99282
-198.61
-392.05
-589.425
-783.377
-978.538
-1174.97
-1367.9
-1564.82
-1758.53
-5.13151
-201.462
-395.361
-592.267
-786.509
-981.669
-1177.81
-1371.21
-1567.68
-1761.68
-8.17237
-204.258
-398.545
-595.05
-789.534
-984.692
-1180.58
-1374.38
-1570.46
-1764.71
-11.1143
-206.992
-401.605
-597.769
-792.459
-987.617
-1183.3
-1377.44
-1573.19
-1767.64
-13.9634
-209.666
-404.558
-600.439
-795.306
-990.466
-1185.97
-1380.4
-1575.87
-1770.5
-16.7469
-212.303
-407.43
-603.072
-798.086
-993.245
-1188.6
-1383.27
-1578.5
-1773.28
-19.4748
-214.905
-410.227
-605.665
-800.8
-995.957
-1191.18
-1386.06
-1581.09
-1776
-22.1491
-217.472
-412.956
-608.224
-803.463
-998.621
-1193.74
-1388.78
-1583.65
-1778.66
-24.7819
-220.015
-415.635
-610.762
-806.089
-1001.25
-1196.28
-1391.46
-1586.19
-1781.29
-27.3805
-222.538
-418.268
-613.277
-808.676
-1003.84
-1198.79
-1394.09
-1588.7
-1783.87
-29.9468
-225.041
-420.862
-615.773
-811.231
-1006.39
-1201.28
-1396.69
-1591.2
-1786.44
-32.4874
-227.529
-423.425
-618.255
-813.763
-1008.92
-1203.77
-1399.25
-1593.69
-1788.98
-35.0107
-230.008
-425.963
-620.728
-816.275
-1011.44
-1206.24
-1401.79
-1596.17
-1791.51
-37.5248
-232.485
-428.486
-623.196
-818.774
-1013.94
-1208.71
-1404.32
-1598.64
-1794.02
-40.0317
-234.961
-430.997
-625.661
-821.262
-1016.43
-1211.17
-1406.82
-1601.11
-1796.52
-42.5253
-237.431
-433.493
-628.118
-823.737
-1018.9
-1213.62
-1409.31
-1603.57
-1799.01
-45.0106
-239.899
-435.983
-630.577
-826.212
-1021.38
-1216.09
-1411.81
-1606.04
-1801.51
-47.4965
-242.374
-438.473
-633.043
-828.689
-1023.85
-1218.55
-1414.29
-1608.51
-1804
-49.9813
-244.85
-440.958
-635.507
-831.161
-1026.33
-1221.01
-1416.77
-1610.98
-1806.49
-52.466
-247.329
-443.443
-637.977
-833.637
-1028.8
-1223.49
-1419.26
-1613.47
-1808.99
-54.9591
-249.819
-445.936
-640.457
-836.122
-1031.29
-1225.97
-1421.75
-1615.96
-1811.49
-57.4656
-252.322
-448.437
-642.947
-838.614
-1033.78
-1228.46
-1424.25
-1618.46
-1814
-59.9804
-254.837
-450.948
-645.449
-841.115
-1036.28
-1230.96
-1426.75
-1620.96
-1816.51
-62.4984
-257.355
-453.46
-647.955
-843.619
-1038.78
-1233.46
-1429.26
-1623.48
-1819.03
-65.0222
-259.88
-455.978
-650.47
-846.134
-1041.29
-1235.98
-1431.79
-1626.01
-1821.56
-67.5633
-262.423
-458.514
-653.006
-848.67
-1043.83
-1238.52
-1434.33
-1628.57
-1824.11
-70.1243
-264.986
-461.068
-655.558
-851.22
-1046.38
-1241.08
-1436.89
-1631.13
-1826.67
-72.6924
-267.559
-463.633
-658.126
-853.787
-1048.94
-1243.64
-1439.45
-1633.7
-1829.24
-75.2777
-270.148
-466.211
-660.706
-856.364
-1051.52
-1246.23
-1442.03
-1636.29
-1831.83
-77.8745
-272.748
-468.802
-663.301
-858.956
-1054.11
-1248.82
-1444.63
-1638.9
-1834.44
-80.4835
-275.362
-471.408
-665.913
-861.569
-1056.72
-1251.44
-1447.24
-1641.52
-1837.05
-83.1193
-278.001
-474.032
-668.54
-864.191
-1059.35
-1254.07
-1449.87
-1644.15
-1839.69
-85.7788
-280.662
-476.678
-671.186
-866.83
-1061.98
-1256.72
-1452.52
-1646.81
-1842.35
-88.4566
-283.339
-479.336
-673.844
-869.479
-1064.63
-1259.38
-1455.17
-1649.49
-1845.02
-91.1614
-286.031
-481.995
-676.492
-872.113
-1067.27
-1262.03
-1457.84
-1652.18
-1847.73
-93.9559
-288.77
-484.637
-679.097
-874.681
-1069.84
-1264.64
-1460.49
-1654.93
-1850.54
-97.532
-291.67
-487.112
-681.473
-876.95
-1072.11
-1267.02
-1462.98
-1657.85
-1854.13
)
;
    }
    inlet
    {
        type            calculated;
        value           nonuniform List<scalar> 
20
(
475.36
-162.037
-285.79
-480.477
-672.051
-867.224
-1065.99
-1261.67
-1528.21
-1281.4
474.69
-162.177
-285.934
-480.572
-672.134
-867.297
-1066.06
-1261.75
-1528.27
-1281.8
)
;
    }
    outlet
    {
        type            calculated;
        value           nonuniform List<scalar> 
20
(
-97.5912
-292.76
-487.93
-683.102
-878.274
-1073.45
-1268.62
-1463.79
-1658.97
-1854.23
-97.5912
-292.76
-487.93
-683.102
-878.274
-1073.45
-1268.62
-1463.79
-1658.97
-1854.23
)
;
    }
    heatWall
    {
        type            calculated;
        value           nonuniform List<scalar> 
240
(
-1378.99
-1379.38
-1586.44
-1586.69
-1674.5
-1674.58
-1704.92
-1704.87
-1725.16
-1725.03
-1742.14
-1742.01
-1755.81
-1755.76
-1767.17
-1767.21
-1777.11
-1777.15
-1785.97
-1785.98
-1793.93
-1793.94
-1801.15
-1801.15
-1807.75
-1807.72
-1813.8
-1813.76
-1819.37
-1819.34
-1824.55
-1824.51
-1829.36
-1829.32
-1833.86
-1833.83
-1838.08
-1838.06
-1842.05
-1842.05
-1845.82
-1845.82
-1849.4
-1849.41
-1852.81
-1852.83
-1856.08
-1856.1
-1859.23
-1859.25
-1862.26
-1862.29
-1865.21
-1865.22
-1868.07
-1868.08
-1870.86
-1870.87
-1873.59
-1873.59
-1876.27
-1876.26
-1878.91
-1878.89
-1881.51
-1881.48
-1884.08
-1884.05
-1886.63
-1886.59
-1889.15
-1889.11
-1891.66
-1891.63
-1894.17
-1894.13
-1896.66
-1896.62
-1899.15
-1899.12
-1901.64
-1901.61
-1904.13
-1904.1
-1906.62
-1906.59
-1909.12
-1909.09
-1911.62
-1911.6
-1914.13
-1914.11
-1916.65
-1916.63
-1919.18
-1919.16
-1921.72
-1921.71
-1924.28
-1924.27
-1926.85
-1926.84
-1929.44
-1929.43
-1932.04
-1932.03
-1934.66
-1934.65
-1937.29
-1937.28
-1939.94
-1939.94
-1942.62
-1942.61
-1945.35
-1945.33
-1948.16
-1948.14
-1951.75
-1951.73
572.946
572.277
365.198
365.003
277.235
277.074
246.818
246.82
226.551
226.668
209.618
209.644
195.947
195.899
184.526
184.516
174.572
174.6
165.729
165.749
157.755
157.809
150.513
150.625
143.918
144.053
137.876
138.005
132.306
132.417
127.139
127.241
122.325
122.423
117.835
117.907
113.622
113.663
109.642
109.669
105.87
105.895
102.293
102.303
98.8859
98.8747
95.613
95.6014
92.4619
92.4587
89.4269
89.42
86.4857
86.4785
83.6218
83.6245
80.8312
80.8387
78.1036
78.1109
75.4261
75.4356
72.7925
72.8026
70.1957
70.2046
67.627
67.6376
65.0813
65.0952
62.5551
62.571
60.046
60.0586
57.5491
57.5551
55.0568
55.062
52.5673
52.5753
50.0802
50.0891
47.5911
47.6029
45.0974
45.1152
42.6008
42.621
40.101
40.1168
37.5928
37.6043
35.071
35.0851
32.5353
32.5574
29.9902
30.0149
27.4351
27.456
24.8619
24.8863
22.275
22.3005
19.6711
19.7014
17.0499
17.0883
14.4181
14.454
11.7717
11.7989
9.10053
9.12342
6.37799
6.41275
3.56776
3.61303
-0.00450462
0.0382503
)
;
    }
}


// ************************************************************************* //
