/*--------------------------------*- C++ -*----------------------------------*\
  =========                 |
  \\      /  F ield         | OpenFOAM: The Open Source CFD Toolbox
   \\    /   O peration     | Website:  https://openfoam.org
    \\  /    A nd           | Version:  8
     \\/     M anipulation  |
\*---------------------------------------------------------------------------*/
FoamFile
{
    version     2.0;
    format      ascii;
    class       surfaceScalarField;
    location    "500";
    object      phi;
}
// * * * * * * * * * * * * * * * * * * * * * * * * * * * * * * * * * * * * * //

dimensions      [1 0 -1 0 0 0 0];

internalField   nonuniform List<scalar> 
2860
(
0.400789
-0.00186824
0.00153236
0.400719
0.00137762
0.0020113
0.400708
0.00139544
0.00241639
0.400363
0.0016953
0.00241821
0.399818
0.00180639
0.00212643
0.399219
0.00176143
0.00205712
0.39861
0.00166834
0.00217326
0.398001
0.00156803
0.00219825
0.397397
0.00146979
0.0021307
0.396802
0.00137634
0.00208445
0.396215
0.00128892
0.00195745
0.395636
0.00120831
0.00168251
0.395066
0.00113475
0.00134905
0.394505
0.00106782
0.00102904
0.393952
0.00100704
0.000752443
0.393408
0.000951776
0.000497586
0.392871
0.000901458
0.000251746
0.392341
0.000855964
6.87342e-05
0.391819
0.000814973
-3.54005e-05
0.391304
0.000777708
-0.000106419
0.390795
0.000743583
-0.000170982
0.390292
0.000712514
-0.00019792
0.389797
0.000684458
-0.000170389
0.389307
0.000658901
-0.000140593
0.388823
0.000635287
-0.000131398
0.388344
0.000613543
-0.000111957
0.387871
0.000593593
-9.0803e-05
0.387403
0.000575088
-9.42211e-05
0.386941
0.000557843
-0.000109474
0.386483
0.000541898
-0.000124071
0.38603
0.000527173
-0.000144118
0.385582
0.000513533
-0.000165713
0.385138
0.000500911
-0.000184108
0.384699
0.000489211
-0.000206593
0.384264
0.000478322
-0.000237863
0.383833
0.000468224
-0.000274236
0.383406
0.000458892
-0.00030223
0.382983
0.000450285
-0.000313059
0.382564
0.000442367
-0.000321374
0.382148
0.000434989
-0.000336991
0.381736
0.000428053
-0.000354498
0.381328
0.00042159
-0.000379472
0.380923
0.000415529
-0.000419755
0.380521
0.000409821
-0.000466234
0.380122
0.00040453
-0.000500895
0.379727
0.000399574
-0.000524052
0.379334
0.000394959
-0.000553573
0.378944
0.00039064
-0.000603558
0.378558
0.000386544
-0.000660249
0.378174
0.000382742
-0.000706468
0.377793
0.00037905
-0.000761106
0.377414
0.000375557
-0.0008185
0.377038
0.000372254
-0.00088779
0.376664
0.000368998
-0.000978053
0.376293
0.000365943
-0.00106152
0.375925
0.000362985
-0.00112155
0.37556
0.000359573
-0.00116948
0.375201
0.000353574
-0.00124799
0.374855
0.000339563
-0.0013539
0.000236444
-0.00145276
0.398245
-0.0031593
0.00032506
0.398234
-3.94058e-05
0.000778915
0.398037
-5.26196e-05
0.0014963
0.398044
-4.15666e-05
0.0018248
0.398117
-7.04867e-06
0.00182444
0.398218
-5.04732e-05
0.00186018
0.398334
-0.00010736
0.00197333
0.398454
-0.000149202
0.00201665
0.39857
-0.000177614
0.00201094
0.39868
-0.000196838
0.00206608
0.398784
-0.000209802
0.00210075
0.39888
-0.000218165
0.00204017
0.398968
-0.000222613
0.00194305
0.39905
-0.000223845
0.00186366
0.399126
-0.000222472
0.00182004
0.399195
-0.000219236
0.00178837
0.39926
-0.000214584
0.00175575
0.399319
-0.000208109
0.00176015
0.399374
-0.000199869
0.00181021
0.399425
-0.000190713
0.00187394
0.399473
-0.00018114
0.00193652
0.399517
-0.000170889
0.00202506
0.399558
-0.000159726
0.00215125
0.399597
-0.000148195
0.0022743
0.399633
-0.000136849
0.0023846
0.399667
-0.000125523
0.00251059
0.399699
-0.000114155
0.0026411
0.399729
-0.000103117
0.00275608
0.399757
-9.24604e-05
0.00286935
0.399785
-8.19486e-05
0.00298797
0.399811
-7.1593e-05
0.00310404
0.399836
-6.14732e-05
0.00322172
0.399859
-5.15228e-05
0.00334454
0.399882
-4.17582e-05
0.00346584
0.399905
-3.22476e-05
0.00358195
0.399926
-2.29279e-05
0.00369438
0.399947
-1.3722e-05
0.00381474
0.399967
-4.58564e-06
0.00395202
0.399987
4.50529e-06
0.00409213
0.400006
1.34176e-05
0.00422793
0.400025
2.20843e-05
0.00436681
0.400044
3.06132e-05
0.00450113
0.400062
3.89191e-05
0.00462379
0.40008
4.69893e-05
0.00474354
0.400097
5.49862e-05
0.00487468
0.400115
6.28462e-05
0.00501894
0.400132
7.05957e-05
0.00515829
0.400149
7.81634e-05
0.00527899
0.400166
8.54888e-05
0.00539504
0.400183
9.27152e-05
0.00552001
0.4002
9.96053e-05
0.00564133
0.400217
0.000106344
0.00576124
0.400233
0.000112872
0.00587013
0.400249
0.000118994
0.00596238
0.400266
0.000125011
0.00605773
0.400282
0.000130772
0.00617095
0.400299
0.000135425
0.00629447
0.400317
0.000136095
0.00639181
0.400341
0.000124318
0.00645992
5.13208e-05
0.00651071
0.396066
-0.000919911
0.000324824
0.396271
0.000523013
0.00113268
0.396444
0.000782348
0.00233883
0.396753
0.000806852
0.00345816
0.397117
0.000867875
0.00421393
0.397465
0.000877657
0.00472467
0.397784
0.000857934
0.00509936
0.398072
0.000833685
0.00528793
0.398331
0.00080781
0.00533018
0.398566
0.00077969
0.00537039
0.398778
0.000749889
0.00537816
0.39897
0.000718954
0.00529173
0.399145
0.000688085
0.00515969
0.399305
0.000658186
0.00503857
0.399452
0.000629454
0.00495222
0.399588
0.000601861
0.0048854
0.399713
0.000575671
0.00482656
0.399829
0.000551586
0.00479144
0.399938
0.000529672
0.00477945
0.40004
0.000509256
0.00477712
0.400136
0.000490117
0.00478143
0.400227
0.000472586
0.00480901
0.400313
0.000456796
0.0048598
0.400395
0.000442272
0.00490442
0.400474
0.000428606
0.00494885
0.40055
0.000415937
0.00501613
0.400624
0.000404213
0.00509029
0.400695
0.000393053
0.00516035
0.400764
0.000382443
0.00524138
0.400832
0.000372565
0.00533205
0.400898
0.000363284
0.00542279
0.400963
0.000354462
0.00551886
0.401028
0.00034617
0.00562076
0.401091
0.000338387
0.00572154
0.401154
0.000331007
0.00581919
0.401216
0.000324043
0.00591266
0.401278
0.000317564
0.00601046
0.40134
0.000311631
0.00611969
0.401402
0.000306228
0.00622527
0.401463
0.000301186
0.00632437
0.401525
0.000296454
0.00642703
0.401586
0.000292119
0.00652222
0.401648
0.000288048
0.00660515
0.401709
0.000284224
0.00668515
0.401771
0.000280796
0.00677132
0.401833
0.000277717
0.00686732
0.401895
0.000274937
0.00695425
0.401957
0.000272315
0.00702042
0.40202
0.000269833
0.00708216
0.402083
0.000267618
0.00714908
0.402146
0.000265457
0.00721651
0.40221
0.000263521
0.00728129
0.402274
0.000261648
0.0073354
0.402338
0.000259652
0.00737925
0.402402
0.000257858
0.00742145
0.402467
0.00025612
0.00747467
0.402532
0.000253688
0.00753596
0.402596
0.000248379
0.00757692
0.402655
0.000235884
0.00758976
0.000200109
0.00758765
0.397417
-0.000488012
0.00021773
0.397741
2.04591e-05
0.000390203
0.398071
0.000137273
0.000741857
0.398349
9.67868e-05
0.00114109
0.398605
9.12867e-05
0.00133244
0.398825
7.39769e-05
0.00130645
0.39901
4.60119e-05
0.00118188
0.399171
2.00028e-05
0.000984403
0.399316
-2.18448e-06
0.000756999
0.399448
-2.01709e-05
0.000599806
0.39957
-3.51527e-05
0.000491661
0.399684
-4.82512e-05
0.000386558
0.399792
-5.90947e-05
0.00030296
0.399894
-6.73807e-05
0.000266282
0.39999
-7.36048e-05
0.000289289
0.400083
-7.81948e-05
0.000353754
0.400172
-8.12211e-05
0.000435379
0.400257
-8.26104e-05
0.000519343
0.400339
-8.26801e-05
0.00059231
0.400418
-8.20203e-05
0.000658983
0.400495
-8.07874e-05
0.000723733
0.400569
-7.88103e-05
0.00079047
0.400642
-7.61684e-05
0.000851492
0.400712
-7.32419e-05
0.000891336
0.400781
-7.01594e-05
0.000928971
0.400849
-6.67657e-05
0.000982303
0.400915
-6.32292e-05
0.0010358
0.40098
-5.98284e-05
0.00109008
0.401044
-5.64238e-05
0.00116035
0.401108
-5.28783e-05
0.00123867
0.40117
-4.93942e-05
0.00131873
0.401233
-4.60703e-05
0.00140952
0.401295
-4.27878e-05
0.00150838
0.401356
-3.9533e-05
0.00160796
0.401418
-3.63801e-05
0.00170884
0.401479
-3.33421e-05
0.00180865
0.40154
-3.03231e-05
0.0019122
0.401601
-2.71691e-05
0.00202276
0.401662
-2.39261e-05
0.002125
0.401724
-2.07477e-05
0.00222167
0.401785
-1.75575e-05
0.00232363
0.401846
-1.43082e-05
0.00241657
0.401908
-1.11303e-05
0.00249901
0.40197
-8.00592e-06
0.00258032
0.402032
-4.80254e-06
0.00266389
0.402094
-1.47074e-06
0.00275405
0.402157
1.93773e-06
0.00283215
0.40222
5.22473e-06
0.00288981
0.402284
8.37274e-06
0.0029447
0.402347
1.15221e-05
0.00300189
0.402412
1.45686e-05
0.00306293
0.402476
1.76158e-05
0.00311863
0.402541
2.04812e-05
0.00316569
0.402606
2.30652e-05
0.00321078
0.402672
2.56243e-05
0.00325027
0.402738
2.81134e-05
0.00329467
0.402804
3.01301e-05
0.0033453
0.402868
3.0387e-05
0.00338201
0.402929
2.593e-05
0.00339133
7.36239e-06
0.00339398
0.397417
4.26491e-09
0.000190674
0.397462
4.13707e-07
0.000313679
0.397661
7.52425e-07
0.000763884
0.397862
1.28219e-06
0.00147944
0.398095
1.64277e-06
0.00209656
0.398339
1.95435e-06
0.0024091
0.398573
2.63903e-06
0.00247426
0.398793
2.27917e-06
0.00237555
0.398998
1.25125e-06
0.00218566
0.399188
1.34499e-06
0.00200465
0.399362
1.66596e-06
0.00186363
0.399524
1.24982e-06
0.00175895
0.399673
6.64436e-07
0.00169156
0.399811
3.61429e-07
0.00166233
0.399939
1.80634e-07
0.00168752
0.400059
1.17511e-07
0.00175375
0.400171
2.08803e-07
0.0018299
0.400276
3.97415e-07
0.0018881
0.400375
5.74864e-07
0.00191955
0.400469
6.38582e-07
0.00194364
0.400558
6.95435e-07
0.00196587
0.400643
8.54186e-07
0.00198036
0.400725
1.04809e-06
0.00197812
0.400803
1.14752e-06
0.00195364
0.400878
1.30743e-06
0.00192848
0.400951
1.70306e-06
0.00191383
0.401022
2.11826e-06
0.0018982
0.401091
2.40737e-06
0.00189083
0.401158
2.79592e-06
0.00190202
0.401225
3.34606e-06
0.00191854
0.40129
3.85671e-06
0.00194044
0.401354
4.29614e-06
0.00198061
0.401418
4.75335e-06
0.00203278
0.401481
5.22508e-06
0.00208866
0.401543
5.67746e-06
0.00215101
0.401605
6.05153e-06
0.00221789
0.401667
6.40974e-06
0.00229069
0.401729
6.93156e-06
0.00236698
0.401791
7.51386e-06
0.00243287
0.401852
8.04597e-06
0.00249604
0.401914
8.69127e-06
0.00256453
0.401976
9.4076e-06
0.00262196
0.402038
1.00879e-05
0.00267052
0.4021
1.07606e-05
0.00271902
0.402162
1.14808e-05
0.00276609
0.402225
1.23828e-05
0.0028138
0.402288
1.34006e-05
0.00284484
0.402351
1.43173e-05
0.00285729
0.402414
1.51174e-05
0.00286997
0.402478
1.59325e-05
0.00288356
0.402542
1.67577e-05
0.00290251
0.402607
1.75655e-05
0.00291384
0.402672
1.82488e-05
0.00292008
0.402737
1.88171e-05
0.00293166
0.402803
1.93609e-05
0.00293582
0.402869
1.99474e-05
0.0029406
0.402934
2.06515e-05
0.00294843
0.402998
2.14211e-05
0.00294569
0.403055
2.22699e-05
0.00291679
2.2975e-05
0.00288923
0.397417
0.000487835
0.000167085
0.397462
-1.98905e-05
0.000254478
0.397662
-0.00013657
0.000664469
0.397863
-9.54925e-05
0.00132063
0.398096
-8.96269e-05
0.00187
0.39834
-7.14212e-05
0.00211026
0.398574
-4.20156e-05
0.00209171
0.398794
-1.66512e-05
0.00194655
0.398999
4.02337e-06
0.00174345
0.399188
2.2424e-05
0.00152985
0.399363
3.80193e-05
0.00135724
0.399524
5.04794e-05
0.0012529
0.399673
6.04896e-05
0.00120237
0.399811
6.84593e-05
0.00119019
0.399939
7.46888e-05
0.00123735
0.400058
7.95263e-05
0.00132965
0.40017
8.29844e-05
0.00143234
0.400276
8.49628e-05
0.0015167
0.400375
8.5624e-05
0.00157667
0.400468
8.53586e-05
0.00163445
0.400557
8.44416e-05
0.00169154
0.400642
8.29383e-05
0.00173784
0.400724
8.0911e-05
0.00176723
0.400802
7.8414e-05
0.00177917
0.400877
7.57417e-05
0.00178913
0.40095
7.31255e-05
0.00180039
0.401021
7.04021e-05
0.00180812
0.40109
6.75317e-05
0.00182677
0.401158
6.47527e-05
0.00185851
0.401224
6.20924e-05
0.00188692
0.401289
5.94571e-05
0.00191892
0.401354
5.69107e-05
0.0019695
0.401417
5.44671e-05
0.00202989
0.40148
5.20819e-05
0.00209177
0.401543
4.97788e-05
0.00215915
0.401605
4.74712e-05
0.00223258
0.401667
4.51708e-05
0.00231188
0.401729
4.30475e-05
0.00238856
0.401791
4.09615e-05
0.00245222
0.401852
3.88672e-05
0.00251467
0.401914
3.69614e-05
0.0025786
0.401976
3.5106e-05
0.00262859
0.402038
3.32477e-05
0.00267042
0.4021
3.14166e-05
0.00271236
0.402162
2.95953e-05
0.00275122
0.402225
2.79794e-05
0.00278407
0.402288
2.6404e-05
0.00279663
0.402351
2.47007e-05
0.00279552
0.402414
2.29512e-05
0.00280053
0.402478
2.12741e-05
0.00280874
0.402542
1.97584e-05
0.00282442
0.402607
1.82399e-05
0.00283562
0.402671
1.67166e-05
0.00284876
0.402737
1.52954e-05
0.00287402
0.402802
1.39048e-05
0.00289626
0.402868
1.269e-05
0.00292208
0.402934
1.21653e-05
0.00295131
0.402997
1.34945e-05
0.00297263
0.403054
1.94812e-05
0.00296977
3.85816e-05
0.00296718
0.397417
0.000919909
0.000152556
0.397741
-0.000521854
0.000235919
0.39807
-0.000781522
0.000542286
0.398348
-0.000805991
0.000891945
0.398605
-0.000867543
0.0010387
0.398824
-0.000876396
0.000949782
0.399009
-0.000856076
0.000743743
0.399171
-0.000832643
0.000553504
0.399316
-0.000807924
0.000373867
0.399448
-0.000780573
0.000180404
0.39957
-0.000751738
2.81888e-05
0.399685
-0.000722046
-4.86547e-05
0.399792
-0.000692047
-7.76151e-05
0.399894
-0.000662546
-7.58807e-05
0.399991
-0.000633826
-1.98984e-05
0.400084
-0.000605904
7.17133e-05
0.400173
-0.000579321
0.000171258
0.400258
-0.000554631
0.000262531
0.40034
-0.000531927
0.000342517
0.400419
-0.000510818
0.000425423
0.400496
-0.000491158
0.000506963
0.40057
-0.000473027
0.000577611
0.400643
-0.000456379
0.000634719
0.400713
-0.000441153
0.000679561
0.400782
-0.000427085
0.000719414
0.400849
-0.000413877
0.000750629
0.400916
-0.000401573
0.00077554
0.400981
-0.000390131
0.000811818
0.401045
-0.000379328
0.000854513
0.401108
-0.000369108
0.000887018
0.401171
-0.000359394
0.000920692
0.401234
-0.00035002
0.000969377
0.401295
-0.000341045
0.0010242
0.401357
-0.000332539
0.00107866
0.401418
-0.000324408
0.00113625
0.40148
-0.000316729
0.0012006
0.401541
-0.000309514
0.0012715
0.401602
-0.000302611
0.0013349
0.401663
-0.000296157
0.00138516
0.401724
-0.000290122
0.00143601
0.401786
-0.00028431
0.0014834
0.401847
-0.000278911
0.0015161
0.401909
-0.000273892
0.00154188
0.401971
-0.000269206
0.00156819
0.402033
-0.000264898
0.00159241
0.402096
-0.000260705
0.00160412
0.402158
-0.000256887
0.00159331
0.402221
-0.00025349
0.00157284
0.402285
-0.000250378
0.00156069
0.402349
-0.000247442
0.00154988
0.402413
-0.000244483
0.001541
0.402477
-0.000241739
0.0015275
0.402542
-0.000239147
0.00151631
0.402607
-0.000236522
0.00151385
0.402673
-0.000233997
0.0015089
0.402739
-0.000231392
0.00150838
0.402805
-0.000227899
0.00150696
0.402869
-0.000221408
0.00149213
0.40293
-0.000207453
0.00145292
-0.000170066
0.00141647
0.396068
0.00315758
0.000193284
0.396273
3.6798e-05
0.000711067
0.396446
5.33243e-05
0.00166943
0.396754
4.4288e-05
0.00255787
0.397118
1.13966e-05
0.00308813
0.397466
5.98396e-05
0.00328265
0.397783
0.000122222
0.00332015
0.398071
0.000167816
0.00337014
0.39833
0.000199753
0.00340841
0.398564
0.000222739
0.00338098
0.398776
0.000238443
0.00335169
0.398968
0.000248916
0.00334498
0.399144
0.00025549
0.00333145
0.399304
0.000258659
0.0033136
0.399451
0.000259222
0.00332133
0.399586
0.000257955
0.00333619
0.399712
0.000254967
0.00335023
0.399828
0.000250164
0.00337102
0.399937
0.000243666
0.00340358
0.400039
0.000236022
0.00345142
0.400135
0.000227501
0.00350662
0.400226
0.000218122
0.00356629
0.400312
0.000208059
0.00362791
0.400395
0.000197376
0.00369242
0.400474
0.000186279
0.00375995
0.40055
0.000175122
0.00381797
0.400623
0.000163977
0.00387108
0.400694
0.000152877
0.00393703
0.400764
0.000141957
0.00400469
0.400831
0.000131298
0.00405659
0.400898
0.000121052
0.00410265
0.400963
0.000111342
0.00415208
0.401027
0.000102015
0.00419869
0.401091
9.29589e-05
0.00423981
0.401154
8.42431e-05
0.00427734
0.401216
7.57543e-05
0.00431864
0.401278
6.74198e-05
0.00436551
0.40134
5.93284e-05
0.00440042
0.401402
5.13491e-05
0.00442364
0.401463
4.35128e-05
0.00444955
0.401525
3.59379e-05
0.00446871
0.401586
2.84254e-05
0.00447711
0.401648
2.10305e-05
0.00448305
0.401709
1.37677e-05
0.00449352
0.401771
6.57214e-06
0.00450939
0.401834
-3.73766e-07
0.00451638
0.401896
-7.25989e-06
0.0045099
0.401958
-1.40836e-05
0.00450555
0.402021
-2.07656e-05
0.00451766
0.402085
-2.72796e-05
0.00453557
0.402148
-3.34211e-05
0.00455324
0.402212
-3.94423e-05
0.0045717
0.402276
-4.53182e-05
0.00459634
0.40234
-5.08786e-05
0.00462726
0.402405
-5.62448e-05
0.00465958
0.40247
-6.12643e-05
0.00470173
0.402536
-6.50582e-05
0.00474252
0.402601
-6.47633e-05
0.00476584
0.40266
-5.16585e-05
0.0047692
2.30952e-05
0.00477626
0.398245
0.00186912
0.000141305
0.398235
-0.00138164
0.000454758
0.398037
-0.00139828
0.000855812
0.398045
-0.00169842
0.00100936
0.398119
-0.00181172
0.000852134
0.398219
-0.00176769
0.000548885
0.398335
-0.00167556
0.00031994
0.398455
-0.00157666
0.000268782
0.398571
-0.00147912
0.000277808
0.398682
-0.00138595
0.000259969
0.398785
-0.00129912
0.000272629
0.398881
-0.0012188
0.000305097
0.39897
-0.00114497
0.000315745
0.399052
-0.00107762
0.000319926
0.399127
-0.00101618
0.000341694
0.399197
-0.000960048
0.000354379
0.399261
-0.000908892
0.000360837
0.39932
-0.000862475
0.00038403
0.399375
-0.000820476
0.000435099
0.399426
-0.000782309
0.000507109
0.399473
-0.000747568
0.000589552
0.399517
-0.000716006
0.000684872
0.399559
-0.000687287
0.000789715
0.399597
-0.000661188
0.000905975
0.399633
-0.000637424
0.00103121
0.399667
-0.000615624
0.00114543
0.399699
-0.000595567
0.00125263
0.399729
-0.000577084
0.00137014
0.399758
-0.000559994
0.00148373
0.399785
-0.000544148
0.00157502
0.399811
-0.000529336
0.0016494
0.399836
-0.000515398
0.00171146
0.39986
-0.000502372
0.00176023
0.399884
-0.000490259
0.00179798
0.399906
-0.000478942
0.00182512
0.399927
-0.000468417
0.00185279
0.399949
-0.000458666
0.00188584
0.399969
-0.000449589
0.00190486
0.399989
-0.000441206
0.00191503
0.400008
-0.000433432
0.00193013
0.400027
-0.000426164
0.00193686
0.400046
-0.000419482
0.00193786
0.400064
-0.000413293
0.00193992
0.400082
-0.000407545
0.00194904
0.4001
-0.000402239
0.00196825
0.400118
-0.000397304
0.00197774
0.400135
-0.000392723
0.00197792
0.400152
-0.000388438
0.00198379
0.400169
-0.000384388
0.00200618
0.400186
-0.00038057
0.0020329
0.400203
-0.000376831
0.00205084
0.400219
-0.00037331
0.00206865
0.400236
-0.000369995
0.00209116
0.400252
-0.000366758
0.00211297
0.400269
-0.000363643
0.002135
0.400285
-0.000360558
0.00216818
0.400302
-0.000356944
0.00219674
0.400321
-0.00035066
0.00219915
0.400345
-0.000336062
0.00217907
-0.000230561
0.00216321
0.400784
0.000893064
0.400715
0.00150344
0.400703
0.00171647
0.400358
0.00159804
0.399815
0.00127486
0.399215
0.000941002
0.398605
0.000801597
0.397997
0.00087286
0.397394
0.000961388
0.396798
0.000973356
0.396211
0.000980945
0.395633
0.000965632
0.395063
0.000893906
0.394502
0.00080213
0.39395
0.000718191
0.393406
0.000615738
0.392869
0.000506411
0.392339
0.000422841
0.391817
0.000381128
0.391302
0.000368372
0.390793
0.000371955
0.390291
0.000396206
0.389795
0.000435139
0.389305
0.00049147
0.388821
0.000560043
0.388342
0.000613394
0.387869
0.000652978
0.387401
0.000695216
0.386939
0.000724039
0.386481
0.000720619
0.386028
0.00068826
0.38558
0.000630654
0.385136
0.000552854
0.384697
0.00046235
0.384262
0.000360133
0.383831
0.00026101
0.383404
0.000172362
0.382981
7.38604e-05
0.382562
-2.56329e-05
0.382146
-0.000112583
0.381735
-0.000202538
0.381326
-0.000288376
0.380921
-0.000364728
0.380519
-0.000426645
0.38012
-0.000471685
0.379725
-0.000526344
0.379332
-0.000585791
0.378943
-0.000635326
0.378556
-0.000665857
0.378172
-0.000690058
0.377791
-0.000726036
0.377412
-0.000759441
0.377036
-0.000784815
0.376663
-0.000811271
0.376292
-0.000834914
0.375924
-0.000843044
0.375559
-0.000854767
0.375199
-0.000895861
0.374855
-0.000957551
-0.00100262
0.400785
-0.00186365
0.400706
0.00137839
0.400692
0.00138838
0.400349
0.00169304
0.399809
0.00181159
0.399211
0.00176631
0.398602
0.00166911
0.397994
0.00156555
0.397392
0.00146473
0.396796
0.00136931
0.396208
0.00128175
0.395631
0.00120259
0.395062
0.00113106
0.394501
0.0010664
0.393949
0.00100781
0.393405
0.000954754
0.392869
0.000906663
0.39234
0.000862565
0.391818
0.000821748
0.391303
0.000784163
0.390795
0.000749771
0.390293
0.000718094
0.389797
0.000688661
0.389307
0.000661516
0.388823
0.000636778
0.388344
0.000614124
0.387871
0.000593272
0.387403
0.000574251
0.386941
0.000556943
0.386483
0.000541045
0.38603
0.000526396
0.385582
0.000512912
0.385138
0.000500457
0.384699
0.00048895
0.384264
0.000478339
0.383833
0.000468495
0.383406
0.00045931
0.382983
0.000450726
0.382564
0.000442641
0.382148
0.000435091
0.381736
0.000428096
0.381328
0.000421541
0.380922
0.000415426
0.380521
0.000409727
0.380122
0.000404315
0.379726
0.000399214
0.379334
0.000394364
0.378944
0.000389767
0.378558
0.000385449
0.378174
0.000381306
0.377792
0.000377491
0.377414
0.000373867
0.377038
0.000370413
0.376664
0.000367233
0.376293
0.000364075
0.375925
0.000360777
0.37556
0.000356959
0.3752
0.00035075
0.374855
0.000336438
0.000231864
0.398246
-0.0031578
0.398236
-4.62439e-05
0.398034
-6.26413e-05
0.39804
-4.20046e-05
0.398113
1.41235e-06
0.398214
-4.30222e-05
0.39833
-0.000105884
0.39845
-0.000152896
0.398566
-0.000185649
0.398677
-0.000208366
0.39878
-0.000222226
0.398876
-0.000228859
0.398965
-0.00023042
0.399047
-0.00022837
0.399123
-0.000223652
0.399192
-0.000216797
0.399257
-0.000208397
0.399317
-0.000199553
0.399372
-0.000190772
0.399423
-0.000181691
0.399471
-0.00017214
0.399515
-0.000162536
0.399556
-0.000153221
0.399595
-0.000143859
0.399631
-0.000134078
0.399665
-0.000124122
0.399697
-0.00011415
0.399727
-0.000103914
0.399756
-9.3436e-05
0.399783
-8.29987e-05
0.399809
-7.26399e-05
0.399834
-6.23152e-05
0.399858
-5.21161e-05
0.399881
-4.20558e-05
0.399903
-3.20945e-05
0.399924
-2.23173e-05
0.399945
-1.28064e-05
0.399966
-3.61082e-06
0.399985
5.25083e-06
0.400005
1.39345e-05
0.400023
2.25116e-05
0.400042
3.08593e-05
0.40006
3.90417e-05
0.400078
4.7067e-05
0.400096
5.47803e-05
0.400113
6.22526e-05
0.400131
6.94461e-05
0.400148
7.64227e-05
0.400165
8.32475e-05
0.400182
8.98007e-05
0.400198
9.63133e-05
0.400215
0.000102592
0.400232
0.000108696
0.400248
0.000114789
0.400265
0.000120475
0.400281
0.000125533
0.400298
0.000129398
0.400316
0.000129635
0.40034
0.000117412
4.40783e-05
0.396068
-0.000921443
0.396276
0.000514693
0.396447
0.000772849
0.396752
0.000803675
0.397114
0.000872795
0.397461
0.000882982
0.397778
0.000858249
0.398065
0.000828859
0.398325
0.000798675
0.398559
0.00076694
0.398771
0.000735589
0.398963
0.000706254
0.399139
0.000678667
0.3993
0.000652385
0.399447
0.00062749
0.399583
0.000604147
0.399708
0.000582121
0.399825
0.00056068
0.399934
0.00053968
0.400036
0.000519719
0.400132
0.000500944
0.400224
0.000482952
0.40031
0.000465538
0.400392
0.000449091
0.400472
0.000433881
0.400548
0.000419618
0.400621
0.000406234
0.400692
0.000393989
0.400762
0.000382758
0.40083
0.000372246
0.400896
0.000362497
0.400961
0.000353556
0.401025
0.000345262
0.401089
0.000337559
0.401152
0.00033048
0.401214
0.000323942
0.401276
0.000317803
0.401338
0.000311906
0.4014
0.000306269
0.401461
0.000301038
0.401523
0.000296183
0.401584
0.000291573
0.401645
0.000287296
0.401707
0.000283327
0.401769
0.00027947
0.401831
0.00027573
0.401893
0.00027212
0.401955
0.00026877
0.402018
0.000265679
0.402081
0.000262705
0.402144
0.000260013
0.402207
0.000257401
0.402271
0.000255017
0.402335
0.000253004
0.4024
0.00025092
0.402465
0.000248545
0.40253
0.000245384
0.402594
0.000239719
0.402653
0.000226901
0.000191352
0.397416
-0.000489519
0.397742
1.4738e-05
0.398071
0.000129354
0.398347
9.15027e-05
0.398602
9.13164e-05
0.398821
7.51367e-05
0.399006
4.3764e-05
0.399167
1.44047e-05
0.399312
-9.94075e-06
0.399445
-3.08976e-05
0.399567
-4.74741e-05
0.399682
-5.89944e-05
0.39979
-6.67377e-05
0.399893
-7.19851e-05
0.39999
-7.50524e-05
0.400083
-7.62756e-05
0.400171
-7.62916e-05
0.400257
-7.57842e-05
0.400339
-7.49132e-05
0.400418
-7.34795e-05
0.400494
-7.16089e-05
0.400569
-6.96751e-05
0.400641
-6.77588e-05
0.400711
-6.56367e-05
0.40078
-6.33073e-05
0.400848
-6.10177e-05
0.400914
-5.86759e-05
0.400979
-5.60667e-05
0.401044
-5.33765e-05
0.401107
-5.07758e-05
0.40117
-4.80812e-05
0.401232
-4.5204e-05
0.401294
-4.22735e-05
0.401356
-3.93148e-05
0.401417
-3.62634e-05
0.401479
-3.31142e-05
0.40154
-2.99717e-05
0.401601
-2.70027e-05
0.401662
-2.41333e-05
0.401723
-2.12068e-05
0.401784
-1.83214e-05
0.401846
-1.55337e-05
0.401907
-1.27273e-05
0.401969
-9.92312e-06
0.402031
-7.25855e-06
0.402094
-4.79729e-06
0.402156
-2.49543e-06
0.402219
-1.5379e-07
0.402283
2.26973e-06
0.402346
4.64877e-06
0.40241
7.05843e-06
0.402475
9.38444e-06
0.40254
1.18164e-05
0.402605
1.44312e-05
0.402671
1.69248e-05
0.402737
1.91556e-05
0.402802
2.08053e-05
0.402867
2.09608e-05
0.402927
1.64896e-05
-1.67619e-06
0.397416
-1.18309e-06
0.397464
-2.30882e-06
0.397664
-3.22056e-06
0.397863
-4.09456e-06
0.398094
-4.85442e-06
0.398336
-5.61198e-06
0.398569
-6.62627e-06
0.398788
-6.4638e-06
0.398993
-5.30453e-06
0.399183
-4.97119e-06
0.399359
-4.65979e-06
0.399521
-3.51202e-06
0.39967
-2.09315e-06
0.399809
-8.6804e-07
0.399938
3.63983e-07
0.400058
1.53765e-06
0.40017
2.554e-06
0.400275
3.41967e-06
0.400374
4.22334e-06
0.400467
5.04803e-06
0.400556
5.78803e-06
0.400641
6.35071e-06
0.400722
6.83441e-06
0.400801
7.37604e-06
0.400876
7.81288e-06
0.400949
7.96253e-06
0.40102
8.04342e-06
0.401089
8.20055e-06
0.401157
8.20681e-06
0.401223
8.00852e-06
0.401289
7.82284e-06
0.401353
7.69633e-06
0.401417
7.55191e-06
0.40148
7.40474e-06
0.401542
7.29891e-06
0.401604
7.29971e-06
0.401666
7.34792e-06
0.401728
7.26915e-06
0.40179
7.18979e-06
0.401851
7.22791e-06
0.401913
7.21496e-06
0.401975
7.19182e-06
0.402037
7.2604e-06
0.402099
7.39157e-06
0.402161
7.5244e-06
0.402223
7.50209e-06
0.402286
7.39141e-06
0.402349
7.41544e-06
0.402413
7.62413e-06
0.402477
7.88937e-06
0.402541
8.18535e-06
0.402605
8.52986e-06
0.40267
9.03707e-06
0.402736
9.68811e-06
0.402801
1.04135e-05
0.402867
1.11826e-05
0.402933
1.19262e-05
0.402996
1.27612e-05
0.403053
1.36912e-05
1.45161e-05
0.397416
0.00048716
0.397464
-1.96119e-05
0.397665
-0.000135935
0.397864
-9.9472e-05
0.398095
-0.000100461
0.398337
-8.60324e-05
0.39857
-5.65039e-05
0.398789
-2.64948e-05
0.398994
-1.157e-07
0.399184
2.1625e-05
0.39936
3.93037e-05
0.399521
5.33591e-05
0.399671
6.40089e-05
0.399809
7.18099e-05
0.399938
7.73659e-05
0.400058
8.09022e-05
0.400169
8.29897e-05
0.400274
8.42572e-05
0.400374
8.4979e-05
0.400467
8.50976e-05
0.400556
8.46302e-05
0.400641
8.37642e-05
0.400722
8.26629e-05
0.4008
8.14322e-05
0.400876
7.9897e-05
0.400949
7.7921e-05
0.40102
7.57484e-05
0.401089
7.34747e-05
0.401157
7.09105e-05
0.401223
6.80875e-05
0.401288
6.51495e-05
0.401353
6.20694e-05
0.401416
5.88714e-05
0.40148
5.56368e-05
0.401542
5.23692e-05
0.401604
4.91758e-05
0.401666
4.60621e-05
0.401728
4.28803e-05
0.40179
3.98013e-05
0.401851
3.68858e-05
0.401913
3.39435e-05
0.401975
3.11208e-05
0.402037
2.84722e-05
0.402099
2.59691e-05
0.402161
2.36282e-05
0.402223
2.12275e-05
0.402286
1.89318e-05
0.402349
1.69273e-05
0.402413
1.51544e-05
0.402477
1.34893e-05
0.402541
1.18132e-05
0.402605
1.02863e-05
0.40267
8.91072e-06
0.402735
7.57553e-06
0.402801
6.44201e-06
0.402867
5.62227e-06
0.402932
5.321e-06
0.402996
6.66752e-06
0.403053
1.27959e-05
3.22575e-05
0.397416
0.000919546
0.397742
-0.000519665
0.398071
-0.00077951
0.398347
-0.000811572
0.398601
-0.000881821
0.39882
-0.000894969
0.399006
-0.000872964
0.399167
-0.000843967
0.399313
-0.000812884
0.399445
-0.000780308
0.399568
-0.000747451
0.399683
-0.000715563
0.399791
-0.000685274
0.399894
-0.000656473
0.399991
-0.00062936
0.400084
-0.000604072
0.400173
-0.000580168
0.400258
-0.000557141
0.40034
-0.000534904
0.400419
-0.000513807
0.400496
-0.000493911
0.40057
-0.00047501
0.400642
-0.000457057
0.400712
-0.000440001
0.400781
-0.000423986
0.400849
-0.000409193
0.400915
-0.000395465
0.40098
-0.000382712
0.401044
-0.000371029
0.401108
-0.000360359
0.401171
-0.000350662
0.401233
-0.00034197
0.401295
-0.000334105
0.401357
-0.000326894
0.401418
-0.000320331
0.401479
-0.000314245
0.40154
-0.000308538
0.401601
-0.00030329
0.401663
-0.0002983
0.401724
-0.000293531
0.401785
-0.000289122
0.401846
-0.000284847
0.401908
-0.000280699
0.40197
-0.000276678
0.402032
-0.00027269
0.402094
-0.000269012
0.402157
-0.00026538
0.40222
-0.000261698
0.402284
-0.000258052
0.402347
-0.000254528
0.402411
-0.000251314
0.402476
-0.000248148
0.402541
-0.000245074
0.402606
-0.00024224
0.402672
-0.00023936
0.402738
-0.000236193
0.402804
-0.000232296
0.402868
-0.000225755
0.402928
-0.000211615
-0.000174141
0.396069
0.00315544
0.396278
4.52428e-05
0.396449
6.06363e-05
0.396753
4.21303e-05
0.397115
8.38907e-07
0.397462
4.58451e-05
0.397779
0.000110579
0.398066
0.000161559
0.398325
0.000198473
0.39856
0.000225503
0.398772
0.000244617
0.398964
0.000256587
0.39914
0.000262806
0.3993
0.000264945
0.399447
0.000263715
0.399583
0.000259696
0.399709
0.000253839
0.399825
0.000247012
0.399934
0.000239663
0.400037
0.000231681
0.400133
0.000223187
0.400224
0.000214482
0.40031
0.000205631
0.400393
0.000196759
0.400472
0.000187826
0.400548
0.000178642
0.400621
0.000169255
0.400692
0.000159699
0.400762
0.000149925
0.40083
0.000139965
0.400896
0.000129753
0.400961
0.000119229
0.401025
0.000108614
0.401089
9.80787e-05
0.401152
8.75997e-05
0.401214
7.73125e-05
0.401276
6.7306e-05
0.401338
5.75291e-05
0.4014
4.81421e-05
0.401461
3.91187e-05
0.401523
3.03504e-05
0.401584
2.2038e-05
0.401646
1.4115e-05
0.401707
6.5506e-06
0.401769
-5.98785e-07
0.401831
-7.5043e-06
0.401894
-1.4034e-05
0.401956
-2.02197e-05
0.402019
-2.6163e-05
0.402082
-3.19142e-05
0.402146
-3.76862e-05
0.40221
-4.32292e-05
0.402274
-4.85872e-05
0.402338
-5.39179e-05
0.402403
-5.89726e-05
0.402468
-6.34906e-05
0.402534
-6.68901e-05
0.402598
-6.65983e-05
0.402658
-5.3441e-05
2.15967e-05
0.398247
0.0018566
0.398236
-0.00138232
0.398036
-0.00139531
0.398041
-0.00170141
0.398114
-0.0018201
0.398216
-0.0017771
0.398333
-0.00168232
0.398453
-0.00157938
0.39857
-0.00147858
0.398681
-0.00138305
0.398784
-0.00129431
0.39888
-0.00121336
0.398969
-0.00114006
0.399051
-0.00107352
0.399126
-0.00101325
0.399196
-0.000958811
0.39926
-0.000909464
0.39932
-0.000864424
0.399375
-0.000823066
0.399426
-0.000785162
0.399473
-0.000750403
0.399517
-0.000718391
0.399559
-0.000688899
0.399597
-0.000661633
0.399633
-0.000636431
0.399667
-0.000613287
0.399699
-0.000592077
0.399729
-0.000572636