/*--------------------------------*- C++ -*----------------------------------*\
  =========                 |
  \\      /  F ield         | OpenFOAM: The Open Source CFD Toolbox
   \\    /   O peration     | Website:  https://openfoam.org
    \\  /    A nd           | Version:  8
     \\/     M anipulation  |
\*---------------------------------------------------------------------------*/
FoamFile
{
    version     2.0;
    format      ascii;
    class       volVectorField;
    location    "500";
    object      U;
}
// * * * * * * * * * * * * * * * * * * * * * * * * * * * * * * * * * * * * * //

dimensions      [0 1 -1 0 0 0 0];

internalField   nonuniform List<vector> 
1200
(
(4.00458 -0.295018 0.00256189)
(4.0291 -0.228033 0.00333573)
(4.03229 -0.190816 0.00382025)
(4.02775 -0.165169 0.00378755)
(4.02215 -0.146307 0.00340725)
(4.01626 -0.131957 0.00323637)
(4.01016 -0.12063 0.00324986)
(4.004 -0.11144 0.00317411)
(3.99788 -0.103855 0.00301192)
(3.99184 -0.097518 0.00287939)
(3.98589 -0.0921809 0.00267252)
(3.98002 -0.0876612 0.00232381)
(3.97425 -0.0838171 0.00192362)
(3.96856 -0.0805364 0.00154351)
(3.96295 -0.0777291 0.00121312)
(3.95743 -0.0753227 0.00090974)
(3.95199 -0.073257 0.000619923)
(3.94663 -0.0714802 0.000397962)
(3.94134 -0.0699492 0.000259518)
(3.93612 -0.0686289 0.000157618)
(3.93097 -0.0674895 6.49522e-05)
(3.92589 -0.0665041 1.30328e-05)
(3.92087 -0.0656498 1.87902e-05)
(3.91591 -0.0649081 2.89089e-05)
(3.91101 -0.0642635 2.00109e-05)
(3.90617 -0.0637017 2.33249e-05)
(3.90139 -0.0632103 2.99687e-05)
(3.89665 -0.0627795 1.30962e-05)
(3.89198 -0.0624005 -1.44532e-05)
(3.88735 -0.0620653 -4.01357e-05)
(3.88277 -0.0617674 -7.02734e-05)
(3.87823 -0.0615012 -0.000100988)
(3.87375 -0.0612618 -0.000127561)
(3.86931 -0.0610451 -0.000157478)
(3.86491 -0.0608479 -0.000195555)
(3.86056 -0.060667 -0.000238121)
(3.85624 -0.0604997 -0.0002716)
(3.85197 -0.0603439 -0.000287165)
(3.84773 -0.0601971 -0.000299692)
(3.84353 -0.0600575 -0.000319155)
(3.83937 -0.0599237 -0.000340113)
(3.83525 -0.0597944 -0.000368223)
(3.83116 -0.0596688 -0.000411473)
(3.8271 -0.0595463 -0.000460685)
(3.82307 -0.0594258 -0.000497627)
(3.81908 -0.0593069 -0.000522723)
(3.81511 -0.0591892 -0.000554005)
(3.81118 -0.0590725 -0.000605737)
(3.80728 -0.0589565 -0.000664021)
(3.8034 -0.0588407 -0.000711459)
(3.79955 -0.0587254 -0.000767439)
(3.79573 -0.0586102 -0.000825952)
(3.79194 -0.0584948 -0.000896341)
(3.78817 -0.0583797 -0.000987916)
(3.78442 -0.0582642 -0.0010724)
(3.7807 -0.0581483 -0.00113307)
(3.77701 -0.0580333 -0.0011814)
(3.77336 -0.0579243 -0.00126075)
(3.76984 -0.0578345 -0.00136711)
(3.76596 -0.0579605 -0.00146829)
(4.00711 0.104078 -0.000628854)
(4.00323 0.133693 -0.000653538)
(4.00186 0.134067 -0.000150734)
(4.00117 0.129206 9.59702e-05)
(4.00155 0.123017 8.46675e-05)
(4.00253 0.116426 0.000150278)
(4.0037 0.110145 0.000315613)
(4.00491 0.104471 0.000420965)
(4.00611 0.0994492 0.000481793)
(4.00725 0.0950394 0.000606058)
(4.00833 0.0911829 0.000708647)
(4.00934 0.0878195 0.000712764)
(4.01027 0.0848912 0.000677393)
(4.01112 0.0823423 0.000656876)
(4.01191 0.0801227 0.000669349)
(4.01264 0.0781872 0.000690645)
(4.01331 0.0764971 0.000707802)
(4.01393 0.0750208 0.00075973)
(4.0145 0.0737301 0.000855242)
(4.01504 0.0725978 0.000961969)
(4.01553 0.0716008 0.00106507)
(4.01599 0.0707217 0.00119229)
(4.01642 0.0699458 0.00135567)
(4.01682 0.069258 0.00151387)
(4.01719 0.0686446 0.00165733)
(4.01754 0.0680959 0.00181507)
(4.01787 0.0676036 0.00197578)
(4.01819 0.0671592 0.00211921)
(4.01848 0.0667559 0.00225954)
(4.01876 0.066389 0.00240398)
(4.01903 0.0660537 0.00254457)
(4.01928 0.0657458 0.00268563)
(4.01953 0.0654617 0.00283081)
(4.01976 0.0651984 0.00297343)
(4.01999 0.064953 0.00310985)
(4.02021 0.0647233 0.00324164)
(4.02042 0.0645075 0.00338062)
(4.02062 0.0643041 0.00353596)
(4.02082 0.0641105 0.00369342)
(4.02102 0.0639243 0.00384583)
(4.02121 0.0637442 0.00400078)
(4.0214 0.0635698 0.00415052)
(4.02158 0.0634002 0.00428791)
(4.02177 0.0632348 0.00442182)
(4.02194 0.0630733 0.00456674)
(4.02212 0.0629152 0.00472445)
(4.0223 0.06276 0.00487677)
(4.02247 0.0626072 0.00500978)
(4.02264 0.0624563 0.0051377)
(4.02281 0.0623074 0.00527428)
(4.02298 0.0621595 0.00540669)
(4.02314 0.0620129 0.00553741)
(4.02331 0.0618672 0.00565664)
(4.02347 0.0617219 0.00575863)
(4.02364 0.0615777 0.00586349)
(4.0238 0.061434 0.00598612)
(4.02397 0.0612878 0.00611889)
(4.02414 0.0611291 0.00622485)
(4.02434 0.0609294 0.0063011)
(4.02454 0.0604231 0.00635952)
(3.9898 -0.0197039 0.000729705)
(3.98181 -0.0407229 0.00190999)
(3.98275 -0.057583 0.00336448)
(3.98641 -0.0670286 0.0046389)
(3.99024 -0.0718362 0.00548111)
(3.99389 -0.0743321 0.00603214)
(3.99726 -0.0754921 0.00641647)
(4.00031 -0.07584 0.00659322)
(4.00306 -0.0757317 0.00660951)
(4.00553 -0.0753823 0.00661591)
(4.00777 -0.0749142 0.0065844)
(4.0098 -0.074395 0.00645483)
(4.01164 -0.0738604 0.00627817)
(4.01332 -0.0733295 0.00611247)
(4.01486 -0.072813 0.00598229)
(4.01627 -0.0723164 0.00587265)
(4.01758 -0.0718409 0.00577235)
(4.01879 -0.0713839 0.0056975)
(4.01992 -0.0709433 0.00564745)
(4.02097 -0.0705204 0.00560861)
(4.02197 -0.0701151 0.00557809)
(4.0229 -0.0697244 0.00557271)
(4.02379 -0.0693459 0.00559223)
(4.02464 -0.0689801 0.00560689)
(4.02545 -0.0686275 0.00562291)
(4.02622 -0.0682867 0.0056635)
(4.02697 -0.0679563 0.00571223)
(4.0277 -0.0676371 0.00575803)
(4.02841 -0.0673284 0.0058162)
(4.02909 -0.0670286 0.00588519)
(4.02977 -0.0667373 0.00595523)
(4.03043 -0.0664542 0.00603159)
(4.03108 -0.0661786 0.00611474)
(4.03172 -0.0659099 0.0061976)
(4.03235 -0.065648 0.00627815)
(4.03298 -0.0653924 0.00635521)
(4.03361 -0.0651424 0.00643738)
(4.03423 -0.0648973 0.00653184)
(4.03485 -0.0646557 0.00662321)
(4.03547 -0.0644172 0.00670866)
(4.03609 -0.0641822 0.0067984)
(4.0367 -0.0639501 0.00688114)
(4.03732 -0.0637213 0.00695208)
(4.03794 -0.0634959 0.00702062)
(4.03856 -0.0632729 0.00709589)
(4.03918 -0.0630524 0.00718161)
(4.0398 -0.0628343 0.00725862)
(4.04043 -0.0626187 0.00731506)
(4.04106 -0.0624058 0.0073675)
(4.04169 -0.0621947 0.00742556)
(4.04232 -0.0619864 0.00748453)
(4.04296 -0.0617801 0.00754125)
(4.0436 -0.0615761 0.0075875)
(4.04424 -0.0613752 0.00762373)
(4.04489 -0.0611761 0.00765859)
(4.04554 -0.0609793 0.0077049)
(4.04619 -0.0607883 0.00775968)
(4.04684 -0.0606148 0.0077942)
(4.04748 -0.0604882 0.00780069)
(4.04798 -0.0605505 0.00779238)
(3.99816 -0.00163666 0.000163364)
(3.99613 0.00888918 0.000213196)
(3.99911 0.0201672 0.000428744)
(4.003 0.0301392 0.000712558)
(4.00597 0.0384488 0.000815648)
(4.00829 0.0450542 0.000725409)
(4.01026 0.0503181 0.00055783)
(4.01199 0.0545731 0.000333683)
(4.01351 0.0580328 9.21259e-05)
(4.01489 0.0608501 -6.80697e-05)
(4.01616 0.063142 -0.00017174)
(4.01734 0.0649984 -0.000267584)
(4.01845 0.0664962 -0.000338229)
(4.0195 0.0676979 -0.00035917)
(4.0205 0.0686521 -0.000318405)
(4.02145 0.0693982 -0.000234931)
(4.02236 0.0699701 -0.000133632)
(4.02323 0.0703979 -2.9988e-05)
(4.02407 0.0707049 6.21094e-05)
(4.02488 0.0709087 0.000147476)
(4.02567 0.0710253 0.000230475)
(4.02642 0.0710704 0.000314937)
(4.02716 0.0710565 0.000392893)
(4.02788 0.0709923 0.000448701)
(4.02858 0.0708857 0.000501815)
(4.02926 0.070745 0.000570286)
(4.02993 0.0705761 0.000638198)
(4.03059 0.0703833 0.000706336)
(4.03124 0.0701715 0.000790195)
(4.03189 0.0699454 0.000881623)
(4.03252 0.0697078 0.000974231)
(4.03315 0.0694609 0.00107717)
(4.03377 0.0692075 0.00118776)
(4.03439 0.0689497 0.00129858)
(4.03501 0.0686889 0.00141032)
(4.03563 0.0684264 0.00152049)
(4.03624 0.0681637 0.00163401)
(4.03686 0.0679024 0.00175428)
(4.03747 0.0676427 0.00186571)
(4.03809 0.0673841 0.00197118)
(4.0387 0.0671273 0.0020818)
(4.03932 0.066873 0.00218298)
(4.03994 0.0666209 0.00227328)
(4.04056 0.0663715 0.00236221)
(4.04118 0.0661256 0.00245311)
(4.04181 0.0658833 0.00255053)
(4.04244 0.0656442 0.00263554)
(4.04307 0.0654074 0.00269969)
(4.0437 0.0651729 0.00276087)
(4.04434 0.0649415 0.0028241)
(4.04499 0.0647126 0.00289109)
(4.04563 0.0644868 0.00295247)
(4.04628 0.0642634 0.00300492)
(4.04694 0.0640419 0.00305527)
(4.0476 0.0638234 0.00309967)
(4.04826 0.0636074 0.00314886)
(4.04892 0.0633919 0.00320424)
(4.04958 0.0631703 0.00324547)
(4.0502 0.0629306 0.00325887)
(4.05091 0.0626361 0.00326548)
(3.99793 -0.00101938 0.000192302)
(3.99505 -0.00120252 0.000340714)
(3.99581 -0.00451605 0.000831736)
(3.99828 -0.0103648 0.00159292)
(4.00075 -0.0173416 0.00225107)
(4.00316 -0.0245604 0.00259338)
(4.00556 -0.0314606 0.00267816)
(4.00786 -0.0377518 0.0025909)
(4.01001 -0.0433278 0.00240658)
(4.01199 -0.0481738 0.00222791)
(4.01382 -0.0523335 0.00208703)
(4.0155 -0.0558715 0.00198094)
(4.01706 -0.0588545 0.00191107)
(4.0185 -0.0613484 0.00187842)
(4.01984 -0.0634183 0.00189981)
(4.02108 -0.065123 0.001962)
(4.02224 -0.0665138 0.00203374)
(4.02333 -0.0676353 0.00208682)
(4.02436 -0.0685278 0.00211249)
(4.02533 -0.0692265 0.00213074)
(4.02624 -0.0697605 0.00214719)
(4.02712 -0.0701543 0.00215584)
(4.02795 -0.0704296 0.00214762)
(4.02875 -0.0706057 0.00211703)
(4.02952 -0.0706983 0.00208614)
(4.03027 -0.0707201 0.00206613)
(4.03099 -0.0706833 0.00204526)
(4.03169 -0.0705986 0.002033)
(4.03238 -0.0704735 0.00203979)
(4.03305 -0.0703147 0.00205209)
(4.03371 -0.0701289 0.00207)
(4.03436 -0.0699217 0.00210661)
(4.035 -0.069697 0.00215546)
(4.03564 -0.0694585 0.00220819)
(4.03627 -0.0692093 0.00226764)
(4.03689 -0.0689524 0.00233177)
(4.03752 -0.0686896 0.00240199)
(4.03814 -0.0684221 0.00247586)
(4.03876 -0.0681516 0.00253924)
(4.03938 -0.0678799 0.00260003)
(4.04 -0.0676072 0.00266639)
(4.04062 -0.0673346 0.00272161)
(4.04124 -0.067063 0.00276801)
(4.04186 -0.066793 0.00281447)
(4.04249 -0.0665247 0.0028595)
(4.04312 -0.0662579 0.00290534)
(4.04375 -0.0659929 0.00293441)
(4.04438 -0.0657304 0.00294479)
(4.04502 -0.0654708 0.00295554)
(4.04566 -0.0652137 0.00296721)
(4.0463 -0.0649596 0.00298444)
(4.04695 -0.0647083 0.00299395)
(4.0476 -0.0644604 0.00299842)
(4.04825 -0.0642163 0.00300846)
(4.04891 -0.0639754 0.00301094)
(4.04957 -0.0637374 0.00301406)
(4.05023 -0.0635032 0.00302037)
(4.05089 -0.0632761 0.00301618)
(4.0515 -0.0630638 0.00298561)
(4.05211 -0.0628922 0.00295661)
(3.99793 0.00101884 0.000168542)
(3.99506 0.00120138 0.000281115)
(3.99581 0.00450901 0.000731435)
(3.99829 0.0103537 0.00143244)
(4.00076 0.0173282 0.00202208)
(4.00317 0.0245476 0.00229188)
(4.00557 0.0314521 0.00229233)
(4.00787 0.0377442 0.00215848)
(4.01001 0.04332 0.00196148)
(4.01199 0.0481736 0.00175011)
(4.01382 0.0523416 0.00157741)
(4.0155 0.0558828 0.00147196)
(4.01706 0.0588672 0.00141939)
(4.0185 0.061364 0.00140414)
(4.01983 0.0634373 0.00144798)
(4.02108 0.0651455 0.00153674)
(4.02224 0.0665401 0.00163541)
(4.02333 0.0676655 0.00171498)
(4.02435 0.0685609 0.00176955)
(4.02532 0.069261 0.00182191)
(4.02624 0.0697958 0.00187361)
(4.02711 0.070191 0.00191438)
(4.02794 0.0704677 0.00193811)
(4.02874 0.0706441 0.00194438)
(4.02951 0.0707371 0.00194888)
(4.03026 0.070761 0.00195489)
(4.03098 0.0707263 0.00195747)
(4.03168 0.0706427 0.00197136)
(4.03237 0.0705192 0.00199869)
(4.03304 0.0703632 0.00202275)
(4.0337 0.0701802 0.00205068)
(4.03435 0.0699752 0.00209767)
(4.035 0.0697528 0.00215472)
(4.03563 0.0695166 0.00221341)
(4.03626 0.0692698 0.00227786)
(4.03689 0.0690147 0.00234856)
(4.03751 0.0687535 0.00242532)
(4.03814 0.068489 0.00249954)
(4.03876 0.0682221 0.00256066)
(4.03938 0.0679539 0.00262075)
(4.04 0.067686 0.00268249)
(4.04062 0.0674189 0.00273017)
(4.04124 0.0671529 0.00276977)
(4.04186 0.0668888 0.0028096)
(4.04249 0.066627 0.00284633)
(4.04312 0.0663686 0.00287714)
(4.04375 0.066113 0.00288743)
(4.04438 0.0658596 0.002884)
(4.04502 0.0656084 0.00288689)
(4.04565 0.0653599 0.00289301)
(4.0463 0.0651145 0.00290687)
(4.04694 0.0648718 0.00291618)
(4.04759 0.0646317 0.00292756)
(4.04825 0.0643943 0.00295141)
(4.04891 0.0641598 0.00297212)
(4.04957 0.0639285 0.00299649)
(4.05023 0.0637017 0.00302439)
(4.05088 0.0634821 0.00304447)
(4.05149 0.0632765 0.00304009)
(4.05211 0.0631063 0.00303608)
(3.99816 0.0016392 9.77763e-05)
(3.99613 -0.00886337 5.82144e-05)
(3.9991 -0.0201184 0.000228168)
(4.00299 -0.0300752 0.000461545)
(4.00596 -0.0383776 0.000519211)
(4.00828 -0.0449759 0.000365673)
(4.01025 -0.0502364 0.000115231)
(4.01198 -0.0545032 -0.000101557)
(4.01351 -0.0579829 -0.000294701)
(4.01489 -0.0608167 -0.000492823)
(4.01616 -0.0631251 -0.000642281)
(4.01734 -0.0650018 -0.000710074)
(4.01846 -0.0665189 -0.000725817)
(4.01951 -0.0677361 -0.000708304)
(4.02051 -0.068702 -0.000634436)
(4.02146 -0.069456 -0.000523677)
(4.02237 -0.0700329 -0.000404443)
(4.02324 -0.0704627 -0.000293528)
(4.02408 -0.0707697 -0.000194277)
(4.02489 -0.0709724 -9.23371e-05)
(4.02568 -0.0710872 7.73195e-06)
(4.02643 -0.0711289 9.61793e-05)
(4.02717 -0.0711099 0.00017033)
(4.02789 -0.0710407 0.000231433)
(4.02859 -0.0709292 0.000286824)
(4.02927 -0.070782 0.00033278)
(4.02994 -0.0706062 0.000371736)
(4.0306 -0.0704075 0.000421657)
(4.03125 -0.0701896 0.00047745)
(4.03189 -0.0699565 0.00052232)
(4.03253 -0.0697117 0.000567958)
(4.03316 -0.0694577 0.000628395)
(4.03378 -0.069197 0.000694537)
(4.0344 -0.068932 0.000759855)
(4.03502 -0.068664 0.000827921)
(4.03563 -0.0683949 0.000902418)
(4.03625 -0.0681259 0.000983142)
(4.03686 -0.0678573 0.00105585)
(4.03748 -0.0675905 0.00111488)
(4.03809 -0.0673261 0.00117424)
(4.03871 -0.0670638 0.00122974)
(4.03933 -0.0668047 0.00127001)
(4.03995 -0.0665492 0.00130302)
(4.04057 -0.0662973 0.00133626)
(4.04119 -0.0660493 0.00136708)
(4.04182 -0.0658044 0.00138503)
(4.04245 -0.0655629 0.00137989)
(4.04308 -0.0653252 0.00136478)
(4.04372 -0.0650908 0.00135789)
(4.04435 -0.0648593 0.00135207)
(4.045 -0.0646301 0.00134809)
(4.04564 -0.0644038 0.00133919)
(4.04629 -0.0641804 0.0013325)
(4.04695 -0.0639591 0.00133455)
(4.04761 -0.0637404 0.00133384)
(4.04827 -0.0635237 0.00133749)
(4.04893 -0.0633064 0.00134007)
(4.04959 -0.063082 0.00132906)
(4.05022 -0.0628378 0.00129322)
(4.05091 -0.0625353 0.00126009)
(3.98981 0.0196945 0.000597225)
(3.98183 0.0407032 0.00148372)
(3.98277 0.0575741 0.00269194)
(3.98643 0.0670265 0.00373591)
(3.99025 0.0718443 0.00435435)
(3.9939 0.0743605 0.00459112)
(3.99726 0.0755404 0.00464049)
(4.0003 0.0759002 0.00468313)
(4.00305 0.0758013 0.00470072)
(4.00552 0.0754631 0.004643)
(4.00776 0.075004 0.0045779)
(4.00978 0.074492 0.00453222)
(4.01162 0.0739648 0.00447773)
(4.0133 0.0734406 0.00441811)
(4.01484 0.0729298 0.00438445)
(4.01626 0.0724376 0.00435844)
(4.01756 0.0719645 0.00433264)
(4.01878 0.0715084 0.00431496)
(4.01991 0.0710683 0.00431049)
(4.02096 0.0706446 0.00432284)
(4.02196 0.0702365 0.004344)
(4.0229 0.0698421 0.00437109)
(4.02378 0.0694606 0.0044016)
(4.02463 0.0690908 0.00443643)
(4.02544 0.0687325 0.00447563)
(4.02622 0.0683856 0.00450646)
(4.02697 0.0680494 0.00453368)
(4.0277 0.0677231 0.00457519)
(4.0284 0.0674066 0.00461954)
(4.02909 0.0670994 0.00464908)
(4.02976 0.0668016 0.00467394)
(4.03042 0.0665131 0.00470332)
(4.03107 0.0662331 0.00473081)
(4.03172 0.0659606 0.00475369)
(4.03235 0.0656956 0.00477381)
(4.03298 0.0654372 0.00479855)
(4.03361 0.0651848 0.00482971)
(4.03423 0.0649386 0.00484943)
(4.03485 0.0646975 0.00485805)
(4.03547 0.0644614 0.00487011)
(4.03609 0.0642307 0.00487591)
(4.0367 0.0640041 0.00487141)
(4.03732 0.0637817 0.00486502)
(4.03794 0.0635632 0.00486372)
(4.03856 0.0633481 0.0048684)
(4.03919 0.0631371 0.00486451)
(4.03981 0.0629277 0.00484746)
(4.04044 0.0627197 0.00483307)
(4.04107 0.0625137 0.00483574)
(4.0417 0.0623097 0.00484457)
(4.04234 0.0621087 0.00485351)
(4.04298 0.0619096 0.00486357)
(4.04362 0.0617124 0.00488017)
(4.04427 0.061518 0.00490339)
(4.04492 0.0613256 0.00492826)
(4.04557 0.0611359 0.00496336)
(4.04623 0.0609525 0.00499729)
(4.04689 0.0607867 0.00501388)
(4.04752 0.0606687 0.00501062)
(4.04803 0.0607346 0.00501149)
(4.00712 -0.104026 -0.000811515)
(4.00324 -0.133694 -0.000979963)
(4.00187 -0.134094 -0.00079889)
(4.00118 -0.129255 -0.000729533)
(4.00156 -0.123086 -0.000902026)
(4.00254 -0.116504 -0.00118352)
(4.00371 -0.110224 -0.00136864)
(4.00492 -0.104551 -0.00136267)
(4.00612 -0.0995198 -0.00129098)
(4.00727 -0.0950945 -0.00124485)
(4.00835 -0.0912222 -0.00116784)
(4.00935 -0.0878407 -0.00107247)
(4.01028 -0.0848905 -0.00100157)
(4.01114 -0.0823186 -0.00093976)
(4.01192 -0.0800749 -0.000862908)
(4.01265 -0.078115 -0.000798273)
(4.01332 -0.0764013 -0.000742655)
(4.01394 -0.0749018 -0.000672667)
(4.01452 -0.0735882 -0.000576956)
(4.01505 -0.0724341 -0.000462496)
(4.01554 -0.0714178 -0.00033978)
(4.016 -0.0705208 -0.000206094)
(4.01642 -0.0697271 -6.47509e-05)
(4.01682 -0.0690227 8.63548e-05)
(4.0172 -0.0683955 0.00024486)
(4.01755 -0.0678343 0.000390525)
(4.01788 -0.0673299 0.000527589)
(4.01819 -0.0668747 0.000673711)
(4.01849 -0.0664619 0.000814488)
(4.01877 -0.0660855 0.000931427)
(4.01903 -0.0657403 0.00103013)
(4.01929 -0.0654217 0.00111519)
(4.01954 -0.0651265 0.00118572)
(4.01977 -0.0648523 0.00124409)
(4.02 -0.064596 0.00129073)
(4.02022 -0.0643557 0.00133702)
(4.02043 -0.0641297 0.00138792)
(4.02064 -0.0639159 0.00142375)
(4.02084 -0.0637132 0.00144995)
(4.02104 -0.0635202 0.00148048)
(4.02123 -0.0633352 0.00150179)
(4.02142 -0.0631581 0.00151673)
(4.02161 -0.0629876 0.00153214)
(4.02179 -0.0628229 0.00155412)
(4.02197 -0.0626636 0.00158584)
(4.02215 -0.0625084 0.0016071)
(4.02232 -0.0623558 0.00161858)
(4.0225 -0.0622057 0.00163542)
(4.02267 -0.0620574 0.00166857)
(4.02284 -0.0619106 0.00170569)
(4.023 -0.0617645 0.00173348)
(4.02317 -0.0616198 0.00176084)
(4.02334 -0.0614761 0.00179261)
(4.0235 -0.0613329 0.00182328)
(4.02367 -0.0611903 0.00185386)
(4.02383 -0.0610479 0.0018955)
(4.024 -0.0609026 0.00193218)
(4.02418 -0.0607445 0.00194213)
(4.02438 -0.0605439 0.00192918)
(4.02458 -0.0600271 0.00192023)
(4.00454 0.295088 0.00191555)
(4.02904 0.228091 0.00282959)
(4.03225 0.19088 0.00311866)
(4.02771 0.165245 0.00296737)
(4.02211 0.146386 0.00255819)
(4.01623 0.132043 0.002121)
(4.01012 0.120725 0.00187825)
(4.00395 0.111535 0.00185139)
(3.99784 0.103941 0.00184708)
(3.9918 0.0975914 0.00177253)
(3.98585 0.0922365 0.00170153)
(3.97999 0.0876939 0.00161427)
(3.97421 0.0838243 0.00147667)
(3.96853 0.0805172 0.00132539)
(3.96293 0.0776844 0.00118784)
(3.95741 0.0752537 0.00103658)
(3.95197 0.0731649 0.000883144)
(3.94661 0.0713667 0.000760099)
(3.94132 0.0698163 0.000683288)
(3.9361 0.0684777 0.000639097)
(3.93095 0.0673204 0.000614447)
(3.92587 0.0663179 0.00061354)
(3.92085 0.065448 0.000629937)
(3.91589 0.0646912 0.000666256)
(3.91099 0.0640313 0.000717058)
(3.90615 0.0634547 0.000754224)
(3.90137 0.0629494 0.000779146)
(3.89663 0.0625052 0.000808292)
(3.89196 0.0621132 0.000825179)
(3.88733 0.0617659 0.000810718)
(3.88275 0.061457 0.000768137)
(3.87822 0.0611811 0.000700962)
(3.87373 0.0609329 0.000614297)
(3.86929 0.0607081 0.000515683)
(3.86489 0.0605032 0.000405928)
(3.86054 0.060315 0.000300011)
(3.85622 0.0601408 0.000205343)
(3.85195 0.0599784 0.000101191)
(3.84772 0.0598259 -3.35763e-06)
(3.84352 0.0596818 -9.47265e-05)
(3.83936 0.0595447 -0.000188838)
(3.83523 0.0594134 -0.000278304)
(3.83114 0.0592868 -0.000357872)
(3.82708 0.0591643 -0.000422578)
(3.82305 0.0590449 -0.000469904)
(3.81906 0.0589282 -0.000526784)
(3.8151 0.0588131 -0.000588195)
(3.81116 0.0586989 -0.000639413)
(3.80726 0.0585854 -0.000671298)
(3.80338 0.0584722 -0.000696668)
(3.79954 0.0583593 -0.000733948)
(3.79571 0.0582464 -0.00076842)
(3.79192 0.0581333 -0.000794659)
(3.78815 0.0580201 -0.00082201)
(3.78441 0.0579066 -0.000846436)
(3.78069 0.0577929 -0.000855003)
(3.777 0.0576802 -0.000867154)
(3.77335 0.0575738 -0.000909032)
(3.76983 0.0574873 -0.000971135)
(3.76597 0.0576186 -0.00101827)
(4.0045 -0.295179 0.000517852)
(4.02898 -0.228222 0.00071463)
(4.03216 -0.191009 0.00104612)
(4.02762 -0.165365 0.00107422)
(4.02203 -0.146502 0.000860546)
(4.01618 -0.13217 0.000894296)
(4.01008 -0.120872 0.00111895)
(4.00392 -0.111706 0.00124693)
(3.99781 -0.104135 0.00127492)
(3.99178 -0.0978045 0.001317)
(3.98582 -0.0924653 0.00126868)
(3.97996 -0.0879336 0.00106278)
(3.97419 -0.0840711 0.000790765)
(3.96851 -0.0807688 0.00052564)
(3.96292 -0.0779394 0.000298473)
(3.95741 -0.0755109 8.78193e-05)
(3.95197 -0.0734233 -0.000118652)
(3.94662 -0.0716276 -0.000265568)
(3.94134 -0.0700823 -0.000336215)
(3.93612 -0.0687509 -0.000376732)
(3.93097 -0.0676019 -0.000413852)
(3.92589 -0.0666094 -0.00041556)
(3.92087 -0.0657516 -0.000364471)
(3.91592 -0.0650084 -0.00031343)
(3.91102 -0.0643624 -0.000285385)
(3.90617 -0.0637996 -0.000248741)
(3.90139 -0.063308 -0.000212037)
(3.89666 -0.0628768 -0.000201799)
(3.89198 -0.0624968 -0.000204905)
(3.88735 -0.0621608 -0.000208558)
(3.88277 -0.0618623 -0.000218848)
(3.87823 -0.0615957 -0.000231687)
(3.87375 -0.0613563 -0.000242166)
(3.86931 -0.06114 -0.000257599)
(3.86491 -0.060943 -0.000282644)
(3.86056 -0.0607626 -0.00031349)
(3.85624 -0.0605963 -0.000336433)
(3.85197 -0.0604421 -0.000342533)
(3.84773 -0.0602976 -0.000346564)
(3.84354 -0.0601604 -0.000358409)
(3.83937 -0.060029 -0.000372542)
(3.83525 -0.0599023 -0.000394546)
(3.83115 -0.0597792 -0.000432338)
(3.8271 -0.0596589 -0.000476676)
(3.82307 -0.0595409 -0.000509273)
(3.81908 -0.0594249 -0.000530499)
(3.81511 -0.0593104 -0.000558338)
(3.81118 -0.0591968 -0.000607015)
(3.80727 -0.0590838 -0.000662595)
(3.8034 -0.0589714 -0.000707645)
(3.79955 -0.0588589 -0.000761524)
(3.79573 -0.0587464 -0.000818195)
(3.79193 -0.0586338 -0.000886977)
(3.78816 -0.0585206 -0.000977157)
(3.78442 -0.0584072 -0.00106043)
(3.7807 -0.0582941 -0.00112007)
(3.77701 -0.0581823 -0.00116751)
(3.77336 -0.0580759 -0.00124599)
(3.76984 -0.0579885 -0.00135254)
(3.76597 -0.0581197 -0.00145024)
(4.00712 0.103952 0.00128408)
(4.00324 0.133619 0.00222459)
(4.00186 0.134091 0.00316495)
(4.00114 0.129347 0.00357277)
(4.0015 0.123252 0.00358029)
(4.00249 0.116693 0.00358747)
(4.00366 0.110404 0.00365181)
(4.00487 0.104713 0.00363446)
(4.00607 0.0996699 0.00356295)
(4.00722 0.0952384 0.0035516)
(4.0083 0.0913681 0.00351949)
(4.0093 0.0879987 0.00339281)
(4.01023 0.0850671 0.00323206)
(4.01109 0.0825158 0.00309213)
(4.01188 0.0802938 0.00299125)
(4.01261 0.0783569 0.00290525)
(4.01328 0.0766664 0.0028211)
(4.01391 0.075186 0.00277736)
(4.01448 0.0738856 0.00278243)
(4.01502 0.0727418 0.00280368)
(4.01551 0.0717346 0.00282602)
(4.01597 0.0708446 0.00287685)
(4.0164 0.0700548 0.00296783)
(4.0168 0.0693528 0.00305741)
(4.01717 0.0687285 0.00313586)
(4.01752 0.068171 0.00323193)
(4.01785 0.067671 0.00333406)
(4.01817 0.0672216 0.00342188)
(4.01846 0.0668163 0.00350938)
(4.01874 0.0664486 0.00360358)
(4.01901 0.0661133 0.00369635)
(4.01927 0.0658062 0.00379186)
(4.01951 0.0655233 0.00389361)
(4.01975 0.0652616 0.0039948)
(4.01997 0.0650184 0.00409167)
(4.02019 0.0647911 0.00418568)
(4.0204 0.0645773 0.00428855)
(4.02061 0.0643752 0.0044093)
(4.02081 0.064182 0.0045336)
(4.021 0.0639962 0.00465419)
(4.0212 0.0638173 0.00477858)
(4.02138 0.0636441 0.00489897)
(4.02157 0.0634759 0.00500817)
(4.02175 0.0633122 0.005115)
(4.02193 0.0631519 0.00523387)
(4.02211 0.0629948 0.00536651)
(4.02228 0.0628403 0.00549467)
(4.02245 0.0626882 0.00560444)
(4.02262 0.0625382 0.00570998)
(4.02279 0.0623897 0.00582502)
(4.02296 0.0622432 0.00593666)
(4.02313 0.0620979 0.00604736)
(4.02329 0.0619537 0.00614729)
(4.02346 0.061811 0.00623069)
(4.02362 0.0616682 0.00631765)
(4.02379 0.0615246 0.006423)
(4.02396 0.0613783 0.00653908)
(4.02413 0.0612205 0.00662894)
(4.02433 0.0610215 0.00668967)
(4.02453 0.0605136 0.0067332)
(3.98982 -0.0197144 -7.58231e-05)
(3.98186 -0.0407603 0.000365543)
(3.9828 -0.0576524 0.00133923)
(3.98643 -0.0670791 0.00231918)
(3.99022 -0.0718576 0.00299546)
(3.99385 -0.0743573 0.00346971)
(3.99721 -0.0755407 0.00383825)
(4.00025 -0.0759101 0.00403986)
(4.00299 -0.0758191 0.00410752)
(4.00547 -0.0754849 0.00418257)
(4.0077 -0.0750229 0.00423038)
(4.00973 -0.0744984 0.00418579)
(4.01157 -0.0739525 0.00409643)
(4.01326 -0.0734082 0.00401827)
(4.0148 -0.0728769 0.00397459)
(4.01622 -0.0723631 0.00394946)
(4.01753 -0.0718698 0.00393106)
(4.01874 -0.0714002 0.00393515)
(4.01988 -0.0709547 0.00396092)
(4.02094 -0.0705297 0.00399467)
(4.02193 -0.0701224 0.00403346)
(4.02287 -0.0697328 0.00409422)
(4.02376 -0.0693605 0.00417683)
(4.02461 -0.0690027 0.00425157)
(4.02542 -0.0686565 0.00432476)
(4.0262 -0.0683218 0.00441979)
(4.02695 -0.0679979 0.00452037)
(4.02767 -0.0676829 0.00461552)
(4.02838 -0.0673761 0.00472069)
(4.02907 -0.067078 0.00483447)
(4.02974 -0.0667878 0.00494719)
(4.0304 -0.0665048 0.00506425)
(4.03106 -0.066229 0.00518623)
(4.0317 -0.06596 0.00530615)
(4.03233 -0.0656971 0.00542206)
(4.03296 -0.0654403 0.00553288)
(4.03359 -0.0651897 0.0056473)
(4.03421 -0.0649453 0.00577259)
(4.03483 -0.0647055 0.00589347)
(4.03545 -0.0644691 0.00600718)
(4.03606 -0.0642357 0.00612399)
(4.03668 -0.0640059 0.00623268)
(4.0373 -0.0637793 0.00632847)
(4.03792 -0.0635556 0.00642082)
(4.03854 -0.0633356 0.00651891)
(4.03916 -0.063119 0.00662654)
(4.03978 -0.0629056 0.00672457)
(4.04041 -0.062695 0.00680115)
(4.04103 -0.0624867 0.00687289)
(4.04167 -0.0622812 0.00694947)
(4.0423 -0.0620775 0.00702619)
(4.04294 -0.0618762 0.00709995)
(4.04358 -0.0616769 0.00716252)
(4.04422 -0.0614788 0.0072144)
(4.04487 -0.0612836 0.00726426)
(4.04552 -0.0610924 0.00732495)
(4.04617 -0.0609075 0.00739354)
(4.04682 -0.0607385 0.0074413)
(4.04745 -0.0606163 0.0074604)
(4.04796 -0.0606814 0.00746404)
(3.99816 -0.0016499 0.000274975)
(3.99613 0.00880883 0.000567911)
(3.99912 0.0200232 0.00106198)
(4.00299 0.0299773 0.00158495)
(4.00594 0.0382974 0.00186826)
(4.00825 0.0449042 0.00190499)
(4.01022 0.0501571 0.00182084)
(4.01194 0.0544052 0.00164603)
(4.01347 0.0578637 0.00142801)
(4.01485 0.0606808 0.00127206)
(4.01613 0.0629802 0.00115855)
(4.01732 0.064858 0.00104289)
(4.01843 0.0663844 0.000945527)
(4.01949 0.0676152 0.000893157)
(4.02049 0.0685983 0.000899363)
(4.02144 0.0693733 0.000946347)
(4.02235 0.0699719 0.00101015)
(4.02323 0.0704194 0.001076)
(4.02407 0.070739 0.00113053)
(4.02488 0.0709526 0.00117896)
(4.02566 0.0710776 0.0012259)
(4.02642 0.0711269 0.00127535)
(4.02715 0.0711125 0.00131946)
(4.02787 0.0710463 0.00134271)
(4.02857 0.0709379 0.00136457)
(4.02925 0.070794 0.00140307)
(4.02993 0.0706213 0.00144229)
(4.03059 0.0704263 0.00148297)
(4.03124 0.0702134 0.00154056)
(4.03188 0.0699854 0.00160684)
(4.03251 0.0697465 0.00167538)
(4.03314 0.0694997 0.00175528)
(4.03377 0.0692469 0.00184378)
(4.03439 0.0689901 0.00193344)
(4.03501 0.0687312 0.00202488)
(4.03562 0.0684713 0.00211558)
(4.03624 0.0682113 0.00221042)
(4.03685 0.0679513 0.00231273)
(4.03747 0.067692 0.00240689)
(4.03808 0.0674341 0.00249577)
(4.0387 0.0671781 0.00259042)
(4.03931 0.0669239 0.00267622)
(4.03993 0.0666723 0.00275173)
(4.04055 0.0664235 0.00282642)
(4.04117 0.0661771 0.00290358)
(4.0418 0.0659332 0.00298776)
(4.04243 0.0656919 0.00305998)
(4.04306 0.0654542 0.00311179)
(4.04369 0.0652196 0.00316107)
(4.04433 0.0649877 0.00321281)
(4.04497 0.0647591 0.00326869)
(4.04562 0.064533 0.00331933)
(4.04627 0.0643102 0.0033614)
(4.04692 0.0640911 0.00340172)
(4.04758 0.0638742 0.00343643)
(4.04824 0.0636587 0.00347623)
(4.04891 0.0634432 0.00352251)
(4.04956 0.0632229 0.00355495)
(4.05019 0.0629847 0.00355991)
(4.05089 0.062693 0.00355839)
(3.99793 -0.00102457 0.000191592)
(3.99506 -0.00121556 0.000285108)
(3.99583 -0.00452062 0.000700161)
(3.99831 -0.0103403 0.00138311)
(4.00076 -0.0172795 0.00197137)
(4.00313 -0.0244744 0.00225838)
(4.00552 -0.0313711 0.00230285)
(4.00781 -0.0376652 0.00218808)
(4.00996 -0.0432452 0.00198649)
(4.01194 -0.0481036 0.00179867)
(4.01378 -0.0522751 0.00165482)
(4.01547 -0.0558163 0.00155044)
(4.01703 -0.0587984 0.0014857)
(4.01848 -0.0612929 0.00146067)
(4.01982 -0.0633635 0.00149146)
(4.02107 -0.0650684 0.00156428)
(4.02223 -0.0664602 0.00164743)
(4.02332 -0.0675852 0.00171236)
(4.02434 -0.0684825 0.00175003)
(4.02531 -0.0691852 0.00178023)
(4.02623 -0.0697229 0.00180847)
(4.0271 -0.0701217 0.00182865)
(4.02793 -0.070403 0.00183162)
(4.02873 -0.0705843 0.00181183)
(4.0295 -0.0706819 0.00179132)
(4.03025 -0.0707102 0.00178128)
(4.03097 -0.07068 0.00176997)
(4.03167 -0.0706003 0.00176686)
(4.03236 -0.0704804 0.00178243)
(4.03303 -0.0703279 0.00180314)
(4.0337 -0.070148 0.00182911)
(4.03435 -0.0699455 0.00187344)
(4.03499 -0.0697251 0.00192971)
(4.03563 -0.0694906 0.00198956)
(4.03626 -0.0692448 0.00205584)
(4.03688 -0.0689904 0.00212654)
(4.03751 -0.0687297 0.00220307)
(4.03813 -0.0684654 0.002283)
(4.03875 -0.0681987 0.00235222)
(4.03937 -0.06793 0.0024186)
(4.03999 -0.0676609 0.00249035)
(4.04061 -0.0673921 0.00255075)
(4.04123 -0.0671241 0.00260212)
(4.04185 -0.0668574 0.00265337)
(4.04248 -0.0665929 0.002703)
(4.0431 -0.0663314 0.00275326)
(4.04373 -0.0660731 0.00278659)
(4.04437 -0.0658172 0.00280106)
(4.045 -0.0655632 0.00281573)
(4.04564 -0.0653118 0.00283118)
(4.04629 -0.0650628 0.00285205)
(4.04693 -0.0648167 0.00286507)
(4.04758 -0.0645727 0.00287291)
(4.04824 -0.0643308 0.0028862)
(4.0489 -0.0640916 0.00289181)
(4.04956 -0.0638558 0.00289797)
(4.05022 -0.0636242 0.0029072)
(4.05087 -0.0633989 0.00290582)
(4.05148 -0.0631881 0.00287797)
(4.05209 -0.0630166 0.00285152)
(3.99793 0.00101491 0.000167852)
(3.99506 0.00119405 0.000225663)
(3.99584 0.00448748 0.000600245)
(3.99831 0.0102951 0.00122324)
(4.00076 0.0172243 0.00174317)
(4.00314 0.02441 0.00195773)
(4.00553 0.0312979 0.0019178)
(4.00782 0.037595 0.00175626)
(4.00997 0.043188 0.00154178)
(4.01195 0.0480539 0.00132092)
(4.01379 0.052233 0.00114486)
(4.01548 0.0557884 0.00104067)
(4.01704 0.0587867 0.00099278)
(4.01848 0.0612954 0.00098472)
(4.01982 0.0633794 0.00103754)
(4.02107 0.0650967 0.00113655)
(4.02223 0.0664991 0.00124629)
(4.02332 0.0676328 0.00133741)
(4.02434 0.0685377 0.00140372)
(4.02531 0.0692476 0.00146784)
(4.02622 0.0697915 0.00153117)
(4.0271 0.0701946 0.00158333)
(4.02793 0.0704792 0.00161817)
(4.02873 0.0706641 0.00163517)
(4.0295 0.0707645 0.00165003)
(4.03024 0.0707931 0.001666)
(4.03097 0.0707625 0.00167814)