/*--------------------------------*- C++ -*----------------------------------*\
  =========                 |
  \\      /  F ield         | OpenFOAM: The Open Source CFD Toolbox
   \\    /   O peration     | Website:  https://openfoam.org
    \\  /    A nd           | Version:  8
     \\/     M anipulation  |
\*---------------------------------------------------------------------------*/
FoamFile
{
    version     2.0;
    format      ascii;
    class       volScalarField;
    location    "100";
    object      epsilon;
}
// * * * * * * * * * * * * * * * * * * * * * * * * * * * * * * * * * * * * * //

dimensions      [0 2 -3 0 0 0 0];

internalField   nonuniform List<scalar> 
1200
(
5.36391e-06
5.29994e-06
5.85027e-06
6.89239e-06
6.79872e-06
7.11261e-06
8.15996e-06
9.27927e-06
1.03344e-05
1.12363e-05
1.16886e-05
1.13765e-05
1.06925e-05
1.06102e-05
1.09639e-05
1.13544e-05
1.17928e-05
3.06699e-05
3.06287e-05
3.23232e-05
3.494e-05
3.79398e-05
4.15351e-05
4.74827e-05
5.30048e-05
5.58416e-05
5.34296e-05
4.60458e-05
0.000102586
0.000144842
0.00023843
0.000398862
0.000538226
0.000627573
0.000725603
0.000825488
0.000921087
0.00100299
0.00106407
0.00110472
0.00113319
0.00115953
0.00124306
0.00141147
0.00163404
0.00189272
0.00215354
0.00237369
0.00260291
0.00283991
0.00313095
0.00350117
0.0039638
0.00456067
0.00535986
0.00644547
0.00786788
0.00966739
0.0118254
0.0142898
5.3827e-06
4.7104e-06
4.6799e-06
5.47151e-06
6.13372e-06
7.16235e-06
9.3489e-06
1.00223e-05
1.01067e-05
1.02069e-05
1.0178e-05
1.00146e-05
9.8408e-06
9.80326e-06
9.85171e-06
9.96726e-06
1.02314e-05
1.06227e-05
1.08235e-05
1.07871e-05
1.09357e-05
1.10284e-05
1.10609e-05
1.12688e-05
1.16032e-05
4.94187e-05
4.94322e-05
4.93709e-05
5.18223e-05
5.1379e-05
5.62891e-05
7.58476e-05
0.000112234
0.000159794
0.000236697
0.000371475
0.000440012
0.0004406
0.000362167
0.000230608
0.000119578
7.64398e-05
7.6532e-05
9.41832e-05
0.000128103
0.000188015
0.000264702
0.000329535
0.00035894
0.00041393
0.000529176
0.000760057
0.00124229
0.0020481
0.00309149
0.00454973
0.00670238
0.00983018
0.0141359
0.0200254
5.37347e-06
4.63664e-06
4.2332e-06
4.36303e-06
6.66166e-06
8.33855e-06
8.79835e-06
8.97916e-06
9.00311e-06
8.9655e-06
8.83797e-06
8.64804e-06
8.67638e-06
8.89759e-06
9.09991e-06
9.32823e-06
9.59347e-06
9.85805e-06
1.01262e-05
1.03735e-05
1.05493e-05
1.05762e-05
1.05666e-05
1.05765e-05
1.06277e-05
1.06975e-05
1.07946e-05
1.08677e-05
1.0829e-05
1.06993e-05
1.07178e-05
1.11905e-05
5.04627e-05
5.99749e-05
0.00010026
0.000191099
0.00020841
0.000170046
0.000115933
7.07773e-05
1.13486e-05
1.07883e-05
1.07659e-05
1.0811e-05
1.09267e-05
1.12591e-05
1.13126e-05
5.69173e-05
6.70335e-05
7.38909e-05
8.13646e-05
9.71452e-05
0.000154447
0.000257242
0.000378735
0.000497017
0.00114061
0.0033254
0.00666497
0.0151884
5.37287e-06
4.62803e-06
4.05003e-06
3.82275e-06
4.82535e-06
6.80737e-06
7.30581e-06
7.13231e-06
6.94362e-06
7.00757e-06
6.86076e-06
6.86576e-06
7.45263e-06
7.99277e-06
8.09338e-06
8.40746e-06
8.92365e-06
9.12916e-06
9.26496e-06
9.40585e-06
9.55097e-06
9.68589e-06
9.78221e-06
9.84479e-06
9.89887e-06
9.97112e-06
1.00747e-05
1.01686e-05
1.01654e-05
1.01041e-05
1.00718e-05
1.01484e-05
1.03834e-05
1.09009e-05
5.20326e-05
0.000107009
0.000129613
0.000125115
0.000106966
7.96113e-05
5.36633e-05
1.12063e-05
1.09736e-05
1.09314e-05
1.11979e-05
5.34037e-05
5.00537e-05
1.13848e-05
1.11424e-05
1.10711e-05
1.10441e-05
1.11882e-05
5.24289e-05
6.63829e-05
8.0859e-05
0.000124575
0.000267553
0.000860105
0.0020537
0.00590422
5.37287e-06
4.63215e-06
4.0241e-06
3.66396e-06
4.02919e-06
5.32078e-06
6.01561e-06
6.0203e-06
6.46471e-06
6.74506e-06
6.05882e-06
6.19074e-06
7.26128e-06
8.43468e-06
9.02744e-06
9.2335e-06
9.33011e-06
9.43813e-06
9.48094e-06
9.46528e-06
9.43959e-06
9.4262e-06
9.41036e-06
9.40026e-06
9.40638e-06
9.46223e-06
9.58139e-06
9.69438e-06
9.71613e-06
9.62577e-06
9.615e-06
9.70621e-06
9.91179e-06
1.03192e-05
1.09864e-05
6.96296e-05
9.11408e-05
0.000104951
0.000108693
9.68003e-05
6.57574e-05
1.15241e-05
1.12058e-05
1.10259e-05
1.14158e-05
7.41754e-05
7.44715e-05
6.022e-05
4.94251e-05
1.12824e-05
1.10071e-05
1.0872e-05
1.09349e-05
1.14162e-05
4.98136e-05
6.1522e-05
0.000114047
0.000334228
0.000839327
0.0020919
5.37362e-06
4.63642e-06
4.02236e-06
3.60191e-06
3.61734e-06
4.29357e-06
4.81707e-06
4.91606e-06
4.95881e-06
4.80185e-06
4.44242e-06
4.15251e-06
4.51025e-06
6.51171e-06
8.30784e-06
8.88154e-06
9.16745e-06
9.31199e-06
9.34378e-06
9.28646e-06
9.174e-06
9.02079e-06
8.83859e-06
8.66359e-06
8.50922e-06
8.55823e-06
8.77107e-06
8.98111e-06
9.08332e-06
9.1942e-06
9.45236e-06
9.55493e-06
9.49963e-06
9.71251e-06
1.03489e-05
4.93074e-05
6.86702e-05
8.35605e-05
9.13908e-05
8.92042e-05
7.51465e-05
5.77218e-05
1.13875e-05
1.11005e-05
4.91242e-05
0.000102415
0.000116708
9.3243e-05
7.09516e-05
5.47697e-05
4.93836e-05
1.12899e-05
1.11264e-05
1.10877e-05
1.11905e-05
1.12857e-05
6.31174e-05
0.00013653
0.000306815
0.00065953
5.37418e-06
4.63953e-06
4.0266e-06
3.56665e-06
3.39411e-06
3.62212e-06
3.87997e-06
3.9643e-06
3.90179e-06
3.72624e-06
3.50129e-06
3.3002e-06
3.21039e-06
3.42491e-06
4.40122e-06
6.16954e-06
7.67334e-06
8.46775e-06
8.81294e-06
8.93676e-06
8.99061e-06
8.95535e-06
8.5364e-06
8.10776e-06
7.6769e-06
7.55239e-06
7.73427e-06
8.13764e-06
8.53396e-06
9.00962e-06
9.66293e-06
1.01217e-05
1.00078e-05
9.43225e-06
9.3095e-06
1.0423e-05
5.03485e-05
5.87861e-05
6.34388e-05
6.41722e-05
5.97425e-05
5.15586e-05
1.14235e-05
1.11435e-05
5.29979e-05
0.000139994
0.0001753
0.000126959
8.9164e-05
6.4504e-05
4.975e-05
1.1603e-05
4.91663e-05
4.92001e-05
1.14158e-05
1.13284e-05
5.0606e-05
7.10374e-05
0.000123488
0.000213839
5.37457e-06
4.64368e-06
4.03714e-06
3.55564e-06
3.2695e-06
3.22831e-06
3.26167e-06
3.25223e-06
3.16834e-06
3.02291e-06
2.85998e-06
2.70505e-06
2.5624e-06
2.43745e-06
2.45712e-06
3.01706e-06
4.11604e-06
5.25293e-06
6.13355e-06
6.74789e-06
7.26311e-06
7.75111e-06
7.92783e-06
7.83239e-06
7.58407e-06
7.28236e-06
7.14912e-06
7.30325e-06
7.84611e-06
8.86167e-06
1.01335e-05
1.11461e-05
1.1357e-05
1.09965e-05
1.05515e-05
9.87274e-06
1.02832e-05
1.11891e-05
1.13157e-05
1.15204e-05
1.13477e-05
1.10633e-05
1.09366e-05
1.14179e-05
6.46435e-05
0.00019914
0.000264546
0.000155054
0.000101829
5.96219e-05
7.71892e-05
0.00015098
0.000215616
0.000177323
0.000236449
0.000394432
0.000617348
0.000644191
0.000559042
0.00106115
5.38187e-06
4.66534e-06
4.0741e-06
3.60052e-06
3.25863e-06
3.06999e-06
2.9625e-06
2.87227e-06
2.7717e-06
2.66013e-06
2.55965e-06
2.5022e-06
2.42445e-06
2.35711e-06
2.31445e-06
2.3906e-06
2.69224e-06
3.14108e-06
3.59954e-06
4.0159e-06
4.44002e-06
4.92862e-06
5.37377e-06
5.54918e-06
5.55448e-06
5.85394e-06
6.41633e-06
7.36604e-06
8.91179e-06
1.08629e-05
5.35477e-05
6.07701e-05
5.95694e-05
5.03676e-05
1.11955e-05
1.05924e-05
1.02645e-05
1.02081e-05
1.02851e-05
1.04269e-05
1.05316e-05
1.061e-05
1.14496e-05
5.71793e-05
9.22869e-05
0.000309353
0.000431478
0.000212837
0.000207903
0.000291159
0.000410233
0.000590267
0.000828267
0.00111183
0.0014491
0.0019503
0.00276964
0.00414284
0.00680319
0.0135922
5.34796e-06
5.26532e-06
5.14836e-06
4.92415e-06
4.62792e-06
4.47442e-06
4.52202e-06
4.72224e-06
5.09937e-06
5.67402e-06
6.39136e-06
7.20454e-06
8.13324e-06
8.94452e-06
9.47334e-06
9.69457e-06
9.82446e-06
1.01077e-05
1.06375e-05
1.13636e-05
1.169e-05
3.07464e-05
3.20329e-05
3.47167e-05
3.89817e-05
4.36653e-05
4.90464e-05
5.57229e-05
6.41931e-05
7.3742e-05
8.10701e-05
8.14604e-05
7.61469e-05
6.95977e-05
6.0568e-05
5.50984e-05
5.30475e-05
5.21698e-05
5.28508e-05
5.54701e-05
6.07894e-05
7.17784e-05
8.70965e-05
0.00010314
0.00011387
0.000364374
0.000707941
0.000754691
0.000753938
0.000773465
0.000857532
0.000998971
0.0011672
0.00133427
0.00152156
0.00180009
0.00224499
0.00293777
0.00436903
0.00953691
5.36651e-06
5.30512e-06
5.93375e-06
7.05208e-06
6.8818e-06
7.08222e-06
8.06709e-06
9.17714e-06
1.02375e-05
1.11561e-05
1.16523e-05
1.14037e-05
1.07212e-05
1.05987e-05
1.09379e-05
1.13192e-05
1.17628e-05
3.06622e-05
1.19167e-05
3.20126e-05
3.44674e-05
3.73607e-05
4.07232e-05
4.64068e-05
5.20463e-05
5.51619e-05
5.30702e-05
4.50927e-05
6.32159e-05
8.81884e-05
0.000162407
0.00034465
0.000553485
0.000651135
0.000743214
0.00083524
0.000922226
0.000996504
0.00105283
0.00109246
0.00112371
0.001157
0.00124564
0.0014111
0.00162581
0.00187598
0.00213401
0.00235155
0.00257909
0.00281599
0.00310369
0.00347006
0.00393771
0.00454913
0.00536082
0.00644868
0.00786613
0.00966376
0.0118157
0.0142761
5.39188e-06
4.71884e-06
4.62415e-06
5.29351e-06
5.99666e-06
7.04316e-06
9.24633e-06
9.97051e-06
1.00538e-05
1.01577e-05
1.01324e-05
9.96592e-06
9.78159e-06
9.7347e-06
9.78081e-06
9.88994e-06
1.01483e-05
1.05419e-05
1.0747e-05
1.07111e-05
1.08587e-05
1.0958e-05
1.09869e-05
1.12018e-05
1.1455e-05
4.90821e-05
4.97114e-05
4.93885e-05
5.15343e-05
5.17184e-05
6.08316e-05
9.07898e-05
0.000135173
0.000177585
0.000245934
0.000361045
0.00041635
0.000406502
0.000324895
0.000201077
0.000104317
7.13856e-05
7.40647e-05
9.17143e-05
0.000124991
0.000183948
0.000259682
0.000324459
0.000353124
0.000410409
0.000539852
0.000809594
0.00135356
0.00216791
0.00317471
0.00451742
0.00663642
0.00982664
0.0140777
0.0200606
5.37343e-06
4.63425e-06
4.19593e-06
4.25624e-06
6.62502e-06
8.30638e-06
8.75585e-06
8.9324e-06
8.95192e-06
8.91355e-06
8.78298e-06
8.5867e-06
8.59539e-06
8.81556e-06
9.01471e-06
9.24354e-06
9.51805e-06
9.79159e-06
1.00642e-05
1.03078e-05
1.04747e-05
1.05008e-05
1.04984e-05
1.05258e-05
1.05991e-05
1.0693e-05
1.08025e-05
1.0868e-05
1.08279e-05
1.07105e-05
1.09181e-05
4.95158e-05
5.28346e-05
6.29202e-05
0.00010395
0.000180219
0.000189682
0.000155925
0.000118023
7.48831e-05
1.14385e-05
1.0852e-05
1.08224e-05
1.08698e-05
1.09662e-05
1.11845e-05
1.15164e-05
5.79611e-05
6.9293e-05
7.68119e-05
8.73582e-05
0.000110859
0.000179121
0.000270386
0.000340118
0.00045887
0.0011305
0.00323087
0.00661647
0.0152769
5.37286e-06
4.62562e-06
4.05099e-06
3.80681e-06
4.7805e-06
6.76689e-06
7.26364e-06
7.08797e-06
6.98705e-06
7.05184e-06
6.90284e-06
6.93635e-06
7.5289e-06
8.04453e-06
8.13187e-06
8.47106e-06
8.98791e-06
9.19824e-06
9.33322e-06
9.47095e-06
9.61373e-06
9.74383e-06
9.82874e-06
9.88012e-06
9.92335e-06
9.98789e-06
1.00903e-05
1.01935e-05
1.02125e-05
1.0173e-05
1.01495e-05
1.02323e-05
1.04663e-05
1.09471e-05
5.0867e-05
0.000106854
0.00012881
0.000131647
0.000115945
8.58213e-05
5.61444e-05
1.12685e-05
1.10217e-05
1.10007e-05
1.12451e-05
5.2239e-05
4.9415e-05
1.13027e-05
1.10825e-05
1.1e-05
1.0952e-05
1.10611e-05
5.26135e-05
6.56534e-05
6.3686e-05
8.50487e-05
0.000166696
0.000495727
0.00122217
0.00498928
5.37396e-06
4.63206e-06
4.02838e-06
3.68033e-06
4.01202e-06
5.2805e-06
5.98175e-06
6.05869e-06
6.52352e-06
6.79754e-06
6.11472e-06
6.2776e-06
7.36656e-06
8.52083e-06
9.08964e-06
9.29096e-06
9.389e-06
9.49556e-06
9.5403e-06
9.52565e-06
9.49748e-06
9.47904e-06
9.45443e-06
9.43415e-06
9.43081e-06
9.48089e-06
9.60183e-06
9.72427e-06
9.76665e-06
9.69679e-06
9.70086e-06
9.79458e-06
1.0018e-05
1.04369e-05
1.10446e-05
7.1047e-05
9.56923e-05
0.000113402
0.000117634
0.000102474
6.77855e-05
4.92062e-05
1.12509e-05
1.10974e-05
1.14915e-05
7.29151e-05
7.10741e-05
5.76307e-05
4.8984e-05
1.12638e-05
1.10155e-05
1.09073e-05
1.09752e-05
1.14675e-05
5.03111e-05
5.68104e-05
8.95627e-05
0.000250449
0.000696403
0.00197915
5.37474e-06
4.63738e-06
4.02501e-06
3.61543e-06
3.63057e-06
4.27026e-06
4.79422e-06
4.95372e-06
5.03006e-06
4.86504e-06
4.48495e-06
4.19742e-06
4.60754e-06
6.67058e-06
8.40584e-06
8.93441e-06
9.21899e-06
9.36535e-06
9.4e-06
9.34526e-06
9.23299e-06
9.07478e-06
8.88113e-06
8.68853e-06
8.51825e-06
8.57209e-06
8.79045e-06
9.00532e-06
9.13126e-06
9.28672e-06
9.52742e-06
9.59534e-06
9.55359e-06
9.8182e-06
1.04825e-05
1.15761e-05
7.35446e-05
9.10863e-05
9.97643e-05
9.56796e-05
7.80207e-05
5.90581e-05
1.15137e-05
1.11654e-05
4.92516e-05
0.000103854
0.00011339
9.02728e-05
6.89865e-05
5.37747e-05
4.91775e-05
1.1304e-05
1.11796e-05
1.11531e-05
1.1291e-05
1.14722e-05
5.91101e-05
0.000121086
0.000285905
0.000661385
5.37489e-06
4.64058e-06
4.02769e-06
3.57378e-06
3.4083e-06
3.62492e-06
3.88068e-06
3.98447e-06
3.93331e-06
3.75902e-06
3.53528e-06
3.33586e-06
3.25668e-06
3.51218e-06
4.58957e-06
6.39843e-06
7.82065e-06
8.55313e-06
8.87739e-06
8.99809e-06
9.05006e-06
9.00654e-06
8.57738e-06
8.12151e-06
7.69028e-06
7.61196e-06
7.82597e-06
8.25772e-06
8.70803e-06
9.22042e-06
9.85542e-06
1.02019e-05
9.99445e-06
9.41181e-06
9.38927e-06
1.05793e-05
5.35001e-05
6.39453e-05
6.97614e-05
7.05741e-05
6.48278e-05
5.448e-05
1.14555e-05
1.11536e-05
5.4872e-05
0.000146269
0.000173424
0.000125189
8.78875e-05
6.39476e-05
4.9548e-05
1.1526e-05
5.15518e-05
5.06066e-05
1.13566e-05
1.13367e-05
1.15211e-05
6.68036e-05
0.00011711
0.000214782
5.37444e-06
4.64287e-06
4.0356e-06
3.55639e-06
3.27698e-06
3.23715e-06
3.27409e-06
3.26966e-06
3.18372e-06
3.03125e-06
2.85748e-06
2.69708e-06
2.55027e-06
2.43701e-06
2.50987e-06
3.13784e-06
4.25882e-06
5.3767e-06
6.23013e-06
6.83134e-06
7.34933e-06
7.83925e-06
7.99593e-06
7.87985e-06
7.60309e-06
7.31313e-06
7.23839e-06
7.49913e-06
8.16379e-06
9.21624e-06
1.04891e-05
1.13307e-05
1.13922e-05
1.09795e-05
1.0563e-05
9.9768e-06
1.02451e-05
1.11365e-05
1.12203e-05
1.1478e-05
1.13008e-05
1.09906e-05
1.08581e-05
1.13298e-05
6.67333e-05
0.000212166
0.000264474
0.000153869
9.92983e-05
6.10621e-05
7.35335e-05
0.000143074
0.000205328
0.00016078
0.000223421
0.000371462
0.000562335
0.000554593
0.000480582
0.000872283
5.38226e-06
4.66417e-06
4.07238e-06
3.59822e-06
3.25671e-06
3.06834e-06
2.96122e-06
2.86929e-06
2.76464e-06
2.64846e-06
2.58535e-06
2.54447e-06
2.44638e-06
2.35881e-06
2.30572e-06
2.38032e-06
2.68408e-06
3.13361e-06
3.59197e-06
4.01329e-06
4.4511e-06
4.96822e-06
5.41843e-06
5.57453e-06
5.66362e-06
6.04835e-06
6.72735e-06
7.82929e-06
9.52074e-06
1.12808e-05
5.64121e-05
6.22979e-05
5.91322e-05
4.94645e-05
1.11019e-05
1.0528e-05
1.02188e-05
1.0171e-05
1.01904e-05
1.02564e-05
1.03052e-05
1.03957e-05
1.135e-05
5.72667e-05
9.63869e-05
0.000335668
0.000433232
0.000211106
0.000202939
0.000290981
0.000415406
0.000605015
0.000864786
0.00119143
0.00160713
0.00221116
0.00316954
0.00473548
0.00768305
0.0144741
5.35463e-06
5.28238e-06
5.16386e-06
4.91403e-06
4.63305e-06
4.48906e-06
4.52879e-06
4.75378e-06
5.15805e-06
5.75265e-06
6.45029e-06
7.26526e-06
8.22006e-06
9.03689e-06
9.55978e-06
9.78715e-06
9.94613e-06
1.02735e-05
1.08519e-05
1.1599e-05
1.18843e-05
3.13078e-05
3.26609e-05
3.55502e-05
3.98318e-05
4.46502e-05
5.0401e-05
5.77873e-05
6.7093e-05
7.68814e-05
8.30057e-05
8.15339e-05
7.57676e-05
6.94752e-05
6.07072e-05
5.57429e-05
5.3815e-05
5.28472e-05
5.3513e-05
5.63076e-05
6.21809e-05
7.44237e-05
9.09363e-05
0.000107337
0.000116926
0.000403289
0.00073833
0.000790443
0.00078689
0.00080006
0.000883305
0.00102637
0.00119618
0.00136714
0.00156257
0.00185325
0.00231672
0.00303656
0.00454092
0.00992231
)
;

boundaryField
{
    wall
    {
        type            epsilonWallFunction;
        value           nonuniform List<scalar> 
1200
(
5.36391e-06
5.3827e-06
5.37347e-06
5.37287e-06
5.37287e-06
5.37362e-06
5.37418e-06
5.37457e-06
5.38187e-06
5.34796e-06
5.29994e-06
4.7104e-06
4.63664e-06
4.62803e-06
4.63215e-06
4.63642e-06
4.63953e-06
4.64368e-06
4.66534e-06
5.26532e-06
5.85027e-06
4.6799e-06
4.2332e-06
4.05003e-06
4.0241e-06
4.02236e-06
4.0266e-06
4.03714e-06
4.0741e-06
5.14836e-06
6.89239e-06
5.47151e-06
4.36303e-06
3.82275e-06
3.66396e-06
3.60191e-06
3.56665e-06
3.55564e-06
3.60052e-06
4.92415e-06
6.79872e-06
6.13372e-06
6.66166e-06
4.82535e-06
4.02919e-06
3.61734e-06
3.39411e-06
3.2695e-06
3.25863e-06
4.62792e-06
7.11261e-06
7.16235e-06
8.33855e-06
6.80737e-06
5.32078e-06
4.29357e-06
3.62212e-06
3.22831e-06
3.06999e-06
4.47442e-06
8.15996e-06
9.3489e-06
8.79835e-06
7.30581e-06
6.01561e-06
4.81707e-06
3.87997e-06
3.26167e-06
2.9625e-06
4.52202e-06
9.27927e-06
1.00223e-05
8.97916e-06
7.13231e-06
6.0203e-06
4.91606e-06
3.9643e-06
3.25223e-06
2.87227e-06
4.72224e-06
1.03344e-05
1.01067e-05
9.00311e-06
6.94362e-06
6.46471e-06
4.95881e-06
3.90179e-06
3.16834e-06
2.7717e-06
5.09937e-06
1.12363e-05
1.02069e-05
8.9655e-06
7.00757e-06
6.74506e-06
4.80185e-06
3.72624e-06
3.02291e-06
2.66013e-06
5.67402e-06
1.16886e-05
1.0178e-05
8.83797e-06
6.86076e-06
6.05882e-06
4.44242e-06
3.50129e-06
2.85998e-06
2.55965e-06
6.39136e-06
1.13765e-05
1.00146e-05
8.64804e-06
6.86576e-06
6.19074e-06
4.15251e-06
3.3002e-06
2.70505e-06
2.5022e-06
7.20454e-06
1.06925e-05
9.8408e-06
8.67638e-06
7.45263e-06
7.26128e-06
4.51025e-06
3.21039e-06
2.5624e-06
2.42445e-06
8.13324e-06
1.06102e-05
9.80326e-06
8.89759e-06
7.99277e-06
8.43468e-06
6.51171e-06
3.42491e-06
2.43745e-06
2.35711e-06
8.94452e-06
1.09639e-05
9.85171e-06
9.09991e-06
8.09338e-06
9.02744e-06
8.30784e-06
4.40122e-06
2.45712e-06
2.31445e-06
9.47334e-06
1.13544e-05
9.96726e-06
9.32823e-06
8.40746e-06
9.2335e-06
8.88154e-06
6.16954e-06
3.01706e-06
2.3906e-06
9.69457e-06
1.17928e-05
1.02314e-05
9.59347e-06
8.92365e-06
9.33011e-06
9.16745e-06
7.67334e-06
4.11604e-06
2.69224e-06
9.82446e-06
3.06699e-05
1.06227e-05
9.85805e-06
9.12916e-06
9.43813e-06
9.31199e-06
8.46775e-06
5.25293e-06
3.14108e-06
1.01077e-05
3.06287e-05
1.08235e-05
1.01262e-05
9.26496e-06
9.48094e-06
9.34378e-06
8.81294e-06
6.13355e-06
3.59954e-06
1.06375e-05
3.23232e-05
1.07871e-05
1.03735e-05
9.40585e-06
9.46528e-06
9.28646e-06
8.93676e-06
6.74789e-06
4.0159e-06
1.13636e-05
3.494e-05
1.09357e-05
1.05493e-05
9.55097e-06
9.43959e-06
9.174e-06
8.99061e-06
7.26311e-06
4.44002e-06
1.169e-05
3.79398e-05
1.10284e-05
1.05762e-05
9.68589e-06
9.4262e-06
9.02079e-06
8.95535e-06
7.75111e-06
4.92862e-06
3.07464e-05
4.15351e-05
1.10609e-05
1.05666e-05
9.78221e-06
9.41036e-06
8.83859e-06
8.5364e-06
7.92783e-06
5.37377e-06
3.20329e-05
4.74827e-05
1.12688e-05
1.05765e-05
9.84479e-06
9.40026e-06
8.66359e-06
8.10776e-06
7.83239e-06
5.54918e-06
3.47167e-05
5.30048e-05
1.16032e-05
1.06277e-05
9.89887e-06
9.40638e-06
8.50922e-06
7.6769e-06
7.58407e-06
5.55448e-06
3.89817e-05
5.58416e-05
4.94187e-05
1.06975e-05
9.97112e-06
9.46223e-06
8.55823e-06
7.55239e-06
7.28236e-06
5.85394e-06
4.36653e-05
5.34296e-05
4.94322e-05
1.07946e-05
1.00747e-05
9.58139e-06
8.77107e-06
7.73427e-06
7.14912e-06
6.41633e-06
4.90464e-05
4.60458e-05
4.93709e-05
1.08677e-05
1.01686e-05
9.69438e-06
8.98111e-06
8.13764e-06
7.30325e-06
7.36604e-06
5.57229e-05
0.000102586
5.18223e-05
1.0829e-05
1.01654e-05
9.71613e-06
9.08332e-06
8.53396e-06
7.84611e-06
8.91179e-06
6.41931e-05
0.000144842
5.1379e-05
1.06993e-05
1.01041e-05
9.62577e-06
9.1942e-06
9.00962e-06
8.86167e-06
1.08629e-05
7.3742e-05
0.00023843
5.62891e-05
1.07178e-05
1.00718e-05
9.615e-06
9.45236e-06
9.66293e-06
1.01335e-05
5.35477e-05
8.10701e-05
0.000398862
7.58476e-05
1.11905e-05
1.01484e-05
9.70621e-06
9.55493e-06
1.01217e-05
1.11461e-05
6.07701e-05
8.14604e-05
0.000538226
0.000112234
5.04627e-05
1.03834e-05
9.91179e-06
9.49963e-06
1.00078e-05
1.1357e-05
5.95694e-05
7.61469e-05
0.000627573
0.000159794
5.99749e-05
1.09009e-05
1.03192e-05
9.71251e-06
9.43225e-06
1.09965e-05
5.03676e-05
6.95977e-05
0.000725603
0.000236697
0.00010026
5.20326e-05
1.09864e-05
1.03489e-05
9.3095e-06
1.05515e-05
1.11955e-05
6.0568e-05
0.000825488
0.000371475
0.000191099
0.000107009
6.96296e-05
4.93074e-05
1.0423e-05
9.87274e-06
1.05924e-05
5.50984e-05
0.000921087
0.000440012
0.00020841
0.000129613
9.11408e-05
6.86702e-05
5.03485e-05
1.02832e-05
1.02645e-05
5.30475e-05
0.00100299
0.0004406
0.000170046
0.000125115
0.000104951
8.35605e-05
5.87861e-05
1.11891e-05
1.02081e-05
5.21698e-05
0.00106407
0.000362167
0.000115933
0.000106966
0.000108693
9.13908e-05
6.34388e-05
1.13157e-05
1.02851e-05
5.28508e-05
0.00110472
0.000230608
7.07773e-05
7.96113e-05
9.68003e-05
8.92042e-05
6.41722e-05
1.15204e-05
1.04269e-05
5.54701e-05
0.00113319
0.000119578
1.13486e-05
5.36633e-05
6.57574e-05
7.51465e-05
5.97425e-05
1.13477e-05
1.05316e-05
6.07894e-05
0.00115953
7.64398e-05
1.07883e-05
1.12063e-05
1.15241e-05
5.77218e-05
5.15586e-05
1.10633e-05
1.061e-05
7.17784e-05
0.00124306
7.6532e-05
1.07659e-05
1.09736e-05
1.12058e-05
1.13875e-05
1.14235e-05
1.09366e-05
1.14496e-05
8.70965e-05
0.00141147
9.41832e-05
1.0811e-05
1.09314e-05
1.10259e-05
1.11005e-05
1.11435e-05
1.14179e-05
5.71793e-05
0.00010314
0.00163404
0.000128103
1.09267e-05
1.11979e-05
1.14158e-05
4.91242e-05
5.29979e-05
6.46435e-05
9.22869e-05
0.00011387
0.00189272
0.000188015
1.12591e-05
5.34037e-05
7.41754e-05
0.000102415
0.000139994
0.00019914
0.000309353
0.000364374
0.00215354
0.000264702
1.13126e-05
5.00537e-05
7.44715e-05
0.000116708
0.0001753
0.000264546
0.000431478
0.000707941
0.00237369
0.000329535
5.69173e-05
1.13848e-05
6.022e-05
9.3243e-05
0.000126959
0.000155054
0.000212837
0.000754691
0.00260291
0.00035894
6.70335e-05
1.11424e-05
4.94251e-05
7.09516e-05
8.9164e-05
0.000101829
0.000207903
0.000753938
0.00283991
0.00041393
7.38909e-05
1.10711e-05
1.12824e-05
5.47697e-05
6.4504e-05
5.96219e-05
0.000291159
0.000773465
0.00313095
0.000529176
8.13646e-05
1.10441e-05
1.10071e-05
4.93836e-05
4.975e-05
7.71892e-05
0.000410233
0.000857532
0.00350117
0.000760057
9.71452e-05
1.11882e-05
1.0872e-05
1.12899e-05
1.1603e-05
0.00015098
0.000590267
0.000998971
0.0039638
0.00124229
0.000154447
5.24289e-05
1.09349e-05
1.11264e-05
4.91663e-05
0.000215616
0.000828267
0.0011672
0.00456067
0.0020481
0.000257242
6.63829e-05
1.14162e-05
1.10877e-05
4.92001e-05
0.000177323
0.00111183
0.00133427
0.00535986
0.00309149
0.000378735
8.0859e-05
4.98136e-05
1.11905e-05
1.14158e-05
0.000236449
0.0014491
0.00152156
0.00644547
0.00454973
0.000497017
0.000124575
6.1522e-05
1.12857e-05
1.13284e-05
0.000394432
0.0019503
0.00180009
0.00786788
0.00670238
0.00114061
0.000267553
0.000114047
6.31174e-05
5.0606e-05
0.000617348
0.00276964
0.00224499
0.00966739
0.00983018
0.0033254
0.000860105
0.000334228
0.00013653
7.10374e-05
0.000644191
0.00414284
0.00293777
0.0118254
0.0141359
0.00666497
0.0020537
0.000839327
0.000306815
0.000123488
0.000559042
0.00680319
0.00436903
0.0142898
0.0200254
0.0151884
0.00590422
0.0020919
0.00065953
0.000213839
0.00106115
0.0135922
0.00953691
5.36651e-06
5.39188e-06
5.37343e-06
5.37286e-06
5.37396e-06
5.37474e-06
5.37489e-06
5.37444e-06
5.38226e-06
5.35463e-06
5.30512e-06
4.71884e-06
4.63425e-06
4.62562e-06
4.63206e-06
4.63738e-06
4.64058e-06
4.64287e-06
4.66417e-06
5.28238e-06
5.93375e-06
4.62415e-06
4.19593e-06
4.05099e-06
4.02838e-06
4.02501e-06
4.02769e-06
4.0356e-06
4.07238e-06
5.16386e-06
7.05208e-06
5.29351e-06
4.25624e-06
3.80681e-06
3.68033e-06
3.61543e-06
3.57378e-06
3.55639e-06
3.59822e-06
4.91403e-06
6.8818e-06
5.99666e-06
6.62502e-06
4.7805e-06
4.01202e-06
3.63057e-06
3.4083e-06
3.27698e-06
3.25671e-06
4.63305e-06
7.08222e-06
7.04316e-06
8.30638e-06
6.76689e-06
5.2805e-06
4.27026e-06
3.62492e-06
3.23715e-06
3.06834e-06
4.48906e-06
8.06709e-06
9.24633e-06
8.75585e-06
7.26364e-06
5.98175e-06
4.79422e-06
3.88068e-06
3.27409e-06
2.96122e-06
4.52879e-06
9.17714e-06
9.97051e-06
8.9324e-06
7.08797e-06
6.05869e-06
4.95372e-06
3.98447e-06
3.26966e-06
2.86929e-06
4.75378e-06
1.02375e-05
1.00538e-05
8.95192e-06
6.98705e-06
6.52352e-06
5.03006e-06
3.93331e-06
3.18372e-06
2.76464e-06
5.15805e-06
1.11561e-05
1.01577e-05
8.91355e-06
7.05184e-06
6.79754e-06
4.86504e-06
3.75902e-06
3.03125e-06
2.64846e-06
5.75265e-06
1.16523e-05
1.01324e-05
8.78298e-06
6.90284e-06
6.11472e-06
4.48495e-06
3.53528e-06
2.85748e-06
2.58535e-06
6.45029e-06
1.14037e-05
9.96592e-06
8.5867e-06
6.93635e-06
6.2776e-06
4.19742e-06
3.33586e-06
2.69708e-06
2.54447e-06
7.26526e-06
1.07212e-05
9.78159e-06
8.59539e-06
7.5289e-06
7.36656e-06
4.60754e-06
3.25668e-06
2.55027e-06
2.44638e-06
8.22006e-06
1.05987e-05
9.7347e-06
8.81556e-06
8.04453e-06
8.52083e-06
6.67058e-06
3.51218e-06
2.43701e-06
2.35881e-06
9.03689e-06
1.09379e-05
9.78081e-06
9.01471e-06
8.13187e-06
9.08964e-06
8.40584e-06
4.58957e-06
2.50987e-06
2.30572e-06
9.55978e-06
1.13192e-05
9.88994e-06
9.24354e-06
8.47106e-06
9.29096e-06
8.93441e-06
6.39843e-06
3.13784e-06
2.38032e-06
9.78715e-06
1.17628e-05
1.01483e-05
9.51805e-06
8.98791e-06
9.389e-06
9.21899e-06
7.82065e-06
4.25882e-06
2.68408e-06
9.94613e-06
3.06622e-05
1.05419e-05
9.79159e-06
9.19824e-06
9.49556e-06
9.36535e-06
8.55313e-06
5.3767e-06
3.13361e-06
1.02735e-05
1.19167e-05
1.0747e-05
1.00642e-05
9.33322e-06
9.5403e-06
9.4e-06
8.87739e-06
6.23013e-06
3.59197e-06
1.08519e-05
3.20126e-05
1.07111e-05
1.03078e-05
9.47095e-06
9.52565e-06
9.34526e-06
8.99809e-06
6.83134e-06
4.01329e-06
1.1599e-05
3.44674e-05
1.08587e-05
1.04747e-05
9.61373e-06
9.49748e-06
9.23299e-06
9.05006e-06
7.34933e-06
4.4511e-06
1.18843e-05
3.73607e-05
1.0958e-05
1.05008e-05
9.74383e-06
9.47904e-06
9.07478e-06
9.00654e-06
7.83925e-06
4.96822e-06
3.13078e-05
4.07232e-05
1.09869e-05
1.04984e-05
9.82874e-06
9.45443e-06
8.88113e-06
8.57738e-06
7.99593e-06
5.41843e-06
3.26609e-05
4.64068e-05
1.12018e-05
1.05258e-05
9.88012e-06
9.43415e-06
8.68853e-06
8.12151e-06
7.87985e-06
5.57453e-06
3.55502e-05
5.20463e-05
1.1455e-05
1.05991e-05
9.92335e-06
9.43081e-06
8.51825e-06
7.69028e-06
7.60309e-06
5.66362e-06
3.98318e-05
5.51619e-05
4.90821e-05
1.0693e-05
9.98789e-06
9.48089e-06
8.57209e-06
7.61196e-06
7.31313e-06
6.04835e-06
4.46502e-05
5.30702e-05
4.97114e-05
1.08025e-05
1.00903e-05
9.60183e-06
8.79045e-06
7.82597e-06
7.23839e-06
6.72735e-06
5.0401e-05
4.50927e-05
4.93885e-05
1.0868e-05
1.01935e-05
9.72427e-06
9.00532e-06
8.25772e-06
7.49913e-06
7.82929e-06
5.77873e-05
6.32159e-05
5.15343e-05
1.08279e-05
1.02125e-05
9.76665e-06
9.13126e-06
8.70803e-06
8.16379e-06
9.52074e-06
6.7093e-05
8.81884e-05
5.17184e-05
1.07105e-05
1.0173e-05
9.69679e-06
9.28672e-06
9.22042e-06
9.21624e-06
1.12808e-05
7.68814e-05
0.000162407
6.08316e-05
1.09181e-05
1.01495e-05
9.70086e-06
9.52742e-06
9.85542e-06
1.04891e-05
5.64121e-05
8.30057e-05
0.00034465
9.07898e-05
4.95158e-05
1.02323e-05
9.79458e-06
9.59534e-06
1.02019e-05
1.13307e-05
6.22979e-05
8.15339e-05
0.000553485
0.000135173
5.28346e-05
1.04663e-05
1.0018e-05
9.55359e-06
9.99445e-06
1.13922e-05
5.91322e-05
7.57676e-05
0.000651135
0.000177585
6.29202e-05
1.09471e-05
1.04369e-05
9.8182e-06
9.41181e-06
1.09795e-05
4.94645e-05
6.94752e-05
0.000743214
0.000245934
0.00010395
5.0867e-05
1.10446e-05
1.04825e-05
9.38927e-06
1.0563e-05
1.11019e-05
6.07072e-05
0.00083524
0.000361045
0.000180219
0.000106854
7.1047e-05
1.15761e-05
1.05793e-05
9.9768e-06
1.0528e-05
5.57429e-05
0.000922226
0.00041635
0.000189682
0.00012881
9.56923e-05
7.35446e-05
5.35001e-05
1.02451e-05
1.02188e-05
5.3815e-05
0.000996504
0.000406502
0.000155925
0.000131647
0.000113402
9.10863e-05
6.39453e-05
1.11365e-05
1.0171e-05
5.28472e-05
0.00105283
0.000324895
0.000118023
0.000115945
0.000117634
9.97643e-05
6.97614e-05
1.12203e-05
1.01904e-05
5.3513e-05
0.00109246
0.000201077
7.48831e-05
8.58213e-05
0.000102474
9.56796e-05
7.05741e-05
1.1478e-05
1.02564e-05
5.63076e-05
0.00112371
0.000104317
1.14385e-05
5.61444e-05
6.77855e-05
7.80207e-05
6.48278e-05
1.13008e-05
1.03052e-05
6.21809e-05
0.001157
7.13856e-05
1.0852e-05
1.12685e-05
4.92062e-05
5.90581e-05
5.448e-05
1.09906e-05
1.03957e-05
7.44237e-05
0.00124564
7.40647e-05
1.08224e-05
1.10217e-05
1.12509e-05
1.15137e-05
1.14555e-05
1.08581e-05
1.135e-05
9.09363e-05
0.0014111
9.17143e-05
1.08698e-05
1.10007e-05
1.10974e-05
1.11654e-05
1.11536e-05
1.13298e-05
5.72667e-05
0.000107337
0.00162581
0.000124991
1.09662e-05
1.12451e-05
1.14915e-05
4.92516e-05
5.4872e-05
6.67333e-05
9.63869e-05
0.000116926
0.00187598
0.000183948
1.11845e-05
5.2239e-05
7.29151e-05
0.000103854
0.000146269
0.000212166
0.000335668
0.000403289
0.00213401
0.000259682
1.15164e-05
4.9415e-05
7.10741e-05
0.00011339
0.000173424
0.000264474
0.000433232
0.00073833
0.00235155
0.000324459
5.79611e-05
1.13027e-05
5.76307e-05
9.02728e-05
0.000125189
0.000153869
0.000211106
0.000790443
0.00257909
0.000353124
6.9293e-05
1.10825e-05
4.8984e-05
6.89865e-05
8.78875e-05
9.92983e-05
0.000202939
0.00078689
0.00281599
0.000410409
7.68119e-05
1.1e-05
1.12638e-05
5.37747e-05
6.39476e-05
6.10621e-05
0.000290981
0.00080006
0.00310369
0.000539852
8.73582e-05
1.0952e-05
1.10155e-05
4.91775e-05
4.9548e-05
7.35335e-05
0.000415406
0.000883305
0.00347006
0.000809594
0.000110859
1.10611e-05
1.09073e-05
1.1304e-05
1.1526e-05
0.000143074
0.000605015
0.00102637
0.00393771
0.00135356
0.000179121
5.26135e-05
1.09752e-05
1.11796e-05
5.15518e-05
0.000205328
0.000864786
0.00119618
0.00454913
0.00216791
0.000270386
6.56534e-05
1.14675e-05
1.11531e-05
5.06066e-05
0.00016078
0.00119143
0.00136714
0.00536082
0.00317471
0.000340118
6.3686e-05
5.03111e-05
1.1291e-05
1.13566e-05
0.000223421
0.00160713
0.00156257
0.00644868
0.00451742
0.00045887
8.50487e-05
5.68104e-05
1.14722e-05
1.13367e-05
0.000371462
0.00221116
0.00185325
0.00786613
0.00663642
0.0011305
0.000166696
8.95627e-05
5.91101e-05
1.15211e-05
0.000562335
0.00316954
0.00231672
0.00966376
0.00982664
0.00323087
0.000495727
0.000250449
0.000121086
6.68036e-05
0.000554593
0.00473548
0.00303656
0.0118157
0.0140777
0.00661647
0.00122217
0.000696403
0.000285905
0.00011711
0.000480582
0.00768305
0.00454092
0.0142761
0.0200606
0.0152769
0.00498928
0.00197915
0.000661385
0.000214782
0.000872283
0.0144741
0.00992231
)
;
    }
    inlet
    {
        type            turbulentMixingLengthDissipationRateInlet;
        mixingLength    0.071;
        phi             phi;
        k               k;
        value           uniform 2.72107e-07;
    }
    outlet
    {
        type            inletOutlet;
        inletValue      uniform 0.0001;
        value           nonuniform List<scalar> 
20
(
0.0001
0.0001
0.0001
0.00590422
0.0020919
0.00065953
0.000213839
0.00106115
0.0001
0.00953691
0.0001
0.0001
0.0001
0.00498928
0.00197915
0.000661385
0.000214782
0.000872283
0.0001
0.00992231
)
;
    }
    heatWall
    {
        type            epsilonWallFunction;
        value           nonuniform List<scalar> 
240
(
5.34796e-06
5.35463e-06
5.26532e-06
5.28238e-06
5.14836e-06
5.16386e-06
4.92415e-06
4.91403e-06
4.62792e-06
4.63305e-06
4.47442e-06
4.48906e-06
4.52202e-06
4.52879e-06
4.72224e-06
4.75378e-06
5.09937e-06
5.15805e-06