/*--------------------------------*- C++ -*----------------------------------*\
  =========                 |
  \\      /  F ield         | OpenFOAM: The Open Source CFD Toolbox
   \\    /   O peration     | Website:  https://openfoam.org
    \\  /    A nd           | Version:  8
     \\/     M anipulation  |
\*---------------------------------------------------------------------------*/
FoamFile
{
    version     2.0;
    format      ascii;
    class       volScalarField;
    location    "100";
    object      k;
}
// * * * * * * * * * * * * * * * * * * * * * * * * * * * * * * * * * * * * * //

dimensions      [0 2 -2 0 0 0 0];

internalField   nonuniform List<scalar> 
1200
(
2.37338e-05
2.34945e-05
2.53612e-05
2.88923e-05
2.86328e-05
2.97185e-05
3.32379e-05
3.69285e-05
4.03053e-05
4.31358e-05
4.45862e-05
4.37255e-05
4.16136e-05
4.12997e-05
4.23789e-05
4.35683e-05
4.49149e-05
4.52162e-05
4.52954e-05
4.68915e-05
4.9343e-05
5.21032e-05
5.52864e-05
6.04033e-05
6.50822e-05
6.74942e-05
6.56356e-05
6.16762e-05
0.000121404
0.000151668
0.000204115
0.000269856
0.000314233
0.000345266
0.000377989
0.000409835
0.000439143
0.000463464
0.000481264
0.000493085
0.000501559
0.000509645
0.000535163
0.000582839
0.000642037
0.00070743
0.000770919
0.000822527
0.000874672
0.000927001
0.000989214
0.00106567
0.00115822
0.00127304
0.00141896
0.00160507
0.00183301
0.00210248
0.00240468
0.00272871
2.0965e-05
1.83392e-05
1.81027e-05
2.10065e-05
2.36883e-05
2.77628e-05
3.63565e-05
3.90733e-05
3.9401e-05
3.97983e-05
3.96911e-05
3.9047e-05
3.83487e-05
3.81876e-05
3.83738e-05
3.88134e-05
3.98351e-05
4.13698e-05
4.2162e-05
4.20207e-05
4.26003e-05
4.29741e-05
4.30939e-05
4.39375e-05
4.54284e-05
4.55498e-05
4.57059e-05
4.58209e-05
4.89441e-05
4.84597e-05
5.22877e-05
6.4357e-05
8.22713e-05
0.000102454
0.000131352
0.000173794
0.000192961
0.000191681
0.000166725
0.000122109
7.83231e-05
5.96033e-05
6.04612e-05
6.96719e-05
8.55446e-05
0.000110489
0.000138893
0.000160724
0.000170052
0.0001876
0.000222672
0.000287323
0.000403272
0.000559946
0.000733495
0.000946162
0.00121932
0.00156508
0.00198574
0.00250125
2.09305e-05
1.80587e-05
1.64238e-05
1.68197e-05
2.59417e-05
3.25265e-05
3.43075e-05
3.50083e-05
3.5094e-05
3.49445e-05
3.44386e-05
3.36826e-05
3.37551e-05
3.46184e-05
3.54051e-05
3.62948e-05
3.73459e-05
3.83966e-05
3.94542e-05
4.04152e-05
4.10858e-05
4.11921e-05
4.11648e-05
4.12369e-05
4.14858e-05
4.17933e-05
4.21884e-05
4.24804e-05
4.24102e-05
4.18376e-05
4.21464e-05
4.43187e-05
4.66477e-05
5.27821e-05
7.44171e-05
0.000110792
0.00011538
9.92135e-05
7.74998e-05
5.6047e-05
4.38629e-05
4.20452e-05
4.19686e-05
4.2141e-05
4.26186e-05
4.41229e-05
4.51871e-05
5.05675e-05
5.65515e-05
6.0729e-05
6.53891e-05
7.44403e-05
0.000101798
0.000140535
0.000177071
0.000209162
0.000372496
0.000759465
0.00120857
0.00208471
2.0927e-05
1.80252e-05
1.57552e-05
1.48085e-05
1.87362e-05
2.65271e-05
2.84756e-05
2.77463e-05
2.70006e-05
2.72921e-05
2.67358e-05
2.67098e-05
2.89928e-05
3.11436e-05
3.15583e-05
3.27453e-05
3.47601e-05
3.55542e-05
3.60863e-05
3.66436e-05
3.72106e-05
3.77352e-05
3.81283e-05
3.83945e-05
3.8631e-05
3.89379e-05
3.93606e-05
3.97244e-05
3.96778e-05
3.93917e-05
3.92629e-05
3.95117e-05
4.04097e-05
4.24946e-05
4.77165e-05
7.48657e-05
8.41661e-05
8.19599e-05
7.43551e-05
6.14208e-05
4.76404e-05
4.37097e-05
4.28001e-05
4.25923e-05
4.36226e-05
4.83229e-05
4.62728e-05
4.46547e-05
4.3722e-05
4.35451e-05
4.36475e-05
4.46529e-05
4.85042e-05
5.61721e-05
5.97901e-05
7.74423e-05
0.000130356
0.00027985
0.000492584
0.00104791
2.0926e-05
1.80423e-05
1.56665e-05
1.42274e-05
1.56399e-05
2.06867e-05
2.34189e-05
2.34e-05
2.51549e-05
2.62671e-05
2.35784e-05
2.40435e-05
2.81977e-05
3.28158e-05
3.51711e-05
3.59848e-05
3.63584e-05
3.6782e-05
3.69481e-05
3.6886e-05
3.67883e-05
3.67428e-05
3.66946e-05
3.66721e-05
3.67125e-05
3.69422e-05
3.74091e-05
3.78405e-05
3.78919e-05
3.75132e-05
3.74247e-05
3.7774e-05
3.85431e-05
4.01029e-05
4.28347e-05
5.65274e-05
6.67847e-05
7.32444e-05
7.5343e-05
7.02714e-05
5.47229e-05
4.55005e-05
4.37985e-05
4.29555e-05
4.42099e-05
5.99144e-05
6.07385e-05
5.27604e-05
4.58438e-05
4.41361e-05
4.30174e-05
4.2457e-05
4.27173e-05
4.45296e-05
4.49554e-05
5.05387e-05
7.61591e-05
0.000156057
0.000293967
0.000546759
2.09303e-05
1.8061e-05
1.56657e-05
1.40055e-05
1.40472e-05
1.66724e-05
1.87234e-05
1.90948e-05
1.92498e-05
1.86419e-05
1.72692e-05
1.61362e-05
1.74549e-05
2.51737e-05
3.22947e-05
3.46161e-05
3.57343e-05
3.62964e-05
3.64166e-05
3.61894e-05
3.57487e-05
3.51568e-05
3.44637e-05
3.38074e-05
3.32295e-05
3.34135e-05
3.42442e-05
3.50643e-05
3.54397e-05
3.57635e-05
3.67792e-05
3.72519e-05
3.70362e-05
3.77761e-05
4.02113e-05
4.46747e-05
5.53542e-05
6.2943e-05
6.69071e-05
6.61913e-05
5.95899e-05
5.02102e-05
4.51295e-05
4.3267e-05
4.40729e-05
7.34013e-05
8.14134e-05
7.03371e-05
5.86088e-05
4.91904e-05
4.48786e-05
4.40186e-05
4.33811e-05
4.31964e-05
4.34131e-05
4.45993e-05
5.33176e-05
8.97318e-05
0.000157043
0.000259521
2.09328e-05
1.80741e-05
1.56876e-05
1.38819e-05
1.31921e-05
1.40636e-05
1.50654e-05
1.53923e-05
1.51448e-05
1.44628e-05
1.35928e-05
1.28107e-05
1.24479e-05
1.3224e-05
1.68755e-05
2.37098e-05
2.9721e-05
3.29357e-05
3.43247e-05
3.48147e-05
3.5028e-05
3.49055e-05
3.32824e-05
3.16494e-05
2.99718e-05
2.94278e-05
3.00974e-05
3.16402e-05
3.30495e-05
3.47981e-05
3.7332e-05
3.9324e-05
3.91105e-05
3.69144e-05
3.62612e-05
4.0428e-05
4.53102e-05
4.98926e-05
5.23385e-05
5.27006e-05
5.03844e-05
4.59594e-05
4.43545e-05
4.33251e-05
4.69345e-05
8.96163e-05
0.000106216
8.60255e-05
6.80845e-05
5.4774e-05
4.59756e-05
4.53519e-05
4.46465e-05
4.38927e-05
4.39939e-05
4.38921e-05
4.53719e-05
5.85623e-05
8.70274e-05
0.000123427
2.0936e-05
1.80902e-05
1.5727e-05
1.38459e-05
1.27193e-05
1.25448e-05
1.26671e-05
1.26268e-05
1.22995e-05
1.17372e-05
1.11044e-05
1.05e-05
9.94188e-06
9.43973e-06
9.46326e-06
1.15408e-05
1.57912e-05
2.02697e-05
2.37634e-05
2.61939e-05
2.82127e-05
3.01242e-05
3.08457e-05
3.05087e-05
2.9595e-05
2.84073e-05
2.77983e-05
2.82003e-05
3.00406e-05
3.38403e-05
3.87837e-05
4.30367e-05
4.4235e-05
4.29882e-05
4.13088e-05
3.87999e-05
3.98894e-05
4.3141e-05
4.41751e-05
4.47697e-05
4.41135e-05
4.3036e-05
4.25421e-05
4.42777e-05
5.34502e-05
0.000112779
0.000139473
9.83011e-05
7.48816e-05
5.20345e-05
6.05944e-05
9.46453e-05
0.000120108
0.00010342
0.000127593
0.000179235
0.000239179
0.000241012
0.000218381
0.000330769
2.09646e-05
1.81752e-05
1.58719e-05
1.40219e-05
1.26832e-05
1.19403e-05
1.15151e-05
1.11598e-05
1.0766e-05
1.03306e-05
9.93405e-06
9.70566e-06
9.39922e-06
9.13371e-06
8.95929e-06
9.22451e-06
1.03648e-05
1.21014e-05
1.38912e-05
1.55118e-05
1.71403e-05
1.90433e-05
2.07962e-05
2.15381e-05
2.14769e-05
2.25131e-05
2.44772e-05
2.78759e-05
3.35867e-05
4.14028e-05
4.72737e-05
5.19031e-05
5.17471e-05
4.65208e-05
4.39447e-05
4.15877e-05
4.02166e-05
3.98523e-05
3.99586e-05
4.03385e-05
4.06623e-05
4.10015e-05
4.43191e-05
4.95476e-05
6.78137e-05
0.000150864
0.000193353
0.000121499
0.00011952
0.000148453
0.000186033
0.000236213
0.000294392
0.000355355
0.000419722
0.000507619
0.000636518
0.000829486
0.00115324
0.00187574
2.36768e-05
2.33753e-05
2.29447e-05
2.21159e-05
2.10062e-05
2.04256e-05
2.05988e-05
2.13426e-05
2.27267e-05
2.47972e-05
2.73282e-05
3.0119e-05
3.32177e-05
3.5878e-05
3.76012e-05
3.83178e-05
3.87052e-05
3.95545e-05
4.11613e-05
4.33762e-05
4.51698e-05
4.55347e-05
4.66298e-05
4.90833e-05
5.29977e-05
5.71115e-05
6.16028e-05
6.68628e-05
7.32499e-05
8.03406e-05
8.60283e-05
8.69762e-05
8.34134e-05
7.85063e-05
7.15118e-05
6.69308e-05
6.51852e-05
6.45069e-05
6.50851e-05
6.71834e-05
7.12733e-05
7.92774e-05
8.99234e-05
0.000100694
0.000107962
0.000229386
0.000363682
0.000379157
0.000379333
0.000386779
0.000414826
0.000459666
0.000510332
0.000557936
0.000608507
0.000679983
0.000786835
0.000940282
0.00122418
0.00206196
2.37416e-05
2.35123e-05
2.56465e-05
2.94288e-05
2.8923e-05
2.96182e-05
3.29313e-05
3.65961e-05
3.99955e-05
4.28848e-05
4.44685e-05
4.38023e-05
4.1708e-05
4.1271e-05
4.23023e-05
4.34626e-05
4.48206e-05
4.49291e-05
4.55543e-05
4.66273e-05
4.89128e-05
5.15857e-05
5.45846e-05
5.94944e-05
6.43028e-05
6.69474e-05
6.53432e-05
6.11159e-05
8.80339e-05
0.000111983
0.000166142
0.000255432
0.000321161
0.000352688
0.000383047
0.000412243
0.000438992
0.000461203
0.000477781
0.000489463
0.000498887
0.000509111
0.000535917
0.000582665
0.000639775
0.000703115
0.000766164
0.000817362
0.0008693
0.000921725
0.000983365
0.00105945
0.00115364
0.00127137
0.00141926
0.00160523
0.00183209
0.0021011
0.00240266
0.00272651
2.10007e-05
1.83731e-05
1.78986e-05
2.03274e-05
2.31507e-05
2.72935e-05
3.59513e-05
3.8872e-05
3.91955e-05
3.96066e-05
3.9514e-05
3.88593e-05
3.81198e-05
3.79212e-05
3.80982e-05
3.85128e-05
3.95117e-05
4.10563e-05
4.18648e-05
4.17256e-05
4.22997e-05
4.26976e-05
4.28043e-05
4.37035e-05
4.53417e-05
4.53903e-05
4.59442e-05
4.61389e-05
4.92472e-05
4.95868e-05
5.64732e-05
7.32404e-05
9.13666e-05
0.000107934
0.000133453
0.000170059
0.000185731
0.000181454
0.000154917
0.000111395
7.16582e-05
5.71653e-05
5.92365e-05
6.85003e-05
8.41882e-05
0.000108889
0.000137159
0.000159127
0.000168375
0.000186875
0.00022651
0.000300869
0.000425713
0.000576698
0.000737842
0.000927646
0.00119512
0.00154741
0.00196513
0.00250356
2.09298e-05
1.80494e-05
1.62873e-05
1.64189e-05
2.57975e-05
3.23994e-05
3.41405e-05
3.48261e-05
3.48936e-05
3.47408e-05
3.42246e-05
3.34446e-05
3.34383e-05
3.42976e-05
3.50724e-05
3.59644e-05
3.70513e-05
3.81362e-05
3.92114e-05
4.0157e-05
4.07937e-05
4.09016e-05
4.09052e-05
4.1047e-05
4.13877e-05
4.17821e-05
4.22538e-05
4.2577e-05
4.26138e-05
4.21053e-05
4.31562e-05
4.53115e-05
4.76243e-05
5.39332e-05
7.56272e-05
0.000106182
0.000108337
9.41226e-05
7.87434e-05
5.82323e-05
4.43504e-05
4.22861e-05
4.2188e-05
4.23721e-05
4.27841e-05
4.38136e-05
4.53237e-05
5.11697e-05
5.78624e-05
6.24507e-05
6.88116e-05
8.1697e-05
0.000112758
0.000146198
0.000165253
0.00019901
0.000369828
0.000739984
0.00118101
0.00207742
2.09266e-05
1.80175e-05
1.57589e-05
1.475e-05
1.85683e-05
2.6368e-05
2.83133e-05
2.75768e-05
2.71716e-05
2.74684e-05
2.69001e-05
2.69827e-05
2.92896e-05
3.13468e-05
3.17075e-05
3.299e-05
3.50105e-05
3.58237e-05
3.63513e-05
3.68955e-05
3.74543e-05
3.7962e-05
3.831e-05
3.85306e-05
3.87227e-05
3.89965e-05
3.94107e-05
3.98074e-05
3.98457e-05
3.96469e-05
3.95472e-05
3.98376e-05
4.07484e-05
4.26864e-05
4.68888e-05
7.48324e-05
8.40399e-05
8.50294e-05
7.84323e-05
6.44639e-05
4.90118e-05
4.39197e-05
4.29844e-05
4.28657e-05
4.38586e-05
4.76803e-05
4.5762e-05
4.4293e-05
4.34683e-05
4.32482e-05
4.32512e-05
4.40878e-05
4.87566e-05
5.59059e-05
5.25759e-05
5.91742e-05
8.93317e-05
0.000177569
0.000327426
0.000817256
2.09317e-05
1.80439e-05
1.56822e-05
1.42889e-05
1.55758e-05
2.05285e-05
2.32844e-05
2.35472e-05
2.53852e-05
2.64708e-05
2.37946e-05
2.43785e-05
2.86074e-05
3.31527e-05
3.54139e-05
3.62074e-05
3.65872e-05
3.7006e-05
3.71783e-05
3.71191e-05
3.70126e-05
3.69482e-05
3.68659e-05
3.68037e-05
3.68061e-05
3.70114e-05
3.74808e-05
3.79453e-05
3.80744e-05
3.77649e-05
3.77582e-05
3.8118e-05
3.89638e-05
4.05797e-05
4.3021e-05
5.75039e-05
6.90923e-05
7.71968e-05
7.9381e-05
7.29298e-05
5.58038e-05
4.52264e-05
4.39122e-05
4.32342e-05
4.46921e-05
5.95451e-05
5.90206e-05
5.12438e-05
4.54322e-05
4.40228e-05
4.30206e-05
4.25544e-05
4.28352e-05
4.47155e-05
4.53329e-05
4.81973e-05
6.2975e-05
0.00012144
0.000244843
0.000490148
2.09365e-05
1.80664e-05
1.56753e-05
1.40563e-05
1.40978e-05
1.65796e-05
1.86294e-05
1.92366e-05
1.95301e-05
1.88985e-05
1.74385e-05
1.63103e-05
1.78261e-05
2.57907e-05
3.2684e-05
3.48222e-05
3.59357e-05
3.65043e-05
3.66349e-05
3.64167e-05
3.59776e-05
3.53674e-05
3.46301e-05
3.39065e-05
3.32651e-05
3.34585e-05
3.43028e-05
3.51357e-05
3.55882e-05
3.61326e-05
3.71055e-05
3.74265e-05
3.72325e-05
3.81797e-05
4.07281e-05
4.55014e-05
5.80748e-05
6.67088e-05
7.09455e-05
6.94028e-05
6.12084e-05
5.1055e-05
4.51626e-05
4.34983e-05
4.49097e-05
7.4635e-05
8.01764e-05
6.89248e-05
5.75172e-05
4.8549e-05
4.51212e-05
4.41091e-05
4.35677e-05
4.34377e-05
4.38122e-05
4.45181e-05
5.01502e-05
7.9865e-05
0.000144674
0.000247444
2.09368e-05
1.8081e-05
1.56915e-05
1.39082e-05
1.32464e-05
1.40734e-05
1.50645e-05
1.54645e-05
1.52607e-05
1.4589e-05
1.37265e-05
1.29505e-05
1.26269e-05
1.35522e-05
1.75892e-05
2.46056e-05
3.03106e-05
3.32771e-05
3.45776e-05
3.50535e-05
3.52597e-05
3.5105e-05
3.34437e-05
3.17075e-05
3.0017e-05
2.9631e-05
3.03978e-05
3.20316e-05
3.37095e-05
3.56422e-05
3.81567e-05
3.97279e-05
3.9087e-05
3.68053e-05
3.65364e-05
4.10747e-05
4.72458e-05
5.27731e-05
5.57315e-05
5.61694e-05
5.32604e-05
4.77556e-05
4.47399e-05
4.34204e-05
4.80567e-05
9.28622e-05
0.000105818
8.52098e-05
6.73321e-05
5.43842e-05
4.57667e-05
4.50447e-05
4.59601e-05
4.52872e-05
4.42582e-05
4.40233e-05
4.54081e-05
5.57152e-05
8.21534e-05
0.000119023
2.09355e-05
1.80882e-05
1.57227e-05
1.38495e-05
1.27482e-05
1.25787e-05
1.27139e-05
1.26918e-05
1.23561e-05
1.17658e-05
1.10921e-05
1.04695e-05
9.89699e-06
9.44001e-06
9.66691e-06
1.20093e-05
1.63508e-05
2.07603e-05
2.41498e-05
2.65265e-05
2.8552e-05
3.04711e-05
3.11151e-05
3.06954e-05
2.9666e-05
2.85085e-05
2.81e-05
2.88989e-05
3.12332e-05
3.52635e-05
4.02428e-05
4.3922e-05
4.44764e-05
4.29702e-05
4.13383e-05
3.9196e-05
3.98014e-05
4.28415e-05
4.42538e-05
4.48284e-05
4.39866e-05
4.27699e-05
4.22267e-05
4.38774e-05
5.4568e-05
0.000118233
0.00013971
9.75456e-05
7.34922e-05
5.30916e-05
5.87171e-05
9.12939e-05
0.000116358
9.77175e-05
0.000122947
0.000172188
0.000224322
0.000217395
0.000197199
0.000288553
2.09663e-05
1.81727e-05
1.58673e-05
1.40143e-05
1.26768e-05
1.19343e-05
1.15102e-05
1.11481e-05
1.07385e-05
1.02848e-05
1.00352e-05
9.87759e-06
9.49871e-06
9.14956e-06
8.93051e-06
9.18726e-06
1.03341e-05
1.20726e-05
1.38627e-05
1.55056e-05
1.72014e-05
1.92098e-05
2.09834e-05
2.16482e-05
2.19018e-05
2.3264e-05
2.56762e-05
2.96563e-05
3.59535e-05
4.34097e-05
4.91336e-05
5.29269e-05
5.15963e-05
4.58885e-05
4.35345e-05
4.13088e-05
4.00188e-05
3.96957e-05
3.96698e-05
3.97785e-05
3.98484e-05
4.01874e-05
4.3808e-05
4.9413e-05
6.98378e-05
0.000159947
0.00019383
0.000120698
0.000118023
0.000149126
0.000188498
0.000241282
0.000304568
0.000374478
0.000453433
0.000557518
0.000705176
0.000920815
0.00127708
0.00198071
2.3703e-05
2.34363e-05
2.29984e-05
2.20767e-05
2.10248e-05
2.04808e-05
2.06255e-05
2.14597e-05
2.29417e-05
2.50815e-05
2.75373e-05
3.03234e-05
3.34994e-05
3.61765e-05
3.78788e-05
3.86105e-05
3.90834e-05
4.00616e-05
4.18116e-05
4.41085e-05
4.56543e-05
4.60843e-05
4.72618e-05
4.98907e-05
5.37724e-05
5.79428e-05
6.26522e-05
6.83779e-05
7.53385e-05
8.26226e-05
8.75436e-05
8.71392e-05
8.30964e-05
7.83479e-05
7.15271e-05
6.73742e-05
6.57721e-05
6.50362e-05
6.55924e-05
6.78076e-05
7.22734e-05
8.11004e-05
9.24773e-05
0.000103413
0.000109952
0.00024617
0.000374174
0.00039097
0.000390117
0.000395447
0.00042305
0.000467999
0.000518698
0.000567087
0.000619647
0.000693914
0.000804688
0.000963335
0.00125812
0.00211737
)
;

boundaryField
{
    wall
    {
        type            kqRWallFunction;
        value           nonuniform List<scalar> 
1200
(
2.37338e-05
2.0965e-05
2.09305e-05
2.0927e-05
2.0926e-05
2.09303e-05
2.09328e-05
2.0936e-05
2.09646e-05
2.36768e-05
2.34945e-05
1.83392e-05
1.80587e-05
1.80252e-05
1.80423e-05
1.8061e-05
1.80741e-05
1.80902e-05
1.81752e-05
2.33753e-05
2.53612e-05
1.81027e-05
1.64238e-05
1.57552e-05
1.56665e-05
1.56657e-05
1.56876e-05
1.5727e-05
1.58719e-05
2.29447e-05
2.88923e-05
2.10065e-05
1.68197e-05
1.48085e-05
1.42274e-05
1.40055e-05
1.38819e-05
1.38459e-05
1.40219e-05
2.21159e-05
2.86328e-05
2.36883e-05
2.59417e-05
1.87362e-05
1.56399e-05
1.40472e-05
1.31921e-05
1.27193e-05
1.26832e-05
2.10062e-05
2.97185e-05
2.77628e-05
3.25265e-05
2.65271e-05
2.06867e-05
1.66724e-05
1.40636e-05
1.25448e-05
1.19403e-05
2.04256e-05
3.32379e-05
3.63565e-05
3.43075e-05
2.84756e-05
2.34189e-05
1.87234e-05
1.50654e-05
1.26671e-05
1.15151e-05
2.05988e-05
3.69285e-05
3.90733e-05
3.50083e-05
2.77463e-05
2.34e-05
1.90948e-05
1.53923e-05
1.26268e-05
1.11598e-05
2.13426e-05
4.03053e-05
3.9401e-05
3.5094e-05
2.70006e-05
2.51549e-05
1.92498e-05
1.51448e-05
1.22995e-05
1.0766e-05
2.27267e-05
4.31358e-05
3.97983e-05
3.49445e-05
2.72921e-05
2.62671e-05
1.86419e-05
1.44628e-05
1.17372e-05
1.03306e-05
2.47972e-05
4.45862e-05
3.96911e-05
3.44386e-05
2.67358e-05
2.35784e-05
1.72692e-05
1.35928e-05
1.11044e-05
9.93405e-06
2.73282e-05
4.37255e-05
3.9047e-05
3.36826e-05
2.67098e-05
2.40435e-05
1.61362e-05
1.28107e-05
1.05e-05
9.70566e-06
3.0119e-05
4.16136e-05
3.83487e-05
3.37551e-05
2.89928e-05
2.81977e-05
1.74549e-05
1.24479e-05
9.94188e-06
9.39922e-06
3.32177e-05
4.12997e-05
3.81876e-05
3.46184e-05
3.11436e-05
3.28158e-05
2.51737e-05
1.3224e-05
9.43973e-06
9.13371e-06
3.5878e-05
4.23789e-05
3.83738e-05
3.54051e-05
3.15583e-05
3.51711e-05
3.22947e-05
1.68755e-05
9.46326e-06
8.95929e-06
3.76012e-05
4.35683e-05
3.88134e-05
3.62948e-05
3.27453e-05
3.59848e-05
3.46161e-05
2.37098e-05
1.15408e-05
9.22451e-06
3.83178e-05
4.49149e-05
3.98351e-05
3.73459e-05
3.47601e-05
3.63584e-05
3.57343e-05
2.9721e-05
1.57912e-05
1.03648e-05
3.87052e-05
4.52162e-05
4.13698e-05
3.83966e-05
3.55542e-05
3.6782e-05
3.62964e-05
3.29357e-05
2.02697e-05
1.21014e-05
3.95545e-05
4.52954e-05
4.2162e-05
3.94542e-05
3.60863e-05
3.69481e-05
3.64166e-05
3.43247e-05
2.37634e-05
1.38912e-05
4.11613e-05
4.68915e-05
4.20207e-05
4.04152e-05
3.66436e-05
3.6886e-05
3.61894e-05
3.48147e-05
2.61939e-05
1.55118e-05
4.33762e-05
4.9343e-05
4.26003e-05
4.10858e-05
3.72106e-05
3.67883e-05
3.57487e-05
3.5028e-05
2.82127e-05
1.71403e-05
4.51698e-05
5.21032e-05
4.29741e-05
4.11921e-05
3.77352e-05
3.67428e-05
3.51568e-05
3.49055e-05
3.01242e-05
1.90433e-05
4.55347e-05
5.52864e-05
4.30939e-05
4.11648e-05
3.81283e-05
3.66946e-05
3.44637e-05
3.32824e-05
3.08457e-05
2.07962e-05
4.66298e-05
6.04033e-05
4.39375e-05
4.12369e-05
3.83945e-05
3.66721e-05
3.38074e-05
3.16494e-05
3.05087e-05
2.15381e-05
4.90833e-05
6.50822e-05
4.54284e-05
4.14858e-05
3.8631e-05
3.67125e-05
3.32295e-05
2.99718e-05
2.9595e-05
2.14769e-05
5.29977e-05
6.74942e-05
4.55498e-05
4.17933e-05
3.89379e-05
3.69422e-05
3.34135e-05
2.94278e-05
2.84073e-05
2.25131e-05
5.71115e-05
6.56356e-05
4.57059e-05
4.21884e-05
3.93606e-05
3.74091e-05
3.42442e-05
3.00974e-05
2.77983e-05
2.44772e-05
6.16028e-05
6.16762e-05
4.58209e-05
4.24804e-05
3.97244e-05
3.78405e-05
3.50643e-05
3.16402e-05
2.82003e-05
2.78759e-05
6.68628e-05
0.000121404
4.89441e-05
4.24102e-05
3.96778e-05
3.78919e-05
3.54397e-05
3.30495e-05
3.00406e-05
3.35867e-05
7.32499e-05
0.000151668
4.84597e-05
4.18376e-05
3.93917e-05
3.75132e-05
3.57635e-05
3.47981e-05
3.38403e-05
4.14028e-05
8.03406e-05
0.000204115
5.22877e-05
4.21464e-05
3.92629e-05
3.74247e-05
3.67792e-05
3.7332e-05
3.87837e-05
4.72737e-05
8.60283e-05
0.000269856
6.4357e-05
4.43187e-05
3.95117e-05
3.7774e-05
3.72519e-05
3.9324e-05
4.30367e-05
5.19031e-05
8.69762e-05
0.000314233
8.22713e-05
4.66477e-05
4.04097e-05
3.85431e-05
3.70362e-05
3.91105e-05
4.4235e-05
5.17471e-05
8.34134e-05
0.000345266
0.000102454
5.27821e-05
4.24946e-05
4.01029e-05
3.77761e-05
3.69144e-05
4.29882e-05
4.65208e-05
7.85063e-05
0.000377989
0.000131352
7.44171e-05
4.77165e-05
4.28347e-05
4.02113e-05
3.62612e-05
4.13088e-05
4.39447e-05
7.15118e-05
0.000409835
0.000173794
0.000110792
7.48657e-05
5.65274e-05
4.46747e-05
4.0428e-05
3.87999e-05
4.15877e-05
6.69308e-05
0.000439143
0.000192961
0.00011538
8.41661e-05
6.67847e-05
5.53542e-05
4.53102e-05
3.98894e-05
4.02166e-05
6.51852e-05
0.000463464
0.000191681
9.92135e-05
8.19599e-05
7.32444e-05
6.2943e-05
4.98926e-05
4.3141e-05
3.98523e-05
6.45069e-05
0.000481264
0.000166725
7.74998e-05
7.43551e-05
7.5343e-05
6.69071e-05
5.23385e-05
4.41751e-05
3.99586e-05
6.50851e-05
0.000493085
0.000122109
5.6047e-05
6.14208e-05
7.02714e-05
6.61913e-05
5.27006e-05
4.47697e-05
4.03385e-05
6.71834e-05
0.000501559
7.83231e-05
4.38629e-05
4.76404e-05
5.47229e-05
5.95899e-05
5.03844e-05
4.41135e-05
4.06623e-05
7.12733e-05
0.000509645
5.96033e-05
4.20452e-05
4.37097e-05
4.55005e-05
5.02102e-05
4.59594e-05
4.3036e-05
4.10015e-05
7.92774e-05
0.000535163
6.04612e-05
4.19686e-05
4.28001e-05
4.37985e-05
4.51295e-05
4.43545e-05
4.25421e-05
4.43191e-05
8.99234e-05
0.000582839
6.96719e-05
4.2141e-05
4.25923e-05
4.29555e-05
4.3267e-05
4.33251e-05
4.42777e-05
4.95476e-05
0.000100694
0.000642037
8.55446e-05
4.26186e-05
4.36226e-05
4.42099e-05
4.40729e-05
4.69345e-05
5.34502e-05
6.78137e-05
0.000107962
0.00070743
0.000110489
4.41229e-05
4.83229e-05
5.99144e-05
7.34013e-05
8.96163e-05
0.000112779
0.000150864
0.000229386
0.000770919
0.000138893
4.51871e-05
4.62728e-05
6.07385e-05
8.14134e-05
0.000106216
0.000139473
0.000193353
0.000363682
0.000822527
0.000160724
5.05675e-05
4.46547e-05
5.27604e-05
7.03371e-05
8.60255e-05
9.83011e-05
0.000121499
0.000379157
0.000874672
0.000170052
5.65515e-05
4.3722e-05
4.58438e-05
5.86088e-05
6.80845e-05
7.48816e-05
0.00011952
0.000379333
0.000927001
0.0001876
6.0729e-05
4.35451e-05
4.41361e-05
4.91904e-05
5.4774e-05
5.20345e-05
0.000148453
0.000386779
0.000989214
0.000222672
6.53891e-05
4.36475e-05
4.30174e-05
4.48786e-05
4.59756e-05
6.05944e-05
0.000186033
0.000414826
0.00106567
0.000287323
7.44403e-05
4.46529e-05
4.2457e-05
4.40186e-05
4.53519e-05
9.46453e-05
0.000236213
0.000459666
0.00115822
0.000403272
0.000101798
4.85042e-05
4.27173e-05
4.33811e-05
4.46465e-05
0.000120108
0.000294392
0.000510332
0.00127304
0.000559946
0.000140535
5.61721e-05
4.45296e-05
4.31964e-05
4.38927e-05
0.00010342
0.000355355
0.000557936
0.00141896
0.000733495
0.000177071
5.97901e-05
4.49554e-05
4.34131e-05
4.39939e-05
0.000127593
0.000419722
0.000608507
0.00160507
0.000946162
0.000209162
7.74423e-05
5.05387e-05
4.45993e-05
4.38921e-05
0.000179235
0.000507619
0.000679983
0.00183301
0.00121932
0.000372496
0.000130356
7.61591e-05
5.33176e-05
4.53719e-05
0.000239179
0.000636518
0.000786835
0.00210248
0.00156508
0.000759465
0.00027985
0.000156057
8.97318e-05
5.85623e-05
0.000241012
0.000829486
0.000940282
0.00240468
0.00198574
0.00120857
0.000492584
0.000293967
0.000157043
8.70274e-05
0.000218381
0.00115324
0.00122418
0.00272871
0.00250125
0.00208471
0.00104791
0.000546759
0.000259521
0.000123427
0.000330769
0.00187574
0.00206196
2.37416e-05
2.10007e-05
2.09298e-05
2.09266e-05
2.09317e-05
2.09365e-05
2.09368e-05
2.09355e-05
2.09663e-05
2.3703e-05
2.35123e-05
1.83731e-05
1.80494e-05
1.80175e-05
1.80439e-05
1.80664e-05
1.8081e-05
1.80882e-05
1.81727e-05
2.34363e-05
2.56465e-05
1.78986e-05
1.62873e-05
1.57589e-05
1.56822e-05
1.56753e-05
1.56915e-05
1.57227e-05
1.58673e-05
2.29984e-05
2.94288e-05
2.03274e-05
1.64189e-05
1.475e-05
1.42889e-05
1.40563e-05
1.39082e-05
1.38495e-05
1.40143e-05
2.20767e-05
2.8923e-05
2.31507e-05
2.57975e-05
1.85683e-05
1.55758e-05
1.40978e-05
1.32464e-05
1.27482e-05
1.26768e-05
2.10248e-05
2.96182e-05
2.72935e-05
3.23994e-05
2.6368e-05
2.05285e-05
1.65796e-05
1.40734e-05
1.25787e-05
1.19343e-05
2.04808e-05
3.29313e-05
3.59513e-05
3.41405e-05
2.83133e-05
2.32844e-05
1.86294e-05
1.50645e-05
1.27139e-05
1.15102e-05
2.06255e-05
3.65961e-05
3.8872e-05
3.48261e-05
2.75768e-05
2.35472e-05
1.92366e-05
1.54645e-05
1.26918e-05
1.11481e-05
2.14597e-05
3.99955e-05
3.91955e-05
3.48936e-05
2.71716e-05
2.53852e-05
1.95301e-05
1.52607e-05
1.23561e-05
1.07385e-05
2.29417e-05
4.28848e-05
3.96066e-05
3.47408e-05
2.74684e-05
2.64708e-05
1.88985e-05
1.4589e-05
1.17658e-05
1.02848e-05
2.50815e-05
4.44685e-05
3.9514e-05
3.42246e-05
2.69001e-05
2.37946e-05
1.74385e-05
1.37265e-05
1.10921e-05
1.00352e-05
2.75373e-05
4.38023e-05
3.88593e-05
3.34446e-05
2.69827e-05
2.43785e-05
1.63103e-05
1.29505e-05
1.04695e-05
9.87759e-06
3.03234e-05
4.1708e-05
3.81198e-05
3.34383e-05
2.92896e-05
2.86074e-05
1.78261e-05
1.26269e-05
9.89699e-06
9.49871e-06
3.34994e-05
4.1271e-05
3.79212e-05
3.42976e-05
3.13468e-05
3.31527e-05
2.57907e-05
1.35522e-05
9.44001e-06
9.14956e-06
3.61765e-05
4.23023e-05
3.80982e-05
3.50724e-05
3.17075e-05
3.54139e-05
3.2684e-05
1.75892e-05
9.66691e-06
8.93051e-06
3.78788e-05
4.34626e-05
3.85128e-05
3.59644e-05
3.299e-05
3.62074e-05
3.48222e-05
2.46056e-05
1.20093e-05
9.18726e-06
3.86105e-05
4.48206e-05
3.95117e-05
3.70513e-05
3.50105e-05
3.65872e-05
3.59357e-05
3.03106e-05
1.63508e-05
1.03341e-05
3.90834e-05
4.49291e-05
4.10563e-05
3.81362e-05
3.58237e-05
3.7006e-05
3.65043e-05
3.32771e-05
2.07603e-05
1.20726e-05
4.00616e-05
4.55543e-05
4.18648e-05
3.92114e-05
3.63513e-05
3.71783e-05
3.66349e-05
3.45776e-05
2.41498e-05
1.38627e-05
4.18116e-05
4.66273e-05
4.17256e-05
4.0157e-05
3.68955e-05
3.71191e-05
3.64167e-05
3.50535e-05
2.65265e-05
1.55056e-05
4.41085e-05
4.89128e-05
4.22997e-05
4.07937e-05
3.74543e-05
3.70126e-05
3.59776e-05
3.52597e-05
2.8552e-05
1.72014e-05
4.56543e-05
5.15857e-05
4.26976e-05
4.09016e-05
3.7962e-05
3.69482e-05
3.53674e-05
3.5105e-05
3.04711e-05
1.92098e-05
4.60843e-05
5.45846e-05
4.28043e-05
4.09052e-05
3.831e-05
3.68659e-05
3.46301e-05
3.34437e-05
3.11151e-05
2.09834e-05
4.72618e-05
5.94944e-05
4.37035e-05
4.1047e-05
3.85306e-05
3.68037e-05
3.39065e-05
3.17075e-05
3.06954e-05
2.16482e-05
4.98907e-05
6.43028e-05
4.53417e-05
4.13877e-05
3.87227e-05
3.68061e-05
3.32651e-05
3.0017e-05
2.9666e-05
2.19018e-05
5.37724e-05
6.69474e-05
4.53903e-05
4.17821e-05
3.89965e-05
3.70114e-05
3.34585e-05
2.9631e-05
2.85085e-05
2.3264e-05
5.79428e-05
6.53432e-05
4.59442e-05
4.22538e-05
3.94107e-05
3.74808e-05
3.43028e-05
3.03978e-05
2.81e-05
2.56762e-05
6.26522e-05
6.11159e-05
4.61389e-05
4.2577e-05
3.98074e-05
3.79453e-05
3.51357e-05
3.20316e-05
2.88989e-05
2.96563e-05
6.83779e-05
8.80339e-05
4.92472e-05
4.26138e-05
3.98457e-05
3.80744e-05
3.55882e-05
3.37095e-05
3.12332e-05
3.59535e-05
7.53385e-05
0.000111983
4.95868e-05
4.21053e-05
3.96469e-05
3.77649e-05
3.61326e-05
3.56422e-05
3.52635e-05
4.34097e-05
8.26226e-05
0.000166142
5.64732e-05
4.31562e-05
3.95472e-05
3.77582e-05
3.71055e-05
3.81567e-05
4.02428e-05
4.91336e-05
8.75436e-05
0.000255432
7.32404e-05
4.53115e-05
3.98376e-05
3.8118e-05
3.74265e-05
3.97279e-05
4.3922e-05
5.29269e-05
8.71392e-05
0.000321161
9.13666e-05
4.76243e-05
4.07484e-05
3.89638e-05
3.72325e-05
3.9087e-05
4.44764e-05
5.15963e-05
8.30964e-05
0.000352688
0.000107934
5.39332e-05
4.26864e-05
4.05797e-05
3.81797e-05
3.68053e-05
4.29702e-05
4.58885e-05
7.83479e-05
0.000383047
0.000133453
7.56272e-05
4.68888e-05
4.3021e-05
4.07281e-05
3.65364e-05
4.13383e-05
4.35345e-05
7.15271e-05
0.000412243
0.000170059
0.000106182
7.48324e-05
5.75039e-05
4.55014e-05
4.10747e-05
3.9196e-05
4.13088e-05
6.73742e-05
0.000438992
0.000185731
0.000108337
8.40399e-05
6.90923e-05
5.80748e-05
4.72458e-05
3.98014e-05
4.00188e-05
6.57721e-05
0.000461203
0.000181454
9.41226e-05
8.50294e-05
7.71968e-05
6.67088e-05
5.27731e-05
4.28415e-05
3.96957e-05
6.50362e-05
0.000477781
0.000154917
7.87434e-05
7.84323e-05
7.9381e-05
7.09455e-05
5.57315e-05
4.42538e-05
3.96698e-05
6.55924e-05
0.000489463
0.000111395
5.82323e-05
6.44639e-05
7.29298e-05
6.94028e-05
5.61694e-05
4.48284e-05
3.97785e-05
6.78076e-05
0.000498887
7.16582e-05
4.43504e-05
4.90118e-05
5.58038e-05
6.12084e-05
5.32604e-05
4.39866e-05
3.98484e-05
7.22734e-05
0.000509111
5.71653e-05
4.22861e-05
4.39197e-05
4.52264e-05
5.1055e-05
4.77556e-05
4.27699e-05
4.01874e-05
8.11004e-05
0.000535917
5.92365e-05
4.2188e-05
4.29844e-05
4.39122e-05
4.51626e-05
4.47399e-05
4.22267e-05
4.3808e-05
9.24773e-05
0.000582665
6.85003e-05
4.23721e-05
4.28657e-05
4.32342e-05
4.34983e-05
4.34204e-05
4.38774e-05
4.9413e-05
0.000103413
0.000639775
8.41882e-05
4.27841e-05
4.38586e-05
4.46921e-05
4.49097e-05
4.80567e-05
5.4568e-05
6.98378e-05
0.000109952
0.000703115
0.000108889
4.38136e-05
4.76803e-05
5.95451e-05
7.4635e-05
9.28622e-05
0.000118233
0.000159947
0.00024617
0.000766164
0.000137159
4.53237e-05
4.5762e-05
5.90206e-05
8.01764e-05
0.000105818
0.00013971
0.00019383
0.000374174
0.000817362
0.000159127
5.11697e-05
4.4293e-05
5.12438e-05
6.89248e-05
8.52098e-05
9.75456e-05
0.000120698
0.00039097
0.0008693
0.000168375
5.78624e-05
4.34683e-05
4.54322e-05
5.75172e-05
6.73321e-05
7.34922e-05
0.000118023
0.000390117
0.000921725
0.000186875
6.24507e-05
4.32482e-05
4.40228e-05
4.8549e-05
5.43842e-05
5.30916e-05
0.000149126
0.000395447
0.000983365
0.00022651
6.88116e-05
4.32512e-05
4.30206e-05
4.51212e-05
4.57667e-05
5.87171e-05
0.000188498
0.00042305
0.00105945
0.000300869
8.1697e-05
4.40878e-05
4.25544e-05
4.41091e-05
4.50447e-05
9.12939e-05
0.000241282
0.000467999
0.00115364
0.000425713
0.000112758
4.87566e-05
4.28352e-05
4.35677e-05
4.59601e-05
0.000116358
0.000304568
0.000518698
0.00127137
0.000576698
0.000146198
5.59059e-05
4.47155e-05
4.34377e-05
4.52872e-05
9.77175e-05
0.000374478
0.000567087
0.00141926
0.000737842
0.000165253
5.25759e-05
4.53329e-05
4.38122e-05
4.42582e-05
0.000122947
0.000453433
0.000619647
0.00160523
0.000927646
0.00019901
5.91742e-05
4.81973e-05
4.45181e-05
4.40233e-05
0.000172188
0.000557518
0.000693914
0.00183209
0.00119512
0.000369828
8.93317e-05
6.2975e-05
5.01502e-05
4.54081e-05
0.000224322
0.000705176
0.000804688
0.0021011
0.00154741
0.000739984
0.000177569
0.00012144
7.9865e-05
5.57152e-05
0.000217395
0.000920815
0.000963335
0.00240266
0.00196513
0.00118101
0.000327426
0.000244843
0.000144674
8.21534e-05
0.000197199
0.00127708
0.00125812
0.00272651
0.00250356
0.00207742
0.000817256
0.000490148
0.000247444
0.000119023
0.000288553
0.00198071
0.00211737
)
;
    }
    inlet
    {
        type            turbulentIntensityKineticEnergyInlet;
        intensity       0.05;
        value           uniform 2.4e-05;
    }
    outlet
    {
        type            inletOutlet;
        inletValue      uniform 0.003;
        value           nonuniform List<scalar> 
20
(
0.003
0.003
0.003
0.00104791
0.000546759
0.000259521
0.000123427
0.000330769
0.003
0.00206196
0.003
0.003
0.003
0.000817256
0.000490148
0.000247444
0.000119023
0.000288553
0.003
0.00211737
)
;
    }
    heatWall
    {
        type            kqRWallFunction;
        value           nonuniform List<scalar> 
240
(
2.36768e-05
2.3703e-05
2.33753e-05
2.34363e-05