/*--------------------------------*- C++ -*----------------------------------*\
  =========                 |
  \\      /  F ield         | OpenFOAM: The Open Source CFD Toolbox
   \\    /   O peration     | Website:  https://openfoam.org
    \\  /    A nd           | Version:  8
     \\/     M anipulation  |
\*---------------------------------------------------------------------------*/
FoamFile
{
    version     2.0;
    format      ascii;
    class       volScalarField;
    location    "100";
    object      p;
}
// * * * * * * * * * * * * * * * * * * * * * * * * * * * * * * * * * * * * * //

dimensions      [1 -1 -2 0 0 0 0];

internalField   nonuniform List<scalar> 
1200
(
1889.02
1888.99
1889.02
1889.45
1888.85
1884.74
1879.16
1871.75
1865.79
1865.12
1866.85
1869.51
1870.82
1870.44
1868.11
1864.52
1857.24
1844.6
1828.08
1806.47
1780.25
1753.84
1727.6
1698.23
1686.38
1697.06
1721.02
1753.38
1744.72
1731.27
1729.34
1711.8
1684.22
1669.59
1665.63
1649.11
1622.23
1588.52
1548.84
1517.11
1501.26
1511.28
1540.65
1567.12
1593.22
1607.12
1583.19
1542.02
1502.4
1473.25
1453.66
1433.97
1393.49
1343.03
1320.03
1314.63
1277.26
1110.11
752.059
215.57
1693.66
1693.76
1693.94
1694.2
1693.04
1689.14
1685.36
1677.91
1669.86
1668.78
1670.87
1673.96
1675.56
1674.94
1672.34
1668.79
1661.52
1648.77
1631.83
1609.21
1583.44
1558.96
1534.77
1502.7
1485.66
1495.19
1517.34
1549.43
1546.68
1534.41
1531.45
1513.41
1487.2
1474.13
1472.22
1455.25
1426.84
1393.26
1353.3
1321.08
1304.49
1314.02
1343.78
1370.91
1399.26
1417.01
1390.38
1344.69
1302.86
1273.71
1256.09
1238.89
1191.56
1125.1
1081.12
1049.43
989.259
791.997
377.371
-457.871
1498.51
1498.56
1498.64
1499.63
1499.44
1493.44
1487.22
1482.08
1476.4
1474.29
1474.18
1475.75
1478.14
1478.69
1476.14
1472.36
1465.47
1453.05
1436.67
1415.52
1390.67
1364.51
1339.18
1311.53
1297
1302.39
1318
1341.48
1341.25
1330.96
1325.81
1314.42
1299.49
1284.53
1278.66
1260.5
1232.87
1197.8
1155.74
1122.5
1105.64
1115.8
1146.56
1171.36
1196.75
1214.69
1191.21
1147.8
1107.43
1080.17
1063.25
1045.02
1001.67
946.997
923.344
931.514
912.324
778.288
486.966
-133.788
1303.23
1303.22
1303.14
1303.34
1302.48
1298.8
1291.8
1285.6
1280.12
1278.09
1277.89
1279.51
1282.15
1281.73
1278.38
1275.73
1269.83
1256.74
1240.02
1219.66
1196.84
1171.86
1145.72
1116.13
1101.57
1109.15
1124.82
1141.5
1138.07
1129.85
1128.53
1122.13
1108.7
1089.78
1082.95
1062.89
1034.47
998.813
958.062
927.543
911.772
917.508
944.676
967.662
992.87
1013.54
989.614
947.656
909.229
881.729
862.95
841.44
797.068
746.579
726.432
726.29
697.088
580.008
313.231
-289.997
1107.96
1107.92
1107.74
1107.59
1106.43
1102.02
1095.3
1089.57
1084.39
1082.69
1082.27
1083.43
1085.51
1085.87
1084.23
1080.76
1073.72
1061.18
1044.25
1024.38
1002.83
978.908
952.892
921.908
905.499
913.03
926.587
936.958
929.489
921.625
923.116
922.313
913.257
896.528
886.939
865.234
838.203
805.928
769.818
740.464
722.743
723.177
745.925
766.251
790.642
810.93
785.549
743.441
707.164
682.108
664.413
641.675
597.386
550.023
526.171
514.774
481.368
360.376
80.2477
-508.374
912.692
912.658
912.451
912.039
910.576
906.367
899.992
894.35
889.801
887.547
886.831
887.88
890.004
890.851
889.13
885.841
878.656
865.594
848.642
829.801
810.396
787.733
761.26
727.39
707.934
713.976
725.915
730.417
722.061
717.748
723.72
727.69
721.846
704.51
688.982
672.064
643.226
614.686
579.933
551.137
533.383
530.755
549.426
567.977
593.231
611.854
582.082
538.403
503.86
481.356
465.614
442.208
398.467
356.406
328.35
305.016
252.761
102.932
-203.276
-717.68
717.462
717.406
717.125
716.553
715.01
710.962
705.002
699.36
694.896
692.654
692.051
692.847
694.32
694.514
693.495
691.284
684.103
670.581
653.171
634.561
616.078
594.319
567.674
531.873
508.539
513.99
524.002
526.614
521.897
519.491
526.294
531.318
526.51
510.68
493.398
476.516
447.983
421.345
387.686
360.089
343.377
340.563
356.69
374.979
402.484
418.679
381.186
334.44
301.262
280.622
266.261
242.183
195.169
154.334
126.837
95.8796
29.5689
-132.872
-441.818
-924.95
522.271
522.207
521.859
521.184
519.636
515.833
510.23
504.684
500.28
497.882
497.116
497.681
498.852
499.187
497.997
494.831
487.341
474.35
457.5
439.247
421.02
400.537
372.492
337.064
314.191
317.742
326.073
328.634
325.645
325.164
332.092
336.155
328.511
310.425
294.364
283.345
257.25
227.277
193.83
166.854
150.814
148.884
164.53
183.297
217.699
233.32
185.217
135.495
104.078
84.5809
73.856
51.4154
1.38885
-39.1416
-58.3122
-91.0676
-162.804
-327.084
-615.409
-1027.31
326.984
326.898
326.549
325.861
324.307
320.778
315.47
309.963
305.59
303.147
302.385
302.762
303.524
303.508
302.033
298.605
291.205
278.606
262.099
243.963
225.382
204.436
176.692
143.05
121.796
122.85
129.738
132.689
131.737
133.037
140.065
142.758
131.167
109.382
92.6843
80.2831
57.9486
31.1147
0.236323
-25.7167
-40.6671
-41.8192
-27.2092
-7.15843
37.0239
53.7832
-4.877
-58.4844
-91.0302
-111.353
-125.576
-151.464
-198.827
-238.613
-259.984
-293.893
-375.185
-554.488
-865.805
-1374.07
131.985
131.763
131.377
130.661
129.078
125.723
120.583
115.023
110.614
108.077
107.115
107.315
107.942
107.836
106.325
102.87
95.5577
83.1897
66.9166
48.8402
29.9934
8.71687
-18.5982
-50.6483
-71.3748
-71.9915
-66.039
-62.9719
-63.0437
-61.1407
-54.2944
-51.6359
-62.6708
-85.8385
-105.54
-116.713
-137.54
-164.029
-194.495
-220.029
-235.102
-236.924
-222.398
-201.074
-150.804
-134.076
-188.716
-249.721
-283.211
-303.982
-319.407
-346.309
-390.944
-427.013
-448.769
-484.396
-568.869
-746.509
-1049.95
-1538.62
1889.09
1889.02
1889.16
1889.51
1888.95
1884.75
1879.33
1871.83
1865.78
1865.12
1866.93
1869.51
1870.83
1870.42
1868.07
1864.57
1857.35
1844.59
1827.85
1806.18
1780.17
1753.97
1727.66
1697.7
1685.48
1696.4
1720.75
1752.56
1744.42
1730.96
1729.3
1712.04
1684.87
1670.03
1666.22
1649.95
1623.04
1589.02
1548.57
1516.48
1501.47
1511.96
1541.36
1567.93
1594.18
1608.32
1584.61
1543.39
1503.62
1474.29
1454.54
1434.73
1394.01
1342.85
1318.79
1312.57
1274.84
1105.94
745.172
207.109
1693.61
1693.7
1693.78
1694.22
1693.12
1688.89
1684.64
1677.25
1669.37
1668.13
1670.07
1672.98
1674.69
1674.28
1671.66
1668.15
1660.98
1648.02
1631.02
1608.83
1583.14
1558.27
1534.63
1503.26
1485.74
1494.7
1516.75
1548.78
1545.94
1533.72
1530.47
1512.33
1486.5
1473.97
1472.01
1455.23
1427.14
1393.22
1352.27
1319.37
1302.88
1312.72
1342.74
1370.06
1398.2
1415.89
1389.8
1344.42
1302.57
1273.53
1255.38
1237.79
1191.12
1125.36
1082.05
1050.87
991.802
794.386
377.626
-455.139
1498.43
1498.55
1498.59
1499.57
1499.04
1493.19
1487.26
1481.84
1476.08
1474.02
1474.02
1475.38
1477.46
1477.92
1475.45
1471.62
1464.66
1452.25
1435.81
1414.54
1389.8
1363.96
1338.6
1310.93
1296.66
1302.48
1318.6
1342.42
1341.86
1331.03
1325.8
1314.26
1299.09
1284.41
1278.92
1261.06
1233.38
1198.4
1156.86
1123.88
1106.63
1115.54
1146.12
1171.69
1197.06
1214.61
1191.02
1147.6
1107.35
1080.4
1062.98
1043.8
1000.53
945.552
921.141
926.815
905.765
770.672
477.1
-150.06
1303.2
1303.3
1303.32
1303.5
1302.6
1298.59
1291.94
1285.89
1280.32
1278.43
1278.33
1279.79
1282.14
1281.59
1278.45
1276.06
1270.17
1257.01
1240.26
1219.85
1197.09
1172.35
1146.39
1117.22
1103.26
1110.97
1126.7
1143.48
1139.68
1131.06
1129.71
1123.16
1109.43
1090.3
1083.6
1063.61
1035.45
1000.08
959.287
928.947
913.099
917.878
945.065
967.998
993.387
1014.09
989.88
947.804
909.363
882.026
862.902
841.416
797.143
746.671
726.562
726.739
699.259
583.236
319.432
-284.199
1107.97
1107.99
1107.87
1107.73
1106.58
1102.08
1095.59
1089.88
1084.95
1083.25
1082.63
1083.91
1086.11
1086.64
1084.96
1081.11
1073.93
1061.57
1044.85
1025
1003.48
979.879
953.722
922.733
906.746
914.048
927.374
937.933
930.367
922.148
923.556
922.627
913.505
896.719
887.142
865.565
838.62
806.633
770.547
741.313
723.217
723.083
746.293
767.184
791.444
811.564
785.79
743.717
707.596
682.798
665.21
642.529
597.795
549.759
525.332
513.471
480.496
358.607
76.3749
-511.478
912.726
912.689
912.523
912.117
910.686
906.388
900.09
894.372
889.749
887.527
886.949
888.155
890.443
891.331
889.522
886.292
879.116
865.991
849.043
830.241
810.976
788.415
761.243
727.468
708.81
715.038
726.761
731.143
722.645
718.258
724.263
728.318
722.398
704.916
689.47
672.583
643.128
614.62
579.631
551.022
533.419
531.033
550.358
568.869
594.171
612.658
582.291
538.617
504.175
481.758
466.325
443.263
398.871
355.549
326.985
301.941
251.145
103.462
-202.114
-718.633
717.462
717.394
717.142
716.576
715.027
710.952
705.034
699.345
694.905
692.764
692.216
693.087
694.575
694.743
693.746
691.498
684.157
670.587
653.148
634.556
616.166
594.821
566.991
531.177
509.053
514.577
524.273
526.953
522.294
519.757
526.572
531.665
526.986
511.06
493.709
476.632
447.593
420.604
387.173
359.941
343.339
340.546
357.215
375.543
403.154
419.227
381.157
334.522
301.182
280.575
266.662
243.67
195.682
153.785
125.685
94.962
30.1626
-130.735
-439.876
-923.351
522.214
522.16
521.864
521.186
519.605
515.806
510.227
504.631
500.21
497.843
497.109
497.708
498.912
499.247
497.957
494.644
487.067
474.081
457.288
439.079
420.974
400.496
371.977
336.57
314.279
317.956
326.074
328.493
325.419
324.979
331.965
336.009
328.248
309.827
293.08
282.358
256.981
226.732
193.333
166.544
150.548
148.818
164.467
183.329
217.697
233.318
184.867
135.509
103.712
84.3156
72.8786
50.4266
0.470696
-39.0695
-59.454
-94.8515
-166.811
-328.983
-616.335
-1034.52
326.95
326.9
326.552
325.799
324.267
320.745
315.431
309.972
305.579
303.133
302.372
302.756
303.55
303.551
301.994
298.467
290.979
278.338
261.853
243.728
225.149
204.226
176.312
142.692
121.8
123.06
129.818
132.648
131.615
132.912
139.93
142.545
130.956
109.247
92.5746
80.1533
57.8413
30.7511
-0.156051
-26.0195
-40.9464
-42.1253
-27.7747
-7.66311
36.633
53.1833
-5.31665
-58.4404
-91.3653
-111.76
-125.905
-151.449
-198.762
-238.437
-260.553
-294.125
-374.466
-551.875
-862.803
-1375.06
131.998
131.839
131.376
130.558
129.12
125.748
120.546
115.207
110.795
108.245
107.276
107.437
108.024
107.889
106.306
102.792
95.4528
83.096
66.8357
48.7283
29.91
8.77587
-18.7075
-50.7756
-71.2456
-71.7356
-65.8257
-62.7517
-62.8247
-60.9172
-54.0034
-51.2755
-62.2333
-85.4284
-104.985
-116.2
-136.962
-163.437
-194.201
-219.817
-234.974
-236.677
-222.07
-201
-150.542
-133.908
-188.752
-249.199
-283.273
-304.189
-319.354
-345.426
-389.886
-425.846
-447.941
-483.086
-566.009
-742.447
-1046.66
-1525.29
)
;

boundaryField
{
    wall
    {
        type            calculated;
        value           nonuniform List<scalar> 
1200
(
1888.97
1693.69
1498.55
1303.24
1107.95
912.673
717.461
522.301
327.002
131.978
1888.97
1693.79
1498.57
1303.17
1107.88
912.643
717.412
522.233
326.898
131.723
1888.94
1694.04
1498.67
1303.04
1107.68
912.415
717.116
521.856
326.548
131.377
1889.42
1694.19
1499.66
1303.25
1107.52
912.001
716.542
521.182
325.892
130.714
1888.8
1693.01
1499.63
1302.42
1106.36
910.521
715.003
519.652
324.328
129.057
1884.74
1689.27
1493.57
1298.89
1101.99
906.353
710.966
515.848
320.797
125.709
1879.08
1685.71
1487.2
1291.71
1095.16
899.945
704.986
510.232
315.492
120.602
1871.72
1678.24
1482.2
1285.45
1089.41
894.341
699.368
504.715
309.962
114.926
1865.81
1670.12
1476.54
1280.02
1084.09
889.832
694.888
500.319
305.6
110.516
1865.12
1669.11
1474.4
1277.91
1082.41
887.562
692.595
497.905
303.158
107.984
1866.82
1671.27
1474.26
1277.67
1082.1
886.771
691.964
497.122
302.395
107.024
1869.51
1674.44
1475.95
1279.38
1083.18
887.741
692.719
497.672
302.769
107.245
1870.82
1675.98
1478.5
1282.16
1085.21
889.786
694.185
498.825
303.515
107.893
1870.44
1675.26
1479.07
1281.81
1085.47
890.622
694.388
499.158
303.491
107.803
1868.13
1672.68
1476.48
1278.34
1083.88
888.939
693.358
498.021
302.056
106.327
1864.5
1669.09
1472.75
1275.57
1080.59
885.61
691.184
494.928
298.679
102.902
1857.18
1661.76
1465.9
1269.67
1073.62
878.421
684.089
487.481
291.323
95.6022
1844.6
1649.13
1453.46
1256.61
1060.99
865.391
670.589
474.49
278.744
83.2258
1828.18
1632.24
1437.1
1239.89
1043.96
848.444
653.191
457.615
262.225
66.943
1806.6
1609.41
1416.01
1219.56
1024.07
829.588
634.573
439.345
244.085
48.8804
1780.27
1583.6
1391.08
1196.69
1002.49
810.118
616.048
421.062
225.505
30.0182
1753.78
1559.31
1364.77
1171.58
978.397
787.406
594.064
400.597
204.553
8.66828
1727.58
1534.79
1339.45
1145.34
952.46
761.282
568.05
372.775
176.892
-18.563
1698.52
1502.42
1311.81
1115.52
921.48
727.344
532.219
337.315
143.228
-50.6087
1686.81
1485.67
1297.13
1100.7
904.869
707.492
508.235
314.133
121.794
-71.4654
1697.35
1495.45
1302.36
1108.29
912.558
713.427
513.676
317.642
122.746
-72.1429
1721.13
1517.67
1317.82
1124.01
926.244
725.494
523.829
326.072
129.698
-66.1707
1753.57
1549.74
1341.18
1140.69
936.551
730.061
526.405
328.703
132.713
-63.1115
1744.84
1546.99
1341.06
1137.41
929.096
721.766
521.676
325.763
131.809
-63.1834
1731.42
1534.65
1331.03
1129.39
921.371
717.481
519.341
325.26
133.121
-61.2776
1729.38
1531.79
1325.95
1128.1
922.901
723.444
526.149
332.167
140.166
-54.4584
1711.71
1513.97
1314.6
1121.71
922.149
727.396
531.147
336.244
142.892
-51.8262
1683.92
1487.73
1299.66
1108.31
913.114
721.593
526.285
328.659
131.268
-62.886
1669.39
1474.33
1284.58
1089.45
896.422
704.295
510.502
310.716
109.423
-86.0513
1665.35
1472.38
1278.53
1082.62
886.852
688.701
493.197
294.973
92.715
-105.844
1648.69
1455.29
1260.19
1062.49
865.028
671.825
476.419
283.76
80.353
-116.952
1621.83
1426.71
1232.58
1033.95
837.982
643.26
448.183
257.423
58.0132
-137.835
1588.29
1393.29
1197.47
998.102
805.573
614.734
421.78
227.617
31.2893
-164.353
1548.99
1353.77
1155.14
957.343
769.473
580.107
387.991
194.139
0.419403
-194.678
1517.44
1321.88
1121.72
926.76
740.069
551.213
360.206
167.051
-25.5778
-220.18
1501.15
1305.27
1105.04
911.064
722.521
533.367
343.43
150.975
-40.5446
-235.219
1510.91
1314.7
1115.9
917.284
723.212
530.562
340.571
148.921
-41.6701
-237.101
1540.24
1344.35
1146.86
944.454
745.737
548.91
356.403
164.547
-26.9119
-222.58
1566.7
1371.42
1171.26
967.483
765.748
567.463
374.65
183.285
-6.86012
-201.118
1592.74
1399.86
1196.63
992.612
790.22
592.721
402.12
217.727
37.3332
-150.849
1606.53
1417.53
1214.78
1013.3
810.62
611.459
418.419
233.36
54.1881
-134.096
1582.5
1390.62
1191.33
989.485
785.411
581.964
381.184
185.37
-4.72295
-188.72
1541.35
1344.81
1147.92
947.589
743.296
538.299
334.39
135.473
-58.5239
-250.013
1501.8
1303.03
1107.47
909.198
706.946
503.708
301.29
104.257
-90.8636
-283.189
1472.74
1273.83
1080.04
881.626
681.761
481.169
280.654
84.7348
-111.156
-303.874
1453.19
1256.46
1063.4
863.038
664.017
465.286
266.064
74.3869
-125.408
-319.412
1433.55
1239.46
1045.7
841.527
641.263
441.733
241.4
51.9155
-151.448
-346.733
1393.14
1191.89
1002.25
797.041
597.161
398.322
194.847
1.83669
-198.837
-391.476
1342.94
1125.14
947.628
746.43
550.056
356.935
154.6
-39.1729
-238.636
-427.59
1320.31
1080.93
924.286
726.226
526.52
329.1
127.41
-57.598
-259.629
-449.171
1315.2
1049.29
933.529
725.774
515.381
306.627
96.29
-89.0263
-293.715
-485.049
1277.7
989.045
914.844
695.4
481.619
253.624
29.2335
-160.655
-375.423
-570.312
1110.68
792.495
781.18
577.388
360.968
102.745
-133.98
-326.109
-555.656
-748.468
753.156
379.652
491.198
309.018
82.1684
-203.717
-442.856
-614.936
-867.286
-1051.38
217.226
-455.529
-125.771
-293.054
-506.805
-717.44
-925.791
-1024.05
-1374.18
-1544.66
1889.14
1693.59
1498.39
1303.19
1107.98
912.744
717.463
522.184
326.932
132.006
1889.04
1693.67
1498.55
1303.35
1108.03
912.704
717.388
522.135
326.9
131.879
1889.24
1693.69
1498.57
1303.42
1107.93
912.558
717.15
521.866
326.553
131.375
1889.54
1694.23
1499.55
1303.58
1107.79
912.155
716.586
521.188
325.768
130.505
1889
1693.16
1498.85
1302.66
1106.66
910.741
715.034
519.588
324.246
129.141
1884.76
1688.76
1493.06
1298.5
1102.11
906.402
710.948
515.791
320.725
125.762
1879.41
1684.3
1487.28
1292.03
1095.73
900.137
705.05
510.224
315.408
120.527
1871.86
1676.93
1481.73
1286.04
1090.04
894.378
699.336
504.601
309.973
115.303
1865.76
1669.11
1475.94
1280.42
1085.24
889.716
694.911
500.171
305.57
110.893
1865.12
1667.8
1473.91
1278.61
1083.53
887.509
692.822
497.82
303.122
108.337
1866.97
1669.67
1473.94
1278.56
1082.81
887.008
692.3
497.103
302.362
107.365
1869.51
1672.5
1475.18
1279.92
1084.15
888.294
693.211
497.718
302.749
107.503
1870.83
1674.27
1477.1
1282.13
1086.42
890.661
694.707
498.938
303.559
108.068
1870.41
1673.97
1477.53
1281.51
1087.04
891.56
694.865
499.275
303.569
107.917
1868.05
1671.33
1475.1
1278.49
1085.31
889.715
693.879
497.933
301.97
106.301
1864.6
1667.85
1471.23
1276.22
1081.27
886.525
691.595
494.547
298.393
102.759
1857.41
1660.74
1464.23
1270.33
1074.03
879.354
684.173
486.925
290.861
95.407
1844.59
1647.65
1451.84
1257.15
1061.76
866.198
670.586
473.94
278.199
83.0574
1827.76
1630.62
1435.38
1240.38
1045.14
849.245
653.136
457.175
261.727
66.8056
1806.06
1608.63
1414.06
1219.95
1025.32
830.457
634.552
438.986
243.608
48.6832
1780.15
1582.98
1389.39
1197.24
1003.83
811.258
616.203
420.941
225.028
29.8793
1754.04
1557.93
1363.72
1172.63
980.395
788.747
595.084
400.448
204.111
8.81816
1727.68
1534.61
1338.33
1146.78
954.158
761.228
566.624
371.708
176.114
-18.7503
1697.42
1503.54
1310.66
1117.82
923.164
727.521
530.841
336.334
142.517
-50.8238
1685.05
1485.74
1296.53
1104.13
907.374
709.257
509.369
314.347
121.806
-71.1653
1696.11
1494.44
1302.51
1111.82
914.512
715.591
514.903
318.069
123.167
-71.5989
1720.63
1516.41
1318.77
1127.51
927.702
727.184
524.457
326.088
129.859
-65.7155
1752.37
1548.46
1342.71
1144.28
938.314
731.5
527.172
328.437
132.623
-62.6432
1744.3
1545.61
1342.04
1140.34
930.744
722.942
522.524
325.31
131.538
-62.7274
1730.81
1533.47
1330.97
1131.52
922.401
718.525
519.913
324.887
132.819
-60.829
1729.26
1530.11
1325.68
1130.14
923.772
724.54
526.72
331.891
139.817
-53.887
1712.13
1511.76
1314.1
1123.59
922.791
728.614
531.837
335.918
142.398
-51.1279
1685.17
1485.97
1298.92
1109.82
913.649
722.652
527.212
328.101
130.849
-62.0493
1670.24
1473.77
1284.36
1090.64
896.825
705.133
511.241
309.544
109.213
-85.2283
1666.51
1471.86
1279.06
1083.93
887.22
689.753
493.916
292.481
92.5614
-104.675
1650.38
1455.21
1261.37
1064
865.773
672.824
476.734
281.942
80.1036
-115.946
1623.45
1427.28
1233.66
1035.97
838.846
643.097
447.396
256.813
57.7941
-136.656
1589.27
1393.2
1198.71
1000.79
807.017
614.585
420.184
226.396
30.5802
-163.107
1548.44
1351.81
1157.46
960.032
770.924
579.474
386.876
193.024
-0.337617
-194.011
1516.17
1318.54
1124.67
929.748
741.731
550.957
359.824
166.344
-26.1575
-219.66
1501.59
1302.05
1107.23
913.81
723.447
533.431
343.275
150.384
-41.0684
-234.858
1512.35
1312.02
1115.44
918.102
723.052
531.213
340.511
148.779
-42.274
-236.515
1541.79
1342.18
1145.82
945.287
746.478
550.856
357.484
164.45
-28.0708
-221.922
1568.38
1369.56
1171.79
968.177
767.685
569.377
375.864
183.347
-7.96046
-200.984
1594.69
1397.62
1197.18
993.646
791.865
594.677
403.513
217.67
36.3233
-150.508
1608.94
1415.38
1214.52
1014.32
811.867
613.044
419.478
233.27
52.7698
-133.881
1585.34
1389.56
1190.91
990.005
785.921
582.406
381.158
184.714
-5.47003
-188.748
1544.12
1344.3
1147.48
947.869
743.854
538.72
334.573
135.533
-58.4012
-248.906
1504.27
1302.39
1107.3
909.4
707.81
504.328
301.157
103.534
-91.5324
-283.296
1474.87
1273.38
1080.52
882.131
683.146
481.95
280.545
84.162
-111.957
-304.295
1455.08
1254.94
1062.83
862.807
665.607
466.665
266.863
72.348
-126.073
-319.346
1435.22
1237.14
1043.12
841.313
642.933
443.756
244.458
49.9282
-151.464
-344.998
1394.44
1190.8
999.95
797.142
598.01
399.04
196.019
0.0235836
-198.751
-389.351
1343.05
1125.38
944.925
746.802
549.725
355.051
153.569
-39.0378
-238.412
-425.268
1318.62
1082.31
920.197
726.77
524.995
326.278
125.169
-60.1656
-260.905
-447.545
1312.12
1051.12
924.805
727.257
512.897
300.371
94.5828
-96.8887
-294.301
-482.449
1274.51
992.165
903.286
700.949
480.271
250.287
30.5122
-168.961
-374.229
-564.584
1105.45
794.109
767.799
585.861
358.025
103.653
-129.619
-329.96
-550.708
-740.487
744.099
375.638
472.919
323.651
74.4731
-201.668
-438.832
-616.808
-861.322
-1045.22
205.459
-457.49
-158.086
-281.139
-513.039
-718.87
-922.505
-1037.78
-1374.94
-1519.2
)
;
    }
    inlet
    {
        type            calculated;
        value           nonuniform List<scalar> 
20
(
1889.02
1693.66
1498.51
1303.23
1107.96
912.692
717.462
522.271
326.984
131.985
1889.09
1693.61
1498.43
1303.2
1107.97
912.726
717.462
522.214
326.95
131.998
)
;
    }
    outlet
    {
        type            calculated;
        value           nonuniform List<scalar> 
20
(
-97.6792
-293.037
-488.396
-683.836
-879.611
-1075.55
-1271.44
-1465.74
-1660.55
-1855.91
-97.6792
-293.037
-488.396
-683.821
-879.561
-1075.5
-1271.4
-1465.81
-1660.55
-1855.9
)
;
    }
    heatWall
    {
        type            calculated;
        value           nonuniform List<scalar> 
240
(
34.3986
34.4119
34.177
34.252
33.7907
33.7892
33.0747
32.9716
31.4909
31.5321
28.1335
28.1588
22.9913
22.9542
17.4282
17.6128
13.0183
13.1999
10.4809
10.6491
9.51746
9.67887
9.71397
9.83361
10.3299
10.4086
10.2067
10.2541
8.67733
8.65239
5.20704
5.12274
-2.11857
-2.22992
-14.4993
-14.5992
-30.7845
-30.8714
-48.8725
-48.9901
-67.7308
-67.82
-89.0201
-88.9672
-116.348
-116.463
-148.408
-148.542
-169.143
-169.022
-169.772
-169.525
-163.834
-163.632
-160.786
-160.578
-160.879
-160.671
-158.995
-158.779
-152.164
-151.878
-149.514
-149.156
-160.553
-160.116
-183.721
-183.311
-203.422
-202.867
-214.595
-214.082
-235.422
-234.844
-261.911
-261.319
-292.376
-292.082
-317.91
-317.698
-332.983
-332.855
-334.806
-334.558
-320.279
-319.953
-298.956
-298.883
-248.686
-248.424
-231.916
-231.747
-286.506
-286.545
-347.488
-346.97
-380.96
-381.025
-401.715
-401.924
-417.128
-417.077
-444.02
-443.138
-488.646
-487.589
-524.708
-523.541
-546.458
-545.63
-582.082
-580.771
-666.552
-663.692
-844.19
-840.128
-1147.63
-1144.35
-1636.3
-1622.97
1986.6
1986.68
1986.57
1986.61
1986.63
1986.78
1987.13
1987.2
1986.56
1986.67
1982.48
1982.49
1976.94
1977.11
1969.56
1969.63
1963.62
1963.6
1962.97
1962.96
1964.71
1964.78
1967.37
1967.37
1968.69
1968.69
1968.31
1968.29
1965.99
1965.94
1962.4
1962.45
1955.12
1955.23
1942.48
1942.47
1925.96
1925.74
1904.35
1904.07
1878.13
1878.06
1851.73
1851.85
1825.48
1825.55
1796.11
1795.59
1784.26
1783.36
1794.94
1794.28
1818.9
1818.63
1851.26
1850.44
1842.59
1842.3
1829.14
1828.84
1827.2
1827.16
1809.63
1809.88
1782.03
1782.68
1767.39
1767.83
1763.44
1764.02
1746.91
1747.75
1720.03
1720.84
1686.32
1686.81
1646.63
1646.37
1614.9
1614.28
1599.05
1599.26
1609.07
1609.75
1638.44
1639.15
1664.9
1665.71
1690.99
1691.95
1704.88
1706.08
1680.95
1682.36
1639.77
1641.14
1600.14
1601.36
1570.99
1572.02
1551.38
1552.27
1531.69
1532.44
1491.2
1491.72
1440.74
1440.55
1417.73
1416.48
1412.33
1410.26
1374.94
1372.53
1207.8
1203.63
849.74
842.853
313.25
304.788
)
;
    }
}


// ************************************************************************* //
