/*--------------------------------*- C++ -*----------------------------------*\
  =========                 |
  \\      /  F ield         | OpenFOAM: The Open Source CFD Toolbox
   \\    /   O peration     | Website:  https://openfoam.org
    \\  /    A nd           | Version:  8
     \\/     M anipulation  |
\*---------------------------------------------------------------------------*/
FoamFile
{
    version     2.0;
    format      ascii;
    class       volScalarField;
    location    "100";
    object      p_rgh;
}
// * * * * * * * * * * * * * * * * * * * * * * * * * * * * * * * * * * * * * //

dimensions      [1 -1 -2 0 0 0 0];

internalField   nonuniform List<scalar> 
1200
(
1462.14
1462.12
1462.17
1462.57
1461.68
1457.35
1451.43
1443.99
1438.66
1438.4
1440.27
1442.92
1444.28
1443.95
1441.65
1438.02
1430.52
1417.68
1401.03
1379.11
1352.69
1326.5
1299.15
1270.43
1261.98
1274.85
1297.72
1328.77
1324.39
1314.56
1319.93
1316.63
1297.6
1280.42
1272.04
1255.05
1228.95
1195.34
1154.76
1121.26
1104
1113.38
1145.76
1177.54
1206.78
1219.63
1195.39
1155.13
1117.16
1089.35
1070.52
1053.21
1022.88
978.332
946.228
926.539
880.937
729.624
464.154
164.745
1461.96
1462.06
1462.32
1462.67
1461.4
1457.51
1453.61
1446.11
1438.64
1437.93
1440.11
1443.15
1444.77
1444.17
1441.6
1438.01
1430.51
1417.57
1400.47
1377.52
1351.7
1327.63
1302.29
1270.2
1256.58
1269.07
1291.15
1321.63
1322.58
1313.84
1318.02
1313.6
1295.29
1279.34
1274.04
1256.96
1229.28
1195.62
1154.74
1120.89
1103.08
1111.98
1144.63
1177.23
1208.95
1225.22
1198.12
1153.28
1113.19
1085.09
1067.64
1052.33
1016.88
959.846
912.698
874.151
812.965
637.296
319.09
-247.418
1461.98
1462.04
1462.18
1463.31
1463.71
1458.08
1451.76
1446.59
1440.91
1438.96
1438.99
1440.63
1443.13
1443.7
1441.12
1437.28
1430.19
1417.58
1401.11
1379.76
1354.75
1328.68
1302.74
1275.41
1263.45
1271.5
1288.05
1311.09
1314.68
1308.15
1308.12
1305.74
1296.51
1283.23
1276.44
1257.98
1231.34
1196.76
1152.92
1117.93
1099.58
1108.85
1143.1
1173.34
1202.08
1218.88
1195.2
1152.84
1114.07
1087.72
1070.97
1054.75
1022.24
978.704
953.645
953.36
936.333
818.95
600.63
237.692
1461.88
1461.87
1461.82
1462.12
1461.81
1459.1
1452.32
1445.96
1440.4
1438.47
1438.4
1440.13
1442.83
1442.36
1439.04
1436.47
1430.36
1417.07
1400.23
1379.77
1356.85
1331.82
1304.83
1275.33
1263.17
1273.15
1290.11
1307.62
1308.06
1303.01
1306.57
1308.33
1300.82
1285.2
1277.25
1255.9
1228.53
1193.07
1150.11
1118.11
1100.68
1106.58
1137.04
1165.11
1193.92
1213.48
1188.9
1148.6
1112.01
1085.68
1067.71
1049.15
1014.46
973.982
955.23
951.514
922.685
814.328
602.457
252.677
1461.78
1461.74
1461.58
1461.52
1460.8
1457.31
1451.16
1445.58
1440.33
1438.79
1438.36
1439.64
1441.88
1442.35
1440.72
1437.16
1429.92
1417.2
1400.25
1380.35
1358.7
1334.56
1307.49
1276.03
1261.61
1271.29
1286.49
1299.11
1296.64
1292.9
1299.3
1304.34
1299.53
1285.78
1275.84
1254.11
1227.44
1195.49
1157.86
1127.41
1108.18
1108.29
1134.17
1159.32
1187.42
1206.35
1180.08
1140.71
1106.54
1082.7
1066.38
1046.8
1011.18
973.127
955.375
946.217
917.628
816.494
607.198
252.655
1461.69
1461.66
1461.47
1461.11
1459.97
1456.46
1450.66
1445.36
1440.87
1438.66
1438.01
1439.2
1441.71
1442.93
1441.31
1438.01
1430.59
1417.35
1400.35
1381.57
1362.06
1338.95
1311.07
1276.13
1258.48
1267.01
1281.4
1289.58
1287.06
1286.62
1296.48
1304.82
1302.01
1287.17
1273
1256.8
1227.99
1200.39
1164.7
1134.44
1115.41
1112.28
1134.04
1156.73
1185.53
1202.61
1171.88
1132.03
1099.94
1078.58
1064.77
1045.13
1009.05
975.943
955.073
936.989
895.009
781.612
566.308
248.354
1461.63
1461.58
1461.31
1460.77
1459.42
1455.86
1450.32
1445
1440.66
1438.49
1437.91
1438.77
1440.49
1441.19
1440.86
1438.98
1431.63
1417.99
1400.57
1382.01
1363.39
1341.16
1312.97
1275.75
1254.61
1263.21
1275.84
1282.78
1283.23
1284.97
1295.26
1303.72
1301.43
1287.61
1272.47
1257.43
1229.11
1203.25
1168.79
1139.69
1122.1
1118.68
1137.47
1159.21
1189.91
1204.37
1166.05
1124.15
1093.46
1073.95
1061.9
1042.35
1002.78
969.772
948.812
924.824
871.372
751.477
539.919
235.658
1461.61
1461.56
1461.21
1460.54
1459.1
1455.57
1450.2
1444.83
1440.49
1438.11
1437.4
1438.03
1439.25
1439.63
1438.66
1436.01
1429.01
1416.43
1399.88
1381.88
1363.7
1342.87
1313.34
1276.93
1256.36
1262.86
1273.99
1280.78
1282.83
1286.45
1296.67
1303.64
1298.37
1282.92
1270.28
1260.85
1233.53
1204.59
1170.72
1142.43
1125.33
1123.08
1141.17
1163.53
1200.93
1213.93
1165.2
1120.69
1090.98
1072.89
1064.89
1046.78
1004.69
971.863
956.683
931.063
872
753.103
560.967
320.715
1461.5
1461.42
1461.08
1460.38
1458.87
1455.44
1450.2
1444.74
1440.37
1437.93
1437.24
1437.71
1438.52
1438.56
1437.23
1434.06
1426.91
1414.6
1398.4
1380.54
1362.08
1340.98
1312.16
1278
1258.94
1263.07
1273.13
1280.37
1284.37
1289.93
1300.19
1305.31
1296.1
1277.85
1264.65
1253.36
1230.77
1204.69
1173.06
1145.56
1129.43
1128.31
1145.48
1169.53
1216.99
1229.56
1170.29
1121.07
1090.02
1070.66
1058.84
1037.32
997.495
965.691
947.392
918.357
850.103
718.059
504.939
175.5
1461.68
1461.47
1461.09
1460.36
1458.78
1455.43
1450.25
1444.64
1440.18
1437.64
1436.77
1437.16
1438.08
1438.32
1437.17
1433.98
1426.75
1414.46
1398.3
1380.36
1361.51
1339.98
1311.7
1279.33
1260.81
1263.45
1272.89
1280.38
1285.3
1291.57
1301.71
1306.77
1297.97
1277.98
1262.45
1252.43
1231.23
1205.06
1174.01
1147.14
1130.97
1129.3
1146.27
1171.59
1226.01
1238.65
1181.31
1125.87
1094.02
1074.32
1061.28
1038.82
1001.28
972.093
952.883
921.61
850.557
721.14
515.285
220.656
1462.23
1462.15
1462.32
1462.64
1461.79
1457.36
1451.6
1444.05
1438.64
1438.39
1440.34
1442.92
1444.28
1443.94
1441.61
1438.07
1430.64
1417.67
1400.82
1378.84
1352.63
1326.63
1299.2
1269.88
1261.1
1274.24
1297.47
1328.21
1324.13
1314.26
1319.88
1316.85
1298.23
1280.83
1272.61
1255.89
1229.75
1195.83
1154.48
1120.61
1104.21
1114.09
1146.52
1178.37
1207.75
1220.82
1196.78
1156.49
1118.37
1090.39
1071.44
1054.03
1023.52
978.38
945.385
924.973
879.318
727.065
459.752
159.013
1461.91
1462
1462.14
1462.67
1461.46
1457.24
1452.91
1445.46
1438.14
1437.27
1439.3
1442.18
1443.92
1443.52
1440.93
1437.39
1430
1416.83
1399.66
1377.14
1351.39
1326.94
1302.2
1270.76
1256.61
1268.57
1290.51
1321
1321.88
1313.24
1317.15
1312.43
1294.36
1279.03
1273.75
1256.9
1229.55
1195.57
1153.78
1119.24
1101.49
1110.64
1143.54
1176.29
1207.82
1224.14
1197.58
1153.01
1112.86
1084.86
1066.89
1051.19
1016.32
959.95
913.366
875.004
814.365
637.801
316.612
-249.009
1461.91
1462.03
1462.12
1463.24
1463.33
1457.82
1451.8
1446.35
1440.62
1438.71
1438.82
1440.24
1442.43
1442.93
1440.43
1436.52
1429.35
1416.77
1400.25
1378.79
1353.91
1328.15
1302.17
1274.83
1263.15
1271.58
1288.51
1311.85
1315.16
1308.1
1307.96
1305.49
1296.15
1283.12
1276.69
1258.55
1231.88
1197.38
1154.09
1119.41
1100.68
1108.62
1142.58
1173.6
1202.35
1218.75
1194.99
1152.62
1113.97
1087.95
1070.67
1053.42
1021.04
977.326
951.635
949.123
930.723
812.485
591.617
221.504
1461.85
1461.96
1462.01
1462.29
1461.93
1458.91
1452.48
1446.26
1440.6
1438.82
1438.85
1440.4
1442.81
1442.21
1439.12
1436.8
1430.69
1417.34
1400.47
1379.96
1357.13
1332.35
1305.55
1276.49
1264.89
1274.91
1291.85
1309.41
1309.51
1304.06
1307.57
1309.27
1301.59
1285.81
1277.91
1256.64
1229.56
1194.44
1151.48
1119.61
1102.05
1107
1137.46
1165.46
1194.44
1213.98
1189.16
1148.73
1112.11
1085.93
1067.59
1049.02
1014.48
974.157
955.528
952.312
925.603
818.831
610.068
258.636
1461.79
1461.82
1461.71
1461.66
1460.95
1457.37
1451.44
1445.89
1440.91
1439.35
1438.71
1440.13
1442.49
1443.14
1441.44
1437.5
1430.12
1417.59
1400.84
1380.98
1359.37
1335.56
1308.35
1276.88
1262.86
1272.26
1287.2
1299.96
1297.44
1293.41
1299.74
1304.66
1299.8
1285.98
1276.02
1254.49
1227.88
1196.24
1158.6
1128.26
1108.64
1108.22
1134.54
1160.3
1188.25
1206.98
1180.34
1141
1106.97
1083.39
1067.17
1047.62
1011.58
972.949
954.614
944.991
917.009
815.093
603.369
249.555
1461.72
1461.69
1461.54
1461.19
1460.08
1456.49
1450.76
1445.4
1440.82
1438.63
1438.13
1439.5
1442.19
1443.41
1441.7
1438.47
1431.05
1417.75
1400.76
1382
1362.63
1339.62
1311.04
1276.23
1259.36
1268.09
1282.24
1290.29
1287.66
1287.15
1297.04
1305.43
1302.54
1287.59
1273.53
1257.31
1227.92
1200.32
1164.39
1134.32
1115.46
1112.61
1135.01
1157.7
1186.52
1203.4
1172.13
1132.27
1100.28
1078.98
1065.47
1046.13
1009.39
974.985
953.666
933.878
893.365
782.064
567.291
247.639
1461.63
1461.57
1461.33
1460.79
1459.44
1455.86
1450.37
1445.02
1440.7
1438.61
1438.08
1439.03
1440.8
1441.51
1441.2
1439.23
1431.68
1417.99
1400.54
1382
1363.46
1341.68
1312.26
1275.07
1255.18
1263.83
1276.16
1283.18
1283.67
1285.28
1295.57
1304.09
1301.91
1287.99
1272.84
1257.6
1228.72
1202.45
1168.23
1139.5
1122.04
1118.66
1138.01
1159.82
1190.61
1204.89
1166.09
1124.32
1093.48
1073.96
1062.33
1043.88
1003.34
969.219
947.673
923.953
871.985
753.629
541.919
237.284
1461.56
1461.51
1461.22
1460.55
1459.07
1455.55
1450.22
1444.81
1440.46
1438.11
1437.41
1438.07
1439.32
1439.72
1438.7
1435.92
1428.82
1416.21
1399.7
1381.74
1363.66
1342.81
1312.82
1276.45
1256.46
1263.06
1274
1280.66
1282.63
1286.3
1296.57
1303.51
1298.11
1282.35
1269.04
1259.93
1233.22
1203.98
1170.16
1142.07
1125.03
1123
1141.11
1163.55
1200.89
1213.88
1164.95
1120.85
1090.73
1072.53
1063.86
1045.8
1003.79
971.927
955.395
927.157
867.897
751.292
560.138
313.961
1461.47
1461.42
1461.08
1460.32
1458.83
1455.41
1450.17
1444.75
1440.36
1437.92
1437.23
1437.69
1438.54
1438.59
1437.16
1433.89
1426.65
1414.31
1398.13
1380.29
1361.84
1340.78
1311.8
1277.66
1258.97
1263.31
1273.25
1280.39
1284.32
1289.86
1300.08
1305.1
1295.91
1277.76
1264.59
1253.25
1230.67
1204.33
1172.68
1145.27
1129.17
1128.01
1144.9
1168.98
1216.47
1228.83
1170.01
1121.22
1089.7
1070.26
1058.5
1037.31
997.535
965.793
946.726
918.031
850.653
720.477
507.876
175.181
1461.69
1461.55
1461.09
1460.26
1458.82
1455.45
1450.21
1444.82
1440.37
1437.82
1436.95
1437.32
1438.23
1438.48
1437.28
1434.04
1426.78
1414.49
1398.35
1380.37
1361.55
1340.17
1311.72
1279.36
1261.12
1263.9
1273.32
1280.82
1285.7
1291.91
1302.06
1307.13
1298.38
1278.39
1263.04
1252.95
1231.83
1205.69
1174.35
1147.4
1131.15
1129.6
1146.59
1171.65
1226.17
1238.73
1181.35
1126.48
1094.02
1074.15
1061.34
1039.71
1002.35
973.26
953.689
922.889
853.393
725.106
518.321
233.312
)
;

boundaryField
{
    wall
    {
        type            fixedFluxPressure;
        gradient        nonuniform List<scalar> 
1200
(
-16.7537
10.4057
16.0963
4.96235
-2.9529
-7.26183
-0.243329
11.9332
7.28188
-2.94656
-7.7362
12.9599
2.13236
-17.8511
-14.4841
-6.25096
2.427
10.1393
-0.0622764
-16.0597
-31.1925
37.1325
10.2017
-39.3901
-25.832
-14.324
-3.28428
-0.965827
-0.484033
0.00183212
-11.2739
-3.15883
10.3408
-33.3149
-26.6989
-15.265
-4.27456
-0.754438
12.6019
20.9616
-19.3251
-15.2375
76.2142
-25.3345
-30.116
-21.9419
-2.66808
6.75073
8.69249
-8.63185
-1.65813
50.9921
53.2749
36.1809
-12.5193
-5.5268
1.78664
5.9959
7.72006
-5.36327
-32.5484
138.339
-6.09301
-33.71
-56.6218
-19.0964
-6.37329
1.12385
8.95122
7.62843
-11.3379
131.402
45.3389
-59.609
-64.338
-3.6704
3.31753
12.1977
-0.41338
-38.5403
5.70387
104.987
54.3126
-40.4551
-119.01
12.6281
-3.03763
15.8379
3.70356
-39.057
3.43633e-05
133.421
44.7832
-71.7416
-111.332
6.08453
-23.864
9.22802
4.37569
-37.1649
-15.1319
160.936
32.8466
-89.2887
-69.2472
-24.0569
-34.9904
2.58265
4.07912
-36.3708
-0.761917
193.242
79.5354
-51.9513
-96.6301
-55.7518
-50.9106
-3.83366
2.86697
-28.0728
-1.23123
168.184
141.51
6.16653
-122.589
-87.2653
-54.0498
-10.6563
-3.60939
-19.6101
2.9317
126.622
154.44
31.2864
-159.555
-91.6349
-50.3681
-11.3551
-6.91606
-13.2241
7.36926
133.818
137.775
-17.0811
-141.119
-76.6519
-54.8153
9.48802
9.54887
0.937253
-10.8626
120.279
154.3
-65.9473
-65.5401
-92.3843
-39.9159
38.6786
29.5763
12.7328
-23.3919
97.7904
170.939
-64.9605
-39.8219
-94.048
-5.47104
55.9986
46.8812
17.81
0.721724
147.019
165.621
-54.5907
-75.4671
-81.1943
3.21572
55.799
55.2669
14.4441
40.0532
163.495
172.926
-49.3191
-117.101
-79.3599
8.35392
46.0308
50.6422
10.5557
52.0659
77.7234
194.915
-40.982
-125.126
-85.0786
4.97534
39.4284
48.6038
16.0815
11.0883
62.3448
165.642
-59.9104
-136.057
-111.155
-11.7952
16.5942
49.1636
9.9527
-27.3411
138.538
100.909
-113.433
-204.408
-130.757
-102.096
23.724
46.7321
-19.4378
-6.49406
9.67821
111.242
-152.942
-172.638
8.52144
150.422
113.039
80.1267
14.0795
114.626
-114.02
113.015
-242.374
-171.122
-18.547
138.617
100.115
71.3304
15.8568
172.452
1.82589
54.823
-347.925
-251.908
-176.757
-121.89
-22.9888
-0.996805
-36.2586
117.883
104.288
-12.2556
-341.549
-188.527
-219.697
-125.708
-40.0581
-41.7965
-60.5473
46.7055
133.296
-71.6154
-323.421
-137.234
-168.488
-69.1315
-0.303827
-15.9785
-52.6926
75.1118
121.014
-120.556
-323.591
-162.52
-142.195
-83.3933
27.6555
9.71246
-55.8503
48.4135
124.783
-76.3417
-265.934
-157.169
-118.103
-88.3845
47.2516
28.918
-55.8738
60.691
95.6043
28.4762
-182.711
-101.639
-106.885
-60.1448
38.4389
33.4078
-54.7344
15.698
138.094
55.1571
-170.301
-86.2155
-110.543
-57.9454
29.9004
40.271
-65.5851
-35.6406
222.399
68.8904
-171.468
-65.7426
-117.901
-68.4302
35.6792
53.6343
-76.0999
-119.457
210.401
70.1151
-155.524
-57.1678
-100.958
-89.9409
59.2022
40.2158
-86.0604
-77.8679
79.9406
19.2457
-134.475
-42.2407
-85.7552
-71.2687
116.586
16.3279
-85.1172
-113.12
63.441
-55.1929
-132.632
-34.5655
-112.587
-80.455
243.67
12.2736
-121.682
-167.367
16.6602
-124.075
-156.853
-82.2046
-95.5333
-38.6488
166.314
27.9443
-95.4672
-159.491
-49.7479
-118.164
-209.426
-88.1927
13.3013
79.8489
69.4683
25.8408
-117.981
-95.7708
11.6364
-129.962
-284.512
-142.271
19.1769
174.027
135.913
69.8118
-129.699
62.2063
185.701
-242.657
-287.813
-137.953
69.4737
121.842
123.517
73.232
-73.2228
133.001
319.289
-315.67
-313.111
-158.044
30.2
46.4975
78.7279
55.575
-60.281
-42.4015
314.114
-240.299
-283.322
-88.6546
-6.53776
21.0724
64.487
49.0324
-46.526
-146.971
274.25
39.9229
-89.478
13.75
-77.4724
3.42173
15.0597
59.6332
-70.7262
-161.001
228.423
117.244
-88.9132
-75.3305
-206.592
-114.567
6.64496
118.938
-72.8592
-168.241
202.723
-41.0164
-71.6317
-200.922
-205.659
-131.726
-4.88989
119.323
-17.9817
-192.538
237.155
-46.4319
-103.342
-168.601
-204.093
-145.65
11.4909
123.716
-18.051
-236.385
207.278
35.1774
-95.0106
-124.015
-157.718
-103.774
16.3082
161.969
-8.20955
-275.072
97.9441
49.9704
-51.8305
-55.247
-47.4207
-1.07552
61.1595
61.6208
-1.66336
-269.178
50.3236
45.4004
-26.8573
-58.1001
-41.8006
-20.0841
-8.96677
-15.7994
-117.044
-239.336
67.5498
14.8383
-12.6549
-87.3112
-60.8268
10.9751
71.5599
66.6297
9.04367
-205.961
50.0632
-50.344
-41.0762
-138.629
-74.9815
12.9547
61.564
78.8349
43.1568
-187.032
150.829
58.115
35.1684
-158.708
-131.221
-79.1037
212.338
67.1478
-2.08882
-169.06
228.105
270.566
35.1603
-164.519
-190.02
-313.298
200.045
6.51848
-169.599
-140.296
133.768
232.517
-10.7286
-90.1274
-58.1374
-129.133
179.137
-3.97906
-212.68
-35.7038
17.2654
252.084
-59.3876
13.2045
211.556
106.193
-12.5122
-9.03732
-230.536
112.88
-73.9922
376.798
-82.6102
139.438
299.947
229.091
285.676
141.746
-160.622
227.828
-55.4695
805.871
-206.233
242.921
644.462
164.165
816.553
70.9214
-261.05
176.255
-85.4338
1008.06
-675.131
100.775
345.262
-134.159
859.66
-95.2899
-576.893
226.785
199.307
1156.71
-1048.09
236.986
-75.0596
-443.435
389.715
-467.197
-783.538
438.677
912.448
1692.66
-1685.44
768.272
-176.287
-414.929
188.966
-592.5
-571.113
662.283
936.835
3206.77
-1222.69
627.784
96.1263
-336.31
1303.03
-43.1216
-2417.31
16.7488
-10.4113
-16.0975
-4.96216
2.95334
7.26129
0.241008
-11.9352
-7.28233
2.94689
7.53534
-12.991
-2.12797
17.8565
14.4853
6.21452
-2.44278
-10.1405
0.07085
16.0408
30.663
-37.3239
-10.2185
39.4107
25.8404
14.2382
3.25518
0.967463
0.504771
-0.278466
10.2888
3.03973
-10.3483
33.407
26.7933
15.3608
4.32152
0.78665
-12.5779
-21.2705
18.9193
15.5495
-75.3445
25.4978
30.2857
22.0417
2.71597
-6.68711
-8.65925
8.58812
2.24065
-50.875
-51.8766
-35.6616
12.5557
5.51576
-1.71785
-5.94324
-7.69215
5.34676
32.7595
-137.912
8.06571
33.6245
56.5816
19.0616
6.35137
-1.09576
-8.92778
-7.63154
11.6434
-130.142
-43.1457
58.8421
64.1661
2.43054
-3.50673
-12.1954
0.436199
38.5474
-5.67431
-103.74
-52.6081
40.5182
118.877
-13.0261
2.62957
-15.8922
-3.67477
39.0764
-0.00501389
-132.152
-43.6848
71.6997
111.533
-7.16733
23.4371
-9.26172
-4.34225
36.8833
15.1727
-159.312
-31.9995
89.2827
70.0264
23.4928
33.9209
-2.60031
-4.03856
35.4092
0.811746
-191.412
-80.162
52.2177
97.2379
55.7121
49.7234
3.77929
-2.7914
26.4085
1.23797
-166.662
-142.754
-5.90595
122.973
87.2987
52.8754
10.6292
3.6885
17.5953
-2.93248
-125.471
-155.958
-30.9286
160.062
91.8368
48.8413
11.3759
6.98404
11.4484
-7.17265
-133.023
-139.547
17.9491
141.629
77.199
53.1625
-9.61411
-9.5048
-1.97221
11.3036
-120.181
-156.006
66.7766
65.83
92.9432
38.5821
-38.9766
-29.8115
-13.2569
23.9213
-97.9287
-171.696
65.1399
40.2579
95.0605
6.48187
-56.7565
-47.3338
-18.3363
-0.151586
-146.712
-165.397
54.6552
75.9066
82.7684
-0.289988
-56.292
-55.4385
-15.4132
-39.3619
-162.977
-172.678
49.3373
117.582
81.0008
-4.94436
-45.193
-50.3616
-12.0405
-51.5041
-77.4508
-194.903
40.9741
125.6
86.4807
-1.89268
-37.088
-48.0763
-18.0322
-10.4819
-62.0453
-163.52
59.8317
136.886
112.738
14.6279
-13.2872
-48.5856
-12.2673
28.2123
-138.094
-98.103
113.529
206.374
133.025
105.231
-19.4842
-45.8705
16.9145
6.75295
-10.4796
-107.778
153.104
174.546
-5.95436
-147.023
-107.545
-79.0844
-17.1086
-114.474
114.339
-109.181
242.647
172.18
21.0629
-134.231
-94.0867
-70.1945
-19.2694
-172.15
-0.556397
-52.0135
348.319
251.245
178.772
126.37
27.2955
2.39925
32.103
-117.412
-104.172
12.0566
341.966
185.914
220.937
130.272
45.2353
43.0038
54.6709
-46.2813
-136.076
67.4995
323.452
131.113
169.354
73.6581
5.84603
16.6941
44.1038
-75.784
-125.955
115.301
322.966
152.362
142.859
87.6484
-22.6591
-10.0433
43.3933
-47.2189
-131.176
74.3729
265.625
151.118
118.799
91.7791
-43.6036
-30.8252
38.9273
-58.868
-101.399
-24.5635
182.72
101.106
106.97
62.3602
-36.5497
-36.9969
35.2522
-13.6669
-144.633
-47.5074
170.466
86.3378
110.781
59.0692
-29.6487
-45.3077
46.5598
36.8892
-229.504
-63.7552
171.756
65.9063
118.175
68.8695
-36.2509
-58.7404
59.0515
120.583
-213.967
-68.5762
155.9
57.3691
101.62
90.4223
-58.6343
-42.7753
73.6318
82.6545
-80.167
-19.5403
134.489
42.4186
86.5069
72.5693
-113.133
-13.4748
80.0331
118.683
-59.3179
55.169
132.41
31.3622
113.106
82.6934
-239.652
-5.25367
123.824
172.906
-9.33767
122.982
154.437
83.1012
96.2435
40.7084
-166.242
-19.899
101.549
164.923
56.3924
111.398
208.739
90.3765
-12.5978
-79.154
-67.0492
-18.8778
122.283
101.73
-6.74848
124.086
284.222
153.407
-13.8304
-168.109
-134.349
-68.3546
132.239
-54.6786
-185.588
242.222
297.995
151.053
-63.1364
-118.648
-123.479
-72.6263
75.958
-124.547
-329.858
315.918
320.335
167.231
-26.3325
-46.9302
-79.8872
-55.2034
62.7079
50.9052
-332.229
241.141
284.624
92.048
4.94875
-25.8198
-65.5488
-48.7895
46.4879
155.347
-279.276
-39.5529
89.6142
-12.5144
71.8127
-13.9343
-15.6997
-59.4887
64.9483
170.476
-226.845
-117.026
88.8866
74.1948
199.214
107.335
-6.57205
-118.473
59.4771
179.007
-199.613
41.2694
71.6407
200.255
203.449
128.328
6.91223
-118.939
6.49129
204.784
-232.003
46.6548
103.35
168.294
202.625
143.328
-10.7319
-123.881
13.5569
250.754
-201.534
-34.6591
93.3089
121.322
154.41
100.192
-19.4803
-165.381
11.1269
292.513
-94.8682
-47.2664
50.0665
52.3824
46.033
0.385829
-61.339
-61.3515
1.7582
290.071
-50.6793
-45.1733
26.246
54.6802
41.148
20.6496
9.4492
15.6816
117.216
263.563
-71.1909
-19.3444
14.5778
85.6233
61.152
-10.0218
-71.0152
-66.8281
-9.05968
232.879
-60.1328
49.6935
41.6905
139.296
76.7809
-12.264
-61.4414
-78.9238
-42.5992
214.605
-174.776
-58.7393
-38.0645
158.953
135.829
80.4211
-212.225
-67.1134
3.46527
197.111
-257.272
-270.41
-41.0316
161.709
196.965
315.315
-199.373
-6.29578
171.343
173.855
-128.394
-230.62
-0.41697
86.2983
67.5342
134.848
-178.845
4.51795
213.971
80.2376
8.41939
-250.705
52.482
-13.4136
-199.237
-86.7343
12.6919
9.97541
231.15
-64.8055
106.237
-377.231
83.235
-134.732
-282.778
-206.418
-284.646
-140.927
158.315
-182.227
98.8354
-803.837
206.855
-229.751
-627.918
-151.679
-814.886
-70.3992
254.851
-135.004
145.07
-991.577
676.144
-90.0851
-343.228
139.846
-860.02
95.0369
569.969
-197.041
-110.704
-1149.05
1050.19
-232.874
76.4888
446.298
-390.541
467.008
784.123
-429.279
-795.251
-1672.41
1687.27
-760.695
178.093
417.825
-188.885
592.48
577.758
-659.904
-940.422
-3210.26
1224.3
-624.615
-94.7437
338.28
-1306.33
45.4265
2436.1
)
;
        value           nonuniform List<scalar> 
1200
(
1462.1
1461.99
1462.03
1461.89
1461.77
1461.67
1461.63
1461.65
1461.52
1461.67
1462.1
1462.1
1462.05
1461.82
1461.71
1461.64
1461.59
1461.59
1461.42
1461.43
1462.08
1462.42
1462.21
1461.72
1461.52
1461.43
1461.3
1461.21
1461.08
1461.09
1462.55
1462.66
1463.33
1462.04
1461.45
1461.08
1460.76
1460.54
1460.42
1460.42
1461.64
1461.36
1463.9
1461.74
1460.72
1459.91
1459.42
1459.12
1458.89
1458.76
1457.35
1457.63
1458.22
1459.18
1457.28
1456.45
1455.86
1455.58
1455.46
1455.42
1451.35
1453.95
1451.75
1452.23
1451.02
1450.62
1450.31
1450.2
1450.22
1450.27
1443.97
1446.44
1446.69
1445.81
1445.41
1445.35
1445.01
1444.87
1444.74
1444.54
1438.68
1438.91
1441.03
1440.29
1440.03
1440.9
1440.65
1440.54
1440.38
1440.08
1438.4
1438.27
1439.06
1438.28
1438.52
1438.68
1438.43
1438.14
1437.94
1437.55
1440.23
1440.51
1439.07
1438.18
1438.19
1437.95
1437.82
1437.41
1437.26
1436.67
1442.91
1443.63
1440.83
1440
1439.39
1439.06
1438.64
1438.02
1437.72
1437.09
1444.27
1445.18
1443.49
1442.85
1441.57
1441.5
1440.35
1439.23
1438.52
1438.03
1443.96
1444.48
1444.09
1442.44
1441.95
1442.7
1441.07
1439.6
1438.54
1438.29
1441.67
1441.94
1441.47
1438.99
1440.38
1441.12
1440.72
1438.69
1437.25
1437.17
1437.99
1438.3
1437.68
1436.31
1437
1437.77
1438.89
1436.11
1434.13
1434.01
1430.46
1430.74
1430.63
1430.2
1429.82
1430.35
1431.62
1429.15
1427.03
1426.79
1417.68
1417.93
1418
1416.93
1417.02
1417.14
1418
1416.57
1414.74
1414.49
1401.12
1400.89
1401.55
1400.1
1399.96
1400.16
1400.59
1400
1398.53
1398.33
1379.23
1377.72
1380.25
1379.66
1380.04
1381.36
1382.02
1381.99
1380.67
1380.39
1352.71
1351.86
1355.16
1356.69
1358.35
1361.78
1363.36
1363.74
1362.21
1361.53
1326.43
1327.97
1328.92
1331.52
1334.03
1338.63
1340.9
1342.95
1341.1
1339.92
1299.14
1302.29
1303.01
1304.42
1307.05
1311.09
1313.36
1313.63
1312.37
1311.73
1270.73
1269.92
1275.68
1274.69
1275.6
1276.08
1276.09
1277.17
1278.17
1279.37
1262.4
1256.61
1263.58
1262.29
1260.98
1258.04
1254.27
1256.29
1258.94
1260.72
1275.13
1269.34
1271.48
1272.33
1270.84
1266.45
1262.88
1262.75
1262.97
1263.29
1297.83
1291.49
1287.93
1289.37
1286.17
1280.97
1275.65
1273.98
1273.09
1272.75
1328.9
1321.93
1310.87
1306.91
1298.75
1289.22
1282.55
1280.85
1280.4
1280.24
1324.5
1322.89
1314.54
1307.46
1296.27
1286.77
1282.99
1282.95
1284.46
1285.16
1314.7
1314.04
1308.26
1302.61
1292.64
1286.35
1284.82
1286.55
1290.03
1291.44
1319.97
1318.27
1308.31
1306.2
1299.09
1296.2
1295.12
1296.75
1300.32
1301.56
1316.55
1314.08
1305.98
1307.96
1304.17
1304.53
1303.55
1303.74
1305.46
1306.6
1297.32
1295.82
1296.73
1300.47
1299.38
1301.76
1301.21
1298.52
1296.2
1297.77
1280.24
1279.58
1283.3
1284.87
1285.67
1286.95
1287.43
1283.19
1277.87
1277.77
1271.77
1274.23
1276.31
1276.93
1275.76
1272.71
1272.24
1270.85
1264.66
1262.14
1254.64
1257.03
1257.66
1255.49
1253.88
1256.57
1257.31
1261.23
1253.42
1252.2
1228.56
1229.18
1231.02
1227.98
1227.2
1228.01
1229.31
1233.73
1230.82
1230.93
1195.11
1195.67
1196.4
1192.3
1195.11
1200.43
1203.71
1204.97
1204.85
1204.71
1154.93
1155.2
1152.29
1149.29
1157.5
1164.88
1169.12
1171.06
1173.24
1173.79
1121.6
1121.66
1117.09
1117.26
1127.02
1134.52
1139.83
1142.65
1145.7
1146.95
1103.89
1103.84
1098.93
1099.93
1107.96
1115.4
1122.18
1125.51
1129.55
1130.81
1113
1112.68
1108.93
1106.34
1108.31
1112.05
1118.7
1123.12
1128.46
1129.1
1145.34
1145.23
1143.43
1136.8
1133.97
1133.5
1137.18
1141.18
1145.79
1146.1
1177.11
1177.78
1173.27
1164.93
1158.8
1156.18
1158.85
1163.52
1169.86
1171.56
1206.3
1209.57
1201.99
1193.66
1186.99
1185.01
1189.53
1200.97
1217.35
1226.02
1219.05
1225.72
1218.99
1213.26
1206.04
1202.22
1204.12
1213.99
1230
1238.66
1194.71
1198.34
1195.35
1188.78
1179.93
1171.75
1166.03
1165.34
1170.41
1181.29
1154.46
1153.4
1152.96
1148.53
1140.57
1131.93
1124.1
1120.67
1121.04
1125.57
1116.57
1113.37
1114.11
1111.99
1106.32
1099.79
1093.48
1091.15
1090.19
1094.04
1088.84
1085.25
1087.59
1085.6
1082.35
1078.39
1073.99
1073.06
1070.85
1074.43
1070.04
1068.04
1071.12
1067.83
1065.98
1064.45
1061.7
1065.44
1059.01
1061.28
1052.77
1052.89
1055.47
1049.27
1046.4
1044.66
1041.53
1047.29
1037.34
1038.41
1022.51
1017.23
1022.82
1014.47
1010.96
1008.91
1002.42
1005.14
997.499
1000.75
978.201
959.975
979.282
973.823
973.123
976.508
970.008
971.812
965.716
971.526
946.379
912.672
954.575
954.974
955.683
955.856
949.349
957.436
947.774
952.487
926.833
874.287
955.397
950.903
946.79
938.648
925.195
933.174
918.54
920.959
880.859
813.138
938.724
920.915
917.809
895.95
870.995
874.233
849.869
849.096
729.355
638.298
821.709
811.666
817.004
781.46
750.327
754.141
716.89
719.194
464.122
321.965
604.779
598.274
609.116
565.905
538.88
561.505
503.429
513.881
165.378
-244.585
245.443
249.51
254.38
248.566
234.853
323.876
175.175
214.77
1462.27
1461.89
1461.86
1461.84
1461.8
1461.74
1461.63
1461.53
1461.45
1461.7
1462.17
1461.97
1462.03
1462
1461.85
1461.71
1461.56
1461.48
1461.42
1461.59
1462.4
1462.04
1462.1
1462.11
1461.78
1461.57
1461.33
1461.22
1461.08
1461.09
1462.66
1462.68
1463.22
1462.37
1461.73
1461.23
1460.8
1460.55
1460.29
1460.21
1461.83
1461.5
1463.15
1461.99
1461.03
1460.14
1459.45
1459.05
1458.8
1458.85
1457.37
1457.11
1457.69
1458.83
1457.41
1456.5
1455.85
1455.53
1455.39
1455.47
1451.68
1452.57
1451.82
1452.57
1451.58
1450.81
1450.39
1450.21
1450.14
1450.19
1444.08
1445.13
1446.25
1446.41
1446.05
1445.41
1445.01
1444.78
1444.75
1444.92
1438.62
1437.87
1440.5
1440.7
1441.22
1440.78
1440.71
1440.42
1440.34
1440.47
1438.39
1436.94
1438.61
1439
1439.63
1438.61
1438.67
1438.08
1437.9
1437.91
1440.38
1438.91
1438.74
1439.07
1438.89
1438.19
1438.17
1437.4
1437.21
1437.04
1442.92
1441.71
1440.03
1440.52
1440.37
1439.64
1439.15
1438.08
1437.69
1437.38
1444.28
1443.51
1442.07
1442.79
1442.81
1442.4
1440.93
1439.35
1438.55
1438.27
1443.93
1443.22
1442.54
1442.13
1443.54
1443.64
1441.64
1439.75
1438.6
1438.51
1441.59
1440.6
1440.08
1439.17
1441.79
1441.9
1441.33
1438.67
1437.14
1437.28
1438.1
1437.1
1436.12
1436.97
1437.66
1438.7
1439.32
1435.82
1433.82
1434.01
1430.7
1429.77
1428.91
1430.85
1430.22
1431.29
1431.7
1428.68
1426.53
1426.73
1417.67
1416.46
1416.34
1417.48
1417.77
1417.97
1417.99
1416.07
1414.17
1414.46
1400.73
1399.25
1399.82
1400.6
1401.13
1400.96
1400.53
1399.59
1398
1398.32
1378.71
1376.94
1378.3
1380.07
1381.29
1382.22
1381.99
1381.64
1380.17
1380.33
1352.61
1351.24
1353.51
1357.29
1359.72
1362.9
1363.5
1363.62
1361.72
1361.52
1326.71
1326.6
1327.92
1332.66
1336.1
1339.95
1341.95
1342.75
1340.66
1340.22
1299.2
1302.19
1301.91
1305.96
1308.79
1311.03
1311.88
1312.55
1311.59
1311.69
1269.58
1271.05
1274.56
1277.13
1277.32
1276.29
1274.75
1276.23
1277.48
1279.31
1260.68
1256.59
1263.03
1265.77
1263.48
1259.81
1255.53
1256.54
1258.97
1261.2
1273.96
1268.3
1271.6
1275.73
1272.71
1268.66
1264.16
1263.18
1263.42
1264.04
1297.36
1290.16
1288.63
1292.58
1287.5
1282.67
1276.37
1274.02
1273.29
1273.43
1328.08
1320.69
1312.05
1310.12
1300.31
1290.65
1283.42
1280.61
1280.36
1280.93
1324.02
1321.56
1315.3
1310.11
1297.8
1287.95
1283.92
1282.52
1284.23
1285.79
1314.12
1313.02
1308
1304.47
1293.66
1287.43
1285.45
1286.21
1289.75
1292
1319.84
1316.88
1307.78
1307.94
1299.95
1297.32
1295.72
1296.48
1299.95
1302.17
1316.93
1311.94
1305.27
1309.65
1304.83
1305.72
1304.26
1303.41
1304.93
1307.27
1298.51
1293.81
1295.94
1301.95
1299.95
1302.79
1302.13
1297.96
1295.8
1298.55
1281.02
1278.78
1283.05
1286.14
1286.08
1287.82
1288.18
1282.08
1277.74
1278.59
1272.9
1273.57
1276.82
1278.24
1276.09
1273.82
1273.08
1268.47
1264.59
1263.36
1256.31
1256.85
1258.87
1257.05
1254.72
1257.54
1257.72
1259.55
1253.2
1253.2
1230.16
1229.68
1232.19
1230.1
1228.13
1227.91
1228.51
1233.02
1230.62
1232.15
1196.08
1195.54
1197.72
1195.21
1196.64
1200.29
1202
1203.61
1204.17
1206.04
1154.33
1153.32
1154.72
1152.32
1159
1164.23
1167.91
1169.81
1172.5
1174.57
1120.29
1118.45
1120.25
1120.48
1128.67
1134.26
1139.36
1141.85
1145.13
1147.6
1104.34
1100.68
1101.33
1102.8
1108.87
1115.47
1121.94
1124.85
1129.05
1131.31
1114.49
1109.93
1108.54
1107.24
1108.2
1112.82
1118.61
1122.96
1127.86
1129.78
1146.97
1142.94
1142.25
1137.7
1134.73
1135.53
1138.28
1141.11
1144.59
1146.73
1178.83
1175.75
1173.67
1165.65
1160.82
1158.24
1160.17
1163.57
1168.66
1171.65
1208.26
1207.21
1202.44
1194.69
1188.68
1187.04
1190.98
1200.86
1216.11
1226.15
1221.45
1223.65
1218.63
1214.19
1207.28
1203.78
1205.14
1213.81
1228.39
1238.72
1197.5
1197.37
1194.86
1189.28
1180.48
1172.25
1166.1
1164.82
1169.9
1181.37
1157.21
1152.89
1152.5
1148.79
1141.13
1132.37
1124.38
1120.88
1121.26
1126.79
1119.03
1112.67
1113.92
1112.13
1107.19
1100.43
1093.46
1090.55
1089.53
1094
1090.97
1084.69
1088.08
1086.01
1083.74
1079.18
1073.93
1072.36
1070.07
1074.05
1072
1066.44
1070.5
1067.46
1067.57
1065.81
1062.54
1063.3
1058.34
1061.34
1054.54
1050.55
1052.7
1048.89
1048.02
1046.62
1044.7
1045.29
1037.28
1040.13
1023.97
1015.95
1020.46
1014.46
1011.79
1009.56
1003.72
1003.34
997.532
1002.88
978.619
959.881
976.759
974.303
972.954
974.452
969.031
971.978
965.77
973.83
945.355
913.477
950.717
955.787
954.314
952.923
947.192
954.645
946.346
954.083
924.792
874.981
947.101
952.926
944.44
932.252
923.609
925.051
917.848
923.531
879.497
814.341
928.377
927.378
916.844
892.427
872.373
865.663
850.885
854.844
727.404
637.015
809.76
821.501
814.591
782.218
754.783
750.251
721.646
727.058
459.798
314.005
587.488
614.258
601.457
567.695
542.964
559.6
509.388
519.741
158.384
-251.853
213.725
261.807
247.836
247.429
238.091
310.79
175.514
239.248
)
;
    }
    inlet
    {
        type            fixedFluxPressure;