/*--------------------------------*- C++ -*----------------------------------*\
  =========                 |
  \\      /  F ield         | OpenFOAM: The Open Source CFD Toolbox
   \\    /   O peration     | Website:  https://openfoam.org
    \\  /    A nd           | Version:  8
     \\/     M anipulation  |
\*---------------------------------------------------------------------------*/
FoamFile
{
    version     2.0;
    format      ascii;
    class       volVectorField;
    location    "100";
    object      U;
}
// * * * * * * * * * * * * * * * * * * * * * * * * * * * * * * * * * * * * * //

dimensions      [0 1 -1 0 0 0 0];

internalField   nonuniform List<vector> 
1200
(
(0.0798296 -0.00449944 -0.00969602)
(0.0794215 -0.00178741 -0.01555)
(0.0757622 0.00170904 -0.0422064)
(0.0720296 -0.000256437 -0.0457412)
(0.0924157 -0.00369851 -0.0225767)
(0.124001 -0.00555044 0.00619509)
(0.149243 -0.0156786 0.0256692)
(0.1655 -0.01977 0.0403962)
(0.174541 -0.0104563 0.0445123)
(0.157286 0.00107519 0.0480077)
(0.1264 0.0100153 0.0448359)
(0.0887555 0.0152341 0.0448547)
(0.0669126 0.0161135 0.0470734)
(0.0688267 0.0143754 0.0631914)
(0.0768461 0.00836789 0.0823511)
(0.0932253 -0.000123061 0.0887523)
(0.128169 -0.00725513 0.0928854)
(0.173439 -0.0128506 0.108216)
(0.221424 -0.0167969 0.125061)
(0.271323 -0.0160919 0.131845)
(0.319861 -0.0175864 0.128813)
(0.360096 -0.0253613 0.12138)
(0.393928 -0.0343868 0.115252)
(0.433069 -0.0284123 0.122876)
(0.404414 -0.00320435 0.133888)
(0.315899 0.0232675 0.134625)
(0.184739 0.0460987 0.12233)
(0.0128517 0.068812 0.0885844)
(-0.252045 0.0505402 -0.00256856)
(-0.299724 0.0419953 -0.0126099)
(-0.350562 0.0426147 -0.0175299)
(-0.400329 0.0339417 -0.00933424)
(-0.458001 0.0151488 0.00142805)
(-0.509374 0.00395788 0.0152332)
(-0.559968 -0.00366459 0.024365)
(-0.607293 -0.0024681 0.0364203)
(-0.66315 -0.00119993 0.0522684)
(-0.724699 -0.00359261 0.0663579)
(-0.786874 -0.00644679 0.0750475)
(-0.837537 -0.00940978 0.0736214)
(-0.863578 -0.0120823 0.0684911)
(-0.857718 -0.0147004 0.0736864)
(-0.827373 -0.0178358 0.0852235)
(-0.791915 -0.0200031 0.100476)
(-0.760731 -0.0216416 0.117519)
(-0.7425 -0.0207807 0.136292)
(-0.750143 -0.0159067 0.158905)
(-0.775404 -0.0155149 0.18708)
(-0.805894 -0.0232829 0.217561)
(-0.826387 -0.0364955 0.249233)
(-0.837085 -0.0542746 0.282924)
(-0.838822 -0.0763487 0.321277)
(-0.83259 -0.101678 0.366088)
(-0.828608 -0.132979 0.421247)
(-0.835596 -0.176093 0.489318)
(-0.845013 -0.234948 0.572387)
(-0.841837 -0.313608 0.667809)
(-0.837401 -0.411674 0.784025)
(-0.848579 -0.532902 0.905234)
(-0.863906 -0.704311 0.981582)
(0.079768 0.002702 0.00590971)
(0.0780852 0.00427142 0.0137618)
(0.0762312 0.00559934 0.0371272)
(0.0783668 -0.00389125 0.0520988)
(0.0720939 -0.0223114 0.0639731)
(0.0716996 -0.0189544 0.104251)
(0.0294005 -0.000546384 0.18597)
(-0.0454583 0.00617884 0.199413)
(-0.08642 0.013784 0.184523)
(-0.111836 0.018642 0.185979)
(-0.125948 0.0178464 0.190046)
(-0.132789 0.00767492 0.193708)
(-0.125588 -0.00742905 0.18476)
(-0.105912 -0.0151302 0.171915)
(-0.0879175 -0.0175975 0.165517)
(-0.0680479 -0.023479 0.154997)
(-0.0447487 -0.0295202 0.156628)
(-0.0252789 -0.0300594 0.188055)
(-0.0142334 -0.0310588 0.20225)
(-0.00446128 -0.0341362 0.180265)
(0.0135257 -0.0283956 0.170697)
(-0.0105497 -0.0128301 0.167549)
(-0.0744099 -0.000493346 0.126352)
(-0.13821 0.0182576 0.120772)
(-0.157267 0.0365673 0.146696)
(-0.172798 0.0466565 0.154951)
(-0.174623 0.058581 0.148897)
(-0.157249 0.0771372 0.128802)
(-0.158197 0.0585386 0.104937)
(-0.145457 0.025609 0.115985)
(-0.150064 0.0198528 0.133197)
(-0.138405 0.0309136 0.139454)
(-0.112881 0.0398707 0.126007)
(-0.104303 0.0355541 0.0929459)
(-0.133384 0.0314256 0.079846)
(-0.237915 0.0362784 0.0776678)
(-0.329768 0.0411455 0.0987651)
(-0.413445 0.0467284 0.129302)
(-0.495599 0.0476313 0.148041)
(-0.552118 0.0344581 0.14504)
(-0.562254 0.0136023 0.120472)
(-0.52028 -0.0087775 0.0816448)
(-0.448714 -0.0218074 0.0630021)
(-0.383339 -0.0151892 0.0813238)
(-0.315418 -0.00488758 0.122225)
(-0.27438 0.00716861 0.173565)
(-0.297061 0.0178107 0.212119)
(-0.329545 0.0217119 0.22543)
(-0.36892 0.0242128 0.229084)
(-0.410153 0.0270943 0.217185)
(-0.451136 0.035948 0.199221)
(-0.494969 0.0507311 0.157884)
(-0.563778 0.0660755 0.096565)
(-0.696442 0.0777075 0.0633197)
(-0.833024 0.0961747 0.064212)
(-0.942502 0.126549 0.0737058)
(-1.04483 0.178653 0.0820995)
(-1.18207 0.257181 0.0930867)
(-1.36762 0.351103 0.0947314)
(-1.64927 0.472617 0.0751211)
(0.0797976 0.00133603 0.00922598)
(0.0788541 0.00427106 0.0112347)
(0.0735562 0.0104506 0.0250372)
(0.0718563 0.0129767 0.0383631)
(-0.0143483 0.00572643 0.113554)
(-0.112072 0.0122342 0.137633)
(-0.138179 0.0211214 0.137282)
(-0.173631 0.0153979 0.147031)
(-0.192061 0.0113323 0.145771)
(-0.197244 0.013343 0.143161)
(-0.18781 0.013251 0.135841)
(-0.164882 0.00640317 0.123774)
(-0.135237 -0.00472079 0.114415)
(-0.117372 -0.00876425 0.113964)
(-0.110928 -0.0134898 0.112166)
(-0.113195 -0.0251644 0.110675)
(-0.127532 -0.0311515 0.113902)
(-0.151636 -0.0294888 0.123837)
(-0.185037 -0.0286253 0.136376)
(-0.225643 -0.026759 0.146556)
(-0.266953 -0.0156887 0.148868)
(-0.303907 0.00073636 0.139001)
(-0.339192 0.0093683 0.132523)
(-0.378672 0.0135318 0.12556)
(-0.403041 0.0219442 0.119703)
(-0.398823 0.0332953 0.11559)
(-0.368087 0.0479462 0.112112)
(-0.315082 0.0679795 0.10748)
(-0.272687 0.0595293 0.104017)
(-0.262915 0.0366268 0.102819)
(-0.241403 0.0369145 0.0908938)
(-0.182508 0.0384066 0.0849862)
(-0.1153 0.0375859 0.0893256)
(-0.0600669 0.0360919 0.076239)
(-0.0252406 0.0438819 0.054766)
(-0.0776721 0.0597133 0.028874)
(-0.145972 0.0581097 0.029105)
(-0.202681 0.0551035 0.00598128)
(-0.258407 0.0409438 -0.0423723)
(-0.300282 0.0133429 -0.0887233)
(-0.318037 -0.0147318 -0.116099)
(-0.303386 -0.0405353 -0.111147)
(-0.237601 -0.0648106 -0.113785)
(-0.164471 -0.0685688 -0.12467)
(-0.0424625 -0.072721 -0.116133)
(0.144863 -0.0532509 -0.0939278)
(0.26507 -0.00832959 -0.0711248)
(0.30706 0.0138247 -0.0273125)
(0.308243 0.0187278 0.00687324)
(0.281792 0.0150195 0.020974)
(0.238416 0.00925805 0.0440979)
(0.21073 0.007327 0.0878489)
(0.184138 0.0151589 0.107695)
(0.156639 0.00594842 0.121468)
(0.116284 -0.0273504 0.153978)
(0.0756546 -0.0620508 0.2299)
(-0.06515 -0.0899381 0.256329)
(-0.281836 -0.0860264 0.281964)
(-0.344443 -0.0922575 0.320893)
(-0.457816 0.0273228 0.261628)
(0.0799921 0.00256032 0.00329194)
(0.0796561 0.00614223 -0.00510592)
(0.0770982 0.0125413 -0.0154458)
(0.0776713 0.0271777 -0.00549495)
(0.0547654 0.0373147 0.0363965)
(-0.0144506 0.0272488 0.0870532)
(-0.0548613 0.0221363 0.0514347)
(-0.0754273 0.0194751 0.0211334)
(-0.0813851 0.0118525 -0.0185122)
(-0.078427 0.00873527 -0.0661313)
(-0.0467668 0.00153952 -0.111497)
(-0.0222039 -0.0136031 -0.12436)
(-0.00458383 -0.021348 -0.115166)
(0.012831 -0.0226039 -0.115906)
(0.0357069 -0.0175328 -0.125851)
(0.0191065 -0.0104332 -0.127935)
(-0.0583652 -0.00769046 -0.120578)
(-0.119777 -0.00641512 -0.110944)
(-0.177705 -0.00474303 -0.102447)
(-0.23493 -0.00555502 -0.0978856)
(-0.291261 -0.00143049 -0.097737)
(-0.344749 0.0103669 -0.0969787)
(-0.398148 0.024188 -0.100957)
(-0.451055 0.0329127 -0.112686)
(-0.482813 0.0321131 -0.120715)
(-0.47462 0.0301907 -0.115443)
(-0.433032 0.0416565 -0.100845)
(-0.37034 0.0643102 -0.0853444)
(-0.317193 0.0616284 -0.0891494)
(-0.292098 0.0274604 -0.111879)
(-0.250817 -0.00968873 -0.126807)
(-0.18886 -0.0303888 -0.122866)
(-0.124431 -0.0308488 -0.111914)
(-0.0629061 -0.0109222 -0.0850002)
(0.0485304 0.0441255 -0.0255759)
(0.0549532 0.0786812 -0.0167662)
(0.0186324 0.0864103 -0.0233422)
(-0.0145346 0.0789205 -0.0624717)
(-0.0552209 0.0605466 -0.111468)
(-0.0965825 0.0249957 -0.16069)
(-0.147331 -0.0142896 -0.180325)
(-0.145248 -0.05374 -0.155108)
(-0.0743494 -0.0882201 -0.143003)
(-0.051851 -0.0971249 -0.130091)
(0.0426443 -0.123362 -0.110615)
(0.173593 -0.116651 -0.10472)
(0.307424 -0.0559371 -0.103635)
(0.397429 -0.0123314 -0.102553)
(0.439493 0.0106597 -0.0927578)
(0.451642 0.0211239 -0.084939)
(0.453522 0.0247654 -0.0696127)
(0.463925 0.0312844 -0.0526025)
(0.470714 0.0477788 -0.0294988)
(0.462699 0.0516922 -0.0106007)
(0.434286 0.0397043 0.00406452)
(0.393514 0.0601068 0.0375809)
(0.358652 0.108919 0.0453216)
(0.28484 0.129153 0.0536439)
(0.229558 0.146854 0.0524205)
(0.143177 0.144046 0.0883281)
(0.0800465 0.00244169 -0.00134016)
(0.0807004 0.00599969 -0.00959343)
(0.0810999 0.0130389 -0.0228214)
(0.0843213 0.02796 -0.0236116)
(0.0837899 0.0416599 0.000960351)
(0.0615381 0.0453291 0.0424957)
(0.0397247 0.0365171 0.0234144)
(0.0243176 0.0249772 -0.0173567)
(0.0367512 0.0116442 -0.114353)
(0.02342 -0.000323544 -0.149561)
(0.0245071 -0.00916542 -0.128459)
(0.0177412 -0.0181263 -0.143949)
(0.00140291 -0.0279606 -0.169696)
(-0.0271962 -0.0315025 -0.184511)
(-0.0523886 -0.0175979 -0.17963)
(-0.0665469 0.00698862 -0.163354)
(-0.0862101 0.0172618 -0.159456)
(-0.131375 0.0163858 -0.170091)
(-0.184177 0.0149054 -0.17727)
(-0.232112 0.0136802 -0.175669)
(-0.274012 0.0183582 -0.171745)
(-0.314009 0.0300727 -0.170361)
(-0.355138 0.0416337 -0.166718)
(-0.396615 0.0473636 -0.170449)
(-0.418421 0.0407685 -0.172906)
(-0.407342 0.0326468 -0.160558)
(-0.377535 0.0380675 -0.149371)
(-0.331166 0.0528661 -0.142814)
(-0.271346 0.0464647 -0.137426)
(-0.202951 0.0096476 -0.130361)
(-0.136433 -0.0249678 -0.119827)
(-0.0916987 -0.0394104 -0.113076)
(-0.0655322 -0.0364408 -0.110581)
(-0.0512602 -0.0219641 -0.104305)
(-0.00371896 0.018198 -0.0847587)
(0.122983 0.065757 -0.048272)
(0.124128 0.0935514 -0.0438576)
(0.116144 0.0811396 -0.0723421)
(0.099005 0.0545716 -0.107198)
(0.0903753 0.0207417 -0.142622)
(0.0529016 -0.015278 -0.147525)
(0.0589124 -0.0663783 -0.128187)
(0.0737791 -0.100126 -0.123798)
(0.0476888 -0.111319 -0.116603)
(0.0893209 -0.153862 -0.0902385)
(0.186232 -0.163516 -0.0857356)
(0.301689 -0.0968871 -0.0854944)
(0.38878 -0.0384285 -0.0898291)
(0.446139 -0.00129516 -0.09883)
(0.471454 0.0168618 -0.111044)
(0.47887 0.0176175 -0.123593)
(0.488375 0.0147451 -0.135044)
(0.506818 0.0269241 -0.127813)
(0.516843 0.0373858 -0.103029)
(0.510265 0.0399742 -0.0669542)
(0.498907 0.0613646 -0.0199476)
(0.5071 0.0985479 0.0142359)
(0.506545 0.125408 0.053122)
(0.490429 0.149969 0.109211)
(0.53976 0.163775 0.136695)
(0.0800831 0.00216832 -0.00396109)
(0.0813392 0.00547919 -0.00819832)
(0.0841937 0.0117389 -0.0186536)
(0.0908349 0.0255167 -0.0254685)
(0.101857 0.0406788 -0.0170647)
(0.105862 0.0453343 0.0125099)
(0.106522 0.0372373 0.0122055)
(0.106463 0.0259385 -0.000204249)
(0.115598 0.011779 -0.0243796)
(0.120639 0.00454419 -0.0336885)
(0.124687 -0.00356687 -0.0429172)
(0.121841 -0.00822216 -0.0613865)
(0.107197 -0.00738485 -0.0946597)
(0.0603492 -0.00980331 -0.135394)
(0.00557826 -0.0137617 -0.160145)
(-0.0161725 -0.00356931 -0.172699)
(-0.0265464 0.0139802 -0.173194)
(-0.0448753 0.0245165 -0.172514)
(-0.0743078 0.026925 -0.173629)
(-0.105378 0.0230423 -0.174597)
(-0.13392 0.0246906 -0.175228)
(-0.158021 0.0355528 -0.168689)
(-0.180437 0.0482495 -0.152109)
(-0.203592 0.050859 -0.161749)
(-0.200195 0.0323754 -0.176107)
(-0.176992 0.0102695 -0.171835)
(-0.159198 0.0139003 -0.15618)
(-0.131116 0.0247932 -0.146909)
(-0.0728922 0.0130076 -0.135849)
(0.00934554 -0.024876 -0.118184)
(0.0578696 -0.0488855 -0.103403)
(0.079727 -0.0518708 -0.101765)
(0.0732812 -0.043659 -0.107451)
(0.031797 -0.0343133 -0.114809)
(0.0149569 -0.0219843 -0.12124)
(0.090466 0.0338193 -0.0921052)
(0.167682 0.0832019 -0.055883)
(0.194716 0.0759034 -0.0609384)
(0.213717 0.051912 -0.0712046)
(0.227031 0.0245114 -0.0896733)
(0.220925 -0.0115258 -0.10583)
(0.223267 -0.0562159 -0.108094)
(0.188931 -0.0859023 -0.100993)
(0.132202 -0.104836 -0.0784163)
(0.144133 -0.168528 -0.0598395)
(0.196129 -0.201031 -0.0676442)
(0.272118 -0.133287 -0.0709581)
(0.3325 -0.0662679 -0.0724462)
(0.380665 -0.0214289 -0.0754468)
(0.418059 0.00751306 -0.0847407)
(0.437028 0.0186163 -0.0988656)
(0.456426 0.0198238 -0.116257)
(0.4812 0.0336655 -0.117353)
(0.503975 0.0455391 -0.0915619)
(0.521135 0.0588869 -0.059313)
(0.546566 0.0882416 -0.00325947)
(0.587734 0.128427 0.0285255)
(0.653786 0.167627 0.0388144)
(0.711476 0.184971 0.0613362)
(0.827635 0.179235 0.0932794)
(0.0802581 0.00142688 -0.000316274)
(0.0821079 0.00380165 -6.79422e-05)
(0.0865028 0.00917856 -0.00615916)
(0.0957436 0.0205507 -0.0151128)
(0.113327 0.0344716 -0.0165787)
(0.132223 0.0394765 -0.00255017)
(0.148319 0.0331362 0.00174429)
(0.159979 0.0239348 0.00180347)
(0.169515 0.0126324 -0.003554)
(0.174711 0.00254498 -0.0124709)
(0.176517 -0.00629256 -0.0220519)
(0.175102 -0.00979104 -0.0343281)
(0.174957 -0.0044891 -0.0504187)
(0.176973 0.00451418 -0.0694623)
(0.171251 0.00788889 -0.0922723)
(0.146771 0.0125028 -0.11243)
(0.117616 0.0217453 -0.122261)
(0.0968404 0.0289041 -0.1282)
(0.0816193 0.0314806 -0.131633)
(0.0705978 0.029248 -0.134674)
(0.0548529 0.0300113 -0.145096)
(0.047232 0.0396305 -0.171344)
(0.0457947 0.050594 -0.101468)
(0.0422514 0.0437625 -0.0903184)
(0.0834415 0.0119866 -0.127535)
(0.0888332 -0.00386404 -0.121725)
(0.0954971 -6.89726e-05 -0.105571)
(0.120177 0.00255767 -0.101792)
(0.166921 -0.015048 -0.0939493)
(0.204797 -0.042359 -0.0764692)
(0.227057 -0.0581244 -0.0648511)
(0.247946 -0.0536767 -0.0623654)
(0.262958 -0.0273692 -0.0692164)
(0.231686 -0.0033415 -0.0811583)
(0.158836 -0.0120592 -0.0939651)
(0.0878759 -0.0114648 -0.107268)
(0.193629 0.0393673 -0.0576855)
(0.254421 0.0551951 -0.0352652)
(0.302939 0.0462237 -0.0325011)
(0.330426 0.0274967 -0.0410378)
(0.344185 -0.000630062 -0.0451668)
(0.32733 -0.0373345 -0.0358638)
(0.280631 -0.0618408 -0.0305157)
(0.215663 -0.0891133 -0.0205861)
(0.207134 -0.169781 -0.0262961)
(0.203795 -0.218303 -0.0537419)
(0.221689 -0.152131 -0.0657231)
(0.236466 -0.0819107 -0.0629188)
(0.255659 -0.0383639 -0.0483222)
(0.290589 -0.012499 -0.040956)
(0.321566 -0.00966754 -0.0562268)
(0.338579 -0.0177824 -0.0915224)
(0.368202 -0.00984609 -0.0946491)
(0.404133 -6.57443e-06 -0.072982)
(0.447527 0.00467494 -0.04352)
(0.515637 0.033254 -0.0169191)
(0.616661 0.0887905 -0.00768919)
(0.739128 0.131337 -0.0121005)
(0.873518 0.132601 -0.00572737)
(1.05293 0.0585884 0.00720849)
(0.0803254 0.00193371 0.00661533)
(0.0828014 0.00440822 0.0118698)
(0.0885469 0.00824487 0.0079554)
(0.0991055 0.0156279 0.000129661)
(0.119833 0.0259495 -0.00489994)
(0.146687 0.0299264 -0.00256358)
(0.171861 0.0254017 -0.0009183)
(0.191377 0.0183323 0.00231752)
(0.204726 0.00976648 0.00517738)
(0.211875 0.00246477 0.00700421)
(0.213273 -0.00344045 0.00804143)
(0.210557 -0.00622327 0.00785405)
(0.20808 -0.00439022 0.00595753)
(0.210238 -0.00130271 0.00271946)
(0.217323 0.00487726 -0.00199649)
(0.226701 0.0169494 -0.0137944)
(0.236655 0.0273449 -0.0306347)
(0.24745 0.0317769 -0.0469385)
(0.257432 0.0316082 -0.0598408)
(0.265889 0.0298069 -0.0688927)
(0.269748 0.0305817 -0.0816369)
(0.27642 0.0353421 -0.0993579)
(0.290261 0.0415143 -0.0827463)
(0.314494 0.0275437 -0.0688124)
(0.339659 0.00109613 -0.0682848)
(0.330224 -0.0097051 -0.0662032)
(0.320963 -0.0128926 -0.0585342)
(0.325418 -0.0164256 -0.0483581)
(0.340389 -0.0290405 -0.0378628)
(0.350148 -0.0498527 -0.0323528)
(0.350241 -0.0653081 -0.032634)
(0.352806 -0.0648242 -0.0355051)
(0.366794 -0.0401606 -0.0342414)
(0.389085 -0.00350798 -0.0198605)
(0.391994 0.0222375 0.0129781)
(0.323027 0.0257971 0.0613768)
(0.30234 0.0224339 0.0506133)
(0.32811 0.0344961 0.0402114)
(0.372825 0.0326056 0.0337795)
(0.407116 0.0216179 0.0275694)
(0.422394 0.00468997 0.028612)
(0.404706 -0.0210473 0.028698)
(0.356183 -0.0439888 0.0293811)
(0.283848 -0.0755952 0.0235169)
(0.265102 -0.156979 -0.00916344)
(0.195153 -0.209848 -0.0532763)
(0.133566 -0.147628 -0.0731138)
(0.0831395 -0.0772595 -0.0559003)
(0.0417761 -0.0360955 -0.0150837)
(0.0687873 -0.00100364 0.0403566)
(0.0790356 0.0153044 0.179494)
(0.0467438 0.0142277 0.230887)
(0.0105128 0.0112347 0.164628)
(0.0328921 0.0187835 0.063011)
(0.0521428 0.0367068 0.256965)
(0.0611787 0.0564897 0.380357)
(0.116455 0.0856192 0.374891)
(0.300878 0.128603 0.240464)
(0.488425 0.163998 0.15873)
(0.68986 0.234587 0.249297)
(0.0805815 -0.00088096 0.00427215)
(0.0831539 0.00052701 0.00495516)
(0.0893558 0.00318616 0.00530857)
(0.101297 0.00810022 0.00935461)
(0.123393 0.0153821 0.00766399)
(0.153697 0.0181382 0.00669215)
(0.183784 0.0153383 0.00719136)
(0.207512 0.0112915 0.00657932)
(0.223022 0.00638971 0.00761186)
(0.230742 0.00204259 0.00913483)
(0.23241 -0.00109566 0.0108626)
(0.23109 -0.00208613 0.0122705)
(0.231068 -8.5151e-05 0.0126568)
(0.235379 0.00405742 0.0118888)
(0.245138 0.00947924 0.0131061)
(0.263053 0.0162718 0.0141201)
(0.290049 0.0219664 0.0123804)
(0.322253 0.0244347 0.00816642)
(0.354302 0.0241822 0.002403)
(0.383601 0.0230842 -0.00313122)
(0.410237 0.0240982 -0.00979131)
(0.439879 0.0277976 -0.0199736)
(0.475796 0.0287749 -0.0229556)
(0.511041 0.0175226 -0.0207397)
(0.527815 0.000877099 -0.0205834)
(0.5181 -0.00613688 -0.0245153)
(0.505153 -0.00907422 -0.0265065)
(0.497163 -0.0134674 -0.0271462)
(0.489941 -0.0236091 -0.0281399)
(0.473043 -0.0385439 -0.0324008)
(0.443779 -0.0513545 -0.0409298)
(0.409986 -0.0557901 -0.0524143)
(0.384196 -0.045459 -0.0627341)
(0.376124 -0.0212604 -0.0623759)
(0.379376 0.0103416 -0.047722)
(0.393276 0.0361025 -0.020835)
(0.420111 0.0384074 -0.00422401)
(0.446493 0.0353285 0.0125935)
(0.475579 0.0276938 0.0247209)
(0.496075 0.0180009 0.0314327)
(0.499677 0.0064729 0.0363911)
(0.473102 -0.00834212 0.042176)
(0.424982 -0.0232683 0.0410116)
(0.356799 -0.0468171 0.0205218)
(0.324543 -0.117977 -0.032356)
(0.15307 -0.165622 -0.0744977)
(-0.020866 -0.108271 -0.0944321)
(-0.152919 -0.0478137 -0.046934)
(-0.276803 -0.0301297 -0.0305869)
(-0.3491 -0.0198618 -0.043674)
(-0.380101 -0.0113201 -0.0586305)
(-0.413714 -0.0151034 -0.0793852)
(-0.455329 -0.0311961 -0.091619)
(-0.476194 -0.0349174 -0.0930657)
(-0.447142 -0.0251662 -0.0831541)
(-0.392398 -0.0186717 -0.0891884)
(-0.339006 -0.0217491 -0.11384)
(-0.290251 -0.0508403 -0.155462)
(-0.248165 -0.113931 -0.177687)
(-0.269634 -0.233022 -0.195301)
(0.0804563 0.00533115 -0.00145181)
(0.0837156 0.00365103 -0.0109866)
(0.0904523 0.00323062 -0.0101367)
(0.102294 0.00405172 0.00190387)
(0.124083 0.00663782 -1.0215e-05)
(0.154684 0.00773387 -0.000319543)
(0.186233 0.00669738 0.00260628)
(0.211233 0.00525432 -0.00574367)
(0.227531 0.00314781 -0.0136823)
(0.236106 0.0010918 -0.0218588)
(0.239202 -6.24151e-05 -0.0306669)
(0.239518 -0.00036546 -0.0380731)
(0.241194 5.87717e-05 -0.0435013)
(0.247538 0.00128814 -0.0454334)
(0.26033 0.00315029 -0.0421468)
(0.282893 0.00559388 -0.0351474)
(0.317077 0.00774899 -0.027685)
(0.358937 0.00873928 -0.0223775)
(0.402334 0.00861624 -0.0192734)
(0.443706 0.00839859 -0.016724)
(0.484143 0.00904007 -0.0156986)
(0.529406 0.010575 -0.0184144)
(0.580104 0.0104595 -0.0182165)
(0.622228 0.00537087 -0.0177242)
(0.638691 -0.00102932 -0.021497)
(0.632259 -0.00430629 -0.0276369)
(0.620324 -0.00648338 -0.0339981)
(0.607941 -0.00952733 -0.0421022)
(0.58839 -0.014944 -0.0522215)
(0.549398 -0.0229 -0.0646192)
(0.482844 -0.0317262 -0.081743)
(0.390521 -0.0361723 -0.105384)
(0.293877 -0.0252118 -0.132284)
(0.229268 0.00056846 -0.149193)
(0.230231 0.0163022 -0.14577)
(0.276056 0.0189121 -0.128282)
(0.333235 0.0161576 -0.119799)
(0.393051 0.0171951 -0.112686)
(0.45162 0.0167786 -0.10222)
(0.497463 0.014076 -0.0966368)
(0.528079 0.0106402 -0.0965312)
(0.54558 0.00580613 -0.107982)
(0.545291 -0.00390372 -0.120014)
(0.495974 -0.0226727 -0.12515)
(0.410569 -0.0705998 -0.123692)
(0.0382997 -0.0895452 -0.129672)
(-0.242338 -0.020378 -0.151669)
(-0.314823 0.0184883 -0.157812)
(-0.337369 0.0320216 -0.148757)
(-0.341793 0.0366393 -0.158396)
(-0.332078 0.0420786 -0.185867)
(-0.313945 0.0468588 -0.223714)
(-0.311321 0.0503891 -0.249234)
(-0.320917 0.0573618 -0.265139)
(-0.308062 0.0713042 -0.273712)
(-0.254576 0.0923763 -0.300219)
(-0.174026 0.118559 -0.344907)
(-0.0764289 0.148123 -0.37518)
(-0.0277537 0.202484 -0.400799)
(0.0327154 0.357189 -0.575215)
(0.0801718 -0.00368011 -0.00990404)
(0.0796076 -0.000998662 -0.0159994)
(0.075689 0.00277355 -0.0432969)
(0.0709208 -0.000162619 -0.0462142)
(0.0908583 -0.00439018 -0.0222276)
(0.123414 -0.00705244 0.00657458)
(0.148953 -0.0168347 0.0262821)
(0.163527 -0.0217971 0.0419738)
(0.174772 -0.0132865 0.0446646)
(0.158879 -0.0013601 0.0476342)
(0.128758 0.0082234 0.0446982)
(0.0914255 0.0140069 0.0451279)
(0.0683319 0.0151017 0.0470977)
(0.0696399 0.0137888 0.0624313)
(0.0771054 0.00822579 0.0822737)
(0.0926386 -0.000298701 0.0894767)
(0.126879 -0.00770968 0.0939541)
(0.171732 -0.0130646 0.109586)
(0.219194 -0.016386 0.126985)
(0.268637 -0.0158823 0.134044)
(0.316866 -0.0171602 0.131032)
(0.357402 -0.0240936 0.123514)
(0.389563 -0.0337804 0.116946)
(0.428384 -0.0300476 0.124458)
(0.407171 -0.0062013 0.136093)
(0.322555 0.0210885 0.137717)
(0.189133 0.0467675 0.125785)
(0.00250079 0.0720514 0.0888126)
(-0.207384 0.0475934 -0.0043659)
(-0.251509 0.0374575 -0.0173058)
(-0.304822 0.0421745 -0.0252793)
(-0.377083 0.038583 -0.0143125)
(-0.47676 0.0149892 0.00331718)
(-0.53406 0.00121938 0.0175671)
(-0.580118 -0.00554557 0.0266076)
(-0.621652 -0.00445875 0.0384529)
(-0.671808 -0.00368896 0.0539703)
(-0.727792 -0.00584564 0.0678595)
(-0.784766 -0.0079372 0.0765852)
(-0.831164 -0.00974299 0.0753211)
(-0.854606 -0.0111639 0.0702594)
(-0.848313 -0.0134757 0.0755334)
(-0.819154 -0.0169129 0.0873961)
(-0.785011 -0.0197062 0.102831)
(-0.754541 -0.0219832 0.12005)
(-0.735692 -0.0218907 0.139175)
(-0.743167 -0.017594 0.162253)
(-0.768601 -0.0176816 0.19104)
(-0.79944 -0.0260939 0.222057)
(-0.820027 -0.0400516 0.254193)
(-0.829635 -0.0583282 0.288216)
(-0.829238 -0.0805108 0.326687)
(-0.822514 -0.10518 0.372224)
(-0.821581 -0.135776 0.429321)
(-0.831566 -0.178282 0.499045)
(-0.83962 -0.236057 0.582181)
(-0.830901 -0.313887 0.677187)
(-0.820474 -0.4117 0.793477)
(-0.830006 -0.532917 0.912546)
(-0.846029 -0.707095 0.984147)
(0.0796311 0.00334028 0.0056584)
(0.0781918 0.00426886 0.0131114)
(0.0760214 0.00545216 0.0353291)
(0.0788102 -0.00458361 0.0499882)
(0.0733838 -0.0222597 0.0634236)
(0.0737255 -0.0193151 0.104112)
(0.0327525 -0.0012431 0.187012)
(-0.0434637 0.00497811 0.201555)
(-0.0852221 0.0127292 0.186537)
(-0.109696 0.0181209 0.187416)
(-0.12341 0.0178818 0.191335)
(-0.130552 0.008279 0.19532)
(-0.123877 -0.00670024 0.186646)
(-0.1043 -0.0145201 0.173684)
(-0.0858144 -0.0169241 0.167245)
(-0.0655374 -0.0225646 0.156658)
(-0.0418512 -0.0286301 0.157935)
(-0.0223479 -0.029459 0.189191)
(-0.0110868 -0.0306415 0.203394)
(-0.00100351 -0.0338059 0.180796)
(0.0179461 -0.028825 0.171571)
(-0.00150068 -0.0134766 0.169856)
(-0.0601299 -0.0019341 0.126284)
(-0.124972 0.0158967 0.119577)
(-0.143878 0.0353381 0.14718)
(-0.15792 0.0483692 0.156096)
(-0.160209 0.0645719 0.148685)
(-0.149284 0.0851143 0.125756)
(-0.15854 0.0610511 0.10079)
(-0.149739 0.0303786 0.11458)
(-0.156922 0.0303853 0.130485)
(-0.145454 0.0408684 0.13556)
(-0.123455 0.0420334 0.122862)
(-0.118968 0.0325891 0.0914419)
(-0.154885 0.0269234 0.0812862)
(-0.255471 0.0331991 0.0824726)
(-0.341774 0.0387882 0.103232)
(-0.420505 0.0436586 0.132233)
(-0.495541 0.0428036 0.149648)
(-0.543213 0.0291244 0.144611)
(-0.545893 0.0104544 0.117246)
(-0.502082 -0.00792641 0.0776689)
(-0.435107 -0.0187025 0.0622029)
(-0.372043 -0.012556 0.0818018)
(-0.306432 -0.00268661 0.123987)
(-0.265526 0.00885726 0.176884)
(-0.287713 0.0196525 0.215166)
(-0.321593 0.024066 0.226385)
(-0.364193 0.0269113 0.228401)
(-0.409164 0.0302706 0.214876)
(-0.455021 0.0400612 0.193963)
(-0.508279 0.0560951 0.148959)
(-0.59956 0.0728458 0.0918374)
(-0.739991 0.0845779 0.0702147)
(-0.858653 0.098496 0.0759931)
(-0.934942 0.11961 0.0906273)
(-1.03077 0.166745 0.100693)
(-1.17233 0.245866 0.110328)
(-1.34428 0.337162 0.114475)
(-1.63771 0.469419 0.088332)
(0.0794742 0.00121823 0.00914554)
(0.078601 0.00358052 0.0110376)
(0.0733205 0.0091906 0.0241179)
(0.0717804 0.01271 0.037579)
(-0.0143481 0.0053781 0.115603)
(-0.110084 0.0115333 0.13908)
(-0.135076 0.0205896 0.138709)
(-0.170426 0.0144785 0.148749)
(-0.188792 0.0103583 0.147387)
(-0.193805 0.0129881 0.14434)
(-0.184289 0.0136591 0.136657)
(-0.161549 0.00731226 0.124505)
(-0.13131 -0.00378435 0.113809)
(-0.112546 -0.00757515 0.113145)
(-0.104942 -0.0121145 0.110995)
(-0.106241 -0.0239352 0.10906)
(-0.12063 -0.0300363 0.11272)
(-0.145024 -0.0284258 0.12371)
(-0.178515 -0.0277806 0.136816)
(-0.218535 -0.0263259 0.146922)
(-0.258878 -0.0164386 0.149306)
(-0.294869 -0.000878994 0.140455)
(-0.328808 0.00811253 0.133977)
(-0.367504 0.0118699 0.127076)
(-0.391451 0.0203868 0.121004)
(-0.38491 0.0345213 0.116362)
(-0.351208 0.0534837 0.111632)
(-0.296769 0.076762 0.105126)
(-0.259026 0.0658301 0.101235)
(-0.250168 0.0445472 0.10289)
(-0.226423 0.0463332 0.0951264)
(-0.16882 0.0435673 0.0917683)
(-0.104109 0.0330089 0.0934843)
(-0.0531609 0.0286304 0.0769398)
(-0.0261174 0.036367 0.0521935)
(-0.0835956 0.0547607 0.0276232)
(-0.144978 0.0531773 0.0264549)
(-0.19783 0.050009 0.00330128)
(-0.257447 0.0411417 -0.0381004)
(-0.302876 0.015809 -0.0821147)
(-0.326465 -0.0116041 -0.109297)
(-0.313047 -0.039114 -0.108701)
(-0.245439 -0.0674579 -0.112628)
(-0.167624 -0.0739428 -0.123357)
(-0.0407157 -0.0767022 -0.115669)
(0.144484 -0.0528539 -0.092924)
(0.258823 -0.00681765 -0.0689044)
(0.29708 0.0149971 -0.024555)
(0.296285 0.0206186 0.0117186)
(0.273054 0.0174565 0.0260032)
(0.229682 0.0127508 0.0500732)
(0.193023 0.0124331 0.0945904)
(0.161255 0.0196806 0.112336)
(0.144155 -4.27762e-05 0.125958)
(0.128639 -0.0522922 0.161483)
(0.0839015 -0.0954276 0.240067)
(-0.0538102 -0.13582 0.273786)
(-0.241848 -0.151523 0.30177)
(-0.29513 -0.166701 0.336421)
(-0.438447 -0.0188935 0.282281)
(0.0796441 0.00205175 0.00324476)
(0.0789842 0.00570644 -0.0053503)
(0.076852 0.0122093 -0.0159626)
(0.0776 0.0267818 -0.00600718)
(0.0548935 0.0364975 0.0370036)
(-0.0133085 0.0262413 0.0886549)
(-0.052937 0.0220511 0.0524753)
(-0.0722097 0.0196348 0.0207177)
(-0.0817287 0.0130856 -0.0171672)
(-0.0774159 0.00984349 -0.0662034)
(-0.0451818 0.0018882 -0.111375)
(-0.0217894 -0.0137164 -0.122404)
(-0.0038976 -0.0216677 -0.113199)
(0.0136627 -0.022861 -0.113862)
(0.0371372 -0.0172698 -0.123968)
(0.0175359 -0.00997939 -0.126018)
(-0.0612057 -0.00739543 -0.119186)
(-0.124465 -0.00623054 -0.110111)
(-0.183073 -0.00461722 -0.10149)
(-0.240566 -0.00487417 -0.0965048)
(-0.297063 0.000474737 -0.0958177)
(-0.350505 0.0130375 -0.0946059)
(-0.404605 0.0268762 -0.0996438)
(-0.457734 0.0346338 -0.112526)
(-0.488803 0.0315655 -0.122377)
(-0.48106 0.0264788 -0.119828)
(-0.442327 0.0341 -0.108043)
(-0.382426 0.0547435 -0.093028)
(-0.328277 0.0543271 -0.0936413)
(-0.30055 0.0227064 -0.11227)
(-0.259543 -0.0125318 -0.124098)
(-0.201323 -0.0308862 -0.119148)
(-0.139531 -0.0296465 -0.108926)
(-0.0768352 -0.010283 -0.0852973)
(0.031804 0.0417721 -0.0321224)
(0.0537173 0.0786551 -0.017632)
(0.0180932 0.087621 -0.02408)
(-0.0167392 0.0830405 -0.0592642)
(-0.0592847 0.0695037 -0.105101)
(-0.100421 0.0345282 -0.153219)
(-0.153444 -0.00633149 -0.175967)
(-0.155434 -0.0509645 -0.155649)
(-0.0776244 -0.0925958 -0.143605)
(-0.049821 -0.105727 -0.130155)
(0.0486752 -0.128955 -0.111942)
(0.178766 -0.116186 -0.105579)
(0.308764 -0.0538864 -0.104053)
(0.393991 -0.0110678 -0.102237)
(0.433217 0.0110165 -0.0921044)
(0.445097 0.0207545 -0.0846122)
(0.447198 0.0229772 -0.0697204)
(0.455841 0.0275059 -0.0538782)
(0.458291 0.044708 -0.0298852)
(0.454451 0.0491188 -0.0114953)
(0.45615 0.0360076 -0.010494)
(0.438091 0.0475545 0.00424178)
(0.450227 0.0908774 -0.00321715)
(0.467819 0.104567 -0.0118303)
(0.509898 0.11192 -0.0412848)
(0.302812 0.0965581 0.0579344)
(0.0799581 0.00206118 -0.001378)
(0.0804935 0.00625273 -0.00965038)
(0.0810792 0.0137208 -0.0228935)
(0.0844051 0.0286107 -0.0234547)
(0.0837485 0.0422613 0.00121489)
(0.061846 0.0447067 0.0433158)
(0.0400778 0.0367074 0.0244532)
(0.023921 0.0264413 -0.0185787)
(0.0371461 0.0124366 -0.114346)
(0.0232477 -3.27607e-05 -0.147607)
(0.0238709 -0.00923927 -0.126759)
(0.0166779 -0.018732 -0.14296)
(-0.000249703 -0.028952 -0.16845)
(-0.0292237 -0.0319218 -0.18226)
(-0.0543674 -0.0169891 -0.177215)
(-0.068674 0.00765292 -0.161862)
(-0.0891348 0.01773 -0.158105)
(-0.134709 0.0169132 -0.168092)
(-0.188256 0.0153503 -0.175183)
(-0.236988 0.0144562 -0.17366)
(-0.279299 0.0202066 -0.169605)
(-0.319103 0.0330653 -0.168048)
(-0.360183 0.0450245 -0.164647)
(-0.400516 0.04947 -0.168763)
(-0.418611 0.0395207 -0.171678)
(-0.404126 0.0274817 -0.159745)
(-0.375741 0.0294045 -0.149376)
(-0.33457 0.0415663 -0.143563)
(-0.278257 0.0365728 -0.137484)
(-0.209379 0.0020711 -0.129086)
(-0.148101 -0.029739 -0.118564)
(-0.106901 -0.0418535 -0.111853)
(-0.0831182 -0.0366752 -0.109033)
(-0.0666009 -0.0219544 -0.102668)
(-0.0225316 0.0114074 -0.0871901)
(0.11617 0.0677512 -0.0480476)
(0.115598 0.0998507 -0.0433984)
(0.10538 0.0900343 -0.0701644)
(0.0877135 0.0664755 -0.104001)
(0.0811492 0.0314376 -0.139119)
(0.0431121 -0.0056382 -0.14577)
(0.0520258 -0.0644008 -0.129823)
(0.074406 -0.10596 -0.124636)
(0.0502027 -0.12031 -0.116658)
(0.093358 -0.160222 -0.0919509)
(0.19051 -0.162094 -0.086929)
(0.306122 -0.0925489 -0.0866195)
(0.39041 -0.035528 -0.0904995)
(0.444357 -0.000150006 -0.0988944)
(0.466895 0.0168235 -0.110981)
(0.471497 0.0160272 -0.124065)
(0.477569 0.0116103 -0.136021)
(0.494849 0.0262601 -0.128146)
(0.50801 0.0426982 -0.102024)
(0.507858 0.0457041 -0.0657289)
(0.50363 0.0628005 -0.0251952)
(0.541022 0.104491 -0.00417006)
(0.582576 0.125484 0.0290146)
(0.586528 0.143782 0.0837574)
(0.613679 0.150496 0.126936)
(0.0802202 0.00223649 -0.00399771)
(0.0813933 0.00592203 -0.00827787)
(0.0842882 0.0123553 -0.0187506)
(0.0910079 0.0261945 -0.0253583)
(0.101934 0.0416342 -0.0169064)
(0.10589 0.0457504 0.0129296)
(0.106233 0.038285 0.0128538)
(0.104004 0.0283517 -0.00086458)
(0.11464 0.013583 -0.0265663)
(0.120174 0.00567296 -0.0351291)
(0.124996 -0.00330766 -0.0432329)
(0.122125 -0.00808872 -0.0614643)
(0.106347 -0.00736397 -0.0946597)