/*--------------------------------*- C++ -*----------------------------------*\
  =========                 |
  \\      /  F ield         | OpenFOAM: The Open Source CFD Toolbox
   \\    /   O peration     | Website:  https://openfoam.org
    \\  /    A nd           | Version:  8
     \\/     M anipulation  |
\*---------------------------------------------------------------------------*/
FoamFile
{
    version     2.0;
    format      ascii;
    class       volScalarField;
    location    "700";
    object      alphat;
}
// * * * * * * * * * * * * * * * * * * * * * * * * * * * * * * * * * * * * * //

dimensions      [1 -1 -1 0 0 0 0];

internalField   nonuniform List<scalar> 
8400
(
0.161962
0.16068
0.159413
0.158153
0.156899
0.155644
0.154383
0.153113
0.15183
0.150528
0.149204
0.147855
0.146477
0.145068
0.143625
0.142144
0.140625
0.139063
0.137458
0.135809
0.134115
0.132377
0.130594
0.12877
0.126906
0.125005
0.123073
0.121113
0.11913
0.117133
0.115128
0.113124
0.111131
0.109159
0.10722
0.105323
0.103482
0.10171
0.100018
0.0984187
0.0969236
0.0955443
0.0942914
0.0931736
0.0921982
0.0913727
0.0907033
0.0901937
0.0898458
0.0896631
0.0736745
0.0735783
0.0734802
0.0733786
0.0732718
0.0731585
0.0730371
0.0729059
0.0727632
0.0726076
0.0724377
0.0722525
0.0720516
0.0718344
0.0716004
0.0713494
0.0710811
0.0707953
0.0704929
0.0701747
0.0698419
0.0694964
0.06914
0.0687751
0.0684046
0.068032
0.0676607
0.0672944
0.0669372
0.066594
0.0662698
0.0659703
0.0657008
0.065466
0.065271
0.0651212
0.0650215
0.0649756
0.0649862
0.0650551
0.065184
0.0653735
0.0656222
0.0659269
0.0662856
0.066696
0.0671544
0.0676576
0.068204
0.068796
0.0655448
0.0654615
0.0653792
0.0652963
0.0652114
0.065123
0.0650304
0.0649323
0.0648274
0.064715
0.0645945
0.0644654
0.0643281
0.0641827
0.0640295
0.0638687
0.0637007
0.0635266
0.0633476
0.0631656
0.062982
0.0627989
0.0626184
0.0624429
0.0622749
0.0621172
0.0619723
0.0618425
0.0617303
0.0616383
0.0615691
0.0615248
0.0615073
0.061518
0.0615583
0.0616295
0.0617318
0.0618646
0.062027
0.0622181
0.062437
0.0626817
0.0629493
0.0632375
0.0635458
0.063872
0.064214
0.0645727
0.0649484
0.0653481
0.060452
0.0604342
0.0604179
0.0604025
0.0603875
0.0603723
0.0603567
0.0603403
0.0603227
0.0603033
0.0602825
0.0602603
0.0602373
0.0602136
0.0601894
0.0601647
0.0601398
0.0601154
0.0600921
0.060071
0.0600529
0.0600385
0.0600284
0.0600232
0.0600241
0.0600321
0.0600477
0.0600714
0.0601038
0.0601454
0.0601967
0.0602582
0.0603301
0.0604129
0.0605067
0.0606117
0.0607273
0.0608529
0.0609886
0.0611347
0.0612907
0.0614556
0.0616291
0.0618122
0.0620055
0.0622082
0.0624206
0.0626439
0.0628817
0.0631361
0.0588483
0.0588729
0.0588977
0.0589224
0.0589471
0.0589718
0.0589966
0.0590207
0.0590443
0.0590675
0.0590906
0.0591137
0.0591372
0.0591609
0.0591844
0.0592079
0.0592312
0.059255
0.0592801
0.0593067
0.0593346
0.0593635
0.0593935
0.0594252
0.0594591
0.0594954
0.0595342
0.0595755
0.0596193
0.0596658
0.0597151
0.0597675
0.0598233
0.0598829
0.0599464
0.0600138
0.0600849
0.0601601
0.0602404
0.0603263
0.0604175
0.0605142
0.0606181
0.0607309
0.0608526
0.0609849
0.0611288
0.061284
0.061453
0.0616419
0.0583657
0.058408
0.05845
0.0584916
0.0585321
0.0585707
0.058608
0.0586439
0.0586779
0.0587105
0.0587419
0.0587727
0.0588024
0.0588308
0.0588581
0.0588842
0.0589093
0.0589339
0.0589589
0.0589844
0.0590104
0.0590364
0.0590625
0.0590892
0.0591169
0.0591458
0.059176
0.0592075
0.05924
0.0592738
0.059309
0.0593459
0.0593846
0.0594249
0.0594664
0.0595095
0.059555
0.0596035
0.0596554
0.0597105
0.0597689
0.0598318
0.0599014
0.0599773
0.0600593
0.0601508
0.0602525
0.0603663
0.0604959
0.0606419
0.0578401
0.0578868
0.0579365
0.0579876
0.0580389
0.0580892
0.0581373
0.0581825
0.058225
0.0582652
0.0583028
0.0583384
0.0583717
0.0584025
0.0584306
0.0584561
0.0584802
0.0585045
0.0585296
0.0585551
0.058581
0.0586069
0.058633
0.0586598
0.0586882
0.0587182
0.0587499
0.0587828
0.0588165
0.0588513
0.0588876
0.0589251
0.058963
0.0590009
0.0590386
0.0590774
0.0591184
0.0591615
0.0592067
0.0592537
0.0593029
0.0593557
0.0594129
0.0594738
0.0595404
0.0596126
0.0596918
0.0597819
0.0598879
0.0600044
0.0573821
0.0573752
0.0573828
0.057403
0.0574328
0.057469
0.05751
0.0575525
0.0575946
0.0576359
0.0576765
0.057715
0.0577506
0.057783
0.0578136
0.0578432
0.0578723
0.0579022
0.0579335
0.0579659
0.0579992
0.0580333
0.058069
0.0581066
0.0581465
0.0581884
0.0582323
0.0582781
0.0583252
0.058373
0.0584215
0.0584699
0.0585171
0.0585634
0.0586096
0.0586568
0.0587054
0.0587557
0.0588078
0.0588608
0.0589149
0.0589725
0.0590347
0.0591002
0.059166
0.0592363
0.059315
0.0594008
0.0594923
0.0595994
0.0577998
0.0576315
0.0574868
0.0573714
0.0572858
0.0572234
0.0571819
0.0571573
0.0571464
0.0571458
0.0571529
0.0571641
0.0571784
0.057195
0.0572125
0.0572319
0.0572545
0.0572805
0.0573098
0.0573417
0.0573763
0.0574145
0.0574578
0.0575063
0.0575585
0.0576125
0.0576688
0.0577292
0.0577945
0.0578601
0.0579248
0.0579888
0.058051
0.058112
0.0581729
0.0582341
0.0582967
0.0583612
0.0584263
0.0584903
0.0585572
0.0586296
0.0587019
0.0587789
0.0588575
0.0589504
0.0590395
0.0591321
0.0592285
0.0593308
0.0594323
0.0591706
0.0589334
0.058717
0.0585246
0.0583446
0.0581784
0.0580269
0.0578923
0.0577849
0.0576872
0.0575991
0.0575045
0.0574099
0.0573241
0.0572473
0.0571835
0.0571293
0.0570814
0.0570375
0.057006
0.0569957
0.0570118
0.05706
0.0571375
0.0572187
0.0572807
0.057332
0.0574114
0.0574954
0.0575794
0.0576765
0.0577722
0.0578509
0.0579213
0.0579927
0.0580649
0.0581267
0.0581845
0.0582511
0.0583244
0.0583947
0.0584798
0.0585673
0.0586454
0.0587536
0.058855
0.0589478
0.0590468
0.0591495
0.0607513
0.0605958
0.0604581
0.060338
0.0602368
0.0601168
0.0599733
0.0598332
0.0595977
0.0595201
0.059384
0.0592675
0.0591171
0.0589243
0.0586959
0.0583921
0.0581289
0.057913
0.0576956
0.0574109
0.057135
0.0569432
0.0567876
0.0567133
0.0570101
0.0576632
0.0581209
0.05794
0.0578779
0.0578578
0.0578447
0.0580284
0.0582676
0.0583166
0.0582687
0.0582907
0.0583644
0.0583639
0.0583672
0.0584528
0.0584975
0.0584565
0.0585501
0.0585691
0.0586319
0.0587283
0.0588378
0.05892
0.059003
0.0590915
0.0611429
0.0610439
0.0609553
0.0608708
0.06079
0.060707
0.060615
0.0605316
0.0604492
0.0603685
0.0602908
0.0602133
0.0601329
0.060047
0.0599571
0.0598674
0.059783
0.0597009
0.0596148
0.0595225
0.0594325
0.0593606
0.059308
0.0592452
0.0591408
0.0590136
0.0589484
0.0589229
0.058889
0.0588562
0.058842
0.0588449
0.0588475
0.0588372
0.0588279
0.058828
0.0588293
0.0588337
0.0588461
0.058866
0.0588851
0.0588896
0.0589314
0.0589379
0.0589692
0.059017
0.0590589
0.0591198
0.0591561
0.0592197
0.0611851
0.0611302
0.0610771
0.0610246
0.0609723
0.0609184
0.0608659
0.0608106
0.0607584
0.0607069
0.0606582
0.0606098
0.0605587
0.060505
0.0604494
0.0603927
0.0603359
0.0602791
0.060222
0.0601647
0.0601074
0.0600512
0.059998
0.0599479
0.0598989
0.0598487
0.0598002
0.0597546
0.0597122
0.0596741
0.059641
0.0596108
0.0595816
0.0595538
0.0595287
0.0595043
0.0594792
0.0594565
0.0594351
0.0594146
0.059397
0.0593844
0.0593762
0.0593709
0.0593719
0.0593691
0.059373
0.059401
0.059421
0.0594504
0.0612008
0.0611632
0.0611272
0.0610905
0.0610525
0.0610127
0.0609766
0.0609391
0.0609002
0.0608625
0.0608251
0.0607866
0.0607486
0.0607118
0.0606763
0.0606408
0.0606041
0.0605656
0.0605256
0.060485
0.0604442
0.0604041
0.060365
0.0603267
0.0602886
0.06025
0.0602118
0.0601747
0.0601388
0.0601045
0.0600719
0.0600401
0.0600093
0.0599806
0.0599532
0.059925
0.0598967
0.0598697
0.0598427
0.0598175
0.0597933
0.0597734
0.059749
0.0597342
0.0597227
0.0597096
0.0597006
0.0596946
0.0596957
0.0597015
0.0612084
0.0611803
0.0611524
0.061124
0.0610952
0.0610649
0.0610353
0.0610068
0.0609787
0.0609507
0.0609222
0.060893
0.0608634
0.0608338
0.0608044
0.0607749
0.0607447
0.0607142
0.0606833
0.0606522
0.0606214
0.0605912
0.060561
0.0605306
0.0605002
0.0604703
0.0604412
0.0604129
0.0603847
0.0603567
0.0603295
0.0603027
0.0602766
0.0602512
0.0602256
0.0601999
0.0601757
0.0601524
0.0601289
0.0601065
0.0600832
0.0600616
0.0600379
0.0600174
0.0599985
0.0599804
0.0599671
0.0599557
0.0599471
0.0599449
0.0612143
0.0611924
0.0611702
0.0611481
0.0611252
0.0611018
0.0610781
0.0610538
0.06103
0.0610066
0.060983
0.0609596
0.0609366
0.060914
0.0608914
0.0608688
0.0608458
0.0608221
0.0607975
0.0607724
0.0607474
0.0607226
0.0606976
0.0606722
0.0606469
0.0606224
0.0605985
0.0605748
0.0605511
0.0605277
0.060505
0.060483
0.0604614
0.0604397
0.0604174
0.0603952
0.0603738
0.0603516
0.0603301
0.0603107
0.0602916
0.0602731
0.0602563
0.0602394
0.0602236
0.0602104
0.0601977
0.0601905
0.0601839
0.0601848
0.0612172
0.0611981
0.0611787
0.0611583
0.0611384
0.0611195
0.0611003
0.0610804
0.0610605
0.0610409
0.0610213
0.0610019
0.0609828
0.0609637
0.0609445
0.0609253
0.060906
0.0608863
0.060866
0.0608454
0.0608248
0.060804
0.060783
0.0607617
0.0607408
0.0607203
0.0607002
0.0606804
0.0606615
0.060644
0.0606277
0.0606125
0.0605987
0.060586
0.0605736
0.0605617
0.0605497
0.0605367
0.060525
0.0605141
0.0605045
0.0604962
0.0604898
0.060486
0.0604833
0.0604857
0.0604896
0.0605007
0.0605136
0.060533
0.0612217
0.0612072
0.0611935
0.0611792
0.0611651
0.0611518
0.0611388
0.0611257
0.0611123
0.0610994
0.0610879
0.0610773
0.0610673
0.0610569
0.0610458
0.0610339
0.0610206
0.0610054
0.0609885
0.0609697
0.0609481
0.0609232
0.0608983
0.0608797
0.0608667
0.0608585
0.0608543
0.0608532
0.0608473
0.0608402
0.0608341
0.0608353
0.0608546
0.0608849
0.0609207
0.0609584
0.0609947
0.0610211
0.0610422
0.0610629
0.0610895
0.0611246
0.0611622
0.0612016
0.0612412
0.0612824
0.0613257
0.0613749
0.0614203
0.0614606
0.06124
0.0612306
0.0612187
0.0612134
0.0612933
0.0616221
0.0619571
0.06218
0.0622173
0.0622357
0.0623494
0.0625466
0.0627465
0.062839
0.0628007
0.0626702
0.0624666
0.0621824
0.061969
0.0618697
0.0618485
0.0619017
0.0620346
0.06224
0.0623978
0.0624908
0.062574
0.0626806
0.0628383
0.0630259
0.0632123
0.0633871
0.0635458
0.0636977
0.0639043
0.0642041
0.0644646
0.0646464
0.0647711
0.0648833
0.0650199
0.0651931
0.065379
0.0655328
0.0656107
0.0655816
0.0654854
0.0654192
0.0653882
0.0653499
0.152721
0.153147
0.154242
0.154844
0.15458
0.15364
0.152603
0.15159
0.150756
0.150024
0.149333
0.14868
0.148046
0.147382
0.146614
0.145667
0.14444
0.142813
0.140641
0.13803
0.135061
0.131752
0.128185
0.124544
0.121159
0.118191
0.115669
0.113659
0.112217
0.111271
0.110576
0.109858
0.108896
0.107519
0.105644
0.10348
0.101399
0.0994521
0.0976611
0.096042
0.0945278
0.0930227
0.0914238
0.089616
0.0875718
0.0853329
0.0829206
0.0803557
0.0776865
0.0749939
0.27115
0.267814
0.264617
0.261547
0.25859
0.255729
0.25295
0.250247
0.247618
0.245059
0.242567
0.240141
0.237777
0.235473
0.233228
0.231038
0.228903
0.226819
0.224787
0.222803
0.220867
0.218978
0.217134
0.215334
0.213578
0.211864
0.210191
0.208558
0.206963
0.205405
0.203884
0.202399
0.200947
0.199529
0.198141
0.196785
0.195459
0.194162
0.192896
0.191653
0.190432
0.189232
0.18805
0.186884
0.185731
0.184588
0.183449
0.182305
0.181129
0.179865
0.26921
0.26305
0.257166
0.251531
0.24614
0.240984
0.236059
0.23135
0.226844
0.222529
0.218392
0.214423
0.210611
0.206946
0.203419
0.200022
0.196748
0.193588
0.190538
0.187592
0.184745
0.181993
0.179333
0.176759
0.174268
0.171856
0.16952
0.167255
0.165059
0.162926
0.160854
0.158838
0.156876
0.154963
0.153096
0.151273
0.149491
0.147748
0.146043
0.144381
0.142763
0.141188
0.139655
0.13816
0.136699
0.135272
0.133884
0.132556
0.131314
0.130151
0.269201
0.26302
0.257095
0.251423
0.245992
0.240789
0.235804
0.231022
0.226433
0.222025
0.217788
0.21371
0.209783
0.205998
0.202347
0.198822
0.195417
0.192125
0.18894
0.185859
0.182876
0.179987
0.177189
0.174479
0.171851
0.169303
0.166832
0.164433
0.162104
0.159842
0.157642
0.155502
0.153418
0.151389
0.149411
0.147484
0.145606
0.143776
0.141992
0.140254
0.138562
0.136913
0.135309
0.133747
0.132225
0.130733
0.129255
0.127788
0.12637
0.125109
0.269201
0.263065
0.257193
0.251573
0.246189
0.241026
0.236072
0.231315
0.226744
0.222348
0.218119
0.214045
0.210119
0.206332
0.202677
0.199146
0.195733
0.192432
0.189238
0.186146
0.183152
0.180251
0.177441
0.174717
0.172076
0.169515
0.16703
0.164617
0.162274
0.159998
0.157784
0.15563
0.153533
0.15149
0.1495
0.14756
0.14567
0.143827
0.142031
0.140281
0.138577
0.136916
0.135298
0.133723
0.132197
0.13072
0.129282
0.127852
0.126409
0.125053
0.269201
0.263066
0.257192
0.251565
0.246172
0.240999
0.236035
0.23127
0.226693
0.222292
0.218059
0.213983
0.210057
0.20627
0.202617
0.199089
0.195679
0.192382
0.189192
0.186105
0.183115
0.18022
0.177415
0.174696
0.172061
0.169504
0.167024
0.164616
0.162277
0.160004
0.157794
0.155643
0.153549
0.15151
0.149523
0.147586
0.145698
0.143858
0.142064
0.140317
0.138615
0.136956
0.135339
0.133758
0.132215
0.130716
0.129271
0.12787
0.126464
0.125094
0.269201
0.263069
0.257203
0.251585
0.246203
0.241042
0.236091
0.231337
0.22677
0.222379
0.218155
0.214087
0.210167
0.206386
0.202737
0.199212
0.195805
0.192511
0.189322
0.186236
0.183247
0.180352
0.177547
0.174827
0.172191
0.169633
0.167151
0.164741
0.1624
0.160125
0.157912
0.155758
0.153662
0.151619
0.149629
0.147689
0.145798
0.143955
0.142158
0.140407
0.138702
0.137041
0.135424
0.133848
0.132305
0.130792
0.129321
0.127904
0.126507
0.125135
0.269201
0.26307
0.257205
0.251589
0.246206
0.241044
0.236091
0.231335
0.226764
0.22237
0.218142
0.21407
0.210146
0.206363
0.202711
0.199185
0.195776
0.19248
0.189292
0.186205
0.183216
0.180321
0.177516
0.174797
0.17216
0.169603
0.167122
0.164712
0.162372
0.160097
0.157885
0.155732
0.153636
0.151594
0.149604
0.147665
0.145775
0.143933
0.142137
0.140386
0.13868
0.137016
0.135397
0.133821
0.132285
0.13078
0.129303
0.127872
0.126473
0.125102
0.269201
0.263071
0.257207
0.251592
0.246212
0.241052
0.236101
0.231347
0.22678
0.222388
0.218163
0.214094
0.210174
0.206393
0.202744
0.199221
0.195815
0.192521
0.189334
0.18625
0.183262
0.180369
0.177564
0.174846
0.17221
0.169653
0.167171
0.164762
0.162421
0.160145
0.157931
0.155777
0.15368
0.151637
0.149646
0.147705
0.145814
0.143969
0.142172
0.14042
0.138712
0.137046
0.135421
0.133837
0.132296
0.130791
0.129315
0.127873
0.126466
0.125089
0.269201
0.263071
0.257208
0.251594
0.246214
0.241054
0.236103
0.231349
0.226781
0.222389
0.218162
0.214092
0.210171
0.206389
0.202739
0.199214
0.195807
0.192513
0.189325
0.186239
0.183251
0.180357
0.177552
0.174833
0.172197
0.169639
0.167157
0.164746
0.162405
0.160128
0.157914
0.15576
0.153662
0.151618
0.149627
0.147686
0.145793
0.143949
0.14215
0.140397
0.138689
0.137024
0.135399
0.133812
0.132265
0.130757
0.129281
0.127836
0.126424
0.125042
0.269202
0.263071
0.257208
0.251594
0.246215
0.241056
0.236105
0.231351
0.226784
0.222392
0.218165
0.214096
0.210175
0.206394
0.202745
0.19922
0.195814
0.192521
0.189334
0.186249
0.183262
0.180368
0.177564
0.174846
0.172209
0.169652
0.167169
0.164759
0.162416
0.160139
0.157925
0.155769
0.15367
0.151626
0.149634
0.147692
0.145799
0.143953
0.142154
0.140399
0.138688
0.137021
0.135395
0.133806
0.132255
0.130741
0.129261
0.127813
0.126395
0.125008
0.269202
0.263071
0.257208
0.251594
0.246215
0.241056
0.236105
0.231351
0.226784
0.222391
0.218165
0.214096
0.210174
0.206393
0.202744
0.199219
0.195813
0.19252
0.189333
0.186248
0.183261
0.180368
0.177564
0.174845
0.172209
0.169651
0.167168
0.164757
0.162415
0.160137
0.157921
0.155765
0.153665
0.15162
0.149627
0.147684
0.14579
0.143944
0.142144
0.140388
0.138676
0.137006
0.135377
0.133787
0.132232
0.130714
0.129229
0.127777
0.126355
0.124962
0.269202
0.263071
0.257208
0.251594
0.246214
0.241055
0.236104
0.23135
0.226781
0.222388
0.218161
0.214091
0.210168
0.206386
0.202736
0.19921
0.195804
0.192509
0.189322
0.186237
0.18325
0.180356
0.177552
0.174833
0.172196
0.169638
0.167155
0.164743
0.1624
0.160122
0.157905
0.155748
0.153647
0.151601
0.149607
0.147664
0.14577
0.143923
0.142123
0.140367
0.138654
0.136982
0.135351
0.133758
0.132202
0.13068
0.129192
0.127735
0.126309
0.124912
0.269202
0.263071
0.257208
0.251593
0.246213
0.241053
0.236102
0.231348
0.22678
0.222387
0.218161
0.214091
0.210169
0.206388
0.202739
0.199214
0.195809
0.192516
0.189329
0.186246
0.183259
0.180367
0.177563
0.174845
0.172209
0.169651
0.167168
0.164756
0.162412
0.160132
0.157915
0.155756
0.153655
0.151607
0.149613
0.147669
0.145773
0.143925
0.142123
0.140366
0.138651
0.136977
0.135343
0.133746
0.132186
0.130659
0.129166
0.127704
0.126272
0.124869
0.269202
0.263071
0.257206
0.25159
0.246208
0.241047
0.236093
0.231336
0.226764
0.222368
0.218138
0.214065
0.21014
0.206355
0.202703
0.199176
0.195768
0.192472
0.189285
0.1862
0.183212
0.180319
0.177515
0.174797
0.17216
0.169602
0.167118
0.164706
0.162361
0.160081
0.157863
0.155704
0.153602
0.151555
0.149561
0.147617
0.145723
0.143875
0.142074
0.140316
0.138602
0.136927
0.135292
0.133694
0.132131
0.130602
0.129106
0.127641
0.126206
0.1248
0.269202
0.26307
0.257204
0.251588
0.246206
0.241045
0.236093
0.231339
0.22677
0.222377
0.21815
0.21408
0.210158
0.206375
0.202725
0.1992
0.195793
0.1925
0.189313
0.186229
0.183242
0.180349
0.177545
0.174827
0.17219
0.169631
0.167146
0.164732
0.162385
0.160103
0.157883
0.155722
0.153618
0.151568
0.149572
0.147626
0.14573
0.14388
0.142076
0.140316
0.138599
0.136921
0.135282
0.133679
0.132111
0.130577
0.129075
0.127603
0.126162
0.124748
0.269202
0.263067
0.257194
0.251568
0.246175
0.241003
0.236039
0.231272
0.226692
0.222289
0.218053
0.213975
0.210046
0.206258
0.202603
0.199074
0.195665
0.192369
0.189182
0.186097
0.18311
0.180218
0.177414
0.174697
0.172061
0.169503
0.167019
0.164607
0.162261
0.159981
0.157762
0.155602
0.1535
0.151452
0.149457
0.147514
0.145619
0.143772
0.14197
0.140212
0.138495
0.136818
0.135179
0.133576
0.132008
0.130472
0.128969
0.127496
0.126053
0.124638
0.269202
0.263066
0.257195
0.251576
0.246192
0.24103
0.236075
0.231317
0.226744
0.222345
0.218113
0.214036
0.210108
0.206318
0.202661
0.19913
0.195717
0.192417
0.189225
0.186136
0.183145
0.180247
0.177439
0.174717
0.172076
0.169513
0.167024
0.164606
0.162256
0.15997
0.157747
0.155582
0.153476
0.151424
0.149426
0.147479
0.145581
0.143731
0.141926
0.140165
0.138446
0.136766
0.135124
0.133519
0.131949
0.130413
0.128909
0.127437
0.125996
0.124587
0.269201
0.263021
0.257097
0.251426
0.245996
0.240793
0.235807
0.231024
0.226433
0.222022
0.217782
0.213701
0.209771
0.205984
0.202331
0.198805
0.1954
0.19211
0.188928
0.18585
0.182871
0.179986
0.177192
0.174483
0.171856
0.169308
0.166835
0.164432
0.162098
0.159828
0.157621
0.155474
0.153385
0.151352
0.149372
0.147445
0.145568
0.14374
0.141958
0.140222
0.138529
0.136877
0.135266
0.133696
0.132164
0.130671
0.129218
0.127806
0.126438
0.12512
0.26921
0.26305
0.257167
0.251533
0.246143
0.240988
0.236063
0.231353
0.226846
0.222528
0.218389
0.214417
0.210602
0.206936
0.203408
0.200011
0.196738
0.193582
0.190537
0.187598
0.184759
0.182015
0.179363
0.176797
0.174314
0.17191
0.16958
0.167322
0.165132
0.163007
0.160944
0.158942
0.156999
0.155112
0.153281
0.151504
0.149779
0.148105
0.146482
0.144909
0.143384
0.141908
0.140481
0.139103
0.137778
0.136507
0.135296
0.134155
0.133102
0.13217
0.271151
0.267815
0.264617
0.261547
0.25859
0.255729
0.25295
0.250248
0.247618
0.245058
0.242566
0.240138
0.237772
0.235466
0.233218
0.231027
0.228889
0.226805
0.224772
0.222788
0.220852
0.218963
0.217119
0.215319
0.213561
0.211844
0.210165
0.208525
0.20692
0.205351
0.203816
0.202315
0.200846
0.199408
0.198001
0.196623
0.195274
0.193952
0.192656
0.191384
0.190136
0.188909
0.187702
0.186514
0.185344
0.18419
0.183049
0.181921
0.180801
0.179686
0.0959964
0.0523728
0.0536297
0.0584262
0.06313
0.0663461
0.0673289
0.0658508
0.062081
0.056521
0.0500299
0.0439106
0.039646
0.0378882
0.0379685
0.0396391
0.04366
0.0531366
0.0758159
0.131562
0.0962514
0.0522178
0.0529743
0.0576261
0.0625506
0.0663186
0.068083
0.0674897
0.0645654
0.0596463
0.0533941
0.0469328
0.0418266
0.039222
0.0389124
0.0406048
0.0448884
0.0547743
0.0776367
0.132404
0.0966527
0.0520984
0.0522768
0.0566965
0.0617693
0.0660609
0.0686344
0.0690123
0.0670813
0.0630154
0.0572718
0.0507313
0.0448851
0.0413361
0.0405014
0.0422429
0.0469579
0.0575441
0.0806475
0.133075
0.0972132
0.0520303
0.051551
0.0556358
0.0607583
0.0655163
0.0689009
0.0703208
0.0695285
0.0665425
0.0616219
0.0553719
0.0490291
0.0444417
0.0428766
0.0446148
0.0498053
0.0610639
0.0841536
0.133651
0.0979466
0.0520315
0.0508181
0.0544528
0.0594942
0.064622
0.0687836
0.0712862
0.0717581
0.0700746
0.0663151
0.0608186
0.0544532
0.0489439
0.0462776
0.0478586
0.0534629
0.0652294
0.0880118
0.134139
0.0988599
0.0521209
0.050109
0.053172
0.0579678
0.0633203
0.0681725
0.0717505
0.0735718
0.0733845
0.0711122
0.0668676
0.0611553
0.0553332
0.0516499
0.052195
0.05801
0.0700027
0.0921328
0.134523
0.0999549
0.0523175
0.0494628
0.051839
0.0561951
0.0615701
0.0669583
0.0715346
0.074724
0.0761667
0.0756575
0.0731204
0.0687402
0.063453
0.0595012
0.0579018
0.0635598
0.0753975
0.0964735
0.134768
0.101228
0.0526372
0.0489236
0.0505229
0.0542291
0.0593662
0.065051
0.0704535
0.0749336
0.0780446
0.0794807
0.0790097
0.0764828
0.0721026
0.067323
0.0652529
0.0702087
0.0814196
0.100994
0.13483
0.102669
0.0530898
0.0485364
0.0493168
0.0521723
0.0567631
0.0624123
0.0683493
0.0739117
0.0785941
0.0820236
0.0838855
0.0838577
0.0816555
0.0776658
0.0744384
0.0779996
0.088033
0.105622
0.134642
0.104257
0.0536751
0.048335
0.0483271
0.050183
0.0539025
0.0591003
0.0651462
0.0714119
0.0773749
0.0826309
0.0868492
0.0896866
0.0907118
0.0895558
0.0869414
0.0869011
0.0951469
0.11022
0.134089
0.105962
0.0543812
0.0483313
0.0476503
0.0484622
0.0510325
0.0553221
0.0609318
0.0673376
0.074048
0.0806628
0.0868685
0.0923793
0.0968415
0.0997836
0.100693
0.0967544
0.10257
0.114551
0.132976
0.107752
0.0551864
0.0485076
0.0473404
0.0472129
0.0484938
0.0514696
0.056043
0.0618751
0.0685621
0.0757383
0.0831109
0.0904372
0.0973875
0.10336
0.107148
0.107277
0.109924
0.118193
0.130943
0.109588
0.0560646
0.0488199
0.0473811
0.0465678
0.0466459
0.0480931
0.0511208
0.0556403
0.0613995
0.0681049
0.0754993
0.0834166
0.0917347
0.100418
0.109441
0.118433
0.116474
0.120378
0.1273
0.111432
0.0569878
0.0492087
0.0476824
0.0465164
0.0457255
0.0457562
0.0470217
0.0496923
0.0537187
0.0589211
0.0650767
0.0720015
0.079528
0.0875664
0.0960337
0.105107
0.115588
0.119024
0.12047
0.113251
0.0579319
0.0496208
0.0481167
0.0468897
0.0456956
0.0447709
0.0445193
0.0452669
0.0471745
0.0502304
0.0542991
0.0591849
0.0646529
0.0704562
0.0762731
0.0817028
0.0865612
0.0931644
0.107967
0.11502
0.0588777
0.0500206
0.0485726
0.0474475
0.0462382
0.0449611
0.0438469
0.0431782
0.0432269
0.0441664
0.0460438
0.0487886
0.0523058
0.0564577
0.0611321
0.0662452
0.0715469
0.0761033
0.0746667
0.11672
0.0598138
0.0503963
0.0489882
0.0480008
0.0469565
0.0457559
0.0444707
0.0432188
0.0422126
0.0416878
0.0418632
0.0428751
0.0448788
0.0480085
0.0524967
0.0587799
0.0674996
0.0797276
0.0948606
0.118334
0.0607282
0.0507496
0.0493514
0.0484697
0.0475999
0.04661
0.0455149
0.0443107
0.0430914
0.0419973
0.0412468
0.0410943
0.0418428
0.0438445
0.0475437
0.0536008
0.0629766
0.0776349
0.103605
0.119855
0.0616134
0.0510845
0.0496709
0.0488531
0.0481055
0.0472844
0.0464157
0.0454531
0.0444282
0.0433769
0.0423939
0.0417074
0.0415883
0.0424986
0.0450582
0.0501619
0.0592084
0.0746455
0.105613
0.121282
0.0624682
0.0514092
0.0499617
0.0491758
0.0485028
0.0477758
0.0470533
0.0462801
0.045476
0.0446322
0.043751
0.0429659
0.0424336
0.0425851
0.0441059
0.0481807
0.0567651
0.0729669
0.106521
0.122607
0.0632855
0.051729
0.0502397
0.0494656
0.0488367
0.0481521
0.0475055
0.0468314
0.0461631
0.0454688
0.0447473
0.0440267
0.0433822
0.0431343
0.0438773
0.0469866
0.0548892
0.0715255
0.107162
0.123834
0.0640552
0.0520385
0.0505096
0.0497384
0.049139
0.0484735
0.0478643
0.0472323
0.0466332
0.0460077
0.0453979
0.0447585
0.04413
0.0437119
0.0439488
0.046233
0.0533022
0.0700238
0.107725
0.124974
0.0647821
0.0523379
0.0507706
0.0499972
0.0494185
0.0487696
0.0481778
0.0475683
0.0469993
0.0464066
0.0458454
0.0452607
0.0446767
0.0442017
0.0441441
0.0457857
0.0520024
0.0686085
0.108238
0.126023
0.065469
0.0526353
0.0510288
0.05025
0.0496819
0.0490496
0.0484645
0.047874
0.0473125
0.0467464
0.0461969
0.0456443
0.0450856
0.0446006
0.0443776
0.045554
0.050984
0.0673705
0.108702
0.126975
0.066106
0.0529299
0.0512843
0.0505015
0.0499458
0.0493174
0.0487409
0.048161
0.0476016
0.0470529
0.0465042
0.045974
0.0454192
0.0449381
0.0446126
0.0454622
0.0502064
0.066319
0.109119
0.127844
0.0666925
0.0532182
0.0515362
0.0507442
0.0502172
0.0495764
0.0490181
0.0484316
0.04788
0.0473346
0.046788
0.0462725
0.0457152
0.0452421
0.0448434
0.0454609
0.049623
0.0654355
0.109496
0.128642
0.0672397
0.0534987
0.0517888
0.0509772
0.0504836
0.0498293
0.0492955
0.0486967
0.0481505
0.0476029
0.0470578
0.0465495
0.0459908
0.0455266
0.0450723
0.0455212
0.049193
0.0646983
0.109837
0.129367
0.0677563
0.0537731
0.0520438
0.0512183
0.0507372
0.050082
0.0495594
0.0489645
0.0484141
0.0478667
0.0473196
0.046815
0.0462546
0.0457977
0.0453012
0.0456266
0.0488838
0.0640867
0.110149
0.130014
0.0682374
0.0540415
0.0522915
0.0514739
0.0509812
0.0503408
0.0498094
0.0492267
0.048674
0.0481295
0.0475762
0.0470755
0.0465107
0.0460586
0.0455298
0.045765
0.0486714
0.0635835
0.110439
0.1306
0.0686822
0.0543078
0.0525295
0.0517285
0.0512262
0.0505998
0.0500585
0.0494785
0.0489299
0.0483892
0.0478304
0.0473336
0.046761
0.0463122
0.0457575
0.0459254
0.0485364
0.0631749
0.110715
0.131134
0.0690923
0.0545737
0.0527722
0.0519667
0.0514773
0.0508525
0.0503125
0.0497259
0.0491827
0.0486445
0.0480836
0.0475895
0.0470071
0.0465619
0.0459857
0.0461001
0.0484635
0.0628508
0.110977
0.131625
0.0694765
0.0548328
0.0530257
0.0521952
0.0517309
0.0510972
0.0505677
0.0499764
0.0494334
0.0488966
0.048335
0.0478425
0.0472509
0.04681
0.0462151
0.0462852
0.0484417
0.0626049
0.111228
0.132077
0.0698521
0.0550905
0.0532801
0.0524285
0.0519832
0.0513387
0.0508194
0.0502297
0.0496831
0.0491476
0.0485834
0.0480918
0.0474942
0.0470577
0.0464457
0.046479
0.048462
0.062428
0.11147
0.132476
0.0702149
0.0553547
0.0535298
0.0526746
0.0522323
0.0515817
0.0510674
0.0504821
0.0499327
0.0493989
0.0488294
0.0483389
0.0477376
0.0473052
0.0466779
0.0466815
0.0485179
0.0623082
0.111705
0.132836
0.0705554
0.0556204
0.0537744
0.0529276
0.0524795
0.0518292
0.0513143
0.0507325
0.0501819
0.0496491
0.0490745
0.0485865
0.0479817
0.0475519
0.0469122
0.0468929
0.0486049
0.0622365
0.111932
0.133179
0.0708788
0.0558818
0.0540196
0.0531792
0.0527264
0.0520811
0.0515625
0.0509826
0.0504306
0.0498975
0.0493199
0.0488363
0.048227
0.0477978
0.0471484
0.0471115
0.048718
0.062206
0.112153
0.133504
0.0711957
0.0561409
0.0542689
0.053428
0.0529746
0.0523341
0.0518133
0.0512338
0.0506791
0.0501461
0.0495671
0.0490874
0.0484736
0.0480443
0.0473869
0.0473352
0.0488514
0.0622096
0.112369
0.1338
0.0715059
0.0564002
0.0545207
0.0536772
0.0532254
0.0525868
0.0520665
0.0514858
0.0509278
0.0503971
0.0498171
0.0493388
0.0487209
0.0482924
0.047628
0.0475625
0.0490006
0.0622412
0.112583
0.134068
0.071807
0.0566591
0.0547733
0.0539292
0.0534793
0.0528405
0.0523211
0.0517387
0.0511784
0.0506507
0.0500694
0.04959
0.0489686
0.0485417
0.0478709
0.0477925
0.0491632
0.0622979
0.112796
0.134317
0.0721004
0.0569175
0.0550271
0.054184
0.0537361
0.0530962
0.0525754
0.0519931
0.0514322
0.050906
0.0503222
0.0498418
0.0492174
0.0487916
0.0481151
0.0480253
0.0493382
0.062378
0.113008
0.134554
0.0723892
0.0571771
0.0552831
0.0544408
0.0539947
0.0533532
0.0528294
0.0522493
0.0516889
0.051162
0.0505752
0.0500948
0.0494678
0.0490421
0.0483607
0.0482618
0.049525
0.0624796
0.113219
0.13478
0.072675
0.057439
0.0555414
0.0546996
0.0542533
0.0536108
0.053085
0.0525073
0.0519467
0.0514187
0.0508293
0.0503498
0.0497204
0.0492939
0.0486089
0.0485027
0.0497231
0.0626001
0.113429
0.134994
0.0729588
0.0577028
0.0558015
0.0549603
0.0545114
0.0538697
0.0533437
0.0527672
0.052205
0.0516767
0.0510857
0.0506069
0.0499751
0.0495478
0.0488601
0.0487477
0.0499309
0.0627358
0.113637
0.135198
0.0732418
0.0579678
0.0560628
0.0552225
0.0547703
0.0541313
0.0536059
0.053029
0.0524647
0.0519373
0.0513449
0.0508657
0.0502319
0.0498042
0.0491143
0.048996
0.0501462
0.0628829
0.113845
0.135392
0.0735239
0.0582344
0.0563254
0.0554868
0.0550325
0.0543964
0.0538704
0.0532931
0.0527268
0.0522004
0.0516063
0.0511258
0.0504907
0.050063
0.0493711
0.0492468
0.0503674
0.0630391
0.114054
0.135579
0.0738041
0.0585024
0.0565898
0.0557546
0.0552993
0.0546645
0.0541365
0.0535595
0.0529915
0.0524649
0.0518689
0.0513875
0.0507516
0.050324
0.0496303
0.0495001
0.0505941
0.0632049
0.114266
0.13576
0.074082
0.0587717
0.0568565
0.056026
0.0555695
0.0549348
0.0544041
0.0538284
0.0532586
0.0527306
0.0521329
0.0516515
0.0510151
0.0505871
0.0498918
0.0497562
0.0508267
0.0633814
0.114481
0.135951
0.0743345
0.0590433
0.0571264
0.0562996
0.055841
0.0552068
0.0546738
0.0540992
0.0535276
0.0529984
0.0523996
0.0519186
0.0512816
0.0508527
0.050156
0.0500157
0.0510659
0.0635695
0.114697
0.136146
0.0745748
0.059318
0.0573992
0.0565747
0.0561132
0.055481
0.0549463
0.0543719
0.0537988
0.0532694
0.0526701
0.0521893
0.0515513
0.0511213
0.0504237
0.0502793
0.0513118
0.063768
0.114915
0.136342
0.0748118
0.0595956
0.0576737
0.0568512
0.0563871
0.0557578
0.0552217
0.054647
0.0540727
0.0535442
0.0529448
0.0524634
0.0518246
0.0513934
0.0506951
0.0505468
0.0515634
0.0639742
0.115132
0.136543
0.0750456
0.0598755
0.0579495
0.0571298
0.0566636
0.0560368
0.0554996
0.0549251
0.0543502
0.0538229
0.0532229
0.0527408
0.0521013
0.0516689
0.0509699
0.0508173
0.0518193
0.0641851
0.11535
0.136748
0.0752759
0.0601534
0.0582273
0.0574113
0.0569432
0.056318
0.0557798
0.0552066
0.0546313
0.0541046
0.0535038
0.0530209
0.0523812
0.0519475
0.0512474
0.0510901
0.0520782
0.0643986
0.11557
0.136957
0.0755014
0.0604295
0.0585076
0.057696
0.0572258
0.0566021
0.0560627
0.0554914
0.0549156
0.0543887
0.053787
0.0533036
0.0526637
0.0522285
0.051527
0.0513647
0.0523398
0.0646152
0.115794
0.137167
0.0757249
0.0607074
0.058791
0.0579838
0.0575119
0.0568899
0.056349
0.055779
0.0552022
0.0546748
0.0540725
0.0535887
0.0529484
0.0525113
0.0518086
0.0516418
0.0526049
0.0648366
0.116022
0.137377
0.0759518
0.0609885
0.059078
0.0582753