/*--------------------------------*- C++ -*----------------------------------*\
  =========                 |
  \\      /  F ield         | OpenFOAM: The Open Source CFD Toolbox
   \\    /   O peration     | Website:  https://openfoam.org
    \\  /    A nd           | Version:  8
     \\/     M anipulation  |
\*---------------------------------------------------------------------------*/
FoamFile
{
    version     2.0;
    format      ascii;
    class       volScalarField;
    location    "700";
    object      k;
}
// * * * * * * * * * * * * * * * * * * * * * * * * * * * * * * * * * * * * * //

dimensions      [0 2 -2 0 0 0 0];

internalField   nonuniform List<scalar> 
8400
(
0.0207641
0.0204246
0.020091
0.0197621
0.0194373
0.0191158
0.0187971
0.0184806
0.0181661
0.0178531
0.0175414
0.0172307
0.0169209
0.0166116
0.0163025
0.0159932
0.0156835
0.015373
0.0150613
0.0147481
0.0144332
0.0141164
0.0137976
0.0134766
0.0131535
0.0128285
0.0125018
0.0121737
0.0118448
0.0115155
0.0111867
0.0108592
0.010534
0.0102122
0.00989479
0.00958315
0.0092786
0.00898255
0.00869638
0.00842149
0.00815926
0.00791104
0.00767814
0.00746179
0.00726316
0.0070834
0.00692363
0.00678486
0.00666808
0.0065746
0.00449128
0.00448082
0.00447024
0.00445941
0.00444822
0.00443654
0.00442426
0.00441127
0.0043975
0.00438282
0.00436718
0.0043505
0.00433273
0.00431381
0.00429368
0.00427226
0.0042495
0.00422535
0.00419979
0.0041728
0.00414439
0.00411458
0.00408342
0.00405099
0.00401741
0.00398281
0.00394737
0.00391128
0.00387479
0.00383816
0.00380173
0.00376583
0.00373084
0.00369712
0.0036651
0.00363521
0.00360792
0.00358366
0.00356285
0.0035459
0.00353322
0.00352517
0.0035221
0.0035243
0.00353211
0.00354582
0.00356569
0.00359201
0.00362516
0.00366564
0.00359869
0.00358824
0.00357789
0.00356751
0.003557
0.00354625
0.0035352
0.00352378
0.00351194
0.00349966
0.00348692
0.0034737
0.00345999
0.00344578
0.00343108
0.00341587
0.00340016
0.00338396
0.00336729
0.0033502
0.00333276
0.00331503
0.00329709
0.00327906
0.00326104
0.00324319
0.00322563
0.00320854
0.00319207
0.00317641
0.00316177
0.00314833
0.00313628
0.00312581
0.00311712
0.00311039
0.00310581
0.00310352
0.00310366
0.00310635
0.00311171
0.00311986
0.00313085
0.0031448
0.00316184
0.00318207
0.00320564
0.00323278
0.00326378
0.00329905
0.00300014
0.00299656
0.00299313
0.00298977
0.00298643
0.00298309
0.00297971
0.0029763
0.00297284
0.00296933
0.00296579
0.00296222
0.00295864
0.00295507
0.00295151
0.00294795
0.00294441
0.00294091
0.00293748
0.00293415
0.00293094
0.0029279
0.00292504
0.00292242
0.00292008
0.00291808
0.00291646
0.00291528
0.00291458
0.00291443
0.00291489
0.00291601
0.00291784
0.00292046
0.00292391
0.00292825
0.00293354
0.00293981
0.00294712
0.00295554
0.00296512
0.00297592
0.00298802
0.00300154
0.00301663
0.00303342
0.0030521
0.00307296
0.0030963
0.00312248
0.00278899
0.00279056
0.00279217
0.00279379
0.00279541
0.00279701
0.00279861
0.00280019
0.00280175
0.0028033
0.00280487
0.00280645
0.00280806
0.00280969
0.00281134
0.00281302
0.00281472
0.00281647
0.00281829
0.00282018
0.00282214
0.0028242
0.00282634
0.00282858
0.00283094
0.00283345
0.0028361
0.00283892
0.00284191
0.0028451
0.0028485
0.00285213
0.00285602
0.0028602
0.00286469
0.0028695
0.00287467
0.00288023
0.00288625
0.00289277
0.00289985
0.00290756
0.00291601
0.00292534
0.00293566
0.00294717
0.00296008
0.00297464
0.00299115
0.0030101
0.00273058
0.00273422
0.00273788
0.00274151
0.00274508
0.00274855
0.00275192
0.00275519
0.00275834
0.0027614
0.00276437
0.00276727
0.00277008
0.00277283
0.0027755
0.0027781
0.00278063
0.00278313
0.0027856
0.00278808
0.00279054
0.00279301
0.00279547
0.00279795
0.00280046
0.00280303
0.00280565
0.00280834
0.0028111
0.00281394
0.0028169
0.00281997
0.00282318
0.00282652
0.00283001
0.00283365
0.00283747
0.00284152
0.00284584
0.00285046
0.00285542
0.00286079
0.00286667
0.00287311
0.00288021
0.00288816
0.00289713
0.00290733
0.00291909
0.00293269
0.0026831
0.00268707
0.00269133
0.00269575
0.00270025
0.0027047
0.00270907
0.00271329
0.00271735
0.00272125
0.00272498
0.00272855
0.00273196
0.00273521
0.0027383
0.00274122
0.00274403
0.00274677
0.00274945
0.0027521
0.00275471
0.00275728
0.00275985
0.00276243
0.00276505
0.00276774
0.00277049
0.00277331
0.0027762
0.00277918
0.00278227
0.00278547
0.00278876
0.00279214
0.0027956
0.00279917
0.00280289
0.00280677
0.00281084
0.00281513
0.00281968
0.00282451
0.00282968
0.00283523
0.00284127
0.00284786
0.00285509
0.00286314
0.00287235
0.00288274
0.00264296
0.00264205
0.00264235
0.0026438
0.00264619
0.00264929
0.00265289
0.00265678
0.00266082
0.00266493
0.00266904
0.00267306
0.00267696
0.0026807
0.0026843
0.00268777
0.00269115
0.00269446
0.00269773
0.00270099
0.00270423
0.00270748
0.00271077
0.00271412
0.00271756
0.0027211
0.00272474
0.00272851
0.0027324
0.00273639
0.0027405
0.00274471
0.002749
0.00275334
0.00275776
0.00276229
0.00276693
0.00277173
0.00277671
0.00278188
0.00278724
0.00279285
0.00279872
0.0028049
0.00281133
0.00281811
0.00282534
0.00283311
0.00284151
0.00285082
0.00268118
0.00266608
0.00265282
0.00264207
0.00263382
0.00262786
0.00262387
0.00262155
0.00262061
0.00262075
0.00262174
0.00262333
0.00262539
0.00262777
0.00263037
0.00263318
0.00263616
0.00263931
0.00264259
0.00264599
0.00264952
0.0026532
0.00265706
0.00266112
0.0026654
0.00266984
0.00267447
0.00267934
0.00268447
0.00268976
0.0026952
0.00270078
0.00270646
0.00271222
0.00271808
0.00272403
0.00273013
0.00273641
0.00274289
0.00274952
0.00275633
0.00276333
0.00277052
0.00277806
0.00278579
0.00279393
0.00280221
0.00281082
0.00281978
0.00282919
0.00282856
0.00280435
0.00278095
0.00275907
0.00273927
0.00272147
0.00270575
0.00269203
0.00268043
0.00267073
0.00266273
0.00265611
0.0026504
0.00264548
0.00264144
0.00263834
0.00263604
0.00263435
0.00263305
0.00263204
0.00263146
0.00263156
0.00263255
0.00263455
0.00263759
0.00264129
0.00264498
0.00264878
0.00265361
0.00265885
0.00266449
0.00267075
0.00267739
0.00268403
0.00269064
0.00269749
0.00270444
0.00271129
0.00271827
0.00272583
0.00273358
0.00274114
0.00274947
0.00275835
0.0027671
0.00277644
0.00278608
0.00279549
0.00280493
0.00281491
0.0029531
0.00293691
0.0029224
0.00290824
0.0028949
0.00288121
0.00286762
0.00285324
0.00283886
0.00282633
0.00281369
0.00280299
0.00279244
0.00278071
0.00276747
0.0027542
0.00274228
0.00273203
0.00272221
0.00271102
0.00269882
0.00268723
0.00267673
0.00266854
0.0026684
0.00267835
0.00268601
0.00268101
0.00268053
0.00268109
0.00268245
0.00268836
0.00269593
0.0027009
0.00270427
0.00271
0.00271651
0.00272033
0.00272403
0.00273131
0.0027385
0.00274225
0.00274964
0.00275671
0.0027649
0.0027732
0.00278291
0.00279191
0.00280038
0.0028097
0.00299087
0.00298125
0.00297219
0.00296349
0.00295508
0.0029467
0.00293835
0.0029301
0.00292197
0.00291407
0.00290637
0.00289867
0.00289091
0.00288316
0.00287553
0.0028681
0.00286093
0.00285393
0.00284692
0.00283984
0.00283288
0.00282637
0.00282042
0.00281445
0.00280768
0.00280054
0.00279513
0.00279096
0.00278692
0.00278313
0.00278005
0.00277773
0.0027758
0.00277409
0.0027729
0.00277226
0.00277191
0.00277196
0.00277276
0.00277429
0.00277614
0.00277785
0.00278108
0.00278432
0.0027883
0.00279315
0.00279866
0.00280479
0.00281103
0.00281778
0.00299495
0.00298963
0.00298436
0.00297913
0.00297391
0.0029687
0.0029635
0.00295834
0.00295324
0.0029481
0.00294296
0.00293784
0.00293272
0.0029276
0.0029225
0.00291741
0.00291239
0.00290742
0.00290248
0.00289756
0.00289267
0.00288783
0.00288308
0.00287845
0.00287389
0.00286936
0.00286492
0.0028606
0.00285643
0.00285245
0.00284867
0.00284509
0.00284167
0.00283847
0.00283553
0.0028328
0.00283023
0.00282789
0.00282584
0.00282409
0.00282269
0.00282172
0.00282133
0.00282149
0.00282208
0.00282331
0.00282517
0.00282797
0.00283147
0.0028356
0.00299651
0.00299284
0.00298917
0.00298549
0.00298177
0.00297807
0.00297435
0.00297064
0.00296697
0.00296334
0.00295973
0.00295611
0.00295247
0.00294883
0.00294519
0.00294154
0.00293787
0.00293416
0.00293043
0.0029267
0.00292299
0.00291932
0.0029157
0.0029121
0.00290852
0.00290494
0.00290139
0.00289789
0.00289445
0.00289108
0.00288777
0.00288454
0.0028814
0.00287837
0.00287544
0.00287258
0.00286981
0.00286716
0.00286464
0.0028623
0.00286012
0.00285822
0.00285643
0.00285508
0.00285402
0.00285343
0.00285325
0.00285374
0.00285489
0.00285681
0.00299728
0.00299447
0.00299166
0.00298883
0.00298596
0.00298312
0.00298028
0.00297744
0.00297459
0.00297173
0.00296887
0.00296601
0.00296315
0.00296029
0.00295744
0.0029546
0.00295175
0.00294888
0.00294601
0.00294314
0.00294028
0.00293745
0.00293462
0.00293178
0.00292895
0.00292614
0.00292334
0.00292057
0.00291781
0.00291507
0.00291235
0.00290966
0.002907
0.00290439
0.0029018
0.00289922
0.0028967
0.00289423
0.0028918
0.00288949
0.00288724
0.00288517
0.0028832
0.00288145
0.00287996
0.00287878
0.00287797
0.00287765
0.00287786
0.00287876
0.00299787
0.00299566
0.00299344
0.00299122
0.00298896
0.00298667
0.00298438
0.00298209
0.00297984
0.00297758
0.00297532
0.00297304
0.00297076
0.00296847
0.00296618
0.00296388
0.00296156
0.00295923
0.00295688
0.00295452
0.00295217
0.00294983
0.00294749
0.00294514
0.00294279
0.00294047
0.00293816
0.00293584
0.00293353
0.00293123
0.00292894
0.00292668
0.00292443
0.0029222
0.00291999
0.00291782
0.00291569
0.00291358
0.00291153
0.00290957
0.00290769
0.0029059
0.00290427
0.00290276
0.00290151
0.00290054
0.00289995
0.00289984
0.00290028
0.00290141
0.00299813
0.00299622
0.00299429
0.00299234
0.00299041
0.00298849
0.00298657
0.00298463
0.00298269
0.00298075
0.00297883
0.00297691
0.002975
0.0029731
0.00297119
0.00296929
0.0029674
0.0029655
0.0029636
0.00296172
0.00295985
0.00295799
0.00295614
0.0029543
0.00295248
0.00295067
0.00294887
0.00294708
0.00294532
0.00294358
0.00294189
0.00294023
0.00293863
0.00293708
0.00293558
0.00293412
0.00293272
0.00293135
0.0029301
0.00292895
0.00292796
0.00292713
0.0029265
0.00292612
0.00292605
0.00292638
0.00292718
0.0029286
0.00293063
0.00293337
0.00299861
0.0029972
0.0029958
0.00299439
0.00299298
0.00299158
0.0029902
0.00298882
0.00298744
0.0029861
0.00298482
0.00298358
0.00298237
0.00298118
0.00298005
0.00297898
0.00297797
0.00297702
0.00297613
0.00297531
0.00297454
0.00297379
0.00297309
0.00297256
0.00297215
0.00297181
0.00297147
0.00297109
0.00297074
0.00297044
0.00297018
0.00297006
0.00297035
0.00297093
0.00297167
0.00297248
0.00297327
0.00297408
0.00297503
0.00297617
0.00297762
0.00297945
0.00298162
0.00298425
0.00298737
0.0029911
0.00299549
0.00300066
0.00300632
0.00301213
0.00300024
0.00300058
0.00300112
0.00300181
0.00300438
0.00301276
0.00302116
0.003027
0.00303266
0.00304197
0.00305495
0.00306896
0.00308146
0.0030921
0.00310198
0.00311149
0.00311996
0.00312631
0.00313424
0.00314524
0.00315845
0.00317303
0.00318778
0.00320132
0.00321402
0.00322684
0.00324011
0.00325368
0.00326696
0.00327956
0.00329153
0.00330289
0.00331338
0.00332295
0.0033334
0.00334602
0.00335745
0.00336633
0.00337314
0.00337912
0.00338528
0.00339196
0.00339845
0.00340352
0.00340599
0.0034061
0.00340549
0.00340514
0.00340399
0.00339977
0.0176565
0.0174928
0.0174052
0.017358
0.0172903
0.017186
0.0170652
0.0169283
0.01678
0.0166287
0.0164776
0.0163276
0.0161791
0.0160323
0.0158859
0.0157363
0.0155783
0.0154044
0.0152044
0.0149815
0.0147358
0.0144631
0.0141618
0.0138345
0.0134912
0.0131444
0.0127982
0.0124545
0.0121175
0.0117896
0.0114672
0.0111403
0.0107997
0.0104407
0.010062
0.00967296
0.00928949
0.00891513
0.00855373
0.00821005
0.00788613
0.00758237
0.00729641
0.0070224
0.00675479
0.00648863
0.00622108
0.00595178
0.00567879
0.00540229
0.0589323
0.0574901
0.0561251
0.0548304
0.0535978
0.0524193
0.0512869
0.0501975
0.0491488
0.0481383
0.0471643
0.0462249
0.0453186
0.0444439
0.0435993
0.0427836
0.0419956
0.0412342
0.0404983
0.0397869
0.0390992
0.038434
0.0377905
0.0371677
0.0365648
0.035981
0.0354154
0.0348673
0.034336
0.0338208
0.0333211
0.0328364
0.0323662
0.0319101
0.0314675
0.0310381
0.0306217
0.0302177
0.0298261
0.0294447
0.0290723
0.0287082
0.0283517
0.0280017
0.0276573
0.0273171
0.0269793
0.0266409
0.0262959
0.0259327
0.0580915
0.0554623
0.053008
0.0507108
0.0485611
0.0465493
0.0446672
0.0429038
0.0412492
0.0396945
0.0382315
0.0368531
0.0355526
0.0343242
0.0331625
0.0320628
0.0310206
0.0300321
0.0290937
0.0282019
0.0273538
0.0265465
0.0257773
0.0250438
0.0243437
0.0236749
0.0230354
0.0224234
0.0218371
0.0212751
0.0207357
0.0202178
0.0197201
0.0192414
0.0187806
0.0183367
0.0179086
0.0174954
0.0170959
0.0167109
0.0163401
0.0159827
0.015638
0.0153052
0.0149835
0.0146723
0.0143712
0.0140808
0.0138019
0.0135328
0.0580878
0.0554499
0.0529793
0.0506677
0.048503
0.0464743
0.0445707
0.0427822
0.0410997
0.0395148
0.03802
0.0366084
0.035274
0.0340111
0.0328147
0.0316802
0.0306036
0.0295809
0.0286088
0.0276841
0.0268037
0.0259648
0.0251651
0.0244019
0.0236732
0.0229768
0.0223109
0.0216735
0.0210632
0.0204782
0.0199173
0.0193791
0.0188625
0.0183662
0.0178896
0.0174316
0.0169914
0.0165681
0.016161
0.0157692
0.0153921
0.015029
0.0146793
0.0143422
0.0140172
0.0137033
0.0133994
0.0131048
0.0128215
0.0125543
0.0580879
0.0554688
0.0530199
0.0507282
0.0485807
0.0465656
0.0446721
0.0428906
0.0412125
0.0396299
0.0381357
0.0367234
0.0353872
0.0341217
0.032922
0.0317839
0.0307031
0.0296761
0.0286995
0.02777
0.0268848
0.0260412
0.0252366
0.0244687
0.0237352
0.0230342
0.0223637
0.0217219
0.0211072
0.0205181
0.0199531
0.0194111
0.0188908
0.0183911
0.0179111
0.0174499
0.0170065
0.0165801
0.01617
0.0157754
0.0153955
0.0150296
0.0146771
0.0143375
0.0140104
0.0136955
0.0133918
0.0130974
0.0128109
0.0125371
0.0580879
0.0554692
0.0530194
0.050725
0.048574
0.0465552
0.0446583
0.0428741
0.0411939
0.0396098
0.0381148
0.0367023
0.0353663
0.0341015
0.0329028
0.0317659
0.0306865
0.029661
0.0286859
0.0277581
0.0268745
0.0260324
0.0252293
0.0244629
0.0237308
0.0230311
0.0223618
0.0217211
0.0211075
0.0205194
0.0199554
0.0194143
0.0188948
0.018396
0.0179167
0.0174561
0.0170133
0.0165875
0.0161778
0.0157836
0.015404
0.0150384
0.0146859
0.0143459
0.0140179
0.0137017
0.0133975
0.0131042
0.0128192
0.0125441
0.0580879
0.0554707
0.0530237
0.050733
0.0485862
0.0465717
0.0446791
0.0428987
0.041222
0.039641
0.0381485
0.036738
0.0354037
0.03414
0.0329422
0.0318057
0.0307266
0.0297011
0.0287257
0.0277975
0.0269133
0.0260706
0.0252668
0.0244995
0.0237665
0.0230658
0.0223956
0.0217539
0.0211393
0.0205502
0.0199851
0.019443
0.0189225
0.0184227
0.0179424
0.0174808
0.017037
0.0166101
0.0161994
0.0158041
0.0154235
0.0150568
0.0147035
0.0143628
0.0140337
0.0137157
0.013409
0.0131138
0.012828
0.0125516
0.0580879
0.055471
0.0530245
0.0507342
0.0485873
0.0465724
0.044679
0.0428977
0.0412199
0.0396377
0.0381441
0.0367326
0.0353973
0.0341329
0.0329344
0.0317975
0.030718
0.0296922
0.0287168
0.0277884
0.0269043
0.0260616
0.0252579
0.0244907
0.0237579
0.0230575
0.0223874
0.021746
0.0211317
0.0205428
0.0199781
0.0194363
0.0189161
0.0184166
0.0179366
0.0174753
0.0170318
0.0166052
0.0161947
0.0157995
0.0154188
0.0150521
0.0146986
0.0143579
0.0140291
0.0137113
0.0134041
0.0131079
0.0128217
0.0125448
0.0580879
0.0554712
0.0530251
0.0507354
0.0485892
0.0465752
0.0446827
0.0429024
0.0412255
0.0396444
0.0381519
0.0367413
0.035407
0.0341434
0.0329457
0.0318094
0.0307305
0.0297052
0.0287301
0.027802
0.026918
0.0260754
0.0252717
0.0245044
0.0237715
0.0230708
0.0224006
0.0217589
0.0211442
0.020555
0.01999
0.0194477
0.0189272
0.0184272
0.0179468
0.017485
0.0170409
0.0166138
0.0162027
0.0158069
0.0154256
0.0150581
0.0147037
0.0143619
0.0140321
0.0137137
0.0134057
0.0131081
0.0128205
0.0125424
0.0580879
0.0554712
0.0530253
0.0507358
0.0485898
0.0465758
0.0446834
0.042903
0.041226
0.0396447
0.0381518
0.036741
0.0354063
0.0341424
0.0329443
0.0318077
0.0307285
0.0297029
0.0287275
0.0277991
0.0269149
0.0260721
0.0252681
0.0245007
0.0237676
0.0230668
0.0223964
0.0217547
0.0211399
0.0205507
0.0199856
0.0194434
0.0189228
0.0184228
0.0179423
0.0174805
0.0170364
0.0166091
0.0161979
0.015802
0.0154206
0.0150529
0.0146983
0.014356
0.0140257
0.0137068
0.0133984
0.0131003
0.012812
0.0125332
0.0580878
0.0554712
0.0530254
0.050736
0.0485901
0.0465763
0.044684
0.0429037
0.0412269
0.0396458
0.0381532
0.0367426
0.0354081
0.0341444
0.0329466
0.0318102
0.0307312
0.0297057
0.0287305
0.0278023
0.0269181
0.0260754
0.0252715
0.024504
0.0237709
0.0230701
0.0223996
0.0217577
0.0211429
0.0205535
0.0199882
0.0194458
0.0189251
0.0184249
0.0179443
0.0174822
0.0170378
0.0166103
0.0161987
0.0158023
0.0154204
0.0150522
0.0146971
0.0143543
0.0140232
0.0137034
0.0133943
0.0130954
0.0128062
0.0125264
0.0580878
0.0554712
0.0530254
0.050736
0.0485901
0.0465762
0.0446839
0.0429037
0.0412269
0.0396457
0.0381531
0.0367425
0.0354081
0.0341444
0.0329466
0.0318102
0.0307312
0.0297058
0.0287306
0.0278023
0.0269182
0.0260754
0.0252714
0.0245039
0.0237707
0.0230698
0.0223992
0.0217572
0.0211422
0.0205527
0.0199874
0.0194448
0.018924
0.0184236
0.0179428
0.0174806
0.017036
0.0166082
0.0161964
0.0157997
0.0154173
0.0150487
0.014693
0.0143497
0.0140181
0.0136976
0.0133878
0.0130882
0.0127982
0.0125175
0.0580878
0.0554712
0.0530253
0.0507357
0.0485897
0.0465757
0.0446832
0.0429028
0.0412258
0.0396444
0.0381516
0.0367408
0.0354061
0.0341423
0.0329443
0.0318078
0.0307286
0.0297031
0.0287277
0.0277993
0.0269151
0.0260722
0.0252681
0.0245005
0.0237672
0.0230661
0.0223954
0.0217533
0.0211383
0.0205487
0.0199833
0.0194407
0.0189198
0.0184194
0.0179386
0.0174763
0.0170316
0.0166037
0.0161916
0.0157947
0.0154121
0.0150431
0.0146871
0.0143433
0.0140113
0.0136903
0.0133799
0.0130797
0.0127891
0.0125077
0.0580878
0.0554711
0.053025
0.0507353
0.048589
0.0465749
0.0446823
0.0429019
0.041225
0.0396439
0.0381513
0.0367409
0.0354066
0.0341432
0.0329456
0.0318095
0.0307307
0.0297055
0.0287304
0.0278023
0.0269183
0.0260755
0.0252715
0.0245039
0.0237706
0.0230695
0.0223987
0.0217565
0.0211412
0.0205515
0.0199859
0.0194431
0.018922
0.0184214
0.0179403
0.0174777
0.0170326
0.0166043
0.0161918
0.0157943
0.0154112
0.0150416
0.0146848
0.0143403
0.0140075
0.0136857
0.0133745
0.0130733
0.0127817
0.0124993
0.0580878
0.0554709
0.0530244
0.050734
0.048587
0.0465719
0.0446783
0.0428969
0.041219
0.0396368
0.0381432
0.0367318
0.0353967
0.0341325
0.0329343
0.0317976
0.0307183
0.0296927
0.0287174
0.0277891
0.0269048
0.026062
0.0252579
0.0244903
0.023757
0.0230559
0.0223851
0.021743
0.0211279
0.0205384
0.0199729
0.0194304
0.0189095
0.0184091
0.0179282
0.0174658
0.017021
0.0165928
0.0161804
0.0157829
0.0153998
0.0150301
0.0146732
0.0143286
0.0139955
0.0136735
0.013362
0.0130605
0.0127685
0.0124856
0.0580878
0.0554706
0.0530235
0.0507327
0.0485857
0.046571
0.0446781
0.0428976
0.0412208
0.0396397
0.0381473
0.0367369
0.0354028
0.0341394
0.0329418
0.0318057
0.0307269
0.0297016
0.0287265
0.0277982
0.0269139
0.0260709
0.0252666
0.0244987
0.023765
0.0230635
0.0223923
0.0217497
0.0211341
0.0205441
0.0199781
0.0194351
0.0189136
0.0184127
0.0179313
0.0174683
0.0170228
0.016594
0.0161809
0.0157827
0.0153987
0.0150282
0.0146705
0.0143249
0.0139909
0.0136679
0.0133554
0.0130528
0.0127597
0.0124756
0.0580878
0.0554692
0.0530192
0.0507246
0.0485734
0.0465543
0.0446572
0.0428727
0.0411924
0.0396083
0.0381134
0.036701
0.0353653
0.0341008
0.0329025
0.0317659
0.030687
0.0296618
0.0286869
0.0277591
0.0268754
0.026033
0.0252294
0.0244623
0.0237294
0.0230287
0.0223584
0.0217166
0.0211019
0.0205127
0.0199476
0.0194054
0.0188849
0.0183848
0.0179042
0.017442
0.0169972
0.016569
0.0161564
0.0157588
0.0153752
0.0150051
0.0146477
0.0143025
0.0139687
0.0136459
0.0133335
0.013031
0.0127379
0.0124538
0.0580878
0.0554687
0.0530197
0.0507278
0.0485801
0.0465647
0.0446709
0.0428892
0.0412109
0.0396283
0.0381341
0.0367219
0.0353859
0.0341208
0.0329216
0.0317838
0.0307035
0.0296769
0.0287005
0.0277711
0.0268857
0.0260418
0.0252366
0.0244679
0.0237335
0.0230313
0.0223596
0.0217165
0.0211005
0.0205102
0.019944
0.0194008
0.0188793
0.0183783
0.0178969
0.0174339
0.0169884
0.0165594
0.0161463
0.015748
0.0153639
0.0149933
0.0146356
0.01429
0.0139561
0.0136332
0.013321
0.0130189
0.0127266
0.0124437
0.0580878
0.0554499
0.0529792
0.0506674
0.0485024
0.0464734
0.0445695
0.0427808
0.0410981
0.0395131
0.0380184
0.036607
0.0352728
0.0340103
0.0328144
0.0316805
0.0306044
0.0295822
0.0286104
0.0276858
0.0268053
0.0259663
0.0251661
0.0244023
0.0236728
0.0229756
0.0223087
0.0216705
0.0210593
0.0204737
0.0199123
0.0193738
0.018857
0.0183608
0.0178841
0.0174259
0.0169853
0.0165614
0.0161534
0.0157605
0.015382
0.0150174
0.0146661
0.0143275
0.0140013
0.0136872
0.0133849
0.0130944
0.012816
0.0125506
0.0580914
0.0554622
0.0530079
0.0507105
0.0485606
0.0465485
0.0446662
0.0429026
0.0412479
0.0396932
0.0382305
0.0368524
0.0355525
0.0343247
0.0331639
0.0320652
0.0310241
0.0300366
0.0290992
0.0282083
0.027361
0.0265544
0.025786
0.0250532
0.024354
0.0236863
0.0230481
0.0224379
0.021854
0.0212951
0.0207597
0.0202468
0.0197551
0.0192836
0.0188313
0.0183975
0.0179812
0.0175817
0.0171984
0.0168307
0.0164783
0.0161406
0.0158175
0.015509
0.015215
0.014936
0.0146727
0.0144269
0.0142017
0.0140039
0.0589323
0.0574901
0.056125
0.0548303
0.0535977
0.0524191
0.0512865
0.050197
0.0491479
0.0481372
0.047163
0.0462235
0.0453172
0.0444425
0.043598
0.0427825
0.0419947
0.0412333
0.0404974
0.0397857
0.0390974
0.0384313
0.0377866
0.0371623
0.0365577
0.0359718
0.0354039
0.0348534
0.0343194
0.0338014
0.0332986
0.0328105
0.0323363
0.0318757
0.0314278
0.0309923
0.0305685
0.030156
0.0297541
0.0293624
0.0289804
0.0286076
0.0282435
0.0278874
0.027539
0.0271975
0.0268624
0.0265327
0.0262075
0.0258855
0.00744363
0.00226414
0.0024336
0.00287922
0.00329053
0.00351646
0.00347788
0.00317978
0.00269915
0.00215442
0.00166572
0.00131594
0.00112703
0.00106672
0.00108466
0.00118722
0.00141536
0.00202656
0.00416673
0.0139728
0.00744486
0.00224862
0.00238455
0.00282224
0.00325859
0.00354118
0.00357623
0.00334738
0.00291114
0.00237356
0.00185563
0.00145512
0.00121619
0.00112274
0.00112795
0.00123252
0.00148107
0.00214743
0.00439047
0.0141553
0.00746554
0.00223477
0.00233175
0.00275522
0.00321119
0.00354958
0.00366426
0.00351734
0.00314224
0.00262795
0.0020908
0.00163966
0.00134231
0.00120677
0.00119539
0.00130552
0.00158712
0.00233804
0.00472196
0.0143135
0.00750793
0.00222347
0.00227582
0.00267772
0.00314583
0.00353672
0.00373528
0.00368308
0.0033885
0.00291885
0.00237938
0.00188383
0.00152142
0.00132982
0.00129242
0.00140912
0.00173187
0.00257866
0.00510223
0.0144605
0.00757399
0.00221577
0.00221783
0.00258995
0.00306031
0.00349704
0.00378071
0.00383472
0.00364176
0.00324339
0.00272693
0.00220288
0.00177593
0.00151446
0.00143423
0.00155586
0.00192677
0.00287723
0.00553327
0.0145953
0.00766565
0.00221291
0.00215936
0.002493
0.00295328
0.00342499
0.00379032
0.00395872
0.00388825
0.00359208
0.00313303
0.00260905
0.00213119
0.00179479
0.00165385
0.00176411
0.002187
0.00324387
0.00601647
0.0147145
0.00778463
0.00221629
0.00210253
0.00238919
0.0028249
0.00331594
0.00375301
0.00403789
0.00410745
0.00394602
0.0035869
0.00310577
0.00260824
0.00220988
0.00200921
0.00206079
0.00253314
0.00369214
0.00655506
0.0148128
0.00793218
0.00222733
0.00204993
0.00228223
0.00267768
0.00316752
0.00365837
0.00405245
0.00427181
0.00427457
0.00406224
0.00367975
0.0032115
0.00277246
0.00249181
0.00248274
0.00299131
0.0042378
0.00715207
0.0148835
0.00810894
0.00224733
0.00200443
0.0021773
0.00251714
0.00298143
0.00349925
0.00398268
0.0043482
0.00453434
0.004513
0.00429455
0.00392972
0.00351025
0.00316967
0.00307787
0.00359214
0.00489675
0.00780729
0.0149164
0.00831465
0.00227728
0.00196875
0.00208064
0.00235225
0.00276525
0.00327544
0.00381382
0.00430257
0.00467137
0.00487027
0.00487836
0.00470878
0.00441445
0.00409841
0.00393635
0.00436895
0.00568247
0.00851432
0.014896
0.00854797
0.00231764
0.00194495
0.00199866
0.00219477
0.00253354
0.00299757
0.00354322
0.00410943
0.00463025
0.00504688
0.00531764
0.00542483
0.00538216
0.00524798
0.00515455
0.00535284
0.00660073
0.00925537
0.0147979
0.00880642
0.00236822
0.00193392
0.0019366
0.00205752
0.00230702
0.0026896
0.00318812
0.00376578
0.0043733
0.00495794
0.0054724
0.00588189
0.00616866
0.00633714
0.00642556
0.00656554
0.00764012
0.00999222
0.0145811
0.00908635
0.00242825
0.0019351
0.00189713
0.00195126
0.00210865
0.00238681
0.00278978
0.00330553
0.00390814
0.00456266
0.00523135
0.00588097
0.00648727
0.00704035
0.00754819
0.0080549
0.00875074
0.0106454
0.014171
0.00938321
0.00249643
0.00194657
0.00187952
0.00188151
0.00195719
0.0021271
0.00240695
0.00280237
0.00330861
0.00391149
0.00459034
0.00532338
0.00609186
0.0068865
0.00771034
0.00859129
0.00958884
0.0110282
0.0134123
0.00969191
0.00257121
0.00196562
0.00187998
0.00184679
0.00186068
0.00193793
0.00209628
0.00234874
0.00270267
0.00315887
0.00371166
0.00435042
0.00506151
0.00583158
0.00665111
0.00752068
0.00849041
0.00981817
0.0120257
0.0100072
0.00265094
0.00198946
0.00189306
0.00183981
0.00181438
0.00182598
0.00188872
0.00201491
0.00221506
0.00249661
0.0028633
0.00331434
0.0038456
0.00444841
0.00511425
0.00583383
0.0066024
0.007467
0.00883115
0.0103243
0.00273415
0.00201584
0.00191342
0.0018509
0.00180484
0.001778
0.00177974
0.00181835
0.00190278
0.00204139
0.00224234
0.00251287
0.00286188
0.00329955
0.00384255
0.00452099
0.00538278
0.00651004
0.00798577
0.0106385
0.00281944
0.00204327
0.00193712
0.00187156
0.00181705
0.00177169
0.00174148
0.00173069
0.00174563
0.001793
0.00188147
0.00202194
0.00223016
0.0025304
0.00295863
0.00357587
0.00448409
0.00587605
0.00818161
0.0109462
0.00290566
0.0020709
0.00196175
0.00189604
0.00183955
0.00178707
0.00174307
0.00170896
0.00168885
0.00168723
0.0017109
0.00177084
0.0018832
0.00207688
0.00239822
0.00292772
0.003812
0.00534724
0.0084633
0.0112445
0.00299184
0.0020984
0.00198616
0.00192125
0.0018656
0.00181129
0.00176263
0.00171918
0.0016837
0.00165871
0.00164866
0.0016624
0.00171391
0.00183019
0.00206061
0.00249847
0.00332845
0.00494608
0.00870447
0.0115308
0.00307702
0.00212564
0.00201008
0.00194597
0.00189208
0.00183788
0.00178842
0.00174182
0.00170047
0.0016652
0.00163891
0.00162724
0.00164161
0.00170459
0.00186288
0.00221621
0.00297871
0.0046399
0.00890065
0.0118033
0.00316029
0.00215247
0.00203342
0.00196985
0.0019179
0.00186429
0.00181536
0.00176792
0.00172471
0.00168512
0.00165149
0.00162647
0.00161854
0.00164609
0.00174948
0.00202894
0.00271689
0.00438759
0.00906188
0.0120613
0.00324113
0.0021789
0.00205621
0.00199284
0.00194272
0.0018898
0.00184167
0.00179426
0.00175054
0.0017092
0.00167213
0.00164057
0.00161951
0.00162402
0.00168691
0.0019044
0.00251658
0.0041715
0.00919728
0.0123036
0.00331904
0.00220502
0.00207863
0.0020151
0.00196653
0.00191429
0.0018669
0.00181984
0.00177602
0.00173413
0.0016951
0.00166035
0.00163168
0.00162151
0.0016551
0.0018224
0.00236237
0.00398591
0.00931316
0.0125297
0.00339349
0.0022308
0.00210069
0.00203684
0.00198958
0.00193776
0.00189108
0.00184433
0.00180062
0.00175862
0.00171851
0.00168196
0.00164879
0.00162942
0.00164196
0.00176964
0.00224375
0.00382754
0.00941379
0.01274
0.00346429
0.00225629
0.00212244
0.00205812
0.00201221
0.00196037
0.00191451
0.00186772
0.00182428
0.00178218
0.00174158
0.00170396
0.0016679
0.00164286
0.00164017
0.00173712
0.0021529
0.00369335
0.00950229
0.0129346
0.00353132
0.00228147
0.00214404
0.00207895
0.00203451
0.00198238
0.00193737
0.00189039
0.0018471
0.00180485
0.00176393
0.00172576
0.00168771
0.00165919
0.00164538
0.0017187
0.00208377
0.00358037
0.00958104
0.0131139
0.00359459
0.00230624
0.00216561
0.00209954
0.0020564
0.00200407
0.00195955
0.00191266
0.00186925
0.00182692
0.00178554
0.00174716
0.00170762
0.001677
0.00165494
0.00171016
0.00203166
0.00348587
0.0096519
0.0132787
0.0036543
0.00233061
0.00218707
0.00212016
0.00207786
0.00202561
0.00198121
0.00193448
0.0018909
0.00184852
0.00180658
0.00176816
0.00172741
0.00169552
0.00166729
0.00170864
0.00199297
0.00340743
0.00971634
0.0134295
0.00371063
0.00235479
0.00220832
0.00214087
0.0020991
0.00204687
0.00200263
0.00195585
0.00191217
0.00186971
0.00182722
0.00178882
0.001747
0.00171436
0.00168143
0.00171214
0.0019649
0.00334294
0.00977551
0.0135671
0.00376348
0.00237892
0.00222954
0.00216152
0.00212035
0.00206786
0.00202394
0.00197689
0.00193315
0.00189058
0.00184759
0.00180922
0.0017664
0.00173335
0.00169674
0.00171923
0.00194528
0.00329049
0.0098304
0.0136929
0.00381309
0.00240278
0.00225091
0.0021821
0.00214163
0.00208872
0.00204514
0.0019978
0.00195389
0.00191125
0.0018678
0.00182941
0.00178567
0.00175241
0.00171285
0.00172893
0.00193242
0.00324845
0.00988176
0.013808
0.00386023
0.0024264
0.00227239
0.0022027
0.00216287
0.00210958
0.0020662
0.00201867
0.00197449
0.00193181
0.00188789
0.00184946
0.00180488
0.00177153
0.00172951
0.00174056
0.00192503
0.00321538
0.00993021
0.0139124
0.00390515
0.00245002
0.00229397
0.00222349
0.00218408
0.00213052
0.00208717
0.0020395
0.00199505
0.00195231
0.00190788
0.0018694
0.00182406
0.00179066
0.00174659
0.00175366
0.00192211
0.00319006
0.00997631
0.0140074
0.00394781
0.00247368
0.0023156
0.0022445
0.00220532
0.00215158
0.00210811
0.00206031
0.00201562
0.00197277
0.00192782
0.00188932
0.00184327
0.00180983
0.00176403
0.00176792
0.00192286
0.00317138
0.0100205
0.0140947
0.00398858
0.00249734
0.00233731
0.0022657
0.00222666
0.00217274
0.00212911
0.00208118
0.00203621
0.00199322
0.00194778
0.00190927
0.00186254
0.00182905
0.00178179
0.00178314
0.00192665
0.00315844
0.0100633
0.0141751
0.00402794
0.00252101
0.00235919
0.00228712
0.00224814
0.00219401
0.00215022
0.00210215
0.00205685
0.00201371
0.00196782
0.0019293
0.0018819
0.00184836
0.00179986
0.00179914
0.00193298
0.00315044
0.0101049
0.0142491
0.00406608
0.00254475
0.00238128
0.00230879
0.0022698
0.00221542
0.00217149
0.00212325
0.00207758
0.0020343
0.00198798
0.00194942
0.00190141
0.0018678
0.00181822
0.00181578
0.00194142
0.00314668
0.0101456
0.0143175
0.00410308
0.00256859
0.00240358
0.00233072
0.00229164
0.00223703
0.00219294
0.00214449
0.00209845
0.00205507
0.0020083
0.00196966
0.00192108
0.0018874
0.00183684
0.00183295
0.00195164
0.00314658
0.0101856
0.014381
0.00413913
0.00259257
0.00242611
0.00235288
0.00231371
0.00225888
0.00221456
0.00216589
0.00211952
0.00207602
0.00202881
0.00199003
0.00194094
0.00190716