/*--------------------------------*- C++ -*----------------------------------*\
  =========                 |
  \\      /  F ield         | OpenFOAM: The Open Source CFD Toolbox
   \\    /   O peration     | Website:  https://openfoam.org
    \\  /    A nd           | Version:  8
     \\/     M anipulation  |
\*---------------------------------------------------------------------------*/
FoamFile
{
    version     2.0;
    format      ascii;
    class       volScalarField;
    location    "700";
    object      nut;
}
// * * * * * * * * * * * * * * * * * * * * * * * * * * * * * * * * * * * * * //

dimensions      [0 2 -1 0 0 0 0];

internalField   nonuniform List<scalar> 
8400
(
0.000162794
0.000161505
0.000160231
0.000158966
0.000157705
0.000156443
0.000155177
0.0001539
0.00015261
0.000151302
0.000149971
0.000148615
0.00014723
0.000145814
0.000144363
0.000142876
0.000141348
0.000139779
0.000138166
0.000136508
0.000134805
0.000133057
0.000131266
0.000129432
0.000127558
0.000125648
0.000123705
0.000121735
0.000119742
0.000117734
0.000115718
0.000113704
0.000111701
0.000109719
0.000107769
0.000105862
0.000104012
0.00010223
0.000100529
9.89211e-05
9.74179e-05
9.60311e-05
9.47713e-05
9.36473e-05
9.26664e-05
9.1836e-05
9.11624e-05
9.06495e-05
9.02989e-05
9.01144e-05
7.40527e-05
7.39561e-05
7.38575e-05
7.37555e-05
7.36481e-05
7.35343e-05
7.34123e-05
7.32804e-05
7.31369e-05
7.29804e-05
7.28096e-05
7.26234e-05
7.24213e-05
7.22029e-05
7.19675e-05
7.1715e-05
7.14452e-05
7.11577e-05
7.08534e-05
7.05333e-05
7.01986e-05
6.9851e-05
6.94924e-05
6.91252e-05
6.87525e-05
6.83775e-05
6.80039e-05
6.76354e-05
6.7276e-05
6.69305e-05
6.66043e-05
6.63029e-05
6.60316e-05
6.57952e-05
6.55988e-05
6.54477e-05
6.53471e-05
6.53006e-05
6.53107e-05
6.53795e-05
6.55086e-05
6.56985e-05
6.59478e-05
6.62534e-05
6.66131e-05
6.70248e-05
6.74846e-05
6.79893e-05
6.85374e-05
6.91312e-05
6.58757e-05
6.57919e-05
6.57092e-05
6.56259e-05
6.55405e-05
6.54517e-05
6.53585e-05
6.52599e-05
6.51543e-05
6.50412e-05
6.49198e-05
6.47899e-05
6.46515e-05
6.45051e-05
6.43508e-05
6.41887e-05
6.40195e-05
6.38441e-05
6.36637e-05
6.34802e-05
6.32952e-05
6.31105e-05
6.29285e-05
6.27515e-05
6.25821e-05
6.24229e-05
6.22766e-05
6.21455e-05
6.20321e-05
6.1939e-05
6.18688e-05
6.18237e-05
6.18055e-05
6.18156e-05
6.18556e-05
6.19265e-05
6.20288e-05
6.21618e-05
6.23244e-05
6.25159e-05
6.27353e-05
6.29807e-05
6.32489e-05
6.35379e-05
6.3847e-05
6.41741e-05
6.45169e-05
6.48765e-05
6.52532e-05
6.56539e-05
6.07474e-05
6.07295e-05
6.0713e-05
6.06975e-05
6.06823e-05
6.06671e-05
6.06512e-05
6.06345e-05
6.06166e-05
6.05969e-05
6.05757e-05
6.05531e-05
6.05297e-05
6.05055e-05
6.04806e-05
6.04554e-05
6.04299e-05
6.04048e-05
6.03808e-05
6.0359e-05
6.03402e-05
6.03251e-05
6.03142e-05
6.03084e-05
6.03086e-05
6.03159e-05
6.0331e-05
6.03542e-05
6.0386e-05
6.04272e-05
6.04782e-05
6.05394e-05
6.06111e-05
6.06937e-05
6.07876e-05
6.08926e-05
6.10083e-05
6.11341e-05
6.12701e-05
6.14164e-05
6.15728e-05
6.17382e-05
6.19121e-05
6.20958e-05
6.22896e-05
6.24929e-05
6.27059e-05
6.29298e-05
6.31683e-05
6.34236e-05
5.91249e-05
5.91495e-05
5.91744e-05
5.91992e-05
5.92239e-05
5.92486e-05
5.92734e-05
5.92974e-05
5.9321e-05
5.9344e-05
5.9367e-05
5.93899e-05
5.94132e-05
5.94367e-05
5.946e-05
5.94831e-05
5.95061e-05
5.95296e-05
5.95544e-05
5.95807e-05
5.96082e-05
5.96368e-05
5.96666e-05
5.96979e-05
5.97315e-05
5.97675e-05
5.98061e-05
5.98472e-05
5.98908e-05
5.99371e-05
5.99863e-05
6.00386e-05
6.00944e-05
6.0154e-05
6.02175e-05
6.0285e-05
6.03562e-05
6.04316e-05
6.05122e-05
6.05983e-05
6.06898e-05
6.07869e-05
6.08912e-05
6.10045e-05
6.11267e-05
6.12595e-05
6.1404e-05
6.15599e-05
6.17296e-05
6.19193e-05
5.86309e-05
5.86733e-05
5.87155e-05
5.87573e-05
5.87979e-05
5.88366e-05
5.88741e-05
5.891e-05
5.8944e-05
5.89766e-05
5.90081e-05
5.90389e-05
5.90685e-05
5.90969e-05
5.91241e-05
5.91502e-05
5.91752e-05
5.91997e-05
5.92246e-05
5.925e-05
5.92759e-05
5.93018e-05
5.93278e-05
5.93544e-05
5.93821e-05
5.9411e-05
5.94412e-05
5.94726e-05
5.95051e-05
5.95389e-05
5.95742e-05
5.96112e-05
5.965e-05
5.96904e-05
5.97321e-05
5.97754e-05
5.9821e-05
5.98698e-05
5.9922e-05
5.99774e-05
6.00361e-05
6.00994e-05
6.01693e-05
6.02457e-05
6.03282e-05
6.04201e-05
6.05225e-05
6.06369e-05
6.07672e-05
6.09139e-05
5.80966e-05
5.81435e-05
5.81936e-05
5.8245e-05
5.82965e-05
5.83471e-05
5.83954e-05
5.84409e-05
5.84836e-05
5.85239e-05
5.85617e-05
5.85975e-05
5.86309e-05
5.86618e-05
5.869e-05
5.87156e-05
5.87398e-05
5.87642e-05
5.87893e-05
5.8815e-05
5.88409e-05
5.88669e-05
5.88931e-05
5.892e-05
5.89485e-05
5.89787e-05
5.90105e-05
5.90435e-05
5.90775e-05
5.91124e-05
5.91489e-05
5.91866e-05
5.92247e-05
5.92628e-05
5.93008e-05
5.93398e-05
5.93811e-05
5.94246e-05
5.947e-05
5.95174e-05
5.95669e-05
5.96201e-05
5.96777e-05
5.9739e-05
5.98061e-05
5.98788e-05
5.99586e-05
6.00494e-05
6.01561e-05
6.02733e-05
5.76326e-05
5.76258e-05
5.76336e-05
5.76541e-05
5.7684e-05
5.77206e-05
5.77618e-05
5.78046e-05
5.78469e-05
5.78886e-05
5.79294e-05
5.79681e-05
5.8004e-05
5.80366e-05
5.80674e-05
5.80971e-05
5.81264e-05
5.81565e-05
5.8188e-05
5.82206e-05
5.82541e-05
5.82884e-05
5.83243e-05
5.83621e-05
5.84022e-05
5.84444e-05
5.84885e-05
5.85346e-05
5.8582e-05
5.86301e-05
5.86789e-05
5.87276e-05
5.87751e-05
5.88217e-05
5.88682e-05
5.89157e-05
5.89647e-05
5.90153e-05
5.90678e-05
5.91212e-05
5.91757e-05
5.92338e-05
5.92965e-05
5.93626e-05
5.94289e-05
5.94998e-05
5.95792e-05
5.96656e-05
5.97579e-05
5.98658e-05
5.80499e-05
5.78809e-05
5.77357e-05
5.76199e-05
5.75341e-05
5.74715e-05
5.74299e-05
5.74052e-05
5.73944e-05
5.73939e-05
5.74011e-05
5.74124e-05
5.74269e-05
5.74436e-05
5.74613e-05
5.74808e-05
5.75035e-05
5.75298e-05
5.75592e-05
5.75913e-05
5.76261e-05
5.76645e-05
5.77081e-05
5.77569e-05
5.78093e-05
5.78636e-05
5.79202e-05
5.7981e-05
5.80467e-05
5.81126e-05
5.81777e-05
5.82421e-05
5.83046e-05
5.83659e-05
5.84273e-05
5.84889e-05
5.85519e-05
5.86169e-05
5.86823e-05
5.87468e-05
5.88142e-05
5.88873e-05
5.89601e-05
5.90377e-05
5.9117e-05
5.92108e-05
5.93007e-05
5.93942e-05
5.94916e-05
5.95948e-05
5.96886e-05
5.94257e-05
5.91875e-05
5.89702e-05
5.87771e-05
5.85963e-05
5.84295e-05
5.82773e-05
5.81421e-05
5.80343e-05
5.79362e-05
5.78478e-05
5.77527e-05
5.76579e-05
5.75717e-05
5.74946e-05
5.74305e-05
5.73761e-05
5.7328e-05
5.7284e-05
5.72524e-05
5.72421e-05
5.72582e-05
5.73067e-05
5.73846e-05
5.74661e-05
5.75285e-05
5.75801e-05
5.76599e-05
5.77443e-05
5.78287e-05
5.79262e-05
5.80225e-05
5.81016e-05
5.81723e-05
5.82442e-05
5.83168e-05
5.8379e-05
5.84372e-05
5.85043e-05
5.8578e-05
5.86489e-05
5.87347e-05
5.88228e-05
5.89017e-05
5.90109e-05
5.91132e-05
5.92071e-05
5.93072e-05
5.94111e-05
6.10131e-05
6.08569e-05
6.07186e-05
6.0598e-05
6.04964e-05
6.03759e-05
6.02317e-05
6.0091e-05
5.98545e-05
5.97767e-05
5.96399e-05
5.95229e-05
5.93719e-05
5.91783e-05
5.89489e-05
5.86438e-05
5.83795e-05
5.81626e-05
5.79443e-05
5.76584e-05
5.73813e-05
5.71888e-05
5.70325e-05
5.69578e-05
5.72559e-05
5.79119e-05
5.83716e-05
5.81899e-05
5.81276e-05
5.81074e-05
5.80943e-05
5.82788e-05
5.85191e-05
5.85683e-05
5.85202e-05
5.85425e-05
5.86165e-05
5.86161e-05
5.86195e-05
5.87055e-05
5.87505e-05
5.87095e-05
5.88037e-05
5.8823e-05
5.88865e-05
5.89837e-05
5.90942e-05
5.91773e-05
5.92614e-05
5.93511e-05
6.14064e-05
6.13069e-05
6.1218e-05
6.11331e-05
6.1052e-05
6.09686e-05
6.08762e-05
6.07924e-05
6.07097e-05
6.06286e-05
6.05507e-05
6.04729e-05
6.03921e-05
6.03058e-05
6.02156e-05
6.01255e-05
6.00408e-05
5.99583e-05
5.98718e-05
5.97791e-05
5.96888e-05
5.96165e-05
5.95638e-05
5.95007e-05
5.93959e-05
5.92682e-05
5.92026e-05
5.91771e-05
5.91431e-05
5.91101e-05
5.90959e-05
5.90989e-05
5.91014e-05
5.90912e-05
5.90819e-05
5.9082e-05
5.90834e-05
5.90879e-05
5.91004e-05
5.91205e-05
5.91397e-05
5.91443e-05
5.91865e-05
5.91932e-05
5.92249e-05
5.92733e-05
5.93157e-05
5.93774e-05
5.94144e-05
5.9479e-05
6.14488e-05
6.13936e-05
6.13403e-05
6.12876e-05
6.12351e-05
6.1181e-05
6.11282e-05
6.10727e-05
6.10202e-05
6.09686e-05
6.09196e-05
6.08711e-05
6.08198e-05
6.07658e-05
6.071e-05
6.06531e-05
6.05961e-05
6.0539e-05
6.04817e-05
6.04241e-05
6.03666e-05
6.03102e-05
6.02567e-05
6.02065e-05
6.01573e-05
6.01069e-05
6.00582e-05
6.00125e-05
5.99698e-05
5.99317e-05
5.98984e-05
5.9868e-05
5.98388e-05
5.98109e-05
5.97858e-05
5.97613e-05
5.97361e-05
5.97134e-05
5.9692e-05
5.96715e-05
5.96539e-05
5.96413e-05
5.96332e-05
5.96281e-05
5.96293e-05
5.96268e-05
5.96311e-05
5.96597e-05
5.96804e-05
5.97106e-05
6.14646e-05
6.14268e-05
6.13907e-05
6.13538e-05
6.13157e-05
6.12757e-05
6.12395e-05
6.12018e-05
6.11627e-05
6.11249e-05
6.10873e-05
6.10487e-05
6.10105e-05
6.09736e-05
6.09379e-05
6.09024e-05
6.08655e-05
6.08268e-05
6.07867e-05
6.07459e-05
6.0705e-05
6.06647e-05
6.06254e-05
6.0587e-05
6.05488e-05
6.05101e-05
6.04717e-05
6.04344e-05
6.03984e-05
6.0364e-05
6.03313e-05
6.02993e-05
6.02685e-05
6.02397e-05
6.02122e-05
6.01839e-05
6.01556e-05
6.01285e-05
6.01014e-05
6.00762e-05
6.0052e-05
6.00322e-05
6.00078e-05
5.99931e-05
5.99818e-05
5.99689e-05
5.99602e-05
5.99547e-05
5.99563e-05
5.99628e-05
6.14722e-05
6.1444e-05
6.1416e-05
6.13875e-05
6.13585e-05
6.13281e-05
6.12985e-05
6.12699e-05
6.12416e-05
6.12135e-05
6.11849e-05
6.11556e-05
6.11259e-05
6.10962e-05
6.10667e-05
6.1037e-05
6.10068e-05
6.09761e-05
6.09451e-05
6.09139e-05
6.08831e-05
6.08527e-05
6.08224e-05
6.07919e-05
6.07614e-05
6.07314e-05
6.07022e-05
6.06738e-05
6.06455e-05
6.06175e-05
6.05901e-05
6.05633e-05
6.05371e-05
6.05116e-05
6.04859e-05
6.04602e-05
6.04359e-05
6.04125e-05
6.0389e-05
6.03666e-05
6.03433e-05
6.03217e-05
6.02981e-05
6.02777e-05
6.0259e-05
6.02411e-05
6.02282e-05
6.02173e-05
6.02092e-05
6.02077e-05
6.14783e-05
6.14563e-05
6.1434e-05
6.14119e-05
6.13888e-05
6.13654e-05
6.13416e-05
6.13173e-05
6.12934e-05
6.12699e-05
6.12462e-05
6.12228e-05
6.11997e-05
6.11769e-05
6.11543e-05
6.11317e-05
6.11086e-05
6.10848e-05
6.10601e-05
6.10349e-05
6.10098e-05
6.09849e-05
6.09599e-05
6.09343e-05
6.0909e-05
6.08844e-05
6.08604e-05
6.08366e-05
6.08128e-05
6.07893e-05
6.07666e-05
6.07445e-05
6.07228e-05
6.0701e-05
6.06786e-05
6.06564e-05
6.06349e-05
6.06127e-05
6.05912e-05
6.05718e-05
6.05528e-05
6.05344e-05
6.05176e-05
6.0501e-05
6.04854e-05
6.04726e-05
6.04604e-05
6.04537e-05
6.04478e-05
6.04496e-05
6.1481e-05
6.14619e-05
6.14424e-05
6.14219e-05
6.1402e-05
6.1383e-05
6.13637e-05
6.13437e-05
6.13238e-05
6.13041e-05
6.12844e-05
6.1265e-05
6.12458e-05
6.12267e-05
6.12074e-05
6.11882e-05
6.11688e-05
6.1149e-05
6.11287e-05
6.1108e-05
6.10873e-05
6.10665e-05
6.10454e-05
6.10241e-05
6.10031e-05
6.09826e-05
6.09624e-05
6.09425e-05
6.09236e-05
6.09061e-05
6.08897e-05
6.08745e-05
6.08606e-05
6.08479e-05
6.08356e-05
6.08237e-05
6.08117e-05
6.07988e-05
6.07872e-05
6.07764e-05
6.07671e-05
6.0759e-05
6.07529e-05
6.07495e-05
6.07473e-05
6.07503e-05
6.07549e-05
6.07668e-05
6.07806e-05
6.0801e-05
6.14859e-05
6.14714e-05
6.14577e-05
6.14434e-05
6.14293e-05
6.1416e-05
6.1403e-05
6.13899e-05
6.13765e-05
6.13637e-05
6.13521e-05
6.13416e-05
6.13315e-05
6.13212e-05
6.13101e-05
6.12982e-05
6.12849e-05
6.12697e-05
6.12528e-05
6.1234e-05
6.12124e-05
6.11875e-05
6.11626e-05
6.11439e-05
6.1131e-05
6.11229e-05
6.11187e-05
6.11177e-05
6.11119e-05
6.11048e-05
6.10989e-05
6.11001e-05
6.11196e-05
6.11502e-05
6.11862e-05
6.12243e-05
6.12609e-05
6.12876e-05
6.1309e-05
6.13301e-05
6.13571e-05
6.13928e-05
6.1431e-05
6.14712e-05
6.15115e-05
6.15535e-05
6.15977e-05
6.16479e-05
6.16944e-05
6.17357e-05
6.1504e-05
6.14946e-05
6.14827e-05
6.14774e-05
6.15577e-05
6.1888e-05
6.22244e-05
6.24483e-05
6.24859e-05
6.25045e-05
6.26187e-05
6.28168e-05
6.30176e-05
6.31106e-05
6.30722e-05
6.29412e-05
6.27368e-05
6.24515e-05
6.22373e-05
6.21377e-05
6.21166e-05
6.21701e-05
6.23038e-05
6.25103e-05
6.2669e-05
6.27626e-05
6.28464e-05
6.29537e-05
6.31123e-05
6.33009e-05
6.34883e-05
6.36641e-05
6.38237e-05
6.39765e-05
6.41842e-05
6.44856e-05
6.47475e-05
6.49304e-05
6.5056e-05
6.51691e-05
6.53067e-05
6.54811e-05
6.56684e-05
6.58234e-05
6.59023e-05
6.58737e-05
6.57778e-05
6.5712e-05
6.56815e-05
6.56438e-05
0.000153411
0.000153839
0.000154938
0.000155543
0.000155278
0.000154333
0.000153291
0.000152274
0.000151436
0.0001507
0.000150006
0.00014935
0.000148713
0.000148046
0.000147274
0.000146323
0.000145091
0.000143457
0.000141275
0.000138652
0.00013567
0.000132346
0.000128763
0.000125105
0.000121706
0.000118724
0.000116191
0.000114172
0.000112723
0.000111773
0.000111076
0.000110354
0.000109388
0.000108006
0.000106123
0.00010395
0.000101859
9.99041e-05
9.81052e-05
9.64789e-05
9.4958e-05
9.34462e-05
9.184e-05
9.00238e-05
8.79701e-05
8.57206e-05
8.32969e-05
8.072e-05
7.80383e-05
7.53332e-05
0.000272578
0.000269224
0.00026601
0.000262925
0.000259951
0.000257076
0.000254281
0.000251564
0.000248921
0.000246348
0.000243844
0.000241405
0.000239028
0.000236712
0.000234455
0.000232254
0.000230107
0.000228013
0.000225969
0.000223975
0.000222028
0.000220129
0.000218276
0.000216467
0.000214701
0.000212978
0.000211296
0.000209654
0.000208051
0.000206485
0.000204956
0.000203463
0.000202003
0.000200577
0.000199183
0.000197819
0.000196486
0.000195183
0.000193909
0.00019266
0.000191433
0.000190226
0.000189038
0.000187866
0.000186707
0.000185558
0.000184413
0.000183262
0.00018208
0.00018081
0.000270628
0.000264436
0.00025852
0.000252856
0.000247436
0.000242253
0.000237302
0.000232568
0.000228039
0.000223701
0.000219542
0.000215552
0.00021172
0.000208035
0.00020449
0.000201076
0.000197784
0.000194608
0.000191542
0.00018858
0.000185718
0.000182952
0.000180277
0.00017769
0.000175186
0.000172761
0.000170413
0.000168136
0.000165928
0.000163784
0.000161701
0.000159675
0.000157702
0.000155779
0.000153902
0.000152069
0.000150278
0.000148526
0.000146812
0.000145141
0.000143515
0.000141932
0.00014039
0.000138887
0.000137419
0.000135984
0.000134588
0.000133253
0.000132006
0.000130836
0.000270619
0.000264406
0.00025845
0.000252748
0.000247287
0.000242058
0.000237046
0.000232239
0.000227626
0.000223195
0.000218935
0.000214836
0.000210888
0.000207083
0.000203413
0.00019987
0.000196446
0.000193137
0.000189935
0.000186837
0.000183839
0.000180935
0.000178123
0.000175397
0.000172756
0.000170195
0.000167711
0.000165299
0.000162958
0.000160683
0.000158472
0.000156321
0.000154226
0.000152186
0.000150198
0.000148261
0.000146373
0.000144533
0.00014274
0.000140993
0.000139291
0.000137634
0.000136021
0.000134452
0.000132922
0.000131422
0.000129936
0.000128461
0.000127036
0.000125768
0.000270619
0.00026445
0.000258548
0.000252898
0.000247485
0.000242295
0.000237315
0.000232533
0.000227938
0.00022352
0.000219267
0.000215172
0.000211226
0.000207419
0.000203744
0.000200195
0.000196764
0.000193446
0.000190235
0.000187126
0.000184116
0.0001812
0.000178375
0.000175637
0.000172983
0.000170408
0.00016791
0.000165484
0.000163129
0.00016084
0.000158615
0.000156449
0.000154341
0.000152288
0.000150287
0.000148337
0.000146437
0.000144584
0.000142779
0.00014102
0.000139306
0.000137637
0.00013601
0.000134428
0.000132893
0.000131408
0.000129963
0.000128525
0.000127075
0.000125711
0.000270619
0.000264451
0.000258547
0.00025289
0.000247468
0.000242268
0.000237279
0.000232488
0.000227887
0.000223463
0.000219207
0.00021511
0.000211163
0.000207357
0.000203684
0.000200137
0.00019671
0.000193395
0.000190189
0.000187085
0.00018408
0.000181169
0.000178349
0.000175616
0.000172967
0.000170397
0.000167903
0.000165483
0.000163132
0.000160847
0.000158625
0.000156463
0.000154358
0.000152308
0.00015031
0.000148363
0.000146465
0.000144615
0.000142813
0.000141056
0.000139345
0.000137678
0.000136051
0.000134463
0.000132911
0.000131404
0.000129952
0.000128543
0.00012713
0.000125753
0.000270619
0.000264455
0.000258557
0.00025291
0.000247499
0.000242311
0.000237334
0.000232555
0.000227965
0.000223551
0.000219304
0.000215214
0.000211273
0.000207473
0.000203804
0.000200261
0.000196837
0.000193524
0.000190319
0.000187217
0.000184212
0.000181302
0.000178482
0.000175748
0.000173098
0.000170526
0.000168031
0.000165609
0.000163256
0.000160968
0.000158744
0.000156579
0.000154471
0.000152418
0.000150417
0.000148467
0.000146566
0.000144713
0.000142907
0.000141147
0.000139432
0.000137763
0.000136138
0.000134553
0.000133002
0.000131481
0.000130002
0.000128577
0.000127173
0.000125794
0.000270619
0.000264456
0.00025856
0.000252914
0.000247503
0.000242314
0.000237334
0.000232553
0.000227959
0.000223541
0.00021929
0.000215197
0.000211253
0.00020745
0.000203779
0.000200234
0.000196807
0.000193494
0.000190288
0.000187186
0.000184181
0.000181271
0.000178451
0.000175717
0.000173067
0.000170497
0.000168002
0.00016558
0.000163227
0.00016094
0.000158716
0.000156552
0.000154445
0.000152392
0.000150392
0.000148443
0.000146543
0.000144691
0.000142886
0.000141126
0.00013941
0.000137738
0.00013611
0.000134526
0.000132982
0.000131468
0.000129984
0.000128545
0.000127139
0.00012576
0.000270619
0.000264456
0.000258562
0.000252917
0.000247508
0.000242322
0.000237345
0.000232566
0.000227974
0.00022356
0.000219312
0.000215222
0.000211281
0.00020748
0.000203812
0.00020027
0.000196846
0.000193535
0.000190332
0.000187231
0.000184228
0.000181319
0.0001785
0.000175767
0.000173117
0.000170547
0.000168052
0.000165629
0.000163276
0.000160988
0.000158763
0.000156598
0.000154489
0.000152435
0.000150434
0.000148483
0.000146582
0.000144728
0.000142921
0.00014116
0.000139443
0.000137768
0.000136134
0.000134542
0.000132993
0.00013148
0.000129996
0.000128547
0.000127132
0.000125748
0.000270619
0.000264457
0.000258562
0.000252919
0.00024751
0.000242324
0.000237347
0.000232568
0.000227976
0.00022356
0.000219311
0.00021522
0.000211278
0.000207476
0.000203807
0.000200263
0.000196838
0.000193526
0.000190322
0.00018722
0.000184217
0.000181307
0.000178487
0.000175754
0.000173104
0.000170533
0.000168037
0.000165614
0.00016326
0.000160972
0.000158746
0.00015658
0.000154471
0.000152417
0.000150415
0.000148464
0.000146561
0.000144707
0.000142899
0.000141137
0.00013942
0.000137746
0.000136112
0.000134517
0.000132961
0.000131446
0.000129962
0.00012851
0.00012709
0.000125701
0.000270619
0.000264457
0.000258563
0.000252919
0.000247511
0.000242325
0.000237349
0.00023257
0.000227978
0.000223563
0.000219314
0.000215224
0.000211282
0.000207481
0.000203812
0.00020027
0.000196846
0.000193535
0.000190331
0.00018723
0.000184227
0.000181318
0.000178499
0.000175766
0.000173116
0.000170545
0.00016805
0.000165626
0.000163272
0.000160983
0.000158756
0.00015659
0.00015448
0.000152424
0.000150422
0.00014847
0.000146567
0.000144711
0.000142902
0.000141138
0.000139419
0.000137743
0.000136108
0.000134511
0.000132951
0.000131429
0.000129942
0.000128486
0.000127061
0.000125666
0.000270619
0.000264457
0.000258563
0.00025292
0.000247512
0.000242326
0.000237349
0.00023257
0.000227978
0.000223563
0.000219314
0.000215223
0.000211281
0.00020748
0.000203811
0.000200269
0.000196845
0.000193534
0.00019033
0.000187229
0.000184227
0.000181318
0.000178499
0.000175766
0.000173116
0.000170545
0.000168049
0.000165625
0.00016327
0.00016098
0.000158753
0.000156585
0.000154474
0.000152418
0.000150415
0.000148462
0.000146558
0.000144702
0.000142892
0.000141127
0.000139406
0.000137727
0.00013609
0.000134491
0.000132929
0.000131402
0.00012991
0.00012845
0.00012702
0.00012562
0.000270619
0.000264457
0.000258563
0.000252919
0.000247511
0.000242325
0.000237347
0.000232568
0.000227975
0.000223559
0.00021931
0.000215218
0.000211275
0.000207473
0.000203803
0.00020026
0.000196835
0.000193523
0.000190319
0.000187218
0.000184215
0.000181306
0.000178487
0.000175754
0.000173103
0.000170532
0.000168035
0.000165611
0.000163255
0.000160965
0.000158737
0.000156568
0.000154456
0.0001524
0.000150395
0.000148442
0.000146538
0.000144681
0.000142871
0.000141106
0.000139384
0.000137704
0.000136064
0.000134463
0.000132898
0.000131368
0.000129872
0.000128408
0.000126974
0.00012557
0.000270619
0.000264457
0.000258562
0.000252918
0.00024751
0.000242323
0.000237346
0.000232566
0.000227974
0.000223558
0.00021931
0.000215219
0.000211276
0.000207475
0.000203806
0.000200264
0.00019684
0.000193529
0.000190327
0.000187227
0.000184225
0.000181317
0.000178498
0.000175766
0.000173116
0.000170545
0.000168048
0.000165624
0.000163267
0.000160976
0.000158747
0.000156577
0.000154464
0.000152406
0.000150401
0.000148446
0.000146541
0.000144683
0.000142872
0.000141105
0.000139381
0.000137699
0.000136056
0.000134451
0.000132882
0.000131347
0.000129846
0.000128376
0.000126937
0.000125527
0.000270619
0.000264456
0.000258561
0.000252915
0.000247505
0.000242316
0.000237336
0.000232554
0.000227958
0.000223539
0.000219287
0.000215192
0.000211247
0.000207442
0.00020377
0.000200225
0.000196799
0.000193486
0.000190282
0.00018718
0.000184177
0.000181269
0.00017845
0.000175717
0.000173067
0.000170495
0.000167998
0.000165573
0.000163216
0.000160924
0.000158695
0.000156524
0.000154411
0.000152353
0.000150349
0.000148395
0.00014649
0.000144633
0.000142822
0.000141055
0.000139331
0.000137648
0.000136004
0.000134398
0.000132827
0.00013129
0.000129786
0.000128313
0.000126871
0.000125457
0.000270619
0.000264456
0.000258559
0.000252913
0.000247502
0.000242315
0.000237337
0.000232557
0.000227964
0.000223548
0.000219299
0.000215207
0.000211264
0.000207462
0.000203793
0.000200249
0.000196825
0.000193513
0.00019031
0.00018721
0.000184207
0.000181299
0.00017848
0.000175748
0.000173097
0.000170524
0.000168026
0.000165599
0.000163241
0.000160947
0.000158715
0.000156542
0.000154427
0.000152367
0.00015036
0.000148404
0.000146497
0.000144638
0.000142825
0.000141055
0.000139329
0.000137642
0.000135994
0.000134383
0.000132807
0.000131265
0.000129754
0.000128275
0.000126826
0.000125405
0.000270619
0.000264452
0.000258549
0.000252893
0.000247472
0.000242272
0.000237282
0.00023249
0.000227886
0.00022346
0.000219202
0.000215102
0.000211152
0.000207344
0.00020367
0.000200123
0.000196696
0.000193382
0.000190178
0.000187077
0.000184075
0.000181167
0.000178349
0.000175617
0.000172967
0.000170396
0.000167899
0.000165474
0.000163116
0.000160823
0.000158593
0.000156422
0.000154308
0.00015225
0.000150245
0.000148291
0.000146386
0.000144529
0.000142718
0.00014095
0.000139224
0.000137539
0.000135891
0.000134279
0.000132703
0.00013116
0.000129648
0.000128168
0.000126717
0.000125294
0.000270619
0.000264451
0.00025855
0.000252901
0.000247489
0.000242299
0.000237319
0.000232535
0.000227938
0.000223517
0.000219261
0.000215164
0.000211214
0.000207405
0.000203729
0.000200179
0.000196748
0.000193431
0.000190222
0.000187117
0.00018411
0.000181197
0.000178374
0.000175637
0.000172982
0.000170406
0.000167904
0.000165473
0.000163111
0.000160813
0.000158577
0.000156402
0.000154284
0.000152222
0.000150213
0.000148255
0.000146348
0.000144488
0.000142674
0.000140903
0.000139175
0.000137486
0.000135836
0.000134223
0.000132644
0.000131099
0.000129588
0.000128108
0.00012666
0.000125243
0.000270619
0.000264406
0.000258451
0.00025275
0.000247291
0.000242062
0.000237049
0.000232241
0.000227626
0.000223192
0.000218929
0.000214827
0.000210876
0.000207069
0.000203397
0.000199852
0.000196429
0.000193122
0.000189923
0.000186829
0.000183834
0.000180934
0.000178125
0.000175402
0.000172762
0.0001702
0.000167713
0.000165298
0.000162951
0.00016067
0.000158451
0.000156293
0.000154193
0.000152149
0.000150159
0.000148222
0.000146335
0.000144497
0.000142706
0.00014096
0.000139258
0.000137598
0.000135979
0.0001344
0.00013286
0.000131359
0.000129899
0.000128479
0.000127104
0.000125779
0.000270628
0.000264436
0.000258521
0.000252858
0.000247439
0.000242257
0.000237306
0.000232571
0.00022804
0.0002237
0.000219539
0.000215546
0.000211712
0.000208025
0.000204479
0.000201064
0.000197774
0.000194601
0.000191541
0.000188586
0.000185732
0.000182974
0.000180307
0.000177728
0.000175232
0.000172815
0.000170473
0.000168203
0.000166001
0.000163865
0.000161792
0.000159779
0.000157826
0.000155929
0.000154088
0.000152301
0.000150567
0.000148885
0.000147253
0.000145672
0.000144139
0.000142655
0.000141221
0.000139836
0.000138503
0.000137225
0.000136008
0.000134862
0.000133802
0.000132866
0.000272579
0.000269225
0.00026601
0.000262924
0.000259951
0.000257076
0.000254282
0.000251565
0.000248921
0.000246348
0.000243842
0.000241401
0.000239023
0.000236705
0.000234445
0.000232242
0.000230094
0.000227998
0.000225954
0.000223959
0.000222013
0.000220114
0.000218261
0.000216451
0.000214684
0.000212958
0.00021127
0.000209621
0.000208008
0.00020643
0.000204887
0.000203378
0.000201901
0.000200456
0.000199041
0.000197656
0.0001963
0.000194971
0.000193668
0.00019239
0.000191134
0.000189901
0.000188688
0.000187494
0.000186318
0.000185157
0.000184011
0.000182876
0.000181751
0.00018063
9.64749e-05
5.26225e-05
5.38792e-05
5.86952e-05
6.34195e-05
6.66499e-05
6.76368e-05
6.61515e-05
6.23641e-05
5.67782e-05
5.02571e-05
4.41098e-05
3.98257e-05
3.80602e-05
3.81413e-05
3.98221e-05
4.38659e-05
5.33931e-05
7.61884e-05
0.000132213
9.67322e-05
5.24676e-05
5.32216e-05
5.78923e-05
6.28385e-05
6.66232e-05
6.83954e-05
6.77991e-05
6.4861e-05
5.99189e-05
5.36378e-05
4.71467e-05
4.20172e-05
3.94008e-05
3.90902e-05
4.07929e-05
4.51005e-05
5.50389e-05
7.8018e-05
0.000133058
9.71365e-05
5.23486e-05
5.25218e-05
5.69594e-05
6.20545e-05
6.63654e-05
6.89504e-05
6.93298e-05
6.73896e-05
6.33048e-05
5.75345e-05
5.09638e-05
4.50907e-05
4.15256e-05
4.06875e-05
4.24393e-05
4.71803e-05
5.78223e-05
8.10435e-05
0.000133733
9.77011e-05
5.22812e-05
5.17937e-05
5.58948e-05
6.10399e-05
6.58194e-05
6.92194e-05
7.06455e-05
6.98494e-05
6.68494e-05
6.19059e-05
5.56269e-05
4.92549e-05
4.46466e-05
4.30747e-05
4.4823e-05
5.00417e-05
6.13594e-05
8.45668e-05
0.000134311
9.84396e-05
5.22835e-05
5.10584e-05
5.47074e-05
5.9771e-05
6.4922e-05
6.91027e-05
7.16168e-05
7.20907e-05
7.03993e-05
6.66223e-05
6.11003e-05
5.47055e-05
4.91708e-05
4.64927e-05
4.80829e-05
5.37173e-05
6.55453e-05
8.84438e-05
0.000134801
9.9359e-05
5.23746e-05
5.03471e-05
5.34218e-05
5.82387e-05
6.36154e-05
6.849e-05
7.20845e-05
7.39143e-05
7.37261e-05
7.14433e-05
6.71791e-05
6.14404e-05
5.55914e-05
5.18916e-05
5.24407e-05
5.82869e-05
7.03421e-05
9.2585e-05
0.000135186
0.000100461
5.25735e-05
4.96992e-05
5.20837e-05
5.64588e-05
6.18583e-05
6.72714e-05
7.1869e-05
7.50734e-05
7.65229e-05
7.60115e-05
7.34629e-05
6.90625e-05
6.3751e-05
5.97814e-05
5.81758e-05
6.3864e-05
7.57634e-05
9.69469e-05
0.000135432
0.000101743
5.28963e-05
4.91589e-05
5.07627e-05
5.44849e-05
5.96454e-05
6.53565e-05
7.07842e-05
7.52855e-05
7.84113e-05
7.98544e-05
7.93817e-05
7.68434e-05
7.24433e-05
6.76419e-05
6.55631e-05
7.05457e-05
8.18151e-05
0.00010149
0.000135495
0.000103193
5.33527e-05
4.87715e-05
4.95524e-05
5.24198e-05
5.70313e-05
6.27067e-05
6.86716e-05
7.42603e-05
7.89651e-05
8.24112e-05
8.42825e-05
8.42553e-05
8.20435e-05
7.80357e-05
7.4794e-05
7.83751e-05
8.84611e-05
0.00010614
0.000135305
0.000104791
5.39427e-05
4.85707e-05
4.85596e-05
5.04225e-05
5.41586e-05
5.93805e-05
6.54549e-05
7.17503e-05
7.77418e-05
8.30232e-05
8.72621e-05
9.01139e-05
9.1145e-05
8.99845e-05
8.73587e-05
8.73206e-05
9.56101e-05
0.000110761
0.000134749
0.000106507
5.46541e-05
4.85689e-05
4.78813e-05
4.86951e-05
5.12765e-05
5.55859e-05
6.1222e-05
6.76582e-05
7.44007e-05
8.10475e-05
8.72835e-05
9.28214e-05
9.7306e-05
0.000100263
0.000101179
9.72228e-05
0.000103069
0.000115112
0.000133631
0.000108308
5.54653e-05
4.8748e-05
4.75718e-05
4.74415e-05
4.87273e-05
5.17167e-05
5.63115e-05
6.21713e-05
6.88903e-05
7.61012e-05
8.35097e-05
9.08719e-05
9.78566e-05
0.000103859
0.000107667
0.000107798
0.00011046
0.000118773
0.000131587
0.000110155
5.63499e-05
4.90639e-05
4.76148e-05
4.67953e-05
4.68723e-05
4.83256e-05
5.13674e-05
5.59083e-05
6.16951e-05
6.84329e-05
7.58633e-05
8.38193e-05
9.21783e-05
0.000100904
0.000109972
0.000119009
0.000117043
0.000120968
0.000127926
0.00011201
5.72796e-05
4.94568e-05
4.79197e-05
4.67458e-05
4.59495e-05
4.59792e-05
4.72502e-05
4.99333e-05
5.39791e-05
5.92066e-05
6.53922e-05
7.23508e-05
7.99143e-05
8.79922e-05
9.65015e-05
0.00010562
0.000116153
0.000119607
0.000121061
0.000113841
5.82303e-05
4.9873e-05
4.83585e-05
4.71231e-05
4.59216e-05
4.49913e-05
4.47376e-05
4.54884e-05
4.7405e-05
5.04757e-05
5.45642e-05
5.94739e-05
6.49688e-05
7.08008e-05
7.66464e-05
8.21029e-05
8.69853e-05
9.3621e-05
0.000108497
0.00011562
5.91824e-05
5.02767e-05
4.88188e-05
4.76861e-05
4.64692e-05
4.51847e-05
4.40641e-05
4.33915e-05
4.34401e-05
4.43841e-05
4.62706e-05
4.9029e-05
5.25636e-05
5.67361e-05
6.14337e-05
6.65723e-05
7.19005e-05
7.64795e-05
7.50339e-05
0.00011733
6.01248e-05
5.0656e-05
4.92386e-05
4.82444e-05
4.71934e-05
4.59857e-05
4.46933e-05
4.34346e-05
4.24231e-05
4.18955e-05
4.20717e-05
4.30886e-05
4.51024e-05
4.82479e-05
5.27588e-05
5.90739e-05
6.78379e-05
8.0128e-05
9.53377e-05
0.000118953
6.1045e-05
5.10127e-05
4.96055e-05
4.87178e-05
4.78423e-05
4.68465e-05
4.57451e-05
4.45344e-05
4.33087e-05
4.22089e-05
4.14546e-05
4.13013e-05
4.20539e-05
4.40659e-05
4.77842e-05
5.38726e-05
6.32966e-05
7.80306e-05
0.000104135
0.000120483
6.19357e-05
5.13505e-05
4.99282e-05
4.9105e-05
4.83526e-05
4.75264e-05
4.66527e-05
4.56848e-05
4.46546e-05
4.35978e-05
4.26098e-05
4.19199e-05
4.18004e-05
4.27157e-05
4.52889e-05
5.04191e-05
5.95127e-05
7.503e-05
0.000106158
0.000121917
6.27956e-05
5.16778e-05
5.02218e-05
4.94309e-05
4.87536e-05
4.80223e-05
4.72956e-05
4.65182e-05
4.57097e-05
4.48616e-05
4.3976e-05
4.3187e-05
4.26522e-05
4.28048e-05
4.43338e-05
4.84299e-05
5.70591e-05
7.33452e-05
0.000107073
0.00012325
6.36177e-05
5.2e-05
5.05022e-05
4.97233e-05
4.90906e-05
4.84021e-05
4.77518e-05
4.70739e-05
4.64021e-05
4.57043e-05
4.49791e-05
4.42549e-05
4.36073e-05
4.33583e-05
4.41055e-05
4.72311e-05
5.5175e-05
7.18979e-05
0.000107719
0.000124483
6.43918e-05
5.23116e-05
5.07742e-05
4.99986e-05
4.93956e-05
4.87263e-05
4.81137e-05
4.74782e-05
4.6876e-05
4.62473e-05
4.56344e-05
4.49917e-05
4.43602e-05
4.394e-05
4.41783e-05
4.64745e-05
5.35806e-05
7.03893e-05
0.000108287
0.000125629
6.51226e-05
5.26129e-05
5.10371e-05
5.02593e-05
4.96773e-05
4.90248e-05
4.84297e-05
4.7817e-05
4.7245e-05
4.66492e-05
4.60852e-05
4.54975e-05
4.49106e-05
4.44332e-05
4.43754e-05
4.60255e-05
5.22747e-05
6.89672e-05
0.000108803
0.000126683
6.58133e-05
5.29121e-05
5.1297e-05
5.05139e-05