/*--------------------------------*- C++ -*----------------------------------*\
  =========                 |
  \\      /  F ield         | OpenFOAM: The Open Source CFD Toolbox
   \\    /   O peration     | Website:  https://openfoam.org
    \\  /    A nd           | Version:  8
     \\/     M anipulation  |
\*---------------------------------------------------------------------------*/
FoamFile
{
    version     2.0;
    format      ascii;
    class       volScalarField;
    location    "700";
    object      p_rgh;
}
// * * * * * * * * * * * * * * * * * * * * * * * * * * * * * * * * * * * * * //

dimensions      [1 -1 -2 0 0 0 0];

internalField   nonuniform List<scalar> 
8400
(
20107.4
45532.4
71227.1
95917.9
119512
141888
162989
182810
201394
218837
235231
250694
265333
279257
292561
305340
317698
329729
341532
353193
364785
376386
388070
399903
411949
424283
436989
450161
463911
478372
493693
510040
527609
546632
567379
590156
615311
643230
674341
709124
748102
791840
840960
896133
958006
1.02699e+06
1.10324e+06
1.18766e+06
1.2837e+06
1.39388e+06
20117
45609
71499.7
96384.7
120137
142622
163781
183625
202201
219612
235963
251370
265945
279793
293016
305716
317997
329959
341692
353284
364805
376325
387918
399647
411580
423789
436352
449358
462918
477161
492228
508278
525505
544140
564446
586725
611310
638574
668932
702846
740818
783387
831147
884728
944718
1.01149e+06
1.08514e+06
1.16611e+06
1.25666e+06
1.3593e+06
20326
46322.2
72702.6
97990.8
122038
144710
165961
185819
204363
221697
237945
253226
267663
281367
294450
307021
319184
331038
342674
354167
365586
376999
388478
400090
411897
423965
436369
449197
462554
476560
491348
507076
523930
542133
561946
583658
607588
634102
663613
696566
733453
774803
821205
873272
931598
996637
1.06855e+06
1.14753e+06
1.23512e+06
1.33347e+06
20232.1
47079.7
74190
100034
124444
147298
168593
188377
206768
223895
239895
254909
269070
282498
295316
307634
319560
331187
342600
353869
365055
376227
387454
398799
410323
422086
434157
446620
459565
473098
487345
502453
518599
535991
554868
575502
598199
623307
651220
682364
717207
756269
800115
849349
904589
966378
1.03498e+06
1.11058e+06
1.1945e+06
1.2891e+06
20460.3
48747.1
76904.3
103475
128313
151345
172624
192259
210407
227234
242901
257566
271377
284469
296968
308990
320645
332017
343180
354203
365150
376087
387077
398180
409454
420954
432743
444893
457485
470612
484388
498946
514451
531090
549083
568683
590182
613904
640213
669505
702228
738879
779995
826162
878022
936163
1.00093e+06
1.07257e+06
1.15226e+06
1.24244e+06
20463.4
50460.8
79839.6
107209
132459
155608
176787
196182
214002
230447
245707
259957
273360
286059
298185
309852
321165
332212
343061
353777
364425
375071
385771
396581
407555
418742
430196
441977
454159
466822
480064
494005
508790
524594
541617
560093
580291
602510
627075
654351
684764
718784
756930
799794
848039
902319
963112
1.03077e+06
1.10637e+06
1.19222e+06
20854.9
52890.2
83570
111670
137199
160314
181264
200323
217751
233783
248635
262495
275531
287892
299710
311099
322157
332966
343600
354122
364597
375084
385635
396292
407099
418097
429334
440860
452734
465027
477824
491232
505383
520440
536590
554043
573045
593857
616767
642109
670265
701674
736844
776368
820912
871194
927843
991397
1.06283e+06
1.14418e+06
21624.7
55894.5
87814.8
116446
142016
164875
185407
203975
220887
236413
250779
264185
276805
288794
300274
311352
322127
332683
343095
353429
363746
374096
384516
395037
405692
416520
427562
438857
450453
462419
474834
487799
501438
515901
531363
548018
566079
585772
607353
631113
657392
686587
719182
755758
797000
843677
896548
956331
1.024e+06
1.1012e+06
22405.6
58952.9
91985.4
120979
146458
169005
189132
207263
223741
238853
252836
265899
278215
289932
301170
312029
322607
332988
343250
353459
363666
373911
384218
394606
405099
415733
426548
437572
448848
460446
472445
484946
498066
511947
526757
542673
559885
578598
599043
621482
646212
673599
704102
738286
776830
820536
870294
926985
991600
1.06549e+06
23533.4
62035.4
95336.7
124231
149399
171605
191418
209278
225531
240457
254287
267224
279442
291080
302237
313010
323504
333817
344025
354192
364365
374578
384844
395171
405582
416114
426797
437646
448699
460028
471719
483868
496590
510024
524329
539670
556220
574176
593760
615214
638813
664896
693890
726349
762957
804539
852055
906522
968999
1.04065e+06
23087
62670.4
95837.9
124572
149612
171710
191436
209231
225436
240327
254133
267050
279249
290874
302036
312822
323327
333644
343854
354020
364191
374401
384667
394998
405419
415969
426686
437593
448715
460110
471860
484059
496824
510291
524614
539955
556486
574397
593900
615220
638610
664381
692911
724703
760415
800885
847095
900148
961206
1.03143e+06
20121.4
60184.4
94326.5
123306
148490
170715
190536
208394
224640
239559
253386
266320
278532
290164
301329
312116
322619
332931
343130
353283
363441
373639
383898
394239
404693
415290
426064
437067
448340
459933
471913
484367
497407
511153
525749
541351
558130
576269
595973
617470
641004
666858
695379
727085
762644
802879
848802
901557
962377
1.03246e+06
10828.3
52417.1
89518.5
119686
145387
168101
188390
206621
223159
238328
252381
265528
277940
289752
301072
311984
322568
332904
343065
353113
363114
373129
383221
393456
403908
414649
425734
437223
449157
461572
474506
488008
502139
516967
532586
549113
566678
585436
605569
627299
650877
676617
704923
736360
771643
811627
857380
910063
970949
1.04128e+06
-825.621
39802.8
78978
110289
136308
159237
179785
198225
214908
230205
244418
257785
270483
282641
294344
305646
316585
327200
337529
347617
357541
367401
377322
387448
397932
408920
420526
432843
445924
459790
474433
489822
505925
522718
540204
558419
577430
597345
618326
640591
664420
690165
718318
749464
784399
824042
869539
922112
983135
1.05389e+06
313.236
36509.4
77833.9
111437
138503
161951
182831
201406
218046
233201
247255
260512
273198
285460
297367
308934
320138
330949
341351
351355
361024
370485
379932
389608
399774
410682
422545
435523
449705
465110
481673
499258
517700
536841
556550
576736
597363
618485
640222
662774
686447
711611
738827
768740
802223
840348
884370
935691
995870
1.06637e+06
-30070
9456.88
54315
89728.8
117702
141873
163410
182495
199502
214958
229332
243004
256260
269279
282111
294711
306990
318848
330206
341016
351300
361189
370944
380926
391538
403167
416145
430732
447091
465254
485102
506361
528682
551700
575067
598501
621824
644990
668053
691184
714679
738927
764507
792155
822831
857797
898498
946622
1.00403e+06
1.07254e+06
-5345.7
25099.2
71279.7
108262
135980
159133
179284
196651
211663
224970
237184
248833
260329
271893
283546
295199
306718
317960
328785
339081
348822
358151
367417
377140
387911
400283
414735
431672
451376
473933
499129
526470
555305
584938
614673
643885
672120
699135
724850
749370
772910
795816
818599
841959
866916
894822
927349
966564
1.01495e+06
1.07516e+06
-73946.4
-23570.9
34400.6
77796.7
110694
137770
160560
179561
195402
208859
220763
231950
243028
254156
265198
276000
286490
296587
306093
314773
322559
329701
336819
344795
354534
366796
382275
401704
425782
454790
488333
525512
565254
606433
647784
688097
726579
762833
796595
827762
856431
882820
907240
930106
952157
974389
998100
1.02516e+06
1.0585e+06
1.102e+06
-12663
9993.67
50739.9
92109.3
127236
155696
178642
197147
212075
224083
234053
243400
253229
263379
273058
281767
289552
296667
302907
307709
310694
312124
313138
315480
320629
329399
342453
360876
386271
419653
460318
506466
556325
608424
660878
711524
759089
803443
844532
881953
915829
946294
973266
997112
1.01856e+06
1.03837e+06
1.05696e+06
1.07497e+06
1.09444e+06
1.11857e+06
6673.12
24121.6
55755.2
94753
130389
159380
182384
200682
215551
227905
238176
247368
256855
266999
276915
285741
293204
299582
305065
309243
311601
312065
311522
311834
315259
323408
336960
356658
383872
419948
464544
515362
569820
625911
681768
735162
784455
829463
870696
908214
941965
972284
998934
1.02176e+06
1.04132e+06
1.05875e+06
1.07542e+06
1.09233e+06
1.11112e+06
1.13393e+06
2.79732e+06
2.79681e+06
2.79656e+06
2.79646e+06
2.79641e+06
2.79637e+06
2.79634e+06
2.79633e+06
2.79632e+06
2.79631e+06
2.79631e+06
2.7963e+06
2.7963e+06
2.7963e+06
2.7963e+06
2.79629e+06
2.79629e+06
2.79628e+06
2.79628e+06
2.79627e+06
2.79627e+06
2.79626e+06
2.79626e+06
2.79626e+06
2.79626e+06
2.79626e+06
2.79626e+06
2.79626e+06
2.79626e+06
2.79626e+06
2.79625e+06
2.79625e+06
2.79624e+06
2.79623e+06
2.79622e+06
2.7962e+06
2.79619e+06
2.79618e+06
2.79616e+06
2.79615e+06
2.79613e+06
2.79611e+06
2.79609e+06
2.79606e+06
2.79602e+06
2.79598e+06
2.79593e+06
2.79586e+06
2.79578e+06
2.79568e+06
2.79572e+06
2.79601e+06
2.7961e+06
2.79614e+06
2.79616e+06
2.79618e+06
2.7962e+06
2.79621e+06
2.79622e+06
2.79623e+06
2.79624e+06
2.79624e+06
2.79625e+06
2.79625e+06
2.79625e+06
2.79625e+06
2.79625e+06
2.79625e+06
2.79625e+06
2.79625e+06
2.79624e+06
2.79624e+06
2.79624e+06
2.79624e+06
2.79624e+06
2.79625e+06
2.79625e+06
2.79625e+06
2.79625e+06
2.79625e+06
2.79624e+06
2.79624e+06
2.79623e+06
2.79622e+06
2.79621e+06
2.79619e+06
2.79618e+06
2.79617e+06
2.79616e+06
2.79614e+06
2.79613e+06
2.79611e+06
2.79608e+06
2.79606e+06
2.79602e+06
2.79598e+06
2.79593e+06
2.79587e+06
2.7958e+06
2.79571e+06
2.79618e+06
2.79631e+06
2.79639e+06
2.79639e+06
2.79638e+06
2.79637e+06
2.79636e+06
2.79635e+06
2.79634e+06
2.79634e+06
2.79633e+06
2.79633e+06
2.79632e+06
2.79632e+06
2.79631e+06
2.79631e+06
2.7963e+06
2.7963e+06
2.79629e+06
2.79628e+06
2.79628e+06
2.79628e+06
2.79627e+06
2.79627e+06
2.79627e+06
2.79627e+06
2.79627e+06
2.79627e+06
2.79627e+06
2.79627e+06
2.79626e+06
2.79625e+06
2.79624e+06
2.79623e+06
2.79622e+06
2.79621e+06
2.7962e+06
2.79619e+06
2.79617e+06
2.79616e+06
2.79614e+06
2.79613e+06
2.7961e+06
2.79608e+06
2.79605e+06
2.79601e+06
2.79597e+06
2.79591e+06
2.79585e+06
2.79578e+06
2.7962e+06
2.79623e+06
2.79624e+06
2.79623e+06
2.79623e+06
2.79622e+06
2.79622e+06
2.79623e+06
2.79623e+06
2.79623e+06
2.79624e+06
2.79624e+06
2.79624e+06
2.79625e+06
2.79625e+06
2.79625e+06
2.79625e+06
2.79625e+06
2.79624e+06
2.79624e+06
2.79624e+06
2.79624e+06
2.79624e+06
2.79624e+06
2.79624e+06
2.79624e+06
2.79625e+06
2.79625e+06
2.79625e+06
2.79625e+06
2.79624e+06
2.79624e+06
2.79623e+06
2.79622e+06
2.79621e+06
2.7962e+06
2.79619e+06
2.79618e+06
2.79617e+06
2.79615e+06
2.79614e+06
2.79613e+06
2.79611e+06
2.79608e+06
2.79606e+06
2.79602e+06
2.79598e+06
2.79594e+06
2.79589e+06
2.79583e+06
2.79623e+06
2.79625e+06
2.79627e+06
2.79628e+06
2.79629e+06
2.7963e+06
2.7963e+06
2.7963e+06
2.79631e+06
2.79631e+06
2.79631e+06
2.79631e+06
2.79631e+06
2.79631e+06
2.79631e+06
2.7963e+06
2.7963e+06
2.79629e+06
2.79629e+06
2.79629e+06
2.79628e+06
2.79628e+06
2.79628e+06
2.79628e+06
2.79628e+06
2.79628e+06
2.79628e+06
2.79628e+06
2.79627e+06
2.79627e+06
2.79627e+06
2.79626e+06
2.79625e+06
2.79624e+06
2.79623e+06
2.79622e+06
2.79621e+06
2.7962e+06
2.79619e+06
2.79618e+06
2.79617e+06
2.79615e+06
2.79614e+06
2.79612e+06
2.79609e+06
2.79606e+06
2.79603e+06
2.79599e+06
2.79595e+06
2.79591e+06
2.79625e+06
2.79625e+06
2.79626e+06
2.79626e+06
2.79626e+06
2.79626e+06
2.79626e+06
2.79626e+06
2.79626e+06
2.79626e+06
2.79626e+06
2.79626e+06
2.79626e+06
2.79626e+06
2.79626e+06
2.79626e+06
2.79626e+06
2.79625e+06
2.79625e+06
2.79625e+06
2.79625e+06
2.79625e+06
2.79625e+06
2.79625e+06
2.79625e+06
2.79625e+06
2.79625e+06
2.79625e+06
2.79625e+06
2.79625e+06
2.79625e+06
2.79624e+06
2.79623e+06
2.79622e+06
2.79622e+06
2.79621e+06
2.7962e+06
2.79619e+06
2.79619e+06
2.79618e+06
2.79617e+06
2.79616e+06
2.79614e+06
2.79613e+06
2.79611e+06
2.79609e+06
2.79606e+06
2.79603e+06
2.796e+06
2.79597e+06
2.79625e+06
2.79626e+06
2.79626e+06
2.79626e+06
2.79627e+06
2.79627e+06
2.79627e+06
2.79628e+06
2.79628e+06
2.79628e+06
2.79629e+06
2.79629e+06
2.79629e+06
2.79629e+06
2.79629e+06
2.79629e+06
2.79629e+06
2.79628e+06
2.79628e+06
2.79628e+06
2.79628e+06
2.79628e+06
2.79627e+06
2.79627e+06
2.79628e+06
2.79628e+06
2.79628e+06
2.79628e+06
2.79627e+06
2.79627e+06
2.79627e+06
2.79626e+06
2.79625e+06
2.79625e+06
2.79624e+06
2.79623e+06
2.79623e+06
2.79622e+06
2.79621e+06
2.79621e+06
2.7962e+06
2.79619e+06
2.79618e+06
2.79617e+06
2.79615e+06
2.79613e+06
2.79611e+06
2.79609e+06
2.79607e+06
2.79604e+06
2.79626e+06
2.79626e+06
2.79626e+06
2.79626e+06
2.79626e+06
2.79626e+06
2.79627e+06
2.79627e+06
2.79627e+06
2.79627e+06
2.79627e+06
2.79627e+06
2.79627e+06
2.79627e+06
2.79627e+06
2.79627e+06
2.79627e+06
2.79626e+06
2.79626e+06
2.79626e+06
2.79626e+06
2.79626e+06
2.79626e+06
2.79626e+06
2.79626e+06
2.79626e+06
2.79626e+06
2.79626e+06
2.79626e+06
2.79626e+06
2.79625e+06
2.79625e+06
2.79624e+06
2.79624e+06
2.79623e+06
2.79623e+06
2.79622e+06
2.79622e+06
2.79622e+06
2.79621e+06
2.79621e+06
2.7962e+06
2.79619e+06
2.79618e+06
2.79617e+06
2.79616e+06
2.79615e+06
2.79613e+06
2.79612e+06
2.7961e+06
2.79626e+06
2.79626e+06
2.79626e+06
2.79626e+06
2.79626e+06
2.79627e+06
2.79627e+06
2.79627e+06
2.79627e+06
2.79627e+06
2.79628e+06
2.79628e+06
2.79628e+06
2.79628e+06
2.79628e+06
2.79628e+06
2.79628e+06
2.79628e+06
2.79628e+06
2.79627e+06
2.79627e+06
2.79627e+06
2.79627e+06
2.79627e+06
2.79627e+06
2.79627e+06
2.79627e+06
2.79627e+06
2.79627e+06
2.79627e+06
2.79627e+06
2.79626e+06
2.79626e+06
2.79625e+06
2.79625e+06
2.79625e+06
2.79624e+06
2.79624e+06
2.79624e+06
2.79624e+06
2.79623e+06
2.79623e+06
2.79623e+06
2.79622e+06
2.79621e+06
2.7962e+06
2.7962e+06
2.79619e+06
2.79618e+06
2.79617e+06
2.79626e+06
2.79626e+06
2.79626e+06
2.79626e+06
2.79626e+06
2.79626e+06
2.79627e+06
2.79627e+06
2.79627e+06
2.79627e+06
2.79627e+06
2.79628e+06
2.79628e+06
2.79628e+06
2.79628e+06
2.79628e+06
2.79627e+06
2.79627e+06
2.79627e+06
2.79627e+06
2.79627e+06
2.79627e+06
2.79627e+06
2.79627e+06
2.79627e+06
2.79627e+06
2.79627e+06
2.79627e+06
2.79627e+06
2.79627e+06
2.79626e+06
2.79626e+06
2.79626e+06
2.79626e+06
2.79625e+06
2.79625e+06
2.79625e+06
2.79625e+06
2.79625e+06
2.79625e+06
2.79625e+06
2.79625e+06
2.79625e+06
2.79624e+06
2.79624e+06
2.79624e+06
2.79624e+06
2.79623e+06
2.79623e+06
2.79623e+06
2.79626e+06
2.79626e+06
2.79626e+06
2.79626e+06
2.79626e+06
2.79626e+06
2.79627e+06
2.79627e+06
2.79627e+06
2.79627e+06
2.79627e+06
2.79628e+06
2.79628e+06
2.79628e+06
2.79628e+06
2.79628e+06
2.79627e+06
2.79627e+06
2.79627e+06
2.79627e+06
2.79627e+06
2.79627e+06
2.79627e+06
2.79627e+06
2.79627e+06
2.79627e+06
2.79627e+06
2.79627e+06
2.79627e+06
2.79627e+06
2.79627e+06
2.79627e+06
2.79626e+06
2.79626e+06
2.79626e+06
2.79626e+06
2.79626e+06
2.79626e+06
2.79627e+06
2.79627e+06
2.79627e+06
2.79627e+06
2.79627e+06
2.79627e+06
2.79627e+06
2.79628e+06
2.79628e+06
2.79628e+06
2.79629e+06
2.7963e+06
2.79626e+06
2.79626e+06
2.79626e+06
2.79626e+06
2.79626e+06
2.79626e+06
2.79627e+06
2.79627e+06
2.79627e+06
2.79627e+06
2.79628e+06
2.79628e+06
2.79628e+06
2.79628e+06
2.79628e+06
2.79628e+06
2.79628e+06
2.79628e+06
2.79628e+06
2.79628e+06
2.79628e+06
2.79628e+06
2.79628e+06
2.79628e+06
2.79628e+06
2.79628e+06
2.79628e+06
2.79628e+06
2.79628e+06
2.79628e+06
2.79628e+06
2.79628e+06
2.79628e+06
2.79628e+06
2.79628e+06
2.79628e+06
2.79628e+06
2.79628e+06
2.79628e+06
2.79629e+06
2.79629e+06
2.79629e+06
2.7963e+06
2.7963e+06
2.79631e+06
2.79631e+06
2.79632e+06
2.79633e+06
2.79635e+06
2.79636e+06
2.79626e+06
2.79626e+06
2.79626e+06
2.79626e+06
2.79626e+06
2.79626e+06
2.79627e+06
2.79627e+06
2.79627e+06
2.79627e+06
2.79627e+06
2.79627e+06
2.79627e+06
2.79627e+06
2.79627e+06
2.79627e+06
2.79627e+06
2.79627e+06
2.79627e+06
2.79627e+06
2.79627e+06
2.79627e+06
2.79627e+06
2.79627e+06
2.79627e+06
2.79627e+06
2.79627e+06
2.79627e+06
2.79627e+06
2.79627e+06
2.79627e+06
2.79627e+06
2.79627e+06
2.79627e+06
2.79628e+06
2.79628e+06
2.79628e+06
2.79629e+06
2.79629e+06
2.7963e+06
2.7963e+06
2.79631e+06
2.79631e+06
2.79632e+06
2.79633e+06
2.79634e+06
2.79636e+06
2.79638e+06
2.79639e+06
2.79642e+06
2.79625e+06
2.79625e+06
2.79626e+06
2.79626e+06
2.79627e+06
2.79627e+06
2.79627e+06
2.79628e+06
2.79628e+06
2.79628e+06
2.79628e+06
2.79629e+06
2.79629e+06
2.79629e+06
2.79629e+06
2.79629e+06
2.79629e+06
2.79629e+06
2.79629e+06
2.79629e+06
2.79629e+06
2.79629e+06
2.79629e+06
2.79629e+06
2.79629e+06
2.79629e+06
2.79629e+06
2.79629e+06
2.79629e+06
2.79629e+06
2.79629e+06
2.79629e+06
2.79629e+06
2.79629e+06
2.7963e+06
2.7963e+06
2.79631e+06
2.79631e+06
2.79632e+06
2.79632e+06
2.79633e+06
2.79633e+06
2.79634e+06
2.79635e+06
2.79637e+06
2.79639e+06
2.7964e+06
2.79643e+06
2.79645e+06
2.79648e+06
2.79624e+06
2.79625e+06
2.79626e+06
2.79626e+06
2.79626e+06
2.79626e+06
2.79626e+06
2.79626e+06
2.79626e+06
2.79626e+06
2.79626e+06
2.79626e+06
2.79626e+06
2.79626e+06
2.79626e+06
2.79626e+06
2.79626e+06
2.79626e+06
2.79626e+06
2.79626e+06
2.79626e+06
2.79626e+06
2.79626e+06
2.79626e+06
2.79626e+06
2.79626e+06
2.79626e+06
2.79626e+06
2.79627e+06
2.79627e+06
2.79627e+06
2.79628e+06
2.79628e+06
2.79628e+06
2.79629e+06
2.79629e+06
2.7963e+06
2.79631e+06
2.79631e+06
2.79632e+06
2.79633e+06
2.79634e+06
2.79635e+06
2.79637e+06
2.79638e+06
2.79641e+06
2.79643e+06
2.79646e+06
2.7965e+06
2.79653e+06
2.79623e+06
2.79625e+06
2.79627e+06
2.79628e+06
2.79629e+06
2.7963e+06
2.7963e+06
2.7963e+06
2.79631e+06
2.79631e+06
2.79631e+06
2.79631e+06
2.79631e+06
2.79631e+06
2.79631e+06
2.7963e+06
2.7963e+06
2.7963e+06
2.7963e+06
2.7963e+06
2.7963e+06
2.7963e+06
2.7963e+06
2.79629e+06
2.79629e+06
2.79629e+06
2.79629e+06
2.79629e+06
2.79629e+06
2.79629e+06
2.7963e+06
2.7963e+06
2.79631e+06
2.79631e+06
2.79631e+06
2.79632e+06
2.79633e+06
2.79633e+06
2.79634e+06
2.79635e+06
2.79636e+06
2.79637e+06
2.79638e+06
2.7964e+06
2.79642e+06
2.79645e+06
2.79648e+06
2.79651e+06
2.79655e+06
2.7966e+06
2.7962e+06
2.79622e+06
2.79624e+06
2.79623e+06
2.79622e+06
2.79622e+06
2.79622e+06
2.79622e+06
2.79623e+06
2.79623e+06
2.79623e+06
2.79624e+06
2.79624e+06
2.79624e+06
2.79625e+06
2.79625e+06
2.79625e+06
2.79625e+06
2.79626e+06
2.79626e+06
2.79626e+06
2.79626e+06
2.79626e+06
2.79626e+06
2.79626e+06
2.79626e+06
2.79626e+06
2.79626e+06
2.79627e+06
2.79627e+06
2.79628e+06
2.79628e+06
2.79629e+06
2.7963e+06
2.7963e+06
2.79631e+06
2.79632e+06
2.79632e+06
2.79633e+06
2.79634e+06
2.79635e+06
2.79636e+06
2.79638e+06
2.7964e+06
2.79643e+06
2.79646e+06
2.79649e+06
2.79654e+06
2.79659e+06
2.79664e+06
2.79618e+06
2.79631e+06
2.79639e+06
2.79639e+06
2.79638e+06
2.79637e+06
2.79636e+06
2.79635e+06
2.79634e+06
2.79634e+06
2.79633e+06
2.79632e+06
2.79632e+06
2.79632e+06
2.79631e+06
2.79631e+06
2.79631e+06
2.79631e+06
2.7963e+06
2.7963e+06
2.7963e+06
2.7963e+06
2.7963e+06
2.79629e+06
2.79629e+06
2.79629e+06
2.79629e+06
2.79629e+06
2.79629e+06
2.7963e+06
2.7963e+06
2.79631e+06
2.79631e+06
2.79632e+06
2.79632e+06
2.79633e+06
2.79634e+06
2.79634e+06
2.79635e+06
2.79636e+06
2.79637e+06
2.79639e+06
2.7964e+06
2.79643e+06
2.79646e+06
2.79649e+06
2.79653e+06
2.79658e+06
2.79663e+06
2.7967e+06
2.79572e+06
2.79601e+06
2.7961e+06
2.79614e+06
2.79616e+06
2.79618e+06
2.7962e+06
2.79621e+06
2.79622e+06
2.79623e+06
2.79623e+06
2.79624e+06
2.79624e+06
2.79625e+06
2.79625e+06
2.79626e+06
2.79626e+06
2.79626e+06
2.79626e+06
2.79626e+06
2.79626e+06
2.79627e+06
2.79627e+06
2.79627e+06
2.79627e+06
2.79627e+06
2.79627e+06
2.79627e+06
2.79627e+06
2.79628e+06
2.79629e+06
2.79629e+06
2.7963e+06
2.7963e+06
2.79631e+06
2.79632e+06
2.79633e+06
2.79633e+06
2.79634e+06
2.79635e+06
2.79637e+06
2.79638e+06
2.7964e+06
2.79643e+06
2.79646e+06
2.79649e+06
2.79654e+06
2.79659e+06
2.79666e+06
2.79673e+06
2.79732e+06
2.79681e+06
2.79655e+06
2.79646e+06
2.79641e+06
2.79637e+06
2.79634e+06
2.79633e+06
2.79632e+06
2.79631e+06
2.7963e+06
2.7963e+06
2.7963e+06
2.7963e+06
2.7963e+06
2.79629e+06
2.79629e+06
2.79629e+06
2.79629e+06
2.79629e+06
2.79629e+06
2.79629e+06
2.79629e+06
2.79628e+06
2.79628e+06
2.79628e+06
2.79628e+06
2.79629e+06
2.79629e+06
2.79629e+06
2.7963e+06
2.7963e+06
2.79631e+06
2.79632e+06
2.79632e+06
2.79633e+06
2.79634e+06
2.79634e+06
2.79635e+06
2.79636e+06
2.79638e+06
2.79639e+06
2.79641e+06
2.79644e+06
2.79647e+06
2.79651e+06
2.79656e+06
2.79661e+06
2.79668e+06
2.79677e+06
2.75691e+06
2.75863e+06
2.7589e+06
2.75966e+06
2.75985e+06
2.76006e+06
2.76006e+06
2.76001e+06
2.75989e+06
2.75977e+06
2.75968e+06
2.75964e+06
2.75968e+06
2.75983e+06
2.76011e+06
2.76065e+06
2.76103e+06
2.76204e+06
2.76211e+06
2.76336e+06
2.75966e+06
2.76125e+06
2.76148e+06
2.76214e+06
2.76227e+06
2.7624e+06
2.76233e+06
2.76221e+06
2.76204e+06
2.76187e+06
2.76176e+06
2.76171e+06
2.76177e+06
2.76195e+06
2.76227e+06
2.76283e+06
2.76325e+06
2.76426e+06
2.76436e+06
2.76562e+06
2.76245e+06
2.7639e+06
2.7641e+06
2.76467e+06
2.76475e+06
2.76482e+06
2.7647e+06
2.76453e+06
2.76431e+06
2.76412e+06
2.76399e+06
2.76395e+06
2.76401e+06
2.76422e+06
2.76459e+06
2.7652e+06
2.76571e+06
2.76677e+06
2.76696e+06
2.76824e+06
2.76523e+06
2.76655e+06
2.76673e+06
2.76723e+06
2.76728e+06
2.76731e+06
2.76715e+06
2.76695e+06
2.76671e+06
2.7665e+06
2.76636e+06
2.76634e+06
2.76643e+06
2.76666e+06
2.76709e+06
2.76774e+06
2.76835e+06
2.76947e+06
2.76975e+06
2.77103e+06
2.76798e+06
2.76919e+06
2.76935e+06
2.7698e+06
2.76984e+06
2.76984e+06
2.76967e+06
2.76946e+06
2.76921e+06
2.769e+06
2.76887e+06
2.76887e+06
2.769e+06
2.76928e+06
2.76975e+06
2.77041e+06
2.77107e+06
2.7722e+06
2.77252e+06
2.77377e+06
2.77067e+06
2.77178e+06
2.77194e+06
2.77235e+06
2.77239e+06
2.77239e+06
2.77224e+06
2.77203e+06
2.7718e+06
2.77161e+06
2.7715e+06
2.77153e+06
2.7717e+06
2.77203e+06
2.77255e+06
2.77322e+06
2.77395e+06
2.77507e+06
2.77544e+06
2.77664e+06
2.77327e+06
2.77429e+06
2.77445e+06
2.77485e+06
2.77491e+06
2.77494e+06
2.77481e+06
2.77464e+06
2.77445e+06
2.7743e+06
2.77423e+06
2.77429e+06
2.77452e+06
2.7749e+06
2.77546e+06
2.77617e+06
2.77697e+06
2.7781e+06
2.77853e+06
2.77967e+06
2.77575e+06
2.77669e+06
2.77686e+06
2.77727e+06
2.77736e+06
2.77743e+06
2.77737e+06
2.77726e+06
2.77713e+06
2.77703e+06
2.77701e+06
2.77713e+06
2.77741e+06
2.77785e+06
2.77847e+06
2.77923e+06
2.78011e+06
2.78126e+06
2.78175e+06
2.78281e+06
2.77809e+06
2.77895e+06
2.77915e+06
2.77956e+06
2.77971e+06
2.77983e+06
2.77985e+06
2.77982e+06
2.77978e+06
2.77976e+06
2.77982e+06
2.78001e+06
2.78036e+06
2.78088e+06
2.78155e+06
2.78238e+06
2.78333e+06
2.78449e+06
2.78504e+06
2.78601e+06
2.78025e+06
2.78106e+06
2.78127e+06
2.7817e+06
2.78191e+06
2.78211e+06
2.78222e+06
2.78229e+06
2.78235e+06
2.78244e+06
2.78259e+06
2.78287e+06
2.78331e+06
2.78393e+06
2.78469e+06
2.78559e+06
2.78658e+06
2.78774e+06
2.78833e+06
2.78917e+06
2.78223e+06
2.78298e+06
2.78322e+06
2.78367e+06
2.78394e+06
2.78422e+06
2.78442e+06
2.78461e+06
2.78478e+06
2.78499e+06
2.78525e+06
2.78563e+06
2.78617e+06
2.78691e+06
2.7878e+06
2.78876e+06
2.78978e+06
2.79091e+06
2.7915e+06
2.7922e+06
2.78401e+06
2.78472e+06
2.78497e+06
2.78545e+06
2.78577e+06
2.78612e+06
2.78642e+06
2.78671e+06
2.78701e+06
2.78734e+06
2.78772e+06
2.7882e+06
2.78883e+06
2.78968e+06
2.7907e+06
2.79176e+06
2.79281e+06
2.79388e+06
2.79443e+06
2.79495e+06
2.78559e+06
2.78626e+06
2.78652e+06
2.78702e+06
2.78739e+06
2.7878e+06
2.78818e+06
2.78857e+06
2.78898e+06
2.78942e+06
2.78991e+06
2.79048e+06
2.79117e+06
2.79208e+06
2.79321e+06
2.79441e+06
2.79552e+06
2.79648e+06
2.79695e+06
2.79727e+06
2.78698e+06
2.78761e+06
2.78789e+06
2.78839e+06
2.78879e+06
2.78925e+06
2.78969e+06
2.79016e+06
2.79065e+06
2.79117e+06
2.79175e+06
2.79239e+06
2.79311e+06
2.794e+06
2.79513e+06
2.79644e+06
2.79765e+06
2.79855e+06
2.79891e+06
2.79903e+06
2.78819e+06
2.78879e+06
2.78906e+06
2.78957e+06
2.78999e+06
2.79048e+06
2.79096e+06
2.79147e+06
2.79201e+06
2.79259e+06
2.79322e+06
2.7939e+06
2.79463e+06
2.79543e+06
2.79641e+06
2.79763e+06
2.7989e+06
2.79985e+06
2.80018e+06
2.80016e+06
2.78924e+06
2.7898e+06
2.79007e+06
2.79058e+06
2.791e+06
2.7915e+06
2.79199e+06
2.79253e+06
2.79309e+06
2.79369e+06
2.79434e+06
2.79503e+06
2.79574e+06
2.79645e+06
2.79723e+06
2.79817e+06
2.79928e+06
2.80027e+06
2.8007e+06
2.80068e+06
2.79013e+06
2.79067e+06
2.79093e+06
2.79143e+06
2.79184e+06
2.79234e+06
2.79283e+06
2.79337e+06
2.79393e+06
2.79452e+06
2.79515e+06
2.79582e+06
2.79651e+06
2.79718e+06
2.79782e+06
2.79849e+06
2.79928e+06
2.8001e+06
2.80063e+06
2.80073e+06
2.7909e+06
2.79141e+06
2.79166e+06
2.79214e+06
2.79254e+06
2.79303e+06
2.79351e+06
2.79403e+06
2.79457e+06
2.79513e+06
2.79573e+06
2.79635e+06
2.79699e+06
2.79763e+06
2.79821e+06
2.79875e+06
2.7993e+06
2.79988e+06
2.80032e+06
2.8005e+06
2.79155e+06
2.79204e+06
2.79228e+06
2.79274e+06
2.79312e+06
2.79359e+06
2.79405e+06
2.79455e+06
2.79506e+06
2.79559e+06
2.79614e+06
2.7967e+06
2.79728e+06
2.79786e+06
2.7984e+06
2.79888e+06
2.79932e+06
2.79973e+06
2.80004e+06
2.8002e+06
2.7921e+06
2.79258e+06
2.7928e+06
2.79325e+06
2.7936e+06
2.79405e+06
2.79448e+06
2.79496e+06
2.79543e+06
2.79593e+06
2.79643e+06
2.79693e+06
2.79744e+06
2.79795e+06
2.79844e+06
2.79888e+06
2.79925e+06
2.79957e+06
2.7998e+06
2.79993e+06
2.79258e+06
2.79303e+06
2.79324e+06
2.79367e+06
2.794e+06
2.79443e+06
2.79484e+06
2.79528e+06
2.79572e+06
2.79617e+06
2.79663e+06
2.79709e+06
2.79754e+06
2.79798e+06
2.79841e+06
2.79879e+06
2.79912e+06
2.7994e+06
2.79958e+06
2.79971e+06
2.79298e+06
2.79341e+06
2.79361e+06
2.79403e+06
2.79434e+06
2.79475e+06
2.79512e+06
2.79553e+06
2.79594e+06
2.79636e+06
2.79677e+06
2.79718e+06
2.79759e+06
2.79798e+06
2.79834e+06
2.79868e+06
2.79897e+06
2.79922e+06
2.79937e+06
2.7995e+06
2.79332e+06
2.79374e+06
2.79392e+06
2.79433e+06
2.79462e+06
2.795e+06
2.79535e+06
2.79574e+06
2.79611e+06
2.79649e+06
2.79687e+06
2.79724e+06
2.7976e+06
2.79795e+06
2.79827e+06
2.79857e+06
2.79883e+06
2.79906e+06
2.79918e+06
2.79932e+06
2.79361e+06
2.79401e+06
2.79419e+06
2.79458e+06
2.79485e+06
2.79521e+06
2.79554e+06
2.7959e+06
2.79624e+06
2.79659e+06
2.79694e+06
2.79728e+06
2.7976e+06
2.79791e+06
2.7982e+06
2.79847e+06
2.79869e+06
2.79891e+06
2.79902e+06
2.79917e+06
2.79386e+06
2.79425e+06
2.79441e+06
2.79479e+06
2.79504e+06
2.79539e+06
2.79568e+06
2.79602e+06
2.79634e+06
2.79667e+06
2.79698e+06
2.79729e+06
2.79759e+06
2.79787e+06
2.79813e+06
2.79838e+06
2.79858e+06
2.79878e+06
2.79888e+06
2.79903e+06
2.79407e+06
2.79445e+06
2.7946e+06
2.79496e+06
2.79519e+06
2.79553e+06
2.7958e+06
2.79612e+06
2.79642e+06
2.79672e+06
2.79701e+06
2.7973e+06
2.79757e+06
2.79783e+06
2.79807e+06
2.79829e+06
2.79847e+06
2.79867e+06
2.79876e+06
2.79891e+06
2.79425e+06
2.79462e+06
2.79476e+06
2.79511e+06
2.79533e+06
2.79565e+06
2.7959e+06
2.79621e+06
2.79648e+06
2.79676e+06
2.79703e+06
2.7973e+06
2.79755e+06
2.79779e+06
2.79801e+06
2.79822e+06
2.79838e+06
2.79857e+06
2.79866e+06
2.79881e+06
2.7944e+06
2.79476e+06
2.79489e+06
2.79523e+06
2.79543e+06
2.79574e+06
2.79598e+06
2.79627e+06
2.79652e+06
2.79679e+06
2.79704e+06
2.79729e+06
2.79752e+06
2.79775e+06
2.79795e+06
2.79815e+06
2.79831e+06
2.79849e+06
2.79857e+06
2.79873e+06
2.79453e+06
2.79488e+06
2.79501e+06
2.79533e+06
2.79552e+06
2.79582e+06
2.79605e+06
2.79632e+06
2.79656e+06
2.79682e+06
2.79705e+06
2.79728e+06
2.7975e+06
2.79771e+06
2.7979e+06
2.79809e+06
2.79824e+06
2.79842e+06
2.7985e+06
2.79865e+06
2.79464e+06
2.79498e+06
2.79511e+06
2.79542e+06
2.7956e+06
2.79589e+06
2.7961e+06
2.79636e+06
2.79658e+06
2.79683e+06
2.79705e+06
2.79727e+06
2.79747e+06
2.79768e+06
2.79785e+06
2.79804e+06
2.79818e+06
2.79835e+06
2.79843e+06
2.79859e+06
2.79473e+06
2.79507e+06
2.79519e+06
2.79549e+06
2.79567e+06
2.79594e+06
2.79614e+06
2.7964e+06
2.7966e+06
2.79684e+06
2.79704e+06
2.79726e+06
2.79745e+06
2.79765e+06
2.79781e+06
2.79799e+06
2.79812e+06
2.7983e+06
2.79837e+06
2.79853e+06
2.79481e+06
2.79514e+06
2.79525e+06
2.79556e+06
2.79572e+06
2.79599e+06
2.79618e+06
2.79642e+06
2.79662e+06
2.79685e+06
2.79704e+06
2.79725e+06
2.79743e+06
2.79762e+06
2.79777e+06
2.79795e+06
2.79808e+06
2.79825e+06
2.79832e+06
2.79848e+06
2.79487e+06
2.7952e+06
2.79531e+06
2.79561e+06
2.79576e+06
2.79603e+06
2.79621e+06
2.79644e+06
2.79663e+06
2.79685e+06
2.79703e+06
2.79723e+06
2.7974e+06
2.79759e+06
2.79774e+06
2.79792e+06
2.79803e+06
2.79821e+06
2.79828e+06
2.79844e+06
2.79493e+06
2.79525e+06
2.79536e+06
2.79565e+06
2.7958e+06
2.79606e+06
2.79623e+06
2.79646e+06
2.79664e+06
2.79685e+06
2.79703e+06
2.79722e+06
2.79738e+06
2.79757e+06
2.79771e+06
2.79788e+06
2.798e+06
2.79817e+06
2.79824e+06
2.7984e+06
2.79497e+06
2.79529e+06
2.79539e+06
2.79568e+06
2.79583e+06
2.79608e+06
2.79625e+06
2.79647e+06
2.79664e+06
2.79685e+06
2.79702e+06
2.79721e+06
2.79736e+06
2.79754e+06
2.79768e+06
2.79785e+06
2.79796e+06
2.79813e+06
2.7982e+06
2.79837e+06
2.79501e+06
2.79532e+06
2.79543e+06
2.79571e+06
2.79585e+06
2.7961e+06
2.79626e+06
2.79648e+06
2.79665e+06
2.79685e+06
2.79701e+06
2.7972e+06
2.79735e+06
2.79752e+06
2.79766e+06
2.79783e+06
2.79793e+06
2.7981e+06
2.79817e+06
2.79834e+06
2.79504e+06
2.79535e+06
2.79545e+06
2.79573e+06
2.79587e+06
2.79612e+06
2.79627e+06
2.79649e+06
2.79665e+06
2.79684e+06
2.797e+06
2.79718e+06
2.79733e+06
2.7975e+06
2.79763e+06
2.7978e+06
2.79791e+06
2.79808e+06
2.79814e+06
2.79831e+06
2.79507e+06
2.79538e+06
2.79548e+06
2.79575e+06
2.79589e+06
2.79613e+06
2.79628e+06
2.79649e+06
2.79665e+06
2.79684e+06
2.79699e+06
2.79717e+06
2.79731e+06
2.79749e+06
2.79761e+06
2.79778e+06
2.79788e+06
2.79805e+06
2.79812e+06
2.79828e+06
2.79509e+06
2.7954e+06
2.7955e+06
2.79577e+06
2.7959e+06
2.79614e+06
2.79628e+06
2.79649e+06
2.79664e+06
2.79684e+06
2.79698e+06
2.79716e+06
2.7973e+06
2.79747e+06
2.79759e+06
2.79776e+06
2.79786e+06
2.79803e+06
2.7981e+06
2.79826e+06
2.79511e+06
2.79542e+06
2.79551e+06
2.79578e+06
2.79591e+06
2.79615e+06
2.79629e+06
2.7965e+06
2.79664e+06
2.79683e+06
2.79698e+06
2.79715e+06
2.79729e+06
2.79746e+06
2.79758e+06
2.79774e+06
2.79784e+06
2.79801e+06
2.79808e+06
2.79824e+06
2.79513e+06
2.79543e+06
2.79553e+06
2.79579e+06
2.79592e+06
2.79615e+06
2.79629e+06
2.7965e+06
2.79664e+06
2.79683e+06
2.79697e+06
2.79715e+06
2.79728e+06
2.79745e+06
2.79756e+06
2.79773e+06
2.79782e+06
2.79799e+06
2.79806e+06
2.79822e+06
2.79514e+06
2.79544e+06
2.79554e+06
2.7958e+06
2.79592e+06
2.79615e+06
2.79629e+06
2.7965e+06
2.79664e+06
2.79683e+06
2.79696e+06
2.79714e+06
2.79727e+06
2.79743e+06
2.79755e+06
2.79771e+06
2.79781e+06
2.79798e+06
2.79804e+06
2.79821e+06
2.79515e+06
2.79545e+06
2.79554e+06
2.7958e+06
2.79593e+06
2.79616e+06