/*--------------------------------*- C++ -*----------------------------------*\
  =========                 |
  \\      /  F ield         | OpenFOAM: The Open Source CFD Toolbox
   \\    /   O peration     | Website:  https://openfoam.org
    \\  /    A nd           | Version:  8
     \\/     M anipulation  |
\*---------------------------------------------------------------------------*/
FoamFile
{
    version     2.0;
    format      ascii;
    class       volScalarField;
    location    "700";
    object      T;
}
// * * * * * * * * * * * * * * * * * * * * * * * * * * * * * * * * * * * * * //

dimensions      [0 0 0 1 0 0 0];

internalField   nonuniform List<scalar> 
8400
(
302.717
302.717
302.72
302.723
302.726
302.729
302.731
302.734
302.736
302.738
302.74
302.742
302.744
302.745
302.746
302.747
302.747
302.747
302.747
302.746
302.744
302.742
302.74
302.737
302.733
302.729
302.725
302.72
302.714
302.708
302.701
302.694
302.687
302.679
302.67
302.661
302.651
302.64
302.629
302.616
302.602
302.586
302.569
302.55
302.528
302.504
302.477
302.448
302.417
302.383
302.715
302.715
302.719
302.721
302.723
302.724
302.724
302.723
302.722
302.719
302.716
302.712
302.707
302.7
302.693
302.684
302.674
302.663
302.651
302.638
302.623
302.607
302.591
302.573
302.554
302.535
302.515
302.494
302.473
302.452
302.43
302.409
302.387
302.366
302.344
302.323
302.301
302.279
302.256
302.232
302.207
302.179
302.15
302.117
302.082
302.043
302
301.954
301.905
301.853
302.429
302.428
302.43
302.431
302.43
302.428
302.425
302.42
302.413
302.404
302.394
302.381
302.367
302.35
302.332
302.311
302.289
302.265
302.239
302.211
302.181
302.15
302.118
302.084
302.05
302.015
301.98
301.944
301.909
301.874
301.84
301.807
301.774
301.743
301.712
301.683
301.654
301.626
301.599
301.571
301.543
301.514
301.484
301.452
301.419
301.383
301.345
301.305
301.264
301.221
301.9
301.896
301.895
301.893
301.889
301.884
301.877
301.868
301.857
301.844
301.829
301.811
301.792
301.77
301.746
301.72
301.692
301.662
301.63
301.597
301.563
301.528
301.492
301.455
301.418
301.382
301.345
301.309
301.274
301.241
301.208
301.177
301.148
301.12
301.095
301.07
301.048
301.027
301.007
300.988
300.97
300.952
300.935
300.917
300.9
300.882
300.863
300.844
300.824
300.804
301.29
301.284
301.282
301.278
301.274
301.267
301.26
301.251
301.24
301.228
301.214
301.198
301.181
301.162
301.142
301.121
301.098
301.075
301.051
301.026
301
300.974
300.949
300.923
300.898
300.873
300.849
300.826
300.804
300.784
300.765
300.747
300.731
300.717
300.704
300.693
300.683
300.674
300.667
300.661
300.656
300.652
300.648
300.645
300.642
300.64
300.638
300.636
300.634
300.631
300.772
300.768
300.768
300.767
300.765
300.762
300.758
300.753
300.747
300.741
300.733
300.725
300.716
300.706
300.696
300.685
300.674
300.663
300.651
300.639
300.628
300.616
300.605
300.594
300.584
300.574
300.565
300.557
300.55
300.543
300.537
300.533
300.529
300.527
300.525
300.524
300.524
300.525
300.527
300.53
300.533
300.537
300.542
300.547
300.553
300.559
300.565
300.572
300.579
300.586
300.416
300.418
300.422
300.426
300.429
300.431
300.433
300.435
300.435
300.436
300.436
300.435
300.434
300.433
300.432
300.431
300.429
300.427
300.426
300.424
300.423
300.421
300.42
300.419
300.418
300.418
300.418
300.419
300.419
300.421
300.423
300.425
300.428
300.432
300.436
300.44
300.446
300.451
300.457
300.464
300.472
300.48
300.489
300.498
300.508
300.519
300.531
300.543
300.555
300.568
300.192
300.197
300.205
300.212
300.219
300.225
300.231
300.237
300.242
300.247
300.251
300.256
300.259
300.263
300.266
300.27
300.273
300.276
300.278
300.281
300.284
300.287
300.289
300.292
300.295
300.299
300.302
300.306
300.31
300.314
300.319
300.324
300.329
300.335
300.341
300.348
300.355
300.363
300.372
300.381
300.391
300.402
300.414
300.427
300.442
300.458
300.475
300.493
300.512
300.532
300.061
300.065
300.071
300.076
300.082
300.088
300.093
300.098
300.103
300.108
300.112
300.117
300.121
300.125
300.129
300.132
300.136
300.139
300.143
300.146
300.149
300.152
300.155
300.159
300.162
300.166
300.169
300.173
300.178
300.182
300.187
300.192
300.198
300.204
300.211
300.219
300.227
300.235
300.245
300.256
300.268
300.281
300.297
300.314
300.334
300.356
300.381
300.407
300.436
300.466
300.011
300.011
300.013
300.014
300.016
300.018
300.02
300.022
300.024
300.025
300.027
300.029
300.031
300.033
300.034
300.036
300.038
300.039
300.041
300.043
300.045
300.046
300.048
300.05
300.052
300.055
300.057
300.059
300.062
300.065
300.068
300.072
300.076
300.08
300.085
300.091
300.097
300.104
300.112
300.121
300.133
300.146
300.162
300.182
300.204
300.231
300.261
300.295
300.333
300.373
300.002
300.001
300.002
300.002
300.002
300.003
300.003
300.004
300.004
300.005
300.005
300.006
300.006
300.007
300.007
300.008
300.008
300.009
300.009
300.01
300.01
300.011
300.012
300.012
300.013
300.014
300.015
300.016
300.018
300.019
300.021
300.023
300.025
300.027
300.029
300.032
300.035
300.039
300.043
300.049
300.055
300.064
300.075
300.089
300.108
300.131
300.16
300.194
300.235
300.282
300.001
300.001
300.002
300.002
300.002
300.003
300.003
300.004
300.004
300.005
300.005
300.006
300.006
300.007
300.007
300.008
300.008
300.009
300.009
300.01
300.011
300.011
300.012
300.013
300.014
300.015
300.016
300.017
300.018
300.019
300.021
300.023
300.024
300.026
300.029
300.031
300.034
300.038
300.042
300.046
300.052
300.059
300.067
300.078
300.091
300.108
300.13
300.158
300.193
300.235
300.003
300.003
300.003
300.003
300.004
300.004
300.005
300.005
300.006
300.006
300.007
300.007
300.008
300.009
300.009
300.01
300.01
300.011
300.012
300.012
300.013
300.014
300.015
300.016
300.017
300.018
300.019
300.02
300.021
300.023
300.024
300.026
300.027
300.029
300.032
300.034
300.037
300.04
300.044
300.048
300.054
300.06
300.068
300.077
300.09
300.106
300.126
300.152
300.184
300.224
300.005
300.005
300.005
300.006
300.007
300.007
300.008
300.008
300.009
300.01
300.01
300.011
300.012
300.012
300.013
300.014
300.014
300.015
300.016
300.017
300.018
300.019
300.02
300.022
300.023
300.024
300.025
300.027
300.028
300.029
300.031
300.032
300.034
300.036
300.038
300.04
300.043
300.046
300.05
300.054
300.059
300.065
300.073
300.083
300.095
300.111
300.131
300.157
300.189
300.228
300.005
300.006
300.006
300.006
300.007
300.008
300.009
300.01
300.011
300.012
300.013
300.014
300.015
300.016
300.017
300.018
300.019
300.02
300.021
300.022
300.024
300.025
300.027
300.028
300.03
300.032
300.033
300.035
300.036
300.038
300.039
300.04
300.042
300.043
300.045
300.047
300.05
300.053
300.057
300.061
300.066
300.073
300.082
300.093
300.107
300.124
300.147
300.175
300.209
300.25
300.011
300.013
300.014
300.016
300.017
300.019
300.02
300.021
300.023
300.024
300.025
300.026
300.028
300.029
300.029
300.03
300.031
300.032
300.033
300.035
300.036
300.037
300.039
300.04
300.042
300.043
300.045
300.046
300.047
300.048
300.049
300.049
300.05
300.051
300.052
300.054
300.056
300.059
300.063
300.069
300.076
300.084
300.096
300.11
300.129
300.151
300.179
300.213
300.253
300.298
300.006
300.007
300.006
300.007
300.008
300.009
300.01
300.011
300.012
300.013
300.014
300.016
300.017
300.018
300.019
300.019
300.02
300.022
300.023
300.024
300.026
300.028
300.03
300.032
300.034
300.036
300.038
300.04
300.042
300.043
300.045
300.046
300.048
300.05
300.053
300.056
300.061
300.068
300.076
300.087
300.1
300.115
300.135
300.158
300.185
300.217
300.254
300.296
300.342
300.391
300.022
300.026
300.029
300.032
300.036
300.039
300.042
300.046
300.049
300.052
300.056
300.059
300.063
300.066
300.069
300.072
300.075
300.079
300.082
300.086
300.09
300.095
300.099
300.104
300.11
300.115
300.12
300.126
300.131
300.136
300.142
300.147
300.152
300.158
300.164
300.172
300.181
300.193
300.206
300.222
300.24
300.262
300.286
300.314
300.346
300.381
300.419
300.461
300.504
300.549
300.006
300.01
300.013
300.015
300.017
300.019
300.02
300.023
300.026
300.031
300.034
300.038
300.041
300.044
300.048
300.053
300.058
300.064
300.071
300.078
300.085
300.094
300.103
300.112
300.122
300.133
300.145
300.157
300.168
300.18
300.191
300.202
300.213
300.224
300.236
300.249
300.263
300.279
300.297
300.317
300.339
300.363
300.388
300.416
300.446
300.479
300.514
300.55
300.585
300.62
300.682
300.678
300.677
300.677
300.674
300.67
300.666
300.661
300.656
300.653
300.651
300.65
300.649
300.649
300.65
300.651
300.652
300.653
300.654
300.655
300.656
300.656
300.656
300.656
300.656
300.658
300.66
300.664
300.67
300.678
300.689
300.701
300.714
300.728
300.741
300.754
300.765
300.775
300.784
300.791
300.797
300.801
300.802
300.797
300.788
300.774
300.757
300.74
300.724
300.71
303.149
303.148
303.146
303.145
303.144
303.142
303.141
303.14
303.139
303.138
303.136
303.135
303.134
303.133
303.132
303.131
303.13
303.128
303.127
303.126
303.125
303.124
303.123
303.122
303.121
303.12
303.119
303.118
303.117
303.116
303.115
303.114
303.113
303.113
303.112
303.111
303.11
303.109
303.108
303.107
303.106
303.105
303.105
303.104
303.103
303.102
303.102
303.101
303.101
303.1
303.15
303.15
303.15
303.15
303.15
303.15
303.15
303.15
303.15
303.149
303.149
303.149
303.149
303.149
303.149
303.149
303.149
303.149
303.148
303.148
303.148
303.148
303.148
303.148
303.148
303.147
303.147
303.147
303.147
303.147
303.147
303.146
303.146
303.146
303.146
303.146
303.146
303.146
303.145
303.145
303.145
303.145
303.145
303.145
303.145
303.144
303.144
303.144
303.144
303.144
303.15
303.15
303.15
303.15
303.15
303.15
303.15
303.15
303.15
303.15
303.15
303.15
303.15
303.15
303.15
303.15
303.15
303.15
303.15
303.15
303.15
303.15
303.15
303.15
303.15
303.15
303.15
303.15
303.15
303.15
303.15
303.15
303.15
303.15
303.15
303.15
303.15
303.15
303.15
303.15
303.15
303.15
303.15
303.15
303.15
303.15
303.15
303.15
303.15
303.15
303.15
303.15
303.15
303.15
303.15
303.15
303.15
303.15
303.15
303.15
303.15
303.15
303.15
303.15
303.15
303.15
303.15
303.15
303.15
303.15
303.15
303.15
303.15
303.15
303.15
303.15
303.15
303.15
303.15
303.15
303.15
303.15
303.15
303.15
303.15
303.15
303.15
303.15
303.15
303.15
303.15
303.15
303.15
303.15
303.15
303.15
303.15
303.15
303.15
303.15
303.15
303.15
303.15
303.15
303.15
303.15
303.15
303.15
303.15
303.15
303.15
303.15
303.15
303.15
303.15
303.15
303.15
303.15
303.15
303.15
303.15
303.15
303.15
303.15
303.15
303.15
303.15
303.15
303.15
303.15
303.15
303.15
303.15
303.15
303.15
303.15
303.15
303.15
303.15
303.15
303.15
303.15
303.15
303.15
303.15
303.15
303.15
303.15
303.15
303.15
303.15
303.15
303.15
303.15
303.15
303.15
303.15
303.15
303.15
303.15
303.15
303.15
303.15
303.15
303.15
303.15
303.15
303.15
303.15
303.15
303.15
303.15
303.15
303.15
303.15
303.15
303.15
303.15
303.15
303.15
303.15
303.15
303.15
303.15
303.15
303.15
303.15
303.15
303.15
303.15
303.15
303.15
303.15
303.15
303.15
303.15
303.15
303.15
303.15
303.15
303.15
303.15
303.15
303.15
303.15
303.15
303.15
303.15
303.15
303.15
303.15
303.15
303.15
303.15
303.15
303.15
303.15
303.15
303.15
303.15
303.15
303.15
303.15
303.15
303.15
303.15
303.15
303.15
303.15
303.15
303.15
303.15
303.15
303.15
303.15
303.15
303.15
303.15
303.15
303.15
303.15
303.15
303.15
303.15
303.15
303.15
303.15
303.15
303.15
303.15
303.15
303.15
303.15
303.15
303.15
303.15
303.15
303.15
303.15
303.15
303.15
303.15
303.15
303.15
303.15
303.15
303.15
303.15
303.15
303.15
303.15
303.15
303.15
303.15
303.15
303.15
303.15
303.15
303.15
303.15
303.15
303.15
303.15
303.15
303.15
303.15
303.15
303.15
303.15
303.15
303.15
303.15
303.15
303.15
303.15
303.15
303.15
303.15
303.15
303.15
303.15
303.15
303.15
303.15
303.15
303.15
303.15
303.15
303.15
303.15
303.15
303.15
303.15
303.15
303.15
303.15
303.15
303.15
303.15
303.15
303.15
303.15
303.15
303.15
303.15
303.15
303.15
303.15
303.15
303.15
303.15
303.15
303.15
303.15
303.15
303.15
303.15
303.15
303.15
303.15
303.15
303.15
303.15
303.15
303.15
303.15
303.15
303.15
303.15
303.15
303.15
303.15
303.15
303.15
303.15
303.15
303.15
303.15
303.15
303.15
303.15
303.15
303.15
303.15
303.15
303.15
303.15
303.15
303.15
303.15
303.15
303.15
303.15
303.15
303.15
303.15
303.15
303.15
303.15
303.15
303.15
303.15
303.15
303.15
303.15
303.15
303.15
303.15
303.15
303.15
303.15
303.15
303.15
303.15
303.15
303.15
303.15
303.15
303.15
303.15
303.15
303.15
303.15
303.15
303.15
303.15
303.15
303.15
303.15
303.15
303.15
303.15
303.15
303.15
303.15
303.15
303.15
303.15
303.15
303.15
303.15
303.15
303.15
303.15
303.15
303.15
303.15
303.15
303.15
303.15
303.15
303.15
303.15
303.15
303.15
303.15
303.15
303.15
303.15
303.15
303.15
303.15
303.15
303.15
303.15
303.15
303.15
303.15
303.15
303.15
303.15
303.15
303.15
303.15
303.15
303.15
303.15
303.15
303.15
303.15
303.15
303.15
303.15
303.15
303.15
303.15
303.15
303.15
303.15
303.15
303.15
303.15
303.15
303.15
303.15
303.15
303.15
303.15
303.15
303.15
303.15
303.15
303.15
303.15
303.15
303.15
303.15
303.15
303.15
303.15
303.15
303.15
303.15
303.15
303.15
303.15
303.15
303.15
303.15
303.15
303.15
303.15
303.15
303.15
303.15
303.15
303.15
303.15
303.15
303.15
303.15
303.15
303.15
303.15
303.15
303.15
303.15
303.15
303.15
303.15
303.15
303.15
303.15
303.15
303.15
303.15
303.15
303.15
303.15
303.15
303.15
303.15
303.15
303.15
303.15
303.15
303.15
303.15
303.15
303.15
303.15
303.15
303.15
303.15
303.15
303.15
303.15
303.15
303.15
303.15
303.15
303.15
303.15
303.15
303.15
303.15
303.15
303.15
303.15
303.15
303.15
303.15
303.15
303.15
303.15
303.15
303.15
303.15
303.15
303.15
303.15
303.15
303.15
303.15
303.15
303.15
303.15
303.15
303.15
303.15
303.15
303.15
303.15
303.15
303.15
303.15
303.15
303.15
303.15
303.15
303.15
303.15
303.15
303.15
303.15
303.15
303.15
303.15
303.15
303.15
303.15
303.15
303.15
303.15
303.15
303.15
303.15
303.15
303.15
303.15
303.15
303.15
303.15
303.15
303.15
303.15
303.15
303.15
303.15
303.15
303.15
303.15
303.15
303.15
303.15
303.15
303.15
303.15
303.15
303.15
303.15
303.15
303.15
303.15
303.15
303.15
303.15
303.15
303.15
303.15
303.15
303.15
303.15
303.15
303.15
303.15
303.15
303.15
303.15
303.15
303.15
303.15
303.15
303.15
303.15
303.15
303.15
303.15
303.15
303.15
303.15
303.15
303.15
303.15
303.15
303.15
303.15
303.15
303.15
303.15
303.15
303.15
303.15
303.15
303.15
303.15
303.15
303.15
303.15
303.15
303.15
303.15
303.15
303.15
303.15
303.15
303.15
303.15
303.15
303.15
303.15
303.15
303.15
303.15
303.15
303.15
303.15
303.15
303.15
303.15
303.15
303.15
303.15
303.15
303.15
303.15
303.15
303.15
303.15
303.15
303.15
303.15
303.15
303.15
303.15
303.15
303.15
303.15
303.15
303.15
303.15
303.15
303.15
303.15
303.15
303.15
303.15
303.15
303.15
303.15
303.15
303.15
303.15
303.15
303.15
303.15
303.15
303.15
303.15
303.15
303.15
303.15
303.15
303.15
303.15
303.15
303.15
303.15
303.15
303.15
303.15
303.15
303.15
303.15
303.15
303.15
303.15
303.15
303.15
303.15
303.15
303.15
303.15
303.15
303.15
303.15
303.15
303.15
303.15
303.15
303.15
303.15
303.15
303.15
303.15
303.15
303.15
303.15
303.15
303.15
303.15
303.15
303.15
303.15
303.15
303.15
303.15
303.15
303.15
303.15
303.15
303.149
303.149
303.149
303.149
303.149
303.149
303.149
303.149
303.149
303.15
303.15
303.15
303.15
303.15
303.15
303.15
303.15
303.15
303.15
303.149
303.149
303.149
303.149
303.149
303.149
303.149
303.149
303.148
303.148
303.148
303.148
303.148
303.148
303.148
303.147
303.147
303.147
303.147
303.147
303.147
303.146
303.146
303.146
303.146
303.146
303.145
303.145
303.145
303.145
303.145
303.144
303.144
303.144
303.143
303.143
303.143
303.142
303.142
303.141
303.149
303.148
303.146
303.145
303.144
303.142
303.141
303.14
303.139
303.138
303.136
303.135
303.134
303.133
303.132
303.131
303.13
303.128
303.127
303.126
303.125
303.124
303.123
303.122
303.121
303.12
303.119
303.118
303.117
303.116
303.115
303.114
303.113
303.112
303.112
303.111
303.11
303.109
303.108
303.107
303.106
303.105
303.104
303.104
303.103
303.102
303.101
303.1
303.099
303.098
302.224
301.514
301.131
300.973
300.914
300.889
300.871
300.851
300.826
300.796
300.766
300.743
300.737
300.756
300.8
301.016
301.343
301.706
301.988
302.107
302.256
301.565
301.185
301.025
300.964
300.938
300.922
300.906
300.886
300.863
300.839
300.819
300.811
300.823
300.861
301.059
301.369
301.716
301.983
302.094
302.293
301.622
301.244
301.081
301.016
300.99
300.975
300.963
300.948
300.931
300.913
300.899
300.893
300.904
300.94
301.116
301.404
301.729
301.98
302.085
302.335
301.686
301.309
301.141
301.072
301.043
301.03
301.021
301.011
301
300.989
300.98
300.978
300.991
301.027
301.178
301.442
301.744
301.977
302.076
302.382
301.758
301.382
301.206
301.131
301.1
301.087
301.08
301.075
301.07
301.066
301.063
301.067
301.083
301.119
301.246
301.483
301.759
301.973
302.067
302.434
301.837
301.462
301.278
301.196
301.16
301.146
301.141
301.14
301.141
301.143
301.148
301.158
301.179
301.216
301.317
301.526
301.774
301.97
302.058
302.49
301.924
301.55
301.357
301.266
301.225
301.209
301.204
301.206
301.212
301.22
301.232
301.25
301.276
301.317
301.391
301.57
301.79
301.966
302.048
302.549
302.018
301.648
301.445
301.344
301.295
301.275
301.27
301.273
301.283
301.297
301.315
301.338
301.37
301.412
301.466
301.616
301.806
301.962
302.039
302.611
302.119
301.755
301.543
301.43
301.373
301.347
301.339
301.342
301.354
301.371
301.393
301.421
301.455
301.495
301.543
301.662
301.822
301.959
302.03
302.675
302.227
301.872
301.652
301.527
301.459
301.425
301.412
301.414
301.425
301.443
301.468
301.498
301.533
301.573
301.618
301.708
301.838
301.956
302.02
302.737
302.338
301.997
301.773
301.636
301.557
301.513
301.493
301.49
301.498
301.515
301.539
301.57
301.605
301.645
301.691
301.752
301.854
301.952
302.011
302.798
302.451
302.131
301.906
301.759
301.668
301.614
301.585
301.574
301.576
301.589
301.61
301.638
301.671
301.709
301.751
301.794
301.87
301.95
302.002
302.854
302.563
302.269
302.049
301.896
301.795
301.73
301.691
301.671
301.665
301.671
301.685
301.707
301.734
301.764
301.798
301.833
301.885
301.947
301.992
302.905
302.669
302.408
302.199
302.046
301.938
301.864
301.816
301.786
301.771
301.768
301.774
301.786
301.804
301.825
301.848
301.873
301.9
301.945
301.982
302.949
302.767
302.543
302.352
302.204
302.095
302.016
301.96
301.923
301.901
301.889
301.887
301.891
301.9
301.912
301.925
301.936
301.942
301.947
301.972
302.985
302.854
302.668
302.501
302.364
302.259
302.18
302.123
302.082
302.055
302.039
302.032
302.032
302.037
302.047
302.059
302.073
302.086
302.088
302.001
303.013
302.928
302.78
302.639
302.519
302.424
302.35
302.295
302.256
302.229
302.213
302.207
302.208
302.216
302.231
302.252
302.279
302.312
302.347
302.37
303.034
302.988
302.876
302.762
302.662
302.58
302.516
302.467
302.433
302.411
302.399
302.397
302.403
302.417
302.438
302.467
302.503
302.545
302.593
302.65
303.048
303.034
302.953
302.866
302.785
302.719
302.666
302.627
302.6
302.584
302.577
302.58
302.59
302.608
302.633
302.663
302.697
302.733
302.768
302.798
303.057
303.068
303.014
302.949
302.888
302.836
302.795
302.765
302.745
302.735
302.733
302.739
302.751
302.769
302.792
302.817
302.843
302.866
302.882
302.884
303.062
303.092
303.059
303.013
302.968
302.93
302.899
302.878
302.864
302.858
302.859
302.866
302.878
302.893
302.911
302.928
302.944
302.953
302.953
302.932
303.063
303.108
303.09
303.06
303.028
303.001
302.979
302.964
302.955
302.952
302.955
302.961
302.971
302.982
302.994
303.004
303.011
303.009
302.996
302.959
303.063
303.118
303.112
303.092
303.071
303.053
303.038
303.028
303.022
303.021
303.023
303.028
303.035
303.043
303.05
303.055
303.055
303.046
303.024
302.974
303.061
303.124
303.126
303.114
303.101
303.088
303.079
303.072
303.068
303.068
303.07
303.074
303.079
303.083
303.087
303.088
303.084
303.07
303.042
302.983
303.058
303.127
303.135
303.129
303.12
303.112
303.106
303.102
303.1
303.099
303.101
303.103
303.107
303.109
303.111
303.109
303.103
303.087
303.055
302.989
303.055
303.128
303.14
303.137
303.132
303.128
303.124
303.121
303.12
303.12
303.121
303.122
303.124
303.126
303.126
303.123
303.116
303.099
303.064
302.992
303.052
303.129
303.144
303.143
303.14
303.137
303.135
303.133
303.132
303.132
303.133
303.134
303.135
303.136
303.135
303.132
303.125
303.107
303.071
302.995
303.049
303.128
303.145
303.146
303.144
303.143
303.141
303.14
303.14
303.14
303.14
303.141
303.141
303.142
303.141
303.138
303.131
303.114
303.077
302.996
303.046
303.128
303.146
303.148
303.147
303.146
303.145
303.145
303.144
303.144
303.145
303.145
303.145
303.145
303.144
303.142
303.136
303.119
303.081
302.998
303.044
303.127
303.146
303.149
303.148
303.148
303.147
303.147
303.147
303.147
303.147
303.147
303.147
303.147
303.147
303.144
303.139
303.123
303.085
302.999
303.041
303.126
303.147
303.149
303.149
303.149
303.149
303.148
303.148
303.148
303.149
303.149
303.149
303.149
303.148
303.146
303.141
303.126
303.088
303
303.039
303.125
303.147
303.149
303.149
303.149
303.149
303.149
303.149
303.149
303.149
303.149
303.149
303.149
303.149
303.147
303.143
303.129
303.091
303.001
303.038
303.125
303.147
303.149
303.15
303.15
303.15
303.15
303.15
303.15
303.15
303.15
303.15
303.15
303.149
303.148
303.144
303.131
303.093
303.001
303.036
303.124
303.147
303.149
303.15
303.15
303.15
303.15
303.15
303.15
303.15
303.15
303.15
303.15
303.15
303.148
303.145
303.132
303.095
303.002
303.035
303.124
303.146
303.15
303.15
303.15
303.15
303.15
303.15
303.15
303.15
303.15
303.15
303.15
303.15
303.149
303.146
303.134
303.097
303.003
303.034
303.123
303.146
303.15
303.15
303.15
303.15
303.15
303.15
303.15
303.15
303.15
303.15
303.15
303.15
303.149
303.146
303.135
303.098
303.004
303.033
303.123
303.146
303.15
303.15
303.15
303.15
303.15
303.15
303.15
303.15
303.15
303.15
303.15
303.15
303.149
303.147
303.136
303.1
303.004
303.033
303.122
303.146
303.15
303.15
303.15
303.15
303.15
303.15
303.15
303.15
303.15
303.15
303.15
303.15
303.149
303.147
303.137
303.101
303.005
303.032
303.122
303.146
303.15
303.15
303.15
303.15
303.15
303.15
303.15
303.15
303.15
303.15
303.15
303.15
303.149
303.147
303.138
303.102
303.006
303.032
303.122
303.146
303.15
303.15
303.15
303.15
303.15
303.15
303.15
303.15
303.15
303.15
303.15
303.15
303.15
303.147
303.138
303.103
303.006
303.032
303.122
303.146
303.15
303.15
303.15
303.15
303.15
303.15
303.15
303.15
303.15
303.15
303.15
303.15
303.15
303.148
303.139
303.104
303.007
303.032
303.122
303.146
303.15
303.15
303.15
303.15
303.15
303.15
303.15
303.15
303.15
303.15
303.15
303.15
303.15
303.148
303.139
303.105
303.008
303.032
303.121
303.146
303.15
303.15
303.15
303.15
303.15
303.15
303.15
303.15
303.15
303.15
303.15
303.15
303.15
303.148
303.14
303.105
303.008
303.032
303.121
303.146
303.15
303.15
303.15
303.15
303.15
303.15
303.15
303.15
303.15
303.15
303.15
303.15
303.15
303.148
303.14
303.106
303.009
303.032
303.121
303.146
303.15
303.15
303.15
303.15
303.15
303.15
303.15
303.15
303.15
303.15
303.15
303.15
303.15
303.148
303.14
303.106
303.01
303.033
303.121
303.146
303.15
303.15
303.15
303.15
303.15
303.15
303.15
303.15
303.15
303.15
303.15
303.15
303.15
303.148
303.14
303.107
303.01
303.033
303.121
303.146
303.15
303.15
303.15
303.15
303.15
303.15
303.15
303.15
303.15
303.15
303.15
303.15
303.15
303.148
303.141
303.107
303.011
303.034
303.121
303.146
303.15
303.15
303.15
303.15
303.15
303.15
303.15
303.15
303.15
303.15
303.15
303.15
303.15
303.148
303.141
303.108
303.011
303.034
303.121
303.146
303.15
303.15
303.15
303.15
303.15
303.15
303.15
303.15
303.15
303.15
303.15
303.15
303.15
303.148
303.141
303.108
303.012
303.035
303.121
303.146
303.15
303.15
303.15
303.15
303.15
303.15
303.15
303.15
303.15
303.15
303.15
303.15
303.15
303.148
303.141
303.109
303.013
303.035
303.122
303.146
303.15
303.15
303.15
303.15
303.15
303.15
303.15
303.15
303.15
303.15
303.15
303.15
303.15
303.148
303.141
303.109
303.013
303.036
303.122
303.146
303.15
303.15
303.15
303.15
303.15
303.15
303.15
303.15
303.15
303.15
303.15
303.15
303.15
303.148
303.141
303.109
303.014
303.036
303.122
303.146
303.15
303.15
303.15
303.15
303.15
303.15
303.15
303.15
303.15
303.15
303.15
303.15
303.15
303.149
303.142
303.11
303.015
303.037
303.122
303.146
303.15
303.15
303.15
303.15
303.15
303.15
303.15
303.15
303.15
303.15
303.15
303.15
303.15
303.149
303.142
303.11
303.015
303.037
303.122
303.146
303.15
303.15
303.15
303.15
303.15
303.15
303.15
303.15
303.15
303.15
303.15
303.15
303.15
303.149
303.142
303.11
303.016
303.038
303.122
303.146
303.15
303.15
303.15
303.15
303.15
303.15
303.15
303.15
303.15
303.15
303.15
303.15
303.15
303.149
303.142
303.111
303.017
303.038
303.123
303.146
303.15
303.15
303.15
303.15
303.15
303.15
303.15
303.15
303.15
303.15
303.15
303.15
303.15
303.149
303.142
303.111
303.017
303.039
303.123
303.146
303.15
303.15
303.15
303.15
303.15
303.15
303.15
303.15
303.15
303.15
303.15
303.15
303.15
303.149
303.142
303.111
303.018
303.039
303.123
303.146
303.15
303.15
303.15
303.15
303.15
303.15
303.15
303.15
303.15
303.15
303.15
303.15
303.15
303.149
303.142
303.112
303.018
303.04
303.123
303.146
303.15
303.15
303.15
303.15
303.15
303.15
303.15
303.15
303.15
303.15
303.15
303.15
303.15
303.149
303.142
303.112
303.019
303.04
303.123
303.146
303.15
303.15
303.15
303.15
303.15
303.15
303.15
303.15
303.15
303.15
303.15
303.15
303.15
303.149
303.142
303.112
303.02
303.041
303.124
303.146
303.15
303.15
303.15
303.15
303.15
303.15
303.15
303.15
303.15
303.15
303.15
303.15
303.15
303.149
303.142
303.113
303.02
303.041
303.124
303.146
303.15
303.15
303.15
303.15
303.15
303.15
303.15
303.15
303.15
303.15
303.15
303.15
303.15
303.149
303.143
303.113
303.021
303.042
303.124
303.146
303.15
303.15
303.15
303.15
303.15
303.15
303.15
303.15
303.15
303.15
303.15
303.15
303.15
303.149
303.143
303.113
303.022
303.042
303.124
303.147
303.15
303.15
303.15
303.15
303.15
303.15
303.15
303.15
303.15
303.15
303.15
303.15
303.15
303.149
303.143
303.114
303.022
303.043
303.125
303.147
303.15
303.15
303.15
303.15
303.15
303.15
303.15
303.15
303.15
303.15
303.15
303.15
303.15
303.149
303.143
303.114
303.023
303.044
303.125
303.147
303.15
303.15
303.15
303.15
303.15
303.15
303.15
303.15
303.15
303.15
303.15
303.15
303.15
303.149
303.143
303.114
303.024
303.044
303.125
303.147
303.15
303.15
303.15
303.15
303.15
303.15
303.15
303.15
303.15
303.15
303.15
303.15
303.15
303.149
303.143
303.114
303.024
303.045
303.125
303.147
303.15
303.15
303.15
303.15
303.15
303.15
303.15
303.15
303.15
303.15
303.15
303.15
303.15
303.149
303.143
303.115
303.025
303.045
303.125
303.147
303.15
303.15
303.15
303.15
303.15
303.15
303.15
303.15
303.15
303.15
303.15
303.15
303.15
303.149
303.143
303.115
303.026
303.046
303.126
303.147
303.15
303.15
303.15
303.15
303.15
303.15
303.15
303.15
303.15
303.15
303.15
303.15
303.15
303.149
303.143
303.115
303.026
303.046
303.126
303.147
303.15
303.15
303.15
303.15
303.15
303.15
303.15
303.15
303.15
303.15
303.15
303.15
303.15
303.149
303.143
303.116
303.027
303.047
303.126
303.147
303.15
303.15
303.15
303.15
303.15
303.15
303.15
303.15
303.15
303.15
303.15
303.15
303.15
303.149
303.143
303.116
303.028
303.047
303.126
303.147
303.15
303.15
303.15
303.15
303.15
303.15
303.15
303.15
303.15
303.15
303.15
303.15
303.15
303.149
303.143
303.116
303.028
303.048
303.127
303.147
303.15
303.15
303.15
303.15
303.15
303.15
303.15
303.15
303.15
303.15
303.15
303.15
303.15
303.149
303.143
303.116
303.029
303.048
303.127
303.147
303.15
303.15
303.15
303.15
303.15
303.15
303.15
303.15
303.15
303.15
303.15
303.15
303.15
303.149
303.143
303.117
303.03
303.049
303.127
303.147
303.15
303.15
303.15
303.15
303.15
303.15
303.15
303.15
303.15
303.15
303.15
303.15
303.15
303.149
303.144
303.117
303.03
303.05
303.127
303.147
303.15
303.15
303.15
303.15
303.15
303.15
303.15
303.15
303.15
303.15
303.15
303.15
303.15
303.149
303.144
303.117
303.031
303.05
303.128
303.147
303.15
303.15
303.15
303.15
303.15
303.15
303.15
303.15
303.15
303.15
303.15
303.15
303.15
303.149
303.144
303.118
303.032
303.051
303.128
303.147
303.15
303.15
303.15
303.15
303.15
303.15
303.15
303.15
303.15
303.15
303.15
303.15
303.15
303.149
303.144
303.118
303.032
303.051
303.128
303.147
303.15
303.15
303.15
303.15
303.15
303.15
303.15
303.15
303.15
303.15
303.15
303.15
303.15
303.149
303.144
303.118
303.033
303.052
303.128
303.147
303.15
303.15
303.15
303.15
303.15
303.15
303.15
303.15
303.15
303.15
303.15
303.15
303.15
303.149
303.144
303.118
303.034
303.052
303.128
303.147
303.15
303.15
303.15
303.15
303.15
303.15
303.15
303.15
303.15
303.15
303.15
303.15
303.15
303.149
303.144
303.119
303.034
303.053
303.129
303.147
303.15
303.15
303.15
303.15
303.15
303.15
303.15
303.15
303.15
303.15
303.15
303.15
303.15
303.149
303.144
303.119
303.035
303.054
303.129
303.147
303.15
303.15
303.15
303.15
303.15
303.15
303.15
303.15
303.15
303.15
303.15
303.15
303.15
303.149
303.144
303.119
303.036
303.054
303.129
303.147
303.15
303.15
303.15
303.15
303.15
303.15
303.15
303.15
303.15
303.15
303.15
303.15
303.15
303.149
303.144
303.119
303.036
303.055
303.129
303.147
303.15
303.15
303.15
303.15
303.15
303.15
303.15
303.15
303.15
303.15
303.15
303.15
303.15
303.149
303.144
303.12
303.037
303.055
303.13
303.148
303.15
303.15
303.15
303.15
303.15
303.15
303.15
303.15
303.15
303.15
303.15
303.15
303.15
303.149
303.144
303.12
303.038
303.056
303.13
303.148
303.15
303.15
303.15
303.15
303.15
303.15
303.15
303.15
303.15
303.15
303.15
303.15
303.15
303.149
303.144
303.12
303.038
303.056
303.13
303.148
303.15
303.15
303.15
303.15
303.15
303.15
303.15
303.15
303.15
303.15
303.15
303.15
303.15
303.149
303.144
303.121
303.039
303.057
303.13
303.148
303.15
303.15
303.15
303.15
303.15
303.15
303.15
303.15
303.15
303.15
303.15
303.15
303.15
303.149
303.144
303.121
303.04
303.058
303.131
303.148
303.15
303.15
303.15
303.15
303.15
303.15
303.15
303.15
303.15
303.15
303.15
303.15
303.15
303.149
303.144
303.121
303.041
303.058
303.131
303.148
303.15
303.15
303.15
303.15
303.15
303.15
303.15
303.15
303.15
303.15
303.15
303.15
303.15
303.149
303.145
303.121
303.041
303.059
303.131
303.148
303.15
303.15
303.15
303.15
303.15
303.15
303.15
303.15
303.15
303.15
303.15
303.15
303.15
303.149
303.145
303.122
303.042
303.059
303.131
303.148
303.15
303.15
303.15
303.15
303.15
303.15
303.15
303.15
303.15