/*--------------------------------*- C++ -*----------------------------------*\
  =========                 |
  \\      /  F ield         | OpenFOAM: The Open Source CFD Toolbox
   \\    /   O peration     | Website:  https://openfoam.org
    \\  /    A nd           | Version:  8
     \\/     M anipulation  |
\*---------------------------------------------------------------------------*/
FoamFile
{
    version     2.0;
    format      ascii;
    class       volScalarField;
    location    "200";
    object      epsilon;
}
// * * * * * * * * * * * * * * * * * * * * * * * * * * * * * * * * * * * * * //

dimensions      [0 2 -3 0 0 0 0];

internalField   nonuniform List<scalar> 
8400
(
0.00863408
0.00824357
0.00779433
0.00734006
0.00690336
0.00649027
0.00612275
0.00581244
0.0055597
0.00536297
0.00522845
0.00517189
0.00520042
0.00527327
0.00530663
0.00528316
0.00525258
0.00526999
0.00537274
0.00556594
0.0058282
0.00614925
0.00653339
0.00696691
0.00741767
0.00785462
0.00825641
0.00860081
0.00887434
0.00907142
0.00919258
0.0092441
0.00923436
0.00917328
0.00907073
0.00893612
0.00878334
0.00863336
0.00848627
0.00834132
0.00819843
0.00805762
0.00791864
0.00778172
0.007647
0.00751416
0.00738335
0.00725485
0.00712852
0.00700445
0.00294877
0.00306029
0.00322397
0.00341388
0.00364217
0.00388227
0.00406739
0.00413041
0.00402954
0.00374614
0.00329575
0.00275114
0.00224431
0.0018972
0.0017325
0.00163363
0.00153862
0.00141524
0.00126025
0.00110852
0.000995626
0.000924052
0.000886047
0.000882055
0.000905896
0.000944071
0.000986835
0.00102849
0.00106613
0.00109902
0.00112705
0.00115053
0.00116995
0.00118596
0.00119917
0.00121022
0.00121763
0.00121582
0.0012072
0.00119391
0.00117742
0.00115882
0.0011391
0.00111899
0.00109912
0.00108035
0.00106337
0.00104893
0.0010381
0.0010322
0.00671953
0.00697415
0.00745118
0.00803438
0.00853324
0.00888927
0.00905954
0.00902813
0.00875625
0.00818866
0.00727373
0.00602901
0.00467668
0.0036097
0.00328107
0.00317225
0.00303153
0.00276766
0.00233038
0.00183057
0.00141909
0.00112283
0.000883912
0.000719484
0.000641787
0.000619643
0.000621593
0.000633389
0.000645326
0.00065555
0.000664317
0.000671969
0.000678692
0.000684765
0.000690381
0.000695617
0.000700054
0.000702875
0.00070449
0.000705254
0.000705469
0.0007054
0.000705252
0.000705165
0.000705291
0.000705762
0.000706646
0.000708028
0.000710028
0.000712792
0.0131107
0.0130423
0.0129728
0.0129009
0.0128234
0.0127363
0.0126343
0.0125125
0.0123655
0.0121872
0.0119724
0.0117076
0.011342
0.0101894
0.00683392
0.00567869
0.00566666
0.00558319
0.00486263
0.00377645
0.00280096
0.00223363
0.00161138
0.00105438
0.000740668
0.000614196
0.000559944
0.00055809
0.000569259
0.000580242
0.000589521
0.000596951
0.000603006
0.000608045
0.000612294
0.000615943
0.000619311
0.000622331
0.00062508
0.000627634
0.00063009
0.000632495
0.000634911
0.000637394
0.000639967
0.000642651
0.000645464
0.000648445
0.000651636
0.000655045
0.0131247
0.0130721
0.013018
0.0129624
0.0129044
0.0128427
0.0127754
0.0127
0.0126133
0.0125112
0.0123832
0.0122159
0.0119779
0.0114335
0.0104341
0.00984172
0.0097231
0.009588
0.00937625
0.00779892
0.0048935
0.00475643
0.00369792
0.00214931
0.0011963
0.000849939
0.000582982
0.00050531
0.000503978
0.000511439
0.000522192
0.000530596
0.000537176
0.000542369
0.000546497
0.000550181
0.000553305
0.000555929
0.000558202
0.000560223
0.000562043
0.000563719
0.000565302
0.000566844
0.000568381
0.000569944
0.000571573
0.000573327
0.000575248
0.00057739
0.0131154
0.0130522
0.012988
0.0129231
0.0128575
0.0127911
0.0127232
0.0126526
0.0125767
0.0124921
0.0123935
0.0122724
0.0121136
0.0118512
0.011455
0.0110863
0.0108044
0.0105588
0.010296
0.00989936
0.00969559
0.0095613
0.00928501
0.00515384
0.00233822
0.00201461
0.000927761
0.000518908
0.000473467
0.000443059
0.000453485
0.000461697
0.000468151
0.000473282
0.000477372
0.000481094
0.000483936
0.00048607
0.000487701
0.000488935
0.000489862
0.000490563
0.000491103
0.000491544
0.000491917
0.000492285
0.0004927
0.000493203
0.000493852
0.000494728
0.0131096
0.0130389
0.0129666
0.0128931
0.0128187
0.012744
0.0126692
0.0125944
0.0125188
0.0124405
0.012356
0.0122595
0.0121423
0.0119826
0.0117668
0.0115271
0.0112897
0.011056
0.0108174
0.010559
0.0103282
0.0101111
0.00984792
0.00921166
0.00905341
0.00867869
0.00267753
0.000745267
0.000717676
0.000391752
0.000395914
0.000401553
0.000407084
0.000412113
0.000416763
0.000420131
0.000422475
0.000424069
0.000425065
0.000425583
0.00042573
0.000425597
0.000425273
0.000424828
0.000424287
0.000423721
0.000423183
0.000422699
0.000422341
0.00042218
0.0131006
0.0130186
0.0129352
0.0128509
0.0127659
0.0126811
0.0125975
0.0125155
0.0124357
0.0123578
0.0122793
0.0121969
0.0121036
0.0119892
0.0118452
0.0116757
0.01149
0.0112926
0.0110843
0.0108647
0.0106435
0.0104189
0.0101746
0.00984775
0.00955044
0.00916182
0.00760739
0.00679477
0.00547014
0.000386114
0.000363396
0.000359103
0.000356653
0.000362827
0.000367325
0.000370348
0.000372322
0.000373426
0.000373843
0.000373761
0.000373362
0.000372728
0.000371895
0.000370978
0.000370037
0.000369096
0.000368228
0.000367501
0.000366948
0.000366614
0.0130882
0.0129896
0.0128904
0.012791
0.0126918
0.0125936
0.0124981
0.0124066
0.0123201
0.0122396
0.0121636
0.0120892
0.0120113
0.0119221
0.0118144
0.0116862
0.0115389
0.0113748
0.0111955
0.0110021
0.0107978
0.0105827
0.0103514
0.010086
0.00980209
0.0094593
0.00875182
0.00802294
0.00692626
0.00472428
0.00352683
0.00187355
0.000332456
0.00032872
0.000329835
0.000331286
0.00033315
0.000333927
0.000333892
0.000333428
0.000332727
0.000331888
0.000330952
0.000330034
0.000329218
0.000328524
0.000328043
0.000327861
0.000327997
0.000328512
0.013069
0.0129442
0.0128212
0.0127
0.0125814
0.012466
0.0123559
0.0122528
0.0121597
0.0120764
0.0120026
0.0119357
0.01187
0.0117988
0.0117151
0.0116144
0.0114955
0.0113586
0.0112043
0.0110334
0.0108472
0.0106461
0.010428
0.0101867
0.00992187
0.00961468
0.00915545
0.00859749
0.00778891
0.00652001
0.0053059
0.00392319
0.00249644
0.00156843
0.000871985
0.000321844
0.000306948
0.000305414
0.000303985
0.000302768
0.000301424
0.000300137
0.000298932
0.000297774
0.00029683
0.000296145
0.000295758
0.000295822
0.000296378
0.000297509
0.0130369
0.0128658
0.0127052
0.0125525
0.0124077
0.0122703
0.0121444
0.0120312
0.0119336
0.0118529
0.0117864
0.0117311
0.0116805
0.0116267
0.0115631
0.0114844
0.011388
0.0112731
0.0111398
0.0109886
0.0108196
0.0106335
0.0104294
0.0102041
0.0099562
0.00967503
0.00931392
0.00886903
0.00826034
0.00740345
0.00643566
0.00533193
0.00416589
0.00312903
0.00222094
0.00143214
0.000934515
0.000631867
0.000457001
0.00036291
0.000315483
0.000292769
0.000282088
0.000276644
0.000273471
0.000271291
0.00026973
0.00026891
0.000268552
0.000268613
0.0129715
0.0127028
0.0124844
0.0122925
0.0121183
0.0119621
0.0118253
0.0117101
0.0116218
0.011556
0.0115091
0.0114755
0.0114462
0.011413
0.0113691
0.0113096
0.0112322
0.0111356
0.0110197
0.0108851
0.0107315
0.0105596
0.0103689
0.0101577
0.00992485
0.00966429
0.00935325
0.00897965
0.00849846
0.00786595
0.00711757
0.00625914
0.00533568
0.0044287
0.00356946
0.00277647
0.00211311
0.00158961
0.00119332
0.000904134
0.000699441
0.000557603
0.000460534
0.000394231
0.000348659
0.000317094
0.000295121
0.000279738
0.000268888
0.000261328
0.0126198
0.0123116
0.0120609
0.0118449
0.0116585
0.011501
0.0113798
0.0112885
0.011232
0.0112019
0.0111883
0.0111852
0.0111822
0.0111698
0.0111436
0.0111003
0.0110378
0.0109555
0.0108536
0.0107322
0.0105919
0.0104324
0.010254
0.010056
0.00983741
0.00959443
0.00931534
0.00898985
0.00859179
0.00809684
0.00751222
0.00684565
0.00612401
0.00538783
0.00466342
0.00397075
0.00333699
0.0027775
0.00229661
0.00189212
0.00155791
0.00128571
0.00106651
0.000891355
0.000752049
0.000641582
0.000554062
0.000484621
0.000429422
0.000385469
0.0120292
0.0117199
0.0114734
0.0112758
0.0111235
0.0110127
0.0109393
0.0108967
0.0108794
0.01088
0.01089
0.0109028
0.0109121
0.0109112
0.0108957
0.0108637
0.0108125
0.0107402
0.0106444
0.0105328
0.0104031
0.0102549
0.0100876
0.00990186
0.00969685
0.00947043
0.00921613
0.00892661
0.00858696
0.00818386
0.00771811
0.00719573
0.00663299
0.00605235
0.00547188
0.00490624
0.004369
0.0038698
0.00341373
0.00300204
0.0026339
0.00230727
0.00201918
0.00176629
0.00154524
0.00135258
0.00118497
0.00103932
0.000912852
0.000803033
0.0112891
0.0110544
0.0108787
0.0107523
0.0106658
0.0106128
0.0105854
0.0105768
0.0105817
0.0105949
0.0106111
0.0106261
0.0106355
0.0106353
0.0106216
0.0105928
0.0105465
0.0104805
0.0103952
0.0102936
0.0101741
0.0100312
0.00986714
0.00969365
0.00950239
0.00929214
0.0090597
0.00880052
0.00850612
0.00816996
0.00779255
0.0073786
0.0069384
0.0064855
0.0060311
0.00558418
0.00515248
0.00474141
0.00435393
0.00399105
0.00365283
0.00333865
0.00304737
0.00277778
0.00252858
0.00229829
0.0020855
0.00188888
0.00170707
0.00153871
0.0106004
0.0104743
0.0103862
0.010329
0.0102952
0.010279
0.0102759
0.0102817
0.0102929
0.0103065
0.0103197
0.0103295
0.0103331
0.0103279
0.0103109
0.0102802
0.0102341
0.0101712
0.0100918
0.00999653
0.00988347
0.00975091
0.00960276
0.00944245
0.00924682
0.00905441
0.00884369
0.00861243
0.00835656
0.0080736
0.00776505
0.00743512
0.0070903
0.00673844
0.00638629
0.00603924
0.00570165
0.00537595
0.00506349
0.00476486
0.00447995
0.00420832
0.00394935
0.00370226
0.00346624
0.00324053
0.00302441
0.00281703
0.00261743
0.00242466
0.0100509
0.0100045
0.00997423
0.0099572
0.00994996
0.00994978
0.00995442
0.00996206
0.00997071
0.00997857
0.00998415
0.00998527
0.00997998
0.00996647
0.00994284
0.00990729
0.00985842
0.00979552
0.00971822
0.0096261
0.00951862
0.00939653
0.0092612
0.00911335
0.0089448
0.00875685
0.00855749
0.00835349
0.00813395
0.00789749
0.00764605
0.00738375
0.00711457
0.00684281
0.00657249
0.00630648
0.00604662
0.00579393
0.00554898
0.00531188
0.00508228
0.00485982
0.00464399
0.00443414
0.00422969
0.00403021
0.00383512
0.00364359
0.00345477
0.00326779
0.00957063
0.00956064
0.00955494
0.00955276
0.0095533
0.00955545
0.00955832
0.00956098
0.00956245
0.0095616
0.00955722
0.00954807
0.00953288
0.00951001
0.00947821
0.0094363
0.00938327
0.00931849
0.00924163
0.00915258
0.00905132
0.00893856
0.00881526
0.00868205
0.00853615
0.00837714
0.00819226
0.00800302
0.0078186
0.00762505
0.00742397
0.00721884
0.00701212
0.00680591
0.00660204
0.00640151
0.00620507
0.00601313
0.00582561
0.00564235
0.00546306
0.0052874
0.00511484
0.00494492
0.00477733
0.00461175
0.00444764
0.00428437
0.00412128
0.00395756
0.00901322
0.00901137
0.00900922
0.0090069
0.00900424
0.00900096
0.00899648
0.00899043
0.00898219
0.00897081
0.00895566
0.00893578
0.00891021
0.00887796
0.00883835
0.00879039
0.0087334
0.00866714
0.00859157
0.00850656
0.00841241
0.00830974
0.00819925
0.00808182
0.00795749
0.00782625
0.00768786
0.00751531
0.00735777
0.00720509
0.00705162
0.00689901
0.00674811
0.00659912
0.00645264
0.00630894
0.00616811
0.00603006
0.00589439
0.005761
0.0056297
0.00550003
0.00537153
0.00524401
0.00511728
0.00499103
0.00486489
0.00473853
0.00461152
0.00448313
0.0140446
0.0137402
0.0134424
0.0131438
0.0128443
0.0125444
0.0122448
0.0119465
0.0116506
0.0113582
0.0110703
0.0107874
0.01051
0.0102382
0.00997208
0.00971109
0.00945493
0.00920314
0.00895517
0.00871051
0.00846877
0.0082295
0.00799274
0.00775979
0.00753406
0.00732056
0.00712459
0.00695335
0.00680452
0.00679304
0.0068182
0.00686554
0.00692842
0.00700333
0.00708867
0.00718344
0.00728659
0.00739711
0.00751398
0.0076362
0.00776255
0.00789178
0.00802281
0.00815469
0.00828636
0.00841656
0.00854389
0.00866643
0.00878096
0.00888148
9.32905e-06
9.20539e-06
9.0877e-06
8.97491e-06
8.86585e-06
8.75736e-06
8.64939e-06
8.54205e-06
8.43556e-06
8.33019e-06
8.22613e-06
8.1235e-06
8.02244e-06
7.92311e-06
7.82572e-06
7.73043e-06
7.63718e-06
7.54576e-06
7.45584e-06
7.36709e-06
7.27722e-06
7.18104e-06
7.06119e-06
6.94947e-06
6.84435e-06
6.74484e-06
6.65016e-06
6.55921e-06
6.47128e-06
6.38615e-06
6.30393e-06
6.22478e-06
6.14875e-06
6.07573e-06
6.00552e-06
5.93801e-06
5.87316e-06
5.81093e-06
5.75123e-06
5.69381e-06
5.63837e-06
5.58459e-06
5.53192e-06
5.47992e-06
5.428e-06
5.37545e-06
5.32254e-06
5.26901e-06
5.21295e-06
5.15066e-06
8.97936e-06
8.38028e-06
7.83598e-06
7.33872e-06
6.88397e-06
6.46952e-06
6.09102e-06
5.74482e-06
5.42772e-06
5.13678e-06
4.86937e-06
4.62316e-06
4.39611e-06
4.18645e-06
3.99251e-06
3.81262e-06
3.64522e-06
3.48887e-06
3.34255e-06
3.20502e-06
7.30929e-07
7.27361e-07
7.2853e-07
7.29573e-07
7.3009e-07
7.29907e-07
7.29012e-07
7.27649e-07
7.26142e-07
7.24761e-07
7.23671e-07
7.22926e-07
7.22496e-07
7.22299e-07
7.22244e-07
7.22248e-07
7.22232e-07
7.22107e-07
7.21765e-07
7.211e-07
7.20034e-07
7.18525e-07
7.16568e-07
7.14148e-07
7.11303e-07
7.08128e-07
7.04645e-07
7.00967e-07
6.97369e-07
6.94155e-07
8.97767e-06
8.3735e-06
7.82114e-06
7.31565e-06
6.85205e-06
6.42624e-06
6.03466e-06
5.67419e-06
5.34199e-06
5.0355e-06
4.75236e-06
4.4905e-06
4.24806e-06
4.02336e-06
3.8148e-06
3.62085e-06
3.44005e-06
3.27112e-06
3.11331e-06
7.30322e-07
7.24332e-07
7.18281e-07
7.12397e-07
7.06668e-07
7.01116e-07
6.95744e-07
6.90556e-07
6.85569e-07
6.80814e-07
6.76315e-07
6.72082e-07
6.68103e-07
6.64353e-07
6.608e-07
6.57416e-07
6.54174e-07
6.51036e-07
6.47952e-07
6.44869e-07
6.41752e-07
6.38565e-07
6.35275e-07
6.31852e-07
6.28276e-07
6.2454e-07
6.20623e-07
6.16451e-07
6.11924e-07
6.07092e-07
6.02433e-07
8.97751e-06
8.37742e-06
7.82953e-06
7.32792e-06
6.86738e-06
6.44369e-06
6.05336e-06
5.6934e-06
5.36113e-06
5.05411e-06
4.7701e-06
4.50711e-06
4.26334e-06
4.03712e-06
3.82688e-06
3.6311e-06
3.44841e-06
3.27765e-06
3.11817e-06
7.30863e-07
7.24921e-07
7.18913e-07
7.1285e-07
7.06769e-07
7.00718e-07
6.9475e-07
6.88917e-07
6.83257e-07
6.77798e-07
6.7255e-07
6.67509e-07
6.62658e-07
6.57976e-07
6.53446e-07
6.49054e-07
6.44783e-07
6.40601e-07
6.36468e-07
6.3234e-07
6.28186e-07
6.23981e-07
6.19701e-07
6.15323e-07
6.10843e-07
6.0629e-07
6.01715e-07
5.97135e-07
5.92459e-07
5.87509e-07
5.82442e-07
8.97739e-06
8.37738e-06
7.82932e-06
7.32711e-06
6.86579e-06
6.44134e-06
6.05039e-06
5.69001e-06
5.35753e-06
5.05047e-06
4.76658e-06
4.50381e-06
4.2603e-06
4.03433e-06
3.82426e-06
3.6286e-06
3.44603e-06
3.27546e-06
3.11626e-06
7.30548e-07
7.24528e-07
7.18403e-07
7.12218e-07
7.06035e-07
6.99919e-07
6.93929e-07
6.8811e-07
6.82486e-07
6.77063e-07
6.71838e-07
6.66798e-07
6.61925e-07
6.57202e-07
6.52615e-07
6.4815e-07
6.43785e-07
6.39481e-07
6.35194e-07
6.3089e-07
6.26546e-07
6.22144e-07
6.17664e-07
6.1308e-07
6.08373e-07
6.0354e-07
5.98617e-07
5.9368e-07
5.88783e-07
5.83824e-07
5.78797e-07
8.97738e-06
8.37778e-06
7.83035e-06
7.3288e-06
6.86815e-06
6.44439e-06
6.05414e-06
5.69442e-06
5.36252e-06
5.05595e-06
4.77243e-06
4.50993e-06
4.26658e-06
4.04063e-06
3.83046e-06
3.63462e-06
3.45188e-06
3.28116e-06
3.12186e-06
7.31466e-07
7.25539e-07
7.19518e-07
7.13411e-07
7.07262e-07
7.01136e-07
6.95099e-07
6.89199e-07
6.83467e-07
6.77917e-07
6.72552e-07
6.67369e-07
6.6236e-07
6.57516e-07
6.52823e-07
6.48265e-07
6.43811e-07
6.39419e-07
6.35047e-07
6.30665e-07
6.26252e-07
6.21792e-07
6.17265e-07
6.12659e-07
6.07963e-07
6.03166e-07
5.98251e-07
5.9324e-07
5.88216e-07
5.83186e-07
5.78151e-07
8.97746e-06
8.378e-06
7.83056e-06
7.32891e-06
6.86812e-06
6.44423e-06
6.0539e-06
5.69411e-06
5.36212e-06
5.05544e-06
4.77182e-06
4.50923e-06
4.26579e-06
4.03973e-06
3.82944e-06
3.63352e-06
3.45074e-06
3.28005e-06
3.1208e-06
7.31251e-07
7.25186e-07
7.18986e-07
7.12713e-07
7.06451e-07
7.00282e-07
6.94263e-07
6.88424e-07
6.82776e-07
6.77318e-07
6.72044e-07
6.66944e-07
6.62009e-07
6.57225e-07
6.52579e-07
6.48049e-07
6.43603e-07
6.39204e-07
6.34816e-07
6.30415e-07
6.25981e-07
6.21494e-07
6.16931e-07
6.12283e-07
6.07557e-07
6.02765e-07
5.97896e-07
5.92929e-07
5.87902e-07
5.82856e-07
5.77819e-07
8.97753e-06
8.37797e-06
7.83036e-06
7.32863e-06
6.86795e-06
6.44432e-06
6.05432e-06
5.69484e-06
5.36309e-06
5.05661e-06
4.77317e-06
4.51073e-06
4.26741e-06
4.04143e-06
3.8312e-06
3.63534e-06
3.45264e-06
3.28202e-06
3.12278e-06
7.31498e-07
7.25314e-07
7.19017e-07
7.12697e-07
7.06438e-07
7.00301e-07
6.94325e-07
6.88521e-07
6.82892e-07
6.77438e-07
6.72154e-07
6.67034e-07
6.62067e-07
6.57245e-07
6.52553e-07
6.4797e-07
6.43466e-07
6.39006e-07
6.3456e-07
6.30107e-07
6.25631e-07
6.21111e-07
6.16523e-07
6.11851e-07
6.07097e-07
6.02279e-07
5.97406e-07
5.9246e-07
5.87452e-07
5.82416e-07
5.77392e-07
8.9775e-06
8.37758e-06
7.82967e-06
7.32787e-06
6.86731e-06
6.44392e-06
6.05413e-06
5.69477e-06
5.36308e-06
5.05659e-06
4.77312e-06
4.51065e-06
4.26728e-06
4.04126e-06
3.83101e-06
3.63516e-06
3.45249e-06
3.28187e-06
3.12251e-06
7.30487e-07
7.23514e-07
7.169e-07
7.10685e-07
7.04799e-07
6.99151e-07
6.93661e-07
6.88274e-07
6.82963e-07
6.77726e-07
6.7257e-07
6.67504e-07
6.62532e-07
6.57659e-07
6.52885e-07
6.48202e-07
6.43587e-07
6.39013e-07
6.34456e-07
6.299e-07
6.25332e-07
6.20736e-07
6.16095e-07
6.11392e-07
6.06618e-07
6.01778e-07
5.96881e-07
5.91926e-07
5.86922e-07
5.81899e-07
5.76895e-07
8.97735e-06
8.37696e-06
7.82879e-06
7.32702e-06
6.86666e-06
6.4435e-06
6.0539e-06
5.69467e-06
5.36307e-06
5.05666e-06
4.77325e-06
4.51082e-06
4.26747e-06
4.04148e-06
3.83132e-06
3.63558e-06
3.45301e-06
3.28244e-06
3.12311e-06
7.31615e-07
7.25639e-07
7.19631e-07
7.13622e-07
7.0764e-07
7.01707e-07
6.95838e-07
6.9005e-07
6.84367e-07
6.78811e-07
6.73395e-07
6.68121e-07
6.62981e-07
6.57969e-07
6.53078e-07
6.4829e-07
6.4358e-07
6.38917e-07
6.34278e-07
6.29646e-07
6.25011e-07
6.20356e-07
6.15668e-07
6.10934e-07
6.0614e-07
6.01281e-07
5.96361e-07
5.91388e-07
5.8638e-07
5.81369e-07
5.76387e-07
8.97714e-06
8.37636e-06
7.82806e-06
7.32635e-06
6.86612e-06
6.44307e-06
6.05355e-06
5.6944e-06
5.36288e-06
5.05654e-06
4.77317e-06
4.51073e-06
4.26736e-06
4.04141e-06
3.83132e-06
3.63569e-06
3.45318e-06
3.28258e-06
3.12316e-06
7.31624e-07
7.25659e-07
7.19656e-07
7.1364e-07
7.07639e-07
7.01678e-07
6.95783e-07
6.89982e-07
6.84306e-07
6.78773e-07
6.73387e-07
6.68137e-07
6.63008e-07
6.57991e-07
6.53078e-07
6.48254e-07
6.43493e-07
6.3877e-07
6.34066e-07
6.29373e-07
6.24681e-07
6.19977e-07
6.15243e-07
6.10466e-07
6.05635e-07
6.00744e-07
5.95798e-07
5.9081e-07
5.85804e-07
5.80811e-07
5.75853e-07
8.97695e-06
8.376e-06
7.82766e-06
7.32594e-06
6.86566e-06
6.44257e-06
6.05305e-06
5.69398e-06
5.36256e-06
5.05628e-06
4.7729e-06
4.51042e-06
4.26702e-06
4.04109e-06
3.83107e-06
3.63549e-06
3.45296e-06
3.28227e-06
3.12275e-06
7.31584e-07
7.25719e-07
7.19893e-07
7.14106e-07
7.08348e-07
7.02609e-07
6.96897e-07
6.91233e-07
6.85644e-07
6.80144e-07
6.74734e-07
6.69404e-07
6.64152e-07
6.58982e-07
6.53899e-07
6.48898e-07
6.43959e-07
6.39063e-07
6.34197e-07
6.29359e-07
6.24543e-07
6.19733e-07
6.14905e-07
6.10042e-07
6.05137e-07
6.00189e-07
5.95204e-07
5.90199e-07
5.85197e-07
5.80221e-07
5.75284e-07
8.97686e-06
8.37591e-06
7.8275e-06
7.32562e-06
6.86516e-06
6.44198e-06
6.05252e-06
5.69361e-06
5.36238e-06
5.05624e-06
4.77292e-06
4.51048e-06
4.26717e-06
4.04137e-06
3.83146e-06
3.63592e-06
3.45334e-06
3.28257e-06
3.12302e-06
7.31624e-07
7.25774e-07
7.19973e-07
7.14207e-07
7.0846e-07
7.02725e-07
6.97019e-07
6.91365e-07
6.85786e-07
6.80285e-07
6.74852e-07
6.69479e-07
6.6417e-07
6.58938e-07
6.53794e-07
6.48727e-07
6.43719e-07
6.38749e-07
6.33813e-07
6.28911e-07
6.24038e-07
6.19174e-07
6.14296e-07
6.09384e-07
6.04437e-07
5.99462e-07
5.9447e-07
5.89474e-07
5.8449e-07
5.79535e-07
5.74619e-07
8.97687e-06
8.37597e-06
7.82736e-06
7.32511e-06
6.86433e-06
6.44096e-06
6.05145e-06
5.69257e-06
5.36132e-06
5.05508e-06
4.77165e-06
4.50912e-06
4.26578e-06
4.03995e-06
3.82997e-06
3.63429e-06
3.45155e-06
3.28068e-06
3.12117e-06
7.31362e-07
7.25543e-07
7.19758e-07
7.13988e-07
7.08221e-07
7.02466e-07
6.96747e-07
6.9109e-07
6.85504e-07
6.79984e-07
6.74518e-07
6.69106e-07
6.63762e-07
6.58503e-07
6.53331e-07
6.48231e-07
6.43181e-07
6.38167e-07
6.33188e-07
6.28248e-07
6.23339e-07
6.18439e-07
6.13524e-07
6.08581e-07
6.03614e-07
5.98634e-07
5.93651e-07
5.88674e-07
5.83711e-07
5.78776e-07
5.73883e-07
8.97692e-06
8.37599e-06
7.82708e-06
7.32452e-06
6.86362e-06
6.44037e-06
6.05116e-06
5.6926e-06
5.36163e-06
5.05563e-06
4.77242e-06
4.51014e-06
4.26701e-06
4.0413e-06
3.8313e-06
3.6355e-06
3.45266e-06
3.28179e-06
3.12236e-06
7.31541e-07
7.25701e-07
7.19878e-07
7.14054e-07
7.08233e-07
7.02433e-07
6.96682e-07
6.90994e-07
6.85369e-07
6.79797e-07
6.74276e-07
6.68814e-07
6.63431e-07
6.58137e-07
6.52927e-07
6.47777e-07
6.42671e-07
6.37604e-07
6.32582e-07
6.27606e-07
6.22662e-07
6.17726e-07
6.1278e-07
6.0782e-07
6.02852e-07
5.97885e-07
5.92924e-07
5.87974e-07
5.83042e-07
5.78147e-07
5.73307e-07
8.97697e-06
8.37569e-06
7.82598e-06
7.3225e-06
6.86075e-06
6.43678e-06
6.04694e-06
5.68781e-06
5.35634e-06
5.04999e-06
4.7666e-06
4.50426e-06
4.26111e-06
4.03534e-06
3.82524e-06
3.6294e-06
3.44665e-06
3.27603e-06
3.11694e-06
7.30741e-07
7.24933e-07
7.19122e-07
7.13304e-07
7.07496e-07
7.01722e-07
6.95998e-07
6.90329e-07
6.84708e-07
6.79133e-07
6.73611e-07
6.68157e-07
6.62785e-07
6.57496e-07
6.52279e-07
6.47118e-07
6.42006e-07
6.36947e-07
6.31946e-07
6.26997e-07
6.22082e-07
6.17181e-07
6.12284e-07
6.07392e-07
6.02512e-07
5.97647e-07
5.92799e-07
5.87973e-07
5.83185e-07
5.78463e-07
5.73831e-07
8.977e-06
8.37555e-06
7.8259e-06
7.32291e-06
6.86187e-06
6.43863e-06
6.04938e-06
5.69067e-06
5.35951e-06
5.05339e-06
4.77019e-06
4.50792e-06
4.26466e-06
4.03859e-06
3.82812e-06
3.63194e-06
3.44897e-06
3.27818e-06
3.11887e-06
7.30989e-07
7.25116e-07
7.19243e-07
7.13377e-07
7.07544e-07
7.01763e-07
6.96041e-07
6.90378e-07
6.84772e-07
6.79232e-07
6.73768e-07
6.68388e-07
6.63097e-07
6.57892e-07
6.5277e-07
6.47727e-07
6.42767e-07
6.37892e-07
6.331e-07
6.28378e-07
6.23708e-07
6.19078e-07
6.14485e-07
6.09932e-07
6.05421e-07
6.00951e-07
5.96527e-07
5.92166e-07
5.87899e-07
5.83767e-07
5.7981e-07
8.97699e-06
8.37126e-06
7.81696e-06
7.31e-06
6.84588e-06
6.42051e-06
6.02997e-06
5.6707e-06
5.33962e-06
5.03414e-06
4.75193e-06
4.49086e-06
4.24887e-06
4.02414e-06
3.81515e-06
3.62061e-06
3.43939e-06
3.27037e-06
3.11276e-06
7.30337e-07
7.24726e-07
7.19098e-07
7.13394e-07
7.07762e-07
7.02259e-07
6.9691e-07
6.91717e-07
6.8668e-07
6.82023e-07
6.77608e-07
6.73337e-07
6.69159e-07
6.6506e-07
6.61044e-07
6.57122e-07
6.53305e-07
6.49597e-07
6.4599e-07
6.42473e-07
6.39034e-07
6.35663e-07
6.32355e-07
6.29105e-07
6.25906e-07
6.22759e-07
6.19674e-07
6.16685e-07
6.13843e-07
6.11216e-07
6.08885e-07
8.97872e-06
8.37782e-06
7.83116e-06
7.33228e-06
6.87719e-06
6.46334e-06
6.08583e-06
5.74055e-06
5.42406e-06
5.13344e-06
4.86614e-06
4.61982e-06
4.39233e-06
4.18183e-06
3.98678e-06
3.80588e-06
3.63793e-06
3.48172e-06
3.33618e-06
3.19973e-06
3.11634e-06
3.0955e-06
7.2795e-07
7.22306e-07
7.17073e-07
7.12544e-07
7.08751e-07
7.05682e-07
7.08959e-07
7.12978e-07
7.16674e-07
7.19602e-07
7.2167e-07
7.22959e-07
7.23603e-07
7.23743e-07
7.23499e-07
7.22964e-07
7.22209e-07
7.21288e-07
7.20234e-07
7.19067e-07
7.17794e-07
7.1642e-07
7.14957e-07
7.13437e-07
7.11914e-07
7.10468e-07
7.09213e-07
7.08346e-07
9.32846e-06
9.20319e-06
9.08346e-06
8.96915e-06
8.85918e-06
8.75052e-06
8.64307e-06
8.5369e-06
8.43217e-06
8.32897e-06
8.22733e-06
8.12717e-06
8.02846e-06
7.93124e-06
7.83563e-06
7.74166e-06
7.64921e-06
7.55808e-06
7.46811e-06
7.37919e-06
7.2672e-06
7.18003e-06
7.08655e-06
6.99005e-06
6.89254e-06
6.79544e-06
6.69972e-06
6.60595e-06
6.4955e-06
6.39501e-06
6.30223e-06
6.21546e-06
6.13344e-06
6.05517e-06
5.97987e-06
5.90698e-06
5.83617e-06
5.76723e-06
5.70007e-06
5.6346e-06
5.57074e-06
5.50833e-06
5.44723e-06
5.38729e-06
5.32842e-06
5.27052e-06
5.21345e-06
5.15695e-06
5.10066e-06
5.04412e-06
0.000248531
5.38966e-05
5.256e-05
4.89717e-05
3.79896e-05
2.6002e-05
1.69483e-05
1.13255e-05
8.10107e-06
6.44556e-06
5.95296e-06
6.38667e-06
7.51066e-06
9.17849e-06
1.13622e-05
1.37679e-05
1.5906e-05
1.73488e-05
1.96422e-05
0.000174921
0.000243018
5.34352e-05
5.30463e-05
4.92488e-05
3.78571e-05
2.56152e-05
1.65048e-05
1.09273e-05
7.75062e-06
6.11996e-06
5.65044e-06
6.11526e-06
7.26653e-06
8.98078e-06
1.12375e-05
1.37259e-05
1.59329e-05
1.74126e-05
1.98068e-05
0.000184028
0.000237459
5.29938e-05
5.35387e-05
4.95198e-05
3.77218e-05
2.52351e-05
1.60762e-05
1.05475e-05
7.41752e-06
5.80796e-06
5.3627e-06
5.83917e-06
7.00699e-06
8.74431e-06
1.10309e-05
1.35607e-05
1.5814e-05
1.73313e-05
1.98358e-05
0.000191662
0.000231854
5.25805e-05
5.40353e-05
4.97842e-05
3.75851e-05
2.48635e-05
1.56638e-05
1.01867e-05
7.10195e-06
5.50935e-06
5.0852e-06
5.57351e-06
6.75676e-06
8.516e-06
1.08313e-05
1.34008e-05
1.56986e-05
1.72524e-05
1.98718e-05
0.000199664
0.000226211
5.22003e-05
5.45359e-05
5.00435e-05
3.74496e-05
2.45029e-05
1.52694e-05
9.8457e-06
6.80421e-06
5.22391e-06
4.81788e-06
5.31718e-06
6.51598e-06
8.29627e-06
1.06391e-05
1.32467e-05
1.55871e-05
1.71761e-05
1.99154e-05
0.000208058
0.000220538
5.18554e-05
5.50399e-05
5.02989e-05
3.73177e-05
2.41557e-05
1.48944e-05
9.52515e-06
6.52443e-06
4.95186e-06
4.5587e-06
5.07008e-06
6.28517e-06
8.08556e-06
1.04546e-05
1.30984e-05
1.54795e-05
1.71024e-05
1.99669e-05
0.000216859
0.000214844
5.15475e-05
5.55462e-05
5.05514e-05
3.71919e-05
2.38241e-05
1.45402e-05
9.2254e-06
6.26259e-06
4.69342e-06
4.30917e-06
4.8328e-06
6.06479e-06
7.88435e-06
1.02783e-05
1.29564e-05
1.53761e-05
1.70314e-05
2.00266e-05
0.000226089
0.000209136
5.1277e-05
5.60539e-05
5.08021e-05
3.70744e-05
2.35103e-05
1.4208e-05
8.94671e-06
6.01858e-06
4.44889e-06
4.07132e-06
4.60691e-06
5.85557e-06
7.69319e-06
1.01106e-05
1.28212e-05
1.52773e-05
1.69632e-05
2.00948e-05
0.000235772
0.000203423
5.1044e-05
5.65615e-05
5.1052e-05
3.69674e-05
2.32161e-05
1.38988e-05
8.68928e-06
5.79237e-06
4.21903e-06
3.84469e-06
4.39441e-06
5.65853e-06
7.51269e-06
9.95205e-06
1.26931e-05
1.51832e-05
1.6898e-05
2.01722e-05
0.000245936
0.000197712
5.08482e-05
5.70678e-05
5.13017e-05
3.68728e-05
2.29433e-05
1.36134e-05
8.45311e-06
5.58391e-06
4.00515e-06
3.62686e-06
4.1954e-06
5.47464e-06
7.34373e-06
9.80319e-06
1.25724e-05
1.50938e-05
1.68356e-05
2.0259e-05
0.000256606
0.000192011
5.06888e-05
5.7571e-05
5.15521e-05
3.67925e-05
2.26935e-05
1.33525e-05
8.23802e-06
5.39295e-06
3.80867e-06
3.42258e-06
4.00886e-06
5.3038e-06
7.18661e-06
9.66458e-06
1.24595e-05
1.50095e-05
1.67759e-05
2.03555e-05
0.000267809
0.000186326
5.0565e-05
5.80696e-05
5.18038e-05
3.67284e-05
2.24681e-05
1.31165e-05
8.04371e-06
5.21911e-06
3.63052e-06
3.24493e-06
3.83747e-06
5.14593e-06
7.04104e-06
9.53606e-06
1.23546e-05
1.49303e-05
1.6719e-05
2.04622e-05
0.000279569
0.000180665
5.0476e-05
5.85624e-05
5.20581e-05
3.66823e-05
2.22686e-05
1.29059e-05
7.86991e-06
5.06214e-06
3.47141e-06
3.22358e-06
3.69491e-06
5.00234e-06
6.90737e-06
9.4176e-06
1.22574e-05
1.4856e-05
1.66648e-05
2.05796e-05
0.000291915
0.000175035
5.04213e-05
5.90488e-05
5.23163e-05
3.6656e-05
2.20959e-05
1.27206e-05
7.71637e-06
4.92215e-06
3.3329e-06
3.15912e-06
3.56918e-06
4.87327e-06
6.78605e-06
9.3096e-06
1.21679e-05
1.47863e-05
1.66129e-05
2.07081e-05
0.00030487
0.000169446
5.04003e-05
5.95286e-05
5.25799e-05
3.66512e-05
2.19511e-05
1.25609e-05
7.58272e-06
4.79936e-06
3.21872e-06
3.07104e-06
3.45337e-06
4.75703e-06
6.67645e-06
9.21208e-06
1.20866e-05
1.47216e-05
1.65634e-05
2.08481e-05
0.00031846
0.000163906
5.04123e-05
6.00016e-05
5.28505e-05
3.66696e-05
2.1835e-05
1.24268e-05
7.46867e-06
4.69353e-06
3.12854e-06
7.18892e-07
3.35221e-06
4.65289e-06
6.57737e-06
9.12395e-06
1.20129e-05
1.46618e-05
1.65168e-05
2.10006e-05
0.000332709
0.000158423
5.0456e-05
6.04679e-05
5.31293e-05
3.67122e-05
2.17483e-05
1.23185e-05
7.37435e-06
4.60506e-06
3.06201e-06
7.06429e-07
3.26847e-06
4.56201e-06
6.48905e-06
9.0447e-06
1.19459e-05
1.46064e-05
1.64726e-05
2.11663e-05
0.00034764
0.000153007
5.05299e-05
6.09278e-05
5.34174e-05
3.67799e-05
2.16912e-05
1.22357e-05
7.29977e-06
4.53498e-06
7.19197e-07
6.82422e-07
3.19066e-06
4.4829e-06
6.41139e-06
8.9746e-06
1.18858e-05
1.45552e-05
1.64309e-05
2.13455e-05
0.000363273
0.000147664
5.06315e-05
6.13812e-05
5.37158e-05
3.68732e-05
2.16634e-05
1.21778e-05
7.24446e-06
4.48626e-06
7.15755e-07
6.62686e-07
3.10258e-06
4.41122e-06
6.34202e-06
8.91257e-06
1.18323e-05
1.45082e-05
1.63916e-05
2.15387e-05
0.000379623
0.000142402
5.07578e-05
6.18274e-05
5.40244e-05
3.69921e-05
2.16651e-05
1.21446e-05
7.20794e-06
4.45632e-06
7.09328e-07
6.71538e-07
7.23835e-07
4.34549e-06
6.27924e-06
8.85721e-06
1.17843e-05
1.4465e-05
1.63546e-05
2.17465e-05
0.000396704
0.000137226
5.0906e-05
6.22658e-05
5.43426e-05
3.71358e-05
2.16955e-05
1.21359e-05
7.1906e-06
4.4451e-06
7.05906e-07
6.71861e-07
7.19199e-07
4.28593e-06
6.22299e-06
8.80766e-06
1.17409e-05
1.44247e-05
1.63194e-05
2.19693e-05
0.000414527
0.000132142
5.10731e-05
6.2696e-05
5.46702e-05
3.73034e-05
2.17531e-05
1.21501e-05
7.19198e-06
4.45683e-06
7.06355e-07
6.35504e-07
7.1809e-07
4.23422e-06
6.17334e-06
8.76378e-06
1.17018e-05
1.4387e-05
1.62858e-05
2.2207e-05
0.0004331
0.000127152
5.12565e-05
6.31176e-05
5.50114e-05
3.74981e-05
2.18404e-05
1.21846e-05
7.20838e-06
4.47786e-06
7.08529e-07
6.1737e-07
7.15498e-07
4.18644e-06
6.12806e-06
8.72427e-06
1.16661e-05
1.43515e-05
1.62535e-05
2.24601e-05
0.000452433
0.000122263
5.1449e-05
6.35412e-05
5.53773e-05
3.77206e-05
2.19489e-05
1.22321e-05
7.23316e-06
4.50408e-06
7.10622e-07
6.38165e-07
7.12977e-07
4.14173e-06
6.08611e-06
8.68812e-06
1.16332e-05
1.43177e-05
1.62222e-05
2.2729e-05
0.00047254
0.000117477
5.16484e-05
6.39704e-05
5.57658e-05
3.79691e-05
2.2077e-05
1.22921e-05
7.26652e-06
4.53671e-06
7.11915e-07
6.43807e-07
7.11301e-07
4.09842e-06
6.04713e-06
8.65495e-06
1.16027e-05
1.42852e-05
1.61918e-05
2.30143e-05
0.000493441
0.000112817
5.18394e-05
6.44063e-05
5.61772e-05
3.82429e-05
2.22232e-05
1.2363e-05
7.30765e-06
4.57679e-06
7.14154e-07
6.42835e-07
7.10259e-07
4.05546e-06
6.01098e-06
8.62478e-06
1.15746e-05
1.42542e-05
1.61623e-05
2.33192e-05
0.000515157
0.000108286
5.20214e-05
6.48494e-05
5.66122e-05
3.8542e-05
2.23871e-05
1.24437e-05
7.35441e-06
4.61949e-06
7.17144e-07
6.47908e-07
7.09202e-07
4.01264e-06
5.9776e-06
8.59768e-06
1.15492e-05
1.42249e-05
1.61339e-05
2.36874e-05
0.000537603
0.000103884
5.2195e-05
6.53002e-05
5.70708e-05
3.88668e-05
2.2569e-05
1.25345e-05
7.40681e-06
4.66618e-06
3.06142e-06
6.58631e-07
7.09195e-07
3.9728e-06
5.94623e-06