/*--------------------------------*- C++ -*----------------------------------*\
  =========                 |
  \\      /  F ield         | OpenFOAM: The Open Source CFD Toolbox
   \\    /   O peration     | Website:  https://openfoam.org
    \\  /    A nd           | Version:  8
     \\/     M anipulation  |
\*---------------------------------------------------------------------------*/
FoamFile
{
    version     2.0;
    format      ascii;
    class       volScalarField;
    location    "200";
    object      k;
}
// * * * * * * * * * * * * * * * * * * * * * * * * * * * * * * * * * * * * * //

dimensions      [0 2 -2 0 0 0 0];

internalField   nonuniform List<scalar> 
8400
(
0.00220695
0.00212961
0.00204872
0.0019694
0.00189334
0.00182459
0.00176435
0.00171209
0.00166709
0.00163035
0.0016057
0.00159865
0.00161012
0.0016286
0.00163815
0.00163748
0.00163654
0.00164428
0.00166727
0.00170714
0.00176069
0.00182555
0.00189952
0.00197986
0.0020613
0.00213856
0.00220789
0.00226621
0.00231184
0.00234447
0.00236447
0.00237292
0.00237137
0.00236136
0.00234449
0.00232225
0.00229648
0.00227103
0.00224594
0.00222113
0.00219648
0.00217205
0.00214781
0.00212379
0.00210001
0.00207647
0.00205315
0.00203005
0.00200723
0.0019847
0.00123112
0.00128407
0.00134355
0.00140738
0.00146839
0.00151184
0.00152708
0.0015067
0.00144534
0.00134006
0.00119581
0.001034
0.000893178
0.000802979
0.000754934
0.000722378
0.000689301
0.000650913
0.000606085
0.000561066
0.000525462
0.000502736
0.000492206
0.00049297
0.00050289
0.000517527
0.000533312
0.000548447
0.000562052
0.000573944
0.000584092
0.000592596
0.000599649
0.000605425
0.000610112
0.000613897
0.000616619
0.000616238
0.000613565
0.000609211
0.000603718
0.000597456
0.000590702
0.000583739
0.000576831
0.000570201
0.000564135
0.000558991
0.00055512
0.000552986
0.00218138
0.00224149
0.00233004
0.00241228
0.00247168
0.0025035
0.00250445
0.00246967
0.00238811
0.00224337
0.00201965
0.00172167
0.00141517
0.00121842
0.00114694
0.00110831
0.0010588
0.00099175
0.000892562
0.000768001
0.0006485
0.000554622
0.000479547
0.0004242
0.000395875
0.000388593
0.000390003
0.000394913
0.000399983
0.000404385
0.00040819
0.00041151
0.000414454
0.000417111
0.000419523
0.000421743
0.000423672
0.000424924
0.000425664
0.000426031
0.000426158
0.000426155
0.000426108
0.000426082
0.000426133
0.000426322
0.00042669
0.000427263
0.000428083
0.000429212
0.00299092
0.00298058
0.00297008
0.00295936
0.00294821
0.00293626
0.00292296
0.00290761
0.00288933
0.00286693
0.00283956
0.00280532
0.00275984
0.00266584
0.00238007
0.00161743
0.00160552
0.00158193
0.00146605
0.00125692
0.0010049
0.00085721
0.000702234
0.000541193
0.000429287
0.000384165
0.00036399
0.000362382
0.000367303
0.000371997
0.00037598
0.000379201
0.00038184
0.000384048
0.000385936
0.000387559
0.000389074
0.000390424
0.000391639
0.000392766
0.000393844
0.000394903
0.000395959
0.000397031
0.000398146
0.000399315
0.000400534
0.000401819
0.00040319
0.000404658
0.00299305
0.0029851
0.00297695
0.00296857
0.0029599
0.00295084
0.00294122
0.00293079
0.0029192
0.00290601
0.00288972
0.00286838
0.00283833
0.00278028
0.00265374
0.00248433
0.00242899
0.00241438
0.00238755
0.00224753
0.00143159
0.0014079
0.00122834
0.000881729
0.000575854
0.000470842
0.000378164
0.000338249
0.000338412
0.000341915
0.000346711
0.000350471
0.000353444
0.000355829
0.000357744
0.000359376
0.000360814
0.000362034
0.000363089
0.000364024
0.000364868
0.000365644
0.00036637
0.00036708
0.000367792
0.000368509
0.00036925
0.000370046
0.000370922
0.000371897
0.00299162
0.00298205
0.00297228
0.00296233
0.00295222
0.00294196
0.00293153
0.00292086
0.00290976
0.00289791
0.00288463
0.00286874
0.0028481
0.00281525
0.00275827
0.00268749
0.00263101
0.00258601
0.00254117
0.00247577
0.00239955
0.00238734
0.00235434
0.00168229
0.000860699
0.000832308
0.000542194
0.000340348
0.000322187
0.000310693
0.000315677
0.000319613
0.000322667
0.000325118
0.000327069
0.000328838
0.00033019
0.000331226
0.00033202
0.000332624
0.000333079
0.000333425
0.000333698
0.000333917
0.000334099
0.000334276
0.000334476
0.00033472
0.000335032
0.000335442
0.00299072
0.00297999
0.00296898
0.00295773
0.00294628
0.00293469
0.002923
0.00291132
0.00289962
0.00288782
0.00287556
0.00286209
0.00284612
0.0028244
0.00279253
0.00275233
0.0027108
0.00267013
0.00262896
0.00258372
0.00253809
0.00250034
0.00245785
0.00233171
0.00227985
0.00223936
0.00119072
0.000415636
0.000403368
0.000285883
0.00028817
0.000291225
0.00029403
0.000296591
0.000298804
0.000300514
0.000301712
0.000302519
0.000303037
0.000303305
0.000303384
0.000303336
0.00030319
0.000302965
0.0003027
0.000302427
0.00030216
0.000301924
0.000301751
0.000301674
0.00298936
0.00297689
0.00296418
0.00295126
0.00293815
0.00292496
0.0029118
0.00289885
0.00288619
0.00287396
0.00286201
0.00284984
0.00283656
0.0028204
0.00279905
0.00277218
0.00274156
0.00270854
0.00267353
0.00263617
0.00259764
0.00255935
0.00251856
0.00245863
0.00240241
0.00234079
0.00207622
0.00186988
0.0017556
0.000282781
0.000269871
0.000268768
0.000269022
0.000272235
0.00027465
0.000276289
0.000277368
0.00027798
0.000278228
0.000278232
0.000278068
0.000277769
0.00027737
0.000276921
0.00027646
0.000276004
0.000275582
0.000275234
0.00027498
0.000274847
0.00298744
0.00297241
0.00295726
0.002942
0.00292665
0.00291135
0.00289626
0.00288169
0.00286782
0.00285489
0.00284294
0.0028316
0.00282015
0.00280728
0.00279139
0.0027716
0.00274806
0.00272135
0.00269185
0.00265973
0.00262555
0.00258969
0.00255135
0.00250575
0.00245621
0.00239966
0.00227833
0.00213618
0.00197616
0.00153754
0.00125641
0.000878814
0.000257105
0.000254826
0.000255584
0.000256423
0.00025755
0.000258042
0.000258104
0.000257951
0.000257649
0.000257247
0.000256801
0.000256363
0.000255959
0.000255625
0.000255419
0.000255368
0.000255486
0.0002558
0.0029845
0.00296541
0.00294655
0.00292788
0.00290944
0.00289134
0.00287385
0.00285731
0.00284217
0.00282865
0.00281687
0.00280649
0.00279672
0.00278643
0.00277415
0.00275888
0.00274026
0.0027183
0.00269325
0.00266531
0.0026347
0.00260161
0.00256581
0.00252556
0.00248094
0.00243006
0.00235181
0.00225107
0.00212117
0.00189017
0.00165053
0.00137151
0.00102714
0.000758744
0.000505033
0.000247435
0.000243824
0.000243198
0.000242552
0.000241911
0.000241273
0.00024064
0.000240041
0.000239499
0.000239007
0.000238647
0.000238522
0.000238619
0.000238936
0.000239568
0.00297951
0.00295317
0.00292839
0.00290471
0.00288201
0.00286032
0.00284007
0.00282169
0.00280571
0.00279243
0.00278174
0.0027732
0.00276585
0.00275829
0.00274919
0.00273745
0.00272256
0.00270435
0.00268288
0.00265829
0.00263073
0.00260032
0.00256692
0.00252986
0.00248875
0.00244228
0.00238143
0.00230395
0.0022028
0.00205208
0.00187322
0.0016635
0.00142091
0.00118219
0.000948492
0.000715452
0.000541756
0.000416672
0.000332216
0.000280567
0.000252293
0.00023818
0.000231501
0.000228233
0.000226366
0.000225156
0.00022443
0.000223986
0.000223705
0.00022377
0.00296889
0.00292675
0.00289282
0.00286281
0.00283528
0.0028102
0.00278809
0.00276918
0.00275443
0.00274366
0.00273644
0.00273162
0.0027279
0.0027238
0.00271792
0.00270926
0.00269739
0.00268215
0.00266353
0.00264165
0.00261665
0.00258859
0.00255744
0.00252283
0.00248446
0.00244149
0.00238945
0.0023256
0.00224461
0.00213497
0.00200086
0.00184304
0.00166389
0.00147671
0.00128733
0.00109782
0.000922797
0.000768927
0.000638576
0.00053208
0.000448108
0.000383958
0.000336119
0.000300979
0.000275401
0.000256873
0.000243489
0.000233824
0.000226858
0.000221919
0.00291184
0.00286391
0.00282467
0.00279031
0.00276042
0.00273496
0.0027151
0.00270044
0.00269109
0.0026863
0.00268469
0.00268504
0.00268571
0.00268509
0.00268199
0.00267582
0.00266618
0.00265312
0.00263671
0.00261692
0.00259398
0.00256792
0.00253871
0.00250626
0.00247025
0.00243012
0.00238356
0.00232845
0.00226113
0.00217578
0.00207259
0.00195235
0.00181757
0.00167433
0.0015272
0.00137917
0.00123521
0.00109932
0.000973917
0.000860295
0.000759031
0.000670086
0.000592906
0.000526615
0.000470161
0.000422403
0.00038221
0.000348512
0.000320352
0.000296878
0.00281722
0.00276911
0.0027299
0.00269789
0.00267288
0.00265475
0.00264274
0.00263613
0.00263384
0.00263443
0.00263701
0.00264019
0.00264279
0.00264387
0.00264232
0.00263779
0.0026299
0.00261857
0.00260302
0.00258449
0.00256314
0.00253873
0.00251125
0.00248066
0.00244675
0.00240921
0.00236671
0.00231778
0.00226012
0.00219069
0.00210905
0.00201582
0.0019129
0.00180366
0.00169117
0.00157772
0.00146568
0.00135701
0.00125306
0.00115463
0.00106215
0.000975812
0.000895631
0.000821496
0.000753233
0.00069058
0.000633215
0.000580789
0.000532952
0.000489325
0.00269847
0.00266106
0.00263235
0.00261146
0.0025973
0.00258872
0.00258468
0.00258392
0.00258563
0.00258866
0.0025923
0.00259584
0.00259839
0.00259923
0.0025978
0.0025937
0.00258651
0.002576
0.00256198
0.00254508
0.00252538
0.00250224
0.00247453
0.0024457
0.00241383
0.00237876
0.00233966
0.00229563
0.0022454
0.00218741
0.00212134
0.00204775
0.00196816
0.00188458
0.00179886
0.00171256
0.00162702
0.00154319
0.00146174
0.00138302
0.0013072
0.00123434
0.00116441
0.00109735
0.0010331
0.000971521
0.000912485
0.000855871
0.000801513
0.000749197
0.00258759
0.00256682
0.00255214
0.00254257
0.00253715
0.00253483
0.00253482
0.00253639
0.00253897
0.002542
0.00254494
0.00254735
0.00254871
0.00254848
0.00254629
0.00254172
0.00253444
0.00252431
0.00251129
0.00249549
0.00247688
0.00245516
0.00243008
0.00240357
0.00237035
0.00233776
0.00230193
0.00226229
0.00221821
0.00216905
0.00211482
0.00205616
0.00199405
0.00192972
0.0018643
0.00179877
0.00173387
0.00167005
0.00160757
0.00154657
0.00148708
0.00142905
0.00137243
0.00131709
0.00126293
0.0012098
0.00115762
0.00110624
0.00105544
0.001005
0.00249907
0.00249101
0.0024857
0.0024827
0.00248145
0.0024815
0.00248249
0.00248404
0.00248583
0.00248757
0.00248894
0.00248962
0.00248926
0.00248747
0.00248398
0.00247846
0.00247068
0.00246051
0.00244784
0.00243267
0.00241495
0.00239463
0.00237184
0.00234717
0.00231804
0.00228658
0.00225163
0.00221608
0.00217752
0.00213582
0.00209127
0.00204438
0.00199575
0.00194613
0.00189623
0.00184655
0.00179744
0.00174908
0.00170155
0.00165489
0.00160906
0.00156398
0.00151956
0.00147567
0.00143218
0.00138902
0.00134608
0.00130315
0.00126002
0.00121647
0.00242046
0.00241823
0.00241674
0.00241593
0.00241566
0.00241576
0.00241607
0.00241645
0.0024167
0.00241665
0.00241611
0.0024148
0.00241253
0.00240903
0.00240402
0.00239732
0.00238872
0.00237815
0.00236551
0.00235076
0.00233395
0.00231507
0.00229428
0.00227171
0.00224648
0.00221946
0.00218753
0.00215278
0.00211942
0.00208448
0.00204823
0.00201105
0.0019733
0.00193534
0.00189757
0.0018602
0.00182329
0.00178693
0.00175112
0.00171585
0.00168103
0.00164658
0.0016124
0.0015784
0.0015445
0.00151063
0.00147666
0.00144241
0.00140775
0.00137249
0.00232629
0.00232523
0.00232413
0.00232301
0.0023219
0.00232075
0.00231949
0.00231805
0.00231633
0.0023142
0.00231153
0.00230812
0.00230385
0.00229852
0.00229194
0.00228398
0.00227451
0.00226348
0.00225082
0.00223653
0.00222068
0.00220332
0.00218452
0.00216444
0.002143
0.00212048
0.00209602
0.00206464
0.00203371
0.00200479
0.0019761
0.00194759
0.00191929
0.00189131
0.00186378
0.00183667
0.00181
0.00178381
0.00175803
0.00173259
0.00170743
0.00168248
0.00165764
0.00163287
0.00160811
0.00158327
0.00155824
0.00153295
0.00150731
0.00148113
0.00313423
0.00308857
0.00304352
0.00299793
0.00295176
0.00290504
0.00285789
0.0028105
0.00276308
0.00271584
0.00266899
0.00262265
0.00257697
0.00253201
0.00248775
0.00244418
0.00240123
0.00235879
0.00231678
0.00227514
0.00223376
0.00219252
0.00215142
0.00211059
0.00207059
0.00203234
0.0019965
0.00196331
0.00192529
0.00191889
0.00192114
0.00192823
0.00193859
0.00195146
0.00196641
0.00198324
0.00200178
0.00202186
0.00204322
0.00206564
0.00208891
0.0021128
0.00213711
0.00216164
0.0021862
0.00221053
0.0022344
0.0022575
0.00227925
0.00229863
2.38383e-05
2.3631e-05
2.34298e-05
2.32366e-05
2.30478e-05
2.28575e-05
2.26656e-05
2.24732e-05
2.22815e-05
2.20915e-05
2.19038e-05
2.17191e-05
2.15376e-05
2.13599e-05
2.11862e-05
2.10168e-05
2.08512e-05
2.06884e-05
2.05275e-05
2.03673e-05
2.02069e-05
1.99988e-05
1.97888e-05
1.95823e-05
1.93812e-05
1.91866e-05
1.89993e-05
1.88193e-05
1.86466e-05
1.84811e-05
1.83226e-05
1.81711e-05
1.80265e-05
1.78883e-05
1.7756e-05
1.76292e-05
1.7507e-05
1.7389e-05
1.72743e-05
1.71625e-05
1.70531e-05
1.69458e-05
1.6838e-05
1.67299e-05
1.66211e-05
1.65114e-05
1.64006e-05
1.62879e-05
1.61711e-05
1.60452e-05
2.32426e-05
2.22076e-05
2.12366e-05
2.0325e-05
1.94719e-05
1.86767e-05
1.79347e-05
1.72421e-05
1.65957e-05
1.59923e-05
1.5429e-05
1.49029e-05
1.44115e-05
1.39521e-05
1.35221e-05
1.31183e-05
1.27375e-05
1.23766e-05
1.20331e-05
1.17051e-05
1.15984e-05
1.15451e-05
1.15082e-05
1.1482e-05
1.14605e-05
1.14394e-05
1.1416e-05
1.13898e-05
1.13621e-05
1.13349e-05
1.13104e-05
1.12899e-05
1.12742e-05
1.12629e-05
1.12553e-05
1.125e-05
1.12457e-05
1.12407e-05
1.12336e-05
1.12224e-05
1.12058e-05
1.11829e-05
1.11549e-05
1.1121e-05
1.1081e-05
1.10351e-05
1.09838e-05
1.09277e-05
1.08683e-05
1.08078e-05
2.32372e-05
2.21902e-05
2.12061e-05
2.02805e-05
1.94104e-05
1.85928e-05
1.78244e-05
1.71024e-05
1.64236e-05
1.57855e-05
1.51854e-05
1.4621e-05
1.40899e-05
1.35899e-05
1.31186e-05
1.26734e-05
1.22517e-05
1.18509e-05
1.14698e-05
1.13842e-05
1.12963e-05
1.12078e-05
1.11181e-05
1.10282e-05
1.0939e-05
1.08515e-05
1.07663e-05
1.0684e-05
1.06053e-05
1.05307e-05
1.04609e-05
1.03958e-05
1.03354e-05
1.02792e-05
1.02266e-05
1.01768e-05
1.01291e-05
1.00824e-05
1.0036e-05
9.9894e-06
9.94184e-06
9.89272e-06
9.84161e-06
9.78826e-06
9.73252e-06
9.67424e-06
9.61303e-06
9.54822e-06
9.47957e-06
9.40905e-06
2.32382e-05
2.21969e-05
2.122e-05
2.0302e-05
1.94387e-05
1.86263e-05
1.78616e-05
1.71416e-05
1.64637e-05
1.58254e-05
1.52243e-05
1.46582e-05
1.41248e-05
1.36219e-05
1.31472e-05
1.2698e-05
1.2272e-05
1.18669e-05
1.14816e-05
1.13914e-05
1.13009e-05
1.12088e-05
1.1115e-05
1.10198e-05
1.09239e-05
1.08282e-05
1.07336e-05
1.06411e-05
1.05515e-05
1.04657e-05
1.0384e-05
1.03064e-05
1.02328e-05
1.01625e-05
1.00951e-05
1.00301e-05
9.96681e-06
9.90457e-06
9.84262e-06
9.78026e-06
9.71696e-06
9.65237e-06
9.58627e-06
9.51859e-06
9.44947e-06
9.37928e-06
9.30841e-06
9.23678e-06
9.16354e-06
9.08875e-06
2.32388e-05
2.21971e-05
2.1219e-05
2.02997e-05
1.94353e-05
1.86219e-05
1.78563e-05
1.71355e-05
1.6457e-05
1.58185e-05
1.52176e-05
1.46519e-05
1.41191e-05
1.36167e-05
1.31423e-05
1.26935e-05
1.22678e-05
1.1863e-05
1.14781e-05
1.13882e-05
1.12972e-05
1.12043e-05
1.11093e-05
1.10128e-05
1.09157e-05
1.0819e-05
1.07236e-05
1.06305e-05
1.05407e-05
1.04548e-05
1.0373e-05
1.02952e-05
1.02209e-05
1.01496e-05
1.00811e-05
1.00147e-05
9.94972e-06
9.88541e-06
9.82093e-06
9.75565e-06
9.68916e-06
9.62124e-06
9.55176e-06
9.48058e-06
9.40767e-06
9.33321e-06
9.25776e-06
9.18205e-06
9.1061e-06
9.02979e-06
2.32385e-05
2.21974e-05
2.12202e-05
2.03025e-05
1.94399e-05
1.86284e-05
1.78644e-05
1.71451e-05
1.6468e-05
1.58308e-05
1.52311e-05
1.46663e-05
1.41341e-05
1.36321e-05
1.31579e-05
1.2709e-05
1.22831e-05
1.1878e-05
1.14928e-05
1.14025e-05
1.13116e-05
1.12191e-05
1.11248e-05
1.10289e-05
1.0932e-05
1.08351e-05
1.07391e-05
1.06453e-05
1.05546e-05
1.04677e-05
1.03846e-05
1.03053e-05
1.02294e-05
1.01566e-05
1.00865e-05
1.00187e-05
9.95232e-06
9.88646e-06
9.82036e-06
9.75348e-06
9.68551e-06
9.61628e-06
9.54571e-06
9.47377e-06
9.40044e-06
9.32567e-06
9.24965e-06
9.17293e-06
9.09594e-06
9.01883e-06
2.32381e-05
2.2197e-05
2.12204e-05
2.03031e-05
1.94406e-05
1.86289e-05
1.78647e-05
1.71451e-05
1.64679e-05
1.58307e-05
1.52309e-05
1.46661e-05
1.41338e-05
1.36316e-05
1.31573e-05
1.27082e-05
1.22821e-05
1.18768e-05
1.14915e-05
1.14011e-05
1.13095e-05
1.12157e-05
1.11196e-05
1.10219e-05
1.09236e-05
1.08257e-05
1.07296e-05
1.06363e-05
1.05465e-05
1.04607e-05
1.03788e-05
1.03004e-05
1.02254e-05
1.01535e-05
1.00842e-05
1.00168e-05
9.95044e-06
9.88429e-06
9.81768e-06
9.7502e-06
9.68161e-06
9.61172e-06
9.54046e-06
9.46787e-06
9.39409e-06
9.31924e-06
9.24336e-06
9.1667e-06
9.0896e-06
9.01231e-06
2.32379e-05
2.21969e-05
2.12206e-05
2.03036e-05
1.94413e-05
1.86298e-05
1.7866e-05
1.71471e-05
1.64707e-05
1.58343e-05
1.52352e-05
1.46709e-05
1.41391e-05
1.36373e-05
1.31632e-05
1.27142e-05
1.22881e-05
1.18829e-05
1.14976e-05
1.14066e-05
1.13138e-05
1.12184e-05
1.11209e-05
1.10222e-05
1.09235e-05
1.08257e-05
1.07301e-05
1.06374e-05
1.05483e-05
1.04629e-05
1.03811e-05
1.03028e-05
1.02278e-05
1.01557e-05
1.0086e-05
1.00178e-05
9.95047e-06
9.88313e-06
9.81533e-06
9.74677e-06
9.67721e-06
9.60648e-06
9.53448e-06
9.46123e-06
9.38689e-06
9.31163e-06
9.23555e-06
9.15881e-06
9.08164e-06
9.00426e-06
2.32379e-05
2.21969e-05
2.12205e-05
2.03033e-05
1.94408e-05
1.86294e-05
1.78659e-05
1.71476e-05
1.64718e-05
1.58358e-05
1.52368e-05
1.46726e-05
1.41408e-05
1.3639e-05
1.31648e-05
1.27156e-05
1.22894e-05
1.18841e-05
1.14985e-05
1.14029e-05
1.13033e-05
1.12019e-05
1.1101e-05
1.10018e-05
1.09051e-05
1.08111e-05
1.07199e-05
1.06317e-05
1.05465e-05
1.04643e-05
1.0385e-05
1.03083e-05
1.02343e-05
1.01624e-05
1.00922e-05
1.0023e-05
9.95414e-06
9.88512e-06
9.81561e-06
9.74537e-06
9.67423e-06
9.60209e-06
9.52895e-06
9.45482e-06
9.37977e-06
9.30389e-06
9.2273e-06
9.1502e-06
9.07281e-06
8.9953e-06
2.32379e-05
2.21966e-05
2.12198e-05
2.03022e-05
1.94397e-05
1.86287e-05
1.7866e-05
1.71485e-05
1.64734e-05
1.58377e-05
1.52391e-05
1.46751e-05
1.41435e-05
1.36418e-05
1.31676e-05
1.27185e-05
1.22923e-05
1.1887e-05
1.15013e-05
1.14103e-05
1.13182e-05
1.12245e-05
1.11295e-05
1.1034e-05
1.09384e-05
1.08435e-05
1.07499e-05
1.06584e-05
1.05697e-05
1.0484e-05
1.04016e-05
1.03223e-05
1.02458e-05
1.01717e-05
1.00994e-05
1.00281e-05
9.95734e-06
9.88654e-06
9.81538e-06
9.74356e-06
9.67091e-06
9.59743e-06
9.52318e-06
9.44819e-06
9.37242e-06
9.29591e-06
9.2188e-06
9.14132e-06
9.06371e-06
8.98609e-06
2.32378e-05
2.21959e-05
2.12186e-05
2.03008e-05
1.94387e-05
1.86283e-05
1.78664e-05
1.71495e-05
1.64748e-05
1.58395e-05
1.5241e-05
1.46772e-05
1.41458e-05
1.36441e-05
1.31699e-05
1.27207e-05
1.22944e-05
1.18889e-05
1.15028e-05
1.14115e-05
1.13192e-05
1.12255e-05
1.11308e-05
1.10355e-05
1.09401e-05
1.08452e-05
1.07516e-05
1.06601e-05
1.05716e-05
1.04863e-05
1.04042e-05
1.03252e-05
1.02488e-05
1.01746e-05
1.01019e-05
1.00299e-05
9.95826e-06
9.88642e-06
9.81405e-06
9.74095e-06
9.66702e-06
9.59233e-06
9.517e-06
9.44105e-06
9.36445e-06
9.28725e-06
9.20964e-06
9.13188e-06
9.05414e-06
8.97648e-06
2.32376e-05
2.21951e-05
2.12175e-05
2.02999e-05
1.94382e-05
1.86284e-05
1.7867e-05
1.71505e-05
1.6476e-05
1.58409e-05
1.52427e-05
1.4679e-05
1.41476e-05
1.36459e-05
1.31715e-05
1.27221e-05
1.22956e-05
1.18897e-05
1.15031e-05
1.14114e-05
1.13194e-05
1.12269e-05
1.11341e-05
1.10413e-05
1.09485e-05
1.08562e-05
1.07651e-05
1.06758e-05
1.0589e-05
1.05048e-05
1.04232e-05
1.03439e-05
1.02666e-05
1.01908e-05
1.01162e-05
1.0042e-05
9.96787e-06
9.89343e-06
9.81845e-06
9.74281e-06
9.66653e-06
9.58973e-06
9.5125e-06
9.4349e-06
9.35694e-06
9.27871e-06
9.20042e-06
9.12225e-06
9.04427e-06
8.96647e-06
2.32373e-05
2.21946e-05
2.12172e-05
2.02998e-05
1.94384e-05
1.86289e-05
1.78677e-05
1.71515e-05
1.64774e-05
1.58426e-05
1.52448e-05
1.46815e-05
1.41503e-05
1.36487e-05
1.31744e-05
1.27251e-05
1.22983e-05
1.1892e-05
1.1505e-05
1.14128e-05
1.13206e-05
1.12282e-05
1.11356e-05
1.10429e-05
1.09502e-05
1.08581e-05
1.07674e-05
1.06786e-05
1.05922e-05
1.05082e-05
1.04265e-05
1.03468e-05
1.0269e-05
1.01926e-05
1.0117e-05
1.00417e-05
9.96635e-06
9.89055e-06
9.81416e-06
9.73713e-06
9.65952e-06
9.58147e-06
9.50313e-06
9.42456e-06
9.34588e-06
9.26722e-06
9.18873e-06
9.11051e-06
9.03255e-06
8.95481e-06
2.32372e-05
2.21947e-05
2.12174e-05
2.03e-05
1.94384e-05
1.86285e-05
1.78671e-05
1.71507e-05
1.64766e-05
1.58419e-05
1.5244e-05
1.46806e-05
1.41493e-05
1.36475e-05
1.31729e-05
1.27232e-05
1.22959e-05
1.1889e-05
1.15016e-05
1.14095e-05
1.13174e-05
1.12251e-05
1.11325e-05
1.10396e-05
1.09468e-05
1.08547e-05
1.07641e-05
1.06755e-05
1.05891e-05
1.0505e-05
1.04231e-05
1.03432e-05
1.0265e-05
1.01881e-05
1.01119e-05
1.00359e-05
9.95964e-06
9.88295e-06
9.80565e-06
9.72767e-06
9.64911e-06
9.57017e-06
9.49106e-06
9.41193e-06
9.33291e-06
9.25414e-06
9.17569e-06
9.09757e-06
9.01979e-06
8.9423e-06
2.32373e-05
2.2195e-05
2.12177e-05
2.03001e-05
1.94382e-05
1.86285e-05
1.78675e-05
1.71519e-05
1.64785e-05
1.58446e-05
1.52475e-05
1.46847e-05
1.41538e-05
1.36523e-05
1.31778e-05
1.27279e-05
1.23004e-05
1.18932e-05
1.15055e-05
1.14129e-05
1.13203e-05
1.12273e-05
1.11339e-05
1.10403e-05
1.0947e-05
1.08545e-05
1.07636e-05
1.06747e-05
1.05879e-05
1.05034e-05
1.04209e-05
1.03405e-05
1.02617e-05
1.01841e-05
1.01071e-05
1.00301e-05
9.95302e-06
9.87542e-06
9.79719e-06
9.71829e-06
9.63886e-06
9.55917e-06
9.47951e-06
9.40007e-06
9.32098e-06
9.24232e-06
9.16415e-06
9.08647e-06
9.0093e-06
8.93261e-06
2.32375e-05
2.21948e-05
2.12162e-05
2.0297e-05
1.94334e-05
1.86222e-05
1.78599e-05
1.71432e-05
1.64689e-05
1.58342e-05
1.52366e-05
1.46735e-05
1.41423e-05
1.36406e-05
1.31657e-05
1.27154e-05
1.22876e-05
1.18803e-05
1.14927e-05
1.14006e-05
1.13084e-05
1.12157e-05
1.11226e-05
1.10292e-05
1.09362e-05
1.08442e-05
1.07538e-05
1.06654e-05
1.0579e-05
1.04948e-05
1.04126e-05
1.03323e-05
1.02536e-05
1.01759e-05
1.00988e-05
1.00217e-05
9.94452e-06
9.86688e-06
9.78866e-06
9.70989e-06
9.63076e-06
9.5516e-06
9.47274e-06
9.39438e-06
9.31664e-06
9.23962e-06
9.16339e-06
9.08805e-06
9.01362e-06
8.94011e-06
2.32376e-05
2.21946e-05
2.12161e-05
2.02978e-05
1.94357e-05
1.86262e-05
1.78656e-05
1.71501e-05
1.64768e-05
1.58429e-05
1.52458e-05
1.4683e-05
1.41518e-05
1.36495e-05
1.31739e-05
1.27228e-05
1.22941e-05
1.18861e-05
1.14977e-05
1.14046e-05
1.13115e-05
1.1218e-05
1.11242e-05
1.10303e-05
1.09371e-05
1.0845e-05
1.07549e-05
1.06669e-05
1.05813e-05
1.04979e-05
1.0417e-05
1.03381e-05
1.02609e-05
1.01849e-05
1.01097e-05
1.00349e-05
9.9602e-06
9.88546e-06
9.81053e-06
9.73546e-06
9.66049e-06
9.58597e-06
9.51222e-06
9.43947e-06
9.36787e-06
9.29762e-06
9.22889e-06
9.16185e-06
9.09672e-06
9.03372e-06
2.32375e-05
2.21868e-05
2.11998e-05
2.02739e-05
1.94058e-05
1.85919e-05
1.78282e-05
1.71111e-05
1.64372e-05
1.58038e-05
1.52081e-05
1.46471e-05
1.41179e-05
1.36179e-05
1.31449e-05
1.26968e-05
1.22714e-05
1.18669e-05
1.14821e-05
1.13939e-05
1.13035e-05
1.12131e-05
1.11254e-05
1.10364e-05
1.09477e-05
1.08606e-05
1.07763e-05
1.06953e-05
1.06193e-05
1.0549e-05
1.04838e-05
1.04225e-05
1.03639e-05
1.0307e-05
1.02509e-05
1.01954e-05
1.01401e-05
1.00848e-05
1.00295e-05
9.97412e-06
9.91903e-06
9.86458e-06
9.81109e-06
9.75883e-06
9.70803e-06
9.65898e-06
9.612e-06
9.56745e-06
9.5259e-06
9.48832e-06
2.32404e-05
2.2198e-05
2.12251e-05
2.03149e-05
1.94649e-05
1.86744e-05
1.79381e-05
1.72512e-05
1.66099e-05
1.60108e-05
1.54505e-05
1.49257e-05
1.44334e-05
1.39709e-05
1.35359e-05
1.31261e-05
1.27392e-05
1.23729e-05
1.20255e-05
1.16946e-05
1.14123e-05
1.12555e-05
1.13128e-05
1.13178e-05
1.12905e-05
1.12462e-05
1.11951e-05
1.11443e-05
1.11238e-05
1.11284e-05
1.11492e-05
1.11777e-05
1.1207e-05
1.12329e-05
1.12526e-05
1.12654e-05
1.12711e-05
1.12698e-05
1.12623e-05
1.12493e-05
1.1232e-05
1.12114e-05
1.11886e-05
1.11644e-05
1.11394e-05
1.11144e-05
1.109e-05
1.10669e-05
1.10464e-05
1.10311e-05
2.38398e-05
2.36288e-05
2.34246e-05
2.32278e-05
2.30374e-05
2.2848e-05
2.26598e-05
2.24733e-05
2.22889e-05
2.21068e-05
2.1927e-05
2.17493e-05
2.15739e-05
2.14008e-05
2.12299e-05
2.10608e-05
2.08932e-05
2.07267e-05
2.05613e-05
2.03968e-05
2.02198e-05
2.00034e-05
1.98046e-05
1.96158e-05
1.94334e-05
1.92556e-05
1.90816e-05
1.89112e-05
1.87336e-05
1.85568e-05
1.83849e-05
1.82193e-05
1.80599e-05
1.79062e-05
1.77574e-05
1.76127e-05
1.74711e-05
1.73319e-05
1.71947e-05
1.70595e-05
1.69264e-05
1.67954e-05
1.66665e-05
1.65396e-05
1.64144e-05
1.62906e-05
1.61676e-05
1.60447e-05
1.59212e-05
1.5796e-05
0.000215501
7.72627e-05
7.54838e-05
7.17322e-05
6.04007e-05
4.68402e-05
3.5196e-05
2.69011e-05
2.15182e-05
1.84766e-05
1.74149e-05
1.83631e-05
2.05267e-05
2.34524e-05
2.69771e-05
3.06169e-05
3.37071e-05
3.57479e-05
3.88833e-05
0.000166544
0.000212172
7.67697e-05
7.59243e-05
7.19918e-05
6.0257e-05
4.63755e-05
3.45818e-05
2.62686e-05
2.08939e-05
1.78511e-05
1.68111e-05
1.78538e-05
2.00888e-05
2.31176e-05
2.67784e-05
3.05541e-05
3.37465e-05
3.58371e-05
3.90962e-05
0.000172184
0.000208789
7.62957e-05
7.63689e-05
7.22452e-05
6.01109e-05
4.59174e-05
3.39835e-05
2.56583e-05
2.02918e-05
1.72421e-05
1.62219e-05
1.72934e-05
1.95999e-05
2.27079e-05
2.64482e-05
3.03075e-05
3.35775e-05
3.57246e-05
3.91303e-05
0.000176875
0.000205355
7.585e-05
7.68176e-05
7.24934e-05
5.9965e-05
4.54687e-05
3.34038e-05
2.50722e-05
1.9713e-05
1.66501e-05
1.56539e-05
1.67601e-05
1.91268e-05
2.23091e-05
2.6127e-05
3.00678e-05
3.34133e-05
3.56155e-05
3.91739e-05
0.000181724
0.000201875
7.54373e-05
7.72698e-05
7.27375e-05
5.98214e-05
4.5032e-05
3.28447e-05
2.45114e-05
1.91581e-05
1.60747e-05
1.51004e-05
1.62474e-05
1.86694e-05
2.19227e-05
2.58162e-05
2.9836e-05
3.32545e-05
3.55102e-05
3.92273e-05
0.000186741
0.000198352
7.50593e-05
7.77245e-05
7.29781e-05
5.96819e-05
4.46095e-05
3.23082e-05
2.39771e-05
1.86276e-05
1.55162e-05
1.45595e-05
1.57492e-05
1.82272e-05
2.15491e-05
2.55161e-05
2.96124e-05
3.31012e-05
3.54084e-05
3.92909e-05
0.000191929
0.00019479
7.4717e-05
7.81805e-05
7.32158e-05
5.95486e-05
4.42035e-05
3.17959e-05
2.34702e-05
1.8122e-05
1.49747e-05
1.40279e-05
1.52637e-05
1.78002e-05
2.11892e-05
2.52274e-05
2.93975e-05
3.29536e-05
3.53102e-05
3.93648e-05
0.000197294
0.000191193
7.44106e-05
7.86363e-05
7.3451e-05
5.94232e-05
4.38163e-05
3.13102e-05
2.29919e-05
1.76419e-05
1.44518e-05
1.34966e-05
1.47901e-05
1.73894e-05
2.08441e-05
2.49511e-05
2.91916e-05
3.28117e-05
3.52153e-05
3.94493e-05
0.000202843
0.000187565
7.41405e-05
7.90907e-05
7.36846e-05
5.93081e-05
4.34506e-05
3.08529e-05
2.25436e-05
1.71886e-05
1.39512e-05
1.29707e-05
1.43308e-05
1.69966e-05
2.05152e-05
2.46879e-05
2.89955e-05
3.26759e-05
3.51239e-05
3.95449e-05
0.000208584
0.000183909
7.39069e-05
7.95424e-05
7.39175e-05
5.92058e-05
4.31092e-05
3.04261e-05
2.2126e-05
1.6763e-05
1.34769e-05
1.24641e-05
1.38905e-05
1.66242e-05
2.02042e-05
2.44391e-05
2.88096e-05
3.25463e-05
3.50359e-05
3.96522e-05
0.000214527
0.000180229
7.37101e-05
7.99906e-05
7.41513e-05
5.91189e-05
4.27948e-05
3.00318e-05
2.174e-05
1.63657e-05
1.30324e-05
1.19926e-05
1.34755e-05
1.62743e-05
1.99122e-05
2.42055e-05
2.86347e-05
3.24236e-05
3.49518e-05
3.97721e-05
0.000220678
0.000176529
7.35503e-05
8.04348e-05
7.43874e-05
5.90499e-05
4.25097e-05
2.96713e-05
2.13863e-05
1.59974e-05
1.26213e-05
1.15835e-05
1.30955e-05
1.59481e-05
1.964e-05
2.39879e-05
2.84716e-05
3.23081e-05
3.48718e-05
3.99054e-05
0.000227047
0.000172815
7.34271e-05
8.08743e-05
7.46271e-05
5.90009e-05
4.22558e-05
2.93459e-05
2.10651e-05
1.56591e-05
1.22468e-05
1.13194e-05
1.27621e-05
1.56482e-05
1.93886e-05
2.37867e-05
2.83204e-05
3.22001e-05
3.4796e-05
4.00528e-05
0.000233641
0.000169091
7.334e-05
8.13084e-05
7.48714e-05
5.89737e-05
4.20348e-05
2.90564e-05
2.07771e-05
1.53524e-05
1.19187e-05
1.10287e-05
1.24639e-05
1.53764e-05
1.91587e-05
2.36025e-05
2.81815e-05
3.20996e-05
3.47243e-05
4.02147e-05
0.000240466
0.000165362
7.32874e-05
8.17364e-05
7.51213e-05
5.89697e-05
4.18482e-05
2.88042e-05
2.0523e-05
1.50795e-05
1.16442e-05
1.08318e-05
1.21929e-05
1.51311e-05
1.89502e-05
2.34352e-05
2.80547e-05
3.20065e-05
3.46566e-05
4.03918e-05
0.000247526
0.000161633
7.3268e-05
8.21573e-05
7.53773e-05
5.89903e-05
4.16977e-05
2.85903e-05
2.03042e-05
1.48434e-05
1.14297e-05
1.10056e-05
1.19754e-05
1.49119e-05
1.8762e-05
2.32838e-05
2.79394e-05
3.19202e-05
3.45925e-05
4.05843e-05
0.000254823
0.000157907
7.32802e-05
8.25709e-05
7.56404e-05
5.90367e-05
4.15843e-05
2.8416e-05
2.0122e-05
1.46473e-05
1.12822e-05
1.06998e-05
1.17684e-05
1.47178e-05
1.85936e-05
2.3148e-05
2.7835e-05
3.18401e-05
3.45313e-05
4.07924e-05
0.000262359
0.00015419
7.33222e-05
8.2977e-05
7.59117e-05
5.91102e-05
4.15092e-05
2.82819e-05
1.99773e-05
1.44942e-05
1.12131e-05
1.03883e-05
1.15708e-05
1.45462e-05
1.84432e-05
2.30266e-05
2.7741e-05
3.1766e-05
3.44731e-05
4.10164e-05
0.000270132
0.000150485
7.33922e-05
8.33755e-05
7.61919e-05
5.92115e-05
4.1473e-05
2.81884e-05
1.98703e-05
1.43856e-05
1.10997e-05
1.01726e-05
1.13887e-05
1.43931e-05
1.83077e-05
2.29171e-05
2.76558e-05
3.16974e-05
3.4418e-05
4.12575e-05
0.000278146
0.000146798
7.34883e-05
8.37668e-05
7.64816e-05
5.93409e-05
4.14757e-05
2.81353e-05
1.98015e-05
1.43261e-05
1.10116e-05
1.00512e-05
1.13377e-05
1.42542e-05
1.81863e-05
2.28187e-05
2.75779e-05
3.16328e-05
3.43649e-05
4.15155e-05
0.000286395
0.000143134
7.36078e-05
8.41511e-05
7.6781e-05
5.94978e-05
4.15161e-05
2.81215e-05
1.97701e-05
1.43122e-05
1.09879e-05
9.96764e-06
1.12653e-05
1.41282e-05
1.80784e-05
2.27322e-05
2.75089e-05
3.15735e-05
3.4315e-05
4.17916e-05
0.00029488
0.000139495
7.3748e-05
8.45282e-05
7.70901e-05
5.96815e-05
4.15929e-05
2.81445e-05
1.97765e-05
1.43436e-05
1.10079e-05
1.00279e-05
1.11751e-05
1.40077e-05
1.79773e-05
2.26525e-05
2.74453e-05
3.15178e-05
3.42676e-05
4.20863e-05
0.000303599
0.000135887
7.39059e-05
8.48982e-05
7.74132e-05
5.98952e-05
4.17093e-05
2.82008e-05
1.98094e-05
1.43904e-05
1.10261e-05
1.0136e-05
1.11697e-05
1.39047e-05
1.78879e-05
2.25816e-05
2.73878e-05
3.14655e-05
3.42221e-05
4.23992e-05
0.000312547
0.000132312
7.40739e-05
8.52711e-05
7.77589e-05
6.01381e-05
4.18526e-05
2.82783e-05
1.98597e-05
1.44511e-05
1.10405e-05
9.8381e-06
1.11232e-05
1.38046e-05
1.78044e-05
2.25173e-05
2.73359e-05
3.14169e-05
3.41789e-05
4.27314e-05
0.000321723
0.000128774
7.42491e-05
8.56491e-05
7.81257e-05
6.04083e-05
4.20203e-05
2.83743e-05
1.99261e-05
1.45313e-05
1.10949e-05
1.00958e-05
1.10959e-05
1.37074e-05
1.77253e-05
2.24569e-05
2.72868e-05
3.13699e-05
3.41369e-05
4.30825e-05
0.000331126
0.00012529
7.44161e-05
8.60326e-05
7.85135e-05
6.07056e-05
4.22113e-05
2.84863e-05
2.00033e-05
1.46187e-05
1.11335e-05
1.00675e-05
1.11022e-05
1.3616e-05
1.76546e-05
2.24035e-05
2.72426e-05
3.13255e-05
3.40962e-05
4.34543e-05
0.000340756
0.000121861
7.45753e-05
8.64218e-05
7.8922e-05