/*--------------------------------*- C++ -*----------------------------------*\
  =========                 |
  \\      /  F ield         | OpenFOAM: The Open Source CFD Toolbox
   \\    /   O peration     | Website:  https://openfoam.org
    \\  /    A nd           | Version:  8
     \\/     M anipulation  |
\*---------------------------------------------------------------------------*/
FoamFile
{
    version     2.0;
    format      ascii;
    class       volScalarField;
    location    "200";
    object      nut;
}
// * * * * * * * * * * * * * * * * * * * * * * * * * * * * * * * * * * * * * //

dimensions      [0 2 -1 0 0 0 0];

internalField   nonuniform List<scalar> 
8400
(
5.07706e-05
4.95138e-05
4.8465e-05
4.75564e-05
4.67347e-05
4.61645e-05
4.57578e-05
4.53874e-05
4.49896e-05
4.46064e-05
4.43809e-05
4.44733e-05
4.48661e-05
4.52678e-05
4.55123e-05
4.56771e-05
4.58905e-05
4.61727e-05
4.65649e-05
4.71241e-05
4.78712e-05
4.87759e-05
4.97039e-05
5.06376e-05
5.15533e-05
5.24036e-05
5.31379e-05
5.37409e-05
5.42029e-05
5.45325e-05
5.47358e-05
5.48208e-05
5.48066e-05
5.47071e-05
5.45379e-05
5.4314e-05
5.40391e-05
5.37662e-05
5.34963e-05
5.323e-05
5.29621e-05
5.26956e-05
5.24305e-05
5.21661e-05
5.19033e-05
5.16434e-05
5.13842e-05
5.11245e-05
5.0867e-05
5.06126e-05
4.62593e-05
4.84905e-05
5.03916e-05
5.22175e-05
5.328e-05
5.29865e-05
5.16001e-05
4.94657e-05
4.66582e-05
4.31428e-05
3.90492e-05
3.4976e-05
3.19916e-05
3.0587e-05
2.96066e-05
2.87487e-05
2.77927e-05
2.69437e-05
2.62334e-05
2.55579e-05
2.49591e-05
2.46165e-05
2.46082e-05
2.47963e-05
2.51252e-05
2.55331e-05
2.59394e-05
2.63215e-05
2.66676e-05
2.6976e-05
2.72435e-05
2.74702e-05
2.7661e-05
2.78159e-05
2.7937e-05
2.80266e-05
2.81035e-05
2.81106e-05
2.80662e-05
2.79774e-05
2.78599e-05
2.77229e-05
2.75687e-05
2.74065e-05
2.72454e-05
2.70853e-05
2.69355e-05
2.68104e-05
2.67163e-05
2.6663e-05
6.37332e-05
6.48375e-05
6.5576e-05
6.51846e-05
6.44339e-05
6.34559e-05
6.23104e-05
6.08025e-05
5.86181e-05
5.53136e-05
5.04706e-05
4.4248e-05
3.8541e-05
3.7014e-05
3.60838e-05
3.48494e-05
3.3282e-05
3.19841e-05
3.07675e-05
2.89987e-05
2.66718e-05
2.46561e-05
2.34151e-05
2.25094e-05
2.19769e-05
2.19326e-05
2.20228e-05
2.21602e-05
2.23124e-05
2.24506e-05
2.25732e-05
2.26806e-05
2.27783e-05
2.28668e-05
2.29438e-05
2.30127e-05
2.30765e-05
2.312e-05
2.31474e-05
2.31622e-05
2.31689e-05
2.31709e-05
2.31706e-05
2.31706e-05
2.31721e-05
2.31771e-05
2.31881e-05
2.32051e-05
2.32286e-05
2.32607e-05
6.14083e-05
6.1304e-05
6.11991e-05
6.10971e-05
6.10038e-05
6.0924e-05
6.08608e-05
6.08095e-05
6.0761e-05
6.06981e-05
6.06127e-05
6.04979e-05
6.04398e-05
6.27713e-05
7.4602e-05
4.14614e-05
4.09398e-05
4.034e-05
3.97806e-05
3.7651e-05
3.24478e-05
2.96077e-05
2.75428e-05
2.50006e-05
2.23931e-05
2.16257e-05
2.12949e-05
2.11773e-05
2.13295e-05
2.14641e-05
2.15811e-05
2.16791e-05
2.17613e-05
2.18312e-05
2.18934e-05
2.19472e-05
2.19988e-05
2.20442e-05
2.2084e-05
2.21209e-05
2.21559e-05
2.21905e-05
2.22244e-05
2.22578e-05
2.2293e-05
2.23305e-05
2.23691e-05
2.24094e-05
2.2452e-05
2.24982e-05
6.143e-05
6.13502e-05
6.12689e-05
6.11857e-05
6.11024e-05
6.10208e-05
6.09428e-05
6.08707e-05
6.08051e-05
6.07488e-05
6.06906e-05
6.06166e-05
6.05324e-05
6.0847e-05
6.07442e-05
5.64402e-05
5.46123e-05
5.47173e-05
5.47165e-05
5.82931e-05
3.76927e-05
3.75064e-05
3.67217e-05
3.25548e-05
2.49475e-05
2.3475e-05
2.20774e-05
2.03779e-05
2.04514e-05
2.05725e-05
2.0718e-05
2.08345e-05
2.09299e-05
2.10102e-05
2.10765e-05
2.11268e-05
2.11761e-05
2.12188e-05
2.12558e-05
2.12883e-05
2.13179e-05
2.1345e-05
2.13698e-05
2.13944e-05
2.14195e-05
2.1444e-05
2.1469e-05
2.14957e-05
2.15255e-05
2.15585e-05
6.1415e-05
6.1318e-05
6.12178e-05
6.11144e-05
6.10076e-05
6.08987e-05
6.07901e-05
6.06855e-05
6.05887e-05
6.05029e-05
6.04267e-05
6.03525e-05
6.02667e-05
6.01883e-05
5.97752e-05
5.8634e-05
5.7662e-05
5.70017e-05
5.64471e-05
5.57256e-05
5.34473e-05
5.36479e-05
5.37279e-05
4.94212e-05
2.85141e-05
3.0947e-05
2.85178e-05
2.00909e-05
1.9732e-05
1.96085e-05
1.97772e-05
1.99129e-05
2.00155e-05
2.01003e-05
2.0168e-05
2.02291e-05
2.02761e-05
2.03139e-05
2.03432e-05
2.03657e-05
2.03828e-05
2.0396e-05
2.04068e-05
2.04154e-05
2.04221e-05
2.04285e-05
2.04357e-05
2.04446e-05
2.04559e-05
2.04697e-05
6.14052e-05
6.12958e-05
6.11827e-05
6.10666e-05
6.0946e-05
6.08218e-05
6.06948e-05
6.05683e-05
6.04452e-05
6.03316e-05
6.02296e-05
6.01362e-05
6.00409e-05
5.99165e-05
5.96455e-05
5.91459e-05
5.8581e-05
5.80376e-05
5.75026e-05
5.68995e-05
5.61345e-05
5.5647e-05
5.52087e-05
5.31195e-05
5.16707e-05
5.20042e-05
4.76571e-05
2.0862e-05
2.04041e-05
1.87762e-05
1.88773e-05
1.90089e-05
1.91136e-05
1.92106e-05
1.92808e-05
1.93459e-05
1.93922e-05
1.94229e-05
1.94436e-05
1.94543e-05
1.94578e-05
1.94577e-05
1.94537e-05
1.94453e-05
1.94361e-05
1.94269e-05
1.94172e-05
1.94091e-05
1.94033e-05
1.94008e-05
6.13911e-05
6.12637e-05
6.11334e-05
6.09991e-05
6.08613e-05
6.07189e-05
6.05736e-05
6.04289e-05
6.02868e-05
6.01537e-05
6.00358e-05
5.99288e-05
5.98292e-05
5.97133e-05
5.95283e-05
5.92384e-05
5.88734e-05
5.84682e-05
5.80368e-05
5.7567e-05
5.70581e-05
5.65825e-05
5.61085e-05
5.52448e-05
5.43891e-05
5.38251e-05
5.09982e-05
4.63124e-05
5.07101e-05
1.86391e-05
1.80374e-05
1.81042e-05
1.8263e-05
1.83836e-05
1.84821e-05
1.85507e-05
1.85967e-05
1.86237e-05
1.86361e-05
1.86407e-05
1.86386e-05
1.86302e-05
1.86183e-05
1.8604e-05
1.85893e-05
1.85752e-05
1.85621e-05
1.85519e-05
1.85456e-05
1.85445e-05
6.13708e-05
6.12159e-05
6.10598e-05
6.09011e-05
6.07382e-05
6.05733e-05
6.04051e-05
6.02397e-05
6.00801e-05
5.99315e-05
5.9802e-05
5.96913e-05
5.95932e-05
5.94926e-05
5.93568e-05
5.916e-05
5.8902e-05
5.85958e-05
5.82503e-05
5.78687e-05
5.74577e-05
5.70351e-05
5.65959e-05
5.60273e-05
5.53929e-05
5.47877e-05
5.33797e-05
5.11899e-05
5.07444e-05
4.50362e-05
4.02828e-05
3.70998e-05
1.78949e-05
1.77788e-05
1.78243e-05
1.78629e-05
1.79196e-05
1.79461e-05
1.79566e-05
1.79604e-05
1.79561e-05
1.79454e-05
1.79337e-05
1.79223e-05
1.79101e-05
1.79012e-05
1.78986e-05
1.79014e-05
1.79104e-05
1.79263e-05
6.13397e-05
6.11418e-05
6.09455e-05
6.07499e-05
6.05528e-05
6.03549e-05
6.0158e-05
5.99681e-05
5.97888e-05
5.96298e-05
5.94979e-05
5.93911e-05
5.93049e-05
5.92245e-05
5.9123e-05
5.89807e-05
5.87892e-05
5.85481e-05
5.82655e-05
5.79467e-05
5.75955e-05
5.72186e-05
5.68183e-05
5.63538e-05
5.58316e-05
5.52767e-05
5.43708e-05
5.30454e-05
5.19897e-05
4.93171e-05
4.62094e-05
4.31521e-05
3.80345e-05
3.30346e-05
2.63253e-05
1.71206e-05
1.74314e-05
1.7429e-05
1.74181e-05
1.73957e-05
1.73814e-05
1.73643e-05
1.73477e-05
1.73366e-05
1.73204e-05
1.73082e-05
1.73126e-05
1.73229e-05
1.73365e-05
1.7362e-05
6.12852e-05
6.10074e-05
6.07461e-05
6.04948e-05
6.02479e-05
6.00092e-05
5.97757e-05
5.95596e-05
5.93686e-05
5.92084e-05
5.90872e-05
5.90022e-05
5.89441e-05
5.88934e-05
5.88274e-05
5.87257e-05
5.85801e-05
5.83884e-05
5.81524e-05
5.78768e-05
5.75686e-05
5.72293e-05
5.68602e-05
5.64492e-05
5.59902e-05
5.54857e-05
5.48009e-05
5.38657e-05
5.28681e-05
5.11914e-05
4.90714e-05
4.67092e-05
4.3618e-05
4.01986e-05
3.64564e-05
3.21676e-05
2.8266e-05
2.47289e-05
2.17353e-05
1.95217e-05
1.81585e-05
1.74392e-05
1.70988e-05
1.69464e-05
1.68637e-05
1.6818e-05
1.68064e-05
1.67911e-05
1.67712e-05
1.67773e-05
6.11564e-05
6.06895e-05
6.03276e-05
6.00051e-05
5.97025e-05
5.94171e-05
5.91621e-05
5.89366e-05
5.87535e-05
5.86266e-05
5.8556e-05
5.8521e-05
5.85111e-05
5.85051e-05
5.84775e-05
5.84112e-05
5.82997e-05
5.81429e-05
5.79412e-05
5.76981e-05
5.74214e-05
5.71112e-05
5.67704e-05
5.63924e-05
5.59736e-05
5.55115e-05
5.49386e-05
5.42068e-05
5.33563e-05
5.21526e-05
5.06228e-05
4.88424e-05
4.66986e-05
4.43159e-05
4.17852e-05
3.90669e-05
3.62687e-05
3.34752e-05
3.07546e-05
2.81815e-05
2.58379e-05
2.3795e-05
2.20784e-05
2.06806e-05
1.95782e-05
1.8728e-05
1.80802e-05
1.75902e-05
1.72258e-05
1.69607e-05
6.04682e-05
5.99583e-05
5.95384e-05
5.91584e-05
5.88232e-05
5.85341e-05
5.83012e-05
5.81401e-05
5.80285e-05
5.79772e-05
5.79785e-05
5.80095e-05
5.8054e-05
5.80916e-05
5.80937e-05
5.80525e-05
5.79614e-05
5.78264e-05
5.76492e-05
5.74295e-05
5.71745e-05
5.68877e-05
5.6569e-05
5.62171e-05
5.58267e-05
5.53959e-05
5.48903e-05
5.42781e-05
5.35562e-05
5.26208e-05
5.14635e-05
5.01122e-05
4.855e-05
4.68285e-05
4.50122e-05
4.31126e-05
4.11499e-05
3.91594e-05
3.71706e-05
3.52038e-05
3.32827e-05
3.14312e-05
2.96653e-05
2.80013e-05
2.64538e-05
2.5029e-05
2.37295e-05
2.25567e-05
2.15086e-05
2.05783e-05
5.9381e-05
5.88843e-05
5.8458e-05
5.80955e-05
5.78039e-05
5.75964e-05
5.74595e-05
5.73961e-05
5.73875e-05
5.74101e-05
5.74697e-05
5.75402e-05
5.76048e-05
5.76569e-05
5.76714e-05
5.76427e-05
5.75696e-05
5.74587e-05
5.72894e-05
5.70753e-05
5.6836e-05
5.65645e-05
5.62643e-05
5.5932e-05
5.55636e-05
5.51598e-05
5.46995e-05
5.41626e-05
5.35385e-05
5.27774e-05
5.18687e-05
5.08244e-05
4.96497e-05
4.8376e-05
4.70412e-05
4.56616e-05
4.42524e-05
4.28272e-05
4.13958e-05
3.99678e-05
3.85489e-05
3.71429e-05
3.57541e-05
3.43867e-05
3.30449e-05
3.17327e-05
3.04535e-05
2.921e-05
2.80039e-05
2.68351e-05
5.80522e-05
5.76521e-05
5.73263e-05
5.70832e-05
5.69236e-05
5.68308e-05
5.67999e-05
5.68128e-05
5.68616e-05
5.69242e-05
5.69973e-05
5.70726e-05
5.71337e-05
5.71719e-05
5.71828e-05
5.71573e-05
5.70904e-05
5.69838e-05
5.68278e-05
5.66343e-05
5.64158e-05
5.61753e-05
5.58518e-05
5.55343e-05
5.51854e-05
5.48059e-05
5.43793e-05
5.38936e-05
5.33454e-05
5.2709e-05
5.19734e-05
5.11474e-05
5.02462e-05
4.92865e-05
4.82882e-05
4.7269e-05
4.62393e-05
4.52036e-05
4.41671e-05
4.31334e-05
4.21016e-05
4.10716e-05
4.00432e-05
3.90156e-05
3.79884e-05
3.69609e-05
3.59323e-05
3.49024e-05
3.38697e-05
3.28306e-05
5.68478e-05
5.66121e-05
5.64409e-05
5.63289e-05
5.6273e-05
5.62588e-05
5.62755e-05
5.6313e-05
5.63664e-05
5.64265e-05
5.64847e-05
5.65378e-05
5.65786e-05
5.65971e-05
5.65929e-05
5.65579e-05
5.64878e-05
5.63841e-05
5.62427e-05
5.60665e-05
5.58656e-05
5.5636e-05
5.53462e-05
5.50646e-05
5.46858e-05
5.43229e-05
5.39253e-05
5.34826e-05
5.29932e-05
5.24461e-05
5.18378e-05
5.11762e-05
5.04721e-05
4.97358e-05
4.89808e-05
4.82182e-05
4.74542e-05
4.66922e-05
4.59336e-05
4.51784e-05
4.44259e-05
4.36748e-05
4.29235e-05
4.21705e-05
4.14134e-05
4.06495e-05
3.98779e-05
3.90973e-05
3.83031e-05
3.74905e-05
5.59235e-05
5.58212e-05
5.57519e-05
5.57125e-05
5.56969e-05
5.57002e-05
5.57186e-05
5.57454e-05
5.57774e-05
5.58118e-05
5.58419e-05
5.5866e-05
5.58795e-05
5.58751e-05
5.58508e-05
5.58024e-05
5.57275e-05
5.56246e-05
5.54909e-05
5.53296e-05
5.51423e-05
5.49226e-05
5.46695e-05
5.44069e-05
5.40645e-05
5.37361e-05
5.33198e-05
5.29111e-05
5.24643e-05
5.19855e-05
5.14786e-05
5.09434e-05
5.03855e-05
4.98141e-05
4.92373e-05
4.86607e-05
4.80884e-05
4.75213e-05
4.69587e-05
4.64015e-05
4.58489e-05
4.52986e-05
4.47494e-05
4.41989e-05
4.36447e-05
4.30858e-05
4.25211e-05
4.19472e-05
4.13598e-05
4.07559e-05
5.50932e-05
5.50491e-05
5.50143e-05
5.499e-05
5.49746e-05
5.49665e-05
5.49642e-05
5.49661e-05
5.49694e-05
5.49719e-05
5.49722e-05
5.49656e-05
5.49496e-05
5.49218e-05
5.48773e-05
5.4814e-05
5.47293e-05
5.46232e-05
5.44931e-05
5.43395e-05
5.41644e-05
5.3964e-05
5.37402e-05
5.34967e-05
5.32089e-05
5.29225e-05
5.25709e-05
5.21179e-05
5.17069e-05
5.12856e-05
5.08586e-05
5.04223e-05
4.99782e-05
4.95305e-05
4.90865e-05
4.86494e-05
4.82178e-05
4.77919e-05
4.73734e-05
4.69615e-05
4.65542e-05
4.61493e-05
4.57463e-05
4.53436e-05
4.49398e-05
4.45343e-05
4.41238e-05
4.37053e-05
4.32777e-05
4.28381e-05
5.40367e-05
5.39989e-05
5.39603e-05
5.39223e-05
5.38869e-05
5.38528e-05
5.38213e-05
5.3791e-05
5.37601e-05
5.37294e-05
5.3696e-05
5.36572e-05
5.36122e-05
5.3558e-05
5.34906e-05
5.34095e-05
5.33132e-05
5.32008e-05
5.30702e-05
5.29222e-05
5.27587e-05
5.25786e-05
5.23818e-05
5.21705e-05
5.19413e-05
5.17079e-05
5.14315e-05
5.10488e-05
5.05912e-05
5.02042e-05
4.98392e-05
4.94823e-05
4.91292e-05
4.87846e-05
4.84499e-05
4.81227e-05
4.78024e-05
4.74915e-05
4.71904e-05
4.68959e-05
4.66062e-05
4.63207e-05
4.60387e-05
4.57595e-05
4.54815e-05
4.52024e-05
4.49197e-05
4.46328e-05
4.43409e-05
4.404e-05
6.29497e-05
6.24833e-05
6.2018e-05
6.15411e-05
6.1051e-05
6.05475e-05
6.00319e-05
5.95072e-05
5.89766e-05
5.84441e-05
5.7913e-05
5.7386e-05
5.68667e-05
5.63569e-05
5.58561e-05
5.53659e-05
5.48846e-05
5.44106e-05
5.39435e-05
5.34831e-05
5.30268e-05
5.25724e-05
5.2119e-05
5.16657e-05
5.12157e-05
5.07798e-05
5.03524e-05
4.98913e-05
4.90274e-05
4.87843e-05
4.87181e-05
4.87399e-05
4.88182e-05
4.89393e-05
4.90939e-05
4.92787e-05
4.9494e-05
4.97372e-05
5.00036e-05
5.02891e-05
5.05914e-05
5.09078e-05
5.12352e-05
5.15707e-05
5.19107e-05
5.22516e-05
5.25907e-05
5.29244e-05
5.32456e-05
5.3542e-05
5.48221e-06
5.45966e-06
5.43659e-06
5.41447e-06
5.39237e-06
5.36941e-06
5.34555e-06
5.32121e-06
5.29684e-06
5.27274e-06
5.24914e-06
5.22616e-06
5.20394e-06
5.18257e-06
5.1621e-06
5.14248e-06
5.12354e-06
5.10499e-06
5.08649e-06
5.06775e-06
5.04985e-06
5.01261e-06
4.99117e-06
4.96611e-06
4.93937e-06
4.91211e-06
4.88522e-06
4.85958e-06
4.83564e-06
4.81348e-06
4.79298e-06
4.77399e-06
4.75638e-06
4.74003e-06
4.72481e-06
4.71048e-06
4.69673e-06
4.68322e-06
4.66965e-06
4.6559e-06
4.64193e-06
4.62778e-06
4.61262e-06
4.59676e-06
4.58062e-06
4.56454e-06
4.54823e-06
4.53154e-06
4.51481e-06
4.49853e-06
5.4146e-06
5.29647e-06
5.17987e-06
5.0662e-06
4.95701e-06
4.85255e-06
4.7527e-06
4.65745e-06
4.56685e-06
4.48099e-06
4.39991e-06
4.3236e-06
4.25197e-06
4.1848e-06
4.12176e-06
4.06232e-06
4.00579e-06
3.95146e-06
3.89871e-06
3.84735e-06
1.65639e-05
1.64924e-05
1.63611e-05
1.62635e-05
1.61911e-05
1.61355e-05
1.60892e-05
1.60455e-05
1.60007e-05
1.59546e-05
1.59095e-05
1.58684e-05
1.58336e-05
1.58062e-05
1.57859e-05
1.5771e-05
1.57593e-05
1.57482e-05
1.57356e-05
1.57187e-05
1.56955e-05
1.56643e-05
1.56284e-05
1.55862e-05
1.55361e-05
1.54769e-05
1.54091e-05
1.53321e-05
1.52443e-05
1.51446e-05
5.41311e-06
5.29248e-06
5.1748e-06
5.05998e-06
4.94872e-06
4.84143e-06
4.73828e-06
4.63928e-06
4.5444e-06
4.45365e-06
4.36703e-06
4.2845e-06
4.20598e-06
4.1313e-06
4.06019e-06
3.99228e-06
3.92708e-06
3.86409e-06
3.80302e-06
1.59712e-05
1.58554e-05
1.57395e-05
1.56165e-05
1.54895e-05
1.53607e-05
1.52325e-05
1.51069e-05
1.49851e-05
1.48682e-05
1.47574e-05
1.4654e-05
1.45585e-05
1.44711e-05
1.4391e-05
1.43173e-05
1.42486e-05
1.41833e-05
1.41199e-05
1.4057e-05
1.39944e-05
1.39306e-05
1.38647e-05
1.37962e-05
1.37247e-05
1.365e-05
1.35721e-05
1.34916e-05
1.34088e-05
1.33219e-05
1.32259e-05
5.41368e-06
5.29317e-06
5.17604e-06
5.06222e-06
4.95207e-06
4.84575e-06
4.74336e-06
4.64488e-06
4.55032e-06
4.45972e-06
4.37311e-06
4.29047e-06
4.21171e-06
4.13664e-06
4.06501e-06
3.99647e-06
3.93057e-06
3.86682e-06
3.80492e-06
1.59795e-05
1.58553e-05
1.57283e-05
1.55977e-05
1.54636e-05
1.53268e-05
1.51888e-05
1.50511e-05
1.49153e-05
1.47833e-05
1.46572e-05
1.45382e-05
1.44268e-05
1.43224e-05
1.42243e-05
1.41313e-05
1.40423e-05
1.39562e-05
1.3872e-05
1.37884e-05
1.37042e-05
1.36186e-05
1.35309e-05
1.34412e-05
1.33493e-05
1.32549e-05
1.3158e-05
1.30593e-05
1.29606e-05
1.28633e-05
1.27643e-05
5.414e-06
5.29332e-06
5.17569e-06
5.06162e-06
4.95148e-06
4.84524e-06
4.74286e-06
4.64431e-06
4.54967e-06
4.45904e-06
4.37248e-06
4.28994e-06
4.21128e-06
4.13632e-06
4.0648e-06
3.99637e-06
3.93056e-06
3.86685e-06
3.80493e-06
1.59772e-05
1.58537e-05
1.57268e-05
1.55955e-05
1.54601e-05
1.53215e-05
1.5181e-05
1.50406e-05
1.49024e-05
1.4769e-05
1.46422e-05
1.4523e-05
1.44112e-05
1.4306e-05
1.42065e-05
1.41118e-05
1.40209e-05
1.39328e-05
1.3846e-05
1.37592e-05
1.3671e-05
1.35808e-05
1.34882e-05
1.33934e-05
1.32967e-05
1.31978e-05
1.30965e-05
1.29928e-05
1.28874e-05
1.27828e-05
1.26786e-05
5.41388e-06
5.29318e-06
5.17561e-06
5.06183e-06
4.95212e-06
4.84631e-06
4.74424e-06
4.64592e-06
4.55151e-06
4.46114e-06
4.37485e-06
4.29253e-06
4.21405e-06
4.13923e-06
4.06784e-06
3.9995e-06
3.93371e-06
3.86995e-06
3.80788e-06
1.59974e-05
1.58721e-05
1.57442e-05
1.5613e-05
1.54783e-05
1.53405e-05
1.52006e-05
1.50604e-05
1.49225e-05
1.47895e-05
1.46629e-05
1.45432e-05
1.44301e-05
1.4323e-05
1.42214e-05
1.41245e-05
1.40316e-05
1.39414e-05
1.38522e-05
1.37626e-05
1.36714e-05
1.35782e-05
1.34829e-05
1.33857e-05
1.32865e-05
1.31857e-05
1.30834e-05
1.29796e-05
1.28743e-05
1.27682e-05
1.2662e-05
5.41364e-06
5.29287e-06
5.17555e-06
5.06205e-06
4.95251e-06
4.84671e-06
4.74456e-06
4.64619e-06
4.5518e-06
4.46153e-06
4.37533e-06
4.29307e-06
4.21463e-06
4.13987e-06
4.06853e-06
4.0002e-06
3.93435e-06
3.87047e-06
3.80829e-06
1.59983e-05
1.58739e-05
1.57461e-05
1.56136e-05
1.54764e-05
1.53355e-05
1.51927e-05
1.50506e-05
1.49123e-05
1.47799e-05
1.46544e-05
1.4536e-05
1.44242e-05
1.43183e-05
1.42181e-05
1.41226e-05
1.40308e-05
1.39408e-05
1.38511e-05
1.37605e-05
1.36681e-05
1.35738e-05
1.34775e-05
1.33792e-05
1.32788e-05
1.31766e-05
1.30731e-05
1.29688e-05
1.28636e-05
1.27577e-05
1.2651e-05
5.41351e-06
5.29281e-06
5.1758e-06
5.06251e-06
4.95299e-06
4.84711e-06
4.74494e-06
4.64668e-06
4.55254e-06
4.46254e-06
4.37656e-06
4.29447e-06
4.21618e-06
4.14156e-06
4.07031e-06
4.00199e-06
3.93608e-06
3.87213e-06
3.80993e-06
1.60083e-05
1.58831e-05
1.57531e-05
1.56178e-05
1.54778e-05
1.53348e-05
1.51913e-05
1.50498e-05
1.49129e-05
1.47821e-05
1.4658e-05
1.45406e-05
1.44295e-05
1.43245e-05
1.42247e-05
1.41293e-05
1.40367e-05
1.39452e-05
1.38535e-05
1.37606e-05
1.36661e-05
1.35698e-05
1.34717e-05
1.33718e-05
1.32703e-05
1.3167e-05
1.30624e-05
1.29571e-05
1.28513e-05
1.27449e-05
1.26377e-05
5.41353e-06
5.29306e-06
5.1762e-06
5.06287e-06
4.95319e-06
4.84719e-06
4.74506e-06
4.64702e-06
4.55316e-06
4.46337e-06
4.37753e-06
4.29554e-06
4.21734e-06
4.14277e-06
4.07151e-06
4.00309e-06
3.93705e-06
3.87302e-06
3.81082e-06
1.60199e-05
1.5893e-05
1.57532e-05
1.56059e-05
1.54563e-05
1.53084e-05
1.51646e-05
1.50267e-05
1.48954e-05
1.47709e-05
1.4653e-05
1.45412e-05
1.44349e-05
1.43336e-05
1.42363e-05
1.41418e-05
1.40485e-05
1.39553e-05
1.38613e-05
1.37659e-05
1.36687e-05
1.35696e-05
1.34687e-05
1.33663e-05
1.32628e-05
1.3158e-05
1.30522e-05
1.29457e-05
1.28388e-05
1.27315e-05
1.26234e-05
5.41364e-06
5.29333e-06
5.17641e-06
5.06291e-06
4.9531e-06
4.84715e-06
4.74527e-06
4.64758e-06
4.55401e-06
4.46441e-06
4.3787e-06
4.29684e-06
4.21877e-06
4.14426e-06
4.07296e-06
4.00443e-06
3.93831e-06
3.87424e-06
3.81198e-06
1.6016e-05
1.58882e-05
1.57567e-05
1.56217e-05
1.54843e-05
1.53459e-05
1.5208e-05
1.5072e-05
1.49397e-05
1.48122e-05
1.46903e-05
1.45743e-05
1.44641e-05
1.43592e-05
1.42583e-05
1.416e-05
1.40631e-05
1.39664e-05
1.38692e-05
1.37708e-05
1.36707e-05
1.35686e-05
1.3465e-05
1.33602e-05
1.32546e-05
1.31483e-05
1.30412e-05
1.29336e-05
1.28257e-05
1.27175e-05
1.26087e-05
5.41372e-06
5.29339e-06
5.17631e-06
5.0627e-06
4.95295e-06
4.84727e-06
4.74574e-06
4.64836e-06
4.55497e-06
4.4655e-06
4.3799e-06
4.29819e-06
4.22023e-06
4.14573e-06
4.07434e-06
4.00569e-06
3.93947e-06
3.87533e-06
3.81294e-06
1.60191e-05
1.58906e-05
1.57591e-05
1.5625e-05
1.54888e-05
1.53514e-05
1.52139e-05
1.50781e-05
1.49457e-05
1.48183e-05
1.46967e-05
1.45813e-05
1.44717e-05
1.43672e-05
1.42663e-05
1.41677e-05
1.407e-05
1.39722e-05
1.38735e-05
1.37731e-05
1.36706e-05
1.3566e-05
1.346e-05
1.33531e-05
1.32456e-05
1.31376e-05
1.30292e-05
1.29205e-05
1.28118e-05
1.27029e-05
1.25934e-05
5.41372e-06
5.29323e-06
5.17607e-06
5.06254e-06
4.95306e-06
4.84771e-06
4.74647e-06
4.64924e-06
4.55593e-06
4.46653e-06
4.38108e-06
4.29952e-06
4.22164e-06
4.14711e-06
4.0756e-06
4.00683e-06
3.94051e-06
3.87623e-06
3.81361e-06
1.60198e-05
1.58899e-05
1.57577e-05
1.56239e-05
1.54894e-05
1.53545e-05
1.52205e-05
1.50886e-05
1.49605e-05
1.48373e-05
1.47194e-05
1.46068e-05
1.44991e-05
1.43953e-05
1.42939e-05
1.41938e-05
1.40937e-05
1.39928e-05
1.38903e-05
1.37857e-05
1.36788e-05
1.357e-05
1.34601e-05
1.33497e-05
1.32392e-05
1.31287e-05
1.30182e-05
1.2908e-05
1.27981e-05
1.26881e-05
1.25777e-05
5.41365e-06
5.29306e-06
5.176e-06
5.06272e-06
4.95352e-06
4.8484e-06
4.74727e-06
4.65006e-06
4.5568e-06
4.46755e-06
4.3823e-06
4.30092e-06
4.22312e-06
4.14857e-06
4.077e-06
4.00819e-06
3.9418e-06
3.87738e-06
3.81453e-06
1.60229e-05
1.58921e-05
1.57596e-05
1.56259e-05
1.54914e-05
1.53568e-05
1.52233e-05
1.50922e-05
1.49652e-05
1.4843e-05
1.47261e-05
1.46143e-05
1.4507e-05
1.44031e-05
1.43011e-05
1.41999e-05
1.40982e-05
1.39954e-05
1.38906e-05
1.37835e-05
1.36739e-05
1.35625e-05
1.34502e-05
1.33378e-05
1.32255e-05
1.31136e-05
1.3002e-05
1.28911e-05
1.27806e-05
1.26702e-05
1.25596e-05
5.4136e-06
5.29304e-06
5.17619e-06
5.06314e-06
4.95408e-06
4.84897e-06
4.74776e-06
4.65051e-06
4.55728e-06
4.46815e-06
4.38303e-06
4.30171e-06
4.22388e-06
4.14927e-06
4.07765e-06
4.00878e-06
3.94229e-06
3.87766e-06
3.81452e-06
1.60192e-05
1.58882e-05
1.57557e-05
1.5622e-05
1.54875e-05
1.5353e-05
1.52197e-05
1.50891e-05
1.49627e-05
1.48411e-05
1.47246e-05
1.46131e-05
1.45057e-05
1.44014e-05
1.42987e-05
1.41964e-05
1.40935e-05
1.39893e-05
1.3883e-05
1.37741e-05
1.36627e-05
1.35494e-05
1.34354e-05
1.33215e-05
1.32081e-05
1.30953e-05
1.29833e-05
1.2872e-05
1.27613e-05
1.2651e-05
1.25406e-05
5.4136e-06
5.29319e-06
5.17652e-06
5.06358e-06
4.95454e-06
4.8494e-06
4.74823e-06
4.65109e-06
4.55809e-06
4.46919e-06
4.38428e-06
4.30309e-06
4.22536e-06
4.15083e-06
4.07929e-06
4.01045e-06
3.94388e-06
3.87907e-06
3.81567e-06
1.60248e-05
1.58927e-05
1.57592e-05
1.56246e-05
1.54893e-05
1.53541e-05
1.52204e-05
1.50897e-05
1.49633e-05
1.48417e-05
1.47252e-05
1.46134e-05
1.45054e-05
1.44001e-05
1.42963e-05
1.41928e-05
1.40886e-05
1.3983e-05
1.38751e-05
1.37644e-05
1.36512e-05
1.35362e-05
1.34208e-05
1.33057e-05
1.31915e-05
1.30782e-05
1.2966e-05
1.28549e-05
1.27448e-05
1.26353e-05
1.2526e-05
5.41365e-06
5.29329e-06
5.17655e-06
5.06343e-06
4.95416e-06
4.84883e-06
4.74752e-06
4.65032e-06
4.55728e-06
4.46835e-06
4.38338e-06
4.30213e-06
4.22436e-06
4.1498e-06
4.07823e-06
4.0093e-06
3.94255e-06
3.87747e-06
3.81382e-06
1.60079e-05
1.58762e-05
1.57432e-05
1.56091e-05
1.54742e-05
1.53395e-05
1.52066e-05
1.50769e-05
1.49517e-05
1.48313e-05
1.47157e-05
1.46044e-05
1.44966e-05
1.43914e-05
1.42875e-05
1.41839e-05
1.40796e-05
1.39736e-05
1.38651e-05
1.37538e-05
1.36403e-05
1.35254e-05
1.34104e-05
1.32961e-05
1.3183e-05
1.30712e-05
1.29611e-05
1.28528e-05
1.27461e-05
1.26405e-05
1.25356e-05
5.41369e-06
5.29328e-06
5.17655e-06
5.06355e-06
4.95452e-06
4.84953e-06
4.74859e-06
4.65173e-06
4.55895e-06
4.4702e-06
4.38537e-06
4.30421e-06
4.22648e-06
4.15191e-06
4.08025e-06
4.01114e-06
3.94412e-06
3.87872e-06
3.81476e-06
1.60136e-05
1.58808e-05
1.57469e-05
1.5612e-05
1.54763e-05
1.5341e-05
1.52079e-05
1.50788e-05
1.49546e-05
1.48354e-05
1.47211e-05
1.46115e-05
1.45058e-05
1.44031e-05
1.43021e-05
1.42013e-05
1.40999e-05
1.39969e-05
1.3892e-05
1.3785e-05
1.36765e-05
1.35674e-05
1.34587e-05
1.33513e-05
1.32459e-05
1.31427e-05
1.30423e-05
1.29449e-05
1.28501e-05
1.27577e-05
1.26675e-05
5.41366e-06
5.29228e-06
5.17448e-06
5.06056e-06
4.95081e-06
4.84529e-06
4.74397e-06
4.64686e-06
4.55395e-06
4.46521e-06
4.38047e-06
4.29946e-06
4.22189e-06
4.14753e-06
4.07612e-06
4.00727e-06
3.9405e-06
3.87541e-06
3.81188e-06
1.59979e-05
1.58671e-05
1.57364e-05
1.5615e-05
1.54886e-05
1.53599e-05
1.52327e-05
1.51097e-05
1.49926e-05
1.48811e-05
1.47805e-05
1.46909e-05
1.46102e-05
1.45355e-05
1.44635e-05
1.43921e-05
1.43197e-05
1.42456e-05
1.41694e-05
1.40911e-05
1.4011e-05
1.39301e-05
1.38497e-05
1.37706e-05
1.36939e-05
1.36202e-05
1.35501e-05
1.34836e-05
1.34208e-05
1.33617e-05
1.33072e-05
5.41395e-06
5.29348e-06
5.17743e-06
5.06563e-06
4.95832e-06
4.85602e-06
4.75856e-06
4.66582e-06
4.57777e-06
4.49429e-06
4.41514e-06
4.33999e-06
4.26858e-06
4.20072e-06
4.13612e-06
4.07436e-06
4.01487e-06
3.9572e-06
3.90121e-06
3.84679e-06
3.76136e-06
3.68337e-06
1.58228e-05
1.59603e-05
1.59994e-05
1.5975e-05
1.59149e-05
1.58393e-05
1.57083e-05
1.56328e-05
1.56102e-05
1.56261e-05
1.56634e-05
1.57076e-05
1.57489e-05
1.57816e-05
1.58028e-05
1.5811e-05
1.58064e-05
1.57901e-05
1.57645e-05
1.57324e-05
1.56962e-05
1.56582e-05
1.56202e-05
1.55833e-05
1.5548e-05
1.55149e-05
1.54848e-05
1.54609e-05
5.48327e-06
5.45994e-06
5.4367e-06
5.41388e-06
5.39157e-06
5.36915e-06
5.34673e-06
5.32447e-06
5.3025e-06
5.28084e-06
5.25946e-06
5.23836e-06
5.21757e-06
5.1971e-06
5.17683e-06
5.15654e-06
5.1361e-06
5.11552e-06
5.09485e-06
5.0741e-06
5.06325e-06
5.01559e-06
4.98125e-06
4.95423e-06
4.93131e-06
4.91067e-06
4.89122e-06
4.8724e-06
4.86262e-06
4.84627e-06
4.82695e-06
4.80655e-06
4.78598e-06
4.76567e-06
4.74582e-06
4.72638e-06
4.70713e-06
4.6878e-06
4.66825e-06
4.6485e-06
4.62871e-06
4.60897e-06
4.58941e-06
4.57006e-06
4.55088e-06
4.53174e-06
4.51244e-06
4.49279e-06
4.47265e-06
4.45193e-06
1.68175e-05
9.9683e-06
9.75651e-06
9.45639e-06
8.64295e-06
7.59407e-06
6.57815e-06
5.75075e-06
5.14413e-06
4.76681e-06
4.58512e-06
4.75181e-06
5.04896e-06
5.3932e-06
5.76461e-06
6.12771e-06
6.42873e-06
6.62939e-06
6.92754e-06
1.42712e-05
1.66717e-05
9.92647e-06
9.78023e-06
9.47138e-06
8.63198e-06
7.55651e-06
6.52118e-06
5.68332e-06
5.06925e-06
4.68622e-06
4.50147e-06
4.69126e-06
4.99833e-06
5.35568e-06
5.74304e-06
6.12125e-06
6.43285e-06
6.63812e-06
6.9454e-06
1.44992e-05
1.65223e-05
9.88593e-06
9.80411e-06
9.48596e-06
8.62098e-06
7.51953e-06
6.4654e-06
5.61759e-06
4.99603e-06
4.60677e-06
4.41636e-06
4.60946e-06
4.93423e-06
5.30725e-06
5.70721e-06
6.09621e-06
6.41649e-06
6.62746e-06
6.94738e-06
1.46907e-05
1.63697e-05
9.84757e-06
9.82848e-06
9.50053e-06
8.61039e-06
7.48352e-06
6.41118e-06
5.55386e-06
4.92461e-06
4.5287e-06
4.33689e-06
4.53596e-06
4.87291e-06
5.25983e-06
5.67209e-06
6.07173e-06
6.40059e-06
6.61717e-06
6.95021e-06
1.48857e-05
1.62141e-05
9.81164e-06
9.85324e-06
9.51505e-06
8.60019e-06
7.44848e-06
6.35848e-06
5.49203e-06
4.85481e-06
4.45177e-06
4.25955e-06
4.46816e-06
4.81421e-06
5.21371e-06
5.63795e-06
6.04805e-06
6.38527e-06
6.6073e-06
6.95392e-06
1.50848e-05
1.60558e-05
9.77816e-06
9.87827e-06
9.52949e-06
8.59039e-06
7.41443e-06
6.30731e-06
5.43204e-06
4.78647e-06
4.37569e-06
4.185e-06
4.40297e-06
4.75737e-06
5.16881e-06
5.60484e-06
6.0252e-06
6.37052e-06
6.5978e-06
6.95849e-06
1.52879e-05
1.58948e-05
9.74706e-06
9.90341e-06
9.54375e-06
8.58097e-06
7.38139e-06
6.25771e-06
5.37391e-06
4.71952e-06
4.30001e-06
4.10994e-06
4.33871e-06
4.70194e-06
5.12512e-06
5.57273e-06
6.00312e-06
6.35627e-06
6.58859e-06
6.96388e-06
1.5495e-05
1.57311e-05
9.71829e-06
9.92849e-06
9.55776e-06
8.57196e-06
7.34947e-06
6.20983e-06
5.31778e-06
4.65415e-06
4.22506e-06
4.02678e-06
4.2734e-06
4.64777e-06
5.08278e-06
5.5417e-06
5.98176e-06
6.34243e-06
6.57957e-06
6.97006e-06
1.57062e-05
1.55649e-05
9.6919e-06
9.95341e-06
9.57156e-06
8.5635e-06
7.31889e-06
6.16391e-06
5.26385e-06
4.5906e-06
4.15193e-06
3.93829e-06
4.20611e-06
4.59478e-06
5.04196e-06
5.51188e-06
5.96121e-06
6.32898e-06
6.57071e-06
6.97702e-06
1.59215e-05
1.53962e-05
9.66801e-06
9.97812e-06
9.5853e-06
8.55587e-06
7.28999e-06
6.12024e-06
5.21233e-06
4.52906e-06
4.08132e-06
3.85505e-06
4.13909e-06
4.54327e-06
5.00274e-06
5.48335e-06
5.94154e-06
6.31606e-06
6.56209e-06
6.98489e-06
1.61412e-05
1.52253e-05
9.64683e-06
1.00027e-05
9.59918e-06
8.5494e-06
7.26313e-06
6.07914e-06
5.16345e-06
4.46977e-06
4.01348e-06
3.78195e-06
4.0767e-06
4.49429e-06
4.96544e-06
5.45618e-06
5.92281e-06
6.30373e-06
6.55385e-06
6.99386e-06
1.63657e-05
1.50523e-05
9.62855e-06
1.00272e-05
9.61344e-06
8.54435e-06
7.23855e-06
6.04085e-06
5.11748e-06
4.41313e-06
3.94894e-06
3.7215e-06
4.02198e-06
4.44834e-06
4.93048e-06
5.43071e-06
5.90523e-06
6.29212e-06
6.54608e-06
7.0041e-06
1.65953e-05
1.48776e-05
9.61327e-06
1.00518e-05
9.62823e-06
8.54089e-06
7.21642e-06
6.00551e-06
5.07458e-06
4.35956e-06
3.88851e-06
3.57724e-06
3.96717e-06
4.40555e-06
4.89802e-06
5.40717e-06
5.88902e-06
6.28138e-06
6.53885e-06
7.01568e-06
1.68301e-05
1.47014e-05
9.60086e-06
1.00763e-05
9.64358e-06
8.53913e-06
7.19693e-06
5.97335e-06
5.03498e-06
4.30961e-06
3.83602e-06
3.4652e-06
3.91727e-06
4.3665e-06
4.8681e-06
5.38552e-06
5.87426e-06
6.27163e-06
6.53226e-06
7.02866e-06
1.70701e-05
1.45239e-05
9.5911e-06
1.01006e-05
9.65937e-06
8.53909e-06
7.18027e-06
5.94472e-06
4.99918e-06
4.26417e-06
3.79121e-06
3.43843e-06
3.87448e-06
4.33157e-06
4.84087e-06
5.36563e-06
5.8607e-06
6.26273e-06
6.52623e-06
7.04306e-06
1.73152e-05
1.43452e-05
9.58374e-06
1.01245e-05
9.67553e-06
8.54077e-06
7.16659e-06
5.92e-06
4.96788e-06
4.22482e-06
3.75809e-06
1.51638e-05
3.85028e-06
4.30114e-06
4.81666e-06
5.34772e-06
5.8483e-06
6.25441e-06
6.5205e-06
7.05873e-06
1.75653e-05
1.41654e-05
9.57861e-06
1.01478e-05
9.69207e-06
8.54429e-06
7.15609e-06
5.89946e-06
4.94153e-06
4.19299e-06
3.74129e-06
1.45855e-05
3.81355e-06
4.2734e-06
4.79498e-06
5.33181e-06
5.83719e-06
6.24665e-06
6.51487e-06
7.07549e-06
1.78199e-05
1.39844e-05
9.57558e-06
1.01705e-05
9.70904e-06
8.54981e-06
7.14905e-06
5.88346e-06
4.92045e-06
4.16925e-06
1.57344e-05
1.42324e-05
3.77652e-06
4.24796e-06
4.77489e-06
5.31723e-06
5.82715e-06
6.23949e-06
6.5094e-06
7.09336e-06
1.80785e-05
1.38024e-05
9.57464e-06
1.01926e-05
9.72653e-06
8.55746e-06
7.14572e-06
5.87237e-06
4.90509e-06
4.15161e-06
1.54918e-05
1.40539e-05
3.76243e-06
4.2266e-06
4.75647e-06
5.30347e-06
5.81764e-06
6.23269e-06
6.50418e-06
7.11261e-06
1.83415e-05
1.36197e-05
9.57581e-06
1.02142e-05
9.74466e-06
8.56727e-06
7.14609e-06
5.86627e-06
4.89587e-06
4.14498e-06
1.5385e-05
1.35398e-05
1.59828e-05
4.20812e-06
4.74051e-06
5.29089e-06
5.80848e-06
6.22586e-06
6.49883e-06
7.13301e-06
1.86083e-05
1.34366e-05
9.57903e-06
1.02356e-05
9.76359e-06
8.5793e-06
7.15001e-06
5.86472e-06
4.89208e-06
4.1474e-06
1.53931e-05
1.33091e-05
1.58812e-05
4.19154e-06
4.72676e-06
5.28038e-06
5.80078e-06
6.21986e-06
6.49392e-06
7.15493e-06
1.8879e-05
1.32532e-05
9.58408e-06
1.02567e-05
9.78339e-06
8.59357e-06
7.15745e-06
5.86743e-06
4.89432e-06
4.15463e-06
1.54393e-05
1.42411e-05
1.5652e-05
4.17066e-06
4.71161e-06
5.26966e-06
5.79332e-06
6.21419e-06
6.48935e-06
7.1785e-06
1.91538e-05
1.307e-05
9.59072e-06
1.02775e-05
9.80437e-06
8.61028e-06
7.16879e-06
5.87428e-06
4.89944e-06
4.16216e-06
1.5443e-05
1.49772e-05
1.56934e-05
4.15641e-06
4.69938e-06
5.26047e-06
5.78669e-06
6.20891e-06
6.48498e-06
7.20355e-06
1.9432e-05
1.28869e-05
9.59835e-06
1.02989e-05