/*--------------------------------*- C++ -*----------------------------------*\
  =========                 |
  \\      /  F ield         | OpenFOAM: The Open Source CFD Toolbox
   \\    /   O peration     | Website:  https://openfoam.org
    \\  /    A nd           | Version:  8
     \\/     M anipulation  |
\*---------------------------------------------------------------------------*/
FoamFile
{
    version     2.0;
    format      ascii;
    class       volScalarField;
    location    "200";
    object      p_rgh;
}
// * * * * * * * * * * * * * * * * * * * * * * * * * * * * * * * * * * * * * //

dimensions      [1 -1 -2 0 0 0 0];

internalField   nonuniform List<scalar> 
8400
(
2274.98
4913.21
7988.5
11738.5
16588.4
22751.7
30246.7
38883.7
48244.3
57675.8
66327.6
73248.3
77652.9
79531.2
79944.4
80075.8
80674.4
81959.3
83639.2
85330.4
86910.6
88384.4
89705.1
90824.8
91742.9
92480.8
93058.9
93503.2
93838.6
94086.7
94265.8
94390.3
94471.7
94518.9
94539
94537.4
94518.7
94486.4
94443.1
94391.2
94332.8
94269.8
94203.8
94136.4
94069.1
94003.4
93941.2
93886.2
93846.5
93827.3
1533.03
4244.68
7079.21
10536.9
15176
21264.7
28789
37553.5
47169.8
57027.9
66304.1
74011.9
79011.9
80618.1
80250.6
79693.7
79890.6
81177.8
83106.5
84998.2
86644
88167.9
89574.5
90771.6
91737.2
92507.5
93104.2
93555.4
93890.3
94133.7
94306
94423.4
94497.7
94538.1
94551.4
94543.3
94518.7
94481.4
94433.8
94378.2
94316.3
94249.7
94180
94108.5
94036.4
93965
93895.3
93829
93769.1
93717.5
2722.72
5323.17
7045.07
9707.37
13929.4
19863.7
27372.6
36237.4
46179.9
56699.7
66997.1
75995.9
82000.7
82884.5
80869.3
78962.8
78307.3
79761.2
82503.1
84905.7
86504.8
87959.5
89499.1
90841.9
91858.1
92653.1
93265.5
93713.8
94034.8
94260.9
94415.9
94517.6
94578.8
94608.5
94613.4
94599.2
94570
94528.9
94478.3
94420.3
94356.8
94289.2
94218.9
94147.3
94075.4
94004.3
93935.1
93868.8
93805.8
93744.2
-1961.87
1393.56
4776.13
8535.1
13680.8
20290.9
28230
37405.6
47617.1
58323.1
68585.4
77116.5
82397.6
83204.9
80469.5
77188.5
76029.5
78461.5
82655.1
85378.5
86292.9
87514.7
89432.6
91052.7
92036
92817.1
93461.4
93900
94193.5
94393.3
94523.4
94602.5
94643.8
94656.1
94645.7
94618.8
94579.1
94528.6
94469.6
94404.1
94333.7
94259.6
94183.2
94105.5
94027.2
93949.4
93873
93798.6
93725.8
93653.6
-10062.2
-3118.26
4323.44
10648
17181.1
24202.9
31643.2
39575.8
48021.8
56731.6
65125.2
72376.6
77536.2
79357
77430.2
75266.9
76562.4
80630.1
84694.2
86029.4
86015.4
87345.7
89928.5
91649.1
92250.3
93023.1
93775.9
94165.3
94405.7
94578.1
94678.8
94732.4
94753.8
94750.1
94727.9
94691.7
94643.3
94585.4
94520.1
94449.3
94374.5
94296.9
94217.5
94137
94056.1
93975.5
93895.8
93817.1
93738.7
93659.6
-4419.52
1070.33
8662.34
15271.7
21379.6
27415.8
33490.9
39768.7
46364.5
53158.3
59753.6
65574
70033
72786.4
74149.3
75495.1
77979.5
81057.7
83566.8
84745.4
86082.5
88738.3
91341.5
92153
92355.9
93361.4
94226.3
94408.4
94583.7
94748.6
94806.8
94828.2
94828
94806.9
94771.5
94724.1
94665.3
94598.1
94524.7
94446.8
94365.8
94282.7
94198.3
94113.2
94028
93943.3
93859.2
93776
93692.9
93609.4
-3048.45
3069.99
10464
16751.7
22249.9
27461.8
32610.9
37861.6
43309.8
48897.1
54413.1
59573.9
64129.5
67954.4
71143.4
74070.4
77070.5
80018.5
82614.3
84828.8
86974.2
89118.7
90818.7
91703.3
92913.6
94288.8
94611.2
94518
94755.9
94944.3
94923.5
94921.6
94912.8
94881.3
94836.7
94779.6
94711.9
94636.9
94556.8
94473.4
94387.8
94300.8
94213
94124.9
94037
93949.4
93862.5
93776.3
93690.1
93603.7
-1173.77
5292.67
12323.7
18139.9
23088
27678.5
32155.5
36658.7
41265.7
45974.9
50718.9
55399
59916
64173.4
68115.7
71797.5
75310
78641.5
81707.1
84440.1
86846.4
88953.2
90697.9
92032.3
93165.4
94030.4
94364
94761.5
95102.1
95068.8
94948.2
94972.7
94971.5
94924.9
94871
94807.3
94732.1
94650.2
94564.6
94476.8
94387.4
94297.1
94206.5
94116
94025.7
93935.9
93847
93758.8
93671
93583.6
202.795
7112.67
13824.9
19210.9
23734.1
27868.8
31840.6
35778.7
39767.4
43853.1
48053.5
52361.6
56740.5
61117.7
65401.8
69536.9
73495.8
77231.4
80664
83709.2
86344.9
88599
90464.2
91916.8
93034.5
93889.7
94413.3
94787.4
95020.3
95021.3
95050.3
95071.2
95021.8
94947.6
94894.3
94830.7
94748.9
94661.9
94572.9
94482.6
94391.4
94299.5
94207.4
94115.4
94023.9
93933
93842.9
93753.8
93665.3
93577.7
1682.83
8879.71
15173.6
20112.4
24257.1
28016.9
31589.7
35102.4
38650.7
42313.1
46149.5
50193.6
54439.7
58833.7
63282.8
67684.9
71943.5
75963.5
79648.8
82921.7
85754
88153.4
90121.9
91669.1
92864
93760.3
94354.2
94753.1
95000
95065.3
95085.8
95069.6
95024.1
94972.8
94915.9
94838.8
94748.9
94659.8
94570.7
94480.3
94388.8
94296.4
94203.8
94111.3
94019.3
93928
93837.5
93748.1
93659.7
93572.6
2896.26
10293
16120.6
20677.5
24551
28058.4
31371.4
34615.2
37895.7
41307.6
44930.2
48812.8
52964.3
57343.4
61859.2
66391.2
70809.4
74991.5
78833.6
82260.7
85236.3
87753.7
89820.3
91460.3
92728.9
93673.6
94332
94773.4
95037.7
95145.5
95167.3
95134.7
95068.8
94992.7
94917
94836.4
94750.6
94661.9
94571.6
94480.1
94387.8
94295.1
94202.3
94109.7
94017.6
93926.2
93835.6
93746
93657.7
93570.5
4171.7
11306.5
16651.4
20963.8
24690.8
28065.3
31243.3
34351.6
37503.3
40801
44327.5
48135.8
52239.8
56601.4
61131.9
65705.3
70181.8
74432.1
78350.7
81862.2
84923.2
87519.9
89660.1
91371.1
92699.7
93694.6
94402.8
94876.6
95161.6
95293.6
95318.8
95274.3
95187.9
95084.1
94978.8
94875.8
94775.5
94677.7
94581.8
94487.1
94392.9
94298.9
94205.3
94112
94019.3
93927.4
93836.3
93746.2
93657.2
93569.1
4684.02
11604.2
16753.3
21009.1
24705.8
28051.8
31202.1
34288.8
37429.4
40726
44258.7
48075.5
52185.3
56547.4
61072.4
65635.3
70101.3
74347.6
78274.9
81807.1
84896.4
87526.6
89704.3
91455.2
92821.9
93851.2
94589.3
95084.2
95381.9
95521.2
95543.6
95486.8
95381.8
95253.4
95118.9
94986.9
94861.2
94742.7
94630.6
94523.7
94420.5
94320
94221.6
94124.9
94029.5
93935.3
93842.2
93750.2
93659.2
93568.8
4738.4
11373.7
16576.7
20911.8
24666
28052.2
31236.9
34362.6
37553.2
40913
44518.8
48413.1
52590.8
56998.6
61540
66090.4
70523
74726.7
78615
82115.4
85179.6
87797.3
89974
91731.2
93108.1
94148.1
94895.4
95395.7
95693.2
95827.8
95839.5
95765.5
95637.7
95482
95316.9
95154.1
94999.4
94854.7
94720.1
94594.3
94475.8
94363.2
94255.3
94150.9
94049.5
93950.2
93852.8
93756.9
93662
93567.6
4519.51
10817.7
16121.9
20610.3
24530.8
28079
31419.7
34695.5
38027.7
41516.4
45233.3
49212.8
53444.2
57872.4
62403.2
66920.3
71306.7
75458.8
79292.6
82734.6
85739.7
88307.4
90448.3
92179.5
93538.9
94566.2
95302.8
95792.7
96078.1
96198.5
96192.1
96095.2
95939.9
95753
95554.9
95358.8
95172
94997.8
94836.9
94688.5
94551.1
94422.7
94301.9
94187
94076.8
93970.1
93866.1
93764
93663.2
93563.2
4357.27
10377.8
15724.3
20356.1
24471.7
28232.9
31788.4
35269.7
38790.5
42442.3
46288.9
50357.9
54636.1
59070.1
63572.7
68038.5
72359.5
76438.4
80195.3
83565.3
86507.8
89015
91091.2
92757.6
94068.6
95064.9
95774.8
96242
96506.7
96606.3
96576.6
96452.5
96266.7
96047.1
95815.1
95585
95365.4
95160.6
94972.2
94799.7
94641.6
94495.9
94360.6
94233.5
94112.9
93997.1
93884.7
93774.7
93666.2
93558.4
4308.16
10094.7
15434.6
20167.8
24448.7
28407.7
32173.3
35863.3
39579.5
43402.1
47384.3
51546.9
55874.6
60317.1
64795.7
69215.3
73476.9
77488.1
81172.5
84471.9
87352.2
89806.6
91834.6
93440.3
94667.9
95594
96262.8
96700.1
96939.8
97015.5
96959.5
96805.7
96587.8
96335.1
96069.9
95807.2
95556.2
95322.2
95107
94910.9
94732.4
94569.5
94419.7
94280.3
94149.1
94023.5
93902
93783
93665.5
93548
4392.65
9986.53
15298
20097.5
24504.1
28623.9
32567.5
36438.5
40326.3
44299.6
48401.4
52645.8
57015.8
61465.1
65923.2
70303.9
74515.3
78469.3
82091.5
85326.5
88145.3
90547
92538.4
94116.1
95292.3
96132
96725.2
97122
97338.2
97392.9
97312.4
97129.5
96880.7
96597.9
96303.7
96013.1
95735.2
95475.4
95236.4
95018.9
94821.9
94643.3
94480.3
94329.6
94188.3
94053.4
93922.7
93794.4
93666.4
93536.9
4488.05
9923.3
15197.7
20033.7
24524.6
28758
32831.4
36836.7
40853
44939.3
49130.2
53434.7
57835.1
62290
66736.2
71094.2
75276.7
79197.8
82782.6
85973.6
88740.3
91088.1
93045.2
94622.8
95804.5
96613.4
97132.9
97466.3
97655.3
97692.5
97586.9
97372.3
97092.2
96782.3
96465.2
96154
95856.5
95578
95321.6
95088.4
94877.8
94687.9
94515.5
94357
94208.6
94067.1
93929.7
93793.5
93656
93514
4667.8
10041.3
15296.2
20149.3
24684.3
28981.1
33129.9
37216
41312.1
45470.9
49721.1
54068.4
58495
62961.9
67409.6
71761.8
75932.2
79835.1
83393.4
86545.4
89257.2
91540.3
93447.4
95012.2
96203.5
97003
97473.1
97727.1
97880.1
97928.4
97813.9
97573.6
97265.2
96931.1
96594.4
96266.5
95953.9
95661.2
95391.7
95146.9
94926.3
94727.9
94548.6
94384.2
94230.8
94084.6
93942.1
93799.7
93652.9
93494.2
98834.9
98834.7
98834.6
98834.6
98834.6
98834.6
98834.6
98834.6
98834.6
98834.6
98834.6
98834.6
98834.6
98834.6
98834.5
98834.5
98834.5
98834.5
98834.5
98834.5
98834.5
98834.5
98834.5
98834.5
98834.5
98834.5
98834.5
98834.5
98834.5
98834.4
98834.4
98834.4
98834.3
98834.3
98834.3
98834.2
98834.2
98834.2
98834.1
98834.1
98834.1
98834.1
98834.1
98834.1
98834.1
98834.1
98834.1
98834.1
98834.1
98834.1
98834.3
98834.4
98834.4
98834.5
98834.5
98834.5
98834.5
98834.5
98834.5
98834.5
98834.5
98834.5
98834.5
98834.5
98834.5
98834.4
98834.4
98834.4
98834.4
98834.4
98834.4
98834.4
98834.4
98834.4
98834.4
98834.4
98834.4
98834.4
98834.4
98834.3
98834.3
98834.3
98834.2
98834.2
98834.1
98834.1
98834.1
98834
98834
98834
98834
98834
98834
98834
98834
98834
98834
98834
98834
98834
98834.5
98834.5
98834.5
98834.6
98834.6
98834.6
98834.6
98834.6
98834.6
98834.6
98834.5
98834.5
98834.5
98834.5
98834.5
98834.5
98834.4
98834.4
98834.4
98834.4
98834.4
98834.4
98834.4
98834.4
98834.4
98834.4
98834.4
98834.4
98834.4
98834.3
98834.3
98834.2
98834.2
98834.2
98834.1
98834.1
98834.1
98834
98834
98834
98834
98834
98834
98834
98834
98834
98834
98834
98834
98834
98834.5
98834.5
98834.5
98834.5
98834.5
98834.5
98834.5
98834.5
98834.5
98834.5
98834.5
98834.5
98834.5
98834.5
98834.4
98834.4
98834.4
98834.4
98834.4
98834.4
98834.4
98834.4
98834.4
98834.4
98834.4
98834.4
98834.4
98834.4
98834.3
98834.3
98834.3
98834.2
98834.2
98834.2
98834.1
98834.1
98834
98834
98834
98834
98834
98834
98834
98834
98834
98834
98834
98834
98834
98834
98834.5
98834.5
98834.5
98834.5
98834.5
98834.5
98834.5
98834.5
98834.5
98834.5
98834.5
98834.5
98834.5
98834.5
98834.5
98834.5
98834.4
98834.4
98834.4
98834.4
98834.4
98834.4
98834.4
98834.4
98834.4
98834.4
98834.4
98834.4
98834.3
98834.3
98834.3
98834.2
98834.2
98834.2
98834.1
98834.1
98834.1
98834
98834
98834
98834
98834
98834
98834
98834
98834
98834
98834
98834
98834
98834.5
98834.5
98834.5
98834.5
98834.5
98834.5
98834.5
98834.5
98834.5
98834.5
98834.5
98834.5
98834.5
98834.5
98834.4
98834.4
98834.4
98834.4
98834.4
98834.4
98834.4
98834.4
98834.4
98834.4
98834.4
98834.4
98834.4
98834.4
98834.3
98834.3
98834.3
98834.2
98834.2
98834.2
98834.1
98834.1
98834.1
98834
98834
98834
98834
98834
98834
98834
98834
98834
98834
98834
98834.1
98834.1
98834.5
98834.5
98834.5
98834.5
98834.5
98834.5
98834.5
98834.5
98834.5
98834.5
98834.5
98834.5
98834.5
98834.5
98834.4
98834.4
98834.4
98834.4
98834.4
98834.4
98834.4
98834.4
98834.4
98834.4
98834.4
98834.4
98834.4
98834.4
98834.3
98834.3
98834.3
98834.2
98834.2
98834.2
98834.1
98834.1
98834.1
98834
98834
98834
98834
98834
98834
98834
98834
98834
98834.1
98834.1
98834.1
98834.1
98834.5
98834.5
98834.5
98834.5
98834.5
98834.5
98834.5
98834.5
98834.5
98834.5
98834.5
98834.5
98834.5
98834.4
98834.4
98834.4
98834.4
98834.4
98834.4
98834.4
98834.4
98834.4
98834.4
98834.4
98834.4
98834.4
98834.4
98834.3
98834.3
98834.3
98834.3
98834.2
98834.2
98834.2
98834.1
98834.1
98834.1
98834
98834
98834
98834
98834
98834
98834
98834.1
98834.1
98834.1
98834.1
98834.1
98834.1
98834.5
98834.5
98834.5
98834.5
98834.5
98834.5
98834.5
98834.5
98834.5
98834.5
98834.5
98834.5
98834.4
98834.4
98834.4
98834.4
98834.4
98834.4
98834.4
98834.4
98834.4
98834.4
98834.4
98834.4
98834.4
98834.4
98834.4
98834.3
98834.3
98834.3
98834.3
98834.2
98834.2
98834.2
98834.1
98834.1
98834.1
98834.1
98834
98834
98834
98834
98834
98834.1
98834.1
98834.1
98834.1
98834.1
98834.2
98834.2
98834.4
98834.4
98834.4
98834.5
98834.5
98834.5
98834.5
98834.5
98834.5
98834.5
98834.5
98834.4
98834.4
98834.4
98834.4
98834.4
98834.4
98834.4
98834.4
98834.4
98834.4
98834.4
98834.4
98834.4
98834.4
98834.4
98834.4
98834.3
98834.3
98834.3
98834.3
98834.2
98834.2
98834.2
98834.1
98834.1
98834.1
98834.1
98834.1
98834
98834
98834.1
98834.1
98834.1
98834.1
98834.1
98834.1
98834.2
98834.2
98834.2
98834.4
98834.4
98834.4
98834.4
98834.5
98834.5
98834.5
98834.5
98834.5
98834.4
98834.4
98834.4
98834.4
98834.4
98834.4
98834.4
98834.4
98834.4
98834.4
98834.4
98834.4
98834.4
98834.4
98834.4
98834.4
98834.4
98834.3
98834.3
98834.3
98834.3
98834.3
98834.2
98834.2
98834.2
98834.1
98834.1
98834.1
98834.1
98834.1
98834.1
98834.1
98834.1
98834.1
98834.1
98834.1
98834.1
98834.2
98834.2
98834.2
98834.2
98834.4
98834.4
98834.4
98834.4
98834.4
98834.4
98834.4
98834.4
98834.4
98834.4
98834.4
98834.4
98834.4
98834.4
98834.4
98834.4
98834.4
98834.4
98834.4
98834.4
98834.4
98834.4
98834.4
98834.4
98834.4
98834.4
98834.3
98834.3
98834.3
98834.3
98834.3
98834.2
98834.2
98834.2
98834.1
98834.1
98834.1
98834.1
98834.1
98834.1
98834.1
98834.1
98834.1
98834.1
98834.1
98834.2
98834.2
98834.2
98834.2
98834.3
98834.4
98834.4
98834.4
98834.4
98834.4
98834.4
98834.4
98834.4
98834.4
98834.4
98834.4
98834.4
98834.4
98834.4
98834.4
98834.4
98834.4
98834.4
98834.4
98834.4
98834.4
98834.4
98834.4
98834.4
98834.3
98834.3
98834.3
98834.3
98834.3
98834.3
98834.3
98834.2
98834.2
98834.2
98834.1
98834.1
98834.1
98834.1
98834.1
98834.1
98834.1
98834.1
98834.1
98834.1
98834.1
98834.2
98834.2
98834.2
98834.3
98834.3
98834.4
98834.4
98834.4
98834.4
98834.4
98834.4
98834.4
98834.4
98834.4
98834.4
98834.4
98834.4
98834.4
98834.4
98834.4
98834.4
98834.4
98834.4
98834.4
98834.4
98834.4
98834.4
98834.4
98834.4
98834.3
98834.3
98834.3
98834.3
98834.3
98834.3
98834.3
98834.2
98834.2
98834.2
98834.2
98834.1
98834.1
98834.1
98834.1
98834.1
98834.1
98834.1
98834.1
98834.1
98834.2
98834.2
98834.2
98834.3
98834.3
98834.3
98834.4
98834.4
98834.4
98834.4
98834.4
98834.4
98834.4
98834.4
98834.4
98834.4
98834.4
98834.4
98834.4
98834.4
98834.4
98834.4
98834.4
98834.4
98834.4
98834.4
98834.4
98834.3
98834.3
98834.3
98834.3
98834.3
98834.3
98834.3
98834.3
98834.3
98834.2
98834.2
98834.2
98834.2
98834.2
98834.1
98834.1
98834.1
98834.1
98834.1
98834.1
98834.1
98834.1
98834.2
98834.2
98834.2
98834.3
98834.3
98834.3
98834.4
98834.4
98834.4
98834.4
98834.4
98834.4
98834.4
98834.4
98834.4
98834.4
98834.4
98834.4
98834.4
98834.4
98834.4
98834.4
98834.4
98834.4
98834.4
98834.4
98834.4
98834.4
98834.4
98834.4
98834.3
98834.3
98834.3
98834.3
98834.3
98834.3
98834.3
98834.3
98834.2
98834.2
98834.2
98834.2
98834.1
98834.1
98834.1
98834.1
98834.1
98834.1
98834.1
98834.1
98834.2
98834.2
98834.2
98834.3
98834.3
98834.4
98834.4
98834.4
98834.4
98834.4
98834.4
98834.4
98834.4
98834.4
98834.4
98834.4
98834.4
98834.4
98834.4
98834.4
98834.4
98834.4
98834.4
98834.4
98834.4
98834.3
98834.3
98834.3
98834.3
98834.3
98834.3
98834.3
98834.3
98834.3
98834.3
98834.3
98834.3
98834.2
98834.2
98834.2
98834.2
98834.2
98834.1
98834.1
98834.1
98834.1
98834.1
98834.1
98834.1
98834.2
98834.2
98834.2
98834.2
98834.3
98834.3
98834.4
98834.4
98834.4
98834.4
98834.5
98834.5
98834.4
98834.4
98834.4
98834.4
98834.4
98834.4
98834.4
98834.4
98834.4
98834.4
98834.4
98834.4
98834.4
98834.4
98834.4
98834.4
98834.4
98834.4
98834.3
98834.3
98834.3
98834.3
98834.3
98834.3
98834.3
98834.3
98834.3
98834.2
98834.2
98834.2
98834.2
98834.2
98834.1
98834.1
98834.1
98834.1
98834.1
98834.2
98834.2
98834.2
98834.2
98834.3
98834.3
98834.4
98834.4
98834.5
98834.2
98834.3
98834.3
98834.3
98834.4
98834.4
98834.4
98834.4
98834.4
98834.4
98834.4
98834.4
98834.4
98834.4
98834.4
98834.4
98834.4
98834.4
98834.4
98834.4
98834.3
98834.3
98834.3
98834.3
98834.3
98834.3
98834.3
98834.3
98834.3
98834.3
98834.3
98834.2
98834.2
98834.2
98834.2
98834.2
98834.2
98834.2
98834.2
98834.2
98834.2
98834.2
98834.2
98834.2
98834.3
98834.3
98834.4
98834.4
98834.5
98834.5
98834.8
98834.6
98834.5
98834.5
98834.5
98834.5
98834.5
98834.5
98834.4
98834.4
98834.4
98834.4
98834.4
98834.4
98834.4
98834.5
98834.5
98834.5
98834.5
98834.5
98834.5
98834.5
98834.5
98834.5
98834.5
98834.4
98834.4
98834.4
98834.4
98834.4
98834.4
98834.4
98834.4
98834.3
98834.3
98834.3
98834.3
98834.3
98834.3
98834.3
98834.3
98834.3
98834.4
98834.4
98834.4
98834.5
98834.5
98834.6
98834.6
98834.7
98088.6
98117.7
98119.3
98139.5
98142.3
98153.1
98155.2
98159.1
98159.6
98160
98159.9
98159.9
98160.8
98163.2
98166.1
98172.5
98176.7
98188.8
98192
98210.5
98078.5
98107.8
98109.5
98129.8
98132.7
98143.6
98145.6
98149.6
98150
98150.4
98150.3
98150.4
98151.2
98153.7
98156.5
98163
98167.2
98179.6
98183
98202.3
98068.7
98098.2
98100
98120.4
98123.3
98134.3
98136.3
98140.3
98140.7
98141.1
98140.9
98141
98141.9
98144.4
98147.4
98154.2
98158.7
98171.5
98175.4
98195.7
98059.1
98088.8
98090.7
98111.2
98114.2
98125.2
98127.2
98131.2
98131.6
98131.9
98131.8
98131.9
98132.8
98135.5
98138.6
98145.8
98150.5
98163.9
98168.2
98189.1
98049.9
98079.7
98081.8
98102.3
98105.4
98116.4
98118.4
98122.4
98122.7
98123.1
98122.9
98123
98124
98126.7
98129.9
98137.2
98142
98155.7
98159.9
98181.2
98041
98071
98073.3
98093.8
98096.9
98107.9
98109.9
98113.9
98114.1
98114.5
98114.3
98114.4
98115.4
98118.2
98121.5
98128.9
98133.7
98147.5
98151.7
98173.3
98032.5
98062.7
98065.1
98085.6
98088.8
98099.8
98101.7
98105.7
98105.9
98106.2
98106
98106.1
98107.2
98110.1
98113.4
98120.9
98125.8
98139.8
98144
98166
98024.5
98054.8
98057.4
98077.8
98081.2
98092.1
98094
98097.9
98098
98098.3
98098
98098.2
98099.3
98102.3
98105.6
98113.4
98118.3
98132.6
98136.9
98159.1
98016.9
98047.3
98050.1
98070.5
98073.9
98084.8
98086.7
98090.5
98090.6
98090.8
98090.5
98090.7
98091.8
98094.9
98098.4
98106.3
98111.3
98125.8
98130.1
98152.7
98009.9
98040.4
98043.3
98063.7
98067.2
98078
98079.9
98083.6
98083.6
98083.8
98083.5
98083.6
98084.9
98088
98091.5
98099.6
98104.7
98119.5
98123.9
98146.7
98003.3
98033.9
98037
98057.4
98060.9
98071.7
98073.6
98077.3
98077.2
98077.3
98076.9
98077.1
98078.4
98081.7
98085.3
98093.5
98098.7
98113.7
98118.1
98141.2
97997.3
98028
98031.2
98051.6
98055.3
98065.9
98067.8
98071.4
98071.3
98071.3
98071
98071.2
98072.5
98075.9
98079.5
98088
98093.1
98108.4
98112.8
98136.2
97991.9
98022.6
98026.1
98046.4
98050.2
98060.8
98062.7
98066.2
98066.1
98066
98065.7
98066
98067.3
98070.7
98074.4
98083
98088.2
98103.7
98108.1
98131.7
97987.1
98017.8
98021.5
98041.7
98045.6
98056.2
98058.2
98061.7
98061.5
98061.4
98061.1
98061.4
98062.7
98066.2
98069.9
98078.6
98083.8
98099.5
98103.9
98127.7
97982.9
98013.6
98017.5
98037.7
98041.8
98052.3
98054.3
98057.8
98057.6
98057.6
98057.3
98057.5
98058.8
98062.4
98066.1
98074.9
98080
98095.8
98100.2
98124.1
97979.2
98010
98014
98034.3
98038.5
98049
98051.2
98054.6
98054.5
98054.5
98054.2
98054.4
98055.7
98059.3
98062.9
98071.7
98076.8
98092.7
98097
98121.1
97976.1
98007
98011.2
98031.4
98035.8
98046.4
98048.7
98052.1
98052.2
98052.2
98051.9
98052
98053.3
98056.9
98060.4
98069.2
98074.2
98090.1
98094.4
98118.7
97973.5
98004.5
98008.9
98029.1
98033.7
98044.3
98046.8
98050.4
98050.5
98050.6
98050.3
98050.4
98051.6
98055.1
98058.5
98067.3
98072.2
98088.1
98092.4
98116.7
97971.5
98002.5
98007.1
98027.4
98032.2
98042.9
98045.6
98049.2
98049.6
98049.8
98049.5
98049.5
98050.7
98054.1
98057.3
98066
98070.7
98086.7
98090.9
98115.3
97969.9
98000.9
98005.8
98026.1
98031.1
98041.9
98044.8
98048.6
98049.3
98049.5
98049.2
98049.3
98050.3
98053.6
98056.6
98065.2
98069.8
98085.8
98089.9
98114.4
97968.8
97999.8
98004.8
98025.2
98030.5
98041.3
98044.5
98048.5
98049.3
98049.7
98049.4
98049.5
98050.4
98053.5
98056.4
98064.9
98069.3
98085.3
98089.3
98113.9
97968.1
97999.1
98004.3
98024.7
98030.2
98041.2
98044.6
98048.7
98049.8
98050.2
98049.9
98050.1
98050.8
98053.8
98056.5
98065
98069.2
98085.1
98089.1
98113.7
97967.7
97998.8
98004.1
98024.5
98030.2
98041.3
98045
98049.3
98050.4
98050.8
98050.7
98050.9
98051.5
98054.3
98056.9
98065.3
98069.4
98085.3
98089.3
98113.9
97967.6
97998.8
98004.2
98024.7
98030.6
98041.8
98045.6
98050
98051.3
98051.8
98051.6
98051.9
98052.3
98055.1
98057.5
98065.9
98069.8
98085.8
98089.7
98114.4
97967.9
97999.1
98004.7
98025.2
98031.3
98042.4
98046.5
98050.9
98052.3
98052.8
98052.7
98052.9
98053.3
98056
98058.3
98066.6
98070.5
98086.4
98090.3
98115
97968.6
97999.8
98005.5
98025.9
98032.2
98043.3
98047.5
98051.8
98053.3
98053.9
98053.8
98054
98054.2
98056.9
98059.2
98067.5
98071.3
98087.3
98091.2
98115.9
97969.6
98000.8
98006.6
98027
98033.3
98044.3
98048.5
98052.8
98054.3
98054.9
98054.8
98055
98055.2
98058
98060.2
98068.5
98072.3
98088.3
98092.3
98117.1
97971
98002.2
98008.1
98028.3
98034.7
98045.5
98049.7
98053.9
98055.3
98055.8
98055.7
98055.9
98056.1
98059
98061.2
98069.6
98073.5
98089.5
98093.6
98118.4
97972.8
98003.9
98009.9
98029.8
98036.3
98046.9
98051
98055
98056.4
98056.8
98056.6
98056.9
98057.1
98060.1
98062.4
98070.9
98074.8
98091
98095.1
98119.9
97974.9
98005.9
98011.9
98031.7
98038.1
98048.4
98052.5
98056.3
98057.5
98057.8
98057.7
98057.9
98058.2
98061.4
98063.7
98072.4
98076.4
98092.7
98096.8
98121.7
97977.5
98008.3
98014.4
98033.9
98040.2
98050.3
98054.2
98057.8
98058.9
98059.1
98059
98059.2
98059.5
98062.9
98065.3
98074.2
98078.2
98094.6
98098.8
98123.8
97980.4
98011.1
98017.3
98036.4
98042.7
98052.5
98056.3
98059.7
98060.6
98060.7
98060.6
98060.9
98061.2
98064.7
98067.2
98076.3
98080.3
98096.9
98101.2
98126.2
97983.9
98014.4
98020.6
98039.4
98045.7
98055.1
98058.8
98062
98062.8
98062.8
98062.6
98063
98063.3
98067
98069.5
98078.7
98082.9
98099.5
98103.8
98128.9
97987.8
98018.2
98024.4
98042.9
98049.1
98058.2
98061.8
98064.8
98065.5
98065.4
98065.2
98065.6
98065.9
98069.8
98072.3
98081.7
98085.8
98102.6
98106.9
98132
97992.3
98022.5
98028.8
98047
98053.1
98061.9
98065.3
98068.2
98068.8
98068.7
98068.4
98068.8
98069.2
98073.1
98075.6
98085.1
98089.3
98106.1
98110.4
98135.6
97997.4
98027.4
98033.7
98051.5
98057.6
98066.1
98069.5
98072.1
98072.7
98072.5
98072.3
98072.6
98073.1
98077.1
98079.5
98089.2
98093.3
98110.2
98114.5
98139.7
98003.1
98032.9
98039.3
98056.7
98062.7
98071
98074.2
98076.7
98077.2
98077
98076.8
98077.1
98077.6
98081.6
98084.1
98093.8
98097.9
98114.9
98119.1
98144.3
98009.5
98039.1
98045.5
98062.6
98068.5
98076.4
98079.6
98081.9
98082.4
98082.1
98081.9
98082.3
98082.8
98086.9
98089.3
98099.1
98103.1
98120.2
98124.3
98149.6
98016.6
98045.9
98052.4
98069
98074.9
98082.6
98085.6
98087.8
98088.2
98087.9
98087.7
98088.1
98088.6
98092.7
98095.1
98105
98108.9
98126.1
98130.1
98155.3
98024.4
98053.4
98059.9
98076.2
98082
98089.3
98092.3
98094.3
98094.7
98094.3
98094.2
98094.6
98095.1
98099.2
98101.6
98111.5
98115.3
98132.6
98136.5
98161.7
98033
98061.7
98068.3
98084.1
98089.8
98096.8
98099.6
98101.5
98101.8
98101.5
98101.3
98101.7
98102.3
98106.3
98108.7
98118.6
98122.4
98139.7
98143.5
98168.7
98042.5
98070.8
98077.4
98092.7
98098.3
98105
98107.7
98109.4
98109.6
98109.2
98109
98109.4
98110
98114.1
98116.4
98126.4
98130.1
98147.5
98151.1
98176.3
98052.7
98080.7
98087.3
98102.1
98107.6
98113.9
98116.4
98117.9
98118
98117.6
98117.4
98117.7
98118.4
98122.4
98124.8
98134.8
98138.5
98155.9
98159.4
98184.5
98063.8
98091.4
98097.9
98112.3
98117.5
98123.5
98125.8
98127.1
98127.1
98126.6
98126.4
98126.7
98127.5
98131.4
98133.9
98143.9
98147.6
98165
98168.5
98193.5
98075.9
98102.9
98109.5
98123.3
98128.3
98133.8
98135.9
98137
98136.8
98136.2
98136
98136.3
98137.2
98141.1
98143.7
98153.7
98157.4
98174.9
98178.2
98203.2
98088.8
98115.3
98121.9
98135
98139.8
98144.9
98146.7
98147.6
98147.3
98146.5
98146.3
98146.6
98147.6
98151.5
98154.3
98164.3
98168
98185.5
98188.8
98213.7
98102.8
98128.7
98135.2
98147.7
98152.2
98156.8
98158.3
98158.9
98158.4
98157.6
98157.3
98157.6
98158.7
98162.7
98165.6
98175.6
98179.5
98197
98200.3
98225
98117.8
98143.1
98149.4
98161.3
98165.5
98169.6
98170.8
98171.1
98170.4
98169.4
98169.1
98169.4
98170.7
98174.7
98177.8
98187.8
98191.8
98209.4
98212.6
98237.1
98133.9
98158.5
98164.8
98175.9
98179.8
98183.3
98184.1
98184.1
98183.2
98182.1
98181.7
98182.1
98183.5
98187.5
98190.9
98200.9
98205
98222.6
98225.8
98250.2
98151.1
98175
98181.2
98191.6
98195.1
98198
98198.5
98198
98196.9
98195.7
98195.3
98195.7
98197.2
98201.2
98204.8
98214.9
98219.2
98236.8
98239.9
98264.1
98169.6
98192.7
98198.7
98208.4
98211.4
98213.7
98213.8
98213
98211.6
98210.2
98209.7
98210.2
98211.8
98215.9
98219.8
98229.8
98234.4
98252
98255.1
98279.1
98189.3
98211.6
98217.5
98226.4
98228.9
98230.6
98230.1
98228.9
98227.3
98225.7
98225.2
98225.7
98227.5
98231.6
98235.8
98245.8
98250.6
98268.1
98271.3
98295
98210.3
98231.8
98237.4
98245.5
98247.5
98248.5
98247.6
98246
98244
98242.3
98241.7
98242.3
98244.2
98248.4
98252.8
98262.8
98267.9
98285.4
98288.6
98312
98232.6
98253.1
98258.5
98265.8
98267.3
98267.7
98266.2
98264.1
98261.9
98260
98259.4
98259.9
98262
98266.2
98271
98281
98286.4
98303.8
98307
98330
98256.2
98275.6
98280.8
98287.3
98288.2
98287.9
98286
98283.5
98280.9
98278.8
98278.1
98278.8
98281
98285.3
98290.4
98300.3
98306.1
98323.3
98326.7
98349.3
98281
98299.4
98304.3
98310
98310.4
98309.4
98306.9
98304
98301.1
98298.9
98298.1
98298.8
98301.2
98305.6
98311
98320.9
98327.1
98344.1
98347.6
98369.7
98307.1
98324.4
98329.1
98333.9
98333.8
98332.1
98329.1
98325.7
98322.5
98320.1
98319.3
98320.1
98322.6
98327.1
98332.9
98342.8
98349.4
98366.2
98369.9
98391.4
98334.5
98350.6
98355
98359.1
98358.4
98356.1
98352.5
98348.7
98345.2
98342.7
98341.8
98342.7
98345.3
98350
98356.1
98366
98373
98389.6
98393.5
98414.4
98363.1
98378
98382.1
98385.4
98384.2
98381.3
98377.2
98373
98369.2
98366.4
98365.5
98366.5
98369.3
98374.1
98380.6
98390.4
98398
98414.3
98418.4
98438.6
98392.8
98406.6
98410.4
98412.9
98411.2
98407.7
98403.1
98398.4
98394.3
98391.4
98390.5
98391.5
98394.5
98399.5
98406.4
98416.2
98424.2
98440.2
98444.6
98464
98423.6
98436
98439.6
98441.5
98439.3
98435.2
98430.2
98425.1
98420.7
98417.7
98416.7
98417.8
98421
98426.2
98433.4
98443.2
98451.7
98467.4
98472
98490.5
98455
98466.3
98469.5
98470.8
98468.2
98463.7
98458.2
98452.8
98448.2
98445.1
98444
98445.3
98448.6
98454.1
98461.5
98471.4
98480.4
98495.6
98500.5
98518.1
98487
98497
98499.9
98500.8
98497.9
98493
98487.2
98481.5
98476.8
98473.5
98472.5
98473.9
98477.3
98483
98490.7
98500.6
98510
98524.8
98529.9
98546.4
98519
98527.8
98530.5
98531
98528
98522.9
98516.9
98511
98506.2
98502.9
98501.9
98503.4
98507
98512.9
98520.8
98530.7
98540.4
98554.8
98560.1
98575.4
98550.7
98558.3
98560.8
98561.2
98558.1
98553
98547
98541.1
98536.2
98533
98532.1
98533.7
98537.4
98543.5
98551.6
98561.5
98571.4
98585.2
98590.6
98604.7
98581.8
98588.2
98590.6
98590.9
98588.1
98583.2
98577.3
98571.5
98566.7
98563.6
98562.8
98564.5
98568.4
98574.6
98582.8
98592.6
98602.7
98615.8
98621.3
98634.1
98611.7
98617.1
98619.4
98619.8
98617.4
98612.9
98607.4
98601.9
98597.4
98594.5
98593.8
98595.6
98599.6
98605.8
98614
98623.7
98633.9
98646.2
98651.7
98663.1
98640.1
98644.6
98646.8
98647.5
98645.7
98641.8
98636.9
98631.9
98627.7
98625.2
98624.7
98626.7
98630.7
98636.9
98645.1
98654.6
98664.6
98676
98681.5
98691.4
98666.7
98670.3
98672.4
98673.5
98672.5
98669.5
98665.4
98661.1
98657.5
98655.3
98655.1
98657.2
98661.3
98667.5
98675.4
98684.6
98694.3
98704.8
98710.1
98718.5
98691.2
98694
98696.1
98697.5
98697.4
98695.5
98692.5
98689
98686.1
98684.4
98684.5
98686.7
98690.9
98696.9
98704.6
98713.4
98722.6
98732.1
98737
98744
98713.3
98715.4
98717.4
98719.2
98720
98719.4
98717.6
98715.2
98713.1
98712
98712.5
98714.9
98719
98724.8
98732.2
98740.4
98749
98757.4
98761.9
98767.5
98732.9
98734.5
98736.3
98738.3
98740
98740.7
98740.2
98739.1
98738
98737.6
98738.5
98741
98745.1
98750.7
98757.5
98765.1
98772.9
98780.2
98784.2
98788.5
98750
98751.2
98752.7
98754.8
98757.1
98759
98760.1
98760.4
98760.4
98760.8
98762.1
98764.8
98768.8
98774
98780.2
98787.1
98793.9
98800.1
98803.6
98806.8
98764.6
98765.5
98766.7
98768.8
98771.4
98774.2
98776.7
98778.5
98779.8
98781.1
98783
98785.8
98789.6
98794.4
98800
98806
98811.8
98816.9
98819.9
98822.2
98776.9
98777.6
98778.5
98780.3
98783
98786.3
98789.9
98793.2
98795.9
98798.3
98800.7
98803.7
98807.3
98811.6
98816.5
98821.6
98826.5
98830.6
98833.1
98834.6
98787.1
98787.7
98788.4
98789.9
98792.2
98795.6
98799.8
98804.2
98808.4
98812
98815.3
98818.4
98821.9
98825.7
98829.8
98834
98837.9
98841.1
98843.1
98844.1
98795.4
98795.9
98796.5
98797.7
98799.6
98802.5
98806.6
98811.6
98816.8
98821.8
98826.2
98829.9
98833.4
98836.7
98840
98843.2
98846.1
98848.6
98850.4
98851.2
98802.2
98802.7
98803.2
98804.2
98805.6
98807.9
98811.2
98815.7
98821.2
98827.1
98832.7
98837.5
98841.4
98844.6
98847.3
98849.7
98851.8
98853.7
98855.3
98855.7
98807.7
98808.2
98808.7
98809.5
98810.6
98812.3
98814.6
98818
98822.5
98828
98834
98839.8
98844.8
98848.6
98851.2
98853.2
98854.7
98855.9
98856.6
98855.7
98812.1
98812.6
98813
98813.8
98814.8
98816.1
98817.7
98819.9
98822.9
98826.7
98831.4
98836.7
98842.1
98846.9
98850.3
98852.2
98853.1
98853.2
98852
98850.5
98815.7
98816.1
98816.5
98817.3
98818.2
98819.2
98820.6
98822.1
98823.9
98826.2
98828.9
98832.3
98836.2
98840.3
98843.9
98846.2
98846.9
98846.2
98844.4
98844.6
98818.6
98818.9
98819.3
98820
98820.8
98821.8
98822.9
98824.1
98825.5
98826.9
98828.5
98830.1
98831.9
98833.8
98835.7
98837.5
98838.3
98838.1
98838.4
98838.9
98820.9
98821.2
98821.6
98822.2
98822.9
98823.8
98824.7
98825.8
98826.9
98828.1
98829.3
98830.4
98831.6
98832.6
98833.6
98834.4
98835
98835.4
98835.8
98836.1
98822.7
98823
98823.3
98823.9
98824.5
98825.3
98826.1
98827.1
98828
98829
98830
98831
98831.9
98832.8
98833.5
98834.1
98834.5
98834.7
98834.9
98835
98824.2
98824.4
98824.7
98825.2
98825.8
98826.5
98827.2
98828
98828.8
98829.7
98830.5
98831.4
98832.1
98832.8
98833.4
98833.9
98834.2
98834.5
98834.6
98834.7
98825.4
98825.5
98825.8
98826.3
98826.8
98827.4
98828
98828.7
98829.4
98830.2
98830.9
98831.6
98832.2
98832.8
98833.3
98833.7
98834
98834.2
98834.4
98834.5
98826.3
98826.5
98826.7
98827.1
98827.6
98828.1
98828.7
98829.3
98829.9
98830.5
98831.1
98831.7
98832.2
98832.7
98833.2
98833.5
98833.8
98834
98834.2
98834.3
98827.1
98827.2
98827.4
98827.8
98828.2
98828.7
98829.2