/*--------------------------------*- C++ -*----------------------------------*\
  =========                 |
  \\      /  F ield         | OpenFOAM: The Open Source CFD Toolbox
   \\    /   O peration     | Website:  https://openfoam.org
    \\  /    A nd           | Version:  8
     \\/     M anipulation  |
\*---------------------------------------------------------------------------*/
FoamFile
{
    version     2.0;
    format      ascii;
    class       surfaceScalarField;
    location    "200";
    object      phi;
}
// * * * * * * * * * * * * * * * * * * * * * * * * * * * * * * * * * * * * * //

dimensions      [1 0 -1 0 0 0 0];

internalField   nonuniform List<scalar> 
16360
(
-1.30914
-0.00229124
-1.3132
0.00406131
-1.31858
0.00538295
-1.31884
0.000263728
-1.3077
-0.0111341
-1.28041
-0.0272867
-1.23487
-0.0455448
-1.17119
-0.0636723
-1.09167
-0.0795175
-1.00143
-0.0902401
-0.909029
-0.0923969
-0.825599
-0.0834293
-0.761414
-0.0641904
-0.718639
-0.0427768
-0.689518
-0.0291183
-0.664154
-0.0253578
-0.63662
-0.0275363
-0.60378
-0.0328358
-0.566528
-0.0372568
-0.528255
-0.0382852
-0.490959
-0.0372856
-0.455777
-0.0351808
-0.423183
-0.0325986
-0.39406
-0.0291265
-0.368939
-0.0251195
-0.347834
-0.0211102
-0.330559
-0.0172761
-0.316762
-0.0138006
-0.305973
-0.01078
-0.297772
-0.00819996
-0.291745
-0.0060354
-0.287498
-0.00424642
-0.28471
-0.00278305
-0.283104
-0.00160087
-0.282443
-0.000658944
-0.282526
8.2247e-05
-0.283184
0.00065374
-0.284274
0.00109755
-0.2857
0.00143813
-0.28739
0.00168468
-0.289257
0.00186419
-0.291248
0.00198704
-0.293306
0.0020544
-0.295373
0.00207072
-0.297401
0.00203686
-0.29934
0.00193944
-0.301111
0.00176704
-0.302628
0.00151558
-0.303785
0.00115754
0.000534724
-0.304319
-1.14246
-0.00352693
-1.13306
-0.00535406
-1.11775
-0.00993102
-1.09141
-0.0260752
-1.05315
-0.049403
-1.00703
-0.0734072
-0.956817
-0.0957513
-0.90387
-0.11663
-0.847925
-0.135466
-0.789734
-0.148436
-0.732955
-0.149177
-0.684446
-0.131939
-0.650746
-0.0978859
-0.632401
-0.0611105
-0.622031
-0.0394903
-0.609438
-0.03795
-0.593094
-0.0438891
-0.569747
-0.0561776
-0.53916
-0.0678248
-0.505613
-0.0718367
-0.472336
-0.0705787
-0.441797
-0.0657172
-0.412687
-0.0617133
-0.386076
-0.0557231
-0.363354
-0.0478378
-0.344702
-0.0397536
-0.32975
-0.0322204
-0.318102
-0.025459
-0.3092
-0.01967
-0.302586
-0.0148141
-0.297829
-0.0108008
-0.294545
-0.00752405
-0.292451
-0.00487935
-0.291307
-0.00275174
-0.290911
-0.0010517
-0.291124
0.000299805
-0.291841
0.00137055
-0.292958
0.00221785
-0.2944
0.00287282
-0.29608
0.00336836
-0.297932
0.00372766
-0.299913
0.00396742
-0.301968
0.0041077
-0.304046
0.00415598
-0.306119
0.00410638
-0.308149
0.00396126
-0.310086
0.00371261
-0.311893
0.0033296
-0.313492
0.0027606
0.0019004
-0.314853
-0.302785
-0.034912
-0.280606
-0.0275261
-0.255111
-0.0354254
-0.232911
-0.0482756
-0.218831
-0.0634904
-0.212813
-0.0794271
-0.213933
-0.0946261
-0.222259
-0.108304
-0.238744
-0.118974
-0.263684
-0.123486
-0.296481
-0.116381
-0.338044
-0.0903761
-0.388577
-0.0473555
-0.43273
-0.01697
-0.462288
-0.00993476
-0.471141
-0.029093
-0.478793
-0.0362299
-0.477248
-0.0577223
-0.462553
-0.0825274
-0.440651
-0.0937327
-0.416832
-0.0943928
-0.398502
-0.0840499
-0.377024
-0.0831911
-0.353735
-0.0790173
-0.333427
-0.0681401
-0.317478
-0.0557079
-0.304445
-0.0452611
-0.294389
-0.0355304
-0.286942
-0.0271169
-0.281552
-0.0202007
-0.277798
-0.0145552
-0.275322
-0.00999648
-0.273849
-0.00634409
-0.273175
-0.00343026
-0.273126
-0.00109769
-0.273577
0.000749859
-0.274436
0.00222893
-0.275615
0.00340046
-0.277047
0.00430223
-0.278661
0.00498123
-0.280402
0.00547131
-0.282229
0.00579863
-0.284102
0.005982
-0.285984
0.0060339
-0.287842
0.00596661
-0.28965
0.00577855
-0.291389
0.00545375
-0.293044
0.00497752
-0.294602
0.00431662
0.00337481
-0.296069
1.3159
-0.0090733
1.28389
0.00449864
1.24925
-0.000796067
1.2101
-0.00913084
1.16398
-0.0173683
1.10824
-0.0236813
1.04004
-0.0264298
0.955993
-0.024258
0.853073
-0.0160558
0.731129
-0.00154308
0.595459
0.0192928
0.458197
0.046887
0.329497
0.0813588
0.178039
0.134484
-0.00791692
0.176011
-0.159086
0.122081
-0.233306
0.037984
-0.264856
-0.0261747
-0.289505
-0.0578726
-0.309103
-0.0741243
-0.314682
-0.0888107
-0.323428
-0.0753162
-0.318671
-0.0879459
-0.303296
-0.0943913
-0.289677
-0.081767
-0.280997
-0.0643894
-0.27132
-0.0549325
-0.263706
-0.0431319
-0.25882
-0.0320087
-0.255442
-0.0235803
-0.253311
-0.0166841
-0.252145
-0.0111681
-0.251696
-0.00679642
-0.251799
-0.00331911
-0.252347
-0.000556403
-0.253265
0.00167561
-0.25451
0.00348058
-0.256019
0.00490546
-0.257724
0.00600722
-0.259574
0.00683443
-0.261524
0.00742863
-0.263546
0.00782127
-0.265608
0.00803923
-0.267674
0.00810711
-0.269728
0.0080326
-0.271761
0.0078106
-0.273751
0.00743931
-0.275682
0.00690779
-0.277545
0.00618552
0.00523581
-0.279402
1.65055
0.0639976
1.60753
0.0475178
1.56417
0.0425698
1.51988
0.0351624
1.47285
0.0296602
1.42112
0.0280461
1.36324
0.0314499
1.29804
0.040931
1.22442
0.0575653
1.14034
0.082528
1.04408
0.115561
0.935908
0.155051
0.820777
0.19649
0.72483
0.23044
0.662731
0.238121
0.588984
0.195827
0.479071
0.1479
0.336971
0.115914
0.171445
0.107651
-0.00608995
0.103413
-0.131755
0.0368462
-0.180173
-0.0268972
-0.207344
-0.0607673
-0.218305
-0.083434
-0.226626
-0.073441
-0.233215
-0.0577941
-0.227438
-0.0607051
-0.223261
-0.0473107
-0.222472
-0.0328034
-0.221177
-0.0248758
-0.220807
-0.0170584
-0.221076
-0.0108869
-0.221661
-0.00619801
-0.222526
-0.00246241
-0.223661
0.000569164
-0.22504
0.00306598
-0.226639
0.00508068
-0.228398
0.00666281
-0.230265
0.00787554
-0.232201
0.0087729
-0.234178
0.0094036
-0.236177
0.00981162
-0.238173
0.0100359
-0.240152
0.0100949
-0.242117
0.00999526
-0.244063
0.00974956
-0.245986
0.00936167
-0.247891
0.00882111
-0.249807
0.00810628
0.00719184
-0.251765
1.34664
0.106007
1.30688
0.0872713
1.27404
0.0753994
1.24265
0.0665534
1.21155
0.0607609
1.17979
0.0598074
1.1463
0.0649474
1.11009
0.0771495
1.07044
0.0972166
1.02738
0.125585
0.981376
0.161565
0.933677
0.202756
0.886365
0.243802
0.842528
0.274278
0.799417
0.281226
0.735797
0.259453
0.655292
0.228414
0.568699
0.202503
0.492745
0.183612
0.436753
0.159411
0.351524
0.122084
0.232245
0.0923893
0.0845987
0.0868943
-0.0569755
0.058133
-0.138142
0.00771243
-0.162797
-0.0331321
-0.166139
-0.0573566
-0.174062
-0.0393888
-0.180841
-0.026021
-0.180166
-0.0255413
-0.181908
-0.0153056
-0.184012
-0.00879179
-0.185726
-0.00449171
-0.187433
-0.000742294
-0.189273
0.00242107
-0.191272
0.00505943
-0.193368
0.00717494
-0.195518
0.00881538
-0.197689
0.0100485
-0.199855
0.0109394
-0.202
0.0115505
-0.204117
0.0119356
-0.206207
0.0121293
-0.20827
0.012153
-0.210306
0.012029
-0.212323
0.0117684
-0.214328
0.0113717
-0.216339
0.0108334
-0.218382
0.0101456
0.00931467
-0.220507
1.19458
0.150142
1.15324
0.128604
1.11616
0.112484
1.08206
0.100658
1.0499
0.0929195
1.01921
0.0904924
0.98962
0.0945426
0.960832
0.105933
0.932782
0.125271
0.905711
0.152656
0.880125
0.187149
0.856675
0.226212
0.835534
0.264933
0.814878
0.29494
0.788991
0.307109
0.748745
0.299692
0.6953
0.281863
0.635615
0.262185
0.576461
0.242759
0.517045
0.218828
0.449631
0.189494
0.378326
0.163682
0.320694
0.144526
0.260752
0.118058
0.174046
0.0944266
0.0533626
0.0875441
-0.0591444
0.055145
-0.119318
0.020791
-0.13481
-0.0105435
-0.131805
-0.0285459
-0.138932
-0.00815879
-0.143057
-0.00467152
-0.145016
-0.00255141
-0.147526
0.00177617
-0.150192
0.00509898
-0.152785
0.00764531
-0.155366
0.0097484
-0.157883
0.0113409
-0.160311
0.0124736
-0.162633
0.0132541
-0.164846
0.0137685
-0.166973
0.0140653
-0.169032
0.0141818
-0.17103
0.01415
-0.172983
0.0139871
-0.174914
0.0137
-0.176841
0.0132964
-0.178791
0.0127801
-0.180801
0.0121521
0.0114261
-0.182913
1.00792
0.188967
0.972203
0.164319
0.940181
0.144499
0.910713
0.130122
0.883124
0.120507
0.857215
0.116401
0.832991
0.118763
0.810599
0.128315
0.790357
0.14552
0.772661
0.170356
0.75791
0.201887
0.746371
0.237758
0.737583
0.273723
0.729108
0.303411
0.71583
0.320389
0.69247
0.323052
0.658736
0.315593
0.618039
0.302892
0.573995
0.286801
0.526788
0.266037
0.474715
0.241568
0.420504
0.217888
0.368781
0.196258
0.314232
0.172613
0.257957
0.150698
0.21065
0.134855
0.155699
0.110099
0.0872135
0.0892658
0.000140674
0.0765322
-0.0677219
0.0393238
-0.0944701
0.0185774
-0.0999428
0.000786931
-0.099319
-0.00318677
-0.103498
0.00595854
-0.107201
0.00880439
-0.110225
0.0106723
-0.113268
0.0127896
-0.116164
0.0142274
-0.118815
0.0151273
-0.121231
0.0156816
-0.123458
0.0160001
-0.125538
0.0161423
-0.127504
0.0161453
-0.129382
0.0160311
-0.131202
0.0158071
-0.132994
0.0154863
-0.134781
0.0150835
-0.136601
0.0145995
-0.138492
0.0140408
0.0134421
-0.140511
0.812573
0.225134
0.781518
0.195385
0.754289
0.171736
0.729797
0.15461
0.707488
0.14282
0.687123
0.136764
0.668716
0.137177
0.652451
0.14457
0.638696
0.159274
0.627867
0.181193
0.620292
0.209459
0.616046
0.24201
0.614453
0.275319
0.613353
0.304511
0.608963
0.324781
0.597779
0.334233
0.578944
0.334431
0.55386
0.327973
0.524306
0.316347
0.490527
0.299821
0.452415
0.279683
0.411845
0.258456
0.371014
0.237085
0.329027
0.214601
0.286662
0.193072
0.247672
0.173841
0.20583
0.151937
0.164166
0.130937
0.127262
0.113438
0.0797907
0.0867812
0.0325507
0.0658097
-0.0136246
0.0469739
-0.0451279
0.0283316
-0.0582522
0.0190761
-0.0626754
0.0132313
-0.0648344
0.0128462
-0.0683993
0.0163494
-0.0717035
0.0175206
-0.0744815
0.0179126
-0.0768481
0.0180523
-0.078929
0.0180791
-0.0808079
0.0180193
-0.0825395
0.0178773
-0.0841696
0.0176558
-0.0857302
0.0173621
-0.0872512
0.0170105
-0.0887746
0.0166122
-0.0903436
0.0161677
-0.0919987
0.0156905
0.0152367
-0.0937935
0.602464
0.25654
0.578172
0.21968
0.557836
0.19208
0.540024
0.172426
0.524265
0.158578
0.510245
0.150786
0.497925
0.149499
0.487526
0.154975
0.479426
0.167369
0.474083
0.186542
0.471826
0.211709
0.472692
0.241142
0.476071
0.271945
0.480306
0.300268
0.482784
0.322308
0.481035
0.335986
0.473972
0.341483
0.461879
0.340074
0.445396
0.33284
0.42471
0.320503
0.400149
0.30424
0.372929
0.285683
0.34425
0.265763
0.314174
0.244678
0.283616
0.223624
0.254285
0.203171
0.224466
0.181767
0.194673
0.160727
0.16724
0.14086
0.136062
0.117959
0.105715
0.0961717
0.0757632
0.076946
0.0451909
0.0589014
0.0192304
0.0450277
-0.00219132
0.0346608
-0.016201
0.0268687
-0.023199
0.0233634
-0.0270103
0.0213456
-0.0294487
0.0203453
-0.0312878
0.0198876
-0.0328507
0.019637
-0.0342511
0.0194205
-0.035538
0.019167
-0.0367503
0.0188584
-0.0379091
0.0185183
-0.0390452
0.018164
-0.0402179
0.0177919
-0.041466
0.0174047
-0.0428097
0.0170304
0.0167427
-0.0443069
0.380815
0.28411
0.365395
0.235093
0.353336
0.204142
0.343535
0.18223
0.335231
0.166881
0.327936
0.158083
0.321658
0.155781
0.316736
0.1599
0.313669
0.170431
0.313006
0.187196
0.315159
0.209562
0.32022
0.236085
0.32779
0.264366
0.336734
0.291329
0.345236
0.313807
0.351477
0.329752
0.3543
0.33866
0.353354
0.341014
0.348686
0.337507
0.340355
0.328839
0.328604
0.31599
0.314125
0.300159
0.297648
0.282253
0.279539
0.262789
0.260549
0.242609
0.241509
0.222217
0.222045
0.201226
0.202496
0.180279
0.1837
0.159667
0.163622
0.138038
0.142929
0.116855
0.122473
0.0973962
0.101897
0.0794827
0.0828399
0.0640966
0.0657349
0.051774
0.050475
0.0421177
0.0386358
0.0352037
0.029791
0.0301889
0.0234558
0.0266777
0.01907
0.0242682
0.0160932
0.0226088
0.0140744
0.0214436
0.0126596
0.0205793
0.0116119
0.0198995
0.0107788
0.0193591
0.0100345
0.0189198
0.00926279
0.0185529
0.00839766
0.0182568
0.00738456
0.0180512
0.0180107
0.00612872
0.145648
0.29138
0.142909
0.237823
0.141827
0.205212
0.14176
0.18228
0.141609
0.167026
0.141117
0.158575
0.140587
0.15629
0.140679
0.159819
0.142105
0.169007
0.145637
0.18367
0.151819
0.203365
0.160862
0.227041
0.172707
0.252529
0.186544
0.27749
0.20107
0.299278
0.214813
0.316014
0.226584
0.326891
0.23569
0.331903
0.241885
0.33131
0.245085
0.325646
0.245308
0.315767
0.24289
0.302579
0.238268
0.286873
0.231798
0.269264
0.22397
0.250442
0.215284
0.2309
0.205813
0.210693
0.195801
0.190294
0.185548
0.169921
0.174382
0.149195
0.162349
0.128886
0.149949
0.109799
0.137206
0.0922266
0.124605
0.0766965
0.112728
0.0636541
0.101824
0.05303
0.0923975
0.0446301
0.0844978
0.0380833
0.07809
0.0330793
0.0730479
0.0293088
0.0691771
0.0264887
0.0662404
0.0243759
0.0640215
0.022784
0.0623426
0.0215816
0.0610338
0.0206739
0.0599522
0.0199981
0.0589844
0.0195165
0.058036
0.0192108
0.0570095
0.0190817
0.0191589
0.0558514
-0.0976034
0.262553
-0.0831048
0.223327
-0.0726886
0.194802
-0.0643067
0.173914
-0.0573482
0.160055
-0.0512983
0.152537
-0.0457685
0.150761
-0.040274
0.154309
-0.0341396
0.162872
-0.0265063
0.176034
-0.0164881
0.193354
-0.00341225
0.213966
0.0130411
0.236073
0.0324257
0.258102
0.0536124
0.278096
0.0751387
0.294482
0.0956827
0.306358
0.114249
0.31335
0.130594
0.314961
0.14463
0.311614
0.156047
0.304352
0.16493
0.293696
0.171555
0.280254
0.176105
0.264702
0.178898
0.247644
0.180274
0.229533
0.180362
0.210603
0.179357
0.191292
0.177432
0.171842
0.174355
0.152273
0.170125
0.13312
0.164971
0.114952
0.159026
0.0981615
0.152575
0.0831496
0.146027
0.0702137
0.139683
0.0593744
0.133817
0.0504921
0.128562
0.0433321
0.123988
0.0376489
0.120109
0.0331936
0.116877
0.0297249
0.114213
0.0270347
0.112034
0.0249574
0.110252
0.0233621
0.108772
0.0221513
0.107509
0.0212573
0.106387
0.0206369
0.105333
0.0202683
0.104269
0.0201458
0.0202803
0.10314
-0.306109
0.225116
-0.282726
0.199942
-0.266261
0.178338
-0.254493
0.162133
-0.245375
0.15095
-0.23747
0.144607
-0.229619
0.142921
-0.220939
0.145637
-0.21068
0.152585
-0.198134
0.163505
-0.182793
0.178003
-0.164247
0.195403
-0.142565
0.214406
-0.118098
0.233626
-0.091524
0.251518
-0.0637635
0.26672
-0.0356347
0.278227
-0.00766215
0.28538
0.0191223
0.288175
0.0436555
0.28708
0.0655417
0.282466
0.0848321
0.274409
0.101909
0.263173
0.116683
0.249924
0.129363
0.234968
0.14017
0.218728
0.149216
0.201552
0.156667
0.183839
0.162641
0.165872
0.167065
0.147852
0.169959
0.130225
0.171448
0.113458
0.171678
0.0979314
0.170873
0.0839555
0.169345
0.0717389
0.167389
0.0613292
0.165242
0.052637
0.163078
0.0454949
0.161019
0.0397095
0.159138
0.0350766
0.157467
0.031396
0.156008
0.0284916
0.154749
0.0262147
0.153665
0.0244452
0.152722
0.0230912
0.151887
0.0220882
0.151125
0.0213992
0.150391
0.021005
0.149639
0.0208971
0.0210826
0.148832
-0.49926
0.187829
-0.472051
0.172727
-0.451789
0.158083
-0.435976
0.146328
-0.422781
0.137732
-0.410757
0.132595
-0.398851
0.130998
-0.386147
0.132947
-0.371926
0.138352
-0.355479
0.14705
-0.336174
0.158717
-0.313558
0.172789
-0.287538
0.188376
-0.258299
0.204395
-0.226406
0.219635
-0.19265
0.23296
-0.157892
0.243462
-0.123055
0.250545
-0.0889033
0.254019
-0.0559173
0.254099
-0.0243299
0.250882
0.00563645
0.244435
0.0330207
0.23579
0.0569939
0.225958
0.0785978
0.213368
0.097985
0.199339
0.115197
0.184339
0.130394
0.168653
0.14366
0.152609
0.154984
0.136515
0.164397
0.120804
0.17198
0.105883
0.177849
0.0920647
0.182203
0.0795907
0.185324
0.0686135
0.187491
0.0591643
0.188946
0.0511802
0.1899
0.0445407
0.190517
0.0390935
0.190917
0.0346757
0.19119
0.0311256
0.19139
0.0282931
0.191554
0.0260512
0.191704
0.0242945
0.191846
0.0229433
0.191987
0.0219469
0.192117
0.021275
0.192214
0.0209109
0.19225
0.0208559
0.0211314
0.192202
-0.678997
0.152402
-0.650146
0.143883
-0.626561
0.134481
-0.606501
0.126286
-0.588722
0.119959
-0.572101
0.115975
-0.555693
0.114589
-0.538648
0.115911
-0.520217
0.119931
-0.499714
0.126541
-0.476497
0.135501
-0.450077
0.146378
-0.420239
0.15853
-0.386999
0.171159
-0.350725
0.183355
-0.312011
0.194236
-0.271609
0.203062
-0.230384
0.209325
-0.189163
0.212793
-0.148578
0.213522
-0.10916
0.211476
-0.071443
0.206717
-0.0356709
0.200008
-0.00161031
0.1919
0.0292255
0.182541
0.0561566
0.172411
0.0805198
0.159971
0.102569
0.1466
0.122373
0.132801
0.139933
0.118954
0.155242
0.105496
0.168327
0.0927953
0.179287
0.0810961
0.188322
0.0705536
0.195691
0.0612489
0.201671
0.0531893
0.206522
0.0463273
0.210483
0.0405762
0.213757
0.0358209
0.216503
0.0319331
0.218851
0.028782
0.2209
0.0262471
0.222724
0.0242254
0.224382
0.0226322
0.225917
0.0214067
0.22736
0.0205113
0.22872
0.0199202
0.229997
0.0196296
0.231185
0.0196658
0.020068
0.232255
-0.85018
0.117453
-0.819144
0.112845
-0.791728
0.107068
-0.767083
0.101635
-0.744389
0.0972566
-0.722794
0.0943861
-0.701497
0.0932913
-0.679714
0.0941224
-0.656696
0.0969136
-0.631759
0.101599
-0.604275
0.108019
-0.573751
0.115858
-0.539901
0.124673
-0.502653
0.133911
-0.462221
0.142924
-0.419062
0.151082
-0.373828
0.157833
-0.327295
0.162787
-0.280233
0.165732
-0.233315
0.166604
-0.187197
0.165351
-0.142514
0.162037
-0.0995861
0.157084
-0.0585595
0.150876
-0.0197984
0.143778
0.0157301
0.13688
0.046783
0.128904
0.0746963
0.118674
0.100199
0.107301
0.12326
0.0958996
0.143788
0.0849644
0.161741
0.0748318
0.177208
0.0656263
0.190391
0.0573767
0.20155
0.0500925
0.210975
0.043763
0.218945
0.0383508
0.225722
0.033796
0.231535
0.0300127
0.236571
0.0269
0.240995
0.0243601
0.244938
0.0223035
0.248505
0.0206531
0.251785
0.0193498
0.25485
0.0183497
0.257745
0.0176218
0.260505
0.017155
0.263159
0.0169709
0.265712
0.0171181
0.017661
0.268121
-1.01169
0.0806849
-0.977338
0.0784858
-0.945533
0.0752619
-0.915908
0.0720192
-0.887952
0.0693035
-0.861026
0.067463
-0.834443
0.0667159
-0.807507
0.067185
-0.779511
0.0689133
-0.749784
0.0718783
-0.717741
0.0759708
-0.682878
0.0809983
-0.644881
0.0866827
-0.60364
0.0926678
-0.559267
0.09855
-0.512116
0.103926
-0.462716
0.108436
-0.411739
0.111809
-0.359891
0.113882
-0.307863
0.114582
-0.256392
0.113874
-0.206143
0.111782
-0.157515
0.108452
-0.110803
0.104158
-0.0664038
0.0993745
-0.0241317
0.0946124
0.0142038
0.0905681
0.0476749
0.0851979
0.0780021
0.0769729
0.105791
0.0681118
0.130812
0.0599392
0.152915
0.0527228
0.1722
0.0463405
0.188911
0.0406748
0.203331
0.035675
0.215764
0.0313246
0.22651
0.027604
0.23584
0.0244705
0.243997
0.0218599
0.251193
0.0197029
0.257616
0.017936
0.263419
0.0164996
0.268731
0.0153422
0.273661
0.0144263
0.278295
0.0137204
0.282703
0.0132078
0.286952
0.0128984
0.2911
0.0128281
0.295166
0.0130581
0.0136977
0.299124
-1.15433
0.0416895
-1.11651
0.0406649
-1.08045
0.0391949
-1.04611
0.0376845
-1.01321
0.0363961
-0.981261
0.0355095
-0.949685
0.0351381
-0.917862
0.0353529
-0.885131
0.0361833
-0.850866
0.0376157
-0.814506
0.0396036
-0.775559
0.0420544
-0.733707
0.0448308
-0.688809
0.0477639
-0.64092
0.0506578
-0.590314
0.0533169
-0.537439
0.0555619
-0.48288
0.0572478
-0.427293
0.0582911
-0.371367
0.0586615
-0.315836
0.058346
-0.261397
0.0573389
-0.208602
0.0556558
-0.157861
0.0534162
-0.109406
0.0509155
-0.0631591
0.0483744
-0.0185768
0.0459902
0.0215433
0.045069
0.0564617
0.0420453
0.0884739
0.0360993
0.117205
0.0312032
0.142517
0.0274054
0.164702
0.0241583
0.184106
0.0212742
0.201055
0.018719
0.215876
0.0164999
0.228874
0.01461
0.240326
0.0130205
0.250487
0.0116959
0.259585
0.0106018
0.267814
0.00970447
0.27534
0.00897351
0.282305
0.00838294
0.288821
0.00791146
0.29499
0.00754482
0.300908
0.00728214
0.306669
0.00713947
0.312356
0.0071483
0.318028
0.00738388
0.00802998
0.323688
-1.26365
-1.22299
-1.1838
-1.14611
-1.10971
-1.0742
-1.03906
-1.00371
-0.967526
-0.929907
-0.89031
-0.848258
-0.803423
-0.755661
-0.704999
-0.651682
-0.596125
-0.538879
-0.480581
-0.421919
-0.36358
-0.306242
-0.250583
-0.197163
-0.146245
-0.0978701
-0.0518837
-0.00681553
0.035228
0.0713194
0.102518
0.129929
0.154091
0.175362
0.194081
0.210585
0.225197
0.238215
0.249908
0.26051
0.270217
0.279192
0.287576
0.295483
0.303023
0.310308
0.317452
0.324599
0.331979
0.340009
0.0081201
-0.000162016
0.00816482
-4.79146e-05
0.0081943
-3.1978e-05
0.0082025
-1.12917e-05
0.00819802
1.80221e-06
0.0081886
8.5107e-06
0.00817781
1.22027e-05
0.00816679
1.45542e-05
0.00815572
1.62201e-05
0.00814446
1.75475e-05
0.00813269
1.87698e-05
0.00811998
2.00102e-05
0.0081058
2.12812e-05
0.0080896
2.24992e-05
0.00807096
2.35105e-05
0.00804972
2.41515e-05
0.00802618
2.43396e-05
0.00800101
2.41541e-05
0.0079749
2.39174e-05
0.00794913
2.31385e-05
0.00792426
2.23713e-05
0.00790142
2.0878e-05
0.00788111
1.92374e-05
0.00786379
1.76073e-05
0.00784978
1.61415e-05
0.007839
1.50037e-05
0.00783093
1.42369e-05
0.00782475
1.38151e-05
0.00781957
1.36936e-05
0.00781447
1.38258e-05
0.00780863
1.41244e-05
0.00780137
1.44707e-05
0.00779225
1.47354e-05
0.00778109
1.48074e-05
0.007768
1.4583e-05
0.0077533
1.39532e-05
0.00773761
1.2836e-05
0.00772179
1.12123e-05
0.00770687
9.11307e-06
0.00769385
6.56521e-06
0.00768364
3.56273e-06
0.00767714
9.52731e-08
0.00767516
-3.83559e-06
0.00767849
-8.26032e-06
0.00768785
-1.32781e-05
0.00770401
-1.90548e-05
0.00772815
-2.60453e-05
0.00776257
-3.54843e-05
0.00781198
-4.9883e-05
-7.29338e-05
0.00788474
0.00787493
-8.34478e-05
0.0078503
-3.35663e-05
0.00781643
-4.94361e-06
0.00779847
3.53973e-06
0.00779066
9.63878e-06
0.0077889
1.34018e-05
0.0077917
1.55914e-05
0.00779798
1.71695e-05
0.00780661
1.8546e-05
0.00781653
1.98511e-05
0.0078268
2.11404e-05
0.00783652
2.24019e-05
0.00784483
2.35451e-05
0.00785094
2.44379e-05
0.00785429
2.49627e-05
0.00785477
2.50635e-05
0.00785284
2.47542e-05
0.00784954
2.40454e-05
0.00784633
2.29707e-05
0.00784311
2.24288e-05
0.00784117
2.1389e-05
0.00784072
2.00635e-05
0.00784212
1.8983e-05
0.00784596
1.80051e-05
0.00785252
1.72085e-05
0.00786161
1.66221e-05
0.00787266
1.61798e-05
0.00788491
1.58251e-05
0.00789755
1.55471e-05
0.00790972
1.53237e-05
0.00792059
1.50665e-05
0.00792948
1.46483e-05
0.00793599
1.39442e-05
0.00794
1.28573e-05
0.00794162
1.13154e-05
0.00794122
9.26781e-06
0.00793945
6.68693e-06
0.00793723
3.55576e-06
0.00793555
-1.53875e-07
0.00793538
-4.48379e-06
0.00793759
-9.46035e-06
0.00794303
-1.51064e-05
0.00795242
-2.15094e-05
0.00796646
-2.88706e-05
0.00798584
-3.75091e-05
0.00801137
-4.78375e-05
0.00804385
-6.03937e-05
0.00808364
-7.61007e-05
0.00813048
-9.68916e-05
-0.000125907
0.00818356
0.007885
-1.21976e-05
0.00785408
-9.64032e-06
0.00784367
-8.18194e-07
0.00784063
3.16307e-06
0.00784433
5.64851e-06
0.00785216
8.31151e-06
0.00786231
1.08885e-05
0.00787388
1.33328e-05
0.00788621
1.57275e-05
0.00789864
1.8077e-05
0.0079105
2.0315e-05
0.00792109
2.23303e-05
0.00792969
2.39931e-05
0.0079357
2.51936e-05
0.0079387
2.58829e-05
0.00793872
2.60883e-05
0.00793622
2.58927e-05
0.00793192
2.53829e-05
0.00792638
2.48016e-05
0.00792159
2.35822e-05
0.00791789
2.22367e-05
0.00791553
2.10272e-05
0.00791545
1.98751e-05
0.00791817
1.8865e-05
0.00792376
1.80256e-05
0.00793198
1.73027e-05
0.00794232
1.66412e-05
0.00795409
1.60537e-05
0.00796646
1.55756e-05
0.00797846
1.51414e-05
0.00798919
1.45737e-05
0.007998
1.36835e-05
0.00800451
1.23324e-05
0.00800863
1.04414e-05
0.00801048
7.96365e-06
0.00801045
4.85879e-06
0.0080092
1.08184e-06
0.00800759
-3.42132e-06
0.00800656
-8.70832e-06
0.00800702
-1.48132e-05
0.00800986
-2.17432e-05
0.00801584
-2.9529e-05
0.00802553
-3.82922e-05
0.00803936
-4.82887e-05
0.00805771
-5.9926e-05
0.00808099
-7.37806e-05
0.0081097
-9.05544e-05
0.00814414
-0.000111073
0.00818393
-0.000136669
-0.000169518
0.00822781
0.00794568
-2.88733e-06
0.00793427
-4.26067e-06
0.00792917
-1.00859e-06
0.00792641
2.92767e-06
0.00792563
6.16248e-06
0.00792716
9.32386e-06
0.00793076
1.24132e-05
0.00793611
1.53554e-05
0.00794275
1.8198e-05
0.00795008
2.09343e-05
0.00795739
2.34596e-05
0.00796392
2.56303e-05
0.00796893
2.73242e-05
0.00797178
2.84719e-05
0.00797207
2.90666e-05
0.0079698
2.91569e-05
0.0079654
2.88266e-05
0.00795954
2.8178e-05
0.0079531
2.73816e-05
0.00794704
2.58248e-05
0.00794216
2.41352e-05
0.0079392
2.25859e-05
0.00793879
2.11866e-05
0.00794127
1.99439e-05
0.00794666
1.88253e-05
0.00795472
1.77972e-05
0.00796498
1.68764e-05
0.00797674
1.61137e-05
0.00798909
1.54841e-05
0.00800099
1.48144e-05
0.00801151
1.38563e-05
0.00802003
1.24072e-05
0.00802625
1.03643e-05
0.00803009
7.68708e-06
0.00803169
4.33154e-06
0.00803142
2.26103e-07
0.00802992
-4.71407e-06
0.00802803
-1.0561e-05
0.00802668
-1.73467e-05
0.00802682
-2.5065e-05
0.00802931
-3.37257e-05
0.00803485
-4.34088e-05
0.00804395
-5.42862e-05
0.00805695
-6.66204e-05
0.00807405
-8.07822e-05
0.00809532
-9.73043e-05
0.00812073
-0.000116894
0.00814999
-0.000140329
0.00818237
-0.000168558
-0.00020309
0.00821659
0.00794644
5.02042e-06
0.00793015
6.1114e-06
0.00791807
6.4672e-06
0.00791043
8.02785e-06
0.00790684
9.53372e-06
0.00790727
1.12181e-05
0.00791126
1.32799e-05
0.00791805
1.56947e-05
0.00792674
1.83664e-05
0.00793639
2.11272e-05
0.00794605
2.37544e-05
0.00795486
2.60436e-05
0.00796205
2.78553e-05
0.00796699
2.91154e-05
0.00796928
2.97974e-05
0.00796894
2.99193e-05
0.0079664
2.95347e-05
0.00796242
2.87038e-05
0.00795814
2.74109e-05
0.0079543
2.55394e-05
0.0079514
2.38988e-05
0.00795027
2.22895e-05
0.00795151
2.08052e-05
0.00795542
1.94505e-05
0.00796203
1.82028e-05
0.00797114
1.70854e-05
0.00798234
1.61546e-05
0.00799488
1.54144e-05
0.00800773
1.4726e-05
0.00801981
1.38341e-05
0.00803022
1.24916e-05
0.00803845
1.05557e-05
0.00804428
7.97019e-06
0.00804762
4.68563e-06
0.00804861
6.06979e-07
0.0080476
-4.38723e-06
0.00804525
-1.03953e-05
0.00804246
-1.74476e-05
0.00804018
-2.55095e-05
0.00803934
-3.45381e-05
0.00804072
-4.45586e-05
0.00804488
-5.57078e-05
0.0080522
-6.82151e-05
0.00806297
-8.23691e-05
0.00807737
-9.85119e-05
0.00809543
-0.000117099
0.00811691
-0.00013876
0.00814134
-0.000164193
0.00816784
-0.000194046
-0.000229325
0.00819525
0.00795125
8.41043e-06
0.00794091
1.07171e-05
0.00793364
9.40003e-06
0.00793002
9.223e-06
0.00792951
9.71289e-06
0.00793194
1.08953e-05
0.00793702
1.28502e-05
0.00794419
1.54632e-05
0.00795266
1.8477e-05
0.0079616
2.15853e-05
0.00797022
2.4507e-05
0.00797781
2.70374e-05
0.00798369
2.90456e-05
0.00798731
3.04473e-05
0.00798833
3.11958e-05
0.00798679
3.13014e-05
0.00798309
3.08424e-05
0.00797787
2.99444e-05
0.00797187
2.87125e-05
0.00796625
2.6698e-05
0.00796202
2.47552e-05
0.00795981
2.28686e-05
0.00796015
2.10934e-05
0.00796331
1.94674e-05
0.00796931
1.80306e-05
0.00797796
1.68246e-05
0.00798877
1.58536e-05
0.00800084
1.50142e-05
0.00801303
1.4089e-05
0.00802426
1.28291e-05
0.00803374
1.10553e-05
0.00804103
8.68362e-06
0.0080459
5.64892e-06
0.00804825
1.82881e-06
0.00804816
-2.9439e-06
0.00804603
-8.80827e-06
0.00804257
-1.58081e-05
0.00803874
-2.3891e-05
0.0080355
-3.29799e-05
0.00803373
-4.3048e-05
0.00803408
-5.41597e-05
0.00803701
-6.64693e-05
0.0080428
-8.02044e-05
0.0080516
-9.566e-05
0.00806351
-0.00011319
0.00807846
-0.000133223
0.00809616
-0.000156316
0.00811611
-0.000183089
0.00813758
-0.000214001
-0.000249611
0.00815962
0.0079527
1.0866e-05
0.00794361
1.43336e-05
0.00793613
1.24989e-05
0.00793123
1.14894e-05
0.00792906
1.13422e-05
0.00792977
1.21247e-05
0.0079333
1.38591e-05
0.00793913
1.63655e-05
0.00794651
1.93108e-05
0.00795459
2.23451e-05
0.00796261
2.51957e-05
0.00796985
2.76769e-05
0.0079756
2.9647e-05
0.00797927
3.09862e-05
0.00798049
3.16233e-05
0.00797932
3.15751e-05
0.00797618
3.09346e-05
0.00797177
2.98072e-05
0.00796713
2.81525e-05
0.00796316
2.57776e-05
0.00796045
2.37116e-05
0.00795965
2.16892e-05
0.00796128
1.98193e-05
0.00796561
1.81813e-05
0.00797267
1.68072e-05
0.00798226
1.5685e-05
0.00799377
1.47314e-05
0.00800621
1.37772e-05
0.00801842
1.26167e-05
0.00802941
1.10759e-05
0.0080385
9.04327e-06
0.00804527
6.42862e-06
0.00804945
3.08982e-06
0.00805089
-1.1765e-06
0.00804971
-6.55609e-06
0.00804643
-1.31341e-05
0.00804186
-2.08685e-05
0.00803696
-2.96554e-05
0.00803265
-3.94291e-05
0.0080297
-5.02203e-05
0.0080287
-6.21327e-05
0.00803007
-7.53105e-05
0.00803402
-8.99414e-05
0.00804064
-0.000106298
0.00804992
-0.000124747
0.00806169
-0.000145711
0.00807559
-0.000169664
0.00809111
-0.000197156
0.00810769
-0.000228592
-0.000264286
0.00812472
0.00795378
1.24912e-05
0.00794615
1.65783e-05
0.00793978
1.42706e-05
0.00793582
1.25917e-05
0.0079346
1.19082e-05
0.0079363
1.23711e-05
0.00794068
1.39344e-05
0.00794717
1.6331e-05
0.00795499
1.91837e-05
0.00796335
2.21475e-05
0.00797154
2.49719e-05
0.00797887
2.74662e-05
0.0079846
2.94496e-05
0.00798815
3.0764e-05
0.00798922
3.13364e-05
0.0079879
3.12077e-05
0.00798462
3.04892e-05
0.00797997
2.92969e-05
0.0079747
2.76384e-05
0.00796992
2.51229e-05
0.00796657
2.28461e-05
0.00796528
2.07057e-05
0.00796655
1.88025e-05
0.0079706
1.72059e-05
0.00797743
1.58869e-05
0.00798674
1.47562e-05
0.00799783
1.36863e-05
0.00800965
1.25255e-05
0.00802107
1.11287e-05
0.00803118
9.37938e-06
0.00803931
7.16835e-06
0.008045
4.34079e-06
0.00804793
6.78852e-07
0.00804795
-4.03764e-06
0.00804531
-9.94228e-06
0.00804064
-1.70384e-05
0.00803482
-2.52386e-05
0.00802875
-3.44621e-05
0.00802327
-4.47006e-05
0.00801906
-5.60184e-05
0.00801667
-6.85078e-05
0.00801646
-8.22736e-05
0.00801859
-9.74854e-05
0.00802306
-0.000114411
0.00802979
-0.000133416
0.0080386
-0.000154892
0.00804909
-0.000179249
0.00806072
-0.000206952
0.00807301
-0.000238413
-0.000273878
0.00808559
0.00795446
1.3408e-05
0.0079477
1.78414e-05
0.00794195
1.53362e-05
0.0079383
1.33921e-05
0.00793715
1.25083e-05
0.00793866
1.28452e-05
0.00794258
1.42823e-05
0.00794836
1.65069e-05
0.00795535
1.91654e-05
0.0079629
2.19629e-05
0.00797038
2.46704e-05
0.00797704
2.70691e-05
0.00798216
2.89358e-05
0.00798518
3.01005e-05
0.00798588
3.0512e-05
0.00798438
3.02289e-05
0.00798107
2.93477e-05
0.00797656
2.79491e-05
0.00797177
2.59918e-05
0.00796771
2.32248e-05
0.00796518
2.08732e-05
0.00796477
1.87777e-05
0.0079669
1.69954e-05
0.00797174
1.55253e-05
0.00797924
1.42724e-05
0.00798901
1.31211e-05
0.00800032
1.1968e-05
0.00801212
1.07111e-05
0.00802333
9.23744e-06
0.00803304
7.41789e-06
0.00804057
5.09312e-06
0.0080454
2.06135e-06
0.0080472
-1.89549e-06
0.00804594
-6.94795e-06
0.00804201
-1.31622e-05
0.00803612
-2.05052e-05
0.00802914
-2.89109e-05
0.00802193
-3.83577e-05
0.00801524
-4.8881e-05
0.00800974
-6.05274e-05
0.00800594
-7.33423e-05
0.00800416
-8.73954e-05
0.00800445
-0.000102856
0.00800672
-0.000119991
0.00801086
-0.000139159
0.00801667
-0.000160728
0.00802381
-0.000185054
0.00803173
-0.000212572
0.00803999
-0.000243688
-0.000278668
0.00804842
0.00795495
1.37085e-05
0.00794894
1.83488e-05
0.00794388
1.58976e-05
0.00794079
1.38997e-05
0.00794006
1.28834e-05
0.00794178