/*--------------------------------*- C++ -*----------------------------------*\
  =========                 |
  \\      /  F ield         | OpenFOAM: The Open Source CFD Toolbox
   \\    /   O peration     | Website:  https://openfoam.org
    \\  /    A nd           | Version:  8
     \\/     M anipulation  |
\*---------------------------------------------------------------------------*/
FoamFile
{
    version     2.0;
    format      ascii;
    class       volScalarField;
    location    "200";
    object      T;
}
// * * * * * * * * * * * * * * * * * * * * * * * * * * * * * * * * * * * * * //

dimensions      [0 0 0 1 0 0 0];

internalField   nonuniform List<scalar> 
8400
(
293.98
293.747
293.594
293.506
293.47
293.479
293.522
293.581
293.634
293.659
293.639
293.571
293.48
293.402
293.36
293.339
293.322
293.297
293.26
293.221
293.187
293.162
293.142
293.13
293.122
293.117
293.114
293.111
293.11
293.109
293.108
293.107
293.107
293.107
293.107
293.108
293.108
293.108
293.109
293.109
293.11
293.11
293.111
293.112
293.113
293.113
293.114
293.115
293.116
293.117
295.148
294.796
294.575
294.497
294.551
294.701
294.905
295.109
295.257
295.296
295.187
294.933
294.602
294.327
294.202
294.152
294.105
294.014
293.863
293.686
293.532
293.408
293.309
293.239
293.197
293.174
293.161
293.153
293.148
293.145
293.143
293.142
293.141
293.141
293.142
293.143
293.144
293.145
293.147
293.149
293.15
293.152
293.154
293.157
293.159
293.162
293.165
293.167
293.171
293.174
297.025
296.749
296.697
296.832
297.072
297.354
297.615
297.814
297.907
297.848
297.593
297.106
296.442
295.82
295.665
295.66
295.625
295.472
295.153
294.742
294.367
294.053
293.763
293.529
293.384
293.303
293.257
293.232
293.216
293.206
293.2
293.197
293.195
293.196
293.198
293.201
293.204
293.208
293.212
293.217
293.222
293.227
293.233
293.239
293.245
293.252
293.259
293.266
293.274
293.282
300
299.999
299.998
299.994
299.984
299.964
299.93
299.883
299.823
299.751
299.67
299.584
299.462
298.784
297.728
297.528
297.535
297.447
297.037
296.379
295.766
295.287
294.732
294.175
293.801
293.585
293.459
293.397
293.362
293.341
293.328
293.32
293.318
293.319
293.324
293.33
293.338
293.346
293.355
293.365
293.375
293.386
293.398
293.41
293.423
293.436
293.451
293.465
293.48
293.496
300.003
300.003
300.003
300.003
300.002
299.999
299.993
299.983
299.967
299.944
299.911
299.864
299.792
299.561
299.255
299.158
299.219
299.263
299.276
298.579
297.394
297.155
296.444
295.343
294.577
294.15
293.814
293.672
293.612
293.578
293.558
293.548
293.546
293.55
293.559
293.571
293.584
293.599
293.615
293.632
293.651
293.67
293.691
293.712
293.734
293.758
293.782
293.806
293.832
293.858
300.002
300.002
300.001
300.001
300.001
300
299.998
299.994
299.988
299.978
299.963
299.939
299.904
299.829
299.733
299.668
299.637
299.614
299.583
299.488
299.481
299.495
299.43
297.338
295.791
295.383
294.434
294.059
293.967
293.91
293.89
293.885
293.89
293.901
293.918
293.935
293.956
293.98
294.005
294.033
294.062
294.092
294.122
294.154
294.187
294.221
294.255
294.29
294.326
294.362
300.001
300.001
300.001
300.001
300.001
300
300
299.998
299.996
299.992
299.985
299.974
299.957
299.929
299.89
299.854
299.822
299.791
299.757
299.716
299.684
299.657
299.608
299.41
299.44
299.238
295.852
294.601
294.561
294.27
294.257
294.272
294.289
294.311
294.331
294.357
294.387
294.421
294.457
294.494
294.533
294.572
294.612
294.652
294.692
294.732
294.773
294.814
294.855
294.895
300.001
300.001
300.001
300.001
300.001
300.001
300
300
299.999
299.997
299.994
299.989
299.981
299.969
299.951
299.93
299.908
299.883
299.854
299.821
299.787
299.753
299.712
299.646
299.6
299.451
298.795
298.549
297.582
294.59
294.59
294.609
294.626
294.65
294.679
294.716
294.756
294.799
294.843
294.888
294.932
294.975
295.018
295.06
295.1
295.14
295.179
295.217
295.254
295.29
300
300.001
300.001
300.001
300.001
300.001
300
300
300
299.999
299.998
299.996
299.992
299.986
299.977
299.965
299.95
299.931
299.908
299.88
299.85
299.816
299.777
299.729
299.679
299.58
299.34
299.08
298.437
297.435
296.828
295.788
294.819
294.84
294.884
294.933
294.984
295.035
295.086
295.134
295.181
295.224
295.265
295.304
295.34
295.374
295.406
295.436
295.464
295.491
300
300
300
300.001
300.001
300.001
300.001
300
300
300
299.999
299.998
299.996
299.993
299.988
299.981
299.971
299.957
299.938
299.915
299.888
299.857
299.82
299.777
299.727
299.65
299.514
299.312
298.904
298.322
297.703
296.923
296.171
295.632
295.219
294.991
295.054
295.119
295.18
295.235
295.286
295.331
295.372
295.409
295.442
295.473
295.5
295.524
295.547
295.567
300
300
300
300
300
300.001
300.001
300
300
300
300
299.999
299.998
299.997
299.993
299.989
299.981
299.97
299.955
299.936
299.912
299.883
299.848
299.807
299.758
299.69
299.586
299.422
299.135
298.723
298.208
297.585
296.943
296.356
295.846
295.462
295.246
295.155
295.148
295.188
295.244
295.302
295.354
295.399
295.438
295.472
295.502
295.527
295.55
295.57
300
300
300
300
300
300
300
300
300
300
300
300
299.999
299.998
299.996
299.992
299.986
299.977
299.965
299.948
299.926
299.899
299.866
299.827
299.778
299.713
299.619
299.476
299.246
298.917
298.489
297.971
297.413
296.86
296.346
295.908
295.574
295.344
295.209
295.148
295.139
295.163
295.205
295.255
295.306
295.356
295.401
295.442
295.479
295.511
300
300
300
300
300
300
300
300
300
300
300
300
299.999
299.998
299.997
299.994
299.988
299.98
299.969
299.953
299.932
299.906
299.875
299.837
299.788
299.724
299.633
299.497
299.294
299.009
298.636
298.188
297.695
297.188
296.699
296.255
295.878
295.575
295.348
295.19
295.09
295.038
295.021
295.031
295.058
295.098
295.144
295.194
295.246
295.296
300.001
300.001
300.001
300.001
300
300
300
300
300
300
300
300
299.999
299.998
299.996
299.993
299.988
299.98
299.968
299.952
299.932
299.907
299.877
299.839
299.79
299.724
299.632
299.498
299.306
299.044
298.707
298.307
297.863
297.402
296.947
296.519
296.135
295.803
295.528
295.307
295.138
295.014
294.93
294.88
294.857
294.856
294.874
294.905
294.948
294.998
300.001
300
300
300
300
300
300
300
300
300
299.999
299.999
299.998
299.996
299.993
299.989
299.983
299.974
299.962
299.947
299.928
299.903
299.871
299.833
299.783
299.715
299.619
299.484
299.295
299.046
298.735
298.37
297.969
297.55
297.133
296.733
296.364
296.032
295.742
295.495
295.29
295.126
294.998
294.905
294.842
294.806
294.793
294.801
294.827
294.869
299.999
299.998
299.998
299.998
299.997
299.997
299.997
299.996
299.996
299.995
299.994
299.993
299.991
299.988
299.984
299.978
299.971
299.961
299.948
299.932
299.913
299.888
299.859
299.821
299.766
299.693
299.593
299.454
299.267
299.028
298.738
298.406
298.044
297.669
297.293
296.931
296.591
296.281
296.003
295.761
295.556
295.386
295.251
295.15
295.08
295.039
295.024
295.034
295.066
295.116
299.988
299.986
299.985
299.984
299.983
299.982
299.981
299.98
299.979
299.977
299.975
299.973
299.97
299.966
299.961
299.954
299.945
299.934
299.92
299.903
299.883
299.858
299.828
299.79
299.738
299.659
299.551
299.409
299.225
298.998
298.731
298.432
298.112
297.783
297.456
297.14
296.844
296.573
296.331
296.121
295.945
295.803
295.695
295.621
295.579
295.567
295.582
295.623
295.686
295.766
299.947
299.943
299.939
299.936
299.934
299.931
299.929
299.927
299.925
299.924
299.921
299.919
299.916
299.911
299.906
299.898
299.889
299.878
299.863
299.846
299.824
299.798
299.766
299.725
299.674
299.604
299.494
299.347
299.17
298.96
298.722
298.462
298.19
297.914
297.643
297.385
297.145
296.929
296.741
296.584
296.46
296.369
296.311
296.285
296.291
296.324
296.383
296.463
296.561
296.673
299.836
299.825
299.817
299.809
299.802
299.796
299.791
299.787
299.784
299.782
299.78
299.778
299.777
299.775
299.772
299.767
299.761
299.752
299.739
299.723
299.702
299.675
299.641
299.6
299.551
299.489
299.408
299.268
299.102
298.919
298.719
298.509
298.293
298.079
297.874
297.682
297.51
297.361
297.239
297.146
297.083
297.051
297.048
297.073
297.123
297.196
297.287
297.393
297.509
297.631
299.602
299.577
299.554
299.532
299.512
299.494
299.478
299.465
299.456
299.449
299.446
299.445
299.447
299.451
299.455
299.459
299.462
299.462
299.459
299.45
299.436
299.416
299.389
299.356
299.318
299.276
299.228
299.167
299.013
298.872
298.727
298.58
298.433
298.291
298.159
298.042
297.941
297.862
297.806
297.773
297.765
297.78
297.818
297.875
297.949
298.037
298.135
298.24
298.348
298.455
303.149
303.147
303.146
303.144
303.142
303.141
303.139
303.138
303.136
303.135
303.133
303.132
303.13
303.129
303.127
303.126
303.124
303.123
303.122
303.12
303.119
303.117
303.116
303.115
303.114
303.113
303.112
303.111
303.109
303.108
303.107
303.106
303.105
303.104
303.103
303.102
303.101
303.1
303.099
303.098
303.097
303.097
303.096
303.095
303.094
303.093
303.092
303.092
303.091
303.09
303.15
303.15
303.15
303.15
303.15
303.15
303.15
303.15
303.149
303.149
303.149
303.149
303.149
303.149
303.149
303.148
303.148
303.148
303.148
303.148
303.147
303.147
303.147
303.146
303.146
303.146
303.145
303.145
303.144
303.144
303.144
303.143
303.143
303.142
303.142
303.141
303.141
303.141
303.14
303.14
303.139
303.139
303.139
303.138
303.138
303.138
303.137
303.137
303.137
303.136
303.15
303.15
303.15
303.15
303.15
303.15
303.15
303.15
303.15
303.15
303.15
303.15
303.15
303.15
303.15
303.15
303.15
303.15
303.15
303.15
303.15
303.15
303.15
303.15
303.15
303.15
303.149
303.149
303.149
303.149
303.149
303.149
303.149
303.149
303.149
303.149
303.148
303.148
303.148
303.148
303.148
303.148
303.148
303.148
303.147
303.147
303.147
303.147
303.147
303.147
303.15
303.15
303.15
303.15
303.15
303.15
303.15
303.15
303.15
303.15
303.15
303.15
303.15
303.15
303.15
303.15
303.15
303.15
303.15
303.15
303.15
303.15
303.15
303.15
303.15
303.15
303.15
303.15
303.15
303.15
303.15
303.15
303.15
303.15
303.15
303.15
303.15
303.15
303.15
303.15
303.15
303.15
303.15
303.15
303.15
303.15
303.15
303.15
303.149
303.149
303.15
303.15
303.15
303.15
303.15
303.15
303.15
303.15
303.15
303.15
303.15
303.15
303.15
303.15
303.15
303.15
303.15
303.15
303.15
303.15
303.15
303.15
303.15
303.15
303.15
303.15
303.15
303.15
303.15
303.15
303.15
303.15
303.15
303.15
303.15
303.15
303.15
303.15
303.15
303.15
303.15
303.15
303.15
303.15
303.15
303.15
303.15
303.15
303.15
303.15
303.15
303.15
303.15
303.15
303.15
303.15
303.15
303.15
303.15
303.15
303.15
303.15
303.15
303.15
303.15
303.15
303.15
303.15
303.15
303.15
303.15
303.15
303.15
303.15
303.15
303.15
303.15
303.15
303.15
303.15
303.15
303.15
303.15
303.15
303.15
303.15
303.15
303.15
303.15
303.15
303.15
303.15
303.15
303.15
303.15
303.15
303.15
303.15
303.15
303.15
303.15
303.15
303.15
303.15
303.15
303.15
303.15
303.15
303.15
303.15
303.15
303.15
303.15
303.15
303.15
303.15
303.15
303.15
303.15
303.15
303.15
303.15
303.15
303.15
303.15
303.15
303.15
303.15
303.15
303.15
303.15
303.15
303.15
303.15
303.15
303.15
303.15
303.15
303.15
303.15
303.15
303.15
303.15
303.15
303.15
303.15
303.15
303.15
303.15
303.15
303.15
303.15
303.15
303.15
303.15
303.15
303.15
303.15
303.15
303.15
303.15
303.15
303.15
303.15
303.15
303.15
303.15
303.15
303.15
303.15
303.15
303.15
303.15
303.15
303.15
303.15
303.15
303.15
303.15
303.15
303.15
303.15
303.15
303.15
303.15
303.15
303.15
303.15
303.15
303.15
303.15
303.15
303.15
303.15
303.15
303.15
303.15
303.15
303.15
303.15
303.15
303.15
303.15
303.15
303.15
303.15
303.15
303.15
303.15
303.15
303.15
303.15
303.15
303.15
303.15
303.15
303.15
303.15
303.15
303.15
303.15
303.15
303.15
303.15
303.15
303.15
303.15
303.15
303.15
303.15
303.15
303.15
303.15
303.15
303.15
303.15
303.15
303.15
303.15
303.15
303.15
303.15
303.15
303.15
303.15
303.15
303.15
303.15
303.15
303.15
303.15
303.15
303.15
303.15
303.15
303.15
303.15
303.15
303.15
303.15
303.15
303.15
303.15
303.15
303.15
303.15
303.15
303.15
303.15
303.15
303.15
303.15
303.15
303.15
303.15
303.15
303.15
303.15
303.15
303.15
303.15
303.15
303.15
303.15
303.15
303.15
303.15
303.15
303.15
303.15
303.15
303.15
303.15
303.15
303.15
303.15
303.15
303.15
303.15
303.15
303.15
303.15
303.15
303.15
303.15
303.15
303.15
303.15
303.15
303.15
303.15
303.15
303.15
303.15
303.15
303.15
303.15
303.15
303.15
303.15
303.15
303.15
303.15
303.15
303.15
303.15
303.15
303.15
303.15
303.15
303.15
303.15
303.15
303.15
303.15
303.15
303.15
303.15
303.15
303.15
303.15
303.15
303.15
303.15
303.15
303.15
303.15
303.15
303.15
303.15
303.15
303.15
303.15
303.15
303.15
303.15
303.15
303.15
303.15
303.15
303.15
303.15
303.15
303.15
303.15
303.15
303.15
303.15
303.15
303.15
303.15
303.15
303.15
303.15
303.15
303.15
303.15
303.15
303.15
303.15
303.15
303.15
303.15
303.15
303.15
303.15
303.15
303.15
303.15
303.15
303.15
303.15
303.15
303.15
303.15
303.15
303.15
303.15
303.15
303.15
303.15
303.15
303.15
303.15
303.15
303.15
303.15
303.15
303.15
303.15
303.15
303.15
303.15
303.15
303.15
303.15
303.15
303.15
303.15
303.15
303.15
303.15
303.15
303.15
303.15
303.15
303.15
303.15
303.15
303.15
303.15
303.15
303.15
303.15
303.15
303.15
303.15
303.15
303.15
303.15
303.15
303.15
303.15
303.15
303.15
303.15
303.15
303.15
303.15
303.15
303.15
303.15
303.15
303.15
303.15
303.15
303.15
303.15
303.15
303.15
303.15
303.15
303.15
303.15
303.15
303.15
303.15
303.15
303.15
303.15
303.15
303.15
303.15
303.15
303.15
303.15
303.15
303.15
303.15
303.15
303.15
303.15
303.15
303.15
303.15
303.15
303.15
303.15
303.15
303.15
303.15
303.15
303.15
303.15
303.15
303.15
303.15
303.15
303.15
303.15
303.15
303.15
303.15
303.15
303.15
303.15
303.15
303.15
303.15
303.15
303.15
303.15
303.15
303.15
303.15
303.15
303.15
303.15
303.15
303.15
303.15
303.15
303.15
303.15
303.15
303.15
303.15
303.15
303.15
303.15
303.15
303.15
303.15
303.15
303.15
303.15
303.15
303.15
303.15
303.15
303.15
303.15
303.15
303.15
303.15
303.15
303.15
303.15
303.15
303.15
303.15
303.15
303.15
303.15
303.15
303.15
303.15
303.15
303.15
303.15
303.15
303.15
303.15
303.15
303.15
303.15
303.15
303.15
303.15
303.15
303.15
303.15
303.15
303.15
303.15
303.15
303.15
303.15
303.15
303.15
303.15
303.15
303.15
303.15
303.15
303.15
303.15
303.15
303.15
303.15
303.15
303.15
303.15
303.15
303.15
303.15
303.15
303.15
303.15
303.15
303.15
303.15
303.15
303.15
303.15
303.15
303.15
303.15
303.15
303.15
303.15
303.15
303.15
303.15
303.15
303.15
303.15
303.15
303.15
303.15
303.15
303.15
303.15
303.15
303.15
303.15
303.15
303.15
303.15
303.15
303.15
303.15
303.15
303.15
303.15
303.15
303.15
303.15
303.15
303.15
303.15
303.15
303.15
303.149
303.149
303.149
303.149
303.149
303.149
303.149
303.15
303.15
303.15
303.15
303.15
303.15
303.15
303.15
303.15
303.15
303.15
303.15
303.15
303.15
303.15
303.15
303.15
303.15
303.15
303.15
303.15
303.15
303.15
303.15
303.15
303.15
303.149
303.149
303.149
303.149
303.149
303.149
303.149
303.149
303.149
303.148
303.148
303.148
303.148
303.148
303.148
303.147
303.147
303.147
303.147
303.147
303.146
303.146
303.146
303.145
303.15
303.15
303.15
303.15
303.15
303.15
303.15
303.15
303.15
303.149
303.149
303.149
303.149
303.149
303.149
303.148
303.148
303.148
303.148
303.148
303.147
303.147
303.147
303.146
303.146
303.146
303.145
303.145
303.144
303.144
303.143
303.143
303.142
303.142
303.142
303.141
303.141
303.14
303.14
303.139
303.139
303.138
303.138
303.137
303.137
303.136
303.135
303.135
303.134
303.133
303.149
303.147
303.146
303.144
303.142
303.141
303.139
303.138
303.136
303.135
303.133
303.132
303.13
303.129
303.127
303.126
303.124
303.123
303.122
303.12
303.119
303.118
303.116
303.115
303.114
303.113
303.112
303.11
303.109
303.108
303.107
303.106
303.105
303.104
303.103
303.102
303.101
303.1
303.099
303.098
303.097
303.096
303.095
303.094
303.093
303.093
303.092
303.091
303.09
303.089
293.485
293.338
293.226
293.153
293.114
293.102
293.106
293.114
293.122
293.127
293.127
293.125
293.124
293.126
293.129
293.133
293.137
293.14
293.141
293.125
293.53
293.366
293.242
293.16
293.117
293.103
293.106
293.115
293.123
293.128
293.128
293.126
293.125
293.126
293.13
293.134
293.137
293.14
293.141
293.125
293.58
293.396
293.259
293.167
293.119
293.104
293.107
293.116
293.125
293.129
293.129
293.127
293.125
293.127
293.13
293.134
293.138
293.141
293.142
293.125
293.633
293.43
293.277
293.176
293.122
293.105
293.108
293.117
293.126
293.13
293.13
293.127
293.126
293.127
293.13
293.134
293.138
293.141
293.142
293.124
293.691
293.466
293.297
293.185
293.125
293.106
293.108
293.118
293.127
293.132
293.131
293.128
293.127
293.127
293.131
293.135
293.138
293.141
293.142
293.124
293.754
293.505
293.319
293.194
293.128
293.107
293.109
293.119
293.128
293.133
293.133
293.129
293.127
293.128
293.131
293.135
293.139
293.141
293.142
293.124
293.822
293.547
293.342
293.204
293.131
293.108
293.11
293.12
293.129
293.134
293.134
293.13
293.128
293.128
293.131
293.135
293.139
293.141
293.142
293.123
293.894
293.592
293.366
293.215
293.135
293.109
293.111
293.121
293.13
293.135
293.135
293.131
293.128
293.129
293.132
293.135
293.139
293.142
293.142
293.123
293.972
293.64
293.392
293.226
293.138
293.11
293.111
293.122
293.132
293.136
293.136
293.132
293.129
293.129
293.132
293.136
293.139
293.142
293.142
293.122
294.054
293.691
293.419
293.238
293.142
293.111
293.112
293.123
293.133
293.137
293.137
293.133
293.13
293.13
293.132
293.136
293.14
293.142
293.142
293.122
294.142
293.745
293.448
293.249
293.145
293.111
293.113
293.124
293.134
293.138
293.137
293.134
293.13
293.13
293.133
293.136
293.14
293.142
293.142
293.122
294.235
293.801
293.477
293.262
293.149
293.112
293.114
293.125
293.134
293.138
293.138
293.134
293.131
293.13
293.133
293.137
293.14
293.142
293.142
293.121
294.332
293.86
293.508
293.274
293.152
293.113
293.114
293.126
293.135
293.139
293.139
293.135
293.131
293.131
293.133
293.137
293.14
293.143
293.142
293.121
294.434
293.921
293.54
293.286
293.156
293.114
293.115
293.127
293.136
293.139
293.139
293.135
293.132
293.131
293.134
293.137
293.141
293.143
293.142
293.12
294.541
293.985
293.572
293.299
293.16
293.115
293.116
293.128
293.137
293.14
293.14
293.136
293.132
293.132
293.134
293.138
293.141
293.143
293.143
293.12
294.653
294.05
293.605
293.312
293.163
293.116
293.116
293.128
293.137
293.14
293.14
293.136
293.132
293.132
293.134
293.138
293.141
293.143
293.143
293.12
294.768
294.117
293.637
293.324
293.166
293.117
293.117
293.129
293.138
293.14
293.14
293.136
293.133
293.132
293.135
293.138
293.141
293.143
293.143
293.119
294.887
294.186
293.671
293.336
293.17
293.118
293.118
293.13
293.138
293.141
293.14
293.137
293.133
293.133
293.135
293.138
293.141
293.143
293.143
293.119
295.01
294.255
293.703
293.348
293.173
293.119
293.119
293.13
293.139
293.141
293.14
293.137
293.133
293.133
293.135
293.139
293.142
293.143
293.143
293.119
295.136
294.325
293.736
293.36
293.176
293.12
293.119
293.131
293.139
293.141
293.14
293.137
293.134
293.133
293.136
293.139
293.142
293.143
293.143
293.118
295.265
294.396
293.768
293.371
293.179
293.121
293.12
293.132
293.139
293.141
293.139
293.137
293.134
293.134
293.136
293.139
293.142
293.144
293.143
293.118
295.396
294.466
293.799
293.381
293.182
293.122
293.121
293.132
293.139
293.141
293.139
293.137
293.134
293.134
293.136
293.14
293.142
293.144
293.143
293.117
295.529
294.536
293.829
293.39
293.184
293.123
293.121
293.132
293.14
293.141
293.139
293.137
293.134
293.134
293.137
293.14
293.142
293.144
293.143
293.117
295.663
294.605
293.857
293.399
293.186
293.124
293.122
293.133
293.14
293.141
293.139
293.137
293.135
293.135
293.137
293.14
293.143
293.144
293.143
293.117
295.798
294.673
293.884
293.407
293.188
293.124
293.123
293.133
293.14
293.141
293.138
293.137
293.135
293.135
293.137
293.14
293.143
293.144
293.143
293.116
295.933
294.74
293.909
293.414
293.19
293.125
293.123
293.134
293.14
293.141
293.138
293.137
293.135
293.135
293.138
293.141
293.143
293.144
293.143
293.116
296.069
294.805
293.933
293.42
293.191
293.126
293.124
293.134
293.14
293.141
293.138
293.138
293.135
293.135
293.138
293.141
293.143
293.144
293.143
293.116
296.204
294.868
293.954
293.424
293.192
293.126
293.125
293.134
293.14
293.141
293.138
293.138
293.135
293.136
293.138
293.141
293.143
293.144
293.143
293.115
296.338
294.929
293.973
293.428
293.192
293.127
293.125
293.135
293.14
293.141
293.138
293.138
293.136
293.136
293.138
293.141
293.143
293.144
293.143
293.115
296.471
294.987
293.99
293.43
293.192
293.127
293.126
293.135
293.14
293.141
293.138
293.138
293.136
293.136
293.139
293.142
293.143
293.144
293.143
293.114
296.603
295.042
294.004
293.431
293.191
293.127
293.126
293.135
293.141
293.141
293.138
293.138
293.136
293.137
293.139
293.142
293.144
293.145
293.143
293.114
296.733
295.095
294.017
293.431
293.19
293.128
293.127
293.136
293.141
293.141
293.138
293.138
293.136
293.137
293.139
293.142
293.144
293.145
293.143
293.114
296.86
295.145
294.027
293.43
293.189
293.128
293.127
293.136
293.141
293.141
293.138
293.138
293.137
293.137
293.14
293.142
293.144
293.145
293.143
293.113
296.986
295.192
294.036
293.429
293.188
293.128
293.128
293.136
293.141
293.141
293.138
293.138
293.137
293.138
293.14
293.142
293.144
293.145
293.143
293.113
297.109
295.237
294.043
293.426
293.187
293.128
293.128
293.137
293.141
293.141
293.139
293.138
293.137
293.138
293.14
293.143
293.144
293.145
293.143
293.112
297.231
295.28
294.049
293.423
293.185
293.128
293.128
293.137
293.141
293.141
293.139
293.138
293.137
293.138
293.141
293.143
293.144
293.145
293.143
293.112
297.35
295.322
294.053
293.42
293.183
293.128
293.129
293.137
293.141
293.141
293.139
293.138
293.138
293.139
293.141
293.143
293.144
293.145
293.143
293.111
297.468
295.363
294.058
293.417
293.182
293.128
293.129
293.137
293.141
293.141
293.139
293.138
293.138
293.139
293.141
293.143
293.144
293.145
293.143
293.111
297.584
295.403
294.062
293.414
293.18
293.128
293.129
293.137
293.141
293.141
293.139
293.139
293.139
293.14
293.141
293.143
293.144
293.145
293.143
293.11
297.699
295.443
294.067
293.411
293.179
293.128
293.13
293.138
293.142
293.142
293.14
293.139
293.139
293.14
293.142
293.143
293.145
293.145
293.143
293.11
297.813
295.485
294.073
293.409
293.178
293.128
293.13
293.138
293.142
293.142
293.14
293.139
293.139
293.14
293.142
293.144
293.145
293.145
293.142
293.109
297.927
295.528
294.081
293.408
293.177
293.128
293.13
293.138
293.142
293.142
293.14
293.14
293.14
293.141
293.142
293.144
293.145
293.145
293.142
293.109
298.042
295.574
294.091
293.408
293.177
293.128
293.13
293.138
293.142
293.142
293.141
293.14
293.14
293.141
293.143
293.144
293.145
293.145
293.142
293.108
298.158
295.624
294.104
293.41
293.177
293.129
293.131
293.138
293.142
293.142
293.141
293.14
293.14
293.141
293.143
293.144
293.145
293.145
293.142
293.108
298.276
295.679
294.121
293.414
293.177
293.129
293.131
293.138
293.142
293.142
293.141
293.141
293.141
293.142
293.143
293.144
293.145
293.145
293.141
293.107
298.397
295.74
294.143
293.42
293.179
293.129
293.131
293.138
293.142
293.143
293.142
293.141
293.141
293.142
293.143
293.144
293.145
293.145
293.141
293.106
298.521
295.809
294.17
293.428
293.181
293.13
293.131
293.138
293.142
293.143
293.142
293.142
293.142
293.142
293.143
293.144
293.145
293.145
293.14
293.106
298.649
295.885
294.204
293.44
293.184
293.131
293.131
293.138
293.142
293.143
293.142
293.142
293.142
293.143
293.144
293.144
293.145
293.145
293.14
293.105
298.782
295.971
294.244
293.455
293.189
293.132
293.131
293.138
293.142
293.143
293.143
293.142
293.142
293.143
293.144
293.144
293.145
293.145
293.139
293.104
298.92
296.067
294.293
293.474
293.195
293.133
293.131
293.138
293.142
293.143
293.143
293.143
293.143
293.143
293.144
293.145
293.145
293.144
293.139
293.103
299.064
296.175
294.351
293.498
293.202
293.134
293.131
293.138
293.142
293.143
293.143
293.143
293.143
293.143
293.144
293.145
293.145
293.144
293.138
293.103
299.214
296.295
294.419
293.527
293.211
293.136
293.131
293.137
293.142
293.143
293.143
293.143
293.143
293.144
293.144
293.145
293.145
293.144
293.137
293.102
299.37
296.429
294.498
293.561
293.222
293.138
293.131
293.137
293.142
293.143
293.144
293.143
293.143
293.144
293.144
293.145
293.145
293.143
293.136
293.101
299.533
296.577
294.589
293.603
293.236
293.141
293.131
293.137
293.141
293.143
293.144
293.144
293.144
293.144
293.144
293.145
293.145
293.143
293.135
293.1
299.703
296.742
294.695
293.653
293.253
293.145
293.132
293.136
293.141
293.143
293.144
293.144
293.144
293.144
293.144
293.145
293.144
293.143
293.134
293.099
299.88
296.922
294.816
293.711
293.274
293.15
293.132
293.136
293.141
293.143
293.144
293.144
293.144
293.144
293.144
293.144
293.144
293.142
293.133
293.098
300.063
297.121
294.954
293.781
293.299
293.156
293.132
293.135
293.14
293.143
293.144
293.144
293.144
293.144
293.144
293.144
293.144
293.141
293.132
293.097
300.252
297.337
295.112
293.863
293.33
293.164
293.133
293.135
293.14
293.142
293.144
293.144
293.144
293.144
293.144
293.144
293.143
293.14
293.13
293.096
300.447
297.573
295.291
293.96
293.368
293.174
293.134
293.134
293.139
293.142
293.143
293.144
293.144
293.144
293.144
293.144
293.143
293.139
293.129
293.095
300.646
297.829
295.494
294.074
293.415
293.187
293.135
293.133
293.138
293.142
293.143
293.144
293.144
293.144
293.144
293.143
293.142
293.138
293.127
293.094
300.849
298.106
295.723
294.21
293.474
293.205
293.138
293.132
293.137
293.141
293.143
293.143
293.143
293.143
293.143
293.143
293.141
293.137
293.125
293.092
301.055
298.404
295.984
294.371
293.547
293.228
293.142
293.132
293.136
293.14
293.142
293.143
293.143
293.143
293.143
293.142
293.14
293.135
293.123
293.091
301.263
298.724
296.278
294.563
293.639
293.259
293.148
293.131
293.134
293.139
293.141
293.142
293.142
293.142
293.142
293.141
293.139
293.133
293.121
293.089
301.471
299.065
296.609
294.791
293.755
293.302
293.158
293.131
293.133
293.137
293.14
293.141
293.141
293.141
293.141
293.14
293.137
293.131
293.119
293.088
301.677
299.426
296.983
295.063
293.902
293.36
293.172
293.131
293.13
293.135
293.138
293.14
293.14
293.14
293.14
293.138
293.135
293.129
293.116
293.086
301.879
299.807
297.402
295.388
294.09
293.44
293.195
293.133
293.128
293.133
293.136
293.138
293.139
293.139
293.138
293.136
293.133
293.126
293.114
293.084
302.074
300.203
297.869
295.776
294.33
293.551
293.231
293.139
293.126
293.13
293.134
293.136
293.137
293.136
293.136
293.134
293.13
293.124
293.111
293.082
302.259
300.61
298.386
296.238
294.639
293.706
293.287
293.151
293.125
293.126
293.131
293.133
293.134
293.134
293.133
293.131
293.127
293.12
293.107
293.08
302.431
301.021
298.951
296.782
295.034
293.924
293.376
293.173
293.125
293.122
293.127
293.13
293.131
293.131
293.13
293.128
293.124
293.117
293.104
293.078
302.587
301.425
299.556
297.418
295.537
294.23
293.515
293.217
293.131
293.119
293.122
293.125
293.127
293.127
293.126
293.124
293.12
293.113
293.1
293.076
302.721
301.81
300.188
298.147
296.171
294.656
293.734
293.298
293.148
293.116
293.117
293.12
293.122
293.122
293.121
293.119
293.115
293.108
293.096
293.073
302.833
302.16
300.823
298.958
296.954
295.243
294.076
293.446
293.19
293.119
293.111
293.114
293.116
293.117
293.116
293.114
293.11
293.103
293.092
293.07
302.92
302.46
301.431
299.824
297.889
296.034
294.6
293.713
293.286
293.137
293.107
293.107
293.11
293.111
293.11
293.108
293.105
293.098
293.087
293.067
302.984
302.698
301.974
300.695
298.952
297.055
295.379
294.178
293.493
293.197
293.112
293.101
293.103
293.104
293.104
293.102
293.098
293.092
293.082
293.063
303.027
302.873
302.415
301.501
300.077
298.297
296.478
294.955
293.918
293.364
293.148
293.097
293.095
293.096
293.096
293.095
293.092
293.086
293.077
293.059
303.053
302.988
302.734
302.167
301.149
299.672
297.906
296.156
294.724
293.776
293.292
293.12
293.087
293.088
293.088
293.087
293.084
293.079
293.071
293.054
303.068
303.055
302.935
302.639
302.033
301.003
299.545
297.816
296.098
294.684
293.746
293.273
293.113
293.09
293.087
293.085
293.082
293.076
293.068
293.051
303.075
303.09
303.043
302.917
302.631
302.066
301.113
299.747
298.081
296.368
294.908
293.907
293.388
293.217
293.184
293.166
293.156
293.146
293.134
293.109
303.078
303.108
303.093
303.049
302.945
302.719
302.27
301.487
300.31
298.79
297.13
295.621
294.515
293.904
293.725
293.644
293.602
293.577
293.56
293.564
303.078
303.116
303.115
303.101
303.071
303.006
302.866
302.577
302.044
301.18
299.978
298.558
297.156
296.017
295.345
295.139
295.053
294.997
294.923
295.301
303.078
303.121
303.125
303.12
303.111
303.096
303.067
303.004
302.869
302.604
302.136
301.424
300.498
299.482
298.546
298.027
297.947
298.008
298.013
297.797
303.076
303.123
303.131
303.13
303.126
303.121
303.116
303.108
303.093
303.063
303.005
302.901
302.741
302.523
302.233
301.85
301.519
301.361
301.074
300.8
303.074
303.124
303.135
303.136
303.133
303.131
303.128
303.127
303.125
303.122
303.117
303.11
303.098
303.083
303.059
303.019
302.952
302.831
302.561
302.38
303.072
303.125
303.138
303.14
303.139
303.137
303.135
303.134
303.133
303.132
303.13
303.127
303.123
303.116
303.106
303.093
303.074
303.041
302.977
302.859
303.069
303.124
303.139
303.142
303.142
303.141
303.14
303.139
303.138
303.138
303.136
303.134
303.131
303.126
303.118
303.106
303.091
303.07
303.041
302.984
303.067
303.124
303.14
303.144
303.144
303.144
303.143
303.142
303.142
303.141
303.141
303.139
303.137
303.133
303.126
303.115
303.1
303.08
303.054
303.022
303.064
303.123
303.14
303.145
303.146
303.146
303.145
303.145
303.144
303.144
303.144
303.143
303.141
303.137
303.131
303.122
303.108
303.087
303.06
303.026
303.062
303.122
303.14
303.146
303.147
303.147
303.147
303.146
303.146
303.146
303.146
303.145
303.144
303.141
303.136
303.127
303.114
303.094
303.065
303.028
303.06
303.121
303.14
303.146
303.148
303.148
303.148
303.147
303.147
303.147
303.147
303.146
303.145
303.143
303.139
303.132
303.119
303.099
303.07
303.029
303.058
303.12
303.139
303.146
303.148
303.148
303.148
303.148
303.148
303.148
303.148
303.148
303.147
303.145
303.142
303.135
303.123
303.104
303.074
303.03
303.057
303.119
303.139
303.146
303.148
303.149
303.149
303.149
303.149
303.149
303.148
303.148
303.148
303.146
303.144
303.138
303.127
303.108
303.077
303.031
303.055
303.118
303.139
303.147
303.149
303.149
303.149
303.149