/*--------------------------------*- C++ -*----------------------------------*\
  =========                 |
  \\      /  F ield         | OpenFOAM: The Open Source CFD Toolbox
   \\    /   O peration     | Website:  https://openfoam.org
    \\  /    A nd           | Version:  8
     \\/     M anipulation  |
\*---------------------------------------------------------------------------*/
FoamFile
{
    version     2.0;
    format      ascii;
    class       volVectorField;
    location    "200";
    object      U;
}
// * * * * * * * * * * * * * * * * * * * * * * * * * * * * * * * * * * * * * //

dimensions      [0 1 -1 0 0 0 0];

internalField   nonuniform List<vector> 
8400
(
(-13.1582 -0.151531 3.20653e-17)
(-13.0923 -0.152613 3.2417e-17)
(-13.1173 -0.150536 3.26014e-17)
(-13.1171 -0.165902 3.26411e-17)
(-13.0452 -0.204433 3.27086e-17)
(-12.8458 -0.265331 3.27336e-17)
(-12.4949 -0.3432 3.27242e-17)
(-11.9856 -0.428529 3.28816e-17)
(-11.3225 -0.507207 3.33491e-17)
(-10.5262 -0.560921 3.38163e-17)
(-9.64395 -0.569503 3.50097e-17)
(-8.76143 -0.517251 3.71678e-17)
(-8.00253 -0.40443 3.91851e-17)
(-7.46887 -0.267412 4.0893e-17)
(-7.14165 -0.175076 4.19713e-17)
(-6.90857 -0.146941 4.22368e-17)
(-6.65979 -0.162617 4.25923e-17)
(-6.34023 -0.197578 4.33344e-17)
(-5.95672 -0.22384 4.36813e-17)
(-5.55303 -0.228157 4.35846e-17)
(-5.16002 -0.220665 4.27892e-17)
(-4.78251 -0.211799 4.10829e-17)
(-4.42563 -0.200206 3.82354e-17)
(-4.10217 -0.183908 3.40536e-17)
(-3.82047 -0.165501 2.85377e-17)
(-3.58163 -0.147925 2.19113e-17)
(-3.38439 -0.131612 1.49499e-17)
(-3.226 -0.117386 7.39764e-18)
(-3.10189 -0.105667 -6.40758e-19)
(-3.00707 -0.0963017 -7.87024e-18)
(-2.93677 -0.0889624 -1.41771e-17)
(-2.88661 -0.0832715 -1.95387e-17)
(-2.85281 -0.0788782 -2.394e-17)
(-2.83223 -0.0755334 -2.75123e-17)
(-2.82222 -0.0730885 -3.05858e-17)
(-2.82057 -0.0714883 -3.30943e-17)
(-2.82543 -0.0707938 -3.5137e-17)
(-2.83521 -0.0711361 -3.71781e-17)
(-2.84877 -0.0723278 -3.93112e-17)
(-2.86523 -0.0742479 -4.13505e-17)
(-2.88382 -0.0767989 -4.35461e-17)
(-2.90385 -0.079938 -4.51338e-17)
(-2.92477 -0.0836519 -4.7614e-17)
(-2.94603 -0.0879622 -5.07546e-17)
(-2.96713 -0.0929298 -5.34815e-17)
(-2.98759 -0.0986626 -5.65088e-17)
(-3.0069 -0.105344 -5.80137e-17)
(-3.0242 -0.113261 -5.89196e-17)
(-3.0376 -0.123015 -6.17112e-17)
(-3.04492 -0.136073 -6.52482e-17)
(-11.5511 0.00566459 2.17495e-17)
(-11.3962 0.0573852 2.06271e-17)
(-11.2212 0.0860875 1.94832e-17)
(-10.967 0.012709 1.73835e-17)
(-10.5833 -0.153895 1.57886e-17)
(-10.1283 -0.382579 1.49543e-17)
(-9.65411 -0.635638 1.41779e-17)
(-9.18913 -0.88276 1.38116e-17)
(-8.72352 -1.09894 1.37541e-17)
(-8.23914 -1.25213 1.38471e-17)
(-7.7254 -1.29986 1.53605e-17)
(-7.19802 -1.19959 1.85697e-17)
(-6.74118 -0.934333 2.23136e-17)
(-6.48709 -0.577445 2.67346e-17)
(-6.38708 -0.331279 3.04259e-17)
(-6.33223 -0.273177 3.29785e-17)
(-6.20804 -0.34348 3.58999e-17)
(-5.97028 -0.474658 3.97326e-17)
(-5.64341 -0.568719 4.50482e-17)
(-5.29351 -0.575246 5.21851e-17)
(-4.95661 -0.539117 6.06322e-17)
(-4.62637 -0.508593 7.02058e-17)
(-4.30434 -0.474975 8.12217e-17)
(-4.00824 -0.420796 9.36124e-17)
(-3.75222 -0.354116 1.06573e-16)
(-3.538 -0.288967 1.19278e-16)
(-3.36434 -0.225782 1.30812e-16)
(-3.22871 -0.167013 1.4033e-16)
(-3.12531 -0.115246 1.47599e-16)
(-3.04826 -0.0709825 1.52865e-16)
(-2.99246 -0.0339242 1.56773e-16)
(-2.95353 -0.00341671 1.59596e-16)
(-2.92796 0.0213426 1.60636e-16)
(-2.913 0.0412341 1.6011e-16)
(-2.9065 0.0570501 1.58456e-16)
(-2.90666 0.0694555 1.56535e-16)
(-2.91227 0.0793805 1.55347e-16)
(-2.92248 0.087839 1.54561e-16)
(-2.9362 0.0951011 1.54066e-16)
(-2.95264 0.10138 1.53549e-16)
(-2.97109 0.106868 1.5371e-16)
(-2.99098 0.111691 1.53551e-16)
(-3.01178 0.115932 1.52765e-16)
(-3.03305 0.119625 1.52555e-16)
(-3.05436 0.122742 1.53766e-16)
(-3.07536 0.125189 1.5558e-16)
(-3.09571 0.126778 1.56848e-16)
(-3.11495 0.127196 1.57546e-16)
(-3.13236 0.1257 1.58211e-16)
(-3.14718 0.120276 1.58215e-16)
(-3.39154 0.342787 1.23394e-17)
(-2.92055 0.162326 1.20458e-17)
(-2.42098 -0.0690367 1.08171e-17)
(-1.96558 -0.329481 9.37318e-18)
(-1.68359 -0.625308 8.70974e-18)
(-1.5778 -0.91482 8.57676e-18)
(-1.63803 -1.17447 8.10062e-18)
(-1.83518 -1.40194 7.50229e-18)
(-2.16416 -1.58794 6.55383e-18)
(-2.59645 -1.69346 5.2256e-18)
(-3.06043 -1.65244 4.11676e-18)
(-3.45253 -1.40221 2.47125e-18)
(-3.74368 -0.95717 3.18945e-19)
(-4.22314 -0.495161 -1.2257e-18)
(-4.62227 -0.240051 -1.24022e-18)
(-4.95026 -0.267659 -8.37725e-19)
(-5.07395 -0.496241 -2.94914e-19)
(-4.97203 -0.774687 2.95272e-19)
(-4.76422 -0.931596 1.43919e-18)
(-4.56208 -0.909937 3.51168e-18)
(-4.38316 -0.840435 6.33412e-18)
(-4.15787 -0.81425 9.65746e-18)
(-3.91053 -0.797454 1.35197e-17)
(-3.66305 -0.721328 1.84444e-17)
(-3.44193 -0.610741 2.47335e-17)
(-3.25297 -0.514221 3.20169e-17)
(-3.09852 -0.424646 3.98784e-17)
(-2.98065 -0.341661 4.71055e-17)
(-2.89345 -0.272804 5.29039e-17)
(-2.83036 -0.217103 5.79216e-17)
(-2.78609 -0.172222 6.37763e-17)
(-2.75642 -0.136206 6.95984e-17)
(-2.73808 -0.107277 7.37635e-17)
(-2.72864 -0.0839114 7.13371e-17)
(-2.72627 -0.0649418 7.25545e-17)
(-2.72936 -0.0494879 7.43998e-17)
(-2.73703 -0.0373284 7.64342e-17)
(-2.74828 -0.0282957 7.83611e-17)
(-2.76229 -0.0219261 8.00682e-17)
(-2.77837 -0.0178018 8.15018e-17)
(-2.79594 -0.0155689 8.36033e-17)
(-2.81451 -0.0149439 8.49282e-17)
(-2.83366 -0.0157005 8.60855e-17)
(-2.85303 -0.0176687 8.73886e-17)
(-2.87226 -0.0207407 8.89432e-17)
(-2.89108 -0.0248676 9.05501e-17)
(-2.90924 -0.0300392 9.10264e-17)
(-2.92645 -0.0362617 9.1796e-17)
(-2.94263 -0.0437032 9.17313e-17)
(-2.95817 -0.053056 9.15386e-17)
(13.3841 -1.23841 -2.98489e-18)
(13.1047 -0.878977 -2.98279e-18)
(12.8205 -0.700891 -3.66674e-18)
(12.5075 -0.64053 -3.70008e-18)
(12.1111 -0.656674 -3.28415e-18)
(11.608 -0.723096 -3.00706e-18)
(10.9745 -0.81192 -2.13461e-18)
(10.174 -0.90065 -9.58495e-19)
(9.1655 -0.972932 -1.76108e-19)
(7.92029 -1.01367 1.20738e-18)
(6.49114 -0.982305 3.30004e-18)
(5.00559 -0.823537 3.99999e-18)
(3.86552 -0.4788 3.75986e-18)
(3.48609 0.166879 7.74047e-19)
(1.06709 0.92521 -3.76689e-18)
(-2.21348 0.0773388 -3.0522e-18)
(-2.96241 -0.659792 -2.94268e-18)
(-2.67305 -0.919758 -3.55619e-18)
(-2.70468 -0.975103 -5.21208e-18)
(-3.012 -0.911619 -5.87581e-18)
(-3.40612 -0.961189 -5.71685e-18)
(-3.32079 -0.976878 -5.07997e-18)
(-3.21671 -1.0016 -4.69577e-18)
(-3.10762 -0.911189 -4.49831e-18)
(-2.98971 -0.754624 -4.41908e-18)
(-2.85853 -0.631615 -3.21013e-18)
(-2.74288 -0.51097 -7.68678e-19)
(-2.65701 -0.381039 1.95148e-18)
(-2.5977 -0.275761 4.20568e-18)
(-2.55749 -0.191134 7.31577e-18)
(-2.53186 -0.12156 1.12828e-17)
(-2.51712 -0.0660028 1.52133e-17)
(-2.51052 -0.0222435 1.84793e-17)
(-2.51021 0.0119045 2.14548e-17)
(-2.51485 0.0381894 2.42881e-17)
(-2.52308 0.0583063 2.73999e-17)
(-2.53524 0.0745274 3.04853e-17)
(-2.5501 0.0877315 3.32144e-17)
(-2.56716 0.0983132 3.5859e-17)
(-2.58584 0.10665 3.79036e-17)
(-2.60567 0.113046 3.96464e-17)
(-2.62628 0.117742 4.16982e-17)
(-2.64735 0.12091 4.3349e-17)
(-2.66859 0.12266 4.47012e-17)
(-2.68977 0.123002 4.64632e-17)
(-2.7107 0.12184 4.80392e-17)
(-2.73117 0.119006 4.93121e-17)
(-2.75102 0.114233 5.02906e-17)
(-2.77033 0.107085 5.12943e-17)
(-2.78948 0.0969266 5.2425e-17)
(17.0048 0.835581 -5.31578e-19)
(16.4873 0.849856 -5.24958e-19)
(16.0157 0.782408 -9.67373e-19)
(15.5883 0.651996 -1.004e-18)
(15.131 0.497578 -5.96111e-19)
(14.6233 0.351792 -6.70394e-19)
(14.0562 0.24345 -7.2588e-19)
(13.4124 0.200497 -7.41986e-19)
(12.6776 0.250735 -1.16101e-18)
(11.8507 0.418163 -1.116e-18)
(10.9115 0.701487 -4.31359e-19)
(9.88251 1.07876 -2.21816e-19)
(8.84797 1.46394 3.46242e-19)
(7.8919 1.70812 6.54976e-19)
(6.89408 1.80043 -4.44337e-20)
(5.94022 1.54661 1.78121e-19)
(5.25761 1.1567 1.33362e-18)
(4.06649 0.673478 1.78091e-18)
(2.88728 0.3632 1.89223e-18)
(0.903824 0.0876966 -1.75335e-18)
(-2.089 -0.886494 -4.27247e-18)
(-1.69397 -0.931506 -2.85176e-18)
(-1.7855 -0.937546 -1.83831e-18)
(-2.14981 -0.910226 -9.60182e-19)
(-2.35696 -0.844943 -2.22288e-19)
(-2.30157 -0.732502 1.41359e-19)
(-2.26279 -0.617962 1.08169e-18)
(-2.23548 -0.463118 2.8253e-18)
(-2.21482 -0.35196 4.6392e-18)
(-2.20095 -0.267508 7.06627e-18)
(-2.19602 -0.194763 1.02197e-17)
(-2.1978 -0.138469 1.3054e-17)
(-2.20354 -0.0940718 1.46411e-17)
(-2.21233 -0.0580457 1.61065e-17)
(-2.22337 -0.028458 1.73472e-17)
(-2.23757 -0.00384435 1.87288e-17)
(-2.25386 0.0157554 2.05833e-17)
(-2.27182 0.0308542 2.24935e-17)
(-2.29101 0.0421557 2.41103e-17)
(-2.31098 0.0502722 2.53961e-17)
(-2.33141 0.0557208 2.66452e-17)
(-2.35206 0.0589431 2.80235e-17)
(-2.37271 0.060296 2.94894e-17)
(-2.39322 0.0600367 3.10051e-17)
(-2.41351 0.0583295 3.23577e-17)
(-2.43352 0.0552803 3.36546e-17)
(-2.45319 0.0509213 3.48545e-17)
(-2.47257 0.0451733 3.54494e-17)
(-2.49198 0.0378513 3.60999e-17)
(-2.51201 0.0287439 3.66204e-17)
(13.8332 0.733669 -5.9358e-19)
(13.4543 0.564228 -5.86258e-19)
(13.0462 0.432143 -1.08222e-18)
(12.6979 0.306448 -1.02633e-18)
(12.3694 0.214019 -4.99756e-19)
(12.0394 0.17912 -5.249e-19)
(11.7 0.21562 -5.26305e-19)
(11.3369 0.334264 -5.25298e-19)
(10.9373 0.545305 -1.12607e-18)
(10.502 0.855791 -1.17468e-18)
(10.0441 1.26125 -4.99126e-19)
(9.58472 1.73468 -4.25202e-19)
(9.15084 2.20303 -1.63917e-19)
(8.7385 2.50794 1.12283e-19)
(8.26683 2.49553 -7.94838e-20)
(7.66054 2.19256 1.24265e-19)
(6.92422 1.83457 7.31395e-19)
(6.10571 1.58915 9.42883e-19)
(5.31553 1.46237 1.15273e-18)
(4.51857 1.28706 7.35989e-19)
(3.8768 1.00149 5.38115e-19)
(2.99439 0.614251 8.4624e-20)
(2.09621 0.333669 -8.611e-19)
(-0.246747 -0.341959 -1.35651e-18)
(-1.56123 -0.820062 1.10391e-19)
(-1.34395 -0.640627 9.1768e-19)
(-1.57416 -0.552612 1.38015e-18)
(-1.73231 -0.426538 3.30596e-18)
(-1.76045 -0.312918 5.50941e-18)
(-1.7772 -0.224275 8.71285e-18)
(-1.79522 -0.132802 1.31009e-17)
(-1.8163 -0.0713151 1.59195e-17)
(-1.83576 -0.0249407 1.66406e-17)
(-1.85486 0.0121664 1.7178e-17)
(-1.87356 0.0415372 1.55922e-17)
(-1.89523 0.0655544 1.62829e-17)
(-1.91725 0.0851291 1.74501e-17)
(-1.93983 0.100583 1.88552e-17)
(-1.96261 0.112439 2.03228e-17)
(-1.98533 0.121213 2.16564e-17)
(-2.00781 0.12739 2.28405e-17)
(-2.02997 0.131384 2.43263e-17)
(-2.05177 0.133504 2.58079e-17)
(-2.07321 0.133944 2.74475e-17)
(-2.09428 0.132832 2.91634e-17)
(-2.11502 0.13023 3.11916e-17)
(-2.13551 0.126111 3.24015e-17)
(-2.15589 0.120368 3.30207e-17)
(-2.17656 0.112854 3.37835e-17)
(-2.19804 0.10346 3.49333e-17)
(12.3469 1.33791 -3.91324e-20)
(11.9091 1.13909 7.81731e-21)
(11.4547 0.973601 -5.81568e-19)
(11.0693 0.839161 -7.46258e-19)
(10.7259 0.749183 -1.79375e-19)
(10.4015 0.719312 -1.8383e-19)
(10.0901 0.758519 -1.45693e-19)
(9.78645 0.874302 -1.16573e-19)
(9.48769 1.07495 -5.45722e-19)
(9.19859 1.36459 -7.39931e-19)
(8.93057 1.73395 -4.17503e-19)
(8.69584 2.15114 -3.80223e-19)
(8.4995 2.55069 -1.77981e-19)
(8.31837 2.82427 8.00869e-20)
(8.08274 2.87535 -1.93971e-19)
(7.72331 2.73279 -2.72227e-19)
(7.23487 2.52462 2.5391e-19)
(6.66883 2.33494 4.29674e-19)
(6.08027 2.15491 6.39062e-19)
(5.46631 1.8937 7.49109e-19)
(4.8255 1.57413 7.54705e-19)
(4.1505 1.33815 3.01443e-19)
(3.49629 1.19448 -1.39172e-20)
(2.78347 0.993058 1.38266e-19)
(2.24643 0.772713 3.71068e-19)
(1.68934 0.524422 2.19415e-19)
(-0.300447 -0.170803 -1.39176e-18)
(-1.17691 -0.421116 -1.88892e-18)
(-1.16402 -0.289184 -3.32679e-18)
(-1.30155 -0.217357 -2.07107e-18)
(-1.35211 -0.125775 4.77933e-18)
(-1.39265 -0.0813993 9.17623e-18)
(-1.4202 -0.040221 1.22119e-17)
(-1.44588 0.00021041 1.36375e-17)
(-1.47642 0.0328666 1.41553e-17)
(-1.50491 0.0592501 1.44539e-17)
(-1.53266 0.0803011 1.52133e-17)
(-1.55975 0.0963027 1.5989e-17)
(-1.58583 0.107925 1.70478e-17)
(-1.61073 0.116 1.79826e-17)
(-1.63447 0.121254 1.89712e-17)
(-1.65715 0.124218 2.00825e-17)
(-1.67892 0.125283 2.10122e-17)
(-1.69994 0.124752 2.18992e-17)
(-1.72033 0.122834 2.26413e-17)
(-1.74029 0.119638 2.38907e-17)
(-1.76001 0.115224 2.51471e-17)
(-1.77971 0.109623 2.60353e-17)
(-1.79989 0.102841 2.66297e-17)
(-1.82112 0.0949939 2.75095e-17)
(10.4582 1.69265 1.53629e-18)
(10.0568 1.46471 1.49741e-18)
(9.65141 1.27566 6.91109e-19)
(9.31467 1.1317 3.94397e-19)
(9.02049 1.03675 1.01197e-18)
(8.74471 1 9.77086e-19)
(8.48309 1.02958 9.65615e-19)
(8.23684 1.13336 9.16171e-19)
(8.01007 1.31875 2.50202e-19)
(7.81042 1.58739 -1.07152e-19)
(7.64669 1.9276 1.03584e-19)
(7.52476 2.30862 -2.83756e-21)
(7.44244 2.67756 5.2691e-20)
(7.37717 2.96107 2.09271e-19)
(7.27698 3.09604 -2.24268e-19)
(7.08851 3.08564 -4.39536e-19)
(6.796 2.98712 7.46322e-20)
(6.42165 2.84694 6.3544e-20)
(5.99555 2.67061 2.31567e-19)
(5.52722 2.44053 3.14066e-19)
(5.01927 2.18454 3.33178e-19)
(4.4849 1.95644 2.27568e-19)
(3.94976 1.74898 -3.03946e-19)
(3.4029 1.50205 -7.91983e-19)
(2.87662 1.29148 -1.33134e-18)
(2.4063 1.15532 -8.57109e-19)
(1.75196 0.931043 -1.78017e-18)
(1.31222 0.727179 -2.91328e-18)
(0.926853 0.487251 -7.12889e-18)
(-0.721022 -0.118587 -2.54241e-17)
(-0.848763 -0.0835429 -2.06322e-17)
(-0.929039 -0.0366779 -1.37023e-17)
(-0.954447 0.0172906 -8.75099e-18)
(-0.993389 0.0600788 -4.74552e-18)
(-1.0368 0.0853147 -2.15097e-18)
(-1.07237 0.106872 -1.07152e-18)
(-1.10566 0.126045 3.22832e-19)
(-1.13748 0.139958 1.60682e-18)
(-1.16681 0.149427 2.87216e-18)
(-1.19355 0.155638 6.47022e-18)
(-1.21806 0.15942 6.86296e-18)
(-1.24079 0.161277 6.23021e-18)
(-1.26206 0.161549 7.65159e-18)
(-1.28216 0.160476 8.39496e-18)
(-1.30143 0.1582 9.71589e-18)
(-1.32014 0.154811 1.1423e-17)
(-1.33854 0.150395 1.16004e-17)
(-1.35697 0.144991 1.16366e-17)
(-1.37596 0.138632 1.10474e-17)
(-1.39601 0.131534 1.12857e-17)
(8.50306 2.09423 1.81097e-18)
(8.11056 1.8145 1.84782e-18)
(7.74818 1.58452 1.32655e-18)
(7.46407 1.41183 1.14873e-18)
(7.22428 1.29302 1.51678e-18)
(7.00365 1.23331 1.46455e-18)
(6.79848 1.24024 1.46113e-18)
(6.61181 1.32108 1.39549e-18)
(6.44956 1.48146 7.43522e-19)
(6.31924 1.72095 4.55915e-19)
(6.22738 2.028 6.66109e-19)
(6.17687 2.37637 4.61436e-19)
(6.16354 2.72428 4.34941e-19)
(6.16883 3.01743 4.85067e-19)
(6.15537 3.20717 -1.81568e-19)
(6.08319 3.28127 -4.05252e-19)
(5.93311 3.26241 4.56137e-20)
(5.7108 3.17839 3.00147e-20)
(5.43219 3.04264 1.34612e-19)
(5.10641 2.85939 2.89099e-19)
(4.73776 2.64626 3.05074e-19)
(4.33789 2.4291 1.52262e-19)
(3.92529 2.21248 -1.35601e-19)
(3.50483 1.98598 9.94748e-20)
(3.08687 1.78108 -9.52417e-19)
(2.69251 1.59784 -1.18345e-18)
(2.264 1.37691 -2.8638e-18)
(1.87263 1.17386 -3.0031e-18)
(1.53872 0.994761 -5.15402e-18)
(0.980365 0.728088 -1.26979e-17)
(0.616977 0.510805 -1.91551e-17)
(0.271014 0.261452 -2.92407e-17)
(-0.375609 0.0500385 -2.99451e-17)
(-0.513722 0.0837467 -2.23015e-17)
(-0.57541 0.110587 -1.92678e-17)
(-0.609997 0.137044 -1.69402e-17)
(-0.647243 0.156958 -1.55315e-17)
(-0.684896 0.167483 -1.33214e-17)
(-0.71726 0.173074 -1.21789e-17)
(-0.744854 0.176008 -1.00253e-17)
(-0.768928 0.177168 -8.17632e-18)
(-0.790431 0.176954 -5.99869e-18)
(-0.809985 0.1756 -6.24929e-18)
(-0.828054 0.173241 -2.49227e-18)
(-0.84506 0.17 1.31125e-18)
(-0.861354 0.166022 4.52327e-18)
(-0.877284 0.161424 6.97528e-18)
(-0.893288 0.156263 7.70862e-18)
(-0.9099 0.150676 9.29891e-18)
(-0.92752 0.14509 1.12104e-17)
(6.38911 2.42437 1.86755e-18)
(6.02537 2.07964 1.91232e-18)
(5.73259 1.80933 1.3379e-18)
(5.52249 1.61201 1.32739e-18)
(5.35081 1.47495 1.82686e-18)
(5.19396 1.39948 1.72813e-18)
(5.04974 1.39078 1.74656e-18)
(4.92236 1.45392 1.75234e-18)
(4.81852 1.59228 1.06586e-18)
(4.7454 1.80416 7.8085e-19)
(4.70867 2.07932 1.0392e-18)
(4.71044 2.39649 7.6022e-19)
(4.74677 2.72251 6.66756e-19)
(4.80333 3.01487 6.76711e-19)
(4.8532 3.23347 2.20044e-19)
(4.86668 3.35954 -2.43144e-19)
(4.82556 3.39881 -2.29265e-19)
(4.72762 3.36721 -1.85656e-19)
(4.5795 3.27762 -6.35011e-20)
(4.38657 3.13858 2.27491e-19)
(4.15259 2.96329 5.43913e-19)
(3.88652 2.76924 6.11607e-19)
(3.60146 2.56546 5.12183e-19)
(3.30346 2.35298 3.89231e-19)
(2.99948 2.14423 3.96377e-19)
(2.70435 1.94236 6.85497e-19)
(2.40126 1.72978 5.24587e-21)
(2.10712 1.52548 -7.53201e-19)
(1.83786 1.32535 -1.17953e-18)
(1.51471 1.09145 -3.96398e-18)
(1.21171 0.875813 -9.09357e-18)
(0.942938 0.680297 -1.53823e-17)
(0.608905 0.490412 -2.01943e-17)
(0.342169 0.342644 -2.27039e-17)
(0.152874 0.232919 -2.45688e-17)
(-0.0765552 0.173137 -1.92485e-17)
(-0.16544 0.188416 -1.29454e-17)
(-0.21783 0.195041 -8.48061e-18)
(-0.251779 0.198035 -5.48153e-18)
(-0.277276 0.198959 -2.87373e-18)
(-0.298456 0.198307 2.48066e-18)
(-0.31693 0.196463 4.87393e-19)
(-0.333452 0.193725 2.30017e-18)
(-0.348421 0.190276 1.01752e-17)
(-0.362239 0.186331 1.59133e-17)
(-0.375363 0.182074 2.34361e-17)
(-0.388259 0.177591 2.44011e-17)
(-0.401408 0.172932 1.80072e-17)
(-0.415208 0.168336 1.31487e-17)
(-0.429659 0.164422 9.33554e-18)
(4.17667 2.69626 1.90332e-18)
(3.83586 2.2676 1.96287e-18)
(3.63714 1.96387 1.68587e-18)
(3.51815 1.74945 1.5457e-18)
(3.4225 1.60024 1.67974e-18)
(3.33194 1.51397 1.64775e-18)
(3.24744 1.49297 1.70198e-18)
(3.17518 1.54023 1.80096e-18)
(3.12327 1.65755 1.19397e-18)
(3.09948 1.8429 8.77289e-19)
(3.10966 2.08784 1.10587e-18)
(3.15623 2.3752 8.59862e-19)
(3.23617 2.67802 7.23111e-19)
(3.3385 2.96163 7.45202e-19)
(3.44337 3.19187 1.1009e-19)
(3.5284 3.34816 -3.00688e-19)
(3.57774 3.4277 -1.98223e-19)
(3.58568 3.43834 -3.31282e-19)
(3.55319 3.3895 -2.8808e-19)
(3.48216 3.28941 -1.09754e-19)
(3.37472 3.14876 2.38961e-19)
(3.23682 2.98088 6.63704e-19)
(3.07706 2.79508 8.4208e-19)
(2.90042 2.59584 8.90483e-19)
(2.71291 2.39181 1.07879e-18)
(2.52388 2.18734 1.40954e-18)
(2.32778 1.97627 2.21984e-18)
(2.13186 1.76722 2.23674e-18)
(1.94537 1.55905 2.53725e-18)
(1.74122 1.33769 1.31827e-18)
(1.53342 1.12546 -9.63325e-19)
(1.33507 0.928951 -3.61333e-18)
(1.1243 0.74717 -6.38454e-18)
(0.924815 0.593641 -8.604e-18)
(0.755988 0.470827 -9.90871e-18)
(0.592534 0.373699 -9.2507e-18)
(0.460445 0.307172 -7.23825e-18)
(0.360636 0.263748 -4.968e-18)
(0.287641 0.237581 -4.80458e-18)
(0.23575 0.222818 -6.13207e-18)
(0.199407 0.21439 -2.12912e-18)
(0.173949 0.208854 -3.5052e-18)
(0.155637 0.204339 -8.2834e-18)
(0.141834 0.200062 -1.0732e-17)
(0.130883 0.195886 -1.32941e-17)
(0.121534 0.191852 -1.29815e-17)
(0.112672 0.187986 -5.27606e-18)
(0.103502 0.184263 -5.77188e-18)
(0.0934076 0.18081 -1.65174e-17)
(0.0825398 0.178511 -3.24562e-17)
(1.78334 3.02252 1.89591e-18)
(1.54269 2.39362 2.05443e-18)
(1.48895 2.03812 1.65368e-18)
(1.47595 1.80613 1.68713e-18)
(1.45711 1.64983 1.94782e-18)
(1.42807 1.55871 1.71642e-18)
(1.39592 1.53086 1.71628e-18)
(1.37102 1.56705 1.8574e-18)
(1.36417 1.66777 1.30352e-18)
(1.38476 1.8311 1.00839e-18)
(1.43979 2.05033 1.14885e-18)
(1.53182 2.31131 8.12129e-19)
(1.65821 2.59134 6.35987e-19)
(1.80976 2.86108 6.64652e-19)
(1.97078 3.09116 -1.08768e-19)
(2.12372 3.2618 -5.08761e-19)
(2.25503 3.36628 -3.11929e-19)
(2.3578 3.40707 -5.50806e-19)
(2.43005 3.38995 -5.64354e-19)
(2.47122 3.32173 -4.34566e-19)
(2.48161 3.21125 -1.32425e-19)
(2.4644 3.06893 3.03741e-19)
(2.42473 2.9033 7.47574e-19)
(2.36589 2.71999 1.1144e-18)
(2.2922 2.52624 1.35797e-18)
(2.20923 2.32629 1.86823e-18)
(2.11571 2.11946 2.4978e-18)
(2.01622 1.91192 2.68142e-18)
(1.91559 1.70371 4.37231e-18)
(1.80396 1.49008 5.25717e-18)
(1.68441 1.28258 5.00706e-18)
(1.56343 1.08746 4.44707e-18)
(1.43673 0.908003 3.07872e-18)
(1.30947 0.751342 9.92174e-19)
(1.1903 0.62098 -8.20426e-19)
(1.07789 0.514688 -2.3651e-18)
(0.977745 0.430661 -2.37605e-18)
(0.892397 0.365834 -2.55677e-18)
(0.82188 0.317112 -2.99393e-18)
(0.765264 0.281325 -4.658e-18)
(0.720871 0.255474 -5.35297e-18)
(0.686697 0.236888 -8.38317e-18)
(0.660615 0.223399 -1.09442e-17)
(0.640668 0.21344 -1.46622e-17)
(0.625221 0.205967 -1.90371e-17)
(0.612816 0.200313 -2.18677e-17)
(0.602162 0.19608 -2.0089e-17)
(0.592235 0.193062 -1.69265e-17)
(0.582169 0.191294 -2.20092e-17)
(0.570911 0.191274 -3.48415e-17)
(-0.796031 2.77814 1.8549e-18)
(-0.781329 2.25978 1.96114e-18)
(-0.649359 1.95854 1.55144e-18)
(-0.580695 1.74728 1.68704e-18)
(-0.545191 1.60588 1.67129e-18)
(-0.528591 1.52783 1.4622e-18)
(-0.516815 1.50992 1.71707e-18)
(-0.498465 1.54932 2.03286e-18)
(-0.461596 1.64436 1.36388e-18)
(-0.39609 1.79244 9.61452e-19)
(-0.292863 1.99082 1.01988e-18)
(-0.145909 2.22994 5.62631e-19)
(0.036127 2.4827 3.60519e-19)
(0.245942 2.72876 4.27993e-19)
(0.470123 2.94415 -3.97156e-19)
(0.693834 3.11223 -4.6469e-19)
(0.904972 3.22538 -5.01409e-19)
(1.09659 3.28269 -7.97645e-19)
(1.26599 3.28673 -8.10767e-19)
(1.41158 3.24276 -6.79139e-19)
(1.53176 3.15782 -3.50741e-19)
(1.62727 3.03939 1.67131e-19)
(1.70076 2.89471 7.76982e-19)
(1.75358 2.72961 1.32659e-18)
(1.78814 2.55034 1.73465e-18)
(1.80774 2.36105 2.34391e-18)
(1.81256 2.16382 2.59624e-18)
(1.80567 1.96355 2.64686e-18)
(1.78994 1.76166 3.87874e-18)
(1.76198 1.55791 4.58335e-18)
(1.72276 1.35916 4.78868e-18)
(1.67539 1.17056 4.98372e-18)
(1.61984 0.995918 4.19628e-18)
(1.55823 0.840151 2.91029e-18)
(1.49477 0.70662 2.00596e-18)
(1.43182 0.595181 9.82849e-19)
(1.37209 0.504104 3.23923e-19)
(1.31754 0.430959 -1.33706e-19)
(1.2692 0.373169 -7.26511e-19)
(1.22745 0.328096 -1.7124e-18)
(1.19213 0.293265 -2.37894e-18)
(1.16266 0.26651 -3.23899e-18)
(1.13833 0.246042 -4.56308e-18)
(1.11831 0.23046 -6.65326e-18)
(1.10174 0.218721 -1.0024e-17)
(1.08779 0.210076 -1.07809e-17)
(1.07567 0.204026 -1.12983e-17)
(1.06464 0.200309 -1.04185e-17)
(1.05399 0.198882 -1.02393e-17)
(1.04276 0.199922 -1.50758e-17)
(-3.14694 2.41773 1.36295e-18)
(-2.85452 2.07456 1.33908e-18)
(-2.65511 1.82358 1.21057e-18)
(-2.54074 1.64581 1.13738e-18)
(-2.46629 1.53165 9.05638e-19)
(-2.41071 1.47529 1.07501e-18)
(-2.35769 1.47141 1.30458e-18)
(-2.29543 1.51548 1.35841e-18)
(-2.21322 1.60469 9.00012e-19)
(-2.10204 1.73624 4.34073e-19)
(-1.95458 1.90623 3.85781e-20)
(-1.76719 2.10615 -1.85791e-19)
(-1.54338 2.31989 -2.84151e-19)
(-1.28889 2.53194 -1.8882e-19)
(-1.01361 2.72463 -5.53517e-19)
(-0.729394 2.88368 1.82512e-19)
(-0.446838 3.0001 -9.67072e-19)
(-0.169597 3.06968 -1.19746e-18)
(0.105381 3.08793 -1.04505e-18)
(0.350213 3.06029 -8.60535e-19)
(0.572869 2.99612 -5.51856e-19)
(0.772391 2.89937 6.26911e-20)
(0.950601 2.77566 7.82658e-19)
(1.10697 2.63059 1.40848e-18)
(1.24213 2.46937 1.90206e-18)
(1.35797 2.29596 2.62468e-18)
(1.45494 2.11353 2.50622e-18)
(1.53519 1.92637 2.51895e-18)
(1.60062 1.73686 3.44103e-18)
(1.65032 1.54671 4.02526e-18)
(1.68487 1.36089 4.34403e-18)
(1.70599 1.18391 4.65119e-18)
(1.71465 1.01949 4.57779e-18)
(1.71249 0.871262 4.24968e-18)
(1.70217 0.741763 3.87451e-18)
(1.68622 0.631466 3.18289e-18)
(1.66706 0.539439 2.25116e-18)
(1.64664 0.464003 1.49181e-18)
(1.6264 0.403119 7.34912e-19)
(1.6073 0.354582 1.55426e-19)
(1.58989 0.316246 -3.22297e-19)
(1.57438 0.286192 -4.10989e-19)
(1.56077 0.262777 -1.22349e-18)
(1.54893 0.244683 -2.37763e-18)
(1.53863 0.23091 -4.04637e-18)
(1.52958 0.220735 -5.03638e-18)
(1.52145 0.213694 -4.42233e-18)
(1.51387 0.209552 -2.63192e-18)
(1.50645 0.208222 -1.77365e-18)
(1.49838 0.209744 -3.22161e-18)
(-5.18245 2.05618 5.19448e-19)
(-4.77981 1.85482 4.65024e-19)
(-4.56025 1.67097 3.42254e-19)
(-4.39849 1.53248 -6.12256e-20)
(-4.27472 1.43872 -3.66415e-19)
(-4.16904 1.38927 -9.91381e-20)
(-4.06748 1.38222 -9.96648e-20)
(-3.95886 1.41572 -1.90982e-19)
(-3.83325 1.48802 -5.7597e-19)
(-3.68218 1.59656 -9.06468e-19)
(-3.49837 1.73714 -1.07442e-18)
(-3.27736 1.90248 -1.12369e-18)
(-3.01927 2.08166 -9.64641e-19)
(-2.7273 2.26214 -8.56081e-19)
(-2.40843 2.43019 -1.14936e-18)
(-2.07192 2.57364 -1.37754e-18)
(-1.7263 2.68355 -2.3964e-18)
(-1.37619 2.75434 -2.25917e-18)
(-1.02707 2.78335 -1.41822e-18)
(-0.694801 2.77451 -1.22497e-18)
(-0.379786 2.73286 -9.15254e-19)
(-0.0752323 2.65669 -3.48208e-19)
(0.211766 2.55117 6.07271e-19)
(0.461916 2.4301 1.13074e-18)
(0.687989 2.29133 1.44333e-18)
(0.89136 2.13802 2.23685e-18)
(1.07233 1.97509 2.5503e-18)
(1.23233 1.8063 2.86835e-18)
(1.37278 1.63437 3.37786e-18)
(1.49375 1.46189 3.60013e-18)
(1.59584 1.2932 3.69655e-18)
(1.68012 1.13247 3.84847e-18)
(1.74758 0.983111 4.128e-18)
(1.79963 0.847891 4.32596e-18)
(1.83841 0.728606 4.51226e-18)
(1.86638 0.625773 4.34319e-18)
(1.88595 0.538874 3.9682e-18)
(1.89928 0.466696 3.65094e-18)
(1.90814 0.407625 2.60555e-18)
(1.91396 0.359868 1.22565e-18)
(1.91778 0.321628 1.8588e-18)
(1.92037 0.291242 1.41444e-18)
(1.92223 0.267278 6.71333e-19)
(1.92372 0.248571 2.75804e-20)
(1.92507 0.234225 -9.87057e-19)
(1.92637 0.223624 -1.71951e-18)
(1.92762 0.2164 -8.73768e-19)
(1.92871 0.212362 1.07894e-19)
(1.92944 0.211449 1.3513e-18)
(1.92911 0.213724 1.42532e-18)
(-7.01618 1.70394 -3.71542e-19)
(-6.59436 1.58875 -4.88244e-19)
(-6.35177 1.46548 -6.93631e-19)
(-6.14432 1.36261 -1.47785e-18)
(-5.96948 1.28687 -1.50586e-18)
(-5.81166 1.24238 -1.10886e-18)
(-5.65943 1.23077 -1.19482e-18)
(-5.5025 1.25238 -1.28306e-18)
(-5.33163 1.30638 -1.49989e-18)
(-5.1387 1.39065 -2.24269e-18)
(-4.9168 1.50143 -2.41012e-18)
(-4.66108 1.63286 -1.95677e-18)
(-4.36958 1.7769 -1.74772e-18)
(-4.04333 1.92402 -1.51052e-18)
(-3.68646 2.0639 -1.88764e-18)
(-3.30534 2.18692 -2.94782e-18)
(-2.90667 2.28549 -3.24595e-18)
(-2.49641 2.35408 -2.43415e-18)
(-2.08212 2.38944 -1.73219e-18)
(-1.67441 2.39318 -1.45619e-18)
(-1.2775 2.36643 -1.04566e-18)
(-0.890029 2.30999 -3.63281e-19)
(-0.521145 2.23178 4.97609e-19)
(-0.183238 2.13979 1.10864e-18)
(0.154952 2.02074 1.36762e-18)
(0.433148 1.8959 1.99875e-18)
(0.688118 1.75742 2.1286e-18)
(0.918583 1.6114 3.38376e-18)
(1.12588 1.46136 4.11718e-18)
(1.31067 1.31043 3.89129e-18)
(1.47359 1.1629 3.33488e-18)
(1.61514 1.02275 3.73151e-18)
(1.73591 0.892883 3.8088e-18)
(1.83711 0.775313 3.75866e-18)
(1.92071 0.671231 4.16856e-18)
(1.98916 0.580981 4.32802e-18)
(2.04496 0.504179 4.25472e-18)
(2.09049 0.439913 4.02615e-18)
(2.12785 0.386928 3.66776e-18)
(2.1588 0.343782 2.91762e-18)
(2.18481 0.308976 2.79047e-18)
(2.20707 0.281109 2.55753e-18)
(2.22651 0.258975 1.95532e-18)
(2.24388 0.241588 1.40909e-18)
(2.25976 0.228221 2.82746e-19)
(2.27458 0.218418 9.16489e-19)
(2.28857 0.211927 1.22319e-18)
(2.3018 0.208658 1.35857e-18)
(2.31425 0.208689 2.38314e-18)
(2.3253 0.212214 2.23874e-18)
(-8.75496 1.35054 -1.11183e-18)
(-8.32014 1.28569 -1.2814e-18)
(-8.04402 1.20722 -1.49922e-18)
(-7.78988 1.13572 -2.2492e-18)
(-7.56268 1.07973 -2.22696e-18)
(-7.35102 1.04442 -1.88352e-18)
(-7.14564 1.03262 -1.92696e-18)
(-6.93747 1.04563 -1.96557e-18)
(-6.71793 1.08342 -2.13647e-18)
(-6.47922 1.14468 -2.91692e-18)
(-6.21468 1.22668 -3.17932e-18)
(-5.91923 1.32501 -2.72595e-18)
(-5.58996 1.43376 -2.57389e-18)
(-5.22644 1.54589 -2.57143e-18)
(-4.83085 1.65384 -2.64896e-18)
(-4.4075 1.75059 -3.34561e-18)
(-3.96206 1.83033 -3.64953e-18)
(-3.50106 1.88877 -2.84123e-18)
(-3.032 1.92324 -2.07847e-18)
(-2.56291 1.93289 -1.58073e-18)
(-2.0994 1.91722 -7.47732e-19)
(-1.64358 1.87717 -2.82194e-19)
(-1.20264 1.8188 1.83363e-19)
(-0.784947 1.74941 2.86197e-19)
(-0.386028 1.67018 -4.7076e-20)
(-0.0112479 1.579 1.80534e-18)
(0.32003 1.46943 1.94955e-18)
(0.610018 1.35126 5.4594e-18)
(0.874524 1.22609 5.00719e-18)
(1.11471 1.09927 4.33956e-18)
(1.33114 0.975769 3.54074e-18)
(1.52351 0.859511 3.93446e-18)
(1.69168 0.752669 3.85164e-18)
(1.83658 0.656287 3.63466e-18)
(1.96019 0.570861 3.96897e-18)
(2.06508 0.496479 4.17037e-18)
(2.15396 0.432855 4.39756e-18)
(2.22942 0.379366 4.73586e-18)
(2.29378 0.335091 4.51176e-18)
(2.34906 0.298897 3.67475e-18)
(2.39702 0.26959 3.37798e-18)
(2.43919 0.246035 3.07071e-18)
(2.47684 0.22724 2.55818e-18)
(2.51104 0.212421 2.81981e-18)
(2.5427 0.201039 1.59982e-18)
(2.57249 0.19279 8.51961e-19)
(2.60086 0.187563 7.33589e-19)
(2.6281 0.185455 2.52855e-18)
(2.65433 0.186784 3.34004e-18)
(2.67897 0.192017 3.53291e-18)
(-10.4042 1.00837 -1.7309e-18)
(-9.93746 0.974842 -1.80557e-18)
(-9.62013 0.92878 -1.89932e-18)
(-9.31662 0.883644 -2.35755e-18)
(-9.03517 0.846557 -2.40642e-18)
(-8.76759 0.821957 -2.04613e-18)
(-8.50642 0.812534 -1.98658e-18)
(-8.24377 0.819754 -2.01335e-18)
(-7.97191 0.843993 -2.32651e-18)
(-7.68362 0.884574 -3.05966e-18)
(-7.37258 0.939693 -3.21322e-18)
(-7.03377 1.00632 -2.72595e-18)
(-6.66381 1.08035 -2.49929e-18)
(-6.26139 1.15695 -2.38919e-18)
(-5.82734 1.23109 -2.25692e-18)
(-5.36457 1.29814 -2.60738e-18)
(-4.87781 1.35416 -2.78282e-18)
(-4.37321 1.39617 -2.28993e-18)
(-3.85786 1.42214 -1.63005e-18)
(-3.33919 1.43079 -9.27139e-19)
(-2.82353 1.42118 -8.39829e-19)
(-2.31458 1.39309 -6.2946e-19)
(-1.81605 1.34863 -3.49697e-19)
(-1.33371 1.29385 -1.96261e-19)
(-0.876079 1.2382 -6.23528e-20)
(-0.453676 1.18631 1.24779e-18)
(-0.0415544 1.12286 2.15903e-18)
(0.317967 1.03743 8.55376e-18)
(0.627232 0.940884 5.83517e-18)
(0.913406 0.840393 4.95628e-18)
(1.17572 0.744301 4.05406e-18)
(1.41211 0.656493 3.64744e-18)
(1.62114 0.57757 4.04778e-18)
(1.80346 0.507029 4.43935e-18)
(1.96138 0.444451 4.6648e-18)
(2.09788 0.389668 5.15372e-18)
(2.21598 0.342546 5.59708e-18)
(2.31841 0.302765 6.00235e-18)
(2.4076 0.269735 6.31616e-18)
(2.4857 0.242676 6.0791e-18)
(2.55467 0.220741 6.01512e-18)
(2.61624 0.203083 5.90852e-18)
(2.67193 0.188947 5.50405e-18)
(2.72309 0.177768 4.76458e-18)
(2.77086 0.169175 3.46771e-18)
(2.81615 0.162991 2.96867e-18)
(2.85966 0.159261 2.72783e-18)
(2.90191 0.158278 2.28772e-18)
(2.94325 0.160596 2.29629e-18)
(2.98334 0.167048 3.12845e-18)
(-11.8619 0.608295 -1.49953e-18)
(-11.3601 0.591075 -1.50673e-18)
(-11.0022 0.566229 -1.56198e-18)
(-10.6524 0.54067 -2.14907e-18)
(-10.3208 0.518808 -2.22203e-18)
(-10.0015 0.503557 -1.6977e-18)
(-9.68843 0.496818 -1.75142e-18)
(-9.37475 0.499705 -1.86947e-18)
(-9.05353 0.512619 -2.04649e-18)
(-8.71817 0.535264 -2.49317e-18)
(-8.36281 0.566585 -2.51359e-18)
(-7.98263 0.604751 -2.0383e-18)
(-7.57409 0.647309 -1.87192e-18)
(-7.13525 0.691461 -1.76489e-18)
(-6.66604 0.734416 -1.7623e-18)
(-6.16844 0.773657 -2.28395e-18)
(-5.64643 0.80708 -2.35519e-18)
(-5.10565 0.833011 -1.74231e-18)
(-4.55291 0.850237 -1.40304e-18)
(-3.99576 0.857754 -1.26673e-18)
(-3.44139 0.854175 -1.19375e-18)
(-2.8944 0.837325 -9.96307e-19)
(-2.35565 0.805757 -7.46562e-19)
(-1.82661 0.764073 -4.57624e-19)
(-1.31906 0.726054 1.6632e-19)
(-0.849898 0.702621 1.26041e-18)