/*--------------------------------*- C++ -*----------------------------------*\
  =========                 |
  \\      /  F ield         | OpenFOAM: The Open Source CFD Toolbox
   \\    /   O peration     | Website:  https://openfoam.org
    \\  /    A nd           | Version:  8
     \\/     M anipulation  |
\*---------------------------------------------------------------------------*/
FoamFile
{
    version     2.0;
    format      ascii;
    class       volScalarField;
    location    "700";
    object      epsilon;
}
// * * * * * * * * * * * * * * * * * * * * * * * * * * * * * * * * * * * * * //

dimensions      [0 2 -3 0 0 0 0];

internalField   nonuniform List<scalar> 
8400
(
0.0147921
0.0141397
0.0134843
0.0128173
0.012148
0.0114818
0.0108242
0.010195
0.00964482
0.00925556
0.00912669
0.00931846
0.00970108
0.0100174
0.0100217
0.00975544
0.00932423
0.00885133
0.0084469
0.00816741
0.00798397
0.007852
0.00778184
0.00777845
0.00781429
0.00786281
0.00790012
0.00790872
0.00787851
0.00780691
0.00769746
0.00755738
0.00739493
0.0072227
0.00705369
0.00688714
0.00672254
0.00655987
0.00640326
0.00626427
0.0061441
0.00604321
0.0059614
0.00589793
0.00585169
0.00582142
0.00580591
0.00580416
0.00581559
0.00584089
0.0113632
0.0112772
0.0111869
0.0110522
0.0108295
0.0104686
0.00989245
0.00903173
0.00786025
0.00641563
0.00486826
0.00369768
0.00283122
0.00240412
0.00222684
0.00212648
0.00205187
0.00200021
0.00194682
0.00187659
0.00180065
0.001729
0.00164413
0.00154337
0.00144208
0.00134738
0.00126349
0.00119195
0.00113206
0.0010824
0.00104132
0.00100702
0.000978161
0.000951039
0.000921452
0.000892786
0.00086804
0.000849485
0.000836347
0.000821664
0.000805294
0.000787363
0.000768217
0.000748331
0.000728274
0.000708661
0.000690063
0.000672929
0.000657563
0.000644137
0.013058
0.0129045
0.0127364
0.0125431
0.0124552
0.0124753
0.0125064
0.0125054
0.0124456
0.0117168
0.00821406
0.00679357
0.00498415
0.00402089
0.0032574
0.00291106
0.00282938
0.00288975
0.00289263
0.00282316
0.00276122
0.00271727
0.00261653
0.00245679
0.00228948
0.00212476
0.00197769
0.00185468
0.00175701
0.00168225
0.00162637
0.00158514
0.00155468
0.00152688
0.00150094
0.00147609
0.00145185
0.00142775
0.0014037
0.00137374
0.00133619
0.00129093
0.00123853
0.00118018
0.00111755
0.00105252
0.000986967
0.000922649
0.000861014
0.000803029
0.0131273
0.013078
0.0130271
0.0129869
0.0129549
0.0129265
0.012898
0.0128671
0.0128298
0.0127846
0.0127304
0.0125669
0.0122708
0.0116681
0.010875
0.00996356
0.00915228
0.00726175
0.00446696
0.00398082
0.00402276
0.0040535
0.00395152
0.00380598
0.00363789
0.00344546
0.00326533
0.00311276
0.00299302
0.00290542
0.00284561
0.00280835
0.00278202
0.00276132
0.00274428
0.0027281
0.0027103
0.0026887
0.00266141
0.00262412
0.00256985
0.00249759
0.00240757
0.00230107
0.00218027
0.00204812
0.00190798
0.00176342
0.00161789
0.00147442
0.0131527
0.0131336
0.0131144
0.0130949
0.0130748
0.0130542
0.0130325
0.0130101
0.0129869
0.0129617
0.0129305
0.0128871
0.0128183
0.0126877
0.0124589
0.012093
0.0115837
0.0108239
0.00958979
0.00866517
0.0080929
0.00512853
0.00481172
0.00487006
0.00477974
0.00465492
0.00452354
0.00440888
0.00432374
0.00426922
0.00424205
0.00423689
0.00423944
0.00425257
0.0042706
0.0042886
0.0043018
0.00430541
0.00429514
0.00427151
0.00422674
0.00415868
0.00406628
0.00394955
0.00380923
0.00364668
0.00346407
0.00326425
0.00305095
0.00282836
0.0131503
0.0131289
0.0131072
0.0130851
0.0130626
0.0130397
0.0130159
0.0129912
0.0129659
0.0129401
0.0129134
0.0128847
0.0128502
0.0127994
0.0127139
0.0125646
0.0123181
0.0119215
0.0112893
0.0105406
0.00977055
0.00851171
0.00795385
0.00558018
0.00539539
0.00539463
0.00535306
0.00531298
0.00529039
0.0052882
0.00530542
0.00533087
0.00536889
0.00541646
0.00546739
0.00551601
0.00555716
0.00558606
0.00559807
0.00559567
0.00557814
0.00554392
0.00549131
0.00541864
0.00532421
0.00520651
0.00506469
0.00489834
0.00470812
0.00449604
0.0131463
0.0131203
0.0130941
0.0130675
0.0130402
0.0130122
0.012984
0.0129552
0.0129264
0.0128982
0.0128707
0.0128436
0.0128161
0.0127844
0.0127403
0.012668
0.0125429
0.0123285
0.0119706
0.0114611
0.0108212
0.00995497
0.00916135
0.00803564
0.00685869
0.00569548
0.00572918
0.00575594
0.00578591
0.00582198
0.00586409
0.00590984
0.00596294
0.00601868
0.00607288
0.00612188
0.00616269
0.00619309
0.00621146
0.00621927
0.00622385
0.00622497
0.00622071
0.0062082
0.00618413
0.00614503
0.00608765
0.00600921
0.0059078
0.00578286
0.0131416
0.0131103
0.0130784
0.0130464
0.0130138
0.0129802
0.0129467
0.0129129
0.0128794
0.0128473
0.0128168
0.0127884
0.0127621
0.012736
0.0127063
0.0126645
0.0125948
0.0124715
0.0122563
0.0119169
0.0114386
0.0107834
0.0100397
0.00914441
0.00818406
0.00727036
0.00585438
0.00587882
0.00594136
0.00600005
0.00605124
0.00610075
0.00614605
0.00618453
0.00621469
0.00623638
0.00625073
0.00625993
0.00626729
0.00627534
0.00629303
0.00632199
0.00635933
0.00640001
0.0064386
0.00646995
0.0064895
0.00649364
0.00647966
0.00644619
0.013134
0.0130944
0.0130543
0.0130138
0.0129723
0.0129314
0.0128904
0.0128502
0.0128117
0.0127759
0.0127433
0.0127143
0.0126892
0.0126669
0.012645
0.0126185
0.0125769
0.0125021
0.0123661
0.012136
0.0117843
0.0112801
0.010645
0.00987503
0.00902098
0.00817107
0.00723756
0.00587645
0.00589838
0.00597599
0.00603493
0.00607402
0.00609445
0.00609698
0.00608346
0.00605805
0.00602712
0.00599851
0.00598179
0.0059865
0.00601791
0.00607779
0.00615808
0.00624974
0.00634486
0.0064369
0.00652042
0.00659126
0.00664618
0.00668332
0.0131216
0.0130666
0.0130128
0.0129596
0.0129056
0.0128535
0.0128023
0.0127537
0.0127093
0.0126703
0.0126379
0.0126124
0.0125924
0.0125766
0.0125632
0.0125484
0.0125246
0.0124787
0.0123897
0.0122291
0.0119673
0.0115735
0.0110429
0.010377
0.00961109
0.00880644
0.007972
0.0070257
0.00585703
0.00587178
0.00593512
0.00595865
0.00594623
0.00590153
0.0058284
0.00573377
0.00563175
0.00554236
0.00548845
0.00549217
0.00555313
0.00566132
0.00579624
0.00594359
0.00609416
0.00624148
0.00638047
0.00650729
0.00661847
0.00671054
0.0130956
0.0130087
0.0129261
0.012847
0.0127738
0.0127044
0.0126405
0.0125862
0.0125418
0.012508
0.012486
0.0124738
0.0124675
0.0124652
0.0124645
0.0124624
0.012453
0.0124268
0.0123678
0.0122524
0.0120522
0.0117375
0.011293
0.0107159
0.0100302
0.00928281
0.00850253
0.00767558
0.00678949
0.00603261
0.00581561
0.00584162
0.00581275
0.00573406
0.00560684
0.00543233
0.00522292
0.00501576
0.00488266
0.00491233
0.00505083
0.00523464
0.00543318
0.00563396
0.0058319
0.00602343
0.00620517
0.0063751
0.00653075
0.00666794
0.0130199
0.0128472
0.0127147
0.0125964
0.0125009
0.0124163
0.0123595
0.0123248
0.0123042
0.0123006
0.0123086
0.0123202
0.0123329
0.0123475
0.0123609
0.0123708
0.0123733
0.0123613
0.0123219
0.0122352
0.0120759
0.0118168
0.0114385
0.0109344
0.0103209
0.00963518
0.00891166
0.0081648
0.00740698
0.0067177
0.0062102
0.00588527
0.00573451
0.00564838
0.00553522
0.00537533
0.00517382
0.00494582
0.00467459
0.00464797
0.00482125
0.0050453
0.00527149
0.00549141
0.005706
0.0059149
0.00611548
0.00630653
0.00648658
0.00665424
0.0125677
0.012373
0.0122493
0.0121446
0.0120708
0.0120281
0.0120225
0.0120386
0.0120657
0.0121013
0.0121392
0.0121743
0.0122065
0.0122368
0.0122623
0.0122827
0.0122937
0.0122906
0.0122625
0.0121932
0.0120601
0.0118381
0.011508
0.0110618
0.0105113
0.00988768
0.0092254
0.00855091
0.00788811
0.00728129
0.00677341
0.00636616
0.00606565
0.00585691
0.00570014
0.00556099
0.00542569
0.0053045
0.00522746
0.00521705
0.00526173
0.00535294
0.0054818
0.00563877
0.00581393
0.00599882
0.00618655
0.00637231
0.00655299
0.00672632
0.0117882
0.0116952
0.0116506
0.0116385
0.0116542
0.011691
0.0117438
0.0118045
0.0118677
0.0119298
0.0119877
0.0120394
0.0120862
0.0121279
0.0121632
0.0121908
0.0122086
0.0122127
0.012194
0.0121349
0.0120146
0.0118157
0.0115194
0.0111181
0.0106221
0.0100586
0.00946087
0.00885864
0.00827918
0.00775287
0.00730067
0.00692217
0.00661151
0.00636055
0.00615903
0.00599711
0.00586875
0.00577478
0.00571844
0.00569942
0.00570999
0.00574973
0.00581828
0.00591412
0.00603363
0.00617184
0.00632334
0.00648293
0.00664666
0.00681155
0.0113048
0.0113251
0.0113626
0.0114131
0.0114716
0.0115361
0.0116036
0.0116717
0.0117392
0.0118042
0.0118654
0.0119223
0.0119748
0.012021
0.0120602
0.0120917
0.0121132
0.0121198
0.0121039
0.0120516
0.0119457
0.0117646
0.0114818
0.0111152
0.0106672
0.0101621
0.00963116
0.00910339
0.0086037
0.00815346
0.00776386
0.00743317
0.00715392
0.00691783
0.00671843
0.00655198
0.00641746
0.00631506
0.00624454
0.00620015
0.00617924
0.0061826
0.00621058
0.00626275
0.00633757
0.00643253
0.00654481
0.0066715
0.00680999
0.00695796
0.0112381
0.0112851
0.0113353
0.0113872
0.0114404
0.0114951
0.0115505
0.0116066
0.0116632
0.0117191
0.0117728
0.0118238
0.0118715
0.0119147
0.0119517
0.0119808
0.0119996
0.0120032
0.0119846
0.0119326
0.0118336
0.0116711
0.0114235
0.0110628
0.0106557
0.0102084
0.0097468
0.00929605
0.00887548
0.0084984
0.00817013
0.00788816
0.00764611
0.00743713
0.00725599
0.00709984
0.00696798
0.00686053
0.00677739
0.00671417
0.00667024
0.00664664
0.00664396
0.00666237
0.00670162
0.00676123
0.0068406
0.00693907
0.00705573
0.00718912
0.0112514
0.0112912
0.011332
0.0113731
0.011415
0.0114576
0.0115008
0.0115446
0.0115884
0.0116319
0.0116746
0.0117158
0.0117541
0.0117884
0.0118171
0.0118381
0.0118487
0.0118444
0.0118192
0.0117643
0.0116693
0.011522
0.0113063
0.0109968
0.0105965
0.0102057
0.00981633
0.00944468
0.00910257
0.00879633
0.00852727
0.00829265
0.00808773
0.00790749
0.00774799
0.007607
0.00748387
0.00737871
0.00729181
0.00721993
0.00716312
0.00712255
0.00709942
0.00709508
0.00711115
0.00714939
0.00721143
0.00729828
0.00741001
0.00754521
0.0111651
0.0111972
0.0112301
0.0112639
0.0112986
0.0113337
0.0113692
0.011405
0.0114406
0.0114754
0.0115087
0.0115402
0.0115687
0.0115929
0.0116114
0.0116223
0.011623
0.01161
0.0115783
0.011522
0.0114337
0.0113053
0.0111265
0.0108808
0.0105114
0.0101619
0.00984666
0.00955458
0.00928845
0.00904935
0.00883632
0.00864704
0.00847846
0.00832727
0.00819077
0.0080675
0.00795705
0.00785965
0.0077757
0.00770279
0.00764234
0.00759711
0.00757057
0.00756663
0.00758931
0.00764205
0.00772726
0.00784571
0.00799614
0.00817476
0.0109097
0.0109332
0.010958
0.0109845
0.0110125
0.0110416
0.0110714
0.0111014
0.0111308
0.0111594
0.0111866
0.0112112
0.0112327
0.0112496
0.0112611
0.0112656
0.011261
0.0112449
0.0112142
0.0111651
0.0110936
0.0109952
0.0108638
0.0106875
0.0103979
0.0100818
0.00984248
0.00962753
0.00943233
0.00925522
0.00909445
0.00894825
0.00881482
0.0086925
0.00857994
0.00847636
0.00838161
0.00829594
0.00822477
0.00818176
0.00817027
0.00819407
0.00825641
0.00835967
0.00850513
0.00869251
0.00891989
0.00918355
0.00947725
0.00979058
0.0227346
0.021926
0.0211298
0.020348
0.0195861
0.0188497
0.0181439
0.017473
0.0168395
0.0162447
0.0156889
0.0151706
0.0146884
0.0142397
0.0138216
0.0134312
0.0130652
0.0127202
0.0123925
0.0120787
0.0117753
0.0114794
0.0111892
0.0109001
0.0105547
0.0104067
0.0103936
0.0104475
0.0105474
0.0106808
0.0108396
0.01102
0.0112213
0.0114431
0.0116856
0.0119494
0.0122368
0.0125519
0.0128938
0.0132493
0.0136198
0.0140065
0.0144108
0.0148337
0.015276
0.0157388
0.0162223
0.0167268
0.0172523
0.0177983
9.32834e-06
9.21512e-06
9.13734e-06
9.04268e-06
8.91903e-06
8.78697e-06
8.66504e-06
8.55732e-06
8.45934e-06
8.36596e-06
8.27436e-06
8.18326e-06
8.09168e-06
7.99868e-06
7.9035e-06
7.80586e-06
7.70601e-06
7.60462e-06
7.50264e-06
7.4011e-06
7.30065e-06
7.17264e-06
7.05148e-06
6.93667e-06
6.82792e-06
6.72434e-06
6.62509e-06
6.52953e-06
6.43719e-06
6.34772e-06
6.26083e-06
6.17627e-06
6.09386e-06
6.01362e-06
5.93581e-06
5.86086e-06
5.78931e-06
5.72166e-06
5.65828e-06
5.59938e-06
5.54441e-06
5.49321e-06
5.44537e-06
5.40018e-06
5.35642e-06
5.31223e-06
5.26562e-06
5.21495e-06
5.15936e-06
5.11026e-06
8.9566e-06
8.26627e-06
7.66386e-06
7.16171e-06
6.73203e-06
6.34997e-06
6.00364e-06
5.68869e-06
5.40224e-06
5.14032e-06
4.89846e-06
4.67267e-06
4.45995e-06
4.2582e-06
4.06604e-06
3.88271e-06
3.70792e-06
3.54177e-06
3.38453e-06
3.23658e-06
3.09913e-06
3.10206e-06
3.10153e-06
3.09866e-06
3.09394e-06
3.08845e-06
7.31289e-07
7.3056e-07
7.29896e-07
7.29182e-07
7.28277e-07
7.27058e-07
7.25458e-07
7.23475e-07
7.21168e-07
7.18646e-07
7.16059e-07
7.13579e-07
7.11354e-07
7.09506e-07
7.08153e-07
7.07263e-07
7.06725e-07
7.06388e-07
7.0607e-07
7.05433e-07
7.03641e-07
6.99075e-07
6.90411e-07
6.74885e-07
8.99486e-06
8.37016e-06
7.78088e-06
7.25056e-06
6.78147e-06
6.36442e-06
5.98911e-06
5.64822e-06
5.33669e-06
5.05028e-06
4.78509e-06
4.53766e-06
4.30523e-06
4.08577e-06
3.87791e-06
3.68079e-06
3.49398e-06
3.31729e-06
3.15087e-06
7.31052e-07
7.22476e-07
7.15557e-07
7.09555e-07
7.04148e-07
6.99169e-07
6.94521e-07
6.90134e-07
6.85935e-07
6.81841e-07
6.77763e-07
6.73621e-07
6.69349e-07
6.64918e-07
6.60332e-07
6.5564e-07
6.50928e-07
6.46304e-07
6.41886e-07
6.37798e-07
6.34121e-07
6.30901e-07
6.2812e-07
6.25696e-07
6.23514e-07
6.21555e-07
6.20043e-07
6.19347e-07
6.19196e-07
6.1681e-07
6.0497e-07
8.97733e-06
8.37124e-06
7.80762e-06
7.29019e-06
6.82235e-06
6.40185e-06
6.02281e-06
5.67881e-06
5.36435e-06
5.07492e-06
4.80663e-06
4.5562e-06
4.32095e-06
4.0989e-06
3.88865e-06
3.68938e-06
3.50063e-06
3.3222e-06
3.15421e-06
3.09932e-06
7.25417e-07
7.17501e-07
7.1025e-07
7.03665e-07
6.97674e-07
6.92171e-07
6.87035e-07
6.82137e-07
6.77352e-07
6.72568e-07
6.67692e-07
6.62664e-07
6.57459e-07
6.52093e-07
6.46618e-07
6.41121e-07
6.35708e-07
6.3049e-07
6.2557e-07
6.21033e-07
6.16933e-07
6.13282e-07
6.10002e-07
6.06877e-07
6.03554e-07
5.99815e-07
5.96154e-07
5.94009e-07
5.93936e-07
5.89081e-07
8.96554e-06
8.35122e-06
7.79154e-06
7.28107e-06
6.81738e-06
6.39812e-06
6.01912e-06
5.67507e-06
5.36072e-06
5.0714e-06
4.80314e-06
4.55267e-06
4.31737e-06
4.09528e-06
3.88507e-06
3.68589e-06
3.49732e-06
3.31916e-06
3.15096e-06
7.22752e-07
7.19466e-07
7.14907e-07
7.097e-07
7.04255e-07
6.98815e-07
6.93498e-07
6.8833e-07
6.83276e-07
6.78268e-07
6.73229e-07
6.68086e-07
6.62793e-07
6.57331e-07
6.5172e-07
6.46017e-07
6.40306e-07
6.34691e-07
6.29281e-07
6.24172e-07
6.19437e-07
6.15122e-07
6.11259e-07
6.07877e-07
6.04943e-07
6.02188e-07
5.98952e-07
5.9457e-07
5.89757e-07
5.87145e-07
5.83533e-07
8.966e-06
8.345e-06
7.78226e-06
7.27356e-06
6.81329e-06
6.39695e-06
6.01994e-06
5.67729e-06
5.36401e-06
5.07548e-06
4.80773e-06
4.55751e-06
4.32227e-06
4.10013e-06
3.8898e-06
3.6905e-06
3.50183e-06
3.32363e-06
3.15602e-06
3.10162e-06
7.25766e-07
7.17895e-07
7.10729e-07
7.0425e-07
6.98364e-07
6.92947e-07
6.87859e-07
6.82958e-07
6.7811e-07
6.73205e-07
6.68156e-07
6.62915e-07
6.57469e-07
6.51847e-07
6.46115e-07
6.40364e-07
6.34703e-07
6.29246e-07
6.24096e-07
6.19324e-07
6.14947e-07
6.10938e-07
6.07268e-07
6.0399e-07
6.01205e-07
5.98704e-07
5.95554e-07
5.90959e-07
5.86894e-07
5.82828e-07
8.96964e-06
8.34776e-06
7.78219e-06
7.27187e-06
6.81151e-06
6.39561e-06
6.01894e-06
5.67639e-06
5.36303e-06
5.07432e-06
4.80633e-06
4.55583e-06
4.32028e-06
4.09785e-06
3.8873e-06
3.68788e-06
3.49921e-06
3.32114e-06
3.15376e-06
3.09969e-06
7.25614e-07
7.17808e-07
7.10659e-07
7.04177e-07
6.98284e-07
6.92858e-07
6.87755e-07
6.82832e-07
6.77955e-07
6.73012e-07
6.6792e-07
6.62633e-07
6.57146e-07
6.51491e-07
6.45734e-07
6.39967e-07
6.34296e-07
6.28832e-07
6.23679e-07
6.18928e-07
6.14622e-07
6.10723e-07
6.07102e-07
6.03626e-07
6.00356e-07
5.97509e-07
5.94804e-07
5.91074e-07
5.86928e-07
5.8261e-07
8.97112e-06
8.35077e-06
7.78494e-06
7.27369e-06
6.81273e-06
6.39672e-06
6.02013e-06
5.67765e-06
5.36426e-06
5.07543e-06
4.80727e-06
4.55655e-06
4.32078e-06
4.09815e-06
3.88746e-06
3.688e-06
3.49941e-06
3.32151e-06
3.15381e-06
7.22922e-07
7.19458e-07
7.14702e-07
7.09343e-07
7.03815e-07
6.98347e-07
6.93027e-07
6.87851e-07
6.82763e-07
6.77686e-07
6.72542e-07
6.67269e-07
6.61835e-07
6.56239e-07
6.50514e-07
6.44723e-07
6.38955e-07
6.33306e-07
6.27873e-07
6.22742e-07
6.1799e-07
6.13684e-07
6.09853e-07
6.06421e-07
6.03168e-07
5.99888e-07
5.96692e-07
5.93781e-07
5.90437e-07
5.86557e-07
5.82284e-07
8.97066e-06
8.35118e-06
7.78606e-06
7.27493e-06
6.81379e-06
6.39762e-06
6.0209e-06
5.67825e-06
5.3646e-06
5.07543e-06
4.80684e-06
4.55567e-06
4.31947e-06
4.09648e-06
3.88554e-06
3.68597e-06
3.49741e-06
3.3197e-06
3.15231e-06
7.22747e-07
7.19234e-07
7.14514e-07
7.09231e-07
7.03777e-07
6.98359e-07
6.93054e-07
6.87857e-07
6.82719e-07
6.77572e-07
6.72346e-07
6.66993e-07
6.61485e-07
6.55829e-07
6.5006e-07
6.44243e-07
6.38462e-07
6.32814e-07
6.27393e-07
6.22276e-07
6.17513e-07
6.1314e-07
6.09197e-07
6.05699e-07
6.02535e-07
5.99425e-07
5.96203e-07
5.93074e-07
5.89767e-07
5.86061e-07
5.81926e-07
8.96993e-06
8.35036e-06
7.78571e-06
7.27504e-06
6.81416e-06
6.39809e-06
6.02141e-06
5.67869e-06
5.36487e-06
5.07542e-06
4.80648e-06
4.55492e-06
4.31836e-06
4.0951e-06
3.88401e-06
3.68443e-06
3.49601e-06
3.31857e-06
3.15218e-06
3.09909e-06
7.25575e-07
7.17883e-07
7.10831e-07
7.04378e-07
6.9842e-07
6.92833e-07
6.87491e-07
6.82274e-07
6.77077e-07
6.71818e-07
6.66441e-07
6.60922e-07
6.55266e-07
6.49509e-07
6.43713e-07
6.37956e-07
6.32329e-07
6.26928e-07
6.21835e-07
6.171e-07
6.12734e-07
6.0873e-07
6.05102e-07
6.01841e-07
5.98785e-07
5.95663e-07
5.92485e-07
5.89172e-07
5.85559e-07
5.81565e-07
8.9697e-06
8.34976e-06
7.78518e-06
7.27482e-06
6.81426e-06
6.39838e-06
6.02174e-06
5.67893e-06
5.36488e-06
5.07509e-06
4.80574e-06
4.55377e-06
4.31683e-06
4.09329e-06
3.88205e-06
3.68249e-06
3.49425e-06
3.31713e-06
3.15115e-06
3.09854e-06
7.25678e-07
7.1809e-07
7.11084e-07
7.0464e-07
6.98667e-07
6.93045e-07
6.87652e-07
6.82369e-07
6.77099e-07
6.71764e-07
6.66317e-07
6.60738e-07
6.5504e-07
6.49259e-07
6.43456e-07
6.37704e-07
6.32083e-07
6.26676e-07
6.21564e-07
6.16812e-07
6.12442e-07
6.08424e-07
6.04721e-07
6.01332e-07
5.98201e-07
5.95113e-07
5.91955e-07
5.8866e-07
5.85118e-07
5.81241e-07
8.96979e-06
8.34972e-06
7.78513e-06
7.27495e-06
6.8146e-06
6.39886e-06
6.0222e-06
5.67922e-06
5.36486e-06
5.07465e-06
4.80482e-06
4.55236e-06
4.31501e-06
4.09117e-06
3.87979e-06
3.68026e-06
3.4922e-06
3.31541e-06
3.14926e-06
7.22485e-07
7.19183e-07
7.1466e-07
7.09546e-07
7.04202e-07
6.98817e-07
6.93463e-07
6.8814e-07
6.82812e-07
6.77432e-07
6.7196e-07
6.6637e-07
6.60662e-07
6.54855e-07
6.48993e-07
6.43135e-07
6.37353e-07
6.31718e-07
6.26298e-07
6.21157e-07
6.16354e-07
6.1193e-07
6.07877e-07
6.04136e-07
6.00664e-07
5.97438e-07
5.94324e-07
5.91192e-07
5.87938e-07
5.8448e-07
5.80729e-07
8.96989e-06
8.34992e-06
7.78546e-06
7.27545e-06
6.81525e-06
6.39959e-06
6.02289e-06
5.67972e-06
5.36504e-06
5.07442e-06
4.80415e-06
4.55128e-06
4.3136e-06
4.08956e-06
3.87815e-06
3.67875e-06
3.49097e-06
3.31456e-06
3.14947e-06
7.30819e-07
7.22229e-07
7.15124e-07
7.0888e-07
7.03164e-07
6.97772e-07
6.92559e-07
6.87412e-07
6.82244e-07
6.76991e-07
6.71613e-07
6.66093e-07
6.60439e-07
6.54682e-07
6.48866e-07
6.43052e-07
6.37309e-07
6.31706e-07
6.26306e-07
6.21161e-07
6.16318e-07
6.11815e-07
6.0767e-07
6.03848e-07
6.00288e-07
5.96953e-07
5.93759e-07
5.906e-07
5.87362e-07
5.83956e-07
5.80304e-07
8.96994e-06
8.35015e-06
7.7859e-06
7.27606e-06
6.81592e-06
6.40018e-06
6.02324e-06
5.67966e-06
5.36443e-06
5.07317e-06
4.80225e-06
4.54878e-06
4.31063e-06
4.08628e-06
3.87475e-06
3.67539e-06
3.48781e-06
3.31172e-06
3.14701e-06
3.09636e-06
7.25408e-07
7.17961e-07
7.11142e-07
7.04886e-07
6.99058e-07
6.93513e-07
6.88118e-07
6.82764e-07
6.77371e-07
6.7189e-07
6.66301e-07
6.60611e-07
6.54847e-07
6.49049e-07
6.43267e-07
6.37558e-07
6.31983e-07
6.26597e-07
6.21448e-07
6.16572e-07
6.11996e-07
6.07745e-07
6.0381e-07
6.00144e-07
5.96699e-07
5.93412e-07
5.90195e-07
5.86954e-07
5.83588e-07
5.80013e-07
8.96997e-06
8.35038e-06
7.78639e-06
7.27682e-06
6.81692e-06
6.40132e-06
6.0244e-06
5.68071e-06
5.36523e-06
5.07365e-06
4.80238e-06
4.54861e-06
4.31024e-06
4.0858e-06
3.8743e-06
3.67511e-06
3.4878e-06
3.31203e-06
3.14768e-06
3.09756e-06
7.2569e-07
7.18298e-07
7.11499e-07
7.05235e-07
6.99378e-07
6.93788e-07
6.88338e-07
6.82923e-07
6.77472e-07
6.71942e-07
6.66318e-07
6.60612e-07
6.54852e-07
6.49075e-07
6.43327e-07
6.37653e-07
6.32102e-07
6.26726e-07
6.21567e-07
6.16659e-07
6.12027e-07
6.07689e-07
6.03655e-07
5.99895e-07
5.96367e-07
5.9302e-07
5.89774e-07
5.86548e-07
5.83252e-07
5.79789e-07
8.97002e-06
8.35039e-06
7.7862e-06
7.27623e-06
6.81577e-06
6.39944e-06
6.02166e-06
5.67704e-06
5.36063e-06
5.06816e-06
4.79611e-06
4.54172e-06
4.30294e-06
4.0783e-06
3.86682e-06
3.66782e-06
3.48085e-06
3.30553e-06
3.1417e-06
3.09215e-06
7.24921e-07
7.17607e-07
7.10872e-07
7.04655e-07
6.98828e-07
6.93253e-07
6.87803e-07
6.82382e-07
6.76922e-07
6.7139e-07
6.65778e-07
6.60098e-07
6.5438e-07
6.4866e-07
6.42977e-07
6.37372e-07
6.31883e-07
6.26553e-07
6.21424e-07
6.16532e-07
6.11904e-07
6.07557e-07
6.03504e-07
5.99736e-07
5.96224e-07
5.92921e-07
5.8977e-07
5.86687e-07
5.8359e-07
5.80393e-07
8.97013e-06
8.35072e-06
7.78716e-06
7.27812e-06
6.81857e-06
6.40292e-06
6.02552e-06
5.68096e-06
5.36435e-06
5.0715e-06
4.79898e-06
4.54413e-06
4.30494e-06
4.07999e-06
3.86829e-06
3.66919e-06
3.48219e-06
3.3069e-06
3.14311e-06
3.09359e-06
7.25154e-07
7.17839e-07
7.111e-07
7.04872e-07
6.99029e-07
6.93436e-07
6.87975e-07
6.82555e-07
6.77113e-07
6.71623e-07
6.66084e-07
6.60507e-07
6.54917e-07
6.49341e-07
6.43815e-07
6.38373e-07
6.33052e-07
6.27888e-07
6.22923e-07
6.18197e-07
6.13747e-07
6.09597e-07
6.05765e-07
6.02257e-07
5.99061e-07
5.96137e-07
5.93443e-07
5.90914e-07
5.8847e-07
5.86038e-07
8.97024e-06
8.3469e-06
7.77909e-06
7.26645e-06
6.80403e-06
6.38633e-06
6.00758e-06
5.66226e-06
5.34539e-06
5.0527e-06
4.78074e-06
4.52678e-06
4.28878e-06
4.06527e-06
3.85521e-06
3.65789e-06
3.47277e-06
3.2994e-06
3.13754e-06
3.09035e-06
7.24877e-07
7.17812e-07
7.11391e-07
7.05458e-07
6.99914e-07
6.94649e-07
6.89571e-07
6.84603e-07
6.7969e-07
6.74896e-07
6.70259e-07
6.65735e-07
6.61281e-07
6.56872e-07
6.52505e-07
6.48196e-07
6.43978e-07
6.39891e-07
6.35985e-07
6.32315e-07
6.28932e-07
6.2588e-07
6.2319e-07
6.20883e-07
6.18956e-07
6.17391e-07
6.16142e-07
6.15158e-07
6.14382e-07
6.13765e-07
8.9721e-06
8.35404e-06
7.79449e-06
7.29028e-06
6.83678e-06
6.42935e-06
6.06272e-06
5.73109e-06
5.42914e-06
5.15226e-06
4.89656e-06
4.65893e-06
4.43699e-06
4.22896e-06
4.03361e-06
3.85009e-06
3.67785e-06
3.51646e-06
3.36564e-06
3.22465e-06
3.09448e-06
7.28197e-07
7.26799e-07
7.24672e-07
7.21977e-07
7.18968e-07
7.15853e-07
7.12746e-07
7.09733e-07
7.08482e-07
7.08569e-07
7.09385e-07
7.10402e-07
7.11253e-07
7.1173e-07
7.11755e-07
7.11349e-07
7.10591e-07
7.09589e-07
7.08472e-07
7.07362e-07
7.06369e-07
7.05585e-07
7.05073e-07
7.0486e-07
7.04956e-07
7.05333e-07
7.05942e-07
7.0676e-07
7.07814e-07
9.32182e-06
9.18774e-06
9.0627e-06
8.94767e-06
8.84184e-06
8.74223e-06
8.64596e-06
8.55125e-06
8.45668e-06
8.36126e-06
8.26446e-06
8.16614e-06
8.06657e-06
7.96629e-06
7.86601e-06
7.76646e-06
7.66834e-06
7.57214e-06
7.47814e-06
7.38636e-06
7.29654e-06
7.20093e-06
7.08617e-06
6.97932e-06
6.87646e-06
6.77569e-06
6.67638e-06
6.57853e-06
6.4825e-06
6.3833e-06
6.28522e-06
6.19064e-06
6.10054e-06
6.01515e-06
5.9343e-06
5.85761e-06
5.78466e-06
5.71509e-06
5.64861e-06
5.58497e-06
5.52399e-06
5.4655e-06
5.40927e-06
5.35502e-06
5.30236e-06
5.25063e-06
5.19926e-06
5.14739e-06
5.09415e-06
5.03828e-06
3.46805e-07
2.33566e-07
1.87491e-07
1.78555e-07
1.823e-07
1.91125e-07
2.00021e-07
2.04247e-07
2.00445e-07
1.88e-07
1.70227e-07
1.56828e-07
1.69595e-07
2.52224e-07
4.41748e-07
5.64414e-07
7.15324e-07
4.36484e-06
7.82252e-06
1.97509e-05
3.49181e-07
2.34703e-07
1.88022e-07
1.78736e-07
1.8217e-07
1.90749e-07
1.99521e-07
2.03769e-07
2.00105e-07
1.87779e-07
1.70031e-07
1.56798e-07
1.69189e-07
2.36258e-07
3.78655e-07
4.73268e-07
6.03339e-07
3.43548e-06
5.66518e-06
1.44987e-05
3.50875e-07
2.35764e-07
1.88611e-07
1.78911e-07
1.8196e-07
1.90239e-07
1.98886e-07
2.03229e-07
1.99838e-07
1.8781e-07
1.70187e-07
1.56716e-07
1.67583e-07
2.26819e-07
3.43309e-07
4.30266e-07
5.51941e-07
7.26576e-07
4.9449e-06
1.24259e-05
3.5274e-07
2.36979e-07
1.8928e-07
1.79069e-07
1.81644e-07
1.89564e-07
1.98086e-07
2.0261e-07
1.99657e-07
1.8811e-07
1.70695e-07
1.56555e-07
1.6397e-07
2.13742e-07
3.10382e-07
3.96329e-07
5.06069e-07
6.70416e-07
4.33202e-06
1.06395e-05
3.55065e-07
2.38451e-07
1.90056e-07
1.79226e-07
1.8123e-07
1.88723e-07
1.97113e-07
2.01893e-07
1.99521e-07
1.88637e-07
1.71564e-07
1.56666e-07
1.59823e-07
1.98466e-07
2.80665e-07
3.67491e-07
4.64146e-07
6.18181e-07
3.91938e-06
9.08344e-06
3.57779e-07
2.40261e-07
1.90977e-07
1.79406e-07
1.80734e-07
1.87716e-07
1.95955e-07
2.01052e-07
1.99386e-07
1.89323e-07
1.72728e-07
1.57144e-07
1.56166e-07
1.84083e-07
2.53774e-07
3.39442e-07
4.25472e-07
5.67884e-07
3.49345e-06
7.74251e-06
3.60908e-07
2.42454e-07
1.92078e-07
1.79631e-07
1.80171e-07
1.86549e-07
1.94603e-07
2.00077e-07
1.99272e-07
1.90247e-07
1.74363e-07
1.58352e-07
1.53904e-07
1.72663e-07
2.28756e-07
3.06463e-07
3.89915e-07
5.20186e-07
3.08629e-06
6.58441e-06
3.64495e-07
2.45047e-07
1.93374e-07
1.79921e-07
1.79557e-07
1.85228e-07
1.93043e-07
1.98931e-07
1.99147e-07
1.91433e-07
1.76594e-07
1.60544e-07
1.53531e-07
1.65089e-07
2.078e-07
2.75125e-07
3.57564e-07
4.75571e-07
6.72253e-07
5.55502e-06
3.6854e-07
2.48021e-07
1.94867e-07
1.80293e-07
1.78922e-07
1.8378e-07
1.91283e-07
1.97596e-07
1.9897e-07
1.92851e-07
1.79427e-07
1.63668e-07
1.5474e-07
1.60703e-07
1.91564e-07
2.48906e-07
3.28357e-07
4.33739e-07
6.13584e-07
4.70723e-06
3.72995e-07
2.51341e-07
1.96554e-07
1.80768e-07
1.78302e-07
1.82235e-07
1.89325e-07
1.96032e-07
1.98668e-07
1.94419e-07
1.82836e-07
1.6778e-07
1.5741e-07
1.59017e-07
1.7952e-07
2.2753e-07
3.02818e-07
3.95582e-07
5.59194e-07
3.99923e-06
3.77795e-07
2.54983e-07
1.9845e-07
1.81387e-07
1.77753e-07
1.80643e-07
1.87179e-07
1.94176e-07
1.98086e-07
1.95918e-07
1.86606e-07
1.72808e-07
1.61505e-07
1.59802e-07
1.71644e-07
2.10733e-07
2.81333e-07
3.6138e-07
5.09878e-07
3.40901e-06
3.82875e-07
2.58944e-07
2.00578e-07
1.82197e-07
1.77348e-07
1.79068e-07
1.84861e-07
1.91966e-07
1.9705e-07
1.9704e-07
1.90337e-07
1.78439e-07
1.66905e-07
1.62758e-07
1.6949e-07
1.9747e-07
2.57334e-07
3.31283e-07
4.66005e-07
7.03429e-07
3.88206e-07
2.63248e-07
2.02973e-07
1.83246e-07
1.77156e-07
1.77593e-07
1.82417e-07
1.89365e-07
1.95406e-07
1.97482e-07
1.9356e-07
1.84119e-07
1.73236e-07
1.67338e-07
1.70835e-07
1.89384e-07
2.3617e-07
3.05894e-07
4.27742e-07
6.36342e-07
3.93795e-07
2.67935e-07
2.05671e-07
1.84581e-07
1.77249e-07
1.76302e-07
1.79923e-07
1.86383e-07
1.93065e-07
1.97026e-07
1.95915e-07
1.89341e-07
1.80038e-07
1.73509e-07
1.74749e-07
1.87015e-07
2.2454e-07
2.86061e-07
3.95093e-07
5.7792e-07
3.99665e-07
2.73031e-07
2.0869e-07
1.86225e-07
1.77685e-07
1.75296e-07
1.77493e-07
1.83101e-07
1.90019e-07
1.95554e-07
1.97183e-07
1.93796e-07
1.86923e-07
1.80972e-07
1.81026e-07
1.90117e-07
2.20172e-07
2.72987e-07
3.68028e-07
5.27192e-07
4.05834e-07
2.78532e-07
2.1202e-07
1.88176e-07
1.78501e-07
1.74683e-07
1.75289e-07
1.79677e-07
1.86357e-07
1.93034e-07
1.97188e-07
1.9716e-07
1.93399e-07
1.89148e-07
1.89129e-07
1.971e-07
2.21369e-07
2.67126e-07
3.46305e-07
4.83271e-07
4.1229e-07
2.8439e-07
2.15625e-07
1.90406e-07
1.79704e-07
1.74555e-07
1.73499e-07
1.76348e-07
1.82265e-07
1.89501e-07
1.95753e-07
1.99006e-07
1.98772e-07
1.97114e-07
1.98083e-07
2.05805e-07
2.26457e-07
2.67393e-07
3.29391e-07
4.45307e-07
4.18967e-07
2.90513e-07
2.19439e-07
1.92856e-07
1.8127e-07
1.74975e-07
1.72313e-07
1.73403e-07
1.78028e-07
1.85096e-07
1.92738e-07
1.9885e-07
2.02203e-07
2.03685e-07
2.06448e-07
2.14526e-07
2.32752e-07
2.70009e-07
3.1662e-07
4.12473e-07
4.25764e-07
2.96782e-07
2.23393e-07
1.95459e-07
1.83144e-07
1.75962e-07
1.71883e-07
1.71146e-07
1.74024e-07
1.80115e-07
1.88164e-07
1.96288e-07
2.02805e-07
2.07478e-07
2.12282e-07
2.20699e-07
2.36624e-07
2.67271e-07
3.07209e-07
3.83862e-07
4.3257e-07
3.03096e-07
2.27431e-07
1.98154e-07
1.85252e-07
1.77472e-07
1.72285e-07
1.6984e-07
1.70698e-07
1.75053e-07
1.82353e-07
1.91219e-07
1.99889e-07
2.07213e-07
2.13785e-07
2.21989e-07
2.35058e-07
2.59516e-07
2.99968e-07
3.58359e-07
4.39282e-07
3.09396e-07
2.31525e-07
2.0091e-07
1.87525e-07
1.7941e-07
1.73485e-07
1.69642e-07
1.68487e-07
1.70597e-07
1.76051e-07
1.84144e-07
1.93431e-07
2.023e-07
2.10103e-07
2.17828e-07
2.27779e-07
2.44768e-07
2.81889e-07
3.34164e-07
4.45863e-07
3.15691e-07
2.35691e-07
2.0373e-07
1.89917e-07
1.81662e-07
1.75348e-07
1.70536e-07
1.6768e-07
1.67467e-07
1.70366e-07
1.76315e-07
1.84456e-07
1.93278e-07
2.01369e-07
2.08338e-07
2.15102e-07
2.23604e-07
2.40612e-07
3.06594e-07
4.52346e-07
3.22044e-07
2.39974e-07
2.06643e-07
1.92404e-07
1.84122e-07
1.77685e-07
1.72336e-07
1.68295e-07
1.66138e-07
1.66419e-07
1.69474e-07
1.75052e-07
1.82163e-07
1.89312e-07
1.95241e-07
1.99636e-07
2.03114e-07
2.08112e-07
2.46116e-07
4.58819e-07
3.28531e-07
2.44423e-07
2.09685e-07
1.94986e-07
1.8671e-07
1.80307e-07
1.74758e-07
1.70063e-07
1.66605e-07
1.64824e-07
1.6513e-07
1.67639e-07
1.71962e-07
1.77068e-07
1.8159e-07
1.84353e-07
1.84745e-07
1.8321e-07
1.82243e-07
4.65395e-07
3.35198e-07
2.49058e-07
2.1287e-07
1.97659e-07
1.8937e-07
1.8307e-07
1.77521e-07
1.72563e-07
1.68414e-07
1.65382e-07
1.6377e-07
1.63748e-07
1.65292e-07
1.67957e-07
1.7085e-07
1.72655e-07
1.71886e-07
1.67659e-07
1.60458e-07
4.72156e-07
3.42028e-07
2.53854e-07
2.16175e-07
2.00402e-07
1.92066e-07
1.85879e-07
1.80417e-07
1.75405e-07
1.70959e-07
1.67324e-07
1.64706e-07
1.63211e-07
1.62895e-07
1.63646e-07
1.65095e-07
1.66254e-07
1.65515e-07
1.61375e-07
1.54139e-07
4.79113e-07
3.48937e-07
2.58741e-07
2.19549e-07
2.03172e-07
1.94757e-07
1.88669e-07
1.83318e-07
1.78336e-07
1.73776e-07
1.69869e-07
1.66801e-07
1.64665e-07
1.63547e-07
1.63394e-07
1.64109e-07
1.64911e-07
1.63962e-07
1.59521e-07
1.51461e-07
4.86212e-07
3.55809e-07
2.63634e-07
2.22938e-07
2.05931e-07
1.97409e-07
1.91396e-07
1.86151e-07
1.81221e-07
1.76624e-07
1.72553e-07
1.69233e-07
1.66804e-07
1.65441e-07
1.65132e-07
1.65909e-07
1.66932e-07
1.65942e-07
1.60749e-07
1.51495e-07
4.93389e-07
3.6255e-07
2.68465e-07
2.26304e-07
2.08656e-07
2.00004e-07
1.94037e-07
1.88884e-07
1.84008e-07
1.79405e-07
1.75205e-07
1.71681e-07
1.6902e-07
1.67498e-07
1.67247e-07
1.68411e-07
1.69945e-07
1.69054e-07
1.63161e-07
1.53251e-07
5.00626e-07
3.69154e-07
2.73214e-07