/*--------------------------------*- C++ -*----------------------------------*\
  =========                 |
  \\      /  F ield         | OpenFOAM: The Open Source CFD Toolbox
   \\    /   O peration     | Website:  https://openfoam.org
    \\  /    A nd           | Version:  8
     \\/     M anipulation  |
\*---------------------------------------------------------------------------*/
FoamFile
{
    version     2.0;
    format      ascii;
    class       volScalarField;
    location    "700";
    object      k;
}
// * * * * * * * * * * * * * * * * * * * * * * * * * * * * * * * * * * * * * //

dimensions      [0 2 -2 0 0 0 0];

internalField   nonuniform List<scalar> 
8400
(
0.00316756
0.00306482
0.00296103
0.00285478
0.00274786
0.0026424
0.00254156
0.00245188
0.00238539
0.00235934
0.00238615
0.00244755
0.00249224
0.00249463
0.00244764
0.00237019
0.00228437
0.00220969
0.00215712
0.00212411
0.00210093
0.00208748
0.00208822
0.00209953
0.00211579
0.00213252
0.00214567
0.00215236
0.00215103
0.0021414
0.00212408
0.00210036
0.00207177
0.00203997
0.00200746
0.00197508
0.00194275
0.00191044
0.00187924
0.0018509
0.00182578
0.0018041
0.00178589
0.00177109
0.00175958
0.00175115
0.00174562
0.00174282
0.00174272
0.00174549
0.0026654
0.00262591
0.00258322
0.00253303
0.0024673
0.00237617
0.00224049
0.00205065
0.00181224
0.0015488
0.00129016
0.00108779
0.000965416
0.000910494
0.000888187
0.000876779
0.00087044
0.000861161
0.000843719
0.000821029
0.000799011
0.000773939
0.000740742
0.000704347
0.000668629
0.000635682
0.000606838
0.000582389
0.000562071
0.000545329
0.000531558
0.000520182
0.000510691
0.000502624
0.000494177
0.000485617
0.000478072
0.00047249
0.000468276
0.000463597
0.000458358
0.000452533
0.00044619
0.000439447
0.00043248
0.000425484
0.000418646
0.000412147
0.000406132
0.0004007
0.00297871
0.00294453
0.00290412
0.00284501
0.00281985
0.00287338
0.00285181
0.00272192
0.00242363
0.00203949
0.00170095
0.00149764
0.00131766
0.00121326
0.00115444
0.00114657
0.00116999
0.00115828
0.00113367
0.00111254
0.00110065
0.00107854
0.0010351
0.000984353
0.000931473
0.000880351
0.000834665
0.00079608
0.000764964
0.000740736
0.000722427
0.000708895
0.000698998
0.000691029
0.000683772
0.000677102
0.000670847
0.000664833
0.000658911
0.000651215
0.000641299
0.000628974
0.000614241
0.000597292
0.00057847
0.000558212
0.000537012
0.000515374
0.000493756
0.00047252
0.0029934
0.00298592
0.00297732
0.00296968
0.00296519
0.00296117
0.00295706
0.00295237
0.00294656
0.00293999
0.00292494
0.00289279
0.00283671
0.00274409
0.0026281
0.00253314
0.00231045
0.0015948
0.00142324
0.0014125
0.00144241
0.00140205
0.0013639
0.0013228
0.00127409
0.00122333
0.00117586
0.00113501
0.00110215
0.00107729
0.00105966
0.00104808
0.00104109
0.00103554
0.00103144
0.00102808
0.00102479
0.00102095
0.0010162
0.0010089
0.000997654
0.00098202
0.000961844
0.000937197
0.000908342
0.000875733
0.000839954
0.000801649
0.000761501
0.000720129
0.00299725
0.00299437
0.00299146
0.00298851
0.00298549
0.00298238
0.00297917
0.00297584
0.00297236
0.00296832
0.00296326
0.00295588
0.00294359
0.00292124
0.00288394
0.00283089
0.0027527
0.00258253
0.00242865
0.00235276
0.00202509
0.00158707
0.00158831
0.00156035
0.00153097
0.00149907
0.00146764
0.00144023
0.00141889
0.00140421
0.00139578
0.00139262
0.00139206
0.00139378
0.00139717
0.00140111
0.00140448
0.00140621
0.00140533
0.00140193
0.00139434
0.00138205
0.0013648
0.00134241
0.00131484
0.00128217
0.00124463
0.00120251
0.00115628
0.00110646
0.00299689
0.00299363
0.00299033
0.00298698
0.00298359
0.00298011
0.00297654
0.00297287
0.00296912
0.0029653
0.00296132
0.00295688
0.00295125
0.00294264
0.00292812
0.00290417
0.0028654
0.00279538
0.0027017
0.0026011
0.00244496
0.00229449
0.00207846
0.00167332
0.0016742
0.00165429
0.00164344
0.00163393
0.00162773
0.00162536
0.0016267
0.00163107
0.0016367
0.00164474
0.00165389
0.00166296
0.00167086
0.00167663
0.0016793
0.00167954
0.00167711
0.00167171
0.00166301
0.00165071
0.00163447
0.00161395
0.00158889
0.00155909
0.00152452
0.00148526
0.00299629
0.00299234
0.00298836
0.00298432
0.00298021
0.002976
0.00297175
0.00296746
0.00296319
0.00295901
0.00295495
0.00295094
0.00294674
0.00294167
0.00293431
0.0029223
0.00290198
0.00286608
0.0028102
0.00273512
0.00263019
0.00250706
0.00235668
0.00222689
0.00185189
0.00171208
0.0017173
0.00172154
0.0017267
0.00173272
0.0017397
0.00174666
0.0017551
0.00176445
0.00177377
0.00178227
0.00178944
0.00179477
0.00179794
0.00179949
0.00180063
0.00180129
0.00180119
0.00179988
0.00179677
0.00179122
0.00178265
0.00177059
0.00175468
0.00173475
0.00299558
0.00299082
0.00298601
0.00298114
0.00297622
0.00297121
0.00296617
0.00296114
0.00295619
0.00295144
0.00294695
0.00294276
0.00293882
0.00293484
0.00293008
0.00292314
0.00291157
0.00289104
0.00285651
0.00280432
0.00272907
0.00263083
0.00250922
0.00238048
0.00219163
0.00198142
0.00173238
0.00174071
0.00175249
0.00176274
0.00177123
0.00177906
0.00178615
0.00179216
0.0017968
0.00180006
0.00180212
0.00180334
0.00180432
0.00180548
0.00180873
0.00181427
0.00182158
0.00182972
0.00183775
0.0018448
0.00185011
0.00185304
0.00185315
0.00185018
0.00299444
0.00298842
0.00298237
0.00297628
0.00297012
0.00296399
0.0029579
0.00295195
0.00294624
0.00294094
0.00293612
0.00293185
0.00292811
0.00292475
0.00292133
0.00291693
0.00290993
0.00289738
0.0028751
0.00283871
0.0027834
0.00270602
0.00260588
0.00248875
0.00234271
0.00217997
0.00199371
0.00172717
0.00173798
0.00175072
0.00176067
0.00176665
0.00176908
0.0017683
0.00176473
0.00175907
0.00175248
0.00174656
0.00174316
0.00174394
0.00174987
0.00176131
0.00177672
0.00179432
0.00181272
0.00183081
0.00184765
0.00186254
0.00187494
0.00188451
0.00299259
0.00298433
0.00297617
0.00296814
0.00296019
0.00295246
0.00294496
0.00293791
0.00293143
0.00292571
0.00292089
0.00291701
0.00291397
0.00291153
0.00290939
0.00290685
0.00290271
0.00289484
0.00287997
0.00285402
0.00281241
0.00275105
0.00266801
0.00256502
0.0024401
0.00229951
0.00214659
0.00197073
0.00170712
0.00172371
0.00173401
0.00173678
0.00173277
0.0017227
0.00170743
0.00168835
0.00166807
0.00165047
0.00164018
0.00164156
0.00165405
0.00167538
0.00170161
0.00172999
0.00175894
0.00178733
0.00181434
0.00183937
0.00186174
0.0018809
0.00298878
0.00297587
0.00296368
0.00295207
0.00294128
0.00293126
0.00292216
0.00291431
0.00290781
0.00290283
0.00289928
0.00289709
0.00289585
0.00289525
0.00289488
0.00289422
0.00289234
0.00288762
0.0028775
0.00285844
0.00282625
0.00277666
0.00270701
0.00261716
0.00250744
0.00238265
0.00224723
0.00210056
0.00193234
0.00175476
0.00170521
0.00170832
0.00170121
0.00168444
0.00165798
0.00162227
0.00157957
0.00153772
0.00151239
0.00152235
0.00155213
0.0015895
0.00162871
0.00166767
0.00170569
0.00174231
0.00177713
0.00180989
0.00184008
0.00186709
0.00297878
0.00295401
0.00293437
0.00291771
0.00290383
0.00289231
0.0028837
0.00287795
0.00287441
0.00287302
0.00287316
0.00287426
0.00287584
0.00287764
0.00287933
0.00288052
0.00288046
0.00287796
0.00287097
0.00285642
0.00283055
0.00278937
0.00272989
0.00265114
0.00255388
0.0024422
0.00232087
0.00219238
0.00205605
0.00191902
0.00181026
0.00173074
0.0016873
0.00166582
0.00164234
0.0016103
0.00157018
0.00152442
0.0014691
0.00147237
0.00151118
0.00155704
0.00160149
0.00164354
0.00168391
0.00172298
0.00176051
0.00179641
0.0018304
0.00186242
0.00291831
0.00288866
0.0028699
0.00285498
0.00284439
0.00283796
0.002836
0.00283696
0.00283966
0.00284351
0.00284804
0.00285254
0.00285684
0.00286091
0.00286444
0.00286706
0.00286833
0.00286728
0.00286213
0.00285036
0.00282856
0.00279311
0.0027411
0.00267131
0.00258453
0.00248444
0.00237586
0.00226267
0.00214755
0.00203584
0.00193684
0.00185176
0.00178291
0.00173199
0.00169386
0.00166221
0.00163403
0.00161037
0.00159736
0.00159818
0.00160886
0.0016272
0.00165139
0.00167981
0.00171112
0.00174418
0.0017779
0.00181156
0.00184464
0.00187669
0.0028054
0.00279028
0.0027829
0.00278015
0.00278149
0.00278593
0.0027927
0.00280067
0.00280901
0.00281732
0.00282512
0.00283229
0.00283879
0.00284455
0.00284944
0.00285324
0.00285551
0.00285562
0.00285182
0.00284138
0.00282182
0.00279004
0.00274335
0.00268061
0.00260275
0.00251323
0.00241673
0.00231761
0.00221961
0.00212705
0.00204413
0.00197169
0.0019093
0.00185649
0.00181245
0.00177636
0.00174785
0.00172726
0.00171589
0.00171137
0.00171234
0.00171829
0.00172898
0.00174415
0.00176338
0.00178603
0.0018113
0.00183844
0.0018668
0.00189577
0.00272342
0.00272587
0.0027312
0.00273855
0.00274727
0.00275695
0.00276705
0.00277725
0.00278727
0.00279684
0.00280581
0.00281408
0.00282157
0.0028282
0.00283381
0.00283822
0.00284103
0.0028415
0.00283824
0.0028291
0.00281193
0.00278152
0.00273798
0.00268085
0.00261076
0.00253114
0.00244642
0.00236081
0.00227799
0.00220118
0.00213256
0.00207256
0.0020204
0.00197506
0.00193573
0.00190207
0.00187417
0.00185235
0.00183669
0.00182556
0.00181852
0.00181558
0.00181683
0.00182232
0.00183187
0.00184517
0.00186183
0.00188145
0.00190362
0.00192791
0.00270515
0.00271261
0.00272062
0.00272899
0.00273763
0.00274648
0.00275545
0.00276441
0.00277329
0.00278193
0.00279019
0.00279796
0.00280511
0.00281147
0.00281687
0.002821
0.00282347
0.00282351
0.00281999
0.00281117
0.00279512
0.00276837
0.00272832
0.00267304
0.00261002
0.00253999
0.00246697
0.00239463
0.0023259
0.00226288
0.00220664
0.0021572
0.00211386
0.00207572
0.00204205
0.0020124
0.00198668
0.00196502
0.00194726
0.00193263
0.00192105
0.00191274
0.00190793
0.00190673
0.00190919
0.00191531
0.0019251
0.00193852
0.00195546
0.00197573
0.00270521
0.00271174
0.00271841
0.00272517
0.00273205
0.00273902
0.00274607
0.00275316
0.00276023
0.00276718
0.00277393
0.00278033
0.00278623
0.00279142
0.00279569
0.00279872
0.00280004
0.00279898
0.00279459
0.00278552
0.00277024
0.00274645
0.002712
0.00266125
0.00260154
0.00254103
0.00247986
0.00242063
0.0023652
0.00231466
0.00226936
0.00222913
0.0021934
0.00216148
0.00213279
0.00210694
0.00208379
0.00206337
0.0020456
0.00202999
0.00201661
0.00200573
0.0019976
0.00199253
0.00199083
0.00199289
0.00199907
0.00200965
0.00202474
0.00204421
0.00269156
0.00269694
0.00270244
0.00270806
0.00271377
0.00271955
0.00272536
0.00273117
0.00273689
0.00274245
0.00274776
0.00275272
0.00275715
0.00276088
0.00276366
0.00276521
0.00276512
0.00276282
0.00275757
0.00274846
0.00273438
0.00271391
0.00268552
0.00264571
0.00258585
0.0025351
0.00248606
0.00243968
0.00239671
0.00235747
0.00232195
0.00228992
0.00226096
0.00223463
0.0022105
0.00218832
0.00216797
0.00214949
0.00213286
0.00211776
0.00210443
0.00209334
0.00208508
0.00208032
0.0020798
0.00208417
0.00209398
0.00210947
0.00213056
0.00215672
0.00265042
0.00265465
0.0026591
0.00266377
0.00266863
0.00267358
0.00267859
0.00268357
0.00268843
0.0026931
0.00269746
0.0027014
0.00270478
0.00270745
0.00270922
0.00270984
0.00270901
0.00270635
0.00270138
0.00269355
0.00268223
0.00266666
0.00264594
0.00261794
0.00256521
0.00252284
0.00248588
0.00245175
0.00242018
0.0023911
0.00236438
0.00233978
0.00231705
0.00229595
0.00227625
0.00225779
0.00224054
0.00222454
0.00221058
0.00220101
0.00219636
0.00219726
0.00220425
0.0022178
0.00223817
0.00226537
0.00229912
0.00233882
0.00238344
0.00243122
0.00429075
0.00418612
0.00408247
0.00398018
0.00387998
0.00378258
0.00368861
0.00359858
0.00351285
0.00343161
0.00335489
0.00328262
0.00321461
0.0031506
0.00309028
0.0030333
0.00297927
0.00292777
0.00287832
0.00283045
0.00278366
0.00273756
0.00269192
0.0026464
0.0025854
0.00257768
0.00258179
0.00259459
0.00261368
0.00263734
0.00266458
0.00269505
0.00272871
0.00276548
0.00280526
0.00284798
0.00289378
0.00294301
0.00299545
0.00304897
0.00310377
0.00316005
0.00321796
0.00327767
0.0033393
0.00340297
0.00346876
0.00353672
0.00360684
0.0036791
2.38372e-05
2.36065e-05
2.34163e-05
2.3243e-05
2.30695e-05
2.28924e-05
2.27185e-05
2.25518e-05
2.23918e-05
2.22356e-05
2.20798e-05
2.1921e-05
2.1757e-05
2.15861e-05
2.1408e-05
2.12236e-05
2.10346e-05
2.08435e-05
2.0653e-05
2.04658e-05
2.02834e-05
2.00468e-05
1.98254e-05
1.96178e-05
1.94224e-05
1.92372e-05
1.90613e-05
1.88901e-05
1.87215e-05
1.85539e-05
1.83863e-05
1.82182e-05
1.80501e-05
1.7881e-05
1.77146e-05
1.75545e-05
1.74041e-05
1.72658e-05
1.71408e-05
1.70291e-05
1.69291e-05
1.68382e-05
1.67529e-05
1.66694e-05
1.65841e-05
1.64945e-05
1.63987e-05
1.62896e-05
1.61122e-05
1.58432e-05
2.32053e-05
2.20563e-05
2.10093e-05
2.00695e-05
1.92292e-05
1.84767e-05
1.7795e-05
1.71703e-05
1.65913e-05
1.60485e-05
1.55338e-05
1.5041e-05
1.45662e-05
1.41073e-05
1.36642e-05
1.3238e-05
1.28306e-05
1.2444e-05
1.20797e-05
1.17371e-05
1.1419e-05
1.1263e-05
1.11676e-05
1.11086e-05
1.10706e-05
1.10457e-05
1.12084e-05
1.13079e-05
1.13623e-05
1.13835e-05
1.13795e-05
1.13561e-05
1.13186e-05
1.12737e-05
1.12252e-05
1.11766e-05
1.11313e-05
1.1092e-05
1.10607e-05
1.1038e-05
1.10239e-05
1.10165e-05
1.10122e-05
1.10059e-05
1.09913e-05
1.09651e-05
1.09351e-05
1.09285e-05
1.10102e-05
1.1154e-05
2.32322e-05
2.21325e-05
2.11086e-05
2.0166e-05
1.93008e-05
1.85073e-05
1.77767e-05
1.70995e-05
1.64667e-05
1.58704e-05
1.53041e-05
1.47626e-05
1.42424e-05
1.37416e-05
1.32595e-05
1.27963e-05
1.23531e-05
1.19307e-05
1.15304e-05
1.14089e-05
1.12901e-05
1.11806e-05
1.10828e-05
1.09961e-05
1.09186e-05
1.08476e-05
1.07835e-05
1.07216e-05
1.06584e-05
1.05919e-05
1.05206e-05
1.04444e-05
1.0364e-05
1.02815e-05
1.01991e-05
1.0119e-05
1.00437e-05
9.97519e-06
9.91472e-06
9.86278e-06
9.81892e-06
9.7819e-06
9.74994e-06
9.72035e-06
9.68751e-06
9.63977e-06
9.56106e-06
9.44941e-06
9.35092e-06
9.3765e-06
2.32213e-05
2.21371e-05
2.11351e-05
2.02113e-05
1.93583e-05
1.85703e-05
1.78405e-05
1.71611e-05
1.65244e-05
1.59232e-05
1.53516e-05
1.48046e-05
1.42792e-05
1.37733e-05
1.32865e-05
1.28191e-05
1.23717e-05
1.19453e-05
1.15397e-05
1.12404e-05
1.11916e-05
1.11242e-05
1.10487e-05
1.09709e-05
1.08938e-05
1.08183e-05
1.07437e-05
1.06689e-05
1.0592e-05
1.05117e-05
1.0427e-05
1.03377e-05
1.02448e-05
1.01498e-05
1.00549e-05
9.96254e-06
9.87502e-06
9.7942e-06
9.72127e-06
9.65656e-06
9.59935e-06
9.54796e-06
9.50057e-06
9.45678e-06
9.41858e-06
9.38662e-06
9.34953e-06
9.27639e-06
9.15064e-06
9.08699e-06
2.32134e-05
2.21227e-05
2.11191e-05
2.01962e-05
1.93446e-05
1.85576e-05
1.78281e-05
1.71487e-05
1.65118e-05
1.59105e-05
1.53388e-05
1.47919e-05
1.42667e-05
1.37614e-05
1.32754e-05
1.28091e-05
1.23631e-05
1.19383e-05
1.15359e-05
1.13717e-05
1.12499e-05
1.11521e-05
1.10663e-05
1.0987e-05
1.09114e-05
1.08373e-05
1.07633e-05
1.06875e-05
1.06085e-05
1.05251e-05
1.04366e-05
1.03432e-05
1.02458e-05
1.01465e-05
1.00473e-05
9.9509e-06
9.85948e-06
9.77491e-06
9.69843e-06
9.63049e-06
9.57052e-06
9.51648e-06
9.46454e-06
9.41024e-06
9.35237e-06
9.29755e-06
9.25496e-06
9.21164e-06
9.11976e-06
9.03432e-06
2.32134e-05
2.2119e-05
2.1113e-05
2.01893e-05
1.93385e-05
1.85531e-05
1.78254e-05
1.71477e-05
1.65123e-05
1.59123e-05
1.53417e-05
1.47958e-05
1.42716e-05
1.37673e-05
1.32823e-05
1.28171e-05
1.23724e-05
1.1949e-05
1.15464e-05
1.12476e-05
1.12025e-05
1.11378e-05
1.10643e-05
1.09881e-05
1.09123e-05
1.08376e-05
1.07631e-05
1.06874e-05
1.06088e-05
1.05258e-05
1.04376e-05
1.03442e-05
1.02466e-05
1.01467e-05
1.00468e-05
9.94952e-06
9.8571e-06
9.77142e-06
9.69364e-06
9.62428e-06
9.56331e-06
9.51009e-06
9.46251e-06
9.41549e-06
9.3616e-06
9.29812e-06
9.2364e-06
9.18839e-06
9.11893e-06
9.03853e-06
2.3216e-05
2.21216e-05
2.11142e-05
2.01886e-05
1.9336e-05
1.8549e-05
1.78199e-05
1.71409e-05
1.65045e-05
1.59035e-05
1.53322e-05
1.47858e-05
1.42614e-05
1.37572e-05
1.32728e-05
1.28086e-05
1.23652e-05
1.19434e-05
1.15426e-05
1.12454e-05
1.11999e-05
1.11366e-05
1.1065e-05
1.09904e-05
1.09156e-05
1.08413e-05
1.07667e-05
1.06905e-05
1.0611e-05
1.05267e-05
1.04371e-05
1.03422e-05
1.02431e-05
1.01418e-05
1.00406e-05
9.9421e-06
9.84867e-06
9.7622e-06
9.68372e-06
9.6133e-06
9.55026e-06
9.49382e-06
9.44363e-06
9.39847e-06
9.35284e-06
9.2975e-06
9.23199e-06
9.17347e-06
9.10961e-06
9.03678e-06
2.32172e-05
2.21241e-05
2.11168e-05
2.01905e-05
1.93368e-05
1.85486e-05
1.78184e-05
1.71385e-05
1.65012e-05
1.58995e-05
1.53276e-05
1.4781e-05
1.42567e-05
1.3753e-05
1.32695e-05
1.28067e-05
1.2365e-05
1.1945e-05
1.15477e-05
1.13873e-05
1.12658e-05
1.11675e-05
1.10814e-05
1.10019e-05
1.09258e-05
1.08508e-05
1.07752e-05
1.06971e-05
1.06149e-05
1.05276e-05
1.04346e-05
1.03365e-05
1.02344e-05
1.01305e-05
1.00272e-05
9.92705e-06
9.8323e-06
9.74491e-06
9.6661e-06
9.59608e-06
9.53376e-06
9.47713e-06
9.42456e-06
9.37609e-06
9.33115e-06
9.28321e-06
9.22399e-06
9.16267e-06
9.09911e-06
9.03049e-06
2.3217e-05
2.21246e-05
2.11176e-05
2.0191e-05
1.93364e-05
1.85471e-05
1.78156e-05
1.71343e-05
1.64956e-05
1.58927e-05
1.53197e-05
1.47723e-05
1.42477e-05
1.37442e-05
1.32614e-05
1.27998e-05
1.23597e-05
1.19417e-05
1.15462e-05
1.13883e-05
1.12696e-05
1.11732e-05
1.10881e-05
1.1009e-05
1.0933e-05
1.08578e-05
1.07815e-05
1.07022e-05
1.06185e-05
1.05294e-05
1.04345e-05
1.03344e-05
1.02305e-05
1.01249e-05
1.00201e-05
9.91863e-06
9.8226e-06
9.73379e-06
9.65345e-06
9.58214e-06
9.51948e-06
9.46356e-06
9.41137e-06
9.36102e-06
9.31314e-06
9.26634e-06
9.21277e-06
9.1537e-06
9.09117e-06
9.02502e-06
2.32166e-05
2.21245e-05
2.11173e-05
2.01902e-05
1.93349e-05
1.85446e-05
1.7812e-05
1.71294e-05
1.64894e-05
1.58854e-05
1.53115e-05
1.47636e-05
1.42388e-05
1.37358e-05
1.32542e-05
1.27942e-05
1.23561e-05
1.19402e-05
1.15455e-05
1.12543e-05
1.12154e-05
1.11565e-05
1.10874e-05
1.10141e-05
1.0939e-05
1.08627e-05
1.07846e-05
1.07033e-05
1.06176e-05
1.05267e-05
1.04301e-05
1.03286e-05
1.02236e-05
1.01171e-05
1.00116e-05
9.90954e-06
9.81304e-06
9.72365e-06
9.64231e-06
9.56946e-06
9.50511e-06
9.44841e-06
9.39691e-06
9.34722e-06
9.29815e-06
9.25034e-06
9.19947e-06
9.14372e-06
9.08374e-06
9.02024e-06
2.32166e-05
2.21246e-05
2.11173e-05
2.01896e-05
1.93334e-05
1.85419e-05
1.7808e-05
1.7124e-05
1.64826e-05
1.58772e-05
1.53023e-05
1.47538e-05
1.4229e-05
1.37267e-05
1.32463e-05
1.27879e-05
1.23518e-05
1.19381e-05
1.15457e-05
1.12559e-05
1.1217e-05
1.11596e-05
1.10926e-05
1.10209e-05
1.09467e-05
1.08706e-05
1.0792e-05
1.07096e-05
1.06225e-05
1.05299e-05
1.04317e-05
1.03287e-05
1.02222e-05
1.01145e-05
1.00079e-05
9.90479e-06
9.80729e-06
9.71697e-06
9.63467e-06
9.5605e-06
9.49424e-06
9.43547e-06
9.38291e-06
9.33365e-06
9.2849e-06
9.23658e-06
9.1868e-06
9.13363e-06
9.07659e-06
9.01605e-06
2.32169e-05
2.21254e-05
2.11179e-05
2.01896e-05
1.93325e-05
1.85398e-05
1.78044e-05
1.71188e-05
1.64758e-05
1.58689e-05
1.52928e-05
1.47436e-05
1.42189e-05
1.37171e-05
1.32379e-05
1.27813e-05
1.23472e-05
1.19356e-05
1.15467e-05
1.1394e-05
1.12798e-05
1.11874e-05
1.11059e-05
1.10296e-05
1.09549e-05
1.08794e-05
1.08011e-05
1.07184e-05
1.06303e-05
1.05361e-05
1.0436e-05
1.0331e-05
1.02228e-05
1.01134e-05
1.00053e-05
9.90072e-06
9.80164e-06
9.70969e-06
9.62585e-06
9.55025e-06
9.48237e-06
9.42153e-06
9.36699e-06
9.31695e-06
9.26855e-06
9.22051e-06
9.17163e-06
9.12051e-06
9.06633e-06
9.00899e-06
2.32173e-05
2.21266e-05
2.11191e-05
2.01903e-05
1.93322e-05
1.85382e-05
1.78013e-05
1.71141e-05
1.64695e-05
1.58613e-05
1.52842e-05
1.47347e-05
1.42102e-05
1.37094e-05
1.32316e-05
1.27768e-05
1.23447e-05
1.19353e-05
1.15486e-05
1.14355e-05
1.13259e-05
1.12234e-05
1.11294e-05
1.10425e-05
1.09604e-05
1.08802e-05
1.07992e-05
1.07151e-05
1.06264e-05
1.0532e-05
1.04321e-05
1.03275e-05
1.02197e-05
1.0111e-05
1.00033e-05
9.89888e-06
9.79957e-06
9.70686e-06
9.62182e-06
9.54485e-06
9.47558e-06
9.4131e-06
9.35658e-06
9.30492e-06
9.25598e-06
9.20799e-06
9.15974e-06
9.11008e-06
9.05817e-06
9.0036e-06
2.32178e-05
2.21279e-05
2.11205e-05
2.0191e-05
1.93319e-05
1.85365e-05
1.77978e-05
1.71086e-05
1.6462e-05
1.5852e-05
1.52737e-05
1.47234e-05
1.41988e-05
1.36985e-05
1.32218e-05
1.27684e-05
1.2338e-05
1.19304e-05
1.15439e-05
1.12619e-05
1.12296e-05
1.11762e-05
1.11114e-05
1.10408e-05
1.09668e-05
1.08899e-05
1.08095e-05
1.07246e-05
1.06344e-05
1.05385e-05
1.04374e-05
1.03319e-05
1.02237e-05
1.01147e-05
1.00069e-05
9.90229e-06
9.80258e-06
9.70907e-06
9.62273e-06
9.54409e-06
9.47307e-06
9.40889e-06
9.35054e-06
9.29711e-06
9.24706e-06
9.19878e-06
9.1509e-06
9.10237e-06
9.05234e-06
9.00017e-06
2.32182e-05
2.21292e-05
2.11219e-05
2.01921e-05
1.93322e-05
1.85359e-05
1.7796e-05
1.71056e-05
1.64579e-05
1.58471e-05
1.52683e-05
1.4718e-05
1.41939e-05
1.36946e-05
1.32193e-05
1.27676e-05
1.2339e-05
1.19331e-05
1.15482e-05
1.12647e-05
1.12329e-05
1.11808e-05
1.11173e-05
1.10475e-05
1.09736e-05
1.08963e-05
1.0815e-05
1.07289e-05
1.06375e-05
1.05406e-05
1.04388e-05
1.03331e-05
1.02248e-05
1.01159e-05
1.00082e-05
9.90349e-06
9.80339e-06
9.70919e-06
9.62173e-06
9.54155e-06
9.46877e-06
9.40291e-06
9.34303e-06
9.2882e-06
9.23722e-06
9.18876e-06
9.14152e-06
9.09441e-06
9.04653e-06
8.99712e-06
2.32186e-05
2.213e-05
2.1122e-05
2.01906e-05
1.93286e-05
1.85296e-05
1.7787e-05
1.70938e-05
1.64435e-05
1.58305e-05
1.52502e-05
1.4699e-05
1.41747e-05
1.36758e-05
1.32014e-05
1.27508e-05
1.23238e-05
1.19195e-05
1.15362e-05
1.12544e-05
1.1224e-05
1.11732e-05
1.11105e-05
1.10412e-05
1.09675e-05
1.08899e-05
1.08081e-05
1.07215e-05
1.06297e-05
1.05328e-05
1.04312e-05
1.0326e-05
1.02186e-05
1.01106e-05
1.00036e-05
9.89946e-06
9.79959e-06
9.70534e-06
9.61758e-06
9.5368e-06
9.46322e-06
9.39661e-06
9.33626e-06
9.28133e-06
9.2308e-06
9.18354e-06
9.13841e-06
9.09438e-06
9.05052e-06
9.00601e-06
2.32191e-05
2.21314e-05
2.11241e-05
2.01936e-05
1.93324e-05
1.85339e-05
1.77912e-05
1.70977e-05
1.64469e-05
1.58333e-05
1.52524e-05
1.47011e-05
1.41768e-05
1.36782e-05
1.32044e-05
1.27546e-05
1.23283e-05
1.19248e-05
1.1542e-05
1.12602e-05
1.123e-05
1.11792e-05
1.11163e-05
1.10466e-05
1.09722e-05
1.08939e-05
1.08114e-05
1.07244e-05
1.06326e-05
1.05362e-05
1.04358e-05
1.03324e-05
1.02271e-05
1.01215e-05
1.00169e-05
9.91515e-06
9.81757e-06
9.72549e-06
9.63986e-06
9.56126e-06
9.48996e-06
9.42593e-06
9.36875e-06
9.31771e-06
9.27202e-06
9.23078e-06
9.19299e-06
9.15783e-06
9.12451e-06
9.09234e-06
2.32196e-05
2.21252e-05
2.11097e-05
2.01715e-05
1.93036e-05
1.84998e-05
1.77532e-05
1.7057e-05
1.64048e-05
1.5791e-05
1.5211e-05
1.46613e-05
1.41397e-05
1.36443e-05
1.31742e-05
1.27284e-05
1.23064e-05
1.19073e-05
1.15291e-05
1.1254e-05
1.12261e-05
1.11807e-05
1.11233e-05
1.10593e-05
1.09908e-05
1.09184e-05
1.08421e-05
1.07619e-05
1.06776e-05
1.05903e-05
1.05011e-05
1.04113e-05
1.03215e-05
1.02326e-05
1.01455e-05
1.00613e-05
9.98111e-06
9.90615e-06
9.83739e-06
9.77558e-06
9.72112e-06
9.67421e-06
9.63472e-06
9.60225e-06
9.57616e-06
9.55578e-06
9.54036e-06
9.52927e-06
9.52208e-06
9.51863e-06
2.32231e-05
2.21383e-05
2.11379e-05
2.02154e-05
1.93649e-05
1.85836e-05
1.78638e-05
1.71977e-05
1.65784e-05
1.59995e-05
1.54556e-05
1.49428e-05
1.44581e-05
1.39995e-05
1.35659e-05
1.31567e-05
1.27713e-05
1.24093e-05
1.20703e-05
1.17499e-05
1.14545e-05
1.1479e-05
1.14921e-05
1.14935e-05
1.14823e-05
1.14585e-05
1.14229e-05
1.13766e-05
1.13215e-05
1.12667e-05
1.12172e-05
1.11739e-05
1.11356e-05
1.11005e-05
1.10673e-05
1.10353e-05
1.10046e-05
1.09757e-05
1.09497e-05
1.09277e-05
1.09105e-05
1.08986e-05
1.08924e-05
1.08919e-05
1.08965e-05
1.09059e-05
1.09195e-05
1.09368e-05
1.09581e-05
1.09849e-05
2.38231e-05
2.3593e-05
2.33793e-05
2.31813e-05
2.29974e-05
2.2821e-05
2.26498e-05
2.24813e-05
2.23136e-05
2.21451e-05
2.19752e-05
2.1804e-05
2.1632e-05
2.14604e-05
2.12903e-05
2.11228e-05
2.09589e-05
2.0799e-05
2.0643e-05
2.04903e-05
2.03396e-05
2.01429e-05
1.99477e-05
1.97561e-05
1.95671e-05
1.93795e-05
1.91922e-05
1.90049e-05
1.88176e-05
1.8628e-05
1.84371e-05
1.8247e-05
1.80602e-05
1.78788e-05
1.77046e-05
1.75386e-05
1.73815e-05
1.72337e-05
1.70951e-05
1.69654e-05
1.68441e-05
1.67304e-05
1.66233e-05
1.65214e-05
1.64236e-05
1.63281e-05
1.62333e-05
1.61376e-05
1.60391e-05
1.59359e-05
5.39608e-06
3.63991e-06
2.9138e-06
2.77246e-06
2.82757e-06
2.95809e-06
3.08498e-06
3.13524e-06
3.06033e-06
2.86169e-06
2.62453e-06
2.57961e-06
3.17141e-06
5.00143e-06
7.89879e-06
1.02428e-05
1.28011e-05
1.69197e-05
2.52731e-05
4.54508e-05
5.42654e-06
3.65043e-06
2.92279e-06
2.77521e-06
2.82386e-06
2.94918e-06
3.07363e-06
3.12481e-06
3.05343e-06
2.85871e-06
2.62449e-06
2.57942e-06
3.13496e-06
4.68589e-06
6.83096e-06
8.79907e-06
1.11251e-05
1.40566e-05
2.05379e-05
3.77737e-05
5.43244e-06
3.66733e-06
2.93421e-06
2.77806e-06
2.81829e-06
2.93709e-06
3.05892e-06
3.11242e-06
3.04729e-06
2.85938e-06
2.62709e-06
2.56629e-06
3.05504e-06
4.43908e-06
6.35657e-06
8.1201e-06
1.03215e-05
1.32258e-05
1.8723e-05
3.44543e-05
5.47762e-06
3.69206e-06
2.94698e-06
2.78056e-06
2.81141e-06
2.92315e-06
3.04268e-06
3.10002e-06
3.04358e-06
2.86494e-06
2.63405e-06
2.54513e-06
2.9265e-06
4.09673e-06
5.83379e-06
7.4719e-06
9.5291e-06
1.23366e-05
1.70601e-05
3.13481e-05
5.52295e-06
3.72146e-06
2.96173e-06
2.78337e-06
2.80352e-06
2.90734e-06
3.02469e-06
3.08724e-06
3.04198e-06
2.87558e-06
2.64781e-06
2.5282e-06
2.79054e-06
3.72382e-06
5.31642e-06
6.85954e-06
8.77397e-06
1.14813e-05
1.568e-05
2.83765e-05
5.57202e-06
3.75602e-06
2.97892e-06
2.78689e-06
2.79498e-06
2.8899e-06
3.00496e-06
3.07381e-06
3.04215e-06
2.89128e-06
2.67e-06
2.52426e-06
2.6819e-06
3.40516e-06
4.87712e-06
6.27993e-06
8.06951e-06
1.06362e-05
1.44208e-05
2.56831e-05
5.62677e-06
3.79568e-06
2.9987e-06
2.79139e-06
2.78608e-06
2.87089e-06
2.98315e-06
3.05905e-06
3.04329e-06
2.91169e-06
2.70152e-06
2.53695e-06
2.60859e-06
3.15164e-06
4.5451e-06
5.73057e-06
7.42365e-06
9.83391e-06
1.32675e-05
2.32299e-05
5.68743e-06
3.84012e-06
3.02108e-06
2.79705e-06
2.77696e-06
2.85022e-06
2.95865e-06
3.04173e-06
3.04381e-06
2.93535e-06
2.74171e-06
2.56623e-06
2.56617e-06
2.91737e-06
3.9665e-06
5.25202e-06
6.78119e-06
9.08423e-06
1.2431e-05
2.09686e-05
5.75327e-06
3.88888e-06
3.04595e-06
2.80398e-06
2.76783e-06
2.82789e-06
2.93095e-06
3.02065e-06
3.04181e-06
2.96016e-06
2.78907e-06
2.61175e-06
2.55974e-06
2.75741e-06
3.41342e-06
4.79579e-06
6.18498e-06
8.36102e-06
1.15463e-05
1.88851e-05
5.82315e-06
3.94158e-06
3.07338e-06
2.81249e-06
2.7592e-06
2.80426e-06
2.89987e-06
2.99481e-06
3.03542e-06
2.98367e-06
2.84145e-06
2.67239e-06
2.58852e-06
2.69052e-06
3.09577e-06
4.34219e-06
5.64876e-06
7.64735e-06
1.06787e-05
1.69303e-05
5.89625e-06
3.99835e-06
3.10378e-06
2.82328e-06
2.75202e-06
2.78028e-06
2.86592e-06
2.9638e-06
3.02304e-06
3.00308e-06
2.89554e-06
2.74518e-06
2.64588e-06
2.69042e-06
2.9504e-06
3.83319e-06
5.1675e-06
6.93102e-06
9.76584e-06
1.52191e-05
5.97251e-06
4.0601e-06
3.13802e-06
2.83746e-06
2.74772e-06
2.75743e-06
2.83016e-06
2.9278e-06
3.00354e-06
3.01557e-06
2.9469e-06
2.82515e-06
2.72561e-06
2.73689e-06
2.91782e-06
3.40176e-06
4.73401e-06
6.20799e-06
8.90201e-06
1.37243e-05
6.05272e-06
4.12822e-06
3.17718e-06
2.85613e-06
2.74775e-06
2.73746e-06
2.79411e-06
2.88743e-06
2.97609e-06
3.01853e-06
2.99073e-06
2.90552e-06
2.82009e-06
2.8166e-06
2.9668e-06
3.38291e-06
4.36381e-06
5.57712e-06
8.12911e-06
1.23997e-05
6.13827e-06
4.2039e-06
3.22206e-06
2.88008e-06
2.75326e-06
2.72195e-06
2.75938e-06
2.84361e-06
2.9402e-06
3.00957e-06
3.02256e-06
2.9792e-06
2.9196e-06
2.91372e-06
3.03061e-06
3.34094e-06
4.06454e-06
5.12371e-06
7.47355e-06
1.1236e-05
6.23021e-06
4.28738e-06
3.27267e-06
2.90934e-06
2.76475e-06
2.71215e-06
2.72763e-06
2.79753e-06
2.89565e-06
2.98643e-06
3.03777e-06
3.03901e-06
3.01454e-06
3.02074e-06
3.12114e-06
3.36562e-06
3.84503e-06
4.83901e-06
6.91518e-06
1.02047e-05
6.32844e-06
4.37749e-06
3.32809e-06
2.94313e-06
2.78198e-06
2.70888e-06
2.70069e-06
2.75113e-06
2.84314e-06
2.94741e-06
3.03164e-06
3.07668e-06
3.09263e-06
3.12227e-06
3.22263e-06
3.43545e-06
3.7647e-06
4.65742e-06
6.43198e-06
9.28941e-06
6.43145e-06
4.47192e-06
3.38671e-06
2.98009e-06
2.80417e-06
2.71268e-06
2.68059e-06
2.70727e-06
2.78489e-06
2.89241e-06
3.0004e-06
3.08432e-06
3.14152e-06
3.20103e-06
3.31381e-06
3.53092e-06
3.89091e-06
4.5161e-06
5.99799e-06
8.47849e-06
6.53665e-06
4.56821e-06
3.44707e-06
3.01899e-06
2.83053e-06
2.72394e-06
2.66962e-06
2.66998e-06
2.72533e-06
2.82412e-06
2.94309e-06
3.05607e-06
3.15008e-06
3.23923e-06
3.3631e-06
3.5699e-06
3.90186e-06
4.38521e-06
5.60648e-06
7.76588e-06
6.64165e-06
4.66473e-06
3.5084e-06
3.05923e-06
2.86055e-06
2.74292e-06
2.66993e-06
2.64395e-06
2.67106e-06
2.74902e-06
2.86325e-06
2.99041e-06
3.111e-06
3.22459e-06
3.35606e-06
3.54541e-06
3.83167e-06
4.25406e-06
5.28377e-06
7.13666e-06
6.74522e-06
4.76146e-06
3.57106e-06
3.10112e-06
2.89414e-06
2.76958e-06
2.6828e-06
2.63333e-06
2.62973e-06
2.67705e-06
2.77022e-06
2.89268e-06
3.02358e-06
3.151e-06
3.28395e-06
3.451e-06
3.68893e-06
4.05317e-06
5.04422e-06
6.5073e-06
6.84785e-06
4.85979e-06
3.63614e-06
3.14542e-06
2.93139e-06
2.80325e-06
2.70793e-06
2.64025e-06
2.60801e-06
2.62004e-06
2.67904e-06
2.77736e-06
2.89818e-06
3.02418e-06
3.1509e-06
3.29437e-06
3.48984e-06
3.81205e-06
4.79299e-06
5.8659e-06
6.95124e-06
4.96131e-06
3.70473e-06
3.19279e-06
2.97207e-06
2.84254e-06
2.74314e-06
2.66365e-06
2.60887e-06
2.58779e-06
2.60715e-06
2.66715e-06
2.75832e-06
2.86478e-06
2.97432e-06
3.09029e-06
3.23724e-06
3.46521e-06
3.91571e-06
5.32523e-06
7.05718e-06
5.06661e-06
3.77703e-06
3.24315e-06
3.01539e-06
2.88543e-06
2.785e-06
2.69945e-06
2.63009e-06
2.58378e-06
2.56757e-06
2.58583e-06
2.63612e-06
2.70858e-06
2.79055e-06
2.87878e-06
2.99549e-06
3.20376e-06
3.63511e-06
4.85841e-06
7.16637e-06
5.17481e-06
3.8522e-06
3.29554e-06
3.06e-06
2.92965e-06
2.82977e-06
2.7422e-06
2.66532e-06
2.60357e-06
2.56241e-06
2.54674e-06
2.558e-06
2.59245e-06
2.64059e-06
2.69402e-06
2.76368e-06
2.91648e-06
3.3167e-06
4.22326e-06
7.27802e-06
5.284e-06
3.92875e-06
3.34873e-06
3.10458e-06
2.97339e-06
2.87461e-06
2.78717e-06
2.70744e-06
2.63808e-06
2.5831e-06
2.54647e-06
2.53052e-06
2.53522e-06
2.5553e-06
2.57951e-06
2.59539e-06
2.62032e-06
2.7657e-06
3.3113e-06
7.39075e-06
5.39244e-06
4.00539e-06
3.4018e-06
3.14835e-06
3.01583e-06
2.91818e-06
2.83178e-06
2.75159e-06
2.67912e-06
2.61776e-06
2.57074e-06
2.54057e-06
2.52872e-06
2.53334e-06
2.54598e-06
2.54426e-06
2.50213e-06
2.42018e-06
2.33301e-06
7.50381e-06
5.49965e-06
4.08168e-06
3.45461e-06
3.19133e-06
3.05705e-06
2.96038e-06
2.87535e-06
2.79572e-06
2.72226e-06
2.6581e-06
2.60625e-06
2.56973e-06
2.55111e-06
2.55032e-06
2.5621e-06
2.56377e-06
2.52188e-06
2.43368e-06
2.33909e-06
7.61796e-06
5.60652e-06