/*--------------------------------*- C++ -*----------------------------------*\
  =========                 |
  \\      /  F ield         | OpenFOAM: The Open Source CFD Toolbox
   \\    /   O peration     | Website:  https://openfoam.org
    \\  /    A nd           | Version:  8
     \\/     M anipulation  |
\*---------------------------------------------------------------------------*/
FoamFile
{
    version     2.0;
    format      ascii;
    class       surfaceScalarField;
    location    "700";
    object      phi;
}
// * * * * * * * * * * * * * * * * * * * * * * * * * * * * * * * * * * * * * //

dimensions      [1 0 -1 0 0 0 0];

internalField   nonuniform List<scalar> 
16360
(
-2.91336
-0.0579897
-2.84855
-0.0648081
-2.78694
-0.0616211
-2.71525
-0.0716864
-2.61729
-0.0979551
-2.48175
-0.135544
-2.30865
-0.17309
-2.10734
-0.201305
-1.89139
-0.215944
-1.6883
-0.203096
-1.53838
-0.149913
-1.45731
-0.0810729
-1.41831
-0.0390009
-1.40563
-0.0126865
-1.40249
-0.00314368
-1.39482
-0.00767789
-1.3715
-0.0233093
-1.32957
-0.041928
-1.27781
-0.0517672
-1.2264
-0.0513974
-1.17295
-0.0534571
-1.11485
-0.0581123
-1.05788
-0.0569644
-1.0061
-0.0517914
-0.961222
-0.0448852
-0.92411
-0.0371088
-0.894755
-0.0293548
-0.872614
-0.0221592
-0.856794
-0.0158106
-0.846319
-0.0104896
-0.840099
-0.00622086
-0.837122
-0.00297767
-0.836418
-0.00070586
-0.83709
0.000680456
-0.838379
0.00130095
-0.839615
0.00123669
-0.840174
0.000563694
-0.83952
-0.000637673
-0.837204
-0.00231716
-0.832858
-0.00435606
-0.826241
-0.00661765
-0.817269
-0.00898292
-0.805957
-0.0113176
-0.792421
-0.0135303
-0.776866
-0.0155516
-0.759517
-0.0173438
-0.740607
-0.0189147
-0.720327
-0.0202793
-0.698787
-0.0215306
-0.023094
-0.675696
-1.7627
-0.118091
-1.75481
-0.0726858
-1.76876
-0.0476701
-1.77787
-0.0625725
-1.76905
-0.106768
-1.73724
-0.167376
-1.69072
-0.219611
-1.63959
-0.252462
-1.57534
-0.280179
-1.47196
-0.306475
-1.36955
-0.252305
-1.34349
-0.107137
-1.3525
-0.0299797
-1.37162
0.00644912
-1.3831
0.00833392
-1.38121
-0.00956696
-1.35431
-0.0502052
-1.30098
-0.0952757
-1.24111
-0.111617
-1.19321
-0.0993041
-1.14286
-0.103809
-1.08135
-0.119633
-1.02277
-0.115511
-0.970829
-0.103733
-0.926594
-0.0891302
-0.890777
-0.0729251
-0.863011
-0.0571343
-0.842494
-0.0426623
-0.828254
-0.0300564
-0.819189
-0.0195666
-0.814198
-0.0112114
-0.812265
-0.00491292
-0.812455
-0.000530652
-0.813889
0.00213299
-0.815845
0.00326058
-0.817644
0.00301743
-0.818648
0.0015675
-0.818349
-0.000952403
-0.816284
-0.00436797
-0.812113
-0.00850699
-0.805626
-0.0131086
-0.796729
-0.0178801
-0.785489
-0.0225698
-0.772053
-0.0269652
-0.756669
-0.0309267
-0.73964
-0.0343787
-0.721261
-0.0372948
-0.701817
-0.0397216
-0.681527
-0.0418288
-0.0439735
-0.660648
0.317989
-0.0974628
0.23805
0.00725828
0.142862
0.047537
0.043398
0.0368562
-0.016897
-0.0464474
-0.0483712
-0.135906
-0.0900486
-0.177939
-0.176551
-0.165954
-0.35356
-0.103178
-0.641458
-0.0186185
-0.914921
0.0211907
-1.06357
0.0415112
-1.15444
0.0608883
-1.22532
0.0773293
-1.28952
0.072544
-1.32822
0.0291217
-1.31417
-0.0642583
-1.24125
-0.168204
-1.17392
-0.178924
-1.14881
-0.124412
-1.10708
-0.145555
-1.02963
-0.197072
-0.967617
-0.177547
-0.914705
-0.156657
-0.871102
-0.132723
-0.836927
-0.107111
-0.811325
-0.0827525
-0.793213
-0.0607662
-0.781433
-0.0418519
-0.774731
-0.0262617
-0.771943
-0.0139844
-0.772
-0.00485258
-0.773975
0.00142883
-0.777042
0.00519318
-0.780439
0.00666377
-0.783471
0.0060606
-0.785511
0.00360476
-0.786009
-0.000473468
-0.784495
-0.00589011
-0.78063
-0.0123728
-0.774197
-0.0195356
-0.76514
-0.0269297
-0.753561
-0.0341453
-0.73967
-0.0408509
-0.723769
-0.0468273
-0.706203
-0.0519462
-0.687333
-0.0561606
-0.667524
-0.0595285
-0.647126
-0.0622298
-0.0646152
-0.626486
1.75304
-0.0642523
1.78506
-0.0247681
1.86717
-0.0345671
1.97443
-0.0703902
2.0451
-0.117112
2.05771
-0.148519
2.0219
-0.142119
1.94932
-0.0933579
1.85975
-0.0135854
1.77047
0.070672
1.64637
0.145278
1.47128
0.21662
1.24972
0.28242
0.99146
0.335588
0.695006
0.368994
0.341848
0.382284
-0.104794
0.3824
-0.587128
0.31415
-0.934814
0.168732
-1.08055
0.021316
-1.07166
-0.154446
-0.94943
-0.319286
-0.902063
-0.224909
-0.846983
-0.211744
-0.803923
-0.175785
-0.771204
-0.13982
-0.748376
-0.105597
-0.733534
-0.0756005
-0.725083
-0.0503072
-0.721599
-0.0297571
-0.721791
-0.0137773
-0.724592
-0.00205296
-0.729065
0.00590468
-0.734407
0.0105222
-0.739829
0.0120826
-0.744607
0.0108567
-0.748097
0.00711043
-0.749722
0.00115755
-0.749009
-0.00660978
-0.745597
-0.0157861
-0.739272
-0.0258627
-0.730009
-0.0361857
-0.717975
-0.0461686
-0.703476
-0.0553557
-0.686883
-0.063431
-0.66861
-0.0702176
-0.649104
-0.0756671
-0.628793
-0.0798385
-0.608099
-0.0829238
-0.0852588
-0.587456
4.54401
-0.00532509
4.50307
0.0161656
4.45344
0.0150554
4.38312
-6.28976e-05
4.2843
-0.018293
4.16083
-0.0250403
4.02557
-0.00687109
3.88928
0.0429225
3.75308
0.122605
3.59937
0.224381
3.40941
0.335233
3.18187
0.444168
2.92005
0.544257
2.6275
0.628139
2.30659
0.689925
1.96133
0.727524
1.60199
0.741728
1.21374
0.702399
0.779613
0.602877
0.294144
0.506802
-0.283036
0.422724
-0.722026
0.119709
-0.843695
-0.103267
-0.756239
-0.299208
-0.724142
-0.207871
-0.694646
-0.169318
-0.676136
-0.124095
-0.66603
-0.0857356
-0.662132
-0.0542027
-0.66284
-0.02906
-0.666755
-0.00986707
-0.672845
0.00405871
-0.680334
0.013395
-0.6884
0.0185711
-0.696246
0.0199308
-0.703135
0.0177469
-0.70837
0.0123389
-0.711323
0.00411722
-0.711504
-0.00641143
-0.708579
-0.018708
-0.702334
-0.0321213
-0.692782
-0.0457301
-0.680179
-0.0587654
-0.664914
-0.0706249
-0.647443
-0.0809036
-0.628256
-0.0893983
-0.607862
-0.0960584
-0.586751
-0.100948
-0.565417
-0.104262
-0.10636
-0.544315
3.99372
0.05022
3.94562
0.0642592
3.89748
0.0631968
3.83922
0.0582068
3.76546
0.0554511
3.67586
0.0645733
3.57449
0.0944955
3.46794
0.149486
3.36249
0.228056
3.26076
0.326108
3.15823
0.437752
3.04604
0.556355
2.91543
0.674873
2.75852
0.785037
2.5699
0.878537
2.34901
0.948426
2.10221
0.98853
1.81847
0.986126
1.48488
0.936453
1.12983
0.861836
0.785571
0.766989
0.335726
0.569572
-0.195828
0.428299
-0.569474
0.0744212
-0.639336
-0.13802
-0.604023
-0.204646
-0.59038
-0.137717
-0.586788
-0.0893161
-0.588785
-0.0522081
-0.594512
-0.0233381
-0.602786
-0.00158322
-0.612725
0.0139938
-0.623624
0.0243077
-0.634758
0.0297175
-0.645384
0.0305467
-0.654723
0.0270765
-0.662014
0.0196415
-0.666573
0.00868768
-0.667863
-0.00512737
-0.665592
-0.0209725
-0.659589
-0.038119
-0.649976
-0.0553498
-0.637106
-0.0716378
-0.621461
-0.0862585
-0.603583
-0.0987746
-0.584005
-0.108971
-0.563253
-0.116804
-0.541845
-0.122353
-0.520296
-0.12581
-0.127548
-0.499103
3.29579
0.110554
3.24402
0.116033
3.19064
0.11658
3.12983
0.119012
3.05945
0.125824
2.9814
0.142629
2.90087
0.175017
2.82416
0.226197
2.7555
0.296723
2.69624
0.385375
2.64432
0.48967
2.59459
0.606093
2.53976
0.729698
2.47129
0.853522
2.38098
0.968851
2.26303
1.06637
2.11461
1.13695
1.92938
1.17138
1.70151
1.16432
1.44382
1.11954
1.17234
1.03847
0.844723
0.897198
0.52736
0.745655
0.0898361
0.511953
-0.304297
0.256119
-0.501128
-0.00781667
-0.489823
-0.14903
-0.492937
-0.086208
-0.501922
-0.0432235
-0.512953
-0.0123131
-0.525488
0.0109368
-0.539253
0.0277274
-0.553461
0.0385421
-0.567568
0.0438434
-0.580936
0.04391
-0.592794
0.0389442
-0.602327
0.0291693
-0.608688
0.0150363
-0.61115
-0.0026612
-0.609556
-0.0225571
-0.603927
-0.0437525
-0.594528
-0.0647614
-0.58188
-0.0842825
-0.566565
-0.101563
-0.549143
-0.116195
-0.530135
-0.127983
-0.51004
-0.136904
-0.489346
-0.14305
-0.468545
-0.146598
-0.147937
-0.448148
2.71663
0.172051
2.66225
0.170417
2.60855
0.170293
2.55239
0.175179
2.49236
0.185854
2.42953
0.205458
2.36668
0.237871
2.30708
0.285794
2.25347
0.350333
2.20754
0.431298
2.16967
0.527541
2.13862
0.637143
2.11124
0.757082
2.08213
0.882609
2.04424
1.00675
1.99004
1.12057
1.91271
1.21428
1.80558
1.27851
1.66395
1.30595
1.49053
1.29295
1.291
1.23799
1.05495
1.13325
0.806318
0.99429
0.514219
0.804035
0.196965
0.573376
-0.160554
0.349709
-0.373327
0.0637279
-0.38608
-0.0734497
-0.398677
-0.0306334
-0.415112
0.00411437
-0.431934
0.0277685
-0.448813
0.0445992
-0.465535
0.0552577
-0.481886
0.0601803
-0.497405
0.0594316
-0.511373
0.0529206
-0.52284
0.040629
-0.530736
0.0229342
-0.534206
0.000820719
-0.533188
-0.0235768
-0.527976
-0.0489645
-0.519164
-0.0735584
-0.507487
-0.0959572
-0.493533
-0.115526
-0.477762
-0.131964
-0.460598
-0.145143
-0.44245
-0.155053
-0.423727
-0.161767
-0.404875
-0.165439
-0.166441
-0.386376
2.10069
0.229882
2.0526
0.2185
2.00867
0.2142
1.96562
0.218222
1.92221
0.229267
1.87842
0.249245
1.83543
0.280871
1.79505
0.32617
1.7591
0.386299
1.72888
0.461521
1.70516
0.551262
1.68806
0.654237
1.67678
0.768373
1.66894
0.890441
1.66023
1.01546
1.64458
1.13623
1.61506
1.2438
1.56486
1.32869
1.48868
1.38214
1.38449
1.39714
1.25295
1.36953
1.09143
1.29477
0.908337
1.17738
0.698576
1.0138
0.462009
0.809936
0.219899
0.59182
-0.0770277
0.360664
-0.254104
0.103581
-0.282611
-0.00216362
-0.304573
0.02609
-0.32382
0.0470294
-0.341731
0.0624974
-0.358769
0.0722834
-0.375294
0.0767038
-0.391177
0.0753072
-0.40582
0.0675556
-0.418123
0.0529411
-0.426693
0.0315317
-0.430572
0.00471155
-0.429907
-0.0242466
-0.42538
-0.0534839
-0.417913
-0.0810101
-0.40836
-0.105518
-0.397164
-0.126728
-0.384572
-0.14455
-0.370808
-0.158903
-0.356117
-0.169736
-0.340805
-0.177072
-0.325235
-0.181017
-0.181877
-0.309812
1.48645
0.29142
1.44746
0.257509
1.41393
0.247744
1.38348
0.248689
1.35513
0.257614
1.32836
0.276011
1.3036
0.305631
1.28178
0.347974
1.2639
0.404178
1.25069
0.474737
1.24267
0.559292
1.24021
0.656708
1.2434
0.765177
1.25161
0.882248
1.26266
1.00439
1.27261
1.12628
1.27602
1.24039
1.26687
1.33784
1.2397
1.4093
1.19062
1.44622
1.11779
1.44236
1.01954
1.39302
0.898432
1.29849
0.753806
1.15843
0.585669
0.978058
0.403966
0.773515
0.208303
0.556332
-0.0225358
0.334456
-0.156958
0.132241
-0.192281
0.0613576
-0.207994
0.0627421
-0.222475
0.0769719
-0.235519
0.0853187
-0.248291
0.0894838
-0.260958
0.0879721
-0.273154
0.0797511
-0.283825
0.06363
-0.291412
0.0391404
-0.295188
0.00848923
-0.295158
-0.0242812
-0.291958
-0.0566902
-0.286978
-0.0859904
-0.281057
-0.111443
-0.274314
-0.133463
-0.26666
-0.152198
-0.258037
-0.167525
-0.248491
-0.179273
-0.238202
-0.187366
-0.227406
-0.191825
-0.192889
-0.216397
0.855097
0.346647
0.835741
0.276869
0.819206
0.264258
0.806168
0.261745
0.796478
0.267299
0.789431
0.283065
0.784509
0.310566
0.781439
0.351045
0.780538
0.405093
0.782475
0.472775
0.788232
0.553542
0.798739
0.646189
0.814825
0.749092
0.836744
0.860325
0.863609
0.977529
0.892825
1.09707
0.920716
1.2125
0.942459
1.3161
0.953017
1.39875
0.948039
1.45121
0.924572
1.46582
0.880473
1.43712
0.815638
1.36333
0.729501
1.24456
0.621916
1.08567
0.497394
0.898036
0.359526
0.694195
0.206298
0.487713
0.0418996
0.296656
-0.0575005
0.160723
-0.0949576
0.100203
-0.102538
0.0845674
-0.1057
0.0884445
-0.109545
0.0933047
-0.11353
0.0919599
-0.117695
0.0838952
-0.121711
0.0676429
-0.124749
0.042202
-0.127032
0.0107664
-0.127296
-0.0240297
-0.125917
-0.0581002
-0.125044
-0.0868734
-0.124686
-0.111779
-0.124352
-0.133776
-0.123525
-0.153028
-0.121851
-0.169208
-0.119196
-0.181931
-0.115611
-0.190959
-0.111197
-0.196233
-0.197947
-0.106128
0.308949
0.356293
0.302255
0.283582
0.294867
0.271645
0.290692
0.265916
0.290929
0.267067
0.294947
0.279043
0.301321
0.304196
0.309077
0.343283
0.31835
0.39584
0.330018
0.461109
0.345465
0.538103
0.366123
0.625543
0.393208
0.721995
0.427484
0.826039
0.468631
0.936374
0.513999
1.05169
0.56202
1.16449
0.608897
1.26924
0.650127
1.35751
0.681473
1.41986
0.699816
1.44749
0.702463
1.43446
0.687887
1.37791
0.65482
1.27763
0.602545
1.13794
0.532586
0.967999
0.447258
0.779527
0.347954
0.587006
0.236653
0.407938
0.132777
0.264606
0.0614861
0.171505
0.0265039
0.119541
0.0169712
0.09798
0.0197939
0.090509
0.0268427
0.0849231
0.0349823
0.0757803
0.0429323
0.0596982
0.0500472
0.0350635
0.0578153
0.002992
0.0634248
-0.0295361
0.0623926
-0.0570426
0.057652
-0.082138
0.0515975
-0.105715
0.0451659
-0.127337
0.0388136
-0.146679
0.0329367
-0.163339
0.0278382
-0.17683
0.0236384
-0.18676
0.0204077
-0.19299
-0.195639
0.0181
-0.214473
0.306336
-0.206137
0.275221
-0.195907
0.261421
-0.186312
0.256339
-0.178733
0.259478
-0.172221
0.272558
-0.165113
0.297096
-0.155691
0.333858
-0.14254
0.382665
-0.124418
0.442998
-0.100222
0.513899
-0.0689461
0.59426
-0.0297704
0.682827
0.0179949
0.778292
0.0746525
0.879716
0.138257
0.988097
0.206439
1.0963
0.27654
1.19912
0.344929
1.28914
0.407502
1.35728
0.462159
1.39283
0.505761
1.39086
0.535857
1.34782
0.550663
1.26283
0.548805
1.13979
0.530012
0.986791
0.494702
0.814831
0.443717
0.637979
0.379531
0.472123
0.310944
0.333204
0.25209
0.230345
0.211264
0.160366
0.191794
0.117471
0.18962
0.0926704
0.197652
0.0768874
0.210196
0.063263
0.223076
0.0468063
0.233175
0.0249497
0.236954
-0.000802122
0.234255
-0.0268374
0.228646
-0.0514178
0.221204
-0.0746919
0.212385
-0.0969065
0.202892
-0.117846
0.193232
-0.137008
0.183676
-0.153784
0.174436
-0.167578
0.165631
-0.177946
0.157338
-0.184706
-0.187935
0.149616
-0.828798
0.247076
-0.791003
0.237449
-0.760245
0.230634
-0.734234
0.230348
-0.712288
0.237514
-0.692866
0.25314
-0.673815
0.278068
-0.65288
0.312931
-0.628055
0.357864
-0.597667
0.412591
-0.560328
0.476565
-0.51504
0.548967
-0.461163
0.628937
-0.398481
0.715623
-0.327162
0.808393
-0.246167
0.907082
-0.156978
1.00714
-0.0613767
1.10351
0.0380208
1.18974
0.135494
1.25981
0.225558
1.30278
0.30554
1.31088
0.375084
1.27826
0.432761
1.20514
0.476503
1.09605
0.504726
0.958572
0.516104
0.803452
0.510169
0.643916
0.48852
0.493776
0.456796
0.364922
0.423593
0.263531
0.395327
0.188629
0.376534
0.136259
0.368475
0.100715
0.369454
0.0759042
0.376339
0.0563795
0.385345
0.0377993
0.392634
0.0176815
0.395942
-0.00409709
0.395262
-0.0261697
0.391321
-0.047489
0.384739
-0.0681092
0.375949
-0.0881116
0.365398
-0.10729
0.353531
-0.125135
0.340717
-0.14097
0.327292
-0.154144
0.313537
-0.164185
0.299693
-0.170876
-0.174249
0.285996
-1.46514
0.191301
-1.41597
0.188275
-1.37268
0.187346
-1.33339
0.191055
-1.29672
0.200862
-1.2613
0.217695
-1.22548
0.242247
-1.18745
0.274916
-1.14546
0.315865
-1.09784
0.36498
-1.0432
0.421919
-0.98044
0.486189
-0.908741
0.55725
-0.827693
0.634575
-0.737053
0.717754
-0.635807
0.805845
-0.524425
0.895743
-0.404055
0.983132
-0.27683
1.06251
-0.1453
1.1283
-0.0146082
1.17209
0.108651
1.18762
0.217343
1.16957
0.31303
1.10945
0.397653
1.01143
0.468593
0.887635
0.522724
0.749314
0.558003
0.608639
0.574856
0.476915
0.577214
0.36256
0.57123
0.269524
0.562388
0.197464
0.554856
0.143785
0.550904
0.104674
0.550972
0.0758431
0.554151
0.0532041
0.558567
0.0333872
0.562027
0.0142317
0.562926
-0.00499012
0.560837
-0.024088
0.556032
-0.042694
0.54876
-0.0608273
0.53916
-0.0784899
0.527324
-0.0954526
0.513432
-0.111246
0.497731
-0.125269
0.480545
-0.13695
0.46224
-0.145877
0.443202
-0.151846
-0.154858
0.42381
-2.05232
0.140236
-2.0028
0.138761
-1.95556
0.140102
-1.9098
0.145299
-1.86447
0.155539
-1.81841
0.171655
-1.77037
0.194186
-1.71892
0.223471
-1.66264
0.259584
-1.60008
0.302426
-1.52992
0.351762
-1.45097
0.407236
-1.36222
0.468482
-1.26276
0.53513
-1.15173
0.606714
-1.02816
0.682284
-0.892018
0.759588
-0.744117
0.835244
-0.586498
0.904885
-0.421772
0.963562
-0.254566
1.0049
-0.0902903
1.02335
0.0642761
1.01499
0.200361
0.973363
0.321671
0.890129
0.431243
0.778063
0.52396
0.656599
0.596045
0.536559
0.646883
0.426077
0.679399
0.330037
0.698582
0.250335
0.709444
0.186603
0.715995
0.137246
0.720841
0.0998359
0.725248
0.0714304
0.729414
0.0490292
0.732759
0.0300376
0.734346
0.0126437
0.733421
-0.00406888
0.729769
-0.0204372
0.723442
-0.0363627
0.714483
-0.0518581
0.702878
-0.0668792
0.688611
-0.081197
0.671781
-0.09442
0.652602
-0.106081
0.6314
-0.115744
0.608598
-0.123078
0.584648
-0.127901
-0.13019
0.559978
-2.54864
0.0961797
-2.50507
0.0951843
-2.46174
0.0967708
-2.41797
0.101533
-2.37272
0.110287
-2.32477
0.123695
-2.27279
0.142218
-2.21543
0.16612
-2.15134
0.195482
-2.07914
0.230242
-1.99759
0.270199
-1.90545
0.315101
-1.80161
0.364637
-1.68497
0.418477
-1.55441
0.476165
-1.40899
0.536865
-1.24837
0.598972
-1.07311
0.659992
-0.884903
0.716668
-0.68652
0.765178
-0.482619
0.801001
-0.279153
0.81989
-0.0827537
0.8186
0.0958951
0.79472
0.255963
0.730048
0.401171
0.632845
0.528252
0.529525
0.632118
0.43271
0.711782
0.346419
0.769885
0.271928
0.810925
0.209294
0.839573
0.15796
0.859716
0.117107
0.874154
0.0853978
0.884656
0.0609233
0.892139
0.0415398
0.896863
0.0253136
0.898698
0.0108162
0.897432
-0.00279921
0.892962
-0.0159604
0.8853
-0.0286908
0.874456
-0.0410124
0.860445
-0.0528718
0.843321
-0.0640789
0.823248
-0.0743405
0.8005
-0.0833213
0.775457
-0.0906992
0.748582
-0.0962072
0.72035
-0.0996676
-0.101006
0.691165
-2.95728
0.0582134
-2.9203
0.0582048
-2.88308
0.0595577
-2.84456
0.0630009
-2.80347
0.0692004
-2.7584
0.0786274
-2.70783
0.0916471
-2.65018
0.108473
-2.5839
0.129192
-2.50744
0.153786
-2.41936
0.182124
-2.31828
0.214027
-2.2029
0.249269
-2.07201
0.287573
-1.92443
0.328583
-1.75923
0.371674
-1.57604
0.415775
-1.37531
0.459264
-1.15861
0.49998
-0.928799
0.535358
-0.690357
0.562557
-0.449462
0.578998
-0.213693
0.58282
0.00867481
0.572349
0.207375
0.531349
0.387164
0.453047
0.543648
0.373032
0.672786
0.303573
0.774854
0.244348
0.853048
0.193727
0.911702
0.150636
0.955107
0.114551
0.986926
0.0852824
1.01003
0.0622855
1.02654
0.0444045
1.03789
0.0301965
1.04486
0.0183381
1.04784
0.00783831
1.04693
-0.00188054
1.04213
-0.0111619
1.03351
-0.0200737
1.02115
-0.0286545
1.00513
-0.0368612
0.985617
-0.0445612
0.962842
-0.0515604
0.937156
-0.0576352
0.909011
-0.0625569
0.878919
-0.0661147
0.847373
-0.0681172
-0.0683708
0.81474
-3.27688
0.027503
-3.24596
0.0272844
-3.21433
0.0279233
-3.18099
0.0296761
-3.14465
0.0328405
-3.10371
0.0376901
-3.05646
0.044412
-3.00111
0.0531217
-2.93579
0.0638811
-2.85871
0.0766952
-2.76811
0.0915145
-2.66232
0.10824
-2.53982
0.126758
-2.39915
0.146917
-2.23908
0.16851
-2.05863
0.191223
-1.85738
0.214529
-1.63575
0.237635
-1.39523
0.259469
-1.13864
0.27876
-0.87025
0.294171
-0.595939
0.30468
-0.323087
0.309965
-0.0578606
0.307138
0.186952
0.286551
0.40161
0.238388
0.580767
0.193863
0.727414
0.156915
0.84453
0.12724
0.936342
0.10192
1.00714
0.0798249
1.06083
0.0608581
1.10083
0.0452903
1.13007
0.0330387
1.15095
0.0235196
1.1652
0.0159516
1.17392
0.00962583
1.17774
0.00401699
1.17702
-0.00116005
1.17189
-0.00603654
1.1625
-0.010675
1.14895
-0.0151067
1.13141
-0.0193122
1.11008
-0.023229
1.08528
-0.0267617
1.05744
-0.0297972
1.0271
-0.0322098
0.994847
-0.033859
0.961273
-0.0345392
-0.0338413
0.926741
-3.51209
-3.4848
-3.45687
-3.4272
-3.39436
-3.35666
-3.31226
-3.25914
-3.19526
-3.11856
-3.02705
-2.9188
-2.79205
-2.64513
-2.47662
-2.2854
-2.07087
-1.83324
-1.57377
-1.29501
-1.00085
-0.696166
-0.386194
-0.0790649
0.207474
0.44586
0.639728
0.796639
0.923871
1.02578
1.10561
1.16647
1.21176
1.24479
1.26831
1.28427
1.29389
1.2979
1.29674
1.29071
1.28004
1.26493
1.24562
1.22239
1.19562
1.16583
1.13362
1.09977
1.06523
1.03138
0.0081362
-0.00017811
0.00822084
-6.53311e-05
0.00828151
-4.28381e-05
0.00831416
-1.50811e-05
0.00832454
2.58028e-06
0.00831751
1.10029e-05
0.00829616
1.54395e-05
0.00826346
1.82535e-05
0.00822298
1.96384e-05
0.00817869
1.9431e-05
0.00813463
1.78687e-05
0.00809445
1.5518e-05
0.00806106
1.30111e-05
0.00803626
1.09018e-05
0.00802052
9.63258e-06
0.00801293
9.53935e-06
0.00801139
1.08315e-05
0.00801277
1.36145e-05
0.00801338
1.78494e-05
0.00801101
2.17353e-05
0.00800312
2.55525e-05
0.00798852
2.82578e-05
0.00796574
3.06886e-05
0.00793404
3.29851e-05
0.00789407
3.44447e-05
0.00784778
3.44987e-05
0.00779813
3.29137e-05
0.0077487
2.96532e-05
0.00770335
2.48977e-05
0.00766578
1.90394e-05
0.00763906
1.2623e-05
0.00762521
6.27923e-06
0.00762482
6.42513e-07
0.00763684
-3.75498e-06
0.00765871
-6.56471e-06
0.00768663
-7.68786e-06
0.00771612
-7.28073e-06
0.00774264
-5.70251e-06
0.00776229
-3.53764e-06
0.00777243
-1.48361e-06
0.00777212
-1.85049e-07
0.00776242
-2.45251e-07
0.00774663
-2.3499e-06
0.00773017
-7.58411e-06
0.00771969
-1.72665e-05
0.00772048
-3.02944e-05
0.00773216
-3.63522e-05
0.00774698
-9.96144e-06
0.0077612
7.52518e-05
0.000186295
0.00780504
0.00790033
-9.58885e-05
0.00793273
-4.95322e-05
0.00794319
-2.13587e-05
0.00795564
-1.17475e-05
0.00796227
-1.65417e-06
0.00795775
4.43092e-06
0.0079427
6.15209e-06
0.00791976
5.76219e-06
0.00789201
4.91149e-06
0.00786279
4.15647e-06
0.00783564
3.6105e-06
0.00781397
3.41363e-06
0.00780051
3.82142e-06
0.00779685
5.09007e-06
0.00780317
7.36918e-06
0.00781829
1.06757e-05
0.00783982
1.49339e-05
0.00786448
2.01048e-05
0.00788907
2.55395e-05
0.00791096
2.88506e-05
0.00792853
2.97434e-05
0.00793721
3.14629e-05
0.00793396
3.45804e-05
0.00791986
3.64784e-05
0.00789689
3.66943e-05
0.00786746
3.53857e-05
0.00783474
3.25732e-05
0.00780238
2.83883e-05
0.00777427
2.30969e-05
0.00775407
1.70735e-05
0.00774476
1.07346e-05
0.00774819
4.48125e-06
0.00776471
-1.33872e-06
0.00779306
-6.48609e-06
0.00783044
-1.08439e-05
0.00787289
-1.44302e-05
0.00791587
-1.73722e-05
0.00795488
-1.98539e-05
0.00798606
-2.2118e-05
0.00800684
-2.4481e-05
0.00801635
-2.72115e-05
0.00801567
-3.0366e-05
0.00800782
-3.36559e-05
0.00799821
-3.69413e-05
0.00799587
-4.26128e-05
0.00801411
-5.94437e-05
0.00806512
-0.000102239
0.00813927
-0.000175555
0.00817264
-0.000239498
-0.00020531
0.00804492
0.00790215
-2.68897e-05
0.0079181
-2.90203e-05
0.00794668
-1.97133e-05
0.00797023
-1.86221e-05
0.00798868
-1.68849e-05
0.00799726
-1.38423e-05
0.00799382
-1.17965e-05
0.00797984
-1.11009e-05
0.00795879
-1.09241e-05
0.0079348
-1.05105e-05
0.00791198
-9.49228e-06
0.00789396
-7.70635e-06
0.00788351
-5.02131e-06
0.00788225
-1.32209e-06
0.0078904
3.42089e-06
0.00790677
9.10585e-06
0.00792908
1.55019e-05
0.00795446
2.22472e-05
0.00797935
2.88603e-05
0.00799906
3.38377e-05
0.00800973
3.70414e-05
0.00801058
4.0016e-05
0.00800208
4.27479e-05
0.00798438
4.39339e-05
0.0079586
4.32962e-05
0.00792703
4.08528e-05
0.00789278
3.66972e-05
0.0078595
3.10415e-05
0.00783107
2.42091e-05
0.00781111
1.66149e-05
0.00780251
8.67634e-06
0.00780701
7.5851e-07
0.00782481
-6.82059e-06
0.00785451
-1.38787e-05
0.00789321
-2.03475e-05
0.00793688
-2.62063e-05
0.00798089
-3.15079e-05
0.00802069
-3.63636e-05
0.0080524
-4.08593e-05
0.00807353
-4.51899e-05
0.00808345
-4.97476e-05
0.0080836
-5.50043e-05
0.00807667
-6.0936e-05
0.00806542
-6.56003e-05
0.00805267
-6.43543e-05
0.00804617
-5.37573e-05
0.008068
-4.3116e-05
0.00815088
-6.28203e-05
0.00827725
-0.000138397
-0.000218326
0.00821858
0.00796519
-1.8359e-05
0.00799737
-2.89936e-05
0.00803219
-2.65947e-05
0.00805557
-2.5384e-05
0.00806762
-2.49834e-05
0.00806852
-2.35772e-05
0.00805835
-2.19005e-05
0.0080387
-2.07015e-05
0.00801276
-1.98211e-05
0.00798462
-1.86909e-05
0.00795842
-1.68185e-05
0.00793776
-1.39077e-05
0.0079253
-9.80754e-06
0.00792243
-4.47049e-06
0.00792917
2.02777e-06
0.00794417
9.47153e-06
0.00796499
1.74817e-05
0.00798863
2.54218e-05
0.00801123
3.30271e-05
0.00802822
3.96194e-05
0.00803628
4.49508e-05
0.00803512
4.83837e-05
0.00802464
5.05743e-05
0.00800493
5.10387e-05
0.00797731
4.94527e-05
0.00794414
4.58379e-05
0.00790859
4.03485e-05
0.00787437
3.32627e-05
0.00784539
2.49579e-05
0.00782528
1.58631e-05
0.0078169
6.39388e-06
0.00782191
-3.11447e-06
0.00784044
-1.23972e-05
0.00787097
-2.1274e-05
0.0079105
-2.96745e-05
0.00795493
-3.75815e-05
0.0079996
-4.50023e-05
0.00803992
-5.19805e-05
0.00807197
-5.85203e-05
0.00809317
-6.45671e-05
0.00810289
-7.01861e-05
0.00810308
-7.60471e-05
0.00809829
-8.39726e-05
0.00809376
-9.63269e-05
0.00809102
-0.000112587
0.00808575
-0.000124698
0.00808003
-0.000120716
0.00811174
-0.000106841
0.00823841
-0.000125034
-0.000194247
0.00826882
0.00797222
-1.45391e-05
0.00800078
-2.55757e-05
0.00802818
-2.73465e-05
0.00804653
-2.74479e-05
0.00805454
-2.84793e-05
0.00805253
-2.93946e-05
0.00804128
-2.96819e-05
0.00802232
-2.95129e-05
0.00799837
-2.8906e-05
0.00797299
-2.75804e-05
0.00795002
-2.5159e-05
0.00793285
-2.13522e-05
0.00792394
-1.60239e-05
0.0079245
-9.19529e-06
0.00793435
-1.04288e-06
0.00795196
8.1107e-06
0.00797464
1.78401e-05
0.00799863
2.77494e-05
0.0080204
3.69113e-05
0.00803827
4.29335e-05
0.008049
4.79555e-05
0.0080491
5.27329e-05
0.00803851
5.54542e-05
0.00801823
5.55831e-05
0.00798985
5.32836e-05
0.00795593
4.87256e-05
0.00791974
4.21777e-05
0.00788509
3.39936e-05
0.00785589
2.45912e-05
0.0078358
1.43903e-05
0.00782766
3.766e-06
0.00783306
-6.96518e-06
0.00785204
-1.75714e-05
0.00788298
-2.78986e-05
0.00792285
-3.78664e-05
0.00796753
-4.74729e-05
0.00801242
-5.67128e-05
0.00805297
-6.5605e-05
0.00808533
-7.41723e-05
0.00810678
-8.22736e-05
0.00811609
-8.94105e-05
0.00811412
-9.48004e-05
0.00810493
-9.83675e-05
0.00809646
-0.000102715
0.00809719
-0.000113496
0.00810599
-0.000133694
0.00810748
-0.000153808
0.00810665
-0.000157444
0.0081855
-0.000157731
-0.000195758
0.00824713
0.00797784
-1.62243e-05
0.00801284
-2.76941e-05
0.00804354
-3.1511e-05
0.00806534
-3.30254e-05
0.00807629
-3.44125e-05
0.00807599
-3.58201e-05
0.00806554
-3.67456e-05
0.00804708
-3.69484e-05
0.00802361
-3.62926e-05
0.00799876
-3.45531e-05
0.00797632
-3.14365e-05
0.00795965
-2.66919e-05
0.00795116
-2.02083e-05
0.00795196
-1.20563e-05
0.00796175
-2.48052e-06
0.0079789
8.09385e-06
0.00800078
1.91064e-05
0.00802419
2.99555e-05
0.00804531
3.99619e-05
0.00805954
4.75264e-05
0.00806479
5.34742e-05
0.00806093
5.77994e-05
0.00804738
5.98067e-05
0.00802433
5.93298e-05
0.00799334
5.62942e-05
0.00795702
5.08764e-05
0.00791875
4.34092e-05
0.0078824
3.43062e-05
0.00785195
2.39935e-05
0.00783107
1.28776e-05
0.00782252
1.32854e-06
0.00782778
-1.03463e-05
0.00784676
-2.19509e-05
0.00787779
-3.3406e-05
0.00791783
-4.46736e-05
0.00796276
-5.57332e-05
0.00800795
-6.65325e-05
0.00804886
-7.69954e-05
0.00808175
-8.71263e-05
0.00810423
-9.70819e-05
0.00811533
-0.000106961
0.0081152
-0.000116209
0.00810537
-0.000123158
0.00809101
-0.000126353
0.00808326
-0.000128365
0.00809266
-0.00013734
0.00810963
-0.000157813
0.00811054
-0.00017757
0.00815287
-0.000186323
-0.000210085
0.00820877
0.00797702
-1.78921e-05
0.00801213
-2.9556e-05
0.00804117
-3.36652e-05
0.00806087
-3.61294e-05
0.00807017
-3.79431e-05
0.00806856
-3.96507e-05
0.00805716
-4.10407e-05
0.0080383
-4.17449e-05
0.00801514
-4.14116e-05
0.00799131
-3.97164e-05
0.00797047
-3.63503e-05
0.0079558
-3.10803e-05
0.00794946
-2.38271e-05
0.00795237
-1.47135e-05
0.00796397
-4.06984e-06
0.00798248
7.5732e-06
0.00800518
1.94879e-05
0.00802899
3.07165e-05
0.00805042
4.06572e-05
0.00806418
4.98382e-05
0.00806891
5.63754e-05
0.00806426
6.0069e-05
0.00804948
6.15638e-05
0.00802505
6.0601e-05
0.00799272
5.69894e-05
0.00795519
5.09354e-05
0.00791592
4.28315e-05
0.00787887
3.31174e-05
0.00784805
2.22202e-05
0.00782705
1.0579e-05
0.00781854
-1.43343e-06
0.0078239
-1.35777e-05
0.007843
-2.57347e-05
0.00787417
-3.78794e-05
0.00791437
-5.00319e-05
0.00795952
-6.21976e-05
0.008005
-7.43115e-05
0.0080462
-8.61533e-05
0.00807926
-9.73807e-05
0.00810183
-0.000107788
0.00811354
-0.000117635
0.00811557
-0.000127568
0.00810917
-0.000137553
0.00809564
-0.00014558
0.008081
-0.000149347
0.00807954
-0.000152016
0.00809742
-0.000162966
0.00810809
-0.00018317
0.00813489
-0.000200357
-0.000222392
0.00817724
0.007976
-1.90326e-05
0.00801064
-3.11905e-05
0.00803954
-3.53921e-05
0.00805916
-3.858e-05
0.00806898
-4.10833e-05
0.00806856
-4.32652e-05
0.00805881
-4.50492e-05
0.00804194
-4.61025e-05
0.00802107
-4.59899e-05
0.00799981
-4.4291e-05
0.00798168
-4.0656e-05
0.00796969
-3.48619e-05
0.00796581
-2.68719e-05
0.00797071
-1.6874e-05
0.00798369
-5.28646e-06
0.00800275
7.28392e-06
0.00802495
2.00917e-05
0.0080466
3.23212e-05
0.00806395
4.32151e-05
0.00807548
5.157e-05
0.00807933
5.67167e-05
0.00807231
6.08091e-05
0.00805438
6.24097e-05
0.00802685
6.0967e-05
0.00799171
5.67283e-05
0.00795177
5.00543e-05
0.00791057
4.1393e-05
0.00787206
3.1199e-05
0.00784021
1.99496e-05
0.0078185
8.10055e-06
0.00780949
-4.03785e-06
0.00781451
-1.62985e-05
0.00783336
-2.86358e-05
0.00786432
-4.10916e-05
0.00790437
-5.37333e-05
0.00794951
-6.66107e-05
0.00799527
-7.97246e-05
0.00803712
-9.29289e-05
0.00807106
-0.000105791
0.00809432
-0.000117611
0.00810617
-0.000127813
0.00810841
-0.000136677
0.0081041
-0.000145451
0.00809468
-0.000154705
0.00808089
-0.000162393
0.00807139
-0.000166658
0.00808069
-0.000172608
0.00809423
-0.000187416
0.00811559
-0.00020622
-0.000229158
0.00814746
0.0079755
-1.97594e-05
0.00800913
-3.22288e-05
0.00803728
-3.63262e-05
0.00805606
-3.96862e-05
0.00806522
-4.25773e-05
0.00806456
-4.5137e-05
0.00805506
-4.72468e-05
0.00803893
-4.85823e-05
0.00801928
-4.86718e-05
0.00799964
-4.70293e-05
0.00798346
-4.32627e-05
0.00797355
-3.7147e-05
0.00797167
-2.86822e-05
0.00797826
-1.81184e-05
0.00799239
-5.95188e-06
0.00801195
7.14324e-06
0.00803391
2.04264e-05
0.00805463
3.32642e-05
0.00807077
4.4528e-05
0.00808135
5.09979e-05
0.0080832
5.51939e-05
0.00807406
5.95722e-05
0.00805422
6.09992e-05
0.00802487
5.91038e-05
0.00798806
5.43902e-05
0.0079467
4.73182e-05
0.00790439
3.83521e-05
0.00786509
2.80006e-05
0.00783271
1.67982e-05
0.00781064
5.15038e-06
0.00780139
-6.696e-06
0.00780617
-1.86485e-05
0.00782475
-3.07531e-05
0.00785542
-4.312e-05
0.00789517
-5.58588e-05
0.00794007
-6.90158e-05
0.00798579
-8.25521e-05
0.00802808
-9.63607e-05
0.00806317
-0.000110196
0.00808813
-0.000123493
0.00810143
-0.000135296
0.00810396
-0.000144777
0.00809945
-0.000152363
0.00809174
-0.000159837
0.00808121
-0.000167944
0.00806984
-0.000174743
0.00807057
-0.000180642
0.0080803
-0.00019173
0.00809711
-0.000208837
-0.000231594
0.0081211
0.00797518
-2.01541e-05
0.00800771
-3.25755e-05
0.00803489
-3.64231e-05
0.00805296
-3.96954e-05
0.00806174
-4.27644e-05
0.00806122
-4.56422e-05
0.00805251
-4.8101e-05
0.00803782
-4.97477e-05
0.00802017
-5.00618e-05
0.00800299
-4.85165e-05
0.00798953
-4.46942e-05
0.00798236
-3.83871e-05
0.00798298
-2.96399e-05
0.00799158
-1.87728e-05
0.00800705
-6.35441e-06
0.00802719
6.87398e-06
0.00804908
2.00921e-05
0.00806965
3.24887e-05
0.00808579
4.29885e-05
0.00809369