/*--------------------------------*- C++ -*----------------------------------*\
  =========                 |
  \\      /  F ield         | OpenFOAM: The Open Source CFD Toolbox
   \\    /   O peration     | Website:  https://openfoam.org
    \\  /    A nd           | Version:  8
     \\/     M anipulation  |
\*---------------------------------------------------------------------------*/
FoamFile
{
    version     2.0;
    format      ascii;
    class       volScalarField;
    location    "700";
    object      T;
}
// * * * * * * * * * * * * * * * * * * * * * * * * * * * * * * * * * * * * * //

dimensions      [0 0 0 1 0 0 0];

internalField   nonuniform List<scalar> 
8400
(
299.832
299.845
299.855
299.859
299.854
299.84
299.813
299.77
299.709
299.624
299.516
299.39
299.265
299.162
299.1
299.076
299.081
299.104
299.136
299.168
299.198
299.228
299.255
299.278
299.299
299.317
299.336
299.354
299.372
299.391
299.409
299.427
299.443
299.458
299.47
299.48
299.487
299.492
299.495
299.494
299.49
299.482
299.472
299.459
299.443
299.424
299.402
299.378
299.352
299.324
300.021
300.022
300.019
300.014
300.008
300.001
299.992
299.978
299.951
299.905
299.835
299.746
299.65
299.573
299.534
299.521
299.529
299.552
299.583
299.613
299.64
299.665
299.686
299.703
299.716
299.729
299.741
299.753
299.765
299.778
299.79
299.802
299.813
299.822
299.83
299.837
299.842
299.846
299.848
299.848
299.847
299.844
299.84
299.835
299.828
299.82
299.811
299.801
299.79
299.778
299.995
299.99
299.984
299.976
299.972
299.975
299.981
299.986
299.988
299.99
299.974
299.956
299.927
299.886
299.832
299.785
299.762
299.765
299.785
299.805
299.824
299.842
299.856
299.866
299.873
299.88
299.886
299.893
299.9
299.908
299.915
299.922
299.928
299.934
299.939
299.943
299.946
299.948
299.949
299.95
299.949
299.948
299.945
299.942
299.938
299.934
299.928
299.922
299.916
299.909
300
299.998
299.995
299.994
299.995
299.999
300.003
300.007
300.009
300.01
300.01
300.009
300.008
300.004
299.993
299.976
299.953
299.927
299.902
299.899
299.91
299.924
299.933
299.939
299.944
299.948
299.952
299.956
299.961
299.965
299.97
299.975
299.979
299.983
299.986
299.989
299.991
299.993
299.993
299.994
299.994
299.993
299.992
299.99
299.988
299.985
299.981
299.977
299.973
299.968
300.003
300.005
300.01
300.018
300.027
300.037
300.045
300.051
300.055
300.058
300.061
300.062
300.063
300.062
300.058
300.05
300.038
300.021
300.002
299.983
299.968
299.958
299.964
299.972
299.978
299.981
299.984
299.987
299.991
299.994
299.997
300
300.003
300.006
300.008
300.009
300.01
300.011
300.012
300.012
300.012
300.012
300.011
300.01
300.01
300.008
300.007
300.005
300.003
300.001
300.001
300.001
300.002
300.003
300.005
300.006
300.008
300.009
300.01
300.012
300.016
300.021
300.026
300.032
300.038
300.041
300.041
300.038
300.031
300.019
300.005
299.991
299.981
299.985
299.992
299.997
300.001
300.003
300.006
300.008
300.01
300.012
300.014
300.015
300.016
300.017
300.018
300.018
300.018
300.018
300.018
300.018
300.018
300.018
300.017
300.017
300.016
300.015
300.015
300.014
300.002
300.002
300.002
300.002
300.002
300.002
300.002
300.002
300.002
300.002
300.003
300.006
300.009
300.013
300.018
300.023
300.028
300.031
300.032
300.029
300.023
300.012
300.001
299.993
299.993
300.003
300.008
300.011
300.013
300.015
300.017
300.018
300.019
300.02
300.021
300.021
300.022
300.022
300.022
300.022
300.022
300.022
300.021
300.021
300.021
300.02
300.02
300.019
300.019
300.018
300.002
300.002
300.002
300.002
300.002
300.002
300.002
300.001
300.001
300.001
300.001
300.002
300.003
300.005
300.008
300.012
300.016
300.022
300.026
300.029
300.028
300.024
300.016
300.007
299.999
299.998
300.01
300.014
300.017
300.019
300.02
300.021
300.022
300.023
300.024
300.024
300.025
300.025
300.025
300.025
300.025
300.025
300.025
300.025
300.024
300.023
300.023
300.022
300.021
300.021
300.002
300.002
300.002
300.002
300.001
300.001
300.001
300
300
300
300
300
300
300.001
300.003
300.006
300.009
300.014
300.02
300.025
300.028
300.029
300.025
300.018
300.01
300.004
300.003
300.013
300.019
300.021
300.022
300.024
300.025
300.026
300.027
300.028
300.028
300.029
300.029
300.03
300.03
300.03
300.029
300.029
300.028
300.027
300.026
300.025
300.024
300.023
300.003
300.003
300.002
300.002
300.001
300
300
299.999
299.999
299.999
299.998
299.999
299.999
300
300.001
300.003
300.006
300.01
300.016
300.022
300.027
300.03
300.03
300.026
300.019
300.012
300.007
300.006
300.016
300.021
300.023
300.025
300.027
300.028
300.029
300.03
300.032
300.033
300.033
300.034
300.034
300.034
300.033
300.033
300.032
300.031
300.03
300.028
300.027
300.026
300.002
300.002
300.002
300.001
300
300
299.999
299.999
299.998
299.998
299.998
299.999
299.999
300
300.001
300.002
300.005
300.008
300.013
300.019
300.025
300.03
300.032
300.031
300.026
300.02
300.013
300.008
300.009
300.016
300.023
300.025
300.027
300.029
300.03
300.032
300.034
300.035
300.036
300.036
300.036
300.036
300.037
300.036
300.036
300.035
300.033
300.032
300.03
300.029
300.001
300.001
300.001
300.001
300
300
300
300
299.999
299.999
299.999
300
300
300.001
300.002
300.003
300.005
300.008
300.012
300.018
300.024
300.03
300.034
300.034
300.031
300.026
300.019
300.012
300.009
300.01
300.015
300.021
300.025
300.028
300.03
300.031
300.033
300.034
300.035
300.035
300.035
300.036
300.037
300.038
300.038
300.037
300.036
300.035
300.033
300.031
299.999
299.999
300
300
300.001
300.001
300.001
300.002
300.002
300.002
300.002
300.002
300.002
300.002
300.003
300.004
300.006
300.008
300.012
300.018
300.024
300.031
300.035
300.037
300.035
300.031
300.024
300.017
300.012
300.01
300.011
300.015
300.019
300.023
300.026
300.028
300.03
300.031
300.032
300.033
300.034
300.035
300.037
300.038
300.038
300.038
300.037
300.036
300.034
300.033
300
300
300.002
300.003
300.004
300.005
300.005
300.006
300.006
300.006
300.005
300.005
300.005
300.005
300.006
300.007
300.008
300.01
300.014
300.019
300.026
300.032
300.036
300.039
300.038
300.034
300.028
300.022
300.016
300.012
300.012
300.013
300.015
300.018
300.021
300.024
300.026
300.028
300.029
300.031
300.033
300.034
300.036
300.038
300.038
300.039
300.038
300.037
300.036
300.034
300.006
300.005
300.007
300.008
300.009
300.01
300.011
300.011
300.011
300.011
300.01
300.01
300.01
300.01
300.01
300.011
300.012
300.014
300.018
300.022
300.028
300.033
300.038
300.04
300.04
300.037
300.032
300.026
300.02
300.016
300.014
300.014
300.015
300.017
300.019
300.021
300.024
300.026
300.028
300.03
300.032
300.034
300.036
300.038
300.039
300.039
300.039
300.038
300.037
300.035
300.015
300.014
300.016
300.016
300.017
300.018
300.018
300.018
300.018
300.017
300.017
300.017
300.016
300.016
300.016
300.017
300.018
300.02
300.023
300.026
300.031
300.035
300.039
300.042
300.041
300.039
300.034
300.029
300.024
300.021
300.018
300.018
300.018
300.019
300.02
300.022
300.024
300.026
300.028
300.031
300.033
300.035
300.037
300.038
300.039
300.04
300.04
300.039
300.038
300.037
300.026
300.025
300.027
300.028
300.028
300.028
300.028
300.028
300.027
300.026
300.026
300.025
300.024
300.024
300.024
300.024
300.025
300.026
300.028
300.031
300.034
300.037
300.04
300.042
300.042
300.04
300.036
300.032
300.028
300.025
300.023
300.022
300.022
300.023
300.024
300.025
300.027
300.029
300.031
300.033
300.035
300.037
300.038
300.039
300.04
300.041
300.04
300.04
300.039
300.037
300.039
300.039
300.04
300.04
300.041
300.041
300.04
300.039
300.038
300.037
300.035
300.034
300.033
300.032
300.031
300.03
300.03
300.031
300.032
300.034
300.036
300.038
300.04
300.042
300.042
300.04
300.037
300.034
300.031
300.029
300.028
300.027
300.027
300.028
300.028
300.03
300.031
300.033
300.034
300.036
300.037
300.039
300.04
300.041
300.041
300.041
300.041
300.04
300.039
300.038
300.051
300.051
300.052
300.052
300.053
300.052
300.051
300.05
300.048
300.046
300.044
300.042
300.04
300.038
300.036
300.034
300.033
300.033
300.033
300.034
300.035
300.037
300.039
300.04
300.041
300.04
300.038
300.036
300.034
300.033
300.032
300.032
300.032
300.032
300.033
300.034
300.035
300.036
300.037
300.038
300.039
300.04
300.041
300.041
300.041
300.041
300.041
300.04
300.039
300.038
300.057
300.057
300.059
300.059
300.059
300.059
300.058
300.056
300.054
300.051
300.048
300.045
300.042
300.039
300.036
300.033
300.031
300.029
300.029
300.029
300.03
300.032
300.034
300.037
300.039
300.038
300.037
300.037
300.036
300.036
300.035
300.035
300.035
300.036
300.036
300.037
300.037
300.038
300.038
300.039
300.039
300.039
300.04
300.04
300.039
300.039
300.038
300.038
300.037
300.036
303.149
303.147
303.146
303.144
303.143
303.141
303.139
303.138
303.136
303.135
303.133
303.132
303.13
303.129
303.127
303.126
303.124
303.123
303.121
303.12
303.119
303.117
303.116
303.115
303.114
303.113
303.111
303.11
303.109
303.108
303.107
303.106
303.105
303.104
303.103
303.102
303.101
303.1
303.099
303.098
303.097
303.096
303.095
303.094
303.093
303.093
303.092
303.091
303.091
303.091
303.15
303.15
303.15
303.15
303.15
303.15
303.15
303.15
303.149
303.149
303.149
303.149
303.149
303.149
303.149
303.148
303.148
303.148
303.148
303.148
303.147
303.147
303.147
303.146
303.146
303.145
303.145
303.145
303.144
303.144
303.143
303.143
303.143
303.142
303.142
303.141
303.141
303.14
303.14
303.14
303.139
303.139
303.138
303.138
303.138
303.137
303.137
303.137
303.136
303.136
303.15
303.15
303.15
303.15
303.15
303.15
303.15
303.15
303.15
303.15
303.15
303.15
303.15
303.15
303.15
303.15
303.15
303.15
303.15
303.15
303.15
303.15
303.15
303.15
303.15
303.15
303.149
303.149
303.149
303.149
303.149
303.149
303.149
303.149
303.149
303.149
303.148
303.148
303.148
303.148
303.148
303.148
303.148
303.148
303.147
303.147
303.147
303.147
303.147
303.147
303.15
303.15
303.15
303.15
303.15
303.15
303.15
303.15
303.15
303.15
303.15
303.15
303.15
303.15
303.15
303.15
303.15
303.15
303.15
303.15
303.15
303.15
303.15
303.15
303.15
303.15
303.15
303.15
303.15
303.15
303.15
303.15
303.15
303.15
303.15
303.15
303.15
303.15
303.15
303.15
303.15
303.15
303.15
303.15
303.15
303.15
303.15
303.15
303.149
303.149
303.15
303.15
303.15
303.15
303.15
303.15
303.15
303.15
303.15
303.15
303.15
303.15
303.15
303.15
303.15
303.15
303.15
303.15
303.15
303.15
303.15
303.15
303.15
303.15
303.15
303.15
303.15
303.15
303.15
303.15
303.15
303.15
303.15
303.15
303.15
303.15
303.15
303.15
303.15
303.15
303.15
303.15
303.15
303.15
303.15
303.15
303.15
303.15
303.15
303.15
303.15
303.15
303.15
303.15
303.15
303.15
303.15
303.15
303.15
303.15
303.15
303.15
303.15
303.15
303.15
303.15
303.15
303.15
303.15
303.15
303.15
303.15
303.15
303.15
303.15
303.15
303.15
303.15
303.15
303.15
303.15
303.15
303.15
303.15
303.15
303.15
303.15
303.15
303.15
303.15
303.15
303.15
303.15
303.15
303.15
303.15
303.15
303.15
303.15
303.15
303.15
303.15
303.15
303.15
303.15
303.15
303.15
303.15
303.15
303.15
303.15
303.15
303.15
303.15
303.15
303.15
303.15
303.15
303.15
303.15
303.15
303.15
303.15
303.15
303.15
303.15
303.15
303.15
303.15
303.15
303.15
303.15
303.15
303.15
303.15
303.15
303.15
303.15
303.15
303.15
303.15
303.15
303.15
303.15
303.15
303.15
303.15
303.15
303.15
303.15
303.15
303.15
303.15
303.15
303.15
303.15
303.15
303.15
303.15
303.15
303.15
303.15
303.15
303.15
303.15
303.15
303.15
303.15
303.15
303.15
303.15
303.15
303.15
303.15
303.15
303.15
303.15
303.15
303.15
303.15
303.15
303.15
303.15
303.15
303.15
303.15
303.15
303.15
303.15
303.15
303.15
303.15
303.15
303.15
303.15
303.15
303.15
303.15
303.15
303.15
303.15
303.15
303.15
303.15
303.15
303.15
303.15
303.15
303.15
303.15
303.15
303.15
303.15
303.15
303.15
303.15
303.15
303.15
303.15
303.15
303.15
303.15
303.15
303.15
303.15
303.15
303.15
303.15
303.15
303.15
303.15
303.15
303.15
303.15
303.15
303.15
303.15
303.15
303.15
303.15
303.15
303.15
303.15
303.15
303.15
303.15
303.15
303.15
303.15
303.15
303.15
303.15
303.15
303.15
303.15
303.15
303.15
303.15
303.15
303.15
303.15
303.15
303.15
303.15
303.15
303.15
303.15
303.15
303.15
303.15
303.15
303.15
303.15
303.15
303.15
303.15
303.15
303.15
303.15
303.15
303.15
303.15
303.15
303.15
303.15
303.15
303.15
303.15
303.15
303.15
303.15
303.15
303.15
303.15
303.15
303.15
303.15
303.15
303.15
303.15
303.15
303.15
303.15
303.15
303.15
303.15
303.15
303.15
303.15
303.15
303.15
303.15
303.15
303.15
303.15
303.15
303.15
303.15
303.15
303.15
303.15
303.15
303.15
303.15
303.15
303.15
303.15
303.15
303.15
303.15
303.15
303.15
303.15
303.15
303.15
303.15
303.15
303.15
303.15
303.15
303.15
303.15
303.15
303.15
303.15
303.15
303.15
303.15
303.15
303.15
303.15
303.15
303.15
303.15
303.15
303.15
303.15
303.15
303.15
303.15
303.15
303.15
303.15
303.15
303.15
303.15
303.15
303.15
303.15
303.15
303.15
303.15
303.15
303.15
303.15
303.15
303.15
303.15
303.15
303.15
303.15
303.15
303.15
303.15
303.15
303.15
303.15
303.15
303.15
303.15
303.15
303.15
303.15
303.15
303.15
303.15
303.15
303.15
303.15
303.15
303.15
303.15
303.15
303.15
303.15
303.15
303.15
303.15
303.15
303.15
303.15
303.15
303.15
303.15
303.15
303.15
303.15
303.15
303.15
303.15
303.15
303.15
303.15
303.15
303.15
303.15
303.15
303.15
303.15
303.15
303.15
303.15
303.15
303.15
303.15
303.15
303.15
303.15
303.15
303.15
303.15
303.15
303.15
303.15
303.15
303.15
303.15
303.15
303.15
303.15
303.15
303.15
303.15
303.15
303.15
303.15
303.15
303.15
303.15
303.15
303.15
303.15
303.15
303.15
303.15
303.15
303.15
303.15
303.15
303.15
303.15
303.15
303.15
303.15
303.15
303.15
303.15
303.15
303.15
303.15
303.15
303.15
303.15
303.15
303.15
303.15
303.15
303.15
303.15
303.15
303.15
303.15
303.15
303.15
303.15
303.15
303.15
303.15
303.15
303.15
303.15
303.15
303.15
303.15
303.15
303.15
303.15
303.15
303.15
303.15
303.15
303.15
303.15
303.15
303.15
303.15
303.15
303.15
303.15
303.15
303.15
303.15
303.15
303.15
303.15
303.15
303.15
303.15
303.15
303.15
303.15
303.15
303.15
303.15
303.15
303.15
303.15
303.15
303.15
303.15
303.15
303.15
303.15
303.15
303.15
303.15
303.15
303.15
303.15
303.15
303.15
303.15
303.15
303.15
303.15
303.15
303.15
303.15
303.15
303.15
303.15
303.15
303.15
303.15
303.15
303.15
303.15
303.15
303.15
303.15
303.15
303.15
303.15
303.15
303.15
303.15
303.15
303.15
303.15
303.15
303.15
303.15
303.15
303.15
303.15
303.15
303.15
303.15
303.15
303.15
303.15
303.15
303.15
303.15
303.15
303.15
303.15
303.15
303.15
303.15
303.15
303.15
303.15
303.15
303.15
303.15
303.15
303.15
303.15
303.15
303.15
303.15
303.15
303.15
303.15
303.15
303.15
303.15
303.15
303.15
303.15
303.15
303.15
303.15
303.15
303.15
303.15
303.15
303.15
303.15
303.15
303.15
303.15
303.15
303.15
303.15
303.15
303.15
303.15
303.15
303.15
303.15
303.149
303.149
303.149
303.149
303.149
303.149
303.149
303.149
303.15
303.15
303.15
303.15
303.15
303.15
303.15
303.15
303.15
303.15
303.15
303.15
303.15
303.15
303.15
303.15
303.15
303.15
303.15
303.15
303.15
303.15
303.15
303.15
303.15
303.15
303.149
303.149
303.149
303.149
303.149
303.149
303.149
303.149
303.149
303.148
303.148
303.148
303.148
303.148
303.148
303.147
303.147
303.147
303.147
303.146
303.146
303.146
303.145
303.145
303.15
303.15
303.15
303.15
303.15
303.15
303.15
303.15
303.15
303.149
303.149
303.149
303.149
303.149
303.149
303.148
303.148
303.148
303.148
303.148
303.147
303.147
303.147
303.146
303.146
303.145
303.145
303.145
303.144
303.144
303.143
303.143
303.142
303.142
303.141
303.141
303.14
303.14
303.139
303.139
303.138
303.138
303.137
303.137
303.136
303.136
303.135
303.134
303.133
303.133
303.149
303.147
303.146
303.144
303.142
303.141
303.139
303.138
303.136
303.135
303.133
303.132
303.13
303.129
303.127
303.126
303.124
303.123
303.121
303.12
303.119
303.117
303.116
303.115
303.114
303.112
303.111
303.11
303.109
303.108
303.107
303.106
303.105
303.104
303.103
303.102
303.101
303.1
303.099
303.098
303.097
303.096
303.095
303.094
303.093
303.092
303.091
303.09
303.089
303.088
302.513
301.523
300.032
298.457
297.063
295.983
295.246
294.807
294.587
294.497
294.46
294.419
294.371
294.538
295.155
295.62
296.053
296.501
296.822
296.874
302.546
301.577
300.1
298.514
297.098
296.001
295.256
294.818
294.602
294.516
294.479
294.433
294.381
294.5
294.989
295.423
295.887
296.374
296.731
296.797
302.577
301.631
300.167
298.57
297.132
296.018
295.268
294.831
294.62
294.537
294.499
294.447
294.388
294.478
294.878
295.295
295.77
296.287
296.663
296.737
302.608
301.688
300.237
298.628
297.169
296.039
295.283
294.848
294.64
294.561
294.52
294.461
294.392
294.452
294.769
295.188
295.658
296.2
296.596
296.676
302.638
301.747
300.311
298.692
297.213
296.068
295.304
294.869
294.665
294.586
294.543
294.474
294.393
294.42
294.671
295.09
295.542
296.111
296.524
296.612
302.669
301.81
300.395
298.769
297.27
296.107
295.335
294.898
294.694
294.615
294.567
294.489
294.394
294.392
294.587
294.985
295.421
296.011
296.453
296.546
302.701
301.879
300.489
298.862
297.344
296.163
295.378
294.935
294.729
294.648
294.596
294.508
294.4
294.371
294.514
294.862
295.3
295.902
296.379
296.48
302.735
301.954
300.6
298.976
297.443
296.24
295.437
294.983
294.77
294.686
294.63
294.534
294.414
294.361
294.458
294.749
295.185
295.788
296.303
296.413
302.769
302.038
300.728
299.118
297.571
296.344
295.518
295.046
294.822
294.731
294.671
294.571
294.439
294.362
294.42
294.659
295.085
295.675
296.227
296.344
302.805
302.13
300.877
299.293
297.737
296.481
295.625
295.127
294.885
294.785
294.722
294.621
294.479
294.38
294.399
294.594
295.009
295.571
296.155
296.275
302.841
302.229
301.048
299.503
297.945
296.66
295.765
295.231
294.963
294.848
294.783
294.687
294.541
294.421
294.402
294.555
294.963
295.484
296.088
296.208
302.877
302.334
301.239
299.752
298.202
296.887
295.946
295.366
295.062
294.925
294.855
294.767
294.628
294.491
294.448
294.542
294.922
295.418
296.028
296.142
302.911
302.443
301.449
300.04
298.513
297.171
296.177
295.541
295.188
295.02
294.938
294.859
294.735
294.593
294.527
294.564
294.887
295.376
295.976
296.077
302.944
302.553
301.672
300.362
298.878
297.519
296.469
295.765
295.352
295.138
295.033
294.957
294.852
294.721
294.64
294.642
294.909
295.364
295.93
296.014
302.974
302.659
301.902
300.713
299.296
297.935
296.832
296.054
295.565
295.29
295.147
295.061
294.974
294.866
294.787
294.792
294.986
295.388
295.887
295.95
303
302.759
302.128
301.081
299.761
298.422
297.278
296.422
295.845
295.492
295.291
295.178
295.095
295.012
294.948
294.963
295.101
295.442
295.847
295.887
303.022
302.848
302.343
301.452
300.26
298.976
297.812
296.884
296.214
295.765
295.484
295.318
295.217
295.147
295.1
295.115
295.231
295.509
295.804
295.823
303.039
302.923
302.537
301.81
300.774
299.585
298.434
297.454
296.692
296.138
295.754
295.504
295.351
295.267
295.23
295.249
295.35
295.558
295.757
295.76
303.052
302.985
302.705
302.138
301.278
300.223
299.13
298.133
297.299
296.639
296.138
295.774
295.53
295.391
295.335
295.348
295.428
295.561
295.703
295.696
303.061
303.032
302.841
302.423
301.747
300.858
299.872
298.907
298.038
297.295
296.677
296.179
295.805
295.56
295.44
295.42
295.466
295.549
295.64
295.633
303.066
303.066
302.945
302.655
302.154
301.451
300.616
299.739
298.892
298.11
297.403
296.776
296.248
295.851
295.609
295.513
295.515
295.561
295.583
295.568
303.068
303.088
303.02
302.832
302.485
301.966
301.307
300.569
299.808
299.055
298.32
297.606
296.938
296.366
295.952
295.725
295.658
295.679
295.706
295.509
303.068
303.102
303.071
302.958
302.733
302.378
301.898
301.328
300.705
300.053
299.372
298.656
297.915
297.203
296.609
296.21
296.032
296.024
296.105
295.81
303.067
303.11
303.102
303.04
302.906
302.681
302.359
301.957
301.496
300.994
300.444
299.826
299.128
298.381
297.676
297.128
296.818
296.763
296.923
297.194
303.065
303.114
303.121
303.091
303.017
302.885
302.687
302.428
302.12
301.775
301.39
300.943
300.401
299.76
299.083
298.493
298.105
297.994
298.203
298.826
303.062
303.115
303.13
303.119
303.082
303.011
302.899
302.746
302.559
302.347
302.111
301.838
301.5
301.066
300.554
300.059
299.701
299.562
299.72
300.304
303.059
303.114
303.135
303.134
303.117
303.082
303.024
302.941
302.837
302.718
302.588
302.444
302.273
302.049
301.757
301.439
301.184
301.072
301.172
301.602
303.056
303.113
303.136
303.141
303.135
303.119
303.091
303.051
302.997
302.935
302.868
302.799
302.725
302.635
302.517
302.369
302.227
302.139
302.165
302.481
303.053
303.112
303.136
303.144
303.143
303.137
303.125
303.106
303.081
303.051
303.018
302.986
302.954
302.922
302.885
302.834
302.765
302.68
302.614
302.793
303.05
303.11
303.136
303.145
303.147
303.145
303.14
303.132
303.121
303.108
303.092
303.077
303.062
303.047
303.033
303.012
302.977
302.914
302.838
302.916
303.048
303.108
303.135
303.145
303.148
303.148
303.146
303.143
303.139
303.133
303.126
303.119
303.111
303.102
303.093
303.08
303.057
303.018
302.966
302.981
303.045
303.106
303.134
303.145
303.148
303.149
303.149
303.148
303.146
303.144
303.141
303.137
303.132
303.126
303.118
303.106
303.088
303.063
303.029
303.012
303.043
303.105
303.134
303.145
303.148
303.149
303.149
303.149
303.149
303.148
303.146
303.144
303.141
303.136
303.128
303.117
303.1
303.078
303.05
303.024
303.041
303.103
303.133
303.144
303.148
303.149
303.15
303.15
303.149
303.149
303.148
303.147
303.144
303.14
303.133
303.121
303.104
303.082
303.053
303.027
303.039
303.102
303.132
303.144
303.148
303.149
303.15
303.15
303.15
303.15
303.149
303.148
303.146
303.142
303.135
303.124
303.106
303.082
303.052
303.027
303.037
303.101
303.131
303.144
303.148
303.149
303.15
303.15
303.15
303.15
303.149
303.149
303.147
303.143
303.136
303.125
303.107
303.082
303.049
303.023
303.035
303.099
303.131
303.144
303.148
303.149
303.15
303.15
303.15
303.15
303.15
303.149
303.147
303.144
303.137
303.126
303.108
303.082
303.047
303.018
303.034
303.098
303.13
303.143
303.148
303.149
303.15
303.15
303.15
303.15
303.15
303.149
303.148
303.144
303.138
303.127
303.109
303.083
303.047
303.01
303.033
303.098
303.13
303.143
303.148
303.149
303.15
303.15
303.15
303.15
303.15
303.149
303.148
303.145
303.139
303.128
303.11
303.084
303.048
303.003
303.031
303.097
303.129
303.143
303.148
303.149
303.15
303.15
303.15
303.15
303.15
303.149
303.148
303.145
303.14
303.129
303.111
303.086
303.049
303.001
303.03
303.096
303.129
303.143
303.148
303.149
303.15
303.15
303.15
303.15
303.15
303.149
303.148
303.146
303.14
303.13
303.113
303.087
303.051
303.003
303.03
303.096
303.129
303.143
303.148
303.149
303.15
303.15
303.15
303.15
303.15
303.149
303.149
303.146
303.141
303.131
303.114
303.088
303.052
303.005
303.029
303.095
303.128
303.143
303.148
303.149
303.15
303.15
303.15
303.15
303.15
303.15
303.149
303.146
303.141
303.131
303.115
303.09
303.054
303.006
303.028
303.095
303.128
303.142
303.148
303.149
303.15
303.15
303.15
303.15
303.15
303.15
303.149
303.147
303.142
303.132
303.116
303.091
303.055
303.006
303.027
303.095
303.128
303.142
303.148
303.149
303.15
303.15
303.15
303.15
303.15
303.15
303.149
303.147
303.142
303.133
303.117
303.092
303.056
303.007
303.027
303.095
303.128
303.142
303.148
303.149
303.15
303.15
303.15
303.15
303.15
303.15
303.149
303.147
303.143
303.134
303.118
303.093
303.058
303.007
303.027
303.095
303.128
303.142
303.148
303.149
303.15
303.15
303.15
303.15
303.15
303.15
303.149
303.147
303.143
303.135
303.119
303.095
303.059
303.008
303.026
303.095
303.128
303.142
303.148
303.149
303.15
303.15
303.15
303.15
303.15
303.15
303.149
303.148
303.144
303.136
303.121
303.097
303.06
303.009
303.025
303.095
303.128
303.142
303.148
303.149
303.15
303.15
303.15
303.15
303.15
303.15
303.149
303.148
303.144
303.136
303.122
303.098
303.062
303.01
303.025
303.096
303.127
303.142
303.148
303.149
303.15
303.15
303.15
303.15
303.15
303.15
303.149
303.148
303.145
303.137
303.123
303.1
303.064
303.011
303.024
303.096
303.127
303.142
303.148
303.149
303.15
303.15
303.15
303.15
303.15
303.15
303.149
303.148
303.145
303.138
303.124
303.101
303.065
303.012
303.024
303.097
303.127
303.142
303.148
303.149
303.15
303.15
303.15
303.15
303.15
303.15
303.149
303.148
303.145
303.139
303.126
303.103
303.067
303.013
303.023
303.097
303.127
303.142
303.148
303.149
303.15
303.15
303.15
303.15
303.15
303.15
303.15
303.148
303.146
303.139
303.127
303.104
303.068
303.014
303.023
303.098
303.128
303.142
303.148
303.149
303.15
303.15
303.15
303.15
303.15
303.15
303.15
303.149
303.146
303.14
303.128
303.106
303.07
303.015
303.023
303.098
303.128
303.142
303.148
303.149
303.15
303.15
303.15
303.15
303.15
303.15
303.15
303.149
303.146
303.141
303.129
303.107
303.071
303.016
303.023
303.098
303.128
303.142
303.148
303.149
303.15
303.15
303.15
303.15
303.15
303.15
303.15
303.149
303.147
303.141
303.13
303.108
303.073
303.018
303.023
303.098
303.128
303.142
303.148
303.149
303.15
303.15
303.15
303.15
303.15
303.15
303.15
303.149
303.147
303.142
303.131
303.11
303.074
303.019
303.024
303.099
303.128
303.142
303.148
303.149
303.15
303.15
303.15
303.15
303.15
303.15
303.15
303.149
303.147
303.142
303.131
303.111
303.076
303.02
303.024
303.099
303.128
303.142
303.148
303.149
303.15
303.15
303.15
303.15
303.15
303.15
303.15
303.149
303.147
303.143
303.132
303.112
303.077
303.021
303.024
303.099
303.128
303.142
303.148
303.149
303.15
303.15
303.15
303.15
303.15
303.15
303.15
303.149
303.147
303.143
303.133
303.113
303.078
303.023
303.025
303.099
303.128
303.142
303.148
303.149
303.15
303.15
303.15
303.15
303.15
303.15
303.15
303.149
303.148
303.143
303.133
303.114
303.079
303.024
303.025
303.099
303.128
303.142
303.148
303.149
303.15
303.15
303.15
303.15
303.15
303.15
303.15
303.149
303.148
303.144
303.134
303.115
303.08
303.025
303.026
303.1
303.128
303.142
303.148
303.149
303.15
303.15
303.15
303.15
303.15
303.15
303.15
303.149
303.148
303.144
303.134
303.115
303.081
303.025
303.026
303.1
303.129
303.143
303.148
303.149
303.15
303.15
303.15
303.15
303.15
303.15
303.15
303.149
303.148
303.144
303.135
303.116
303.082
303.026
303.027
303.1
303.129
303.143
303.148
303.149
303.15
303.15
303.15
303.15
303.15
303.15
303.15
303.149
303.148
303.144
303.135
303.116
303.082
303.027
303.027
303.101
303.129
303.143
303.148
303.149
303.15
303.15
303.15
303.15
303.15
303.15
303.15
303.149
303.148
303.144
303.135
303.116
303.083
303.027
303.028
303.101
303.129
303.143
303.148
303.149
303.15
303.15
303.15
303.15
303.15
303.15
303.15
303.149
303.148
303.144
303.135
303.117
303.083
303.028
303.028
303.101
303.129
303.143
303.148
303.149
303.15
303.15
303.15
303.15
303.15
303.15
303.15
303.149
303.148
303.144
303.136
303.117
303.083
303.028
303.029
303.102
303.13
303.143
303.148
303.149
303.15
303.15
303.15
303.15
303.15
303.15
303.15
303.149
303.148
303.145
303.136
303.117
303.083
303.028
303.03
303.102
303.13
303.143
303.148
303.149
303.15
303.15
303.15
303.15
303.15
303.15
303.15
303.149
303.148
303.145
303.136
303.117
303.083
303.029
303.03
303.102
303.13
303.143
303.148
303.149
303.15
303.15
303.15
303.15
303.15
303.15
303.15
303.149
303.148
303.145
303.136
303.117
303.083
303.029
303.031
303.103
303.13
303.143
303.148
303.149
303.15
303.15
303.15
303.15
303.15
303.15
303.15
303.149
303.148
303.145
303.136
303.117
303.083
303.029
303.031
303.103
303.13
303.143
303.148
303.149
303.15
303.15
303.15
303.15
303.15
303.15
303.15
303.149
303.148
303.145
303.136
303.117
303.083
303.029
303.032
303.104
303.131
303.143
303.148
303.15
303.15
303.15
303.15
303.15
303.15
303.15
303.15
303.149
303.148
303.145
303.136
303.117
303.083
303.029
303.033
303.104
303.131
303.144
303.148
303.15
303.15
303.15
303.15
303.15
303.15
303.15
303.15
303.149
303.148
303.145
303.136
303.118
303.084
303.03
303.033
303.105
303.131
303.144
303.148
303.15
303.15
303.15
303.15
303.15
303.15
303.15
303.15
303.149
303.148
303.145
303.137
303.118
303.084
303.03
303.034
303.105
303.131
303.144
303.148
303.15
303.15
303.15
303.15
303.15
303.15
303.15
303.15
303.15
303.148
303.145
303.137
303.118
303.084
303.03
303.035
303.105
303.132
303.144
303.148
303.15
303.15
303.15
303.15
303.15
303.15
303.15
303.15
303.15
303.148
303.145
303.137
303.119
303.085
303.031
303.035
303.106
303.132
303.144
303.148
303.15
303.15
303.15
303.15
303.15
303.15
303.15
303.15
303.15
303.148
303.145
303.137
303.119
303.085
303.031
303.036
303.106
303.132
303.144
303.148
303.15
303.15
303.15
303.15
303.15
303.15
303.15
303.15
303.15
303.148
303.145
303.137
303.119
303.086
303.032
303.036
303.106
303.132
303.144
303.148
303.15
303.15
303.15
303.15
303.15
303.15
303.15
303.15
303.15
303.149
303.145
303.137
303.12
303.086
303.032
303.037
303.107
303.133
303.144
303.148
303.15
303.15
303.15
303.15
303.15
303.15
303.15
303.15
303.15
303.149
303.146
303.138
303.12
303.086
303.032
303.038
303.107
303.133
303.144
303.148
303.15
303.15
303.15
303.15
303.15
303.15
303.15
303.15
303.15
303.149
303.146
303.138
303.12
303.087
303.033
303.038
303.107
303.133
303.145
303.149
303.15
303.15
303.15
303.15
303.15
303.15
303.15
303.15
303.15
303.149
303.146
303.138
303.12
303.087
303.033
303.039
303.108
303.133
303.145
303.149
303.15
303.15
303.15
303.15
303.15
303.15
303.15
303.15
303.15
303.149
303.146
303.138
303.121
303.087
303.034
303.04
303.108
303.133
303.145
303.149
303.15
303.15
303.15
303.15
303.15
303.15
303.15
303.15
303.15
303.149
303.146
303.138
303.121
303.088
303.034
303.04
303.108
303.133
303.145
303.149
303.15
303.15
303.15
303.15
303.15
303.15
303.15
303.15
303.15
303.149
303.146
303.138
303.121
303.088
303.035
303.041
303.109
303.134
303.145
303.149
303.15
303.15
303.15
303.15
303.15
303.15
303.15
303.15
303.15
303.149
303.146
303.138
303.121
303.089
303.035
303.041
303.109
303.134
303.145
303.149
303.15
303.15
303.15
303.15
303.15
303.15
303.15
303.15
303.15
303.149
303.146
303.139
303.122
303.089
303.036
303.042
303.109
303.134
303.145
303.149
303.15
303.15
303.15
303.15
303.15
303.15
303.15
303.15
303.15
303.149
303.146
303.139
303.122
303.09
303.036
303.043
303.11
303.134
303.145
303.149
303.15
303.15
303.15
303.15
303.15
303.15
303.15
303.15
303.15
303.149
303.146
303.139
303.122
303.09
303.037
303.043
303.11
303.134
303.145
303.149
303.15
303.15
303.15
303.15
303.15
303.15
303.15
303.15
303.15
303.149
303.146
303.139
303.123
303.09
303.037
303.044
303.11
303.134
303.145
303.149
303.15
303.15
303.15
303.15
303.15
303.15
303.15
303.15