/*--------------------------------*- C++ -*----------------------------------*\
  =========                 |
  \\      /  F ield         | OpenFOAM: The Open Source CFD Toolbox
   \\    /   O peration     | Website:  https://openfoam.org
    \\  /    A nd           | Version:  8
     \\/     M anipulation  |
\*---------------------------------------------------------------------------*/
FoamFile
{
    version     2.0;
    format      ascii;
    class       volVectorField;
    location    "700";
    object      U;
}
// * * * * * * * * * * * * * * * * * * * * * * * * * * * * * * * * * * * * * //

dimensions      [0 1 -1 0 0 0 0];

internalField   nonuniform List<vector> 
8400
(
(-29.1604 -0.447227 2.44006e-16)
(-28.5889 -0.48422 2.52871e-16)
(-28.1719 -0.574883 2.61978e-16)
(-27.7544 -0.783644 2.7062e-16)
(-27.1312 -1.07135 2.79276e-16)
(-26.1056 -1.37291 2.87859e-16)
(-24.6152 -1.62171 2.95734e-16)
(-22.7524 -1.76723 3.03903e-16)
(-20.6898 -1.7848 3.11118e-16)
(-18.621 -1.64587 3.13014e-16)
(-16.747 -1.31937 3.05286e-16)
(-15.3081 -0.86241 2.83595e-16)
(-14.4178 -0.439902 2.501e-16)
(-13.9467 -0.164524 2.16791e-16)
(-13.7217 -0.0670778 1.92389e-16)
(-13.5825 -0.0790452 1.76523e-16)
(-13.4037 -0.144219 1.67482e-16)
(-13.1187 -0.217891 1.59692e-16)
(-12.7251 -0.2701 1.50198e-16)
(-12.2621 -0.28548 1.39994e-16)
(-11.7671 -0.287451 1.3076e-16)
(-11.2502 -0.294709 1.23212e-16)
(-10.7266 -0.291337 1.16636e-16)
(-10.2259 -0.270741 1.10487e-16)
(-9.7727 -0.238576 1.03315e-16)
(-9.383 -0.200901 9.4441e-17)
(-9.06443 -0.16303 8.35188e-17)
(-8.81716 -0.127959 6.74911e-17)
(-8.63617 -0.0974751 4.66584e-17)
(-8.5129 -0.0724756 2.55435e-17)
(-8.43699 -0.0530627 3.6399e-18)
(-8.3976 -0.0389274 -1.84166e-17)
(-8.38437 -0.0293947 -4.02551e-17)
(-8.38806 -0.0239494 -6.29121e-17)
(-8.40101 -0.0222808 -8.69658e-17)
(-8.41635 -0.0240526 -1.11098e-16)
(-8.42801 -0.0288963 -1.35194e-16)
(-8.43047 -0.0365744 -1.61201e-16)
(-8.41868 -0.0469897 -1.89018e-16)
(-8.38842 -0.0598582 -2.19941e-16)
(-8.33626 -0.0745887 -2.53381e-16)
(-8.26022 -0.0905995 -2.88625e-16)
(-8.15968 -0.107355 -3.27618e-16)
(-8.03526 -0.124523 -3.71745e-16)
(-7.88862 -0.141915 -4.20919e-16)
(-7.72216 -0.159554 -4.76154e-16)
(-7.53877 -0.1778 -5.35415e-16)
(-7.34036 -0.197412 -5.98779e-16)
(-7.12431 -0.219962 -6.67228e-16)
(-6.8847 -0.248551 -7.40177e-16)
(-16.8199 -0.556385 3.02889e-16)
(-17.1401 -0.581069 3.05531e-16)
(-17.5497 -0.794 3.08786e-16)
(-18.0419 -1.09347 3.10119e-16)
(-18.3444 -1.42071 3.06105e-16)
(-18.2356 -1.75389 2.91504e-16)
(-17.8319 -1.98492 2.74764e-16)
(-17.3321 -2.03633 2.692e-16)
(-16.8713 -1.94299 2.83304e-16)
(-16.4584 -1.73484 3.17501e-16)
(-15.4176 -1.52819 3.77112e-16)
(-13.9901 -1.23103 4.37135e-16)
(-13.4377 -0.847505 4.70118e-16)
(-13.362 -0.420131 4.60404e-16)
(-13.3893 -0.142841 4.19767e-16)
(-13.3669 -0.0706315 3.66213e-16)
(-13.2168 -0.199764 3.03531e-16)
(-12.8865 -0.450831 2.4106e-16)
(-12.4288 -0.653292 1.81308e-16)
(-11.9309 -0.720533 1.20962e-16)
(-11.4404 -0.763634 7.04749e-17)
(-10.9252 -0.828382 3.81426e-17)
(-10.3883 -0.819924 2.48256e-17)
(-9.87884 -0.742874 4.33088e-17)
(-9.42631 -0.639505 9.88744e-17)
(-9.04513 -0.524113 1.79349e-16)
(-8.74015 -0.409254 2.64935e-16)
(-8.50849 -0.30199 3.37559e-16)
(-8.34356 -0.207199 3.95011e-16)
(-8.2355 -0.127781 4.39044e-16)
(-8.17302 -0.0645282 4.63411e-16)
(-8.1448 -0.0166966 4.74634e-16)
(-8.14049 0.0173161 4.67151e-16)
(-8.15208 0.0390444 4.49431e-16)
(-8.17208 0.0497178 4.41867e-16)
(-8.19346 0.0503782 4.38665e-16)
(-8.21012 0.0420738 4.39393e-16)
(-8.21671 0.0257075 4.43995e-16)
(-8.20802 0.00226019 4.44091e-16)
(-8.18025 -0.0265969 4.46817e-16)
(-8.12984 -0.0588476 4.71025e-16)
(-8.05496 -0.0923505 5.01537e-16)
(-7.95527 -0.125167 5.31036e-16)
(-7.83175 -0.155731 5.56257e-16)
(-7.68642 -0.182882 5.77285e-16)
(-7.52222 -0.205977 5.91973e-16)
(-7.3428 -0.225018 6.0001e-16)
(-7.15128 -0.240756 6.04862e-16)
(-6.94734 -0.255398 6.09545e-16)
(-6.72678 -0.273778 6.13851e-16)
(5.77481 -1.29113 4.80254e-16)
(4.00328 0.0758535 5.13887e-16)
(2.73135 0.77164 5.44762e-16)
(-0.387088 0.582855 5.81409e-16)
(-2.1385 -0.456258 5.76513e-16)
(-2.24151 -1.42693 4.81214e-16)
(-2.2319 -1.79768 3.65291e-16)
(-2.79142 -1.55441 2.60308e-16)
(-4.41558 -0.850415 1.71721e-16)
(-10.4728 0.306449 5.83071e-17)
(-15.5431 0.578462 7.35353e-17)
(-12.3832 0.279053 1.74426e-16)
(-11.701 -0.277059 2.49722e-16)
(-11.5309 -0.676208 2.4053e-16)
(-12.0745 -0.962205 2.22492e-16)
(-12.4421 -1.19728 2.11912e-16)
(-12.5513 -1.49135 2.41618e-16)
(-12.2309 -1.66126 3.02913e-16)
(-11.8453 -1.62648 3.55292e-16)
(-11.4199 -1.35694 2.06709e-16)
(-11.0066 -1.2632 -4.59808e-17)
(-10.4724 -1.39569 -2.42233e-16)
(-9.8676 -1.36079 -5.05262e-16)
(-9.32675 -1.22515 -8.39415e-16)
(-8.87291 -1.06994 -1.09798e-15)
(-8.50133 -0.883031 -1.24917e-15)
(-8.2141 -0.694312 -1.29406e-15)
(-8.00413 -0.51954 -1.25661e-15)
(-7.86308 -0.367052 -1.16181e-15)
(-7.7793 -0.240505 -1.01859e-15)
(-7.73968 -0.140471 -8.99191e-16)
(-7.73179 -0.0653139 -8.20701e-16)
(-7.74534 -0.0127551 -8.00785e-16)
(-7.77391 0.0189108 -7.9594e-16)
(-7.8091 0.031576 -7.69075e-16)
(-7.84382 0.0272685 -7.26681e-16)
(-7.87196 0.00788118 -6.56792e-16)
(-7.88803 -0.0246878 -5.85525e-16)
(-7.88637 -0.0683068 -5.05424e-16)
(-7.86324 -0.121239 -4.10527e-16)
(-7.81502 -0.180487 -3.11763e-16)
(-7.73993 -0.242465 -2.13468e-16)
(-7.63797 -0.303887 -1.14307e-16)
(-7.51056 -0.361983 -1.52866e-17)
(-7.36022 -0.41475 8.15664e-17)
(-7.19049 -0.460949 1.64237e-16)
(-7.0056 -0.500088 2.25414e-16)
(-6.80957 -0.532486 2.61712e-16)
(-6.60349 -0.559583 2.75882e-16)
(-6.38424 -0.584446 2.77073e-16)
(18.3911 -1.09104 5.78897e-16)
(18.1192 -0.59379 5.76814e-16)
(18.242 -0.701145 5.60909e-16)
(19.0277 -1.19619 5.26376e-16)
(19.9216 -1.78364 4.72147e-16)
(20.4118 -2.16752 4.05812e-16)
(20.3581 -2.14036 3.4961e-16)
(19.8069 -1.65367 2.99571e-16)
(18.8119 -0.777514 2.75438e-16)
(17.5285 0.323865 2.67386e-16)
(16.439 1.47086 2.72683e-16)
(15.0328 2.41726 2.8265e-16)
(13.4266 3.04077 2.91073e-16)
(11.3057 3.25594 2.94157e-16)
(8.98984 3.16401 3.38694e-16)
(6.36191 2.81911 3.91164e-16)
(3.51375 2.25089 4.92144e-16)
(-2.86632 0.310156 1.35892e-15)
(-9.42613 -1.94485 2.42162e-15)
(-10.1452 -2.3365 2.3533e-15)
(-10.0514 -2.51771 2.17287e-15)
(-9.73904 -2.50097 1.93648e-15)
(-9.19497 -2.11532 1.57645e-15)
(-8.6756 -1.76489 9.22134e-16)
(-8.22712 -1.47603 2.31318e-16)
(-7.84787 -1.18231 -5.06012e-16)
(-7.57578 -0.908538 -1.13075e-15)
(-7.39318 -0.658217 -1.6141e-15)
(-7.28407 -0.441646 -1.90666e-15)
(-7.23263 -0.263617 -1.94621e-15)
(-7.22327 -0.124131 -1.88928e-15)
(-7.24229 -0.0203365 -1.79926e-15)
(-7.28217 0.051075 -1.74372e-15)
(-7.3347 0.0931605 -1.65985e-15)
(-7.39117 0.108811 -1.60586e-15)
(-7.44449 0.100788 -1.54803e-15)
(-7.48857 0.0715406 -1.50594e-15)
(-7.51769 0.0234208 -1.44078e-15)
(-7.52636 -0.0409416 -1.32801e-15)
(-7.50989 -0.118214 -1.19805e-15)
(-7.4651 -0.203986 -1.02527e-15)
(-7.39001 -0.292848 -8.44014e-16)
(-7.28509 -0.379815 -6.79709e-16)
(-7.15248 -0.460828 -5.23512e-16)
(-6.99556 -0.533041 -3.57427e-16)
(-6.8186 -0.59484 -1.89906e-16)
(-6.62668 -0.645718 -2.7279e-17)
(-6.42474 -0.686248 9.47037e-17)
(-6.21478 -0.718203 2.09592e-16)
(-5.99346 -0.744554 3.12301e-16)
(46.221 -0.32819 8.91297e-17)
(45.5537 -0.302623 8.82971e-17)
(44.9419 -0.493583 8.7364e-17)
(44.2893 -0.790732 8.50354e-17)
(43.4476 -1.07846 7.91696e-17)
(42.3509 -1.2075 6.78751e-17)
(41.055 -1.0456 5.02094e-17)
(39.6797 -0.547886 4.70228e-17)
(38.2913 0.262765 5.01338e-17)
(36.8508 1.2961 3.73905e-17)
(35.0367 2.41631 3.1164e-17)
(32.8907 3.51885 4.13212e-17)
(30.4724 4.51151 4.85744e-17)
(27.7824 5.31327 3.94652e-17)
(24.872 5.85639 1.49313e-17)
(21.7214 6.11703 -8.31185e-18)
(18.3337 6.10319 2.77538e-17)
(14.1988 5.59917 2.15347e-16)
(9.84455 4.70496 5.50995e-16)
(6.36865 3.80282 7.66208e-16)
(2.97594 2.35613 1.00458e-15)
(-7.8132 -2.84927 2.58814e-15)
(-8.15727 -2.98051 2.66266e-15)
(-7.68919 -2.50971 2.40337e-15)
(-7.3811 -1.98314 2.36274e-15)
(-7.07205 -1.51638 2.36682e-15)
(-6.84594 -1.12145 2.20167e-15)
(-6.70307 -0.795082 1.85043e-15)
(-6.63657 -0.522504 1.65686e-15)
(-6.62685 -0.301417 1.3099e-15)
(-6.6547 -0.129728 9.53138e-16)
(-6.70609 -0.00237361 4.6162e-16)
(-6.77854 0.0836732 2.10551e-16)
(-6.8598 0.132033 -1.614e-17)
(-6.94153 0.14658 -2.73362e-16)
(-7.01672 0.130834 -4.70282e-16)
(-7.07954 0.0879085 -7.22781e-16)
(-7.1243 0.0207232 -8.79284e-16)
(-7.14507 -0.0674128 -9.70665e-16)
(-7.13619 -0.172796 -1.08099e-15)
(-7.0952 -0.289694 -1.10254e-15)
(-7.01979 -0.410086 -1.097e-15)
(-6.91107 -0.526904 -1.03626e-15)
(-6.772 -0.634567 -9.05481e-16)
(-6.60684 -0.729193 -7.22866e-16)
(-6.42067 -0.808584 -5.27036e-16)
(-6.21931 -0.871974 -3.26091e-16)
(-6.00855 -0.919868 -1.69376e-16)
(-5.79123 -0.954207 -4.37867e-17)
(-5.56368 -0.978393 1.15579e-16)
(40.5759 0.184315 2.20308e-17)
(39.9267 0.168195 2.20417e-17)
(39.3322 0.137476 2.17498e-17)
(38.7892 0.112409 2.17007e-17)
(38.167 0.130161 2.1908e-17)
(37.3726 0.267084 2.17651e-17)
(36.4039 0.601713 2.15714e-17)
(35.3063 1.18148 2.13e-17)
(34.1815 1.99373 2.0876e-17)
(33.1042 3.00033 2.09229e-17)
(32.0699 4.15166 2.12918e-17)
(31.0161 5.37663 2.25622e-17)
(29.8554 6.58276 2.50418e-17)
(28.4975 7.66279 2.59689e-17)
(26.8692 8.51003 1.73157e-17)
(24.9078 9.05418 5.54723e-18)
(22.5779 9.26429 -4.1619e-18)
(19.8167 9.08613 4.66928e-17)
(16.6356 8.47411 1.58142e-16)
(13.3546 7.57138 3.14092e-16)
(10.0213 6.38094 4.65246e-16)
(5.29951 4.24405 8.00713e-16)
(2.69234 2.66411 5.00299e-16)
(-6.10219 -2.61783 7.59336e-16)
(-6.30713 -2.38722 9.21427e-16)
(-6.10043 -1.87076 1.04652e-15)
(-5.95343 -1.29688 8.79666e-16)
(-5.89314 -0.863914 8.00327e-16)
(-5.8848 -0.53214 8.91743e-16)
(-5.92322 -0.270365 8.38222e-16)
(-5.99067 -0.0679863 8.08271e-16)
(-6.0832 0.0812784 8.13889e-16)
(-6.19199 0.181325 8.02974e-16)
(-6.3055 0.236378 6.31207e-16)
(-6.41559 0.250251 4.89267e-16)
(-6.51579 0.226063 2.04916e-16)
(-6.60072 0.166579 -7.34032e-18)
(-6.66471 0.0749103 -1.47094e-16)
(-6.70101 -0.0445102 -2.55296e-16)
(-6.70168 -0.185483 -4.19017e-16)
(-6.66648 -0.339842 -5.43501e-16)
(-6.5929 -0.496667 -6.42602e-16)
(-6.48321 -0.646863 -7.25152e-16)
(-6.34139 -0.78365 -7.63041e-16)
(-6.17241 -0.902486 -7.44562e-16)
(-5.9819 -1.00075 -6.81547e-16)
(-5.77604 -1.07746 -5.93581e-16)
(-5.56116 -1.13302 -4.83401e-16)
(-5.34078 -1.16931 -4.38443e-16)
(-5.11103 -1.19013 -4.1261e-16)
(33.5019 0.677611 1.17037e-17)
(32.9002 0.696884 1.18628e-17)
(32.313 0.739812 1.1535e-17)
(31.7352 0.801883 1.14745e-17)
(31.0831 0.883251 1.18532e-17)
(30.3171 1.0368 1.18207e-17)
(29.472 1.33855 1.18256e-17)
(28.6292 1.84896 1.19023e-17)
(27.8642 2.5944 1.19981e-17)
(27.2168 3.56693 1.22744e-17)
(26.6843 4.7291 1.28404e-17)
(26.2246 6.02004 1.36679e-17)
(25.7661 7.3577 1.50485e-17)
(25.2194 8.64143 1.65056e-17)
(24.4905 9.76153 1.51094e-17)
(23.4917 10.623 9.90967e-18)
(22.1551 11.1587 2.14226e-18)
(20.4318 11.3167 1.08555e-17)
(18.3074 11.0551 5.08663e-17)
(15.8693 10.3947 1.31354e-16)
(13.2231 9.38308 2.43521e-16)
(10.0511 7.81184 4.27196e-16)
(7.18107 6.14809 5.18001e-16)
(3.21819 3.63465 6.59688e-16)
(-1.09106 0.430667 1.17892e-15)
(-5.15989 -2.07329 1.61274e-15)
(-4.88783 -1.42815 1.49116e-15)
(-4.91486 -0.887417 1.43368e-15)
(-4.99548 -0.496859 1.35749e-15)
(-5.08557 -0.20239 1.25458e-15)
(-5.18843 0.026953 1.15643e-15)
(-5.32335 0.194694 1.18588e-15)
(-5.46737 0.30659 1.11464e-15)
(-5.61211 0.366025 1.00754e-15)
(-5.75032 0.375398 9.2746e-16)
(-5.87658 0.336948 7.5189e-16)
(-5.98595 0.253655 6.20483e-16)
(-6.07192 0.130326 4.88971e-16)
(-6.12587 -0.025633 3.4577e-16)
(-6.13554 -0.204175 2.04038e-16)
(-6.10689 -0.396417 9.94281e-17)
(-6.03761 -0.589483 -3.74605e-17)
(-5.93164 -0.772477 -1.41576e-16)
(-5.79388 -0.937874 -1.96457e-16)
(-5.6295 -1.08077 -2.14648e-16)
(-5.44395 -1.19823 -2.3511e-16)
(-5.24324 -1.28902 -2.29409e-16)
(-5.03375 -1.35328 -2.35578e-16)
(-4.81943 -1.39252 -2.43013e-16)
(-4.59679 -1.41067 -3.12189e-16)
(27.6351 1.49089 1.08388e-17)
(27.0437 1.4299 1.09172e-17)
(26.4639 1.40508 1.04279e-17)
(25.9151 1.41917 1.04085e-17)
(25.3259 1.48348 1.09895e-17)
(24.6816 1.65248 1.1038e-17)
(24.0166 1.9898 1.10957e-17)
(23.3767 2.53523 1.11317e-17)
(22.7998 3.29261 1.09796e-17)
(22.3092 4.23759 1.07899e-17)
(21.9128 5.33272 1.09257e-17)
(21.6028 6.53714 1.11883e-17)
(21.3523 7.80554 1.1709e-17)
(21.1131 9.07998 1.2485e-17)
(20.8156 10.2842 1.22573e-17)
(20.3772 11.3309 1.02934e-17)
(19.7151 12.1348 5.60421e-18)
(18.7614 12.621 4.66608e-18)
(17.4747 12.7255 1.80867e-17)
(15.8643 12.4134 5.75148e-17)
(13.9813 11.6887 1.27212e-16)
(11.747 10.479 2.41476e-16)
(9.42041 8.94138 3.61067e-16)
(6.65012 6.88209 5.00447e-16)
(3.51902 4.39099 7.61455e-16)
(0.70064 1.98518 1.02399e-15)
(-3.81981 -1.37305 1.16038e-15)
(-3.83912 -0.829833 1.19883e-15)
(-3.93055 -0.387768 1.21499e-15)
(-4.07062 -0.0650724 1.18423e-15)
(-4.22459 0.178311 1.13928e-15)
(-4.39104 0.354834 1.11335e-15)
(-4.56203 0.471631 1.07848e-15)
(-4.73161 0.530128 1.02338e-15)
(-4.89373 0.530177 9.75299e-16)
(-5.04301 0.473364 8.82707e-16)
(-5.1737 0.363579 7.82815e-16)
(-5.27781 0.207455 6.97048e-16)
(-5.34495 0.0145653 6.04694e-16)
(-5.36339 -0.202043 5.11229e-16)
(-5.34025 -0.432606 4.31947e-16)
(-5.27916 -0.662078 3.16114e-16)
(-5.1846 -0.877203 2.36654e-16)
(-5.06145 -1.07001 1.90546e-16)
(-4.91385 -1.23568 1.65939e-16)
(-4.74615 -1.3714 1.76615e-16)
(-4.56345 -1.47592 1.89182e-16)
(-4.37156 -1.54918 1.6038e-16)
(-4.17463 -1.59228 8.97288e-17)
(-3.97029 -1.60897 2.45427e-18)
(21.3555 1.94786 1.07659e-17)
(20.8514 1.84857 1.08118e-17)
(20.3716 1.81896 1.01877e-17)
(19.9501 1.86341 1.01881e-17)
(19.5186 1.9888 1.08831e-17)
(19.0678 2.22845 1.09173e-17)
(18.6193 2.61382 1.09723e-17)
(18.1964 3.15933 1.10007e-17)
(17.8156 3.86242 1.04936e-17)
(17.4895 4.70936 1.04119e-17)
(17.2275 5.68186 1.08352e-17)
(17.0346 6.76037 1.07778e-17)
(16.908 7.92277 1.08769e-17)
(16.8318 9.13857 1.1148e-17)
(16.7702 10.3595 1.07624e-17)
(16.6645 11.5144 9.94548e-18)
(16.4402 12.5146 7.27919e-18)
(16.0243 13.2677 4.47196e-18)
(15.3619 13.6884 7.95172e-18)
(14.4289 13.7093 2.70612e-17)
(13.2337 13.2977 6.94737e-17)
(11.7466 12.4101 1.44016e-16)
(10.0554 11.0945 2.44404e-16)
(8.05422 9.31115 3.70702e-16)
(5.78446 7.13749 5.53465e-16)
(3.50013 4.824 7.71346e-16)
(1.04477 2.38957 9.51808e-16)
(-2.45107 -0.570061 1.19025e-15)
(-2.76641 -0.208264 1.09336e-15)
(-2.93092 0.127892 1.01994e-15)
(-3.11891 0.358916 9.76805e-16)
(-3.2955 0.528638 9.60693e-16)
(-3.47129 0.640452 9.27835e-16)
(-3.64672 0.69437 9.01086e-16)
(-3.81573 0.686844 8.65586e-16)
(-3.97151 0.617184 8.17888e-16)
(-4.1081 0.48776 7.67149e-16)
(-4.21773 0.303857 7.12546e-16)
(-4.29037 0.0737857 6.51307e-16)
(-4.31561 -0.187513 5.78351e-16)
(-4.30096 -0.463566 5.14736e-16)
(-4.25679 -0.731601 4.45327e-16)
(-4.1858 -0.97627 3.66305e-16)
(-4.09158 -1.19146 2.90342e-16)
(-3.97614 -1.37421 2.39681e-16)
(-3.84193 -1.52282 2.55352e-16)
(-3.69255 -1.6366 2.88821e-16)
(-3.53268 -1.71569 3.06034e-16)
(-3.36625 -1.76107 2.818e-16)
(-3.19251 -1.77626 1.65103e-16)
(15.1336 2.62531 1.09346e-17)
(14.6904 2.42151 1.09462e-17)
(14.3132 2.33255 1.04317e-17)
(14.0274 2.33608 1.04185e-17)
(13.7537 2.43408 1.0895e-17)
(13.4847 2.65132 1.08915e-17)
(13.2312 3.00446 1.09561e-17)
(13.0024 3.49615 1.10204e-17)
(12.8046 4.12344 1.05458e-17)
(12.6448 4.88133 1.04633e-17)
(12.5307 5.76266 1.08673e-17)
(12.4704 6.75685 1.07192e-17)
(12.4714 7.84936 1.06554e-17)
(12.5354 9.02088 1.07108e-17)
(12.6478 10.2384 1.01626e-17)
(12.7699 11.4455 9.39376e-18)
(12.8429 12.5615 7.99884e-18)
(12.8034 13.4922 5.23001e-18)
(12.598 14.1422 4.99953e-18)
(12.1911 14.4267 1.41733e-17)
(11.5668 14.2869 4.0407e-17)
(10.7003 13.6781 9.11021e-17)
(9.61524 12.6067 1.69003e-16)
(8.2682 11.0719 2.76246e-16)
(6.6821 9.14147 4.22127e-16)
(4.98626 6.97861 6.05422e-16)
(3.16596 4.68596 7.79689e-16)
(1.0917 2.33963 9.96268e-16)
(-1.42209 0.111214 1.1455e-15)
(-1.7873 0.322883 1.04459e-15)
(-1.95778 0.541368 9.63742e-16)
(-2.09158 0.695516 8.68863e-16)
(-2.22558 0.796306 7.86967e-16)
(-2.36358 0.851792 7.12474e-16)
(-2.50048 0.85091 6.67719e-16)
(-2.62763 0.784123 6.37695e-16)
(-2.74076 0.64359 6.03959e-16)
(-2.83689 0.424418 5.60892e-16)
(-2.91069 0.133447 5.14883e-16)
(-2.94728 -0.194729 4.76458e-16)
(-2.94856 -0.519545 4.61856e-16)
(-2.93528 -0.816427 4.56175e-16)
(-2.90312 -1.07678 4.39788e-16)
(-2.8539 -1.3012 4.09104e-16)
(-2.78707 -1.49019 3.71102e-16)
(-2.70283 -1.64316 3.38645e-16)
(-2.60313 -1.7596 3.4792e-16)
(-2.49131 -1.83964 3.68259e-16)
(-2.3706 -1.88421 3.48777e-16)
(-2.24149 -1.89657 2.89863e-16)
(8.65399 3.26669 1.10871e-17)
(8.3659 2.86235 1.10936e-17)
(8.17594 2.67814 1.06813e-17)
(8.09597 2.59605 1.06798e-17)
(8.0427 2.62024 1.09834e-17)
(8.00792 2.77408 1.09106e-17)
(7.9813 3.06855 1.09303e-17)
(7.9535 3.50372 1.09942e-17)
(7.92578 4.07692 1.05384e-17)
(7.90961 4.78546 1.04307e-17)
(7.92138 5.62319 1.08623e-17)
(7.97785 6.57988 1.07589e-17)
(8.09668 7.64092 1.06297e-17)
(8.28924 8.7877 1.0591e-17)
(8.54882 9.99229 9.9679e-18)
(8.84706 11.2106 9.07104e-18)
(9.13919 12.3763 8.17946e-18)
(9.37613 13.4046 5.7305e-18)
(9.51421 14.2013 4.17163e-18)
(9.5181 14.6738 8.3946e-18)
(9.36139 14.7478 2.52769e-17)
(9.01589 14.3701 6.14545e-17)
(8.4763 13.5261 1.21865e-16)
(7.7141 12.2219 2.1112e-16)
(6.7396 10.5169 3.32916e-16)
(5.61359 8.52769 4.89065e-16)
(4.34408 6.37715 6.52412e-16)
(2.91429 4.20525 8.35187e-16)
(1.25688 2.19838 1.01087e-15)
(-0.225321 0.817424 1.10191e-15)
(-0.813735 0.603869 1.01982e-15)
(-0.883419 0.753915 9.11168e-16)
(-0.916447 0.856237 7.81493e-16)
(-0.951501 0.918843 6.09125e-16)
(-0.996334 0.931165 4.3001e-16)
(-1.03698 0.87285 3.21739e-16)
(-1.07858 0.715932 2.63543e-16)
(-1.13369 0.442729 2.01776e-16)
(-1.19526 0.0815032 1.42074e-16)
(-1.23031 -0.267681 1.08006e-16)
(-1.26076 -0.589856 1.30917e-16)
(-1.30954 -0.879774 2.02712e-16)
(-1.33918 -1.13422 2.71595e-16)
(-1.35283 -1.35605 3.08806e-16)
(-1.35011 -1.54581 3.17166e-16)
(-1.33022 -1.70151 3.17978e-16)
(-1.29436 -1.82097 3.20635e-16)
(-1.24511 -1.90332 3.65715e-16)
(-1.18521 -1.9491 4.05438e-16)
(-1.11481 -1.96092 4.15912e-16)
(2.75879 3.977 1.11673e-17)
(2.6727 3.11291 1.12212e-17)
(2.64045 2.84802 1.08334e-17)
(2.73057 2.72245 1.05112e-17)
(2.86922 2.70942 1.09652e-17)
(3.02393 2.81876 1.09471e-17)
(3.15937 3.06075 1.09935e-17)
(3.25606 3.44522 1.09939e-17)
(3.32084 3.9722 1.08358e-17)
(3.38032 4.63963 1.05735e-17)
(3.46579 5.43861 1.07795e-17)
(3.60599 6.35702 1.07337e-17)
(3.82358 7.37921 1.06244e-17)
(4.13053 8.4835 1.05582e-17)
(4.51958 9.64477 9.8713e-18)
(4.96606 10.8298 9.21103e-18)
(5.43514 11.9883 8.25205e-18)
(5.89149 13.0494 6.02461e-18)
(6.30339 13.9245 3.92665e-18)
(6.64075 14.52 5.75171e-18)
(6.87426 14.7521 1.73406e-17)
(6.97263 14.5585 4.46128e-17)
(6.91603 13.9115 9.28721e-17)
(6.67779 12.8135 1.67687e-16)
(6.25665 11.3148 2.71499e-16)
(5.67726 9.50905 4.06219e-16)
(4.93894 7.51339 5.54752e-16)
(4.03833 5.48586 7.1539e-16)
(2.97111 3.62344 8.71278e-16)
(1.86691 2.16404 9.88301e-16)
(0.990283 1.26428 1.02681e-15)
(0.485811 0.829446 9.7894e-16)
(0.374442 0.767477 8.71449e-16)
(0.427224 0.81917 6.96893e-16)
(0.499382 0.842266 3.67821e-16)
(0.572625 0.807511 1.77788e-16)
(0.630432 0.683391 8.64812e-17)
(0.631274 0.448559 -5.43063e-17)
(0.637192 0.122261 -2.03785e-16)
(0.778519 -0.238136 -2.72877e-16)
(0.67743 -0.554759 -2.0641e-16)
(0.52767 -0.829909 -6.98971e-17)
(0.415992 -1.07997 6.81818e-17)
(0.333344 -1.3048 1.73234e-16)
(0.269517 -1.50221 2.24874e-16)
(0.222214 -1.6685 2.45789e-16)
(0.189697 -1.7995 2.5491e-16)
(0.169665 -1.89263 2.73788e-16)
(0.159444 -1.9478 2.96622e-16)
(0.160496 -1.9673 3.68156e-16)
(-2.72264 3.32305 9.16455e-18)
(-2.59987 2.90332 8.46845e-18)
(-2.37397 2.77966 8.43245e-18)
(-2.12242 2.71394 8.50778e-18)
(-1.88922 2.72262 9.15181e-18)
(-1.70496 2.82943 1.07715e-17)
(-1.56351 3.05573 1.18817e-17)
(-1.45155 3.41499 1.19254e-17)
(-1.34663 3.90839 1.13303e-17)
(-1.22037 4.5327 1.0959e-17)
(-1.04617 5.2794 1.08285e-17)
(-0.797715 6.13556 1.07867e-17)
(-0.458431 7.08538 1.06308e-17)
(-0.0212382 8.10779 1.04504e-17)
(0.508379 9.18796 9.77745e-18)
(1.12568 10.3387 9.46549e-18)
(1.76853 11.4516 8.04651e-18)
(2.42406 12.4896 5.76723e-18)
(3.07898 13.381 3.36957e-18)
(3.70901 14.0362 4.09835e-18)
(4.2832 14.368 1.29523e-17)
(4.7692 14.3087 3.51529e-17)
(5.14057 13.8204 7.56066e-17)
(5.36974 12.8979 1.39862e-16)
(5.44702 11.5819 2.29833e-16)
(5.37631 9.95374 3.4709e-16)
(5.1465 8.1253 4.78792e-16)
(4.74832 6.25076 6.17288e-16)
(4.18014 4.51209 7.49839e-16)
(3.5051 3.09179 8.56108e-16)
(2.8489 2.07558 9.19177e-16)
(2.33439 1.40244 9.29539e-16)
(2.0555 1.01402 8.91212e-16)
(1.99085 0.82036 8.04852e-16)
(2.05158 0.71667 6.0185e-16)
(2.16494 0.623138 3.64094e-16)
(2.28363 0.484101 1.71987e-16)
(2.36924 0.275919 5.67716e-18)
(2.42989 0.0228024 -1.29082e-16)
(2.41882 -0.2525 -1.87193e-16)
(2.33739 -0.523897 -1.63649e-16)
(2.2246 -0.778268 -8.11642e-17)
(2.10865 -1.01654 1.98113e-17)
(2.0005 -1.23686 1.09342e-16)
(1.90223 -1.43446 1.70725e-16)
(1.81331 -1.60355 2.06389e-16)
(1.73231 -1.73875 2.23376e-16)
(1.65765 -1.83662 2.322e-16)
(1.58798 -1.89655 2.39468e-16)
(1.52357 -1.92059 2.63127e-16)
(-8.91912 2.73837 3.62275e-18)
(-8.32406 2.58614 4.13091e-18)
(-7.94357 2.52528 5.72496e-18)
(-7.58667 2.5285 7.2789e-18)
(-7.28294 2.59578 9.14181e-18)
(-7.02938 2.74497 1.13195e-17)
(-6.80714 2.99057 1.22682e-17)
(-6.59365 3.34342 1.20727e-17)
(-6.36528 3.80827 1.1636e-17)
(-6.09856 4.38386 1.08086e-17)
(-5.77273 5.06461 1.0342e-17)
(-5.36845 5.84025 1.03682e-17)
(-4.87407 6.6973 1.01616e-17)
(-4.28569 7.6212 9.91708e-18)
(-3.60823 8.6022 9.68312e-18)
(-2.84182 9.63833 9.4956e-18)
(-2.00703 10.6739 7.90327e-18)
(-1.11996 11.6639 6.20688e-18)
(-0.189888 12.545 3.99246e-18)
(0.784053 13.2509 3.89094e-18)
(1.70715 13.6452 1.10912e-17)
(2.54706 13.6734 3.03172e-17)
(3.30219 13.3055 6.53703e-17)
(3.94711 12.5258 1.22473e-16)
(4.46983 11.3663 2.00035e-16)
(4.86358 9.90192 3.01572e-16)
(5.10791 8.24236 4.16267e-16)
(5.18149 6.53394 5.34773e-16)
(5.072 4.93762 6.49209e-16)
(4.80792 3.59407 7.46072e-16)
(4.46439 2.56954 8.18455e-16)
(4.13526 1.83634 8.59255e-16)
(3.89606 1.33239 8.68349e-16)
(3.77412 0.991073 8.46077e-16)
(3.75581 0.751323 7.75241e-16)
(3.80827 0.559562 6.53414e-16)
(3.89258 0.37097 5.12217e-16)
(3.96904 0.159497 3.7968e-16)
(4.01135 -0.0711783 2.73139e-16)
(4.00977 -0.303167 1.9468e-16)
(3.96005 -0.528418 1.48117e-16)
(3.87741 -0.745669 1.31716e-16)
(3.77713 -0.956051 1.36961e-16)
(3.66818 -1.15707 1.51943e-16)
(3.55425 -1.34246 1.6847e-16)
(3.4364 -1.50449 1.84823e-16)
(3.31489 -1.63621 1.99239e-16)
(3.19004 -1.73309 2.12358e-16)
(3.06266 -1.79375 2.2441e-16)
(2.9342 -1.81966 2.38921e-16)
(-15.2915 2.18152 -1.46484e-18)
(-14.5599 2.14048 5.84449e-19)
(-14.0839 2.12898 2.96785e-18)
(-13.6324 2.16859 5.10646e-18)
(-13.2181 2.26852 7.08875e-18)
(-12.8302 2.44096 8.65414e-18)
(-12.4552 2.69601 9.38815e-18)
(-12.076 3.04066 9.58837e-18)
(-11.6736 3.47786 9.46204e-18)
(-11.2285 4.0063 8.70202e-18)
(-10.7223 4.62151 8.41857e-18)
(-10.1386 5.31648 8.7856e-18)
(-9.46624 6.08254 8.79392e-18)
(-8.6991 6.91158 8.86145e-18)
(-7.83659 7.79714 8.97967e-18)
(-6.88117 8.72829 8.51021e-18)
(-5.83369 9.67358 7.49654e-18)
(-4.70237 10.5899 6.86804e-18)
(-3.49547 11.4213 5.58584e-18)
(-2.21768 12.1047 5.64747e-18)
(-0.927797 12.5392 1.12158e-17)
(0.332395 12.6549 2.73593e-17)
(1.51805 12.3844 6.02462e-17)
(2.53237 11.7314 1.12821e-16)
(3.44646 10.7112 1.82506e-16)
(4.2567 9.39604 2.71192e-16)
(4.93495 7.90268 3.71698e-16)
(5.44459 6.37231 4.75144e-16)
(5.75457 4.94422 5.74568e-16)
(5.86913 3.72227 6.61165e-16)
(5.83867 2.75185 7.31408e-16)
(5.7395 2.01936 7.84582e-16)
(5.63953 1.4814 8.20279e-16)
(5.57726 1.08822 8.4035e-16)
(5.56275 0.794136 8.45407e-16)
(5.58748 0.559164 8.236e-16)
(5.63186 0.349609 7.73898e-16)
(5.67107 0.143717 7.04702e-16)
(5.68857 -0.063865 6.22035e-16)
(5.66893 -0.27025 5.37246e-16)
(5.61396 -0.473208 4.58007e-16)
(5.53197 -0.671305 3.85557e-16)
(5.43126 -0.863528 3.27533e-16)
(5.31604 -1.04701 2.8572e-16)
(5.18742 -1.21646 2.60487e-16)
(5.04523 -1.36519 2.49599e-16)
(4.88953 -1.48688 2.47448e-16)
(4.72132 -1.57711 2.51834e-16)
(4.54271 -1.63415 2.62527e-16)
(4.35627 -1.65894 2.775e-16)
(-21.1106 1.69445 -3.46318e-18)
(-20.4319 1.68777 -9.92671e-19)
(-19.9379 1.6992 1.3551e-18)
(-19.4474 1.74962 2.6542e-18)
(-18.9683 1.85329 4.16616e-18)
(-18.4908 2.02037 5.87204e-18)
(-18.0045 2.25849 6.57573e-18)
(-17.4966 2.5724 6.94621e-18)
(-16.9529 2.96381 7.06236e-18)
(-16.3579 3.43178 6.68625e-18)
(-15.6956 3.97306 6.74318e-18)
(-14.9515 4.58269 7.30647e-18)
(-14.1134 5.25499 7.57621e-18)
(-13.1718 5.98453 7.91875e-18)
(-12.1202 6.76555 8.14732e-18)
(-10.9533 7.58734 8.12968e-18)
(-9.66838 8.42582 8.31229e-18)
(-8.26857 9.24373 8.87432e-18)
(-6.76179 9.99216 9.25075e-18)
(-5.16759 10.6145 1.05767e-17)
(-3.52623 11.0403 1.56426e-17)
(-1.88478 11.2079 2.948e-17)
(-0.290808 11.0621 5.63749e-17)
(1.23131 10.519 1.09534e-16)
(2.48461 9.64274 1.74767e-16)
(3.65264 8.47316 2.56207e-16)
(4.71971 7.1469 3.43974e-16)
(5.62674 5.80885 4.33918e-16)
(6.31592 4.57781 5.22492e-16)
(6.76805 3.52261 5.98473e-16)
(7.01995 2.66401 6.65178e-16)
(7.14131 1.9894 7.18036e-16)
(7.20013 1.4709 7.60886e-16)
(7.24164 1.07647 7.9239e-16)
(7.28564 0.774234 8.16179e-16)
(7.3335 0.533635 8.30078e-16)
(7.37634 0.327791 8.24643e-16)
(7.40153 0.137744 7.9716e-16)
(7.40144 -0.0460099 7.4489e-16)
(7.36594 -0.227524 6.73113e-16)
(7.29952 -0.405963 5.95863e-16)
(7.20706 -0.580122 5.22118e-16)
(7.09264 -0.748721 4.59177e-16)
(6.95795 -0.909111 4.0962e-16)
(6.80335 -1.05689 3.74807e-16)
(6.6289 -1.18654 3.54509e-16)
(6.43514 -1.29273 3.43019e-16)
(6.22359 -1.37151 3.39433e-16)
(5.9969 -1.42103 3.45398e-16)
(5.75786 -1.44174 3.58587e-16)
(-25.999 1.15601 -1.36851e-17)
(-25.4338 1.15893 -1.12074e-17)
(-24.9928 1.18401 -8.70934e-18)
(-24.5394 1.24123 -6.43026e-18)
(-24.0772 1.34175 -4.01611e-18)
(-23.5954 1.49395 -1.90609e-18)
(-23.0827 1.70388 -4.35551e-19)
(-22.5265 1.97525 6.41238e-19)
(-21.9134 2.3094 1.39376e-18)
(-21.2293 2.70577 1.98059e-18)
(-20.46 3.16218 2.62164e-18)
(-19.5918 3.67522 3.44495e-18)
(-18.6122 4.24087 4.39612e-18)
(-17.5101 4.85483 5.51549e-18)
(-16.2762 5.51174 6.81746e-18)
(-14.9026 6.20193 7.93931e-18)
(-13.3847 6.90677 9.68484e-18)
(-11.7228 7.59685 1.21515e-17)
(-9.92439 8.23295 1.44792e-17)
(-8.00796 8.76871 1.78216e-17)
(-6.01009 9.15133 2.42268e-17)
(-3.98534 9.33284 3.69965e-17)
(-1.99765 9.27821 5.91302e-17)
(-0.0724268 8.92285 1.0288e-16)
(1.68684 8.17047 1.67756e-16)
(3.14584 7.16128 2.45049e-16)
(4.5466 6.01531 3.24442e-16)
(5.80759 4.89177 4.01649e-16)
(6.83323 3.8865 4.76071e-16)
(7.57737 3.0343 5.40212e-16)
(8.06873 2.32981 5.93556e-16)
(8.38028 1.75608 6.33138e-16)
(8.58576 1.29675 6.66207e-16)
(8.73552 0.935319 6.9069e-16)
(8.85389 0.652625 7.13918e-16)
(8.94719 0.427064 7.38027e-16)
(9.01297 0.237829 7.53753e-16)
(9.04633 0.0687028 7.51176e-16)
(9.046 -0.0903242 7.2582e-16)
(9.00641 -0.241882 6.82508e-16)
(8.93258 -0.386667 6.29922e-16)
(8.82772 -0.524978 5.79521e-16)
(8.69442 -0.656749 5.3214e-16)
(8.53431 -0.780672 4.94148e-16)
(8.34884 -0.894025 4.65594e-16)
(8.13944 -0.993078 4.47653e-16)
(7.90782 -1.07389 4.38288e-16)
(7.65617 -1.13314 4.36719e-16)
(7.38735 -1.16881 4.44482e-16)
(7.10378 -1.18053 4.63741e-16)
(-30.0349 0.801895 2.75011e-18)
(-29.5585 0.809056 4.3916e-18)
(-29.1849 0.833842 5.87624e-18)
(-28.7936 0.882912 6.70372e-18)
(-28.3829 0.964176 7.65761e-18)
(-27.9401 1.08416 8.77436e-18)
(-27.4515 1.24768 9.2803e-18)
(-26.9026 1.45768 9.59989e-18)
(-26.2781 1.71535 9.71953e-18)
(-25.5621 2.02032 9.94104e-18)
(-24.7389 2.3708 1.02271e-17)
(-23.7936 2.76423 1.06695e-17)
(-22.7121 3.19756 1.14717e-17)
(-21.4816 3.66724 1.25849e-17)
(-20.0916 4.16864 1.40828e-17)
(-18.5337 4.69399 1.56657e-17)
(-16.8033 5.22958 1.80024e-17)
(-14.9007 5.75398 2.13882e-17)
(-12.8332 6.23851 2.51402e-17)
(-10.6183 6.64959 3.01286e-17)
(-8.28947 6.95136 3.736e-17)
(-5.89986 7.11103 4.90613e-17)
(-3.52076 7.10401 6.73874e-17)
(-1.24538 6.90758 9.89172e-17)
(1.05088 6.34317 1.55099e-16)
(2.83955 5.49043 2.30486e-16)
(4.5042 4.56268 3.08013e-16)
(6.06178 3.7038 3.73952e-16)
(7.3694 2.97396 4.36906e-16)
(8.3497 2.37348 4.90677e-16)
(9.02636 1.87194 5.35834e-16)
(9.4846 1.44647 5.74452e-16)
(9.80924 1.09028 6.05634e-16)
(10.0546 0.801185 6.29817e-16)
(10.2453 0.572074 6.50206e-16)
(10.3889 0.390024 6.70636e-16)
(10.4863 0.240239 6.89625e-16)
(10.5375 0.110143 7.02195e-16)
(10.5455 -0.00858383 6.99027e-16)
(10.5077 -0.121833 6.80663e-16)
(10.4297 -0.230982 6.51648e-16)
(10.3145 -0.336621 6.24056e-16)
(10.1646 -0.438505 5.9781e-16)
(9.98232 -0.53526 5.77207e-16)
(9.77031 -0.624503 5.61795e-16)
(9.53138 -0.70318 5.50187e-16)
(9.26844 -0.76803 5.39644e-16)
(8.98451 -0.81606 5.3008e-16)
(8.68278 -0.844919 5.24506e-16)
(8.3654 -0.853083 5.31795e-16)
(-33.1874 0.354488 4.34825e-17)
(-32.792 0.355581 4.47576e-17)
(-32.478 0.365718 4.57457e-17)
(-32.1436 0.390982 4.5919e-17)
(-31.7852 0.436634 4.61271e-17)
(-31.389 0.506996 4.64979e-17)
(-30.9395 0.605335 4.61563e-17)
(-30.42 0.733756 4.55959e-17)
(-29.8126 0.893191 4.48941e-17)
(-29.0989 1.08352 4.36837e-17)
(-28.2607 1.30364 4.30576e-17)
(-27.28 1.55171 4.31635e-17)
(-26.14 1.82564 4.30842e-17)
(-24.8256 2.12293 4.34059e-17)
(-23.3246 2.44031 4.42115e-17)
(-21.6282 2.77266 4.54559e-17)
(-19.7319 3.11141 4.74579e-17)
(-17.6364 3.44347 5.05728e-17)
(-15.3488 3.75158 5.44942e-17)
(-12.8846 4.01654 5.95784e-17)
(-10.2736 4.22064 6.63039e-17)
(-7.56603 4.35169 7.54409e-17)
(-4.83666 4.40433 8.77311e-17)
(-2.18998 4.37064 1.05868e-16)
(0.559113 4.11729 1.39804e-16)
(2.82833 3.4141 2.06287e-16)
(4.70069 2.72288 2.81989e-16)
(6.49444 2.14311 3.42199e-16)
(8.01953 1.6955 3.95946e-16)
(9.16875 1.35447 4.43744e-16)
(9.96384 1.07378 4.85143e-16)
(10.5103 0.824327 5.20993e-16)
(10.9101 0.603284 5.52703e-16)
(11.2216 0.417184 5.79845e-16)
(11.4665 0.267787 6.03691e-16)
(11.65 0.149694 6.27379e-16)
(11.7733 0.0539475 6.5106e-16)