/*--------------------------------*- C++ -*----------------------------------*\
  =========                 |
  \\      /  F ield         | OpenFOAM: The Open Source CFD Toolbox
   \\    /   O peration     | Website:  https://openfoam.org
    \\  /    A nd           | Version:  8
     \\/     M anipulation  |
\*---------------------------------------------------------------------------*/
FoamFile
{
    version     2.0;
    format      ascii;
    class       volScalarField;
    location    "700";
    object      alphat;
}
// * * * * * * * * * * * * * * * * * * * * * * * * * * * * * * * * * * * * * //

dimensions      [1 -1 -1 0 0 0 0];

internalField   nonuniform List<scalar> 
8400
(
0.0680499
0.0678906
0.0675988
0.0672411
0.0668632
0.0664783
0.066087
0.0656868
0.0652777
0.064857
0.0644175
0.0639515
0.0634354
0.0628732
0.0622593
0.0615897
0.0608611
0.060071
0.0592205
0.0583466
0.0574044
0.0563488
0.0550816
0.0534467
0.0512995
0.0485574
0.0452602
0.0416598
0.0383261
0.0362717
0.0364349
0.0373173
0.0368528
0.0363562
0.0358543
0.0353301
0.0347954
0.0342587
0.0337123
0.0331467
0.0325754
0.0320069
0.0314478
0.0308971
0.0303396
0.029786
0.0292349
0.0286962
0.0281666
0.027647
0.0556972
0.0551808
0.0554676
0.0558519
0.0562222
0.0565704
0.0568806
0.057149
0.057348
0.0574462
0.0574804
0.0574983
0.0575203
0.0575157
0.0574939
0.057474
0.0574877
0.05756
0.0575663
0.0572947
0.0573334
0.0575701
0.0577264
0.0575863
0.0568888
0.0552316
0.05209
0.0471698
0.0407757
0.0335741
0.0286186
0.0329433
0.0339065
0.0338974
0.0338942
0.0339752
0.0341593
0.0342417
0.0339865
0.0334067
0.0327348
0.0319458
0.0311633
0.0304242
0.0297827
0.0293813
0.0292048
0.0290192
0.0288288
0.0286337
0.0627734
0.062375
0.0614708
0.0606316
0.0599814
0.059651
0.0595497
0.0595912
0.0597758
0.0601483
0.0606046
0.0611511
0.0617023
0.061975
0.0615725
0.0604674
0.0590546
0.0578862
0.0573985
0.0549288
0.0545475
0.0558309
0.0571594
0.0580915
0.0586187
0.0588364
0.0588213
0.0585778
0.0581604
0.0519906
0.0248779
0.0359888
0.0374122
0.0382716
0.0388666
0.0392351
0.0396227
0.0398856
0.0397967
0.0392922
0.038784
0.0380941
0.0374396
0.0368002
0.036262
0.0359884
0.0358104
0.0356994
0.0356249
0.0355641
0.061177
0.0611122
0.0610477
0.0609843
0.0609233
0.0608674
0.0608169
0.0607698
0.0607222
0.0606774
0.0606264
0.0605704
0.060514
0.0604794
0.0605171
0.0605892
0.0606061
0.0605415
0.0603419
0.0602191
0.0601465
0.0601018
0.0600645
0.0600173
0.0599452
0.0598339
0.0596739
0.0595948
0.0594211
0.0589462
0.0548933
0.0521918
0.0495676
0.0471945
0.0403643
0.0429065
0.0432342
0.0436309
0.0434146
0.0431453
0.0426742
0.0421298
0.0416349
0.0411521
0.0407456
0.0406032
0.0404993
0.0404841
0.040523
0.0405841
0.0612107
0.0611842
0.0611576
0.0611305
0.0611029
0.0610747
0.0610463
0.0610174
0.0609878
0.0609584
0.0609293
0.0609005
0.060872
0.0608439
0.060816
0.0607875
0.0607582
0.0607286
0.0606981
0.0606665
0.060634
0.0606011
0.0605684
0.0605368
0.0605068
0.0604753
0.0604352
0.0603069
0.0601514
0.0599413
0.0592479
0.0581197
0.0565716
0.05466
0.051708
0.0499223
0.0489307
0.0458134
0.0451896
0.0463694
0.0449172
0.0445657
0.0441132
0.0437402
0.04354
0.0434454
0.043434
0.0435149
0.0436468
0.0437957
0.0612025
0.0611674
0.0611314
0.0610955
0.0610591
0.0610219
0.0609845
0.0609465
0.0609081
0.0608692
0.0608304
0.0607914
0.060752
0.0607125
0.0606734
0.0606349
0.0605965
0.0605574
0.0605174
0.0604774
0.0604376
0.0603986
0.0603613
0.0603263
0.0602908
0.0602548
0.060226
0.0601922
0.0601401
0.0600544
0.0598477
0.0594194
0.0586901
0.0576193
0.0560614
0.0545246
0.0532129
0.0515581
0.0515718
0.0490924
0.0461291
0.0464226
0.0454563
0.0451699
0.0451107
0.0450595
0.0451438
0.0452942
0.0454798
0.0456719
0.0611983
0.0611578
0.0611167
0.0610749
0.061033
0.0609903
0.0609473
0.0609032
0.0608585
0.0608134
0.0607677
0.0607217
0.0606755
0.0606293
0.0605827
0.0605357
0.0604876
0.0604387
0.0603894
0.06034
0.0602911
0.0602432
0.0601982
0.0601528
0.0601093
0.0600791
0.0600566
0.0600394
0.0600204
0.0599882
0.0599113
0.0597327
0.0593824
0.0587994
0.0579106
0.0568455
0.0557546
0.0546009
0.0539304
0.0528025
0.0534818
0.0475993
0.0463649
0.0458142
0.0458406
0.0459094
0.0460664
0.0462674
0.0464753
0.0466697
0.0611896
0.0611398
0.0610892
0.0610376
0.0609853
0.0609319
0.0608781
0.0608245
0.0607697
0.0607135
0.0606572
0.0606008
0.0605438
0.0604861
0.0604279
0.0603696
0.060311
0.0602519
0.0601923
0.0601334
0.060077
0.0600244
0.0599656
0.0599138
0.0598783
0.0598552
0.059844
0.0598433
0.0598477
0.0598488
0.0598287
0.0597559
0.0595826
0.0592558
0.0587212
0.0580025
0.0571744
0.0562871
0.0555475
0.0547538
0.054539
0.0532792
0.0504934
0.0458546
0.0460742
0.0462855
0.0465054
0.0467145
0.0469035
0.0470707
0.0611785
0.0611157
0.0610519
0.0609862
0.0609203
0.0608535
0.0607854
0.0607153
0.0606456
0.0605739
0.0604996
0.0604236
0.0603484
0.0602737
0.0601999
0.0601271
0.0600542
0.0599815
0.0599093
0.0598382
0.0597698
0.0596929
0.0596366
0.0595965
0.0595721
0.0595648
0.0595745
0.0595988
0.0596321
0.0596647
0.0596847
0.0596698
0.0595888
0.0594014
0.0590647
0.058569
0.0579459
0.0572463
0.0565786
0.0559227
0.0555109
0.0547986
0.0537595
0.0483251
0.0460255
0.0463858
0.0466464
0.0468271
0.0469405
0.0470103
0.0611577
0.0610706
0.0609828
0.0608931
0.0608022
0.060709
0.0606136
0.0605137
0.0604108
0.0603105
0.0601985
0.0600795
0.0599615
0.0598511
0.0597508
0.0596617
0.059575
0.0594865
0.0593995
0.0592969
0.0592046
0.0591483
0.0591133
0.0591023
0.0591199
0.0591626
0.0592253
0.0592993
0.0593765
0.0594495
0.0595072
0.0595351
0.0595111
0.0594055
0.0591842
0.0588277
0.0583489
0.0577892
0.0572153
0.0566522
0.0562154
0.0556519
0.054648
0.051233
0.0462364
0.0463664
0.0466469
0.0467634
0.0467461
0.0466288
0.0611147
0.0609705
0.0608278
0.0606814
0.0605306
0.0603716
0.0602014
0.0600154
0.0598093
0.059601
0.0591638
0.0587121
0.0583165
0.0580664
0.0580358
0.0580982
0.0580419
0.0579395
0.057824
0.0577766
0.0578005
0.0579061
0.0580827
0.0583014
0.0585213
0.0587123
0.0588736
0.0590166
0.0591413
0.059248
0.0593351
0.0593939
0.0594018
0.0593433
0.0591888
0.0589214
0.0585422
0.0580816
0.0575892
0.0570983
0.056675
0.0561354
0.0550287
0.0521004
0.0475127
0.046344
0.0466099
0.0466892
0.0465471
0.0461611
0.0608696
0.0603934
0.0601267
0.0597899
0.0593048
0.058079
0.0556135
0.0521492
0.0496331
0.0489559
0.0500753
0.0515432
0.0533841
0.0555025
0.0577271
0.0590045
0.0585615
0.0579589
0.0576488
0.0574649
0.0574708
0.0576185
0.0578107
0.0580267
0.0582534
0.0584631
0.0586505
0.0588099
0.0589593
0.0590962
0.0591943
0.0592648
0.0592889
0.0592546
0.0591381
0.0589233
0.0586079
0.0582169
0.0577861
0.0573461
0.0569302
0.0563497
0.055108
0.052375
0.0485379
0.0467337
0.0466222
0.0466891
0.0465465
0.0461885
0.0592388
0.0584886
0.0578367
0.0571456
0.0564525
0.055804
0.0552516
0.0548002
0.0544986
0.0544294
0.0546366
0.0550304
0.0555339
0.0560416
0.0564151
0.0566426
0.0567991
0.0569427
0.0570922
0.0572365
0.0573944
0.0575696
0.0577565
0.0579505
0.0581491
0.0583407
0.058522
0.0586858
0.0588316
0.0589592
0.0590656
0.0591374
0.0591735
0.0591557
0.0590636
0.0588605
0.0585835
0.0582438
0.0578569
0.0574467
0.0570125
0.0563404
0.0549533
0.0523852
0.0492344
0.0473548
0.0468354
0.0467533
0.0466142
0.0463032
0.0574344
0.0569313
0.0565239
0.0561983
0.055964
0.0558257
0.0557794
0.0558095
0.0559013
0.0560434
0.0562202
0.0564115
0.0566004
0.0567694
0.0569119
0.057044
0.0571679
0.0572866
0.0574012
0.0575108
0.0576254
0.0577493
0.0578812
0.0580206
0.058168
0.0583166
0.0584618
0.0586008
0.0587294
0.0588447
0.0589406
0.0590076
0.0590387
0.0590227
0.0589421
0.0587707
0.0585246
0.0582279
0.05779
0.0574129
0.0569337
0.0561292
0.0546149
0.0522573
0.0496968
0.0479756
0.047228
0.0469593
0.0467762
0.0465322
0.0564616
0.0562928
0.056193
0.0561563
0.0561747
0.0562356
0.0563267
0.0564373
0.0565593
0.0566848
0.0568107
0.0569349
0.0570527
0.0571609
0.0572599
0.0573569
0.0574502
0.05754
0.0576283
0.0577154
0.0578047
0.0578979
0.057995
0.0580964
0.0582017
0.0583091
0.0584191
0.0585267
0.0586272
0.0587192
0.0587945
0.0588481
0.0588705
0.0588498
0.0587712
0.0586164
0.0583934
0.0581152
0.0577124
0.0572472
0.0566747
0.0557301
0.0541494
0.0520542
0.0499941
0.0485116
0.047681
0.0472538
0.046981
0.0467205
0.0563411
0.0563614
0.0564101
0.0564813
0.0565668
0.0566612
0.0567598
0.0568587
0.0569553
0.0570482
0.0571377
0.0572229
0.0573029
0.0573787
0.0574508
0.0575216
0.057592
0.0576621
0.0577312
0.0577986
0.057868
0.0579397
0.0580139
0.0580905
0.0581692
0.0582488
0.0583286
0.058407
0.0584814
0.0585457
0.0585965
0.0586278
0.0586304
0.0585932
0.0585048
0.0583497
0.0581299
0.0578496
0.0574695
0.0570065
0.0562498
0.0551675
0.0536099
0.0518248
0.0501845
0.0489401
0.0481215
0.0476029
0.0472441
0.0469444
0.0565932
0.0566586
0.056729
0.0568027
0.0568762
0.0569476
0.0570168
0.0570824
0.0571446
0.0572046
0.0572623
0.0573172
0.0573697
0.0574209
0.0574715
0.0575214
0.0575719
0.0576231
0.0576745
0.0577272
0.0577818
0.0578368
0.057892
0.0579478
0.0580032
0.0580593
0.0581142
0.0581641
0.0582094
0.0582447
0.0582656
0.0582659
0.0582389
0.0581747
0.0580626
0.0578904
0.0576586
0.0573682
0.0569978
0.0565447
0.0557623
0.0544985
0.0530637
0.0515992
0.0503088
0.04929
0.0485422
0.0480045
0.0476076
0.0472955
0.0567968
0.0568408
0.0568845
0.0569259
0.0569649
0.0570012
0.0570352
0.0570674
0.0570983
0.057128
0.0571568
0.0571851
0.057213
0.0572408
0.0572699
0.0573
0.0573305
0.0573622
0.0573955
0.0574301
0.0574647
0.0574992
0.0575338
0.0575681
0.0576011
0.057631
0.0576576
0.0576792
0.0576927
0.0576939
0.05768
0.0576459
0.0575843
0.057487
0.0573483
0.0571602
0.056922
0.0566347
0.0562895
0.0558756
0.0552095
0.0538162
0.0525795
0.0514257
0.0504314
0.049621
0.0489874
0.0485025
0.0481362
0.0478631
0.0568003
0.0568075
0.056813
0.0568165
0.0568184
0.0568187
0.0568178
0.0568161
0.0568139
0.0568114
0.0568087
0.056806
0.0568036
0.0568018
0.0568008
0.0568009
0.0568024
0.0568054
0.056809
0.0568131
0.0568179
0.0568227
0.0568272
0.0568304
0.0568311
0.0568283
0.0568206
0.0568067
0.0567851
0.0567519
0.0567037
0.056637
0.0565475
0.0564302
0.0562822
0.0561001
0.0558873
0.0556487
0.0553811
0.0550609
0.0545561
0.0532509
0.052247
0.0513762
0.0506405
0.0500373
0.0495557
0.0491831
0.0489088
0.0487222
0.0815967
0.08105
0.080509
0.079957
0.0793865
0.0787921
0.0781706
0.0775206
0.0768413
0.0761328
0.0753955
0.0746302
0.0738382
0.0730211
0.0721816
0.0713233
0.07045
0.069567
0.0686809
0.067797
0.0669209
0.0660584
0.0652128
0.0643891
0.0635904
0.0628188
0.062076
0.0613632
0.0606816
0.06003
0.0594078
0.0588148
0.0582493
0.0577085
0.0571895
0.0566885
0.0562059
0.0557518
0.0553597
0.0551275
0.0542001
0.0536881
0.0533522
0.0531705
0.0531219
0.0531921
0.053368
0.0536397
0.0540028
0.054454
0.00545337
0.0054259
0.00539945
0.00537511
0.00535283
0.00533229
0.00531253
0.00529319
0.00527391
0.0052544
0.00523444
0.00521392
0.00519274
0.00517094
0.00514859
0.00512583
0.00510285
0.00507982
0.00505695
0.00503449
0.00502275
0.00500497
0.00496377
0.00493002
0.00490161
0.00487693
0.00485481
0.0048371
0.00482018
0.00480285
0.00478496
0.00475872
0.00474708
0.00473234
0.00471641
0.00470041
0.00468487
0.00466988
0.00465531
0.00464089
0.00462627
0.00461103
0.00459541
0.00457948
0.00456247
0.00454193
0.0045156
0.0044893
0.00448551
0.00454005
0.00538221
0.00525391
0.00513272
0.00501901
0.00491236
0.00481221
0.00471844
0.00463015
0.00454647
0.00446659
0.0043898
0.0043156
0.00424363
0.00417371
0.00410577
0.00403985
0.00397603
0.00391447
0.00385362
0.00379773
0.0037138
0.0157794
0.0157841
0.0158252
0.0158592
0.01587
0.0158555
0.0158044
0.0157422
0.0156872
0.0156479
0.0156744
0.0156198
0.015575
0.0155469
0.0155319
0.015523
0.0155134
0.0154977
0.0154724
0.0154354
0.0153878
0.0153322
0.015279
0.0152443
0.0152212
0.0150894
0.014559
0.0133799
0.0118752
0.00538229
0.00525372
0.00513135
0.00501593
0.00490715
0.00480449
0.00470723
0.00461458
0.00452583
0.00444032
0.00435757
0.0042772
0.00419899
0.00412283
0.00404868
0.0039766
0.00390666
0.00383776
0.0037146
0.00362196
0.0153969
0.0153999
0.0153536
0.0152794
0.0151906
0.0150947
0.0149955
0.0148949
0.0147952
0.0146986
0.014606
0.0145199
0.0144315
0.0143473
0.0142663
0.014187
0.0141081
0.0140283
0.0139466
0.0138624
0.0137752
0.013683
0.0135815
0.01347
0.0133724
0.0133677
0.0135961
0.0141029
0.0144578
0.0134316
0.00538232
0.00525478
0.00513359
0.00501924
0.00491134
0.00480933
0.0047125
0.0046201
0.00453144
0.0044459
0.00436303
0.0042825
0.00420407
0.00412766
0.00405325
0.00398089
0.00391065
0.00384264
0.00377707
0.0157875
0.0156504
0.0155209
0.015397
0.0152772
0.0151607
0.0150469
0.0149353
0.0148256
0.0147176
0.0146113
0.0145067
0.0144038
0.0143022
0.0142017
0.0141018
0.0140018
0.0139009
0.0137983
0.0136931
0.0135855
0.0134774
0.0133713
0.0132643
0.0131358
0.0129423
0.0126582
0.0123778
0.0123669
0.0128127
0.0127205
0.00538231
0.0052548
0.00513357
0.00501909
0.00491099
0.00480875
0.00471169
0.0046191
0.00453028
0.00444466
0.00436173
0.00428118
0.00420278
0.00412644
0.00405214
0.00397991
0.00390983
0.003842
0.00377658
0.0157915
0.0156553
0.0155248
0.0153995
0.0152785
0.0151612
0.0150467
0.0149345
0.0148242
0.0147155
0.0146083
0.0145025
0.014398
0.0142944
0.0141916
0.0140889
0.0139857
0.0138814
0.0137752
0.0136659
0.0135524
0.0134348
0.0133193
0.0132216
0.0131595
0.0131208
0.0130237
0.0127619
0.0124425
0.0124995
0.0125116
0.00538231
0.00525484
0.00513372
0.00501937
0.00491145
0.00480939
0.00471251
0.00462008
0.00453141
0.00444591
0.00436312
0.0042827
0.00420443
0.00412823
0.00405406
0.00398198
0.00391205
0.00384436
0.00377907
0.0158142
0.0156777
0.0155466
0.0154206
0.0152987
0.0151804
0.0150648
0.0149514
0.01484
0.0147302
0.0146219
0.014515
0.0144094
0.0143047
0.0142007
0.0140966
0.013992
0.0138861
0.0137788
0.0136698
0.0135577
0.0134381
0.0133046
0.0131582
0.013023
0.0129441
0.0129293
0.012864
0.0126219
0.012505
0.012456
0.00538231
0.00525485
0.00513372
0.00501934
0.00491134
0.00480919
0.0047122
0.00461967
0.0045309
0.00444532
0.00436248
0.00428203
0.00420378
0.00412762
0.00405352
0.00398154
0.00391174
0.00384418
0.00377903
0.0158171
0.0156815
0.0155512
0.0154255
0.0153036
0.0151847
0.0150682
0.0149537
0.0148409
0.0147297
0.0146202
0.0145122
0.0144056
0.0143002
0.0141955
0.014091
0.0139859
0.0138794
0.013771
0.0136614
0.0135531
0.0134479
0.013341
0.0132176
0.013067
0.0129158
0.0128284
0.0128005
0.0126745
0.0125451
0.0124552
0.0053823
0.00525484
0.00513368
0.00501928
0.00491124
0.00480905
0.00471203
0.00461947
0.00453071
0.00444517
0.00436238
0.00428203
0.00420389
0.00412788
0.00405396
0.00398216
0.00391255
0.00384518
0.00378022
0.0158296
0.0156946
0.0155646
0.0154384
0.0153148
0.0151929
0.0150724
0.0149531
0.0148352
0.0147192
0.0146052
0.0144935
0.014384
0.0142765
0.0141706
0.0140656
0.0139609
0.0138554
0.0137476
0.013636
0.0135212
0.0134083
0.0133044
0.0132076
0.0130971
0.0129556
0.0128194
0.0127493
0.0126638
0.0125588
0.0124615
0.00538229
0.00525481
0.00513362
0.00501915
0.00491103
0.00480875
0.00471165
0.00461902
0.0045302
0.00444463
0.00436185
0.00428153
0.00420348
0.00412757
0.00405378
0.00398214
0.00391269
0.00384548
0.00378067
0.0158358
0.0157013
0.0155714
0.0154452
0.0153214
0.0151991
0.0150778
0.0149576
0.0148386
0.0147212
0.0146057
0.0144924
0.0143812
0.014272
0.0141642
0.0140573
0.0139511
0.0138453
0.0137393
0.0136313
0.0135185
0.0134
0.0132825
0.0131771
0.0130829
0.0129743
0.0128429
0.0127412
0.0126532
0.0125605
0.0124666
0.00538228
0.00525478
0.00513354
0.005019
0.00491078
0.0048084
0.00471121
0.00461851
0.00452966
0.00444408
0.00436134
0.00428111
0.00420318
0.00412743
0.00405383
0.00398239
0.00391314
0.00384612
0.00378148
0.0158444
0.0157098
0.0155797
0.0154534
0.0153299
0.0152082
0.0150878
0.0149683
0.0148498
0.0147323
0.0146162
0.0145015
0.0143884
0.0142766
0.014166
0.014056
0.013946
0.013836
0.0137266
0.0136184
0.0135101
0.0133979
0.0132795
0.0131626
0.0130599
0.0129642
0.0128524
0.0127452
0.0126496
0.0125582
0.0124669
0.00538227
0.00525473
0.00513343
0.0050188
0.00491049
0.004808
0.00471071
0.00461794
0.00452904
0.00444347
0.00436077
0.00428063
0.00420282
0.00412723
0.00405381
0.00398257
0.00391352
0.00384669
0.00378221
0.0158523
0.0157181
0.0155881
0.0154612
0.0153365
0.0152131
0.0150906
0.014969
0.0148485
0.0147291
0.0146113
0.0144949
0.0143801
0.0142666
0.0141543
0.0140428
0.0139315
0.0138197
0.0137073
0.0135958
0.0134867
0.0133796
0.0132694
0.0131546
0.0130447
0.012947
0.0128467
0.0127449
0.0126479
0.0125555
0.0124649
0.00538226
0.00525469
0.00513333
0.00501859
0.00491016
0.00480755
0.00471015
0.0046173
0.00452836
0.00444278
0.00436013
0.00428007
0.00420239
0.00412696
0.00405373
0.00398268
0.00391381
0.00384715
0.00378281
0.0158587
0.0157246
0.0155941
0.015466
0.0153396
0.0152146
0.0150907
0.014968
0.0148467
0.0147269
0.0146086
0.0144919
0.0143764
0.0142619
0.0141482
0.0140354
0.0139233
0.0138114
0.0136991
0.0135862
0.0134745
0.0133665
0.0132613
0.0131539
0.0130453
0.0129444
0.0128471
0.0127501
0.0126545
0.0125615
0.01247
0.00538225
0.00525463
0.0051332
0.00501836
0.00490981
0.00480709
0.00470959
0.00461667
0.00452771
0.00444216
0.00435958
0.00427964
0.00420212
0.0041269
0.00405388
0.00398306
0.00391442
0.00384794
0.00378377
0.0158695
0.0157366
0.015604
0.0154711
0.0153387
0.0152077
0.0150791
0.0149535
0.014831
0.0147114
0.0145942
0.014479
0.014365
0.0142518
0.0141389
0.0140261
0.0139138
0.0138022
0.0136913
0.0135804
0.0134694
0.0133606
0.0132562
0.013154
0.0130507
0.0129506
0.0128543
0.0127596
0.0126657
0.0125726
0.01248
0.00538224
0.00525458
0.00513305
0.00501809
0.00490939
0.00480652
0.00470889
0.00461585
0.00452681
0.00444122
0.00435865
0.00427877
0.00420135
0.00412625
0.0040534
0.00398273
0.00391424
0.00384788
0.00378377
0.0158678
0.0157334
0.0156025
0.0154746
0.0153489
0.015225
0.0151024
0.0149809
0.0148603
0.0147406
0.0146216
0.0145032
0.0143853
0.0142678
0.0141506
0.0140337
0.0139171
0.0138017
0.0136881
0.0135767
0.0134666
0.0133581
0.0132534
0.0131531
0.0130542
0.0129569
0.0128622
0.0127691
0.0126765
0.0125838
0.0124906
0.00538223
0.00525452
0.00513291
0.00501784
0.00490904
0.0048061
0.00470842
0.00461538
0.00452638
0.00444087
0.00435842
0.0042787
0.00420147
0.00412659
0.00405396
0.0039835
0.00391519
0.00384898
0.00378495
0.0158775
0.0157427
0.0156115
0.0154833
0.0153573
0.0152328
0.0151092
0.0149864
0.0148642
0.0147426
0.0146215
0.0145008
0.0143803
0.0142603
0.0141407
0.0140216
0.0139034
0.0137864
0.0136717
0.01356
0.0134516
0.0133458
0.0132432
0.013145
0.01305
0.0129568
0.0128653
0.0127747
0.0126841
0.0125928
0.0125001
0.00538222
0.00525442
0.00513262
0.00501729
0.00490819
0.00480492
0.00470695
0.00461365
0.00452443
0.00443877
0.00435623
0.00427649
0.00419929
0.00412449
0.00405195
0.00398161
0.00391339
0.00384726
0.00378328
0.0158642
0.0157298
0.015599
0.0154717
0.015347
0.0152244
0.0151032
0.0149829
0.0148631
0.0147435
0.0146239
0.0145041
0.014384
0.0142637
0.0141433
0.0140234
0.0139045
0.0137871
0.013672
0.0135602
0.0134527
0.0133491
0.0132491
0.0131532
0.013061
0.0129713
0.012883
0.0127953
0.0127074
0.0126185
0.0125282
0.00538221
0.00525437
0.00513257
0.00501731
0.00490831
0.00480517
0.00470731
0.00461412
0.004525
0.00443945
0.00435701
0.00427737
0.00420027
0.00412556
0.00405311
0.00398282
0.00391464
0.0038485
0.00378448
0.0158732
0.0157378
0.0156061
0.0154781
0.0153531
0.0152302
0.0151092
0.0149893
0.0148703
0.0147517
0.0146333
0.0145149
0.0143964
0.0142778
0.0141592
0.0140413
0.0139248
0.0138105
0.013699
0.0135915
0.0134887
0.0133912
0.0132983
0.0132101
0.013126
0.0130451
0.0129661
0.0128883
0.0128108
0.0127331
0.0126553
0.0053822
0.00525344
0.00513051
0.00501419
0.00490427
0.00480039
0.00470199
0.00460845
0.00451916
0.00443356
0.00435122
0.00427179
0.00419501
0.00412069
0.0040487
0.0039789
0.00391122
0.00384559
0.00378207
0.0158593
0.0157294
0.0156027
0.0154811
0.0153656
0.0152442
0.0151249
0.0150089
0.0148965
0.0147872
0.0146806
0.0145834
0.0144932
0.014405
0.0143167
0.0142277
0.0141389
0.0140511
0.0139656
0.0138834
0.0138057
0.0137336
0.013667
0.0136055
0.0135488
0.0134959
0.0134457
0.0133973
0.0133501
0.0133042
0.0132604
0.00538254
0.00525482
0.0051337
0.00501939
0.00491165
0.00481064
0.0047157
0.00462611
0.00454122
0.00446046
0.00438338
0.00430959
0.0042388
0.00417076
0.00410525
0.00404208
0.00398108
0.00392207
0.00386492
0.00380885
0.00372306
0.00364654
0.0035894
0.0154987
0.0155805
0.0155549
0.0154841
0.0153999
0.0153167
0.0152398
0.0151675
0.0152075
0.0152861
0.0153663
0.0154316
0.0154772
0.0155039
0.0155148
0.0155141
0.0155057
0.0154934
0.0154797
0.0154659
0.0154526
0.0154398
0.015427
0.0154137
0.0153998
0.0153864
0.0153769
0.0054515
0.00542432
0.00539877
0.00537498
0.00535283
0.00533148
0.00531064
0.00529011
0.0052697
0.0052493
0.00522883
0.00520825
0.00518757
0.00516681
0.00514598
0.00512513
0.00510427
0.00508345
0.00506273
0.00504207
0.00500033
0.00497652
0.00495368
0.00495306
0.00494503
0.00493202
0.00491585
0.00489778
0.00487862
0.00485876
0.0048197
0.00478697
0.00475873
0.00473372
0.00471094
0.00468983
0.00467007
0.00465153
0.00463418
0.004618
0.0046029
0.00458887
0.00457574
0.00456324
0.00455109
0.00453896
0.00452652
0.00451347
0.00449951
0.00448426
0.00997246
0.00770214
0.0062912
0.00560423
0.00542473
0.00556576
0.00588229
0.00626148
0.00662015
0.00690844
0.00710876
0.0072278
0.00728575
0.00729599
0.00735029
0.00742165
0.00750207
0.00759684
0.00776003
0.00791528
0.0100012
0.00761539
0.00618145
0.0055242
0.00538564
0.00556238
0.00590421
0.00629582
0.006655
0.0069355
0.00712214
0.00722612
0.0072703
0.00727767
0.00737075
0.00746952
0.0075743
0.00769903
0.0079286
0.00812366
0.0100606
0.00753612
0.00608134
0.00545571
0.00535889
0.00557094
0.00593586
0.00633827
0.00669749
0.00696935
0.00714218
0.00723114
0.00726343
0.00726532
0.00736136
0.00744313
0.00753642
0.00767169
0.00792716
0.0081445
0.0101177
0.00744355
0.00597564
0.0053887
0.00533533
0.00558207
0.00596957
0.00638264
0.00674156
0.00700417
0.00716249
0.00723603
0.00725737
0.00725498
0.00733576
0.0074167
0.00750466
0.00765076
0.00793127
0.00816398
0.0101655
0.00734584
0.00587257
0.00532744
0.00531803
0.00559868
0.00600794
0.0064305
0.00678822
0.00704131
0.0071846
0.00724133
0.00725098
0.00725172
0.00731967
0.00739512
0.00747397
0.00762925
0.00793386
0.00818132
0.0102081
0.00724552
0.00577304
0.005273
0.00530751
0.00562062
0.00605027
0.00648166
0.00683793
0.0070809
0.00720854
0.00724803
0.00724429
0.00725054
0.00730993
0.0073746
0.00743844
0.00760262
0.0079311
0.00819688
0.0102473
0.00714363
0.00567872
0.00522548
0.00530281
0.00564721
0.00609643
0.00653612
0.00689082
0.00712343
0.00723447
0.00725593
0.00723929
0.0072481
0.00730236
0.0073482
0.00739653
0.00757015
0.00792267
0.00821199
0.0102856
0.00704194
0.00558996
0.00518503
0.0053038
0.00567776
0.00614566
0.00659363
0.00694658
0.00716845
0.00726236
0.00726546
0.00723746
0.00724708
0.0072931
0.00731326
0.0073499
0.00753413
0.00791039
0.00822821
0.0103223
0.00694205
0.00550754
0.00515099
0.00530966
0.00571211
0.00619817
0.00665419
0.00700508
0.00721578
0.00729189
0.00727615
0.00723768
0.0072446
0.00727722
0.00727201
0.00730174
0.00749744
0.00789678
0.00824691
0.0103592
0.00684391
0.0054314
0.0051234
0.00532032
0.00574993
0.00625347
0.00671718
0.00706571
0.00726474
0.00732192
0.0072867
0.00723896
0.00723981
0.00725644
0.0072273
0.00725421
0.00746225
0.00788412
0.00826904
0.0103955
0.00674859
0.00536206
0.00510206
0.00533503
0.00579027
0.00631086
0.0067824
0.0071282
0.00731412
0.00735022
0.00729468
0.00724094
0.00723376
0.00723335
0.00718088
0.00720787
0.00742944
0.00787393
0.00829514
0.0104317
0.00665744
0.00529984
0.00508635
0.00535313
0.00583278
0.00636979
0.00684876
0.00719145
0.00736276
0.00737534
0.00729784
0.00724316
0.00722748
0.00721037
0.00713322
0.0071621
0.00739891
0.00786692
0.00832532
0.0104685
0.00657085
0.00524474
0.0050758
0.00537391
0.00587658
0.00642955
0.00691549
0.00725432
0.00740949
0.00739577
0.00729383
0.00724457
0.00722095
0.00718762
0.00708381
0.00711618
0.00737029
0.00786325
0.00835918
0.0105058
0.00648914
0.0051964
0.00506947
0.00539645
0.00592061
0.00648894
0.00698169
0.00731607
0.00745357
0.00740995
0.00727947
0.00724336
0.00721381
0.00716414
0.00703266
0.00706997
0.00734326
0.00786275
0.00839608
0.0105431
0.00641261
0.00515463
0.00506667
0.00541965
0.00596383
0.00654689
0.00704633
0.0073758
0.00749377
0.00741595
0.00725054
0.00723675
0.00720423
0.00714076
0.00698097
0.00702379
0.00731748
0.00786492
0.00843548
0.0105806
0.00634185
0.0051189
0.00506647
0.00544249
0.00600514
0.00660232
0.00710812
0.00743206
0.00752844
0.0074116
0.00720306
0.007227
0.00719377
0.00712091
0.00692982
0.00697783
0.00729265
0.00786933
0.00847693
0.0106176
0.00627712
0.00508887
0.00506802
0.00546418
0.00604366
0.00665402
0.00716558
0.00748307
0.00755595
0.00739585
0.00713588
0.0072322
0.00719797
0.00710044
0.00687785
0.00693184
0.00726876
0.00787628
0.00851996
0.0106543
0.00621882
0.00506424
0.0050708
0.00548406
0.00607848
0.00670073
0.00721712
0.00752724
0.00757554
0.00736998
0.00705223
0.00728117
0.00724327
0.00705968
0.0068201
0.00688506
0.00724622
0.00788626
0.00856439
0.0106909
0.00616765
0.00504474
0.00507428
0.00550153
0.00610871
0.00674135
0.00726155
0.00756383
0.00758778
0.00733752
0.00695931
0.00732268
0.00731872
0.00697881
0.00674981
0.00683692
0.00722598
0.00789977
0.00860969
0.010728
0.00612414
0.00503005
0.00507797
0.00551602
0.0061337
0.00677514
0.0072983
0.00759285
0.00759423
0.00730383
0.00686864
0.00710406
0.0072061
0.0067999
0.00665636
0.00678756
0.00720925
0.00791739
0.00865525
0.0107661
0.0060884
0.00501964
0.0050814
0.00552717
0.00615307
0.00680165
0.00732702
0.00761445
0.00759681
0.00727581
0.00679883
0.00696465
0.00653877
0.00639798
0.00652542
0.00673751
0.00719759
0.00793967
0.0087008
0.0108057
0.0060604
0.0050132
0.00508424
0.00553478
0.0061665
0.00682043
0.00734729
0.00762875
0.00759757
0.00726098
0.0067653
0.00706201
0.0065244
0.00621078
0.00641518
0.00669359
0.00719303
0.00796735
0.00874637
0.0108462
0.00604059
0.00501079
0.00508641
0.00553866
0.00617345
0.00683077
0.00735865
0.00763623
0.00759907
0.00726447
0.00677232
0.00665895
0.00638058
0.00611784
0.00634622
0.00666281
0.00719787
0.00800127
0.00879223
0.0108869
0.00603056
0.00501295
0.005088
0.00553854
0.0061733
0.00683196
0.0073607
0.00763745
0.00760308
0.00728232
0.00681157
0.0064314
0.00628556
0.00607695
0.00631144
0.00664592
0.00721282
0.00804164
0.00883843
0.01093
0.00603233
0.00501724
0.00508674
0.00553215
0.0061647
0.0068244
0.00735588
0.00763556
0.00760685
0.00730675
0.00682276
0.00640726
0.00622326
0.00608835
0.00627376
0.00663179
0.00723437
0.00808841
0.00888335
0.0109866
0.00603914
0.00502099
0.0050809
0.00551784
0.0061465
0.0068081
0.00734577
0.00763366
0.00761232
0.00731784
0.00682608
0.00633431
0.0061355
0.0060746
0.00623701
0.00662765
0.00726599
0.00813874
0.00892539
0.011058
0.0060516
0.00502462
0.00507074
0.00549558
0.00611832
0.00678227
0.00732939
0.00763157
0.00762323
0.00732507
0.00682678
0.00627213
0.00605811
0.00601426
0.0062104
0.00663997
0.00731193
0.00819329
0.00896413
0.011146
0.00607068
0.00502888
0.0050567
0.00546526
0.00607934
0.00674532
0.00730501
0.00762834
0.00764357
0.00736013
0.0068593
0.00628707
0.00596181
0.00596121
0.00621102
0.00667742
0.00737444
0.00825163
0.00899934
0.0112527
0.00609748
0.00503459
0.0050393
0.00542671
0.00602838
0.00669521
0.00727043
0.00762231
0.00767401
0.00742674
0.00695282
0.00636346
0.00588511
0.00596497
0.00625387
0.00674627
0.0074542
0.00831318
0.00903108
0.0113802
0.00613289
0.00504245
0.00501895
0.00537971
0.00596421
0.00662986
0.00722305
0.00761059
0.00771137
0.00751914
0.00709428
0.00651122
0.0059152
0.0060382
0.0063463
0.00684802
0.00754999
0.0083772
0.00905948
0.0115303
0.00617759
0.00505323
0.00499624
0.00532442
0.00588595
0.0065473
0.00715958
0.00758858
0.00774893
0.00762613
0.0072684
0.00673063
0.00610305
0.00617952
0.00648713
0.00698014
0.00765938
0.00844281
0.00908458
0.0117046
0.00623205
0.00506773
0.00497222
0.0052616
0.00579341
0.00644575
0.00707618
0.00755028
0.00777794
0.00773483
0.00745818
0.00700245
0.00646051
0.00638158
0.00666953
0.00713744
0.00777906
0.0085089
0.00910624
0.0119046
0.00629688
0.005087
0.0049485
0.00519268
0.00568704
0.00632374
0.00696887
0.00748926
0.0077893
0.00783286
0.0076438
0.0072715
0.00680065
0.00662819
0.00688369
0.00731316
0.00790515
0.00857405
0.00912422
0.0121322
0.00637281
0.00511233
0.00492715
0.00511988
0.00556806
0.00618044
0.0068341
0.00739906
0.00777393
0.00790941
0.00781392
0.00752891
0.00712912
0.00690108
0.00711803
0.00749989
0.0080337
0.00863685
0.00913829
0.0123895
0.00646064
0.00514528
0.00491061
0.00504641
0.00543914
0.00601633
0.00666929
0.00727351
0.0077226
0.00795345
0.00795715
0.00776338
0.00743482
0.00718115
0.00736097
0.00769065
0.00816127
0.00869612
0.00914828
0.0126792
0.00656106
0.00518739
0.00490159
0.00497638
0.00530449
0.00583367
0.00647311
0.00710692
0.00762573
0.00795335
0.00806227
0.00796673
0.00771473
0.00745982
0.00760354
0.00787968
0.008285
0.00875097
0.00915414
0.0130041
0.00667455
0.00523993
0.00490282
0.00491455
0.00516987
0.00563686
0.00624613
0.00689463
0.00747362
0.00789605
0.00811587
0.00812935
0.00796796
0.00774042
0.00783837
0.00806212
0.0084022
0.00880071
0.00915596
0.0133671
0.00680113
0.00530373
0.00491664
0.00486595
0.00504248
0.00543285
0.00599198
0.00663461
0.00725772
0.00776727
0.00810062
0.0082357
0.00818801
0.00802894
0.00805814
0.00823308
0.00851025
0.00884439
0.00915343
0.0137708
0.0069399
0.00537886
0.0049444
0.00483502
0.00493047
0.00523162
0.00571895
0.00632986
0.00697329
0.00755362
0.00799522
0.00825773
0.00833888
0.0082826
0.00825384
0.00838734
0.00860657
0.00888044
0.00914543
0.0142167
0.00708901
0.00546456
0.00498614
0.00482494
0.00484218
0.00504617
0.0054412
0.00599095
0.00662314
0.00724763
0.00778128
0.00816689
0.00838103
0.0084366
0.00841602
0.00851941
0.00868804
0.00890757
0.00913111
0.0147048
0.0072458
0.00555931
0.00504059
0.00483689
0.00478473
0.00489109
0.00517847
0.00563766
0.00622109
0.00685252
0.00744876
0.0079414
0.00829074
0.00848547
0.00854532
0.00862329
0.00875102
0.00892463
0.00911046
0.0152337
0.00740716
0.00566151
0.00510554
0.00486978
0.00476218
0.00477953
0.00495365
0.00529858
0.00579429
0.0063863
0.00700035
0.00756445
0.00802982
0.00837431
0.00858975
0.00869394
0.00879342