/*--------------------------------*- C++ -*----------------------------------*\
  =========                 |
  \\      /  F ield         | OpenFOAM: The Open Source CFD Toolbox
   \\    /   O peration     | Website:  https://openfoam.org
    \\  /    A nd           | Version:  8
     \\/     M anipulation  |
\*---------------------------------------------------------------------------*/
FoamFile
{
    version     2.0;
    format      ascii;
    class       volScalarField;
    location    "700";
    object      epsilon;
}
// * * * * * * * * * * * * * * * * * * * * * * * * * * * * * * * * * * * * * //

dimensions      [0 2 -3 0 0 0 0];

internalField   nonuniform List<scalar> 
8400
(
0.0169881
0.0164948
0.0160516
0.0156446
0.0152694
0.0149231
0.014601
0.0142959
0.0139994
0.0137045
0.0134082
0.0131102
0.0128252
0.0125522
0.0122867
0.0120241
0.0117602
0.0114907
0.011212
0.0109212
0.0106189
0.0102925
0.00991571
0.00945182
0.0088611
0.00811273
0.00720053
0.00615983
0.00507947
0.00410133
0.00340007
0.00309086
0.00297755
0.00286242
0.00275119
0.0026429
0.00253651
0.00243459
0.00233624
0.00224056
0.00214825
0.00205841
0.00197009
0.00188249
0.00179609
0.00171111
0.00162811
0.00154699
0.00146795
0.00139117
0.00859084
0.00861343
0.00864537
0.00870386
0.0087775
0.00886177
0.00895535
0.00905891
0.00917807
0.00931807
0.00947534
0.00964537
0.0098065
0.00995348
0.0100873
0.0102107
0.0103279
0.0104484
0.0106014
0.0107861
0.0109235
0.0110386
0.0111086
0.0111041
0.0109919
0.0107074
0.0101322
0.00911249
0.00757246
0.00565309
0.00364433
0.00254966
0.00241957
0.00238577
0.00235715
0.00233798
0.00232635
0.0023042
0.0022432
0.00213603
0.00203431
0.00194375
0.00187346
0.00182437
0.00179365
0.00176876
0.00174333
0.00171792
0.00169244
0.00166674
0.0124001
0.0119277
0.0117097
0.0116211
0.0116287
0.0116742
0.0117248
0.0117474
0.0117013
0.0115389
0.0112711
0.0108902
0.0104124
0.00990685
0.00947881
0.00917281
0.00896651
0.00881837
0.00880014
0.00979399
0.0107638
0.0112519
0.0114891
0.0116079
0.0116627
0.0116752
0.0116529
0.011594
0.0114769
0.0112756
0.00742859
0.00353355
0.00338029
0.00341862
0.00348998
0.00354321
0.00349064
0.00350398
0.00345402
0.00329264
0.00316103
0.00304299
0.00296209
0.00291986
0.00291118
0.00291712
0.00293183
0.00294922
0.00296417
0.00297217
0.0131288
0.0130819
0.0130344
0.0129871
0.0129411
0.0128951
0.0128485
0.0128002
0.0127489
0.012692
0.0126307
0.0125651
0.0124956
0.0124182
0.0123171
0.0122002
0.0120974
0.0120283
0.0120238
0.0120328
0.012049
0.0120648
0.0120754
0.0120778
0.0120691
0.0120454
0.0120009
0.0119348
0.0118656
0.0117735
0.0113732
0.0101418
0.00886373
0.0077213
0.00641828
0.00457877
0.00458674
0.00459278
0.00450273
0.00432005
0.00422142
0.00409484
0.00402122
0.00399501
0.00401341
0.00405056
0.00410041
0.00415383
0.00420296
0.00424191
0.0131542
0.013137
0.0131197
0.0131022
0.0130845
0.0130667
0.0130486
0.0130305
0.0130123
0.0129941
0.0129759
0.0129576
0.0129391
0.0129201
0.0129006
0.0128803
0.0128592
0.0128367
0.0128126
0.0127867
0.0127587
0.0127287
0.0126967
0.0126627
0.0126269
0.0125895
0.0125495
0.0125021
0.0124322
0.0123383
0.0121924
0.0118663
0.0113376
0.0106329
0.00968525
0.00865865
0.00812607
0.00817848
0.0050554
0.00502703
0.00499667
0.00488691
0.00483354
0.00483361
0.00487174
0.00493828
0.00501675
0.0050959
0.0051682
0.005229
0.0131491
0.0131262
0.0131033
0.0130801
0.0130568
0.0130334
0.0130098
0.0129862
0.0129626
0.012939
0.0129157
0.0128925
0.0128697
0.012847
0.0128244
0.0128018
0.012779
0.0127559
0.0127323
0.012708
0.0126829
0.012657
0.0126305
0.0126039
0.0125779
0.0125513
0.0125238
0.0124942
0.0124584
0.0124107
0.0123407
0.0122129
0.011987
0.0116348
0.0111151
0.0104765
0.00989616
0.00944763
0.00860536
0.0084093
0.00537799
0.00547539
0.00536446
0.00539895
0.00547023
0.00556159
0.00565706
0.00574863
0.00583071
0.0059004
0.0131461
0.01312
0.0130937
0.013067
0.01304
0.0130129
0.0129856
0.0129581
0.0129306
0.012903
0.0128753
0.0128477
0.01282
0.0127925
0.0127649
0.0127372
0.0127093
0.0126812
0.0126527
0.0126238
0.0125946
0.0125656
0.0125371
0.0125096
0.0124822
0.0124558
0.0124321
0.0124106
0.0123896
0.0123651
0.0123302
0.0122701
0.012161
0.0119765
0.0116838
0.0112785
0.0108173
0.0103491
0.009736
0.00920979
0.00841093
0.00654692
0.0056467
0.00574984
0.00585781
0.00597024
0.00607512
0.00616746
0.00624702
0.00631409
0.0131408
0.0131088
0.0130767
0.0130442
0.0130115
0.0129786
0.0129454
0.0129119
0.0128784
0.012845
0.0128114
0.0127778
0.0127442
0.0127106
0.0126771
0.0126434
0.0126095
0.0125754
0.0125412
0.0125069
0.0124727
0.0124394
0.012408
0.0123764
0.0123467
0.0123215
0.0123019
0.0122877
0.0122778
0.0122689
0.012256
0.01223
0.012176
0.0120744
0.0118993
0.0116318
0.0112828
0.0108729
0.0103462
0.00977035
0.00902162
0.00792476
0.00640691
0.00594302
0.00609557
0.00622194
0.00632491
0.00640725
0.00647213
0.00652259
0.013134
0.0130943
0.0130543
0.0130141
0.0129735
0.0129325
0.0128911
0.0128495
0.0128077
0.0127657
0.0127238
0.0126819
0.0126398
0.0125976
0.0125553
0.0125128
0.0124701
0.0124274
0.0123848
0.0123432
0.0123035
0.0122654
0.0122262
0.0121909
0.0121621
0.0121419
0.0121309
0.0121286
0.0121331
0.0121414
0.0121483
0.0121468
0.0121261
0.0120715
0.0119623
0.0117772
0.0115089
0.0111583
0.0106884
0.0101135
0.00936425
0.00834913
0.00710418
0.00611137
0.00622791
0.00635893
0.0064472
0.00650361
0.00653582
0.00655108
0.013122
0.0130685
0.013015
0.0129613
0.0129073
0.0128529
0.0127979
0.0127424
0.0126869
0.0126308
0.0125748
0.0125189
0.0124628
0.0124061
0.0123491
0.012292
0.0122358
0.0121812
0.0121292
0.0120798
0.0120287
0.0119786
0.0119375
0.0119094
0.0118956
0.0118963
0.0119099
0.0119338
0.0119639
0.0119958
0.012025
0.0120457
0.0120495
0.012025
0.0119556
0.011821
0.0116062
0.0112997
0.0108676
0.0102998
0.00954284
0.00853967
0.0073662
0.00638385
0.00628946
0.00641552
0.00647558
0.00648706
0.0064615
0.00641056
0.0130979
0.0130149
0.0129337
0.0128527
0.0127715
0.0126894
0.0126062
0.0125212
0.0124356
0.0123489
0.0122613
0.012173
0.0120846
0.0119935
0.0118924
0.0117969
0.0117229
0.0116509
0.0115756
0.0115029
0.0114482
0.0114211
0.0114258
0.0114602
0.0115166
0.011586
0.0116595
0.0117301
0.011796
0.0118556
0.0119063
0.011945
0.0119669
0.0119622
0.0119172
0.0118124
0.0116301
0.0113515
0.0109403
0.0103734
0.00960304
0.00859957
0.0074768
0.00657067
0.00633679
0.00641785
0.0064454
0.00639916
0.00628874
0.00612778
0.0129961
0.012788
0.0126292
0.0124726
0.0123032
0.0121056
0.0118607
0.0115096
0.0109623
0.0104015
0.0098567
0.00939204
0.00903814
0.00882428
0.0087722
0.00900101
0.00952862
0.00998711
0.0103264
0.0105955
0.010786
0.0109293
0.0110567
0.0111755
0.0112885
0.0113969
0.0114985
0.0115917
0.0116741
0.0117472
0.0118123
0.0118602
0.0118913
0.0118965
0.0118637
0.0117738
0.0116076
0.0113415
0.0109362
0.0103612
0.00957373
0.00857249
0.00750801
0.00669202
0.00639505
0.0064016
0.0064025
0.006332
0.00619353
0.00599464
0.0123209
0.012009
0.011713
0.011418
0.0111341
0.0108719
0.0106402
0.0104477
0.0103
0.0101962
0.0101291
0.0100969
0.0100975
0.0101287
0.0101894
0.0102728
0.0103723
0.0104738
0.0105775
0.0106905
0.0108035
0.0109113
0.011017
0.0111213
0.0112234
0.0113226
0.0114174
0.0115071
0.0115905
0.0116662
0.0117317
0.0117826
0.0118166
0.0118258
0.0117987
0.0117164
0.011551
0.0112829
0.0108699
0.0102781
0.00947344
0.00848649
0.00749688
0.00677503
0.00646278
0.00639929
0.00636599
0.00628521
0.00614896
0.00596457
0.0113313
0.0110738
0.0108437
0.010653
0.010505
0.0103987
0.0103304
0.0102944
0.0102852
0.0102969
0.010324
0.0103626
0.0104097
0.0104629
0.0105207
0.0105813
0.0106441
0.0107089
0.0107758
0.0108453
0.0109179
0.0109928
0.0110699
0.0111483
0.0112274
0.0113068
0.0113853
0.0114617
0.0115342
0.0116013
0.0116598
0.0117062
0.0117359
0.0117406
0.0117086
0.0116221
0.0114553
0.0111828
0.0107645
0.0101341
0.00931634
0.00836449
0.00746999
0.00684254
0.00653593
0.00642507
0.00636213
0.00627967
0.00616434
0.00602041
0.0106051
0.0104909
0.010404
0.0103485
0.0103212
0.0103169
0.0103304
0.0103568
0.0103924
0.0104342
0.0104803
0.0105291
0.0105799
0.010632
0.010685
0.0107385
0.0107924
0.0108466
0.0109012
0.0109564
0.0110124
0.0110696
0.0111282
0.011188
0.0112487
0.01131
0.0113709
0.0114307
0.0114881
0.0115408
0.0115857
0.011619
0.0116353
0.0116259
0.0115789
0.0114767
0.0112961
0.0110123
0.0105928
0.00997651
0.00911935
0.00822801
0.00744793
0.00691385
0.00662418
0.006485
0.00640139
0.00632347
0.00623648
0.00614305
0.0103401
0.0103307
0.0103357
0.0103537
0.0103822
0.0104181
0.0104587
0.0105022
0.0105473
0.0105931
0.0106391
0.0106849
0.0107303
0.0107749
0.010819
0.0108626
0.0109059
0.0109488
0.0109916
0.0110344
0.0110774
0.0111207
0.0111643
0.0112084
0.0112528
0.0112972
0.0113408
0.0113827
0.0114215
0.0114554
0.0114812
0.0114944
0.0114893
0.0114573
0.0113864
0.011261
0.0110605
0.0107645
0.010348
0.00976747
0.0089319
0.00810042
0.00744841
0.00700493
0.00674196
0.00659375
0.00650158
0.00643241
0.00637409
0.00632667
0.0103978
0.0104281
0.0104626
0.0104998
0.0105385
0.0105777
0.0106167
0.010655
0.0106924
0.0107286
0.0107638
0.010798
0.0108313
0.0108638
0.0108955
0.0109267
0.0109574
0.0109877
0.0110178
0.0110478
0.0110777
0.0111075
0.0111374
0.0111669
0.0111959
0.0112236
0.0112494
0.0112725
0.0112912
0.0113032
0.0113059
0.0112946
0.0112636
0.0112047
0.0111075
0.0109591
0.0107437
0.0104462
0.0100491
0.00952213
0.00875341
0.00800327
0.00748558
0.00713214
0.00690733
0.00676882
0.00668291
0.006629
0.00659784
0.00658731
0.0105381
0.0105662
0.0105941
0.0106215
0.0106481
0.0106736
0.0106981
0.0107214
0.0107437
0.010765
0.0107856
0.0108055
0.0108249
0.0108437
0.010862
0.01088
0.0108979
0.0109155
0.0109329
0.0109501
0.010967
0.0109834
0.0109992
0.0110138
0.0110268
0.0110378
0.0110456
0.0110492
0.0110471
0.0110371
0.0110161
0.0109802
0.0109243
0.010842
0.0107249
0.010564
0.0103492
0.0100714
0.00971933
0.00926915
0.00857863
0.0079557
0.00756931
0.00730623
0.00713257
0.00702299
0.00695849
0.00692722
0.00692237
0.00694051
0.010595
0.0106068
0.0106176
0.0106274
0.0106362
0.0106441
0.0106511
0.0106573
0.0106629
0.010668
0.0106726
0.0106768
0.0106806
0.0106842
0.0106876
0.0106908
0.0106937
0.0106963
0.0106987
0.0107006
0.010702
0.0107025
0.0107018
0.0106994
0.010695
0.0106878
0.0106768
0.0106609
0.0106385
0.0106079
0.0105667
0.0105117
0.0104393
0.0103449
0.0102234
0.0100701
0.00988041
0.0096507
0.00937526
0.00903595
0.00839309
0.00796691
0.00770555
0.00753178
0.00741952
0.00735303
0.00732176
0.00731868
0.00733853
0.00737749
0.0300721
0.0294076
0.0287709
0.0281436
0.0275179
0.0268891
0.0262542
0.0256126
0.0249643
0.0243102
0.0236517
0.0229902
0.0223274
0.0216651
0.0210051
0.0203492
0.0196994
0.019058
0.0184269
0.0178084
0.0172048
0.0166181
0.0160502
0.0155025
0.0149762
0.0144721
0.0139901
0.0135302
0.0130916
0.0126734
0.012274
0.0118913
0.0115227
0.0111646
0.0108133
0.0104659
0.0101229
0.00979011
0.00947824
0.00918476
0.00859182
0.00850906
0.00855142
0.00867151
0.00885234
0.00908593
0.00936919
0.0097026
0.0100884
0.010529
9.32878e-06
9.20256e-06
9.08364e-06
8.97102e-06
8.86199e-06
8.7526e-06
8.64219e-06
8.53096e-06
8.41947e-06
8.30847e-06
8.19875e-06
8.09103e-06
7.98588e-06
7.88373e-06
7.78482e-06
7.68921e-06
7.59684e-06
7.50751e-06
7.42093e-06
7.3366e-06
7.22985e-06
7.13121e-06
7.03756e-06
6.9458e-06
6.85534e-06
6.76614e-06
6.67834e-06
6.58624e-06
6.49444e-06
6.40519e-06
6.31939e-06
6.25447e-06
6.16856e-06
6.08762e-06
6.01029e-06
5.93547e-06
5.86246e-06
5.79102e-06
5.72134e-06
5.65391e-06
5.58945e-06
5.52835e-06
5.47097e-06
5.41744e-06
5.36763e-06
5.32101e-06
5.27683e-06
5.23422e-06
5.1908e-06
5.14078e-06
8.97816e-06
8.37775e-06
7.83473e-06
7.33979e-06
6.88699e-06
6.47312e-06
6.0934e-06
5.74394e-06
5.4217e-06
5.12433e-06
4.84988e-06
4.59672e-06
4.36337e-06
4.14842e-06
3.95051e-06
3.76827e-06
3.60035e-06
3.44546e-06
3.3027e-06
3.16996e-06
3.09059e-06
7.22404e-07
7.2561e-07
7.25735e-07
7.24131e-07
7.21675e-07
7.18949e-07
7.17967e-07
7.18459e-07
7.19862e-07
7.21506e-07
7.17492e-07
7.18054e-07
7.19166e-07
7.20035e-07
7.20281e-07
7.19773e-07
7.18517e-07
7.16594e-07
7.14144e-07
7.11331e-07
7.08359e-07
7.05409e-07
7.02607e-07
7.00007e-07
6.97602e-07
6.95341e-07
6.93157e-07
6.91048e-07
6.88973e-07
8.97651e-06
8.37109e-06
7.81996e-06
7.3167e-06
6.85487e-06
6.42958e-06
6.03689e-06
5.67365e-06
5.33731e-06
5.02577e-06
4.73727e-06
4.47019e-06
4.22307e-06
3.99448e-06
3.78305e-06
3.58745e-06
3.40635e-06
3.23879e-06
3.16427e-06
3.10203e-06
7.26129e-07
7.19033e-07
7.12817e-07
7.07151e-07
7.01846e-07
6.96798e-07
6.91956e-07
6.87378e-07
6.83057e-07
6.78956e-07
6.75009e-07
6.7081e-07
6.66961e-07
6.63075e-07
6.59093e-07
6.54964e-07
6.50657e-07
6.46176e-07
6.41565e-07
6.36888e-07
6.32233e-07
6.27696e-07
6.23368e-07
6.19324e-07
6.15595e-07
6.12151e-07
6.08895e-07
6.057e-07
6.02554e-07
5.99727e-07
8.97663e-06
8.37545e-06
7.82877e-06
7.32929e-06
6.87048e-06
6.44732e-06
6.05596e-06
5.69336e-06
5.35714e-06
5.0453e-06
4.75615e-06
4.48815e-06
4.23987e-06
4.00995e-06
3.79703e-06
3.5998e-06
3.41698e-06
3.24732e-06
3.09038e-06
7.26703e-07
7.21182e-07
7.15789e-07
7.10501e-07
7.05299e-07
7.00168e-07
6.95097e-07
6.90083e-07
6.85127e-07
6.80224e-07
6.75366e-07
6.70535e-07
6.65699e-07
6.60827e-07
6.55878e-07
6.50813e-07
6.45606e-07
6.40246e-07
6.34747e-07
6.29151e-07
6.23527e-07
6.17959e-07
6.1254e-07
6.07356e-07
6.02476e-07
5.9795e-07
5.93786e-07
5.89922e-07
5.86185e-07
5.82351e-07
5.78513e-07
8.9767e-06
8.37572e-06
7.8289e-06
7.3289e-06
6.86944e-06
6.44569e-06
6.05388e-06
5.691e-06
5.35465e-06
5.04284e-06
4.75385e-06
4.48611e-06
4.23816e-06
4.0086e-06
3.79604e-06
3.59916e-06
3.41664e-06
3.24723e-06
3.09011e-06
7.26601e-07
7.21083e-07
7.15716e-07
7.10457e-07
7.05276e-07
7.00155e-07
6.95084e-07
6.90058e-07
6.85073e-07
6.80124e-07
6.75198e-07
6.70279e-07
6.65339e-07
6.60343e-07
6.55254e-07
6.50036e-07
6.44667e-07
6.39138e-07
6.3347e-07
6.27704e-07
6.2191e-07
6.16174e-07
6.10587e-07
6.05227e-07
6.00151e-07
5.95392e-07
5.90968e-07
5.86885e-07
5.83085e-07
5.79349e-07
5.75588e-07
8.97671e-06
8.37612e-06
7.82999e-06
7.33083e-06
6.87227e-06
6.44941e-06
6.05844e-06
5.69635e-06
5.36069e-06
5.04947e-06
4.76094e-06
4.49357e-06
4.24588e-06
4.01647e-06
3.80397e-06
3.60705e-06
3.4244e-06
3.25478e-06
3.09738e-06
7.27703e-07
7.22133e-07
7.16711e-07
7.11393e-07
7.06153e-07
7.00973e-07
6.95845e-07
6.90763e-07
6.85723e-07
6.80719e-07
6.75738e-07
6.7076e-07
6.65757e-07
6.60696e-07
6.5554e-07
6.50258e-07
6.44828e-07
6.39246e-07
6.33532e-07
6.27729e-07
6.21906e-07
6.16144e-07
6.10535e-07
6.05158e-07
6.00068e-07
5.95276e-07
5.90758e-07
5.86501e-07
5.82491e-07
5.78618e-07
5.7478e-07
8.97672e-06
8.37625e-06
7.83031e-06
7.33134e-06
6.87293e-06
6.45017e-06
6.05927e-06
5.69723e-06
5.36163e-06
5.05047e-06
4.76203e-06
4.49473e-06
4.24711e-06
4.01775e-06
3.80527e-06
3.60834e-06
3.42565e-06
3.25595e-06
3.09843e-06
7.27886e-07
7.22314e-07
7.16867e-07
7.11506e-07
7.06208e-07
7.00965e-07
6.95774e-07
6.90637e-07
6.85551e-07
6.80511e-07
6.75503e-07
6.70505e-07
6.65488e-07
6.60418e-07
6.5526e-07
6.49985e-07
6.44572e-07
6.3902e-07
6.33348e-07
6.27599e-07
6.21837e-07
6.16135e-07
6.10577e-07
6.05239e-07
6.00181e-07
5.95428e-07
5.9095e-07
5.8669e-07
5.82612e-07
5.78644e-07
5.7471e-07
8.97675e-06
8.37637e-06
7.83063e-06
7.3319e-06
6.8738e-06
6.4514e-06
6.06091e-06
5.6993e-06
5.36414e-06
5.05341e-06
4.76536e-06
4.49841e-06
4.25108e-06
4.02193e-06
3.80959e-06
3.6127e-06
3.42997e-06
3.26016e-06
3.10246e-06
7.28465e-07
7.22769e-07
7.17122e-07
7.11497e-07
7.05901e-07
7.0036e-07
6.94898e-07
6.89538e-07
6.84288e-07
6.79141e-07
6.7408e-07
6.69073e-07
6.64083e-07
6.59068e-07
6.53987e-07
6.48807e-07
6.43507e-07
6.38083e-07
6.32551e-07
6.26954e-07
6.21349e-07
6.15803e-07
6.10386e-07
6.0516e-07
6.00178e-07
5.95464e-07
5.91014e-07
5.86769e-07
5.82676e-07
5.78667e-07
5.74679e-07
8.97678e-06
8.37649e-06
7.83087e-06
7.33235e-06
6.87449e-06
6.45237e-06
6.06217e-06
5.70087e-06
5.36601e-06
5.05556e-06
4.76775e-06
4.501e-06
4.25379e-06
4.02471e-06
3.81236e-06
3.6154e-06
3.43252e-06
3.26251e-06
3.10456e-06
7.28784e-07
7.23067e-07
7.1739e-07
7.11727e-07
7.06083e-07
7.00483e-07
6.94955e-07
6.89522e-07
6.84194e-07
6.78967e-07
6.73825e-07
6.6874e-07
6.63679e-07
6.58605e-07
6.53483e-07
6.48284e-07
6.42991e-07
6.37604e-07
6.32139e-07
6.26631e-07
6.21133e-07
6.15705e-07
6.10403e-07
6.05279e-07
6.00365e-07
5.95677e-07
5.91215e-07
5.86934e-07
5.8278e-07
5.78698e-07
5.74629e-07
8.97682e-06
8.37661e-06
7.83112e-06
7.33278e-06
6.87517e-06
6.45338e-06
6.06354e-06
5.70262e-06
5.36814e-06
5.05806e-06
4.77059e-06
4.50411e-06
4.25711e-06
4.02815e-06
3.81584e-06
3.61883e-06
3.43582e-06
3.26562e-06
3.10743e-06
7.29233e-07
7.23538e-07
7.17909e-07
7.12305e-07
7.06712e-07
7.01139e-07
6.956e-07
6.90114e-07
6.84692e-07
6.79338e-07
6.74043e-07
6.68791e-07
6.63562e-07
6.58331e-07
6.53075e-07
6.47777e-07
6.42428e-07
6.37031e-07
6.31602e-07
6.2617e-07
6.20775e-07
6.15464e-07
6.10283e-07
6.05268e-07
6.00439e-07
5.95799e-07
5.91336e-07
5.87019e-07
5.82802e-07
5.78638e-07
5.74482e-07
8.97686e-06
8.37673e-06
7.83138e-06
7.33324e-06
6.87589e-06
6.4544e-06
6.06492e-06
5.70438e-06
5.37029e-06
5.06056e-06
4.7734e-06
4.50716e-06
4.26033e-06
4.03145e-06
3.81913e-06
3.62202e-06
3.43884e-06
3.26839e-06
3.10991e-06
7.2958e-07
7.23801e-07
7.18053e-07
7.12313e-07
7.06585e-07
7.00891e-07
6.95251e-07
6.89681e-07
6.84186e-07
6.78759e-07
6.73388e-07
6.68056e-07
6.62743e-07
6.57433e-07
6.52111e-07
6.46772e-07
6.41415e-07
6.3605e-07
6.30696e-07
6.25375e-07
6.20119e-07
6.14961e-07
6.09928e-07
6.05049e-07
6.00326e-07
5.95758e-07
5.91319e-07
5.86985e-07
5.82717e-07
5.78481e-07
5.74246e-07
8.97689e-06
8.37684e-06
7.8316e-06
7.33364e-06
6.87655e-06
6.45537e-06
6.06625e-06
5.70608e-06
5.37235e-06
5.06296e-06
4.77607e-06
4.51005e-06
4.26334e-06
4.03449e-06
3.82209e-06
3.62482e-06
3.44141e-06
3.27068e-06
3.11189e-06
7.29851e-07
7.23996e-07
7.1816e-07
7.12342e-07
7.06558e-07
7.00829e-07
6.95169e-07
6.89582e-07
6.84065e-07
6.78605e-07
6.73185e-07
6.67792e-07
6.6241e-07
6.57032e-07
6.51656e-07
6.46284e-07
6.40926e-07
6.35596e-07
6.30315e-07
6.25103e-07
6.1998e-07
6.14966e-07
6.1007e-07
6.05304e-07
6.00661e-07
5.96129e-07
5.91684e-07
5.87299e-07
5.82948e-07
5.78604e-07
5.74253e-07
8.97694e-06
8.37696e-06
7.83183e-06
7.33403e-06
6.87718e-06
6.45633e-06
6.06758e-06
5.70783e-06
5.37452e-06
5.06553e-06
4.77899e-06
4.51324e-06
4.26672e-06
4.03795e-06
3.82553e-06
3.62815e-06
3.44454e-06
3.27356e-06
3.11445e-06
7.2994e-07
7.23628e-07
7.17369e-07
7.11267e-07
7.05363e-07
6.99653e-07
6.94105e-07
6.88676e-07
6.83322e-07
6.78003e-07
6.72691e-07
6.67368e-07
6.62026e-07
6.56669e-07
6.51308e-07
6.4596e-07
6.40648e-07
6.35392e-07
6.3021e-07
6.25121e-07
6.20143e-07
6.15276e-07
6.10519e-07
6.05861e-07
6.01289e-07
5.96777e-07
5.92304e-07
5.87846e-07
5.83386e-07
5.78915e-07
5.74428e-07
8.97697e-06
8.37702e-06
7.83192e-06
7.33422e-06
6.8775e-06
6.45684e-06
6.06831e-06
5.70878e-06
5.3757e-06
5.0669e-06
4.78051e-06
4.51484e-06
4.26831e-06
4.03945e-06
3.82687e-06
3.62925e-06
3.44536e-06
3.27408e-06
3.11473e-06
7.30276e-07
7.24451e-07
7.18688e-07
7.12958e-07
7.07253e-07
7.01571e-07
6.95914e-07
6.9028e-07
6.84665e-07
6.79063e-07
6.73467e-07
6.67877e-07
6.62298e-07
6.56744e-07
6.51234e-07
6.45791e-07
6.40441e-07
6.35203e-07
6.30096e-07
6.25119e-07
6.20277e-07
6.15558e-07
6.10943e-07
6.06402e-07
6.01908e-07
5.97432e-07
5.92945e-07
5.8843e-07
5.83876e-07
5.79288e-07
5.74677e-07
8.97701e-06
8.37706e-06
7.83196e-06
7.33437e-06
6.87793e-06
6.45767e-06
6.06964e-06
5.71066e-06
5.37812e-06
5.06983e-06
4.78386e-06
4.51851e-06
4.27218e-06
4.04339e-06
3.83077e-06
3.633e-06
3.4489e-06
3.27736e-06
3.11773e-06
7.30697e-07
7.24812e-07
7.18973e-07
7.13153e-07
7.07343e-07
7.01549e-07
6.95775e-07
6.90023e-07
6.84289e-07
6.78568e-07
6.72858e-07
6.67161e-07
6.61491e-07
6.55868e-07
6.50322e-07
6.44881e-07
6.39577e-07
6.3443e-07
6.29452e-07
6.24647e-07
6.19995e-07
6.15472e-07
6.11042e-07
6.06664e-07
6.02292e-07
5.97893e-07
5.93436e-07
5.8891e-07
5.84314e-07
5.79662e-07
5.7498e-07
8.97703e-06
8.37682e-06
7.83119e-06
7.33303e-06
6.87602e-06
6.45527e-06
6.06685e-06
5.70758e-06
5.37486e-06
5.06645e-06
4.78042e-06
4.51502e-06
4.26863e-06
4.03977e-06
3.82705e-06
3.62918e-06
3.44497e-06
3.27334e-06
3.11366e-06
7.30104e-07
7.24305e-07
7.18592e-07
7.12923e-07
7.07268e-07
7.01613e-07
6.95948e-07
6.90266e-07
6.84562e-07
6.78834e-07
6.73086e-07
6.67332e-07
6.61597e-07
6.55913e-07
6.50323e-07
6.44867e-07
6.39577e-07
6.34484e-07
6.29594e-07
6.24901e-07
6.20383e-07
6.16001e-07
6.11704e-07
6.07442e-07
6.03166e-07
5.98832e-07
5.94416e-07
5.89909e-07
5.85323e-07
5.80689e-07
5.76048e-07
8.97705e-06
8.37678e-06
7.83146e-06
7.33401e-06
6.8779e-06
6.45807e-06
6.07049e-06
5.71194e-06
5.37976e-06
5.07172e-06
4.78588e-06
4.5205e-06
4.27399e-06
4.04487e-06
3.83179e-06
3.6335e-06
3.44883e-06
3.27675e-06
3.11661e-06
7.30509e-07
7.24664e-07
7.18919e-07
7.13232e-07
7.0757e-07
7.01917e-07
6.96259e-07
6.90584e-07
6.84888e-07
6.79167e-07
6.7343e-07
6.67698e-07
6.62e-07
6.56373e-07
6.50867e-07
6.45535e-07
6.40409e-07
6.35518e-07
6.30872e-07
6.26457e-07
6.22242e-07
6.18181e-07
6.14217e-07
6.10289e-07
6.06347e-07
6.0235e-07
5.98278e-07
5.94131e-07
5.89935e-07
5.85742e-07
5.81619e-07
8.97706e-06
8.37264e-06
7.82287e-06
7.32165e-06
6.86268e-06
6.44096e-06
6.05238e-06
5.69353e-06
5.36162e-06
5.05426e-06
4.76939e-06
4.50517e-06
4.25994e-06
4.03216e-06
3.82046e-06
3.62357e-06
3.44031e-06
3.26964e-06
3.11093e-06
7.299e-07
7.2428e-07
7.18815e-07
7.13453e-07
7.08077e-07
7.02875e-07
6.9779e-07
6.92781e-07
6.87817e-07
6.82878e-07
6.77962e-07
6.73237e-07
6.68513e-07
6.63851e-07
6.59315e-07
6.54965e-07
6.50851e-07
6.47006e-07
6.43445e-07
6.40154e-07
6.37102e-07
6.34228e-07
6.31473e-07
6.28768e-07
6.26054e-07
6.23286e-07
6.20446e-07
6.17545e-07
6.14627e-07
6.11776e-07
6.09114e-07
8.97882e-06
8.37937e-06
7.83734e-06
7.34416e-06
6.89412e-06
6.48384e-06
6.10832e-06
5.76357e-06
5.44637e-06
5.15396e-06
4.884e-06
4.63441e-06
4.40339e-06
4.18932e-06
3.99075e-06
3.80641e-06
3.63519e-06
3.47611e-06
3.3284e-06
3.19137e-06
3.14955e-06
3.13268e-06
3.12305e-06
7.24674e-07
7.16452e-07
7.11117e-07
7.07511e-07
7.04888e-07
7.02771e-07
7.01015e-07
7.10768e-07
7.16546e-07
7.1967e-07
7.2107e-07
7.21401e-07
7.21109e-07
7.20506e-07
7.1979e-07
7.19066e-07
7.18376e-07
7.17706e-07
7.17e-07
7.16199e-07
7.15242e-07
7.1408e-07
7.12697e-07
7.11118e-07
7.09419e-07
7.07749e-07
7.0636e-07
9.32863e-06
9.20523e-06
9.0884e-06
8.97664e-06
8.86823e-06
8.75994e-06
8.65165e-06
8.54348e-06
8.43569e-06
8.32862e-06
8.22261e-06
8.11799e-06
8.01505e-06
7.91406e-06
7.81524e-06
7.71877e-06
7.62477e-06
7.53331e-06
7.44434e-06
7.35769e-06
7.27137e-06
7.16194e-06
7.05371e-06
6.94724e-06
6.8435e-06
6.74256e-06
6.64428e-06
6.54854e-06
6.45535e-06
6.36489e-06
6.27824e-06
6.19519e-06
6.11574e-06
6.03986e-06
5.96767e-06
5.89897e-06
5.8335e-06
5.77078e-06
5.71023e-06
5.65118e-06
5.59307e-06
5.53528e-06
5.47736e-06
5.41904e-06
5.36019e-06
5.30084e-06
5.24109e-06
5.18114e-06
5.12112e-06
5.06097e-06
4.61118e-07
3.57126e-07
2.91223e-07
2.6115e-07
2.5561e-07
2.65194e-07
2.82376e-07
3.01353e-07
3.18183e-07
3.30822e-07
3.38884e-07
3.43169e-07
3.45046e-07
3.46124e-07
3.47468e-07
3.51085e-07
3.54681e-07
3.62112e-07
3.74256e-07
3.81244e-07
4.64263e-07
3.52322e-07
2.85605e-07
2.57184e-07
2.53734e-07
2.64992e-07
2.8316e-07
3.02459e-07
3.19068e-07
3.3112e-07
3.38418e-07
3.41956e-07
3.43396e-07
3.44714e-07
3.47967e-07
3.50763e-07
3.54286e-07
3.63773e-07
3.78256e-07
3.86354e-07
4.65511e-07
3.47326e-07
2.80074e-07
2.53446e-07
2.52042e-07
2.64852e-07
2.83917e-07
3.0348e-07
3.19816e-07
3.31229e-07
3.37687e-07
3.40327e-07
3.40949e-07
3.41583e-07
3.43559e-07
3.46653e-07
3.51093e-07
3.61813e-07
3.77401e-07
3.86497e-07
4.67739e-07
3.42587e-07
2.74956e-07
2.50202e-07
2.50803e-07
2.65088e-07
2.84979e-07
3.04763e-07
3.20848e-07
3.3166e-07
3.37315e-07
3.39134e-07
3.39096e-07
3.39481e-07
3.41166e-07
3.43486e-07
3.47908e-07
3.59512e-07
3.76312e-07
3.86793e-07
4.69783e-07
3.37796e-07
2.70071e-07
2.47314e-07
2.49874e-07
2.65546e-07
2.86206e-07
3.06191e-07
3.22012e-07
3.32212e-07
3.37061e-07
3.38056e-07
3.37398e-07
3.37589e-07
3.39073e-07
3.40559e-07
3.44761e-07
3.57005e-07
3.75038e-07
3.87269e-07
4.71667e-07
3.32969e-07
2.6545e-07
2.44765e-07
2.49229e-07
2.66214e-07
2.87587e-07
3.07758e-07
3.2332e-07
3.32908e-07
3.36924e-07
3.3706e-07
3.35795e-07
3.35801e-07
3.36924e-07
3.37551e-07
3.41763e-07
3.54492e-07
3.73739e-07
3.87975e-07
4.73413e-07
3.28133e-07
2.61097e-07
2.42553e-07
2.48851e-07
2.6707e-07
2.89119e-07
3.09461e-07
3.2476e-07
3.33746e-07
3.36917e-07
3.36148e-07
3.34189e-07
3.33868e-07
3.34422e-07
3.34534e-07
3.39016e-07
3.52179e-07
3.72587e-07
3.88941e-07
4.75049e-07
3.23335e-07
2.57029e-07
2.40652e-07
2.48713e-07
2.68095e-07
2.90786e-07
3.11301e-07
3.26351e-07
3.34734e-07
3.37032e-07
3.35291e-07
3.32483e-07
3.31564e-07
3.31404e-07
3.31565e-07
3.36527e-07
3.50146e-07
3.71685e-07
3.90159e-07
4.76603e-07
3.186e-07
2.53264e-07
2.39062e-07
2.48792e-07
2.69266e-07
2.92576e-07
3.13277e-07
3.28103e-07
3.35877e-07
3.37259e-07
3.34459e-07
3.30689e-07
3.28938e-07
3.28118e-07
3.28581e-07
3.34194e-07
3.48367e-07
3.71043e-07
3.91588e-07
4.78093e-07
3.13973e-07
2.49802e-07
2.37752e-07
2.49057e-07
2.70567e-07
2.94481e-07
3.1538e-07
3.30003e-07
3.37159e-07
3.37575e-07
3.33627e-07
3.2883e-07
3.26075e-07
3.2461e-07
3.25502e-07
3.31883e-07
3.46747e-07
3.70619e-07
3.93176e-07
4.7956e-07
3.09489e-07
2.46644e-07
2.367e-07
2.49484e-07
2.71975e-07
2.9648e-07
3.17584e-07
3.32013e-07
3.38544e-07
3.37933e-07
3.3277e-07
3.26924e-07
3.23083e-07
3.20965e-07
3.22284e-07
3.29491e-07
3.45202e-07
3.70363e-07
3.94879e-07
4.81003e-07
3.05161e-07
2.43789e-07
2.35888e-07
2.5005e-07
2.73464e-07
2.98547e-07
3.19863e-07
3.34091e-07
3.39982e-07
3.38285e-07
3.31836e-07
3.24962e-07
3.2005e-07
3.17274e-07
3.18962e-07
3.27001e-07
3.43699e-07
3.70249e-07
3.96665e-07
4.82442e-07
3.01024e-07
2.41237e-07
2.35291e-07
2.50723e-07
2.75e-07
3.00643e-07
3.22184e-07
3.36218e-07
3.4143e-07
3.38566e-07
3.30732e-07
3.22845e-07
3.16993e-07
3.13677e-07
3.1566e-07
3.24476e-07
3.42258e-07
3.70281e-07
3.98513e-07
4.83884e-07
2.97117e-07
2.3899e-07
2.34885e-07
2.51475e-07
2.76558e-07
3.02745e-07
3.2451e-07
3.38355e-07
3.4285e-07
3.38715e-07
3.29348e-07
3.20453e-07
3.13772e-07
3.10221e-07
3.12497e-07
3.2201e-07
3.40928e-07
3.70476e-07
4.0041e-07
4.85342e-07
2.93465e-07
2.3704e-07
2.34641e-07
2.52276e-07
2.7811e-07
3.04832e-07
3.26824e-07
3.40478e-07
3.4421e-07
3.38679e-07
3.2759e-07
3.17699e-07
3.10239e-07
3.06849e-07
3.0952e-07
3.1968e-07
3.39761e-07
3.70851e-07
4.02337e-07
4.86815e-07
2.90089e-07
2.35377e-07
2.34535e-07
2.53098e-07
2.79631e-07
3.06873e-07
3.29095e-07
3.42552e-07
3.45484e-07
3.38418e-07
3.25368e-07
3.14524e-07
3.06239e-07
3.03411e-07
3.06687e-07
3.17514e-07
3.38791e-07
3.71413e-07
4.04268e-07
4.88301e-07
2.87016e-07
2.33989e-07
2.34541e-07
2.5391e-07
2.81082e-07
3.08821e-07
3.31282e-07
3.44545e-07
3.46645e-07
3.3791e-07
3.22601e-07
3.10884e-07
3.01002e-07
2.99513e-07
3.03868e-07
3.15489e-07
3.38019e-07
3.72148e-07
4.06173e-07
4.89787e-07
2.84276e-07
2.32863e-07
2.34622e-07
2.54673e-07
2.82421e-07
3.10633e-07
3.33335e-07
3.46415e-07
3.47663e-07
3.37141e-07
3.19234e-07
3.06776e-07
2.93071e-07
2.94685e-07
3.00905e-07
3.13569e-07
3.37429e-07
3.73032e-07
4.08018e-07
4.91262e-07
2.81887e-07
2.31986e-07
2.34748e-07
2.55356e-07
2.83609e-07
3.12262e-07
3.35205e-07
3.48112e-07
3.48505e-07
3.36124e-07
3.15307e-07
3.0229e-07
2.81956e-07
2.88636e-07
2.97682e-07
3.11725e-07
3.3701e-07
3.74045e-07
4.09782e-07
4.9273e-07
2.79876e-07
2.31343e-07
2.34896e-07
2.55935e-07
2.84615e-07
3.13664e-07
3.36838e-07
3.49586e-07
3.49151e-07
3.34932e-07
3.11053e-07
2.97549e-07
2.71073e-07
2.81768e-07
2.94243e-07
3.09947e-07
3.36773e-07
3.75181e-07
4.11465e-07
4.94188e-07
2.78281e-07
2.30926e-07
2.35054e-07
2.56395e-07
2.85407e-07
3.14798e-07
3.38184e-07
3.50799e-07
3.49619e-07
3.33729e-07
3.06981e-07
2.92163e-07
2.64377e-07
2.75424e-07
2.90841e-07
3.08293e-07
3.36756e-07
3.76456e-07
4.13079e-07
4.95658e-07
2.77141e-07
2.30733e-07
2.35215e-07
2.56719e-07
2.85959e-07
3.15624e-07
3.39207e-07
3.51743e-07
3.49964e-07
3.32767e-07
3.0387e-07
2.84347e-07
2.61479e-07
2.70826e-07
2.8778e-07
3.06895e-07
3.37048e-07
3.77924e-07
4.14649e-07
4.97188e-07
2.76482e-07
2.30756e-07
2.35364e-07
2.56889e-07
2.86244e-07
3.16115e-07
3.39888e-07
3.52426e-07
3.50264e-07
3.32318e-07
3.02485e-07
2.76209e-07
2.60406e-07
2.68435e-07
2.85216e-07
3.05892e-07
3.37757e-07
3.79654e-07
4.16206e-07
4.98831e-07
2.76317e-07
2.30981e-07
2.35484e-07
2.56884e-07
2.86238e-07
3.16243e-07
3.40214e-07
3.52863e-07
3.50598e-07
3.32605e-07
3.03053e-07
2.74776e-07
2.6234e-07
2.67399e-07
2.83205e-07
3.05448e-07
3.39006e-07
3.8171e-07
4.17764e-07
5.00875e-07
2.76519e-07
2.31245e-07
2.35449e-07
2.56588e-07
2.8586e-07
3.16001e-07
3.40253e-07
3.53178e-07
3.51136e-07
3.33579e-07
3.05119e-07
2.77044e-07
2.66717e-07
2.66298e-07
2.81941e-07
3.05802e-07
3.4094e-07
3.84158e-07
4.19271e-07
5.03555e-07
2.7694e-07
2.31475e-07
2.35204e-07
2.55936e-07
2.85046e-07
3.15336e-07
3.40002e-07
3.53463e-07
3.52068e-07
3.35432e-07
3.08149e-07
2.80644e-07
2.68182e-07
2.66333e-07
2.81891e-07
3.07306e-07
3.43669e-07
3.868e-07
4.20624e-07
5.0691e-07
2.77584e-07
2.31675e-07
2.34744e-07
2.54907e-07
2.83757e-07
3.14205e-07
3.39417e-07
3.53687e-07
3.53337e-07
3.3799e-07
3.12123e-07
2.85117e-07
2.69867e-07
2.68328e-07
2.8359e-07
3.10184e-07
3.47148e-07
3.89564e-07
4.21818e-07
5.10986e-07
2.7847e-07
2.3186e-07
2.34073e-07
2.53487e-07
2.81954e-07
3.12556e-07
3.38441e-07
3.53804e-07
3.54893e-07
3.41218e-07
3.16975e-07
2.90853e-07
2.74751e-07
2.72563e-07
2.87277e-07
3.14434e-07
3.51283e-07
3.92391e-07
4.22854e-07
5.15852e-07
2.79631e-07
2.32055e-07
2.33209e-07
2.51673e-07
2.79608e-07
3.10327e-07
3.36992e-07
3.53729e-07
3.56663e-07
3.45142e-07
3.23058e-07
2.98662e-07
2.82575e-07
2.78959e-07
2.9301e-07
3.1994e-07
3.55948e-07
3.95229e-07
4.23738e-07
5.21591e-07
2.81113e-07
2.32304e-07
2.32187e-07
2.49476e-07
2.76696e-07
3.07448e-07
3.34964e-07
3.53322e-07
3.58514e-07
3.49698e-07
3.3049e-07
3.08534e-07
2.92421e-07
2.87816e-07
3.00634e-07
3.26529e-07
3.61021e-07
3.98041e-07
4.24476e-07
5.28304e-07
2.82976e-07
2.32663e-07
2.3106e-07
2.46923e-07
2.73194e-07