/*--------------------------------*- C++ -*----------------------------------*\
  =========                 |
  \\      /  F ield         | OpenFOAM: The Open Source CFD Toolbox
   \\    /   O peration     | Website:  https://openfoam.org
    \\  /    A nd           | Version:  8
     \\/     M anipulation  |
\*---------------------------------------------------------------------------*/
FoamFile
{
    version     2.0;
    format      ascii;
    class       volScalarField;
    location    "700";
    object      k;
}
// * * * * * * * * * * * * * * * * * * * * * * * * * * * * * * * * * * * * * //

dimensions      [0 2 -2 0 0 0 0];

internalField   nonuniform List<scalar> 
8400
(
0.00359172
0.00353504
0.00347972
0.00342622
0.00337536
0.00332724
0.00328144
0.00323713
0.00319339
0.00314939
0.00310459
0.00305877
0.00301311
0.00296763
0.00292171
0.00287473
0.00282614
0.00277537
0.00272203
0.0026666
0.00260812
0.002544
0.00246875
0.00237426
0.00225221
0.0020966
0.00190696
0.00169215
0.00147382
0.00128832
0.00117562
0.00113435
0.00110639
0.00107744
0.00104897
0.00102057
0.000992213
0.000964541
0.000937288
0.000910155
0.000883493
0.000857242
0.00083129
0.000805454
0.000779624
0.000753984
0.000728637
0.000703682
0.000679117
0.000654995
0.00231074
0.00230302
0.00231327
0.00232911
0.00234668
0.00236521
0.00238418
0.00240358
0.00242354
0.00244405
0.00246532
0.00248773
0.00250891
0.00252754
0.002544
0.00255908
0.00257403
0.00259064
0.00260967
0.00262609
0.00264366
0.00266302
0.00267508
0.00267128
0.00264161
0.00256893
0.00242686
0.0021901
0.0018562
0.00145526
0.00107873
0.000968029
0.000956676
0.000949827
0.000944055
0.000941318
0.000941503
0.000938128
0.000922164
0.000892145
0.000861836
0.000832215
0.000806957
0.000786814
0.000771893
0.000761335
0.000753568
0.000745677
0.000737698
0.000729597
0.00294723
0.00288136
0.00283413
0.00280406
0.00278989
0.00278763
0.0027913
0.00279495
0.00279379
0.00278297
0.00276089
0.00272606
0.00267757
0.00261753
0.00255203
0.00248788
0.00243084
0.00238671
0.00237418
0.00245017
0.00255968
0.00264768
0.00270709
0.00274315
0.00276207
0.00276867
0.00276568
0.00275296
0.00272926
0.00255771
0.00143604
0.00119115
0.00118782
0.00120816
0.00123014
0.00124534
0.00124214
0.00124862
0.00123829
0.0012013
0.00116939
0.00113709
0.00111218
0.00109475
0.00108509
0.00108209
0.00108213
0.00108365
0.00108526
0.0010858
0.00299378
0.00298684
0.00297984
0.00297289
0.00296613
0.0029595
0.00295292
0.00294622
0.00293916
0.00293151
0.00292319
0.00291425
0.00290482
0.00289498
0.00288407
0.00287206
0.00286033
0.00285062
0.00284539
0.00284356
0.00284377
0.00284458
0.00284494
0.00284412
0.0028414
0.00283598
0.00282695
0.00281728
0.00280501
0.00278292
0.00263948
0.00243037
0.00221419
0.00201648
0.0017002
0.00148049
0.00148741
0.00149519
0.00147677
0.00144198
0.0014176
0.00138722
0.00136658
0.00135418
0.00135057
0.00135442
0.00136099
0.00136956
0.0013783
0.00138571
0.0029975
0.00299489
0.00299226
0.00298961
0.00298691
0.00298419
0.00298144
0.00297866
0.00297586
0.00297306
0.00297027
0.00296747
0.00296466
0.00296181
0.00295889
0.00295588
0.00295274
0.00294944
0.00294594
0.00294219
0.00293819
0.00293394
0.00292946
0.00292477
0.00291992
0.00291483
0.00290923
0.00290064
0.00288879
0.00287284
0.00283923
0.00277421
0.00267533
0.0025467
0.002364
0.00219624
0.00210637
0.00204474
0.0015965
0.00161264
0.00158238
0.00155873
0.00154229
0.00153575
0.00153825
0.00154704
0.00155907
0.00157278
0.00158629
0.00159832
0.00299671
0.00299325
0.00298975
0.00298623
0.00298267
0.00297909
0.00297549
0.00297186
0.00296822
0.00296457
0.00296095
0.00295735
0.00295377
0.00295021
0.00294667
0.00294313
0.00293957
0.00293597
0.00293228
0.00292852
0.00292466
0.00292073
0.00291677
0.00291286
0.00290899
0.00290506
0.00290117
0.00289693
0.00289154
0.00288394
0.00287085
0.00284571
0.00280192
0.00273515
0.00263697
0.00252476
0.00242413
0.00233143
0.00222534
0.00214631
0.0016637
0.00168402
0.00164942
0.00164948
0.00165924
0.00167208
0.00168795
0.00170439
0.00172003
0.00173393
0.00299627
0.0029923
0.0029883
0.00298423
0.00298012
0.00297598
0.00297181
0.00296759
0.00296335
0.00295908
0.0029548
0.00295051
0.00294621
0.00294192
0.00293762
0.00293329
0.00292892
0.00292449
0.00292001
0.00291548
0.00291093
0.00290642
0.00290203
0.00289776
0.00289354
0.00288975
0.00288646
0.00288355
0.00288066
0.00287704
0.00287114
0.00285986
0.00283877
0.00280329
0.00274782
0.0026748
0.00259428
0.00251111
0.00242058
0.0023295
0.00224042
0.00186471
0.00170914
0.0017144
0.00173092
0.00174876
0.00176708
0.00178434
0.00179985
0.00181327
0.00299545
0.00299059
0.00298568
0.00298072
0.0029757
0.00297063
0.00296551
0.00296038
0.0029552
0.00295
0.00294478
0.00293955
0.0029343
0.00292903
0.00292375
0.00291846
0.00291313
0.00290777
0.00290237
0.00289698
0.00289166
0.00288653
0.00288147
0.00287656
0.00287225
0.00286877
0.00286622
0.00286455
0.0028635
0.00286249
0.00286051
0.00285574
0.0028453
0.00282563
0.00279239
0.00274388
0.00268304
0.00261333
0.00253243
0.00244329
0.00234317
0.00217057
0.00189993
0.00174377
0.00177024
0.0017926
0.00181167
0.00182753
0.00184048
0.00185093
0.0029944
0.00298834
0.00298221
0.00297602
0.00296976
0.00296344
0.00295704
0.00295056
0.00294406
0.0029375
0.00293087
0.0029242
0.00291753
0.00291086
0.00290418
0.00289751
0.00289081
0.0028841
0.00287742
0.00287088
0.00286462
0.00285834
0.00285243
0.00284734
0.00284341
0.00284087
0.00283982
0.00284012
0.00284144
0.00284319
0.00284448
0.00284395
0.0028396
0.00282875
0.00280795
0.00277443
0.00272801
0.00266987
0.00259776
0.00251223
0.00240844
0.00225949
0.00206436
0.00181533
0.00178843
0.00181422
0.0018319
0.00184347
0.00185027
0.00185381
0.00299252
0.00298429
0.00297603
0.0029677
0.00295931
0.0029508
0.00294216
0.00293336
0.00292447
0.00291558
0.0029064
0.00289706
0.00288773
0.0028785
0.00286947
0.0028607
0.00285207
0.00284359
0.00283544
0.00282721
0.00281903
0.00281181
0.00280616
0.00280259
0.00280138
0.00280248
0.00280556
0.00281013
0.0028155
0.00282099
0.00282579
0.0028289
0.00282877
0.0028234
0.00280999
0.00278571
0.00274903
0.00269945
0.00263414
0.00255175
0.00244669
0.00230286
0.0021194
0.00191038
0.00180138
0.00182191
0.00183596
0.00183988
0.00183592
0.00182637
0.00298873
0.00297572
0.00296295
0.0029501
0.00293711
0.00292381
0.0029101
0.00289579
0.00288092
0.00286585
0.00284518
0.00282406
0.0028043
0.00278771
0.0027752
0.00276553
0.0027555
0.0027446
0.00273299
0.00272328
0.00271736
0.00271662
0.00272131
0.00273054
0.0027424
0.00275514
0.00276766
0.0027794
0.00279014
0.0027997
0.00280775
0.00281371
0.00281647
0.00281454
0.00280559
0.00278692
0.00275641
0.00271246
0.00265156
0.00257091
0.00246441
0.00232095
0.00214269
0.00195448
0.00183294
0.00182181
0.00183095
0.00182593
0.00180735
0.00177666
0.00297111
0.00293568
0.00291094
0.00288473
0.00285342
0.00280101
0.00271305
0.00258801
0.00246405
0.00238375
0.00234687
0.00232422
0.00232037
0.0023378
0.00237715
0.00243445
0.00249536
0.00254151
0.0025774
0.0026066
0.00263006
0.00265088
0.00267073
0.00269005
0.00270889
0.00272676
0.00274328
0.00275811
0.00277141
0.0027833
0.00279332
0.00280065
0.00280489
0.0028047
0.00279808
0.0027824
0.00275529
0.00271443
0.0026556
0.00257498
0.00246618
0.00232172
0.00214871
0.00197765
0.00186111
0.00182714
0.00182509
0.00181632
0.00179361
0.00175778
0.00285389
0.00279964
0.00274946
0.00269835
0.00264838
0.00260195
0.0025613
0.00252763
0.00250279
0.00248856
0.00248508
0.00249004
0.00250149
0.00251677
0.0025327
0.00254817
0.00256401
0.00257979
0.00259593
0.00261305
0.00263044
0.00264757
0.00266468
0.00268176
0.00269864
0.00271502
0.00273059
0.00274513
0.00275847
0.00277048
0.00278075
0.00278847
0.00279335
0.00279402
0.00278866
0.00277413
0.002748
0.00270803
0.00264916
0.00256688
0.00245501
0.00230986
0.00214411
0.00199008
0.00188432
0.00183891
0.00182404
0.00181084
0.00178844
0.00175554
0.00269487
0.00265238
0.00261528
0.00258471
0.00256133
0.00254518
0.00253576
0.00253201
0.00253297
0.00253763
0.00254497
0.00255406
0.00256414
0.00257452
0.00258485
0.00259529
0.00260582
0.00261645
0.00262722
0.00263821
0.00264965
0.00266159
0.00267395
0.00268664
0.00269958
0.00271256
0.00272535
0.00273772
0.00274939
0.00276008
0.00276928
0.00277637
0.00278062
0.00278081
0.00277513
0.00276084
0.00273521
0.00269563
0.00263476
0.00254809
0.00243289
0.0022889
0.00213367
0.00199753
0.00190384
0.00185465
0.00183112
0.00181403
0.00179379
0.00176809
0.00258492
0.00256711
0.00255419
0.00254654
0.0025436
0.00254445
0.00254817
0.00255393
0.00256107
0.00256907
0.00257759
0.00258641
0.00259533
0.00260418
0.00261292
0.00262167
0.00263037
0.00263903
0.0026477
0.0026564
0.00266524
0.0026743
0.00268362
0.00269318
0.00270292
0.00271278
0.00272264
0.0027323
0.0027415
0.00274994
0.00275706
0.00276228
0.00276474
0.00276315
0.00275571
0.00273992
0.00271309
0.00267241
0.00261191
0.00252455
0.00240155
0.00226207
0.00212143
0.00200402
0.00192238
0.00187367
0.00184555
0.00182604
0.0018082
0.00178962
0.00254969
0.00254899
0.00255071
0.00255455
0.00256
0.00256656
0.00257379
0.00258138
0.00258911
0.00259685
0.00260452
0.00261206
0.00261943
0.00262661
0.00263364
0.00264056
0.00264743
0.00265426
0.00266103
0.00266776
0.00267456
0.00268144
0.00268842
0.0026955
0.00270266
0.00270984
0.00271693
0.00272377
0.00273015
0.0027357
0.00273997
0.00274228
0.00274174
0.00273705
0.00272652
0.00270786
0.00267859
0.00263612
0.00257611
0.0024927
0.00236781
0.00223311
0.0021109
0.00201273
0.00194309
0.00189764
0.00186851
0.0018485
0.00183315
0.00182052
0.00256251
0.00256773
0.00257357
0.00257982
0.00258623
0.00259267
0.00259902
0.0026052
0.00261119
0.00261698
0.00262259
0.00262802
0.00263327
0.00263839
0.00264341
0.00264834
0.00265322
0.00265806
0.00266289
0.00266774
0.00267261
0.00267748
0.00268235
0.0026872
0.00269198
0.00269661
0.00270098
0.00270492
0.00270821
0.00271048
0.00271129
0.00270995
0.0027056
0.00269703
0.00268271
0.00266078
0.00262923
0.00258603
0.00252819
0.00245121
0.00233386
0.00220618
0.00210536
0.0020265
0.00196921
0.00192953
0.00190265
0.00188443
0.00187221
0.00186458
0.00258439
0.00258883
0.00259324
0.00259754
0.00260168
0.00260563
0.00260939
0.00261297
0.00261639
0.00261967
0.00262284
0.00262591
0.00262889
0.00263182
0.00263471
0.00263759
0.00264046
0.00264332
0.0026462
0.00264907
0.00265192
0.00265471
0.0026574
0.00265996
0.0026623
0.00266432
0.00266588
0.00266681
0.00266687
0.00266569
0.00266283
0.00265771
0.00264952
0.00263729
0.00261984
0.00259585
0.00256397
0.00252292
0.00247087
0.00240407
0.00229896
0.0021858
0.00210742
0.00204763
0.0020035
0.00197201
0.00195037
0.00193632
0.00192832
0.00192536
0.00259144
0.00259304
0.00259449
0.00259576
0.00259688
0.00259785
0.00259868
0.00259941
0.00260004
0.0026006
0.0026011
0.00260155
0.00260196
0.00260236
0.00260275
0.00260314
0.00260353
0.00260392
0.00260429
0.00260462
0.0026049
0.00260507
0.00260509
0.00260488
0.00260436
0.00260342
0.00260191
0.00259965
0.00259641
0.00259192
0.00258579
0.00257754
0.00256661
0.00255233
0.00253396
0.00251082
0.00248234
0.00244807
0.00240707
0.00235627
0.00226047
0.00217583
0.00211957
0.002078
0.00204764
0.00202627
0.0020122
0.0020042
0.00200131
0.00200278
0.00523277
0.00515727
0.00508408
0.00501108
0.00493736
0.00486231
0.00478559
0.00470705
0.00462669
0.00454459
0.00446085
0.00437565
0.00428918
0.00420165
0.0041133
0.00402443
0.00393535
0.00384641
0.00375802
0.00367057
0.00358444
0.00350002
0.00341761
0.00333752
0.00325997
0.00318513
0.00311307
0.00304385
0.00297743
0.00291371
0.00285254
0.00279367
0.00273677
0.00268138
0.00262697
0.00257308
0.00251977
0.00246797
0.00241979
0.00237703
0.0022796
0.00225785
0.00225638
0.00226829
0.00229077
0.00232233
0.00236215
0.00240992
0.00246567
0.00252943
2.38377e-05
2.36161e-05
2.34058e-05
2.32077e-05
2.30184e-05
2.2832e-05
2.26454e-05
2.24582e-05
2.22703e-05
2.2082e-05
2.1894e-05
2.1707e-05
2.15216e-05
2.13386e-05
2.11584e-05
2.09816e-05
2.08083e-05
2.06389e-05
2.04733e-05
2.03113e-05
2.01395e-05
1.99662e-05
1.97528e-05
1.95568e-05
1.9373e-05
1.9198e-05
1.90297e-05
1.88635e-05
1.86988e-05
1.85365e-05
1.83776e-05
1.82327e-05
1.80849e-05
1.79379e-05
1.77936e-05
1.76525e-05
1.75145e-05
1.73796e-05
1.72478e-05
1.71192e-05
1.69945e-05
1.68735e-05
1.67572e-05
1.66461e-05
1.65386e-05
1.64295e-05
1.63137e-05
1.62003e-05
1.61261e-05
1.61455e-05
2.32324e-05
2.2173e-05
2.11936e-05
2.02848e-05
1.94392e-05
1.8653e-05
1.79204e-05
1.72354e-05
1.6593e-05
1.59892e-05
1.54208e-05
1.48855e-05
1.43813e-05
1.39066e-05
1.34599e-05
1.30398e-05
1.26449e-05
1.22738e-05
1.19231e-05
1.1596e-05
1.13227e-05
1.12838e-05
1.13105e-05
1.13262e-05
1.13258e-05
1.13104e-05
1.12839e-05
1.12579e-05
1.12396e-05
1.12309e-05
1.12297e-05
1.12078e-05
1.11927e-05
1.11853e-05
1.11819e-05
1.11784e-05
1.11713e-05
1.11581e-05
1.11375e-05
1.11094e-05
1.10742e-05
1.1034e-05
1.09911e-05
1.09502e-05
1.09175e-05
1.08904e-05
1.08256e-05
1.06169e-05
1.01624e-05
9.55957e-06
2.32304e-05
2.21638e-05
2.11708e-05
2.02466e-05
1.93836e-05
1.85752e-05
1.78159e-05
1.71008e-05
1.64259e-05
1.5788e-05
1.51847e-05
1.46138e-05
1.40736e-05
1.35627e-05
1.30797e-05
1.26232e-05
1.21918e-05
1.17828e-05
1.14581e-05
1.12025e-05
1.11749e-05
1.11212e-05
1.10564e-05
1.09857e-05
1.09126e-05
1.08389e-05
1.07656e-05
1.06939e-05
1.06245e-05
1.05579e-05
1.0494e-05
1.04304e-05
1.03687e-05
1.03083e-05
1.02482e-05
1.01876e-05
1.01258e-05
1.00623e-05
9.99708e-06
9.93046e-06
9.86294e-06
9.79454e-06
9.72444e-06
9.65298e-06
9.58896e-06
9.5604e-06
9.61606e-06
9.76791e-06
9.86434e-06
9.48548e-06
2.32306e-05
2.21718e-05
2.11874e-05
2.02707e-05
1.94139e-05
1.86102e-05
1.7854e-05
1.71407e-05
1.64666e-05
1.58286e-05
1.52244e-05
1.46522e-05
1.41101e-05
1.35969e-05
1.31112e-05
1.26517e-05
1.2217e-05
1.18058e-05
1.14183e-05
1.13202e-05
1.12281e-05
1.11396e-05
1.1054e-05
1.09705e-05
1.08888e-05
1.08085e-05
1.07294e-05
1.06515e-05
1.05746e-05
1.04987e-05
1.04235e-05
1.0349e-05
1.02746e-05
1.02e-05
1.01247e-05
1.00484e-05
9.97045e-06
9.89082e-06
9.80952e-06
9.72714e-06
9.64501e-06
9.56476e-06
9.48601e-06
9.40193e-06
9.29731e-06
9.16264e-06
9.03104e-06
8.99845e-06
9.12918e-06
9.06626e-06
2.32307e-05
2.21722e-05
2.11875e-05
2.02699e-05
1.94118e-05
1.86067e-05
1.78494e-05
1.71353e-05
1.64607e-05
1.58225e-05
1.52185e-05
1.46466e-05
1.41051e-05
1.35926e-05
1.31077e-05
1.2649e-05
1.22151e-05
1.18047e-05
1.14171e-05
1.13208e-05
1.1229e-05
1.11405e-05
1.10546e-05
1.09708e-05
1.08889e-05
1.08083e-05
1.0729e-05
1.06506e-05
1.05731e-05
1.04963e-05
1.042e-05
1.03441e-05
1.0268e-05
1.01915e-05
1.01141e-05
1.00353e-05
9.95482e-06
9.87259e-06
9.78851e-06
9.70267e-06
9.61583e-06
9.53089e-06
9.45411e-06
9.39226e-06
9.34116e-06
9.27188e-06
9.14646e-06
9.00202e-06
8.99365e-06
8.96873e-06
2.32307e-05
2.21728e-05
2.11893e-05
2.02731e-05
1.94166e-05
1.86134e-05
1.78577e-05
1.71452e-05
1.6472e-05
1.58352e-05
1.52323e-05
1.46613e-05
1.41207e-05
1.36089e-05
1.31245e-05
1.26662e-05
1.22325e-05
1.1822e-05
1.14343e-05
1.13376e-05
1.12453e-05
1.1156e-05
1.10694e-05
1.09849e-05
1.09021e-05
1.08207e-05
1.07405e-05
1.06613e-05
1.0583e-05
1.05054e-05
1.04283e-05
1.03514e-05
1.02745e-05
1.0197e-05
1.01186e-05
1.00388e-05
9.95735e-06
9.87437e-06
9.79009e-06
9.70453e-06
9.61678e-06
9.52524e-06
9.43087e-06
9.34275e-06
9.27715e-06
9.2366e-06
9.17997e-06
9.06206e-06
8.98993e-06
8.9425e-06
2.32307e-05
2.2173e-05
2.11897e-05
2.02738e-05
1.94174e-05
1.86141e-05
1.78584e-05
1.71458e-05
1.64725e-05
1.58357e-05
1.52329e-05
1.46621e-05
1.41217e-05
1.36101e-05
1.31259e-05
1.26677e-05
1.22342e-05
1.18239e-05
1.14362e-05
1.134e-05
1.1248e-05
1.11589e-05
1.10721e-05
1.09871e-05
1.09036e-05
1.08214e-05
1.07403e-05
1.06603e-05
1.05812e-05
1.05029e-05
1.04253e-05
1.0348e-05
1.02707e-05
1.0193e-05
1.01144e-05
1.00346e-05
9.95319e-06
9.87013e-06
9.78607e-06
9.70234e-06
9.6202e-06
9.53857e-06
9.45278e-06
9.35942e-06
9.2682e-06
9.20197e-06
9.15879e-06
9.08186e-06
9.00457e-06
8.94168e-06
2.32307e-05
2.21731e-05
2.11901e-05
2.02744e-05
1.94184e-05
1.86156e-05
1.78605e-05
1.71485e-05
1.6476e-05
1.584e-05
1.5238e-05
1.46681e-05
1.41285e-05
1.36176e-05
1.3134e-05
1.26764e-05
1.22432e-05
1.18331e-05
1.14454e-05
1.1349e-05
1.12563e-05
1.11657e-05
1.10766e-05
1.09887e-05
1.09019e-05
1.08161e-05
1.07316e-05
1.06484e-05
1.05667e-05
1.04865e-05
1.04074e-05
1.03293e-05
1.02517e-05
1.01741e-05
1.00962e-05
1.00173e-05
9.93729e-06
9.85556e-06
9.77193e-06
9.68711e-06
9.60343e-06
9.524e-06
9.44857e-06
9.37017e-06
9.28272e-06
9.19924e-06
9.14105e-06
9.07851e-06
9.00963e-06
8.94371e-06
2.32308e-05
2.21732e-05
2.11903e-05
2.02748e-05
1.9419e-05
1.86164e-05
1.78616e-05
1.715e-05
1.6478e-05
1.58424e-05
1.52409e-05
1.46715e-05
1.41323e-05
1.36218e-05
1.31385e-05
1.26811e-05
1.2248e-05
1.18378e-05
1.145e-05
1.13537e-05
1.1261e-05
1.11702e-05
1.10808e-05
1.09925e-05
1.0905e-05
1.08185e-05
1.07331e-05
1.06489e-05
1.05661e-05
1.04847e-05
1.04044e-05
1.03252e-05
1.02465e-05
1.01679e-05
1.00891e-05
1.00098e-05
9.92992e-06
9.84935e-06
9.76774e-06
9.68447e-06
9.59972e-06
9.51629e-06
9.43859e-06
9.36653e-06
9.2911e-06
9.20926e-06
9.13945e-06
9.07554e-06
9.01048e-06
8.94513e-06
2.32308e-05
2.21733e-05
2.11904e-05
2.02751e-05
1.94194e-05
1.86172e-05
1.78628e-05
1.71517e-05
1.64803e-05
1.58454e-05
1.52446e-05
1.46758e-05
1.41373e-05
1.36274e-05
1.31446e-05
1.26875e-05
1.22546e-05
1.18444e-05
1.14565e-05
1.13603e-05
1.12677e-05
1.11772e-05
1.10883e-05
1.10005e-05
1.09134e-05
1.08271e-05
1.07415e-05
1.06568e-05
1.0573e-05
1.04901e-05
1.04081e-05
1.03268e-05
1.0246e-05
1.01654e-05
1.00847e-05
1.00036e-05
9.92212e-06
9.84061e-06
9.75952e-06
9.67868e-06
9.59706e-06
9.51426e-06
9.43332e-06
9.35887e-06
9.28842e-06
9.21358e-06
9.14152e-06
9.07442e-06
9.00921e-06
8.94412e-06
2.32308e-05
2.21734e-05
2.11906e-05
2.02753e-05
1.94199e-05
1.86179e-05
1.78638e-05
1.71533e-05
1.64824e-05
1.58482e-05
1.52481e-05
1.468e-05
1.4142e-05
1.36326e-05
1.31502e-05
1.26934e-05
1.22605e-05
1.18503e-05
1.14622e-05
1.13658e-05
1.12727e-05
1.11813e-05
1.10912e-05
1.10018e-05
1.09132e-05
1.08254e-05
1.07384e-05
1.06524e-05
1.05673e-05
1.04833e-05
1.04e-05
1.03174e-05
1.02354e-05
1.01537e-05
1.00721e-05
9.99051e-06
9.90864e-06
9.82666e-06
9.74521e-06
9.66519e-06
9.58659e-06
9.50791e-06
9.42874e-06
9.35255e-06
9.28195e-06
9.21141e-06
9.14117e-06
9.07315e-06
9.00703e-06
8.94156e-06
2.32308e-05
2.21734e-05
2.11906e-05
2.02754e-05
1.94201e-05
1.86184e-05
1.78648e-05
1.71547e-05
1.64844e-05
1.58507e-05
1.52512e-05
1.46837e-05
1.41463e-05
1.36373e-05
1.31552e-05
1.26984e-05
1.22656e-05
1.18552e-05
1.14667e-05
1.13702e-05
1.12766e-05
1.11843e-05
1.10931e-05
1.10027e-05
1.09133e-05
1.08248e-05
1.07373e-05
1.06508e-05
1.05653e-05
1.04807e-05
1.03969e-05
1.03135e-05
1.02306e-05
1.0148e-05
1.00657e-05
9.98376e-06
9.90213e-06
9.82073e-06
9.73966e-06
9.65971e-06
9.58196e-06
9.50611e-06
9.43048e-06
9.35537e-06
9.2839e-06
9.21441e-06
9.14546e-06
9.0773e-06
9.01012e-06
8.94345e-06
2.32309e-05
2.21735e-05
2.11907e-05
2.02755e-05
1.94203e-05
1.86189e-05
1.78657e-05
1.71561e-05
1.64865e-05
1.58536e-05
1.52549e-05
1.46882e-05
1.41514e-05
1.3643e-05
1.31614e-05
1.27049e-05
1.22721e-05
1.18616e-05
1.14729e-05
1.13748e-05
1.1278e-05
1.11817e-05
1.10866e-05
1.09931e-05
1.09016e-05
1.08123e-05
1.0725e-05
1.06394e-05
1.05551e-05
1.04717e-05
1.03889e-05
1.03065e-05
1.02242e-05
1.01419e-05
1.00599e-05
9.9782e-06
9.89725e-06
9.81712e-06
9.73772e-06
9.65915e-06
9.58225e-06
9.50777e-06
9.43486e-06
9.36222e-06
9.29117e-06
9.22179e-06
9.15313e-06
9.08472e-06
9.01652e-06
8.94838e-06
2.32309e-05
2.21735e-05
2.11905e-05
2.02752e-05
1.942e-05
1.86185e-05
1.78654e-05
1.7156e-05
1.64867e-05
1.58541e-05
1.52557e-05
1.46893e-05
1.41528e-05
1.36445e-05
1.31629e-05
1.27063e-05
1.22733e-05
1.18625e-05
1.14734e-05
1.13768e-05
1.12833e-05
1.11915e-05
1.1101e-05
1.10115e-05
1.09228e-05
1.08348e-05
1.07473e-05
1.06604e-05
1.05738e-05
1.04876e-05
1.04016e-05
1.03159e-05
1.02305e-05
1.01456e-05
1.00612e-05
9.97777e-06
9.89559e-06
9.81511e-06
9.73639e-06
9.6592e-06
9.58355e-06
9.51006e-06
9.43872e-06
9.36826e-06
9.29854e-06
9.22962e-06
9.16108e-06
9.09243e-06
9.02346e-06
8.95412e-06
2.32309e-05
2.21734e-05
2.11903e-05
2.02749e-05
1.94199e-05
1.86189e-05
1.78665e-05
1.7158e-05
1.64896e-05
1.58581e-05
1.52607e-05
1.46951e-05
1.41594e-05
1.36517e-05
1.31705e-05
1.27141e-05
1.22811e-05
1.18701e-05
1.14807e-05
1.13836e-05
1.12894e-05
1.11969e-05
1.11056e-05
1.10152e-05
1.09254e-05
1.08361e-05
1.07473e-05
1.06588e-05
1.05707e-05
1.04828e-05
1.03951e-05
1.03078e-05
1.0221e-05
1.01349e-05
1.00498e-05
9.96613e-06
9.88409e-06
9.80419e-06
9.72674e-06
9.65162e-06
9.57845e-06
9.50716e-06
9.43787e-06
9.36974e-06
9.30208e-06
9.23455e-06
9.16682e-06
9.09856e-06
9.02958e-06
8.9599e-06
2.32309e-05
2.21728e-05
2.11886e-05
2.02719e-05
1.94155e-05
1.86131e-05
1.78596e-05
1.71501e-05
1.6481e-05
1.5849e-05
1.52513e-05
1.46856e-05
1.41499e-05
1.36421e-05
1.31608e-05
1.27044e-05
1.22712e-05
1.18602e-05
1.14707e-05
1.13742e-05
1.12808e-05
1.11895e-05
1.10996e-05
1.10109e-05
1.09229e-05
1.08353e-05
1.07479e-05
1.06606e-05
1.05731e-05
1.04854e-05
1.03977e-05
1.03099e-05
1.02225e-05
1.01358e-05
1.00504e-05
9.96653e-06
9.88477e-06
9.80541e-06
9.72879e-06
9.65503e-06
9.58375e-06
9.51443e-06
9.44687e-06
9.38051e-06
9.31459e-06
9.24854e-06
9.182e-06
9.11477e-06
9.04679e-06
8.97829e-06
2.32309e-05
2.21727e-05
2.11889e-05
2.02733e-05
1.94184e-05
1.86177e-05
1.78656e-05
1.71576e-05
1.64896e-05
1.58585e-05
1.52614e-05
1.46961e-05
1.41604e-05
1.36525e-05
1.31709e-05
1.27139e-05
1.22801e-05
1.18682e-05
1.14779e-05
1.13806e-05
1.12865e-05
1.11946e-05
1.11044e-05
1.10154e-05
1.09274e-05
1.08399e-05
1.07527e-05
1.06657e-05
1.05786e-05
1.04915e-05
1.04044e-05
1.03175e-05
1.02312e-05
1.01458e-05
1.0062e-05
9.98027e-06
9.90119e-06
9.82506e-06
9.7521e-06
9.68243e-06
9.61582e-06
9.55166e-06
9.48942e-06
9.42857e-06
9.36843e-06
9.30842e-06
9.24822e-06
9.18775e-06
9.12724e-06
9.06724e-06
2.32309e-05
2.21652e-05
2.1173e-05
2.025e-05
1.93889e-05
1.85837e-05
1.78289e-05
1.71194e-05
1.64511e-05
1.58207e-05
1.5225e-05
1.46616e-05
1.41282e-05
1.3623e-05
1.31442e-05
1.26902e-05
1.22596e-05
1.18509e-05
1.14638e-05
1.13709e-05
1.12805e-05
1.11925e-05
1.11071e-05
1.10239e-05
1.09398e-05
1.08574e-05
1.07769e-05
1.06979e-05
1.06202e-05
1.05437e-05
1.04721e-05
1.04029e-05
1.0335e-05
1.0268e-05
1.02022e-05
1.01383e-05
1.00769e-05
1.00185e-05
9.96342e-06
9.91181e-06
9.86357e-06
9.81822e-06
9.77511e-06
9.73363e-06
9.69311e-06
9.653e-06
9.61305e-06
9.57342e-06
9.53473e-06
9.4983e-06
2.32339e-05
2.21771e-05
2.11992e-05
2.02916e-05
1.94479e-05
1.86654e-05
1.79371e-05
1.72573e-05
1.66211e-05
1.60243e-05
1.54636e-05
1.4936e-05
1.44389e-05
1.39701e-05
1.35275e-05
1.31093e-05
1.2714e-05
1.23402e-05
1.19869e-05
1.16521e-05
1.14444e-05
1.12958e-05
1.11897e-05
1.12005e-05
1.11661e-05
1.11154e-05
1.10619e-05
1.10113e-05
1.0965e-05
1.09237e-05
1.09734e-05
1.10324e-05
1.10849e-05
1.11248e-05
1.11509e-05
1.11652e-05
1.11701e-05
1.11685e-05
1.11626e-05
1.11542e-05
1.11446e-05
1.11342e-05
1.1123e-05
1.11108e-05
1.10971e-05
1.10818e-05
1.10647e-05
1.10465e-05
1.10287e-05
1.10145e-05
2.38334e-05
2.36161e-05
2.34105e-05
2.32147e-05
2.30265e-05
2.28398e-05
2.26538e-05
2.24681e-05
2.22828e-05
2.2098e-05
2.19141e-05
2.17313e-05
2.15502e-05
2.13711e-05
2.11944e-05
2.10204e-05
2.08495e-05
2.06817e-05
2.05172e-05
2.03558e-05
2.01521e-05
1.99522e-05
1.97554e-05
1.96045e-05
1.94418e-05
1.92725e-05
1.91001e-05
1.89271e-05
1.87551e-05
1.85853e-05
1.8384e-05
1.81999e-05
1.80294e-05
1.787e-05
1.77201e-05
1.75783e-05
1.74436e-05
1.73151e-05
1.71919e-05
1.70728e-05
1.6957e-05
1.68435e-05
1.67311e-05
1.6619e-05
1.65065e-05
1.6393e-05
1.6278e-05
1.61613e-05
1.60425e-05
1.5921e-05
7.16646e-06
5.54243e-06
4.52302e-06
4.04202e-06
3.93374e-06
4.05786e-06
4.30396e-06
4.58662e-06
4.84547e-06
5.04673e-06
5.18102e-06
5.2569e-06
5.29218e-06
5.30407e-06
5.33405e-06
5.38769e-06
5.44447e-06
5.5359e-06
5.68823e-06
5.7985e-06
7.20122e-06
5.47394e-06
4.43994e-06
3.98246e-06
3.9051e-06
4.05503e-06
4.31788e-06
4.60752e-06
4.86487e-06
5.05879e-06
5.18225e-06
5.24691e-06
5.27384e-06
5.28654e-06
5.34526e-06
5.4025e-06
5.46753e-06
5.58573e-06
5.7803e-06
5.9136e-06
7.23228e-06
5.40664e-06
4.36099e-06
3.92882e-06
3.88236e-06
4.05703e-06
4.33515e-06
4.63075e-06
4.886e-06
5.07187e-06
5.18384e-06
5.23614e-06
5.25247e-06
5.25796e-06
5.30785e-06
5.36123e-06
5.42917e-06
5.56074e-06
5.77324e-06
5.92229e-06
7.27013e-06
5.33656e-06
4.28326e-06
3.87954e-06
3.86425e-06
4.06285e-06
4.35551e-06
4.65667e-06
4.90987e-06
5.08775e-06
5.18827e-06
5.22866e-06
5.23594e-06
5.23798e-06
5.28009e-06
5.32715e-06
5.39305e-06
5.53544e-06
5.76639e-06
5.93164e-06
7.30322e-06
5.26424e-06
4.20828e-06
3.83509e-06
3.85081e-06
4.07237e-06
4.37883e-06
4.68497e-06
4.93569e-06
5.10539e-06
5.19425e-06
5.2222e-06
5.22046e-06
5.22215e-06
5.25805e-06
5.29664e-06
5.35758e-06
5.50832e-06
5.75755e-06
5.9416e-06
7.33317e-06
5.1907e-06
4.13663e-06
3.79573e-06
3.84202e-06
4.08544e-06
4.40477e-06
4.71552e-06
4.96371e-06
5.12502e-06
5.20178e-06
5.21685e-06
5.20559e-06
5.20783e-06
5.23783e-06
5.26584e-06
5.32152e-06
5.47929e-06
5.74657e-06
5.95268e-06
7.36083e-06
5.11652e-06
4.06892e-06
3.76148e-06
3.8374e-06
4.10164e-06
4.43325e-06
4.74832e-06
4.9939e-06
5.14679e-06
5.21102e-06
5.21258e-06
5.1913e-06
5.1919e-06
5.21561e-06
5.23283e-06
5.2851e-06
5.44969e-06
5.73465e-06
5.96558e-06
7.38731e-06
5.04271e-06
4.00544e-06
3.73219e-06
3.83668e-06
4.12058e-06
4.4639e-06
4.78327e-06
5.02627e-06
5.17061e-06
5.22189e-06
5.20931e-06
5.17734e-06
5.17356e-06
5.18869e-06
5.19712e-06
5.24901e-06
5.42098e-06
5.72325e-06
5.98082e-06
7.41258e-06
4.97003e-06
3.94659e-06
3.70762e-06
3.83941e-06
4.14203e-06
4.49666e-06
4.82036e-06
5.06087e-06
5.19645e-06
5.23422e-06
5.20663e-06
5.1634e-06
5.15213e-06
5.15725e-06
5.15905e-06
5.2136e-06
5.39398e-06
5.71339e-06
5.99856e-06
7.4374e-06
4.89882e-06
3.89235e-06
3.68754e-06
3.84531e-06
4.16573e-06
4.53133e-06
4.85931e-06
5.09736e-06
5.22394e-06
5.2474e-06
5.20388e-06
5.14929e-06
5.12793e-06
5.12225e-06
5.11898e-06
5.17858e-06
5.36877e-06
5.70554e-06
6.01877e-06
7.46185e-06
4.82974e-06
3.84291e-06
3.67172e-06
3.85393e-06
4.19117e-06
4.56747e-06
4.89983e-06
5.13538e-06
5.25237e-06
5.26027e-06
5.2e-06
5.13502e-06
5.1022e-06
5.08528e-06
5.07721e-06
5.14336e-06
5.34499e-06
5.69988e-06
6.04129e-06
7.4861e-06
4.76337e-06
3.79839e-06
3.65977e-06
3.86483e-06
4.21802e-06
4.60469e-06
4.94134e-06
5.17418e-06
5.28094e-06
5.27196e-06
5.19379e-06
5.12035e-06
5.07596e-06
5.04789e-06
5.03417e-06
5.10758e-06
5.32237e-06
5.69647e-06
6.06593e-06
7.5105e-06
4.70011e-06
3.75878e-06
3.65136e-06
3.87754e-06
4.24569e-06
4.64242e-06
4.9833e-06
5.21322e-06
5.3089e-06
5.28141e-06
5.18369e-06
5.10411e-06
5.04936e-06
5.01126e-06
4.99065e-06
5.07146e-06
5.30091e-06
5.69538e-06
6.09239e-06
7.53512e-06
4.6404e-06
3.72396e-06
3.64594e-06
3.8915e-06
4.27362e-06
4.68007e-06
5.0251e-06
5.25193e-06
5.33568e-06
5.2876e-06
5.16771e-06
5.08473e-06
5.02114e-06
4.97541e-06
4.9476e-06
5.03571e-06
5.28088e-06
5.69669e-06
6.12032e-06
7.55985e-06
4.58453e-06
3.69382e-06
3.64306e-06
3.90607e-06
4.3012e-06
4.71708e-06
5.06624e-06
5.2898e-06
5.36061e-06
5.28942e-06
5.14363e-06
5.0605e-06
4.98946e-06
4.9402e-06
4.90584e-06
5.00103e-06
5.26257e-06
5.70036e-06
6.14939e-06
7.58476e-06
4.53288e-06
3.66807e-06
3.64218e-06
3.92067e-06
4.32785e-06
4.75281e-06
5.10602e-06
5.32604e-06
5.38289e-06
5.2858e-06
5.10932e-06
5.03175e-06
4.95358e-06
4.9056e-06
4.86539e-06
4.96771e-06
5.24613e-06
5.70628e-06
6.17924e-06
7.60961e-06
4.48574e-06
3.64651e-06
3.64279e-06
3.93478e-06
4.35295e-06
4.78648e-06
5.14358e-06
5.35977e-06
5.40173e-06
5.27618e-06
5.06375e-06
5.00433e-06
4.91246e-06
4.86697e-06
4.82477e-06
4.9355e-06
5.23155e-06
5.71444e-06
6.20946e-06
7.63435e-06
4.4435e-06
3.62892e-06
3.64443e-06
3.94786e-06
4.37586e-06
4.81731e-06
5.17799e-06
5.39009e-06
5.41663e-06
5.26093e-06
5.00763e-06
4.98795e-06
4.86253e-06
4.81369e-06
4.78099e-06
4.90382e-06
5.21887e-06
5.72485e-06
6.23973e-06
7.65896e-06
4.40656e-06
3.61511e-06
3.64668e-06
3.95945e-06
4.39595e-06
4.84453e-06
5.20842e-06
5.41637e-06
5.42754e-06
5.24138e-06
4.94383e-06
4.96544e-06
4.79419e-06
4.73665e-06
4.73074e-06
4.87225e-06
5.20835e-06
5.73753e-06
6.2697e-06
7.68368e-06
4.37531e-06
3.60485e-06
3.64916e-06
3.96916e-06
4.41273e-06
4.86754e-06
5.23427e-06
5.43819e-06
5.43485e-06
5.22004e-06
4.87827e-06
4.85225e-06
4.66444e-06
4.61958e-06
4.67066e-06
4.84076e-06
5.20049e-06
5.75264e-06
6.29914e-06
7.70872e-06
4.35008e-06
3.59788e-06
3.65164e-06
3.97675e-06
4.42585e-06
4.88585e-06
5.255e-06
5.45534e-06
5.43939e-06
5.20065e-06
4.82153e-06
4.76071e-06
4.38799e-06
4.43023e-06
4.59767e-06
4.80999e-06
5.19615e-06
5.7705e-06
6.32804e-06
7.73434e-06
4.33117e-06
3.59407e-06
3.65391e-06
3.98202e-06
4.43496e-06
4.899e-06
5.27021e-06
5.46779e-06
5.44233e-06
5.18784e-06
4.7852e-06
4.72932e-06
4.35908e-06
4.32835e-06
4.53461e-06
4.78342e-06
5.19676e-06
5.79182e-06
6.35662e-06
7.76079e-06
4.31895e-06
3.59339e-06
3.65586e-06
3.98474e-06
4.43969e-06
4.90653e-06
5.27958e-06
5.47577e-06
5.4452e-06
5.18559e-06
4.77676e-06
4.52617e-06
4.30191e-06
4.27683e-06
4.49004e-06
4.76461e-06
5.20398e-06
5.8174e-06
6.38519e-06
7.78819e-06
4.31407e-06
3.59593e-06
3.65738e-06
3.98468e-06
4.4396e-06
4.90797e-06
5.28285e-06
5.4796e-06
5.44924e-06
5.19421e-06
4.79508e-06
4.43661e-06
4.28559e-06
4.25428e-06
4.46191e-06
4.75511e-06
5.21902e-06
5.84783e-06
6.4139e-06
7.81956e-06
4.31629e-06
3.59953e-06
3.65667e-06
3.9801e-06
4.4336e-06
4.90339e-06
5.28144e-06
5.48139e-06
5.45478e-06
5.21053e-06
4.81536e-06
4.44652e-06
4.29972e-06
4.24949e-06
4.43863e-06
4.75282e-06
5.24172e-06
5.88359e-06
6.44174e-06
7.86071e-06
4.32201e-06
3.60267e-06
3.65269e-06
3.96992e-06
4.42077e-06
4.89241e-06
5.27589e-06
5.48294e-06
5.464e-06
5.22896e-06
4.8404e-06
4.44978e-06
4.281e-06
4.24497e-06
4.42523e-06
4.76303e-06
5.27416e-06
5.92213e-06
6.46736e-06
7.91243e-06
4.3315e-06
3.60554e-06
3.64548e-06
3.95397e-06
4.40069e-06
4.8744e-06
5.26551e-06
5.48395e-06
5.47778e-06
5.25147e-06
4.87177e-06
4.46304e-06
4.26727e-06
4.23964e-06
4.42908e-06
4.78974e-06
5.31754e-06
5.96313e-06
6.49055e-06
7.97575e-06
4.34525e-06
3.60852e-06
3.63525e-06
3.93209e-06
4.37274e-06
4.84838e-06