/*--------------------------------*- C++ -*----------------------------------*\
  =========                 |
  \\      /  F ield         | OpenFOAM: The Open Source CFD Toolbox
   \\    /   O peration     | Website:  https://openfoam.org
    \\  /    A nd           | Version:  8
     \\/     M anipulation  |
\*---------------------------------------------------------------------------*/
FoamFile
{
    version     2.0;
    format      ascii;
    class       volScalarField;
    location    "700";
    object      nut;
}
// * * * * * * * * * * * * * * * * * * * * * * * * * * * * * * * * * * * * * //

dimensions      [0 2 -1 0 0 0 0];

internalField   nonuniform List<scalar> 
8400
(
6.83442e-05
6.81841e-05
6.7891e-05
6.75317e-05
6.71522e-05
6.67656e-05
6.63727e-05
6.59708e-05
6.556e-05
6.51376e-05
6.46963e-05
6.42283e-05
6.371e-05
6.31454e-05
6.25289e-05
6.18564e-05
6.11245e-05
6.03309e-05
5.94767e-05
5.85988e-05
5.76523e-05
5.65919e-05
5.53189e-05
5.36765e-05
5.15195e-05
4.87649e-05
4.54528e-05
4.18359e-05
3.84867e-05
3.6422e-05
3.65838e-05
3.74679e-05
3.70001e-05
3.65005e-05
3.59958e-05
3.54688e-05
3.49314e-05
3.43921e-05
3.38431e-05
3.3275e-05
3.27012e-05
3.21305e-05
3.15691e-05
3.10163e-05
3.04568e-05
2.99012e-05
2.93481e-05
2.88076e-05
2.82762e-05
2.77548e-05
5.59381e-05
5.54194e-05
5.57074e-05
5.60933e-05
5.64652e-05
5.6815e-05
5.71265e-05
5.73961e-05
5.7596e-05
5.76947e-05
5.77292e-05
5.77473e-05
5.77696e-05
5.7765e-05
5.77433e-05
5.77235e-05
5.77374e-05
5.78101e-05
5.78166e-05
5.75439e-05
5.75826e-05
5.78202e-05
5.79769e-05
5.78361e-05
5.71354e-05
5.54708e-05
5.23153e-05
4.73731e-05
4.09503e-05
3.37162e-05
2.87376e-05
3.30778e-05
3.40434e-05
3.40332e-05
3.4029e-05
3.41094e-05
3.42934e-05
3.43754e-05
3.41185e-05
3.35356e-05
3.28606e-05
3.20681e-05
3.12823e-05
3.05403e-05
2.98963e-05
2.94934e-05
2.93163e-05
2.91301e-05
2.89391e-05
2.87436e-05
6.30441e-05
6.26441e-05
6.1736e-05
6.08931e-05
6.02401e-05
5.99083e-05
5.98066e-05
5.98482e-05
6.00336e-05
6.04078e-05
6.08661e-05
6.1415e-05
6.19688e-05
6.22428e-05
6.18388e-05
6.07292e-05
5.93105e-05
5.81371e-05
5.76473e-05
5.51665e-05
5.47833e-05
5.60722e-05
5.74065e-05
5.83428e-05
5.88726e-05
5.90913e-05
5.90763e-05
5.88318e-05
5.84126e-05
5.22161e-05
2.49842e-05
3.61377e-05
3.75655e-05
3.84275e-05
3.9024e-05
3.93931e-05
3.97811e-05
4.00442e-05
3.99539e-05
3.94459e-05
3.89346e-05
3.8241e-05
3.75832e-05
3.69409e-05
3.64003e-05
3.61255e-05
3.59467e-05
3.58353e-05
3.57606e-05
3.56997e-05
6.14406e-05
6.13756e-05
6.13108e-05
6.12472e-05
6.1186e-05
6.11298e-05
6.10791e-05
6.10319e-05
6.09841e-05
6.09391e-05
6.08879e-05
6.08315e-05
6.07749e-05
6.074e-05
6.07778e-05
6.08501e-05
6.08671e-05
6.08022e-05
6.06017e-05
6.04786e-05
6.04058e-05
6.03611e-05
6.03239e-05
6.02769e-05
6.02047e-05
6.00931e-05
5.99326e-05
5.98532e-05
5.96788e-05
5.92019e-05
5.51313e-05
5.2417e-05
4.97802e-05
4.73957e-05
4.05346e-05
4.3083e-05
4.34112e-05
4.38087e-05
4.35905e-05
4.33182e-05
4.28438e-05
4.22958e-05
4.17977e-05
4.13122e-05
4.09037e-05
4.07603e-05
4.06557e-05
4.06403e-05
4.06793e-05
4.07407e-05
6.14746e-05
6.14479e-05
6.14213e-05
6.13941e-05
6.13664e-05
6.13381e-05
6.13097e-05
6.12806e-05
6.1251e-05
6.12215e-05
6.11923e-05
6.11634e-05
6.11349e-05
6.11068e-05
6.10789e-05
6.10504e-05
6.10212e-05
6.09915e-05
6.09611e-05
6.09295e-05
6.0897e-05
6.08641e-05
6.08313e-05
6.07995e-05
6.07695e-05
6.07379e-05
6.06976e-05
6.05688e-05
6.04127e-05
6.02016e-05
5.95052e-05
5.8372e-05
5.68168e-05
5.48965e-05
5.19309e-05
5.01361e-05
4.91396e-05
4.60094e-05
4.53757e-05
4.65593e-05
4.51007e-05
4.47459e-05
4.42904e-05
4.3915e-05
4.37135e-05
4.36181e-05
4.36064e-05
4.36875e-05
4.38198e-05
4.39693e-05
6.14662e-05
6.14309e-05
6.13948e-05
6.13588e-05
6.13222e-05
6.12848e-05
6.12473e-05
6.12091e-05
6.11705e-05
6.11315e-05
6.10924e-05
6.10533e-05
6.10138e-05
6.09741e-05
6.09349e-05
6.08962e-05
6.08576e-05
6.08184e-05
6.07783e-05
6.07381e-05
6.06981e-05
6.0659e-05
6.06215e-05
6.05865e-05
6.05509e-05
6.05148e-05
6.04859e-05
6.04521e-05
6.03999e-05
6.03141e-05
6.01068e-05
5.96769e-05
5.89445e-05
5.78691e-05
5.63042e-05
5.47603e-05
5.34424e-05
5.17802e-05
5.17925e-05
4.93022e-05
4.63203e-05
4.66146e-05
4.56433e-05
4.53551e-05
4.52952e-05
4.52438e-05
4.53284e-05
4.54795e-05
4.5666e-05
4.58589e-05
6.1462e-05
6.14213e-05
6.13801e-05
6.13381e-05
6.1296e-05
6.12531e-05
6.121e-05
6.11657e-05
6.11208e-05
6.10755e-05
6.10296e-05
6.09834e-05
6.0937e-05
6.08906e-05
6.08438e-05
6.07965e-05
6.07483e-05
6.06992e-05
6.06496e-05
6.06e-05
6.05509e-05
6.05028e-05
6.04576e-05
6.0412e-05
6.03684e-05
6.0338e-05
6.03154e-05
6.02983e-05
6.02794e-05
6.02471e-05
6.01702e-05
5.9991e-05
5.96395e-05
5.90542e-05
5.81616e-05
5.70918e-05
5.5996e-05
5.4837e-05
5.41628e-05
5.30294e-05
5.37102e-05
4.78e-05
4.65587e-05
4.60056e-05
4.6032e-05
4.61013e-05
4.62593e-05
4.64615e-05
4.66705e-05
4.6866e-05
6.14532e-05
6.14032e-05
6.13524e-05
6.13006e-05
6.12481e-05
6.11944e-05
6.11404e-05
6.10866e-05
6.10315e-05
6.09751e-05
6.09186e-05
6.08619e-05
6.08047e-05
6.07468e-05
6.06883e-05
6.06298e-05
6.05709e-05
6.05116e-05
6.04517e-05
6.03925e-05
6.03358e-05
6.02831e-05
6.0224e-05
6.0172e-05
6.01363e-05
6.01131e-05
6.01019e-05
6.01013e-05
6.01058e-05
6.0107e-05
6.0087e-05
6.00141e-05
5.98403e-05
5.95123e-05
5.89756e-05
5.82539e-05
5.74222e-05
5.65309e-05
5.57876e-05
5.49898e-05
5.47729e-05
5.35062e-05
5.07071e-05
4.60483e-05
4.62691e-05
4.64819e-05
4.67031e-05
4.69136e-05
4.71037e-05
4.72719e-05
6.14421e-05
6.1379e-05
6.1315e-05
6.12489e-05
6.11828e-05
6.11157e-05
6.10472e-05
6.09769e-05
6.09069e-05
6.08349e-05
6.07602e-05
6.06839e-05
6.06084e-05
6.05335e-05
6.04593e-05
6.03862e-05
6.0313e-05
6.02399e-05
6.01674e-05
6.0096e-05
6.00274e-05
5.99501e-05
5.98935e-05
5.98534e-05
5.98288e-05
5.98215e-05
5.98313e-05
5.98557e-05
5.98893e-05
5.9922e-05
5.99423e-05
5.99274e-05
5.98463e-05
5.96584e-05
5.93205e-05
5.88229e-05
5.81971e-05
5.74944e-05
5.68235e-05
5.61642e-05
5.57495e-05
5.50329e-05
5.39883e-05
4.85306e-05
4.62217e-05
4.65842e-05
4.68464e-05
4.70282e-05
4.71424e-05
4.72127e-05
6.14211e-05
6.13337e-05
6.12456e-05
6.11554e-05
6.10642e-05
6.09706e-05
6.08747e-05
6.07744e-05
6.06711e-05
6.05704e-05
6.04578e-05
6.03383e-05
6.02199e-05
6.0109e-05
6.00082e-05
5.99187e-05
5.98317e-05
5.97428e-05
5.96555e-05
5.95524e-05
5.94597e-05
5.94032e-05
5.9368e-05
5.9357e-05
5.93747e-05
5.94176e-05
5.94805e-05
5.95549e-05
5.96325e-05
5.97059e-05
5.9764e-05
5.97921e-05
5.97682e-05
5.96624e-05
5.94404e-05
5.90826e-05
5.86019e-05
5.80398e-05
5.74631e-05
5.6897e-05
5.64575e-05
5.58904e-05
5.48814e-05
5.14517e-05
4.64344e-05
4.65655e-05
4.68477e-05
4.6965e-05
4.69479e-05
4.68301e-05
6.1378e-05
6.12332e-05
6.10898e-05
6.09428e-05
6.07913e-05
6.06317e-05
6.04607e-05
6.02739e-05
6.00669e-05
5.98578e-05
5.94186e-05
5.8965e-05
5.85677e-05
5.83166e-05
5.82859e-05
5.83485e-05
5.8292e-05
5.81891e-05
5.80732e-05
5.80255e-05
5.80496e-05
5.81557e-05
5.8333e-05
5.85526e-05
5.87735e-05
5.89654e-05
5.91273e-05
5.9271e-05
5.93962e-05
5.95035e-05
5.9591e-05
5.96503e-05
5.96584e-05
5.95999e-05
5.9445e-05
5.91767e-05
5.87961e-05
5.83334e-05
5.78387e-05
5.73453e-05
5.69193e-05
5.63764e-05
5.52643e-05
5.23235e-05
4.77166e-05
4.65435e-05
4.68109e-05
4.68908e-05
4.67482e-05
4.63606e-05
6.11319e-05
6.06536e-05
6.03857e-05
6.00475e-05
5.95603e-05
5.83291e-05
5.58531e-05
5.23738e-05
4.98469e-05
4.91668e-05
5.0291e-05
5.17653e-05
5.36141e-05
5.57416e-05
5.79757e-05
5.92587e-05
5.88138e-05
5.82086e-05
5.78972e-05
5.77125e-05
5.77185e-05
5.78668e-05
5.80599e-05
5.82768e-05
5.85044e-05
5.87151e-05
5.89033e-05
5.90634e-05
5.92135e-05
5.93511e-05
5.94497e-05
5.95206e-05
5.9545e-05
5.95108e-05
5.93942e-05
5.91787e-05
5.88621e-05
5.84694e-05
5.80365e-05
5.75942e-05
5.71758e-05
5.6592e-05
5.53444e-05
5.25998e-05
4.87467e-05
4.69351e-05
4.68234e-05
4.68907e-05
4.67477e-05
4.63882e-05
5.94941e-05
5.87406e-05
5.80859e-05
5.73918e-05
5.66958e-05
5.60445e-05
5.54896e-05
5.50363e-05
5.47334e-05
5.46639e-05
5.4872e-05
5.52675e-05
5.57732e-05
5.62831e-05
5.66581e-05
5.68867e-05
5.70438e-05
5.71881e-05
5.73382e-05
5.74831e-05
5.76417e-05
5.78177e-05
5.80054e-05
5.82003e-05
5.83997e-05
5.85922e-05
5.87743e-05
5.89388e-05
5.90853e-05
5.92136e-05
5.93205e-05
5.93928e-05
5.94293e-05
5.94116e-05
5.93194e-05
5.91157e-05
5.88377e-05
5.84964e-05
5.81077e-05
5.76952e-05
5.72586e-05
5.65829e-05
5.51895e-05
5.26105e-05
4.94464e-05
4.75591e-05
4.70376e-05
4.69553e-05
4.68157e-05
4.65034e-05
5.7682e-05
5.71767e-05
5.67675e-05
5.64405e-05
5.62052e-05
5.60663e-05
5.60198e-05
5.605e-05
5.61422e-05
5.62849e-05
5.64625e-05
5.66546e-05
5.68443e-05
5.7014e-05
5.71572e-05
5.72898e-05
5.74143e-05
5.75335e-05
5.76486e-05
5.77587e-05
5.78738e-05
5.79982e-05
5.81307e-05
5.82707e-05
5.84188e-05
5.85681e-05
5.8714e-05
5.88536e-05
5.89828e-05
5.90988e-05
5.91952e-05
5.92627e-05
5.92941e-05
5.92782e-05
5.91975e-05
5.90255e-05
5.87785e-05
5.84805e-05
5.80405e-05
5.76613e-05
5.71795e-05
5.63711e-05
5.48501e-05
5.24824e-05
4.9911e-05
4.81827e-05
4.7432e-05
4.71623e-05
4.69785e-05
4.67334e-05
5.67051e-05
5.65355e-05
5.64353e-05
5.63983e-05
5.64168e-05
5.6478e-05
5.65695e-05
5.66806e-05
5.68031e-05
5.69291e-05
5.70556e-05
5.71804e-05
5.72986e-05
5.74073e-05
5.75068e-05
5.76042e-05
5.76979e-05
5.77882e-05
5.78768e-05
5.79643e-05
5.80541e-05
5.81477e-05
5.82453e-05
5.8347e-05
5.84529e-05
5.85608e-05
5.86713e-05
5.87795e-05
5.88805e-05
5.89729e-05
5.90487e-05
5.91026e-05
5.91254e-05
5.91047e-05
5.90259e-05
5.88706e-05
5.86468e-05
5.83673e-05
5.79625e-05
5.7495e-05
5.69195e-05
5.59705e-05
5.43829e-05
5.22787e-05
5.02099e-05
4.87212e-05
4.78871e-05
4.7458e-05
4.71841e-05
4.69226e-05
5.65841e-05
5.66045e-05
5.66533e-05
5.67249e-05
5.68108e-05
5.69055e-05
5.70045e-05
5.71039e-05
5.72009e-05
5.72942e-05
5.73841e-05
5.74696e-05
5.755e-05
5.76262e-05
5.76986e-05
5.77697e-05
5.78405e-05
5.7911e-05
5.79804e-05
5.80481e-05
5.81178e-05
5.81899e-05
5.82644e-05
5.83415e-05
5.84205e-05
5.85006e-05
5.85807e-05
5.86596e-05
5.87344e-05
5.8799e-05
5.88501e-05
5.88817e-05
5.88844e-05
5.88471e-05
5.87585e-05
5.86028e-05
5.8382e-05
5.81005e-05
5.77186e-05
5.72532e-05
5.64929e-05
5.54057e-05
5.38413e-05
5.20485e-05
5.04012e-05
4.91516e-05
4.83296e-05
4.78087e-05
4.74485e-05
4.71475e-05
5.68374e-05
5.69031e-05
5.69737e-05
5.70478e-05
5.71216e-05
5.71933e-05
5.72628e-05
5.73287e-05
5.73911e-05
5.74514e-05
5.75094e-05
5.75645e-05
5.76173e-05
5.76688e-05
5.77196e-05
5.77698e-05
5.78205e-05
5.7872e-05
5.79236e-05
5.79766e-05
5.80315e-05
5.80868e-05
5.81423e-05
5.81984e-05
5.82541e-05
5.83105e-05
5.83657e-05
5.84159e-05
5.84614e-05
5.84969e-05
5.8518e-05
5.85184e-05
5.84914e-05
5.84269e-05
5.83143e-05
5.81415e-05
5.79086e-05
5.76169e-05
5.72448e-05
5.67895e-05
5.60034e-05
5.4734e-05
5.3293e-05
5.18222e-05
5.05263e-05
4.95031e-05
4.87521e-05
4.82121e-05
4.78136e-05
4.75001e-05
5.70421e-05
5.70862e-05
5.71301e-05
5.71717e-05
5.72108e-05
5.72473e-05
5.72815e-05
5.73138e-05
5.73447e-05
5.73746e-05
5.74036e-05
5.7432e-05
5.746e-05
5.74881e-05
5.75173e-05
5.75476e-05
5.75783e-05
5.76101e-05
5.76436e-05
5.76784e-05
5.77132e-05
5.7748e-05
5.77827e-05
5.78172e-05
5.78504e-05
5.78805e-05
5.79073e-05
5.7929e-05
5.79426e-05
5.79439e-05
5.793e-05
5.78958e-05
5.78339e-05
5.77362e-05
5.7597e-05
5.74081e-05
5.71688e-05
5.68802e-05
5.65334e-05
5.61175e-05
5.54483e-05
5.40489e-05
5.28068e-05
5.16481e-05
5.06495e-05
4.98356e-05
4.91993e-05
4.87124e-05
4.83444e-05
4.80701e-05
5.70457e-05
5.70529e-05
5.70585e-05
5.70619e-05
5.70638e-05
5.70641e-05
5.70632e-05
5.70615e-05
5.70592e-05
5.70567e-05
5.70541e-05
5.70514e-05
5.7049e-05
5.70472e-05
5.70463e-05
5.70464e-05
5.7048e-05
5.7051e-05
5.70547e-05
5.70588e-05
5.70637e-05
5.70686e-05
5.70732e-05
5.70764e-05
5.70772e-05
5.70744e-05
5.70667e-05
5.70528e-05
5.70311e-05
5.69978e-05
5.69495e-05
5.68825e-05
5.67925e-05
5.66748e-05
5.65261e-05
5.63433e-05
5.61295e-05
5.58899e-05
5.5621e-05
5.52993e-05
5.47921e-05
5.34813e-05
5.2473e-05
5.15984e-05
5.08595e-05
5.02538e-05
4.97701e-05
4.93959e-05
4.91203e-05
4.8933e-05
8.19485e-05
8.13995e-05
8.08563e-05
8.03019e-05
7.9729e-05
7.9132e-05
7.85079e-05
7.78551e-05
7.7173e-05
7.64614e-05
7.5721e-05
7.49525e-05
7.41571e-05
7.33365e-05
7.24934e-05
7.16315e-05
7.07545e-05
6.98677e-05
6.89778e-05
6.80901e-05
6.72104e-05
6.63442e-05
6.5495e-05
6.46677e-05
6.38657e-05
6.30908e-05
6.23448e-05
6.16289e-05
6.09444e-05
6.02899e-05
5.96651e-05
5.90695e-05
5.85016e-05
5.79584e-05
5.74372e-05
5.6934e-05
5.64493e-05
5.59932e-05
5.55994e-05
5.53662e-05
5.44346e-05
5.39204e-05
5.3583e-05
5.34006e-05
5.33517e-05
5.34222e-05
5.35988e-05
5.38716e-05
5.42363e-05
5.46894e-05
5.48208e-06
5.45447e-06
5.42786e-06
5.40339e-06
5.38099e-06
5.36033e-06
5.34046e-06
5.32101e-06
5.30162e-06
5.282e-06
5.26193e-06
5.24129e-06
5.21999e-06
5.19807e-06
5.1756e-06
5.15272e-06
5.1296e-06
5.10645e-06
5.08346e-06
5.06087e-06
5.04906e-06
5.03118e-06
4.98976e-06
4.95583e-06
4.92727e-06
4.90245e-06
4.88021e-06
4.8624e-06
4.84539e-06
4.82796e-06
4.80997e-06
4.78359e-06
4.77188e-06
4.75707e-06
4.74105e-06
4.72496e-06
4.70933e-06
4.69426e-06
4.67961e-06
4.66511e-06
4.65042e-06
4.63509e-06
4.61938e-06
4.60336e-06
4.58626e-06
4.56561e-06
4.53915e-06
4.51271e-06
4.50889e-06
4.56371e-06
5.41056e-06
5.28158e-06
5.15976e-06
5.04544e-06
4.93823e-06
4.83755e-06
4.74329e-06
4.65453e-06
4.57042e-06
4.49011e-06
4.41292e-06
4.33832e-06
4.26598e-06
4.19568e-06
4.12739e-06
4.06112e-06
3.99697e-06
3.93508e-06
3.87391e-06
3.81772e-06
3.73335e-06
1.58625e-05
1.58672e-05
1.59085e-05
1.59427e-05
1.59535e-05
1.5939e-05
1.58875e-05
1.5825e-05
1.57697e-05
1.57302e-05
1.57568e-05
1.5702e-05
1.56569e-05
1.56287e-05
1.56136e-05
1.56047e-05
1.5595e-05
1.55792e-05
1.55538e-05
1.55166e-05
1.54687e-05
1.54128e-05
1.53593e-05
1.53244e-05
1.53012e-05
1.51687e-05
1.46355e-05
1.34502e-05
1.19376e-05
5.41064e-06
5.2814e-06
5.15837e-06
5.04234e-06
4.933e-06
4.82979e-06
4.73202e-06
4.63888e-06
4.54966e-06
4.46371e-06
4.38052e-06
4.29973e-06
4.22111e-06
4.14454e-06
4.07001e-06
3.99755e-06
3.92723e-06
3.85798e-06
3.73417e-06
3.64104e-06
1.5478e-05
1.5481e-05
1.54345e-05
1.53599e-05
1.52706e-05
1.51742e-05
1.50745e-05
1.49733e-05
1.48732e-05
1.4776e-05
1.46829e-05
1.45963e-05
1.45075e-05
1.44229e-05
1.43414e-05
1.42617e-05
1.41824e-05
1.41022e-05
1.402e-05
1.39354e-05
1.38477e-05
1.3755e-05
1.3653e-05
1.35409e-05
1.34428e-05
1.3438e-05
1.36677e-05
1.41771e-05
1.45339e-05
1.35023e-05
5.41066e-06
5.28246e-06
5.16063e-06
5.04568e-06
4.93721e-06
4.83466e-06
4.73732e-06
4.64444e-06
4.55531e-06
4.46932e-06
4.38601e-06
4.30505e-06
4.22621e-06
4.1494e-06
4.0746e-06
4.00185e-06
3.93124e-06
3.86288e-06
3.79696e-06
1.58706e-05
1.57329e-05
1.56027e-05
1.5478e-05
1.53576e-05
1.52406e-05
1.51262e-05
1.5014e-05
1.49037e-05
1.47951e-05
1.46883e-05
1.45831e-05
1.44796e-05
1.43775e-05
1.42765e-05
1.4176e-05
1.40755e-05
1.39742e-05
1.3871e-05
1.37652e-05
1.36571e-05
1.35484e-05
1.34418e-05
1.33342e-05
1.3205e-05
1.30105e-05
1.27249e-05
1.2443e-05
1.24321e-05
1.28802e-05
1.27875e-05
5.41066e-06
5.28248e-06
5.16061e-06
5.04552e-06
4.93686e-06
4.83408e-06
4.73651e-06
4.64342e-06
4.55414e-06
4.46807e-06
4.38471e-06
4.30373e-06
4.22492e-06
4.14818e-06
4.07348e-06
4.00087e-06
3.93042e-06
3.86223e-06
3.79647e-06
1.58746e-05
1.57377e-05
1.56066e-05
1.54806e-05
1.5359e-05
1.5241e-05
1.51259e-05
1.50131e-05
1.49022e-05
1.4793e-05
1.46852e-05
1.45789e-05
1.44738e-05
1.43697e-05
1.42663e-05
1.41631e-05
1.40593e-05
1.39545e-05
1.38477e-05
1.37379e-05
1.36238e-05
1.35056e-05
1.33894e-05
1.32912e-05
1.32288e-05
1.31899e-05
1.30923e-05
1.28291e-05
1.25081e-05
1.25653e-05
1.25775e-05
5.41065e-06
5.28252e-06
5.16076e-06
5.04581e-06
4.93731e-06
4.83472e-06
4.73733e-06
4.64441e-06
4.55527e-06
4.46932e-06
4.3861e-06
4.30525e-06
4.22658e-06
4.14997e-06
4.07541e-06
4.00295e-06
3.93265e-06
3.86461e-06
3.79897e-06
1.58975e-05
1.57603e-05
1.56285e-05
1.55018e-05
1.53793e-05
1.52603e-05
1.51441e-05
1.50302e-05
1.49182e-05
1.48078e-05
1.46989e-05
1.45915e-05
1.44853e-05
1.43801e-05
1.42755e-05
1.41709e-05
1.40657e-05
1.39593e-05
1.38514e-05
1.37418e-05
1.36291e-05
1.35089e-05
1.33747e-05
1.32275e-05
1.30916e-05
1.30123e-05
1.29974e-05
1.29317e-05
1.26884e-05
1.25708e-05
1.25216e-05
5.41065e-06
5.28253e-06
5.16076e-06
5.04578e-06
4.93721e-06
4.83452e-06
4.73702e-06
4.644e-06
4.55476e-06
4.46874e-06
4.38545e-06
4.30459e-06
4.22592e-06
4.14935e-06
4.07487e-06
4.00251e-06
3.93234e-06
3.86442e-06
3.79893e-06
1.59004e-05
1.57641e-05
1.56331e-05
1.55067e-05
1.53842e-05
1.52647e-05
1.51476e-05
1.50324e-05
1.4919e-05
1.48073e-05
1.46972e-05
1.45886e-05
1.44815e-05
1.43755e-05
1.42703e-05
1.41652e-05
1.40596e-05
1.39525e-05
1.38435e-05
1.37334e-05
1.36245e-05
1.35187e-05
1.34112e-05
1.32873e-05
1.31358e-05
1.29839e-05
1.2896e-05
1.28679e-05
1.27413e-05
1.26112e-05
1.25208e-05
5.41065e-06
5.28251e-06
5.16072e-06
5.04571e-06
4.93711e-06
4.83438e-06
4.73685e-06
4.6438e-06
4.55457e-06
4.46858e-06
4.38535e-06
4.30458e-06
4.22603e-06
4.14962e-06
4.07531e-06
4.00313e-06
3.93315e-06
3.86543e-06
3.80013e-06
1.59129e-05
1.57773e-05
1.56466e-05
1.55197e-05
1.53954e-05
1.5273e-05
1.51518e-05
1.50318e-05
1.49134e-05
1.47967e-05
1.46821e-05
1.45698e-05
1.44598e-05
1.43517e-05
1.42452e-05
1.41397e-05
1.40344e-05
1.39284e-05
1.382e-05
1.37078e-05
1.35924e-05
1.34789e-05
1.33745e-05
1.32771e-05
1.31661e-05
1.30238e-05
1.28869e-05
1.28164e-05
1.27305e-05
1.26249e-05
1.25271e-05
5.41064e-06
5.28249e-06
5.16066e-06
5.04558e-06
4.93689e-06
4.83408e-06
4.73646e-06
4.64334e-06
4.55406e-06
4.46803e-06
4.38482e-06
4.30408e-06
4.22561e-06
4.14931e-06
4.07513e-06
4.00311e-06
3.9333e-06
3.86573e-06
3.80058e-06
1.59192e-05
1.5784e-05
1.56534e-05
1.55265e-05
1.5402e-05
1.52791e-05
1.51572e-05
1.50364e-05
1.49167e-05
1.47987e-05
1.46827e-05
1.45687e-05
1.4457e-05
1.43471e-05
1.42388e-05
1.41314e-05
1.40246e-05
1.39182e-05
1.38116e-05
1.37031e-05
1.35897e-05
1.34706e-05
1.33524e-05
1.32465e-05
1.31518e-05
1.30427e-05
1.29106e-05
1.28084e-05
1.27199e-05
1.26266e-05
1.25322e-05
5.41063e-06
5.28245e-06
5.16058e-06
5.04543e-06
4.93665e-06
4.83373e-06
4.73602e-06
4.64283e-06
4.55351e-06
4.46748e-06
4.38431e-06
4.30366e-06
4.22532e-06
4.14917e-06
4.07518e-06
4.00336e-06
3.93375e-06
3.86638e-06
3.8014e-06
1.59278e-05
1.57925e-05
1.56618e-05
1.55348e-05
1.54106e-05
1.52883e-05
1.51672e-05
1.50471e-05
1.4928e-05
1.48099e-05
1.46931e-05
1.45779e-05
1.44641e-05
1.43518e-05
1.42406e-05
1.413e-05
1.40194e-05
1.39089e-05
1.37989e-05
1.36901e-05
1.35813e-05
1.34684e-05
1.33494e-05
1.32319e-05
1.31286e-05
1.30325e-05
1.29201e-05
1.28123e-05
1.27163e-05
1.26244e-05
1.25326e-05
5.41062e-06
5.28241e-06
5.16047e-06
5.04523e-06
4.93635e-06
4.83332e-06
4.73552e-06
4.64226e-06
4.55289e-06
4.46687e-06
4.38374e-06
4.30317e-06
4.22496e-06
4.14897e-06
4.07517e-06
4.00355e-06
3.93413e-06
3.86695e-06
3.80213e-06
1.59358e-05
1.58009e-05
1.56702e-05
1.55427e-05
1.54173e-05
1.52932e-05
1.51701e-05
1.50479e-05
1.49267e-05
1.48067e-05
1.46882e-05
1.45713e-05
1.44558e-05
1.43417e-05
1.42288e-05
1.41167e-05
1.40049e-05
1.38925e-05
1.37795e-05
1.36674e-05
1.35578e-05
1.345e-05
1.33393e-05
1.32239e-05
1.31134e-05
1.30152e-05
1.29144e-05
1.28121e-05
1.27145e-05
1.26217e-05
1.25306e-05
5.41061e-06
5.28236e-06
5.16036e-06
5.04502e-06
4.93602e-06
4.83287e-06
4.73496e-06
4.64162e-06
4.55221e-06
4.46618e-06
4.38309e-06
4.30261e-06
4.22452e-06
4.14869e-06
4.07508e-06
4.00365e-06
3.93443e-06
3.86742e-06
3.80274e-06
1.59422e-05
1.58074e-05
1.56762e-05
1.55475e-05
1.54204e-05
1.52947e-05
1.51701e-05
1.50468e-05
1.49249e-05
1.48044e-05
1.46856e-05
1.45682e-05
1.44521e-05
1.4337e-05
1.42227e-05
1.41093e-05
1.39966e-05
1.38841e-05
1.37712e-05
1.36577e-05
1.35454e-05
1.34369e-05
1.33312e-05
1.32232e-05
1.3114e-05
1.30126e-05
1.29148e-05
1.28172e-05
1.27211e-05
1.26276e-05
1.25357e-05
5.4106e-06
5.28231e-06
5.16023e-06
5.04479e-06
4.93567e-06
4.8324e-06
4.7344e-06
4.64099e-06
4.55156e-06
4.46556e-06
4.38254e-06
4.30218e-06
4.22426e-06
4.14863e-06
4.07524e-06
4.00404e-06
3.93503e-06
3.86821e-06
3.8037e-06
1.59531e-05
1.58195e-05
1.56862e-05
1.55526e-05
1.54194e-05
1.52878e-05
1.51585e-05
1.50323e-05
1.49091e-05
1.47889e-05
1.46711e-05
1.45552e-05
1.44407e-05
1.43269e-05
1.42133e-05
1.41e-05
1.39871e-05
1.38749e-05
1.37634e-05
1.36519e-05
1.35403e-05
1.3431e-05
1.3326e-05
1.32233e-05
1.31195e-05
1.30188e-05
1.2922e-05
1.28268e-05
1.27324e-05
1.26388e-05
1.25457e-05
5.41058e-06
5.28226e-06
5.16009e-06
5.04452e-06
4.93525e-06
4.83183e-06
4.73369e-06
4.64016e-06
4.55065e-06
4.46461e-06
4.3816e-06
4.3013e-06
4.22348e-06
4.14799e-06
4.07474e-06
4.00371e-06
3.93485e-06
3.86815e-06
3.8037e-06
1.59514e-05
1.58163e-05
1.56847e-05
1.55561e-05
1.54298e-05
1.53052e-05
1.51819e-05
1.50598e-05
1.49385e-05
1.48182e-05
1.46986e-05
1.45796e-05
1.44611e-05
1.4343e-05
1.42252e-05
1.41076e-05
1.39904e-05
1.38744e-05
1.37602e-05
1.36482e-05
1.35375e-05
1.34285e-05
1.33232e-05
1.32224e-05
1.31229e-05
1.30252e-05
1.29299e-05
1.28363e-05
1.27433e-05
1.26501e-05
1.25564e-05
5.41057e-06
5.2822e-06
5.15995e-06
5.04427e-06
4.9349e-06
4.83141e-06
4.73322e-06
4.63969e-06
4.55021e-06
4.46425e-06
4.38137e-06
4.30123e-06
4.2236e-06
4.14833e-06
4.07531e-06
4.00448e-06
3.93581e-06
3.86925e-06
3.80489e-06
1.59611e-05
1.58256e-05
1.56938e-05
1.55649e-05
1.54382e-05
1.5313e-05
1.51888e-05
1.50653e-05
1.49425e-05
1.48202e-05
1.46985e-05
1.45771e-05
1.44561e-05
1.43354e-05
1.42151e-05
1.40955e-05
1.39766e-05
1.3859e-05
1.37437e-05
1.36315e-05
1.35224e-05
1.3416e-05
1.33129e-05
1.32142e-05
1.31187e-05
1.30251e-05
1.2933e-05
1.28419e-05
1.27509e-05
1.26591e-05
1.2566e-05
5.41056e-06
5.28209e-06
5.15965e-06
5.04371e-06
4.93404e-06
4.83023e-06
4.73174e-06
4.63795e-06
4.54826e-06
4.46215e-06
4.37918e-06
4.29901e-06
4.22141e-06
4.14621e-06
4.07329e-06
4.00258e-06
3.934e-06
3.86752e-06
3.8032e-06
1.59477e-05
1.58126e-05
1.56812e-05
1.55532e-05
1.54279e-05
1.53046e-05
1.51827e-05
1.50618e-05
1.49414e-05
1.48211e-05
1.47009e-05
1.45805e-05
1.44598e-05
1.43388e-05
1.42178e-05
1.40973e-05
1.39778e-05
1.38597e-05
1.3744e-05
1.36317e-05
1.35235e-05
1.34194e-05
1.33189e-05
1.32225e-05
1.31298e-05
1.30396e-05
1.29508e-05
1.28627e-05
1.27743e-05
1.26849e-05
1.25942e-05
5.41055e-06
5.28204e-06
5.1596e-06
5.04373e-06
4.93416e-06
4.83047e-06
4.7321e-06
4.63842e-06
4.54884e-06
4.46283e-06
4.37996e-06
4.29989e-06
4.2224e-06
4.14729e-06
4.07446e-06
4.0038e-06
3.93526e-06
3.86877e-06
3.80441e-06
1.59568e-05
1.58207e-05
1.56883e-05
1.55596e-05
1.54339e-05
1.53105e-05
1.51887e-05
1.50683e-05
1.49486e-05
1.48294e-05
1.47104e-05
1.45914e-05
1.44722e-05
1.4353e-05
1.42338e-05
1.41152e-05
1.39981e-05
1.38832e-05
1.37712e-05
1.3663e-05
1.35597e-05
1.34617e-05
1.33684e-05
1.32796e-05
1.31951e-05
1.31138e-05
1.30344e-05
1.29562e-05
1.28782e-05
1.28002e-05
1.2722e-05
5.41054e-06
5.28111e-06
5.15754e-06
5.0406e-06
4.9301e-06
4.82567e-06
4.72676e-06
4.63273e-06
4.54296e-06
4.45691e-06
4.37413e-06
4.29429e-06
4.2171e-06
4.1424e-06
4.07002e-06
3.99986e-06
3.93182e-06
3.86585e-06
3.80199e-06
1.59428e-05
1.58122e-05
1.56848e-05
1.55626e-05
1.54465e-05
1.53245e-05
1.52045e-05
1.5088e-05
1.49749e-05
1.48651e-05
1.47579e-05
1.46602e-05
1.45695e-05
1.44809e-05
1.4392e-05
1.43026e-05
1.42133e-05
1.41251e-05
1.40391e-05
1.39565e-05
1.38784e-05
1.38059e-05
1.37389e-05
1.36771e-05
1.36201e-05
1.35669e-05
1.35165e-05
1.34678e-05
1.34204e-05
1.33742e-05
1.33302e-05
5.41089e-06
5.2825e-06
5.16074e-06
5.04582e-06
4.93752e-06
4.83597e-06
4.74053e-06
4.65047e-06
4.56514e-06
4.48395e-06
4.40646e-06
4.33229e-06
4.26112e-06
4.19272e-06
4.12687e-06
4.06337e-06
4.00204e-06
3.94272e-06
3.88527e-06
3.8289e-06
3.74266e-06
3.66573e-06
3.60829e-06
1.55803e-05
1.56625e-05
1.56368e-05
1.55656e-05
1.5481e-05
1.53973e-05
1.532e-05
1.52473e-05
1.52875e-05
1.53665e-05
1.54471e-05
1.55127e-05
1.55586e-05
1.55854e-05
1.55964e-05
1.55957e-05
1.55872e-05
1.55749e-05
1.55611e-05
1.55472e-05
1.55338e-05
1.55209e-05
1.55081e-05
1.54947e-05
1.54807e-05
1.54672e-05
1.54577e-05
5.4802e-06
5.45288e-06
5.42718e-06
5.40325e-06
5.38098e-06
5.35951e-06
5.33856e-06
5.31791e-06
5.29739e-06
5.27687e-06
5.25628e-06
5.2356e-06
5.2148e-06
5.19392e-06
5.17298e-06
5.15201e-06
5.13103e-06
5.1101e-06
5.08926e-06
5.06849e-06
5.02652e-06
5.00258e-06
4.97962e-06
4.97899e-06
4.97091e-06
4.95783e-06
4.94157e-06
4.9234e-06
4.90413e-06
4.88417e-06
4.8449e-06
4.81199e-06
4.7836e-06
4.75845e-06
4.73555e-06
4.71432e-06
4.69445e-06
4.67582e-06
4.65838e-06
4.6421e-06
4.62692e-06
4.61281e-06
4.59961e-06
4.58704e-06
4.57482e-06
4.56262e-06
4.55012e-06
4.53699e-06
4.52295e-06
4.50763e-06
1.0024e-05
7.74143e-06
6.32229e-06
5.63054e-06
5.44849e-06
5.58822e-06
5.90406e-06
6.28278e-06
6.64106e-06
6.92895e-06
7.1289e-06
7.24758e-06
7.30523e-06
7.31524e-06
7.36958e-06
7.44107e-06
7.5217e-06
7.61684e-06
7.78085e-06
7.93727e-06
1.00529e-05
7.65426e-06
6.212e-06
5.55009e-06
5.40914e-06
5.58469e-06
5.92586e-06
6.317e-06
6.67577e-06
6.95584e-06
7.14208e-06
7.24568e-06
7.28956e-06
7.29672e-06
7.38994e-06
7.48892e-06
7.59399e-06
7.7192e-06
7.94984e-06
8.14631e-06
1.01126e-05
7.57463e-06
6.11141e-06
5.48126e-06
5.3822e-06
5.59315e-06
5.95745e-06
6.35938e-06
6.71815e-06
6.98956e-06
7.16196e-06
7.25053e-06
7.2825e-06
7.28419e-06
7.38039e-06
7.46235e-06
7.55592e-06
7.69172e-06
7.94838e-06
8.16724e-06
1.01701e-05
7.48162e-06
6.0052e-06
5.41392e-06
5.35847e-06
5.6042e-06
5.99111e-06
6.40369e-06
6.76214e-06
7.02427e-06
7.18213e-06
7.25525e-06
7.27627e-06
7.27369e-06
7.3546e-06
7.43573e-06
7.52397e-06
7.67066e-06
7.95247e-06
8.18681e-06
1.02182e-05
7.38345e-06
5.90165e-06
5.35236e-06
5.34105e-06
5.62078e-06
6.02947e-06
6.45153e-06
6.80874e-06
7.06131e-06
7.20411e-06
7.2604e-06
7.26972e-06
7.27029e-06
7.33834e-06
7.41398e-06
7.49311e-06
7.64903e-06
7.95504e-06
8.20422e-06
1.0261e-05
7.28266e-06
5.80166e-06
5.29767e-06
5.33045e-06
5.64272e-06
6.07182e-06
6.50269e-06
6.85841e-06
7.10083e-06
7.22794e-06
7.26696e-06
7.26288e-06
7.26899e-06
7.32847e-06
7.39331e-06
7.45741e-06
7.62227e-06
7.95227e-06
8.21985e-06
1.03004e-05
7.18028e-06
5.70689e-06
5.24994e-06
5.3257e-06
5.66934e-06
6.11802e-06
6.55717e-06
6.9113e-06
7.14331e-06
7.25379e-06
7.27475e-06
7.25775e-06
7.26644e-06
7.32078e-06
7.36674e-06
7.4153e-06
7.58966e-06
7.9438e-06
8.23501e-06
1.0339e-05
7.07811e-06
5.61773e-06
5.20931e-06
5.32668e-06
5.69996e-06
6.16733e-06
6.61472e-06
6.96706e-06
7.1883e-06
7.28161e-06
7.28418e-06
7.25581e-06
7.26532e-06
7.3114e-06
7.33163e-06
7.36849e-06
7.5535e-06
7.93147e-06
8.25129e-06
1.03759e-05
6.97774e-06
5.53494e-06
5.17514e-06
5.33256e-06
5.73439e-06
6.21992e-06
6.67534e-06
7.02559e-06
7.23562e-06
7.31109e-06
7.29479e-06
7.25594e-06
7.26275e-06
7.2954e-06
7.29019e-06
7.32013e-06
7.51666e-06
7.91782e-06
8.27003e-06
1.04129e-05
6.87914e-06
5.45845e-06
5.14745e-06
5.34326e-06
5.77232e-06
6.27533e-06
6.73841e-06
7.08625e-06
7.28457e-06
7.34108e-06
7.30526e-06
7.25714e-06
7.25787e-06
7.27449e-06
7.2453e-06
7.27242e-06
7.48134e-06
7.90512e-06
8.29221e-06
1.04494e-05
6.78337e-06
5.38882e-06
5.12604e-06
5.35804e-06
5.81278e-06
6.33285e-06
6.80372e-06
7.14879e-06
7.33395e-06
7.36933e-06
7.31317e-06
7.25905e-06
7.25174e-06
7.25128e-06
7.1987e-06
7.2259e-06
7.44842e-06
7.89489e-06
8.31837e-06
1.04859e-05
6.69178e-06
5.32632e-06
5.11029e-06
5.37623e-06
5.85543e-06
6.39191e-06
6.87019e-06
7.21209e-06
7.3826e-06
7.39441e-06
7.31625e-06
7.26121e-06
7.24538e-06
7.22818e-06
7.15086e-06
7.17997e-06
7.41778e-06
7.88787e-06
8.3486e-06
1.05229e-05
6.60478e-06
5.27099e-06
5.09973e-06
5.39712e-06
5.89938e-06
6.45181e-06
6.93701e-06
7.27502e-06
7.42933e-06
7.41478e-06
7.31214e-06
7.26255e-06
7.23878e-06
7.20531e-06
7.10127e-06
7.13389e-06
7.38906e-06
7.88419e-06
8.38253e-06
1.05604e-05
6.52267e-06
5.22244e-06
5.0934e-06
5.41978e-06
5.94357e-06
6.51134e-06
7.00332e-06
7.33682e-06
7.4734e-06
7.4289e-06
7.29768e-06
7.26129e-06
7.23158e-06
7.18173e-06
7.04995e-06
7.08753e-06
7.36195e-06
7.88368e-06
8.4195e-06
1.0598e-05
6.44578e-06
5.1805e-06
5.09063e-06
5.4431e-06
5.98693e-06
6.56943e-06
7.06806e-06
7.39659e-06
7.5136e-06
7.43482e-06
7.26861e-06
7.2546e-06
7.22193e-06
7.15825e-06
6.99809e-06
7.0412e-06
7.33609e-06
7.88585e-06
8.45896e-06
1.06356e-05
6.37468e-06
5.14462e-06
5.09046e-06
5.46606e-06
6.02839e-06
6.62499e-06
7.12993e-06
7.45289e-06
7.54825e-06
7.43037e-06
7.22095e-06
7.24479e-06
7.2114e-06
7.13831e-06
6.94678e-06
6.99509e-06
7.31119e-06
7.89028e-06
8.50047e-06
1.06728e-05
6.30964e-06
5.11448e-06
5.09206e-06
5.48787e-06
6.06705e-06
6.67681e-06
7.18747e-06
7.50392e-06
7.57572e-06
7.4145e-06
7.15355e-06
7.24997e-06
7.21558e-06
7.11776e-06
6.89465e-06
6.94897e-06
7.28723e-06
7.89723e-06
8.54357e-06
1.07097e-05
6.25106e-06
5.08976e-06
5.09488e-06
5.50786e-06
6.10201e-06
6.72363e-06
7.23908e-06
7.54811e-06
7.59527e-06
7.38849e-06
7.06966e-06
7.29903e-06
7.26096e-06
7.07687e-06
6.83673e-06
6.90205e-06
7.26462e-06
7.90724e-06
8.58807e-06
1.07465e-05
6.19965e-06
5.07019e-06
5.09842e-06
5.52543e-06
6.13235e-06
6.76435e-06
7.28357e-06
7.58471e-06
7.60745e-06
7.35589e-06
6.97647e-06
7.34063e-06
7.33656e-06
6.99577e-06
6.76624e-06
6.85378e-06
7.24434e-06
7.92079e-06
8.63343e-06
1.07838e-05
6.15593e-06
5.05545e-06
5.10216e-06
5.54001e-06
6.15744e-06
6.79823e-06
7.32037e-06
7.61373e-06
7.61385e-06
7.32208e-06
6.88556e-06
7.12147e-06
7.22364e-06
6.8164e-06
6.67255e-06
6.80429e-06
7.22758e-06
7.93845e-06
8.67906e-06
1.08222e-05
6.12002e-06
5.04501e-06
5.10564e-06
5.55124e-06
6.1769e-06
6.82481e-06
7.34912e-06
7.63533e-06
7.61638e-06
7.29396e-06
6.81557e-06
6.98171e-06
6.55467e-06
6.41349e-06
6.54128e-06
6.75412e-06
7.2159e-06
7.96078e-06
8.72466e-06
1.08619e-05
6.09189e-06
5.03856e-06
5.10852e-06
5.55892e-06
6.1904e-06
6.84364e-06
7.36943e-06
7.64963e-06
7.6171e-06
7.27907e-06
6.78195e-06
7.0793e-06
6.54026e-06
6.22582e-06
6.43076e-06
6.71009e-06
7.21135e-06
7.98854e-06
8.77029e-06
1.09027e-05
6.07199e-06
5.03615e-06
5.11073e-06
5.56286e-06
6.19742e-06
6.85404e-06
7.38082e-06
7.65711e-06
7.6186e-06
7.28257e-06
6.78899e-06
6.67524e-06
6.39609e-06
6.13265e-06
6.36163e-06
6.67925e-06
7.21623e-06
8.02255e-06
8.81622e-06
1.09436e-05
6.06192e-06
5.03835e-06
5.11236e-06