/*--------------------------------*- C++ -*----------------------------------*\
  =========                 |
  \\      /  F ield         | OpenFOAM: The Open Source CFD Toolbox
   \\    /   O peration     | Website:  https://openfoam.org
    \\  /    A nd           | Version:  8
     \\/     M anipulation  |
\*---------------------------------------------------------------------------*/
FoamFile
{
    version     2.0;
    format      ascii;
    class       volScalarField;
    location    "700";
    object      T;
}
// * * * * * * * * * * * * * * * * * * * * * * * * * * * * * * * * * * * * * //

dimensions      [0 0 0 1 0 0 0];

internalField   nonuniform List<scalar> 
8400
(
300.052
300.048
300.047
300.046
300.046
300.047
300.048
300.05
300.054
300.058
300.062
300.066
300.069
300.071
300.071
300.069
300.066
300.06
300.054
300.046
300.036
300.021
300
299.972
299.935
299.887
299.823
299.734
299.611
299.453
299.269
299.1
298.976
298.884
298.807
298.741
298.683
298.633
298.591
298.557
298.535
298.522
298.518
298.521
298.531
298.546
298.566
298.591
298.62
298.653
300.056
300.053
300.051
300.049
300.047
300.047
300.048
300.051
300.054
300.06
300.066
300.073
300.08
300.089
300.097
300.106
300.115
300.123
300.129
300.131
300.126
300.117
300.107
300.097
300.087
300.075
300.053
300.006
299.914
299.753
299.511
299.256
299.115
299.007
298.911
298.825
298.746
298.673
298.599
298.524
298.465
298.42
298.39
298.374
298.367
298.369
298.379
298.396
298.421
298.451
300.013
300.015
300.016
300.017
300.016
300.016
300.016
300.016
300.016
300.016
300.019
300.024
300.032
300.044
300.057
300.069
300.079
300.086
300.087
300.062
300.045
300.044
300.051
300.06
300.071
300.08
300.087
300.091
300.093
300.093
299.881
299.437
299.313
299.226
299.148
299.073
298.977
298.909
298.823
298.701
298.599
298.512
298.447
298.403
298.375
298.357
298.349
298.349
298.357
298.372
300.004
300.005
300.006
300.007
300.009
300.01
300.012
300.013
300.014
300.014
300.013
300.011
300.007
300.003
299.999
299.996
299.994
299.992
299.993
299.998
300.008
300.021
300.036
300.052
300.067
300.079
300.087
300.092
300.095
300.096
300.087
300.024
299.941
299.849
299.704
299.356
299.293
299.232
299.155
299.012
298.906
298.784
298.692
298.628
298.586
298.556
298.535
298.522
298.515
298.515
300.008
300.009
300.01
300.012
300.014
300.016
300.018
300.02
300.022
300.024
300.026
300.03
300.035
300.041
300.048
300.056
300.064
300.072
300.081
300.088
300.094
300.099
300.103
300.106
300.108
300.11
300.112
300.113
300.113
300.114
300.114
300.107
300.089
300.06
300.005
299.915
299.869
299.896
299.368
299.305
299.26
299.128
299.037
298.971
298.931
298.905
298.888
298.877
298.869
298.864
300.002
300.002
300.002
300.001
300.001
300.001
300
300
300
299.999
299.999
299.999
299.999
299.999
300
300.001
300.003
300.004
300.005
300.006
300.007
300.009
300.01
300.012
300.015
300.018
300.023
300.03
300.041
300.053
300.066
300.078
300.085
300.086
300.075
300.047
300.018
299.998
299.902
299.889
299.458
299.432
299.36
299.31
299.287
299.28
299.281
299.286
299.292
299.295
300.003
300.003
300.003
300.003
300.003
300.003
300.003
300.003
300.003
300.003
300.003
300.003
300.003
300.003
300.003
300.003
300.003
300.003
300.003
300.002
300.002
300.002
300.002
300.002
300.003
300.004
300.007
300.012
300.018
300.028
300.04
300.053
300.067
300.078
300.084
300.08
300.068
300.051
300.004
299.962
299.873
299.699
299.583
299.564
299.565
299.581
299.603
299.625
299.645
299.661
300
300
300
300
300
300
300
300
300
300.001
300.001
300.001
300.001
300.002
300.002
300.002
300.002
300.002
300.002
300.002
300.001
300.001
300.001
300.001
300.002
300.003
300.005
300.008
300.013
300.019
300.028
300.04
300.053
300.067
300.079
300.086
300.085
300.075
300.046
300.005
299.936
299.844
299.748
299.722
299.747
299.779
299.812
299.842
299.868
299.889
300
299.999
299.999
299.999
299.999
299.999
299.999
299.999
300
300
300
300.001
300.001
300.002
300.002
300.002
300.002
300.003
300.003
300.002
300.002
300.002
300.002
300.003
300.003
300.004
300.006
300.007
300.01
300.015
300.022
300.032
300.044
300.059
300.074
300.085
300.089
300.085
300.065
300.03
299.971
299.895
299.827
299.812
299.853
299.893
299.927
299.956
299.978
299.996
299.999
299.998
299.998
299.998
299.998
299.998
299.998
299.998
299.999
299.999
299.999
300
300
300.001
300.001
300.002
300.002
300.002
300.002
300.003
300.003
300.003
300.003
300.003
300.004
300.004
300.005
300.006
300.009
300.012
300.018
300.027
300.039
300.054
300.069
300.083
300.091
300.09
300.075
300.044
299.993
299.928
299.875
299.869
299.914
299.954
299.985
300.007
300.023
300.034
299.999
299.998
299.998
299.997
299.997
299.997
299.997
299.998
299.998
299.998
299.998
299.999
299.999
300
300
300.001
300.001
300.002
300.002
300.002
300.002
300.002
300.002
300.002
300.003
300.003
300.004
300.005
300.008
300.011
300.017
300.025
300.037
300.052
300.068
300.082
300.092
300.093
300.081
300.053
300.007
299.952
299.912
299.912
299.948
299.986
300.012
300.029
300.04
300.046
299.999
299.998
299.998
299.997
299.997
299.997
299.997
299.997
299.998
299.998
299.999
299.999
299.999
299.998
299.998
299.998
299.998
300
300.001
300.001
300.002
300.002
300.002
300.003
300.003
300.004
300.005
300.006
300.009
300.012
300.018
300.027
300.038
300.053
300.069
300.084
300.093
300.094
300.083
300.058
300.018
299.972
299.943
299.946
299.973
300.003
300.023
300.037
300.045
300.049
300.002
300.001
300.001
300.001
300.001
300.001
300.002
300.002
300.002
300.002
300.001
300.001
300.001
300.001
300.001
300
300.001
300.001
300.001
300.002
300.003
300.003
300.004
300.005
300.006
300.007
300.008
300.01
300.013
300.017
300.024
300.033
300.044
300.058
300.074
300.087
300.096
300.096
300.085
300.061
300.026
299.989
299.969
299.974
299.994
300.015
300.031
300.041
300.047
300.051
300.007
300.005
300.005
300.005
300.005
300.005
300.005
300.004
300.004
300.004
300.004
300.004
300.004
300.004
300.004
300.004
300.005
300.005
300.006
300.007
300.007
300.008
300.009
300.011
300.012
300.014
300.016
300.019
300.023
300.028
300.035
300.044
300.055
300.067
300.08
300.091
300.097
300.096
300.085
300.063
300.032
300.004
299.991
299.996
300.011
300.025
300.037
300.044
300.049
300.052
300.011
300.009
300.009
300.009
300.008
300.008
300.008
300.008
300.007
300.007
300.007
300.008
300.008
300.009
300.009
300.01
300.011
300.012
300.014
300.015
300.017
300.018
300.02
300.022
300.024
300.027
300.03
300.033
300.038
300.043
300.05
300.058
300.067
300.077
300.087
300.094
300.098
300.095
300.084
300.064
300.038
300.017
300.01
300.014
300.024
300.034
300.042
300.048
300.052
300.054
300.016
300.014
300.014
300.013
300.013
300.012
300.012
300.012
300.012
300.013
300.013
300.014
300.015
300.016
300.018
300.019
300.021
300.023
300.025
300.027
300.03
300.032
300.035
300.037
300.04
300.043
300.046
300.05
300.055
300.059
300.065
300.071
300.078
300.085
300.091
300.095
300.096
300.092
300.082
300.066
300.044
300.029
300.026
300.03
300.036
300.043
300.048
300.052
300.055
300.056
300.024
300.022
300.021
300.02
300.02
300.02
300.019
300.019
300.02
300.02
300.021
300.022
300.024
300.026
300.028
300.03
300.032
300.035
300.038
300.041
300.044
300.046
300.049
300.052
300.055
300.059
300.062
300.065
300.069
300.073
300.077
300.081
300.085
300.089
300.092
300.094
300.093
300.089
300.08
300.067
300.05
300.04
300.039
300.042
300.046
300.05
300.053
300.056
300.057
300.058
300.034
300.031
300.031
300.03
300.029
300.028
300.028
300.028
300.028
300.029
300.03
300.031
300.033
300.035
300.037
300.039
300.042
300.045
300.048
300.051
300.054
300.057
300.06
300.063
300.066
300.069
300.072
300.075
300.077
300.08
300.082
300.085
300.087
300.089
300.09
300.09
300.089
300.085
300.078
300.069
300.055
300.049
300.049
300.051
300.054
300.056
300.057
300.058
300.058
300.058
300.04
300.037
300.037
300.036
300.035
300.035
300.034
300.034
300.034
300.035
300.036
300.037
300.038
300.04
300.042
300.045
300.047
300.05
300.053
300.056
300.059
300.062
300.065
300.068
300.071
300.073
300.075
300.077
300.079
300.08
300.082
300.083
300.084
300.084
300.085
300.085
300.083
300.081
300.076
300.07
300.059
300.056
300.057
300.058
300.059
300.059
300.059
300.058
300.057
300.056
300.009
300.01
300.014
300.016
300.018
300.02
300.021
300.023
300.025
300.027
300.029
300.031
300.033
300.036
300.038
300.041
300.044
300.047
300.05
300.053
300.056
300.058
300.061
300.063
300.066
300.068
300.069
300.071
300.072
300.073
300.073
300.074
300.074
300.075
300.075
300.075
300.075
300.074
300.072
300.069
300.061
300.06
300.06
300.059
300.058
300.057
300.055
300.053
300.051
300.049
303.147
303.142
303.137
303.132
303.127
303.123
303.118
303.113
303.109
303.104
303.1
303.095
303.091
303.086
303.082
303.078
303.073
303.069
303.065
303.06
303.056
303.052
303.049
303.045
303.042
303.038
303.035
303.031
303.028
303.025
303.022
303.018
303.015
303.012
303.009
303.006
303.003
303
302.998
302.995
302.992
302.989
302.986
302.984
302.981
302.979
302.976
302.974
302.973
302.972
303.15
303.15
303.15
303.15
303.15
303.149
303.149
303.149
303.148
303.148
303.148
303.147
303.147
303.146
303.146
303.145
303.145
303.144
303.143
303.143
303.142
303.141
303.14
303.139
303.138
303.137
303.135
303.134
303.133
303.131
303.13
303.129
303.128
303.126
303.125
303.124
303.123
303.121
303.12
303.119
303.118
303.117
303.116
303.115
303.113
303.112
303.111
303.111
303.11
303.108
303.15
303.15
303.15
303.15
303.15
303.15
303.15
303.15
303.15
303.15
303.15
303.15
303.15
303.15
303.15
303.15
303.15
303.15
303.15
303.15
303.149
303.149
303.149
303.149
303.149
303.149
303.148
303.148
303.148
303.148
303.147
303.147
303.147
303.146
303.146
303.146
303.145
303.145
303.144
303.144
303.144
303.143
303.143
303.143
303.142
303.142
303.141
303.141
303.141
303.14
303.15
303.15
303.15
303.15
303.15
303.15
303.15
303.15
303.15
303.15
303.15
303.15
303.15
303.15
303.15
303.15
303.15
303.15
303.15
303.15
303.15
303.15
303.15
303.15
303.15
303.15
303.15
303.15
303.15
303.15
303.15
303.15
303.15
303.15
303.149
303.149
303.149
303.149
303.149
303.149
303.149
303.149
303.149
303.149
303.149
303.149
303.149
303.149
303.148
303.148
303.15
303.15
303.15
303.15
303.15
303.15
303.15
303.15
303.15
303.15
303.15
303.15
303.15
303.15
303.15
303.15
303.15
303.15
303.15
303.15
303.15
303.15
303.15
303.15
303.15
303.15
303.15
303.15
303.15
303.15
303.15
303.15
303.15
303.15
303.15
303.15
303.15
303.15
303.15
303.15
303.15
303.15
303.15
303.15
303.15
303.15
303.15
303.15
303.15
303.15
303.15
303.15
303.15
303.15
303.15
303.15
303.15
303.15
303.15
303.15
303.15
303.15
303.15
303.15
303.15
303.15
303.15
303.15
303.15
303.15
303.15
303.15
303.15
303.15
303.15
303.15
303.15
303.15
303.15
303.15
303.15
303.15
303.15
303.15
303.15
303.15
303.15
303.15
303.15
303.15
303.15
303.15
303.15
303.15
303.15
303.15
303.15
303.15
303.15
303.15
303.15
303.15
303.15
303.15
303.15
303.15
303.15
303.15
303.15
303.15
303.15
303.15
303.15
303.15
303.15
303.15
303.15
303.15
303.15
303.15
303.15
303.15
303.15
303.15
303.15
303.15
303.15
303.15
303.15
303.15
303.15
303.15
303.15
303.15
303.15
303.15
303.15
303.15
303.15
303.15
303.15
303.15
303.15
303.15
303.15
303.15
303.15
303.15
303.15
303.15
303.15
303.15
303.15
303.15
303.15
303.15
303.15
303.15
303.15
303.15
303.15
303.15
303.15
303.15
303.15
303.15
303.15
303.15
303.15
303.15
303.15
303.15
303.15
303.15
303.15
303.15
303.15
303.15
303.15
303.15
303.15
303.15
303.15
303.15
303.15
303.15
303.15
303.15
303.15
303.15
303.15
303.15
303.15
303.15
303.15
303.15
303.15
303.15
303.15
303.15
303.15
303.15
303.15
303.15
303.15
303.15
303.15
303.15
303.15
303.15
303.15
303.15
303.15
303.15
303.15
303.15
303.15
303.15
303.15
303.15
303.15
303.15
303.15
303.15
303.15
303.15
303.15
303.15
303.15
303.15
303.15
303.15
303.15
303.15
303.15
303.15
303.15
303.15
303.15
303.15
303.15
303.15
303.15
303.15
303.15
303.15
303.15
303.15
303.15
303.15
303.15
303.15
303.15
303.15
303.15
303.15
303.15
303.15
303.15
303.15
303.15
303.15
303.15
303.15
303.15
303.15
303.15
303.15
303.15
303.15
303.15
303.15
303.15
303.15
303.15
303.15
303.15
303.15
303.15
303.15
303.15
303.15
303.15
303.15
303.15
303.15
303.15
303.15
303.15
303.15
303.15
303.15
303.15
303.15
303.15
303.15
303.15
303.15
303.15
303.15
303.15
303.15
303.15
303.15
303.15
303.15
303.15
303.15
303.15
303.15
303.15
303.15
303.15
303.15
303.15
303.15
303.15
303.15
303.15
303.15
303.15
303.15
303.15
303.15
303.15
303.15
303.15
303.15
303.15
303.15
303.15
303.15
303.15
303.15
303.15
303.15
303.15
303.15
303.15
303.15
303.15
303.15
303.15
303.15
303.15
303.15
303.15
303.15
303.15
303.15
303.15
303.15
303.15
303.15
303.15
303.15
303.15
303.15
303.15
303.15
303.15
303.15
303.15
303.15
303.15
303.15
303.15
303.15
303.15
303.15
303.15
303.15
303.15
303.15
303.15
303.15
303.15
303.15
303.15
303.15
303.15
303.15
303.15
303.15
303.15
303.15
303.15
303.15
303.15
303.15
303.15
303.15
303.15
303.15
303.15
303.15
303.15
303.15
303.15
303.15
303.15
303.15
303.15
303.15
303.15
303.15
303.15
303.15
303.15
303.15
303.15
303.15
303.15
303.15
303.15
303.15
303.15
303.15
303.15
303.15
303.15
303.15
303.15
303.15
303.15
303.15
303.15
303.15
303.15
303.15
303.15
303.15
303.15
303.15
303.15
303.15
303.15
303.15
303.15
303.15
303.15
303.15
303.15
303.15
303.15
303.15
303.15
303.15
303.15
303.15
303.15
303.15
303.15
303.15
303.15
303.15
303.15
303.15
303.15
303.15
303.15
303.15
303.15
303.15
303.15
303.15
303.15
303.15
303.15
303.15
303.15
303.15
303.15
303.15
303.15
303.15
303.15
303.15
303.15
303.15
303.15
303.15
303.15
303.15
303.15
303.15
303.15
303.15
303.15
303.15
303.15
303.15
303.15
303.15
303.15
303.15
303.15
303.15
303.15
303.15
303.15
303.15
303.15
303.15
303.15
303.15
303.15
303.15
303.15
303.15
303.15
303.15
303.15
303.15
303.15
303.15
303.15
303.15
303.15
303.15
303.15
303.15
303.15
303.15
303.15
303.15
303.15
303.15
303.15
303.15
303.15
303.15
303.15
303.15
303.15
303.15
303.15
303.15
303.15
303.15
303.15
303.15
303.15
303.15
303.15
303.15
303.15
303.15
303.15
303.15
303.15
303.15
303.15
303.15
303.15
303.15
303.15
303.15
303.15
303.15
303.15
303.15
303.15
303.15
303.15
303.15
303.15
303.15
303.15
303.15
303.15
303.15
303.15
303.15
303.15
303.15
303.15
303.15
303.15
303.15
303.15
303.15
303.15
303.15
303.15
303.15
303.15
303.15
303.15
303.15
303.15
303.15
303.15
303.15
303.15
303.15
303.15
303.15
303.15
303.149
303.15
303.15
303.15
303.15
303.15
303.15
303.15
303.15
303.15
303.15
303.15
303.15
303.15
303.15
303.15
303.15
303.15
303.15
303.15
303.15
303.15
303.15
303.15
303.15
303.15
303.15
303.15
303.15
303.15
303.15
303.15
303.15
303.15
303.15
303.149
303.149
303.149
303.149
303.149
303.149
303.149
303.149
303.149
303.148
303.148
303.148
303.148
303.148
303.147
303.147
303.15
303.15
303.15
303.15
303.15
303.15
303.15
303.15
303.15
303.15
303.15
303.15
303.15
303.15
303.15
303.15
303.15
303.15
303.15
303.15
303.149
303.149
303.149
303.149
303.149
303.149
303.148
303.148
303.148
303.148
303.147
303.147
303.146
303.146
303.146
303.145
303.145
303.144
303.144
303.144
303.143
303.143
303.142
303.141
303.141
303.14
303.139
303.138
303.137
303.136
303.15
303.15
303.15
303.15
303.15
303.149
303.149
303.149
303.149
303.148
303.148
303.147
303.147
303.146
303.146
303.145
303.145
303.144
303.144
303.143
303.142
303.141
303.14
303.139
303.138
303.137
303.136
303.134
303.133
303.132
303.13
303.129
303.127
303.126
303.125
303.123
303.122
303.121
303.119
303.118
303.116
303.115
303.113
303.111
303.11
303.108
303.106
303.104
303.102
303.1
303.147
303.142
303.137
303.132
303.127
303.123
303.118
303.113
303.109
303.104
303.1
303.095
303.091
303.086
303.082
303.077
303.073
303.069
303.065
303.06
303.056
303.053
303.049
303.045
303.041
303.038
303.034
303.031
303.027
303.024
303.021
303.018
303.015
303.012
303.009
303.006
303.003
303
302.997
302.994
302.991
302.988
302.985
302.982
302.979
302.977
302.974
302.971
302.968
302.965
302.817
302.604
302.082
301.267
300.236
299.104
297.998
297.016
296.209
295.588
295.134
294.819
294.615
294.497
294.448
294.424
294.423
294.478
294.643
294.957
302.828
302.619
302.085
301.246
300.182
299.018
297.888
296.893
296.084
295.47
295.027
294.725
294.532
294.427
294.382
294.362
294.37
294.437
294.632
294.989
302.839
302.634
302.091
301.23
300.135
298.94
297.787
296.779
295.969
295.36
294.927
294.636
294.455
294.36
294.321
294.308
294.324
294.404
294.619
295.003
302.848
302.65
302.101
301.22
300.096
298.872
297.696
296.675
295.862
295.258
294.835
294.554
294.383
294.297
294.264
294.257
294.282
294.374
294.611
295.017
302.858
302.668
302.114
301.216
300.065
298.813
297.614
296.58
295.765
295.165
294.75
294.479
294.317
294.239
294.21
294.209
294.241
294.346
294.603
295.028
302.867
302.685
302.129
301.217
300.042
298.763
297.541
296.494
295.675
295.079
294.672
294.41
294.257
294.186
294.159
294.162
294.203
294.319
294.596
295.036
302.875
302.703
302.147
301.223
300.026
298.72
297.477
296.417
295.593
295.001
294.601
294.348
294.204
294.138
294.113
294.119
294.166
294.294
294.589
295.041
302.883
302.721
302.168
301.233
300.016
298.686
297.42
296.346
295.518
294.929
294.537
294.292
294.156
294.095
294.071
294.079
294.132
294.272
294.584
295.042
302.891
302.74
302.19
301.248
300.012
298.657
297.369
296.281
295.449
294.862
294.477
294.242
294.113
294.057
294.033
294.042
294.101
294.252
294.58
295.041
302.898
302.758
302.213
301.266
300.013
298.635
297.324
296.222
295.384
294.8
294.422
294.196
294.075
294.023
293.999
294.009
294.072
294.235
294.578
295.037
302.905
302.776
302.237
301.286
300.018
298.617
297.284
296.166
295.322
294.74
294.37
294.153
294.04
293.993
293.968
293.978
294.046
294.219
294.576
295.031
302.911
302.793
302.262
301.309
300.026
298.602
297.247
296.112
295.262
294.682
294.321
294.113
294.009
293.965
293.94
293.95
294.022
294.207
294.575
295.021
302.916
302.81
302.287
301.333
300.036
298.59
297.212
296.061
295.204
294.627
294.273
294.076
293.98
293.939
293.914
293.925
294.001
294.196
294.574
295.008
302.921
302.826
302.312
301.358
300.048
298.581
297.179
296.011
295.147
294.572
294.228
294.042
293.954
293.916
293.891
293.902
293.983
294.188
294.574
294.993
302.926
302.841
302.336
301.382
300.061
298.572
297.147
295.962
295.091
294.52
294.185
294.01
293.932
293.896
293.87
293.882
293.967
294.182
294.573
294.975
302.93
302.856
302.359
301.407
300.075
298.565
297.118
295.916
295.038
294.469
294.145
293.983
293.912
293.879
293.852
293.864
293.953
294.177
294.572
294.956
302.934
302.869
302.38
301.43
300.089
298.56
297.091
295.872
294.987
294.423
294.11
293.96
293.897
293.863
293.836
293.848
293.942
294.174
294.57
294.934
302.938
302.881
302.401
301.453
300.104
298.557
297.066
295.831
294.94
294.38
294.079
293.941
293.886
293.848
293.822
293.835
293.933
294.173
294.569
294.912
302.941
302.891
302.419
301.475
300.12
298.556
297.046
295.796
294.899
294.343
294.053
293.927
293.879
293.833
293.81
293.824
293.926
294.174
294.567
294.888
302.944
302.901
302.436
301.497
300.136
298.559
297.031
295.767
294.864
294.313
294.033
293.917
293.875
293.82
293.799
293.814
293.922
294.178
294.566
294.864
302.946
302.909
302.452
301.517
300.154
298.566
297.023
295.746
294.838
294.289
294.019
293.912
293.872
293.812
293.79
293.808
293.921
294.184
294.565
294.84
302.949
302.916
302.466
301.537
300.174
298.578
297.022
295.734
294.82
294.275
294.012
293.91
293.867
293.81
293.783
293.803
293.924
294.193
294.565
294.816
302.951
302.922
302.478
301.556
300.196
298.595
297.031
295.732
294.814
294.269
294.011
293.913
293.862
293.813
293.777
293.801
293.931
294.206
294.566
294.793
302.953
302.927
302.49
301.576
300.22
298.62
297.05
295.744
294.82
294.274
294.019
293.921
293.863
293.813
293.771
293.802
293.942
294.223
294.567
294.771
302.955
302.933
302.503
301.6
300.253
298.654
297.08
295.766
294.835
294.287
294.031
293.933
293.871
293.809
293.768
293.808
293.959
294.243
294.569
294.749
302.957
302.939
302.52
301.631
300.296
298.702
297.123
295.799
294.859
294.305
294.047
293.947
293.885
293.805
293.774
293.823
293.985
294.265
294.568
294.728
302.958
302.947
302.541
301.67
300.351
298.764
297.181
295.846
294.893
294.329
294.066
293.965
293.901
293.819
293.793
293.85
294.017
294.288
294.565
294.707
302.96
302.956
302.566
301.718
300.419
298.842
297.255
295.907
294.938
294.36
294.088
293.985
293.923
293.851
293.825
293.888
294.055
294.311
294.56
294.687
302.961
302.966
302.595
301.775
300.502
298.938
297.349
295.985
294.995
294.398
294.114
294.008
293.953
293.896
293.871
293.934
294.095
294.331
294.553
294.669
302.963
302.977
302.628
301.841
300.601
299.055
297.464
296.082
295.067
294.446
294.145
294.034
293.989
293.946
293.925
293.985
294.135
294.348
294.545
294.651
302.963
302.989
302.667
301.919
300.717
299.195
297.605
296.203
295.157
294.505
294.182
294.064
294.026
293.998
293.982
294.037
294.173
294.361
294.536
294.635
302.964
303.002
302.709
302.006
300.853
299.362
297.775
296.352
295.27
294.58
294.227
294.095
294.062
294.048
294.039
294.086
294.206
294.372
294.526
294.621
302.964
303.015
302.755
302.105
301.008
299.557
297.98
296.535
295.411
294.675
294.284
294.131
294.095
294.091
294.092
294.131
294.235
294.38
294.517
294.608
302.963
303.029
302.804
302.213
301.184
299.785
298.224
296.758
295.587
294.795
294.355
294.171
294.126
294.128
294.137
294.17
294.259
294.385
294.508
294.597
302.961
303.042
302.854
302.329
301.38
300.046
298.512
297.029
295.807
294.949
294.448
294.221
294.157
294.159
294.175
294.202
294.279
294.388
294.499
294.588
302.959
303.055
302.905
302.45
301.593
300.341
298.848
297.355
296.08
295.147
294.571
294.287
294.191
294.184
294.205
294.229
294.295
294.39
294.492
294.58
302.956
303.066
302.954
302.573
301.82
300.668
299.237
297.746
296.419
295.402
294.736
294.378
294.235
294.209
294.226
294.252
294.308
294.393
294.487
294.573
302.951
303.075
302.999
302.694
302.053
301.023
299.677
298.208
296.838
295.731
294.96
294.507
294.299
294.24
294.247
294.272
294.321
294.396
294.484
294.568
302.946
303.082
303.038
302.806
302.284
301.394
300.165
298.747
297.35
296.156
295.266
294.696
294.397
294.286
294.273
294.293
294.334
294.401
294.483
294.565
302.939
303.086
303.07
302.905
302.502
301.768
300.687
299.36
297.969
296.7
295.685
294.975
294.554
294.361
294.309
294.318
294.35
294.409
294.485
294.563
302.931
303.088
303.095
302.987
302.696
302.125
301.223
300.033
298.695
297.385
296.253
295.387
294.81
294.493
294.369
294.35
294.371
294.421
294.49
294.563
302.923
303.088
303.112
303.049
302.855
302.444
301.74
300.736
299.514
298.219
297.003
295.983
295.222
294.733
294.483
294.4
294.398
294.438
294.499
294.565
302.914
303.086
303.122
303.092
302.975
302.704
302.201
301.42
300.383
299.184
297.952
296.815
295.866
295.161
294.718
294.506
294.444
294.461
294.511
294.568
302.904
303.083
303.127
303.119
303.056
302.896
302.573
302.026
301.23
300.218
299.073
297.904
296.815
295.891
295.196
294.763
294.554
294.493
294.527
294.572
302.895
303.079
303.128
303.134
303.105
303.022
302.839
302.502
301.965
301.212
300.269
299.2
298.087
297.017
296.078
295.355
294.893
294.638
294.55
294.578
302.885
303.074
303.128
303.14
303.131
303.093
303.004
302.825
302.515
302.037
301.377
300.545
299.576
298.524
297.465
296.501
295.746
295.228
294.786
294.586
302.876
303.069
303.126
303.143
303.142
303.128
303.091
303.011
302.86
302.609
302.229
301.701
301.019
300.188
299.233
298.225
297.294
296.594
296.094
294.66
302.866
303.063
303.124
303.143
303.147
303.143
303.129
303.099
303.038
302.929
302.753
302.488
302.115
301.616
300.974
300.188
299.321
298.532
297.947
296.943
302.857
303.058
303.121
303.143
303.148
303.148
303.144
303.134
303.113
303.074
303.006
302.9
302.741
302.517
302.212
301.811
301.318
300.804
300.455
300.496
302.849
303.053
303.118
303.142
303.148
303.149
303.148
303.145
303.139
303.126
303.104
303.067
303.01
302.927
302.812
302.659
302.467
302.246
302.016
301.874
302.841
303.047
303.116
303.141
303.148
303.149
303.149
303.149
303.146
303.142
303.134
303.121
303.1
303.07
303.027
302.972
302.901
302.815
302.708
302.593
302.833
303.043
303.113
303.14
303.148
303.149
303.15
303.149
303.149
303.147
303.143
303.137
303.127
303.11
303.086
303.053
303.007
302.945
302.857
302.739
302.826
303.038
303.11
303.139
303.147
303.149
303.15
303.15
303.149
303.149
303.147
303.143
303.136
303.124
303.105
303.076
303.031
302.966
302.875
302.749
302.82
303.034
303.108
303.138
303.147
303.149
303.15
303.15
303.15
303.149
303.148
303.146
303.141
303.132
303.116
303.089
303.047
302.981
302.887
302.753
302.814
303.03
303.106
303.137
303.147
303.149
303.15
303.15
303.15
303.15
303.149
303.147
303.144
303.137
303.124
303.1
303.059
302.994
302.897
302.756
302.809
303.027
303.104
303.136
303.146
303.149
303.15
303.15
303.15
303.15
303.149
303.148
303.146
303.14
303.129
303.107
303.069
303.004
302.905
302.759
302.805
303.024
303.102
303.135
303.146
303.149
303.15
303.15
303.15
303.15
303.15
303.149
303.147
303.142
303.133
303.113
303.077
303.012
302.912
302.761
302.801
303.021
303.1
303.135
303.146
303.149
303.15
303.15
303.15
303.15
303.15
303.149
303.148
303.144
303.136
303.118
303.083
303.02
302.917
302.764
302.798
303.019
303.099
303.134
303.146
303.149
303.15
303.15
303.15
303.15
303.15
303.149
303.148
303.145
303.138
303.122
303.088
303.026
302.922
302.766
302.795
303.017
303.097
303.133
303.145
303.149
303.15
303.15
303.15
303.15
303.15
303.15
303.149
303.146
303.14
303.125
303.093
303.031
302.927
302.768
302.793
303.015
303.096
303.133
303.145
303.149
303.15
303.15
303.15
303.15
303.15
303.15
303.149
303.147
303.141
303.127
303.097
303.036
302.93
302.77
302.792
303.014
303.095
303.132
303.145
303.149
303.15
303.15
303.15
303.15
303.15
303.15
303.149
303.147
303.142
303.129
303.1
303.039
302.934
302.771
302.791
303.013
303.095
303.132
303.145
303.149
303.15
303.15
303.15
303.15
303.15
303.15
303.149
303.147
303.143
303.131
303.102
303.042
302.936
302.773
302.79
303.012
303.094
303.132
303.145
303.149
303.15
303.15
303.15
303.15
303.15
303.15
303.149
303.148
303.143
303.132
303.104
303.045
302.939
302.774
302.789
303.012
303.094
303.132
303.145
303.149
303.15
303.15
303.15
303.15
303.15
303.15
303.149
303.148
303.144
303.133
303.106
303.047
302.941
302.776
302.789
303.012
303.094
303.132
303.145
303.149
303.15
303.15
303.15
303.15
303.15
303.15
303.149
303.148
303.144
303.134
303.107
303.049
302.943
302.777
302.79
303.012
303.094
303.132
303.145
303.149
303.15
303.15
303.15
303.15
303.15
303.15
303.149
303.148
303.145
303.134
303.108
303.051
302.945
302.779
302.79
303.012
303.094
303.132
303.145
303.149
303.15
303.15
303.15
303.15
303.15
303.15
303.15
303.148
303.145
303.135
303.109
303.053
302.947
302.78
302.791
303.012
303.094
303.132
303.145
303.149
303.15
303.15
303.15
303.15
303.15
303.15
303.15
303.148
303.145
303.135
303.11
303.054
302.949
302.781
302.792
303.013
303.094
303.132
303.145
303.149
303.15
303.15
303.15
303.15
303.15
303.15
303.15
303.148
303.145
303.136
303.111
303.056
302.95
302.782
302.793
303.013
303.094
303.132
303.145
303.149
303.15
303.15
303.15
303.15
303.15
303.15
303.15
303.149
303.145
303.136
303.112
303.057
302.952
302.784
302.795
303.014
303.094
303.132
303.145
303.149
303.15
303.15
303.15
303.15
303.15
303.15
303.15
303.149
303.145
303.136
303.113
303.058
302.954
302.785
302.796
303.014
303.095
303.132
303.145
303.149
303.15
303.15
303.15
303.15
303.15
303.15
303.15
303.149
303.146
303.137
303.113
303.06
302.955
302.786
302.797
303.015
303.095
303.132
303.145
303.149
303.15
303.15
303.15
303.15
303.15
303.15
303.15
303.149
303.146
303.137
303.114
303.061
302.956
302.787
302.799
303.016
303.095
303.132
303.145
303.149
303.15
303.15
303.15
303.15
303.15
303.15
303.15
303.149
303.146
303.137
303.114
303.061
302.957
302.788
302.8
303.017
303.096
303.132
303.145
303.149
303.15
303.15
303.15
303.15
303.15
303.15
303.15
303.149
303.146
303.137
303.115
303.062
302.958
302.789
302.802
303.017
303.096
303.133
303.145
303.149
303.15
303.15
303.15
303.15
303.15
303.15
303.15
303.149
303.146
303.137
303.115
303.063
302.959
302.79
302.804
303.018
303.097
303.133
303.145
303.149
303.15
303.15
303.15
303.15
303.15
303.15
303.15
303.149
303.146
303.138
303.115
303.063
302.96
302.791
302.805
303.019
303.097
303.133
303.145
303.149
303.15
303.15
303.15
303.15
303.15
303.15
303.15
303.149
303.146
303.138
303.116
303.064
302.962
302.792
302.807
303.02
303.098
303.133
303.145
303.149
303.15
303.15
303.15
303.15
303.15
303.15
303.15
303.149
303.146
303.138
303.116
303.065
302.963
302.794
302.809
303.021
303.098
303.133
303.146
303.149
303.15
303.15
303.15
303.15
303.15
303.15
303.15
303.149
303.146
303.138
303.116
303.066
302.964
302.795
302.81
303.022
303.099
303.134
303.146
303.149
303.15
303.15
303.15
303.15
303.15
303.15
303.15
303.149
303.146
303.138
303.117
303.066
302.965
302.797
302.812
303.023
303.099
303.134
303.146
303.149
303.15
303.15
303.15
303.15
303.15
303.15
303.15
303.149
303.146
303.139
303.117
303.067
302.966
302.798
302.814
303.024
303.1
303.134
303.146
303.149
303.15
303.15
303.15
303.15
303.15
303.15
303.15
303.149
303.146
303.139
303.118
303.068
302.967
302.8
302.816
303.025
303.1
303.134
303.146
303.149
303.15
303.15
303.15
303.15
303.15
303.15
303.15
303.149
303.147
303.139
303.118
303.069
302.968
302.801
302.817
303.026
303.101
303.135
303.146
303.149
303.15
303.15
303.15
303.15
303.15
303.15
303.15
303.149
303.147
303.139
303.119
303.069
302.969
302.803
302.819
303.027
303.102
303.135
303.146
303.149
303.15
303.15
303.15
303.15
303.15
303.15
303.15
303.149
303.147
303.139
303.119
303.07
302.971
302.804
302.821
303.028
303.102
303.135
303.146
303.149
303.15
303.15
303.15
303.15
303.15
303.15
303.15
303.149
303.147
303.14
303.119
303.071
302.972
302.806
302.823
303.029
303.103
303.135
303.146
303.149
303.15
303.15
303.15
303.15
303.15
303.15
303.15
303.149
303.147
303.14
303.12
303.072
302.973
302.808
302.825
303.03
303.103
303.135
303.146
303.149
303.15
303.15
303.15
303.15
303.15
303.15
303.15
303.149
303.147
303.14
303.12
303.072
302.974
302.81
302.827
303.031
303.104
303.136
303.146
303.149
303.15
303.15
303.15
303.15
303.15
303.15
303.15
303.149
303.147
303.14
303.121
303.073
302.975
302.812
302.828
303.032
303.104
303.136
303.146
303.149