/*--------------------------------*- C++ -*----------------------------------*\
  =========                 |
  \\      /  F ield         | OpenFOAM: The Open Source CFD Toolbox
   \\    /   O peration     | Website:  https://openfoam.org
    \\  /    A nd           | Version:  8
     \\/     M anipulation  |
\*---------------------------------------------------------------------------*/
FoamFile
{
    version     2.0;
    format      ascii;
    class       volScalarField;
    location    "500";
    object      epsilon;
}
// * * * * * * * * * * * * * * * * * * * * * * * * * * * * * * * * * * * * * //

dimensions      [0 2 -3 0 0 0 0];

internalField   nonuniform List<scalar> 
8400
(
0.145777
0.142569
0.139448
0.136419
0.133489
0.130667
0.127959
0.125372
0.122913
0.120586
0.118397
0.116346
0.114435
0.112664
0.11103
0.10953
0.108158
0.106908
0.105773
0.104744
0.103812
0.102967
0.102201
0.101504
0.100867
0.100284
0.099749
0.0992556
0.0987997
0.0983797
0.0979942
0.0976415
0.0973223
0.0970378
0.0967881
0.0965732
0.0963933
0.0962469
0.0961305
0.09604
0.095971
0.0959177
0.0958734
0.0958315
0.0957873
0.0957385
0.0956851
0.0956313
0.0955873
0.0955729
0.0230285
0.0231463
0.023266
0.0233872
0.0235098
0.0236337
0.0237586
0.0238847
0.0240119
0.0241403
0.02427
0.0244011
0.0245336
0.0246679
0.0248043
0.0249427
0.0250834
0.0252264
0.0253716
0.025519
0.0256688
0.0258208
0.025975
0.0261311
0.0262893
0.0264495
0.0266115
0.0267754
0.0269413
0.0271088
0.027278
0.0274489
0.0276212
0.0277947
0.0279691
0.0281446
0.0283211
0.0284981
0.0286757
0.028854
0.0290328
0.029212
0.0293918
0.029573
0.029756
0.0299408
0.0301269
0.0303145
0.030503
0.0306914
0.0246491
0.0246847
0.0247189
0.0247522
0.0247856
0.0248202
0.0248572
0.024898
0.024944
0.0249966
0.0250574
0.0251278
0.0252092
0.0253028
0.0254093
0.0255294
0.025663
0.0258102
0.0259708
0.0261444
0.0263301
0.0265265
0.0267324
0.0269468
0.0271682
0.0273958
0.0276289
0.0278664
0.0281077
0.0283528
0.0286013
0.0288524
0.0291066
0.0293638
0.0296241
0.0298872
0.0301527
0.0304203
0.0306891
0.0309581
0.0312266
0.0314941
0.0317596
0.0320224
0.0322821
0.0325385
0.0327923
0.0330442
0.0332939
0.0335421
0.0219627
0.0218899
0.0218162
0.0217431
0.0216725
0.0216067
0.0215477
0.0214981
0.0214601
0.0214361
0.0214284
0.0214391
0.0214699
0.0215223
0.0215971
0.0216951
0.0218166
0.0219617
0.0221295
0.0223192
0.0225296
0.0227594
0.0230068
0.0232701
0.0235475
0.0238375
0.0241387
0.0244498
0.0247702
0.0250997
0.0254384
0.0257871
0.0261462
0.026516
0.0268971
0.0272901
0.0276955
0.0281127
0.0285407
0.028978
0.0294226
0.0298715
0.0303218
0.0307706
0.0312151
0.0316532
0.032084
0.0325067
0.032923
0.033334
0.016948
0.0168609
0.0167753
0.0166925
0.0166139
0.0165412
0.0164762
0.0164208
0.0163766
0.0163455
0.0163286
0.0163274
0.0163429
0.0163761
0.0164277
0.0164984
0.0165882
0.0166972
0.0168253
0.0169721
0.0171369
0.0173192
0.0175179
0.0177319
0.0179601
0.0182015
0.0184555
0.0187214
0.0189995
0.0192903
0.0195944
0.0199129
0.0202475
0.0206
0.0209726
0.0213677
0.0217866
0.02223
0.0226981
0.0231905
0.0237056
0.0242402
0.0247905
0.0253525
0.0259219
0.0264946
0.0270662
0.0276338
0.0281965
0.0287557
0.0133325
0.0132987
0.0132665
0.0132363
0.0132087
0.0131844
0.0131641
0.0131484
0.0131381
0.0131334
0.0131348
0.0131427
0.0131578
0.0131805
0.0132109
0.0132495
0.0132966
0.0133521
0.0134163
0.0134893
0.0135712
0.0136617
0.0137605
0.0138672
0.013982
0.0141049
0.0142355
0.0143736
0.0145196
0.0146742
0.0148383
0.0150129
0.0152
0.0154014
0.0156195
0.0158565
0.0161147
0.0163967
0.0167047
0.0170403
0.0174042
0.0177962
0.0182156
0.0186607
0.0191283
0.0196144
0.0201145
0.0206247
0.021142
0.0216646
0.0120278
0.0120338
0.0120405
0.0120477
0.0120555
0.0120639
0.012073
0.0120827
0.0120929
0.0121033
0.0121143
0.012126
0.0121388
0.0121526
0.0121677
0.0121841
0.0122023
0.0122227
0.0122456
0.0122709
0.0122988
0.0123296
0.0123636
0.012401
0.0124413
0.0124845
0.0125304
0.0125793
0.0126311
0.0126855
0.0127429
0.0128036
0.012868
0.0129368
0.0130106
0.0130905
0.0131778
0.0132734
0.0133784
0.0134943
0.0136228
0.0137659
0.0139253
0.0141026
0.0142996
0.014517
0.0147548
0.0150122
0.0152886
0.0155811
0.0118992
0.0119101
0.0119237
0.0119389
0.0119546
0.0119703
0.0119855
0.0119999
0.012013
0.0120248
0.0120354
0.0120448
0.0120527
0.0120588
0.0120637
0.0120683
0.0120726
0.0120764
0.0120802
0.0120848
0.0120909
0.0120993
0.0121092
0.0121208
0.0121358
0.0121545
0.0121763
0.0122005
0.0122269
0.0122556
0.0122865
0.0123193
0.0123531
0.0123877
0.0124233
0.0124594
0.012495
0.0125291
0.0125606
0.0125881
0.01261
0.0126249
0.0126313
0.0126298
0.0126218
0.0126105
0.0126006
0.0125959
0.0126027
0.0126239
0.0121457
0.012124
0.0121209
0.0121253
0.012133
0.0121421
0.0121521
0.0121618
0.0121709
0.012179
0.012186
0.0121913
0.012194
0.0121949
0.0121941
0.0121911
0.012186
0.0121795
0.0121722
0.012165
0.0121574
0.0121496
0.0121428
0.0121387
0.0121384
0.012141
0.0121469
0.0121567
0.0121705
0.012188
0.0122095
0.0122353
0.0122653
0.0122998
0.0123385
0.0123812
0.0124278
0.0124781
0.0125316
0.0125864
0.0126397
0.0126869
0.0127241
0.012745
0.0127459
0.0127221
0.0126715
0.0125946
0.0124967
0.012383
0.0126075
0.0124996
0.0124536
0.0124284
0.0124103
0.0123988
0.0123948
0.0123939
0.0123922
0.0123903
0.0123889
0.0123898
0.0123884
0.0123823
0.0123744
0.0123686
0.0123643
0.0123566
0.0123445
0.0123283
0.0123153
0.0123039
0.0122893
0.0122739
0.012261
0.0122503
0.0122429
0.0122394
0.012238
0.0122382
0.0122428
0.012254
0.0122709
0.0122925
0.012319
0.0123504
0.0123879
0.0124336
0.0124884
0.0125523
0.0126241
0.0126996
0.0127781
0.0128557
0.0129275
0.0129876
0.0130311
0.0130531
0.0130512
0.0130146
0.0130518
0.0129235
0.0128321
0.0127675
0.0127154
0.0126785
0.0126559
0.0126384
0.0126198
0.0126043
0.0125948
0.0125848
0.0125716
0.012559
0.0125503
0.0125442
0.0125355
0.0125216
0.0125079
0.0124963
0.0124848
0.0124717
0.0124562
0.0124408
0.012427
0.0124145
0.0124032
0.0123926
0.0123825
0.012374
0.0123695
0.0123701
0.0123761
0.0123875
0.0124043
0.0124269
0.0124569
0.0124964
0.0125462
0.0126058
0.0126737
0.0127514
0.0128359
0.0129236
0.0130098
0.0130906
0.0131627
0.0132201
0.0132626
0.0132866
0.0131199
0.0130667
0.0130184
0.0129737
0.0129332
0.0128983
0.0128677
0.0128391
0.0128139
0.0127919
0.0127718
0.012753
0.0127362
0.0127216
0.0127073
0.0126927
0.0126784
0.0126657
0.0126532
0.0126401
0.0126268
0.0126132
0.0125995
0.0125857
0.0125721
0.0125588
0.0125462
0.0125345
0.0125241
0.0125161
0.0125112
0.0125103
0.0125137
0.0125218
0.0125358
0.0125573
0.0125872
0.0126264
0.012676
0.0127371
0.0128086
0.0128905
0.0129799
0.0130738
0.0131677
0.0132579
0.0133406
0.0134115
0.0134673
0.0135067
0.0131411
0.0131102
0.0130802
0.0130517
0.0130249
0.0129992
0.0129746
0.0129514
0.0129298
0.0129095
0.0128902
0.0128721
0.0128549
0.0128384
0.0128232
0.0128094
0.0127958
0.0127824
0.0127692
0.0127559
0.012743
0.0127305
0.0127183
0.0127064
0.0126948
0.0126834
0.0126728
0.0126638
0.0126569
0.0126524
0.0126506
0.0126523
0.0126587
0.0126712
0.0126912
0.0127198
0.0127584
0.0128083
0.0128703
0.0129446
0.0130305
0.0131267
0.0132304
0.0133384
0.0134465
0.0135501
0.0136445
0.013726
0.0137911
0.0138376
0.01315
0.0131288
0.013108
0.0130874
0.0130672
0.0130476
0.0130286
0.0130103
0.0129927
0.012976
0.01296
0.0129444
0.0129297
0.0129161
0.0129031
0.0128905
0.0128785
0.0128671
0.0128564
0.0128466
0.0128377
0.0128294
0.0128214
0.0128138
0.0128069
0.0128013
0.0127971
0.0127947
0.0127944
0.0127972
0.0128042
0.0128165
0.0128358
0.0128636
0.0129015
0.0129511
0.0130135
0.0130898
0.0131806
0.013285
0.0134016
0.0135275
0.0136595
0.0137936
0.0139252
0.0140497
0.0141609
0.0142548
0.0143273
0.0143763
0.0131549
0.0131387
0.0131226
0.0131065
0.0130907
0.0130753
0.0130602
0.0130455
0.0130315
0.0130179
0.0130044
0.0129919
0.0129801
0.0129693
0.0129598
0.0129519
0.0129458
0.0129418
0.01294
0.0129402
0.0129421
0.0129453
0.0129497
0.0129549
0.012961
0.0129682
0.0129771
0.0129886
0.0130039
0.0130245
0.0130523
0.0130892
0.0131374
0.0131989
0.0132756
0.0133691
0.0134805
0.0136097
0.0137552
0.0139141
0.0140829
0.0142576
0.0144342
0.0146084
0.0147748
0.0149281
0.0150612
0.0151682
0.0152447
0.0152892
0.013158
0.0131449
0.0131317
0.0131187
0.013106
0.0130933
0.013081
0.013069
0.0130575
0.0130469
0.0130376
0.0130302
0.0130261
0.0130262
0.0130314
0.0130428
0.0130609
0.0130859
0.013117
0.0131528
0.0131912
0.0132304
0.013269
0.0133063
0.0133423
0.0133778
0.0134145
0.0134547
0.0135014
0.0135578
0.0136275
0.0137139
0.0138204
0.0139503
0.0141057
0.0142873
0.0144937
0.0147209
0.0149631
0.015213
0.0154634
0.0157087
0.0159447
0.0161679
0.0163736
0.0165559
0.0167072
0.0168192
0.0168866
0.0169096
0.0131598
0.0131486
0.0131375
0.0131265
0.0131159
0.0131058
0.0130966
0.0130887
0.0130848
0.0130871
0.0130966
0.013119
0.0131588
0.0132195
0.0133039
0.0134128
0.0135448
0.0136953
0.0138573
0.0140219
0.0141797
0.014323
0.0144476
0.0145537
0.0146445
0.0147248
0.0148013
0.0148812
0.0149732
0.0150855
0.0152258
0.0154006
0.015616
0.0158767
0.0161848
0.0165377
0.0169277
0.0173412
0.0177593
0.0181618
0.0185319
0.0188633
0.0191557
0.019411
0.0196298
0.0198088
0.0199394
0.0200091
0.0200076
0.0200101
0.0131609
0.0131511
0.0131422
0.0131345
0.0131286
0.0131335
0.0131496
0.0131735
0.0132365
0.0133575
0.0135222
0.0137669
0.0141019
0.0145266
0.0150339
0.0156078
0.0162241
0.0168525
0.0174594
0.0180111
0.0184766
0.0188327
0.0190832
0.0192446
0.0193428
0.0194008
0.0194516
0.0195032
0.0195976
0.0197563
0.0199946
0.020318
0.0207461
0.0212847
0.0219406
0.0226989
0.0235246
0.0243642
0.0251505
0.0258136
0.0263013
0.0266425
0.0268622
0.0269923
0.0270541
0.0270585
0.0270047
0.0268475
0.0266537
0.026399
0.0131641
0.0131647
0.0131725
0.0131904
0.0132203
0.0134905
0.0139253
0.0143642
0.0152682
0.0166722
0.0182787
0.0202622
0.0225093
0.0249038
0.0273289
0.029671
0.0318287
0.0337159
0.0352629
0.0364134
0.0371184
0.0373269
0.0374962
0.0376519
0.0377911
0.0379133
0.0379973
0.0380747
0.0381248
0.038154
0.0381625
0.0381497
0.0389447
0.0402633
0.0420896
0.0441987
0.0463088
0.048147
0.0494481
0.0499277
0.0492198
0.048385
0.0474757
0.0465071
0.0454846
0.0444102
0.0432763
0.0421068
0.0397141
0.0366251
0.0136805
0.0140358
0.0144113
0.0147768
0.0150943
0.0338811
0.0663328
0.0929192
0.126339
0.14441
0.156501
0.160517
0.160245
0.157376
0.152959
0.147699
0.141942
0.135908
0.129773
0.123669
0.117695
0.11193
0.106434
0.102724
0.10145
0.102614
0.106075
0.111763
0.119444
0.128202
0.136065
0.140472
0.139788
0.137194
0.134045
0.130855
0.127703
0.124545
0.12133
0.118033
0.11465
0.111193
0.108891
0.107684
0.106917
0.10611
0.104937
0.103265
0.101053
0.0983679
1.14672
1.10476
1.06533
1.02841
0.993877
0.961371
0.930508
0.901108
0.873073
0.846332
0.820812
0.796444
0.773162
0.750906
0.729625
0.70927
0.689793
0.671152
0.653301
0.6362
0.619809
0.604089
0.589005
0.574525
0.560618
0.547256
0.534414
0.52207
0.510201
0.498786
0.487805
0.477236
0.467059
0.457255
0.447803
0.438689
0.429898
0.421417
0.413237
0.405316
0.397629
0.390161
0.382897
0.375817
0.368899
0.362114
0.35542
0.348756
0.342013
0.334987
1.1223
1.04723
0.978776
0.915872
0.858118
0.805178
0.756707
0.712245
0.671369
0.633707
0.598943
0.566797
0.537025
0.509411
0.483762
0.459903
0.437681
0.416954
0.397593
0.379485
0.362523
0.346614
0.331674
0.317627
0.304405
0.29195
0.280206
0.269123
0.258655
0.248758
0.23939
0.230511
0.222085
0.214077
0.206455
0.199191
0.192259
0.185637
0.179303
0.173262
0.167508
0.162026
0.156799
0.151812
0.147049
0.142496
0.138136
0.133954
0.12993
0.126044
1.12205
1.04639
0.977263
0.914058
0.856115
0.80293
0.754059
0.709091
0.667642
0.629369
0.593969
0.561177
0.530756
0.5025
0.47622
0.45175
0.428937
0.407643
0.387744
0.369124
0.351682
0.335324
0.319965
0.30553
0.291952
0.279168
0.267124
0.255769
0.245054
0.234935
0.225371
0.216322
0.207753
0.199631
0.191927
0.184613
0.177666
0.171064
0.164788
0.15882
0.153144
0.147745
0.142607
0.137716
0.133059
0.128622
0.124394
0.120363
0.116517
0.112844
1.12212
1.04698
0.978332
0.915566
0.858038
0.805192
0.756559
0.711733
0.670351
0.63209
0.59666
0.563808
0.533305
0.50495
0.47856
0.453973
0.431038
0.409621
0.389597
0.370854
0.35329
0.336812
0.321337
0.30679
0.293104
0.280218
0.268077
0.256629
0.245826
0.235624
0.225982
0.216861
0.208225
0.200039
0.192275
0.184905
0.177904
0.171252
0.164928
0.158916
0.153197
0.147757
0.142581
0.137654
0.132961
0.128491
0.124231
0.120168
0.116292
0.112591
1.12217
1.0471
0.978426
0.915545
0.857889
0.804933
0.756213
0.71132
0.66989
0.6316
0.59616
0.563312
0.532826
0.504497
0.47814
0.453589
0.430693
0.409315
0.389329
0.370623
0.353093
0.336647
0.321201
0.306682
0.293023
0.280162
0.268043
0.256616
0.245833
0.23565
0.226025
0.216919
0.208296
0.200123
0.192369
0.185008
0.178015
0.171368
0.16505
0.159041
0.153325
0.147887
0.142711
0.137783
0.133088
0.128613
0.124347
0.120276
0.116389
0.112675
1.12217
1.04717
0.978603
0.915821
0.858256
0.805391
0.756758
0.711944
0.670581
0.632344
0.596946
0.564129
0.533664
0.505347
0.478995
0.454443
0.43154
0.41015
0.390148
0.37142
0.353866
0.337394
0.321921
0.307374
0.293687
0.280798
0.268652
0.257199
0.246391
0.236183
0.226535
0.217406
0.20876
0.200565
0.192789
0.185405
0.178391
0.171724
0.165385
0.159356
0.153621
0.148162
0.142966
0.138017
0.133302
0.128806
0.124517
0.120422
0.116511
0.112772
1.12215
1.04716
0.978625
0.915867
0.858305
0.805424
0.756766
0.711921
0.670527
0.632261
0.596836
0.563997
0.533515
0.505186
0.478826
0.45427
0.431365
0.409975
0.389974
0.371248
0.353696
0.337227
0.321757
0.307214
0.293531
0.280647
0.268507
0.257061
0.24626
0.23606
0.226419
0.217297
0.208658
0.200469
0.192699
0.185321
0.178312
0.17165
0.165315
0.15929
0.153557
0.1481
0.142905
0.137955
0.133238
0.128739
0.124446
0.120346
0.116427
0.112679
1.12215
1.04715
0.97863
0.915896
0.858359
0.805499
0.75686
0.712035
0.670661
0.632415
0.59701
0.56419
0.533727
0.505416
0.479072
0.454529
0.431635
0.410251
0.390254
0.371529
0.353976
0.337502
0.322027
0.307477
0.293786
0.280894
0.268746
0.257291
0.246482
0.236273
0.226623
0.217492
0.208844
0.200645
0.192865
0.185478
0.178459
0.171787
0.165442
0.159405
0.153661
0.148193
0.142985
0.138022
0.133291
0.128777
0.124467
0.120349
0.116412
0.112646
1.12215
1.04716
0.978636
0.915908
0.858376
0.805518
0.756877
0.712047
0.670666
0.632413
0.597001
0.564175
0.533707
0.505391
0.479044
0.454497
0.431599
0.410212
0.39021
0.371481
0.353924
0.337446
0.321967
0.307413
0.293719
0.280825
0.268676
0.25722
0.24641
0.236201
0.226551
0.21742
0.208772
0.200573
0.192795
0.185409
0.178391
0.17172
0.165375
0.159338
0.153592
0.148122
0.142911
0.137944
0.133208
0.128687
0.12437
0.120244
0.116298
0.112521
1.12215
1.04716
0.978646
0.915919
0.858387
0.805531
0.756891
0.712062
0.670683
0.632434
0.597027
0.564207
0.533745
0.505437
0.479097
0.454557
0.431664
0.410281
0.390282
0.371554
0.353997
0.337518
0.322038
0.307483
0.293787
0.28089
0.268737
0.257278
0.246464
0.236251
0.226596
0.217462
0.20881
0.200608
0.192827
0.185438
0.178417
0.171742
0.165392
0.15935
0.153599
0.148121
0.142902
0.137927
0.13318
0.128648
0.124319
0.12018
0.11622
0.112429
1.12215
1.04717
0.978652
0.915924
0.85839
0.805531
0.756889
0.712059
0.67068
0.63243
0.597023
0.564205
0.533746
0.505441
0.479103
0.454565
0.431674
0.410291
0.390292
0.371564
0.354006
0.337527
0.322045
0.307488
0.29379
0.280891
0.268735
0.257272
0.246455
0.236238
0.226581
0.217444
0.20879
0.200587
0.192805
0.185414
0.178392
0.171716
0.165364
0.159319
0.153563
0.14808
0.142855
0.137871
0.133115
0.128574
0.124234
0.120083
0.116112
0.112308
1.12215
1.04717
0.978651
0.91592
0.858382
0.805519
0.756874
0.712039
0.670656
0.632402
0.596992
0.564171
0.533709
0.505402
0.479062
0.454521
0.431628
0.410243
0.390242
0.371513
0.353953
0.337472
0.321989
0.307431
0.293731
0.28083
0.268671
0.257206
0.246387
0.236169
0.22651
0.217372
0.208719
0.200517
0.192736
0.185348
0.178327
0.171651
0.1653
0.159254
0.153496
0.14801
0.142779
0.13779
0.133027
0.128478
0.124129
0.11997
0.115989
0.112175
1.12215
1.04717
0.978645
0.91591
0.858369
0.805504
0.756858
0.712025
0.670645
0.632397
0.596995
0.564183
0.533731
0.505433
0.479101
0.454568
0.431681
0.410302
0.390306
0.371581
0.354024
0.337545
0.322063
0.307503
0.2938
0.280895
0.268732
0.257262
0.246437
0.236214
0.226551
0.217409
0.208752
0.200546
0.192762
0.185371
0.178347
0.171667
0.165311
0.159259
0.153493
0.147998
0.142757
0.137757
0.132982
0.12842
0.124058
0.119885
0.11589
0.112062
1.12215
1.04716
0.97863
0.91588
0.858321
0.805436
0.756768
0.711913
0.67051
0.63224
0.596818
0.563988
0.53352
0.505207
0.478864
0.454322
0.431428
0.410045
0.390047
0.371322
0.353766
0.337289
0.321809
0.307251
0.293551
0.280648
0.268489
0.257022
0.246202
0.235984
0.226326
0.217191
0.208541
0.200344
0.192568
0.185185
0.178168
0.171495
0.165144
0.159096
0.153333
0.147839
0.142598
0.137596
0.132819
0.128255
0.123889
0.119711
0.11571
0.111876
1.12215
1.04715
0.97861
0.915852
0.858296
0.805423
0.756774
0.711943
0.670567
0.632324
0.596927
0.564119
0.53367
0.505372
0.47904
0.454505
0.431617
0.410236
0.390239
0.371512
0.353952
0.337469
0.32198
0.307413
0.293702
0.280788
0.268617
0.257138
0.246306
0.236077
0.226409
0.217264
0.208606
0.200401
0.192617
0.185226
0.178201
0.171519
0.165159
0.159101
0.153327
0.147821
0.142567
0.137551
0.132761
0.128181
0.123801
0.119608
0.115591
0.111741
1.12215
1.04711
0.978493
0.915639
0.857977
0.804998
0.756251
0.711333
0.669884
0.631583
0.596141
0.563302
0.532832
0.504523
0.478189
0.45366
0.430782
0.409417
0.389439
0.370733
0.353196
0.336736
0.321271
0.306728
0.293042
0.280151
0.268004
0.256548
0.245739
0.235532
0.225887
0.216764
0.208128
0.199944
0.192181
0.184809
0.177803
0.171138
0.164792
0.158747
0.152984
0.147488
0.142243
0.137235
0.13245
0.127875
0.123499
0.119309
0.115295
0.111447
1.12216
1.0471
0.978509
0.915728
0.858158
0.805271
0.756605
0.71175
0.670346
0.63207
0.596638
0.563794
0.533309
0.504977
0.478613
0.45405
0.431137
0.409736
0.38972
0.370976
0.353402
0.336907
0.321409
0.306834
0.293117
0.280198
0.268023
0.256543
0.245712
0.235485
0.225822
0.216684
0.208034
0.199838
0.192065
0.184684
0.177669
0.170996
0.164643
0.158591
0.152822
0.147321
0.142071
0.13706
0.132274
0.127701
0.123328
0.119144
0.115142
0.111312
1.12215
1.04657
0.977387
0.91409
0.8561
0.802904
0.754031
0.709055
0.667596
0.629319
0.593926
0.561149
0.530754
0.502526
0.476277
0.451836
0.429049
0.407774
0.387885
0.369266
0.351815
0.335441
0.320059
0.305598
0.29199
0.279177
0.267104
0.255723
0.244987
0.234853
0.225279
0.216229
0.207664
0.199551
0.191859
0.184558
0.177622
0.171027
0.164753
0.158781
0.153094
0.147677
0.142516
0.1376
0.132917
0.128458
0.124213
0.120179
0.116353
0.112743
1.12226
1.04692
0.97818
0.915255
0.857639
0.804849
0.756478
0.712072
0.671231
0.633601
0.598871
0.566764
0.537034
0.509464
0.483857
0.46004
0.437855
0.417158
0.397821
0.379727
0.362773
0.346866
0.331924
0.317872
0.304647
0.292191
0.280453
0.269384
0.258942
0.249085
0.239775
0.230973
0.222646
0.214761
0.207287
0.200197
0.193466
0.187073
0.180999
0.175229
0.16975
0.164551
0.159624
0.154962
0.150562
0.146423
0.142553
0.138967
0.135708
0.132865
1.14672
1.10487
1.06574
1.02906
0.994534
0.961891
0.930869
0.901351
0.873239
0.846447
0.820895
0.796512
0.773233
0.750995
0.72974
0.709412
0.68996
0.671332
0.653481
0.636365
0.619944
0.604183
0.589048
0.574511
0.560545
0.547125
0.53423
0.521833
0.509913
0.498444
0.487404
0.476768
0.466514
0.456619
0.447061
0.437823
0.428886
0.420236
0.411859
0.403741
0.395871
0.388236
0.380823
0.373622
0.366617
0.359796
0.353142
0.346638
0.340264
0.333995
0.338546
0.0468086
0.0339336
0.0511379
0.077435
0.101721
0.114653
0.112772
0.0994726
0.0816704
0.0650948
0.0518564
0.0407746
0.0293127
0.0210766
0.0148257
0.0118364
0.0138454
0.0398464
0.751181
0.331354
0.046483
0.0344116
0.0522279
0.0791185
0.103763
0.116696
0.11452
0.100809
0.0826483
0.06587
0.0526034
0.041655
0.0299292
0.0218118
0.0155391
0.0118876
0.0128605
0.0357181
0.727728
0.32421
0.0461257
0.0349001
0.0533616
0.0808738
0.105888
0.118806
0.1163
0.102138
0.0835881
0.0665961
0.0533073
0.0423987
0.0305846
0.0222312
0.01591
0.0119903
0.0125182
0.0342147
0.722452
0.317179
0.0457359
0.0353992
0.0545411
0.0827048
0.108099
0.120984
0.118109
0.10345
0.0844805
0.0672649
0.0539671
0.04317
0.0312653
0.022654
0.0162763
0.0121137
0.0122175
0.0328232
0.717975
0.310222
0.0453172
0.0359093
0.055769
0.0846162
0.110401
0.123232
0.119943
0.104738
0.0853116
0.067861
0.0545665
0.0439156
0.0319591
0.0230809
0.0166362
0.0122546
0.0119555
0.031536
0.714183
0.303345
0.0448693
0.036431
0.0570477
0.0866123
0.112797
0.125551
0.121796
0.105988
0.0860661
0.068368
0.0550885
0.0446372
0.0326692
0.0235153
0.0169906
0.0124111
0.0117295
0.0303446
0.710976
0.296551
0.0443906
0.0369644
0.0583795
0.0886969
0.115291
0.127939
0.12366
0.107187
0.0867266
0.0687683
0.0555178
0.0452754
0.0333774
0.0239575
0.0173394
0.0125812
0.0115367
0.0292438
0.708335
0.289844
0.0438794
0.0375099
0.0597666
0.0908739
0.117886
0.130394
0.125528
0.10832
0.0872744
0.0690429
0.055841
0.045784
0.0340656
0.0244068
0.0176829
0.0127627
0.0113749
0.0282294
0.706269
0.283224
0.0433345
0.0380678
0.0612108
0.0931465
0.120584
0.132914
0.127388
0.109369
0.0876871
0.0691698
0.0560388
0.0462263
0.0347339
0.0248628
0.0180213
0.0129537
0.0112413
0.0272964
0.704779
0.276693
0.0427552
0.0386384
0.062714
0.0955177
0.123386
0.135496
0.129228
0.110315
0.0879411
0.0691243
0.056088
0.04658
0.0353786
0.0253248
0.0183552
0.0131524
0.0111336
0.0264395
0.703851
0.270251
0.0421412
0.0392222
0.0642778
0.09799
0.126293
0.138132
0.131035
0.111135
0.0880102
0.0688804
0.055966
0.0468214
0.035985
0.02579
0.018685
0.0133574
0.0110494
0.0256532
0.703468
0.263899
0.0414935
0.0398199
0.0659036
0.100566
0.129306
0.140818
0.132793
0.111806
0.0878658
0.0684092
0.0556449
0.0469312
0.0365326
0.0262536
0.0190108
0.0135672
0.0109864
0.024932
0.703607
0.257639
0.0408138
0.0404323
0.0675928
0.103246
0.132422
0.143545
0.134482
0.112299
0.0874769
0.0676804
0.0550967
0.0468764
0.0369994
0.0267092
0.0193325
0.0137807
0.0109426
0.0242711
0.704248
0.251474
0.0401046
0.0410604
0.0693459
0.106032
0.13564
0.146302
0.136083
0.112587
0.0868122
0.0666635
0.0542929
0.0466289
0.0373651
0.0271494
0.0196494
0.0139965
0.010916
0.0236657
0.705372
0.245406
0.0393689
0.0417047
0.0711624
0.108921
0.138952
0.149075
0.137572
0.112638
0.0858397
0.0653285
0.0532065
0.0461697
0.037614
0.0275662
0.0199606
0.0142134
0.0109047
0.0231119
0.706966
0.239438
0.03861
0.0423655
0.0730403
0.11191
0.142352
0.151848
0.138923
0.112423
0.0845283
0.0636474
0.0518107
0.0454813
0.0377321
0.0279506
0.0202641
0.0144301
0.010907
0.0226059
0.709018
0.233573
0.0378317
0.0430426
0.0749759
0.11499
0.145825
0.154601
0.140111
0.11191
0.0828501
0.0615966
0.0500804
0.0445438
0.0377045
0.0282924
0.0205574
0.014645
0.0109208
0.0221447
0.711521
0.227811
0.0370387
0.0437352
0.0769635
0.118153
0.149357
0.157314
0.141107
0.111072
0.0807826
0.0591595
0.047996
0.043335
0.0375136
0.0285796
0.0208365
0.014856
0.0109445
0.0217251
0.714472
0.222152
0.0362363
0.0444418
0.0789953
0.121383
0.15293
0.159961
0.141885
0.109884
0.0783117
0.0563314
0.0455475
0.0418339
0.0371403
0.0287989
0.0210967
0.0150611
0.0109759
0.0213445
0.717872
0.216598
0.0354309
0.0451602
0.0810614
0.124666
0.156522
0.162519
0.142422
0.108332
0.0754359
0.0531227
0.0427403
0.0400289
0.0365673
0.0289366
0.0213324
0.0152578
0.0110132
0.0210006
0.721728
0.21115
0.0346297
0.0458875
0.08315
0.127982
0.160109
0.164964
0.142699
0.106409
0.072169
0.0495638
0.0395986
0.0379241
0.0357845
0.0289801
0.0215378
0.0154435
0.0110544
0.0206913
0.726056
0.205808
0.0338403
0.0466199
0.0852463
0.131306
0.163662
0.16727
0.142703
0.104122
0.0685436
0.045707
0.0361694
0.035543
0.0347921
0.0289198
0.0217071
0.0156157
0.0110976
0.0204148
0.730875
0.200575
0.03307
0.0473521
0.0873332
0.13461
0.167152
0.169415
0.142429
0.101495
0.064613
0.0416294
0.0325237
0.032928
0.0336021
0.0287503
0.0218353
0.015772
0.0111411
0.0201697
0.736213
0.195452
0.0323261
0.0480775
0.0893906
0.137865
0.170546
0.17138
0.141883
0.0985663
0.0604523
0.0374312
0.0287577
0.0301393
0.0322385
0.0284714
0.0219181
0.01591
0.0111832
0.0199546
0.742104
0.190442
0.0316152
0.0487883
0.0913963
0.141036
0.173811
0.173149
0.141083
0.0953952
0.056157
0.0332323
0.0249912
0.0272533
0.030736
0.0280884
0.021953
0.0160277
0.0112219
0.0197681
0.74858
0.185545
0.0309437
0.0494755
0.0933263
0.144088
0.176915
0.174713
0.140061
0.0920576
0.0518391
0.0291645
0.0213612
0.0243608
0.0291387
0.0276119
0.0219385
0.0161233
0.0112558
0.0196092
0.755679
0.18076
0.030317
0.0501293
0.0951556
0.146983
0.179827
0.176071
0.138859
0.0886442
0.0476199
0.0253585
0.0180096
0.0215608
0.0274979
0.0270571
0.0218754
0.0161952
0.0112833
0.0194767
0.763435
0.17609
0.0297399
0.0507393
0.0968595
0.149686
0.182519
0.177228
0.137534
0.0852556
0.0436205
0.0219298
0.0150646
0.0189517
0.0258683
0.0264431
0.0217658
0.0162426
0.011303
0.0193696
0.771886
0.171534
0.0292159
0.0512951
0.0984139
0.152164
0.184968
0.178196
0.136147
0.0819947
0.0399507
0.018964
0.0126195
0.0166192
0.0243037
0.0257914
0.0216136
0.0162653
0.011314
0.019287
0.781064
0.167093
0.0287472
0.0517865
0.0997967
0.154387
0.187156
0.178995
0.134766
0.078959
0.036699
0.0165081
0.0107161
0.0146233
0.0228518
0.0251237
0.0214241
0.0162637
0.0113153
0.019228
0.791003
0.162768
0.0283345
0.0522042
0.100988
0.156329
0.18907
0.179647
0.133454
0.0762327
0.0339254
0.0145677
0.00933908
0.0129903
0.0215502
0.0244604
0.021203
0.0162388
0.0113068
0.0191922
0.801728
0.158559
0.0279773
0.0525397
0.101972
0.15797
0.190703
0.180176
0.132269
0.0738806
0.0316589
0.0131133
0.0084258
0.0117131
0.0204248
0.023819
0.0209567
0.0161922
0.0112882
0.0191788
0.813258
0.154465
0.0276736
0.0527865
0.102737
0.159295
0.192051
0.180605
0.13126
0.0719446
0.0298987
0.0120913
0.00788673
0.0107586
0.0194899
0.0232127
0.0206909
0.016126
0.01126
0.0191873
0.825597
0.150486
0.0274205
0.0529397
0.103275
0.160297
0.193118
0.180956
0.130459
0.0704425
0.0286204
0.0114375
0.00762923
0.0100751
0.0187476
0.0226489
0.0204114
0.0160428
0.0112229
0.0192169
0.838734
0.146621
0.0272143
0.0529966
0.103583
0.160975
0.193911
0.181248
0.129885
0.0693701
0.0277822
0.0110874
0.00757623
0.00960028
0.0181741
0.0221274
0.020123
0.0159457
0.0111779
0.0192668
0.852637
0.142868
0.0270506
0.0529568
0.103664
0.161334
0.194439
0.181493
0.129541
0.0687036
0.0273311
0.0109812
0.00767228
0.0092465
0.017719
0.0216414
0.0198298
0.0158377
0.0111264
0.0193359
0.867267
0.139226
0.026925
0.0528216
0.103521
0.161382
0.194714
0.181699
0.129419
0.0684038
0.0272055
0.0110641
0.00787964
0.0089002
0.0173628
0.0211836
0.019535
0.0157218
0.0110697
0.0194235
0.882578
0.135694
0.0268204
0.0525721
0.10314
0.161155
0.194822
0.181969
0.129559
0.0683866
0.0272151
0.0111866
0.00808585
0.00874176
0.0170317
0.0207503
0.0192406
0.0156001
0.0110089
0.0195289
0.898536
0.13233
0.0266843
0.0521906
0.102527
0.160685
0.194817
0.182323
0.129904
0.0685504
0.0273122
0.0113325
0.00830705
0.00877654
0.0167112
0.0203293
0.0189481
0.0154744
0.0109448
0.0196516
0.915123
0.129141
0.0265093
0.0516853
0.101695
0.159978
0.194694
0.182739
0.130421
0.0688668
0.0274803
0.0114956
0.00854238
0.0089499
0.0164092
0.0199072
0.0186603
0.0153458
0.0108781
0.0198842
0.932001
0.126113
0.0262989
0.0510656
0.100655
0.159044
0.194449
0.1832
0.131088
0.0693214
0.0277135
0.0116746
0.00878798
0.00922117
0.0161217
0.0194837
0.018372
0.0152145
0.0108135
0.0202497
0.949088
0.123236
0.0260568
0.0503409
0.09942
0.157888
0.194078
0.183696
0.131898
0.069911
0.0280128
0.0118701
0.00903972
0.00955442
0.0158462
0.0190608
0.0180824
0.0150798
0.0107593
0.0207382
0.966409
0.120499
0.0257868
0.049521
0.098002
0.156517
0.193578
0.184222
0.132848
0.0706404
0.0283829
0.0120829
0.00929311
0.00991801
0.0155809
0.0186405
0.0177926
0.0149421
0.0107166
0.0213516
0.983994
0.117895
0.0254927
0.0486153
0.0964127
0.154937
0.192947
0.184774
0.133945
0.0715197
0.028831
0.0123144
0.00954321
0.0102854
0.0153248
0.0182244
0.0175037
0.0148019
0.0106863
0.0220954
1.00188
0.115417
0.0251783
0.0476329
0.0946631
0.153152
0.192183
0.185354
0.135197
0.0725632
0.0293663
0.012566
0.00978522
0.0106359
0.0150773
0.0178147
0.0172164
0.0146595
0.0106697
0.0229782
1.02009
0.113058
0.0248472
0.0465827
0.0927637
0.151168
0.191284
0.185963
0.136619
0.0737891
0.0300003
0.0128401
0.0100149
0.0109546
0.0148382
0.0174129
0.0169316
0.0145155
0.0106683
0.0240116
1.03867
0.110813
0.0245028
0.045473
0.0907244
0.148988
0.190249
0.186605
0.138226
0.0752192
0.0307475
0.0131403
0.010229
0.0112313
0.0146074
0.0170208
0.0166499
0.0143701
0.010684
0.0252106
1.05764
0.108678
0.0241484
0.0443115
0.0885545
0.146614
0.189074
0.187284
0.140037
0.0768793
0.0316252
0.0134717
0.0104251
0.0114598
0.0143852
0.01664
0.0163717
0.0142238
0.0107195
0.026593
1.07704
0.10665
0.0237869
0.0431059
0.086263
0.144051
0.187755
0.188
0.142072
0.0787988
0.0326546
0.0138412
0.0106024
0.0116378
0.0141716
0.0162717
0.0160974
0.0140772
0.0107776
0.0281792
1.09692
0.104725
0.0234214
0.0418634
0.0838586
0.141298
0.186286
0.188756
0.144351
0.081011
0.0338611
0.014258
0.010762
0.0117666
0.0139668
0.0159173
0.0158274
0.013931
0.0108622
0.0299932
1.11729
0.102902
0.0230545
0.0405909
0.0813497
0.138358
0.18466
0.189551
0.146896
0.0835531
0.0352747
0.0147344
0.0109065
0.0118505
0.0137712
0.0155777
0.0155621
0.0137862
0.0109778
0.0320622
1.13821
0.101179
0.0226891
0.039295
0.0787445
0.135229
0.182865
0.190379
0.149728
0.0864662
0.0369315
0.0152862
0.011041
0.0118966
0.0135849
0.0152538
0.0153018
0.013644
0.0111299
0.0344179
1.1597
0.0995565
0.0223275
0.037982
0.0760506
0.131912
0.180888
0.191232
0.152866
0.0897966
0.0388744
0.0159336
0.0111722
0.0119136
0.0134082
0.014946
0.015047
0.0135061
0.0113255
0.0370979
1.18179
0.0980345
0.0219722
0.0366575
0.0732747
0.128401
0.178711
0.192096
0.156328
0.0935956
0.041155
0.0167023
0.0113084
0.0119095
0.013241
0.0146544
0.014798
0.0133747
0.0115734
0.0401473
1.20451
0.096614
0.0216253
0.0353266
0.0704227
0.124693
0.17631
0.192951
0.160132
0.0979208
0.0438358
0.0176255
0.0114597
0.0118905
0.0130831
0.0143789
0.0145551
0.0132524
0.011885
0.0436223
1.2279
0.095297
0.0212887
0.0339939
0.0674996
0.120779
0.173655
0.193767
0.164287
0.102837
0.0469933