/*--------------------------------*- C++ -*----------------------------------*\
  =========                 |
  \\      /  F ield         | OpenFOAM: The Open Source CFD Toolbox
   \\    /   O peration     | Website:  https://openfoam.org
    \\  /    A nd           | Version:  8
     \\/     M anipulation  |
\*---------------------------------------------------------------------------*/
FoamFile
{
    version     2.0;
    format      ascii;
    class       volScalarField;
    location    "500";
    object      k;
}
// * * * * * * * * * * * * * * * * * * * * * * * * * * * * * * * * * * * * * //

dimensions      [0 2 -2 0 0 0 0];

internalField   nonuniform List<scalar> 
8400
(
0.0151046
0.0148848
0.0146699
0.0144603
0.0142569
0.0140603
0.0138713
0.0136905
0.0135185
0.0133558
0.0132028
0.0130596
0.0129264
0.0128032
0.0126898
0.0125859
0.012491
0.0124048
0.0123264
0.0122552
0.0121906
0.0121317
0.0120777
0.0120281
0.0119821
0.0119392
0.0118991
0.0118613
0.0118256
0.0117921
0.0117607
0.0117314
0.0117043
0.0116799
0.011658
0.011639
0.0116227
0.0116092
0.0115982
0.0115894
0.0115826
0.0115773
0.0115729
0.0115689
0.0115649
0.0115607
0.0115562
0.0115517
0.011548
0.0115467
0.00438994
0.00440492
0.00442007
0.00443537
0.0044508
0.00446635
0.00448202
0.00449781
0.00451376
0.00452988
0.00454618
0.00456268
0.00457941
0.00459642
0.0046137
0.00463129
0.00464917
0.00466734
0.0046858
0.00470455
0.00472358
0.00474285
0.00476235
0.00478209
0.00480204
0.0048222
0.00484259
0.00486318
0.00488396
0.00490492
0.00492607
0.00494738
0.00496883
0.00499039
0.00501207
0.00503382
0.0050556
0.0050774
0.0050992
0.005121
0.00514277
0.00516451
0.00518621
0.00520792
0.00522966
0.00525143
0.00527321
0.00529496
0.00531665
0.00533809
0.00454633
0.00454978
0.00455315
0.00455654
0.00456011
0.00456402
0.00456846
0.00457362
0.0045797
0.00458689
0.00459537
0.00460529
0.00461679
0.00462997
0.00464489
0.00466152
0.00467986
0.00469985
0.00472139
0.00474434
0.00476854
0.0047938
0.00481999
0.00484689
0.00487442
0.00490243
0.0049308
0.00495946
0.00498842
0.00501766
0.00504715
0.00507689
0.00510695
0.00513739
0.00516819
0.00519936
0.0052309
0.00526273
0.00529474
0.00532685
0.00535896
0.00539094
0.00542268
0.00545411
0.00548515
0.00551574
0.00554589
0.00557566
0.00560506
0.00563408
0.00415996
0.00415004
0.00414023
0.00413079
0.00412199
0.00411413
0.00410755
0.00410257
0.00409948
0.00409859
0.00410013
0.00410432
0.00411135
0.00412132
0.00413425
0.00415017
0.00416906
0.00419078
0.00421513
0.00424194
0.004271
0.00430201
0.00433473
0.0043689
0.00440424
0.00444056
0.00447771
0.00451561
0.00455419
0.00459349
0.00463357
0.0046746
0.00471667
0.00475986
0.00480437
0.00485032
0.00489775
0.00494662
0.00499689
0.00504838
0.00510082
0.00515384
0.00520711
0.00526026
0.00531294
0.00536491
0.00541602
0.0054662
0.00551548
0.00556404
0.00348601
0.00347443
0.00346326
0.0034527
0.00344297
0.00343432
0.003427
0.00342127
0.00341734
0.00341541
0.00341564
0.00341818
0.00342316
0.00343065
0.00344068
0.00345329
0.00346843
0.00348603
0.00350603
0.00352831
0.00355266
0.00357897
0.003607
0.00363653
0.00366746
0.00369961
0.00373283
0.00376709
0.00380243
0.00383891
0.0038767
0.00391598
0.00395697
0.00400003
0.00404546
0.00409353
0.00414446
0.00419841
0.00425542
0.00431541
0.00437816
0.00444333
0.00451048
0.00457912
0.00464864
0.00471853
0.00478829
0.00485751
0.00492606
0.004994
0.00299373
0.00298944
0.00298546
0.00298185
0.0029787
0.0029761
0.00297416
0.00297296
0.00297255
0.00297301
0.00297441
0.00297681
0.00298025
0.0029848
0.00299045
0.00299724
0.00300523
0.00301441
0.00302475
0.00303624
0.00304887
0.00306253
0.00307722
0.00309283
0.00310929
0.00312657
0.00314466
0.00316354
0.00318321
0.00320378
0.00322539
0.00324824
0.00327259
0.00329871
0.00332685
0.00335739
0.00339068
0.00342704
0.00346672
0.00350994
0.00355684
0.00360742
0.00366156
0.00371903
0.00377938
0.00384214
0.00390682
0.00397279
0.00403963
0.00410711
0.00281887
0.00282003
0.00282127
0.00282259
0.00282398
0.00282544
0.00282696
0.00282851
0.00283013
0.00283179
0.00283352
0.00283535
0.00283732
0.00283941
0.00284172
0.0028443
0.00284713
0.00285023
0.00285374
0.00285761
0.0028619
0.00286664
0.00287179
0.00287735
0.00288335
0.00288972
0.00289636
0.00290334
0.00291067
0.0029183
0.00292624
0.00293459
0.0029434
0.00295274
0.00296275
0.00297355
0.00298525
0.00299796
0.00301185
0.00302713
0.00304401
0.00306274
0.00308356
0.0031068
0.00313262
0.00316122
0.00319275
0.00322721
0.00326445
0.00330409
0.00280684
0.00280835
0.00281033
0.00281251
0.00281474
0.00281693
0.00281899
0.00282089
0.0028226
0.00282411
0.00282537
0.00282637
0.00282717
0.00282783
0.00282828
0.0028286
0.0028289
0.00282927
0.00282966
0.00283023
0.00283109
0.00283224
0.00283371
0.00283565
0.00283804
0.00284083
0.00284408
0.00284774
0.00285167
0.00285586
0.00286033
0.00286508
0.00287005
0.0028752
0.00288051
0.00288592
0.00289131
0.00289659
0.00290156
0.00290596
0.00290953
0.00291198
0.00291303
0.00291271
0.00291107
0.00290854
0.00290571
0.00290327
0.00290217
0.00290298
0.00284686
0.00284299
0.00284213
0.00284249
0.00284336
0.00284452
0.00284579
0.00284701
0.00284811
0.00284899
0.00284965
0.0028501
0.00285012
0.00284977
0.00284914
0.00284833
0.00284722
0.00284584
0.00284445
0.0028431
0.00284179
0.00284059
0.00283971
0.00283925
0.00283918
0.00283952
0.0028404
0.00284193
0.00284407
0.00284669
0.00284981
0.00285345
0.00285771
0.0028626
0.00286806
0.0028741
0.00288076
0.00288804
0.00289583
0.00290385
0.00291188
0.00291946
0.00292574
0.00293032
0.00293227
0.00293066
0.00292507
0.00291538
0.00290196
0.00288549
0.0029188
0.0029014
0.00289339
0.00288858
0.00288561
0.00288387
0.00288279
0.00288203
0.00288164
0.0028814
0.00288124
0.00288061
0.00287977
0.00287885
0.00287797
0.00287656
0.00287524
0.00287356
0.00287171
0.0028695
0.00286691
0.00286468
0.00286257
0.00286056
0.00285882
0.00285735
0.0028563
0.00285577
0.00285583
0.00285644
0.00285743
0.0028589
0.00286119
0.0028642
0.0028677
0.00287197
0.00287732
0.00288357
0.0028909
0.00289945
0.00290905
0.00291943
0.00293021
0.00294156
0.0029528
0.00296239
0.00296969
0.0029747
0.0029763
0.00297405
0.0029839
0.00296631
0.00295231
0.00294166
0.0029335
0.00292731
0.00292267
0.00291923
0.00291659
0.00291416
0.00291224
0.00291049
0.00290888
0.0029072
0.00290553
0.00290387
0.00290211
0.00290037
0.00289827
0.00289607
0.00289399
0.00289183
0.00288947
0.00288709
0.0028849
0.00288293
0.00288114
0.0028797
0.00287875
0.00287802
0.00287757
0.00287779
0.00287876
0.00288039
0.00288272
0.00288593
0.00289017
0.0028955
0.00290208
0.00291
0.00291933
0.00292983
0.00294125
0.00295346
0.00296584
0.00297779
0.00298837
0.00299747
0.0030046
0.00300932
0.00299261
0.00298477
0.0029775
0.00297085
0.0029648
0.00295938
0.00295447
0.00295009
0.00294621
0.00294276
0.00293972
0.00293696
0.00293431
0.00293191
0.00292956
0.00292734
0.00292518
0.00292303
0.00292097
0.00291884
0.00291664
0.00291441
0.00291219
0.00291008
0.00290806
0.00290607
0.00290421
0.00290258
0.00290119
0.00290015
0.00289958
0.00289958
0.00290013
0.00290135
0.00290345
0.00290656
0.00291075
0.00291616
0.00292297
0.00293129
0.00294106
0.00295214
0.00296428
0.00297723
0.00299041
0.00300326
0.00301527
0.00302595
0.00303468
0.00304125
0.00299557
0.00299098
0.00298649
0.00298216
0.00297802
0.0029741
0.00297038
0.00296693
0.00296361
0.00296056
0.0029577
0.00295495
0.0029523
0.0029498
0.00294746
0.00294521
0.00294306
0.00294094
0.00293885
0.00293685
0.00293486
0.00293288
0.00293094
0.00292904
0.0029272
0.00292551
0.00292398
0.00292267
0.00292169
0.00292113
0.00292105
0.00292151
0.00292268
0.00292471
0.00292781
0.00293207
0.00293765
0.00294474
0.00295347
0.00296378
0.00297563
0.0029888
0.00300297
0.00301777
0.00303273
0.00304723
0.00306066
0.00307244
0.00308219
0.00308948
0.00299689
0.00299367
0.00299049
0.00298738
0.00298437
0.00298142
0.00297857
0.00297578
0.00297311
0.00297058
0.00296814
0.00296578
0.00296358
0.00296149
0.00295951
0.00295762
0.00295581
0.00295411
0.00295249
0.00295095
0.0029495
0.00294816
0.00294691
0.00294574
0.00294467
0.00294379
0.00294319
0.00294294
0.00294311
0.0029438
0.00294516
0.00294737
0.00295065
0.00295519
0.00296116
0.00296876
0.00297811
0.0029893
0.00300233
0.00301702
0.00303321
0.00305054
0.00306862
0.00308694
0.00310495
0.00312198
0.00313738
0.00315045
0.00316075
0.00316799
0.0029976
0.00299514
0.0029927
0.00299028
0.00298791
0.00298558
0.0029833
0.00298108
0.00297897
0.00297692
0.00297494
0.00297308
0.00297135
0.0029698
0.00296848
0.00296744
0.00296665
0.00296613
0.00296589
0.0029659
0.00296611
0.00296647
0.00296697
0.00296763
0.00296847
0.00296957
0.00297104
0.00297303
0.00297575
0.00297942
0.00298428
0.00299062
0.00299872
0.00300883
0.00302113
0.00303578
0.00305278
0.00307196
0.00309306
0.00311561
0.00313916
0.00316319
0.00318717
0.00321054
0.00323267
0.00325283
0.00327025
0.00328414
0.00329402
0.00329973
0.00299806
0.00299607
0.00299409
0.00299213
0.0029902
0.00298828
0.00298642
0.00298463
0.00298294
0.00298145
0.00298025
0.00297946
0.00297926
0.00297981
0.00298124
0.00298363
0.00298698
0.00299118
0.002996
0.00300117
0.00300644
0.00301165
0.0030167
0.00302164
0.0030266
0.00303181
0.00303756
0.00304425
0.00305232
0.0030622
0.00307437
0.00308929
0.00310735
0.00312885
0.00315391
0.0031824
0.00321391
0.00324766
0.00328272
0.00331798
0.00335256
0.00338577
0.00341706
0.00344596
0.0034719
0.00349414
0.00351174
0.00352382
0.0035299
0.00353143
0.00299835
0.00299665
0.00299498
0.00299332
0.00299173
0.00299028
0.00298916
0.00298849
0.00298848
0.00298978
0.00299293
0.00299845
0.00300699
0.00301897
0.00303444
0.00305312
0.00307429
0.00309693
0.00311976
0.00314155
0.00316125
0.00317843
0.00319324
0.00320618
0.00321788
0.0032292
0.00324115
0.00325486
0.00327141
0.0032918
0.00331689
0.00334753
0.00338437
0.00342769
0.00347721
0.00353199
0.00359037
0.00365013
0.00370859
0.00376313
0.0038122
0.00385527
0.00389226
0.00392327
0.00394825
0.00396664
0.00397724
0.00397841
0.00397083
0.0039649
0.00299853
0.00299731
0.00299625
0.00299567
0.00299579
0.00299786
0.00300407
0.00301449
0.00302974
0.0030546
0.00309048
0.00313807
0.00319784
0.00326846
0.00334728
0.00343078
0.00351479
0.00359489
0.00366684
0.00372692
0.00377272
0.00380533
0.0038273
0.00384194
0.0038521
0.00386052
0.00387089
0.00388652
0.00391052
0.00394484
0.00399032
0.00404908
0.00412184
0.00420945
0.00430992
0.00441928
0.00453174
0.00464014
0.00473659
0.00481373
0.00487077
0.00491089
0.00493689
0.00495125
0.00495568
0.0049508
0.00493624
0.00490483
0.00486768
0.00481957
0.00300077
0.00301281
0.00302364
0.00304282
0.00307217
0.00313046
0.00323761
0.00337664
0.00353723
0.00374768
0.00399374
0.00426405
0.00454352
0.00481876
0.00507853
0.00531381
0.00551705
0.005682
0.00580366
0.00587773
0.00590528
0.00593161
0.00595542
0.00597692
0.00599628
0.00601363
0.00602846
0.00604116
0.00605163
0.00605989
0.00608078
0.00617498
0.00632186
0.00652035
0.0067448
0.00696854
0.00716883
0.00732503
0.007415
0.00740911
0.00733705
0.00725962
0.00717373
0.0070772
0.00696557
0.00683145
0.00665546
0.00639433
0.00615379
0.00573074
0.00458897
0.00526785
0.00609835
0.00726429
0.00890591
0.0110892
0.0130011
0.0144243
0.015493
0.0159704
0.0161421
0.0160602
0.0158345
0.0155193
0.0151489
0.0147456
0.0143231
0.0138916
0.013459
0.0130314
0.0126139
0.0122224
0.0119777
0.0119265
0.0120623
0.0123718
0.0128438
0.0134477
0.014099
0.0146484
0.0149249
0.0148669
0.0146739
0.0144425
0.0142038
0.0139641
0.0137209
0.0134711
0.0132129
0.0129458
0.01267
0.0124453
0.0123244
0.0122705
0.0122376
0.0121874
0.0120918
0.0119408
0.0117306
0.0115002
0.0589325
0.0574728
0.0560808
0.0547901
0.0535712
0.0524022
0.0512732
0.0501849
0.0491372
0.0481282
0.0471552
0.0462161
0.0453094
0.0444341
0.0435893
0.0427737
0.0419864
0.0412261
0.0404917
0.0397819
0.0390956
0.0384317
0.0377893
0.0371674
0.0365653
0.0359823
0.0354176
0.0348706
0.0343406
0.0338271
0.0333293
0.0328466
0.0323783
0.0319238
0.0314825
0.0310541
0.0306384
0.0302349
0.0298434
0.0294624
0.0290905
0.0287269
0.0283707
0.0280208
0.0276761
0.0273351
0.0269957
0.0266551
0.0263079
0.0259441
0.0581004
0.0555157
0.0530581
0.0507444
0.0485842
0.0465684
0.0446844
0.042918
0.0412587
0.0396985
0.0382299
0.0368463
0.0355414
0.0343097
0.0331459
0.0320453
0.0310034
0.0300159
0.0290789
0.0281886
0.0273417
0.0265354
0.025767
0.0250342
0.0243347
0.0236666
0.0230281
0.0224174
0.0218329
0.0212729
0.0207359
0.0202202
0.0197245
0.0192476
0.0187883
0.0183456
0.0179186
0.0175062
0.0171076
0.016723
0.0163524
0.0159951
0.0156503
0.0153171
0.0149947
0.0146825
0.0143797
0.0140859
0.0138003
0.0135219
0.0580707
0.0554433
0.0529851
0.0506753
0.0485084
0.0464779
0.0445735
0.0427842
0.0410998
0.0395121
0.038014
0.0365992
0.035262
0.0339971
0.0327996
0.0316649
0.0305889
0.0295675
0.0285968
0.0276736
0.0267945
0.0259568
0.0251579
0.0243955
0.0236674
0.0229718
0.0223067
0.0216706
0.0210616
0.0204783
0.0199192
0.0193827
0.0188675
0.0183727
0.0178973
0.0174402
0.0170007
0.016578
0.0161712
0.0157798
0.0154029
0.0150399
0.01469
0.0143525
0.0140267
0.0137123
0.0134088
0.0131158
0.0128332
0.0125606
0.0580833
0.0554575
0.0530138
0.0507265
0.0485804
0.046565
0.0446709
0.0428886
0.041209
0.0396242
0.0381273
0.0367124
0.035374
0.034107
0.0329067
0.0317687
0.0306889
0.0296632
0.0286881
0.0277602
0.0268763
0.0260337
0.0252299
0.0244626
0.0237298
0.0230295
0.0223599
0.0217193
0.0211061
0.0205186
0.0199554
0.019415
0.0188962
0.0183978
0.0179189
0.0174585
0.0170158
0.0165899
0.0161801
0.0157858
0.0154061
0.0150403
0.0146877
0.0143476
0.0140194
0.0137026
0.0133967
0.0131015
0.0128166
0.0125418
0.0580913
0.0554672
0.0530164
0.0507237
0.0485741
0.0465554
0.0446577
0.042872
0.0411898
0.0396033
0.0381057
0.0366907
0.0353528
0.0340867
0.0328877
0.0317511
0.0306729
0.0296489
0.0286753
0.0277489
0.0268665
0.0260253
0.0252229
0.0244569
0.0237253
0.0230263
0.022358
0.0217186
0.0211065
0.0205201
0.0199579
0.0194184
0.0189005
0.0184029
0.0179246
0.0174648
0.0170226
0.0165972
0.0161878
0.0157938
0.0154144
0.0150488
0.0146963
0.0143562
0.0140279
0.0137109
0.0134048
0.0131091
0.0128236
0.012548
0.0580908
0.0554736
0.053025
0.050734
0.0485874
0.0465727
0.0446791
0.042897
0.0412178
0.0396341
0.0381389
0.0367261
0.0353899
0.0341253
0.0329274
0.0317916
0.0307137
0.0296898
0.028716
0.0277891
0.026906
0.0260639
0.0252606
0.0244936
0.0237611
0.0230611
0.0223918
0.0217514
0.0211383
0.020551
0.0199878
0.0194474
0.0189284
0.0184298
0.0179505
0.0174896
0.0170463
0.0166199
0.0162094
0.0158143
0.0154338
0.015067
0.0147134
0.0143721
0.0140426
0.0137242
0.0134167
0.0131196
0.0128325
0.0125553
0.0580883
0.0554737
0.0530271
0.0507363
0.048589
0.0465734
0.0446788
0.0428954
0.041215
0.0396301
0.0381339
0.0367202
0.0353835
0.0341184
0.0329201
0.0317841
0.0307061
0.0296819
0.028708
0.0277809
0.0268976
0.0260554
0.025252
0.024485
0.0237526
0.0230527
0.0223836
0.0217435
0.0211308
0.0205438
0.0199809
0.0194408
0.0189222
0.0184238
0.0179448
0.0174842
0.0170411
0.0166148
0.0162045
0.0158095
0.0154291
0.0150624
0.0147087
0.0143673
0.0140377
0.0137192
0.0134114
0.0131139
0.0128264
0.0125485
0.0580874
0.0554724
0.0530272
0.0507375
0.0485908
0.0465757
0.0446816
0.0428991
0.0412196
0.0396358
0.0381409
0.0367285
0.035393
0.0341291
0.032932
0.0317969
0.0307195
0.0296959
0.0287223
0.0277953
0.026912
0.0260697
0.0252661
0.0244989
0.0237662
0.023066
0.0223967
0.0217563
0.0211433
0.020556
0.0199927
0.0194523
0.0189332
0.0184344
0.0179549
0.0174938
0.0170502
0.0166233
0.0162124
0.0158168
0.0154356
0.0150682
0.0147137
0.0143715
0.0140409
0.0137214
0.0134126
0.013114
0.0128253
0.0125462
0.0580878
0.0554721
0.0530271
0.0507377
0.0485911
0.0465759
0.0446815
0.0428987
0.0412191
0.0396352
0.0381402
0.0367278
0.0353923
0.0341284
0.0329312
0.0317961
0.0307185
0.0296946
0.0287207
0.0277933
0.0269096
0.0260669
0.0252629
0.0244953
0.0237623
0.023062
0.0223925
0.021752
0.0211389
0.0205515
0.0199882
0.0194477
0.0189286
0.0184299
0.0179503
0.0174892
0.0170456
0.0166186
0.0162077
0.0158119
0.0154306
0.0150629
0.0147081
0.0143656
0.0140346
0.0137147
0.0134054
0.0131062
0.0128169
0.0125371
0.0580883
0.0554726
0.0530273
0.0507379
0.0485913
0.0465759
0.0446815
0.0428987
0.0412193
0.0396358
0.0381412
0.0367293
0.0353943
0.034131
0.0329343
0.0317995
0.0307223
0.0296986
0.0287247
0.0277973
0.0269135
0.0260707
0.0252665
0.0244988
0.0237656
0.0230651
0.0223955
0.0217549
0.0211416
0.020554
0.0199906
0.0194499
0.0189307
0.0184318
0.0179521
0.0174908
0.0170469
0.0166198
0.0162085
0.0158124
0.0154306
0.0150624
0.014707
0.0143638
0.0140322
0.0137116
0.0134014
0.0131014
0.0128112
0.0125304
0.0580885
0.0554731
0.0530277
0.050738
0.0485912
0.0465756
0.0446811
0.0428983
0.0412189
0.0396354
0.038141
0.0367293
0.0353947
0.0341316
0.0329352
0.0318006
0.0307234
0.0296997
0.0287257
0.0277981
0.0269141
0.026071
0.0252666
0.0244987
0.0237654
0.0230647
0.0223949
0.0217541
0.0211406
0.0205529
0.0199894
0.0194486
0.0189293
0.0184303
0.0179505
0.0174891
0.0170452
0.0166179
0.0162064
0.0158099
0.0154278
0.0150591
0.0147032
0.0143595
0.0140272
0.0137059
0.013395
0.0130943
0.0128033
0.0125216
0.0580884
0.0554734
0.053028
0.0507381
0.048591
0.0465752
0.0446804
0.0428974
0.0412178
0.0396342
0.0381397
0.036728
0.0353934
0.0341304
0.0329339
0.0317992
0.0307219
0.0296979
0.0287236
0.0277958
0.0269114
0.026068
0.0252633
0.0244952
0.0237617
0.0230608
0.0223908
0.0217498
0.0211363
0.0205485
0.0199849
0.0194441
0.0189248
0.0184258
0.0179461
0.0174848
0.0170409
0.0166135
0.0162019
0.0158053
0.0154229
0.0150539
0.0146976
0.0143533
0.0140205
0.0136987
0.0133873
0.0130859
0.0127943
0.0125119
0.0580885
0.0554736
0.0530283
0.0507382
0.0485908
0.0465748
0.0446798
0.0428968
0.0412174
0.039634
0.0381399
0.0367288
0.0353947
0.0341322
0.0329363
0.031802
0.030725
0.0297012
0.0287271
0.0277992
0.0269149
0.0260715
0.0252668
0.0244986
0.0237649
0.0230639
0.0223936
0.0217525
0.0211387
0.0205508
0.019987
0.0194461
0.0189266
0.0184275
0.0179477
0.0174862
0.017042
0.0166143
0.0162024
0.0158052
0.0154222
0.0150526
0.0146955
0.0143505
0.0140169
0.0136941
0.0133819
0.0130796
0.012787
0.0125036
0.0580886
0.0554739
0.0530283
0.0507376
0.0485895
0.0465725
0.0446765
0.0428923
0.0412118
0.0396275
0.0381325
0.0367205
0.0353857
0.0341225
0.0329259
0.031791
0.0307134
0.0296891
0.0287145
0.0277863
0.0269017
0.0260581
0.0252532
0.0244848
0.023751
0.0230499
0.0223796
0.0217386
0.0211249
0.0205371
0.0199736
0.0194329
0.0189138
0.018415
0.0179356
0.0174744
0.0170305
0.016603
0.0161912
0.0157942
0.0154111
0.0150413
0.0146841
0.0143388
0.014005
0.013682
0.0133694
0.0130668
0.0127737
0.0124899
0.0580887
0.0554741
0.0530282
0.0507372
0.048589
0.0465724
0.044677
0.0428937
0.0412143
0.0396311
0.0381373
0.0367265
0.0353927
0.0341303
0.0329344
0.0318
0.0307227
0.0296986
0.0287241
0.0277958
0.026911
0.0260672
0.0252619
0.024493
0.0237587
0.0230571
0.0223863
0.0217447
0.0211306
0.0205423
0.0199783
0.0194371
0.0189176
0.0184184
0.0179385
0.0174769
0.0170325
0.0166044
0.0161919
0.0157942
0.0154103
0.0150396
0.0146814
0.0143352
0.0140003
0.0136763
0.0133627
0.013059
0.0127648
0.0124798
0.0580889
0.0554732
0.0530246
0.05073
0.0485775
0.0465564
0.0446566
0.0428694
0.0411865
0.0396003
0.038104
0.0366912
0.0353559
0.0340924
0.0328957
0.0317608
0.0306833
0.0296592
0.0286848
0.0277569
0.0268725
0.0260292
0.0252244
0.0244563
0.0237227
0.0230219
0.022352
0.0217112
0.0210979
0.0205105
0.0199474
0.0194072
0.0188886
0.0183904
0.0179114
0.0174506
0.017007
0.0165796
0.0161678
0.0157705
0.015387
0.0150166
0.0146587
0.0143127
0.013978
0.0136541
0.0133406
0.013037
0.0127429
0.0124578
0.0580891
0.0554733
0.0530257
0.0507338
0.0485848
0.0465673
0.0446709
0.0428864
0.0412056
0.0396209
0.0381254
0.0367128
0.0353773
0.0341132
0.0329154
0.0317792
0.0307003
0.0296746
0.0286986
0.0277689
0.0268828
0.0260377
0.0252314
0.0244616
0.0237265
0.0230242
0.0223529
0.0217108
0.0210962
0.0205077
0.0199435
0.0194023
0.0188828
0.0183838
0.0179041
0.0174426
0.0169983
0.0165703
0.0161578
0.0157599
0.0153758
0.0150049
0.0146466
0.0143002
0.0139653
0.0136414
0.013328
0.0130248
0.0127314
0.0124477
0.0580892
0.0554548
0.0529857
0.0506738
0.0485076
0.0464764
0.0445699
0.0427783
0.0410931
0.039506
0.03801
0.0365982
0.0352644
0.034003
0.0328084
0.031676
0.0306011
0.0295798
0.0286083
0.0276833
0.0268021
0.0259619
0.0251604
0.0243957
0.0236655
0.0229681
0.0223016
0.0216644
0.0210547
0.0204709
0.0199115
0.0193751
0.0188604
0.0183662
0.0178913
0.0174347
0.0169954
0.0165725
0.0161652
0.0157726
0.0153942
0.0150292
0.0146773
0.0143379
0.0140106
0.0136954
0.0133919
0.0131002
0.0128208
0.0125544
0.0580929
0.0554673
0.0530146
0.0507171
0.0485659
0.0465517
0.0446666
0.0429001
0.0412426
0.0396856
0.0382213
0.0368427
0.035543
0.0343162
0.0331566
0.0320593
0.0310195
0.0300329
0.0290956
0.0282043
0.027356
0.026548
0.025778
0.0250439
0.0243436
0.0236754
0.0230375
0.0224282
0.021846
0.0212892
0.0207563
0.0202459
0.0197569
0.0192881
0.0188383
0.0184067
0.0179922
0.0175943
0.0172121
0.0168451
0.0164928
0.0161549
0.0158312
0.0155216
0.0152263
0.0149458
0.0146809
0.0144335
0.0142069
0.014008
0.0589339
0.0574932
0.0561285
0.0548333
0.0535997
0.0524195
0.0512853
0.0501943
0.0491441
0.048133
0.0471589
0.0462202
0.0453151
0.0444418
0.0435989
0.0427848
0.0419981
0.0412374
0.0405016
0.0397897
0.0391008
0.0384341
0.0377888
0.0371642
0.0365596
0.0359743
0.0354076
0.0348586
0.0343265
0.0338104
0.0333098
0.0328237
0.0323516
0.0318927
0.0314463
0.0310118
0.0305887
0.0301765
0.0297746
0.0293824
0.0289995
0.0286256
0.0282601
0.0279026
0.0275526
0.0272096
0.0268731
0.0265423
0.0262162
0.0258936
0.0261442
0.00708138
0.00574529
0.00753469
0.00989361
0.0118217
0.0127727
0.0126251
0.0116248
0.010216
0.00880502
0.00757928
0.00646995
0.00513052
0.00403723
0.0031684
0.00280349
0.00324635
0.00669743
0.0455388
0.0257711
0.00704746
0.00579871
0.00764191
0.0100379
0.0119813
0.0129258
0.0127562
0.0117287
0.0102971
0.0088751
0.00765379
0.00662272
0.00522646
0.00414659
0.00327202
0.00279615
0.00307507
0.00622246
0.0445634
0.0253992
0.00700936
0.00585274
0.00775236
0.0101869
0.0121459
0.0130825
0.0128884
0.0118307
0.0103734
0.00893827
0.00771647
0.00657183
0.00529789
0.00420907
0.00332764
0.002806
0.00301169
0.00604052
0.0443205
0.0250293
0.00696764
0.00590748
0.00786628
0.0103411
0.0123159
0.0132431
0.0130218
0.0119307
0.0104455
0.00899787
0.00778625
0.00669233
0.00537779
0.00427136
0.00338296
0.00281998
0.00295477
0.00586845
0.044105
0.024661
0.00692245
0.00596292
0.00798377
0.0105006
0.0124913
0.0134074
0.0131556
0.012027
0.0105104
0.00904751
0.00784194
0.00678153
0.0054631
0.00433409
0.00343779
0.00283757
0.00290403
0.00570585
0.0439128
0.0242945
0.00687363
0.00601904
0.00810489
0.0106656
0.0126724
0.0135755
0.0132898
0.0121197
0.0105683
0.00908886
0.00788992
0.00685652
0.00555105
0.00439768
0.00349215
0.00285842
0.00285917
0.00555215
0.0437404
0.0239298
0.006821
0.00607584
0.00822974
0.0108361
0.012859
0.013747
0.0134232
0.0122071
0.0106172
0.00911969
0.00792918
0.00693843
0.00564092
0.00446229
0.003546
0.00288213
0.00281993
0.00540718
0.0435878
0.0235671
0.00676444
0.00613332
0.00835839
0.0110124
0.0130514
0.0139217
0.0135554
0.0122878
0.0106552
0.00913755
0.0079562
0.00699891
0.00572762
0.00452762
0.00359927
0.00290827
0.00278603
0.00527091
0.0434563
0.0232063
0.00670387
0.00619152
0.00849093
0.0111945
0.0132494
0.0140993
0.0136853
0.0123605
0.0106804
0.0091404
0.00796876
0.00704091
0.00580765
0.00459313
0.00365188
0.00293647
0.00275717
0.00514319
0.0433466
0.0228477
0.00663928
0.00625049
0.00862741
0.0113825
0.013453
0.0142792
0.013812
0.0124235
0.0106907
0.009126
0.0079648
0.00706915
0.00588071
0.00465839
0.0037038
0.00296637
0.00273303
0.00502382
0.0432591
0.0224914
0.0065707
0.00631028
0.00876789
0.0115764
0.013662
0.0144609
0.0139344
0.0124753
0.010684
0.00909202
0.00794218
0.00708245
0.00594693
0.00472307
0.00375503
0.00299766
0.00271328
0.00491254
0.0431939
0.0221376
0.00649822
0.00637096
0.00891234
0.0117762
0.0138761
0.0146439
0.0140514
0.0125139
0.0106581
0.00903606
0.00789903
0.00708102
0.00600569
0.00478671
0.00380554
0.00303005
0.00269758
0.00480903
0.0431509
0.0217865
0.00642195
0.00643257
0.00906069
0.0119816
0.0140951
0.0148273
0.0141615
0.0125374
0.0106105
0.00895537
0.00783306
0.00706472
0.00605548
0.00484858
0.00385525
0.00306325
0.00268561
0.00471294
0.0431297
0.0214384
0.00634206
0.00649514
0.00921276
0.0121924
0.0143183
0.0150103
0.0142633
0.0125437
0.0105383
0.00884684
0.00774094
0.00703055
0.00609402
0.0049077
0.00390398
0.003097
0.002677
0.00462392
0.04313
0.0210932
0.00625879
0.00655864
0.00936824
0.0124081
0.0145451
0.0151916
0.014355
0.0125303
0.0104388
0.0087073
0.007619
0.00697357
0.00611862
0.00496284
0.00395148
0.00313102
0.00267142
0.00454161
0.0431513
0.0207512
0.00617244
0.006623
0.00952669
0.0126279
0.0147744
0.0153701
0.0144351
0.0124951
0.0103092
0.00853375
0.0074638
0.00688946
0.00612676
0.0050127
0.00399743
0.00316506
0.00266855
0.00446569
0.0431936
0.0204125
0.00608344
0.00668813
0.00968757
0.0128511
0.0150054
0.0155445
0.0145016
0.0124359
0.0101471
0.00832347
0.0072724
0.00677565
0.00611654
0.00505594
0.00404144
0.00319885
0.00266807
0.00439586
0.0432569
0.020077
0.00599236
0.00675388
0.00985019
0.0130766
0.0152367
0.0157132
0.014553
0.0123506
0.00995036
0.00807437
0.00704244
0.00663087
0.00608655
0.00509126
0.00408302
0.00323211
0.00266965
0.00433186
0.0433415
0.0197449
0.00589988
0.00682008
0.0100138
0.0133033
0.015467
0.0158748
0.0145876
0.0122378
0.00971758
0.00778525
0.00677239
0.00645418
0.00603555
0.00511733
0.00412158
0.00326452
0.00267295
0.00427342
0.0434474
0.0194163
0.00580678
0.00688646
0.0101774
0.01353
0.0156948
0.0160278
0.0146041
0.0120963
0.00944824
0.00745613
0.00646166
0.0062445
0.00596225
0.0051328
0.00415643
0.00329568
0.00267758
0.00422027
0.043575
0.0190916
0.00571387
0.0069527
0.0103399
0.0137548
0.0159183
0.0161708
0.0146015
0.011926
0.00914307
0.00708857
0.00611103
0.0060012
0.00586565
0.0051364
0.00418678
0.00332516
0.00268318
0.00417213
0.0437246
0.0187708
0.00562197
0.00701831
0.0105
0.0139762
0.0161358
0.0163022
0.0145794
0.0117276
0.00880432
0.0066862
0.00572329
0.00572496
0.00574553
0.00512716
0.00421189
0.00335254
0.00268935
0.00412878
0.0438967
0.0184542
0.00553187
0.0070827
0.0106563
0.014192
0.0163453
0.0164209
0.0145379
0.0115031
0.00843609
0.00625509
0.00530398
0.00541868
0.00560292
0.00510458
0.00423108
0.00337741
0.00269575
0.00408998
0.0440921
0.018142
0.00544441
0.00714518
0.010807
0.0144002
0.0165449
0.0165263
0.0144781
0.011256
0.00804446
0.00580393
0.00486188
0.00508788
0.00544023
0.00506878
0.00424389
0.00339942
0.00270205
0.00405557
0.0443117
0.0178341
0.00536039
0.00720496
0.0109506
0.0145986
0.0167329
0.0166178
0.0144018
0.010991
0.00763748
0.00534396
0.00440908
0.00474048
0.00526124
0.00502056
0.00425007
0.00341829
0.00270794
0.00402537
0.0445567
0.0175308
0.0052806
0.00726122
0.0110854
0.0147852
0.0169077
0.0166954
0.0143117
0.0107144
0.00722495
0.00488837
0.0039607
0.00438633
0.00507077
0.00496133
0.00424959
0.0034338
0.00271317
0.00399925
0.0448283
0.0172322
0.00520574
0.00731308
0.0112096
0.0149579
0.0170677
0.0167596
0.0142112
0.0104332
0.00681787
0.00445143
0.00353393
0.00403669
0.00487441
0.00489296
0.00424264
0.0034458
0.00271747
0.00397706
0.0451272
0.0169385
0.00513636
0.00735963
0.0113217
0.0151147
0.0172118
0.0168111
0.0141045
0.0101556
0.00642769
0.00404706
0.00314633
0.00370326
0.0046781
0.00481767
0.00422958
0.0034542
0.00272063
0.00395862
0.0454545
0.0166496
0.00507287
0.00739999
0.0114202
0.0152539
0.017339
0.0168511
0.013996
0.0098896
0.00606543
0.00368729
0.00281323
0.00339705
0.00448773
0.00473787
0.00421093
0.00345895
0.00272244
0.00394378
0.0458105
0.0163659
0.00501553
0.00743333
0.0115037
0.015374
0.0174488
0.0168812
0.0138901
0.0096429
0.00574056
0.00338074
0.0025448
0.00312699
0.00430876
0.00465599
0.00418732
0.00346011
0.00272275
0.0039324
0.0461959
0.0160872
0.00496445
0.00745896
0.0115713
0.0154741
0.0175409
0.016903
0.0137913
0.0094221
0.00546019
0.00313171
0.00234411
0.00289876
0.00414582
0.00457432
0.00415947
0.0034578
0.00272146
0.00392435
0.0466108
0.0158138
0.00491964
0.00747635
0.0116222
0.0155536
0.0176155
0.0169182
0.013703
0.00923216
0.00522852
0.00294009
0.00220686
0.00271418
0.00400254
0.0044949
0.00412811
0.00345223
0.00271855
0.00391952
0.0470554
0.0155456
0.00488095
0.00748516
0.0116563
0.0156122
0.017673
0.0169283
0.0136282
0.00907618
0.00504673
0.00280211
0.00212351
0.00257152
0.00388143
0.00441936
0.004094
0.0034437
0.00271407
0.0039178
0.0475294
0.0152827
0.00484809
0.00748521
0.0116734
0.01565
0.0177138
0.0169346
0.0135684
0.0089553
0.0049134
0.00271176
0.00208266
0.00246595
0.00378368
0.0043487
0.00405782
0.00343258
0.00270813
0.00391911
0.0480318
0.0150254
0.00482065
0.0074765
0.0116737
0.0156674
0.0177387
0.0169379
0.0135245
0.00886889
0.00482505
0.0026621
0.00207408
0.00238969
0.00370763
0.00428301
0.00402021
0.0034193
0.0027009
0.00392331
0.048561
0.0147735
0.00479809
0.00745914
0.0116576
0.015665
0.0177483
0.0169388
0.0134962
0.00881484
0.0047767
0.00264608
0.00208977
0.00233218
0.00364685
0.00422149
0.0039817
0.00340432
0.00269257
0.00393025
0.0491151
0.014527
0.00477988
0.00743339
0.0116258
0.0156437
0.0177434
0.0169376
0.0134826
0.00878984
0.00476225
0.00265673
0.00212403
0.00227589
0.00359767
0.00416316
0.00394268
0.00338803
0.00268334
0.00393979
0.0496919
0.0142861
0.0047634
0.00739694
0.0115769
0.0156062
0.01773
0.0169405
0.0134847
0.00878501
0.00476221
0.00267587
0.00216162
0.00223973
0.00355407
0.00410755
0.00390339
0.00337073
0.00267336
0.0039518
0.0502895
0.0140552
0.0047428
0.00734911
0.011512
0.0155539
0.0177101
0.0169482
0.0135
0.00879464
0.0047717
0.00269855
0.00220153
0.00223881
0.00351062
0.00405398
0.00386399
0.00335263
0.00266273
0.00396621
0.0509069
0.0138342
0.0047182
0.00729074
0.0114319
0.0154877
0.0176836
0.0169594
0.0135265
0.0088166
0.00478899
0.00272382
0.00224399
0.00226466
0.00347029
0.00400008
0.00382475
0.00333388
0.00265153
0.00399219
0.051534
0.0136223
0.00469002
0.00722277
0.0113378
0.015408
0.0176505
0.0169736
0.0135629
0.0088498
0.00481349
0.0027515
0.00228864
0.00231091
0.00343249
0.00394545
0.00378552
0.00331463
0.00264008
0.00403729
0.0521631
0.013419
0.00465873