/*--------------------------------*- C++ -*----------------------------------*\
  =========                 |
  \\      /  F ield         | OpenFOAM: The Open Source CFD Toolbox
   \\    /   O peration     | Website:  https://openfoam.org
    \\  /    A nd           | Version:  8
     \\/     M anipulation  |
\*---------------------------------------------------------------------------*/
FoamFile
{
    version     2.0;
    format      ascii;
    class       volScalarField;
    location    "500";
    object      nut;
}
// * * * * * * * * * * * * * * * * * * * * * * * * * * * * * * * * * * * * * //

dimensions      [0 2 -1 0 0 0 0];

internalField   nonuniform List<scalar> 
8400
(
0.000140856
0.000139864
0.000138894
0.00013795
0.000137039
0.000136166
0.000135334
0.000134549
0.000133815
0.000133133
0.000132505
0.000131932
0.000131413
0.000130947
0.00013053
0.00013016
0.000129831
0.000129541
0.000129282
0.000129049
0.000128838
0.000128642
0.000128457
0.000128278
0.000128102
0.000127927
0.00012775
0.00012757
0.00012739
0.00012721
0.00012703
0.000126854
0.000126685
0.000126525
0.000126378
0.000126246
0.000126128
0.000126025
0.000125939
0.000125868
0.00012581
0.000125764
0.000125727
0.000125695
0.000125667
0.00012564
0.000125611
0.000125583
0.000125561
0.000125552
7.53172e-05
7.54461e-05
7.55753e-05
7.5705e-05
7.5835e-05
7.59657e-05
7.60972e-05
7.623e-05
7.63648e-05
7.65019e-05
7.66416e-05
7.67843e-05
7.69308e-05
7.70812e-05
7.72352e-05
7.7393e-05
7.75545e-05
7.77189e-05
7.78865e-05
7.80574e-05
7.82311e-05
7.84063e-05
7.85831e-05
7.87626e-05
7.89433e-05
7.91255e-05
7.93102e-05
7.94964e-05
7.96835e-05
7.98723e-05
8.00628e-05
8.02543e-05
8.04465e-05
8.06401e-05
8.08348e-05
8.10294e-05
8.12228e-05
8.14157e-05
8.1608e-05
8.17986e-05
8.19875e-05
8.21749e-05
8.23598e-05
8.2542e-05
8.27208e-05
8.28961e-05
8.3069e-05
8.32374e-05
8.34017e-05
8.356e-05
7.54681e-05
7.54738e-05
7.5481e-05
7.54918e-05
7.55082e-05
7.55322e-05
7.55664e-05
7.56131e-05
7.56745e-05
7.57525e-05
7.58483e-05
7.59629e-05
7.60965e-05
7.62486e-05
7.64188e-05
7.66052e-05
7.68069e-05
7.70229e-05
7.72495e-05
7.74846e-05
7.7725e-05
7.7969e-05
7.8216e-05
7.84624e-05
7.87093e-05
7.89552e-05
7.91978e-05
7.94385e-05
7.96789e-05
7.99187e-05
8.01585e-05
8.03999e-05
8.06446e-05
8.08938e-05
8.11473e-05
8.14062e-05
8.16713e-05
8.19411e-05
8.22144e-05
8.24914e-05
8.27711e-05
8.30507e-05
8.33288e-05
8.36056e-05
8.38799e-05
8.41496e-05
8.44138e-05
8.46722e-05
8.49254e-05
8.51723e-05
7.09144e-05
7.08113e-05
7.07152e-05
7.06296e-05
7.05579e-05
7.05036e-05
7.04705e-05
7.04619e-05
7.04806e-05
7.05286e-05
7.0607e-05
7.07162e-05
7.08569e-05
7.10275e-05
7.12264e-05
7.14518e-05
7.17021e-05
7.19725e-05
7.2259e-05
7.25595e-05
7.28701e-05
7.31856e-05
7.35037e-05
7.38224e-05
7.41377e-05
7.44486e-05
7.47551e-05
7.50583e-05
7.5359e-05
7.56588e-05
7.59599e-05
7.62657e-05
7.65782e-05
7.68994e-05
7.72342e-05
7.75853e-05
7.7952e-05
7.83352e-05
7.87365e-05
7.9155e-05
7.95869e-05
8.0029e-05
8.04788e-05
8.09321e-05
8.13858e-05
8.1837e-05
8.22839e-05
8.27257e-05
8.3159e-05
8.35863e-05
6.45328e-05
6.4436e-05
6.43491e-05
6.42748e-05
6.42153e-05
6.41736e-05
6.41526e-05
6.4154e-05
6.41793e-05
6.42289e-05
6.43039e-05
6.44046e-05
6.45311e-05
6.46821e-05
6.48566e-05
6.50531e-05
6.52694e-05
6.55028e-05
6.57522e-05
6.60149e-05
6.62853e-05
6.65627e-05
6.68426e-05
6.71215e-05
6.74006e-05
6.76777e-05
6.79506e-05
6.82206e-05
6.84891e-05
6.87574e-05
6.90295e-05
6.93086e-05
6.9598e-05
6.9904e-05
7.02306e-05
7.05799e-05
7.0956e-05
7.13628e-05
7.1802e-05
7.22729e-05
7.27739e-05
7.33033e-05
7.38588e-05
7.44364e-05
7.50288e-05
7.56309e-05
7.62386e-05
7.68475e-05
7.74545e-05
7.80576e-05
6.05001e-05
6.04803e-05
6.04658e-05
6.04571e-05
6.04552e-05
6.04611e-05
6.04757e-05
6.04986e-05
6.05296e-05
6.05701e-05
6.06208e-05
6.06818e-05
6.07524e-05
6.08334e-05
6.09231e-05
6.10217e-05
6.11306e-05
6.12487e-05
6.13745e-05
6.1507e-05
6.16454e-05
6.17875e-05
6.19333e-05
6.20817e-05
6.22295e-05
6.2375e-05
6.25201e-05
6.2665e-05
6.28086e-05
6.29526e-05
6.30992e-05
6.32517e-05
6.34138e-05
6.35872e-05
6.3774e-05
6.39793e-05
6.42085e-05
6.4465e-05
6.47502e-05
6.50676e-05
6.54213e-05
6.58127e-05
6.62416e-05
6.67075e-05
6.7206e-05
6.77353e-05
6.82936e-05
6.88724e-05
6.94671e-05
7.00755e-05
5.94573e-05
5.94764e-05
5.9496e-05
5.95157e-05
5.95358e-05
5.9556e-05
5.95753e-05
5.95932e-05
5.96109e-05
5.96295e-05
5.9648e-05
5.96677e-05
5.96877e-05
5.97076e-05
5.97305e-05
5.97585e-05
5.97881e-05
5.98186e-05
5.98539e-05
5.98926e-05
5.99358e-05
5.99844e-05
6.00344e-05
6.00858e-05
6.01408e-05
6.01979e-05
6.02536e-05
6.03087e-05
6.03655e-05
6.04219e-05
6.04778e-05
6.0535e-05
6.05939e-05
6.06551e-05
6.07206e-05
6.07907e-05
6.08642e-05
6.09414e-05
6.10246e-05
6.1116e-05
6.12168e-05
6.13281e-05
6.14532e-05
6.15981e-05
6.17636e-05
6.19546e-05
6.21784e-05
6.24383e-05
6.2733e-05
6.30593e-05
5.95882e-05
5.95981e-05
5.96135e-05
5.96304e-05
5.96464e-05
5.96608e-05
5.96724e-05
5.96812e-05
5.96884e-05
5.96939e-05
5.96945e-05
5.96901e-05
5.96846e-05
5.96824e-05
5.96768e-05
5.96678e-05
5.96593e-05
5.96557e-05
5.96535e-05
5.9655e-05
5.96609e-05
5.9668e-05
5.96814e-05
5.97056e-05
5.97328e-05
5.97579e-05
5.97874e-05
5.98226e-05
5.98583e-05
5.98935e-05
5.99301e-05
5.99696e-05
6.00132e-05
6.00604e-05
6.01099e-05
6.01609e-05
6.02137e-05
6.02691e-05
6.03248e-05
6.03759e-05
6.04192e-05
6.04494e-05
6.0462e-05
6.04563e-05
6.04261e-05
6.03755e-05
6.03057e-05
6.02265e-05
6.01487e-05
6.00812e-05
6.00551e-05
5.99993e-05
5.99785e-05
5.99718e-05
5.99707e-05
5.99745e-05
5.99788e-05
5.99819e-05
5.99837e-05
5.99809e-05
5.99744e-05
5.99669e-05
5.99549e-05
5.99353e-05
5.99132e-05
5.98935e-05
5.98717e-05
5.98458e-05
5.98231e-05
5.98019e-05
5.9784e-05
5.97722e-05
5.97687e-05
5.97691e-05
5.97681e-05
5.97693e-05
5.97774e-05
5.97936e-05
5.98157e-05
5.98401e-05
5.98653e-05
5.98921e-05
5.99238e-05
5.99608e-05
6.00006e-05
6.00456e-05
6.00984e-05
6.01588e-05
6.02258e-05
6.02959e-05
6.03745e-05
6.04634e-05
6.05463e-05
6.06364e-05
6.0713e-05
6.07596e-05
6.07698e-05
6.07364e-05
6.06496e-05
6.05143e-05
6.0817e-05
6.06127e-05
6.05008e-05
6.0422e-05
6.03859e-05
6.0369e-05
6.03432e-05
6.03156e-05
6.03078e-05
6.03071e-05
6.03067e-05
6.02761e-05
6.02479e-05
6.02395e-05
6.0241e-05
6.02101e-05
6.01757e-05
6.01426e-05
6.01243e-05
6.0111e-05
6.00657e-05
6.00278e-05
6.00106e-05
6.00012e-05
5.99916e-05
5.99818e-05
5.99745e-05
5.99693e-05
5.99786e-05
6.00035e-05
6.00223e-05
6.00292e-05
6.00426e-05
6.00635e-05
6.00809e-05
6.01066e-05
6.01479e-05
6.01878e-05
6.02286e-05
6.02766e-05
6.03316e-05
6.04015e-05
6.04747e-05
6.05764e-05
6.07009e-05
6.08132e-05
6.09093e-05
6.10122e-05
6.10865e-05
6.1166e-05
6.13961e-05
6.12766e-05
6.11323e-05
6.09989e-05
6.09097e-05
6.08294e-05
6.0745e-05
6.06857e-05
6.06654e-05
6.06388e-05
6.06044e-05
6.05799e-05
6.05764e-05
6.05671e-05
6.05394e-05
6.04999e-05
6.04684e-05
6.04627e-05
6.04416e-05
6.04056e-05
6.03748e-05
6.03482e-05
6.03245e-05
6.02995e-05
6.02752e-05
6.02533e-05
6.02333e-05
6.02247e-05
6.0234e-05
6.02449e-05
6.02481e-05
6.02541e-05
6.02657e-05
6.02782e-05
6.02942e-05
6.03188e-05
6.03505e-05
6.0382e-05
6.04154e-05
6.04584e-05
6.05207e-05
6.05857e-05
6.06571e-05
6.07465e-05
6.08512e-05
6.09635e-05
6.10612e-05
6.11669e-05
6.12611e-05
6.13433e-05
6.14342e-05
6.13615e-05
6.12901e-05
6.12267e-05
6.11682e-05
6.11098e-05
6.10522e-05
6.1007e-05
6.09658e-05
6.09282e-05
6.0898e-05
6.08732e-05
6.08438e-05
6.08141e-05
6.07845e-05
6.07622e-05
6.07413e-05
6.07129e-05
6.06868e-05
6.06611e-05
6.0634e-05
6.06064e-05
6.05801e-05
6.05586e-05
6.054e-05
6.05211e-05
6.05046e-05
6.04929e-05
6.04852e-05
6.04805e-05
6.04802e-05
6.04845e-05
6.04913e-05
6.05031e-05
6.05226e-05
6.05489e-05
6.05795e-05
6.0616e-05
6.06611e-05
6.07141e-05
6.07781e-05
6.08483e-05
6.09272e-05
6.10192e-05
6.11215e-05
6.12285e-05
6.13368e-05
6.14452e-05
6.15442e-05
6.16305e-05
6.14568e-05
6.14131e-05
6.13691e-05
6.13248e-05
6.12809e-05
6.12405e-05
6.1203e-05
6.11701e-05
6.11354e-05
6.11055e-05
6.10787e-05
6.10514e-05
6.1023e-05
6.09983e-05
6.09736e-05
6.09459e-05
6.09219e-05
6.08976e-05
6.08743e-05
6.08547e-05
6.08339e-05
6.08115e-05
6.07894e-05
6.07672e-05
6.07468e-05
6.07311e-05
6.07182e-05
6.07068e-05
6.06992e-05
6.06978e-05
6.07028e-05
6.07139e-05
6.07317e-05
6.07562e-05
6.0789e-05
6.08289e-05
6.08758e-05
6.09318e-05
6.09982e-05
6.10725e-05
6.11561e-05
6.12464e-05
6.1344e-05
6.14485e-05
6.15605e-05
6.1675e-05
6.17895e-05
6.18963e-05
6.19959e-05
6.20803e-05
6.14691e-05
6.14366e-05
6.14032e-05
6.13719e-05
6.13432e-05
6.1314e-05
6.12859e-05
6.12571e-05
6.12299e-05
6.12047e-05
6.11795e-05
6.11558e-05
6.11345e-05
6.11129e-05
6.10925e-05
6.1074e-05
6.10564e-05
6.10402e-05
6.1024e-05
6.10066e-05
6.0989e-05
6.09732e-05
6.09595e-05
6.09471e-05
6.09357e-05
6.09263e-05
6.0921e-05
6.09222e-05
6.09304e-05
6.09456e-05
6.09687e-05
6.10015e-05
6.10458e-05
6.11013e-05
6.11679e-05
6.12472e-05
6.13383e-05
6.14398e-05
6.15497e-05
6.16647e-05
6.1786e-05
6.19126e-05
6.20433e-05
6.2176e-05
6.23088e-05
6.24363e-05
6.25582e-05
6.26656e-05
6.27566e-05
6.28294e-05
6.14757e-05
6.14505e-05
6.14256e-05
6.14014e-05
6.13783e-05
6.1355e-05
6.13322e-05
6.13097e-05
6.12887e-05
6.12683e-05
6.12503e-05
6.12326e-05
6.1217e-05
6.12043e-05
6.11945e-05
6.11892e-05
6.11855e-05
6.11824e-05
6.11811e-05
6.1181e-05
6.11805e-05
6.11797e-05
6.11801e-05
6.11827e-05
6.11886e-05
6.11995e-05
6.12181e-05
6.12464e-05
6.12863e-05
6.13399e-05
6.14094e-05
6.14966e-05
6.16034e-05
6.17305e-05
6.1877e-05
6.20414e-05
6.22196e-05
6.24057e-05
6.25966e-05
6.27875e-05
6.29765e-05
6.31608e-05
6.33372e-05
6.35033e-05
6.36567e-05
6.37915e-05
6.39062e-05
6.3996e-05
6.40582e-05
6.40936e-05
6.14801e-05
6.14594e-05
6.14398e-05
6.14207e-05
6.14007e-05
6.1381e-05
6.13624e-05
6.13453e-05
6.133e-05
6.13184e-05
6.13127e-05
6.13149e-05
6.1326e-05
6.13484e-05
6.13826e-05
6.14274e-05
6.14798e-05
6.15352e-05
6.15873e-05
6.16317e-05
6.16684e-05
6.16989e-05
6.17259e-05
6.17546e-05
6.17907e-05
6.18389e-05
6.19039e-05
6.19913e-05
6.21046e-05
6.22469e-05
6.2422e-05
6.26324e-05
6.28783e-05
6.3158e-05
6.34667e-05
6.37973e-05
6.41402e-05
6.44836e-05
6.48168e-05
6.51292e-05
6.54169e-05
6.56776e-05
6.59069e-05
6.61013e-05
6.62574e-05
6.63696e-05
6.64333e-05
6.64451e-05
6.64089e-05
6.63758e-05
6.14831e-05
6.1466e-05
6.14495e-05
6.14328e-05
6.1417e-05
6.14049e-05
6.14019e-05
6.14111e-05
6.14291e-05
6.14718e-05
6.15571e-05
6.16788e-05
6.1843e-05
6.20504e-05
6.22907e-05
6.25474e-05
6.28002e-05
6.30278e-05
6.3213e-05
6.33465e-05
6.34295e-05
6.34798e-05
6.35201e-05
6.35686e-05
6.36368e-05
6.37355e-05
6.38763e-05
6.40719e-05
6.43277e-05
6.46471e-05
6.50315e-05
6.54871e-05
6.60127e-05
6.66019e-05
6.72355e-05
6.78898e-05
6.85366e-05
6.9148e-05
6.97002e-05
7.01751e-05
7.05789e-05
7.09143e-05
7.11785e-05
7.1366e-05
7.14719e-05
7.14875e-05
7.13993e-05
7.11925e-05
7.09268e-05
7.07062e-05
6.14857e-05
6.14811e-05
6.14798e-05
6.14919e-05
6.15246e-05
6.15867e-05
6.1766e-05
6.20823e-05
6.24133e-05
6.28672e-05
6.35694e-05
6.43772e-05
6.52646e-05
6.61855e-05
6.70741e-05
6.78712e-05
6.85297e-05
6.90161e-05
6.93103e-05
6.94065e-05
6.93313e-05
6.92013e-05
6.90837e-05
6.90295e-05
6.90428e-05
6.91376e-05
6.93278e-05
6.9704e-05
7.02277e-05
7.08917e-05
7.16713e-05
7.2623e-05
7.37037e-05
7.49246e-05
7.61962e-05
7.74358e-05
7.85688e-05
7.95339e-05
8.02836e-05
8.079e-05
8.1182e-05
8.1468e-05
8.16598e-05
8.17395e-05
8.16986e-05
8.15246e-05
8.12074e-05
8.06466e-05
8.0007e-05
7.91903e-05
6.15627e-05
6.2055e-05
6.24645e-05
6.31739e-05
6.4253e-05
6.5378e-05
6.77463e-05
7.14381e-05
7.37535e-05
7.58183e-05
7.8534e-05
8.07611e-05
8.254e-05
8.39164e-05
8.4937e-05
8.5649e-05
8.60673e-05
8.61809e-05
8.59662e-05
8.53886e-05
8.4554e-05
8.48332e-05
8.51297e-05
8.53905e-05
8.56281e-05
8.5847e-05
8.608e-05
8.62673e-05
8.6453e-05
8.66226e-05
8.72015e-05
8.99546e-05
9.23601e-05
9.50331e-05
9.72761e-05
9.88821e-05
9.98794e-05
0.000100298
0.000100073
9.8954e-05
9.8434e-05
9.80301e-05
9.75576e-05
9.69272e-05
9.60044e-05
9.45769e-05
9.21187e-05
8.73938e-05
8.5819e-05
8.0702e-05
0.000138539
0.00017794
0.000232254
0.000321403
0.00047292
0.00032665
0.000229335
0.000201523
0.000170992
0.000158956
0.000149846
0.000144618
0.00014082
0.000137737
0.00013503
0.000132492
0.000130079
0.000127792
0.000125627
0.000123585
0.00012167
0.000120118
0.000121313
0.000124623
0.000129077
0.000134246
0.000139965
0.000145626
0.000149781
0.000150635
0.00014734
0.000141611
0.000138632
0.000136834
0.000135457
0.000134115
0.00013268
0.000131137
0.000129501
0.000127791
0.000126015
0.000125365
0.00012554
0.000125838
0.000126063
0.000125983
0.000125399
0.000124267
0.000122556
0.000121003
0.000272579
0.000269092
0.000265697
0.000262711
0.00025988
0.000257069
0.000254275
0.000251542
0.000248893
0.000246321
0.000243814
0.000241364
0.000238973
0.000236641
0.00023437
0.000232159
0.000230007
0.000227911
0.000225871
0.000223882
0.000221943
0.00022005
0.000218203
0.000216401
0.000214642
0.000212926
0.000211253
0.00020962
0.000208026
0.00020647
0.000204951
0.000203466
0.000202013
0.000200592
0.000199202
0.000197845
0.000196521
0.00019523
0.000193973
0.000192746
0.000191543
0.00019036
0.000189191
0.00018803
0.000186872
0.000185711
0.00018454
0.00018335
0.000182127
0.000180839
0.000270702
0.00026487
0.000258859
0.000253037
0.000247563
0.0002424
0.00023748
0.000232751
0.000228199
0.000223821
0.000219616
0.000215577
0.000211698
0.000207973
0.000204395
0.000200958
0.000197653
0.000194473
0.000191407
0.000188449
0.000185592
0.00018283
0.00018016
0.000177579
0.000175082
0.000172665
0.000170326
0.000168059
0.000165861
0.000163727
0.000161652
0.000159632
0.000157665
0.000155748
0.000153883
0.000152067
0.000150301
0.000148581
0.000146904
0.000145267
0.000143671
0.000142113
0.000140587
0.000139087
0.000137611
0.000136156
0.000134722
0.000133309
0.00013192
0.000130555
0.000270487
0.000264392
0.000258546
0.000252849
0.000247368
0.000242135
0.000237132
0.000232331
0.000227708
0.000223253
0.00021896
0.000214826
0.000210844
0.000207009
0.000203316
0.000199757
0.000196326
0.000193015
0.000189817
0.000186724
0.000183731
0.000180834
0.000178028
0.00017531
0.000172677
0.000170124
0.000167649
0.000165248
0.000162917
0.000160652
0.000158448
0.000156303
0.000154214
0.000152182
0.000150204
0.000148281
0.000146411
0.000144593
0.000142825
0.000141104
0.000139427
0.00013779
0.000136189
0.00013462
0.00013308
0.000131567
0.000130083
0.00012863
0.000127211
0.00012583
0.000270586
0.000264377
0.000258543
0.000252943
0.000247547
0.000242361
0.000237383
0.0002326
0.000227994
0.000223555
0.000219274
0.000215148
0.000211171
0.000207339
0.000203645
0.000200084
0.000196647
0.000193329
0.000190121
0.000187018
0.000184014
0.000181104
0.000178285
0.000175553
0.000172905
0.000170339
0.00016785
0.000165435
0.000163091
0.000160812
0.000158594
0.000156435
0.000154333
0.000152286
0.000150294
0.000148357
0.000146473
0.000144642
0.00014286
0.000141126
0.000139436
0.000137787
0.000136173
0.000134591
0.000133039
0.000131515
0.00013002
0.000128556
0.000127127
0.000125735
0.000270649
0.000264439
0.000258544
0.000252921
0.000247526
0.000242338
0.000237351
0.000232555
0.000227939
0.000223493
0.000219209
0.000215082
0.000211107
0.000207278
0.000203589
0.000200032
0.0001966
0.000193286
0.000190083
0.000186983
0.000183982
0.000181076
0.00017826
0.000175532
0.000172888
0.000170327
0.000167843
0.000165433
0.000163093
0.000160818
0.000158604
0.000156449
0.00015435
0.000152306
0.000150317
0.000148382
0.0001465
0.000144671
0.000142891
0.000141159
0.00013947
0.000137821
0.000136207
0.000134626
0.000133074
0.00013155
0.000130055
0.000128591
0.00012716
0.000125766
0.000270645
0.000264484
0.000258582
0.000252948
0.000247556
0.000242382
0.000237407
0.000232622
0.000228014
0.000223577
0.000219303
0.000215186
0.00021122
0.000207399
0.000203716
0.000200165
0.000196737
0.000193425
0.000190222
0.000187122
0.00018412
0.000181211
0.000178393
0.000175663
0.000173018
0.000170454
0.000167969
0.000165557
0.000163215
0.000160938
0.000158722
0.000156564
0.000154462
0.000152416
0.000150423
0.000148485
0.000146599
0.000144766
0.000142982
0.000141246
0.000139552
0.000137899
0.00013628
0.000134694
0.000133137
0.000131608
0.000130109
0.00012864
0.000127204
0.000125804
0.000270625
0.000264487
0.000258596
0.000252957
0.000247558
0.000242379
0.000237401
0.000232612
0.000228001
0.000223561
0.000219285
0.000215167
0.000211201
0.000207381
0.000203699
0.000200147
0.000196719
0.000193406
0.000190201
0.000187099
0.000184094
0.000181183
0.000178363
0.000175632
0.000172986
0.000170422
0.000167937
0.000165526
0.000163185
0.000160909
0.000158694
0.000156537
0.000154436
0.000152389
0.000150398
0.000148459
0.000146574
0.00014474
0.000142956
0.000141219
0.000139526
0.000137871
0.000136252
0.000134665
0.000133108
0.000131579
0.000130079
0.00012861
0.000127173
0.000125772
0.000270618
0.000264477
0.000258596
0.000252961
0.000247561
0.00024238
0.000237402
0.000232615
0.000228007
0.000223572
0.000219302
0.000215191
0.000211231
0.000207417
0.00020374
0.000200193
0.000196768
0.000193457
0.000190253
0.000187151
0.000184145
0.000181234
0.000178413
0.00017568
0.000173033
0.000170469
0.000167984
0.000165572
0.000163231
0.000160954
0.000158739
0.000156581
0.000154479
0.000152431
0.000150437
0.000148497
0.000146609
0.000144773
0.000142986
0.000141246
0.000139549
0.000137891
0.000136268
0.000134678
0.000133117
0.000131584
0.000130081
0.000128609
0.000127168
0.000125763
0.000270621
0.000264472
0.000258593
0.00025296
0.000247559
0.000242376
0.000237396
0.000232607
0.000227999
0.000223565
0.000219297
0.000215188
0.000211231
0.000207419
0.000203743
0.000200197
0.000196772
0.000193459
0.000190253
0.000187148
0.00018414
0.000181225
0.000178401
0.000175666
0.000173017
0.000170451
0.000167965
0.000165553
0.000163211
0.000160934
0.000158718
0.00015656
0.000154458
0.00015241
0.000150416
0.000148475
0.000146586
0.000144748
0.00014296
0.000141219
0.00013952
0.00013786
0.000136236
0.000134643
0.00013308
0.000131547
0.000130043
0.000128569
0.000127127
0.000125719
0.000270625
0.000264475
0.000258593
0.000252959
0.000247557
0.000242372
0.000237391
0.000232602
0.000227996
0.000223564
0.000219299
0.000215193
0.00021124
0.000207431
0.000203758
0.000200215
0.000196791
0.000193479
0.000190272
0.000187165
0.000184155
0.000181238
0.000178412
0.000175675
0.000173025
0.000170459
0.000167971
0.000165559
0.000163217
0.000160939
0.000158724
0.000156566
0.000154464
0.000152415
0.00015042
0.000148478
0.000146588
0.000144749
0.00014296
0.000141216
0.000139514
0.000137851
0.000136224
0.000134628
0.000133063
0.000131526
0.00013002
0.000128543
0.000127099
0.000125688
0.000270626
0.000264479
0.000258595
0.000252959
0.000247556
0.00024237
0.000237387
0.000232598
0.000227992
0.000223562
0.000219298
0.000215195
0.000211244
0.000207437
0.000203767
0.000200224
0.000196801
0.000193488
0.00019028
0.000187171
0.000184158
0.000181238
0.00017841
0.000175671
0.000173019
0.000170452
0.000167963
0.00016555
0.000163207
0.00016093
0.000158715
0.000156557
0.000154455
0.000152407
0.000150411
0.000148469
0.000146578
0.000144738
0.000142946
0.0001412
0.000139496
0.00013783
0.000136199
0.000134601
0.000133032
0.000131494
0.000129984
0.000128506
0.00012706
0.000125647
0.000270626
0.000264482
0.000258598
0.000252961
0.000247556
0.000242368
0.000237385
0.000232595
0.000227988
0.000223558
0.000219295
0.000215192
0.000211243
0.000207438
0.000203768
0.000200226
0.000196802
0.000193488
0.000190277
0.000187165
0.000184149
0.000181226
0.000178395
0.000175654
0.000173001
0.000170431
0.000167942
0.000165528
0.000163185
0.000160909
0.000158694
0.000156536
0.000154434
0.000152386
0.000150391
0.000148449
0.000146558
0.000144717
0.000142923
0.000141175
0.000139468
0.0001378
0.000136166
0.000134565
0.000132994
0.000131453
0.000129943
0.000128463
0.000127016
0.000125601
0.000270626
0.000264485
0.000258602
0.000252965
0.000247558
0.000242369
0.000237384
0.000232593
0.000227987
0.000223557
0.000219296
0.000215196
0.00021125
0.000207448
0.000203781
0.000200241
0.000196817
0.000193503
0.000190292
0.000187178
0.00018416
0.000181236
0.000178404
0.000175661
0.000173007
0.000170437
0.000167947
0.000165533
0.00016319
0.000160914
0.000158699
0.000156542
0.00015444
0.000152391
0.000150396
0.000148453
0.000146561
0.000144718
0.000142922
0.00014117
0.00013946
0.000137787
0.000136149
0.000134544
0.00013297
0.000131426
0.000129912
0.00012843
0.00012698
0.000125562
0.000270627
0.000264488
0.000258606
0.000252967
0.000247558
0.000242365
0.000237377
0.000232582
0.000227972
0.000223539
0.000219276
0.000215174
0.000211226
0.000207422
0.000203754
0.000200211
0.000196784
0.000193467
0.000190252
0.000187135
0.000184114
0.000181187
0.000178352
0.000175607
0.000172951
0.000170379
0.000167889
0.000165475
0.000163133
0.000160857
0.000158643
0.000156486
0.000154386
0.000152339
0.000150345
0.000148402
0.00014651
0.000144666
0.000142869
0.000141116
0.000139404
0.000137729
0.000136089
0.000134482
0.000132906
0.000131361
0.000129847
0.000128364
0.000126913
0.000125493
0.000270629
0.000264492
0.000258611
0.000252971
0.000247561
0.000242368
0.00023738
0.000232586
0.000227979
0.00022355
0.000219291
0.000215194
0.00021125
0.00020745
0.000203784
0.000200243
0.000196817
0.0001935
0.000190284
0.000187167
0.000184145
0.000181216
0.000178379
0.000175633
0.000172974
0.000170401
0.00016791
0.000165495
0.000163151
0.000160874
0.000158659
0.000156501
0.0001544
0.000152352
0.000150356
0.000148412
0.000146516
0.00014467
0.000142869
0.000141112
0.000139395
0.000137715
0.00013607
0.000134457
0.000132877
0.000131328
0.000129809
0.000128322
0.000126867
0.000125442
0.00027063
0.000264494
0.000258607
0.000252957
0.000247536
0.000242329
0.000237328
0.000232522
0.000227904
0.000223465
0.000219197
0.000215093
0.000211142
0.000207337
0.000203667
0.000200122
0.000196693
0.000193372
0.000190155
0.000187035
0.000184011
0.000181081
0.000178244
0.000175497
0.000172839
0.000170267
0.000167777
0.000165364
0.000163023
0.000160748
0.000158535
0.00015638
0.000154281
0.000152235
0.000150242
0.000148299
0.000146405
0.00014456
0.00014276
0.000141002
0.000139285
0.000137604
0.000135958
0.000134345
0.000132765
0.000131215
0.000129697
0.00012821
0.000126755
0.000125331
0.000270632
0.000264497
0.000258613
0.000252971
0.000247558
0.000242361
0.000237368
0.00023257
0.000227959
0.000223525
0.000219261
0.000215158
0.000211209
0.000207403
0.000203731
0.000200182
0.000196749
0.000193423
0.0001902
0.000187075
0.000184045
0.000181108
0.000178265
0.000175513
0.00017285
0.000170273
0.000167778
0.000165361
0.000163014
0.000160735
0.000158518
0.000156359
0.000154256
0.000152207
0.00015021
0.000148263
0.000146367
0.000144517
0.000142713
0.000140952
0.00013923
0.000137546
0.000135897
0.000134281
0.000132699
0.000131149
0.000129632
0.000128147
0.000126696
0.000125279
0.000270633
0.000264456
0.00025852
0.000252826
0.000247365
0.000242127
0.000237102
0.000232279
0.000227649
0.000223202
0.00021893
0.000214824
0.000210874
0.00020707
0.000203401
0.000199858
0.000196431
0.000193114
0.0001899
0.000186784
0.000183765
0.000180842
0.000178012
0.000175274
0.000172626
0.000170064
0.000167585
0.000165183
0.000162853
0.000160591
0.000158391
0.000156249
0.000154164
0.000152134
0.000150157
0.000148231
0.000146356
0.000144528
0.000142748
0.000141011
0.000139315
0.000137659
0.00013604
0.000134459
0.000132916
0.00013141
0.000129944
0.00012852
0.000127143
0.000125819
0.000270642
0.000264487
0.000258592
0.000252935
0.000247515
0.000242326
0.000237363
0.000232613
0.000228067
0.000223714
0.000219544
0.000215547
0.000211713
0.00020803
0.000204487
0.000201074
0.00019778
0.000194597
0.000191518
0.000188539
0.000185657
0.00018287
0.000180178
0.000177579
0.000175071
0.000172651
0.000170315
0.000168058
0.000165876
0.000163761
0.00016171
0.000159719
0.000157785
0.000155907
0.000154083
0.000152312
0.000150594
0.000148927
0.000147311
0.000145742
0.00014422
0.000142742
0.00014131
0.000139923
0.000138585
0.0001373
0.000136074
0.00013492
0.000133856
0.000132918
0.000272594
0.000269256
0.000266047
0.000262961
0.000259985
0.0002571
0.000254296
0.000251569
0.000248916
0.000246336
0.000243828
0.000241387
0.000239011
0.000236695
0.000234437
0.000232233
0.00023008
0.000227976
0.00022592
0.000223912
0.000221953
0.000220043
0.000218181
0.000216368
0.000214603
0.000212883
0.000211206
0.00020957
0.000207972
0.000206408
0.000204879
0.000203381
0.000201916
0.00020048
0.000199074
0.000197696
0.000196347
0.000195024
0.000193725
0.000192448
0.000191193
0.000189957
0.000188741
0.000187542
0.000186361
0.000185196
0.000184047
0.000182912
0.000181788
0.000180671
0.000181709
9.64168e-05
8.75459e-05
9.9915e-05
0.000113767
0.000123649
0.000128063
0.000127207
0.000122267
0.000115012
0.000107191
9.97002e-05
9.23963e-05
8.0818e-05
6.95999e-05
6.09403e-05
5.97614e-05
6.85059e-05
0.000101314
0.000248463
0.000180391
9.61643e-05
8.79429e-05
0.000100634
0.000114617
0.000124511
0.000128854
0.00012788
0.000122812
0.000115461
0.000107622
0.000100226
9.47651e-05
8.21415e-05
7.09469e-05
6.2008e-05
5.91928e-05
6.61749e-05
9.75615e-05
0.000245601
0.000179084
9.58641e-05
8.83354e-05
0.000101363
0.000115483
0.000125388
0.000129654
0.000128548
0.000123333
0.000115862
0.000107969
0.000100529
9.16774e-05
8.25933e-05
7.17221e-05
6.2639e-05
5.91003e-05
6.52112e-05
9.59793e-05
0.000244705
0.000177761
9.55339e-05
8.87267e-05
0.000102108
0.000116371
0.000126285
0.000130464
0.000129212
0.000123834
0.000116237
0.000108326
0.000101104
9.33717e-05
8.32508e-05
7.2482e-05
6.32822e-05
5.90824e-05
6.43143e-05
9.44295e-05
0.000243842
0.000176438
9.51698e-05
8.91154e-05
0.000102864
0.000117278
0.000127201
0.000131283
0.000129865
0.000124296
0.000116539
0.000108563
0.000101429
9.42497e-05
8.40477e-05
7.32462e-05
6.3936e-05
5.91339e-05
6.34856e-05
9.29129e-05
0.000243005
0.000175114
9.47689e-05
8.95006e-05
0.000103633
0.000118204
0.000128133
0.00013211
0.00013051
0.00012473
0.000116795
0.000108745
0.000101701
9.47879e-05
8.48896e-05
7.40183e-05
6.45984e-05
5.92495e-05
6.27256e-05
9.14288e-05
0.000242189
0.000173789
9.43297e-05
8.98816e-05
0.000104413
0.000119146
0.000129082
0.000132941
0.000131137
0.000125119
0.000116981
0.000108846
0.000101922
9.5698e-05
8.58007e-05
7.48025e-05
6.52659e-05
5.9422e-05
6.20351e-05
8.99811e-05
0.000241398
0.000172461
9.38525e-05
9.02584e-05
0.000105203
0.000120107
0.000130045
0.000133774
0.000131742
0.000125453
0.000117079
0.000108839
0.000102024
9.62918e-05
8.66711e-05
7.55914e-05
6.59353e-05
5.96446e-05
6.14143e-05
8.85752e-05
0.000240645
0.00017113
9.33381e-05
9.06315e-05
0.000106005
0.000121084
0.000131023
0.000134606
0.000132319
0.000125724
0.000117079
0.000108707
0.000101985
9.65186e-05
8.73958e-05
7.63678e-05
6.66023e-05
5.99103e-05
6.08629e-05
8.72172e-05
0.000239938
0.000169797
9.27887e-05
9.1002e-05
0.000106817
0.000122078
0.000132012
0.000135433
0.000132861
0.000125921
0.000116966
0.000108436
0.000101794
9.65556e-05
8.79754e-05
7.71202e-05
6.72634e-05
6.02128e-05
6.03802e-05
8.59127e-05
0.000239285
0.000168464
9.22059e-05
9.13709e-05
0.000107639
0.000123087
0.000133011
0.000136251
0.000133362
0.000126034
0.000116729
0.000108011
0.000101437
9.64195e-05
8.84518e-05
7.78466e-05
6.79166e-05
6.05461e-05
5.99642e-05
8.46668e-05
0.000238695
0.000167134
9.15906e-05
9.17385e-05
0.000108472
0.000124109
0.000134017
0.000137055
0.000133816
0.000126057
0.000116355
0.00010742
0.000100917
9.61551e-05
8.88561e-05
7.85465e-05
6.85606e-05
6.09046e-05
5.96123e-05
8.34832e-05
0.000238173
0.000165809
9.0943e-05
9.21049e-05
0.000109311
0.000125141
0.000135025
0.000137841
0.000134214
0.000125975
0.000115829
0.000106647
0.000100226
9.58248e-05
8.9196e-05
7.92156e-05
6.91926e-05
6.12827e-05
5.93206e-05
8.23641e-05
0.000237723
0.000164488
9.0263e-05
9.24691e-05
0.000110154
0.000126179
0.000136031
0.000138602
0.000134548
0.000125778
0.000115133
0.000105665
9.93315e-05
9.54039e-05
8.94507e-05
7.98432e-05
6.98084e-05
6.16746e-05
5.90847e-05
8.131e-05
0.000237346
0.000163171
8.9551e-05
9.28293e-05
0.000110996
0.000127215
0.000137027
0.000139331
0.00013481
0.000125453
0.000114249
0.00010445
9.81913e-05
9.47972e-05
8.95776e-05
8.04131e-05
7.04027e-05
6.20749e-05
5.88997e-05
8.03206e-05
0.000237045
0.000161859
8.88091e-05
9.31837e-05
0.000111832
0.000128244
0.000138007
0.00014002
0.000134991
0.000124988
0.000113159
0.000102977
9.67706e-05
9.39248e-05
8.95352e-05
8.09085e-05
7.09703e-05
6.24793e-05
5.87612e-05
7.93956e-05
0.000236823
0.000160551
8.80411e-05
9.35305e-05
0.000112655
0.000129259
0.000138964
0.000140663
0.000135084
0.000124373
0.000111849
0.000101227
9.50452e-05
9.27591e-05
8.9302e-05
8.13162e-05
7.15067e-05
6.28843e-05
5.86654e-05
7.85347e-05
0.000236683
0.000159245
8.72535e-05
9.38682e-05
0.000113461
0.000130253
0.000139893
0.000141255
0.000135082
0.000123599
0.000110307
9.91824e-05
9.30003e-05
9.13156e-05
8.88784e-05
8.16276e-05
7.2008e-05
6.32868e-05
5.86081e-05
7.77376e-05
0.000236627
0.000157943
8.6454e-05
9.41954e-05
0.000114245
0.000131221
0.000140786
0.00014179
0.000134981
0.000122662
0.000108526
9.68362e-05
9.06279e-05
8.96182e-05
8.82735e-05
8.18375e-05
7.24696e-05
6.36829e-05
5.85845e-05
7.70031e-05
0.000236659
0.000156647
8.56507e-05
9.45104e-05
0.000115001
0.000132156
0.000141637
0.000142262
0.000134777
0.00012156
0.000106504
9.41866e-05
8.79213e-05
8.76727e-05
8.74922e-05
8.19412e-05
7.28858e-05
6.40678e-05
5.8589e-05
7.63292e-05
0.000236779
0.000155359
8.48505e-05
9.48101e-05
0.000115722
0.000133047
0.000142437
0.000142664
0.000134468
0.000120297
0.00010425
9.12423e-05
8.48772e-05
8.54679e-05
8.65326e-05
8.19333e-05
7.3249e-05
6.44351e-05
5.86148e-05
7.57131e-05
0.000236987
0.00015408
8.40592e-05
9.50903e-05
0.000116399
0.000133887
0.000143178
0.000142993
0.000134057
0.000118882
0.000101781
8.80275e-05
8.15064e-05
8.29913e-05
8.53932e-05
8.18091e-05
7.35519e-05
6.47782e-05
5.86554e-05
7.51517e-05
0.000237281
0.000152812
8.32823e-05
9.53458e-05
0.000117024
0.000134664
0.000143852
0.000143247
0.000133552
0.000117336
9.91299e-05
8.45881e-05
7.78477e-05
8.02534e-05
8.40823e-05
8.1568e-05
7.37882e-05
6.50914e-05
5.87046e-05
7.46423e-05
0.000237662
0.000151555
8.2526e-05
9.55712e-05
0.000117588
0.00013537
0.000144454
0.000143428