/*--------------------------------*- C++ -*----------------------------------*\
  =========                 |
  \\      /  F ield         | OpenFOAM: The Open Source CFD Toolbox
   \\    /   O peration     | Website:  https://openfoam.org
    \\  /    A nd           | Version:  8
     \\/     M anipulation  |
\*---------------------------------------------------------------------------*/
FoamFile
{
    version     2.0;
    format      ascii;
    class       volScalarField;
    location    "500";
    object      p;
}
// * * * * * * * * * * * * * * * * * * * * * * * * * * * * * * * * * * * * * //

dimensions      [1 -1 -2 0 0 0 0];

internalField   nonuniform List<scalar> 
8400
(
33539
60722.7
90637.9
122004
154670
188430
223157
258820
295484
333318
372584
413588
456626
501913
549547
599465
651426
705017
759795
815254
870822
926154
981036
1.03541e+06
1.08945e+06
1.14347e+06
1.19792e+06
1.25325e+06
1.30989e+06
1.36824e+06
1.42853e+06
1.49082e+06
1.55499e+06
1.62071e+06
1.6875e+06
1.75483e+06
1.82213e+06
1.88884e+06
1.95443e+06
2.01847e+06
2.08065e+06
2.14075e+06
2.19868e+06
2.25447e+06
2.30817e+06
2.35979e+06
2.4093e+06
2.45731e+06
2.50603e+06
2.55728e+06
33353
59933.5
89204.5
119907
151971
185254
219663
255168
291818
329755
369213
410468
453767
499273
547041
596973
648820
702223
756741
811877
867156
922262
976996
1.0313e+06
1.08534e+06
1.13941e+06
1.1939e+06
1.24926e+06
1.3059e+06
1.36417e+06
1.42429e+06
1.48632e+06
1.55018e+06
1.61556e+06
1.68207e+06
1.7492e+06
1.81641e+06
1.88315e+06
1.94889e+06
2.01315e+06
2.07558e+06
2.1359e+06
2.19398e+06
2.24972e+06
2.30307e+06
2.35397e+06
2.40228e+06
2.44821e+06
2.49292e+06
2.53775e+06
33564.4
59149.5
87301.5
116861
147911
180415
214328
249628
286356
324628
364613
406506
450456
496530
544693
594835
646688
699890
754076
808804
863712
918546
973105
1.02741e+06
1.08157e+06
1.13585e+06
1.19063e+06
1.24628e+06
1.30315e+06
1.36155e+06
1.42169e+06
1.48367e+06
1.54742e+06
1.61273e+06
1.67927e+06
1.74663e+06
1.81428e+06
1.8817e+06
1.94838e+06
2.01382e+06
2.07757e+06
2.1393e+06
2.19877e+06
2.25576e+06
2.31014e+06
2.36182e+06
2.41067e+06
2.45671e+06
2.50053e+06
2.54274e+06
32754.5
56597.7
83117.5
111088
140719
172085
205213
240127
276867
315501
356120
398807
443556
490323
539019
589459
641320
694293
748081
802316
856704
911082
965326
1.01942e+06
1.07352e+06
1.12784e+06
1.18269e+06
1.23836e+06
1.29517e+06
1.35342e+06
1.4133e+06
1.4749e+06
1.53821e+06
1.60314e+06
1.66944e+06
1.73672e+06
1.80456e+06
1.87248e+06
1.93991e+06
2.0063e+06
2.07115e+06
2.134e+06
2.19447e+06
2.25224e+06
2.30707e+06
2.35877e+06
2.40717e+06
2.45225e+06
2.4944e+06
2.53421e+06
31792.9
54067.4
78929.9
105177
133207
163241
195420
229828
266512
305494
346762
390271
435897
483489
532857
583731
635808
688810
742415
796320
850392
904445
958425
1.01241e+06
1.06648e+06
1.12081e+06
1.17571e+06
1.23143e+06
1.28826e+06
1.34648e+06
1.40628e+06
1.46781e+06
1.53112e+06
1.59616e+06
1.66273e+06
1.73054e+06
1.79919e+06
1.86818e+06
1.93695e+06
2.00492e+06
2.0715e+06
2.13612e+06
2.19829e+06
2.25752e+06
2.31349e+06
2.36589e+06
2.41448e+06
2.45919e+06
2.50023e+06
2.53801e+06
29824.7
50974.6
74307.4
98849.5
125235
153865
185001
218787
255280
294435
336158
380301
426656
474947
524918
576258
628601
681638
735103
788758
842430
896041
949557
1.00305e+06
1.05668e+06
1.11064e+06
1.16517e+06
1.22053e+06
1.27704e+06
1.335e+06
1.39465e+06
1.45615e+06
1.51957e+06
1.58488e+06
1.65197e+06
1.72055e+06
1.79021e+06
1.86043e+06
1.93065e+06
2.00023e+06
2.06846e+06
2.13472e+06
2.19838e+06
2.25889e+06
2.31583e+06
2.36885e+06
2.41767e+06
2.46222e+06
2.50252e+06
2.5388e+06
28049.8
48995
71079.5
94063.5
118941
146304
176507
209720
245968
285176
327217
371854
418797
467750
518336
570159
622884
676203
729770
783378
836859
890113
943180
996150
1.04916e+06
1.10245e+06
1.15633e+06
1.21111e+06
1.26709e+06
1.32464e+06
1.38407e+06
1.44557e+06
1.50924e+06
1.57508e+06
1.64294e+06
1.71253e+06
1.78345e+06
1.85517e+06
1.92706e+06
1.99841e+06
2.06847e+06
2.1365e+06
2.20179e+06
2.26371e+06
2.32176e+06
2.37555e+06
2.42482e+06
2.46943e+06
2.50933e+06
2.54457e+06
26622.8
47673
68395.8
89829.4
113380
139732
169218
201979
238016
277232
319458
364433
411810
461190
512209
564464
617558
671113
724848
778512
831934
885055
937904
990562
1.04322e+06
1.09616e+06
1.14966e+06
1.20403e+06
1.25965e+06
1.31692e+06
1.37614e+06
1.43753e+06
1.50124e+06
1.56727e+06
1.63549e+06
1.70564e+06
1.77732e+06
1.85e+06
1.92304e+06
1.9957e+06
2.06717e+06
2.13664e+06
2.20336e+06
2.2666e+06
2.3258e+06
2.38049e+06
2.43036e+06
2.47527e+06
2.51516e+06
2.54996e+06
27143.7
47852.9
66495.6
86397.7
108965
134700
163804
196371
232388
271751
314253
359587
407403
457284
508779
561429
614824
668585
722364
775912
829088
881859
934270
986479
1.03874e+06
1.09136e+06
1.14466e+06
1.19896e+06
1.25463e+06
1.31201e+06
1.37139e+06
1.43299e+06
1.49692e+06
1.56318e+06
1.63165e+06
1.70209e+06
1.77413e+06
1.84728e+06
1.92089e+06
1.99426e+06
2.06654e+06
2.13688e+06
2.2045e+06
2.26864e+06
2.32866e+06
2.38408e+06
2.43454e+06
2.47988e+06
2.52001e+06
2.55495e+06
27955.5
47975.1
64676.4
83646.4
105727
131139
160018
192455
228436
267860
310524
356155
404372
454724
506726
559920
613833
668051
722204
776018
829332
882065
934264
986105
1.03788e+06
1.08994e+06
1.14269e+06
1.19654e+06
1.25189e+06
1.30911e+06
1.36848e+06
1.43022e+06
1.49438e+06
1.56094e+06
1.62974e+06
1.7005e+06
1.77284e+06
1.84626e+06
1.92015e+06
1.99378e+06
2.06634e+06
2.13698e+06
2.20489e+06
2.26929e+06
2.32954e+06
2.38517e+06
2.43583e+06
2.48132e+06
2.52162e+06
2.55683e+06
22103.2
42385
61554.4
81251.9
103448
128729
157368
189517
225214
264394
306884
352440
400709
451267
503634
557312
611806
666649
721464
775939
829859
883122
935737
987835
1.03967e+06
1.09162e+06
1.1441e+06
1.19757e+06
1.25252e+06
1.30937e+06
1.3685e+06
1.43013e+06
1.49434e+06
1.56107e+06
1.63011e+06
1.7011e+06
1.7736e+06
1.84708e+06
1.92091e+06
1.99437e+06
2.0667e+06
2.13709e+06
2.20473e+06
2.26887e+06
2.32889e+06
2.38433e+06
2.43488e+06
2.48032e+06
2.52066e+06
2.55603e+06
9092.62
31913
56028.7
77681.4
100338
125596
153965
185655
220769
259294
301120
346069
393878
444178
496561
550530
605604
661324
717263
773089
828530
883397
937588
991108
1.04411e+06
1.09688e+06
1.14981e+06
1.20339e+06
1.25817e+06
1.3147e+06
1.37345e+06
1.43474e+06
1.49874e+06
1.56535e+06
1.63431e+06
1.70519e+06
1.77748e+06
1.85055e+06
1.92374e+06
1.99637e+06
2.06772e+06
2.13705e+06
2.2036e+06
2.26661e+06
2.32552e+06
2.3799e+06
2.42948e+06
2.47419e+06
2.51412e+06
2.54942e+06
823.101
21101.3
48969.3
72907.2
95989.6
120811
148208
178512
212014
248809
288930
332304
378777
428114
480037
534192
590125
647419
705644
764422
823445
882361
940804
998463
1.05512e+06
1.11073e+06
1.16551e+06
1.21992e+06
1.27459e+06
1.33028e+06
1.38773e+06
1.44752e+06
1.51e+06
1.5752e+06
1.64287e+06
1.71254e+06
1.78357e+06
1.85528e+06
1.92697e+06
1.99801e+06
2.06769e+06
2.13531e+06
2.20008e+06
2.26124e+06
2.31819e+06
2.37056e+06
2.41822e+06
2.46129e+06
2.50006e+06
2.53491e+06
-8219.41
11235.5
41722.7
67036.2
89852.2
113435
138834
166554
197118
230923
268172
308867
352940
400367
451046
504810
561444
620717
682414
746288
811981
878895
946158
1.01267e+06
1.07733e+06
1.13926e+06
1.1981e+06
1.25411e+06
1.30808e+06
1.36119e+06
1.41481e+06
1.47016e+06
1.52811e+06
1.58904e+06
1.65279e+06
1.71885e+06
1.7866e+06
1.8554e+06
1.92465e+06
1.99374e+06
2.06184e+06
2.12804e+06
2.19127e+06
2.25054e+06
2.30509e+06
2.35464e+06
2.39934e+06
2.43978e+06
2.4767e+06
2.5108e+06
-10781.1
10619.2
42593.7
67415.4
88330
108980
130415
153290
178589
207254
239739
276178
316506
360628
408517
460242
516055
576307
641409
711757
787421
867736
951007
1.03457e+06
1.11532e+06
1.1905e+06
1.25832e+06
1.31834e+06
1.3715e+06
1.4198e+06
1.46586e+06
1.5123e+06
1.5611e+06
1.61318e+06
1.66851e+06
1.72647e+06
1.78652e+06
1.84848e+06
1.91235e+06
1.97802e+06
2.04466e+06
2.11071e+06
2.17403e+06
2.23257e+06
2.28502e+06
2.33111e+06
2.37158e+06
2.40799e+06
2.44218e+06
2.47565e+06
-11253.5
19038.9
52625.4
74736
91357.1
106410
120665
135023
151228
171152
196098
226500
262065
302164
346324
394492
447255
505903
572260
648268
735431
833939
941387
1.05245e+06
1.16028e+06
1.25836e+06
1.34217e+06
1.41004e+06
1.46316e+06
1.50503e+06
1.54056e+06
1.57489e+06
1.61182e+06
1.65293e+06
1.69774e+06
1.74479e+06
1.79305e+06
1.84291e+06
1.89598e+06
1.95403e+06
2.01738e+06
2.08373e+06
2.14881e+06
2.20822e+06
2.25908e+06
2.30077e+06
2.33479e+06
2.36429e+06
2.39332e+06
2.42508e+06
1692.51
46644.1
82957.1
101971
113605
121641
126113
128071
130130
135957
148813
170238
199649
235287
275535
319675
368399
423955
489876
570588
670653
792846
934356
1.08528e+06
1.23169e+06
1.36023e+06
1.46169e+06
1.53297e+06
1.57664e+06
1.59977e+06
1.61225e+06
1.62447e+06
1.64382e+06
1.67261e+06
1.7089e+06
1.74877e+06
1.78916e+06
1.82978e+06
1.8735e+06
1.92476e+06
1.98643e+06
2.05589e+06
2.12556e+06
2.18757e+06
2.23712e+06
2.27329e+06
2.29846e+06
2.31798e+06
2.33991e+06
2.37062e+06
12619.1
79797.9
113055
120926
121774
117630
106706
89980.5
69893
52997.2
46389.8
53581.6
73222
101833
136355
175607
220779
275351
344798
436496
559443
722501
923979
1.14572e+06
1.36072e+06
1.54337e+06
1.67623e+06
1.75335e+06
1.77906e+06
1.76543e+06
1.73056e+06
1.69542e+06
1.67521e+06
1.67472e+06
1.69086e+06
1.71717e+06
1.74865e+06
1.78406e+06
1.82603e+06
1.87988e+06
1.95061e+06
2.03383e+06
2.11542e+06
2.18245e+06
2.22925e+06
2.25621e+06
2.2669e+06
2.26826e+06
2.27272e+06
2.29457e+06
51777.6
211332
252887
254874
248501
229810
197556
152276
93349.9
36519.7
-3447.69
-22623.3
-26496.9
-21318.8
-10611.6
5748.6
30782.7
69759.2
129595
219172
350944
545297
807277
1.10959e+06
1.40922e+06
1.66548e+06
1.85222e+06
1.9588e+06
1.98801e+06
1.95382e+06
1.87979e+06
1.79846e+06
1.73413e+06
1.69502e+06
1.68005e+06
1.68298e+06
1.69944e+06
1.72872e+06
1.77291e+06
1.83605e+06
1.92425e+06
2.03064e+06
2.13282e+06
2.21106e+06
2.25871e+06
2.27986e+06
2.2828e+06
2.27509e+06
2.26957e+06
2.28293e+06
130863
235032
251245
247000
240059
220901
188162
139337
76014
19799.2
-13314
-25598.9
-23957.6
-15240.7
-2761.61
14096.3
38508.6
75547.1
131649
214775
335499
509014
755226
1.06154e+06
1.37348e+06
1.64187e+06
1.84028e+06
1.95963e+06
2.0015e+06
1.97678e+06
1.90597e+06
1.81826e+06
1.74614e+06
1.7038e+06
1.68471e+06
1.68188e+06
1.69204e+06
1.7153e+06
1.75384e+06
1.81089e+06
1.89029e+06
1.99291e+06
2.10231e+06
2.1918e+06
2.24891e+06
2.27569e+06
2.28077e+06
2.27409e+06
2.26875e+06
2.28103e+06
3.62292e+06
3.62241e+06
3.62216e+06
3.62206e+06
3.62201e+06
3.62198e+06
3.62197e+06
3.62197e+06
3.62198e+06
3.62198e+06
3.62199e+06
3.622e+06
3.62201e+06
3.62201e+06
3.62202e+06
3.62201e+06
3.62201e+06
3.62201e+06
3.622e+06
3.62199e+06
3.62198e+06
3.62197e+06
3.62195e+06
3.62193e+06
3.62191e+06
3.62189e+06
3.62186e+06
3.62184e+06
3.62181e+06
3.62178e+06
3.62175e+06
3.62172e+06
3.62169e+06
3.62165e+06
3.62161e+06
3.62157e+06
3.62152e+06
3.62147e+06
3.62142e+06
3.62136e+06
3.62131e+06
3.62125e+06
3.6212e+06
3.62116e+06
3.62112e+06
3.62108e+06
3.62103e+06
3.62099e+06
3.62092e+06
3.62084e+06
3.62121e+06
3.62149e+06
3.6216e+06
3.62164e+06
3.62168e+06
3.6217e+06
3.62173e+06
3.62176e+06
3.62178e+06
3.62181e+06
3.62183e+06
3.62184e+06
3.62186e+06
3.62187e+06
3.62188e+06
3.62188e+06
3.62188e+06
3.62188e+06
3.62187e+06
3.62187e+06
3.62186e+06
3.62185e+06
3.62183e+06
3.62182e+06
3.6218e+06
3.62178e+06
3.62175e+06
3.62173e+06
3.6217e+06
3.62167e+06
3.62164e+06
3.62162e+06
3.62158e+06
3.62155e+06
3.62151e+06
3.62147e+06
3.62142e+06
3.62137e+06
3.62131e+06
3.62126e+06
3.6212e+06
3.62115e+06
3.6211e+06
3.62106e+06
3.62102e+06
3.62098e+06
3.62094e+06
3.6209e+06
3.62085e+06
3.62078e+06
3.62158e+06
3.62171e+06
3.62179e+06
3.6218e+06
3.6218e+06
3.6218e+06
3.6218e+06
3.6218e+06
3.62181e+06
3.62182e+06
3.62182e+06
3.62183e+06
3.62184e+06
3.62184e+06
3.62184e+06
3.62184e+06
3.62183e+06
3.62183e+06
3.62182e+06
3.62181e+06
3.6218e+06
3.62179e+06
3.62177e+06
3.62175e+06
3.62173e+06
3.62171e+06
3.62168e+06
3.62165e+06
3.62163e+06
3.6216e+06
3.62157e+06
3.62154e+06
3.62151e+06
3.62148e+06
3.62144e+06
3.62139e+06
3.62134e+06
3.62129e+06
3.62124e+06
3.62118e+06
3.62113e+06
3.62108e+06
3.62103e+06
3.62099e+06
3.62095e+06
3.62092e+06
3.62088e+06
3.62085e+06
3.62081e+06
3.62076e+06
3.62151e+06
3.62153e+06
3.62154e+06
3.62154e+06
3.62154e+06
3.62155e+06
3.62156e+06
3.62158e+06
3.6216e+06
3.62162e+06
3.62163e+06
3.62165e+06
3.62166e+06
3.62167e+06
3.62168e+06
3.62168e+06
3.62168e+06
3.62168e+06
3.62168e+06
3.62167e+06
3.62167e+06
3.62166e+06
3.62164e+06
3.62163e+06
3.62161e+06
3.62159e+06
3.62156e+06
3.62154e+06
3.62151e+06
3.62149e+06
3.62146e+06
3.62144e+06
3.62141e+06
3.62137e+06
3.62134e+06
3.62129e+06
3.62125e+06
3.6212e+06
3.62114e+06
3.62109e+06
3.62104e+06
3.62099e+06
3.62094e+06
3.62091e+06
3.62087e+06
3.62084e+06
3.62081e+06
3.62078e+06
3.62075e+06
3.62072e+06
3.62144e+06
3.62145e+06
3.62147e+06
3.62149e+06
3.62151e+06
3.62153e+06
3.62154e+06
3.62156e+06
3.62158e+06
3.62159e+06
3.62161e+06
3.62162e+06
3.62163e+06
3.62163e+06
3.62164e+06
3.62164e+06
3.62164e+06
3.62163e+06
3.62163e+06
3.62162e+06
3.62161e+06
3.6216e+06
3.62159e+06
3.62157e+06
3.62155e+06
3.62153e+06
3.6215e+06
3.62148e+06
3.62145e+06
3.62143e+06
3.6214e+06
3.62137e+06
3.62134e+06
3.62131e+06
3.62127e+06
3.62123e+06
3.62119e+06
3.62114e+06
3.62108e+06
3.62103e+06
3.62098e+06
3.62093e+06
3.62089e+06
3.62085e+06
3.62082e+06
3.6208e+06
3.62077e+06
3.62075e+06
3.62073e+06
3.6207e+06
3.62135e+06
3.62136e+06
3.62137e+06
3.62138e+06
3.62138e+06
3.62139e+06
3.62141e+06
3.62142e+06
3.62143e+06
3.62145e+06
3.62146e+06
3.62147e+06
3.62148e+06
3.62149e+06
3.62149e+06
3.6215e+06
3.6215e+06
3.6215e+06
3.6215e+06
3.62149e+06
3.62149e+06
3.62148e+06
3.62147e+06
3.62145e+06
3.62143e+06
3.62141e+06
3.62139e+06
3.62137e+06
3.62135e+06
3.62132e+06
3.6213e+06
3.62127e+06
3.62124e+06
3.62121e+06
3.62118e+06
3.62114e+06
3.62109e+06
3.62105e+06
3.621e+06
3.62095e+06
3.6209e+06
3.62085e+06
3.62081e+06
3.62078e+06
3.62076e+06
3.62073e+06
3.62072e+06
3.6207e+06
3.62068e+06
3.62067e+06
3.62126e+06
3.62126e+06
3.62127e+06
3.62128e+06
3.62129e+06
3.62131e+06
3.62132e+06
3.62134e+06
3.62136e+06
3.62138e+06
3.62139e+06
3.6214e+06
3.62141e+06
3.62142e+06
3.62143e+06
3.62143e+06
3.62143e+06
3.62143e+06
3.62143e+06
3.62143e+06
3.62143e+06
3.62142e+06
3.62141e+06
3.62139e+06
3.62137e+06
3.62135e+06
3.62133e+06
3.62131e+06
3.62129e+06
3.62126e+06
3.62124e+06
3.62121e+06
3.62119e+06
3.62116e+06
3.62112e+06
3.62108e+06
3.62104e+06
3.62099e+06
3.62094e+06
3.62089e+06
3.62085e+06
3.62081e+06
3.62077e+06
3.62074e+06
3.62072e+06
3.6207e+06
3.62068e+06
3.62067e+06
3.62066e+06
3.62065e+06
3.62117e+06
3.62117e+06
3.62117e+06
3.62118e+06
3.62119e+06
3.62121e+06
3.62122e+06
3.62124e+06
3.62125e+06
3.62127e+06
3.62128e+06
3.62129e+06
3.6213e+06
3.62131e+06
3.62131e+06
3.62131e+06
3.62132e+06
3.62132e+06
3.62132e+06
3.62132e+06
3.62132e+06
3.62131e+06
3.6213e+06
3.62129e+06
3.62127e+06
3.62125e+06
3.62123e+06
3.62121e+06
3.62119e+06
3.62117e+06
3.62115e+06
3.62112e+06
3.6211e+06
3.62107e+06
3.62104e+06
3.621e+06
3.62096e+06
3.62091e+06
3.62087e+06
3.62082e+06
3.62078e+06
3.62074e+06
3.62071e+06
3.62068e+06
3.62066e+06
3.62065e+06
3.62064e+06
3.62063e+06
3.62063e+06
3.62063e+06
3.62107e+06
3.62107e+06
3.62108e+06
3.62109e+06
3.6211e+06
3.62111e+06
3.62113e+06
3.62114e+06
3.62116e+06
3.62117e+06
3.62119e+06
3.6212e+06
3.62121e+06
3.62122e+06
3.62122e+06
3.62123e+06
3.62123e+06
3.62124e+06
3.62124e+06
3.62124e+06
3.62124e+06
3.62124e+06
3.62123e+06
3.62122e+06
3.6212e+06
3.62118e+06
3.62116e+06
3.62114e+06
3.62112e+06
3.6211e+06
3.62108e+06
3.62106e+06
3.62103e+06
3.62101e+06
3.62097e+06
3.62094e+06
3.6209e+06
3.62086e+06
3.62081e+06
3.62077e+06
3.62073e+06
3.62069e+06
3.62066e+06
3.62064e+06
3.62062e+06
3.62061e+06
3.62061e+06
3.62061e+06
3.62061e+06
3.62061e+06
3.62097e+06
3.62098e+06
3.62098e+06
3.62099e+06
3.621e+06
3.62101e+06
3.62103e+06
3.62104e+06
3.62106e+06
3.62107e+06
3.62109e+06
3.6211e+06
3.62111e+06
3.62112e+06
3.62112e+06
3.62113e+06
3.62113e+06
3.62114e+06
3.62114e+06
3.62115e+06
3.62115e+06
3.62114e+06
3.62114e+06
3.62113e+06
3.62111e+06
3.6211e+06
3.62108e+06
3.62106e+06
3.62104e+06
3.62102e+06
3.621e+06
3.62098e+06
3.62096e+06
3.62093e+06
3.6209e+06
3.62086e+06
3.62083e+06
3.62079e+06
3.62075e+06
3.62071e+06
3.62067e+06
3.62064e+06
3.62061e+06
3.62059e+06
3.62058e+06
3.62057e+06
3.62057e+06
3.62057e+06
3.62058e+06
3.62058e+06
3.62088e+06
3.62088e+06
3.62088e+06
3.62089e+06
3.6209e+06
3.62092e+06
3.62093e+06
3.62095e+06
3.62096e+06
3.62098e+06
3.62099e+06
3.621e+06
3.62101e+06
3.62102e+06
3.62103e+06
3.62103e+06
3.62104e+06
3.62105e+06
3.62105e+06
3.62106e+06
3.62106e+06
3.62106e+06
3.62105e+06
3.62104e+06
3.62103e+06
3.62102e+06
3.621e+06
3.62098e+06
3.62096e+06
3.62094e+06
3.62093e+06
3.6209e+06
3.62088e+06
3.62086e+06
3.62083e+06
3.6208e+06
3.62076e+06
3.62072e+06
3.62069e+06
3.62065e+06
3.62061e+06
3.62058e+06
3.62056e+06
3.62054e+06
3.62054e+06
3.62053e+06
3.62053e+06
3.62054e+06
3.62055e+06
3.62056e+06
3.62078e+06
3.62078e+06
3.62078e+06
3.62079e+06
3.62081e+06
3.62082e+06
3.62084e+06
3.62085e+06
3.62087e+06
3.62088e+06
3.62089e+06
3.62091e+06
3.62092e+06
3.62093e+06
3.62093e+06
3.62094e+06
3.62095e+06
3.62096e+06
3.62097e+06
3.62097e+06
3.62098e+06
3.62098e+06
3.62097e+06
3.62097e+06
3.62096e+06
3.62094e+06
3.62093e+06
3.62091e+06
3.62089e+06
3.62087e+06
3.62085e+06
3.62083e+06
3.62081e+06
3.62079e+06
3.62076e+06
3.62073e+06
3.6207e+06
3.62066e+06
3.62063e+06
3.62059e+06
3.62056e+06
3.62054e+06
3.62052e+06
3.6205e+06
3.6205e+06
3.62049e+06
3.6205e+06
3.62051e+06
3.62052e+06
3.62054e+06
3.62068e+06
3.62068e+06
3.62069e+06
3.6207e+06
3.62071e+06
3.62072e+06
3.62074e+06
3.62075e+06
3.62077e+06
3.62078e+06
3.62079e+06
3.6208e+06
3.62081e+06
3.62082e+06
3.62083e+06
3.62084e+06
3.62085e+06
3.62085e+06
3.62086e+06
3.62087e+06
3.62088e+06
3.62088e+06
3.62088e+06
3.62087e+06
3.62086e+06
3.62085e+06
3.62083e+06
3.62082e+06
3.6208e+06
3.62078e+06
3.62077e+06
3.62075e+06
3.62073e+06
3.6207e+06
3.62068e+06
3.62065e+06
3.62062e+06
3.62059e+06
3.62056e+06
3.62053e+06
3.6205e+06
3.62048e+06
3.62046e+06
3.62045e+06
3.62045e+06
3.62045e+06
3.62046e+06
3.62047e+06
3.62049e+06
3.62051e+06
3.62057e+06
3.62058e+06
3.62059e+06
3.6206e+06
3.62061e+06
3.62063e+06
3.62065e+06
3.62066e+06
3.62068e+06
3.6207e+06
3.62071e+06
3.62072e+06
3.62073e+06
3.62074e+06
3.62075e+06
3.62076e+06
3.62077e+06
3.62078e+06
3.62079e+06
3.6208e+06
3.62081e+06
3.62081e+06
3.62081e+06
3.62081e+06
3.6208e+06
3.62078e+06
3.62077e+06
3.62075e+06
3.62074e+06
3.62072e+06
3.6207e+06
3.62068e+06
3.62066e+06
3.62064e+06
3.62062e+06
3.62059e+06
3.62056e+06
3.62053e+06
3.6205e+06
3.62047e+06
3.62045e+06
3.62043e+06
3.62042e+06
3.62041e+06
3.62041e+06
3.62041e+06
3.62042e+06
3.62044e+06
3.62046e+06
3.62049e+06
3.62047e+06
3.62048e+06
3.62049e+06
3.6205e+06
3.62051e+06
3.62052e+06
3.62053e+06
3.62055e+06
3.62056e+06
3.62057e+06
3.62058e+06
3.62059e+06
3.6206e+06
3.62061e+06
3.62062e+06
3.62063e+06
3.62065e+06
3.62066e+06
3.62067e+06
3.62068e+06
3.62069e+06
3.62069e+06
3.6207e+06
3.62069e+06
3.62069e+06
3.62068e+06
3.62066e+06
3.62065e+06
3.62063e+06
3.62062e+06
3.6206e+06
3.62058e+06
3.62056e+06
3.62054e+06
3.62052e+06
3.6205e+06
3.62047e+06
3.62045e+06
3.62042e+06
3.6204e+06
3.62038e+06
3.62036e+06
3.62035e+06
3.62034e+06
3.62035e+06
3.62035e+06
3.62037e+06
3.62039e+06
3.62041e+06
3.62045e+06
3.62036e+06
3.62037e+06
3.6204e+06
3.62042e+06
3.62044e+06
3.62046e+06
3.62048e+06
3.6205e+06
3.62051e+06
3.62053e+06
3.62054e+06
3.62055e+06
3.62056e+06
3.62057e+06
3.62057e+06
3.62058e+06
3.62059e+06
3.62061e+06
3.62062e+06
3.62063e+06
3.62063e+06
3.62064e+06
3.62064e+06
3.62064e+06
3.62063e+06
3.62062e+06
3.62061e+06
3.62059e+06
3.62057e+06
3.62056e+06
3.62054e+06
3.62052e+06
3.6205e+06
3.62048e+06
3.62046e+06
3.62044e+06
3.62041e+06
3.62039e+06
3.62036e+06
3.62034e+06
3.62032e+06
3.62031e+06
3.6203e+06
3.6203e+06
3.6203e+06
3.62031e+06
3.62033e+06
3.62035e+06
3.62038e+06
3.62042e+06
3.62023e+06
3.62025e+06
3.62027e+06
3.62027e+06
3.62028e+06
3.62029e+06
3.6203e+06
3.62032e+06
3.62034e+06
3.62035e+06
3.62037e+06
3.62038e+06
3.62039e+06
3.62041e+06
3.62042e+06
3.62043e+06
3.62045e+06
3.62046e+06
3.62048e+06
3.62049e+06
3.6205e+06
3.62051e+06
3.62051e+06
3.62051e+06
3.62051e+06
3.6205e+06
3.62049e+06
3.62047e+06
3.62046e+06
3.62044e+06
3.62043e+06
3.62041e+06
3.62039e+06
3.62038e+06
3.62036e+06
3.62034e+06
3.62031e+06
3.62029e+06
3.62027e+06
3.62025e+06
3.62024e+06
3.62022e+06
3.62022e+06
3.62022e+06
3.62022e+06
3.62024e+06
3.62026e+06
3.62029e+06
3.62033e+06
3.62037e+06
3.62011e+06
3.62024e+06
3.62032e+06
3.62034e+06
3.62034e+06
3.62034e+06
3.62035e+06
3.62035e+06
3.62035e+06
3.62036e+06
3.62036e+06
3.62037e+06
3.62037e+06
3.62038e+06
3.62039e+06
3.6204e+06
3.62041e+06
3.62042e+06
3.62043e+06
3.62044e+06
3.62045e+06
3.62045e+06
3.62046e+06
3.62045e+06
3.62045e+06
3.62044e+06
3.62042e+06
3.62041e+06
3.62039e+06
3.62038e+06
3.62036e+06
3.62034e+06
3.62032e+06
3.62031e+06
3.62029e+06
3.62027e+06
3.62024e+06
3.62022e+06
3.6202e+06
3.62019e+06
3.62017e+06
3.62016e+06
3.62016e+06
3.62016e+06
3.62017e+06
3.62018e+06
3.62021e+06
3.62024e+06
3.62029e+06
3.62034e+06
3.61955e+06
3.61984e+06
3.61994e+06
3.61998e+06
3.62002e+06
3.62006e+06
3.62008e+06
3.62011e+06
3.62013e+06
3.62015e+06
3.62017e+06
3.62019e+06
3.6202e+06
3.62022e+06
3.62023e+06
3.62025e+06
3.62026e+06
3.62028e+06
3.62029e+06
3.62031e+06
3.62032e+06
3.62033e+06
3.62033e+06
3.62033e+06
3.62033e+06
3.62032e+06
3.62031e+06
3.62029e+06
3.62028e+06
3.62027e+06
3.62025e+06
3.62023e+06
3.62022e+06
3.6202e+06
3.62018e+06
3.62016e+06
3.62014e+06
3.62012e+06
3.6201e+06
3.62009e+06
3.62007e+06
3.62007e+06
3.62006e+06
3.62007e+06
3.62008e+06
3.62009e+06
3.62012e+06
3.62016e+06
3.62021e+06
3.62028e+06
3.62105e+06
3.62054e+06
3.6203e+06
3.62021e+06
3.62017e+06
3.62014e+06
3.62013e+06
3.62013e+06
3.62013e+06
3.62014e+06
3.62014e+06
3.62015e+06
3.62016e+06
3.62017e+06
3.62018e+06
3.62019e+06
3.6202e+06
3.62021e+06
3.62023e+06
3.62024e+06
3.62024e+06
3.62025e+06
3.62025e+06
3.62025e+06
3.62025e+06
3.62024e+06
3.62023e+06
3.62021e+06
3.6202e+06
3.62018e+06
3.62017e+06
3.62015e+06
3.62013e+06
3.62011e+06
3.6201e+06
3.62008e+06
3.62006e+06
3.62004e+06
3.62002e+06
3.62e+06
3.61999e+06
3.61998e+06
3.61998e+06
3.61998e+06
3.61999e+06
3.62001e+06
3.62004e+06
3.62009e+06
3.62014e+06
3.62022e+06
3.49847e+06
3.50374e+06
3.50447e+06
3.50878e+06
3.51017e+06
3.51332e+06
3.51489e+06
3.51689e+06
3.51806e+06
3.51905e+06
3.51956e+06
3.51982e+06
3.51984e+06
3.51988e+06
3.5198e+06
3.5203e+06
3.52033e+06
3.52183e+06
3.52195e+06
3.52474e+06
3.49719e+06
3.50249e+06
3.50322e+06
3.50757e+06
3.50898e+06
3.51215e+06
3.51374e+06
3.51576e+06
3.51694e+06
3.51793e+06
3.51844e+06
3.51868e+06
3.51871e+06
3.51875e+06
3.51867e+06
3.51916e+06
3.51919e+06
3.52068e+06
3.52082e+06
3.52369e+06
3.49583e+06
3.50119e+06
3.50191e+06
3.50631e+06
3.50773e+06
3.51092e+06
3.51253e+06
3.51456e+06
3.51575e+06
3.51674e+06
3.51725e+06
3.5175e+06
3.51752e+06
3.51756e+06
3.51748e+06
3.51797e+06
3.51802e+06
3.51957e+06
3.51982e+06
3.52287e+06
3.49439e+06
3.49982e+06
3.50053e+06
3.50497e+06
3.50641e+06
3.50962e+06
3.51126e+06
3.51329e+06
3.51448e+06
3.51547e+06
3.51598e+06
3.51622e+06
3.51625e+06
3.51629e+06
3.51621e+06
3.51671e+06
3.5168e+06
3.51842e+06
3.51873e+06
3.52192e+06
3.49288e+06
3.49837e+06
3.49907e+06
3.50356e+06
3.50502e+06
3.50825e+06
3.50991e+06
3.51195e+06
3.51315e+06
3.51413e+06
3.51464e+06
3.51487e+06
3.5149e+06
3.51494e+06
3.51486e+06
3.51535e+06
3.51543e+06
3.51704e+06
3.51732e+06
3.52054e+06
3.49129e+06
3.49685e+06
3.49755e+06
3.50209e+06
3.50355e+06
3.50681e+06
3.50848e+06
3.51052e+06
3.51173e+06
3.51271e+06
3.51321e+06
3.51344e+06
3.51347e+06
3.51351e+06
3.51343e+06
3.51392e+06
3.51398e+06
3.51559e+06
3.51584e+06
3.51908e+06
3.48963e+06
3.49526e+06
3.49595e+06
3.50054e+06
3.50202e+06
3.50529e+06
3.50697e+06
3.50902e+06
3.51023e+06
3.51121e+06
3.51171e+06
3.51193e+06
3.51195e+06
3.512e+06
3.51192e+06
3.51241e+06
3.51249e+06
3.51411e+06
3.51436e+06
3.51765e+06
3.48789e+06
3.4936e+06
3.49429e+06
3.49892e+06
3.50041e+06
3.5037e+06
3.50539e+06
3.50744e+06
3.50865e+06
3.50962e+06
3.51012e+06
3.51034e+06
3.51036e+06
3.5104e+06
3.51033e+06
3.51084e+06
3.51092e+06
3.51258e+06
3.51284e+06
3.51619e+06
3.48609e+06
3.49188e+06
3.49255e+06
3.49722e+06
3.49872e+06
3.50203e+06
3.50373e+06
3.50577e+06
3.50699e+06
3.50795e+06
3.50844e+06
3.50866e+06
3.50868e+06
3.50873e+06
3.50866e+06
3.50918e+06
3.50927e+06
3.51096e+06
3.51124e+06
3.51465e+06
3.48421e+06
3.49008e+06
3.49074e+06
3.49545e+06
3.49696e+06
3.50028e+06
3.50198e+06
3.50402e+06
3.50524e+06
3.50619e+06
3.50668e+06
3.50689e+06
3.50692e+06
3.50696e+06
3.5069e+06
3.50743e+06
3.50753e+06
3.50925e+06
3.50953e+06
3.513e+06
3.48226e+06
3.4882e+06
3.48885e+06
3.49361e+06
3.49511e+06
3.49844e+06
3.50015e+06
3.50219e+06
3.5034e+06
3.50435e+06
3.50483e+06
3.50503e+06
3.50506e+06
3.5051e+06
3.50504e+06
3.50559e+06
3.5057e+06
3.50745e+06
3.50773e+06
3.51126e+06
3.48023e+06
3.48625e+06
3.48689e+06
3.49168e+06
3.49319e+06
3.49653e+06
3.49823e+06
3.50027e+06
3.50147e+06
3.50241e+06
3.50288e+06
3.50308e+06
3.5031e+06
3.50315e+06
3.50309e+06
3.50366e+06
3.50377e+06
3.50555e+06
3.50584e+06
3.50943e+06
3.47813e+06
3.48421e+06
3.48484e+06
3.48967e+06
3.49118e+06
3.49453e+06
3.49624e+06
3.49826e+06
3.49945e+06
3.50037e+06
3.50083e+06
3.50102e+06
3.50104e+06
3.50109e+06
3.50104e+06
3.50163e+06
3.50175e+06
3.50357e+06
3.50387e+06
3.50753e+06
3.47595e+06
3.48211e+06
3.48274e+06
3.4876e+06
3.48911e+06
3.49247e+06
3.49416e+06
3.49617e+06
3.49734e+06
3.49824e+06
3.49868e+06
3.49886e+06
3.49888e+06
3.49893e+06
3.49889e+06
3.4995e+06
3.49965e+06
3.50151e+06
3.50182e+06
3.50555e+06
3.47372e+06
3.47996e+06
3.48057e+06
3.48547e+06
3.48698e+06
3.49033e+06
3.492e+06
3.49399e+06
3.49513e+06
3.49601e+06
3.49643e+06
3.49659e+06
3.49661e+06
3.49667e+06
3.49665e+06
3.49729e+06
3.49746e+06
3.49936e+06
3.49969e+06
3.5035e+06
3.47145e+06
3.47776e+06
3.47837e+06
3.4833e+06
3.48479e+06
3.48813e+06
3.48978e+06
3.49174e+06
3.49285e+06
3.49369e+06
3.49409e+06
3.49424e+06
3.49426e+06
3.49432e+06
3.49432e+06
3.495e+06
3.49519e+06
3.49715e+06
3.49749e+06
3.50138e+06
3.46915e+06
3.47553e+06
3.47614e+06
3.48109e+06
3.48256e+06
3.48589e+06
3.4875e+06
3.48943e+06
3.49049e+06
3.4913e+06
3.49166e+06
3.4918e+06
3.49182e+06
3.49188e+06
3.49191e+06
3.49263e+06
3.49284e+06
3.49485e+06
3.49521e+06
3.49919e+06
3.46685e+06
3.47329e+06
3.4739e+06
3.47885e+06
3.4803e+06
3.48361e+06
3.48517e+06
3.48705e+06
3.48807e+06
3.48883e+06
3.48916e+06
3.48928e+06
3.48929e+06
3.48937e+06
3.48943e+06
3.49018e+06
3.49043e+06
3.4925e+06
3.49288e+06
3.49693e+06
3.46454e+06
3.47104e+06
3.47165e+06
3.4766e+06
3.47802e+06
3.4813e+06
3.48281e+06
3.48464e+06
3.4856e+06
3.48631e+06
3.4866e+06
3.4867e+06
3.48671e+06
3.4868e+06
3.48689e+06
3.48768e+06
3.48796e+06
3.49009e+06
3.49049e+06
3.49463e+06
3.46224e+06
3.4688e+06
3.4694e+06
3.47434e+06
3.47573e+06
3.47897e+06
3.48043e+06
3.4822e+06
3.4831e+06
3.48376e+06
3.48401e+06
3.48408e+06
3.48409e+06
3.48419e+06
3.48431e+06
3.48515e+06
3.48546e+06
3.48765e+06
3.48807e+06
3.4923e+06
3.45996e+06
3.46657e+06
3.46716e+06
3.47209e+06
3.47345e+06
3.47665e+06
3.47804e+06
3.47976e+06
3.48059e+06
3.4812e+06
3.4814e+06
3.48144e+06
3.48145e+06
3.48156e+06
3.48172e+06
3.48261e+06
3.48296e+06
3.48521e+06
3.48565e+06
3.48998e+06
3.45771e+06
3.46435e+06
3.46495e+06
3.46987e+06
3.47119e+06
3.47435e+06
3.47569e+06
3.47735e+06
3.4781e+06
3.47865e+06
3.4788e+06
3.47882e+06
3.47882e+06
3.47895e+06
3.47915e+06
3.48009e+06
3.48047e+06
3.48279e+06
3.48326e+06
3.48767e+06
3.45551e+06
3.46218e+06
3.46278e+06
3.46768e+06
3.46898e+06
3.4721e+06
3.47338e+06
3.47498e+06
3.47567e+06
3.47616e+06
3.47626e+06
3.47625e+06
3.47625e+06
3.4764e+06
3.47663e+06
3.47762e+06
3.47804e+06
3.48042e+06
3.48092e+06
3.48542e+06
3.45337e+06
3.46006e+06
3.46068e+06
3.46556e+06
3.46684e+06
3.46993e+06
3.47115e+06
3.4727e+06
3.47331e+06
3.47375e+06
3.4738e+06
3.47377e+06
3.47376e+06
3.47393e+06
3.47419e+06
3.47523e+06
3.47568e+06
3.47813e+06
3.47866e+06
3.48325e+06
3.4513e+06
3.45802e+06
3.45866e+06
3.46352e+06
3.46479e+06
3.46784e+06
3.46902e+06
3.47051e+06
3.47107e+06
3.47145e+06
3.47147e+06
3.47142e+06
3.47139e+06
3.47158e+06
3.47188e+06
3.47296e+06
3.47344e+06
3.47595e+06
3.4765e+06
3.48117e+06
3.44934e+06
3.45608e+06
3.45674e+06
3.46158e+06
3.46285e+06
3.46587e+06
3.467e+06
3.46845e+06
3.46896e+06
3.4693e+06
3.46929e+06
3.46922e+06
3.46919e+06
3.46939e+06
3.46972e+06
3.47083e+06
3.47134e+06
3.47391e+06
3.47447e+06
3.47923e+06
3.4475e+06
3.45424e+06
3.45493e+06
3.45976e+06
3.46102e+06
3.46402e+06
3.46512e+06
3.46653e+06
3.46701e+06
3.46733e+06
3.46729e+06
3.46721e+06
3.46717e+06
3.46738e+06
3.46773e+06
3.46887e+06
3.4694e+06
3.47201e+06
3.4726e+06
3.47742e+06
3.44578e+06
3.45252e+06
3.45325e+06
3.45806e+06
3.45934e+06
3.46231e+06
3.4634e+06
3.46479e+06
3.46524e+06
3.46554e+06
3.46549e+06
3.4654e+06
3.46536e+06
3.46558e+06
3.46593e+06
3.46709e+06
3.46763e+06
3.47029e+06
3.47089e+06
3.47579e+06
3.44421e+06
3.45095e+06
3.45172e+06
3.45652e+06
3.45782e+06
3.46077e+06
3.46185e+06
3.46322e+06
3.46367e+06
3.46397e+06
3.46391e+06
3.46382e+06
3.46377e+06
3.46399e+06
3.46434e+06
3.46551e+06
3.46605e+06
3.46875e+06
3.46936e+06
3.47432e+06
3.4428e+06
3.44954e+06
3.45036e+06
3.45513e+06
3.45646e+06
3.45939e+06
3.46048e+06
3.46185e+06
3.4623e+06
3.4626e+06
3.46255e+06
3.46246e+06
3.4624e+06
3.46262e+06
3.46296e+06
3.46413e+06
3.46467e+06
3.4674e+06
3.46802e+06
3.47304e+06
3.44156e+06
3.44829e+06
3.44916e+06
3.45392e+06
3.45527e+06
3.45819e+06
3.4593e+06
3.46067e+06
3.46114e+06
3.46145e+06
3.4614e+06
3.4613e+06
3.46123e+06
3.46145e+06
3.46178e+06
3.46295e+06
3.46349e+06
3.46624e+06
3.46687e+06
3.47194e+06
3.44051e+06
3.44722e+06
3.44814e+06
3.45287e+06
3.45426e+06
3.45717e+06
3.45831e+06
3.45969e+06
3.46018e+06
3.46049e+06
3.46044e+06
3.46034e+06
3.46026e+06
3.46048e+06
3.46079e+06
3.46196e+06
3.4625e+06
3.46527e+06
3.4659e+06
3.47101e+06
3.43962e+06
3.44632e+06
3.44728e+06
3.45199e+06
3.45341e+06
3.45632e+06
3.45749e+06
3.45889e+06
3.4594e+06