/*--------------------------------*- C++ -*----------------------------------*\
  =========                 |
  \\      /  F ield         | OpenFOAM: The Open Source CFD Toolbox
   \\    /   O peration     | Website:  https://openfoam.org
    \\  /    A nd           | Version:  8
     \\/     M anipulation  |
\*---------------------------------------------------------------------------*/
FoamFile
{
    version     2.0;
    format      ascii;
    class       volScalarField;
    location    "500";
    object      p_rgh;
}
// * * * * * * * * * * * * * * * * * * * * * * * * * * * * * * * * * * * * * //

dimensions      [1 -1 -2 0 0 0 0];

internalField   nonuniform List<scalar> 
8400
(
24893.5
59317.7
94880.1
130712
167041
204076
242088
281384
322265
365014
409852
456937
506325
557954
611646
667117
723992
781867
840371
899166
957973
1.01666e+06
1.07523e+06
1.13374e+06
1.19238e+06
1.25137e+06
1.31094e+06
1.37133e+06
1.43271e+06
1.4952e+06
1.55879e+06
1.62345e+06
1.68904e+06
1.75531e+06
1.82197e+06
1.88873e+06
1.95525e+06
2.02121e+06
2.08627e+06
2.15012e+06
2.2125e+06
2.27312e+06
2.3318e+06
2.38836e+06
2.44271e+06
2.49471e+06
2.54426e+06
2.5919e+06
2.63991e+06
2.6902e+06
24758
58580.9
93621.6
128987
164927
201664
239467
278626
319426
362127
406944
454026
503408
555014
608650
664025
720787
778558
836969
895687
954456
1.01314e+06
1.07172e+06
1.13024e+06
1.18887e+06
1.24781e+06
1.30729e+06
1.36752e+06
1.42869e+06
1.49091e+06
1.55422e+06
1.61859e+06
1.68391e+06
1.74997e+06
1.81653e+06
1.88328e+06
1.9499e+06
2.01604e+06
2.08134e+06
2.14545e+06
2.20804e+06
2.26882e+06
2.32751e+06
2.3839e+06
2.43777e+06
2.48896e+06
2.53726e+06
2.58284e+06
2.62691e+06
2.67083e+06
24918.7
57734.4
91893.3
126474
161776
198040
235531
274519
315272
358033
402982
450225
499761
551476
605169
660564
717322
775088
833516
892284
951156
1.01e+06
1.06875e+06
1.12747e+06
1.18626e+06
1.24531e+06
1.30482e+06
1.365e+06
1.42604e+06
1.48806e+06
1.55116e+06
1.61536e+06
1.68061e+06
1.74675e+06
1.8136e+06
1.88086e+06
1.94822e+06
2.01529e+06
2.08169e+06
2.14702e+06
2.21087e+06
2.27289e+06
2.33273e+06
2.39012e+06
2.4448e+06
2.49661e+06
2.54535e+06
2.59106e+06
2.63432e+06
2.67578e+06
24252.7
55399.2
88258.1
121702
156050
191564
228524
267196
307826
350606
395675
443079
492763
544586
598340
653753
710490
768208
826595
885359
944268
1.00318e+06
1.06202e+06
1.12078e+06
1.17956e+06
1.23851e+06
1.29779e+06
1.35762e+06
1.41819e+06
1.47969e+06
1.54224e+06
1.60593e+06
1.67076e+06
1.73668e+06
1.80353e+06
1.87106e+06
1.93896e+06
2.00682e+06
2.07419e+06
2.14059e+06
2.20552e+06
2.26851e+06
2.32913e+06
2.38702e+06
2.44186e+06
2.49344e+06
2.54156e+06
2.58624e+06
2.62787e+06
2.66707e+06
23768.7
53493.3
85036.8
117215
150447
185073
221407
259716
300214
343047
388291
435934
485879
537953
591926
647499
704363
762197
820685
879548
938587
997617
1.05654e+06
1.11537e+06
1.17413e+06
1.23296e+06
1.29203e+06
1.35154e+06
1.41172e+06
1.47279e+06
1.53495e+06
1.59834e+06
1.66306e+06
1.72911e+06
1.79639e+06
1.86467e+06
1.93363e+06
2.00284e+06
2.07179e+06
2.13993e+06
2.20665e+06
2.27137e+06
2.33356e+06
2.39273e+06
2.4485e+06
2.50057e+06
2.54874e+06
2.59295e+06
2.63344e+06
2.67067e+06
22413.6
51090.3
81368.9
112222
144246
177889
213513
251384
291685
334517
379905
427788
478020
530382
584622
640442
697502
755479
814070
872994
932021
990989
1.04978e+06
1.10837e+06
1.16682e+06
1.22522e+06
1.28376e+06
1.34266e+06
1.4022e+06
1.46266e+06
1.5243e+06
1.58732e+06
1.65187e+06
1.718e+06
1.78567e+06
1.85467e+06
1.92466e+06
1.99519e+06
2.0657e+06
2.13554e+06
2.204e+06
2.2704e+06
2.33409e+06
2.39451e+06
2.45119e+06
2.50381e+06
2.55213e+06
2.5961e+06
2.63581e+06
2.67152e+06
21199.7
49658.1
78860.3
108436
139286
171979
206914
244348
284435
327251
372774
420894
471429
524151
578754
634915
692302
750573
809387
868470
927580
986521
1.04519e+06
1.10355e+06
1.16163e+06
1.21956e+06
1.27755e+06
1.33585e+06
1.39477e+06
1.45465e+06
1.51582e+06
1.57854e+06
1.643e+06
1.70931e+06
1.77743e+06
1.84719e+06
1.91827e+06
1.99017e+06
2.06229e+06
2.1339e+06
2.2042e+06
2.2724e+06
2.33776e+06
2.39962e+06
2.45744e+06
2.51083e+06
2.55957e+06
2.60357e+06
2.64283e+06
2.67744e+06
20286
48843.6
76799.7
105052
134805
166669
201012
238065
277961
320741
366352
414660
465453
518466
573386
629864
687540
746047
805054
864255
923398
982294
1.04084e+06
1.099e+06
1.15683e+06
1.21444e+06
1.27205e+06
1.32993e+06
1.38843e+06
1.4479e+06
1.5087e+06
1.57113e+06
1.63544e+06
1.70177e+06
1.77014e+06
1.84039e+06
1.91224e+06
1.98518e+06
2.05857e+06
2.13162e+06
2.20347e+06
2.27323e+06
2.34008e+06
2.40328e+06
2.46223e+06
2.51648e+06
2.56574e+06
2.60995e+06
2.64907e+06
2.68309e+06
21108.6
49410.3
75500.6
102473
131396
162702
196670
233500
273309
316126
361883
410424
461532
514909
570214
627074
685098
743898
803100
862382
921483
980218
1.03848e+06
1.09625e+06
1.1536e+06
1.21072e+06
1.26783e+06
1.32525e+06
1.38332e+06
1.44243e+06
1.50294e+06
1.5652e+06
1.62948e+06
1.69592e+06
1.76457e+06
1.83532e+06
1.90785e+06
1.98167e+06
2.0561e+06
2.13031e+06
2.20338e+06
2.27437e+06
2.34238e+06
2.40663e+06
2.46647e+06
2.52143e+06
2.5712e+06
2.61569e+06
2.65489e+06
2.68886e+06
22211.1
50035.5
74325.4
100479
128924
159872
193557
230182
269863
312627
358410
407064
458365
512016
567664
624918
683362
742593
802219
861889
921304
980238
1.03857e+06
1.09626e+06
1.15339e+06
1.21014e+06
1.26678e+06
1.32366e+06
1.38118e+06
1.43977e+06
1.49984e+06
1.56178e+06
1.62586e+06
1.69229e+06
1.7611e+06
1.83217e+06
1.90515e+06
1.97953e+06
2.0546e+06
2.12949e+06
2.20324e+06
2.27487e+06
2.34345e+06
2.40818e+06
2.4684e+06
2.52363e+06
2.57361e+06
2.61821e+06
2.6575e+06
2.69165e+06
17084.5
46314.6
72659.7
99334.4
127833
158650
192120
228489
267896
310384
355903
404332
455468
509038
564707
622089
680781
740364
800426
860592
920540
980019
1.03886e+06
1.09699e+06
1.15445e+06
1.21139e+06
1.26807e+06
1.32485e+06
1.38215e+06
1.44044e+06
1.50018e+06
1.56179e+06
1.62562e+06
1.69187e+06
1.76059e+06
1.83164e+06
1.90466e+06
1.97911e+06
2.05425e+06
2.12921e+06
2.20303e+06
2.27472e+06
2.34336e+06
2.40812e+06
2.46835e+06
2.52361e+06
2.5736e+06
2.61821e+06
2.65753e+06
2.69178e+06
5964.42
38388.2
69181.9
97604.9
126680
157721
191217
227445
266567
308645
353649
401481
451982
504933
560074
617076
675577
735193
795542
856263
917018
977524
1.03756e+06
1.09696e+06
1.15569e+06
1.21379e+06
1.27145e+06
1.32895e+06
1.38669e+06
1.44514e+06
1.50482e+06
1.56619e+06
1.62967e+06
1.6955e+06
1.76378e+06
1.83435e+06
1.90688e+06
1.98078e+06
2.05532e+06
2.12962e+06
2.20274e+06
2.27373e+06
2.34169e+06
2.40582e+06
2.46549e+06
2.52022e+06
2.56978e+06
2.61408e+06
2.65325e+06
2.68751e+06
-1704.3
30240.7
65896.8
97295.8
127636
159249
192819
228627
266926
307850
351432
397613
446306
497417
550818
606351
663805
722913
783376
844887
907147
969838
1.03264e+06
1.09523e+06
1.15731e+06
1.21868e+06
1.27925e+06
1.33909e+06
1.39847e+06
1.45781e+06
1.51767e+06
1.57861e+06
1.64117e+06
1.70575e+06
1.77254e+06
1.8415e+06
1.91233e+06
1.98447e+06
2.05721e+06
2.12972e+06
2.20109e+06
2.27042e+06
2.33685e+06
2.39958e+06
2.45798e+06
2.5116e+06
2.5602e+06
2.60379e+06
2.64253e+06
2.67673e+06
-8758.43
24673.6
64703.4
98973.2
130635
162798
196238
231168
267929
306815
347943
391297
436845
484639
534773
587343
642389
699916
759897
822250
886830
953366
1.02141e+06
1.0903e+06
1.15927e+06
1.22747e+06
1.29423e+06
1.35909e+06
1.42196e+06
1.48312e+06
1.54317e+06
1.6029e+06
1.66315e+06
1.72464e+06
1.78783e+06
1.85288e+06
1.9197e+06
1.98793e+06
2.05703e+06
2.12631e+06
2.19492e+06
2.26191e+06
2.32631e+06
2.38718e+06
2.44378e+06
2.49564e+06
2.54265e+06
2.58499e+06
2.62307e+06
2.6573e+06
-9785.13
28342.8
72565.3
109113
141744
174115
206854
239983
273961
309346
346405
385212
425823
468371
513107
560369
610575
664204
721767
783782
850632
922391
998621
1.07823e+06
1.15953e+06
1.24051e+06
1.31917e+06
1.39392e+06
1.46384e+06
1.52883e+06
1.58955e+06
1.64724e+06
1.70337e+06
1.75924e+06
1.81573e+06
1.8733e+06
1.93214e+06
1.99238e+06
2.05414e+06
2.11735e+06
2.18151e+06
2.2456e+06
2.30813e+06
2.36749e+06
2.42237e+06
2.47209e+06
2.51672e+06
2.55693e+06
2.59373e+06
2.62801e+06
-9489.52
40211.3
89611
127622
160483
192292
223215
253002
282210
311697
342145
373972
407406
442640
479943
519696
562523
609399
661635
720766
788319
865410
952130
1.04701e+06
1.14701e+06
1.24808e+06
1.34593e+06
1.43693e+06
1.51871e+06
1.59055e+06
1.65329e+06
1.70901e+06
1.76029e+06
1.80942e+06
1.85786e+06
1.90614e+06
1.95439e+06
2.00296e+06
2.05291e+06
2.10566e+06
2.16211e+06
2.2217e+06
2.28221e+06
2.34056e+06
2.39406e+06
2.44131e+06
2.48239e+06
2.51878e+06
2.55271e+06
2.58613e+06
3295.87
69465.6
125092
165068
198997
230936
260208
286100
308986
329975
350400
371514
394159
418862
445923
475630
508653
546337
590803
644875
711862
794882
895324
1.01134e+06
1.13761e+06
1.26646e+06
1.3896e+06
1.50003e+06
1.59333e+06
1.66833e+06
1.72702e+06
1.77376e+06
1.81371e+06
1.8512e+06
1.88879e+06
1.92722e+06
1.96609e+06
2.00501e+06
2.04493e+06
2.08842e+06
2.13831e+06
2.19513e+06
2.25572e+06
2.31487e+06
2.36805e+06
2.41291e+06
2.44964e+06
2.48084e+06
2.51109e+06
2.54402e+06
16191.5
104718
162173
198210
229471
258775
284030
303961
317917
326724
332416
337362
343226
351407
362519
377087
396248
422077
457706
507470
577034
673003
799517
954309
1.12816e+06
1.30709e+06
1.4758e+06
1.62112e+06
1.73446e+06
1.81319e+06
1.86089e+06
1.88634e+06
1.9e+06
1.91036e+06
1.92248e+06
1.93834e+06
1.95846e+06
1.98307e+06
2.01312e+06
2.05117e+06
2.10093e+06
2.16293e+06
2.23078e+06
2.29501e+06
2.34893e+06
2.39012e+06
2.41921e+06
2.44006e+06
2.46007e+06
2.48737e+06
39032.9
212360
283204
322099
357664
388113
410637
423487
424325
414619
398132
378366
356772
336106
317327
301696
291567
290462
302860
334284
392180
487933
630855
819611
1.04143e+06
1.27574e+06
1.4999e+06
1.69397e+06
1.84387e+06
1.94315e+06
1.99407e+06
2.00815e+06
2.00072e+06
1.98496e+06
1.96972e+06
1.95922e+06
1.95568e+06
1.9615e+06
1.97967e+06
2.01364e+06
2.06776e+06
2.14228e+06
2.22649e+06
2.30412e+06
2.36485e+06
2.40697e+06
2.43348e+06
2.44846e+06
2.46036e+06
2.48095e+06
135120
257539
299901
330203
363052
391518
412224
422579
421272
410616
395612
378218
359541
342089
326054
312408
303414
302268
313273
341708
394194
479949
611328
792929
1.01246e+06
1.248e+06
1.47604e+06
1.67633e+06
1.8342e+06
1.942e+06
2.00024e+06
2.01803e+06
2.01139e+06
1.99541e+06
1.97867e+06
1.96569e+06
1.95901e+06
1.96074e+06
1.97349e+06
2.00064e+06
2.04611e+06
2.11301e+06
2.1963e+06
2.27959e+06
2.34759e+06
2.39535e+06
2.4253e+06
2.44274e+06
2.45617e+06
2.47665e+06
3.80962e+06
3.80911e+06
3.80886e+06
3.80876e+06
3.8087e+06
3.80867e+06
3.80865e+06
3.80864e+06
3.80864e+06
3.80864e+06
3.80865e+06
3.80865e+06
3.80866e+06
3.80867e+06
3.80867e+06
3.80868e+06
3.80868e+06
3.80869e+06
3.80869e+06
3.80869e+06
3.8087e+06
3.8087e+06
3.8087e+06
3.8087e+06
3.8087e+06
3.8087e+06
3.8087e+06
3.80869e+06
3.80869e+06
3.80869e+06
3.80868e+06
3.80868e+06
3.80868e+06
3.80867e+06
3.80866e+06
3.80865e+06
3.80864e+06
3.80863e+06
3.80861e+06
3.80859e+06
3.80857e+06
3.80855e+06
3.80852e+06
3.80849e+06
3.80846e+06
3.80842e+06
3.80838e+06
3.80832e+06
3.80825e+06
3.80815e+06
3.80802e+06
3.8083e+06
3.8084e+06
3.80844e+06
3.80846e+06
3.80849e+06
3.80851e+06
3.80853e+06
3.80854e+06
3.80856e+06
3.80858e+06
3.80859e+06
3.80861e+06
3.80862e+06
3.80863e+06
3.80864e+06
3.80865e+06
3.80866e+06
3.80866e+06
3.80867e+06
3.80867e+06
3.80868e+06
3.80868e+06
3.80868e+06
3.80868e+06
3.80868e+06
3.80868e+06
3.80868e+06
3.80868e+06
3.80867e+06
3.80867e+06
3.80867e+06
3.80867e+06
3.80866e+06
3.80866e+06
3.80865e+06
3.80864e+06
3.80862e+06
3.80861e+06
3.80859e+06
3.80857e+06
3.80855e+06
3.80852e+06
3.80849e+06
3.80846e+06
3.80843e+06
3.80839e+06
3.80833e+06
3.80827e+06
3.80819e+06
3.80848e+06
3.80861e+06
3.80868e+06
3.80869e+06
3.80868e+06
3.80868e+06
3.80867e+06
3.80867e+06
3.80867e+06
3.80867e+06
3.80867e+06
3.80868e+06
3.80868e+06
3.80869e+06
3.80869e+06
3.80869e+06
3.8087e+06
3.8087e+06
3.8087e+06
3.80871e+06
3.80871e+06
3.80871e+06
3.80871e+06
3.80871e+06
3.80871e+06
3.80871e+06
3.80871e+06
3.8087e+06
3.8087e+06
3.8087e+06
3.80869e+06
3.80869e+06
3.80869e+06
3.80868e+06
3.80867e+06
3.80867e+06
3.80866e+06
3.80864e+06
3.80863e+06
3.80861e+06
3.80859e+06
3.80857e+06
3.80854e+06
3.80852e+06
3.80849e+06
3.80846e+06
3.80842e+06
3.80838e+06
3.80832e+06
3.80826e+06
3.8085e+06
3.80852e+06
3.80853e+06
3.80853e+06
3.80853e+06
3.80853e+06
3.80853e+06
3.80854e+06
3.80855e+06
3.80857e+06
3.80858e+06
3.80859e+06
3.8086e+06
3.80861e+06
3.80862e+06
3.80863e+06
3.80864e+06
3.80865e+06
3.80866e+06
3.80866e+06
3.80867e+06
3.80868e+06
3.80868e+06
3.80868e+06
3.80868e+06
3.80868e+06
3.80868e+06
3.80868e+06
3.80868e+06
3.80868e+06
3.80868e+06
3.80867e+06
3.80867e+06
3.80867e+06
3.80866e+06
3.80866e+06
3.80865e+06
3.80864e+06
3.80862e+06
3.80861e+06
3.80859e+06
3.80857e+06
3.80855e+06
3.80853e+06
3.8085e+06
3.80847e+06
3.80844e+06
3.80841e+06
3.80837e+06
3.80832e+06
3.80853e+06
3.80855e+06
3.80856e+06
3.80858e+06
3.80859e+06
3.8086e+06
3.80861e+06
3.80862e+06
3.80863e+06
3.80864e+06
3.80865e+06
3.80866e+06
3.80867e+06
3.80868e+06
3.80868e+06
3.80869e+06
3.80869e+06
3.8087e+06
3.80871e+06
3.80871e+06
3.80871e+06
3.80872e+06
3.80872e+06
3.80872e+06
3.80872e+06
3.80872e+06
3.80871e+06
3.80871e+06
3.80871e+06
3.80871e+06
3.8087e+06
3.8087e+06
3.8087e+06
3.8087e+06
3.80869e+06
3.80869e+06
3.80868e+06
3.80867e+06
3.80865e+06
3.80864e+06
3.80862e+06
3.8086e+06
3.80858e+06
3.80856e+06
3.80854e+06
3.80852e+06
3.8085e+06
3.80847e+06
3.80843e+06
3.8084e+06
3.80854e+06
3.80855e+06
3.80855e+06
3.80856e+06
3.80856e+06
3.80856e+06
3.80857e+06
3.80858e+06
3.80858e+06
3.80859e+06
3.8086e+06
3.80861e+06
3.80862e+06
3.80863e+06
3.80864e+06
3.80864e+06
3.80865e+06
3.80866e+06
3.80867e+06
3.80867e+06
3.80868e+06
3.80869e+06
3.80869e+06
3.80869e+06
3.80869e+06
3.80869e+06
3.80869e+06
3.80869e+06
3.80869e+06
3.80869e+06
3.80869e+06
3.80869e+06
3.80869e+06
3.80869e+06
3.80869e+06
3.80868e+06
3.80867e+06
3.80867e+06
3.80865e+06
3.80864e+06
3.80863e+06
3.80861e+06
3.8086e+06
3.80858e+06
3.80856e+06
3.80855e+06
3.80853e+06
3.80851e+06
3.80848e+06
3.80846e+06
3.80855e+06
3.80855e+06
3.80856e+06
3.80856e+06
3.80857e+06
3.80858e+06
3.80858e+06
3.80859e+06
3.80861e+06
3.80862e+06
3.80863e+06
3.80864e+06
3.80865e+06
3.80866e+06
3.80867e+06
3.80868e+06
3.80868e+06
3.80869e+06
3.8087e+06
3.80871e+06
3.80871e+06
3.80872e+06
3.80872e+06
3.80872e+06
3.80872e+06
3.80872e+06
3.80872e+06
3.80872e+06
3.80872e+06
3.80872e+06
3.80872e+06
3.80872e+06
3.80872e+06
3.80872e+06
3.80872e+06
3.80871e+06
3.80871e+06
3.8087e+06
3.80869e+06
3.80868e+06
3.80866e+06
3.80865e+06
3.80864e+06
3.80863e+06
3.80861e+06
3.8086e+06
3.80859e+06
3.80857e+06
3.80856e+06
3.80854e+06
3.80855e+06
3.80855e+06
3.80856e+06
3.80856e+06
3.80857e+06
3.80857e+06
3.80858e+06
3.80859e+06
3.80859e+06
3.8086e+06
3.80861e+06
3.80862e+06
3.80863e+06
3.80864e+06
3.80865e+06
3.80866e+06
3.80866e+06
3.80867e+06
3.80868e+06
3.80869e+06
3.80869e+06
3.8087e+06
3.8087e+06
3.80871e+06
3.80871e+06
3.80871e+06
3.80871e+06
3.80871e+06
3.80871e+06
3.80871e+06
3.80871e+06
3.80871e+06
3.80871e+06
3.80872e+06
3.80872e+06
3.80871e+06
3.80871e+06
3.8087e+06
3.8087e+06
3.80869e+06
3.80868e+06
3.80867e+06
3.80866e+06
3.80865e+06
3.80864e+06
3.80864e+06
3.80863e+06
3.80862e+06
3.80861e+06
3.8086e+06
3.80855e+06
3.80855e+06
3.80856e+06
3.80856e+06
3.80857e+06
3.80857e+06
3.80858e+06
3.80859e+06
3.8086e+06
3.80861e+06
3.80862e+06
3.80863e+06
3.80864e+06
3.80865e+06
3.80866e+06
3.80867e+06
3.80868e+06
3.80869e+06
3.8087e+06
3.8087e+06
3.80871e+06
3.80872e+06
3.80872e+06
3.80872e+06
3.80873e+06
3.80873e+06
3.80873e+06
3.80873e+06
3.80873e+06
3.80873e+06
3.80873e+06
3.80873e+06
3.80874e+06
3.80874e+06
3.80874e+06
3.80874e+06
3.80874e+06
3.80873e+06
3.80873e+06
3.80872e+06
3.80871e+06
3.80871e+06
3.8087e+06
3.8087e+06
3.80869e+06
3.80869e+06
3.80869e+06
3.80868e+06
3.80868e+06
3.80868e+06
3.80855e+06
3.80856e+06
3.80856e+06
3.80856e+06
3.80857e+06
3.80857e+06
3.80858e+06
3.80859e+06
3.8086e+06
3.80861e+06
3.80861e+06
3.80862e+06
3.80863e+06
3.80864e+06
3.80865e+06
3.80866e+06
3.80867e+06
3.80868e+06
3.80869e+06
3.8087e+06
3.80871e+06
3.80872e+06
3.80872e+06
3.80872e+06
3.80873e+06
3.80873e+06
3.80873e+06
3.80873e+06
3.80873e+06
3.80873e+06
3.80874e+06
3.80874e+06
3.80874e+06
3.80875e+06
3.80875e+06
3.80875e+06
3.80875e+06
3.80875e+06
3.80874e+06
3.80874e+06
3.80874e+06
3.80873e+06
3.80873e+06
3.80873e+06
3.80873e+06
3.80873e+06
3.80873e+06
3.80874e+06
3.80874e+06
3.80875e+06
3.80855e+06
3.80856e+06
3.80856e+06
3.80856e+06
3.80857e+06
3.80857e+06
3.80858e+06
3.80859e+06
3.8086e+06
3.80861e+06
3.80861e+06
3.80862e+06
3.80863e+06
3.80864e+06
3.80865e+06
3.80866e+06
3.80867e+06
3.80868e+06
3.80869e+06
3.8087e+06
3.80871e+06
3.80872e+06
3.80872e+06
3.80873e+06
3.80873e+06
3.80873e+06
3.80873e+06
3.80874e+06
3.80874e+06
3.80874e+06
3.80875e+06
3.80875e+06
3.80876e+06
3.80876e+06
3.80876e+06
3.80877e+06
3.80877e+06
3.80877e+06
3.80877e+06
3.80877e+06
3.80877e+06
3.80877e+06
3.80877e+06
3.80877e+06
3.80877e+06
3.80878e+06
3.80879e+06
3.8088e+06
3.80881e+06
3.80882e+06
3.80855e+06
3.80855e+06
3.80856e+06
3.80856e+06
3.80857e+06
3.80857e+06
3.80858e+06
3.80859e+06
3.8086e+06
3.80861e+06
3.80862e+06
3.80863e+06
3.80864e+06
3.80865e+06
3.80866e+06
3.80867e+06
3.80868e+06
3.80869e+06
3.8087e+06
3.80871e+06
3.80872e+06
3.80873e+06
3.80874e+06
3.80874e+06
3.80874e+06
3.80875e+06
3.80875e+06
3.80875e+06
3.80875e+06
3.80876e+06
3.80876e+06
3.80877e+06
3.80877e+06
3.80878e+06
3.80878e+06
3.80879e+06
3.80879e+06
3.80879e+06
3.80879e+06
3.80879e+06
3.8088e+06
3.8088e+06
3.8088e+06
3.80881e+06
3.80882e+06
3.80883e+06
3.80884e+06
3.80885e+06
3.80887e+06
3.80889e+06
3.80855e+06
3.80855e+06
3.80856e+06
3.80856e+06
3.80857e+06
3.80857e+06
3.80858e+06
3.80859e+06
3.80859e+06
3.8086e+06
3.80861e+06
3.80862e+06
3.80863e+06
3.80864e+06
3.80865e+06
3.80866e+06
3.80867e+06
3.80868e+06
3.80869e+06
3.8087e+06
3.80871e+06
3.80872e+06
3.80873e+06
3.80873e+06
3.80874e+06
3.80874e+06
3.80874e+06
3.80875e+06
3.80875e+06
3.80875e+06
3.80876e+06
3.80877e+06
3.80877e+06
3.80878e+06
3.80879e+06
3.80879e+06
3.8088e+06
3.8088e+06
3.80881e+06
3.80881e+06
3.80882e+06
3.80882e+06
3.80883e+06
3.80884e+06
3.80885e+06
3.80887e+06
3.80888e+06
3.8089e+06
3.80892e+06
3.80895e+06
3.80855e+06
3.80855e+06
3.80856e+06
3.80856e+06
3.80857e+06
3.80858e+06
3.80859e+06
3.8086e+06
3.80861e+06
3.80862e+06
3.80863e+06
3.80864e+06
3.80865e+06
3.80866e+06
3.80867e+06
3.80868e+06
3.80869e+06
3.8087e+06
3.80872e+06
3.80873e+06
3.80874e+06
3.80874e+06
3.80875e+06
3.80876e+06
3.80876e+06
3.80876e+06
3.80877e+06
3.80877e+06
3.80877e+06
3.80878e+06
3.80878e+06
3.80879e+06
3.8088e+06
3.80881e+06
3.80881e+06
3.80882e+06
3.80883e+06
3.80883e+06
3.80884e+06
3.80884e+06
3.80885e+06
3.80886e+06
3.80887e+06
3.80888e+06
3.8089e+06
3.80892e+06
3.80894e+06
3.80896e+06
3.80899e+06
3.80902e+06
3.80854e+06
3.80855e+06
3.80855e+06
3.80856e+06
3.80856e+06
3.80857e+06
3.80857e+06
3.80858e+06
3.80858e+06
3.80859e+06
3.8086e+06
3.80861e+06
3.80862e+06
3.80863e+06
3.80864e+06
3.80865e+06
3.80866e+06
3.80867e+06
3.80869e+06
3.8087e+06
3.80871e+06
3.80872e+06
3.80873e+06
3.80874e+06
3.80874e+06
3.80874e+06
3.80875e+06
3.80875e+06
3.80876e+06
3.80876e+06
3.80877e+06
3.80878e+06
3.80879e+06
3.8088e+06
3.80881e+06
3.80882e+06
3.80883e+06
3.80883e+06
3.80884e+06
3.80885e+06
3.80886e+06
3.80887e+06
3.80889e+06
3.8089e+06
3.80892e+06
3.80895e+06
3.80897e+06
3.809e+06
3.80904e+06
3.80907e+06
3.80853e+06
3.80854e+06
3.80856e+06
3.80858e+06
3.80859e+06
3.80861e+06
3.80862e+06
3.80862e+06
3.80863e+06
3.80864e+06
3.80865e+06
3.80866e+06
3.80867e+06
3.80867e+06
3.80868e+06
3.80869e+06
3.80871e+06
3.80872e+06
3.80873e+06
3.80874e+06
3.80875e+06
3.80876e+06
3.80876e+06
3.80877e+06
3.80877e+06
3.80878e+06
3.80878e+06
3.80878e+06
3.80879e+06
3.80879e+06
3.8088e+06
3.80881e+06
3.80882e+06
3.80883e+06
3.80884e+06
3.80885e+06
3.80885e+06
3.80886e+06
3.80887e+06
3.80888e+06
3.8089e+06
3.80891e+06
3.80893e+06
3.80894e+06
3.80897e+06
3.80899e+06
3.80902e+06
3.80906e+06
3.8091e+06
3.80914e+06
3.80849e+06
3.80852e+06
3.80853e+06
3.80853e+06
3.80853e+06
3.80853e+06
3.80854e+06
3.80855e+06
3.80855e+06
3.80856e+06
3.80858e+06
3.80859e+06
3.8086e+06
3.80861e+06
3.80863e+06
3.80864e+06
3.80865e+06
3.80867e+06
3.80868e+06
3.8087e+06
3.80871e+06
3.80872e+06
3.80873e+06
3.80874e+06
3.80875e+06
3.80875e+06
3.80876e+06
3.80876e+06
3.80877e+06
3.80877e+06
3.80878e+06
3.80879e+06
3.8088e+06
3.80881e+06
3.80882e+06
3.80884e+06
3.80885e+06
3.80886e+06
3.80887e+06
3.80888e+06
3.8089e+06
3.80891e+06
3.80893e+06
3.80896e+06
3.80898e+06
3.80901e+06
3.80905e+06
3.80909e+06
3.80913e+06
3.80919e+06
3.80847e+06
3.80861e+06
3.80868e+06
3.80869e+06
3.80869e+06
3.80868e+06
3.80868e+06
3.80867e+06
3.80867e+06
3.80867e+06
3.80867e+06
3.80867e+06
3.80868e+06
3.80868e+06
3.80869e+06
3.8087e+06
3.80871e+06
3.80872e+06
3.80873e+06
3.80874e+06
3.80875e+06
3.80876e+06
3.80877e+06
3.80877e+06
3.80878e+06
3.80878e+06
3.80879e+06
3.80879e+06
3.80879e+06
3.8088e+06
3.80881e+06
3.80882e+06
3.80883e+06
3.80884e+06
3.80885e+06
3.80886e+06
3.80887e+06
3.80888e+06
3.80889e+06
3.80891e+06
3.80892e+06
3.80894e+06
3.80896e+06
3.80899e+06
3.80901e+06
3.80905e+06
3.80909e+06
3.80913e+06
3.80918e+06
3.80925e+06
3.80802e+06
3.8083e+06
3.8084e+06
3.80844e+06
3.80847e+06
3.80849e+06
3.80851e+06
3.80853e+06
3.80855e+06
3.80856e+06
3.80858e+06
3.80859e+06
3.8086e+06
3.80862e+06
3.80863e+06
3.80865e+06
3.80866e+06
3.80868e+06
3.80869e+06
3.80871e+06
3.80872e+06
3.80873e+06
3.80874e+06
3.80875e+06
3.80875e+06
3.80876e+06
3.80876e+06
3.80877e+06
3.80878e+06
3.80878e+06
3.80879e+06
3.8088e+06
3.80881e+06
3.80883e+06
3.80884e+06
3.80885e+06
3.80886e+06
3.80888e+06
3.80889e+06
3.8089e+06
3.80892e+06
3.80894e+06
3.80896e+06
3.80899e+06
3.80902e+06
3.80905e+06
3.8091e+06
3.80915e+06
3.80921e+06
3.80928e+06
3.80961e+06
3.8091e+06
3.80885e+06
3.80876e+06
3.80871e+06
3.80868e+06
3.80866e+06
3.80865e+06
3.80864e+06
3.80864e+06
3.80865e+06
3.80865e+06
3.80866e+06
3.80867e+06
3.80868e+06
3.80869e+06
3.8087e+06
3.80871e+06
3.80872e+06
3.80873e+06
3.80874e+06
3.80875e+06
3.80876e+06
3.80877e+06
3.80877e+06
3.80878e+06
3.80878e+06
3.80879e+06
3.80879e+06
3.8088e+06
3.80881e+06
3.80882e+06
3.80883e+06
3.80884e+06
3.80885e+06
3.80886e+06
3.80887e+06
3.80889e+06
3.8089e+06
3.80892e+06
3.80893e+06
3.80895e+06
3.80897e+06
3.809e+06
3.80903e+06
3.80907e+06
3.80911e+06
3.80917e+06
3.80923e+06
3.80932e+06
3.67818e+06
3.68347e+06
3.68418e+06
3.68849e+06
3.68983e+06
3.69296e+06
3.69448e+06
3.69645e+06
3.69756e+06
3.69851e+06
3.69897e+06
3.6992e+06
3.69922e+06
3.69926e+06
3.6992e+06
3.6997e+06
3.69976e+06
3.7013e+06
3.70143e+06
3.70431e+06
3.67693e+06
3.68227e+06
3.68297e+06
3.68732e+06
3.68868e+06
3.69184e+06
3.69337e+06
3.69536e+06
3.69648e+06
3.69743e+06
3.69789e+06
3.69812e+06
3.69813e+06
3.69818e+06
3.69811e+06
3.69861e+06
3.69866e+06
3.70019e+06
3.70034e+06
3.70332e+06
3.67561e+06
3.681e+06
3.6817e+06
3.68609e+06
3.68747e+06
3.69065e+06
3.69221e+06
3.6942e+06
3.69533e+06
3.69628e+06
3.69675e+06
3.69697e+06
3.69699e+06
3.69703e+06
3.69697e+06
3.69749e+06
3.69758e+06
3.69918e+06
3.69944e+06
3.7026e+06
3.67421e+06
3.67967e+06
3.68036e+06
3.6848e+06
3.68619e+06
3.6894e+06
3.69097e+06
3.69298e+06
3.69412e+06
3.69508e+06
3.69554e+06
3.69576e+06
3.69578e+06
3.69583e+06
3.69577e+06
3.69631e+06
3.69644e+06
3.69813e+06
3.69848e+06
3.70179e+06
3.67275e+06
3.67827e+06
3.67896e+06
3.68344e+06
3.68485e+06
3.68808e+06
3.68968e+06
3.69169e+06
3.69285e+06
3.6938e+06
3.69427e+06
3.69449e+06
3.69451e+06
3.69455e+06
3.6945e+06
3.69503e+06
3.69514e+06
3.69682e+06
3.69714e+06
3.70049e+06
3.67122e+06
3.6768e+06
3.67748e+06
3.68202e+06
3.68345e+06
3.68669e+06
3.68831e+06
3.69034e+06
3.6915e+06
3.69246e+06
3.69293e+06
3.69314e+06
3.69316e+06
3.69321e+06
3.69314e+06
3.69367e+06
3.69376e+06
3.69543e+06
3.69571e+06
3.69908e+06
3.66961e+06
3.67527e+06
3.67595e+06
3.68053e+06
3.68197e+06
3.68524e+06
3.68688e+06
3.68891e+06
3.69008e+06
3.69104e+06
3.69151e+06
3.69172e+06
3.69174e+06
3.69179e+06
3.69172e+06
3.69225e+06
3.69234e+06
3.69402e+06
3.69429e+06
3.69771e+06
3.66794e+06
3.67367e+06
3.67434e+06
3.67897e+06
3.68043e+06
3.68371e+06
3.68537e+06
3.68741e+06
3.68859e+06
3.68954e+06
3.69001e+06
3.69023e+06
3.69025e+06
3.6903e+06
3.69023e+06
3.69076e+06
3.69086e+06
3.69257e+06
3.69284e+06
3.69631e+06
3.6662e+06
3.672e+06
3.67267e+06
3.67734e+06
3.67881e+06
3.68212e+06
3.68378e+06
3.68583e+06
3.68702e+06
3.68797e+06
3.68844e+06
3.68865e+06
3.68868e+06
3.68873e+06
3.68866e+06
3.6892e+06
3.6893e+06
3.69104e+06
3.69132e+06
3.69485e+06
3.66438e+06
3.67026e+06
3.67092e+06
3.67563e+06
3.67712e+06
3.68044e+06
3.68212e+06
3.68417e+06
3.68536e+06
3.68631e+06
3.68678e+06
3.68699e+06
3.68702e+06
3.68707e+06
3.687e+06
3.68755e+06
3.68766e+06
3.68943e+06
3.68971e+06
3.6933e+06
3.66249e+06
3.66844e+06
3.6691e+06
3.67386e+06
3.67535e+06
3.67869e+06
3.68038e+06
3.68243e+06
3.68362e+06
3.68457e+06
3.68504e+06
3.68524e+06
3.68527e+06
3.68532e+06
3.68526e+06
3.68582e+06
3.68593e+06
3.68773e+06
3.68801e+06
3.69167e+06
3.66052e+06
3.66655e+06
3.66721e+06
3.67201e+06
3.67351e+06
3.67686e+06
3.67856e+06
3.6806e+06
3.6818e+06
3.68274e+06
3.6832e+06
3.6834e+06
3.68343e+06
3.68348e+06
3.68342e+06
3.684e+06
3.68411e+06
3.68594e+06
3.68623e+06
3.68995e+06
3.65849e+06
3.6646e+06
3.66525e+06
3.67009e+06
3.67159e+06
3.67496e+06
3.67666e+06
3.67869e+06
3.67988e+06
3.68081e+06
3.68127e+06
3.68147e+06
3.68149e+06
3.68155e+06
3.68149e+06
3.68208e+06
3.6822e+06
3.68407e+06
3.68436e+06
3.68815e+06
3.65639e+06
3.66258e+06
3.66322e+06
3.6681e+06
3.66961e+06
3.67298e+06
3.67467e+06
3.6767e+06
3.67787e+06
3.67879e+06
3.67924e+06
3.67943e+06
3.67946e+06
3.67951e+06
3.67946e+06
3.68007e+06
3.68021e+06
3.68211e+06
3.68241e+06
3.68627e+06
3.65423e+06
3.6605e+06
3.66114e+06
3.66605e+06
3.66756e+06
3.67093e+06
3.67261e+06
3.67462e+06
3.67578e+06
3.67667e+06
3.67711e+06
3.67729e+06
3.67732e+06
3.67737e+06
3.67734e+06
3.67797e+06
3.67812e+06
3.68006e+06
3.68038e+06
3.68431e+06
3.65203e+06
3.65837e+06
3.659e+06
3.66394e+06
3.66544e+06
3.66881e+06
3.67047e+06
3.67246e+06
3.67359e+06
3.67446e+06
3.67488e+06
3.67505e+06
3.67508e+06
3.67514e+06
3.67512e+06
3.67578e+06
3.67594e+06
3.67794e+06
3.67827e+06
3.68228e+06
3.64978e+06
3.65619e+06
3.65682e+06
3.66178e+06
3.66327e+06
3.66662e+06
3.66826e+06
3.67022e+06
3.67132e+06
3.67216e+06
3.67255e+06
3.67271e+06
3.67274e+06
3.67281e+06
3.6728e+06
3.6735e+06
3.67369e+06
3.67573e+06
3.67608e+06
3.68018e+06
3.64749e+06
3.65397e+06
3.6546e+06
3.65957e+06
3.66104e+06
3.66438e+06
3.66598e+06
3.66791e+06
3.66897e+06
3.66978e+06
3.67014e+06
3.67028e+06
3.67031e+06
3.67038e+06
3.6704e+06
3.67114e+06
3.67136e+06
3.67346e+06
3.67383e+06
3.67801e+06
3.64518e+06
3.65173e+06
3.65235e+06
3.65733e+06
3.65878e+06
3.6621e+06
3.66366e+06
3.66555e+06
3.66656e+06
3.66732e+06
3.66765e+06
3.66777e+06
3.6678e+06
3.66789e+06
3.66793e+06
3.66871e+06
3.66896e+06
3.67113e+06
3.67152e+06
3.67579e+06
3.64286e+06
3.64946e+06
3.65008e+06
3.65507e+06
3.6565e+06
3.65978e+06
3.6613e+06
3.66314e+06
3.66409e+06
3.66481e+06
3.6651e+06
3.6652e+06
3.66523e+06
3.66533e+06
3.6654e+06
3.66623e+06
3.66651e+06
3.66875e+06
3.66917e+06
3.67353e+06
3.64054e+06
3.64719e+06
3.64781e+06
3.6528e+06
3.6542e+06
3.65746e+06
3.65892e+06
3.66071e+06
3.6616e+06
3.66226e+06
3.66251e+06
3.66259e+06
3.66261e+06
3.66273e+06
3.66284e+06
3.66372e+06
3.66404e+06
3.66634e+06
3.6668e+06
3.67124e+06
3.63824e+06
3.64494e+06
3.64556e+06
3.65053e+06
3.65191e+06
3.65513e+06
3.65654e+06
3.65827e+06
3.6591e+06
3.6597e+06
3.6599e+06
3.65996e+06
3.65998e+06
3.66011e+06
3.66026e+06
3.66119e+06
3.66156e+06
3.66394e+06
3.66442e+06
3.66896e+06
3.63597e+06
3.64271e+06
3.64334e+06
3.6483e+06
3.64966e+06
3.65284e+06
3.65419e+06
3.65585e+06
3.65661e+06
3.65716e+06
3.65731e+06
3.65734e+06
3.65736e+06
3.65751e+06
3.6577e+06
3.65869e+06
3.6591e+06
3.66155e+06
3.66206e+06
3.6667e+06
3.63376e+06
3.64053e+06
3.64117e+06
3.64612e+06
3.64745e+06
3.65059e+06
3.65188e+06
3.65349e+06
3.65417e+06
3.65467e+06
3.65477e+06
3.65477e+06
3.65478e+06
3.65495e+06
3.65519e+06
3.65624e+06
3.65669e+06
3.65921e+06
3.65976e+06
3.66448e+06
3.63162e+06
3.63842e+06
3.63908e+06
3.64401e+06
3.64532e+06
3.64842e+06
3.64965e+06
3.6512e+06
3.65182e+06
3.65225e+06
3.65231e+06
3.65229e+06
3.65229e+06
3.65248e+06
3.65276e+06
3.65386e+06
3.65436e+06
3.65695e+06
3.65753e+06
3.66235e+06
3.62958e+06
3.6364e+06
3.63708e+06
3.64198e+06
3.64329e+06
3.64634e+06
3.64752e+06
3.64901e+06
3.64957e+06
3.64995e+06
3.64997e+06
3.64993e+06
3.64993e+06
3.65014e+06
3.65046e+06
3.65161e+06
3.65214e+06
3.6548e+06
3.65541e+06
3.66031e+06
3.62765e+06
3.63449e+06
3.63519e+06
3.64008e+06
3.64137e+06
3.64438e+06
3.64552e+06
3.64696e+06
3.64747e+06
3.64781e+06
3.64779e+06
3.64773e+06
3.64772e+06
3.64795e+06
3.6483e+06
3.6495e+06
3.65006e+06
3.65279e+06
3.65342e+06
3.6584e+06
3.62586e+06
3.6327e+06
3.63344e+06
3.6383e+06
3.63959e+06
3.64256e+06
3.64368e+06
3.64507e+06
3.64554e+06
3.64585e+06
3.6458e+06
3.64573e+06
3.64571e+06
3.64595e+06
3.64633e+06
3.64756e+06
3.64815e+06
3.65094e+06
3.65159e+06
3.65665e+06
3.62422e+06
3.63106e+06
3.63183e+06
3.63667e+06
3.63796e+06
3.64091e+06
3.642e+06
3.64337e+06
3.64381e+06
3.64409e+06
3.64403e+06
3.64395e+06
3.64392e+06
3.64417e+06
3.64456e+06
3.64582e+06
3.64643e+06
3.64926e+06
3.64994e+06
3.65506e+06
3.62274e+06
3.62958e+06
3.63039e+06
3.6352e+06
3.63651e+06
3.63944e+06
3.64052e+06
3.64187e+06
3.6423e+06
3.64257e+06
3.64249e+06
3.6424e+06
3.64236e+06
3.64263e+06
3.64302e+06
3.6443e+06
3.64492e+06
3.64779e+06
3.64848e+06
3.65366e+06
3.62143e+06
3.62826e+06
3.62912e+06
3.63391e+06
3.63524e+06
3.63815e+06
3.63924e+06
3.64059e+06
3.64102e+06
3.64128e+06
3.64119e+06
3.6411e+06
3.64105e+06
3.64132e+06
3.64171e+06
3.643e+06
3.64362e+06
3.64652e+06
3.64723e+06
3.65246e+06
3.6203e+06
3.62712e+06
3.62803e+06
3.63279e+06
3.63415e+06
3.63705e+06
3.63817e+06
3.63952e+06
3.63996e+06
3.64022e+06
3.64014e+06
3.64004e+06
3.63998e+06
3.64025e+06
3.64064e+06
3.64193e+06
3.64255e+06
3.64547e+06
3.64618e+06
3.65145e+06
3.61935e+06
3.62616e+06
3.62711e+06