/*--------------------------------*- C++ -*----------------------------------*\
  =========                 |
  \\      /  F ield         | OpenFOAM: The Open Source CFD Toolbox
   \\    /   O peration     | Website:  https://openfoam.org
    \\  /    A nd           | Version:  8
     \\/     M anipulation  |
\*---------------------------------------------------------------------------*/
FoamFile
{
    version     2.0;
    format      ascii;
    class       surfaceScalarField;
    location    "500";
    object      phi;
}
// * * * * * * * * * * * * * * * * * * * * * * * * * * * * * * * * * * * * * //

dimensions      [1 0 -1 0 0 0 0];

internalField   nonuniform List<scalar> 
16360
(
-8.63265
-0.0300671
-8.60195
-0.0306958
-8.57004
-0.0319141
-8.53639
-0.0336536
-8.50047
-0.0359129
-8.4618
-0.0386754
-8.41992
-0.0418997
-8.37441
-0.0455186
-8.32495
-0.0494536
-8.27132
-0.0536161
-8.21339
-0.0579139
-8.15114
-0.0622524
-8.08462
-0.0665233
-8.01401
-0.0706257
-7.93955
-0.074469
-7.86158
-0.0779779
-7.78046
-0.0810914
-7.69669
-0.0838005
-7.61067
-0.0860616
-7.52279
-0.08785
-7.43355
-0.0892411
-7.3433
-0.0902748
-7.25229
-0.0910071
-7.1608
-0.0915134
-7.06893
-0.091881
-6.97676
-0.092216
-6.88418
-0.0925663
-6.79109
-0.0930464
-6.69732
-0.093738
-6.60264
-0.0946681
-6.50682
-0.0958422
-6.40961
-0.0972485
-6.31078
-0.0988365
-6.21019
-0.100552
-6.10785
-0.102314
-6.00383
-0.104016
-5.89833
-0.105537
-5.79163
-0.106738
-5.68414
-0.107514
-5.57637
-0.107786
-5.46887
-0.107488
-5.36221
-0.106629
-5.25693
-0.105269
-5.15344
-0.103477
-5.05201
-0.101402
-4.95268
-0.0993262
-4.85517
-0.0975531
-4.7588
-0.0963569
-4.66257
-0.0961827
-0.0994593
-4.56312
-8.50174
-0.0612598
-8.46981
-0.0626295
-8.43664
-0.0650854
-8.40174
-0.0685517
-8.36462
-0.0730389
-8.32481
-0.0785067
-8.28187
-0.0848628
-8.23541
-0.0919769
-8.18514
-0.0996975
-8.13087
-0.10786
-8.07252
-0.116268
-8.01007
-0.124714
-7.94361
-0.132993
-7.87333
-0.14091
-7.79951
-0.148285
-7.72248
-0.155004
-7.64265
-0.160949
-7.56046
-0.166019
-7.47631
-0.170209
-7.39062
-0.173521
-7.30384
-0.176045
-7.21629
-0.177871
-7.12819
-0.179085
-7.03981
-0.179913
-6.95121
-0.180491
-6.86238
-0.180992
-6.77328
-0.181644
-6.68372
-0.1826
-6.59349
-0.183961
-6.50233
-0.185805
-6.40999
-0.18817
-6.3162
-0.191041
-6.22071
-0.194322
-6.12339
-0.197862
-6.02422
-0.201499
-5.92327
-0.205002
-5.82074
-0.208087
-5.71695
-0.210515
-5.61235
-0.212084
-5.50747
-0.212612
-5.40294
-0.21198
-5.29941
-0.210167
-5.19747
-0.207222
-5.09765
-0.203276
-5.00044
-0.1986
-4.90614
-0.193611
-4.81493
-0.188789
-4.72666
-0.184635
-4.64079
-0.182097
-0.183143
-4.55714
-8.22405
-0.0957489
-8.18906
-0.0976185
-8.15292
-0.101227
-8.11514
-0.10634
-8.07527
-0.112931
-8.03288
-0.120923
-7.98756
-0.130174
-7.93902
-0.1405
-7.88703
-0.151669
-7.83147
-0.163408
-7.7723
-0.175434
-7.70959
-0.187447
-7.64346
-0.199124
-7.57416
-0.210198
-7.50201
-0.220464
-7.42733
-0.229707
-7.3505
-0.237742
-7.27199
-0.244513
-7.19214
-0.25001
-7.11137
-0.254268
-7.03005
-0.257365
-6.94838
-0.25947
-6.86664
-0.260818
-6.78491
-0.261598
-6.70321
-0.262133
-6.62152
-0.262704
-6.53966
-0.263546
-6.45735
-0.264882
-6.37434
-0.266919
-6.29031
-0.269795
-6.20495
-0.273552
-6.1179
-0.278084
-6.02889
-0.283261
-5.93776
-0.288931
-5.84445
-0.294763
-5.74898
-0.300367
-5.65159
-0.305397
-5.55263
-0.309475
-5.45251
-0.312215
-5.35182
-0.313315
-5.2512
-0.312621
-5.15133
-0.310077
-5.0528
-0.305734
-4.9562
-0.299832
-4.86209
-0.292741
-4.77079
-0.284931
-4.68257
-0.276983
-4.59761
-0.269559
-4.51607
-0.263617
-0.26098
-4.43825
-7.71566
-0.13353
-7.67671
-0.136569
-7.63657
-0.14138
-7.59499
-0.147932
-7.55165
-0.156293
-7.50619
-0.166386
-7.45831
-0.178031
-7.40782
-0.190971
-7.35458
-0.204891
-7.29855
-0.219435
-7.23979
-0.234216
-7.17839
-0.248838
-7.11456
-0.262942
-7.04859
-0.276197
-6.98078
-0.288308
-6.91141
-0.299018
-6.84089
-0.30821
-6.76963
-0.315818
-6.69786
-0.32177
-6.62593
-0.32614
-6.55413
-0.329167
-6.4826
-0.330984
-6.41142
-0.331905
-6.34069
-0.33234
-6.27029
-0.33256
-6.20007
-0.332924
-6.12976
-0.333819
-6.05904
-0.335553
-5.98756
-0.338362
-5.91491
-0.342406
-5.84066
-0.347693
-5.76446
-0.35417
-5.68608
-0.361672
-5.60523
-0.369814
-5.52182
-0.378168
-5.43598
-0.386271
-5.34792
-0.393555
-5.25798
-0.399444
-5.16669
-0.403463
-5.07473
-0.405244
-4.98283
-0.404524
-4.89173
-0.401203
-4.80215
-0.395367
-4.71478
-0.387257
-4.63022
-0.377353
-4.54893
-0.366237
-4.47125
-0.354631
-4.39741
-0.34337
-4.32758
-0.333401
-0.326088
-4.26246
-6.9299
-0.174792
-6.88761
-0.17886
-6.84467
-0.184326
-6.80094
-0.191687
-6.75612
-0.201126
-6.70992
-0.212573
-6.66213
-0.225795
-6.61262
-0.240456
-6.56135
-0.256166
-6.50833
-0.272464
-6.45367
-0.288891
-6.3975
-0.305003
-6.34003
-0.320406
-6.28153
-0.334699
-6.22223
-0.347588
-6.16242
-0.35885
-6.10242
-0.368286
-6.04244
-0.375799
-5.98269
-0.381451
-5.9235
-0.385397
-5.86488
-0.38775
-5.80698
-0.388876
-5.74985
-0.389116
-5.69329
-0.388843
-5.6372
-0.388575
-5.58137
-0.388789
-5.5254
-0.389832
-5.46888
-0.392084
-5.41142
-0.395865
-5.35249
-0.40133
-5.29166
-0.408541
-5.22857
-0.41737
-5.16286
-0.427461
-5.0943
-0.438388
-5.02284
-0.449636
-4.94859
-0.460523
-4.87182
-0.470294
-4.79299
-0.478238
-4.71269
-0.483737
-4.63165
-0.486291
-4.55068
-0.485535
-4.47057
-0.48134
-4.3921
-0.47382
-4.31605
-0.463303
-4.24304
-0.450332
-4.17359
-0.435635
-4.10819
-0.420025
-4.04714
-0.404436
-3.99074
-0.38982
-0.377487
-3.93936
-5.87095
-0.215995
-5.82928
-0.220536
-5.78806
-0.225556
-5.7471
-0.232676
-5.70597
-0.242244
-5.66438
-0.254142
-5.62211
-0.268038
-5.5791
-0.283492
-5.53528
-0.299986
-5.49071
-0.317016
-5.44548
-0.334113
-5.39971
-0.350773
-5.35352
-0.366548
-5.30716
-0.381117
-5.26075
-0.394082
-5.21442
-0.405148
-5.16841
-0.414254
-5.12286
-0.421371
-5.07788
-0.426457
-5.03358
-0.4297
-4.99002
-0.431356
-4.94718
-0.431722
-4.90502
-0.431299
-4.8634
-0.430564
-4.82207
-0.429997
-4.78069
-0.430134
-4.73891
-0.431569
-4.6963
-0.434713
-4.65235
-0.439815
-4.60658
-0.4471
-4.5585
-0.456597
-4.50768
-0.468098
-4.45386
-0.481227
-4.3969
-0.49541
-4.33677
-0.509854
-4.27364
-0.523672
-4.20795
-0.535988
-4.14031
-0.545919
-4.07148
-0.552635
-4.00228
-0.555496
-3.9337
-0.554125
-3.86664
-0.548404
-3.80191
-0.538514
-3.74034
-0.524878
-3.6825
-0.508157
-3.62884
-0.489203
-3.57988
-0.469022
-3.53581
-0.448561
-3.49679
-0.428807
-0.411039
-3.46317
-4.60643
-0.254514
-4.57023
-0.256737
-4.5366
-0.2592
-4.50444
-0.264833
-4.47292
-0.273741
-4.44158
-0.285479
-4.41018
-0.299449
-4.37861
-0.315051
-4.34687
-0.331708
-4.31504
-0.348865
-4.28315
-0.365984
-4.25129
-0.382611
-4.21961
-0.398282
-4.18816
-0.41252
-4.157
-0.425099
-4.1263
-0.435844
-4.09611
-0.444559
-4.06634
-0.451117
-4.03712
-0.455715
-4.00838
-0.458458
-3.98006
-0.459617
-3.95216
-0.459647
-3.92451
-0.458979
-3.89688
-0.45811
-3.86907
-0.457719
-3.8408
-0.458476
-3.81156
-0.46084
-3.78088
-0.465288
-3.74838
-0.472281
-3.71355
-0.481985
-3.67584
-0.494331
-3.63487
-0.509071
-3.59041
-0.525712
-3.54232
-0.543494
-3.49066
-0.561468
-3.43577
-0.578563
-3.37821
-0.593609
-3.31874
-0.605438
-3.25835
-0.613036
-3.19814
-0.615672
-3.13931
-0.612903
-3.08305
-0.604644
-3.03032
-0.591186
-2.98211
-0.573146
-2.93903
-0.551361
-2.90148
-0.526824
-2.86977
-0.500734
-2.84394
-0.474345
-2.824
-0.448832
-0.425301
-2.80968
-3.24125
-0.288818
-3.21468
-0.283297
-3.19338
-0.280498
-3.17405
-0.284157
-3.15522
-0.292565
-3.13634
-0.304355
-3.11725
-0.318535
-3.09789
-0.334362
-3.07836
-0.351185
-3.0588
-0.368424
-3.03935
-0.38547
-3.02013
-0.401768
-3.00128
-0.416961
-2.98307
-0.430745
-2.96553
-0.442732
-2.94868
-0.452701
-2.93251
-0.460649
-2.91704
-0.466662
-2.90211
-0.470723
-2.88753
-0.473054
-2.87316
-0.474029
-2.85881
-0.474054
-2.84418
-0.473561
-2.82907
-0.47319
-2.81325
-0.473607
-2.79626
-0.475419
-2.77773
-0.47927
-2.75736
-0.485702
-2.7347
-0.495056
-2.70925
-0.507498
-2.68054
-0.523015
-2.64825
-0.541339
-2.61214
-0.561844
-2.57205
-0.583596
-2.52807
-0.605472
-2.48049
-0.626158
-2.42986
-0.644219
-2.37699
-0.658258
-2.32296
-0.667041
-2.269
-0.669623
-2.2165
-0.665414
-2.16696
-0.654249
-2.12167
-0.636489
-2.08201
-0.612857
-2.04895
-0.584381
-2.02326
-0.552452
-2.00548
-0.518529
-1.99561
-0.484143
-1.99343
-0.451011
-0.420448
-1.99821
-1.88822
-0.327517
-1.87428
-0.297213
-1.86771
-0.287051
-1.86141
-0.290482
-1.85383
-0.300119
-1.84495
-0.313181
-1.83491
-0.32855
-1.82379
-0.345458
-1.81184
-0.363158
-1.7993
-0.380925
-1.78648
-0.398152
-1.77383
-0.414454
-1.76169
-0.429267
-1.75038
-0.442158
-1.7402
-0.45287
-1.73146
-0.461504
-1.72422
-0.467994
-1.71833
-0.472485
-1.71366
-0.475255
-1.70994
-0.476688
-1.70678
-0.477256
-1.70359
-0.477282
-1.69992
-0.477307
-1.69535
-0.47792
-1.68948
-0.479678
-1.68188
-0.483154
-1.67216
-0.488966
-1.6601
-0.497714
-1.64543
-0.509734
-1.62785
-0.525128
-1.60706
-0.543853
-1.58281
-0.565586
-1.55491
-0.589641
-1.52338
-0.615038
-1.48831
-0.640505
-1.44999
-0.664488
-1.40888
-0.685336
-1.36566
-0.701516
-1.32123
-0.711589
-1.2765
-0.714357
-1.23262
-0.709203
-1.19096
-0.69597
-1.15259
-0.674811
-1.11892
-0.64647
-1.09125
-0.612011
-1.07077
-0.572882
-1.05865
-0.530673
-1.05573
-0.487057
-1.06246
-0.444298
-0.404415
-1.07854
-0.60241
-0.384931
-0.60895
-0.290671
-0.615653
-0.280372
-0.618688
-0.287373
-0.618387
-0.300371
-0.615367
-0.316276
-0.609732
-0.334264
-0.601546
-0.353579
-0.591167
-0.373462
-0.578942
-0.39315
-0.565389
-0.411889
-0.550932
-0.428974
-0.536272
-0.443841
-0.522199
-0.456133
-0.509589
-0.465621
-0.498907
-0.472144
-0.490978
-0.475893
-0.486297
-0.477082
-0.485244
-0.476389
-0.487724
-0.474455
-0.492978
-0.471945
-0.500313
-0.469788
-0.508782
-0.468761
-0.517219
-0.469486
-0.524435
-0.472507
-0.52929
-0.478301
-0.530934
-0.487274
-0.528831
-0.499679
-0.522753
-0.515665
-0.512645
-0.53526
-0.498439
-0.55818
-0.480154
-0.583864
-0.458144
-0.611581
-0.432933
-0.640244
-0.404994
-0.668375
-0.374976
-0.694359
-0.343731
-0.716528
-0.312005
-0.733206
-0.280605
-0.742918
-0.250375
-0.744524
-0.222152
-0.73735
-0.196699
-0.721339
-0.174461
-0.696826
-0.156196
-0.664567
-0.142604
-0.625681
-0.134095
-0.581464
-0.131181
-0.533524
-0.134732
-0.483451
-0.145706
-0.433205
-0.384645
-0.16566
0.495847
-0.396982
0.499237
-0.29406
0.501753
-0.282887
0.505479
-0.291106
0.50986
-0.304811
0.516103
-0.322581
0.525184
-0.343304
0.537271
-0.365583
0.552064
-0.388288
0.569356
-0.410384
0.58855
-0.431011
0.609029
-0.449346
0.629875
-0.464731
0.65019
-0.476533
0.66901
-0.484495
0.685337
-0.488433
0.698167
-0.488619
0.706603
-0.485629
0.710302
-0.480101
0.709016
-0.473085
0.70279
-0.465709
0.69214
-0.45915
0.677977
-0.454554
0.66153
-0.452943
0.64432
-0.455214
0.628068
-0.461975
0.614447
-0.473521
0.604792
-0.489922
0.600034
-0.510973
0.600827
-0.536142
0.607357
-0.564673
0.619193
-0.595644
0.635504
-0.62789
0.65523
-0.659961
0.67719
-0.690283
0.700165
-0.71729
0.72301
-0.73939
0.744764
-0.754976
0.764551
-0.762666
0.781627
-0.761524
0.795332
-0.751073
0.805294
-0.731298
0.811198
-0.702623
0.8125
-0.665829
0.808758
-0.62199
0.799518
-0.572363
0.784533
-0.518425
0.763247
-0.462066
0.7354
-0.405322
-0.350062
0.700794
1.46224
-0.365711
1.48308
-0.314903
1.50388
-0.303683
1.52391
-0.31117
1.54475
-0.325708
1.56689
-0.344788
1.59076
-0.367111
1.61642
-0.391156
1.64381
-0.415597
1.67266
-0.439147
1.70251
-0.460842
1.7328
-0.479696
1.76288
-0.49478
1.79172
-0.505382
1.81844
-0.511088
1.84193
-0.511894
1.86124
-0.507959
1.87554
-0.499905
1.88402
-0.488651
1.88634
-0.475415
1.88247
-0.461796
1.87282
-0.449418
1.85823
-0.439848
1.83982
-0.434537
1.81909
-0.434568
1.79776
-0.440675
1.77752
-0.453291
1.75995
-0.472393
1.74643
-0.497479
1.73796
-0.52767
1.73504
-0.561779
1.73761
-0.598301
1.74519
-0.635502
1.75685
-0.671585
1.77129
-0.704733
1.78707
-0.733162
1.80274
-0.755127
1.81683
-0.76907
1.82801
-0.773848
1.83524
-0.768801
1.83776
-0.753679
1.83518
-0.728779
1.82728
-0.694723
1.81374
-0.652368
1.79433
-0.602641
1.76869
-0.546729
1.73633
-0.48608
1.69676
-0.422591
1.64985
-0.358435
-0.296078
1.59582
2.67753
-0.335567
2.67512
-0.312565
2.68336
-0.311964
2.69635
-0.324157
2.71355
-0.342865
2.73453
-0.365732
2.7589
-0.39142
2.78618
-0.418503
2.81613
-0.445481
2.84814
-0.471196
2.88172
-0.494509
2.91623
-0.514234
2.95082
-0.52927
2.98435
-0.538865
3.01568
-0.54243
3.04363
-0.539759
3.06682
-0.531124
3.08417
-0.51716
3.09469
-0.499066
3.09767
-0.478464
3.09303
-0.457262
3.08116
-0.437598
3.06287
-0.421606
3.03948
-0.411132
3.0126
-0.407636
2.98404
-0.412114
2.95575
-0.425017
2.92963
-0.446244
2.9073
-0.475116
2.88997
-0.510376
2.87843
-0.550284
2.87287
-0.592753
2.87287
-0.635492
2.87743
-0.676148
2.88503
-0.712403
2.89392
-0.742055
2.90217
-0.763277
2.90783
-0.77464
2.9092
-0.775224
2.90515
-0.764755
2.89489
-0.743504
2.87832
-0.712245
2.85557
-0.671946
2.82679
-0.623544
2.79197
-0.56782
2.75089
-0.505635
2.70303
-0.438201
2.64791
-0.367414
2.58521
-0.2958
-0.226211
2.51533
3.94876
-0.298162
3.93302
-0.296833
3.93005
-0.308949
3.93507
-0.329157
3.94638
-0.354227
3.96316
-0.382534
3.9846
-0.412891
4.0101
-0.443938
4.03908
-0.474382
4.07101
-0.503111
4.1054
-0.528829
4.14156
-0.55027
4.17845
-0.566159
4.21487
-0.575311
4.24936
-0.576948
4.28031
-0.570734
4.30606
-0.556894
4.325
-0.536162
4.33572
-0.509855
4.33727
-0.480012
4.32929
-0.44924
4.31211
-0.420416
4.2868
-0.396305
4.25495
-0.379256
4.2185
-0.371107
4.17958
-0.373104
4.14041
-0.385805
4.10314
-0.409021
4.06974
-0.44178
4.04169
-0.482387
4.01996
-0.528559
4.00481
-0.5776
3.99577
-0.626494
3.99166
-0.672088
3.99061
-0.711357
3.99021
-0.741664
3.98795
-0.761006
3.98145
-0.76815
3.96876
-0.762622
3.94892
-0.744878
3.92153
-0.716111
3.88714
-0.677846
3.84663
-0.631453
3.80087
-0.577801
3.75027
-0.517274
3.69473
-0.450139
3.63353
-0.377103
3.56595
-0.299872
3.49153
-0.22142
-0.145361
3.41061
5.21739
-0.260781
5.1967
-0.276148
5.18917
-0.301422
5.19053
-0.330493
5.19885
-0.362589
5.21315
-0.396877
5.23253
-0.432289
5.25626
-0.467691
5.28377
-0.50202
5.31479
-0.534205
5.34898
-0.563105
5.38586
-0.587202
5.42447
-0.604786
5.46339
-0.614247
5.50084
-0.614422
5.53468
-0.604675
5.56268
-0.58495
5.5826
-0.556016
5.59234
-0.519541
5.59036
-0.478043
5.57605
-0.434925
5.54992
-0.394257
5.51345
-0.359842
5.46873
-0.334577
5.41814
-0.320559
5.36422
-0.319198
5.30956
-0.331141
5.2567
-0.356151
5.20789
-0.392959
5.16481
-0.439305
5.12848
-0.492211
5.09919
-0.548296
5.07641
-0.603725
5.05871
-0.654377
5.04373
-0.696313
5.02833
-0.726239
5.00921
-0.741899
4.98348
-0.742356
4.94896
-0.72809
4.90504
-0.700871
4.85238
-0.663409
4.79286
-0.6183
4.72876
-0.56734
4.66204
-0.511084
4.59379
-0.449067
4.52409
-0.380436
4.45187
-0.304909
4.37575
-0.223754
4.29497
-0.140634
-0.0605915
4.21018
6.51728
-0.215252
6.48829
-0.247133
6.47125
-0.284373
6.4634
-0.322733
6.4632
-0.362433
6.46978
-0.403451
6.48237
-0.444872
6.50042
-0.485729
6.52352
-0.525075
6.55148
-0.562133
6.58419
-0.595779
6.62118
-0.624194
6.66126
-0.64486
6.70238
-0.655352
6.742
-0.653982
6.77723
-0.639811
6.805
-0.612689
6.82229
-0.573395
6.82643
-0.523755
6.81537
-0.466954
6.7882
-0.407758
6.74595
-0.352079
6.69122
-0.305142
6.6269
-0.2703
6.55579
-0.249533
6.48061
-0.244092
6.40404
-0.254609
6.32878
-0.280939
6.25728
-0.321474
6.19124
-0.373242
6.13152
-0.432507
6.07844
-0.495256
6.0315
-0.556834
5.98904
-0.611947
5.94827
-0.655538
5.90558
-0.683545
5.85718
-0.693524
5.79981
-0.685004
5.73132
-0.659672
5.65166
-0.621234
5.56307
-0.574821
5.46935
-0.524615
5.37455
-0.472565
5.28201
-0.418572
5.19384
-0.360915
5.11052
-0.297099
5.03066
-0.225034
4.95168
-0.144773
4.87213
-0.0610758
0.0186472
4.79287
7.67987
-0.167408
7.64262
-0.20987
7.62008
-0.261866
7.60894
-0.311591
7.60872
-0.362158
7.61874
-0.413459
7.63771
-0.463821
7.66425
-0.512256
7.6964
-0.557184
7.73268
-0.598349
7.77208
-0.635162
7.81339
-0.665506
7.85435
-0.685771
7.89177
-0.692747
7.92244
-0.68463
7.94334
-0.660698
7.95175
-0.621128
7.94538
-0.56699
7.92216
-0.500442
7.8804
-0.425157
7.81969
-0.347034
7.74273
-0.275039
7.65438
-0.216691
7.55878
-0.174689
7.45873
-0.149462
7.35614
-0.141422
7.25259
-0.150976
7.15
-0.178321
7.04988
-0.221347
6.95271
-0.276065
6.85814
-0.33787
6.76614
-0.403201
6.6765
-0.467145
6.5876
-0.523044
6.49668
-0.56464
6.4005
-0.587393
6.29636
-0.589345
6.18248
-0.571058
6.05818
-0.535383
5.92458
-0.487705
5.78626
-0.436492
5.6492
-0.387558
5.5183
-0.341667
5.39731
-0.297599
5.28909
-0.252711
5.19498
-0.202987
5.11346
-0.143466
5.03946
-0.0707833
4.96556
0.0127991
0.0936936
4.89053
8.52561
-0.144872
8.56478
-0.249046
8.61935
-0.316419
8.68046
-0.372717
8.74512
-0.426856
8.80846
-0.47683
8.86551
-0.520896
8.91222
-0.558962
8.94338
-0.588358
8.9581
-0.613091
8.9581
-0.635121
8.94448
-0.651832
8.91635
-0.657684
8.87262
-0.649057
8.81287
-0.624903
8.73762
-0.585484
8.64812
-0.531627
8.54578
-0.464647
8.43153
-0.386258
8.30525
-0.299004
8.16619
-0.208025
8.01865
-0.127479
7.87045
-0.0684726
7.7261
-0.0303411
7.5862
-0.00954342
7.44894
-0.00417318
7.31342
-0.0155232
7.1794
-0.0443753
7.04515
-0.0871003
6.90789
-0.138762
6.76373
-0.193693
6.61226
-0.251749
6.45412
-0.309059
6.28862
-0.357618
6.11464
-0.390714
5.93117
-0.403977
5.73886
-0.397062
5.53991
-0.372145
5.33705
-0.332582
5.1328
-0.283532
4.93444
-0.238134
4.74973
-0.202848
4.58254
-0.174416
4.43539
-0.150466
4.31158
-0.128956
4.21528
-0.106691
4.15231
-0.0804356
4.10818
-0.0265643
4.05431
0.0666144
0.154923
3.99309
11.867
-0.0193655
11.7271
-0.109098
11.5465
-0.135958
11.3405
-0.166674
11.1055
-0.191863
10.8515
-0.222889
10.5892
-0.258611
10.3048
-0.274419
9.98695
-0.27047
9.65512
-0.281275
9.31965
-0.299654
8.97874
-0.310901
8.63307
-0.311966
8.28626
-0.302134
7.94355
-0.282139
7.6112
-0.253235
7.2956
-0.21618
7.0024
-0.171528
6.73577
-0.119642
6.49713
-0.060369
6.28151
0.00758537
6.06424
0.0897573
5.83049
0.165255
5.58745
0.212717
5.33688
0.241068
5.07893
0.253774
4.81902
0.244365
4.56812
0.206525
4.33841
0.142579
4.13504
0.0645182
3.95073
-0.00950968
3.75863
-0.0596747
3.54646
-0.0968028
3.32045
-0.131471
3.08008
-0.150324
2.8274
-0.151382
2.56759
-0.137271
2.30622
-0.110707
2.04699
-0.0733015
1.78849
-0.0250538
1.51145
0.0389431
1.21115
0.097349
0.912411
0.124258
0.638863
0.122951
0.409043
0.100754
0.234421
0.0677278
0.118486
0.0353041
0.0865544
0.00529769
0.169492
-0.0164124
-0.0128877
0.337286
-0.136799
-0.245836
-0.381792
-0.548592
-0.740114
-0.963075
-1.22182
-1.49611
-1.76664
-2.04787
-2.34748
-2.65853
-2.97058
-3.27271
-3.55483
-3.80803
-4.02414
-4.1956
-4.31523
-4.37561
-4.36805
-4.27831
-4.11305
-3.90031
-3.65925
-3.40552
-3.16113
-2.95457
-2.81194
-2.74742
-2.75696
-2.81663
-2.91355
-3.04512
-3.19545
-3.34679
-3.48405
-3.59479
-3.6681
-3.69316
-3.65419
-3.55688
-3.43262
-3.30964
-3.20877
-3.14101
-3.10578
-3.1005
-3.11693
-3.12983
0.406337
-0.00843306
0.409276
-0.00267346
0.411634
-0.00188608
0.412677
-0.000963497
0.4129
-0.000350946
0.412758
1.64298e-05
0.412453
0.000244352
0.412053
0.000375962
0.411587
0.000441952
0.411085
0.000473056
0.410573
0.000490143
0.410066
0.000502017
0.409569
0.0005107
0.40908
0.000516438
0.408598
0.000519453
0.408119
0.000519833
0.407643
0.000517283
0.407168
0.000511368
0.406699
0.000502017
0.406238
0.000489832
0.405789
0.00047595
0.405355
0.000461567
0.404937
0.000447534
0.404533
0.000434246
0.404142
0.000421822
0.403762
0.000410152
0.40339
0.000398709
0.403024
0.000386448
0.402666
0.000371985
0.402317
0.000354022
0.401983
0.000331864
0.40167
0.000305614
0.401385
0.000275906
0.401133
0.000243508
0.400919
0.000208454
0.400745
0.00017033
0.400611
0.000128037
0.400518
8.00697e-05
0.40047
2.44495e-05
0.400474
-4.19296e-05
0.400542
-0.000123317
0.400691
-0.000224628
0.400951
-0.000351246
0.401357
-0.000509443
0.401961
-0.000707638
0.402824
-0.000958942
0.404036
-0.00128671
0.405724
-0.00173682
0.408112
-0.00240665
-0.00350921
0.411631
0.393908
-0.00462353
0.392812
-0.00227663
0.391446
-0.000691654
0.39077
-0.000215466
0.390404
6.33259e-05
0.390154
0.000221105
0.390002
0.000304063
0.389939
0.000354078
0.389943
0.000381981
0.389997
0.000393951
0.39009
0.000398384
0.390217
0.000401423
0.39037
0.000404877
0.390542
0.000407836
0.390723
0.000408776
0.390906
0.000406499
0.391089
0.000400278
0.391268
0.000389874
0.391447
0.000375635
0.391628
0.000358452
0.391814
0.000339477
0.392008
0.000319741
0.39221
0.000299965
0.392418
0.000280613
0.392629
0.000261868
0.392841
0.0002434
0.393052
0.000224221
0.393259
0.000202831
0.393463
0.000177573
0.393667
0.00014708
0.393876
0.000110623
0.394098
6.79505e-05
0.394341
1.86484e-05
0.394611
-3.79156e-05
0.394911
-0.00010282
0.395242
-0.000177581
0.395606
-0.000264047
0.396004
-0.000364524
0.396439
-0.000482171
0.396917
-0.00062158
0.397449
-0.000788211
0.398054
-0.000988444
0.398758
-0.00123006
0.399598
-0.00152332
0.400615
-0.00188266
0.401862
-0.00232957
0.403394
-0.00289752
0.405268
-0.00364031
0.407523
-0.00464487
-0.00604772
0.410116
0.39458
-0.000952186
0.3933
-0.00108341
0.393015
-0.000592996
0.393032
-0.000317508
0.393244
-0.000176151
0.393502
-6.92505e-05
0.393739
1.23525e-05
0.393954
7.76466e-05
0.394154
0.000132784
0.394346
0.000178416
0.39453
0.000215693
0.394709
0.000246744
0.394884
0.000272793
0.395052
0.000293624
0.395211
0.000308285
0.395359
0.000315881
0.395496
0.000315992
0.395624
0.00030884
0.395746
0.000295303
0.395869
0.000276775
0.395996
0.000254813
0.396131
0.000230842
0.396273
0.000206007
0.396422
0.000181083
0.396576
0.00015626
0.396731
0.000130964
0.396884
0.00010391
0.397034
7.33633e-05
0.397181
3.74725e-05
0.397329
-5.25933e-06
0.397484
-5.59087e-05
0.397655
-0.000115516
0.397848
-0.000185207
0.398069
-0.000266422
0.39832
-0.000360711
0.398602
-0.000470239
0.398916
-0.000597466
0.399261
-0.000745645
0.39964
-0.000919177
0.400057
-0.00112371
0.400521
-0.00136592
0.40105
-0.00165369
0.401668
-0.00199693
0.402403
-0.00240857
0.403292
-0.00290618
0.404371
-0.00351438
0.405675
-0.00426822
0.407227
-0.00521738
0.409029
-0.00643087
-0.0079988
0.411027
0.39756
-0.000520038
0.397395
-0.000807297
0.397396
-0.000644619
0.397406
-0.000407378
0.397391
-0.000223666
0.397352
-8.08093e-05
0.397287
2.72719e-05
0.397208
0.000106674
0.397135
0.000167416
0.397078
0.000216025
0.397042
0.000255327
0.397027
0.000286751
0.397029
0.000311028
0.397044
0.000328136
0.397066
0.000337521
0.397093
0.000338542
0.397123
0.000330909
0.397156
0.000314979
0.397196
0.000291847
0.397247
0.000263154
0.397311
0.000230735
0.397391
0.000196293
0.397485
0.000161193
0.397591
0.000126203
0.397705
9.12613e-05
0.397824
5.55076e-05
0.397943
1.75041e-05
0.39806
-2.47147e-05
0.398177
-7.30738e-05
0.398296
-0.000129272
0.398424
-0.000194999
0.398569
-0.000272026
0.398736
-0.000362067
0.398931
-0.000467137
0.399155
-0.000589428
0.399409
-0.00073154
0.399692
-0.000896675
0.400004
-0.00108898
0.400346
-0.00131375
0.400719
-0.00157735
0.401134
-0.00188728
0.401603
-0.0022524
0.402149
-0.00268383
0.402795
-0.00319576
0.403569
-0.0038066
0.404497
-0.00454064
0.405597
-0.00542982
0.406875
-0.00651508
0.408308
-0.00784629
-0.00947887
0.409837
0.397528
-0.000217116
0.397125
-0.000345761
0.396794
-0.000304787
0.396542
-0.000197206
0.396362
-0.000101975
0.39625
-2.62064e-05
0.396192
3.32519e-05
0.396176
7.90779e-05
0.396196
0.00011661
0.396248
0.000150351
0.396329
0.000181586
0.396432
0.000209503
0.396548
0.000232657
0.39667
0.000249578
0.396794
0.00025888
0.396914
0.000259419
0.39703
0.000250606
0.397144
0.000232697
0.397259
0.000206852
0.39738
0.000174853
0.397511
0.000138691
0.397653
0.000100205
0.397805
6.07918e-05
0.397964
2.11534e-05
0.398127
-1.89116e-05
0.398288
-6.03253e-05
0.398443
-0.000104659
0.398592
-0.000153885
0.398734
-0.000210074
0.398875
-0.000275338
0.399021
-0.000351903
0.399178
-0.0004419
0.399355
-0.00054754
0.399554
-0.000671251
0.399778
-0.000815722
0.400026
-0.000984129
0.400298
-0.00118039
0.400592
-0.00140934
0.400906
-0.00167678
0.401243
-0.00198948
0.40161
-0.00235532
0.402018
-0.00278373
0.402486
-0.0032862
0.403034
-0.00387702
0.403682
-0.00457411
0.40445
-0.0054
0.405347
-0.00638244
0.40637
-0.00755445
0.407497
-0.00895292
-0.0106154
0.408682
0.397759
-0.000134319
0.397609
-0.000216664
0.397525
-0.000221682
0.397488
-0.000184173
0.397476
-0.000134675
0.39748
-8.29515e-05
0.397496
-3.18884e-05
0.397521
1.59116e-05
0.397554
6.00256e-05
0.397596
0.000101376
0.397649
0.000139897
0.397709
0.000174201
0.397772
0.000202412
0.397836
0.000222762
0.397897
0.000233741
0.397953
0.000234244
0.398005
0.00022386
0.398057
0.000203155
0.398114
0.000173615
0.398181
0.000137261
0.398261
9.62094e-05
0.398356
5.2331e-05
0.398464
7.03278e-06
0.398582
-3.89902e-05
0.398704
-8.57704e-05
0.398826
-0.000134214
0.398942
-0.000185962
0.399051
-0.000243013
0.399155
-0.000307615
0.399256
-0.000382188
0.399361
-0.000469166
0.399477
-0.000571013
0.399611
-0.000690392
0.399767
-0.000830234
0.399945
-0.000993828
0.400145
-0.00118498
0.400365
-0.00140818
0.400602
-0.00166869
0.400854
-0.00197254
0.401122
-0.00232664
0.401411
-0.00273901
0.401732
-0.0032192
0.402098
-0.00377857
0.402526
-0.00443081
0.403033
-0.00519262
0.403633
-0.00608425
0.404329
-0.00712941
0.405115
-0.00835446
0.40597
-0.00978671
-0.0114511
0.406852
0.397832
-7.35438e-05
0.397699
-0.000126872
0.397582
-0.0001288
0.397477
-0.000105165
0.397378
-7.31594e-05
0.397291
-3.92571e-05
0.397222
-4.50335e-06
0.397177
3.00811e-05
0.397157
6.36136e-05
0.397162
9.57142e-05
0.397189
0.000125729
0.397234
0.000152293
0.397291
0.000173574
0.397355
0.000187653
0.397421
0.000192783
0.397487
0.000187683
0.397553
0.000171946
0.397623
0.000146205
0.397701
0.000111957
0.397793
7.11314e-05
0.3979
2.56749e-05
0.398024
-2.26918e-05
0.398161
-7.26671e-05
0.398307
-0.000123537
0.398456
-0.000175293
0.398601
-0.000228898
0.398739
-0.00028604
0.398867
-0.000348828
0.398985
-0.00041956
0.399098
-0.00050066
0.399212
-0.000594661
0.399333
-0.000704364
0.399468
-0.000832936
0.39962
-0.000983903
0.39979
-0.00116116
0.399976
-0.00136903
0.400177
-0.00161237
0.400386
-0.00189662
0.400603
-0.00222793
0.400827
-0.0026133
0.401061
-0.00306072
0.401315
-0.00357942
0.401599
-0.00418026
0.401928
-0.00487607
0.402314
-0.00568219
0.402768
-0.00661668
0.403293
-0.00769998
0.40388
-0.00895375
0.404513
-0.0103995
-0.0120569
0.405162
0.397872
-3.39631e-05
0.397785
-7.10941e-05
0.397701
-7.85431e-05
0.397633
-6.92351e-05
0.39758
-5.4404e-05
0.397543
-3.76262e-05
0.397524
-1.80814e-05
0.397528
4.81418e-06
0.397552
3.02694e-05
0.397594
5.69022e-05
0.397651
8.31107e-05
0.397716
0.000107024
0.397785
0.00012652
0.397853
0.000139345
0.397916
0.000143428
0.397973
0.000137338
0.398027
0.000120656
0.398083
9.4033e-05
0.398147
5.88517e-05
0.398223
1.68595e-05
0.398315
-3.01177e-05
0.398422
-8.03929e-05
0.398543
-0.000132629
0.398671
-0.000186085
0.398801
-0.000240864
0.398925
-0.000297962
0.39904
-0.000359012
0.399141
-0.000425962
0.399231
-0.000500907
0.399312
-0.000586169
0.399392
-0.00068449
0.399477
-0.000799109
0.399572
-0.000933701
0.399681
-0.00109228
0.399804
-0.00127912
0.399939
-0.00149884
0.400082
-0.00175655
0.400229
-0.00205793
0.400377
-0.00240915
0.400524
-0.00281709
0.400673
-0.00328954
0.400831
-0.00383521
0.401006
-0.00446421
0.401212
-0.00518851
0.401457
-0.00602223
0.401751
-0.00698161
0.402093
-0.00808433
0.402479
-0.00934871
0.402891
-0.0107921
-0.0124294
0.403303
0.397879
-9.38747e-06
0.397814
-2.65133e-05
0.397737
-3.34204e-05
0.397666
-3.07225e-05
0.397603
-2.40437e-05
0.397552
-1.55798e-05
0.397515
-4.54916e-06
0.397496
9.88527e-06
0.397496
2.73627e-05
0.397512
4.66298e-05
0.397542
6.60394e-05
0.397581
8.37168e-05
0.397625
9.75083e-05
0.397669
0.000105094
0.397711
0.000104385
0.39775
9.40296e-05
0.397789
7.37055e-05
0.397834
4.4009e-05
0.397891
6.15658e-06
0.397964
-3.82802e-05
0.398057
-8.75721e-05
0.398168
-0.000140045
0.398294
-0.000194396
0.398429
-0.000250074
0.398565
-0.000307401
0.398695
-0.000367359
0.398813
-0.000431326
0.398916
-0.000500898
0.399006
-0.000577953
0.399086
-0.00066492
0.39916
-0.000764911
0.399236
-0.000881579
0.399317
-0.00101891
0.399408
-0.00118114
0.399508
-0.00137278
0.399615
-0.00159874
0.399725
-0.0018644
0.399831
-0.00217562
0.399931
-0.0025386
0.400023
-0.00295991
0.400107
-0.00344675
0.400189
-0.00400735
0.400277
-0.00465112
0.40038
-0.00538927
0.400507
-0.00623491
0.400665
-0.00720279
0.400853
-0.0083089
0.401068
-0.00956956
0.401296
-0.0110004
-0.0126153
0.401519
0.397877
6.71082e-06
0.39782
9.0321e-06
0.397751
6.96746e-06
0.397685
4.87105e-06
0.397629
2.89064e-06
0.397588
1.68128e-06
0.397564
2.57315e-06
0.397559
6.67449e-06
0.397573
1.42365e-05
0.397602
2.46048e-05
0.397643
3.64185e-05
0.397691
4.77557e-05
0.39774
5.6268e-05
0.397786
5.94655e-05
0.397827
5.52291e-05
0.397863
4.22655e-05
0.397899
2.02286e-05
0.39794
-1.04313e-05
0.397993
-4.86853e-05
0.398063
-9.31339e-05
0.398152
-0.000142166
0.398261
-0.000194233
0.398383
-0.00024828
0.398514
-0.00030403
0.398644
-0.000361865
0.398765
-0.000422523
0.398873
-0.000486966
0.398965
-0.000556482
0.399039
-0.000632979
0.3991
-0.000719178
0.399152
-0.000818463
0.399202
-0.000934597
0.399253
-0.00107155
0.399308
-0.00123357
0.399368
-0.00142542
0.399429
-0.00165246
0.399487
-0.00192037
0.399536
-0.00223487
0.399572
-0.00260181
0.399592
-0.00302741
0.399597
-0.00351832
0.39959
-0.00408219
0.399577
-0.00472803
0.399567
-0.00546636
0.399567
-0.00630954
0.399581
-0.00727141
0.39961
-0.00836704
0.39965
-0.00961203
0.39969
-0.011021
-0.0126067
0.399715
0.397874
2.26679e-05
0.397812
4.31916e-05
0.397742
4.80569e-05
0.397676
4.23668e-05
0.397622
3.13134e-05
0.397584
1.93838e-05
0.397564
9.24546e-06
0.397563
2.42812e-06
0.39758
-2.67061e-07
0.397611
1.02057e-06
0.397652
5.10882e-06
0.397698
9.95762e-06
0.397742
1.30151e-05
0.397782
1.17407e-05
0.397814
4.11358e-06
0.397842
-1.10859e-05
0.39787
-3.42354e-05
0.397903
-6.49967e-05
0.39795
-0.000102514
0.398016
-0.000145559
0.398102
-0.000192724
0.398208
-0.000242799
0.398329
-0.000295117
0.398456
-0.000349549
0.398583
-0.000406281
0.3987
-0.000465667
0.398802
-0.000528353
0.398886
-0.000595617
0.39895
-0.000669623
0.398997
-0.000753284
0.399031
-0.000849909
0.399058
-0.000963009
0.399083
-0.00109641
0.399107
-0.00125455
0.399131