/*--------------------------------*- C++ -*----------------------------------*\
  =========                 |
  \\      /  F ield         | OpenFOAM: The Open Source CFD Toolbox
   \\    /   O peration     | Website:  https://openfoam.org
    \\  /    A nd           | Version:  8
     \\/     M anipulation  |
\*---------------------------------------------------------------------------*/
FoamFile
{
    version     2.0;
    format      ascii;
    class       volScalarField;
    location    "500";
    object      T;
}
// * * * * * * * * * * * * * * * * * * * * * * * * * * * * * * * * * * * * * //

dimensions      [0 0 0 1 0 0 0];

internalField   nonuniform List<scalar> 
8400
(
300.369
300.362
300.36
300.358
300.355
300.353
300.351
300.349
300.348
300.346
300.346
300.345
300.346
300.347
300.349
300.352
300.357
300.363
300.37
300.378
300.389
300.401
300.415
300.43
300.448
300.467
300.487
300.509
300.532
300.557
300.583
300.609
300.637
300.666
300.695
300.725
300.756
300.788
300.82
300.852
300.885
300.918
300.952
300.985
301.019
301.053
301.086
301.12
301.152
301.184
300.428
300.426
300.429
300.432
300.436
300.441
300.447
300.454
300.462
300.47
300.48
300.491
300.502
300.515
300.529
300.545
300.561
300.579
300.599
300.62
300.643
300.667
300.692
300.72
300.748
300.779
300.81
300.843
300.877
300.912
300.948
300.984
301.021
301.058
301.096
301.133
301.171
301.208
301.245
301.281
301.317
301.353
301.387
301.421
301.454
301.487
301.518
301.549
301.578
301.607
300.561
300.564
300.575
300.586
300.599
300.614
300.63
300.648
300.667
300.687
300.709
300.732
300.757
300.782
300.809
300.836
300.865
300.895
300.926
300.959
300.992
301.027
301.063
301.1
301.138
301.178
301.218
301.258
301.3
301.342
301.384
301.426
301.468
301.51
301.551
301.591
301.63
301.669
301.706
301.741
301.776
301.808
301.839
301.869
301.897
301.924
301.949
301.973
301.995
302.015
300.758
300.767
300.783
300.8
300.819
300.84
300.863
300.887
300.912
300.939
300.966
300.994
301.024
301.055
301.086
301.119
301.153
301.189
301.226
301.264
301.304
301.346
301.388
301.433
301.478
301.524
301.571
301.618
301.666
301.713
301.76
301.807
301.853
301.898
301.943
301.986
302.027
302.067
302.104
302.14
302.174
302.205
302.234
302.261
302.285
302.308
302.328
302.346
302.362
302.376
300.93
300.937
300.95
300.964
300.979
300.994
301.01
301.027
301.043
301.061
301.079
301.098
301.117
301.138
301.161
301.186
301.214
301.244
301.277
301.313
301.352
301.395
301.44
301.489
301.539
301.592
301.646
301.701
301.757
301.813
301.868
301.924
301.979
302.033
302.086
302.138
302.189
302.239
302.288
302.334
302.378
302.419
302.458
302.493
302.525
302.553
302.578
302.6
302.619
302.635
300.903
300.9
300.902
300.902
300.901
300.899
300.897
300.894
300.892
300.889
300.887
300.886
300.887
300.89
300.895
300.904
300.916
300.932
300.953
300.979
301.01
301.045
301.086
301.131
301.18
301.232
301.288
301.346
301.406
301.468
301.531
301.594
301.659
301.724
301.791
301.858
301.927
301.997
302.068
302.14
302.211
302.282
302.35
302.416
302.477
302.534
302.585
302.631
302.671
302.706
300.601
300.591
300.583
300.573
300.561
300.548
300.534
300.52
300.506
300.492
300.479
300.468
300.458
300.45
300.445
300.443
300.443
300.448
300.456
300.468
300.484
300.504
300.529
300.558
300.591
300.628
300.669
300.713
300.759
300.809
300.86
300.915
300.971
301.031
301.094
301.161
301.233
301.31
301.392
301.481
301.575
301.674
301.777
301.882
301.987
302.089
302.188
302.281
302.367
302.446
300.228
300.222
300.217
300.21
300.202
300.194
300.185
300.177
300.168
300.16
300.152
300.146
300.14
300.135
300.131
300.128
300.126
300.126
300.128
300.131
300.136
300.142
300.151
300.161
300.174
300.189
300.205
300.224
300.245
300.268
300.293
300.32
300.349
300.38
300.415
300.453
300.495
300.543
300.598
300.66
300.731
300.811
300.902
301.002
301.112
301.229
301.352
301.478
301.603
301.725
300.039
300.038
300.039
300.04
300.04
300.04
300.039
300.038
300.038
300.037
300.036
300.036
300.035
300.034
300.034
300.033
300.033
300.033
300.034
300.034
300.035
300.037
300.039
300.041
300.044
300.048
300.053
300.058
300.064
300.071
300.078
300.087
300.096
300.106
300.117
300.129
300.143
300.158
300.174
300.194
300.216
300.243
300.275
300.314
300.362
300.419
300.488
300.567
300.657
300.755
300.005
300.005
300.007
300.01
300.012
300.013
300.015
300.016
300.017
300.018
300.019
300.02
300.021
300.021
300.022
300.022
300.023
300.024
300.024
300.025
300.026
300.027
300.029
300.03
300.032
300.034
300.036
300.039
300.042
300.045
300.049
300.053
300.058
300.063
300.069
300.075
300.083
300.09
300.098
300.105
300.112
300.119
300.126
300.132
300.139
300.145
300.153
300.164
300.177
300.197
300.002
300.004
300.005
300.007
300.008
300.009
300.011
300.012
300.013
300.014
300.015
300.016
300.018
300.019
300.02
300.021
300.022
300.023
300.024
300.026
300.027
300.028
300.03
300.031
300.033
300.035
300.037
300.04
300.042
300.045
300.048
300.051
300.055
300.06
300.065
300.071
300.078
300.085
300.093
300.1
300.108
300.115
300.121
300.127
300.131
300.135
300.139
300.142
300.146
300.15
300.005
300.006
300.006
300.007
300.008
300.009
300.01
300.011
300.012
300.013
300.014
300.016
300.017
300.019
300.02
300.022
300.023
300.025
300.026
300.028
300.03
300.031
300.033
300.035
300.037
300.039
300.041
300.043
300.046
300.049
300.052
300.055
300.059
300.064
300.07
300.076
300.083
300.091
300.1
300.109
300.117
300.125
300.131
300.137
300.141
300.144
300.147
300.149
300.152
300.154
300.006
300.008
300.008
300.009
300.01
300.01
300.011
300.012
300.014
300.015
300.017
300.018
300.02
300.022
300.024
300.026
300.028
300.03
300.032
300.033
300.035
300.037
300.039
300.041
300.043
300.045
300.048
300.05
300.053
300.056
300.06
300.064
300.069
300.075
300.082
300.09
300.099
300.109
300.12
300.131
300.141
300.15
300.157
300.163
300.167
300.169
300.17
300.171
300.171
300.171
300.007
300.008
300.009
300.009
300.01
300.011
300.013
300.014
300.016
300.018
300.02
300.022
300.025
300.027
300.03
300.032
300.034
300.037
300.039
300.041
300.043
300.045
300.048
300.05
300.052
300.054
300.057
300.06
300.064
300.068
300.073
300.079
300.086
300.095
300.104
300.116
300.129
300.143
300.158
300.172
300.186
300.197
300.206
300.211
300.214
300.215
300.213
300.21
300.207
300.203
300.006
300.007
300.007
300.008
300.009
300.01
300.012
300.015
300.017
300.02
300.023
300.026
300.029
300.032
300.035
300.038
300.042
300.045
300.048
300.051
300.053
300.055
300.058
300.06
300.062
300.065
300.069
300.073
300.079
300.086
300.094
300.104
300.115
300.129
300.144
300.162
300.182
300.203
300.224
300.244
300.262
300.276
300.287
300.292
300.294
300.291
300.285
300.276
300.265
300.254
300.004
300.004
300.004
300.005
300.007
300.009
300.011
300.014
300.017
300.02
300.024
300.028
300.032
300.036
300.04
300.044
300.049
300.054
300.058
300.063
300.067
300.07
300.073
300.076
300.079
300.083
300.089
300.097
300.106
300.118
300.132
300.149
300.168
300.19
300.215
300.242
300.271
300.302
300.332
300.36
300.384
300.402
300.414
300.42
300.419
300.413
300.4
300.383
300.362
300.339
299.998
299.996
299.995
299.996
299.997
299.998
300
300.004
300.008
300.013
300.018
300.024
300.031
300.038
300.046
300.054
300.063
300.072
300.082
300.09
300.098
300.105
300.111
300.116
300.121
300.128
300.137
300.15
300.167
300.187
300.211
300.238
300.269
300.302
300.338
300.377
300.418
300.459
300.498
300.534
300.564
300.586
300.601
300.607
300.606
300.596
300.578
300.552
300.52
300.485
299.99
299.981
299.977
299.976
299.979
299.983
299.99
300
300.012
300.025
300.04
300.055
300.07
300.086
300.101
300.118
300.135
300.153
300.17
300.186
300.201
300.213
300.221
300.228
300.235
300.244
300.258
300.278
300.304
300.336
300.373
300.413
300.457
300.503
300.55
300.6
300.651
300.701
300.748
300.788
300.82
300.843
300.856
300.862
300.861
300.853
300.836
300.809
300.775
300.732
299.995
300.01
300.035
300.063
300.09
300.113
300.136
300.157
300.173
300.187
300.201
300.216
300.233
300.254
300.281
300.314
300.351
300.39
300.428
300.461
300.486
300.501
300.516
300.53
300.546
300.565
300.589
300.619
300.654
300.693
300.733
300.774
300.827
300.887
300.955
301.028
301.099
301.164
301.216
301.246
301.246
301.236
301.22
301.2
301.181
301.162
301.145
301.134
301.102
301.035
299.951
299.849
299.744
299.603
299.375
298.977
298.859
298.743
298.68
298.794
299.003
299.314
299.695
300.104
300.513
300.896
301.237
301.527
301.763
301.944
302.071
302.148
302.176
302.173
302.149
302.113
302.079
302.068
302.101
302.187
302.319
302.47
302.601
302.709
302.785
302.827
302.839
302.828
302.803
302.77
302.732
302.692
302.671
302.676
302.703
302.747
302.8
302.855
302.906
302.945
303.149
303.148
303.146
303.145
303.144
303.142
303.141
303.14
303.139
303.138
303.136
303.135
303.134
303.133
303.132
303.131
303.13
303.128
303.127
303.126
303.125
303.124
303.123
303.122
303.121
303.12
303.119
303.118
303.117
303.116
303.115
303.114
303.113
303.113
303.112
303.111
303.11
303.109
303.108
303.107
303.106
303.105
303.105
303.104
303.103
303.102
303.102
303.101
303.101
303.1
303.15
303.15
303.15
303.15
303.15
303.15
303.15
303.15
303.15
303.149
303.149
303.149
303.149
303.149
303.149
303.149
303.149
303.149
303.148
303.148
303.148
303.148
303.148
303.148
303.148
303.147
303.147
303.147
303.147
303.147
303.147
303.146
303.146
303.146
303.146
303.146
303.146
303.146
303.145
303.145
303.145
303.145
303.145
303.145
303.145
303.144
303.144
303.144
303.144
303.144
303.15
303.15
303.15
303.15
303.15
303.15
303.15
303.15
303.15
303.15
303.15
303.15
303.15
303.15
303.15
303.15
303.15
303.15
303.15
303.15
303.15
303.15
303.15
303.15
303.15
303.15
303.15
303.15
303.15
303.15
303.15
303.15
303.15
303.15
303.15
303.15
303.15
303.15
303.15
303.15
303.15
303.15
303.15
303.15
303.15
303.15
303.15
303.15
303.15
303.15
303.15
303.15
303.15
303.15
303.15
303.15
303.15
303.15
303.15
303.15
303.15
303.15
303.15
303.15
303.15
303.15
303.15
303.15
303.15
303.15
303.15
303.15
303.15
303.15
303.15
303.15
303.15
303.15
303.15
303.15
303.15
303.15
303.15
303.15
303.15
303.15
303.15
303.15
303.15
303.15
303.15
303.15
303.15
303.15
303.15
303.15
303.15
303.15
303.15
303.15
303.15
303.15
303.15
303.15
303.15
303.15
303.15
303.15
303.15
303.15
303.15
303.15
303.15
303.15
303.15
303.15
303.15
303.15
303.15
303.15
303.15
303.15
303.15
303.15
303.15
303.15
303.15
303.15
303.15
303.15
303.15
303.15
303.15
303.15
303.15
303.15
303.15
303.15
303.15
303.15
303.15
303.15
303.15
303.15
303.15
303.15
303.15
303.15
303.15
303.15
303.15
303.15
303.15
303.15
303.15
303.15
303.15
303.15
303.15
303.15
303.15
303.15
303.15
303.15
303.15
303.15
303.15
303.15
303.15
303.15
303.15
303.15
303.15
303.15
303.15
303.15
303.15
303.15
303.15
303.15
303.15
303.15
303.15
303.15
303.15
303.15
303.15
303.15
303.15
303.15
303.15
303.15
303.15
303.15
303.15
303.15
303.15
303.15
303.15
303.15
303.15
303.15
303.15
303.15
303.15
303.15
303.15
303.15
303.15
303.15
303.15
303.15
303.15
303.15
303.15
303.15
303.15
303.15
303.15
303.15
303.15
303.15
303.15
303.15
303.15
303.15
303.15
303.15
303.15
303.15
303.15
303.15
303.15
303.15
303.15
303.15
303.15
303.15
303.15
303.15
303.15
303.15
303.15
303.15
303.15
303.15
303.15
303.15
303.15
303.15
303.15
303.15
303.15
303.15
303.15
303.15
303.15
303.15
303.15
303.15
303.15
303.15
303.15
303.15
303.15
303.15
303.15
303.15
303.15
303.15
303.15
303.15
303.15
303.15
303.15
303.15
303.15
303.15
303.15
303.15
303.15
303.15
303.15
303.15
303.15
303.15
303.15
303.15
303.15
303.15
303.15
303.15
303.15
303.15
303.15
303.15
303.15
303.15
303.15
303.15
303.15
303.15
303.15
303.15
303.15
303.15
303.15
303.15
303.15
303.15
303.15
303.15
303.15
303.15
303.15
303.15
303.15
303.15
303.15
303.15
303.15
303.15
303.15
303.15
303.15
303.15
303.15
303.15
303.15
303.15
303.15
303.15
303.15
303.15
303.15
303.15
303.15
303.15
303.15
303.15
303.15
303.15
303.15
303.15
303.15
303.15
303.15
303.15
303.15
303.15
303.15
303.15
303.15
303.15
303.15
303.15
303.15
303.15
303.15
303.15
303.15
303.15
303.15
303.15
303.15
303.15
303.15
303.15
303.15
303.15
303.15
303.15
303.15
303.15
303.15
303.15
303.15
303.15
303.15
303.15
303.15
303.15
303.15
303.15
303.15
303.15
303.15
303.15
303.15
303.15
303.15
303.15
303.15
303.15
303.15
303.15
303.15
303.15
303.15
303.15
303.15
303.15
303.15
303.15
303.15
303.15
303.15
303.15
303.15
303.15
303.15
303.15
303.15
303.15
303.15
303.15
303.15
303.15
303.15
303.15
303.15
303.15
303.15
303.15
303.15
303.15
303.15
303.15
303.15
303.15
303.15
303.15
303.15
303.15
303.15
303.15
303.15
303.15
303.15
303.15
303.15
303.15
303.15
303.15
303.15
303.15
303.15
303.15
303.15
303.15
303.15
303.15
303.15
303.15
303.15
303.15
303.15
303.15
303.15
303.15
303.15
303.15
303.15
303.15
303.15
303.15
303.15
303.15
303.15
303.15
303.15
303.15
303.15
303.15
303.15
303.15
303.15
303.15
303.15
303.15
303.15
303.15
303.15
303.15
303.15
303.15
303.15
303.15
303.15
303.15
303.15
303.15
303.15
303.15
303.15
303.15
303.15
303.15
303.15
303.15
303.15
303.15
303.15
303.15
303.15
303.15
303.15
303.15
303.15
303.15
303.15
303.15
303.15
303.15
303.15
303.15
303.15
303.15
303.15
303.15
303.15
303.15
303.15
303.15
303.15
303.15
303.15
303.15
303.15
303.15
303.15
303.15
303.15
303.15
303.15
303.15
303.15
303.15
303.15
303.15
303.15
303.15
303.15
303.15
303.15
303.15
303.15
303.15
303.15
303.15
303.15
303.15
303.15
303.15
303.15
303.15
303.15
303.15
303.15
303.15
303.15
303.15
303.15
303.15
303.15
303.15
303.15
303.15
303.15
303.15
303.15
303.15
303.15
303.15
303.15
303.15
303.15
303.15
303.15
303.15
303.15
303.15
303.15
303.15
303.15
303.15
303.15
303.15
303.15
303.15
303.15
303.15
303.15
303.15
303.15
303.15
303.15
303.15
303.15
303.15
303.15
303.15
303.15
303.15
303.15
303.15
303.15
303.15
303.15
303.15
303.15
303.15
303.15
303.15
303.15
303.15
303.15
303.15
303.15
303.15
303.15
303.15
303.15
303.15
303.15
303.15
303.15
303.15
303.15
303.15
303.15
303.15
303.15
303.15
303.15
303.15
303.15
303.15
303.15
303.15
303.15
303.15
303.15
303.15
303.15
303.15
303.15
303.15
303.15
303.15
303.15
303.15
303.15
303.15
303.15
303.15
303.15
303.15
303.15
303.15
303.15
303.15
303.15
303.15
303.15
303.15
303.15
303.15
303.15
303.15
303.15
303.15
303.15
303.15
303.15
303.15
303.15
303.15
303.15
303.15
303.15
303.15
303.15
303.15
303.15
303.15
303.15
303.15
303.15
303.15
303.15
303.15
303.15
303.15
303.15
303.15
303.15
303.15
303.15
303.15
303.15
303.15
303.15
303.15
303.15
303.15
303.15
303.15
303.15
303.15
303.15
303.15
303.15
303.15
303.15
303.15
303.15
303.15
303.15
303.15
303.15
303.15
303.15
303.15
303.15
303.15
303.15
303.15
303.15
303.15
303.15
303.15
303.15
303.15
303.15
303.15
303.15
303.15
303.15
303.15
303.15
303.15
303.15
303.15
303.15
303.15
303.15
303.15
303.15
303.15
303.15
303.15
303.15
303.15
303.15
303.15
303.15
303.15
303.15
303.15
303.15
303.15
303.15
303.15
303.15
303.15
303.15
303.15
303.15
303.15
303.15
303.15
303.15
303.15
303.15
303.15
303.15
303.15
303.15
303.15
303.15
303.15
303.15
303.15
303.15
303.15
303.15
303.15
303.15
303.15
303.15
303.149
303.149
303.149
303.149
303.149
303.149
303.149
303.149
303.149
303.15
303.15
303.15
303.15
303.15
303.15
303.15
303.15
303.15
303.15
303.149
303.149
303.149
303.149
303.149
303.149
303.149
303.149
303.148
303.148
303.148
303.148
303.148
303.148
303.148
303.147
303.147
303.147
303.147
303.147
303.147
303.146
303.146
303.146
303.146
303.146
303.145
303.145
303.145
303.145
303.145
303.144
303.144
303.144
303.143
303.143
303.143
303.142
303.142
303.141
303.149
303.148
303.146
303.145
303.144
303.142
303.141
303.14
303.139
303.138
303.136
303.135
303.134
303.133
303.132
303.131
303.13
303.128
303.127
303.126
303.125
303.124
303.123
303.122
303.121
303.12
303.119
303.118
303.117
303.116
303.115
303.114
303.113
303.112
303.112
303.111
303.11
303.109
303.108
303.107
303.106
303.105
303.104
303.104
303.103
303.102
303.101
303.1
303.099
303.098
303.101
303.14
303.139
303.101
303.002
302.795
302.444
301.946
301.352
300.769
300.313
300.049
299.97
299.695
299.542
299.668
299.784
299.705
299.68
299.841
303.102
303.14
303.139
303.102
303.003
302.797
302.448
301.951
301.358
300.775
300.32
300.056
299.979
299.691
299.523
299.636
299.749
299.676
299.661
299.834
303.102
303.141
303.139
303.102
303.003
302.798
302.45
301.954
301.362
300.78
300.325
300.062
299.987
299.701
299.515
299.613
299.723
299.656
299.649
299.829
303.103
303.141
303.14
303.102
303.003
302.799
302.451
301.955
301.364
300.782
300.328
300.066
299.993
299.71
299.508
299.59
299.698
299.636
299.637
299.824
303.103
303.141
303.14
303.102
303.003
302.798
302.45
301.954
301.363
300.782
300.329
300.068
299.997
299.719
299.502
299.568
299.673
299.616
299.626
299.82
303.103
303.141
303.14
303.102
303.002
302.796
302.447
301.951
301.36
300.779
300.328
300.068
299.999
299.727
299.496
299.547
299.647
299.596
299.614
299.816
303.104
303.142
303.14
303.101
303.001
302.793
302.443
301.946
301.354
300.774
300.324
300.067
299.998
299.734
299.491
299.526
299.622
299.576
299.603
299.813
303.104
303.142
303.139
303.101
302.998
302.789
302.437
301.938
301.346
300.766
300.318
300.063
299.994
299.739
299.487
299.506
299.597
299.556
299.593
299.81
303.105
303.142
303.139
303.099
302.996
302.784
302.429
301.928
301.334
300.755
300.308
300.056
299.987
299.742
299.483
299.487
299.572
299.536
299.583
299.807
303.105
303.142
303.139
303.098
302.993
302.778
302.419
301.914
301.318
300.74
300.295
300.047
299.978
299.744
299.479
299.468
299.547
299.516
299.573
299.805
303.106
303.142
303.139
303.097
302.989
302.77
302.407
301.898
301.299
300.721
300.279
300.034
299.966
299.744
299.475
299.45
299.523
299.496
299.563
299.803
303.106
303.143
303.138
303.095
302.984
302.761
302.392
301.878
301.276
300.698
300.259
300.019
299.952
299.742
299.471
299.432
299.499
299.477
299.554
299.801
303.107
303.143
303.138
303.092
302.978
302.75
302.375
301.854
301.249
300.67
300.234
299.999
299.935
299.738
299.467
299.415
299.475
299.458
299.546
299.8
303.107
303.143
303.137
303.09
302.972
302.738
302.354
301.826
301.216
300.637
300.204
299.975
299.915
299.732
299.462
299.398
299.452
299.439
299.538
299.799
303.108
303.143
303.136
303.087
302.964
302.723
302.331
301.794
301.178
300.598
300.169
299.947
299.891
299.723
299.457
299.381
299.429
299.421
299.53
299.798
303.108
303.143
303.135
303.083
302.956
302.706
302.304
301.757
301.135
300.553
300.128
299.913
299.864
299.712
299.452
299.365
299.406
299.403
299.523
299.798
303.109
303.143
303.134
303.079
302.946
302.687
302.273
301.715
301.084
300.501
300.081
299.874
299.832
299.697
299.445
299.349
299.384
299.385
299.516
299.798
303.109
303.143
303.133
303.075
302.934
302.666
302.238
301.667
301.027
300.442
300.027
299.829
299.797
299.68
299.437
299.334
299.363
299.368
299.51
299.798
303.11
303.143
303.131
303.069
302.922
302.641
302.199
301.613
300.963
300.375
299.966
299.777
299.757
299.659
299.428
299.318
299.341
299.352
299.504
299.798
303.11
303.143
303.129
303.063
302.907
302.613
302.154
301.552
300.891
300.3
299.897
299.719
299.712
299.635
299.418
299.303
299.321
299.336
299.498
299.799
303.11
303.143
303.127
303.056
302.891
302.582
302.105
301.485
300.811
300.218
299.822
299.654
299.662
299.608
299.405
299.288
299.301
299.32
299.493
299.799
303.111
303.143
303.125
303.048
302.873
302.548
302.05
301.41
300.723
300.128
299.74
299.584
299.608
299.578
299.391
299.273
299.281
299.305
299.488
299.8
303.111
303.143
303.122
303.04
302.852
302.509
301.99
301.329
300.628
300.032
299.653
299.508
299.551
299.545
299.376
299.258
299.263
299.29
299.483
299.801
303.111
303.142
303.119
303.03
302.829
302.467
301.923
301.241
300.526
299.93
299.562
299.429
299.49
299.509
299.359
299.242
299.244
299.276
299.479
299.802
303.112
303.142
303.115
303.018
302.804
302.42
301.852
301.146
300.419
299.824
299.47
299.348
299.428
299.472
299.34
299.227
299.227
299.262
299.475
299.803
303.112
303.141
303.111
303.006
302.776
302.37
301.775
301.047
300.308
299.716
299.379
299.269
299.365
299.434
299.319
299.211
299.21
299.249
299.471
299.804
303.112
303.14
303.106
302.992
302.745
302.315
301.693
300.943
300.194
299.61
299.292
299.195
299.305
299.395
299.298
299.195
299.193
299.237
299.467
299.805
303.112
303.139
303.1
302.977
302.712
302.256
301.607
300.836
300.08
299.508
299.213
299.13
299.248
299.357
299.276
299.179
299.178
299.225
299.464
299.806
303.112
303.138
303.094
302.96
302.676
302.194
301.518
300.727
299.969
299.413
299.145
299.076
299.198
299.32
299.254
299.163
299.163
299.213
299.461
299.807
303.112
303.136
303.088
302.941
302.637
302.128
301.426
300.62
299.863
299.327
299.089
299.036
299.155
299.286
299.231
299.148
299.149
299.202
299.458
299.808
303.112
303.134
303.08
302.921
302.595
302.06
301.333
300.514
299.764
299.253
299.046
299.01
299.121
299.256
299.209
299.132
299.136
299.192
299.455
299.809
303.112
303.132
303.072
302.899
302.551
301.989
301.24
300.412
299.674
299.192
299.016
298.996
299.096
299.228
299.187
299.117
299.123
299.182
299.452
299.81
303.112
303.13
303.063
302.876
302.505
301.917
301.148
300.316
299.594
299.143
298.997
298.99
299.078
299.204
299.165
299.103
299.112
299.173
299.45
299.81
303.112
303.128
303.053
302.85
302.457
301.844
301.058
300.227
299.525
299.107
298.987
298.989
299.067
299.183
299.144
299.09
299.102
299.164
299.447
299.811
303.112
303.125
303.042
302.824
302.408
301.771
300.971
300.145
299.467
299.081
298.983
298.991
299.061
299.165
299.124
299.077
299.093
299.155
299.445
299.812
303.112
303.122
303.031
302.796
302.357
301.698
300.888
300.07
299.419
299.063
298.983
298.993
299.058
299.149
299.105
299.066
299.085
299.147
299.442
299.812
303.112
303.118
303.018
302.767
302.305
301.626
300.809
300.003
299.379
299.052
298.984
298.994
299.056
299.133
299.086
299.056
299.078
299.14
299.44
299.812
303.112
303.114
303.005
302.737
302.253
301.556
300.735
299.943
299.345
299.043
298.986
298.994
299.054
299.118
299.069
299.048
299.072
299.132
299.437
299.812
303.111
303.11
302.992
302.707
302.202
301.488
300.664
299.887
299.315
299.035
298.989
298.994
299.051
299.102
299.052
299.041
299.068
299.125
299.434
299.812
303.111
303.106
302.979
302.676
302.151
301.423
300.598
299.835
299.287
299.029
298.991
298.994
299.047
299.086
299.037
299.037
299.065
299.117
299.431
299.811
303.111
303.102
302.965
302.647
302.102
301.36
300.535
299.788
299.263
299.025
298.994
298.994
299.041
299.069
299.023
299.034
299.062
299.11
299.427
299.81
303.11
303.098
302.952
302.618
302.055
301.301
300.477
299.745
299.242
299.021
298.998
298.995
299.032
299.052
299.011
299.033
299.061
299.103
299.423
299.809
303.11
303.094
302.939
302.59
302.01
301.245
300.424
299.707
299.224
299.019
299.001
298.995
299.021
299.035
299.001
299.035
299.061
299.095
299.419
299.807
303.109
303.091
302.927
302.563
301.968
301.194
300.375
299.673
299.209
299.018
299.005
298.996
299.01
299.02
298.994
299.038
299.062
299.088
299.414
299.805
303.109
303.087
302.915
302.538
301.929
301.148
300.333
299.644
299.197
299.018
299.01
298.998
298.997
299.005
298.989
299.043
299.063
299.081
299.409
299.802
303.109
303.084
302.905
302.516
301.895
301.107
300.296
299.62
299.187
299.019
299.015
299
298.986
298.993
298.988
299.05
299.066
299.074
299.403
299.799
303.108
303.081
302.896
302.497
301.865
301.073
300.266
299.601
299.181
299.02
299.02
299.005
298.976
298.984
298.989
299.059
299.068
299.066
299.397
299.796
303.108
303.079
302.889
302.482
301.842
301.046
300.243
299.588
299.178
299.023
299.025
299.011
298.97
298.978
298.994
299.069
299.071
299.059
299.391
299.792
303.108
303.077
302.883
302.47
301.824
301.027
300.228
299.581
299.178
299.027
299.031
299.019
298.968
298.976
299.002
299.08
299.074
299.052
299.384
299.788
303.108
303.076
302.88
302.463
301.814
301.016
300.221
299.58
299.182
299.032
299.037
299.029
298.971
298.979
299.012
299.092
299.076
299.044
299.377
299.784
303.108
303.076
302.879
302.462
301.812
301.015
300.223
299.585
299.189
299.037
299.043
299.041
298.979
298.986
299.026
299.104
299.079
299.037
299.37
299.779
303.108
303.076
302.881
302.465
301.818
301.024
300.235
299.598
299.2
299.044
299.048
299.054
298.993
298.998
299.042
299.116
299.081
299.03
299.362
299.774
303.108
303.078
302.885
302.475
301.833
301.043
300.256
299.618
299.215
299.052
299.053
299.068
299.012
299.014
299.059
299.127
299.082
299.024
299.355
299.768
303.108
303.08
302.892
302.49
301.857
301.074
300.289
299.647
299.235
299.062
299.058
299.081
299.034
299.033
299.077
299.138
299.083
299.018
299.348
299.762
303.108
303.083
302.902
302.511
301.89
301.116
300.332
299.684
299.261
299.073
299.062
299.093
299.058
299.055
299.096
299.146
299.082
299.012
299.34
299.756
303.109
303.087
302.915
302.538
301.933
301.17
300.388
299.731
299.292
299.087
299.065
299.103
299.082
299.077
299.113
299.153
299.081
299.007
299.333
299.749
303.109
303.092
302.93
302.571
301.986
301.236
300.455
299.788
299.33
299.104
299.068
299.11
299.105
299.099
299.129
299.157
299.079
299.004
299.326
299.742
303.11
303.097
302.947
302.608
302.047
301.314
300.536
299.856
299.376
299.125
299.07
299.113
299.126
299.12
299.143
299.159
299.075
299.001
299.32
299.735
303.11
303.102
302.966
302.65
302.116
301.404
300.631
299.937
299.43
299.151
299.074
299.112
299.142
299.136
299.153
299.157
299.071
298.999
299.315
299.727
303.11
303.108
302.986
302.696
302.193
301.506
300.739
300.03
299.495
299.184
299.079
299.107
299.15
299.148
299.158
299.153
299.065
299
299.31
299.72
303.111
303.114
303.007
302.744
302.277
301.618
300.861
300.139
299.572
299.224
299.087
299.098
299.149
299.154
299.159
299.145
299.059
299.002
299.306
299.712
303.111
303.12
303.028
302.794
302.365
301.74
300.997
300.262
299.663
299.274
299.1
299.088
299.139
299.153
299.154
299.134
299.053
299.007
299.304
299.703
303.111
303.125
303.048
302.844
302.456
301.87
301.146
300.402
299.769
299.335
299.12
299.079
299.122
299.145
299.144
299.12
299.047
299.014
299.304
299.695
303.111
303.13
303.067
302.893
302.548
302.006
301.308
300.56
299.893
299.412
299.15
299.073
299.101
299.129
299.129
299.104
299.041
299.025
299.305
299.687
303.11
303.134
303.085
302.94
302.639
302.145
301.481
300.735
300.037
299.505
299.192
299.075
299.079
299.108
299.109
299.088
299.038
299.039
299.309
299.678
303.11
303.138
303.1
302.983
302.727
302.286
301.662
300.926
300.203
299.619
299.25
299.087
299.062
299.085
299.089
299.073
299.037
299.057
299.314
299.67
303.109
303.141
303.114
303.021
302.809
302.424
301.849
301.134
300.392
299.758
299.328
299.113
299.054
299.063
299.069
299.06
299.041
299.079
299.322
299.662
303.108
303.143
303.125
303.054
302.884
302.556
302.038
301.356
300.605
299.923
299.429
299.158
299.059
299.049
299.056
299.054
299.052
299.105
299.333
299.654
303.107
303.144
303.133
303.082
302.949
302.679
302.224
301.587
300.841
300.119
299.558
299.224
299.082
299.047
299.052
299.057
299.069
299.134
299.346
299.646
303.106
303.145
303.14
303.104
303.005
302.789
302.402
301.823
301.099
300.348
299.72
299.315
299.125
299.064
299.061
299.07
299.093
299.167
299.361
299.638
303.105
303.146
303.144
303.12
303.05
302.884
302.566
302.057
301.373
300.611
299.921
299.437
299.189
299.101
299.085
299.095
299.125
299.202
299.377
299.631
303.103
303.146
303.147
303.132
303.084
302.963
302.713
302.282
301.658
300.906
300.166
299.597
299.276
299.152
299.122
299.13
299.163
299.239
299.395
299.623
303.102
303.146
303.149
303.14
303.109
303.025
302.838
302.489
301.943
301.228
300.458
299.804
299.392
299.216
299.171
299.174
299.205
299.276
299.413
299.616
303.1
303.146
303.15
303.145
303.127
303.072
302.939
302.672
302.217
301.567
300.798
300.069
299.55
299.298
299.226
299.224
299.25
299.313
299.431
299.609
303.098
303.145
303.15
303.148
303.138
303.105
303.017
302.824
302.467
301.908
301.178
300.402
299.768
299.407
299.286
299.276
299.295
299.349
299.449
299.603
303.096
303.145
303.15
303.15
303.144
303.126
303.072
302.944
302.683
302.233
301.582
300.803
300.069
299.568
299.361
299.328
299.34
299.382
299.466
299.596
303.094
303.144
303.15
303.15
303.148
303.138
303.109
303.03
302.856
302.523
301.986
301.261
300.468
299.815
299.464
299.379
299.382
299.414
299.482
299.59
303.092
303.144
303.15
303.151
303.15
303.145
303.131
303.088
302.983
302.76
302.359
301.744
300.965
300.189
299.642
299.435
299.423
299.444
299.496
299.584
303.09
303.143
303.15
303.151
303.15
303.149
303.142
303.122
303.067
302.936
302.67
302.208
301.528
300.714
299.974
299.546
299.464
299.472
299.51
299.578
303.088
303.143
303.15
303.151
303.151
303.15
303.148
303.14
303.115
303.05
302.899
302.601
302.09
301.358
300.517
299.822
299.524
299.502
299.523
299.573
303.086
303.142
303.15
303.151
303.151
303.15
303.15
303.147
303.138
303.112
303.043
302.886
302.571
302.032
301.258
300.383
299.716
299.548
299.54
299.569
303.084
303.141
303.15
303.15
303.15
303.15
303.15
303.15
303.147
303.139
303.115
303.052
302.905
302.602
302.062
301.259
300.336
299.693
299.58
299.573
303.082
303.141
303.15
303.15
303.15
303.15
303.15
303.15
303.15
303.148
303.142
303.124
303.077
302.963
302.711
302.223
301.421
300.406
299.748
299.618
303.079
303.14
303.149
303.15
303.15
303.15
303.15
303.15
303.15
303.15
303.148
303.145
303.135
303.109
303.044
302.886
302.532
301.829
300.692
299.901
303.078
303.139
303.149
303.15
303.15
303.15
303.15
303.15
303.15
303.15
303.15
303.148
303.146
303.141
303.13
303.108
303.06
302.945
302.643
301.766
303.076
303.139
303.149
303.15
303.15
303.15
303.15
303.15
303.15
303.15
303.15
303.149
303.148
303.145
303.14
303.131
303.116
303.094
303.062
303.015
303.074
303.138
303.149
303.15
303.15
303.15
303.15
303.15
303.15
303.15
303.15
303.15
303.149
303.148
303.144
303.138
303.126
303.107
303.078
303.033
303.072
303.138
303.149
303.15
303.15
303.15
303.15
303.15
303.15
303.15
303.15
303.15
303.15
303.149
303.147
303.142
303.133
303.116
303.086
303.035
303.071
303.137
303.149
303.15
303.15
303.15
303.15
303.15
303.15
303.15
303.15
303.15
303.15
303.149
303.148
303.145
303.138
303.122
303.093
303.036
303.07
303.137
303.149
303.15
303.15
303.15
303.15
303.15
303.15
303.15
303.15
303.15
303.15
303.15
303.149
303.146
303.141
303.127
303.098
303.037
303.068
303.136
303.149
303.15
303.15
303.15
303.15
303.15
303.15
303.15
303.15
303.15
303.15
303.15
303.149
303.148