/*--------------------------------*- C++ -*----------------------------------*\
  =========                 |
  \\      /  F ield         | OpenFOAM: The Open Source CFD Toolbox
   \\    /   O peration     | Website:  https://openfoam.org
    \\  /    A nd           | Version:  8
     \\/     M anipulation  |
\*---------------------------------------------------------------------------*/
FoamFile
{
    version     2.0;
    format      ascii;
    class       volVectorField;
    location    "500";
    object      U;
}
// * * * * * * * * * * * * * * * * * * * * * * * * * * * * * * * * * * * * * //

dimensions      [0 1 -1 0 0 0 0];

internalField   nonuniform List<vector> 
8400
(
(-86.9969 -0.196853 9.26504e-15)
(-86.6034 -0.201286 9.38363e-15)
(-86.2841 -0.209439 9.49447e-15)
(-85.9478 -0.220679 9.59785e-15)
(-85.5949 -0.23474 9.69386e-15)
(-85.2202 -0.251315 9.78309e-15)
(-84.8186 -0.270043 9.86635e-15)
(-84.3848 -0.290524 9.94397e-15)
(-83.9143 -0.312371 1.00166e-14)
(-83.403 -0.335215 1.00836e-14)
(-82.8482 -0.358709 1.01483e-14)
(-82.2481 -0.382472 1.02116e-14)
(-81.6024 -0.406086 1.02715e-14)
(-80.9121 -0.429182 1.03298e-14)
(-80.1795 -0.451456 1.03871e-14)
(-79.4082 -0.472711 1.04426e-14)
(-78.6028 -0.492812 1.04988e-14)
(-77.7686 -0.51162 1.05568e-14)
(-76.911 -0.528962 1.06145e-14)
(-76.0351 -0.544743 1.06732e-14)
(-75.1455 -0.559028 1.07334e-14)
(-74.2464 -0.571876 1.07998e-14)
(-73.3403 -0.583489 1.08721e-14)
(-72.429 -0.59421 1.09437e-14)
(-71.5133 -0.604498 1.10136e-14)
(-70.5928 -0.61496 1.10928e-14)
(-69.6668 -0.626183 1.11853e-14)
(-68.7339 -0.638767 1.12839e-14)
(-67.792 -0.653278 1.13833e-14)
(-66.8395 -0.670328 1.14933e-14)
(-65.8747 -0.690234 1.16142e-14)
(-64.896 -0.713072 1.17422e-14)
(-63.9022 -0.738881 1.18796e-14)
(-62.8926 -0.767573 1.20246e-14)
(-61.8675 -0.798692 1.21789e-14)
(-60.8273 -0.831678 1.23456e-14)
(-59.7737 -0.866048 1.25258e-14)
(-58.709 -0.90127 1.27212e-14)
(-57.6362 -0.936945 1.29313e-14)
(-56.5589 -0.972961 1.31554e-14)
(-55.4816 -1.00953 1.33933e-14)
(-54.4089 -1.04723 1.36482e-14)
(-53.3457 -1.08702 1.39137e-14)
(-52.2963 -1.13018 1.4186e-14)
(-51.2643 -1.17877 1.44668e-14)
(-50.2526 -1.23574 1.47517e-14)
(-49.2644 -1.30479 1.50411e-14)
(-48.2957 -1.39067 1.53295e-14)
(-47.3168 -1.50257 1.56131e-14)
(-46.2807 -1.66203 1.58911e-14)
(-85.6924 -0.408143 4.5473e-15)
(-85.2851 -0.417146 4.63913e-15)
(-84.9542 -0.436123 4.73037e-15)
(-84.6056 -0.463671 4.82078e-15)
(-84.2404 -0.499115 4.91186e-15)
(-83.8536 -0.541547 5.00438e-15)
(-83.4404 -0.589893 5.09739e-15)
(-82.9959 -0.642982 5.19202e-15)
(-82.5159 -0.699635 5.28871e-15)
(-81.9969 -0.758628 5.3872e-15)
(-81.4365 -0.818691 5.48989e-15)
(-80.8333 -0.878541 5.59753e-15)
(-80.1871 -0.936932 5.70897e-15)
(-79.4992 -0.992775 5.82552e-15)
(-78.7722 -1.04517 5.9475e-15)
(-78.0099 -1.09342 6.07521e-15)
(-77.2168 -1.13688 6.20917e-15)
(-76.3981 -1.17493 6.34925e-15)
(-75.5588 -1.207 6.49497e-15)
(-74.7038 -1.2327 6.64614e-15)
(-73.8378 -1.25203 6.8023e-15)
(-72.9644 -1.26511 6.96302e-15)
(-72.0861 -1.27229 7.13425e-15)
(-71.2044 -1.27446 7.31399e-15)
(-70.32 -1.27272 7.49185e-15)
(-69.4323 -1.26839 7.66543e-15)
(-68.5403 -1.263 7.85556e-15)
(-67.6423 -1.25812 8.05431e-15)
(-66.7362 -1.25507 8.24836e-15)
(-65.8198 -1.25496 8.44466e-15)
(-64.8911 -1.25846 8.64483e-15)
(-63.948 -1.2656 8.84274e-15)
(-62.9893 -1.27571 9.03738e-15)
(-62.0138 -1.28758 9.22617e-15)
(-61.0213 -1.29936 9.40973e-15)
(-60.0126 -1.30872 9.59008e-15)
(-58.989 -1.31312 9.76885e-15)
(-57.9532 -1.31006 9.94895e-15)
(-56.9085 -1.29731 1.0133e-14)
(-55.8592 -1.27318 1.03196e-14)
(-54.8104 -1.23659 1.05091e-14)
(-53.7673 -1.1873 1.07047e-14)
(-52.7358 -1.126 1.09071e-14)
(-51.721 -1.0542 1.11126e-14)
(-50.7283 -0.974597 1.13195e-14)
(-49.7624 -0.891155 1.15257e-14)
(-48.8285 -0.808545 1.17354e-14)
(-47.9282 -0.732277 1.19417e-14)
(-47.0484 -0.673752 1.21469e-14)
(-46.162 -0.662998 1.23471e-14)
(-82.931 -0.815353 1.92228e-15)
(-82.4861 -0.832516 1.95242e-15)
(-82.127 -0.866523 1.98271e-15)
(-81.7494 -0.914426 2.01333e-15)
(-81.3556 -0.975132 2.04492e-15)
(-80.9411 -1.0473 2.07779e-15)
(-80.5017 -1.12932 2.11187e-15)
(-80.0337 -1.21931 2.14771e-15)
(-79.5334 -1.31523 2.18583e-15)
(-78.9983 -1.41493 2.22674e-15)
(-78.4266 -1.51625 2.27087e-15)
(-77.8176 -1.61709 2.31881e-15)
(-77.172 -1.71553 2.37096e-15)
(-76.4915 -1.80994 2.42755e-15)
(-75.7791 -1.89901 2.4889e-15)
(-75.0386 -1.98155 2.55486e-15)
(-74.2744 -2.05644 2.6265e-15)
(-73.491 -2.12285 2.70413e-15)
(-72.6932 -2.18029 2.78699e-15)
(-71.8854 -2.22851 2.87513e-15)
(-71.0717 -2.26761 2.96833e-15)
(-70.2549 -2.29807 3.06646e-15)
(-69.4373 -2.32079 3.17044e-15)
(-68.6197 -2.33735 3.28925e-15)
(-67.8022 -2.34976 3.41298e-15)
(-66.9838 -2.36037 3.52629e-15)
(-66.1629 -2.37175 3.65276e-15)
(-65.3373 -2.38647 3.79744e-15)
(-64.5041 -2.40682 3.94517e-15)
(-63.6604 -2.43461 4.09627e-15)
(-62.8037 -2.47091 4.25441e-15)
(-61.9311 -2.5158 4.41569e-15)
(-61.0401 -2.56847 4.57788e-15)
(-60.1294 -2.62724 4.73595e-15)
(-59.198 -2.6895 4.88838e-15)
(-58.2464 -2.75188 5.03618e-15)
(-57.2758 -2.8107 5.18022e-15)
(-56.289 -2.86232 5.32388e-15)
(-55.2897 -2.90347 5.4703e-15)
(-54.2824 -2.93152 5.62211e-15)
(-53.2725 -2.94491 5.78061e-15)
(-52.2661 -2.94334 5.94969e-15)
(-51.2692 -2.92777 6.13021e-15)
(-50.2876 -2.90041 6.32398e-15)
(-49.3269 -2.86459 6.52791e-15)
(-48.3921 -2.82453 6.73529e-15)
(-47.4878 -2.78496 6.95631e-15)
(-46.6171 -2.75045 7.1797e-15)
(-45.7749 -2.7277 7.40459e-15)
(-44.9493 -2.73261 7.62938e-15)
(-77.86 -1.11334 9.9324e-16)
(-77.3689 -1.13892 9.98799e-16)
(-76.9715 -1.18497 1.00447e-15)
(-76.5545 -1.24871 1.00999e-15)
(-76.1235 -1.32932 1.01636e-15)
(-75.6748 -1.42529 1.02398e-15)
(-75.2056 -1.53435 1.03233e-15)
(-74.713 -1.65372 1.04202e-15)
(-74.1947 -1.7803 1.05342e-15)
(-73.6493 -1.9109 1.06652e-15)
(-73.0759 -2.04245 1.08259e-15)
(-72.475 -2.17204 1.10222e-15)
(-71.8476 -2.29703 1.12502e-15)
(-71.1963 -2.41512 1.15158e-15)
(-70.524 -2.52433 1.18224e-15)
(-69.834 -2.62295 1.21691e-15)
(-69.1303 -2.70969 1.25656e-15)
(-68.4169 -2.78373 1.30156e-15)
(-67.6978 -2.84458 1.35125e-15)
(-66.9763 -2.89227 1.40583e-15)
(-66.2552 -2.92731 1.46509e-15)
(-65.5367 -2.95057 1.52904e-15)
(-64.8219 -2.96387 1.59726e-15)
(-64.1113 -2.96959 1.67776e-15)
(-63.404 -2.97054 1.77295e-15)
(-62.6983 -2.97001 1.85468e-15)
(-61.992 -2.97144 1.93998e-15)
(-61.282 -2.97802 2.04636e-15)
(-60.5648 -2.9926 2.16188e-15)
(-59.8368 -3.01736 2.28235e-15)
(-59.0941 -3.05324 2.41114e-15)
(-58.3333 -3.09994 2.54544e-15)
(-57.5516 -3.15611 2.68329e-15)
(-56.7469 -3.21902 2.81827e-15)
(-55.9178 -3.2846 2.94685e-15)
(-55.0645 -3.348 3.06827e-15)
(-54.1886 -3.40394 3.18167e-15)
(-53.293 -3.4471 3.28999e-15)
(-52.3818 -3.4726 3.39794e-15)
(-51.4608 -3.47654 3.50763e-15)
(-50.5366 -3.45658 3.62149e-15)
(-49.6163 -3.41217 3.74421e-15)
(-48.7071 -3.34458 3.87752e-15)
(-47.816 -3.25704 4.02323e-15)
(-46.9495 -3.15474 4.17843e-15)
(-46.1134 -3.04447 4.32977e-15)
(-45.3129 -2.93432 4.48553e-15)
(-44.5516 -2.83292 4.6386e-15)
(-43.8274 -2.75002 4.78686e-15)
(-43.1318 -2.69997 4.93169e-15)
(-70.008 -1.57148 3.80923e-16)
(-69.4688 -1.61045 3.76359e-16)
(-69.0425 -1.66787 3.71884e-16)
(-68.6003 -1.74482 3.6723e-16)
(-68.1501 -1.84182 3.63273e-16)
(-67.6887 -1.95742 3.60419e-16)
(-67.2139 -2.08877 3.58175e-16)
(-66.7241 -2.23222 3.57003e-16)
(-66.2181 -2.38381 3.57197e-16)
(-65.6953 -2.53954 3.58627e-16)
(-65.1561 -2.69551 3.62451e-16)
(-64.6012 -2.84807 3.69159e-16)
(-64.0321 -2.99399 3.78227e-16)
(-63.4509 -3.13039 3.90198e-16)
(-62.8603 -3.25491 4.05338e-16)
(-62.263 -3.36566 4.23445e-16)
(-61.6621 -3.46132 4.45589e-16)
(-61.0602 -3.5412 4.72274e-16)
(-60.4601 -3.60505 5.02783e-16)
(-59.8639 -3.65337 5.37408e-16)
(-59.2733 -3.68737 5.75883e-16)
(-58.6892 -3.70891 6.18405e-16)
(-58.1122 -3.72061 6.64255e-16)
(-57.5416 -3.7258 7.18358e-16)
(-56.9759 -3.72815 7.94527e-16)
(-56.4128 -3.73172 8.59601e-16)
(-55.8494 -3.74065 9.15826e-16)
(-55.2819 -3.75882 9.8944e-16)
(-54.706 -3.7895 1.077e-15)
(-54.1174 -3.83488 1.17048e-15)
(-53.5117 -3.89593 1.27379e-15)
(-52.8851 -3.97216 1.38653e-15)
(-52.234 -4.06143 1.50675e-15)
(-51.5559 -4.15998 1.62956e-15)
(-50.8495 -4.26284 1.7505e-15)
(-50.1148 -4.36408 1.86643e-15)
(-49.3539 -4.45709 1.97523e-15)
(-48.5704 -4.53513 2.07885e-15)
(-47.7694 -4.59207 2.18249e-15)
(-46.9571 -4.62293 2.29246e-15)
(-46.1412 -4.62431 2.41214e-15)
(-45.3296 -4.59472 2.54707e-15)
(-44.5304 -4.53483 2.69878e-15)
(-43.7512 -4.44741 2.86905e-15)
(-42.9992 -4.33748 3.05318e-15)
(-42.2808 -4.21186 3.23184e-15)
(-41.6017 -4.07849 3.40716e-15)
(-40.9664 -3.94629 3.56751e-15)
(-40.3755 -3.8252 3.70866e-15)
(-39.8248 -3.72954 3.82586e-15)
(-59.3866 -1.95637 -2.88192e-17)
(-58.8429 -2.00375 -3.35484e-17)
(-58.4303 -2.06279 -3.84049e-17)
(-58.0105 -2.14262 -4.38453e-17)
(-57.5916 -2.24557 -4.89701e-17)
(-57.1699 -2.37004 -5.34553e-17)
(-56.7435 -2.51244 -5.81097e-17)
(-56.3112 -2.6683 -6.26125e-17)
(-55.8726 -2.83282 -6.68374e-17)
(-55.4276 -3.00123 -7.10856e-17)
(-54.9767 -3.16889 -7.43143e-17)
(-54.5206 -3.33153 -7.60397e-17)
(-54.0604 -3.48542 -7.6927e-17)
(-53.5977 -3.62739 -7.64713e-17)
(-53.1341 -3.75476 -7.42972e-17)
(-52.6711 -3.86558 -7.05805e-17)
(-52.2103 -3.95856 -6.40011e-17)
(-51.7534 -4.03313 -5.38211e-17)
(-51.3015 -4.08954 -4.06706e-17)
(-50.8554 -4.12903 -2.4022e-17)
(-50.4158 -4.15338 -4.20815e-18)
(-49.9826 -4.16538 1.96776e-17)
(-49.5557 -4.16847 4.63045e-17)
(-49.1339 -4.16653 7.62825e-17)
(-48.715 -4.16407 1.34717e-16)
(-48.2965 -4.16582 1.88098e-16)
(-47.8751 -4.17639 2.19619e-16)
(-47.4469 -4.1998 2.58647e-16)
(-47.0074 -4.23926 3.12537e-16)
(-46.5517 -4.29684 3.70274e-16)
(-46.0754 -4.37306 4.33704e-16)
(-45.5742 -4.46666 5.05813e-16)
(-45.0448 -4.57457 5.88129e-16)
(-44.4851 -4.69209 6.76508e-16)
(-43.8941 -4.81309 7.67105e-16)
(-43.2728 -4.93023 8.54948e-16)
(-42.6241 -5.03552 9.34879e-16)
(-41.9527 -5.1209 1.00516e-15)
(-41.2653 -5.17899 1.07036e-15)
(-40.5697 -5.20392 1.13483e-15)
(-39.8751 -5.19178 1.2027e-15)
(-39.1908 -5.14104 1.28078e-15)
(-38.5257 -5.05293 1.37496e-15)
(-37.8879 -4.93114 1.491e-15)
(-37.2849 -4.78166 1.63282e-15)
(-36.7225 -4.61231 1.79275e-15)
(-36.2055 -4.43205 1.99058e-15)
(-35.7376 -4.25033 2.24045e-15)
(-35.321 -4.07695 2.55995e-15)
(-34.9554 -3.9253 2.97196e-15)
(-46.6797 -2.39628 -1.86478e-16)
(-46.1792 -2.43739 -1.87088e-16)
(-45.8362 -2.48142 -1.8795e-16)
(-45.4987 -2.55138 -1.89695e-16)
(-45.1706 -2.64984 -1.9145e-16)
(-44.8461 -2.77354 -1.92971e-16)
(-44.5228 -2.91751 -1.95483e-16)
(-44.1998 -3.07633 -1.98994e-16)
(-43.877 -3.24449 -2.03667e-16)
(-43.5547 -3.41653 -2.10229e-16)
(-43.2333 -3.58731 -2.17666e-16)
(-42.9136 -3.75225 -2.25516e-16)
(-42.5963 -3.9073 -2.34851e-16)
(-42.2822 -4.04897 -2.45255e-16)
(-41.972 -4.17431 -2.56388e-16)
(-41.6664 -4.28123 -2.67839e-16)
(-41.3656 -4.36859 -2.78879e-16)
(-41.0696 -4.43602 -2.88462e-16)
(-40.7781 -4.48421 -2.95825e-16)
(-40.491 -4.51485 -3.00173e-16)
(-40.2072 -4.53066 -3.015e-16)
(-39.9261 -4.53528 -2.94705e-16)
(-39.6464 -4.53334 -2.86492e-16)
(-39.3663 -4.52969 -2.78498e-16)
(-39.0837 -4.52962 -2.32562e-16)
(-38.7964 -4.53861 -1.79956e-16)
(-38.5007 -4.56173 -1.60855e-16)
(-38.1924 -4.6031 -1.51961e-16)
(-37.8673 -4.66571 -1.25764e-16)
(-37.5209 -4.75114 -9.03714e-17)
(-37.1488 -4.85913 -4.99211e-17)
(-36.7469 -4.98754 -6.87011e-18)
(-36.3122 -5.13226 4.72202e-17)
(-35.843 -5.28719 1.13011e-16)
(-35.3391 -5.44445 1.88513e-16)
(-34.8021 -5.59488 2.7326e-16)
(-34.2359 -5.72859 3.61588e-16)
(-33.6467 -5.83563 4.45357e-16)
(-33.043 -5.90702 5.23135e-16)
(-32.435 -5.93575 5.92462e-16)
(-31.8343 -5.91745 6.4175e-16)
(-31.2529 -5.8509 6.55356e-16)
(-30.7018 -5.73819 6.23663e-16)
(-30.1912 -5.58426 5.30453e-16)
(-29.7292 -5.39629 3.77478e-16)
(-29.3218 -5.18314 1.56079e-16)
(-28.9726 -4.9552 -1.3727e-16)
(-28.683 -4.72323 -5.19018e-16)
(-28.4544 -4.49771 -1.00642e-15)
(-28.2902 -4.291 -1.61979e-15)
(-32.9625 -2.74504 -8.82158e-17)
(-32.5461 -2.74295 -8.84325e-17)
(-32.3198 -2.74764 -8.87293e-17)
(-32.1069 -2.79946 -8.96346e-17)
(-31.9027 -2.89006 -9.05224e-17)
(-31.6998 -3.0104 -9.12708e-17)
(-31.4966 -3.15297 -9.29093e-17)
(-31.293 -3.31135 -9.56666e-17)
(-31.0898 -3.47946 -9.9919e-17)
(-30.888 -3.65156 -1.0647e-16)
(-30.6891 -3.82235 -1.14897e-16)
(-30.4946 -3.98708 -1.25066e-16)
(-30.306 -4.14171 -1.3815e-16)
(-30.1245 -4.28259 -1.54539e-16)
(-29.951 -4.407 -1.74458e-16)
(-29.7855 -4.51279 -1.98494e-16)
(-29.6276 -4.59866 -2.25726e-16)
(-29.4766 -4.66413 -2.55156e-16)
(-29.3311 -4.70963 -2.86746e-16)
(-29.1888 -4.73643 -3.19051e-16)
(-29.0474 -4.74711 -3.53655e-16)
(-28.9044 -4.74547 -3.70667e-16)
(-28.7577 -4.73606 -3.91697e-16)
(-28.6045 -4.72452 -4.24251e-16)
(-28.4421 -4.71747 -3.96962e-16)
(-28.2678 -4.7219 -3.32176e-16)
(-28.0789 -4.74419 -3.09529e-16)
(-27.872 -4.79004 -3.33453e-16)
(-27.6433 -4.86391 -3.59191e-16)
(-27.389 -4.96806 -3.79835e-16)
(-27.1053 -5.10249 -3.89787e-16)
(-26.789 -5.26464 -3.90029e-16)
(-26.4376 -5.44904 -3.75872e-16)
(-26.0495 -5.64747 -3.47929e-16)
(-25.6243 -5.8494 -3.1293e-16)
(-25.1631 -6.04247 -2.62527e-16)
(-24.6695 -6.21322 -1.8141e-16)
(-24.1492 -6.34827 -6.28166e-17)
(-23.6109 -6.43569 8.22433e-17)
(-23.0656 -6.46626 2.54568e-16)
(-22.5265 -6.43444 4.45467e-16)
(-22.0082 -6.33894 6.55902e-16)
(-21.5255 -6.1829 8.8333e-16)
(-21.0921 -5.97345 1.03509e-15)
(-20.7206 -5.72078 1.31314e-15)
(-20.4209 -5.43734 1.65442e-15)
(-20.1998 -5.13701 2.05686e-15)
(-20.0593 -4.83385 2.52021e-15)
(-20 -4.54126 3.02482e-15)
(-20.0277 -4.27004 3.5677e-15)
(-19.4348 -3.05398 9.6702e-19)
(-19.1256 -2.94958 1.08254e-18)
(-19.0268 -2.9066 1.08037e-18)
(-18.9431 -2.94784 1.83853e-19)
(-18.8474 -3.03683 -5.59089e-19)
(-18.7405 -3.15685 -2.88077e-19)
(-18.6241 -3.29879 -1.68261e-19)
(-18.5 -3.45554 -5.58751e-19)
(-18.3702 -3.62028 -1.61939e-18)
(-18.2373 -3.78669 -4.26524e-18)
(-18.1047 -3.94916 -7.70968e-18)
(-17.976 -4.10302 -1.11762e-17)
(-17.8549 -4.24466 -1.6138e-17)
(-17.7444 -4.37151 -2.36249e-17)
(-17.6473 -4.48179 -3.45799e-17)
(-17.5652 -4.57504 -5.05892e-17)
(-17.4987 -4.65176 -7.22617e-17)
(-17.4465 -4.71324 -9.94588e-17)
(-17.4062 -4.76076 -1.32895e-16)
(-17.3741 -4.79634 -1.76585e-16)
(-17.3456 -4.8224 -2.47743e-16)
(-17.315 -4.84155 -2.70709e-16)
(-17.2763 -4.85652 -3.1304e-16)
(-17.2248 -4.87081 -4.35259e-16)
(-17.1569 -4.88886 -4.81084e-16)
(-17.07 -4.91563 -3.97512e-16)
(-16.9619 -4.95665 -3.05965e-16)
(-16.8307 -5.01788 -2.98222e-16)
(-16.6749 -5.10496 -3.28379e-16)
(-16.4928 -5.22226 -3.86127e-16)
(-16.283 -5.37216 -4.46154e-16)
(-16.0438 -5.55403 -5.10935e-16)
(-15.7738 -5.76353 -5.73795e-16)
(-15.472 -5.99255 -6.32753e-16)
(-15.1381 -6.22943 -6.81509e-16)
(-14.7724 -6.4594 -7.04172e-16)
(-14.3771 -6.66583 -7.00595e-16)
(-13.9563 -6.8319 -6.74656e-16)
(-13.5162 -6.94221 -6.29818e-16)
(-13.0652 -6.98438 -5.74562e-16)
(-12.6139 -6.95043 -5.06123e-16)
(-12.1749 -6.83731 -4.50098e-16)
(-11.7611 -6.64693 -4.02334e-16)
(-11.3861 -6.3862 -3.44951e-16)
(-11.0643 -6.06598 -2.74818e-16)
(-10.81 -5.70094 -1.82208e-16)
(-10.6369 -5.30815 -5.26856e-17)
(-10.5547 -4.90661 1.23377e-16)
(-10.5706 -4.51829 3.54145e-16)
(-10.6986 -4.1589 6.40446e-16)
(-6.73692 -3.34766 7.0961e-18)
(-6.7498 -2.91406 7.57437e-18)
(-6.67906 -2.89445 7.8357e-18)
(-6.66871 -2.9712 7.34369e-18)
(-6.62005 -3.08882 5.7565e-18)
(-6.54891 -3.23171 5.17461e-18)
(-6.45774 -3.39323 5.9807e-18)
(-6.34823 -3.56651 6.94118e-18)
(-6.22382 -3.74382 7.80285e-18)
(-6.08856 -3.91728 8.06088e-18)
(-5.94631 -4.07996 7.14075e-18)
(-5.80194 -4.22645 6.7418e-18)
(-5.66305 -4.35205 7.71027e-18)
(-5.53685 -4.45435 8.70282e-18)
(-5.42897 -4.5325 9.10948e-18)
(-5.34354 -4.58796 8.14559e-18)
(-5.28481 -4.62386 2.27486e-18)
(-5.25746 -4.6439 -7.46316e-18)
(-5.263 -4.653 -9.32281e-18)
(-5.29809 -4.65694 -6.62744e-18)
(-5.3547 -4.66202 -1.30014e-16)
(-5.42368 -4.67424 -1.19635e-16)
(-5.49425 -4.69879 -4.34652e-17)
(-5.55426 -4.73939 -2.14242e-16)
(-5.5927 -4.79852 -4.4672e-16)
(-5.60168 -4.8772 -5.00252e-16)
(-5.57578 -4.97608 -3.844e-16)
(-5.51262 -5.09617 -3.15646e-16)
(-5.41348 -5.23832 -2.73036e-16)
(-5.28123 -5.40349 -2.93592e-16)
(-5.11841 -5.59242 -3.2766e-16)
(-4.92762 -5.80481 -3.87109e-16)
(-4.71218 -6.03801 -4.5443e-16)
(-4.47502 -6.2859 -5.37572e-16)
(-4.21815 -6.53827 -6.4992e-16)
(-3.94329 -6.78135 -7.55017e-16)
(-3.65275 -6.99895 -8.34146e-16)
(-3.34998 -7.17364 -8.70987e-16)
(-3.0398 -7.28875 -8.65402e-16)
(-2.72878 -7.33055 -8.31304e-16)
(-2.42507 -7.2901 -7.91095e-16)
(-2.13831 -7.16379 -7.60865e-16)
(-1.87574 -6.95327 -7.27447e-16)
(-1.64525 -6.665 -6.97246e-16)
(-1.45495 -6.3088 -6.66604e-16)
(-1.31371 -5.89684 -6.48735e-16)
(-1.23007 -5.44315 -6.45033e-16)
(-1.21257 -4.96276 -6.58475e-16)
(-1.27077 -4.47786 -6.70612e-16)
(-1.42653 -4.01154 -7.005e-16)
(4.31187 -4.46713 6.21383e-18)
(4.16907 -3.15298 6.58287e-18)
(4.20003 -2.89253 6.93366e-18)
(4.35645 -2.93821 8.356e-18)
(4.50072 -3.07672 8.26251e-18)
(4.64719 -3.25859 6.32855e-18)
(4.80834 -3.46592 5.69583e-18)
(4.98688 -3.68585 5.816e-18)
(5.17958 -3.90735 5.9423e-18)
(5.38452 -4.12049 7.10976e-18)
(5.59904 -4.31626 7.4023e-18)
(5.81734 -4.48639 6.20138e-18)
(6.03163 -4.6239 5.9349e-18)
(6.23411 -4.72417 6.22931e-18)
(6.41791 -4.78605 6.39151e-18)
(6.5752 -4.81072 7.4848e-18)
(6.69751 -4.80224 6.17905e-18)
(6.77789 -4.7662 -4.64954e-18)
(6.81351 -4.71047 -1.33983e-17)
(6.80303 -4.6446 3.68606e-17)
(6.74701 -4.57925 -4.49543e-17)
(6.65032 -4.5261 -1.22175e-16)
(6.52224 -4.49636 -3.8638e-17)
(6.37608 -4.49984 1.90905e-17)
(6.22761 -4.54427 -8.11599e-17)
(6.09333 -4.6339 -2.57903e-16)
(5.98867 -4.76916 -3.40355e-16)
(5.92562 -4.94694 -3.64594e-16)
(5.91118 -5.16117 -3.3013e-16)
(5.94765 -5.40418 -3.17565e-16)
(6.0327 -5.66811 -3.15717e-16)
(6.15955 -5.94564 -3.46024e-16)
(6.31906 -6.22951 -3.77135e-16)
(6.50208 -6.51152 -4.35453e-16)
(6.70052 -6.78202 -5.37977e-16)
(6.90768 -7.0296 -6.36799e-16)
(7.11797 -7.24097 -7.03106e-16)
(7.3261 -7.40135 -7.30274e-16)
(7.52577 -7.49606 -7.26798e-16)
(7.70971 -7.51283 -7.02413e-16)
(7.87092 -7.44399 -6.75434e-16)
(8.00246 -7.28702 -6.65498e-16)
(8.09842 -7.04507 -6.46924e-16)
(8.15308 -6.72541 -6.23745e-16)
(8.16108 -6.33855 -6.01192e-16)
(8.11647 -5.89642 -5.81601e-16)
(8.01349 -5.41271 -5.6942e-16)
(7.84676 -4.90273 -5.68899e-16)
(7.61232 -4.38313 -5.70455e-16)
(7.30697 -3.87099 -5.76367e-16)
(14.451 -3.87807 6.06421e-18)
(14.5744 -3.31971 6.17886e-18)
(14.6857 -3.17129 6.06643e-18)
(14.9156 -3.21577 6.66327e-18)
(15.1616 -3.34791 7.05897e-18)
(15.4108 -3.5362 6.46901e-18)
(15.671 -3.76159 6.16234e-18)
(15.9459 -4.00533 6.09367e-18)
(16.2353 -4.25161 5.79816e-18)
(16.5371 -4.48714 6.31536e-18)
(16.8479 -4.70065 6.7402e-18)
(17.1626 -4.8812 6.22946e-18)
(17.4741 -5.01946 6.01455e-18)
(17.7736 -5.10889 6.03759e-18)
(18.051 -5.14645 5.84017e-18)
(18.2967 -5.13311 6.00091e-18)
(18.502 -5.07334 4.65717e-18)
(18.6588 -4.9748 -3.14019e-18)
(18.7599 -4.84771 -1.07744e-17)
(18.801 -4.70501 1.71874e-17)
(18.7809 -4.56175 -2.33942e-17)
(18.7021 -4.43406 -8.48514e-17)
(18.572 -4.3382 -6.89613e-17)
(18.4019 -4.2892 -1.41066e-17)
(18.2069 -4.29885 -1.33361e-17)
(18.0041 -4.37444 -7.77572e-17)
(17.811 -4.51797 -1.48942e-16)
(17.6438 -4.72572 -2.04003e-16)
(17.5159 -4.98898 -2.35119e-16)
(17.4363 -5.29549 -2.57914e-16)
(17.4087 -5.63106 -2.80786e-16)
(17.4315 -5.98076 -3.11325e-16)
(17.4988 -6.32973 -3.45301e-16)
(17.6018 -6.66395 -3.92285e-16)
(17.7301 -6.9703 -4.37639e-16)
(17.8727 -7.23604 -4.7102e-16)
(18.0184 -7.44797 -4.84399e-16)
(18.1562 -7.5928 -4.80568e-16)
(18.2751 -7.65843 -4.67336e-16)
(18.3645 -7.63569 -4.47942e-16)
(18.4153 -7.51956 -4.26664e-16)
(18.4203 -7.31035 -4.16124e-16)
(18.375 -7.01325 -4.10543e-16)
(18.2761 -6.63668 -4.06842e-16)
(18.1209 -6.19129 -4.03132e-16)
(17.9063 -5.68933 -3.97189e-16)
(17.6274 -5.14467 -3.91607e-16)
(17.2786 -4.57343 -3.89478e-16)
(16.8563 -3.99357 -3.81914e-16)
(16.3566 -3.42296 -3.7834e-16)
(26.7772 -3.4511 5.79705e-18)
(26.7573 -3.20661 5.85429e-18)
(26.7003 -3.18609 5.48361e-18)
(26.8066 -3.30693 5.8529e-18)
(26.9845 -3.50227 6.45346e-18)
(27.1974 -3.74649 6.157e-18)
(27.4436 -4.02175 5.98203e-18)
(27.7221 -4.30852 5.93053e-18)
(28.0286 -4.58949 5.55271e-18)
(28.3577 -4.85091 5.90042e-18)
(28.7043 -5.08096 6.37159e-18)
(29.0624 -5.26827 6.05197e-18)
(29.4236 -5.40248 5.88872e-18)
(29.777 -5.47586 5.86491e-18)
(30.1104 -5.48422 5.47331e-18)
(30.4113 -5.4278 5.50889e-18)
(30.6671 -5.31084 4.36336e-18)
(30.8665 -5.14179 -2.93448e-18)
(30.9995 -4.93324 -9.85354e-18)
(31.0585 -4.70161 1.37661e-17)
(31.0396 -4.46708 -1.34972e-17)
(30.9439 -4.25231 -7.29984e-17)
(30.7774 -4.08067 -8.5795e-17)
(30.5522 -3.97388 -4.35767e-17)
(30.2849 -3.94926 -5.07836e-18)
(29.9958 -4.01759 -8.88606e-18)
(29.7066 -4.18165 -3.56761e-17)
(29.4385 -4.43575 -7.29949e-17)
(29.2093 -4.76651 -1.00317e-16)
(29.0318 -5.15482 -1.29693e-16)
(28.9127 -5.57808 -1.58671e-16)
(28.8527 -6.01272 -1.82798e-16)
(28.8463 -6.4364 -2.03954e-16)
(28.8834 -6.82923 -2.22937e-16)
(28.9503 -7.17379 -2.35565e-16)
(29.0316 -7.45449 -2.4072e-16)
(29.1114 -7.65748 -2.39388e-16)
(29.1737 -7.77102 -2.3488e-16)
(29.203 -7.78659 -2.31557e-16)
(29.186 -7.70035 -2.28756e-16)
(29.113 -7.51315 -2.24689e-16)
(28.9784 -7.23051 -2.25769e-16)
(28.7811 -6.86094 -2.30787e-16)
(28.5228 -6.41395 -2.34058e-16)
(28.2053 -5.89892 -2.35364e-16)
(27.8285 -5.326 -2.32028e-16)
(27.3896 -4.70772 -2.34094e-16)
(26.8835 -4.06034 -2.46299e-16)
(26.3058 -3.40408 -2.66e-16)
(25.6514 -2.76104 -3.02486e-16)
(39.6475 -3.35067 5.52851e-18)
(39.4793 -3.28739 5.55921e-18)
(39.3056 -3.37119 5.29716e-18)
(39.3107 -3.55017 5.51379e-18)
(39.4123 -3.78734 5.90619e-18)
(39.5684 -4.06587 5.72525e-18)
(39.7742 -4.37073 5.62157e-18)
(40.0278 -4.68333 5.59699e-18)
(40.3218 -4.98602 5.44077e-18)
(40.6489 -5.26466 5.5264e-18)
(41.0032 -5.50643 5.70575e-18)
(41.3785 -5.69921 5.56811e-18)
(41.7657 -5.83173 5.48789e-18)
(42.1526 -5.89455 5.46788e-18)
(42.5242 -5.88126 4.91013e-18)
(42.8645 -5.7892 4.82407e-18)
(43.1573 -5.62009 3.84175e-18)
(43.3865 -5.38072 -2.77963e-18)
(43.5371 -5.08385 -9.43641e-18)
(43.5969 -4.7487 1.42102e-17)
(43.5574 -4.40066 -6.73296e-19)
(43.4167 -4.07027 -5.60473e-17)
(43.1802 -3.79081 -9.90584e-17)
(42.8619 -3.5945 -9.32555e-17)
(42.4826 -3.50836 -5.80171e-17)
(42.0685 -3.55016 -2.49285e-17)
(41.6478 -3.72546 -9.35868e-18)
(41.2482 -4.02664 -9.39085e-18)
(40.8933 -4.4339 -2.26522e-17)
(40.6004 -4.91834 -4.40394e-17)
(40.3784 -5.44601 -6.59331e-17)
(40.2275 -5.98243 -8.13289e-17)
(40.1398 -6.49604 -1.00059e-16)
(40.1014 -6.95979 -1.19225e-16)
(40.0939 -7.35084 -1.3382e-16)
(40.0961 -7.64952 -1.46052e-16)
(40.0857 -7.83959 -1.56004e-16)
(40.0414 -7.9096 -1.63762e-16)
(39.9437 -7.85502 -1.72871e-16)
(39.778 -7.68003 -1.84475e-16)
(39.5368 -7.39657 -1.99494e-16)
(39.2199 -7.02085 -2.16387e-16)
(38.8342 -6.56851 -2.30096e-16)
(38.3904 -6.05076 -2.33334e-16)
(37.8979 -5.47358 -2.25091e-16)
(37.361 -4.84086 -2.05073e-16)
(36.7777 -4.15927 -1.79128e-16)
(36.1412 -3.44272 -1.61291e-16)
(35.4447 -2.71382 -1.63131e-16)
(34.6811 -2.00079 -2.00179e-16)
(52.438 -2.63852 5.12911e-18)
(52.1856 -2.77382 5.14636e-18)
(51.9709 -3.02074 4.68818e-18)
(51.9363 -3.32787 4.86039e-18)
(52.0008 -3.67444 5.41049e-18)
(52.1246 -4.05032 5.24397e-18)
(52.3048 -4.44196 5.14014e-18)
(52.5399 -4.83127 5.10062e-18)
(52.8223 -5.20018 4.625e-18)
(53.1441 -5.53286 4.77491e-18)
(53.5 -5.8155 5.28908e-18)
(53.8848 -6.03595 5.11323e-18)
(54.2901 -6.18344 4.99989e-18)
(54.7032 -6.24889 4.93087e-18)
(55.1077 -6.22546 4.45478e-18)
(55.4846 -6.10849 4.14934e-18)
(55.8127 -5.89655 2.73627e-18)
(56.0697 -5.59324 -3.70752e-18)
(56.2336 -5.20893 -9.01569e-18)
(56.2845 -4.76266 1.63917e-17)
(56.2075 -4.28317 1.93198e-17)
(55.9956 -3.80861 -2.15198e-17)
(55.653 -3.38369 -8.71195e-17)
(55.1959 -3.05443 -1.39665e-16)
(54.651 -2.86184 -1.62093e-16)
(54.0533 -2.83507 -1.59748e-16)
(53.4415 -2.98621 -1.42789e-16)
(52.8536 -3.30814 -1.35561e-16)
(52.3218 -3.77576 -1.39579e-16)
(51.8683 -4.35014 -1.54405e-16)
(51.5027 -4.98474 -1.79527e-16)
(51.2224 -5.63236 -2.1246e-16)
(51.0138 -6.25025 -2.51755e-16)
(50.8565 -6.80292 -2.89694e-16)
(50.7262 -7.26187 -3.199e-16)
(50.596 -7.60343 -3.44527e-16)
(50.4381 -7.80712 -3.61535e-16)
(50.2251 -7.85736 -3.66476e-16)
(49.9327 -7.74862 -3.64773e-16)
(49.5442 -7.49034 -3.60472e-16)
(49.0557 -7.10737 -3.55222e-16)
(48.4776 -6.6325 -3.47679e-16)
(47.8321 -6.0951 -3.30166e-16)
(47.1464 -5.5118 -2.94487e-16)
(46.4435 -4.88533 -2.43614e-16)
(45.7354 -4.21037 -1.87428e-16)
(45.0208 -3.48263 -1.38832e-16)
(44.2884 -2.70823 -1.10443e-16)
(43.5249 -1.90898 -1.139e-16)
(42.7206 -1.11826 -1.63803e-16)
(65.6042 -2.63603 4.59082e-18)
(65.182 -2.88835 4.60192e-18)
(64.8726 -3.2307 4.24212e-18)
(64.7485 -3.61107 4.36893e-18)
(64.7204 -4.02064 4.79494e-18)
(64.7559 -4.4541 4.6701e-18)
(64.8588 -4.89886 4.59622e-18)
(65.0323 -5.33777 4.57355e-18)
(65.2713 -5.75168 4.19559e-18)
(65.5682 -6.12132 4.32245e-18)
(65.9162 -6.42887 4.74153e-18)
(66.307 -6.65939 4.60694e-18)
(66.7288 -6.8009 4.50519e-18)
(67.1641 -6.84524 4.39344e-18)
(67.5918 -6.78705 3.78529e-18)
(67.9878 -6.62226 3.15742e-18)
(68.326 -6.34854 1.381e-18)
(68.5784 -5.96745 -4.96065e-18)
(68.7168 -5.48737 -9.01245e-18)
(68.7148 -4.92649 1.7067e-17)
(68.5507 -4.31589 4.37496e-17)
(68.2121 -3.70095 4.32647e-17)
(67.7012 -3.13794 6.2482e-18)
(67.0365 -2.68656 -5.44687e-17)
(66.252 -2.40055 -1.20535e-16)
(65.3932 -2.31748 -1.82926e-16)
(64.5115 -2.45116 -2.51433e-16)
(63.6569 -2.78907 -3.19791e-16)
(62.8711 -3.29472 -3.80431e-16)
(62.1806 -3.91532 -4.32733e-16)
(61.5939 -4.59164 -4.812e-16)
(61.1012 -5.26742 -5.12042e-16)
(60.6794 -5.89517 -5.16734e-16)
(60.2983 -6.43851 -4.93672e-16)
(59.9259 -6.87177 -4.52064e-16)
(59.5334 -7.17664 -4.02271e-16)
(59.0949 -7.33782 -3.45668e-16)
(58.5856 -7.34145 -2.73025e-16)
(57.9811 -7.1801 -1.86681e-16)
(57.2627 -6.86229 -8.89682e-17)
(56.4271 -6.41879 1.87767e-17)
(55.4936 -5.89446 1.29166e-16)
(54.5032 -5.32922 2.40856e-16)
(53.5064 -4.74273 3.60033e-16)
(52.5469 -4.13278 4.70322e-16)
(51.6507 -3.48392 5.48868e-16)
(50.8206 -2.78002 5.82731e-16)
(50.0398 -2.01996 5.58416e-16)
(49.2838 -1.23161 4.70417e-16)
(48.5344 -0.461175 3.15218e-16)
(77.3717 -1.65243 4.09566e-18)
(76.7842 -2.04191 4.08321e-18)
(76.4063 -2.48999 3.75717e-18)
(76.2377 -2.94847 3.87275e-18)
(76.1852 -3.43088 4.26937e-18)
(76.2279 -3.9404 4.19518e-18)
(76.3737 -4.46781 4.20319e-18)
(76.6227 -4.99905 4.28672e-18)
(76.9607 -5.51214 3.76851e-18)
(77.3675 -5.98064 4.01526e-18)
(77.8203 -6.37634 4.73291e-18)
(78.2937 -6.67344 4.54818e-18)
(78.7587 -6.85021 4.27919e-18)
(79.1853 -6.89441 3.85764e-18)
(79.5466 -6.7998 3.1172e-18)
(79.8196 -6.56328 1.95155e-18)
(79.9841 -6.18499 -4.18568e-19)
(80.0214 -5.67 -6.26148e-18)
(79.9132 -5.03063 -1.02119e-17)
(79.6411 -4.2899 7.7669e-18)
(79.1872 -3.48666 4.18188e-17)
(78.5393 -2.68169 7.22435e-17)
(77.6987 -1.95339 9.90985e-17)
(76.6853 -1.38583 1.27013e-16)
(75.5389 -1.05571 1.5696e-16)
(74.3161 -1.01658 1.90701e-16)
(73.0808 -1.28477 2.33029e-16)
(71.8936 -1.83324 2.83183e-16)
(70.7988 -2.59445 3.40263e-16)
(69.8159 -3.47422 4.09771e-16)
(68.9373 -4.37259 4.89506e-16)
(68.1335 -5.20362 5.70914e-16)
(67.3612 -5.90393 6.56308e-16)
(66.5733 -6.43351 7.44338e-16)
(65.7301 -6.77282 8.37124e-16)
(64.8079 -6.91747 9.22068e-16)
(63.8012 -6.87456 9.98705e-16)
(62.7147 -6.65911 1.0696e-15)
(61.5503 -6.29137 1.1347e-15)
(60.3026 -5.80089 1.20153e-15)
(58.9702 -5.2359 1.26849e-15)
(57.5716 -4.65499 1.32041e-15)
(56.1577 -4.09833 1.36165e-15)
(54.7991 -3.56962 1.39751e-15)
(53.5593 -3.04292 1.42851e-15)
(52.4797 -2.47904 1.45707e-15)
(51.572 -1.83685 1.49625e-15)
(50.8155 -1.09142 1.54425e-15)
(50.1724 -0.259638 1.61991e-15)
(49.5176 0.588002 1.6878e-15)
(85.625 -1.74614 2.83518e-18)
(85.6019 -2.47032 2.63991e-18)
(86.0059 -3.21053 2.43223e-18)
(86.6133 -3.919 2.42125e-18)
(87.2587 -4.62367 2.86649e-18)
(87.8904 -5.31941 3.38963e-18)
(88.4928 -5.99346 3.98332e-18)
(89.0336 -6.63268 4.6279e-18)
(89.4708 -7.21529 3.96758e-18)
(89.783 -7.71942 3.89013e-18)
(89.9644 -8.11803 3.93283e-18)
(89.9987 -8.38207 2.70937e-18)
(89.8599 -8.48259 1.01806e-18)
(89.5342 -8.40767 -9.57636e-19)
(89.0269 -8.15313 -3.39015e-18)
(88.3534 -7.71794 -4.7496e-18)
(87.5359 -7.10459 -4.92368e-18)
(86.5982 -6.32109 -1.02399e-17)
(85.5606 -5.38185 -2.06196e-17)
(84.4343 -4.30897 -3.06436e-17)
(83.2166 -3.13794 -4.87735e-17)
(81.8951 -1.93486 -9.21862e-17)
(80.4412 -0.792601 -1.3838e-16)
(78.8458 0.182326 -1.836e-16)
(77.1401 0.880084 -2.22078e-16)
(75.3853 1.21026 -2.56374e-16)
(73.6474 1.12438 -2.98713e-16)
(72.0231 0.62838 -3.37715e-16)
(70.5352 -0.209208 -3.77233e-16)
(69.1821 -1.27302 -4.27625e-16)
(67.9228 -2.42281 -4.70107e-16)
(66.6957 -3.52804 -4.97794e-16)
(65.4131 -4.48194 -5.17027e-16)
(63.9973 -5.21031 -5.28546e-16)
(62.4097 -5.67495 -5.29239e-16)
(60.6486 -5.8616 -5.26302e-16)
(58.7518 -5.77611 -5.24296e-16)
(56.7772 -5.4463 -5.30868e-16)
(54.7809 -4.92247 -5.45929e-16)
(52.7975 -4.2743 -5.56301e-16)
(50.842 -3.59544 -5.66936e-16)
(48.8888 -2.98786 -5.88125e-16)
(46.9777 -2.51988 -5.98187e-16)
(45.2209 -2.19092 -6.07166e-16)
(43.7037 -1.94369 -6.2139e-16)
(42.4857 -1.70687 -6.55915e-16)
(41.5976 -1.417 -6.80539e-16)
(41.1372 -1.01729 -7.83612e-16)
(40.8169 -0.469109 -9.40915e-16)
(40.4382 0.180135 -1.02113e-15)
(120.32 -1.1356 -9.71216e-18)
(118.36 -1.72871 -9.5102e-18)
(116.646 -2.24612 -9.08625e-18)
(114.763 -2.72937 -6.71487e-18)
(112.533 -3.22264 -2.6508e-18)
(109.954 -3.72136 -4.02051e-18)
(107.352 -4.18424 -8.7531e-18)
(104.633 -4.62242 -1.31413e-17)
(101.59 -5.03709 -2.89807e-17)
(98.3893 -5.41353 -4.33118e-17)
(95.2279 -5.73327 -5.79693e-17)
(91.9835 -5.97249 -7.3606e-17)
(88.6228 -6.10587 -8.92715e-17)
(85.1778 -6.12488 -1.02445e-16)
(81.7277 -6.02179 -1.10619e-16)
(78.3501 -5.78938 -1.12397e-16)
(75.1244 -5.42307 -1.06188e-16)
(72.1218 -4.92167 -9.05208e-17)
(69.4014 -4.28852 -5.80742e-17)
(67.0091 -3.53176 -3.42897e-18)
(64.9652 -2.66448 6.65409e-17)
(63.2939 -1.71268 1.46489e-16)
(61.2138 -0.70843 2.28987e-16)
(58.6373 0.261277 3.18588e-16)