/*--------------------------------*- C++ -*----------------------------------*\
  =========                 |
  \\      /  F ield         | OpenFOAM: The Open Source CFD Toolbox
   \\    /   O peration     | Website:  https://openfoam.org
    \\  /    A nd           | Version:  8
     \\/     M anipulation  |
\*---------------------------------------------------------------------------*/
FoamFile
{
    version     2.0;
    format      ascii;
    class       volScalarField;
    location    "700";
    object      alphat;
}
// * * * * * * * * * * * * * * * * * * * * * * * * * * * * * * * * * * * * * //

dimensions      [1 -1 -1 0 0 0 0];

internalField   nonuniform List<scalar> 
1200
(
0.00939518
0.00929531
0.00920051
0.00909866
0.00897752
0.00884969
0.00872372
0.00862431
0.00851907
0.00842376
0.00867107
0.00906312
0.00934227
0.00961073
0.00985745
0.0103317
0.01122
0.0121508
0.0133854
0.0142278
0.0151911
0.0155461
0.0060677
0.00611168
0.00619937
0.00632918
0.00646839
0.00659343
0.00670205
0.00684925
0.00707663
0.00730123
0.00753092
0.00776765
0.00799025
0.00818595
0.00837218
0.00857547
0.00882129
0.00897855
0.00877914
0.00874431
0.00912336
0.0096732
0.010065
0.0103053
0.0105231
0.0107688
0.0110678
0.0113815
0.0116512
0.0119796
0.0119864
0.0124453
0.0127891
0.0131937
0.0136379
0.0137253
0.0164049
0.0205669
0.00729405
0.00632172
0.00550947
0.00481395
0.00420095
0.00368292
0.00327722
0.00298453
0.00267641
0.00291321
0.00475101
0.00507595
0.0044062
0.00334379
0.00307967
0.00328641
0.00363124
0.00395449
0.00471582
0.00557487
0.00694642
0.00840236
0.00987298
0.0111728
0.0123975
0.0139065
0.0151586
0.0154873
0.0148499
0.00376893
0.00412395
0.00411534
0.00397253
0.00389243
0.0038626
0.0038614
0.00382606
0.00348241
0.0162278
0.00358007
0.00318425
0.00336577
0.00339786
0.00396082
0.00427923
0.00425378
0.00413785
0.0039907
0.00467632
0.00480011
0.00452894
0.00450796
0.00513742
0.00687288
0.00984584
0.00756235
0.0107067
0.0140917
0.0167804
0.0261517
0.00728331
0.00627558
0.0054217
0.00467898
0.00402269
0.00345553
0.00298816
0.00260786
0.00229212
0.00263179
0.00385967
0.00356005
0.00207482
0.00191185
0.00324862
0.00398717
0.00382573
0.00442599
0.00599333
0.00658539
0.00912307
0.0111084
0.0132099
0.0157081
0.0038553
0.00421722
0.00452723
0.00480132
0.00503855
0.00523384
0.00538334
0.00547263
0.00553192
0.00560231
0.00567754
0.00575963
0.00587815
0.00604165
0.00626023
0.00648748
0.00672379
0.00694832
0.00719507
0.00744084
0.00767902
0.00799283
0.00836644
0.00866859
0.0088284
0.00877972
0.00879722
0.00919359
0.0113116
0.0137152
0.0155098
0.0173977
0.0191234
0.0218319
0.0247744
0.0277933
0.00728428
0.00627982
0.00542719
0.00468535
0.00402772
0.00345573
0.00297919
0.0025723
0.00222927
0.0024552
0.0032713
0.00319713
0.00254762
0.00220723
0.0035698
0.00510381
0.00559248
0.00823673
0.0126431
0.0140734
0.0151605
0.00377567
0.00406745
0.00435715
0.00465553
0.00494395
0.00521076
0.0054556
0.00568659
0.005915
0.00612249
0.00630792
0.0064703
0.00660636
0.00672414
0.00682935
0.00691878
0.00698439
0.00700813
0.00697605
0.00690771
0.00688667
0.00705131
0.00741239
0.00784554
0.00833315
0.00885536
0.00949107
0.0102352
0.0110054
0.0117717
0.0128178
0.0141504
0.0157021
0.017281
0.0189376
0.0208178
0.0230161
0.0254324
0.0280895
0.0072866
0.00628278
0.00542843
0.00468346
0.00402513
0.00345274
0.00297962
0.00257632
0.00222759
0.00219553
0.0026452
0.00275605
0.00252756
0.00222916
0.00233884
0.00462733
0.0055209
0.00596839
0.0074973
0.0102598
0.0134573
0.014882
0.00373078
0.00395388
0.0042094
0.00443781
0.00465
0.00485608
0.00505167
0.00521585
0.00535754
0.00548827
0.00559093
0.00565472
0.00567932
0.0056716
0.00563871
0.00559753
0.00561789
0.00571945
0.00588711
0.00613221
0.00639303
0.0067125
0.00710714
0.00759032
0.008139
0.00888251
0.009811
0.0108269
0.0118858
0.0129991
0.0142179
0.0155603
0.0170314
0.0186602
0.0204719
0.0225249
0.0249192
0.0277679
0.00728978
0.00628696
0.00543101
0.00468371
0.00402543
0.00345481
0.00298032
0.00258661
0.00224151
0.00204714
0.00217037
0.00224114
0.00214936
0.00200456
0.00194408
0.0024075
0.00304619
0.00355054
0.00450129
0.00650644
0.00961414
0.0121476
0.0143286
0.015866
0.0161963
0.00379188
0.00390988
0.00403059
0.00416307
0.0042678
0.00441828
0.00458253
0.00469212
0.0047623
0.00480301
0.00482302
0.00482894
0.00479745
0.00471339
0.00458097
0.00444994
0.00439933
0.00449438
0.00462928
0.00533989
0.00606355
0.00603851
0.00647127
0.00759206
0.00885351
0.0101414
0.011389
0.0126352
0.0139546
0.0155208
0.0173062
0.0191827
0.0212128
0.0238497
0.0276849
0.00729321
0.00629195
0.00543582
0.00468719
0.00402804
0.00345967
0.00298827
0.00260036
0.00226882
0.00199795
0.00190152
0.00185479
0.00176419
0.00167399
0.00161241
0.00170449
0.00191097
0.00221694
0.00264419
0.00371562
0.00556506
0.00786224
0.0102593
0.0122181
0.0132113
0.013719
0.0142979
0.0149075
0.0155352
0.0161366
0.0165102
0.00372483
0.0175379
0.00382775
0.00390073
0.00394135
0.00393104
0.0038926
0.00388439
0.00393735
0.0039526
0.00388908
0.0038538
0.00384215
0.00380404
0.00379616
0.0154337
0.0149964
0.0180964
0.00494229
0.00699153
0.00839058
0.00878631
0.00843732
0.0103991
0.0125787
0.0143253
0.0157375
0.0189303
0.0243282
0.00729657
0.00629393
0.00543401
0.00468086
0.00402088
0.00345861
0.00299433
0.0026064
0.00227238
0.00199056
0.00179957
0.001665
0.00154329
0.00144777
0.00137876
0.0013573
0.00139413
0.00150939
0.00168264
0.00214061
0.0029532
0.00421565
0.00592923
0.0075728
0.00877633
0.00959057
0.0102067
0.0107875
0.0114499
0.0121632
0.0128048
0.0133403
0.0138484
0.0143125
0.0147613
0.0150265
0.0151045
0.0151234
0.0152372
0.0154386
0.0155556
0.015496
0.0153884
0.0153989
0.0152415
0.014899
0.0145011
0.0141895
0.0138184
0.0134614
0.00467127
0.00612064
0.00597125
0.00550789
0.00562688
0.00708331
0.00889025
0.0097514
0.0108497
0.0137533
0.00731013
0.00634101
0.00551902
0.00479944
0.00415297
0.00360381
0.00315428
0.00277423
0.00243463
0.00213591
0.00190168
0.00172787
0.00159078
0.00147541
0.00137777
0.00130281
0.00125785
0.00125177
0.0012813
0.00141353
0.00167562
0.00214009
0.0029046
0.00379814
0.00461042
0.00525549
0.00577253
0.00626243
0.00680784
0.00743688
0.00808493
0.00869566
0.00928736
0.00985852
0.0103354
0.0106917
0.0109971
0.0113321
0.0117148
0.0120785
0.0123449
0.0125032
0.0125659
0.0125219
0.012549
0.0129657
0.0133582
0.0133711
0.0134376
0.0135121
0.0137273
0.0150165
0.0037607
0.00378626
0.00378455
0.00412606
0.00486059
0.0054381
0.00600841
0.00704956
0.00939989
0.00931675
0.00923052
0.00912139
0.00898275
0.00882497
0.00868559
0.00853072
0.00828471
0.00791644
0.00760514
0.00749643
0.00757719
0.00768061
0.00774586
0.00773777
0.0076349
0.00749097
0.00740748
0.00728986
0.0072874
0.00738512
0.00758305
0.00791297
0.00836285
0.00890797
0.00953508
0.0102391
0.0110246
0.0118953
0.01284
0.0138461
0.0148964
0.00608686
0.00629104
0.00650333
0.00673085
0.00697333
0.00722227
0.00747177
0.00772359
0.00797799
0.00824914
0.00856603
0.00893154
0.00927956
0.00959858
0.00990281
0.0102
0.010489
0.0107675
0.0109744
0.0111683
0.0115401
0.0118826
0.012079
0.0123166
0.0127043
0.013126
0.013628
0.00938001
0.00928818
0.00920844
0.00911036
0.00897599
0.00883701
0.00871179
0.0086167
0.00850885
0.0084393
0.00867928
0.00907345
0.00933986
0.00960011
0.00984127
0.0102995
0.0111629
0.0120654
0.0133097
0.0141919
0.015171
0.0156359
0.00607182
0.00611338
0.00620034
0.00632993
0.00647056
0.0066008
0.00671143
0.00683526
0.00705356
0.00728043
0.00750819
0.00774551
0.0079793
0.00820703
0.00841253
0.0086065
0.00879678
0.00888572
0.00882645
0.00887568
0.00937517
0.0098457
0.010107
0.0102979
0.0105193
0.010788
0.0110998
0.0113985
0.0117123
0.0119923
0.0120721
0.0123587
0.0128046
0.0132178
0.0136433
0.0139301
0.0185732
0.0214375
0.00729425
0.00632541
0.00551359
0.00481317
0.0042019
0.00368664
0.00328599
0.00299467
0.0026907
0.00289966
0.00472379
0.00506254
0.0044006
0.00331991
0.003059
0.00326676
0.00361016
0.00393913
0.0047024
0.00556036
0.00692819
0.00837708
0.00984522
0.0111631
0.0123768
0.0138838
0.0151869
0.0157797
0.0151457
0.00369571
0.00407752
0.00413036
0.00401702
0.00393684
0.00386396
0.00378784
0.00371896
0.0161013
0.0155998
0.0035551
0.003526
0.00339827
0.00351434
0.00411448
0.00435623
0.00425995
0.00412253
0.00397649
0.00472407
0.00481459
0.0045498
0.00432645
0.00506479
0.00477652
0.00517858
0.00686134
0.0107736
0.0140987
0.0170092
0.0238255
0.00728539
0.00628165
0.00542663
0.00467771
0.00402009
0.00345385
0.00298714
0.00260836
0.00229284
0.00261275
0.00383694
0.00356114
0.00209405
0.00194587
0.00326725
0.00399824
0.00382603
0.00438298
0.00609643
0.00661855
0.00911568
0.0110843
0.013103
0.0156426
0.00383885
0.0042015
0.00451054
0.00478257
0.00501632
0.00520694
0.00535516
0.00544887
0.00551027
0.00557243
0.00564093
0.00573147
0.00585424
0.00603242
0.00624599
0.00647698
0.00671079
0.0069104
0.00716403
0.00738925
0.00761555
0.00792126
0.00827863
0.00855944
0.00868971
0.00861187
0.00876275
0.00968284
0.0113721
0.0135367
0.0151434
0.0166842
0.0189177
0.0216167
0.0245542
0.0276755
0.00728831
0.0062873
0.00543317
0.0046847
0.00402441
0.00345238
0.00297666
0.00257197
0.00222884
0.002438
0.00325187
0.00319185
0.00254702
0.00224135
0.00359758
0.00512145
0.00558939
0.00813076
0.0126688
0.0140876
0.0151628
0.00377423
0.00406563
0.00435301
0.00465035
0.00493767
0.00520316
0.00544679
0.00567419
0.00589835
0.00610392
0.00628228
0.00643981
0.00657873
0.00669612
0.00679404
0.00687593
0.00693407
0.00694768
0.00690638
0.00683789
0.00684181
0.00704683
0.00741556
0.00782815
0.00828431
0.00881523
0.00944658
0.0101797
0.010998
0.0118286
0.0128644
0.014168
0.0156693
0.0172176
0.0188469
0.0207548
0.0229287
0.0253404
0.0280162
0.00729197
0.00629072
0.00543248
0.00468059
0.00402166
0.00344898
0.00297669
0.00257685
0.00222869
0.00218591
0.00263078
0.00274794
0.00252298
0.00222625
0.00236684
0.00466309
0.00553571
0.0059635
0.00748126
0.0102293
0.0134728
0.014897
0.016102
0.00395104
0.00420526
0.00443105
0.00463988
0.0048424
0.00503683
0.00519798
0.00532982
0.00545364
0.00554807
0.00559885
0.00561943
0.00560875
0.00557468
0.00553803
0.00556441
0.00568518
0.00589076
0.00613497
0.00638527
0.00668819
0.00704763
0.007494
0.00804964
0.00878382
0.00971984
0.0107636
0.0118583
0.0129783
0.0141954
0.0155356
0.0170057
0.01863
0.0204391
0.0224932
0.0248901
0.0277346
0.00729563
0.00629485
0.00543425
0.00468053
0.004022
0.0034566
0.00298341
0.00259165
0.00224797
0.00204408
0.00216199
0.00223496
0.00214576
0.00200411
0.00194537
0.00240984
0.00306106
0.00354442
0.00450786
0.00650366
0.00960988
0.0121563
0.0143455
0.0158802
0.0166301
0.00378577
0.00390061
0.00401848
0.00415506
0.00426268
0.00439421
0.00454149
0.00464495
0.00471249
0.00475458
0.00477672
0.00478333
0.00474958
0.00466058
0.00452172
0.00439429
0.00438157
0.00450677
0.00476131
0.00550171
0.00569136
0.00567441
0.00636574
0.00746405
0.00874206
0.010032
0.0112968
0.0125555
0.013887
0.0154619
0.0172431
0.0190817
0.0210455
0.0234596
0.0272137
0.00729906
0.0062997
0.00543836
0.0046832
0.00402367
0.00346107
0.00299496
0.00260832
0.00227292
0.00200054
0.00189884
0.00185221
0.00176344
0.00167728
0.00161786
0.00171082
0.00191521
0.00221577
0.00265074
0.00371797
0.00556044
0.0078557
0.0102407
0.0121834
0.0131707
0.0136841
0.0142608
0.0148639
0.0154945
0.0159555
0.0161617
0.0037452
0.00371212
0.00371913
0.00382547
0.00388186
0.00388739
0.00385719
0.00383439
0.00387072
0.00389783
0.0038545
0.00383649
0.0038588
0.00387
0.00378818
0.0154118
0.014965
0.0148228
0.00435635
0.006687
0.00821961
0.00863634
0.00827487
0.0103351
0.0125259
0.0142429
0.0156088
0.0185804
0.025494
0.00730206
0.00630015
0.00543405
0.00467554
0.00401723
0.00346266
0.00300064
0.00260612
0.00226538
0.00198547
0.00179557
0.00166429
0.00154443
0.0014512
0.00138513
0.00136685
0.0014021
0.00151178
0.00168662
0.00214405
0.00295479
0.00421305
0.00591653
0.00753975
0.00873468
0.00955046
0.0101746
0.0107705
0.0114571
0.0121913
0.0128403
0.0133951
0.0138837
0.0143831
0.014826
0.015068
0.0151289
0.0151577
0.0153001
0.0155229
0.0156467
0.0155881
0.0154302
0.0154291
0.015337
0.0149689
0.0145245
0.0141997
0.0138268
0.0134158
0.0197777
0.00515667
0.00557081
0.00537428
0.00546108
0.00690968
0.00872432
0.0095787
0.0106161
0.0137576
0.00731471
0.00634662
0.00551927
0.00479256
0.00414655
0.00360688
0.00316191
0.00277521
0.00243033
0.00213321
0.00190137
0.0017284
0.00159198
0.00147692
0.00137886
0.00130347
0.00125937
0.00125328
0.00128358
0.00141583
0.0016782
0.00214144
0.00290309
0.00378482
0.00458784
0.00522888
0.00575006
0.00625068
0.00681175
0.00745787
0.00811534
0.00872946
0.00932568
0.0098969
0.0103633
0.0107118
0.0110228
0.0113764
0.0117761
0.0121408
0.0123883
0.0125172
0.0125596
0.012508
0.0126035
0.0129682
0.0132442
0.0132129
0.013226
0.0134037
0.0138026
0.0153525
0.00384734
0.00381675
0.00378848
0.00408957
0.00475552
0.00530203
0.00589757
0.00702735
0.00939957
0.00930868
0.00920921
0.00909826
0.00898501
0.00886329
0.00872868
0.00854382
0.00827674
0.00790915
0.00760279
0.00749542
0.00758243
0.00769627
0.0077656
0.00773871
0.00761876
0.00746908
0.00738148
0.00727618
0.00728442
0.00738528
0.00757585
0.00790023
0.00834505
0.00888733
0.00951489
0.0102241
0.01102
0.0118972
0.0128397
0.0138398
0.0148847
0.00608307
0.00628566
0.00649766
0.00672752
0.0069715
0.0072181
0.00746294
0.00771408
0.00797699
0.00826219
0.00859256
0.00895344
0.00928218
0.00959248
0.00989519
0.0101944
0.0104789
0.0106801
0.0108058
0.0110509
0.0114957
0.0118654
0.0120886
0.0123547
0.0127528
0.0131743
0.0136343
)
;

boundaryField
{
    wall
    {
        type            compressible::alphatJayatillekeWallFunction;
        Prt             0.85;
        value           uniform 0;
    }
    inlet
    {
        type            calculated;
        value           uniform 0.189515;
    }
    outlet
    {
        type            calculated;
        value           nonuniform List<scalar> 
20
(
0.0205667
8.06525
8.06525
8.06525
8.06525
8.06525
8.06525
0.0137533
0.00704956
0.013628
0.0214373
8.06525
8.06525
8.06525
8.06525
8.06525
8.06525
0.0137576
0.00702735
0.0136343
)
;
    }
    heatWall
    {
        type            compressible::alphatJayatillekeWallFunction;
        Prt             0.85;
        value           nonuniform List<scalar> 
240
(
0.000413797
0.000413878
0.000410757
0.000410674
0.000407636
0.000407234
0.000403849
0.000403503
0.000399479
0.000399751
0.000394873
0.00039571
0.000390182
0.000390898
0.000383795
0.00038408
0.000374436
0.000374457
0.000361322
0.000361282
0.000350264
0.000350249
0.000346439
0.000346485
0.000349584
0.00034984
0.000353651
0.000354208
0.000356125
0.00035675
0.000355409
0.000355439
0.000351283
0.000350773
0.000345937
0.000345285
0.000342816
0.00034206
0.000338698
0.000338283
0.000338816
0.00033865
0.000342528
0.000342391
0.000349652
0.000349283
0.000361461
0.000360957
0.000377389
0.000376782
0.000396478
0.00039586
0.000418162
0.000417639
0.000442144
0.000441854
0.000468447
0.000468475
0.0004969
0.000497052
0.000526949
0.000527001
0.0005582
0.000558109
0.000590162
0.000589826
0.000613447
0.000612739
0.000636782
0.000635978
0.000661367
0.000660823
0.000687879
0.000687713
0.000715832
0.000715743
0.000744066
0.000743763
0.000772165
0.000771811
0.000800884
0.000801
0.000830797
0.000831792
0.000862939
0.000864775
0.000899771
0.000902085
0.000939835
0.000940678
0.000977129
0.000976604
0.00101234
0.00101127
0.00104669
0.00104558
0.00108028
0.0010791
0.00111218
0.00111054
0.00113679
0.00113346
0.00115331
0.00115052
0.0011821
0.00118477
0.0012293
0.0012328
0.00126794
0.00126816
0.00129239
0.00129128
0.00132257
0.0013223
0.00136715
0.00136709
0.00141349
0.00141267
0.00146574
0.00146444
0.000413819
0.0004135
0.000410466
0.000410418
0.000407168
0.000407474
0.000403518
0.00040374
0.000399286
0.00039897
0.000394916
0.00039447
0.000390584
0.000390284
0.000387039
0.000386885
0.000383357
0.000383131
0.000379704
0.000380178
0.000388601
0.000388804
0.00040232
0.000402515
0.000412121
0.00041196
0.000421579
0.000420975
0.000430125
0.000429455
0.000446343
0.000445212
0.000476254
0.000474326
0.000506884
0.000504095
0.000545598
0.000543209
0.000570752
0.000569671
0.000599783
0.000599188
0.000608975
0.000609992
0.000611805
0.000612073
0.000616907
0.000617088
0.000627045
0.000627157
0.000641961
0.000642052
0.000657769
0.000658028
0.000671779
0.000672462
0.000684863
0.00068514
0.000704232
0.00070218
0.000730231
0.000727801
0.000755358
0.000753289
0.000780989
0.00077915
0.000806184
0.000805263
0.000828903
0.000829644
0.000849751
0.000852045
0.000870205
0.000873142
0.000891789
0.000894501
0.000911597
0.000912838
0.000918331
0.000920003
0.000920248
0.000929028
0.00094573
0.000959533
0.000989185
0.00100705
0.00103615
0.00104298
0.0010666
0.0010654
0.00109109
0.00108899
0.00111847
0.00111856
0.00114942
0.00115156
0.00118331
0.00118576
0.00121714
0.00121924
0.00124992
0.00125492
0.00128071
0.00128371
0.00129239
0.00129729
0.00132854
0.0013315
0.00137326
0.00137713
0.00141794
0.00141837
0.00146858
0.0014638
0.00151567
0.00151548
0.00178632
0.0018086
0.0022726
0.00225218
)
;
    }
}


// ************************************************************************* //
