/*--------------------------------*- C++ -*----------------------------------*\
  =========                 |
  \\      /  F ield         | OpenFOAM: The Open Source CFD Toolbox
   \\    /   O peration     | Website:  https://openfoam.org
    \\  /    A nd           | Version:  8
     \\/     M anipulation  |
\*---------------------------------------------------------------------------*/
FoamFile
{
    version     2.0;
    format      ascii;
    class       volScalarField;
    location    "700";
    object      p_rgh;
}
// * * * * * * * * * * * * * * * * * * * * * * * * * * * * * * * * * * * * * //

dimensions      [1 -1 -2 0 0 0 0];

internalField   nonuniform List<scalar> 
1200
(
-8220.62
-8220.72
-8220.76
-8220.73
-8220.68
-8220.64
-8220.6
-8220.33
-8219.98
-8217.65
-8215.25
-8216.32
-8220.25
-8219.02
-8220.57
-8223.09
-8226.92
-8228.65
-8235.76
-8241.69
-8254.67
-8268.83
-8283.75
-8303.67
-8333.57
-8370.4
-8415.96
-8464.39
-8480.46
-8488.35
-8541.18
-8626.89
-8705.01
-8759.83
-8798.3
-8828.7
-8848.2
-8856.11
-8871.68
-8879.41
-8874.29
-8880.97
-8884.6
-8886.39
-8830.82
-8777.19
-8717.29
-8648.27
-8558.4
-8422.27
-8251.8
-8067.4
-7815.68
-7579.23
-7178.35
-6348.3
-4940.72
-3932.72
-2456.58
-577.074
-8220.81
-8220.81
-8220.81
-8220.77
-8220.71
-8220.66
-8220.61
-8220.32
-8219.93
-8217.35
-8214.67
-8216.38
-8220.11
-8218.29
-8220.07
-8221.72
-8225.03
-8226.19
-8234.31
-8239.92
-8251.73
-8266.69
-8283.61
-8304.48
-8334.71
-8371.57
-8419.15
-8469.18
-8480.48
-8482.31
-8538.15
-8628.3
-8706.71
-8759.94
-8797.27
-8827.76
-8847.56
-8854.02
-8868.46
-8872.69
-8863.85
-8869.54
-8875.39
-8872.13
-8813.5
-8769.74
-8716.7
-8649.58
-8566.61
-8428.62
-8239.4
-8065.08
-7799.02
-7578.26
-7178.04
-6369.74
-4968.05
-3962.37
-2285.15
-558.444
-8220.77
-8220.77
-8220.77
-8220.74
-8220.69
-8220.66
-8220.64
-8220.5
-8220.37
-8218.84
-8217.89
-8218.6
-8221.64
-8219.04
-8220.6
-8223.55
-8227.37
-8229.05
-8236.22
-8240.98
-8254.6
-8271.88
-8285.3
-8300.91
-8330.16
-8366.64
-8411.8
-8462.71
-8482.01
-8491
-8541.59
-8620.41
-8691.62
-8745.27
-8787.2
-8818.75
-8838.56
-8848.88
-8862.2
-8871.04
-8869.52
-8878.85
-8880.64
-8871.96
-8825.63
-8787.51
-8731.54
-8660.34
-8570.17
-8429.37
-8246.72
-8076.86
-7867.45
-7592.14
-7186.59
-6326.57
-4970.2
-3771.81
-2115
-771.625
-8220.78
-8220.79
-8220.8
-8220.77
-8220.72
-8220.7
-8220.71
-8220.62
-8220.57
-8219.16
-8218.73
-8220.22
-8221.64
-8218.76
-8221.99
-8223.87
-8226.31
-8227.18
-8235.79
-8241.53
-8252.95
-8266.59
-8283.9
-8304.3
-8332.62
-8367.61
-8408.51
-8449.95
-8475.46
-8499.25
-8546.79
-8607.43
-8666.13
-8714.67
-8753.97
-8787.99
-8816.1
-8840.93
-8869.25
-8892.36
-8895.75
-8891.4
-8881.44
-8869.44
-8828.97
-8801.48
-8759.71
-8692.61
-8597.81
-8452.08
-8263.8
-8083.51
-7896.84
-7594.97
-7084.21
-6162.71
-4914.52
-3620.32
-2064.07
-856.199
-8220.79
-8220.8
-8220.8
-8220.76
-8220.72
-8220.71
-8220.75
-8220.76
-8220.93
-8220.4
-8220.48
-8221.43
-8222.55
-8220.91
-8222.08
-8225.12
-8228.29
-8230.1
-8237.55
-8243.55
-8253.93
-8264.82
-8279.2
-8300.6
-8330.33
-8365.2
-8402.83
-8439.68
-8473.49
-8509.6
-8551.08
-8595.39
-8637.76
-8677.46
-8716.3
-8756.67
-8798.97
-8845.48
-8889.64
-8907.12
-8901.28
-8891.39
-8872.91
-8854.27
-8826.63
-8835.41
-8814.23
-8742.29
-8656.29
-8526.17
-8349.68
-8164.05
-7973.74
-7629.33
-7008.39
-6032.66
-4746.99
-3329.75
-1954.37
-921.176
-8220.79
-8220.8
-8220.8
-8220.77
-8220.74
-8220.74
-8220.8
-8220.87
-8221.1
-8221.01
-8221.45
-8222.71
-8223.68
-8222.27
-8224.19
-8226.42
-8228.25
-8229.97
-8235.9
-8241.48
-8253.94
-8265.91
-8280.33
-8302.33
-8332.01
-8366.5
-8403.05
-8438.17
-8474.9
-8513.73
-8551.99
-8589.75
-8626.18
-8660.05
-8694.88
-8733.72
-8773.5
-8814.52
-8855.6
-8885.93
-8895.42
-8886.83
-8870.96
-8855.29
-8832.59
-8861.06
-8860.04
-8787.24
-8726.97
-8614.7
-8460.98
-8284.86
-8092.67
-7721.22
-7029.78
-6033.05
-4770.96
-3341.2
-2122.61
-1049.91
-8220.8
-8220.81
-8220.81
-8220.79
-8220.76
-8220.78
-8220.85
-8220.97
-8221.24
-8221.56
-8222.42
-8223.8
-8225.01
-8225.09
-8225.53
-8227.57
-8229.84
-8232.48
-8237.27
-8241.51
-8251.69
-8264.13
-8280.11
-8302.19
-8331.47
-8365.79
-8402.33
-8437.38
-8472.76
-8511.63
-8552.96
-8591.12
-8626.27
-8659.65
-8693.41
-8733.08
-8775.17
-8817.17
-8853.55
-8877.47
-8887.55
-8881.68
-8871.39
-8868.14
-8855.23
-8867.08
-8865.84
-8793.12
-8732.83
-8647.32
-8524.1
-8375.32
-8185.3
-7790.48
-7028.52
-5966.59
-4657.63
-3136.56
-1934.75
-740.871
-8220.8
-8220.79
-8220.79
-8220.77
-8220.75
-8220.79
-8220.88
-8221.03
-8221.34
-8221.81
-8222.82
-8224.28
-8225.57
-8225.94
-8226.89
-8228.69
-8230.66
-8233.1
-8237.41
-8242.12
-8251.73
-8263.24
-8278.42
-8301.07
-8330.45
-8364.74
-8401.27
-8436.74
-8473.12
-8511.84
-8551.54
-8589.6
-8625.45
-8658.68
-8691.18
-8729.4
-8769.75
-8810.63
-8847.84
-8872.42
-8880.23
-8874.01
-8871.96
-8883.98
-8892.78
-8893.92
-8871.14
-8805.13
-8735.08
-8647.49
-8530.21
-8385.67
-8195.96
-7823.6
-7094.27
-6051.75
-4799.55
-3326.61
-2050.32
-691.407
-8220.83
-8220.84
-8220.84
-8220.8
-8220.79
-8220.83
-8220.93
-8221.09
-8221.42
-8221.95
-8222.99
-8224.46
-8225.79
-8226.44
-8227.55
-8229.46
-8231.61
-8234.39
-8238.82
-8243.82
-8252.53
-8263.73
-8278.27
-8300.12
-8328.66
-8362.44
-8398.56
-8434.37
-8471.11
-8509.39
-8548.52
-8586.67
-8622.75
-8656.33
-8690.13
-8728.71
-8769.55
-8809.46
-8843.89
-8867.4
-8877.05
-8873.88
-8871.57
-8878.86
-8880.98
-8873.55
-8851.24
-8794.47
-8727.34
-8640.8
-8529.64
-8384.42
-8192.96
-7818.13
-7099.54
-6079.13
-4840.69
-3412.24
-2102.96
-697.259
-8220.64
-8220.74
-8220.77
-8220.75
-8220.75
-8220.79
-8220.9
-8221.07
-8221.41
-8221.94
-8222.98
-8224.44
-8225.79
-8226.58
-8227.8
-8229.77
-8232.08
-8235.03
-8239.5
-8244.83
-8253.58
-8264.84
-8279.16
-8300.49
-8328.46
-8361.79
-8397.66
-8433.68
-8470.74
-8508.53
-8546.85
-8584.97
-8621.61
-8656.09
-8690.88
-8729.09
-8769.14
-8807.62
-8840.4
-8863.23
-8874.2
-8874.09
-8874.22
-8882.24
-8884.09
-8873.31
-8847.74
-8792.31
-8722.3
-8634.8
-8520.47
-8364.74
-8162.32
-7786.45
-7084.93
-6080.78
-4861.28
-3457.42
-2163.26
-693.76
-8220.61
-8220.71
-8220.74
-8220.73
-8220.7
-8220.68
-8220.64
-8220.43
-8220.05
-8217.72
-8215.02
-8216.02
-8219.9
-8218.99
-8220.8
-8223.22
-8226.72
-8228.4
-8235.6
-8241.41
-8254.32
-8268.93
-8284.14
-8303.69
-8333.51
-8370.14
-8414.71
-8462.11
-8478.71
-8487.44
-8540.81
-8626.68
-8704.43
-8758.68
-8796.7
-8826.75
-8846.2
-8853.85
-8869.56
-8877.65
-8872.81
-8879.01
-8881.56
-8883.09
-8828.75
-8776.93
-8718.06
-8648.06
-8554.37
-8420.16
-8252.54
-8070.38
-7813.74
-7578.67
-7179.33
-6344.73
-4945.72
-3959.32
-2480.03
-573.983
-8220.81
-8220.81
-8220.8
-8220.76
-8220.72
-8220.71
-8220.68
-8220.51
-8220.25
-8218.2
-8215.8
-8217.16
-8220.48
-8218.87
-8220.74
-8222.58
-8225.95
-8227.06
-8235.84
-8242.05
-8254.32
-8268.74
-8284.52
-8304.07
-8333.96
-8370.81
-8417.58
-8467.06
-8479.41
-8481.94
-8537.68
-8628.18
-8706.71
-8759.46
-8796.07
-8826.21
-8845.94
-8852.07
-8866.79
-8871.37
-8862.81
-8869.21
-8873.46
-8866.01
-8810.03
-8768.59
-8717.1
-8649.4
-8563.62
-8426.94
-8245.94
-8072.43
-7795.6
-7572.51
-7177.71
-6356.1
-4976.14
-3968.89
-2300.86
-541.261
-8220.77
-8220.75
-8220.75
-8220.73
-8220.7
-8220.7
-8220.7
-8220.63
-8220.58
-8219.34
-8218.46
-8219.27
-8221.64
-8219.29
-8220.58
-8223.63
-8228.03
-8229.88
-8236.7
-8242.21
-8254.98
-8271.43
-8285.5
-8300.97
-8330.03
-8366.29
-8410.85
-8460.98
-8480.61
-8490.01
-8541.28
-8620.35
-8691.62
-8745.43
-8787.45
-8819
-8839.17
-8849.03
-8858.04
-8866.38
-8867.54
-8878.42
-8879.99
-8871.54
-8827.63
-8790.88
-8736
-8664.86
-8573.88
-8434.66
-8253.28
-8086.27
-7870.81
-7588.35
-7181.94
-6323.91
-4963.06
-3760.47
-2098.48
-787.709
-8220.78
-8220.78
-8220.79
-8220.76
-8220.73
-8220.73
-8220.75
-8220.71
-8220.74
-8219.67
-8219.29
-8220.51
-8221.71
-8218.45
-8221.72
-8223.06
-8225.48
-8225.84
-8235.54
-8241.81
-8253.36
-8266.49
-8283.24
-8303.1
-8331.48
-8366.59
-8407.34
-8448.58
-8473.86
-8497.77
-8545.82
-8607.13
-8665.95
-8714.68
-8754.29
-8788.42
-8816.69
-8841.83
-8869.6
-8891.9
-8896.47
-8892.84
-8882.82
-8871.86
-8833.22
-8805.94
-8764.12
-8696.38
-8600.32
-8455.68
-8267.67
-8088.23
-7896.48
-7589.55
-7074.4
-6143.07
-4895.22
-3598.62
-2033.97
-870.606
-8220.78
-8220.78
-8220.78
-8220.75
-8220.73
-8220.74
-8220.78
-8220.81
-8220.98
-8220.56
-8220.63
-8221.57
-8222.52
-8220.72
-8221.65
-8224.57
-8228.18
-8230.18
-8236.71
-8242.15
-8252.6
-8263.96
-8278.67
-8300.07
-8329.58
-8364.34
-8401.82
-8438.67
-8471.98
-8507.82
-8549.63
-8594.37
-8636.9
-8676.96
-8715.93
-8756.2
-8798.47
-8844.76
-8889.49
-8908.29
-8902.99
-8892.96
-8874.34
-8856.24
-8829.67
-8837.84
-8815.71
-8742.43
-8655.57
-8527.55
-8351.8
-8165.82
-7972.06
-7622.02
-6994.25
-6010.56
-4722.59
-3295.72
-1916.16
-915.468
-8220.79
-8220.79
-8220.79
-8220.76
-8220.74
-8220.76
-8220.82
-8220.89
-8221.1
-8221.08
-8221.52
-8222.73
-8223.68
-8222.37
-8223.9
-8226.14
-8227.88
-8229.36
-8234.53
-8239.58
-8252.17
-8264.28
-8278.55
-8300.76
-8330.43
-8365.09
-8401.71
-8437.08
-8473.31
-8511.98
-8550.5
-8588.47
-8624.88
-8659.04
-8694.28
-8733.12
-8773.01
-8814.11
-8855.52
-8886.36
-8896.98
-8889.05
-8873.51
-8858.27
-8835.63
-8863.74
-8862.2
-8788.61
-8726.04
-8615.24
-8462.96
-8286.63
-8091.88
-7716.9
-7023.98
-6026.76
-4775.47
-3347.17
-2127.56
-1058.63
-8220.8
-8220.8
-8220.8
-8220.78
-8220.76
-8220.79
-8220.86
-8220.96
-8221.22
-8221.53
-8222.36
-8223.72
-8224.9
-8224.9
-8225.43
-8227.41
-8229.87
-8232.6
-8237.32
-8241.21
-8250.57
-8262.65
-8278.11
-8299.89
-8329.37
-8364.11
-8400.8
-8435.93
-8470.8
-8509.25
-8551.16
-8589.3
-8624.74
-8658.53
-8692.22
-8731.7
-8774.05
-8816.34
-8852.89
-8876.98
-8887.7
-8882.41
-8872.53
-8869.91
-8857.8
-8869.99
-8868.17
-8796.02
-8731.26
-8647.45
-8524.98
-8376.27
-8184.79
-7779.78
-7008.45
-5940.43
-4633.27
-3099.58
-1913.22
-746.502
-8220.8
-8220.78
-8220.78
-8220.76
-8220.74
-8220.79
-8220.88
-8221.01
-8221.31
-8221.74
-8222.74
-8224.19
-8225.46
-8225.8
-8226.75
-8228.58
-8230.65
-8233.08
-8237.23
-8241.96
-8251.57
-8262.84
-8277.51
-8299.74
-8328.78
-8363.03
-8399.49
-8435
-8471.17
-8509.62
-8549.77
-8587.85
-8623.84
-8657.49
-8690.08
-8727.81
-8768.03
-8808.95
-8846.38
-8871.81
-8880.1
-8873.92
-8871.9
-8884.16
-8893.27
-8894.26
-8871.52
-8805.12
-8734.31
-8647.62
-8531.3
-8385.99
-8193.76
-7818.48
-7084.86
-6036.01
-4790.02
-3306.75
-2049.38
-679.413
-8220.83
-8220.84
-8220.83
-8220.8
-8220.78
-8220.82
-8220.92
-8221.06
-8221.37
-8221.86
-8222.88
-8224.32
-8225.62
-8226.25
-8227.37
-8229.36
-8231.64
-8234.5
-8238.94
-8243.95
-8252.49
-8263.61
-8277.99
-8299.66
-8327.97
-8361.63
-8397.67
-8433.5
-8470.03
-8507.91
-8547.22
-8585.07
-8621.01
-8655
-8688.92
-8727.2
-8767.93
-8807.67
-8842.1
-8866.22
-8876.11
-8872.79
-8870.22
-8877.91
-8880.18
-8872.59
-8850.2
-8792.96
-8725.7
-8640.62
-8530.59
-8384.6
-8190.69
-7808.38
-7083.34
-6058.99
-4826.46
-3388.46
-2096.6
-685.719
-8220.64
-8220.74
-8220.77
-8220.76
-8220.75
-8220.79
-8220.9
-8221.05
-8221.38
-8221.89
-8222.92
-8224.38
-8225.73
-8226.54
-8227.77
-8229.81
-8232.22
-8235.21
-8239.64
-8244.98
-8253.73
-8265.01
-8279.34
-8300.61
-8328.52
-8361.88
-8397.85
-8434.08
-8471.1
-8508.64
-8547.17
-8585.1
-8621.61
-8656.01
-8690.67
-8728.65
-8768.62
-8806.94
-8839.6
-8862.91
-8874.2
-8874.33
-8874.51
-8882.61
-8884.25
-8873.11
-8847.46
-8791.73
-8721.39
-8635.23
-8521.52
-8364.86
-8159.69
-7779.26
-7074.27
-6065.59
-4851.45
-3440.57
-2165.27
-667.091
)
;

boundaryField
{
    wall
    {
        type            fixedFluxPressure;
        gradient        nonuniform List<scalar> 
1200
(
-0.548706
-0.322462
-0.485801
-0.455814
-0.492716
-0.428634
-0.276065
-0.154855
0.00305101
0.174746
-1.61862
-1.41365
-2.79093
-2.12017
-2.35809
-2.18964
-1.7206
-1.8939
-0.928798
-1.07308
-2.2942
-2.42641
-4.41176
-2.83617
-3.54179
-3.22181
-2.16934
-2.6711
-0.985613
-0.82485
-0.610136
-1.33192
-2.81774
-1.22038
-2.1778
-2.05809
-1.07011
-1.77126
-0.320139
0.15327
3.68899
3.1922
2.74892
3.10344
1.74677
0.303531
-0.217029
-2.14265
-1.57024
-1.10451
7.68124
8.54284
8.83156
7.5744
6.23771
3.96553
2.15032
-0.529721
-1.14484
-0.46033
9.11558
13.6167
12.0943
8.63895
5.91891
3.24454
1.50001
-0.903976
-2.16857
-0.789764
20.4808
38.4233
26.8855
19.969
9.1392
3.10826
-0.635701
-3.613
-6.57731
-3.89199
13.9301
65.4089
41.5769
34.0993
9.86805
1.16796
-4.0324
-5.99533
-10.6602
-5.90631
11.6981
170.045
97.8346
98.986
28.5573
12.3859
-6.7365
-12.9052
-18.0522
-11.2051
-50.4194
224.54
114.005
110.518
25.9948
11.6394
-13.4811
-15.8947
-22.8574
-13.1174
-64.2865
155.873
133.405
57.1921
25.6445
0.921681
-16.8067
-19.3839
-28.3156
-12.3877
-70.3922
71.3057
0.229128
12.9926
-7.16942
-0.10968
-20.143
-21.7563
-33.1208
-12.5957
-6.9939
120.58
51.0353
-60.6746
-48.6456
19.4298
-34.537
-25.7519
-37.9272
-9.45627
45.4039
136.047
-1.94456
-60.0505
-87.2557
-64.0976
-18.0244
-24.7975
-34.9153
-5.21301
26.507
171.342
18.0354
-163.608
-113.136
-59.4613
-30.0598
-16.5631
-19.5555
9.0155
-41.2795
182.139
132.202
-164.804
-25.4558
-73.7638
5.29888
-0.325394
8.43698
29.6254
-50.6635
174.835
167.371
-260.152
17.1598
-120.761
22.9333
-3.79653
24.8088
37.4991
-29.9649
309.889
95.2105
-56.7116
-163.103
-271.971
9.56929
-36.344
25.4001
29.6484
-57.5601
426.078
241.38
52.994
-280.663
-377.198
-58.1142
-30.3067
27.7695
31.3094
-69.7087
518.612
75.0217
81.2182
-269.623
-350.329
-218.347
-28.2662
-4.68729
30.6374
19.1785
405.634
-84.6412
-24.1658
-178.084
-328.657
-291.297
-75.0615
-22.1092
34.8694
78.4125
178.47
42.7305
-130.106
-110.664
-356.554
-398.206
-177.294
-51.6989
37.6489
2.68124
-79.3421
7.82033
-233.89
-111.934
-316.678
-464.012
-265.156
-88.4329
27.6578
-11.898
-144.502
-27.5072
-221.995
-154.836
-317.593
-425.686
-333.923
-135.019
14.5938
-54.6935
-145.676
-72.47
-197.364
-176.959
-284.259
-342.452
-346.159
-158.94
20.6206
-258.764
-301.83
-194.761
-226.511
-208.771
-270.824
-313.835
-360.446
-175.339
41.5064
-458.334
-406.339
-339.003
-272.241
-209.866
-220.692
-295.284
-350.871
-169.086
84.9789
-340.39
-209.281
-271.98
-328.559
-313.822
-317.82
-392.045
-390.085
-209.817
76.8936
-177.366
-94.6916
-190.25
-303.169
-364.38
-352.153
-479.463
-443.592
-288.833
28.2323
-71.8199
-101.079
-54.464
-192.874
-293.593
-310.763
-367.053
-348.753
-252.045
73.0934
-39.5458
-8.27904
-3.18951
-60.6979
-214.384
-273.695
-369.919
-338.484
-312.014
33.6575
-114.972
23.6527
2.23878
-28.898
-194.301
-286.453
-306.384
-313.834
-336.255
2.13872
-229.261
-84.3663
31.1696
14.2542
-123.161
-234.374
-221.81
-240.312
-251.315
-15.7721
-315.579
-240.962
60.0294
65.648
-89.4039
-148.215
-246.424
-221.959
-226.106
-42.2071
-383.398
-307.392
52.2186
78.7104
-92.3698
-150.435
-282.837
-320.908
-287.897
-87.5405
-392.11
-318.263
114.141
96.1763
-57.697
-140.064
-228.603
-346.172
-312.926
-97.3849
-450.447
-391.68
20.5172
148.581
-37.871
-135.869
-173.236
-345.318
-346.567
-125.802
-444.572
-364.703
-761.729
37.726
95.0675
-55.0857
-150.52
-312.527
-343.375
-149.529
-385.785
-281.937
-894.72
-143.546
287.463
101.426
-128.517
-145.559
-220.423
-51.4192
-293.693
-185.278
-436.208
122.237
341.762
370.292
-4.24201
-40.2669
-176.312
8.73052
-338.68
-59.8601
-102.872
300.489
311.763
503.324
106.309
-15.6433
-202.675
54.1001
-618.338
-362.614
-85.2014
289.369
300.324
550.232
207.398
4.61481
-232.974
64.068
-670.746
-1148.97
-30.8453
500.16
400.942
582.93
360.517
79.1902
-132.388
76.4245
-422.448
-638.685
398.831
860.556
585.137
515.726
478.217
156.259
-94.4961
33.0673
-54.8697
-232.815
741.068
922.392
470.488
483.174
469.157
87.0206
-141.488
-32.8751
156.104
58.1846
966.073
963.374
292.563
341.43
417.199
68.0817
-180.642
-50.8111
-41.9489
-69.8249
960.283
848.101
7.05651
189.602
434.006
-19.2505
-289.108
-108.351
-817.491
-682.847
825.705
635.425
-148.121
-271.321
-357.38
-173.659
-356.677
-173.577
-439.935
-419.643
1168.45
966.744
273.418
45.0556
-13.0042
3.021
-58.0556
88.3546
81.0965
1083.83
1228.87
1186.27
480.803
355.934
28.8767
178.76
117.026
209.258
510.83
1495.27
1850.18
1106.34
491.076
349.674
10.4339
-60.6668
-18.0851
38.7866
-421.678
-1012.54
888.749
-13.51
-238.146
-192.835
-252.974
-482.044
-522.656
-529.421
-105.835
-1324.31
-762.835
-1028.55
-1373.09
-968.508
-2220.2
-1092.8
-2036.2
-1468.67
160.849
24.0194
-1038.82
-1868.83
-2714.67
-1289.34
-3955.93
-1924.96
-3302.57
-2159.72
-787.212
-1826.79
-666.91
-3738.63
-4257.4
-1454.91
-5106.91
-3167.1
-4081.01
-3072.99
1112.39
2407.7
-1600.23
-3946.75
-4589.84
661.069
-4548.97
-1983.84
-2850.8
-2006.8
5417.66
1460.94
-2812.75
-4486.62
-6297.53
1018.57
-6728.61
-3964.59
-4717.25
-3381.7
6369.84
1213.29
-3561.38
-5848.76
-6847.74
729.725
-2973.81
-305.92
-1234.06
302.566
-858.326
-3834.09
3382.33
3136.82
-1066.02
1767.51
1463.22
-2903.99
-2235.15
-5331.96
0.548701
0.322459
0.485794
0.455812
0.492713
0.428631
0.276062
0.154853
-0.00304566
-0.174745
1.61903
1.41367
2.79119
2.12038
2.35824
2.18976
1.72071
1.89397
0.928806
1.07262
2.29394
2.42625
4.41242
2.83659
3.54168
3.22171
2.16941
2.67127
0.98552
0.823449
0.60471
1.33037
2.81674
1.21859
2.17484
2.0553
1.06881
1.77166
0.320026
-0.153512
-3.69626
-3.19475
-2.75221
-3.10713
-1.75305
-0.309442
0.214701
2.14499
1.57133
1.10642
-7.68517
-8.54559
-8.83593
-7.57712
-6.24607
-3.97454
-2.15422
0.530261
1.14665
0.460689
-9.11674
-13.6177
-12.0964
-8.6391
-5.92271
-3.25311
-1.50456
0.897289
2.16712
0.7857
-20.4824
-38.4244
-26.887
-19.969
-9.14084
-3.11279
0.630378
3.5976
6.56729
3.885
-13.9356
-65.4224
-41.59
-34.1072
-9.8699
-1.17077
4.02364
5.97174
10.6299
5.88497
-11.7417
-170.112
-97.909
-99.0494
-28.5817
-12.3914
6.72794
12.8794
18.0013
11.1499
50.4242
-224.545
-114.023
-110.524
-26.0101
-11.6466
13.4827
15.9068
22.7991
13.0202
64.3399
-155.789
-133.292
-57.1075
-25.6107
-0.914733
16.8089
19.3816
28.2493
12.2729
70.4068
-71.3244
-0.16441
-12.9169
7.20998
0.121796
20.1463
21.7451
33.0064
12.4999
6.9932
-119.894
-51.0363
60.5796
45.3196
-19.4137
34.5446
25.7284
37.7129
9.35147
-45.5667
-136.031
0.739368
56.4337
87.1089
60.6598
18.0273
24.7549
34.5984
5.18865
-26.6727
-171.542
-18.0395
163.162
109.089
58.8503
29.0824
16.5066
19.2453
-8.97676
41.2005
-182.262
-131.376
164.831
25.3293
71.8666
-5.98466
-0.387494
-8.64132
-29.5128
50.5599
-174.92
-166.399
260.083
-18.7545
118.885
-24.6194
2.47937
-24.9816
-37.3038
29.8016
-310.207
-94.2005
58.9877
163.093
272.123
-10.1672
35.4375
-25.728
-29.4242
57.4718
-426.583
-240.886
-50.6288
280.6
376.061
57.8817
30.2007
-27.8365
-31.0634
69.8245
-518.711
-74.5721
-78.7529
269.763
349.356
220.36
29.9111
5.52991
-30.3023
-18.9948
-405.359
85.0134
26.2789
180.498
328.888
292.719
77.3232
23.5907
-34.4224
-78.1484
-177.771
-42.5839
132.497
114.008
356.705
396.171
178.578
53.6872
-36.9664
-2.47959
79.9317
-6.94119
237.895
115.674
317.425
462.816
263.84
90.5561
-26.6788
11.9922
145.049
29.1826
227.615
159.269
318.551
422.25
329.021
137.045
-13.1318
54.7716
146.177
74.9956
204.085
182.525
285.488
337.135
338.801
160.707
-18.6242
259.041
302.312
197.697
233.584
215.531
272.508
307.743
352.177
176.754
-38.5747
458.859
406.557
341.062
279.173
217.718
223.755
289.325
343.244
170.522
-80.5068
339.169
208.912
272.106
336.565
319.087
320.622
386.012
384.77
212.351
-70.0644
174.21
94.7073
189.075
312.331
365.134
352.787
473.186
443.144
293.206
-19.7302
70.397
100.972
52.1468
201.416
292.065
309.716
363.401
353.165
258.058
-65.2606
40.0199
7.91783
-1.92437
67.7336
211.653
272.499
369.885
345.775
319.522
-27.6779
115.624
-24.1738
-11.1944
32.0461
189.408
285.875
308.556
320.335
345.296
1.38853
229.511
84.0586
-44.16
-17.9201
114.13
235.113
224.545
243.849
263.373
14.4605
315.56
240.829
-78.3549
-77.8248
76.4734
149.06
246.459
225.789
239.275
37.4223
383.259
307.297
-75.8132
-100.69
76.6427
148.518
282.831
319.163
297.948
84.9412
391.936
318.141
-138.061
-130.959
47.0527
134.134
228.56
339.416
321.801
100.26
450.153
391.585
-32.1158
-201.056
58.6007
128.489
173.23
339.995
358.533
132.922
444.282
365.032
761.984
-113.217
-46.7292
50.449
150.549
313.74
359.615
157.905
392.128
295.461
902.268
43.9379
-264.938
-100.689
128.55
152.121
237.568
59.7179
328.584
207.974
444.047
-231.635
-339.614
-372.801
4.13095
47.2429
188.793
-0.456036
384.355
69.9132
106.956
-379.343
-313.658
-508.139
-106.624
17.4903
207.123
-45.9607
631.05
364.023
90.6907
-273.913
-300.514
-552.484
-208.813
-6.26858
231.265
-55.7604
684.703
1177.61
16.8621
-431.445
-400.886
-618.781
-366.047
-85.2344
130.335
-67.4265
431.316
661.802
-420.31
-798.758
-587.483
-596.664
-482.45
-160.137
95.6932
-24.5338
65.6979
227.949
-766.929
-921.796
-481.962
-482.188
-454.595
-93.7022
159.017
38.8858
-145.101
-58.1313
-1000.58
-963.758
-294.573
-336.889
-416.049
-74.0616
197.108
56.2806
50.3187
72.2175
-1017.68
-848.341
-6.80573
-189.574
-434.239
14.5642
297.447
114.098
819.637
686.744
-907.413
-635.497
148.442
271.426
357.099
170.656
362.363
179.686
432.281
422.758
-1253.57
-966.448
-272.798
-44.7539
13.1461
-13.7393
68.7055
-83.8088
-90.9197
-1088.08
-1386.32
-1185.67
-476.399
-351.616
-24.0611
-190.912
-106.311
-207.047
-526.158
-1512.41
-1845.23
-1088.68
-470.479
-330.964
5.97876
71.5702
28.0547
-37.8362
411.674
1041.37
-888.654
38.3898
271.888
220.715
279.038
502.626
532.002
535.056
99.1588
1323.96
767.641
1055.12
1401.56
993.105
2238.49
1121.83
2060.46
1471.95
-178.309
-86.5143
1025.29
1883
2737.82
1312.62
3967.72
1977.18
3334.35
2150.68
746.081
1786.71
632.26
3746.19
4278.61
1494.29
5129.94
3219.59
4101.69
3054.21
-1160.76
-2439.77
1598.91
3918.01
4588.31
-607.524
4594.21
2018.48
2871.78
1982.45
-5599.8
-1468.41
2810.36
4445.91
6271.03
-958.95
6800.1
3988.85
4747.41
3360.13
-6482.89
-1232.98
3561.76
5833.23
6811.43
-690.671
3024.28
331.8
1254.91
-338.642
842.233
3835.68
-3381.62
-3140.59
1051.2
-1765.42
-1443.63
2963.66
2270.86
5294.11
)
;
        value           nonuniform List<scalar> 
1200
(
-8220.62
-8220.81
-8220.78
-8220.78
-8220.79
-8220.79
-8220.8
-8220.8
-8220.83
-8220.64
-8220.72
-8220.82
-8220.77
-8220.8
-8220.8
-8220.81
-8220.81
-8220.8
-8220.84
-8220.75
-8220.76
-8220.82
-8220.78
-8220.81
-8220.81
-8220.81
-8220.82
-8220.8
-8220.84
-8220.78
-8220.73
-8220.77
-8220.75
-8220.77
-8220.77
-8220.78
-8220.79
-8220.77
-8220.8
-8220.75
-8220.67
-8220.7
-8220.68
-8220.71
-8220.72
-8220.74
-8220.76
-8220.76
-8220.79
-8220.75
-8220.62
-8220.64
-8220.64
-8220.68
-8220.7
-8220.73
-8220.77
-8220.79
-8220.83
-8220.8
-8220.58
-8220.58
-8220.61
-8220.69
-8220.74
-8220.79
-8220.85
-8220.88
-8220.93
-8220.9
-8220.27
-8220.22
-8220.43
-8220.57
-8220.74
-8220.86
-8220.97
-8221.04
-8221.11
-8221.08
-8219.95
-8219.76
-8220.27
-8220.48
-8220.9
-8221.09
-8221.25
-8221.35
-8221.45
-8221.42
-8217.63
-8216.93
-8218.59
-8218.91
-8220.33
-8220.98
-8221.58
-8221.84
-8221.99
-8221.97
-8215.38
-8214.11
-8217.61
-8218.45
-8220.42
-8221.42
-8222.45
-8222.86
-8223.05
-8223.02
-8216.48
-8215.99
-8218.27
-8220.08
-8221.37
-8222.71
-8223.84
-8224.33
-8224.53
-8224.47
-8220.42
-8219.94
-8221.64
-8221.61
-8222.57
-8223.68
-8225.05
-8225.63
-8225.87
-8225.83
-8219.03
-8217.99
-8218.91
-8218.91
-8221.05
-8222.22
-8225.18
-8226.01
-8226.53
-8226.61
-8220.46
-8219.73
-8220.6
-8222.15
-8222.31
-8224.36
-8225.58
-8226.95
-8227.63
-8227.81
-8223.03
-8221.29
-8223.5
-8224.28
-8225.4
-8226.58
-8227.64
-8228.74
-8229.51
-8229.74
-8227.03
-8224.58
-8227.05
-8226.72
-8228.36
-8228.43
-8229.83
-8230.66
-8231.59
-8232
-8228.78
-8225.75
-8228.64
-8227.82
-8230.05
-8230.26
-8232.42
-8233.11
-8234.33
-8234.94
-8235.83
-8233.53
-8235.98
-8235.95
-8237.95
-8236.57
-8237.25
-8237.5
-8238.76
-8239.43
-8241.83
-8238.86
-8240.39
-8241.4
-8244.26
-8242.42
-8241.64
-8242.19
-8243.75
-8244.75
-8254.84
-8250.43
-8254.42
-8252.75
-8254.62
-8254.81
-8252.23
-8251.79
-8252.54
-8253.5
-8268.78
-8265.69
-8272.08
-8266.66
-8265.28
-8266.74
-8264.85
-8263.42
-8263.78
-8264.75
-8283.55
-8283.17
-8285.19
-8284.22
-8279.49
-8281.22
-8281.1
-8278.86
-8278.39
-8279.06
-8303.67
-8304.67
-8300.9
-8304.87
-8300.9
-8303.13
-8303.36
-8301.73
-8300.34
-8300.42
-8333.6
-8335.06
-8330.23
-8333.16
-8330.73
-8332.81
-8332.54
-8331.28
-8329
-8328.42
-8370.55
-8371.92
-8366.83
-8368.09
-8365.65
-8367.21
-8366.65
-8365.6
-8362.84
-8361.74
-8416.62
-8419.88
-8412.29
-8409.06
-8403.36
-8403.73
-8403.11
-8402.16
-8399
-8397.56
-8465.53
-8470.16
-8463.54
-8450.64
-8440.22
-8438.72
-8438.11
-8437.6
-8434.79
-8433.46
-8481.27
-8481.02
-8482.68
-8476.3
-8474.29
-8475.68
-8473.72
-8474.08
-8471.63
-8470.55
-8488.78
-8482.63
-8491.46
-8500.01
-8510.52
-8514.62
-8512.82
-8512.94
-8510.11
-8508.46
-8541.35
-8538.43
-8541.72
-8547.26
-8551.82
-8552.8
-8553.88
-8552.39
-8549.15
-8546.67
-8626.98
-8628.29
-8620.41
-8607.58
-8595.93
-8590.46
-8592.06
-8590.43
-8587.45
-8584.89
-8705.3
-8706.63
-8691.63
-8666.21
-8638.27
-8626.91
-8627.04
-8626.23
-8623.57
-8621.62
-8760.41
-8760.16
-8745.23
-8714.65
-8677.79
-8660.64
-8660.2
-8659.33
-8656.94
-8656.12
-8799.08
-8797.9
-8787.1
-8753.86
-8716.5
-8695.25
-8694.01
-8691.76
-8690.68
-8690.97
-8829.65
-8828.56
-8818.71
-8787.87
-8756.82
-8734.11
-8733.76
-8730.18
-8729.41
-8729.3
-8849.2
-8848.4
-8838.41
-8815.95
-8798.94
-8773.9
-8775.71
-8770.58
-8770.32
-8769.37
-8857.29
-8855.07
-8848.97
-8840.61
-8845.26
-8814.93
-8817.59
-8811.5
-8810.31
-8807.93
-8872.88
-8869.45
-8864.24
-8869.08
-8889.06
-8855.81
-8853.94
-8848.68
-8844.73
-8840.77
-8880.44
-8873.46
-8873.48
-8892.46
-8906.29
-8885.69
-8877.84
-8872.84
-8867.93
-8863.36
-8875.06
-8864.35
-8870.82
-8895.21
-8900.42
-8894.49
-8887.58
-8880.36
-8877.47
-8874.19
-8881.9
-8869.7
-8879.31
-8890.54
-8890.59
-8885.56
-8881.44
-8874.04
-8874.32
-8873.97
-8886.15
-8876.27
-8881.05
-8880.54
-8872.12
-8869.57
-8870.9
-8871.93
-8872.04
-8874.07
-8888.07
-8874.93
-8872.36
-8868.01
-8853.24
-8853.82
-8867.2
-8883.72
-8879.08
-8882.07
-8831.88
-8815.15
-8824.96
-8826.75
-8825.18
-8831.36
-8853.93
-8892.33
-8881.12
-8884.02
-8777.35
-8770.36
-8785.7
-8799.12
-8834.23
-8859.89
-8866.07
-8893.67
-8873.86
-8873.39
-8716.92
-8716.61
-8729.09
-8757.19
-8813.45
-8859.34
-8864.91
-8870.98
-8851.7
-8847.87
-8648.39
-8649.83
-8658.02
-8690.39
-8742.24
-8786.91
-8792.13
-8805.19
-8795.24
-8792.57
-8560.47
-8568.44
-8568.28
-8596.12
-8656.61
-8727.63
-8733.73
-8735.55
-8728.27
-8722.73
-8423.38
-8429.79
-8426.55
-8449.57
-8525.46
-8614.56
-8647.39
-8647.46
-8640.98
-8634.6
-8251.7
-8237.42
-8243.63
-8260.59
-8348.46
-8460.07
-8524.11
-8529.7
-8529.39
-8519.96
-8066.27
-8061.37
-8072.16
-8080.49
-8162.66
-8284
-8375.44
-8385.65
-8384.5
-8364.64
-7816.49
-7801.17
-7864.77
-7896.68
-7974.15
-8093.25
-8186.04
-8197.01
-8194.35
-8163.68
-7579.44
-7581.24
-7593.81
-7597.47
-7632.56
-7723.89
-7796.13
-7826.19
-7823.26
-7790.13
-7178.01
-7177.66
-7188.91
-7088.49
-7014.81
-7033.44
-7038.42
-7098.82
-7107.74
-7090.25
-6350.26
-6373.65
-6328.31
-6171.34
-6042.85
-6037.59
-5979.27
-6059.37
-6089.17
-6088.31
-4938.66
-4962.65
-4973.99
-4924.03
-4757.73
-4770.74
-4668.41
-4804.49
-4847.61
-4866.15
-3919.83
-3957.69
-3778.43
-3630.87
-3344.36
-3340.95
-3152.83
-3336.31
-3423.64
-3465.63
-2441.54
-2279.71
-2121.89
-2078.04
-1970.63
-2123.43
-1943.35
-2051.81
-2105.84
-2162.51
-579.332
-565.811
-764.615
-847.933
-925.619
-1045.54
-737.272
-702.283
-702.831
-706.728
-8220.61
-8220.81
-8220.77
-8220.78
-8220.78
-8220.79
-8220.79
-8220.8
-8220.83
-8220.64
-8220.71
-8220.8
-8220.75
-8220.78
-8220.78
-8220.79
-8220.8
-8220.78
-8220.83
-8220.74
-8220.74
-8220.79
-8220.74
-8220.78
-8220.77
-8220.78
-8220.8
-8220.77
-8220.83
-8220.77
-8220.73
-8220.76
-8220.72
-8220.76
-8220.75
-8220.76
-8220.78
-8220.75
-8220.8
-8220.76
-8220.71
-8220.73
-8220.71
-8220.74
-8220.73
-8220.74
-8220.76
-8220.74
-8220.78
-8220.74
-8220.7
-8220.73
-8220.73
-8220.75
-8220.76
-8220.77
-8220.8
-8220.78
-8220.82
-8220.79
-8220.67
-8220.72
-8220.73
-8220.77
-8220.8
-8220.83
-8220.87
-8220.88
-8220.91
-8220.89
-8220.48
-8220.6
-8220.7
-8220.77
-8220.83
-8220.89
-8220.96
-8221
-8221.05
-8221.04
-8220.08
-8220.42
-8220.69
-8220.83
-8221
-8221.11
-8221.21
-8221.3
-8221.34
-8221.36
-8217.74
-8218.63
-8219.58
-8219.92
-8220.63
-8221.11
-8221.52
-8221.71
-8221.81
-8221.86
-8214.89
-8216.36
-8218.75
-8219.57
-8220.69
-8221.55
-8222.32
-8222.7
-8222.82
-8222.89
-8215.85
-8217.55
-8219.6
-8220.65
-8221.63
-8222.73
-8223.68
-8224.14
-8224.25
-8224.35
-8219.72
-8220.65
-8221.64
-8221.75
-8222.5
-8223.68
-8224.85
-8225.41
-8225.54
-8225.7
-8218.97
-8219.17
-8219.42
-8218.3
-8220.59
-8222.42
-8224.82
-8225.74
-8226.16
-8226.51
-8220.91
-8221.09
-8220.58
-8221.57
-8221.43
-8223.74
-8225.38
-8226.69
-8227.28
-8227.76
-8223.29
-8223
-8223.68
-8222.65
-8224.3
-8225.98
-8227.34
-8228.54
-8229.31
-8229.83
-8226.61
-8226.4
-8228.36
-8225.07
-8228.11
-8227.71
-8229.88
-8230.65
-8231.66
-8232.3
-8228.28
-8227.49
-8230.29
-8225.2
-8230.23
-8229.07
-8232.66
-8233.08
-8234.57
-8235.3
-8235.54
-8236.62
-8236.94
-8235.37
-8236.31
-8233.85
-8237.35
-8237.14
-8239
-8239.72
-8241.27
-8243.12
-8242.8
-8241.93
-8241.44
-8238.65
-8241.07
-8241.89
-8244.02
-8245.06
-8254.15
-8255.61
-8255.17
-8253.55
-8251.91
-8251.31
-8250.03
-8251.5
-8252.48
-8253.8
-8268.98
-8269.74
-8271.23
-8266.41
-8263.49
-8263.45
-8261.92
-8262.65
-8263.55
-8265.1
-8284.34
-8284.95
-8285.61
-8282.92
-8278.37
-8277.66
-8277.13
-8277.08
-8277.86
-8279.43
-8303.69
-8303.88
-8300.98
-8302.52
-8299.77
-8299.96
-8298.72
-8299.08
-8299.44
-8300.68
-8333.48
-8333.61
-8329.95
-8330.93
-8329.17
-8329.64
-8328.31
-8327.97
-8327.63
-8328.55
-8370
-8370.46
-8366.09
-8366.1
-8363.88
-8364.37
-8363.26
-8362.19
-8361.23
-8361.93
-8414.04
-8416.85
-8410.34
-8406.76
-8401.27
-8401.03
-8400.03
-8398.62
-8397.23
-8397.95
-8460.98
-8466.08
-8460.15
-8447.88
-8438.11
-8436.52
-8435.23
-8434.16
-8433.07
-8434.28
-8477.9
-8478.88
-8479.94
-8473
-8471.16
-8472.52
-8469.86
-8470.22
-8469.51
-8471.27
-8487.02
-8481.63
-8489.56
-8496.98
-8506.9
-8511.1
-8508.07
-8508.52
-8507.18
-8508.68
-8540.64
-8537.41
-8541.16
-8545.33
-8548.9
-8549.69
-8550.24
-8548.91
-8546.58
-8547.33
-8626.59
-8628.19
-8620.36
-8606.96
-8593.83
-8587.77
-8588.37
-8587.02
-8584.28
-8585.16
-8704.14
-8706.8
-8691.63
-8665.87
-8636.4
-8624.15
-8623.97
-8623.04
-8620.16
-8621.6
-8758.11
-8759.24
-8745.51
-8714.7
-8676.65
-8658.45
-8657.99