/*--------------------------------*- C++ -*----------------------------------*\
  =========                 |
  \\      /  F ield         | OpenFOAM: The Open Source CFD Toolbox
   \\    /   O peration     | Website:  https://openfoam.org
    \\  /    A nd           | Version:  8
     \\/     M anipulation  |
\*---------------------------------------------------------------------------*/
FoamFile
{
    version     2.0;
    format      ascii;
    class       volScalarField;
    location    "700";
    object      T;
}
// * * * * * * * * * * * * * * * * * * * * * * * * * * * * * * * * * * * * * //

dimensions      [0 0 0 1 0 0 0];

internalField   nonuniform List<scalar> 
1200
(
303.143
303.135
303.127
303.119
303.111
303.103
303.096
303.088
303.073
302.618
301.399
300.833
300.706
300.496
299.568
298.755
298.527
298.311
297.921
297.104
296.442
295.937
295.582
295.437
295.408
295.432
295.514
295.669
295.952
296.271
296.363
296.229
296.056
295.993
296.075
296.232
296.403
296.52
296.736
297.181
297.487
297.511
297.463
297.466
297.532
297.55
297.509
297.448
297.426
297.467
297.529
297.622
297.795
297.896
297.955
298.069
298.203
298.248
298.621
298.889
303.15
303.15
303.149
303.149
303.148
303.147
303.145
303.142
302.903
299.726
295.494
294.221
294.43
293.801
293.545
293.437
293.461
293.419
293.488
293.367
293.864
294.862
295.839
296.651
297.237
297.666
298.045
298.309
298.614
299.044
299.068
299.058
299.195
299.346
299.443
299.505
299.539
299.579
299.576
299.555
299.402
299.208
299.184
299.205
299.155
299.053
299.002
299.078
299.354
299.52
299.616
299.618
299.712
299.675
299.557
299.656
299.815
299.877
299.861
299.945
303.15
303.15
303.15
303.15
303.15
303.15
303.15
303.148
302.656
298.944
295.335
294.081
293.944
293.871
293.502
293.255
293.22
293.763
295.373
294.624
296.394
298.633
299.557
299.735
299.768
299.783
299.796
299.81
299.826
299.85
299.869
299.883
299.892
299.898
299.895
299.891
299.886
299.882
299.874
299.862
299.851
299.841
299.837
299.835
299.833
299.846
299.883
299.915
299.92
299.91
299.881
299.874
299.905
299.928
299.939
299.947
299.976
299.991
299.996
300
303.15
303.15
303.15
303.15
303.15
303.15
303.15
303.149
302.79
299.296
295.856
294.45
294.135
294.015
293.64
293.239
293.474
295.693
299.456
299.674
299.778
299.817
299.833
299.846
299.861
299.874
299.887
299.898
299.909
299.92
299.929
299.936
299.942
299.946
299.948
299.95
299.952
299.954
299.956
299.957
299.958
299.959
299.957
299.954
299.953
299.96
299.972
299.976
299.976
299.975
299.973
299.973
299.981
299.989
299.992
299.994
299.998
299.999
300
300
303.15
303.15
303.15
303.15
303.15
303.15
303.15
303.15
303.019
300.877
297.693
295.886
295.273
295.018
294.511
293.495
293.383
293.749
294.863
297.209
299.74
299.817
299.838
299.853
299.866
299.878
299.889
299.9
299.909
299.919
299.927
299.936
299.943
299.95
299.956
299.961
299.965
299.968
299.97
299.972
299.973
299.973
299.974
299.975
299.974
299.974
299.976
299.981
299.987
299.992
299.993
299.994
299.996
299.998
299.999
299.999
300
300
300
300
303.15
303.15
303.15
303.15
303.15
303.15
303.15
303.15
303.116
302.137
299.965
298.323
297.54
296.974
296.346
295.531
294.713
294.246
293.858
294.17
296.652
298.64
299.723
299.834
299.852
299.865
299.876
299.886
299.896
299.901
299.906
299.913
299.92
299.927
299.933
299.939
299.944
299.95
299.954
299.957
299.954
299.945
299.932
299.918
299.902
299.91
299.91
299.923
299.949
299.979
299.991
299.994
299.996
299.998
299.999
300
300
300
300
300
303.15
303.15
303.15
303.15
303.15
303.15
303.15
303.15
303.143
302.815
301.783
300.775
300.196
299.672
298.957
298.047
297.18
296.264
295.563
295.145
295.646
296.637
297.708
298.444
298.887
299.167
299.342
299.465
299.55
299.632
299.713
299.776
299.821
299.858
299.879
299.889
299.894
299.901
299.912
299.921
299.923
299.918
299.912
299.895
299.858
299.821
299.785
299.766
299.744
299.84
299.93
299.932
299.923
299.928
299.967
299.983
299.987
299.989
299.997
300
303.15
303.15
303.15
303.15
303.15
303.15
303.15
303.15
303.149
303.065
302.722
302.314
302.029
301.661
301.159
300.5
299.744
298.874
298.067
297.257
296.868
296.845
297.044
297.303
297.537
297.735
297.909
298.089
298.288
298.504
298.707
298.879
299.03
299.164
299.261
299.321
299.366
299.417
299.479
299.541
299.591
299.629
299.667
299.682
299.652
299.585
299.505
299.464
299.474
299.487
299.523
299.618
299.668
299.637
299.595
299.68
299.802
299.87
299.899
299.929
303.15
303.15
303.149
303.149
303.148
303.148
303.148
303.147
303.147
303.13
303.047
302.93
302.839
302.732
302.544
302.196
301.707
301.122
300.522
299.809
299.199
298.738
298.404
298.195
298.059
297.955
297.864
297.796
297.764
297.78
297.835
297.914
298.009
298.107
298.188
298.25
298.308
298.376
298.454
298.527
298.579
298.612
298.632
298.628
298.611
298.601
298.583
298.552
298.516
298.49
298.523
298.63
298.697
298.687
298.673
298.717
298.842
298.997
299.156
299.31
303.143
303.135
303.127
303.119
303.111
303.104
303.097
303.092
303.089
303.088
303.077
303.058
303.04
303.018
302.98
302.896
302.75
302.542
302.295
301.96
301.611
301.256
300.887
300.551
300.274
300.06
299.902
299.782
299.689
299.603
299.51
299.41
299.304
299.199
299.106
299.039
298.994
298.958
298.918
298.872
298.824
298.778
298.736
298.7
298.669
298.643
298.619
298.599
298.579
298.559
298.539
298.527
298.514
298.492
298.464
298.433
298.411
298.395
298.398
298.423
303.143
303.135
303.127
303.119
303.111
303.103
303.096
303.088
303.073
302.642
301.435
300.859
300.715
300.489
299.585
298.759
298.506
298.272
297.909
297.119
296.462
295.96
295.604
295.459
295.43
295.454
295.527
295.659
295.931
296.285
296.434
296.341
296.166
296.054
296.067
296.169
296.296
296.385
296.681
297.161
297.431
297.425
297.393
297.471
297.558
297.555
297.492
297.426
297.418
297.47
297.531
297.627
297.798
297.887
297.952
298.077
298.227
298.273
298.549
298.822
303.15
303.15
303.149
303.149
303.148
303.147
303.145
303.142
302.916
299.779
295.53
294.226
294.444
293.803
293.55
293.44
293.462
293.423
293.497
293.376
293.872
294.866
295.849
296.667
297.256
297.682
298.056
298.314
298.541
298.994
299.083
299.084
299.203
299.34
299.427
299.469
299.471
299.462
299.529
299.542
299.455
299.324
299.229
299.22
299.159
299.059
299.012
299.092
299.362
299.522
299.619
299.621
299.704
299.664
299.537
299.664
299.812
299.869
299.852
299.944
303.15
303.15
303.15
303.15
303.15
303.15
303.15
303.148
302.694
299.036
295.383
294.093
293.949
293.867
293.498
293.253
293.217
293.729
295.438
294.677
296.401
298.6
299.535
299.734
299.768
299.783
299.796
299.811
299.828
299.852
299.871
299.884
299.893
299.897
299.893
299.885
299.879
299.873
299.866
299.857
299.845
299.835
299.83
299.828
299.826
299.841
299.88
299.912
299.919
299.905
299.873
299.867
299.908
299.932
299.946
299.954
299.979
299.993
299.997
300
303.15
303.15
303.15
303.15
303.15
303.15
303.15
303.149
302.819
299.388
295.912
294.472
294.141
294.008
293.634
293.237
293.461
295.583
299.469
299.678
299.78
299.819
299.835
299.848
299.862
299.876
299.888
299.9
299.91
299.921
299.93
299.937
299.942
299.946
299.948
299.95
299.951
299.952
299.954
299.955
299.956
299.956
299.952
299.948
299.949
299.96
299.972
299.976
299.976
299.975
299.973
299.974
299.982
299.989
299.993
299.995
299.998
300
300
300
303.15
303.15
303.15
303.15
303.15
303.15
303.15
303.15
303.031
300.945
297.755
295.918
295.286
295.016
294.488
293.486
293.382
293.733
294.834
297.163
299.735
299.818
299.84
299.854
299.867
299.879
299.891
299.901
299.911
299.92
299.928
299.937
299.944
299.951
299.956
299.961
299.965
299.968
299.97
299.971
299.972
299.973
299.974
299.975
299.975
299.974
299.976
299.981
299.987
299.992
299.993
299.994
299.996
299.998
299.999
299.999
300
300
300
300
303.15
303.15
303.15
303.15
303.15
303.15
303.15
303.15
303.119
302.174
300.014
298.355
297.555
296.97
296.334
295.516
294.698
294.242
293.849
294.149
296.627
298.626
299.709
299.836
299.854
299.867
299.878
299.888
299.897
299.903
299.907
299.914
299.921
299.928
299.934
299.94
299.946
299.951
299.955
299.957
299.953
299.944
299.932
299.918
299.904
299.904
299.907
299.923
299.947
299.978
299.99
299.994
299.996
299.998
299.999
300
300
300
300
300
303.15
303.15
303.15
303.15
303.15
303.15
303.15
303.15
303.144
302.83
301.809
300.793
300.2
299.643
298.919
298.013
297.164
296.252
295.552
295.147
295.642
296.622
297.679
298.412
298.858
299.142
299.322
299.449
299.541
299.63
299.714
299.778
299.824
299.859
299.881
299.892
299.898
299.904
299.913
299.922
299.924
299.919
299.913
299.897
299.861
299.823
299.786
299.767
299.735
299.838
299.929
299.93
299.921
299.927
299.966
299.982
299.987
299.989
299.998
300
303.15
303.15
303.15
303.15
303.15
303.15
303.15
303.15
303.149
303.066
302.73
302.319
302.024
301.633
301.109
300.435
299.703
298.859
298.051
297.253
296.873
296.849
297.035
297.281
297.508
297.706
297.884
298.07
298.278
298.5
298.705
298.877
299.03
299.163
299.256
299.313
299.361
299.417
299.482
299.544
299.592
299.626
299.664
299.689
299.674
299.607
299.526
299.491
299.498
299.504
299.534
299.629
299.665
299.628
299.588
299.681
299.804
299.873
299.903
299.93
303.15
303.15
303.149
303.149
303.148
303.148
303.148
303.147
303.147
303.13
303.046
302.928
302.839
302.734
302.546
302.186
301.686
301.107
300.507
299.8
299.195
298.742
298.412
298.202
298.06
297.948
297.852
297.781
297.75
297.769
297.827
297.908
298.006
298.105
298.183
298.244
298.304
298.376
298.455
298.525
298.572
298.6
298.619
298.619
298.607
298.598
298.578
298.545
298.507
298.482
298.513
298.611
298.661
298.662
298.66
298.71
298.845
299.009
299.172
299.324
303.143
303.134
303.127
303.119
303.111
303.104
303.097
303.092
303.089
303.088
303.077
303.058
303.04
303.019
302.98
302.893
302.742
302.534
302.286
301.954
301.606
301.252
300.881
300.549
300.275
300.067
299.914
299.798
299.705
299.612
299.51
299.402
299.289
299.178
299.088
299.028
298.988
298.952
298.91
298.862
298.812
298.765
298.723
298.688
298.658
298.633
298.611
298.592
298.572
298.553
298.533
298.519
298.504
298.482
298.455
298.424
298.403
298.391
298.398
298.427
)
;

boundaryField
{
    wall
    {
        type            zeroGradient;
    }
    inlet
    {
        type            fixedValue;
        value           uniform 303.15;
    }
    outlet
    {
        type            inletOutlet;
        inletValue      uniform 300;
        value           nonuniform List<scalar> 
20
(
298.917
300
300
300
300
300
300
299.929
299.313
298.424
298.843
300
300
300
300
300
300
299.93
299.328
298.428
)
;
    }
    heatWall
    {
        type            fixedGradient;
        gradient        uniform -500;
    }
}


// ************************************************************************* //
