/*--------------------------------*- C++ -*----------------------------------*\
  =========                 |
  \\      /  F ield         | OpenFOAM: The Open Source CFD Toolbox
   \\    /   O peration     | Website:  https://openfoam.org
    \\  /    A nd           | Version:  8
     \\/     M anipulation  |
\*---------------------------------------------------------------------------*/
FoamFile
{
    version     2.0;
    format      ascii;
    class       volScalarField;
    location    "1000";
    object      alphat;
}
// * * * * * * * * * * * * * * * * * * * * * * * * * * * * * * * * * * * * * //

dimensions      [1 -1 -1 0 0 0 0];

internalField   nonuniform List<scalar> 
8400
(
0.0791089
0.0792431
0.0794749
0.0795806
0.0795984
0.079616
0.0796935
0.0798528
0.080133
0.0806296
0.0814903
0.0829222
0.0851845
0.0884397
0.0925487
0.0968105
0.0994569
0.0990062
0.0954791
0.0903007
0.0861173
0.0828534
0.0800916
0.0779753
0.0774405
0.0776069
0.0773689
0.0766886
0.0763424
0.0768394
0.0780104
0.079207
0.0803395
0.0814997
0.0825689
0.083514
0.0842959
0.084897
0.0853101
0.0855318
0.0855672
0.0854344
0.0851469
0.08473
0.0842057
0.0835973
0.0829303
0.0822343
0.0815285
0.0808297
0.057468
0.056939
0.0564324
0.0559894
0.055481
0.0548785
0.0541271
0.053254
0.0522509
0.0510393
0.049594
0.0479377
0.0461284
0.0443899
0.0431096
0.0424068
0.0425787
0.0430706
0.0429266
0.0423014
0.039553
0.0366405
0.0354117
0.03613
0.0367462
0.0372433
0.0374124
0.0373822
0.0373666
0.0374002
0.0374493
0.0374715
0.0374953
0.0375515
0.0376251
0.0377218
0.0378399
0.0379818
0.0381498
0.0383419
0.0385574
0.0387933
0.0390433
0.0392988
0.0395482
0.0397747
0.0399715
0.0401294
0.0402493
0.0403465
0.0609398
0.0604191
0.0598171
0.0591421
0.058474
0.0572273
0.0533111
0.0520836
0.0529075
0.0519034
0.0493204
0.046091
0.041871
0.0370293
0.036998
0.0344642
0.0338302
0.0347374
0.0358953
0.0369004
0.0372329
0.037641
0.0388546
0.040339
0.0385446
0.03807
0.0385646
0.0390525
0.0391255
0.0385841
0.0379999
0.0377036
0.0374838
0.0373253
0.0372851
0.0373234
0.0374268
0.0375747
0.0377478
0.0379339
0.0381215
0.038305
0.0384815
0.0386467
0.0387998
0.0389429
0.0390776
0.0392054
0.0393302
0.0394541
0.0611889
0.0611357
0.0610739
0.0609831
0.0608518
0.0606861
0.0605658
0.0605768
0.0606107
0.0606224
0.0606202
0.0605754
0.0604722
0.0602584
0.0599458
0.0594309
0.0588518
0.0581457
0.0570404
0.0557797
0.0547694
0.0545166
0.0568293
0.0335507
0.0322368
0.0395257
0.0427672
0.044281
0.0439809
0.0411818
0.0404908
0.0397413
0.0389988
0.0383627
0.0379164
0.0375808
0.0373812
0.0372716
0.0372372
0.0372507
0.0372932
0.0373572
0.0374316
0.0375079
0.037584
0.0376574
0.0377287
0.0377975
0.037866
0.0379348
0.0612158
0.0611948
0.0611726
0.0611505
0.061129
0.0611088
0.0610883
0.0610679
0.0610464
0.0610243
0.0609996
0.0609686
0.060935
0.0608933
0.0608425
0.0607696
0.0606621
0.0605012
0.060245
0.0598701
0.0593923
0.0588761
0.0585258
0.0563428
0.0542154
0.0535716
0.053726
0.055504
0.0410203
0.0409332
0.0464851
0.0432681
0.0416215
0.0408275
0.0398305
0.0390724
0.0385107
0.0380607
0.0377187
0.0374643
0.037282
0.0371596
0.0370885
0.0370545
0.0370522
0.0370735
0.0371111
0.0371584
0.0372044
0.037244
0.0612084
0.0611798
0.0611511
0.0611226
0.0610944
0.0610654
0.0610365
0.061007
0.0609776
0.060949
0.0609214
0.0608939
0.0608678
0.0608418
0.0608144
0.0607839
0.0607464
0.0606942
0.0606149
0.0604918
0.0603084
0.0600571
0.0597596
0.0591401
0.0583041
0.0575376
0.0568757
0.0564776
0.053891
0.0547808
0.0552649
0.0401148
0.0451817
0.0450834
0.0427278
0.0418145
0.0409996
0.0404159
0.0399692
0.0396197
0.0393286
0.0390975
0.0389289
0.038823
0.0387762
0.0387803
0.038834
0.0389152
0.0390018
0.0390754
0.061206
0.0611746
0.0611431
0.0611105
0.0610788
0.0610467
0.0610144
0.0609816
0.0609488
0.0609162
0.0608833
0.0608509
0.0608182
0.0607872
0.0607567
0.0607267
0.0606979
0.0606671
0.0606299
0.060578
0.0605009
0.0603859
0.0602243
0.0599594
0.0595655
0.0590829
0.0585389
0.0579874
0.0570109
0.0565663
0.0561499
0.0533445
0.0552522
0.0444594
0.0463792
0.0449048
0.0436901
0.0429334
0.0426518
0.0424464
0.0423286
0.0422213
0.0421249
0.0420551
0.0420167
0.0420104
0.0420146
0.0420532
0.0421316
0.042227
0.0611996
0.0611618
0.0611238
0.061086
0.0610477
0.0610096
0.0609712
0.0609328
0.0608934
0.0608562
0.0608177
0.0607811
0.060746
0.0607119
0.0606797
0.0606491
0.0606198
0.0605915
0.0605633
0.0605325
0.0604932
0.060437
0.0603531
0.0602204
0.0600147
0.0597275
0.0593585
0.058923
0.0583399
0.0577918
0.0572464
0.0562268
0.0559329
0.0536496
0.0543785
0.0440879
0.046666
0.0444054
0.0444063
0.043959
0.044
0.0440641
0.0441602
0.0442104
0.0442297
0.0442204
0.0441996
0.0441471
0.0440548
0.0439495
0.0611913
0.0611439
0.0610966
0.0610501
0.0610036
0.0609579
0.0609111
0.0608664
0.0608202
0.0607753
0.0607314
0.0606881
0.0606479
0.0606087
0.0605735
0.0605413
0.0605118
0.0604864
0.0604632
0.0604399
0.0604153
0.0603843
0.060339
0.0602678
0.0601546
0.0599822
0.0597408
0.0594276
0.0590212
0.0585586
0.0580557
0.0573969
0.0568525
0.055893
0.0554932
0.0543305
0.0518853
0.045171
0.0465435
0.0442542
0.044018
0.0436483
0.0438265
0.0438893
0.0438969
0.0438612
0.0437546
0.0435731
0.0433737
0.0431696
0.0611774
0.0611143
0.0610502
0.0609883
0.0609276
0.0608691
0.0608114
0.0607546
0.0607014
0.0606487
0.0605963
0.0605465
0.0605013
0.0604605
0.0604249
0.0603924
0.0603661
0.0603452
0.0603265
0.0603112
0.0602969
0.0602806
0.0602567
0.0602192
0.060155
0.0600512
0.0598942
0.0596747
0.0593795
0.0590118
0.0585835
0.0580641
0.0575329
0.0568638
0.0563201
0.0556042
0.0544525
0.0550865
0.0524399
0.0451564
0.0455109
0.0424122
0.0423472
0.042084
0.0417613
0.0414824
0.0412653
0.0410235
0.0407627
0.040546
0.0611485
0.0610518
0.0609602
0.060871
0.0607927
0.06072
0.0606557
0.0605887
0.0605238
0.0604714
0.0604164
0.0603571
0.0603033
0.0602591
0.0602215
0.0601904
0.0601701
0.0601584
0.0601522
0.0601479
0.0601437
0.0601415
0.0601353
0.0601194
0.0600867
0.060026
0.0599243
0.0597711
0.0595518
0.0592635
0.0589081
0.0584753
0.0579969
0.0574417
0.0569067
0.0563066
0.0556131
0.0554075
0.054698
0.0545106
0.0569414
0.0427236
0.0434765
0.0431021
0.0416667
0.0400668
0.0387345
0.0379784
0.0376595
0.0376207
0.0611034
0.0609484
0.060805
0.060684
0.0606026
0.0605454
0.0605275
0.0605454
0.0605482
0.0604933
0.0603472
0.06015
0.0599928
0.0599057
0.0598755
0.0598779
0.059892
0.0599095
0.059929
0.0599479
0.0599649
0.0599791
0.0599894
0.0599946
0.0599821
0.0599493
0.0598869
0.0597792
0.0596157
0.0593859
0.0590899
0.0587237
0.0583004
0.0578158
0.0573182
0.0567915
0.0562591
0.0559064
0.0555127
0.0551995
0.0550658
0.0540611
0.0536555
0.0529942
0.0519238
0.0503116
0.0482673
0.0459855
0.0438906
0.0424486
0.061063
0.0609211
0.0608584
0.060821
0.0607387
0.0606349
0.0605112
0.0603229
0.0601394
0.0599272
0.059737
0.0595911
0.0595303
0.059522
0.0595562
0.059611
0.0596528
0.0596972
0.0597321
0.0597601
0.0597867
0.0598177
0.0598396
0.0598584
0.0598646
0.0598522
0.0598141
0.0597373
0.0596105
0.0594252
0.0591751
0.0588585
0.0584839
0.0580554
0.0576035
0.057137
0.0566866
0.0563307
0.0560092
0.0557076
0.0554047
0.0549911
0.0545522
0.0539912
0.0532636
0.0523355
0.0511957
0.049847
0.0483838
0.0469744
0.0588857
0.0587508
0.0586805
0.0586324
0.0585971
0.0585811
0.0585937
0.0586273
0.0586916
0.0587716
0.058862
0.0589647
0.0590737
0.0591714
0.0592693
0.0593602
0.0594335
0.0594965
0.0595429
0.0595886
0.0596331
0.0596693
0.059704
0.0597323
0.0597477
0.0597539
0.0597248
0.0596659
0.0595615
0.0594052
0.0591888
0.0589104
0.0585762
0.0581957
0.0577905
0.0573776
0.0569908
0.0566672
0.0563813
0.0561057
0.0558109
0.0554675
0.055062
0.0545637
0.0539556
0.0532149
0.0523269
0.0512853
0.0501146
0.0488788
0.0579036
0.0579262
0.0579573
0.0579924
0.0580375
0.0580959
0.058167
0.0582547
0.0583554
0.0584661
0.0585827
0.0587025
0.058823
0.0589371
0.0590456
0.0591454
0.0592321
0.0593091
0.0593766
0.0594357
0.0594896
0.0595348
0.0595753
0.05961
0.059633
0.0596429
0.0596287
0.0595841
0.0594953
0.0593253
0.0591448
0.0588961
0.0585953
0.0582562
0.0578975
0.057539
0.0572088
0.0569247
0.0566706
0.0564199
0.056147
0.0558316
0.0554586
0.0550144
0.0544878
0.053864
0.0531307
0.0522786
0.0513106
0.0502495
0.0581206
0.0581738
0.0582236
0.0582702
0.0583166
0.0583647
0.0584143
0.0584678
0.0585252
0.0585876
0.0586571
0.0587311
0.0588084
0.0588884
0.058968
0.0590462
0.059122
0.0591933
0.0592588
0.0593183
0.0593724
0.0594202
0.059461
0.0594945
0.0595174
0.0595245
0.0595107
0.0594692
0.0593891
0.0592478
0.0590775
0.0587884
0.0585478
0.0582484
0.0579382
0.057634
0.0573553
0.0571107
0.0568872
0.056661
0.0564107
0.0561201
0.055779
0.0553788
0.0549102
0.0543631
0.0537278
0.0529976
0.05217
0.0512502
0.0581906
0.0582417
0.0582935
0.058346
0.058399
0.0584512
0.0585047
0.0585593
0.058613
0.0586675
0.0587229
0.0587783
0.0588353
0.0588933
0.0589518
0.0590109
0.0590675
0.0591235
0.0591765
0.059225
0.0592696
0.0593082
0.0593403
0.059365
0.0593779
0.0593764
0.0593555
0.0593096
0.0592305
0.0591092
0.0589569
0.0587199
0.0583897
0.058176
0.0579169
0.0576664
0.0574381
0.057232
0.0570352
0.0568298
0.0565994
0.056332
0.056018
0.0556507
0.0552226
0.054728
0.0541597
0.0535115
0.0527802
0.0519668
0.0579037
0.057954
0.0580087
0.0580688
0.0581327
0.0581999
0.0582689
0.0583385
0.0584081
0.0584767
0.0585447
0.0586116
0.0586764
0.0587398
0.0588002
0.0588577
0.0589116
0.0589629
0.0590101
0.0590529
0.0590902
0.0591212
0.0591439
0.0591581
0.059161
0.0591495
0.0591208
0.0590708
0.0589954
0.0588882
0.0587532
0.0585657
0.0582684
0.0580102
0.0578236
0.057629
0.0574473
0.0572764
0.0571045
0.0569177
0.0567045
0.056456
0.056162
0.055818
0.0554183
0.0549592
0.0544358
0.0538441
0.0531822
0.0524512
0.0571832
0.0572161
0.0572563
0.0573044
0.0573579
0.0574166
0.0574799
0.0575554
0.0576538
0.0577562
0.0578538
0.0579488
0.0580422
0.0581335
0.0582226
0.058308
0.0583885
0.0584634
0.0585323
0.0585942
0.058648
0.0586927
0.0587271
0.0587504
0.0587615
0.0587577
0.058737
0.0586973
0.0586372
0.0585537
0.058446
0.0583072
0.0581124
0.0577236
0.0576379
0.0574964
0.0573576
0.0572164
0.0570659
0.0568965
0.0566982
0.0564646
0.0561882
0.0558652
0.055492
0.0550659
0.0545848
0.0540472
0.0534542
0.0528086
0.0804468
0.0793908
0.078309
0.0772096
0.0761048
0.0750092
0.0739354
0.0728882
0.0718688
0.0708959
0.0699808
0.0691239
0.0683233
0.0675791
0.066888
0.0662457
0.0656495
0.0650933
0.0645727
0.0640811
0.0636133
0.0631638
0.0627276
0.0623003
0.0618771
0.0614559
0.0610317
0.0606008
0.0601618
0.0597128
0.0592502
0.0587753
0.0582979
0.0577679
0.0581443
0.0584748
0.0588329
0.0592043
0.0595784
0.0599487
0.0603108
0.0606611
0.0609955
0.0613087
0.0615951
0.0618491
0.0620646
0.0622348
0.062352
0.0624053
0.00545351
0.00542756
0.00540162
0.00537944
0.00535961
0.00534042
0.00532089
0.00530031
0.00527824
0.00525464
0.00522976
0.00520407
0.00517805
0.00515212
0.00512654
0.00510148
0.00507697
0.00505296
0.00502936
0.00500611
0.00498395
0.0049497
0.00491585
0.00488348
0.00485275
0.00482435
0.0047967
0.00477238
0.00474819
0.0047233
0.00469782
0.00467212
0.0046465
0.00462109
0.00459587
0.00457068
0.00454539
0.0045199
0.00449426
0.00446862
0.00444334
0.00441881
0.00439551
0.00437423
0.00435501
0.00433625
0.00431793
0.00430515
0.00431188
0.00435565
0.00538612
0.00527273
0.00516433
0.00505994
0.00495837
0.00485938
0.00476282
0.00466909
0.00457875
0.00449233
0.00441014
0.00433234
0.00425895
0.00418989
0.00412495
0.00406385
0.00400617
0.0039514
0.00389893
0.00384979
0.00379652
0.00368105
0.00361893
0.00358435
0.00356484
0.0154769
0.0157354
0.0158591
0.0159073
0.0159196
0.0159181
0.0159129
0.0159068
0.0158988
0.0158865
0.0158674
0.0158394
0.0158015
0.0157534
0.0156951
0.0156271
0.0155513
0.0154691
0.0153818
0.0152923
0.0152045
0.0151075
0.0149769
0.014798
0.0147084
0.00538201
0.0052608
0.00514835
0.00504149
0.00493877
0.00483915
0.00474196
0.00464693
0.0045542
0.0044641
0.00437699
0.00429317
0.00421282
0.00413602
0.00406273
0.0039928
0.003926
0.00386202
0.00380126
0.016118
0.0158459
0.0156651
0.0155334
0.0154249
0.0153252
0.0152354
0.0151462
0.0150533
0.014957
0.0148589
0.0147608
0.0146639
0.0145685
0.0144745
0.0143812
0.0142877
0.014193
0.0140964
0.0139975
0.0138968
0.0137952
0.0136932
0.0135917
0.0134918
0.0133971
0.0133143
0.0132484
0.0131852
0.0130697
0.0127985
0.0053837
0.00526148
0.00514839
0.00504146
0.004939
0.00484003
0.00474393
0.00465031
0.00455905
0.00447025
0.00438411
0.00430086
0.00422069
0.00414368
0.00406987
0.00399914
0.00393133
0.00386621
0.00380428
0.0161311
0.0158487
0.015662
0.0155256
0.0154122
0.0153073
0.0152035
0.0150976
0.0149883
0.0148759
0.014761
0.0146447
0.0145276
0.0144104
0.0142932
0.0141758
0.0140581
0.0139398
0.0138207
0.0137009
0.0135809
0.0134615
0.0133433
0.0132267
0.0131105
0.0129933
0.0128776
0.0127776
0.0127174
0.0126911
0.0125736
0.0053848
0.00526322
0.00514968
0.00504217
0.00493906
0.00483943
0.00474277
0.00464881
0.00455744
0.00446872
0.00438278
0.00429977
0.00421982
0.004143
0.0040693
0.00399861
0.00393078
0.0038656
0.00380358
0.0161216
0.0158399
0.0156535
0.0155169
0.015403
0.0152973
0.0151926
0.0150856
0.0149753
0.0148618
0.0147458
0.0146281
0.0145094
0.0143903
0.0142708
0.014151
0.0140308
0.01391
0.0137885
0.0136663
0.0135437
0.0134217
0.0133014
0.0131845
0.0130721
0.0129611
0.0128435
0.0127155
0.0125983
0.0125352
0.0124598
0.00538475
0.00526392
0.00515066
0.00504325
0.0049402
0.00484058
0.0047439
0.00464994
0.00455865
0.00447007
0.00438432
0.00430151
0.00422174
0.00414504
0.00407139
0.00400068
0.00393276
0.00386744
0.00380499
0.0161289
0.0158535
0.0156711
0.0155322
0.0154123
0.0152993
0.0151874
0.0150742
0.0149591
0.0148422
0.0147241
0.0146054
0.0144865
0.0143679
0.0142494
0.0141311
0.0140125
0.0138935
0.0137742
0.0136543
0.0135341
0.0134137
0.0132937
0.0131754
0.0130624
0.0129582
0.0128594
0.0127519
0.0126291
0.0125306
0.0124435
0.00538438
0.00526368
0.00515056
0.00504318
0.00494013
0.00484051
0.00474384
0.00464988
0.00455861
0.00447007
0.00438436
0.00430159
0.00422181
0.00414505
0.00407128
0.0040004
0.00393225
0.00386666
0.00380194
0.003659
0.0155213
0.0155239
0.0154815
0.0154086
0.0153156
0.0152096
0.0150955
0.0149766
0.0148551
0.0147324
0.0146098
0.0144877
0.0143665
0.0142464
0.014127
0.0140082
0.0138895
0.0137711
0.0136528
0.0135349
0.0134177
0.0133009
0.0131837
0.0130669
0.0129553
0.0128549
0.0127604
0.012654
0.0125511
0.0124561
0.00538422
0.00526333
0.00515019
0.00504283
0.00493981
0.0048403
0.00474382
0.0046501
0.0045591
0.00447084
0.00438538
0.0043028
0.00422315
0.00414643
0.0040726
0.00400157
0.00393321
0.00386736
0.00380232
0.00365759
0.0155163
0.0155213
0.0154817
0.0154111
0.0153197
0.0152146
0.0151008
0.0149817
0.0148596
0.0147361
0.0146123
0.0144891
0.0143667
0.0142454
0.0141253
0.014006
0.0138873
0.013769
0.0136511
0.0135338
0.0134177
0.0133036
0.0131908
0.0130775
0.0129635
0.0128547
0.0127567
0.0126574
0.0125573
0.0124605
0.00538424
0.0052632
0.00514995
0.00504252
0.00493946
0.00483998
0.0047436
0.00465006
0.00455928
0.00447125
0.004386
0.00430357
0.00422398
0.00414723
0.00407328
0.00400205
0.00393342
0.00386728
0.00380193
0.00365692
0.0155096
0.0155147
0.0154756
0.0154058
0.0153152
0.0152109
0.0150978
0.0149791
0.0148571
0.0147335
0.0146094
0.0144857
0.0143631
0.0142416
0.0141216
0.0140029
0.0138854
0.0137688
0.0136528
0.0135372
0.0134221
0.0133085
0.0131975
0.0130882
0.0129783
0.012868
0.0127642
0.0126642
0.0125651
0.0124675
0.00538429
0.0052632
0.00514984
0.0050423
0.00493918
0.0048397
0.00474339
0.00465001
0.00455944
0.00447164
0.00438661
0.00430436
0.00422487
0.00414814
0.0040741
0.00400271
0.00393387
0.00386748
0.0038019
0.00365668
0.0155059
0.0155109
0.0154722
0.0154031
0.0153133
0.0152095
0.0150966
0.0149777
0.0148551
0.0147305
0.0146052
0.0144804
0.0143568
0.0142347
0.0141144
0.013996
0.0138794
0.0137643
0.0136507
0.0135379
0.0134252
0.013313
0.0132021
0.0130936
0.0129865
0.0128786
0.012773
0.0126708
0.0125709
0.0124727
0.00538429
0.00526319
0.00514975
0.00504211
0.00493891
0.00483942
0.00474317
0.00464991
0.00455953
0.00447193
0.0043871
0.00430499
0.00422558
0.00414885
0.00407474
0.00400319
0.00393415
0.00386752
0.0038021
0.00365604
0.0154995
0.0155049
0.0154686
0.0154029
0.0153164
0.015215
0.015103
0.0149836
0.0148594
0.0147323
0.0146041
0.0144762
0.0143496
0.0142253
0.0141035
0.0139844
0.0138679
0.0137536
0.0136414
0.0135308
0.0134211
0.0133116
0.0132022
0.0130941
0.0129878
0.0128818
0.0127767
0.0126738
0.012573
0.0124743
0.00538426
0.00526313
0.00514962
0.00504188
0.00493861
0.0048391
0.0047429
0.00464977
0.00455955
0.00447214
0.00438747
0.00430549
0.00422615
0.00414941
0.00407521
0.00400352
0.00393428
0.00386744
0.00380182
0.00365556
0.0154949
0.0155005
0.0154647
0.0153996
0.0153136
0.0152126
0.0151005
0.0149805
0.0148551
0.0147264
0.0145963
0.0144662
0.0143375
0.0142114
0.0140884
0.0139688
0.0138525
0.0137392
0.0136282
0.0135193
0.0134118
0.013305
0.013198
0.0130913
0.0129857
0.0128807
0.0127762
0.0126733
0.0125722
0.0124733
0.00538423
0.00526305
0.00514945
0.00504162
0.00493829
0.00483877
0.00474264
0.00464964
0.00455959
0.00447237
0.00438788
0.00430606
0.00422681
0.0041501
0.00407586
0.00400407
0.0039347
0.00386771
0.00380194
0.00365557
0.0154939
0.0154992
0.0154632
0.0153981
0.015312
0.0152106
0.015098
0.0149772
0.0148507
0.0147207
0.0145892
0.0144578
0.0143281
0.0142014
0.0140784
0.0139595
0.0138446
0.0137333
0.0136247
0.0135179
0.0134128
0.0133084
0.0132037
0.0130984
0.0129932
0.0128882
0.0127836
0.0126798
0.0125775
0.0124773
0.00538422
0.00526297
0.00514928
0.00504134
0.00493792
0.00483836
0.00474224
0.0046493
0.00455935
0.00447223
0.00438785
0.00430608
0.00422685
0.00415009
0.00407575
0.00400382
0.00393427
0.00386711
0.00380119
0.00365475
0.015487
0.0154926
0.0154569
0.0153918
0.0153057
0.0152042
0.0150912
0.0149697
0.0148424
0.0147115
0.0145791
0.014447
0.014317
0.0141903
0.0140679
0.0139501
0.0138368
0.0137275
0.0136216
0.0135173
0.013414
0.0133112
0.013208
0.0131037
0.0129985
0.0128928
0.0127871
0.0126821
0.0125783
0.0124766
0.0053842
0.00526289
0.00514912
0.0050411
0.00493764
0.0048381
0.00474206
0.00464926
0.00455948
0.00447257
0.00438837
0.00430676
0.00422765
0.00415095
0.00407662
0.00400466
0.00393506
0.00386782
0.00380186
0.00365721
0.0154952
0.0154982
0.0154604
0.0153938
0.0153063
0.0152034
0.0150889
0.014966
0.0148373
0.0147049
0.0145712
0.0144383
0.0143078
0.014181
0.0140591
0.0139424
0.0138305
0.0137229
0.0136186
0.0135165
0.013415
0.0133133
0.0132108
0.013107
0.013002
0.0128957
0.0127891
0.0126829
0.0125781
0.0124756
0.00538418
0.00526278
0.00514882
0.00504059
0.00493692
0.00483717
0.00474096
0.00464802
0.00455815
0.00447116
0.0043869
0.00430523
0.00422603
0.00414923
0.00407479
0.00400271
0.00393299
0.00386568
0.00380083
0.0159581
0.0158358
0.0157177
0.0156002
0.015481
0.0153587
0.0152328
0.0151031
0.0149701
0.0148345
0.0146976
0.014561
0.0144264
0.0142954
0.014169
0.014048
0.0139329
0.013823
0.013718
0.013616
0.0135163
0.0134175
0.0133183
0.0132177
0.0131157
0.0130122
0.0129076
0.0128027
0.0126986
0.0125962
0.012497
0.00538417
0.00526273
0.0051488
0.00504068
0.00493715
0.00483757
0.00474154
0.00464878
0.00455909
0.00447226
0.00438812
0.00430653
0.00422736
0.00415056
0.00407607
0.00400392
0.00393412
0.00386671
0.00380179
0.015972
0.0158512
0.0157321
0.0156125
0.0154911
0.015367
0.0152397
0.0151091
0.0149757
0.0148404
0.0147045
0.0145696
0.0144374
0.0143093
0.0141867
0.0140704
0.0139603
0.013856
0.0137567
0.0136612
0.0135678
0.0134755
0.0133831
0.0132897
0.0131953
0.0130997
0.0130038
0.0129086
0.0128153
0.0127256
0.012641
0.00538416
0.00526184
0.00514689
0.00503783
0.00493351
0.00483334
0.00473694
0.00464399
0.00455424
0.00446748
0.0043835
0.00430215
0.00422329
0.00414685
0.00407278
0.00400109
0.00393181
0.00386496
0.00380062
0.0159673
0.0158542
0.0157423
0.0156264
0.0155128
0.0154001
0.0152879
0.015175
0.0150613
0.014947
0.0148332
0.0147212
0.0146124
0.0145083
0.0144101
0.0143277
0.0142482
0.0141726
0.0141001
0.0140302
0.0139616
0.0138933
0.0138243
0.0137541
0.0136829
0.0136114
0.0135403
0.0134714
0.0134063
0.0133474
0.0132973
0.00538451
0.00526324
0.00515004
0.00504286
0.00494115
0.00484489
0.00475334
0.00466594
0.00458224
0.00450189
0.00442459
0.00435011
0.00427828
0.00420901
0.00414224
0.00407795
0.00401613
0.00395672
0.00389958
0.00384448
0.00375674
0.00370279
0.00363467
0.0035851
0.00355107
0.00352827
0.00351271
0.00350134
0.0034921
0.00348383
0.00347591
0.00346811
0.00346055
0.00345517
0.0150706
0.0153895
0.0155909
0.0157134
0.0157819
0.0158131
0.0158184
0.0158048
0.0157771
0.0157395
0.0156953
0.0156475
0.0155994
0.015554
0.0155147
0.0154856
0.00545351
0.00543
0.00540811
0.00538723
0.00536636
0.0053446
0.00532193
0.00529842
0.00527417
0.00524927
0.00522386
0.00519808
0.00517209
0.00514606
0.00512018
0.00509463
0.00506955
0.00504503
0.00502107
0.00499747
0.00495227
0.00491894
0.00490026
0.00487533
0.00484686
0.00481652
0.00478526
0.00475359
0.0047219
0.00469047
0.00465962
0.00462971
0.00460084
0.00457328
0.00454813
0.00452466
0.00450222
0.00448068
0.00445954
0.0044385
0.00441726
0.00439565
0.00437345
0.00435051
0.00432672
0.00430204
0.00427636
0.00424978
0.00422211
0.00419334
0.00413224
0.00794795
0.00510257
0.00419411
0.00389592
0.00392626
0.00460543
0.00688878
0.0121419
0.0208282
0.00625831
0.00699336
0.00740975
0.0078205
0.00831964
0.00881984
0.0091469
0.0096131
0.0105648
0.0130748
0.00410298
0.00811001
0.00517314
0.00423292
0.00390236
0.00382811
0.00417392
0.0056226
0.00941792
0.0164446
0.00579105
0.00650978
0.0070373
0.00761167
0.00836379
0.0091955
0.00957974
0.0100853
0.0110202
0.0134321
0.00419654
0.008247
0.00523227
0.00426773
0.00391849
0.00377905
0.00389453
0.00469859
0.00717638
0.0124732
0.0205444
0.00577035
0.00644173
0.00715005
0.00809706
0.00929705
0.00971005
0.0102259
0.0111384
0.0134404
0.00415293
0.00835624
0.0052944
0.00430762
0.00394509
0.00376802
0.00373958
0.00409628
0.00549994
0.00902822
0.0151746
0.0051061
0.00568119
0.00638183
0.00753764
0.00929816
0.00976069
0.010306
0.0112143
0.0134193
0.0041306
0.00846303
0.00535597
0.00434798
0.00397605
0.00378029
0.00367278
0.00375511
0.00440654
0.00643337
0.0106564
0.0167587
0.00474064
0.00548523
0.00672908
0.00891282
0.00970947
0.0103074
0.0112306
0.0133716
0.00411681
0.00856587
0.0054161
0.00438781
0.00400864
0.00380503
0.00366077
0.00359618
0.00378923
0.00471124
0.00710793
0.011242
0.016512
0.00453009
0.00567185
0.00827045
0.00959654
0.0102624
0.0112125
0.0133131
0.00410447
0.00866565
0.00547494
0.00442699
0.0040414
0.0038351
0.00367795
0.00354867
0.00350725
0.00376819
0.00478231
0.00697166
0.010212
0.00344675
0.00438661
0.0073378
0.00950817
0.0102056
0.0112215
0.013321
0.00409191
0.00876416
0.00553313
0.00446584
0.00407383
0.0038664
0.00370747
0.00355802
0.00342138
0.00336673
0.00358746
0.00437159
0.00580121
0.00861747
0.00307111
0.00584435
0.00926366
0.0102399
0.0112883
0.013566
0.00407984
0.00886314
0.0055918
0.00450474
0.00410588
0.00389754
0.00374047
0.00359014
0.003429
0.00326307
0.00314376
0.00318245
0.00343307
0.00410792
0.00989089
0.00408031
0.00816618
0.0101052
0.0115329
0.0138924
0.00406926
0.00896419
0.00565167
0.00454425
0.00413791
0.00392823
0.00377342
0.00362795
0.00346957
0.00328648
0.00308308
0.0029
0.00281543
0.00283955
0.00775214
0.0103827
0.00661532
0.00926934
0.0115678
0.0142107
0.00406096
0.0090691
0.00571382
0.00458488
0.0041706
0.00395908
0.00380608
0.00366577
0.00351579
0.00334156
0.00313561
0.00291467
0.00275736
0.0027959
0.0042762
0.00445039
0.0237669
0.00804154
0.0108986
0.0144224
0.00405529
0.00917909
0.00577933
0.00462751
0.00420465
0.00399072
0.003839
0.00370306
0.00356124
0.00339912
0.00320469
0.0029781
0.0027666
0.00276929
0.00306345
0.00290046
0.0121132
0.00669168
0.00987961
0.0140654
0.00405263
0.0092951
0.00584888
0.0046727
0.00424049
0.00402392
0.00387302
0.00374062
0.0036061
0.00345573
0.00327704
0.00306062
0.00281109
0.00263659
0.00262265
0.0021782
0.00704152
0.0219839
0.0088123
0.0132165
0.00405348
0.00941704
0.00592286
0.00472084
0.00427829
0.00405874
0.00390827
0.00377887
0.00365048
0.00351055
0.00334833
0.0031561
0.00292466
0.00263785
0.00247979
0.00211787
0.00636454
0.0182566
0.00828235
0.0121336
0.0040577
0.00954237
0.00600027
0.00477141
0.00431791
0.00409506
0.00394462
0.00381776
0.0036944
0.00356234
0.0034124
0.00324232
0.00305568
0.00284472
0.00256102
0.00227503
0.00647535
0.0158244
0.0297279
0.0112716
0.00406488
0.0096667
0.00607925
0.00482341
0.00435852
0.00413211
0.0039815
0.00385665
0.00373749
0.00361065
0.00346566
0.00330112
0.00312917
0.0029959
0.00291536
0.00280514
0.00605889
0.0137616
0.0250817
0.0105412
0.00407349
0.00978212
0.00615648
0.00487555
0.00439929
0.00416906
0.00401787
0.00389461
0.0037792
0.00365671
0.00351235
0.00334333
0.00314213
0.00293211
0.00281968
0.00270271
0.00543971
0.0116488
0.0209485
0.0376042
0.00408148
0.00987862
0.00622793
0.00492596
0.00443919
0.00420536
0.00405347
0.00393053
0.00381722
0.00370001
0.00357016
0.0034192
0.00323398
0.00300625
0.00283716
0.00265098
0.00458919
0.00954207
0.0172676
0.0313864
0.00408624
0.00994441
0.00628961
0.00497279
0.00447738
0.00424069
0.00408941
0.00396764
0.00385158
0.00372763
0.00358843
0.00343336
0.00325936
0.00305004
0.00286857
0.00265409
0.00383357
0.00765405
0.014036
0.0260642
0.00408364
0.00996494
0.00634407
0.00501556
0.00451225
0.00427314
0.00412219
0.00400184
0.00388718
0.00376166
0.00361435
0.00344472
0.00326073
0.00305575
0.00287457
0.00265255
0.00332544
0.00612568
0.0112791
0.0214897
0.00407541
0.00994778
0.00635856
0.00503909
0.00453784
0.00429924
0.0041476
0.00402585
0.00390952
0.00378236
0.00363088
0.00345128
0.00325493
0.00304336
0.0028557
0.00265242
0.00301359
0.00497761
0.00901198
0.0175641
0.00406785
0.00986389
0.0063352
0.00504509
0.00455531
0.00432119
0.00417047
0.00404652
0.00392507
0.0037908
0.00363025
0.00343961
0.00323194
0.00301272
0.00281454
0.00266154
0.00283286
0.00416042
0.00721951
0.0142329
0.0040603
0.0097224
0.00627887
0.00503535
0.00456434
0.00433722
0.00418859
0.00406292
0.00393558
0.0037902
0.00361374
0.00340535
0.00318248
0.00295465
0.00274842
0.00267849
0.00274446
0.00360532
0.00585788
0.0114683
0.00405176
0.00953225
0.00619624
0.00501378
0.00456704
0.00434833
0.00420118
0.00407298
0.00393852
0.00377894
0.0035805
0.00334611
0.00310105
0.00286007
0.00265548
0.00266171
0.00270117
0.0032425
0.00486031
0.00923997
0.00404084
0.00930144
0.00609343
0.00498322
0.004565
0.00435581
0.0042094
0.00407691
0.00393248
0.00375435
0.00352725
0.00325779
0.00298188
0.00271857
0.00254045
0.00261675
0.00267193
0.00301133
0.00415253
0.00749979
0.00402645
0.00904034
0.00597808
0.00494692
0.00455958
0.00436017
0.00421391
0.00407526
0.00391711
0.00371491
0.00345102
0.00313627
0.00281943
0.00252176
0.00239713
0.00254256
0.00263821
0.00286446
0.0036655
0.00618317
0.00400769
0.00876212
0.00585893
0.00490938
0.00455279
0.00436237
0.00421521
0.00406834
0.00389252
0.00366013
0.0033506
0.00298
0.00261186
0.00227145
0.0022314
0.00244104
0.00259098
0.00276516
0.00333833
0.00521826
0.00398412
0.00848156
0.00574452
0.00487494
0.004547
0.00436391
0.00421426
0.00405664
0.00385919
0.00359069
0.00322772
0.00279292
0.00236622
0.0020013
0.0020531
0.00233805
0.00254041
0.00268501
0.00310965
0.00451499
0.00395607
0.00821437
0.0056431
0.00484728
0.00454427
0.00436636
0.00421214
0.00404104
0.00381829
0.00350905
0.00308823
0.00258738
0.0021069
0.00180488
0.00185784
0.00234693
0.00254336
0.00263116
0.00294706
0.0039862
0.00392424
0.00797553
0.0055608
0.00482888
0.00454599
0.0043708
0.0042099
0.00402284
0.00377188
0.00341969
0.00294217
0.00238393
0.00188286
0.00176053
0.00166567
0.00236892
0.00252458
0.0025826
0.00281395
0.00357423
0.00388914
0.00777728
0.00550096
0.00482081
0.0045528
0.00437778
0.00420842
0.00400354
0.00372308
0.00332891
0.00280148
0.00220314
0.00174737
0.00183881
0.00195099
0.00234405
0.00247424
0.00252885
0.00269544
0.00325265
0.00385097
0.00762711
0.00546402
0.0048229
0.00456466
0.00438749
0.00420833
0.00398472
0.00367567
0.00324444
0.00267901
0.00205906
0.0017244
0.00184714
0.00204101
0.00228127
0.00240625
0.00247114
0.00259017
0.00300004
0.00380931
0.00752712
0.00544797
0.00483388
0.00458106
0.0044
0.00421032
0.00396788
0.00363251
0.00317254
0.00259663
0.0020279
0.00175029
0.00183818
0.00202629
0.00220752
0.00233494
0.00241077
0.00249715
0.00279988
0.00376332
0.00747374
0.00544895
0.00485201
0.00460127
0.0044154
0.00421485
0.00395567
0.00359914
0.00312351
0.00255197
0.00200381
0.00174366
0.00181343
0.00198831
0.00214131
0.00226831
0.00235135
0.00241938
0.00264561
0.00372037
0.00743077
0.00545691
0.00487333
0.00462315
0.00443241
0.00422233
0.0039495
0.00357806
0.0030944
0.0025297
0.00198935
0.00171311
0.00176229
0.00194376
0.00207903
0.00220173
0.00229038
0.0023543
0.00252905
0.00368005
0.00739342
0.00546956
0.00489685
0.00464629
0.00445032
0.00423061
0.00394533
0.00356241
0.00307586
0.00252131
0.00198822
0.00167933
0.0017007
0.00187981
0.00202233
0.00212705
0.00221974
0.00228999
0.00243616
0.00364061
0.00736775
0.00548693
0.00492274
0.00467163
0.00447083
0.00424253
0.00394535
0.00355099
0.00306058
0.00251571
0.00199638
0.00166078
0.00165043
0.00176414
0.00191165
0.00201775
0.00211641
0.00220153
0.00233717
0.00360307
0.00735464
0.00550942
0.00495087
0.00469839
0.00449295
0.00425732
0.00394934
0.00354329
0.00304573
0.00250576
0.00200437
0.00166183
0.00165643
0.00168003
0.00178577
0.00188452
0.00198081
0.00207827
0.00222369
0.00356852
0.00735511
0.00553798
0.00498207
0.0047271
0.00451674
0.00427405
0.0039559
0.00353748
0.00302912
0.00248733
0.00200147
0.00166762
0.00166566
0.00164382
0.00168178
0.0017587
0.00184523
0.0019453
0.00209374
0.00353763
0.0073692
0.00557245
0.0050162
0.004758
0.0045429
0.00429324
0.00396493
0.00353297
0.00301025
0.00246099
0.00198864
0.00168378
0.00163105
0.00164648
0.00160364
0.0016544
0.00172881
0.00183365
0.00197966
0.00351056
0.00739696
0.00561253
0.00505294
0.00479089
0.00457161
0.00431597
0.00397805
0.00353162
0.00299018
0.00242488
0.00195557
0.00170214
0.00167275
0.0016616
0.00154069
0.00156428
0.00161059
0.00170059
0.00184959
0.00348746
0.0074383
0.00565824
0.00509238
0.00482594
0.00460341
0.00434388
0.00399887
0.00353962
0.00297832
0.00238981
0.00190413
0.00165438
0.00165698
0.00176078
0.00166228
0.00155152
0.00155891
0.0016118
0.0017278