/*--------------------------------*- C++ -*----------------------------------*\
  =========                 |
  \\      /  F ield         | OpenFOAM: The Open Source CFD Toolbox
   \\    /   O peration     | Website:  https://openfoam.org
    \\  /    A nd           | Version:  8
     \\/     M anipulation  |
\*---------------------------------------------------------------------------*/
FoamFile
{
    version     2.0;
    format      ascii;
    class       volScalarField;
    location    "1000";
    object      epsilon;
}
// * * * * * * * * * * * * * * * * * * * * * * * * * * * * * * * * * * * * * //

dimensions      [0 2 -3 0 0 0 0];

internalField   nonuniform List<scalar> 
8400
(
0.0266414
0.0260411
0.0255454
0.0250542
0.0246013
0.0242133
0.0239021
0.0236814
0.0235671
0.0235747
0.0237207
0.0240291
0.024541
0.0253255
0.0264866
0.0281688
0.0305338
0.0335249
0.0365363
0.0386967
0.0393336
0.0386897
0.0372785
0.0355059
0.0335836
0.0320678
0.0310097
0.0301293
0.0293194
0.028774
0.0287305
0.0292083
0.030008
0.0310081
0.0321079
0.0331848
0.0341451
0.0349195
0.0354673
0.0357732
0.0358449
0.0357003
0.0353697
0.0348842
0.0342773
0.0335822
0.0328314
0.032055
0.0312825
0.0305455
0.011267
0.0111708
0.0111315
0.01112
0.0110966
0.0110516
0.0109804
0.0108758
0.0107281
0.0105277
0.010265
0.00992879
0.00950331
0.0089699
0.00832631
0.00770878
0.00708571
0.00658997
0.00628589
0.00608637
0.0059072
0.0055578
0.00500317
0.00442957
0.00406733
0.00384186
0.00371477
0.00362742
0.00355185
0.00349047
0.00345112
0.00343409
0.00342986
0.0034335
0.00344074
0.00344587
0.00344554
0.00343844
0.00342552
0.00340906
0.00339183
0.00337692
0.00336672
0.00336327
0.00336787
0.00338114
0.00340285
0.00343191
0.0034663
0.00350324
0.0130785
0.0129588
0.012835
0.0127108
0.0125808
0.0124499
0.0123505
0.0123165
0.012313
0.012308
0.0122839
0.0122275
0.0120925
0.0116289
0.00926534
0.00825566
0.0068454
0.00556234
0.00472871
0.00416155
0.00382111
0.003572
0.00336002
0.00322082
0.00318206
0.00306832
0.002987
0.00297103
0.00298435
0.00298103
0.00294324
0.00289395
0.00285769
0.00283473
0.00282818
0.00283675
0.00285606
0.00288247
0.00291345
0.00294767
0.00298415
0.00302209
0.00306095
0.00310041
0.00314009
0.00317971
0.00321895
0.00325777
0.00329637
0.00333502
0.0131412
0.0131092
0.0130756
0.0130407
0.0130078
0.0129817
0.0129622
0.0129434
0.0129245
0.012905
0.0128841
0.0128614
0.0128376
0.0128033
0.0127628
0.0126811
0.0125222
0.0122794
0.011929
0.0114612
0.0108647
0.0101859
0.00951103
0.00909471
0.00562244
0.00387144
0.00354471
0.00354753
0.00365036
0.00354965
0.00337432
0.00323963
0.00310523
0.00299105
0.00291042
0.00286593
0.00284855
0.00284894
0.00286029
0.00287849
0.00290068
0.00292477
0.00294921
0.00297322
0.00299628
0.00301825
0.00303912
0.00305925
0.00307894
0.00309854
0.0131576
0.0131441
0.0131305
0.0131168
0.0131029
0.0130887
0.0130743
0.0130595
0.0130444
0.0130292
0.0130137
0.0129979
0.0129809
0.0129623
0.0129416
0.012917
0.012885
0.0128395
0.0127705
0.0126629
0.0124969
0.0122553
0.0119321
0.0115523
0.0107774
0.00982275
0.00901516
0.00848069
0.00823819
0.00469142
0.00404936
0.00409585
0.00369609
0.0034476
0.00323478
0.00309022
0.00299769
0.00294218
0.00290671
0.00288431
0.00287178
0.00286658
0.0028667
0.00287062
0.00287733
0.00288602
0.00289626
0.00290773
0.00292007
0.00293242
0.013153
0.0131345
0.0131159
0.0130972
0.0130783
0.0130593
0.01304
0.0130205
0.0130007
0.0129806
0.0129606
0.0129409
0.0129216
0.0129028
0.0128847
0.012867
0.0128488
0.0128288
0.012804
0.012769
0.0127147
0.0126289
0.0124976
0.0123107
0.0120018
0.0115603
0.0110381
0.0104881
0.00995645
0.00887945
0.0085675
0.00736247
0.00442503
0.00431318
0.00383562
0.00358583
0.0033932
0.00329472
0.00322997
0.00318279
0.003149
0.003128
0.00311848
0.00311926
0.00312868
0.00314493
0.00316576
0.0031904
0.00321742
0.0032444
0.0131513
0.0131308
0.0131101
0.0130893
0.0130683
0.0130471
0.0130256
0.0130039
0.0129819
0.0129597
0.0129374
0.0129149
0.0128926
0.0128706
0.012849
0.0128281
0.0128078
0.0127881
0.0127686
0.0127476
0.0127219
0.0126851
0.0126282
0.0125399
0.0123967
0.0121759
0.0118712
0.0114875
0.01104
0.0104311
0.00990676
0.00924788
0.00871165
0.00763385
0.00449786
0.00439873
0.00394236
0.00383035
0.00378103
0.00376582
0.00376659
0.00377742
0.00379935
0.00383254
0.00387545
0.00392557
0.00398169
0.00403704
0.00408823
0.0041344
0.0131473
0.0131225
0.0130975
0.0130723
0.0130468
0.013021
0.0129948
0.0129685
0.012942
0.0129157
0.0128897
0.0128639
0.0128387
0.0128143
0.0127907
0.0127682
0.0127471
0.0127274
0.0127092
0.012692
0.0126746
0.0126545
0.0126268
0.0125838
0.0125129
0.0123968
0.0122197
0.0119706
0.0116463
0.0112223
0.0107551
0.0102264
0.00970358
0.0090774
0.0087758
0.00645181
0.00449839
0.00433756
0.00428077
0.00429044
0.00436748
0.00444534
0.0045269
0.00460951
0.00469332
0.00477674
0.00485529
0.00492936
0.00499624
0.00505031
0.0131417
0.0131107
0.0130796
0.0130481
0.0130164
0.0129842
0.0129517
0.012919
0.0128862
0.0128535
0.0128215
0.0127907
0.0127612
0.0127336
0.0127079
0.0126843
0.0126631
0.0126441
0.0126276
0.0126134
0.0126009
0.012589
0.0125752
0.0125546
0.0125193
0.0124571
0.0123534
0.0121933
0.0119656
0.0116561
0.0112766
0.0108342
0.0103546
0.0098338
0.00936564
0.00847247
0.00827022
0.00472637
0.00473524
0.00450177
0.00461544
0.0047059
0.00482724
0.00492725
0.005012
0.00508279
0.00514301
0.00519198
0.00522614
0.0052436
0.0131315
0.0130888
0.0130463
0.0130037
0.0129606
0.012917
0.0128733
0.0128294
0.0127857
0.012743
0.0127022
0.0126645
0.0126303
0.0126003
0.012575
0.0125543
0.0125375
0.0125244
0.0125146
0.0125076
0.012503
0.0124999
0.0124968
0.0124907
0.0124765
0.0124454
0.0123853
0.0122821
0.012122
0.0118915
0.0115881
0.0112168
0.0107908
0.0103242
0.00984489
0.00923608
0.00875601
0.00801515
0.00654519
0.00458868
0.00475311
0.00457291
0.00472043
0.00481188
0.00487699
0.00492025
0.00493777
0.00492644
0.00488531
0.00482025
0.013109
0.0130395
0.0129723
0.012906
0.0128397
0.0127727
0.012705
0.0126374
0.0125711
0.0125086
0.0124536
0.0124093
0.0123766
0.0123548
0.0123435
0.0123409
0.0123444
0.0123518
0.0123613
0.0123717
0.0123822
0.0123925
0.0124022
0.0124094
0.0124106
0.0123997
0.0123673
0.0123007
0.0121864
0.0120108
0.0117657
0.0114518
0.0110766
0.0106541
0.0101987
0.00968062
0.00917119
0.00855911
0.00773876
0.00722462
0.00616821
0.00434407
0.00447975
0.00459193
0.00461341
0.00462946
0.00463999
0.00460154
0.00449829
0.00433063
0.013036
0.0128818
0.0127572
0.0126423
0.0125261
0.0124076
0.0122818
0.0121511
0.012029
0.0119375
0.011899
0.0119138
0.0119571
0.0120075
0.0120557
0.0120991
0.0121378
0.0121732
0.0122054
0.0122347
0.012261
0.0122848
0.0123062
0.0123243
0.0123374
0.0123406
0.0123257
0.0122827
0.0121981
0.0120595
0.0118568
0.011587
0.0112545
0.0108709
0.010447
0.00997747
0.00948468
0.00892721
0.00828165
0.00768156
0.00703348
0.00646433
0.00604881
0.00563519
0.00525464
0.00494643
0.00473463
0.00462697
0.00457267
0.00451858
0.0123096
0.0120817
0.0119238
0.0117787
0.0116496
0.0115404
0.0114568
0.0114076
0.0114029
0.0114414
0.0115122
0.0116004
0.0116908
0.0117766
0.0118529
0.0119207
0.0119813
0.0120335
0.0120802
0.0121229
0.0121597
0.0121919
0.0122212
0.0122467
0.0122672
0.0122789
0.0122748
0.0122454
0.0121792
0.0120638
0.0118894
0.0116518
0.0113532
0.011003
0.0106105
0.0101775
0.00971206
0.00919694
0.00862948
0.00805823
0.00749522
0.00697615
0.00651125
0.00609298
0.00572301
0.00540629
0.00514725
0.00494968
0.00481128
0.00472043
0.011248
0.0111443
0.0110955
0.0110821
0.011094
0.011122
0.0111612
0.0112106
0.0112703
0.01134
0.011417
0.0114972
0.0115779
0.0116567
0.0117316
0.0118017
0.0118672
0.0119265
0.0119804
0.012029
0.0120723
0.0121107
0.0121452
0.0121758
0.0122014
0.012218
0.0122198
0.0121968
0.0121395
0.0120369
0.0118798
0.0116639
0.0113911
0.0110689
0.0107053
0.0103044
0.00986943
0.00939313
0.00887943
0.00835381
0.00783751
0.00734889
0.00689548
0.00647955
0.00610231
0.00576562
0.00547216
0.00522553
0.00502821
0.00487915
0.0110937
0.0111174
0.0111535
0.0111943
0.0112354
0.011275
0.0113134
0.0113522
0.0113929
0.0114363
0.0114831
0.0115332
0.0115863
0.0116414
0.0116975
0.0117535
0.0118088
0.0118619
0.0119124
0.0119597
0.0120034
0.0120431
0.012079
0.0121103
0.0121357
0.012152
0.0121538
0.0121332
0.012082
0.0119867
0.0118347
0.0116323
0.011379
0.0110803
0.0107433
0.0103725
0.00996915
0.00953101
0.00906418
0.00858539
0.00811172
0.00765598
0.00722482
0.00682119
0.0064463
0.00610158
0.00578923
0.00551242
0.00527445
0.00507727
0.011209
0.0112471
0.011285
0.0113215
0.0113562
0.0113894
0.0114217
0.0114537
0.0114859
0.0115187
0.0115526
0.011588
0.0116252
0.0116639
0.0117042
0.0117454
0.0117874
0.0118291
0.0118701
0.0119096
0.0119472
0.0119819
0.0120129
0.0120393
0.0120592
0.0120694
0.0120655
0.0120412
0.0119894
0.0119004
0.0117638
0.0115685
0.011322
0.0110438
0.0107323
0.0103909
0.0100206
0.00962166
0.00920025
0.00876817
0.00833761
0.00791786
0.00751437
0.00712982
0.00676571
0.00642356
0.00610562
0.00581465
0.00555375
0.00532572
0.0112427
0.0112709
0.0112992
0.0113274
0.0113558
0.0113847
0.0114141
0.011444
0.0114745
0.0115055
0.011537
0.0115691
0.0116018
0.0116348
0.0116683
0.0117021
0.011736
0.0117694
0.011802
0.0118335
0.0118629
0.0118897
0.0119126
0.0119304
0.0119412
0.0119421
0.0119297
0.0118989
0.0118444
0.0117595
0.0116369
0.0114687
0.0112369
0.0109635
0.0106764
0.0103655
0.0100309
0.00967355
0.00929841
0.00891369
0.00852783
0.00814728
0.00777629
0.00741739
0.0070725
0.00674344
0.00643251
0.00614232
0.00587576
0.00563569
0.0111129
0.0111286
0.0111457
0.0111646
0.0111856
0.0112088
0.0112341
0.0112615
0.0112909
0.0113217
0.0113536
0.0113863
0.0114195
0.011453
0.0114865
0.0115196
0.0115521
0.0115834
0.0116132
0.011641
0.0116661
0.0116879
0.0117053
0.0117169
0.0117212
0.011716
0.0116986
0.0116657
0.0116136
0.0115379
0.0114349
0.0112997
0.0111207
0.0108427
0.010578
0.0103002
0.0100051
0.00969254
0.00936574
0.00903014
0.00869136
0.00835383
0.00802101
0.00769552
0.00737972
0.00707579
0.00678609
0.00651318
0.00625976
0.00602852
0.0107901
0.0107888
0.0107898
0.0107935
0.0108005
0.0108108
0.0108242
0.0108388
0.010853
0.010872
0.0108967
0.0109251
0.0109559
0.0109885
0.0110221
0.0110564
0.0110908
0.0111248
0.0111579
0.0111894
0.0112185
0.0112445
0.0112666
0.0112835
0.011294
0.0112964
0.0112892
0.0112701
0.0112369
0.0111877
0.0111207
0.0110329
0.010916
0.0106914
0.0104364
0.0101962
0.00994551
0.00968221
0.00940761
0.00912492
0.00883784
0.00854964
0.00826343
0.00798198
0.00770789
0.00744363
0.00719163
0.00695439
0.00673433
0.00653367
0.0298602
0.0289114
0.0279534
0.0269806
0.0259961
0.0250068
0.0240222
0.0230552
0.022117
0.0212105
0.0203413
0.0195168
0.0187418
0.0180182
0.0173464
0.0167256
0.0161539
0.0156289
0.0151475
0.0147066
0.0143024
0.0139313
0.0135898
0.0132741
0.012981
0.0127068
0.0124482
0.0122019
0.0119649
0.011734
0.0115065
0.0112796
0.0110515
0.0107904
0.0106989
0.0106768
0.0106874
0.0107109
0.0107387
0.0107692
0.0108038
0.0108442
0.0108919
0.0109482
0.0110144
0.0110921
0.0111832
0.0112904
0.0114163
0.0115619
9.32936e-06
9.22894e-06
9.13984e-06
9.04688e-06
8.94869e-06
8.84542e-06
8.73814e-06
8.6281e-06
8.51695e-06
8.40634e-06
8.29748e-06
8.19096e-06
8.0868e-06
7.98464e-06
7.88394e-06
7.78407e-06
7.68447e-06
7.58464e-06
7.4843e-06
7.3832e-06
7.27901e-06
7.14833e-06
7.02501e-06
6.9074e-06
6.79483e-06
6.68731e-06
6.58507e-06
6.48237e-06
6.38393e-06
6.29177e-06
6.20631e-06
6.12706e-06
6.05308e-06
5.9833e-06
5.91673e-06
5.85255e-06
5.79017e-06
5.72926e-06
5.66971e-06
5.61157e-06
5.55508e-06
5.50053e-06
5.4481e-06
5.39726e-06
5.34814e-06
5.30239e-06
5.26153e-06
5.21553e-06
5.12814e-06
4.97077e-06
8.98615e-06
8.39127e-06
7.8446e-06
7.34053e-06
6.88089e-06
6.46378e-06
6.08581e-06
5.7433e-06
5.43235e-06
5.14907e-06
4.88989e-06
4.65169e-06
4.43169e-06
4.22751e-06
4.03705e-06
3.85858e-06
3.69072e-06
3.53247e-06
3.38323e-06
3.24111e-06
3.11356e-06
3.12706e-06
3.12489e-06
3.11188e-06
3.09245e-06
7.29188e-07
7.25521e-07
7.2368e-07
7.23259e-07
7.23657e-07
7.24336e-07
7.24885e-07
7.25036e-07
7.24639e-07
7.23639e-07
7.2205e-07
7.19933e-07
7.17386e-07
7.14511e-07
7.11416e-07
7.08218e-07
7.05011e-07
7.01845e-07
6.98723e-07
6.95512e-07
6.9221e-07
6.89886e-07
6.92404e-07
7.06002e-07
7.18403e-07
8.99288e-06
8.41014e-06
7.866e-06
7.36088e-06
6.89378e-06
6.46314e-06
6.06721e-06
5.70379e-06
5.37033e-06
5.06407e-06
4.78224e-06
4.52218e-06
4.28143e-06
4.05775e-06
3.84918e-06
3.654e-06
3.47082e-06
3.29847e-06
3.13584e-06
7.21268e-07
7.20019e-07
7.17307e-07
7.13517e-07
7.09016e-07
7.04066e-07
6.9886e-07
6.93545e-07
6.8832e-07
6.83264e-07
6.78396e-07
6.73687e-07
6.69086e-07
6.64532e-07
6.59971e-07
6.55368e-07
6.50704e-07
6.45989e-07
6.4125e-07
6.36548e-07
6.31947e-07
6.27495e-07
6.23247e-07
6.19276e-07
6.15609e-07
6.11987e-07
6.07474e-07
6.00475e-07
5.90498e-07
5.81926e-07
5.86498e-07
8.98788e-06
8.41202e-06
7.87609e-06
7.37837e-06
6.91767e-06
6.49178e-06
6.09857e-06
5.73594e-06
5.40169e-06
5.09349e-06
4.80897e-06
4.54581e-06
4.30177e-06
4.0748e-06
3.86303e-06
3.66488e-06
3.47896e-06
3.30412e-06
3.13918e-06
7.21323e-07
7.19911e-07
7.16895e-07
7.12811e-07
7.08021e-07
7.02776e-07
6.9725e-07
6.9157e-07
6.8583e-07
6.8009e-07
6.74384e-07
6.68721e-07
6.63093e-07
6.57481e-07
6.51866e-07
6.46236e-07
6.40595e-07
6.34965e-07
6.2938e-07
6.23884e-07
6.18517e-07
6.13304e-07
6.08254e-07
6.03418e-07
5.99028e-07
5.95575e-07
5.93455e-07
5.91828e-07
5.87522e-07
5.7788e-07
5.72624e-07
8.98468e-06
8.40633e-06
7.86992e-06
7.37194e-06
6.91131e-06
6.48582e-06
6.0932e-06
5.73114e-06
5.39731e-06
5.08937e-06
4.80497e-06
4.54181e-06
4.29772e-06
4.07069e-06
3.85892e-06
3.66083e-06
3.47505e-06
3.30046e-06
3.13584e-06
7.20861e-07
7.19461e-07
7.16443e-07
7.12352e-07
7.07557e-07
7.0231e-07
6.96783e-07
6.91099e-07
6.85346e-07
6.79581e-07
6.73836e-07
6.68121e-07
6.6243e-07
6.5675e-07
6.51065e-07
6.45367e-07
6.39659e-07
6.33958e-07
6.28298e-07
6.22724e-07
6.17288e-07
6.12028e-07
6.06918e-07
6.01808e-07
5.96494e-07
5.91065e-07
5.86368e-07
5.83641e-07
5.82179e-07
5.77275e-07
5.72223e-07
8.98484e-06
8.40501e-06
7.86831e-06
7.37061e-06
6.91059e-06
6.48595e-06
6.09429e-06
5.73317e-06
5.40012e-06
5.09274e-06
4.80865e-06
4.54562e-06
4.3015e-06
4.07436e-06
3.86244e-06
3.66422e-06
3.47836e-06
3.30373e-06
3.1395e-06
7.21412e-07
7.19557e-07
7.16061e-07
7.11562e-07
7.06468e-07
7.01034e-07
6.95419e-07
6.89723e-07
6.84011e-07
6.78323e-07
6.72676e-07
6.67073e-07
6.61502e-07
6.55945e-07
6.50388e-07
6.44819e-07
6.39241e-07
6.33665e-07
6.28116e-07
6.2263e-07
6.17253e-07
6.1207e-07
6.07188e-07
6.02642e-07
5.98204e-07
5.93361e-07
5.87913e-07
5.82956e-07
5.7997e-07
5.76315e-07
5.72037e-07
8.98588e-06
8.40611e-06
7.86936e-06
7.37168e-06
6.9116e-06
6.4868e-06
6.09486e-06
5.73336e-06
5.39984e-06
5.0919e-06
4.80722e-06
4.54356e-06
4.29887e-06
4.07123e-06
3.85895e-06
3.6605e-06
3.47457e-06
3.30002e-06
3.13677e-06
3.09898e-06
7.27563e-07
7.21207e-07
7.14831e-07
7.08505e-07
7.02259e-07
6.96108e-07
6.90057e-07
6.84109e-07
6.78267e-07
6.72524e-07
6.6687e-07
6.61289e-07
6.55757e-07
6.50253e-07
6.44764e-07
6.39288e-07
6.33832e-07
6.28415e-07
6.23052e-07
6.17747e-07
6.12506e-07
6.07399e-07
6.02606e-07
5.9829e-07
5.94232e-07
5.89726e-07
5.84646e-07
5.80495e-07
5.76637e-07
5.72592e-07
8.98635e-06
8.40729e-06
7.87103e-06
7.37384e-06
6.9142e-06
6.48969e-06
6.09786e-06
5.73628e-06
5.40251e-06
5.09418e-06
4.809e-06
4.5448e-06
4.29957e-06
4.07146e-06
3.85881e-06
3.66012e-06
3.4741e-06
3.29958e-06
3.13648e-06
3.10003e-06
7.27816e-07
7.21489e-07
7.15114e-07
7.08774e-07
7.02502e-07
6.96313e-07
6.90213e-07
6.84208e-07
6.78303e-07
6.72501e-07
6.66795e-07
6.61177e-07
6.55627e-07
6.50128e-07
6.44662e-07
6.39226e-07
6.33822e-07
6.28472e-07
6.23206e-07
6.18047e-07
6.12966e-07
6.07903e-07
6.0288e-07
5.98118e-07
5.93844e-07
5.89762e-07
5.85199e-07
5.80798e-07
5.76686e-07
5.72646e-07
8.98629e-06
8.4077e-06
7.87196e-06
7.37531e-06
6.91614e-06
6.49195e-06
6.10024e-06
5.73852e-06
5.40437e-06
5.09549e-06
4.80963e-06
4.54471e-06
4.29877e-06
4.07004e-06
3.85688e-06
3.65785e-06
3.47164e-06
3.2971e-06
3.13412e-06
3.09791e-06
7.27533e-07
7.21261e-07
7.14937e-07
7.08637e-07
7.02389e-07
6.96207e-07
6.901e-07
6.8408e-07
6.78158e-07
6.72344e-07
6.66641e-07
6.61043e-07
6.55539e-07
6.50109e-07
6.44735e-07
6.39401e-07
6.34098e-07
6.28824e-07
6.23603e-07
6.18485e-07
6.13503e-07
6.08617e-07
6.03726e-07
5.98825e-07
5.94167e-07
5.89902e-07
5.85553e-07
5.8118e-07
5.76943e-07
5.72832e-07
8.98616e-06
8.40775e-06
7.87241e-06
7.37624e-06
6.91754e-06
6.49372e-06
6.10221e-06
5.74048e-06
5.40612e-06
5.09684e-06
4.81047e-06
4.54497e-06
4.29846e-06
4.06923e-06
3.85568e-06
3.6564e-06
3.4701e-06
3.2956e-06
3.13275e-06
3.09666e-06
7.27376e-07
7.2115e-07
7.14862e-07
7.08572e-07
7.02311e-07
6.96093e-07
6.89937e-07
6.8386e-07
6.77886e-07
6.72033e-07
6.66313e-07
6.60724e-07
6.55259e-07
6.49899e-07
6.44623e-07
6.3941e-07
6.34244e-07
6.29105e-07
6.2398e-07
6.18888e-07
6.13886e-07
6.09018e-07
6.04246e-07
5.99448e-07
5.94675e-07
5.90169e-07
5.85787e-07
5.81441e-07
5.77179e-07
5.73033e-07
8.98617e-06
8.40786e-06
7.87284e-06
7.37709e-06
6.91882e-06
6.49534e-06
6.104e-06
5.74225e-06
5.40767e-06
5.09801e-06
4.81113e-06
4.54508e-06
4.29802e-06
4.0683e-06
3.85438e-06
3.65486e-06
3.46846e-06
3.29399e-06
3.13076e-06
3.09548e-06
7.27438e-07
7.2145e-07
7.15308e-07
7.0905e-07
7.02719e-07
6.96361e-07
6.90024e-07
6.83756e-07
6.77604e-07
6.71604e-07
6.65779e-07
6.60135e-07
6.54663e-07
6.49342e-07
6.44144e-07
6.39036e-07
6.33995e-07
6.29002e-07
6.24028e-07
6.19055e-07
6.14089e-07
6.09194e-07
6.04419e-07
5.997e-07
5.94971e-07
5.90368e-07
5.85912e-07
5.81558e-07
5.77305e-07
5.73169e-07
8.98626e-06
8.40812e-06
7.8734e-06
7.37806e-06
6.92018e-06
6.49702e-06
6.10583e-06
5.74404e-06
5.40925e-06
5.0992e-06
4.81182e-06
4.54521e-06
4.29761e-06
4.06741e-06
3.85312e-06
3.65336e-06
3.46684e-06
3.29238e-06
3.12922e-06
3.09409e-06
7.27251e-07
7.21294e-07
7.15166e-07
7.08898e-07
7.02525e-07
6.96095e-07
6.89661e-07
6.83282e-07
6.77015e-07
6.70908e-07
6.64999e-07
6.59303e-07
6.53818e-07
6.48524e-07
6.43389e-07
6.3837e-07
6.3343e-07
6.28545e-07
6.23695e-07
6.18854e-07
6.13996e-07
6.09138e-07
6.04345e-07
5.9964e-07
5.94964e-07
5.9036e-07
5.85877e-07
5.81522e-07
5.77294e-07
5.73197e-07
8.98635e-06
8.40841e-06
7.87401e-06
7.37906e-06
6.92157e-06
6.49871e-06
6.1077e-06
5.74593e-06
5.41099e-06
5.10066e-06
4.81291e-06
4.54588e-06
4.29787e-06
4.06733e-06
3.85278e-06
3.65286e-06
3.4663e-06
3.29187e-06
3.12879e-06
3.09367e-06
7.27185e-07
7.21223e-07
7.1508e-07
7.08782e-07
7.02366e-07
6.95878e-07
6.89379e-07
6.82934e-07
6.76612e-07
6.70468e-07
6.64547e-07
6.58873e-07
6.53444e-07
6.4824e-07
6.43223e-07
6.38341e-07
6.33539e-07
6.28775e-07
6.24026e-07
6.19274e-07
6.14496e-07
6.0968e-07
6.0486e-07
6.00095e-07
5.95379e-07
5.90729e-07
5.86184e-07
5.81774e-07
5.77516e-07
5.73411e-07
8.98642e-06
8.40865e-06
7.8745e-06
7.37984e-06
6.92262e-06
6.49994e-06
6.10895e-06
5.74704e-06
5.41179e-06
5.10102e-06
4.81275e-06
4.54517e-06
4.29666e-06
4.06568e-06
3.85079e-06
3.65065e-06
3.46396e-06
3.28949e-06
3.12644e-06
3.09144e-06
7.26847e-07
7.2089e-07
7.1474e-07
7.08422e-07
7.01974e-07
6.95446e-07
6.88903e-07
6.82421e-07
6.76073e-07
6.69925e-07
6.64024e-07
6.58397e-07
6.53045e-07
6.4794e-07
6.43039e-07
6.38285e-07
6.33612e-07
6.28961e-07
6.24286e-07
6.19575e-07
6.14818e-07
6.10005e-07
6.05146e-07
6.00299e-07
5.95498e-07
5.90771e-07
5.86153e-07
5.8168e-07
5.77381e-07
5.73264e-07
8.98647e-06
8.40883e-06
7.87488e-06
7.38052e-06
6.92367e-06
6.50136e-06
6.11069e-06
5.74899e-06
5.41383e-06
5.10304e-06
4.81465e-06
4.54691e-06
4.29822e-06
4.06706e-06
3.85203e-06
3.65179e-06
3.46502e-06
3.2905e-06
3.12739e-06
3.09213e-06
7.26914e-07
7.2091e-07
7.14706e-07
7.08326e-07
7.01809e-07
6.95212e-07
6.88604e-07
6.82067e-07
6.75682e-07
6.69519e-07
6.63628e-07
6.58038e-07
6.52747e-07
6.47722e-07
6.42911e-07
6.38249e-07
6.33668e-07
6.29096e-07
6.24477e-07
6.19782e-07
6.15009e-07
6.10164e-07
6.05258e-07
6.00334e-07
5.95447e-07
5.90644e-07
5.85966e-07
5.81456e-07
5.77146e-07
5.73049e-07
8.98651e-06
8.40874e-06
7.87448e-06
7.3797e-06
6.92236e-06
6.4995e-06
6.10823e-06
5.7459e-06
5.41012e-06
5.09872e-06
4.80979e-06
4.54159e-06
4.29254e-06
4.06114e-06
3.84598e-06
3.64571e-06
3.459e-06
3.28459e-06
3.12162e-06
7.31832e-07
7.26071e-07
7.20083e-07
7.13884e-07
7.07501e-07
7.00975e-07
6.94368e-07
6.87755e-07
6.81222e-07
6.74855e-07
6.68729e-07
6.62896e-07
6.57384e-07
6.52189e-07
6.47277e-07
6.42585e-07
6.3804e-07
6.33569e-07
6.29098e-07
6.24567e-07
6.19937e-07
6.15201e-07
6.10377e-07
6.05489e-07
6.00581e-07
5.95711e-07
5.90938e-07
5.8632e-07
5.81903e-07
5.77728e-07
5.73814e-07
8.98656e-06
8.40883e-06
7.87498e-06
7.38099e-06
6.92457e-06
6.50257e-06
6.112e-06
5.75015e-06
5.41462e-06
5.10328e-06
4.81425e-06
4.54585e-06
4.29651e-06
4.06478e-06
3.84928e-06
3.64865e-06
3.46158e-06
3.2868e-06
3.12344e-06
7.32055e-07
7.26229e-07
7.20174e-07
7.13917e-07
7.07485e-07
7.00925e-07
6.94302e-07
6.87698e-07
6.81201e-07
6.74899e-07
6.68867e-07
6.6316e-07
6.578e-07
6.5278e-07
6.48062e-07
6.4358e-07
6.39254e-07
6.35002e-07
6.30752e-07
6.26446e-07
6.22048e-07
6.17545e-07
6.1296e-07
6.08333e-07
6.03717e-07
5.99176e-07
5.94781e-07
5.90599e-07
5.86692e-07
5.8311e-07
5.79894e-07
8.98658e-06
8.40491e-06
7.86686e-06
7.36926e-06
6.91002e-06
6.48607e-06
6.09435e-06
5.73201e-06
5.39653e-06
5.08567e-06
4.79745e-06
4.53013e-06
4.28207e-06
4.0518e-06
3.83786e-06
3.63887e-06
3.4535e-06
3.28045e-06
3.11887e-06
7.31661e-07
7.26091e-07
7.2017e-07
7.14338e-07
7.08461e-07
7.0258e-07
6.96715e-07
6.90931e-07
6.85308e-07
6.79926e-07
6.74852e-07
6.70133e-07
6.65779e-07
6.61772e-07
6.58067e-07
6.5459e-07
6.51258e-07
6.4798e-07
6.44685e-07
6.41319e-07
6.37856e-07
6.34297e-07
6.30673e-07
6.27041e-07
6.23473e-07
6.20049e-07
6.16855e-07
6.13975e-07
6.11493e-07
6.09488e-07
6.08047e-07
8.98834e-06
8.41162e-06
7.88137e-06
7.39224e-06
6.94494e-06
6.53506e-06
6.15859e-06
5.81214e-06
5.49281e-06
5.19812e-06
4.92592e-06
4.67431e-06
4.44162e-06
4.22628e-06
4.02685e-06
3.84191e-06
3.67016e-06
3.51039e-06
3.36153e-06
3.22213e-06
3.18443e-06
3.14038e-06
3.13728e-06
3.13876e-06
3.1399e-06
3.13883e-06
3.13531e-06
3.12988e-06
3.12328e-06
3.11619e-06
3.10916e-06
3.10246e-06
3.09609e-06
3.08985e-06
7.31312e-07
7.30179e-07
7.28863e-07
7.27311e-07
7.25499e-07
7.23433e-07
7.21145e-07
7.18708e-07
7.16218e-07
7.13782e-07
7.11515e-07
7.09527e-07
7.07925e-07
7.06818e-07
7.06336e-07
7.06679e-07
9.33842e-06
9.22673e-06
9.11665e-06
9.00894e-06
8.9003e-06
8.79092e-06
8.68096e-06
8.57065e-06
8.46035e-06
8.35046e-06
8.24136e-06
8.13341e-06
8.02691e-06
7.92202e-06
7.81879e-06
7.71717e-06
7.61699e-06
7.51803e-06
7.42005e-06
7.32288e-06
7.22462e-06
7.11722e-06
6.98373e-06
6.85954e-06
6.74364e-06
6.63526e-06
6.53393e-06
6.43938e-06
6.35134e-06
6.26943e-06
6.19311e-06
6.12159e-06
6.054e-06
5.98932e-06
5.92654e-06
5.86478e-06
5.80333e-06
5.74165e-06
5.67951e-06
5.61686e-06
5.55389e-06
5.49093e-06
5.4284e-06
5.36672e-06
5.30623e-06
5.24718e-06
5.18954e-06
5.13305e-06
5.07718e-06
5.02176e-06
4.84482e-06
3.93173e-07
2.46037e-07
1.98197e-07
1.80866e-07
1.73949e-07
1.79287e-07
2.16779e-07
3.31217e-07
5.88844e-07
5.21435e-06
1.04017e-05
1.80989e-05
2.67147e-05
3.48953e-05
4.27965e-05
5.14829e-05
6.2345e-05
8.07236e-05
0.00013273
4.88036e-06
3.98017e-07
2.49391e-07
2.00181e-07
1.82164e-07
1.73683e-07
1.7314e-07
1.9317e-07
2.67596e-07
4.55887e-07
3.64776e-06
7.71483e-06
1.40857e-05
2.19291e-05
3.01348e-05
3.85136e-05
4.81529e-05
6.00135e-05
7.83147e-05
0.000123959
4.81132e-06
4.03811e-07
2.53245e-07
2.0254e-07
1.83888e-07
1.74511e-07
1.70349e-07
1.78221e-07
2.21336e-07
3.48648e-07
6.26842e-07
5.57733e-06
1.04824e-05
1.72351e-05
2.51257e-05
3.33582e-05
4.29544e-05
5.47719e-05
7.23854e-05
0.000113817
4.86879e-06
4.10215e-07
2.56824e-07
2.04706e-07
1.85568e-07
1.75774e-07
1.69668e-07
1.69892e-07
1.90387e-07
2.66409e-07
4.58961e-07
3.66071e-06
7.40245e-06
1.28594e-05
1.9789e-05
2.73982e-05
3.66673e-05
4.81327e-05
6.47698e-05
0.000102503
4.90458e-06
4.16352e-07
2.60298e-07
2.06865e-07
1.87289e-07
1.77322e-07
1.70371e-07
1.66442e-07
1.7263e-07
2.11112e-07
3.29918e-07
5.92592e-07
4.97944e-06
8.81986e-06
1.43557e-05
2.12966e-05
2.98668e-05
4.06531e-05
5.61043e-05
9.03181e-05
4.93156e-06
4.22207e-07
2.63652e-07
2.09004e-07
1.89014e-07
1.78978e-07
1.71785e-07
1.65991e-07
1.64317e-07
1.78485e-07
2.39837e-07
4.05192e-07
7.13637e-07
5.66446e-06
9.66682e-06
1.52182e-05
2.29428e-05
3.27826e-05
4.69103e-05
7.76259e-05
4.95652e-06
4.277e-07
2.66846e-07
2.1111e-07
1.90727e-07
1.80651e-07
1.73486e-07
1.67112e-07
1.61893e-07
1.62791e-07
1.86814e-07
2.74982e-07
4.82724e-07
3.46851e-06
6.21496e-06
1.01629e-05
1.62907e-05
2.50439e-05
3.7592e-05
6.44048e-05
4.9814e-06
4.32792e-07
2.69856e-07
2.13173e-07
1.92431e-07
1.82309e-07
1.75255e-07
1.68885e-07
1.62504e-07
1.57385e-07
1.60494e-07
1.94321e-07
3.07245e-07
5.27425e-07
3.9336e-06
6.51236e-06
1.08857e-05
1.78449e-05
2.87263e-05
5.03553e-05
5.00606e-06
4.37496e-07
2.72677e-07
2.15193e-07
1.94132e-07
1.83949e-07
1.77003e-07
1.70829e-07
1.64383e-07
1.57364e-07
1.51196e-07
1.53131e-07
1.85785e-07
2.81563e-07
4.26967e-07
4.05745e-06
7.11302e-06
1.21905e-05
2.04328e-05
3.73916e-05
5.03019e-06
4.41848e-07
2.75319e-07
2.17169e-07
1.95829e-07
1.85576e-07
1.78706e-07
1.72745e-07
1.66593e-07
1.5956e-07
1.51269e-07
1.42326e-07
1.37045e-07
1.48575e-07
1.77211e-07
5.97189e-07
4.68581e-06
8.22356e-06
1.40486e-05
2.66008e-05
5.05379e-06
4.4588e-07
2.77784e-07
2.19092e-07
1.97513e-07
1.87185e-07
1.80356e-07
1.7456e-07
1.68716e-07
1.62123e-07
1.54198e-07
1.44482e-07
1.33456e-07
1.27355e-07
1.52455e-07
4.32007e-07
6.99162e-07
5.59282e-06
9.63257e-06
1.84167e-05
5.0768e-06
4.49609e-07
2.80077e-07
2.20951e-07
1.99175e-07
1.88777e-07
1.81963e-07
1.76284e-07
1.70672e-07
1.64465e-07
1.5709e-07
1.47937e-07
1.36452e-07
1.24251e-07
1.50651e-07
3.18855e-07
5.13771e-07
3.65706e-06
6.6458e-06
1.27175e-05
5.09912e-06
4.53043e-07
2.82202e-07
2.22744e-07
2.00809e-07
1.90344e-07
1.83534e-07
1.77936e-07
1.72492e-07
1.66581e-07
1.59658e-07
1.51135e-07
1.40249e-07
1.25815e-07
1.25243e-07
2.25611e-07
3.86901e-07
6.17724e-07
4.52267e-06
8.8211e-06
5.12051e-06
4.56193e-07
2.84166e-07
2.24474e-07
2.02424e-07
1.91905e-07
1.85094e-07
1.79549e-07
1.74229e-07
1.68542e-07
1.61966e-07
1.53986e-07
1.44027e-07
1.30339e-07
1.09626e-07
1.41538e-07
2.9881e-07
4.72089e-07
3.08958e-06
6.18821e-06
5.14058e-06
4.59098e-07
2.86002e-07
2.26158e-07
2.04026e-07
1.9347e-07
1.86662e-07
1.81152e-07
1.75919e-07
1.70393e-07
1.64069e-07
1.56488e-07
1.47301e-07
1.34804e-07
1.16989e-07
1.08847e-07
2.36984e-07
3.69077e-07
5.76158e-07
4.41287e-06
5.15839e-06
4.61765e-07
2.87731e-07
2.27815e-07
2.05627e-07
1.95047e-07
1.88242e-07
1.82757e-07
1.77591e-07
1.72171e-07
1.66014e-07
1.58675e-07
1.49977e-07
1.38931e-07
1.24013e-07
1.08103e-07
1.95779e-07
2.97963e-07
4.61022e-07
3.19092e-06
5.17262e-06
4.64173e-07
2.89339e-07
2.29432e-07
2.07216e-07
1.96623e-07
1.89818e-07
1.84346e-07
1.7922e-07
1.73867e-07
1.67803e-07
1.60598e-07
1.52364e-07
1.42626e-07
1.29602e-07
1.12793e-07
1.69516e-07
2.47714e-07
3.73558e-07
6.05797e-07
5.18063e-06
4.6622e-07
2.90767e-07
2.30964e-07
2.08757e-07
1.98159e-07
1.91351e-07
1.85885e-07
1.80769e-07
1.75439e-07
1.69414e-07
1.62382e-07
1.54385e-07
1.45353e-07
1.3383e-07
1.17697e-07
1.52562e-07
2.10905e-07
3.06257e-07
4.9292e-07
5.178e-06
4.67702e-07
2.91917e-07
2.32353e-07
2.10199e-07
1.99606e-07
1.92793e-07
1.87334e-07
1.8223e-07
1.76875e-07
1.70797e-07
1.63731e-07
1.55826e-07
1.47324e-07
1.37195e-07
1.22445e-07
1.41654e-07
1.83586e-07
2.5464e-07
4.02984e-07
5.15975e-06
4.68424e-07
2.92695e-07
2.33577e-07
2.11508e-07
2.00928e-07
1.94108e-07
1.88636e-07
1.83499e-07
1.78069e-07
1.7186e-07
1.64637e-07
1.56678e-07
1.48561e-07
1.39806e-07
1.27036e-07
1.35062e-07
1.63657e-07
2.15648e-07
3.31503e-07
5.13794e-06
4.67321e-07
2.92624e-07
2.34311e-07
2.12534e-07
2.0205e-07
1.95251e-07
1.8976e-07
1.84564e-07
1.79001e-07
1.7256e-07
1.65032e-07
1.56846e-07
1.4895e-07
1.41449e-07
1.30908e-07
1.31566e-07
1.49604e-07
1.86729e-07
2.75329e-07
5.1125e-06
4.64268e-07
2.91587e-07
2.34569e-07
2.13298e-07
2.02992e-07
1.96235e-07
1.90717e-07
1.85418e-07
1.79642e-07
1.72832e-07
1.64803e-07
1.56174e-07
1.48319e-07
1.41911e-07
1.33427e-07
1.29952e-07
1.40033e-07
1.65675e-07
2.31941e-07
5.08152e-06
4.59376e-07
2.89687e-07
2.34427e-07
2.1385e-07
2.03789e-07
1.97085e-07
1.91519e-07
1.86058e-07
1.79957e-07
1.72594e-07
1.63809e-07
1.54461e-07
1.46455e-07
1.41024e-07
1.34312e-07
1.29103e-07
1.33686e-07
1.50586e-07
1.98999e-07
5.04374e-06
4.52836e-07
2.8708e-07
2.33975e-07
2.14245e-07
2.04475e-07
1.97823e-07
1.9217e-07
1.86472e-07
1.79904e-07
1.7176e-07
1.61907e-07
1.51507e-07
1.43164e-07
1.38642e-07
1.33544e-07
1.28202e-07
1.29446e-07
1.39951e-07
1.74369e-07
4.99855e-06
4.44864e-07
2.83934e-07
2.33303e-07
2.14529e-07
2.05072e-07
1.98454e-07
1.92667e-07
1.8664e-07
1.79439e-07
1.70246e-07
1.5896e-07
1.47131e-07
1.38326e-07
1.34265e-07
1.31012e-07
1.26646e-07
1.26293e-07
1.32511e-07
1.56217e-07
4.94576e-06
4.35687e-07
2.80406e-07
2.32483e-07
2.14728e-07
2.05586e-07
1.98975e-07
1.93004e-07
1.86549e-07
1.78535e-07
1.67993e-07
1.54864e-07
1.41201e-07
1.31954e-07
1.28492e-07
1.27076e-07
1.24181e-07
1.23401e-07
1.27117e-07
1.42992e-07
4.88511e-06
4.25545e-07
2.76642e-07
2.3157e-07
2.14858e-07
2.06016e-07
1.99384e-07
1.93181e-07
1.86202e-07
1.77193e-07
1.64993e-07
1.49604e-07
1.33699e-07
1.24279e-07
1.21745e-07
1.22407e-07
1.21254e-07
1.20458e-07
1.22717e-07
1.33166e-07
4.81606e-06
4.14741e-07
2.72802e-07
2.30625e-07
2.14937e-07
2.06372e-07
1.99695e-07
1.93218e-07
1.85622e-07
1.75447e-07
1.61303e-07
1.43288e-07
1.24812e-07
1.15868e-07
1.14888e-07
1.18183e-07
1.18972e-07
1.18146e-07
1.19082e-07
1.25633e-07
4.73786e-06
4.03652e-07
2.69077e-07
2.29724e-07
2.15e-07
2.0668e-07
1.99943e-07
1.93153e-07
1.84857e-07
1.73368e-07
1.57058e-07
1.36209e-07
1.15052e-07
1.0738e-07
1.07785e-07
1.12006e-07
1.14537e-07
1.15879e-07
1.15758e-07
1.19647e-07
4.65012e-06
3.92747e-07
2.65674e-07
2.28959e-07
2.15099e-07
2.06988e-07
2.0017e-07
1.93032e-07
1.83965e-07
1.71066e-07
1.52504e-07
1.28901e-07
1.05441e-07
9.97165e-08
1.01919e-07
1.05223e-07
1.09484e-07
1.13221e-07
1.12559e-07
1.14786e-07
4.55274e-06
3.82547e-07