/*--------------------------------*- C++ -*----------------------------------*\
  =========                 |
  \\      /  F ield         | OpenFOAM: The Open Source CFD Toolbox
   \\    /   O peration     | Website:  https://openfoam.org
    \\  /    A nd           | Version:  8
     \\/     M anipulation  |
\*---------------------------------------------------------------------------*/
FoamFile
{
    version     2.0;
    format      ascii;
    class       volScalarField;
    location    "1000";
    object      nut;
}
// * * * * * * * * * * * * * * * * * * * * * * * * * * * * * * * * * * * * * //

dimensions      [0 2 -1 0 0 0 0];

internalField   nonuniform List<scalar> 
8400
(
7.94503e-05
7.95852e-05
7.98182e-05
7.99246e-05
7.99426e-05
7.99605e-05
8.00384e-05
8.01984e-05
8.04798e-05
8.09784e-05
8.18426e-05
8.32804e-05
8.55521e-05
8.88212e-05
9.29476e-05
9.72275e-05
9.98853e-05
9.94328e-05
9.58907e-05
9.06903e-05
8.64893e-05
8.32117e-05
8.04382e-05
7.83131e-05
7.77762e-05
7.79435e-05
7.77047e-05
7.70218e-05
7.66743e-05
7.71737e-05
7.83501e-05
7.95523e-05
8.06902e-05
8.1856e-05
8.29305e-05
8.38804e-05
8.46664e-05
8.52708e-05
8.56865e-05
8.59098e-05
8.59461e-05
8.58134e-05
8.55252e-05
8.5107e-05
8.45809e-05
8.39704e-05
8.33009e-05
8.26022e-05
8.18936e-05
8.11921e-05
5.77162e-05
5.71851e-05
5.66765e-05
5.62317e-05
5.57213e-05
5.51164e-05
5.43618e-05
5.34849e-05
5.24774e-05
5.12605e-05
4.98088e-05
4.81452e-05
4.63279e-05
4.45818e-05
4.32957e-05
4.25898e-05
4.27623e-05
4.32563e-05
4.31118e-05
4.24839e-05
3.97237e-05
3.67986e-05
3.55646e-05
3.6286e-05
3.69049e-05
3.74041e-05
3.7574e-05
3.75437e-05
3.75281e-05
3.75619e-05
3.76112e-05
3.76336e-05
3.76575e-05
3.7714e-05
3.7788e-05
3.78851e-05
3.80039e-05
3.81464e-05
3.83153e-05
3.85082e-05
3.87248e-05
3.89617e-05
3.92128e-05
3.94695e-05
3.972e-05
3.99475e-05
4.01452e-05
4.03039e-05
4.04243e-05
4.0522e-05
6.12023e-05
6.06793e-05
6.00746e-05
5.93967e-05
5.87258e-05
5.74737e-05
5.35406e-05
5.23079e-05
5.31355e-05
5.2127e-05
4.95328e-05
4.62894e-05
4.2051e-05
3.71884e-05
3.71571e-05
3.46123e-05
3.39756e-05
3.48868e-05
3.605e-05
3.70596e-05
3.73937e-05
3.78037e-05
3.90225e-05
4.05133e-05
3.87111e-05
3.82344e-05
3.87311e-05
3.92212e-05
3.92945e-05
3.87508e-05
3.81641e-05
3.78665e-05
3.76457e-05
3.74866e-05
3.74462e-05
3.74847e-05
3.75885e-05
3.77371e-05
3.7911e-05
3.80979e-05
3.82863e-05
3.84706e-05
3.86479e-05
3.88138e-05
3.89676e-05
3.91112e-05
3.92466e-05
3.93749e-05
3.95002e-05
3.96247e-05
6.14526e-05
6.13992e-05
6.1337e-05
6.12459e-05
6.1114e-05
6.09476e-05
6.08269e-05
6.08379e-05
6.0872e-05
6.08839e-05
6.08817e-05
6.08367e-05
6.07331e-05
6.05183e-05
6.02044e-05
5.96872e-05
5.91056e-05
5.83965e-05
5.72863e-05
5.60202e-05
5.50054e-05
5.47515e-05
5.7074e-05
3.3695e-05
3.23757e-05
3.96964e-05
4.29521e-05
4.44726e-05
4.41712e-05
4.136e-05
4.06659e-05
3.99131e-05
3.91674e-05
3.85285e-05
3.80803e-05
3.77432e-05
3.75427e-05
3.74327e-05
3.73982e-05
3.74117e-05
3.74544e-05
3.75187e-05
3.75933e-05
3.767e-05
3.77464e-05
3.78202e-05
3.78917e-05
3.79608e-05
3.80297e-05
3.80988e-05
6.14797e-05
6.14585e-05
6.14363e-05
6.14142e-05
6.13928e-05
6.13728e-05
6.13524e-05
6.1332e-05
6.13106e-05
6.12885e-05
6.12636e-05
6.12326e-05
6.11988e-05
6.11571e-05
6.11061e-05
6.1033e-05
6.09251e-05
6.07637e-05
6.05066e-05
6.01302e-05
5.96504e-05
5.9132e-05
5.87801e-05
5.65876e-05
5.44509e-05
5.38043e-05
5.39593e-05
5.57448e-05
4.11981e-05
4.11105e-05
4.66862e-05
4.34554e-05
4.18016e-05
4.1004e-05
4.00027e-05
3.92413e-05
3.86771e-05
3.82252e-05
3.78817e-05
3.76263e-05
3.74431e-05
3.73202e-05
3.72488e-05
3.72147e-05
3.72124e-05
3.72337e-05
3.72715e-05
3.7319e-05
3.73652e-05
3.7405e-05
6.14721e-05
6.14434e-05
6.14146e-05
6.1386e-05
6.13577e-05
6.13285e-05
6.12995e-05
6.12698e-05
6.12402e-05
6.12114e-05
6.11836e-05
6.1156e-05
6.11297e-05
6.11037e-05
6.10762e-05
6.10456e-05
6.10081e-05
6.09558e-05
6.08763e-05
6.0753e-05
6.0569e-05
6.03169e-05
6.00185e-05
5.93965e-05
5.85572e-05
5.77875e-05
5.71228e-05
5.67229e-05
5.4125e-05
5.50186e-05
5.55048e-05
4.02888e-05
4.53773e-05
4.52785e-05
4.29126e-05
4.19953e-05
4.11769e-05
4.05907e-05
4.0142e-05
3.97909e-05
3.94986e-05
3.92666e-05
3.90972e-05
3.89909e-05
3.89438e-05
3.89479e-05
3.90019e-05
3.90835e-05
3.91704e-05
3.92444e-05
6.14698e-05
6.14383e-05
6.14066e-05
6.13739e-05
6.1342e-05
6.13098e-05
6.12774e-05
6.12444e-05
6.12115e-05
6.11788e-05
6.11457e-05
6.11132e-05
6.10803e-05
6.10491e-05
6.10184e-05
6.09883e-05
6.09594e-05
6.09285e-05
6.08912e-05
6.08391e-05
6.07618e-05
6.06465e-05
6.04844e-05
6.02186e-05
5.98234e-05
5.93389e-05
5.87929e-05
5.82392e-05
5.72585e-05
5.6812e-05
5.63937e-05
5.3576e-05
5.5492e-05
4.46522e-05
4.65799e-05
4.50991e-05
4.38791e-05
4.3119e-05
4.28362e-05
4.263e-05
4.25116e-05
4.24039e-05
4.2307e-05
4.22369e-05
4.21985e-05
4.21921e-05
4.21964e-05
4.22351e-05
4.23138e-05
4.24096e-05
6.14634e-05
6.14254e-05
6.13872e-05
6.13492e-05
6.13108e-05
6.12726e-05
6.1234e-05
6.11954e-05
6.11557e-05
6.11184e-05
6.10798e-05
6.10429e-05
6.10077e-05
6.09735e-05
6.09411e-05
6.09104e-05
6.0881e-05
6.08526e-05
6.08243e-05
6.07933e-05
6.07539e-05
6.06976e-05
6.06134e-05
6.04804e-05
6.02741e-05
5.99859e-05
5.96156e-05
5.91785e-05
5.8593e-05
5.80426e-05
5.74949e-05
5.64709e-05
5.61756e-05
5.38824e-05
5.46143e-05
4.42788e-05
4.68678e-05
4.45975e-05
4.45984e-05
4.41491e-05
4.41903e-05
4.42547e-05
4.43512e-05
4.44016e-05
4.4421e-05
4.44117e-05
4.43908e-05
4.43381e-05
4.42453e-05
4.41396e-05
6.1455e-05
6.14075e-05
6.13599e-05
6.13132e-05
6.12665e-05
6.12206e-05
6.11736e-05
6.11287e-05
6.10823e-05
6.10372e-05
6.0993e-05
6.09496e-05
6.09092e-05
6.08698e-05
6.08344e-05
6.08021e-05
6.07725e-05
6.0747e-05
6.07237e-05
6.07004e-05
6.06756e-05
6.06445e-05
6.05991e-05
6.05278e-05
6.04142e-05
6.02414e-05
5.99992e-05
5.96849e-05
5.92771e-05
5.88126e-05
5.83077e-05
5.76461e-05
5.70993e-05
5.61356e-05
5.5734e-05
5.45661e-05
5.21102e-05
4.53664e-05
4.67448e-05
4.44457e-05
4.42084e-05
4.38371e-05
4.40161e-05
4.40792e-05
4.40868e-05
4.40509e-05
4.39439e-05
4.37616e-05
4.35614e-05
4.33563e-05
6.14411e-05
6.13777e-05
6.13133e-05
6.12511e-05
6.11901e-05
6.11314e-05
6.10734e-05
6.10163e-05
6.0963e-05
6.091e-05
6.08574e-05
6.08073e-05
6.07619e-05
6.0721e-05
6.06852e-05
6.06526e-05
6.06262e-05
6.06052e-05
6.05864e-05
6.05711e-05
6.05567e-05
6.05404e-05
6.05165e-05
6.04789e-05
6.04145e-05
6.03104e-05
6.0153e-05
5.99329e-05
5.96367e-05
5.92676e-05
5.88377e-05
5.83161e-05
5.77826e-05
5.71107e-05
5.65645e-05
5.58453e-05
5.46885e-05
5.53252e-05
5.26669e-05
4.53517e-05
4.57078e-05
4.25957e-05
4.25304e-05
4.22661e-05
4.1942e-05
4.16619e-05
4.14439e-05
4.1201e-05
4.09392e-05
4.07215e-05
6.1412e-05
6.13149e-05
6.12229e-05
6.11333e-05
6.10546e-05
6.09817e-05
6.09171e-05
6.08497e-05
6.07846e-05
6.0732e-05
6.06766e-05
6.06171e-05
6.05631e-05
6.05187e-05
6.04809e-05
6.04497e-05
6.04294e-05
6.04176e-05
6.04114e-05
6.04071e-05
6.04029e-05
6.04007e-05
6.03945e-05
6.03786e-05
6.03459e-05
6.0285e-05
6.01831e-05
6.00296e-05
5.98096e-05
5.95202e-05
5.91635e-05
5.8729e-05
5.82486e-05
5.7691e-05
5.71536e-05
5.65508e-05
5.58542e-05
5.56476e-05
5.49349e-05
5.47465e-05
5.71878e-05
4.29084e-05
4.36646e-05
4.32886e-05
4.1847e-05
4.02402e-05
3.89021e-05
3.81428e-05
3.78225e-05
3.77836e-05
6.13667e-05
6.1211e-05
6.1067e-05
6.09455e-05
6.08638e-05
6.08063e-05
6.07882e-05
6.08063e-05
6.08091e-05
6.07539e-05
6.06072e-05
6.04092e-05
6.02513e-05
6.01638e-05
6.01335e-05
6.01359e-05
6.015e-05
6.01676e-05
6.01873e-05
6.02063e-05
6.02234e-05
6.02376e-05
6.02481e-05
6.02533e-05
6.02408e-05
6.0208e-05
6.01455e-05
6.00376e-05
5.98736e-05
5.96431e-05
5.9346e-05
5.89785e-05
5.85534e-05
5.80668e-05
5.7567e-05
5.70379e-05
5.6503e-05
5.61486e-05
5.5753e-05
5.54384e-05
5.5304e-05
5.4295e-05
5.38875e-05
5.32234e-05
5.21483e-05
5.05292e-05
4.84761e-05
4.61845e-05
4.40806e-05
4.26323e-05
6.13261e-05
6.11835e-05
6.11206e-05
6.1083e-05
6.10004e-05
6.08961e-05
6.07719e-05
6.05828e-05
6.03985e-05
6.01855e-05
5.99944e-05
5.98479e-05
5.97869e-05
5.97785e-05
5.98129e-05
5.9868e-05
5.99099e-05
5.99545e-05
5.99896e-05
6.00177e-05
6.00444e-05
6.00756e-05
6.00976e-05
6.01165e-05
6.01228e-05
6.01105e-05
6.00724e-05
5.99954e-05
5.98684e-05
5.96825e-05
5.94316e-05
5.91138e-05
5.87376e-05
5.83074e-05
5.78535e-05
5.73848e-05
5.69324e-05
5.65748e-05
5.62517e-05
5.59487e-05
5.56444e-05
5.52289e-05
5.47882e-05
5.42247e-05
5.34939e-05
5.25619e-05
5.14172e-05
5.00626e-05
4.85932e-05
4.71777e-05
5.91394e-05
5.90039e-05
5.89332e-05
5.8885e-05
5.88495e-05
5.88336e-05
5.88462e-05
5.888e-05
5.89446e-05
5.9025e-05
5.91158e-05
5.92189e-05
5.93284e-05
5.94265e-05
5.95249e-05
5.96161e-05
5.96897e-05
5.9753e-05
5.97996e-05
5.98455e-05
5.98903e-05
5.99266e-05
5.99615e-05
5.99899e-05
6.00055e-05
6.00118e-05
5.99828e-05
5.99238e-05
5.98192e-05
5.96625e-05
5.94454e-05
5.91659e-05
5.88304e-05
5.84483e-05
5.80413e-05
5.76265e-05
5.72379e-05
5.69127e-05
5.66255e-05
5.63486e-05
5.60524e-05
5.57074e-05
5.53002e-05
5.47997e-05
5.4189e-05
5.34451e-05
5.25533e-05
5.15072e-05
5.03315e-05
4.90904e-05
5.81532e-05
5.81759e-05
5.82072e-05
5.82425e-05
5.82877e-05
5.83465e-05
5.84178e-05
5.85059e-05
5.86071e-05
5.87182e-05
5.88354e-05
5.89557e-05
5.90767e-05
5.91913e-05
5.93003e-05
5.94006e-05
5.94876e-05
5.95649e-05
5.96328e-05
5.96921e-05
5.97462e-05
5.97917e-05
5.98323e-05
5.98673e-05
5.98904e-05
5.99005e-05
5.98863e-05
5.98417e-05
5.97527e-05
5.95823e-05
5.94012e-05
5.91515e-05
5.88496e-05
5.8509e-05
5.81487e-05
5.77886e-05
5.74568e-05
5.71713e-05
5.6916e-05
5.66641e-05
5.639e-05
5.60732e-05
5.56986e-05
5.52524e-05
5.47236e-05
5.40971e-05
5.33606e-05
5.25049e-05
5.15328e-05
5.04672e-05
5.83714e-05
5.84249e-05
5.84749e-05
5.85217e-05
5.85683e-05
5.86167e-05
5.86665e-05
5.87203e-05
5.8778e-05
5.88406e-05
5.89104e-05
5.89847e-05
5.90623e-05
5.91426e-05
5.92226e-05
5.93011e-05
5.93772e-05
5.94488e-05
5.95146e-05
5.95743e-05
5.96288e-05
5.96768e-05
5.97177e-05
5.97515e-05
5.97745e-05
5.97818e-05
5.9768e-05
5.97265e-05
5.96462e-05
5.95045e-05
5.93336e-05
5.90434e-05
5.88018e-05
5.85011e-05
5.81895e-05
5.7884e-05
5.7604e-05
5.73582e-05
5.71335e-05
5.69063e-05
5.66549e-05
5.6363e-05
5.60204e-05
5.56186e-05
5.5148e-05
5.45985e-05
5.39605e-05
5.32272e-05
5.23961e-05
5.14723e-05
5.84421e-05
5.84934e-05
5.85455e-05
5.85983e-05
5.86515e-05
5.8704e-05
5.87578e-05
5.88126e-05
5.88665e-05
5.89213e-05
5.89769e-05
5.90325e-05
5.90897e-05
5.9148e-05
5.92067e-05
5.9266e-05
5.93229e-05
5.93791e-05
5.94323e-05
5.9481e-05
5.95258e-05
5.95646e-05
5.95968e-05
5.96217e-05
5.96347e-05
5.96333e-05
5.96124e-05
5.95664e-05
5.94871e-05
5.93654e-05
5.92126e-05
5.89746e-05
5.86431e-05
5.84284e-05
5.81682e-05
5.79165e-05
5.76871e-05
5.748e-05
5.72823e-05
5.70759e-05
5.68445e-05
5.65759e-05
5.62606e-05
5.58917e-05
5.54618e-05
5.49651e-05
5.43944e-05
5.37434e-05
5.3009e-05
5.21922e-05
5.81545e-05
5.8205e-05
5.826e-05
5.83204e-05
5.83846e-05
5.84522e-05
5.85215e-05
5.85914e-05
5.86613e-05
5.87303e-05
5.87985e-05
5.88657e-05
5.89308e-05
5.89944e-05
5.9055e-05
5.91126e-05
5.91667e-05
5.92182e-05
5.92656e-05
5.93085e-05
5.9346e-05
5.93772e-05
5.94e-05
5.94142e-05
5.94172e-05
5.94057e-05
5.93769e-05
5.93268e-05
5.92511e-05
5.91435e-05
5.9008e-05
5.88197e-05
5.85212e-05
5.82619e-05
5.80745e-05
5.78789e-05
5.76964e-05
5.75246e-05
5.7352e-05
5.71643e-05
5.69502e-05
5.67006e-05
5.64054e-05
5.60599e-05
5.56585e-05
5.51975e-05
5.46719e-05
5.40777e-05
5.34129e-05
5.26787e-05
5.74314e-05
5.74644e-05
5.75049e-05
5.75533e-05
5.7607e-05
5.76661e-05
5.77296e-05
5.78055e-05
5.79043e-05
5.80072e-05
5.81052e-05
5.82006e-05
5.82943e-05
5.8386e-05
5.84754e-05
5.85611e-05
5.86418e-05
5.87171e-05
5.87862e-05
5.88483e-05
5.89023e-05
5.8947e-05
5.89816e-05
5.9005e-05
5.90161e-05
5.90123e-05
5.89916e-05
5.89517e-05
5.88914e-05
5.88076e-05
5.86995e-05
5.85602e-05
5.83645e-05
5.7974e-05
5.78879e-05
5.77457e-05
5.76063e-05
5.74644e-05
5.73132e-05
5.71431e-05
5.6944e-05
5.67093e-05
5.64318e-05
5.61074e-05
5.57326e-05
5.53048e-05
5.48216e-05
5.42818e-05
5.36862e-05
5.30379e-05
8.07963e-05
7.97358e-05
7.86494e-05
7.75453e-05
7.64358e-05
7.53355e-05
7.42572e-05
7.32055e-05
7.21817e-05
7.12045e-05
7.02854e-05
6.94248e-05
6.86207e-05
6.78731e-05
6.71789e-05
6.65337e-05
6.59348e-05
6.53761e-05
6.48531e-05
6.43593e-05
6.38893e-05
6.34378e-05
6.29997e-05
6.25704e-05
6.21453e-05
6.17222e-05
6.12962e-05
6.08634e-05
6.04226e-05
5.99716e-05
5.95071e-05
5.90301e-05
5.85508e-05
5.80184e-05
5.83964e-05
5.87283e-05
5.90879e-05
5.9461e-05
5.98367e-05
6.02086e-05
6.05723e-05
6.09242e-05
6.126e-05
6.15746e-05
6.18623e-05
6.21175e-05
6.2334e-05
6.25049e-05
6.26227e-05
6.26762e-05
5.48223e-06
5.45614e-06
5.43005e-06
5.40776e-06
5.38782e-06
5.36851e-06
5.34888e-06
5.32819e-06
5.30599e-06
5.28226e-06
5.25725e-06
5.23142e-06
5.20526e-06
5.17918e-06
5.15347e-06
5.12828e-06
5.10363e-06
5.07949e-06
5.05576e-06
5.03239e-06
5.0101e-06
4.97567e-06
4.94164e-06
4.9091e-06
4.8782e-06
4.84965e-06
4.82185e-06
4.7974e-06
4.77308e-06
4.74805e-06
4.72244e-06
4.6966e-06
4.67084e-06
4.6453e-06
4.61994e-06
4.59462e-06
4.56919e-06
4.54357e-06
4.51779e-06
4.49202e-06
4.46659e-06
4.44194e-06
4.41852e-06
4.39712e-06
4.3778e-06
4.35894e-06
4.34052e-06
4.32767e-06
4.33444e-06
4.37843e-06
5.41449e-06
5.3005e-06
5.19153e-06
5.08659e-06
4.98448e-06
4.88498e-06
4.7879e-06
4.69368e-06
4.60286e-06
4.51599e-06
4.43337e-06
4.35515e-06
4.28138e-06
4.21195e-06
4.14667e-06
4.08525e-06
4.02726e-06
3.9722e-06
3.91946e-06
3.87006e-06
3.81651e-06
3.70043e-06
3.63798e-06
3.60322e-06
3.5836e-06
1.55584e-05
1.58182e-05
1.59426e-05
1.59911e-05
1.60034e-05
1.60019e-05
1.59967e-05
1.59905e-05
1.59824e-05
1.59701e-05
1.59509e-05
1.59227e-05
1.58846e-05
1.58363e-05
1.57777e-05
1.57093e-05
1.56331e-05
1.55505e-05
1.54627e-05
1.53728e-05
1.52844e-05
1.51869e-05
1.50557e-05
1.48758e-05
1.47857e-05
5.41036e-06
5.28851e-06
5.17547e-06
5.06804e-06
4.96478e-06
4.86464e-06
4.76693e-06
4.6714e-06
4.57819e-06
4.48761e-06
4.40005e-06
4.31578e-06
4.23501e-06
4.1578e-06
4.08413e-06
4.01383e-06
3.94667e-06
3.88236e-06
3.82128e-06
1.62029e-05
1.59293e-05
1.57476e-05
1.56153e-05
1.55061e-05
1.54059e-05
1.53157e-05
1.5226e-05
1.51326e-05
1.50358e-05
1.49372e-05
1.48386e-05
1.47411e-05
1.46452e-05
1.45508e-05
1.4457e-05
1.4363e-05
1.42678e-05
1.41706e-05
1.40712e-05
1.397e-05
1.38679e-05
1.37653e-05
1.36632e-05
1.35628e-05
1.34676e-05
1.33844e-05
1.33182e-05
1.32547e-05
1.31385e-05
1.28659e-05
5.41206e-06
5.28919e-06
5.1755e-06
5.06801e-06
4.96501e-06
4.86552e-06
4.76891e-06
4.6748e-06
4.58306e-06
4.4938e-06
4.4072e-06
4.32351e-06
4.24292e-06
4.16551e-06
4.09131e-06
4.0202e-06
3.95203e-06
3.88657e-06
3.82432e-06
1.62161e-05
1.59321e-05
1.57444e-05
1.56073e-05
1.54934e-05
1.53879e-05
1.52836e-05
1.51771e-05
1.50672e-05
1.49542e-05
1.48388e-05
1.47218e-05
1.46042e-05
1.44863e-05
1.43685e-05
1.42505e-05
1.41321e-05
1.40132e-05
1.38934e-05
1.3773e-05
1.36525e-05
1.35324e-05
1.34136e-05
1.32963e-05
1.31795e-05
1.30617e-05
1.29454e-05
1.28449e-05
1.27844e-05
1.2758e-05
1.26399e-05
5.41316e-06
5.29094e-06
5.1768e-06
5.06873e-06
4.96507e-06
4.86492e-06
4.76775e-06
4.67329e-06
4.58145e-06
4.49226e-06
4.40586e-06
4.32241e-06
4.24205e-06
4.16482e-06
4.09073e-06
4.01967e-06
3.95149e-06
3.88596e-06
3.82362e-06
1.62065e-05
1.59233e-05
1.5736e-05
1.55986e-05
1.54841e-05
1.53778e-05
1.52726e-05
1.5165e-05
1.50542e-05
1.49401e-05
1.48235e-05
1.47052e-05
1.45859e-05
1.44661e-05
1.4346e-05
1.42256e-05
1.41047e-05
1.39833e-05
1.38611e-05
1.37383e-05
1.36151e-05
1.34923e-05
1.33714e-05
1.3254e-05
1.31409e-05
1.30294e-05
1.29111e-05
1.27825e-05
1.26647e-05
1.26012e-05
1.25255e-05
5.41311e-06
5.29165e-06
5.17778e-06
5.06982e-06
4.96622e-06
4.86607e-06
4.76889e-06
4.67443e-06
4.58266e-06
4.49361e-06
4.40741e-06
4.32416e-06
4.24397e-06
4.16687e-06
4.09283e-06
4.02175e-06
3.95347e-06
3.88781e-06
3.82503e-06
1.62138e-05
1.5937e-05
1.57537e-05
1.5614e-05
1.54935e-05
1.53799e-05
1.52674e-05
1.51536e-05
1.50379e-05
1.49204e-05
1.48016e-05
1.46823e-05
1.45628e-05
1.44435e-05
1.43245e-05
1.42055e-05
1.40863e-05
1.39667e-05
1.38467e-05
1.37263e-05
1.36053e-05
1.34843e-05
1.33637e-05
1.32448e-05
1.31312e-05
1.30265e-05
1.29271e-05
1.28191e-05
1.26956e-05
1.25966e-05
1.2509e-05
5.41274e-06
5.2914e-06
5.17768e-06
5.06974e-06
4.96615e-06
4.86601e-06
4.76882e-06
4.67437e-06
4.58262e-06
4.49361e-06
4.40745e-06
4.32424e-06
4.24405e-06
4.16688e-06
4.09272e-06
4.02147e-06
3.95296e-06
3.88703e-06
3.82196e-06
3.67827e-06
1.56031e-05
1.56057e-05
1.5563e-05
1.54897e-05
1.53962e-05
1.52897e-05
1.5175e-05
1.50555e-05
1.49333e-05
1.481e-05
1.46867e-05
1.4564e-05
1.44422e-05
1.43214e-05
1.42014e-05
1.40819e-05
1.39627e-05
1.38436e-05
1.37247e-05
1.36062e-05
1.34883e-05
1.33709e-05
1.32532e-05
1.31358e-05
1.30235e-05
1.29226e-05
1.28276e-05
1.27207e-05
1.26172e-05
1.25217e-05
5.41258e-06
5.29105e-06
5.17731e-06
5.06939e-06
4.96583e-06
4.8658e-06
4.7688e-06
4.67459e-06
4.58311e-06
4.49439e-06
4.40848e-06
4.32547e-06
4.2454e-06
4.16827e-06
4.09405e-06
4.02265e-06
3.95393e-06
3.88773e-06
3.82235e-06
3.67685e-06
1.5598e-05
1.56031e-05
1.55632e-05
1.54923e-05
1.54004e-05
1.52947e-05
1.51804e-05
1.50607e-05
1.49379e-05
1.48137e-05
1.46893e-05
1.45654e-05
1.44424e-05
1.43205e-05
1.41997e-05
1.40798e-05
1.39605e-05
1.38415e-05
1.3723e-05
1.36051e-05
1.34884e-05
1.33736e-05
1.32603e-05
1.31464e-05
1.30318e-05
1.29224e-05
1.28238e-05
1.2724e-05
1.26235e-05
1.25261e-05
5.4126e-06
5.29092e-06
5.17708e-06
5.06907e-06
4.96548e-06
4.86547e-06
4.76858e-06
4.67455e-06
4.5833e-06
4.4948e-06
4.4091e-06
4.32624e-06
4.24623e-06
4.16908e-06
4.09474e-06
4.02312e-06
3.95414e-06
3.88765e-06
3.82196e-06
3.67618e-06
1.55913e-05
1.55965e-05
1.55571e-05
1.54869e-05
1.53958e-05
1.5291e-05
1.51773e-05
1.5058e-05
1.49354e-05
1.48111e-05
1.46863e-05
1.4562e-05
1.44387e-05
1.43166e-05
1.41959e-05
1.40767e-05
1.39586e-05
1.38413e-05
1.37247e-05
1.36085e-05
1.34928e-05
1.33786e-05
1.3267e-05
1.31571e-05
1.30466e-05
1.29357e-05
1.28314e-05
1.27309e-05
1.26313e-05
1.25331e-05
5.41265e-06
5.29092e-06
5.17696e-06
5.06886e-06
4.9652e-06
4.86519e-06
4.76837e-06
4.6745e-06
4.58345e-06
4.49519e-06
4.40972e-06
4.32703e-06
4.24713e-06
4.16999e-06
4.09556e-06
4.02379e-06
3.95459e-06
3.88785e-06
3.82193e-06
3.67594e-06
1.55875e-05
1.55926e-05
1.55537e-05
1.54842e-05
1.53939e-05
1.52896e-05
1.51761e-05
1.50565e-05
1.49333e-05
1.48081e-05
1.46822e-05
1.45567e-05
1.44324e-05
1.43096e-05
1.41887e-05
1.40698e-05
1.39525e-05
1.38368e-05
1.37226e-05
1.36092e-05
1.34959e-05
1.33831e-05
1.32716e-05
1.31625e-05
1.30549e-05
1.29465e-05
1.28403e-05
1.27375e-05
1.26371e-05
1.25384e-05
5.41265e-06
5.29091e-06
5.17687e-06
5.06866e-06
4.96493e-06
4.8649e-06
4.76815e-06
4.6744e-06
4.58354e-06
4.49549e-06
4.4102e-06
4.32766e-06
4.24784e-06
4.1707e-06
4.0962e-06
4.02427e-06
3.95487e-06
3.88789e-06
3.82212e-06
3.67529e-06
1.55811e-05
1.55865e-05
1.55501e-05
1.5484e-05
1.53971e-05
1.52951e-05
1.51825e-05
1.50625e-05
1.49376e-05
1.48099e-05
1.4681e-05
1.45524e-05
1.44252e-05
1.43002e-05
1.41778e-05
1.4058e-05
1.39409e-05
1.38261e-05
1.37133e-05
1.3602e-05
1.34917e-05
1.33817e-05
1.32717e-05
1.31631e-05
1.30562e-05
1.29497e-05
1.2844e-05
1.27405e-05
1.26393e-05
1.254e-05
5.41262e-06
5.29085e-06
5.17674e-06
5.06843e-06
4.96462e-06
4.86458e-06
4.76788e-06
4.67426e-06
4.58356e-06
4.49569e-06
4.41058e-06
4.32817e-06
4.24841e-06
4.17126e-06
4.09668e-06
4.0246e-06
3.955e-06
3.88781e-06
3.82184e-06
3.67481e-06
1.55766e-05
1.55821e-05
1.55461e-05
1.54807e-05
1.53943e-05
1.52927e-05
1.518e-05
1.50594e-05
1.49334e-05
1.4804e-05
1.46732e-05
1.45424e-05
1.4413e-05
1.42863e-05
1.41626e-05
1.40423e-05
1.39255e-05
1.38115e-05
1.37e-05
1.35905e-05
1.34825e-05
1.33751e-05
1.32675e-05
1.31602e-05
1.30541e-05
1.29485e-05
1.28435e-05
1.27401e-05
1.26384e-05
1.2539e-05
5.41259e-06
5.29077e-06
5.17657e-06
5.06817e-06
4.9643e-06
4.86425e-06
4.76762e-06
4.67412e-06
4.5836e-06
4.49592e-06
4.411e-06
4.32874e-06
4.24907e-06
4.17196e-06
4.09733e-06
4.02516e-06
3.95542e-06
3.88808e-06
3.82197e-06
3.67482e-06
1.55755e-05
1.55808e-05
1.55447e-05
1.54792e-05
1.53926e-05
1.52907e-05
1.51775e-05
1.50561e-05
1.49289e-05
1.47982e-05
1.4666e-05
1.45339e-05
1.44035e-05
1.42762e-05
1.41526e-05
1.4033e-05
1.39175e-05
1.38056e-05
1.36964e-05
1.35891e-05
1.34834e-05
1.33785e-05
1.32732e-05
1.31673e-05
1.30616e-05
1.29561e-05
1.28509e-05
1.27466e-05
1.26438e-05
1.2543e-05
5.41257e-06
5.29069e-06
5.1764e-06
5.06789e-06
4.96393e-06
4.86384e-06
4.76722e-06
4.67379e-06
4.58336e-06
4.49579e-06
4.41096e-06
4.32876e-06
4.24911e-06
4.17194e-06
4.09722e-06
4.0249e-06
3.955e-06
3.88748e-06
3.82121e-06
3.674e-06
1.55686e-05
1.55742e-05
1.55383e-05
1.54729e-05
1.53864e-05
1.52842e-05
1.51706e-05
1.50486e-05
1.49206e-05
1.4789e-05
1.46559e-05
1.45231e-05
1.43924e-05
1.4265e-05
1.41419e-05
1.40236e-05
1.39097e-05
1.37998e-05
1.36933e-05
1.35885e-05
1.34847e-05
1.33813e-05
1.32776e-05
1.31727e-05
1.3067e-05
1.29607e-05
1.28545e-05
1.27488e-05
1.26446e-05
1.25423e-05
5.41256e-06
5.29061e-06
5.17624e-06
5.06765e-06
4.96365e-06
4.86358e-06
4.76704e-06
4.67375e-06
4.5835e-06
4.49612e-06
4.41148e-06
4.32944e-06
4.24991e-06
4.17281e-06
4.09809e-06
4.02575e-06
3.95578e-06
3.88819e-06
3.82188e-06
3.67647e-06
1.55768e-05
1.55798e-05
1.55419e-05
1.54749e-05
1.53869e-05
1.52834e-05
1.51684e-05
1.50449e-05
1.49154e-05
1.47823e-05
1.46479e-05
1.45143e-05
1.43831e-05
1.42557e-05
1.41332e-05
1.40158e-05
1.39034e-05
1.37952e-05
1.36903e-05
1.35877e-05
1.34857e-05
1.33834e-05
1.32804e-05
1.31761e-05
1.30704e-05
1.29636e-05
1.28565e-05
1.27497e-05
1.26444e-05
1.25413e-05
5.41254e-06
5.29049e-06
5.17594e-06
5.06714e-06
4.96292e-06
4.86264e-06
4.76593e-06
4.6725e-06
4.58216e-06
4.49471e-06
4.41001e-06
4.32791e-06
4.24829e-06
4.17109e-06
4.09626e-06
4.02379e-06
3.95371e-06
3.88603e-06
3.82085e-06
1.60422e-05
1.59192e-05
1.58005e-05
1.56824e-05
1.55625e-05
1.54396e-05
1.53131e-05
1.51827e-05
1.50489e-05
1.49126e-05
1.4775e-05
1.46377e-05
1.45024e-05
1.43707e-05
1.42436e-05
1.4122e-05
1.40063e-05
1.38958e-05
1.37902e-05
1.36877e-05
1.35875e-05
1.34882e-05
1.33885e-05
1.32873e-05
1.31848e-05
1.30807e-05
1.29756e-05
1.28701e-05
1.27655e-05
1.26626e-05
1.25628e-05
5.41253e-06
5.29044e-06
5.17592e-06
5.06723e-06
4.96315e-06
4.86304e-06
4.76651e-06
4.67327e-06
4.5831e-06
4.49581e-06
4.41123e-06
4.32921e-06
4.24963e-06
4.17242e-06
4.09754e-06
4.02501e-06
3.95484e-06
3.88708e-06
3.82182e-06
1.60562e-05
1.59347e-05
1.5815e-05
1.56948e-05
1.55727e-05
1.54479e-05
1.53199e-05
1.51886e-05
1.50545e-05
1.49185e-05
1.4782e-05
1.46463e-05
1.45134e-05
1.43847e-05
1.42615e-05
1.41445e-05
1.40338e-05
1.3929e-05
1.38292e-05
1.37332e-05
1.36393e-05
1.35464e-05
1.34536e-05
1.33597e-05
1.32648e-05
1.31687e-05
1.30723e-05
1.29766e-05
1.28828e-05
1.27926e-05
1.27076e-05
5.41251e-06
5.28956e-06
5.174e-06
5.06436e-06
4.95949e-06
4.8588e-06
4.76189e-06
4.66844e-06
4.57822e-06
4.491e-06
4.40659e-06
4.32481e-06
4.24554e-06
4.16869e-06
4.09423e-06
4.02216e-06
3.95252e-06
3.88531e-06
3.82064e-06
1.60514e-05
1.59377e-05
1.58252e-05
1.57087e-05
1.55945e-05
1.54813e-05
1.53684e-05
1.5255e-05
1.51406e-05
1.50257e-05
1.49113e-05
1.47987e-05
1.46893e-05
1.45847e-05
1.4486e-05
1.44031e-05
1.43233e-05
1.42472e-05
1.41743e-05
1.41041e-05
1.40351e-05
1.39665e-05
1.3897e-05
1.38266e-05
1.3755e-05
1.36831e-05
1.36115e-05
1.35423e-05
1.34768e-05
1.34176e-05
1.33673e-05
5.41287e-06
5.29096e-06
5.17717e-06
5.06942e-06
4.96717e-06
4.87041e-06
4.77837e-06
4.69051e-06
4.60637e-06
4.5256e-06
4.44789e-06
4.37302e-06
4.30081e-06
4.23118e-06
4.16405e-06
4.09943e-06
4.03728e-06
3.97755e-06
3.92012e-06
3.86473e-06
3.77652e-06
3.72229e-06
3.6538e-06
3.60398e-06
3.56977e-06
3.54684e-06
3.5312e-06
3.51977e-06
3.51048e-06
3.50216e-06
3.4942e-06
3.48636e-06
3.47876e-06
3.47335e-06
1.51499e-05
1.54704e-05
1.5673e-05
1.57961e-05
1.5865e-05
1.58963e-05
1.59016e-05
1.58879e-05
1.58601e-05
1.58222e-05
1.57778e-05
1.57298e-05
1.56815e-05
1.56358e-05
1.55963e-05
1.5567e-05
5.48223e-06
5.45859e-06
5.43658e-06
5.41558e-06
5.3946e-06
5.37272e-06
5.34993e-06
5.32629e-06
5.3019e-06
5.27687e-06
5.25132e-06
5.2254e-06
5.19926e-06
5.17309e-06
5.14708e-06
5.12138e-06
5.09617e-06
5.07151e-06
5.04743e-06
5.0237e-06
4.97826e-06
4.94475e-06
4.92596e-06
4.9009e-06
4.87228e-06
4.84178e-06
4.81035e-06
4.77851e-06
4.74665e-06
4.71506e-06
4.68404e-06
4.65397e-06
4.62495e-06
4.59723e-06
4.57195e-06
4.54835e-06
4.5258e-06
4.50414e-06
4.48288e-06
4.46173e-06
4.44038e-06
4.41865e-06
4.39633e-06
4.37327e-06
4.34936e-06
4.32455e-06
4.29873e-06
4.27201e-06
4.24419e-06
4.21527e-06
4.15365e-06
7.98945e-06
5.12931e-06
4.21614e-06
3.91641e-06
3.94692e-06
4.62968e-06
6.92505e-06
1.22058e-05
2.09379e-05
6.29122e-06
7.03003e-06
7.44838e-06
7.86092e-06
8.3622e-06
8.86448e-06
9.1926e-06
9.66043e-06
1.0616e-05
1.3137e-05
4.12424e-06
8.15235e-06
5.20025e-06
4.25515e-06
3.92288e-06
3.84826e-06
4.19589e-06
5.65221e-06
9.46751e-06
1.65312e-05
5.82152e-06
6.54397e-06
7.07413e-06
7.65128e-06
8.40699e-06
9.24263e-06
9.62832e-06
1.01358e-05
1.10746e-05
1.34973e-05
4.21829e-06
8.29005e-06
5.25968e-06
4.29014e-06
3.9391e-06
3.79894e-06
3.91503e-06
4.72333e-06
7.21417e-06
1.25389e-05
2.06526e-05
5.80069e-06
6.47552e-06
7.1874e-06
8.13912e-06
9.34504e-06
9.75974e-06
1.02777e-05
1.1194e-05
1.35065e-05
4.17444e-06
8.39986e-06
5.32213e-06
4.33024e-06
3.96583e-06
3.78785e-06
3.75926e-06
4.11784e-06
5.5289e-06
9.07576e-06
1.52545e-05
5.13297e-06
5.71103e-06
6.41526e-06
7.57696e-06
9.34644e-06
9.81101e-06
1.03586e-05
1.12709e-05
1.34861e-05
4.152e-06
8.5072e-06
5.38402e-06
4.37081e-06
3.99696e-06
3.80018e-06
3.69212e-06
3.77489e-06
4.42974e-06
6.46725e-06
1.07125e-05
1.68469e-05
4.76557e-06
5.51402e-06
6.7643e-06
8.9593e-06
9.75982e-06
1.03605e-05
1.12878e-05
1.34389e-05
4.13813e-06
8.61057e-06
5.44447e-06
4.41085e-06
4.02972e-06
3.82505e-06
3.68004e-06
3.61512e-06
3.80918e-06
4.73605e-06
7.14536e-06
1.13012e-05
1.65989e-05
4.5539e-06
5.7016e-06
8.31372e-06
9.64654e-06
1.03156e-05
1.12701e-05
1.33806e-05
4.12573e-06
8.71088e-06
5.50361e-06
4.45023e-06
4.06265e-06
3.85527e-06
3.69731e-06
3.56736e-06
3.52572e-06
3.78803e-06
4.8075e-06
7.00837e-06
1.02657e-05
3.46488e-06
4.40966e-06
7.37628e-06
9.55789e-06
1.02588e-05
1.12795e-05
1.33892e-05
4.11311e-06
8.8099e-06
5.56211e-06
4.48929e-06
4.09525e-06
3.88674e-06
3.72699e-06
3.57675e-06
3.4394e-06
3.38446e-06
3.60635e-06
4.39461e-06
5.83175e-06
8.66283e-06
3.08727e-06
5.87506e-06
9.31222e-06
1.02934e-05
1.1347e-05
1.3636e-05
4.10097e-06
8.9094e-06
5.62109e-06
4.52839e-06
4.12747e-06
3.91805e-06
3.76016e-06
3.60904e-06
3.44706e-06
3.28025e-06
3.16031e-06
3.19921e-06
3.45115e-06
4.12955e-06
9.94295e-06
4.10177e-06
8.20907e-06
1.01581e-05
1.15931e-05
1.39645e-05
4.09035e-06
9.01097e-06
5.68127e-06
4.56811e-06
4.15966e-06
3.94889e-06
3.79328e-06
3.64705e-06
3.48784e-06
3.30378e-06
3.09931e-06
2.91527e-06
2.83026e-06
2.8545e-06
7.79295e-06
1.04373e-05
6.6501e-06
9.31799e-06
1.16283e-05
1.42848e-05
4.082e-06
9.11643e-06
5.74375e-06
4.60895e-06
4.19252e-06
3.9799e-06
3.82611e-06
3.68507e-06
3.5343e-06
3.35916e-06
3.15212e-06
2.93002e-06
2.77188e-06
2.81062e-06
4.29872e-06
4.47381e-06
2.38919e-05
8.0838e-06
1.09558e-05
1.44978e-05
4.0763e-06
9.227e-06
5.8096e-06
4.6518e-06
4.22675e-06
4.01172e-06
3.85921e-06
3.72255e-06
3.57999e-06
3.41701e-06
3.22157e-06
2.99378e-06
2.78116e-06
2.78387e-06
3.07958e-06
2.91573e-06
1.2177e-05
6.72688e-06
9.93151e-06
1.4139e-05
4.07364e-06
9.34362e-06
5.87952e-06
4.69723e-06
4.26278e-06
4.04508e-06
3.8934e-06
3.76031e-06
3.62508e-06
3.47393e-06
3.2943e-06
3.07673e-06
2.8259e-06
2.65047e-06
2.63646e-06
2.18967e-06
7.07859e-06
2.20996e-05
8.85864e-06
1.32859e-05
4.07449e-06
9.46621e-06
5.95389e-06
4.74563e-06
4.30078e-06
4.08009e-06
3.92884e-06
3.79876e-06
3.6697e-06
3.52904e-06
3.36596e-06
3.17272e-06
2.94005e-06
2.65174e-06
2.49285e-06
2.12902e-06
6.39805e-06
1.83527e-05
8.32592e-06
1.21973e-05
4.07873e-06
9.5922e-06
6.03171e-06
4.79647e-06
4.34061e-06
4.1166e-06
3.96538e-06
3.83785e-06
3.71385e-06
3.5811e-06
3.43036e-06
3.25939e-06
3.07177e-06
2.8597e-06
2.57451e-06
2.28701e-06
6.50945e-06
1.59077e-05
2.98843e-05
1.13308e-05
4.08596e-06
9.71718e-06
6.11111e-06
4.84875e-06
4.38144e-06
4.15385e-06
4.00246e-06
3.87695e-06
3.75716e-06
3.62966e-06
3.48391e-06
3.3185e-06
3.14565e-06
3.01167e-06
2.93071e-06
2.81991e-06
6.09079e-06
1.38341e-05
2.52137e-05
1.05966e-05
4.09461e-06
9.83322e-06
6.18875e-06
4.90116e-06
4.42243e-06
4.191e-06
4.03902e-06
3.91511e-06
3.79909e-06
3.67596e-06
3.53084e-06
3.36093e-06
3.15868e-06
2.94754e-06
2.83452e-06
2.71694e-06
5.46835e-06
1.17101e-05
2.10588e-05
3.78017e-05
4.10265e-06
9.93024e-06
6.26058e-06
4.95184e-06
4.46253e-06
4.22749e-06
4.0748e-06
3.95122e-06
3.83731e-06
3.71949e-06
3.58895e-06
3.4372e-06
3.25101e-06
3.02207e-06
2.8521e-06
2.66493e-06
4.61336e-06
9.59231e-06
1.73585e-05
3.15513e-05
4.10744e-06
9.99639e-06
6.32259e-06
4.99892e-06
4.50093e-06
4.263e-06
4.11093e-06
3.98852e-06
3.87186e-06
3.74725e-06
3.60732e-06
3.45143e-06
3.27652e-06
3.06609e-06
2.88367e-06
2.66807e-06
3.85375e-06
7.69435e-06
1.41099e-05
2.62012e-05
4.10483e-06
1.0017e-05
6.37734e-06
5.04191e-06
4.53598e-06
4.29563e-06
4.14389e-06
4.02291e-06
3.90764e-06
3.78146e-06
3.63337e-06
3.46285e-06
3.27789e-06
3.07183e-06
2.8897e-06
2.66651e-06
3.34294e-06
6.15793e-06
1.13385e-05
2.16026e-05
4.09657e-06
9.9998e-06
6.39192e-06
5.06557e-06
4.56171e-06
4.32186e-06
4.16943e-06
4.04704e-06
3.9301e-06
3.80227e-06
3.64999e-06
3.46944e-06
3.27206e-06
3.05937e-06
2.87073e-06
2.66638e-06
3.02945e-06
5.00381e-06
9.05942e-06
1.76564e-05
4.08897e-06
9.91549e-06
6.36845e-06
5.07161e-06
4.57928e-06
4.34393e-06
4.19242e-06
4.06782e-06
3.94573e-06
3.81075e-06
3.64936e-06
3.4577e-06
3.24895e-06
3.02857e-06
2.82935e-06
2.67555e-06
2.84777e-06
4.18232e-06
7.25752e-06
1.43077e-05
4.08139e-06
9.77326e-06
6.31183e-06
5.06182e-06
4.58835e-06
4.36005e-06
4.21063e-06
4.0843e-06
3.95629e-06
3.81014e-06
3.63275e-06
3.42326e-06
3.19923e-06
2.97019e-06
2.76288e-06
2.69259e-06
2.7589e-06
3.6243e-06
5.88872e-06
1.15286e-05
4.07281e-06
9.58214e-06
6.22877e-06
5.04015e-06
4.59107e-06
4.37122e-06
4.22329e-06