/*--------------------------------*- C++ -*----------------------------------*\
  =========                 |
  \\      /  F ield         | OpenFOAM: The Open Source CFD Toolbox
   \\    /   O peration     | Website:  https://openfoam.org
    \\  /    A nd           | Version:  8
     \\/     M anipulation  |
\*---------------------------------------------------------------------------*/
FoamFile
{
    version     2.0;
    format      ascii;
    class       volScalarField;
    location    "1000";
    object      p_rgh;
}
// * * * * * * * * * * * * * * * * * * * * * * * * * * * * * * * * * * * * * //

dimensions      [1 -1 -2 0 0 0 0];

internalField   nonuniform List<scalar> 
8400
(
31043.7
70434.5
93821.5
107795
119128
132079
149868
174643
206725
244468
285048
325401
362797
395381
422601
444981
463796
480489
496913
514529
534476
557093
582419
609493
636603
662265
686695
711460
737451
763912
789197
812300
832948
850938
866314
879292
890158
899200
906692
912879
917976
922172
925632
928501
930913
932993
934855
936624
938459
940449
38118.4
77540.9
92829.1
102161
111551
123663
141265
166653
200230
240040
282850
325245
363838
396246
422145
443061
460798
476651
493094
511053
531943
555516
582084
610557
638497
663333
685719
708893
734653
761931
788037
811719
832876
851166
866734
879846
890795
899878
907366
913508
918527
922621
925964
928707
930986
932925
934629
936204
937755
939339
37410.2
75635.5
94723.7
106628
116565
128136
144780
169466
203101
243812
288242
332639
372702
406140
434132
456805
472464
484070
495165
507746
524607
545677
572249
604063
636408
661622
681578
703554
730966
761593
789293
813133
834631
853063
868743
881887
892823
901845
909234
915241
920100
924023
927195
929777
931909
933710
935288
936741
938139
939506
6304.81
55104.8
85374.3
100033
109536
121019
138306
163435
196759
236529
279760
322854
362631
396611
424521
448055
465947
480479
494642
510579
530589
555500
586416
623155
654196
668310
673377
686900
716331
755079
785310
810279
835007
854842
871176
884413
895311
904193
911384
917149
921738
925374
928260
930566
932434
933984
935326
936550
937716
938848
-14178.5
36766.5
74793.1
94661
107473
120602
136831
157326
182330
211206
242717
275737
309024
340969
370912
399292
426164
452722
480358
509332
539233
569479
600546
633107
655177
662023
669337
693791
737477
774014
789129
807429
835335
855604
873828
887731
898838
907523
914434
919891
924155
927470
930048
932066
933664
934963
936065
937054
937977
938856
-7540.18
25269.4
55952.2
75811.4
89849.7
103139
117790
134652
154116
175924
199368
223726
248374
273068
298071
323977
351555
381800
415305
451852
490539
530220
569992
608379
639601
662282
684562
715485
754683
778058
796712
826223
847383
859424
877719
891141
902723
911055
917507
922531
926383
929323
931560
933271
934594
935641
936506
937258
937943
938582
-13907
13568.5
41235
61429.7
77234.1
91824.4
106448
121745
138296
156375
175921
196707
218494
241231
265121
290548
317992
347951
380774
416583
455267
496437
539314
582384
622889
659802
695583
732889
769575
794976
816210
837882
853275
874207
888608
896678
907438
914922
920792
925343
928752
931332
933255
934695
935781
936603
937235
937744
938172
938550
-6586.5
16032.4
39904.1
58188.9
72909.9
86126.6
98675.4
111034
123797
137504
152511
169005
187091
206919
228717
252758
279355
308838
341530
377696
417426
460486
506218
553477
600716
646837
691633
734713
773919
805111
830540
851824
868600
883996
895372
907069
913386
918810
923662
927838
930774
933033
934665
935866
936750
937377
937798
938074
938260
938411
-6711.9
14713.6
35583.8
51495.8
64738.2
76542.9
87455.7
97995
108677
120015
132474
146446
162278
180324
200936
224437
251107
281157
314718
351832
392390
436111
482574
531192
581180
631601
681342
728893
772172
808946
839181
863313
881730
895460
905665
911983
919008
923686
926089
929930
932360
934443
935797
936813
937578
938093
938377
938481
938476
938434
-2015.3
18839.4
37180.6
50910.5
62505.3
72726.2
81967.8
90829.4
99911.3
109692
120609
133088
147571
164540
184454
207683
234461
264858
298799
336111
376587
420020
466237
515041
566061
618536
671166
722128
769304
810706
845200
872373
892363
906040
915018
919674
924021
926117
929605
931527
933310
935478
936513
937429
938204
938715
938945
938943
938780
938542
2748.25
24019.2
39972.4
51885.5
61888.7
70528.9
78291.6
85733.2
93441.2
101951
111716
123175
136799
153104
172601
195680
222529
253110
287239
324690
365253
408770
455186
504452
556355
610239
664850
718347
768559
813340
851003
880603
902021
916099
924393
928174
930219
930946
931461
932916
935055
936006
936602
937605
938527
939110
939349
939298
939016
938605
10049.7
27535.6
41477
52866.9
62301.9
70412.2
77741.5
84728.8
91917.2
99881.2
109118
120075
133228
149097
168175
190856
217360
247695
281719
319225
360024
403958
450953
500941
553718
608648
664575
719718
771876
818766
858440
889685
912198
926695
934629
937668
938112
937324
936150
935834
935952
936265
937186
938171
938930
939395
939577
939494
939182
938731
14114.4
29299.8
41856
52986.3
62293.9
70352.6
77635.5
84536.8
91536.5
99226.8
108203
119008
132121
148024
167167
189927
216537
247051
281387
319377
360822
405561
453474
504441
558184
614058
670923
727050
780240
828168
868842
900957
924086
938788
946399
948686
947806
945498
942898
940903
939530
938876
938880
939141
939430
939637
939707
939608
939339
938957
14245.5
29431.1
42147.9
52892.4
61943.2
69792.2
76902.3
83734.2
90787.5
98630.4
107852
118981
132479
148811
168418
191679
218838
249983
285067
323953
366429
412309
461416
513567
568413
625316
683120
740031
793758
841977
882845
915132
938352
952925
960045
961440
959215
955326
951160
947581
944844
943001
941907
941282
940901
940621
940352
940037
939661
939267
13353.5
28332.3
41223.8
51954.1
61057.8
69021.6
76322.3
83433.2
90872.4
99213.1
109020
120796
135004
152104
172524
196638
224708
256844
293018
333095
376849
424065
474526
527988
584054
642037
700708
758167
812047
860041
900462
932228
954984
969066
975455
975755
972015
966400
960512
955288
951082
947929
945678
944091
942948
942085
941385
940773
940222
939754
12028.4
26383.7
39338.9
50376.8
59924.7
68416.8
76312.3
84095
92308.7
101536
112311
125108
140384
158578
180105
205322
234493
267761
305135
346504
391658
440353
492319
547228
604600
663664
723115
780998
834899
882428
921759
952026
973435
986599
992061
991089
985627
978109
970391
963486
957774
953279
949852
947273
945327
943830
942649
941693
940920
940324
10970.2
24736.3
37566.8
48805.9
58750.1
67761.5
76268.6
84760.9
93805.3
103970
115773
129690
146162
165614
188430
214945
245425
280038
318833
361743
408585
459087
512902
569579
628502
688744
748915
807053
860780
907700
945886
974293
993307
1.0046e+06
1.00891e+06
1.00656e+06
999214
989632
980025
971480
964327
958554
954005
950466
947718
945567
943865
942509
941443
940640
10695.6
24124.9
36908.1
48385.5
58786.6
68400.2
77619.9
86921.2
96849
107952
120737
135690
153271
173894
197937
225730
257538
293542
333821
378339
426928
479286
534990
593464
653933
715333
776174
834473
887855
933930
970779
997337
1.01369e+06
1.02222e+06
1.02483e+06
1.02101e+06
1.01179e+06
1.00017e+06
988796
978829
970478
963649
958164
953805
950344
947576
945347
943551
942121
941011
10116.4
22962.6
35598.9
47202.9
57933.7
68022.4
77823.1
87792.5
98444.4
110295
123853
139619
158065
179616
204652
233506
266446
303653
345213
391090
441119
494982
552204
612139
673919
736399
798039
856815
910287
955990
992038
1.01747e+06
1.03215e+06
1.0381e+06
1.03833e+06
1.03273e+06
1.02147e+06
1.00783e+06
994888
983804
974602
967062
960964
956072
952137
948937
946312
944158
942401
940976
10146.4
22628
35147.1
46793.5
57693.6
68046.7
78190.5
88562.8
99654.1
111970
126029
142346
161414
183671
209512
239281
273242
311571
354342
401507
452881
508125
566734
628020
691068
754680
817261
876695
930392
975756
1.01096e+06
1.03519e+06
1.04791e+06
1.05083e+06
1.04887e+06
1.04233e+06
1.02948e+06
1.01412e+06
999820
987781
977865
969748
963177
957892
953617
950109
947196
944765
942714
940897
1.01975e+06
1.01975e+06
1.01975e+06
1.01975e+06
1.01975e+06
1.01975e+06
1.01975e+06
1.01975e+06
1.01975e+06
1.01975e+06
1.01975e+06
1.01975e+06
1.01975e+06
1.01975e+06
1.01975e+06
1.01975e+06
1.01975e+06
1.01975e+06
1.01975e+06
1.01975e+06
1.01975e+06
1.01975e+06
1.01975e+06
1.01975e+06
1.01975e+06
1.01975e+06
1.01975e+06
1.01975e+06
1.01975e+06
1.01975e+06
1.01975e+06
1.01975e+06
1.01975e+06
1.01975e+06
1.01975e+06
1.01975e+06
1.01975e+06
1.01975e+06
1.01975e+06
1.01975e+06
1.01975e+06
1.01975e+06
1.01975e+06
1.01975e+06
1.01975e+06
1.01975e+06
1.01975e+06
1.01975e+06
1.01975e+06
1.01975e+06
1.01975e+06
1.01975e+06
1.01975e+06
1.01975e+06
1.01975e+06
1.01975e+06
1.01975e+06
1.01975e+06
1.01975e+06
1.01975e+06
1.01975e+06
1.01975e+06
1.01975e+06
1.01975e+06
1.01975e+06
1.01975e+06
1.01975e+06
1.01975e+06
1.01975e+06
1.01975e+06
1.01975e+06
1.01975e+06
1.01975e+06
1.01975e+06
1.01975e+06
1.01975e+06
1.01975e+06
1.01975e+06
1.01975e+06
1.01975e+06
1.01975e+06
1.01975e+06
1.01975e+06
1.01975e+06
1.01975e+06
1.01975e+06
1.01975e+06
1.01975e+06
1.01975e+06
1.01975e+06
1.01975e+06
1.01975e+06
1.01975e+06
1.01975e+06
1.01975e+06
1.01975e+06
1.01975e+06
1.01975e+06
1.01975e+06
1.01975e+06
1.01975e+06
1.01975e+06
1.01975e+06
1.01975e+06
1.01975e+06
1.01975e+06
1.01975e+06
1.01975e+06
1.01975e+06
1.01975e+06
1.01975e+06
1.01975e+06
1.01975e+06
1.01975e+06
1.01975e+06
1.01975e+06
1.01975e+06
1.01975e+06
1.01975e+06
1.01975e+06
1.01975e+06
1.01975e+06
1.01975e+06
1.01975e+06
1.01975e+06
1.01975e+06
1.01975e+06
1.01975e+06
1.01975e+06
1.01975e+06
1.01975e+06
1.01975e+06
1.01975e+06
1.01975e+06
1.01975e+06
1.01975e+06
1.01975e+06
1.01975e+06
1.01975e+06
1.01975e+06
1.01975e+06
1.01975e+06
1.01975e+06
1.01975e+06
1.01975e+06
1.01975e+06
1.01975e+06
1.01975e+06
1.01975e+06
1.01975e+06
1.01975e+06
1.01975e+06
1.01975e+06
1.01975e+06
1.01975e+06
1.01975e+06
1.01975e+06
1.01975e+06
1.01975e+06
1.01975e+06
1.01975e+06
1.01975e+06
1.01975e+06
1.01975e+06
1.01975e+06
1.01975e+06
1.01975e+06
1.01975e+06
1.01975e+06
1.01975e+06
1.01975e+06
1.01975e+06
1.01975e+06
1.01975e+06
1.01975e+06
1.01975e+06
1.01975e+06
1.01975e+06
1.01975e+06
1.01975e+06
1.01975e+06
1.01975e+06
1.01975e+06
1.01975e+06
1.01975e+06
1.01975e+06
1.01975e+06
1.01975e+06
1.01975e+06
1.01975e+06
1.01975e+06
1.01975e+06
1.01975e+06
1.01975e+06
1.01975e+06
1.01975e+06
1.01975e+06
1.01975e+06
1.01975e+06
1.01975e+06
1.01975e+06
1.01975e+06
1.01975e+06
1.01975e+06
1.01975e+06
1.01975e+06
1.01975e+06
1.01975e+06
1.01975e+06
1.01975e+06
1.01975e+06
1.01975e+06
1.01975e+06
1.01975e+06
1.01975e+06
1.01975e+06
1.01975e+06
1.01975e+06
1.01975e+06
1.01975e+06
1.01975e+06
1.01975e+06
1.01975e+06
1.01975e+06
1.01975e+06
1.01975e+06
1.01975e+06
1.01975e+06
1.01975e+06
1.01975e+06
1.01975e+06
1.01975e+06
1.01975e+06
1.01975e+06
1.01975e+06
1.01975e+06
1.01975e+06
1.01975e+06
1.01975e+06
1.01975e+06
1.01975e+06
1.01975e+06
1.01975e+06
1.01975e+06
1.01975e+06
1.01975e+06
1.01975e+06
1.01975e+06
1.01975e+06
1.01975e+06
1.01975e+06
1.01975e+06
1.01975e+06
1.01975e+06
1.01975e+06
1.01975e+06
1.01975e+06
1.01975e+06
1.01975e+06
1.01975e+06
1.01975e+06
1.01975e+06
1.01975e+06
1.01975e+06
1.01975e+06
1.01975e+06
1.01975e+06
1.01975e+06
1.01975e+06
1.01975e+06
1.01975e+06
1.01975e+06
1.01975e+06
1.01975e+06
1.01975e+06
1.01975e+06
1.01975e+06
1.01975e+06
1.01975e+06
1.01975e+06
1.01975e+06
1.01975e+06
1.01975e+06
1.01975e+06
1.01975e+06
1.01975e+06
1.01975e+06
1.01975e+06
1.01975e+06
1.01975e+06
1.01975e+06
1.01975e+06
1.01975e+06
1.01975e+06
1.01975e+06
1.01975e+06
1.01975e+06
1.01975e+06
1.01975e+06
1.01975e+06
1.01975e+06
1.01975e+06
1.01975e+06
1.01975e+06
1.01975e+06
1.01975e+06
1.01975e+06
1.01975e+06
1.01975e+06
1.01975e+06
1.01975e+06
1.01975e+06
1.01975e+06
1.01975e+06
1.01975e+06
1.01975e+06
1.01975e+06
1.01975e+06
1.01975e+06
1.01975e+06
1.01975e+06
1.01975e+06
1.01975e+06
1.01975e+06
1.01975e+06
1.01975e+06
1.01975e+06
1.01975e+06
1.01975e+06
1.01975e+06
1.01975e+06
1.01975e+06
1.01975e+06
1.01975e+06
1.01975e+06
1.01975e+06
1.01975e+06
1.01975e+06
1.01975e+06
1.01975e+06
1.01975e+06
1.01975e+06
1.01975e+06
1.01975e+06
1.01975e+06
1.01975e+06
1.01975e+06
1.01975e+06
1.01975e+06
1.01975e+06
1.01975e+06
1.01975e+06
1.01975e+06
1.01975e+06
1.01975e+06
1.01975e+06
1.01975e+06
1.01975e+06
1.01975e+06
1.01975e+06
1.01975e+06
1.01975e+06
1.01975e+06
1.01975e+06
1.01975e+06
1.01975e+06
1.01975e+06
1.01975e+06
1.01975e+06
1.01975e+06
1.01975e+06
1.01975e+06
1.01975e+06
1.01975e+06
1.01975e+06
1.01975e+06
1.01975e+06
1.01975e+06
1.01975e+06
1.01975e+06
1.01975e+06
1.01975e+06
1.01975e+06
1.01975e+06
1.01975e+06
1.01975e+06
1.01975e+06
1.01975e+06
1.01975e+06
1.01975e+06
1.01975e+06
1.01975e+06
1.01975e+06
1.01975e+06
1.01975e+06
1.01975e+06
1.01975e+06
1.01975e+06
1.01975e+06
1.01975e+06
1.01975e+06
1.01975e+06
1.01975e+06
1.01975e+06
1.01975e+06
1.01975e+06
1.01975e+06
1.01975e+06
1.01975e+06
1.01975e+06
1.01975e+06
1.01975e+06
1.01975e+06
1.01975e+06
1.01975e+06
1.01975e+06
1.01975e+06
1.01975e+06
1.01975e+06
1.01975e+06
1.01975e+06
1.01975e+06
1.01975e+06
1.01975e+06
1.01975e+06
1.01975e+06
1.01975e+06
1.01975e+06
1.01975e+06
1.01975e+06
1.01975e+06
1.01975e+06
1.01975e+06
1.01975e+06
1.01975e+06
1.01975e+06
1.01975e+06
1.01975e+06
1.01975e+06
1.01975e+06
1.01975e+06
1.01975e+06
1.01975e+06
1.01975e+06
1.01975e+06
1.01975e+06
1.01975e+06
1.01975e+06
1.01975e+06
1.01975e+06
1.01975e+06
1.01975e+06
1.01975e+06
1.01975e+06
1.01975e+06
1.01975e+06
1.01975e+06
1.01975e+06
1.01975e+06
1.01975e+06
1.01975e+06
1.01975e+06
1.01975e+06
1.01975e+06
1.01975e+06
1.01975e+06
1.01975e+06
1.01975e+06
1.01975e+06
1.01975e+06
1.01975e+06
1.01975e+06
1.01975e+06
1.01975e+06
1.01975e+06
1.01975e+06
1.01975e+06
1.01975e+06
1.01975e+06
1.01975e+06
1.01975e+06
1.01975e+06
1.01975e+06
1.01975e+06
1.01975e+06
1.01975e+06
1.01975e+06
1.01975e+06
1.01975e+06
1.01975e+06
1.01975e+06
1.01975e+06
1.01975e+06
1.01975e+06
1.01975e+06
1.01975e+06
1.01975e+06
1.01975e+06
1.01975e+06
1.01975e+06
1.01975e+06
1.01975e+06
1.01975e+06
1.01975e+06
1.01975e+06
1.01975e+06
1.01975e+06
1.01975e+06
1.01975e+06
1.01975e+06
1.01975e+06
1.01975e+06
1.01975e+06
1.01975e+06
1.01975e+06
1.01975e+06
1.01975e+06
1.01975e+06
1.01975e+06
1.01975e+06
1.01975e+06
1.01975e+06
1.01975e+06
1.01975e+06
1.01975e+06
1.01975e+06
1.01975e+06
1.01975e+06
1.01975e+06
1.01975e+06
1.01975e+06
1.01975e+06
1.01975e+06
1.01975e+06
1.01975e+06
1.01975e+06
1.01975e+06
1.01975e+06
1.01975e+06
1.01975e+06
1.01975e+06
1.01975e+06
1.01975e+06
1.01975e+06
1.01975e+06
1.01975e+06
1.01975e+06
1.01975e+06
1.01975e+06
1.01975e+06
1.01975e+06
1.01975e+06
1.01975e+06
1.01975e+06
1.01975e+06
1.01975e+06
1.01975e+06
1.01975e+06
1.01975e+06
1.01975e+06
1.01975e+06
1.01975e+06
1.01975e+06
1.01975e+06
1.01975e+06
1.01975e+06
1.01975e+06
1.01975e+06
1.01975e+06
1.01975e+06
1.01975e+06
1.01975e+06
1.01975e+06
1.01975e+06
1.01975e+06
1.01975e+06
1.01975e+06
1.01975e+06
1.01975e+06
1.01975e+06
1.01975e+06
1.01975e+06
1.01975e+06
1.01975e+06
1.01975e+06
1.01975e+06
1.01975e+06
1.01975e+06
1.01975e+06
1.01975e+06
1.01975e+06
1.01975e+06
1.01975e+06
1.01975e+06
1.01975e+06
1.01975e+06
1.01975e+06
1.01975e+06
1.01975e+06
1.01975e+06
1.01975e+06
1.01975e+06
1.01975e+06
1.01975e+06
1.01975e+06
1.01975e+06
1.01975e+06
1.01975e+06
1.01975e+06
1.01975e+06
1.01975e+06
1.01975e+06
1.01975e+06
1.01975e+06
1.01975e+06
1.01975e+06
1.01975e+06
1.01975e+06
1.01975e+06
1.01975e+06
1.01975e+06
1.01975e+06
1.01975e+06
1.01975e+06
1.01975e+06
1.01975e+06
1.01975e+06
1.01975e+06
1.01975e+06
1.01975e+06
1.01975e+06
1.01975e+06
1.01975e+06
1.01975e+06
1.01975e+06
1.01975e+06
1.01975e+06
1.01975e+06
1.01975e+06
1.01975e+06
1.01975e+06
1.01975e+06
1.01975e+06
1.01975e+06
1.01975e+06
1.01975e+06
1.01975e+06
1.01975e+06
1.01975e+06
1.01975e+06
1.01975e+06
1.01975e+06
1.01975e+06
1.01975e+06
1.01975e+06
1.01975e+06
1.01975e+06
1.01975e+06
1.01975e+06
1.01975e+06
1.01975e+06
1.01975e+06
1.01975e+06
1.01975e+06
1.01975e+06
1.01975e+06
1.01975e+06
1.01975e+06
1.01975e+06
1.01975e+06
1.01975e+06
1.01975e+06
1.01975e+06
1.01975e+06
1.01975e+06
1.01975e+06
1.01975e+06
1.01975e+06
1.01975e+06
1.01975e+06
1.01975e+06
1.01975e+06
1.01975e+06
1.01975e+06
1.01975e+06
1.01975e+06
1.01975e+06
1.01975e+06
1.01975e+06
1.01975e+06
1.01975e+06
1.01975e+06
1.01975e+06
1.01975e+06
1.01975e+06
1.01975e+06
1.01975e+06
1.01975e+06
1.01975e+06
1.01975e+06
1.01975e+06
1.01975e+06
1.01975e+06
1.01975e+06
1.01975e+06
1.01975e+06
1.01975e+06
1.01975e+06
1.01975e+06
1.01975e+06
1.01975e+06
1.01975e+06
1.01975e+06
1.01975e+06
1.01975e+06
1.01975e+06
1.01975e+06
1.01975e+06
1.01975e+06
1.01975e+06
1.01975e+06
1.01975e+06
1.01975e+06
1.01975e+06
1.01975e+06
1.01975e+06
1.01975e+06
1.01975e+06
1.01975e+06
1.01975e+06
1.01975e+06
1.01975e+06
1.01975e+06
1.01975e+06
1.01975e+06
1.01975e+06
1.01975e+06
1.01975e+06
1.01975e+06
1.01975e+06
1.01975e+06
1.01975e+06
1.01975e+06
1.01975e+06
1.01975e+06
1.01975e+06
1.01975e+06
1.01975e+06
1.01975e+06
1.01975e+06
1.01975e+06
1.01975e+06
1.01975e+06
1.01975e+06
1.01975e+06
1.01975e+06
1.01975e+06
1.01975e+06
1.01975e+06
1.01975e+06
1.01975e+06
1.01975e+06
1.01975e+06
1.01975e+06
1.01975e+06
1.01975e+06
1.01975e+06
1.01975e+06
1.01975e+06
1.01975e+06
1.01975e+06
1.01975e+06
1.01975e+06
1.01975e+06
1.01975e+06
1.01975e+06
1.01975e+06
1.01975e+06
1.01975e+06
1.01975e+06
1.01975e+06
1.01975e+06
1.01975e+06
1.01975e+06
1.01975e+06
1.01975e+06
1.01975e+06
1.01975e+06
1.01975e+06
1.01975e+06
1.01975e+06
1.01975e+06
1.01975e+06
1.01975e+06
1.01975e+06
1.01975e+06
1.01975e+06
1.01975e+06
1.01975e+06
1.01975e+06
1.01975e+06
1.01975e+06
1.01975e+06
1.01975e+06
1.01975e+06
1.01975e+06
1.01975e+06
1.01975e+06
1.01975e+06
1.01975e+06
1.01975e+06
1.01975e+06
1.01975e+06
1.01975e+06
1.01975e+06
1.01975e+06
1.01975e+06
1.01975e+06
1.01975e+06
1.01975e+06
1.01975e+06
1.01975e+06
1.01975e+06
1.01975e+06
1.01975e+06
1.01975e+06
1.01975e+06
1.01975e+06
1.01975e+06
1.01975e+06
1.01975e+06
1.01975e+06
1.01975e+06
1.01975e+06
1.01975e+06
1.01975e+06
1.01975e+06
1.01975e+06
1.01975e+06
1.01975e+06
1.01975e+06
1.01975e+06
1.01975e+06
1.01975e+06
1.01975e+06
1.01975e+06
1.01975e+06
1.01975e+06
1.01975e+06
1.01975e+06
1.01975e+06
1.01975e+06
1.01975e+06
1.01975e+06
1.01975e+06
1.01975e+06
1.01975e+06
1.01975e+06
1.01975e+06
1.01975e+06
1.01975e+06
1.01975e+06
1.01975e+06
1.01975e+06
1.01975e+06
1.01975e+06
1.01975e+06
1.01975e+06
1.01975e+06
1.01975e+06
1.01975e+06
1.01975e+06
1.01975e+06
1.01975e+06
1.01975e+06
1.01975e+06
1.01975e+06
1.01975e+06
1.01975e+06
1.01975e+06
1.01975e+06
1.01975e+06
1.01975e+06
1.01975e+06
1.01975e+06
1.01975e+06
1.01975e+06
1.01975e+06
1.01975e+06
1.01975e+06
1.01975e+06
1.01975e+06
1.01975e+06
1.01975e+06
1.01975e+06
1.01975e+06
1.01975e+06
1.01975e+06
1.01975e+06
1.01975e+06
1.01975e+06
1.01975e+06
1.01975e+06
1.01975e+06
1.01975e+06
1.01975e+06
1.01975e+06
1.01975e+06
1.01975e+06
1.01975e+06
1.01975e+06
1.01975e+06
1.01975e+06
1.01975e+06
1.01975e+06
1.01975e+06
1.01975e+06
1.01975e+06
1.01975e+06
1.01975e+06
1.01975e+06
1.01975e+06
1.01975e+06
1.01975e+06
1.01975e+06
1.01975e+06
1.01975e+06
1.01975e+06
1.01975e+06
1.01975e+06
1.01975e+06
1.01975e+06
1.01975e+06
1.01975e+06
1.01975e+06
1.01975e+06
1.01975e+06
1.01975e+06
1.01975e+06
1.01975e+06
1.01975e+06
1.01975e+06
1.01975e+06
1.01975e+06
1.01975e+06
1.01975e+06
1.01975e+06
1.01975e+06
1.01975e+06
1.01976e+06
1.01975e+06
1.01975e+06
1.01975e+06
1.01975e+06
1.01975e+06
1.01975e+06
1.01975e+06
1.01975e+06
1.01975e+06
1.01975e+06
1.01975e+06
1.01975e+06
1.01975e+06
1.01975e+06
1.01975e+06
1.01975e+06
1.01975e+06
1.01975e+06
1.01975e+06
1.01975e+06
1.01975e+06
1.01975e+06
1.01975e+06
1.01975e+06
1.01975e+06
1.01975e+06
1.01975e+06
1.01975e+06
1.01975e+06
1.01975e+06
1.01975e+06
1.01975e+06
1.01975e+06
1.01975e+06
1.01975e+06
1.01975e+06
1.01975e+06
1.01975e+06
1.01975e+06
1.01975e+06
1.01975e+06
1.01975e+06
1.01975e+06
1.01975e+06
1.01975e+06
1.01975e+06
1.01976e+06
1.01976e+06
1.01976e+06
1.01976e+06
1.01969e+06
1.01969e+06
1.01969e+06
1.01969e+06
1.01969e+06
1.01969e+06
1.01969e+06
1.01969e+06
1.01969e+06
1.01969e+06
1.01969e+06
1.01969e+06
1.01969e+06
1.01969e+06
1.0197e+06
1.0197e+06
1.0197e+06
1.0197e+06
1.0197e+06
1.0197e+06
1.01969e+06
1.01969e+06
1.01969e+06
1.01969e+06
1.01969e+06
1.01969e+06
1.01969e+06
1.01969e+06
1.0197e+06
1.0197e+06
1.0197e+06
1.0197e+06
1.0197e+06
1.0197e+06
1.0197e+06
1.0197e+06
1.0197e+06
1.0197e+06
1.0197e+06
1.0197e+06
1.0197e+06
1.0197e+06
1.0197e+06
1.0197e+06
1.0197e+06
1.0197e+06
1.0197e+06
1.0197e+06
1.0197e+06
1.0197e+06
1.0197e+06
1.0197e+06
1.0197e+06
1.0197e+06
1.0197e+06
1.0197e+06
1.0197e+06
1.0197e+06
1.0197e+06
1.0197e+06
1.0197e+06
1.0197e+06
1.0197e+06
1.0197e+06
1.0197e+06
1.0197e+06
1.0197e+06
1.0197e+06
1.0197e+06
1.0197e+06
1.0197e+06
1.0197e+06
1.0197e+06
1.01971e+06
1.01971e+06
1.01971e+06
1.01971e+06
1.01971e+06
1.01971e+06
1.01971e+06
1.0197e+06
1.0197e+06
1.0197e+06
1.0197e+06
1.0197e+06
1.0197e+06
1.0197e+06
1.0197e+06
1.0197e+06
1.01971e+06
1.01971e+06
1.01971e+06
1.01971e+06
1.01971e+06
1.01971e+06
1.01971e+06
1.01971e+06
1.01971e+06
1.01971e+06
1.01971e+06
1.0197e+06
1.0197e+06
1.0197e+06
1.0197e+06
1.0197e+06
1.01971e+06
1.01971e+06
1.01971e+06
1.01971e+06
1.01971e+06
1.01971e+06
1.01971e+06
1.01971e+06
1.01971e+06
1.01971e+06
1.01971e+06
1.01971e+06
1.01971e+06
1.01971e+06
1.01971e+06
1.01971e+06
1.01971e+06
1.01971e+06
1.01971e+06
1.01971e+06
1.01971e+06
1.01971e+06
1.01971e+06
1.01971e+06
1.01971e+06
1.01971e+06
1.01971e+06
1.01971e+06
1.01971e+06
1.01971e+06
1.01971e+06
1.01971e+06
1.01971e+06
1.01971e+06
1.01971e+06
1.01971e+06
1.01971e+06
1.01971e+06
1.01971e+06
1.01971e+06
1.01971e+06
1.01971e+06
1.01971e+06
1.01971e+06
1.01971e+06
1.01971e+06
1.01971e+06
1.01971e+06
1.01971e+06
1.01971e+06
1.01971e+06
1.01971e+06
1.01971e+06
1.01971e+06
1.01971e+06
1.01971e+06
1.01971e+06
1.01971e+06
1.01971e+06
1.01971e+06
1.01971e+06
1.01971e+06
1.01971e+06
1.01971e+06
1.01971e+06
1.01971e+06
1.01972e+06
1.01972e+06
1.01972e+06
1.01972e+06
1.01972e+06
1.01972e+06
1.01972e+06
1.01972e+06
1.01972e+06
1.01971e+06
1.01971e+06
1.01971e+06
1.01971e+06
1.01971e+06
1.01971e+06
1.01971e+06
1.01971e+06
1.01972e+06
1.01972e+06
1.01972e+06
1.01972e+06
1.01972e+06
1.01972e+06
1.01972e+06
1.01972e+06
1.01972e+06
1.01972e+06
1.01972e+06
1.01972e+06
1.01971e+06
1.01971e+06
1.01971e+06
1.01971e+06
1.01972e+06
1.01972e+06
1.01972e+06
1.01972e+06
1.01972e+06
1.01972e+06
1.01972e+06
1.01972e+06
1.01972e+06
1.01972e+06
1.01972e+06
1.01972e+06
1.01972e+06
1.01972e+06
1.01972e+06
1.01972e+06
1.01972e+06
1.01972e+06
1.01972e+06
1.01972e+06
1.01972e+06
1.01972e+06
1.01972e+06
1.01972e+06
1.01972e+06
1.01972e+06
1.01972e+06
1.01972e+06
1.01972e+06
1.01972e+06
1.01972e+06
1.01972e+06
1.01972e+06
1.01972e+06
1.01972e+06
1.01972e+06
1.01972e+06
1.01972e+06
1.01972e+06
1.01972e+06
1.01972e+06
1.01972e+06
1.01972e+06
1.01972e+06
1.01972e+06
1.01972e+06
1.01972e+06
1.01972e+06
1.01972e+06
1.01972e+06
1.01972e+06
1.01972e+06
1.01972e+06
1.01972e+06
1.01972e+06
1.01972e+06
1.01972e+06
1.01972e+06
1.01972e+06
1.01972e+06
1.01972e+06
1.01972e+06
1.01972e+06
1.01972e+06
1.01972e+06
1.01972e+06
1.01972e+06
1.01972e+06
1.01972e+06
1.01972e+06
1.01972e+06
1.01972e+06
1.01972e+06
1.01972e+06
1.01972e+06
1.01972e+06
1.01972e+06
1.01972e+06
1.01972e+06
1.01972e+06
1.01972e+06
1.01972e+06
1.01972e+06
1.01972e+06
1.01972e+06
1.01972e+06
1.01972e+06
1.01972e+06
1.01972e+06
1.01972e+06
1.01972e+06
1.01972e+06
1.01972e+06
1.01972e+06
1.01972e+06
1.01972e+06
1.01972e+06
1.01972e+06
1.01972e+06
1.01972e+06
1.01972e+06
1.01972e+06
1.01972e+06
1.01972e+06
1.01972e+06
1.01972e+06
1.01972e+06
1.01972e+06
1.01972e+06
1.01972e+06
1.01972e+06
1.01972e+06
1.01972e+06
1.01972e+06
1.01972e+06
1.01972e+06
1.01972e+06
1.01972e+06
1.01972e+06
1.01972e+06
1.01972e+06
1.01972e+06
1.01972e+06
1.01972e+06
1.01972e+06
1.01972e+06
1.01972e+06
1.01972e+06
1.01972e+06
1.01972e+06
1.01972e+06
1.01972e+06
1.01972e+06
1.01972e+06
1.01972e+06
1.01972e+06
1.01972e+06
1.01972e+06
1.01972e+06
1.01972e+06
1.01972e+06
1.01972e+06
1.01972e+06
1.01972e+06
1.01972e+06
1.01973e+06
1.01973e+06
1.01973e+06
1.01973e+06
1.01973e+06
1.01973e+06
1.01973e+06
1.01973e+06
1.01973e+06
1.01972e+06
1.01972e+06
1.01972e+06
1.01972e+06
1.01972e+06
1.01972e+06
1.01972e+06
1.01973e+06
1.01973e+06
1.01973e+06
1.01973e+06
1.01973e+06
1.01973e+06
1.01973e+06
1.01973e+06
1.01973e+06
1.01973e+06
1.01973e+06
1.01973e+06
1.01973e+06
1.01973e+06
1.01973e+06
1.01973e+06
1.01973e+06
1.01973e+06
1.01973e+06
1.01973e+06
1.01973e+06
1.01973e+06
1.01973e+06
1.01973e+06
1.01973e+06
1.01973e+06
1.01973e+06
1.01973e+06
1.01973e+06
1.01973e+06
1.01973e+06
1.01973e+06
1.01973e+06
1.01973e+06
1.01973e+06
1.01973e+06
1.01973e+06
1.01973e+06
1.01973e+06
1.01973e+06
1.01973e+06
1.01973e+06
1.01973e+06
1.01973e+06
1.01973e+06
1.01973e+06
1.01973e+06
1.01973e+06
1.01973e+06
1.01973e+06
1.01973e+06
1.01973e+06
1.01973e+06
1.01973e+06
1.01973e+06
1.01973e+06
1.01973e+06
1.01973e+06
1.01973e+06
1.01973e+06
1.01973e+06
1.01973e+06
1.01973e+06
1.01973e+06
1.01973e+06
1.01973e+06
1.01973e+06
1.01973e+06
1.01973e+06
1.01973e+06
1.01973e+06
1.01973e+06
1.01973e+06
1.01973e+06
1.01973e+06
1.01973e+06
1.01973e+06
1.01973e+06
1.01973e+06
1.01973e+06
1.01973e+06
1.01973e+06
1.01973e+06
1.01973e+06
1.01973e+06
1.01973e+06
1.01973e+06
1.01973e+06
1.01973e+06
1.01973e+06
1.01973e+06
1.01973e+06
1.01973e+06
1.01973e+06
1.01973e+06
1.01973e+06
1.01973e+06
1.01973e+06
1.01973e+06
1.01973e+06
1.01973e+06
1.01973e+06
1.01973e+06
1.01973e+06
1.01973e+06
1.01973e+06
1.01973e+06
1.01973e+06
1.01973e+06
1.01973e+06
1.01973e+06
1.01973e+06
1.01973e+06
1.01973e+06
1.01973e+06
1.01973e+06
1.01973e+06
1.01973e+06
1.01973e+06
1.01973e+06
1.01973e+06
1.01973e+06
1.01973e+06
1.01973e+06
1.01973e+06
1.01973e+06
1.01973e+06
1.01973e+06
1.01973e+06
1.01973e+06
1.01973e+06
1.01973e+06
1.01973e+06
1.01973e+06
1.01973e+06
1.01973e+06
1.01973e+06
1.01973e+06
1.01973e+06
1.01973e+06
1.01973e+06
1.01973e+06
1.01973e+06
1.01973e+06
1.01973e+06
1.01973e+06
1.01973e+06
1.01973e+06
1.01973e+06
1.01973e+06
1.01973e+06
1.01973e+06
1.01973e+06
1.01973e+06
1.01973e+06
1.01973e+06
1.01973e+06
1.01973e+06
1.01973e+06
1.01973e+06
1.01973e+06
1.01973e+06
1.01973e+06
1.01973e+06
1.01973e+06
1.01973e+06
1.01973e+06
1.01973e+06
1.01973e+06
1.01973e+06
1.01973e+06
1.01973e+06
1.01973e+06
1.01973e+06
1.01973e+06
1.01973e+06
1.01973e+06
1.01973e+06
1.01973e+06
1.01973e+06
1.01973e+06
1.01973e+06
1.01973e+06
1.01973e+06
1.01973e+06
1.01973e+06
1.01973e+06
1.01973e+06
1.01973e+06
1.01973e+06
1.01973e+06
1.01973e+06
1.01973e+06
1.01973e+06
1.01973e+06
1.01973e+06
1.01973e+06
1.01973e+06
1.01973e+06
1.01973e+06
1.01973e+06
1.01973e+06
1.01973e+06
1.01973e+06
1.01973e+06
1.01973e+06
1.01973e+06
1.01973e+06
1.01973e+06
1.01973e+06
1.01973e+06
1.01973e+06
1.01973e+06
1.01973e+06
1.01973e+06
1.01973e+06
1.01973e+06
1.01973e+06
1.01973e+06
1.01973e+06
1.01973e+06
1.01973e+06
1.01973e+06
1.01973e+06
1.01973e+06
1.01973e+06
1.01973e+06
1.01973e+06
1.01973e+06
1.01973e+06
1.01973e+06
1.01973e+06
1.01973e+06
1.01973e+06
1.01973e+06
1.01973e+06
1.01973e+06
1.01973e+06
1.01973e+06
1.01973e+06
1.01973e+06
1.01973e+06
1.01973e+06
1.01973e+06
1.01973e+06
1.01973e+06
1.01973e+06
1.01973e+06
1.01973e+06
1.01973e+06
1.01973e+06
1.01973e+06
1.01973e+06
1.01973e+06
1.01973e+06
1.01973e+06
1.01973e+06
1.01973e+06
1.01973e+06
1.01973e+06
1.01973e+06
1.01973e+06
1.01973e+06
1.01973e+06
1.01973e+06
1.01973e+06
1.01973e+06
1.01973e+06
1.01973e+06
1.01973e+06
1.01973e+06
1.01973e+06
1.01973e+06
1.01973e+06
1.01973e+06
1.01973e+06
1.01973e+06
1.01973e+06
1.01973e+06
1.01973e+06
1.01973e+06
1.01973e+06
1.01973e+06
1.01973e+06
1.01973e+06
1.01973e+06
1.01973e+06
1.01973e+06
1.01973e+06
1.01973e+06
1.01973e+06
1.01973e+06
1.01973e+06
1.01973e+06
1.01973e+06
1.01973e+06
1.01973e+06
1.01973e+06
1.01973e+06
1.01973e+06
1.01973e+06
1.01973e+06
1.01973e+06
1.01973e+06
1.01973e+06
1.01973e+06
1.01973e+06
1.01973e+06
1.01973e+06
1.01973e+06
1.01973e+06
1.01973e+06
1.01973e+06
1.01973e+06
1.01973e+06
1.01973e+06
1.01973e+06
1.01973e+06
1.01973e+06
1.01973e+06
1.01973e+06
1.01973e+06
1.01973e+06
1.01973e+06
1.01973e+06
1.01973e+06
1.01973e+06
1.01973e+06
1.01973e+06
1.01973e+06
1.01973e+06
1.01973e+06
1.01973e+06
1.01973e+06
1.01973e+06
1.01973e+06
1.01973e+06
1.01973e+06
1.01973e+06
1.01973e+06
1.01973e+06
1.01973e+06
1.01973e+06
1.01973e+06
1.01973e+06
1.01973e+06
1.01973e+06
1.01973e+06
1.01973e+06
1.01973e+06
1.01973e+06
1.01973e+06
1.01973e+06
1.01973e+06
1.01973e+06
1.01973e+06
1.01973e+06
1.01973e+06
1.01973e+06
1.01973e+06
1.01973e+06
1.01973e+06
1.01973e+06
1.01973e+06
1.01973e+06
1.01973e+06
1.01973e+06
1.01973e+06
1.01973e+06
1.01973e+06
1.01973e+06
1.01973e+06
1.01973e+06
1.01973e+06
1.01973e+06
1.01973e+06
1.01973e+06
1.01973e+06
1.01973e+06
1.01973e+06
1.01973e+06
1.01973e+06
1.01973e+06
1.01973e+06
1.01973e+06
1.01973e+06
1.01973e+06
1.01973e+06
1.01973e+06
1.01973e+06
1.01973e+06
1.01973e+06
1.01973e+06
1.01973e+06
1.01973e+06
1.01973e+06
1.01973e+06
1.01973e+06
1.01973e+06
1.01973e+06
1.01973e+06
1.01973e+06
1.01973e+06
1.01973e+06
1.01973e+06
1.01973e+06
1.01973e+06
1.01973e+06
1.01973e+06
1.01973e+06
1.01973e+06
1.01973e+06
1.01973e+06
1.01973e+06
1.01973e+06
1.01973e+06
1.01973e+06
1.01973e+06
1.01973e+06
1.01973e+06
1.01973e+06
1.01973e+06
1.01973e+06
1.01973e+06
1.01973e+06
1.01973e+06
1.01973e+06
1.01973e+06
1.01973e+06
1.01973e+06
1.01973e+06
1.01973e+06
1.01973e+06
1.01973e+06
1.01973e+06
1.01973e+06
1.01973e+06
1.01973e+06
1.01973e+06
1.01973e+06
1.01973e+06
1.01973e+06
1.01973e+06
1.01973e+06
1.01973e+06
1.01973e+06
1.01973e+06
1.01973e+06
1.01973e+06
1.01973e+06
1.01973e+06
1.01973e+06
1.01973e+06
1.01973e+06
1.01973e+06
1.01973e+06
1.01973e+06
1.01973e+06
1.01973e+06
1.01973e+06
1.01973e+06
1.01973e+06
1.01973e+06
1.01973e+06
1.01973e+06
1.01973e+06
1.01973e+06
1.01973e+06
1.01973e+06
1.01973e+06
1.01973e+06
1.01973e+06
1.01973e+06
1.01973e+06
1.01973e+06
1.01974e+06
1.01974e+06
1.01974e+06