/*--------------------------------*- C++ -*----------------------------------*\
  =========                 |
  \\      /  F ield         | OpenFOAM: The Open Source CFD Toolbox
   \\    /   O peration     | Website:  https://openfoam.org
    \\  /    A nd           | Version:  8
     \\/     M anipulation  |
\*---------------------------------------------------------------------------*/
FoamFile
{
    version     2.0;
    format      ascii;
    class       surfaceScalarField;
    location    "1000";
    object      phi;
}
// * * * * * * * * * * * * * * * * * * * * * * * * * * * * * * * * * * * * * //

dimensions      [1 0 -1 0 0 0 0];

internalField   nonuniform List<scalar> 
16360
(
-3.82163
-0.0767301
-3.74459
-0.077024
-3.69267
-0.0519056
-3.65451
-0.0381517
-3.61788
-0.0366578
-3.57609
-0.0417823
-3.52561
-0.0504828
-3.46244
-0.0631607
-3.38162
-0.0808265
-3.27928
-0.102359
-3.15324
-0.126048
-3.0039
-0.149334
-2.83826
-0.16563
-2.66963
-0.168608
-2.51381
-0.155807
-2.39137
-0.122458
-2.31134
-0.079996
-2.27603
-0.035311
-2.27513
-0.000883352
-2.29427
0.0191085
-2.31703
0.0227795
-2.32928
0.0122597
-2.31948
-0.00982796
-2.2819
-0.0375848
-2.2258
-0.0561282
-2.17237
-0.0534759
-2.12701
-0.0453665
-2.07525
-0.0517568
-2.00209
-0.0731484
-1.90698
-0.0951014
-1.80446
-0.102525
-1.70303
-0.101461
-1.60485
-0.0981994
-1.51426
-0.0905875
-1.43363
-0.0805963
-1.364
-0.069642
-1.30524
-0.0587498
-1.25663
-0.0485773
-1.21719
-0.0394592
-1.18569
-0.0315182
-1.16092
-0.0247824
-1.14175
-0.0191798
-1.1271
-0.0146291
-1.11605
-0.0110458
-1.10771
-0.00834708
-1.10122
-0.00650956
-1.09573
-0.00547157
-1.09047
-0.00525195
-1.08458
-0.00588461
-0.00786861
-1.07669
-2.14986
-0.154653
-2.15069
-0.0761625
-2.19215
-0.0104434
-2.23461
0.00427306
-2.27139
7.96029e-05
-2.30096
-0.012234
-2.3269
-0.0245271
-2.35038
-0.039623
-2.36795
-0.0632461
-2.37817
-0.0921076
-2.38028
-0.123922
-2.37086
-0.158722
-2.347
-0.189526
-2.28947
-0.226151
-2.20911
-0.236099
-2.1637
-0.167878
-2.15199
-0.0917012
-2.17422
-0.0131747
-2.21432
0.0391969
-2.25649
0.0613355
-2.29004
0.0563572
-2.30731
0.029498
-2.29655
-0.0205826
-2.245
-0.0891124
-2.16888
-0.13222
-2.1137
-0.108672
-2.08283
-0.0762272
-2.04455
-0.0900723
-1.9726
-0.145126
-1.86831
-0.199414
-1.7634
-0.20734
-1.66352
-0.20129
-1.56532
-0.196367
-1.47634
-0.179609
-1.39785
-0.159124
-1.33085
-0.136664
-1.27491
-0.114697
-1.22909
-0.0943463
-1.19223
-0.0763094
-1.16304
-0.0607346
-1.14024
-0.0475841
-1.12273
-0.0367087
-1.10946
-0.0278835
-1.09955
-0.0209323
-1.09224
-0.0156983
-1.08673
-0.0120048
-1.08237
-0.00979858
-1.07857
-0.0090493
-1.07464
-0.00980529
-0.0124016
-1.07013
0.393651
-0.132471
0.331213
-0.0137412
0.296202
0.0245165
0.24491
0.0555254
0.159808
0.0851897
0.0516485
0.0959736
-0.04209
0.0690671
-0.103281
0.0215418
-0.155371
-0.0111016
-0.22715
-0.0202883
-0.344871
-0.00630578
-0.536085
0.0325473
-0.787302
0.0616403
-1.0724
0.0588767
-1.36977
0.0612463
-1.62348
0.0857597
-1.81051
0.0954132
-1.92942
0.105757
-2.02244
0.132218
-2.10462
0.143523
-2.17772
0.129452
-2.2305
0.0822445
-2.24347
-0.00767373
-2.165
-0.167615
-2.03467
-0.26258
-1.99636
-0.146954
-2.00783
-0.064742
-1.99416
-0.103661
-1.91784
-0.221389
-1.78481
-0.332511
-1.68193
-0.310306
-1.59014
-0.293055
-1.48994
-0.296552
-1.40287
-0.2666
-1.32534
-0.236638
-1.26077
-0.201248
-1.20758
-0.167873
-1.16474
-0.137231
-1.13067
-0.110382
-1.10395
-0.0874589
-1.08326
-0.0682891
-1.06745
-0.0525004
-1.0556
-0.039738
-1.04686
-0.0296894
-1.04047
-0.0220756
-1.03576
-0.0166984
-1.03217
-0.0134103
-1.02913
-0.0120913
-1.02621
-0.0127512
-0.0156215
-1.023
2.62791
-0.0648472
2.61388
0.000316968
2.61578
0.0225719
2.64843
0.0228958
2.72456
0.00910866
2.83385
-0.0132581
2.93944
-0.0365466
3.01221
-0.0512936
3.04984
-0.0487359
3.05543
-0.0258641
3.03417
0.0149347
3.00219
0.064528
2.94802
0.115857
2.84154
0.165355
2.69186
0.210973
2.51793
0.25965
2.3048
0.308501
2.05141
0.359115
1.77035
0.413322
1.45239
0.461499
1.08644
0.495407
0.658597
0.510153
0.142162
0.508812
-0.528987
0.503498
-1.17707
0.385512
-1.57982
0.255771
-1.77636
0.131782
-1.84373
-0.0363414
-1.7858
-0.279361
-1.60981
-0.508501
-1.54869
-0.371403
-1.48781
-0.35393
-1.38306
-0.401312
-1.30458
-0.345125
-1.22692
-0.31425
-1.16648
-0.261684
-1.11713
-0.217236
-1.07886
-0.175434
-1.04944
-0.139812
-1.02704
-0.109941
-1.01015
-0.0851782
-0.997647
-0.0649832
-0.988657
-0.0487288
-0.98237
-0.0359657
-0.978132
-0.0263122
-0.975358
-0.0194852
-0.97353
-0.0152504
-0.97218
-0.0134339
-0.970945
-0.0139937
-0.0169444
-0.969627
6.36307
-0.00615882
6.33234
0.0310324
6.30601
0.0489193
6.27666
0.0522352
6.2386
0.0471904
6.18716
0.0381725
6.12147
0.0291539
6.04442
0.0257407
5.96195
0.0337514
5.87828
0.0578033
5.79425
0.0989921
5.70274
0.156058
5.59454
0.223997
5.46361
0.29632
5.30417
0.370377
5.11693
0.446873
4.90013
0.525294
4.65284
0.606382
4.37692
0.689233
4.0702
0.76821
3.72898
0.836598
3.35033
0.888779
2.9361
0.92304
2.49954
0.940083
2.00899
0.876113
1.49521
0.769522
0.964502
0.66249
0.357802
0.570374
-0.422791
0.501295
-1.07514
0.143927
-1.31512
-0.131472
-1.30272
-0.366342
-1.21108
-0.492974
-1.17316
-0.383067
-1.09772
-0.38962
-1.0471
-0.312303
-1.00149
-0.262903
-0.968384
-0.208532
-0.944302
-0.163897
-0.926505
-0.127711
-0.913569
-0.0981183
-0.904311
-0.074212
-0.898047
-0.055027
-0.894075
-0.0399417
-0.891879
-0.028523
-0.890979
-0.0204011
-0.89095
-0.0152711
-0.891435
-0.0129554
-0.89208
-0.0133354
-0.0163961
-0.892635
4.63857
0.0511129
4.59707
0.0725269
4.56518
0.0808251
4.53322
0.0842024
4.49853
0.0818611
4.4598
0.0769114
4.41515
0.0737898
4.3643
0.076604
4.30926
0.0888011
4.25516
0.111909
4.20813
0.146006
4.1731
0.191108
4.15119
0.245927
4.13844
0.30907
4.12861
0.380244
4.11544
0.460046
4.09214
0.548595
4.05303
0.64554
3.9933
0.749011
3.90687
0.854643
3.78691
0.956538
3.62759
1.0481
3.42789
1.12275
3.19573
1.17221
2.89976
1.17207
2.53991
1.12941
2.13944
1.06297
1.72516
0.984628
1.33752
0.888861
0.830617
0.650881
0.200883
0.498347
-0.482032
0.316554
-0.924544
-0.0504203
-0.989624
-0.317988
-0.925916
-0.453372
-0.902108
-0.3361
-0.863204
-0.30183
-0.836755
-0.234969
-0.820036
-0.180553
-0.807909
-0.139859
-0.799858
-0.106178
-0.794622
-0.0794561
-0.791793
-0.0578656
-0.790842
-0.0408953
-0.791313
-0.0280685
-0.792829
-0.0188782
-0.795045
-0.01305
-0.797587
-0.0103998
-0.800182
-0.0107167
-0.013923
-0.802682
4.20304
0.115531
4.15347
0.122086
4.11033
0.123938
4.07104
0.123529
4.03233
0.120547
3.99213
0.11709
3.94935
0.116542
3.90382
0.122139
3.85625
0.136362
3.80754
0.160585
3.75851
0.195033
3.7102
0.23941
3.66344
0.292704
3.61863
0.353847
3.5764
0.422464
3.53769
0.498769
3.50316
0.583109
3.47291
0.675765
3.44553
0.776385
3.41686
0.883332
3.38004
0.993368
3.32674
1.10139
3.24926
1.20024
3.14102
1.28049
2.98385
1.32927
2.77043
1.34282
2.50981
1.32361
2.22093
1.27354
1.92257
1.18725
1.54251
1.0309
1.16342
0.877423
0.807265
0.672676
0.280729
0.476102
-0.315761
0.278502
-0.701509
-0.0675885
-0.722689
-0.314883
-0.706855
-0.317668
-0.688257
-0.253608
-0.682741
-0.186029
-0.675946
-0.146642
-0.672777
-0.109415
-0.670906
-0.0813662
-0.671063
-0.0576939
-0.672762
-0.0391899
-0.675545
-0.0252796
-0.679102
-0.0153063
-0.683383
-0.00875363
-0.688412
-0.00533771
-0.693828
-0.00527405
-0.00881516
-0.698952
3.44129
0.169516
3.39394
0.169416
3.35467
0.163194
3.31923
0.158946
3.28511
0.154675
3.25079
0.151407
3.21583
0.151527
3.18053
0.157454
3.1458
0.171163
3.11233
0.194005
3.08072
0.226668
3.05107
0.269075
3.0231
0.320661
2.99628
0.380645
2.97032
0.448424
2.94548
0.523597
2.92268
0.605915
2.90321
0.695249
2.88819
0.791426
2.87756
0.893971
2.86925
1.0017
2.85865
1.11198
2.83891
1.21998
2.80093
1.31846
2.73186
1.39833
2.62277
1.45189
2.47292
1.47345
2.28805
1.4584
2.07312
1.40214
1.80856
1.29549
1.52842
1.15759
1.2223
0.978781
0.90504
0.793357
0.610089
0.57341
0.134234
0.408245
-0.321566
0.141011
-0.551496
-0.0876975
-0.5253
-0.279861
-0.53964
-0.171684
-0.536437
-0.14987
-0.539222
-0.106654
-0.539564
-0.0809936
-0.542842
-0.0544245
-0.547247
-0.0348003
-0.551949
-0.020564
-0.557119
-0.0101022
-0.563174
-0.00266057
-0.57021
0.00172023
-0.57787
0.00236825
-0.00125352
-0.585481
2.73015
0.23255
2.68433
0.215243
2.64623
0.201297
2.6132
0.191957
2.58325
0.184604
2.55481
0.179817
2.52721
0.179148
2.50044
0.18415
2.4751
0.196489
2.45166
0.217441
2.43044
0.247868
2.41146
0.288038
2.39447
0.337627
2.37911
0.396023
2.36503
0.462502
2.35227
0.536367
2.34126
0.616945
2.33289
0.703611
2.32838
0.7959
2.32882
0.893531
2.33437
0.996152
2.34345
1.10289
2.35198
1.21145
2.35303
1.31741
2.33731
1.41401
2.29629
1.49292
2.22463
1.54512
2.12059
1.56245
1.98384
1.5389
1.80974
1.46956
1.60916
1.35817
1.38108
1.20687
1.14321
1.03122
0.887136
0.829514
0.64753
0.647849
0.363093
0.425382
-0.0335551
0.308923
-0.339457
0.02604
-0.391952
-0.119215
-0.390114
-0.151735
-0.403776
-0.0929465
-0.401193
-0.0835588
-0.407958
-0.047653
-0.414679
-0.0280606
-0.419188
-0.0160605
-0.423198
-0.00604747
-0.428477
0.00266286
-0.43523
0.00850213
-0.443219
0.0103576
0.00713327
-0.451635
1.93749
0.292437
1.90115
0.251552
1.87232
0.230153
1.84818
0.216094
1.82776
0.205058
1.80956
0.198027
1.79297
0.195749
1.77806
0.199089
1.76518
0.209329
1.75484
0.227764
1.74739
0.255338
1.7428
0.292653
1.74067
0.339766
1.74048
0.396218
1.74169
0.461258
1.74409
0.533972
1.7478
0.613248
1.75343
0.697968
1.7621
0.78726
1.775
0.880637
1.79304
0.978106
1.81606
1.07985
1.84214
1.18538
1.86705
1.2925
1.88455
1.39654
1.88755
1.48992
1.86972
1.56295
1.82644
1.60571
1.75508
1.61025
1.65359
1.57106
1.52486
1.48692
1.3707
1.36101
1.19986
1.20205
1.0117
1.01768
0.829446
0.830086
0.626025
0.6288
0.473784
0.461247
0.195483
0.304316
-0.0812779
0.157469
-0.243214
0.0103306
-0.262812
-0.0733129
-0.255317
-0.0911063
-0.26954
-0.0334368
-0.276744
-0.0208263
-0.275691
-0.0171089
-0.272811
-0.00889691
-0.271837
0.00171338
-0.273065
0.0097157
-0.27655
0.0138322
0.0122022
-0.281637
1.11464
0.349528
1.09791
0.268288
1.08389
0.24415
1.07515
0.224885
1.0702
0.209991
1.06737
0.200836
1.06597
0.197083
1.066
0.199134
1.06775
0.207734
1.07159
0.223923
1.07783
0.249095
1.08634
0.28419
1.09683
0.3293
1.10905
0.38399
1.12277
0.447557
1.13786
0.518941
1.15446
0.596675
1.17315
0.67927
1.19483
0.765518
1.22051
0.854928
1.25114
0.947531
1.28698
1.04402
1.32721
1.14513
1.36949
1.25021
1.40985
1.35618
1.44306
1.45671
1.46353
1.5425
1.46628
1.60293
1.44784
1.62873
1.40589
1.61301
1.3403
1.5525
1.25228
1.44905
1.14568
1.30863
1.02283
1.14052
0.894095
0.958819
0.754313
0.768588
0.623565
0.591992
0.491953
0.435932
0.362218
0.287248
0.183647
0.188923
-0.000953395
0.111282
-0.118244
0.0261769
-0.143768
-0.00792067
-0.142586
-0.0220177
-0.13802
-0.0216897
-0.130841
-0.0160599
-0.119734
-0.00941974
-0.108807
-0.00127729
-0.10012
0.00513809
0.00702569
-0.0949097
0.401052
0.34791
0.405182
0.264205
0.410029
0.239266
0.418393
0.216515
0.430815
0.197559
0.44661
0.185074
0.463582
0.180155
0.479176
0.183484
0.491256
0.195601
0.499302
0.215828
0.504957
0.243418
0.510742
0.278408
0.518615
0.321411
0.529664
0.372931
0.544198
0.432981
0.562254
0.500816
0.584018
0.574892
0.609892
0.653411
0.640504
0.734937
0.676071
0.819374
0.717303
0.906289
0.764465
0.996863
0.816926
1.09267
0.873315
1.19377
0.93126
1.29827
0.987124
1.4009
1.0366
1.49302
1.07562
1.56389
1.10054
1.6038
1.10852
1.60505
1.09796
1.56307
1.06867
1.47832
1.02192
1.35538
0.959521
1.20293
0.886144
1.03224
0.802155
0.852533
0.714839
0.679272
0.629081
0.521716
0.537089
0.379256
0.457664
0.268324
0.392367
0.176593
0.316219
0.102329
0.251739
0.056509
0.200568
0.0291181
0.165665
0.0131978
0.144958
0.00467065
0.134665
0.000817819
0.133259
7.98238e-05
0.137729
0.000695788
0.000397673
0.144377
-0.302843
0.259427
-0.25154
0.212927
-0.198106
0.185933
-0.152059
0.170426
-0.118284
0.163755
-0.0974892
0.164222
-0.08729
0.169811
-0.0833883
0.179624
-0.0820176
0.194246
-0.0808233
0.214628
-0.0787318
0.241242
-0.0747413
0.274368
-0.0677131
0.314348
-0.0563001
0.361535
-0.0394973
0.41621
-0.0166688
0.477945
0.0125989
0.545622
0.0483854
0.617635
0.0907453
0.692569
0.139099
0.771011
0.192821
0.852602
0.251773
0.937884
0.316012
1.02844
0.385191
1.1246
0.45829
1.22517
0.533243
1.32594
0.606684
1.41958
0.676292
1.49429
0.738415
1.54168
0.789522
1.55392
0.82733
1.52525
0.850442
1.45521
0.858329
1.3475
0.851449
1.20983
0.831549
1.05215
0.799335
0.884708
0.7582
0.720412
0.711864
0.568062
0.659645
0.431464
0.610539
0.317425
0.563437
0.223688
0.516118
0.149619
0.476268
0.0963233
0.445434
0.0599508
0.422649
0.0359722
0.406452
0.0208512
0.395355
0.0118977
0.388418
0.00705013
0.3847
0.00443841
0.00215309
0.382948
-1.27595
0.180224
-1.21599
0.152911
-1.16073
0.130643
-1.10657
0.116269
-1.05296
0.110148
-1.00071
0.112029
-0.951726
0.12079
-0.907639
0.135527
-0.868933
0.155534
-0.834723
0.180409
-0.803457
0.21002
-0.773573
0.244513
-0.743638
0.284328
-0.712008
0.329918
-0.677253
0.381488
-0.63808
0.438814
-0.5936
0.501159
-0.543523
0.567494
-0.487869
0.636952
-0.426214
0.709417
-0.358471
0.784803
-0.284439
0.863859
-0.203779
0.947764
-0.116159
1.03696
-0.021448
1.13048
0.0792896
1.22517
0.182149
1.31671
0.283147
1.39329
0.379608
1.44524
0.468927
1.46461
0.549801
1.44436
0.619866
1.38515
0.677135
1.29024
0.720798
1.16614
0.750742
1.02221
0.766688
0.868794
0.769819
0.71727
0.762247
0.575598
0.74546
0.448245
0.723788
0.339092
0.698995
0.248449
0.672641
0.175936
0.648032
0.120913
0.627034
0.0809655
0.610025
0.0529666
0.596759
0.0341023
0.586649
0.0220005
0.579061
0.0146572
0.573245
0.010272
0.00722918
0.56815
-2.14012
0.123478
-2.09221
0.104997
-2.04866
0.0870644
-2.00558
0.0732018
-1.96062
0.0652358
-1.91266
0.0640201
-1.86157
0.0697243
-1.80812
0.0820859
-1.75325
0.100644
-1.69774
0.124873
-1.64206
0.154322
-1.58616
0.188669
-1.52967
0.227826
-1.47164
0.271902
-1.41102
0.320868
-1.34675
0.374511
-1.27796
0.432376
-1.20422
0.493801
-1.12549
0.558219
-1.04145
0.625409
-0.952037
0.695356
-0.856846
0.768655
-0.755094
0.846023
-0.645848
0.927703
-0.528107
1.01276
-0.401414
1.09851
-0.265704
1.18098
-0.124223
1.25179
0.0186296
1.3024
0.156472
1.32676
0.281899
1.31892
0.393842
1.27322
0.494999
1.18908
0.584245
1.07689
0.659799
0.946672
0.719915
0.808679
0.764051
0.673104
0.793056
0.546568
0.808608
0.432686
0.813839
0.333864
0.811461
0.250827
0.803948
0.183458
0.793925
0.130958
0.783343
0.0915589
0.773297
0.0630046
0.76431
0.0430882
0.756487
0.029827
0.749665
0.0214863
0.7434
0.0165328
0.0136551
0.736952
-2.79171
0.0837572
-2.75661
0.0699047
-2.72528
0.0557399
-2.69568
0.0436239
-2.66583
0.0353862
-2.63395
0.0321362
-2.59871
0.0344941
-2.55932
0.0426613
-2.51529
0.0565784
-2.46646
0.0760565
-2.41292
0.100789
-2.35475
0.130483
-2.29188
0.164963
-2.22407
0.204079
-2.15088
0.247666
-2.07181
0.295468
-1.98645
0.347029
-1.89454
0.401894
-1.79595
0.459629
-1.6905
0.519975
-1.57802
0.582891
-1.45807
0.648675
-1.32971
0.717675
-1.19185
0.789848
-1.04339
0.864279
-0.883801
0.938924
-0.712992
1.01018
-0.533092
1.07188
-0.347907
1.11721
-0.162104
1.14099
0.0176613
1.13916
0.181296
1.10957
0.324458
1.04595
0.454304
0.947056
0.571178
0.829762
0.671292
0.708539
0.752499
0.591907
0.814675
0.48442
0.859396
0.387976
0.889558
0.303707
0.908182
0.232215
0.918115
0.173549
0.921994
0.127087
0.921972
0.0915626
0.919623
0.0653358
0.915993
0.0467195
0.9117
0.0341303
0.907016
0.0261695
0.901885
0.0216416
0.019575
0.895952
-3.31456
0.0555198
-3.29024
0.0455813
-3.26937
0.0348527
-3.25087
0.0251133
-3.23331
0.0177725
-3.21504
0.0138811
-3.19456
0.0140498
-3.17055
0.0186328
-3.14181
0.0278347
-3.10739
0.0416307
-3.06655
0.0599148
-3.01862
0.0825597
-2.96307
0.109408
-2.89935
0.140368
-2.82693
0.175271
-2.74535
0.213872
-2.65419
0.255868
-2.5532
0.3009
-2.44222
0.348625
-2.32106
0.398806
-2.18948
0.451329
-2.04705
0.506248
-1.89294
0.563594
-1.72622
0.623121
-1.54593
0.683998
-1.35152
0.744513
-1.14317
0.801818
-0.922943
0.851639
-0.694919
0.889191
-0.464332
0.910405
-0.237303
0.912096
-0.0208912
0.893163
0.170223
0.854863
0.340192
0.777076
0.494931
0.674991
0.630789
0.572671
0.744598
0.478095
0.835768
0.393261
0.906002
0.317765
0.958266
0.251474
0.995745
0.194757
1.02148
0.147816
1.03827
0.110289
1.04852
0.0813085
1.05415
0.0597109
1.05661
0.0442589
1.05695
0.0337859
1.05583
0.0272741
1.05356
0.0238994
0.0230732
1.05006
-3.74872
0.0336705
-3.73092
0.0277687
-3.71666
0.0206147
-3.70527
0.0137258
-3.69563
0.00815238
-3.68642
0.00467847
-3.67622
0.00384427
-3.66353
0.00596853
-3.64696
0.0112623
-3.62513
0.0198257
-3.59681
0.0316132
-3.56084
0.0465843
-3.51607
0.0646695
-3.4615
0.0857986
-3.39615
0.109899
-3.31913
0.136821
-3.22962
0.166385
-3.12705
0.198342
-3.01089
0.232488
-2.88072
0.268642
-2.73606
0.306688
-2.57639
0.346562
-2.40098
0.388186
-2.20911
0.431255
-2.0002
0.475076
-1.77408
0.518387
-1.53143
0.559187
-1.27452
0.594741
-1.00739
0.622046
-0.73542
0.638459
-0.465276
0.64198
-0.204458
0.632308
0.0377025
0.61266
0.25142
0.563386
0.440205
0.486239
0.606464
0.406432
0.747246
0.337319
0.862256
0.278254
0.95363
0.2264
1.02447
0.180649
1.07803
0.141194
1.11747
0.108346
1.14578
0.0819696
1.16559
0.0615058
1.17911
0.0461976
1.18814
0.0352333
1.19405
0.0278572
1.19788
0.0234359
1.20025
0.0215349
0.0220092
1.20133
-4.0901
0.0166385
-4.07587
0.0135269
-4.06505
0.00981756
-4.05749
0.00615364
-4.0524
0.00307482
-4.04869
0.000996288
-4.04503
0.000179033
-4.03991
0.000843968
-4.0318
0.0031446
-4.01912
0.00714661
-4.00034
0.0128618
-3.974
0.0202504
-3.93861
0.0292883
-3.89277
0.0399803
-3.83515
0.0522813
-3.76443
0.0661021
-3.67944
0.0813878
-3.5791
0.0980201
-3.46249
0.115901
-3.3288
0.134933
-3.1772
0.155066
-3.00691
0.176257
-2.81716
0.198424
-2.60727
0.221376
-2.3769
0.244699
-2.12623
0.26772
-1.85641
0.28937
-1.56996
0.308297
-1.27102
0.323115
-0.965184
0.332615
-0.65896
0.335758
-0.358924
0.332265
-0.0691912
0.322927
0.191618
0.302633
0.416786
0.261123
0.608821
0.214407
0.770062
0.176061
0.902515
0.1458
1.00951
0.119404
1.09428
0.0958574
1.16007
0.0754006
1.21009
0.0583198
1.24748
0.0445866
1.27509
0.0339109
1.29538
0.0259087
1.31041
0.0201816
1.32188
0.0163732
1.3311
0.0142227
1.33896
0.0136896
0.0152224
1.34576
-4.34178
-4.32824
-4.31842
-4.31227
-4.30919
-4.30821
-4.30805
-4.3072
-4.30406
-4.2969
-4.28404
-4.26382
-4.23449
-4.19448
-4.14222
-4.07611
-3.99474
-3.89671
-3.78082
-3.64589
-3.49083
-3.31458
-3.11616
-2.8948
-2.65007
-2.38235
-2.09299
-1.78468
-1.46154
-1.12894
-0.793206
-0.460916
-0.137962
0.164675
0.425772
0.640164
0.816221
0.962024
1.08141
1.17726
1.25266
1.31099
1.35558
1.38949
1.41539
1.43557
1.45194
1.46618
1.47987
1.49509
0.008117
-0.000158923
0.00814991
-4.35009e-05
0.00816628
-2.82563e-05
0.00816291
-7.36862e-06
0.00814646
5.94277e-06
0.00812369
1.22816e-05
0.00809747
1.57042e-05
0.00806882
1.81144e-05
0.00803841
1.9903e-05
0.0080068
2.11183e-05
0.00797442
2.19103e-05
0.00794146
2.24616e-05
0.00790802
2.29077e-05
0.0078741
2.32845e-05
0.00783976
2.36058e-05
0.00780501
2.38601e-05
0.00776992
2.4048e-05
0.00773453
2.41501e-05
0.00769891
2.41662e-05
0.00766353
2.36935e-05
0.00762737
2.42074e-05
0.00758846
2.67253e-05
0.00754689
2.91998e-05
0.00750449
2.96608e-05
0.00746221
2.91508e-05
0.00742025
2.84421e-05
0.00737866
2.77076e-05
0.00733751
2.69255e-05
0.00729681
2.61408e-05
0.00725661
2.53563e-05
0.00721699
2.45079e-05
0.0071781
2.35392e-05
0.00714011
2.244e-05
0.00710319
2.12141e-05
0.00706749
1.98682e-05
0.00703319
1.84246e-05
0.00700041
1.69126e-05
0.00696923
1.53543e-05
0.00693974
1.37588e-05
0.00691203
1.21359e-05
0.00688615
1.04515e-05
0.0068623
8.58917e-06
0.00684101
6.30596e-06
0.00682308
3.23049e-06
0.0068094
-8.36206e-07
0.0068006
-5.43046e-06
0.00679622
-9.57523e-06
0.00679593
-1.33886e-05
0.00680418
-2.13799e-05
-4.11203e-05
0.00683287
0.00787489
-8.60168e-05
0.00784925
-3.73933e-05
0.00781164
-1.04547e-05
0.0077877
-2.70226e-06
0.00776912
5.32432e-06
0.00775166
1.06256e-05
0.0077354
1.29172e-05
0.00772053
1.39778e-05
0.00770651
1.49475e-05
0.00769268
1.59677e-05
0.00767872
1.68626e-05
0.00766457
1.75331e-05
0.00765024
1.80189e-05
0.00763573
1.83845e-05
0.00762101
1.86651e-05
0.00760607
1.88528e-05
0.00759093
1.89131e-05
0.0075757
1.87419e-05
0.00756076
1.80717e-05
0.00754538
1.75609e-05
0.00752632
2.13755e-05
0.00750651
2.45447e-05
0.00748953
2.37934e-05
0.00747381
2.23686e-05
0.00745799
2.13186e-05
0.00744186
2.0306e-05
0.00742544
1.92777e-05
0.00740875
1.82397e-05
0.00739175
1.72762e-05
0.0073745
1.63078e-05
0.00735709
1.52218e-05
0.00733963
1.39993e-05
0.00732222
1.26306e-05
0.00730495
1.10988e-05
0.00728796
9.40023e-06
0.00727142
7.56631e-06
0.00725551
5.59235e-06
0.00724038
3.42218e-06
0.00722628
1.01841e-06
0.0072136
-1.68346e-06
0.00720277
-4.82274e-06
0.0071941
-8.49815e-06
0.00718785
-1.27822e-05
0.00718432
-1.80747e-05
0.00718431
-2.51631e-05
0.00718983
-3.48179e-05
0.007204
-4.72793e-05
0.00723014
-6.29485e-05
0.00726877
-8.37484e-05
-0.000106582
0.00730979
0.00787789
-1.44877e-05
0.00783725
-1.41981e-05
0.00781578
-6.45652e-06
0.00780123
-5.10048e-06
0.00779262
-3.01552e-06
0.00778588
4.6693e-07
0.00777873
3.22277e-06
0.00777089
5.04934e-06
0.00776251
6.60485e-06
0.00775357
8.22305e-06
0.00774391
9.82195e-06
0.00773345
1.12597e-05
0.00772215
1.24674e-05
0.00771008
1.34702e-05
0.00769728
1.42958e-05
0.00768377
1.4957e-05
0.00766956
1.54697e-05
0.00765448
1.5871e-05
0.00763794
1.63311e-05
0.00761976
1.71764e-05
0.00760283
1.97871e-05
0.00758745
2.15299e-05
0.00757193
2.04504e-05
0.00755571
1.91754e-05
0.00753917
1.79342e-05
0.00752234
1.67137e-05
0.00750529
1.54507e-05
0.00748808
1.41491e-05
0.00747079
1.28949e-05
0.00745343
1.16402e-05
0.00743608
1.0261e-05
0.0074188
8.7262e-06
0.00740168
7.01912e-06
0.00738481
5.11633e-06
0.00736833
2.99937e-06
0.00735241
6.51675e-07
0.0073373
-1.99255e-06
0.00732325
-5.01305e-06
0.00731049
-8.48681e-06
0.00729931
-1.25438e-05
0.00729018
-1.7344e-05
0.0072835
-2.30489e-05
0.00727961
-2.97868e-05
0.00727866
-3.76543e-05
0.00728038
-4.69662e-05
0.00728452
-5.85582e-05
0.00729216
-7.38267e-05
0.0073058
-9.47015e-05
0.00732777
-0.000123329
-0.000156779
0.00735953
0.00793864
-3.32463e-06
0.00791583
-8.58647e-06
0.0079001
-7.92114e-06
0.00788552
-7.07264e-06
0.00787205
-6.06766e-06
0.00785954
-3.50987e-06
0.00784682
-4.92978e-07
0.00783341
2.07122e-06
0.00781951
4.17124e-06
0.00780535
6.06864e-06
0.00779099
7.8676e-06
0.00777636
9.51393e-06
0.0077614
1.09484e-05
0.00774611
1.21444e-05
0.00773049
1.30988e-05
0.00771458
1.38365e-05
0.00769838
1.43915e-05
0.00768179
1.49009e-05
0.00766457
1.56768e-05
0.00764655
1.71449e-05
0.00762915
1.9264e-05
0.00761346
1.92035e-05
0.00759748
1.78937e-05
0.00758112
1.64601e-05
0.00756442
1.50477e-05
0.00754739
1.36574e-05
0.00753005
1.22376e-05
0.00751245
1.07686e-05
0.00749469
9.2869e-06
0.00747685
7.74988e-06
0.007459
6.06967e-06
0.00744124
4.19343e-06
0.00742368
2.07614e-06
0.00740651
-3.28656e-07
0.00738996
-3.06389e-06
0.0073742
-6.18006e-06
0.00735946
-9.72921e-06
0.00734598
-1.37692e-05
0.00733396
-1.84338e-05
0.00732356
-2.38656e-05
0.00731499
-3.0195e-05
0.0073086
-3.76758e-05
0.00730486
-4.66334e-05
0.0073043
-5.72906e-05
0.0073072
-6.978e-05
0.00731324
-8.42222e-05
0.00732115
-0.000101027
0.00732922
-0.000121528
0.00733663
-0.000148563
-0.000184571
0.00734663
0.00794267
3.97777e-06
0.00791689
1.29797e-07
0.00789568
-3.82659e-06
0.0078773
-5.191e-06
0.00786081
-6.00388e-06
0.0078464
-5.52508e-06
0.00783337
-3.84178e-06
0.00782082
-1.71569e-06
0.00780831
3.89501e-07
0.00779571
2.39475e-06
0.00778297
4.31445e-06
0.00777003
6.11212e-06
0.00775681
7.72375e-06
0.00774326
9.09561e-06
0.00772938
1.02026e-05
0.0077152
1.10308e-05
0.00770077
1.15726e-05
0.00768624
1.18925e-05
0.00767178
1.22924e-05
0.00765622
1.47006e-05
0.00764012
1.74995e-05
0.00762493
1.63766e-05
0.00760983
1.44668e-05
0.0075944
1.28449e-05
0.0075785
1.13807e-05
0.00756214
9.9701e-06
0.00754533
8.53428e-06
0.00752815
7.02654e-06
0.00751066
5.43992e-06
0.00749299
3.73789e-06
0.00747523
1.83786e-06
0.00745752
-3.55594e-07
0.00744004
-2.89706e-06
0.00742296
-5.81863e-06
0.00740649
-9.16395e-06
0.0073908
-1.29933e-05
0.00737605
-1.73583e-05
0.00736241
-2.2327e-05
0.0073501
-2.80423e-05
0.0073393
-3.46516e-05
0.00733009
-4.22844e-05
0.00732256
-5.11335e-05
0.00731692
-6.15096e-05
0.00731346
-7.38576e-05
0.00731271
-8.86486e-05
0.00731548
-0.000106202
0.00732195
-0.000126512
0.0073311
-0.000149414
0.00734036
-0.000175853
-0.000209527
0.00734762
0.00794745
6.4734e-06
0.00792781
2.76116e-06
0.00791126
-4.40825e-06
0.00789746
-7.90159e-06
0.00788445
-9.43126e-06
0.00787192
-9.39671e-06
0.00785966
-7.9633e-06
0.00784729
-5.67016e-06
0.00783448
-3.09837e-06
0.00782116
-5.62012e-07
0.00780736
1.81919e-06
0.00779314
3.98104e-06
0.00777853
5.87064e-06
0.00776358
7.45158e-06
0.0077483
8.70719e-06
0.00773272
9.61131e-06
0.00771695
1.01017e-05
0.00770137
9.93952e-06
0.00768589
9.93785e-06
0.00766816
1.4503e-05
0.00765005
1.78802e-05
0.00763315
1.52773e-05
0.00761666
1.24326e-05
0.00760002
1.04436e-05
0.00758308
8.76241e-06
0.00756582
7.18197e-06
0.00754827
5.59105e-06
0.00753043
3.93016e-06
0.00751239
2.1552e-06
0.00749425
1.9799e-07
0.00747613
-2.03759e-06
0.00745816
-4.63356e-06
0.00744046
-7.63196e-06
0.00742315
-1.10662e-05
0.00740639
-1.49753e-05
0.00739034
-1.94206e-05
0.00737516
-2.449e-05
0.00736094
-3.02838e-05
0.00734791
-3.69244e-05
0.00733631
-4.45895e-05
0.00732624
-5.34623e-05
0.00731782
-6.36671e-05
0.00731113
-7.53766e-05
0.00730604
-8.88893e-05
0.00730239
-0.000104687
0.00730048
-0.000123398
0.00730083
-0.000145685
0.00730411
-0.000171298
0.00730962
-0.000199592
-0.00023246
0.00731485
0.00794777
8.61111e-06
0.00792858
4.9522e-06
0.0079109
-3.8433e-06
0.00789541
-8.8911e-06
0.00788066
-1.11133e-05
0.00786625
-1.13807e-05
0.00785214
-1.02128e-05
0.00783824
-8.08681e-06
0.00782436
-5.51031e-06
0.00781039
-2.87914e-06
0.00779629
-3.93722e-07
0.00778205
1.85613e-06
0.00776762
3.81538e-06
0.007753
5.4573e-06
0.00773815
6.76465e-06
0.00772301
7.73196e-06
0.00770749
8.35573e-06
0.00769125
8.64481e-06
0.00767444
8.9874e-06
0.00765956
1.17282e-05
0.00764674
1.31811e-05
0.00763267
1.13617e-05
0.00761727
9.30636e-06
0.00760124
7.42566e-06
0.00758476
5.68709e-06
0.00756788
4.02365e-06
0.00755062
2.34989e-06
0.00753305
5.80772e-07
0.00751526
-1.36552e-06
0.00749736
-3.56901e-06
0.00747943
-6.09863e-06
0.00746155
-9.00344e-06
0.00744384
-1.23367e-05
0.00742641
-1.61598e-05
0.00740939
-2.05105e-05
0.00739296
-2.54409e-05
0.00737726
-3.10693e-05
0.00736239
-3.75076e-05
0.00734846
-4.48601e-05
0.00733564
-5.33273e-05
0.00732409
-6.31201e-05
0.00731395
-7.4403e-05
0.00730544
-8.73553e-05
0.00729863
-0.000102142
0.00729328
-0.000118987
0.00728892
-0.000138302
0.0072853
-0.000160847
0.00728278
-0.000187239
0.00728185
-0.000216908
-0.000250053
0.00728155
0.00794816
1.034e-05
0.00792965
6.44256e-06
0.00791232
-3.61202e-06
0.00789695
-1.00251e-05
0.00788261
-1.32001e-05
0.00786879
-1.39623e-05
0.00785526
-1.30576e-05
0.0078419
-1.1068e-05
0.00782857
-8.4945e-06
0.00781513
-5.75578e-06
0.00780151
-3.11559e-06
0.00778766
-6.99939e-07
0.00777355
1.42309e-06
0.00775914
3.21885e-06
0.0077444
4.67445e-06
0.00772929
5.80274e-06
0.00771374
6.63691e-06
0.0076976
7.26701e-06
0.00768086
8.083e-06
0.00766531
9.83009e-06
0.00765115
9.82066e-06
0.00763611
8.38823e-06
0.00762025
6.62657e-06
0.00760379
4.82484e-06
0.00758684
3.06767e-06
0.00756949
1.33624e-06
0.00755179
-4.58043e-07
0.00753385
-2.39547e-06
0.00751574
-4.55036e-06
0.0074975
-6.98975e-06
0.00747919
-9.77398e-06
0.00746089
-1.29462e-05
0.0074427
-1.65672e-05
0.00742475
-2.07112e-05
0.00740714
-2.54224e-05
0.00739001
-3.07605e-05
0.00737351
-3.68486e-05
0.00735778
-4.38034e-05
0.00734282
-5.17382e-05
0.00732873
-6.08158e-05
0.00731565
-7.12184e-05
0.00730356
-8.3153e-05
0.00729262
-9.68803e-05
0.007283
-0.000112597
0.00727482
-0.000130393
0.00726781
-0.000150484
0.00726131
-0.000173229
0.0072549
-0.000199351
0.00724879
-0.000228999
-0.000262056
0.00724287
0.00794871
1.15292e-05
0.00793065
7.45421e-06
0.00791339
-3.47413e-06
0.00789758
-1.07262e-05
0.00788255
-1.46107e-05
0.00786799
-1.58111e-05
0.00785368
-1.51267e-05
0.00783951
-1.32514e-05
0.00782541
-1.07283e-05
0.00781129
-7.97019e-06
0.00779708
-5.27523e-06
0.00778276
-2.81089e-06
0.0077683
-6.43901e-07
0.00775366
1.18917e-06
0.00773881
2.68106e-06
0.00772372
3.84516e-06
0.00770837
4.71277e-06
0.00769276
5.34166e-06
0.00767723
5.96622e-06
0.00766243
7.161e-06
0.0076481
6.59193e-06
0.00763332
5.11945e-06
0.00761792
3.46889e-06
0.00760192
1.76178e-06
0.00758539
3.58032e-08
0.00756844
-1.73351e-06
0.00755112
-3.61567e-06
0.0075335
-5.66095e-06
0.00751559
-7.9378e-06
0.00749747
-1.05138e-05
0.00747918
-1.34474e-05
0.0074608
-1.67892e-05
0.0074424
-2.05949e-05
0.00742414
-2.4926e-05
0.00740611
-2.98549e-05
0.00738839
-3.54637e-05
0.00737112
-4.18474e-05
0.00735444
-4.91378e-05
0.00733834
-5.74801e-05
0.00732292
-6.69982e-05
0.00730831
-7.78318e-05
0.00729441
-9.01597e-05
0.00728128
-0.000104215
0.00726895
-0.000120275
0.00725739
-0.000138551
0.00724681
-0.000159107
0.00723683
-0.000182092
0.00722675
-0.00020791
0.00721631
-0.000236911
-0.000269233
0.00720551
0.00794924
1.2173e-05
0.00793162
8.01217e-06
0.00791452
-3.51105e-06
0.00789858
-1.13093e-05
0.00788323
-1.57187e-05
0.00786834
-1.73435e-05
0.00785377
-1.69497e-05
0.0078394
-1.52639e-05
0.00782518
-1.28667e-05
0.00781102
-1.01788e-05
0.00779684
-7.50071e-06
0.0077826
-5.02568e-06
0.00776825
-2.85382e-06
0.00775377
-1.01875e-06
0.00773912
4.80982e-07
0.00772427
1.65044e-06
0.00770917
2.51544e-06
0.00769385
3.10938e-06
0.00767854
3.61386e-06
0.00766366
4.53753e-06
0.00764897
3.69554e-06
0.00763388
2.14344e-06
0.00761827
5.15506e-07
0.00760215
-1.17245e-06
0.00758557
-2.91968e-06
0.00756857
-4.73415e-06
0.00755118
-6.66355e-06
0.00753342
-8.76864e-06
0.00751532
-1.1118e-05
0.00749694
-1.37704e-05
0.00747833
-1.67846e-05
0.00745956
-2.02246e-05
0.00744068
-2.41322e-05
0.00742184
-2.85498e-05
0.00740315
-3.35822e-05
0.00738464
-3.93265e-05
0.00736641
-4.58508e-05
0.00734858
-5.32991e-05
0.00733113
-6.1835e-05
0.00731412
-7.15778e-05
0.0072977
-8.26435e-05
0.00728177
-9.52011e-05
0.0072664
-0.000109395
0.00725154
-0.000125436