/*--------------------------------*- C++ -*----------------------------------*\
  =========                 |
  \\      /  F ield         | OpenFOAM: The Open Source CFD Toolbox
   \\    /   O peration     | Website:  https://openfoam.org
    \\  /    A nd           | Version:  8
     \\/     M anipulation  |
\*---------------------------------------------------------------------------*/
FoamFile
{
    version     2.0;
    format      ascii;
    class       volVectorField;
    location    "1000";
    object      U;
}
// * * * * * * * * * * * * * * * * * * * * * * * * * * * * * * * * * * * * * //

dimensions      [0 1 -1 0 0 0 0];

internalField   nonuniform List<vector> 
8400
(
(-38.4727 -0.768392 -1.19218e-15)
(-37.6221 -0.720251 -1.91855e-15)
(-37.1439 -0.658862 -2.7284e-15)
(-36.8165 -0.681559 -3.55325e-15)
(-36.546 -0.753516 -4.43986e-15)
(-36.2424 -0.846707 -5.44714e-15)
(-35.8374 -0.949205 -6.61159e-15)
(-35.2829 -1.05506 -7.97423e-15)
(-34.5517 -1.15906 -9.56937e-15)
(-33.6376 -1.25533 -1.14363e-14)
(-32.5479 -1.34019 -1.36163e-14)
(-31.2938 -1.41081 -1.61101e-14)
(-29.8944 -1.4574 -1.88445e-14)
(-28.3877 -1.4645 -2.17004e-14)
(-26.8388 -1.41351 -2.45435e-14)
(-25.3712 -1.27941 -2.72501e-14)
(-24.1268 -1.04952 -2.96657e-14)
(-23.224 -0.749468 -3.15265e-14)
(-22.7297 -0.466165 -3.24507e-14)
(-22.577 -0.268448 -3.22454e-14)
(-22.6307 -0.179241 -3.10851e-14)
(-22.7463 -0.175028 -2.95654e-14)
(-22.7904 -0.230874 -2.83703e-14)
(-22.662 -0.307917 -2.76292e-14)
(-22.333 -0.363514 -2.69484e-14)
(-21.8776 -0.369956 -2.63435e-14)
(-21.3819 -0.3516 -2.58508e-14)
(-20.8521 -0.368654 -2.54737e-14)
(-20.2193 -0.442719 -2.52904e-14)
(-19.4297 -0.539015 -2.54322e-14)
(-18.5069 -0.600387 -2.58071e-14)
(-17.5256 -0.613147 -2.63837e-14)
(-16.548 -0.59789 -2.7089e-14)
(-15.6163 -0.563587 -2.79129e-14)
(-14.7638 -0.520118 -2.87778e-14)
(-14.0098 -0.474716 -2.9628e-14)
(-13.3613 -0.431008 -3.0472e-14)
(-12.8168 -0.391282 -3.13164e-14)
(-12.3694 -0.356608 -3.21381e-14)
(-12.0092 -0.327506 -3.29076e-14)
(-11.7247 -0.304255 -3.36144e-14)
(-11.5043 -0.286777 -3.42681e-14)
(-11.3366 -0.274848 -3.4838e-14)
(-11.211 -0.268255 -3.52962e-14)
(-11.1176 -0.266821 -3.56291e-14)
(-11.0471 -0.270641 -3.58438e-14)
(-10.9906 -0.280109 -3.61038e-14)
(-10.9391 -0.29622 -3.62773e-14)
(-10.8809 -0.321025 -3.6521e-14)
(-10.8038 -0.359425 -3.68452e-14)
(-20.734 -0.496203 9.80919e-15)
(-21.0688 -0.374686 1.0874e-14)
(-21.6187 -0.326216 1.16663e-14)
(-22.1564 -0.316787 1.21661e-14)
(-22.6978 -0.333278 1.25236e-14)
(-23.1775 -0.390503 1.26809e-14)
(-23.5363 -0.496389 1.25266e-14)
(-23.7606 -0.650831 1.20423e-14)
(-23.8884 -0.842596 1.12152e-14)
(-23.9788 -1.05069 9.98901e-15)
(-24.0877 -1.25849 8.30052e-15)
(-24.2447 -1.45255 5.99362e-15)
(-24.439 -1.60777 2.87193e-15)
(-24.4686 -1.72377 -1.02614e-15)
(-23.8323 -1.82359 -5.30378e-15)
(-23.0108 -1.75356 -9.28205e-15)
(-22.4198 -1.47937 -1.34907e-14)
(-21.9082 -0.993298 -1.76363e-14)
(-21.8209 -0.363029 -2.16193e-14)
(-21.9618 0.208645 -2.44314e-14)
(-22.2006 0.540467 -2.5433e-14)
(-22.4299 0.595201 -2.48735e-14)
(-22.5263 0.381555 -2.34923e-14)
(-22.3647 -0.0232129 -2.18923e-14)
(-21.9185 -0.438929 -2.04061e-14)
(-21.3762 -0.629875 -1.89437e-14)
(-20.898 -0.679467 -1.7646e-14)
(-20.4507 -0.816795 -1.67146e-14)
(-19.8795 -1.09197 -1.6132e-14)
(-19.0857 -1.3857 -1.57776e-14)
(-18.1235 -1.51814 -1.56529e-14)
(-17.1225 -1.49799 -1.56587e-14)
(-16.1464 -1.42593 -1.546e-14)
(-15.2257 -1.29916 -1.47545e-14)
(-14.3942 -1.13924 -1.35789e-14)
(-13.6656 -0.967402 -1.20762e-14)
(-13.0439 -0.795578 -1.04581e-14)
(-12.5259 -0.631671 -8.94568e-15)
(-12.1037 -0.480507 -7.72566e-15)
(-11.7669 -0.345065 -6.74216e-15)
(-11.5036 -0.22721 -6.02018e-15)
(-11.3017 -0.127538 -5.423e-15)
(-11.1497 -0.045582 -4.91163e-15)
(-11.0373 0.0197582 -4.45288e-15)
(-10.9552 0.0699017 -4.02642e-15)
(-10.8948 0.106095 -3.436e-15)
(-10.8485 0.129181 -2.91174e-15)
(-10.8092 0.139456 -2.58852e-15)
(-10.7693 0.135935 -2.59778e-15)
(-10.722 0.113354 -2.82754e-15)
(6.9263 -1.63245 2.1332e-15)
(4.4663 0.183335 9.86517e-16)
(3.61132 0.978077 -2.64151e-16)
(2.99668 1.24363 -1.1239e-15)
(2.03531 1.38389 -2.16527e-15)
(0.339375 1.4521 -3.05318e-15)
(-1.43649 1.35834 -2.74775e-15)
(-1.90521 1.0702 -8.61248e-16)
(-1.92842 0.788746 3.79626e-16)
(-2.21352 0.622098 8.39066e-16)
(-3.27757 0.596426 4.37627e-16)
(-5.72605 0.70804 -1.04547e-15)
(-11.5842 0.903387 -4.57295e-15)
(-20.8196 0.959873 -1.19832e-14)
(-22.0726 -0.0298293 -2.30757e-14)
(-19.5484 -0.201157 -2.07354e-14)
(-20.2343 -0.342424 -1.98448e-14)
(-19.5601 -0.46526 -1.83209e-14)
(-19.6197 -0.512942 -1.87607e-14)
(-19.9716 -0.62852 -2.06047e-14)
(-20.6347 -0.802583 -2.30231e-14)
(-21.2611 -1.09114 -2.3907e-14)
(-21.651 -1.48298 -2.28376e-14)
(-21.5358 -1.8742 -2.12404e-14)
(-20.8192 -1.93515 -1.92133e-14)
(-20.3017 -1.56232 -1.58737e-14)
(-20.0335 -1.0073 -1.21832e-14)
(-19.784 -0.974317 -9.53887e-15)
(-19.2591 -1.54508 -7.78679e-15)
(-18.401 -2.2355 -6.55563e-15)
(-17.3461 -2.46293 -6.25302e-15)
(-16.344 -2.42787 -7.58571e-15)
(-15.4009 -2.4106 -9.47404e-15)
(-14.4846 -2.24933 -1.13053e-14)
(-13.6659 -2.01671 -1.23689e-14)
(-12.9564 -1.75863 -1.20804e-14)
(-12.3591 -1.505 -1.06885e-14)
(-11.8668 -1.27052 -8.59065e-15)
(-11.4701 -1.06155 -6.31556e-15)
(-11.1574 -0.879834 -4.09378e-15)
(-10.916 -0.725635 -2.30466e-15)
(-10.7333 -0.597802 -1.0874e-15)
(-10.5977 -0.494356 -4.7388e-16)
(-10.4987 -0.412867 -2.88267e-16)
(-10.4274 -0.351023 -1.01532e-16)
(-10.376 -0.306947 6.92857e-17)
(-10.3374 -0.27935 4.30432e-16)
(-10.305 -0.26724 5.1738e-16)
(-10.2735 -0.270639 4.4323e-16)
(-10.2394 -0.292053 3.00398e-16)
(27.4512 -1.5378 9.01502e-15)
(26.6427 -0.859106 8.99686e-15)
(26.2313 -0.626569 8.90847e-15)
(26.2694 -0.617288 8.94523e-15)
(26.7761 -0.737566 9.01955e-15)
(27.7424 -0.955236 9.19131e-15)
(28.9105 -1.19814 9.30763e-15)
(29.8485 -1.35841 9.39485e-15)
(30.4532 -1.36446 9.16278e-15)
(30.6944 -1.18542 8.66266e-15)
(30.5683 -0.823454 7.94384e-15)
(30.0695 -0.30544 7.17888e-15)
(29.55 0.33481 6.47668e-15)
(28.4391 1.06878 5.19614e-15)
(26.9353 1.83797 3.66648e-15)
(25.3364 2.61528 2.18832e-15)
(23.5125 3.34902 1.078e-15)
(21.5493 3.98411 4.58689e-16)
(19.3241 4.45522 1.01837e-15)
(16.7964 4.64543 3.5187e-16)
(13.7222 4.49186 -1.62783e-15)
(10.1364 3.98036 -5.10356e-15)
(6.08902 3.12108 -1.13597e-14)
(1.86282 1.74203 -2.44858e-14)
(-11.8058 -1.87122 -3.58335e-14)
(-16.2471 -2.52249 -2.37982e-14)
(-16.9248 -2.54663 -1.38085e-14)
(-17.3801 -3.0567 -7.44527e-15)
(-17.1027 -3.74148 -4.33499e-15)
(-16.9227 -4.26567 3.92609e-16)
(-15.9774 -3.8479 6.25467e-15)
(-15.1392 -3.40947 7.10754e-15)
(-14.4152 -3.37981 5.31413e-15)
(-13.4945 -3.03485 1.43978e-15)
(-12.6978 -2.69064 -3.27606e-15)
(-12.0038 -2.29542 -7.26708e-15)
(-11.4385 -1.90849 -1.0847e-14)
(-10.985 -1.54554 -1.35825e-14)
(-10.6294 -1.22385 -1.5862e-14)
(-10.3577 -0.944541 -1.67549e-14)
(-10.1555 -0.707771 -1.69025e-14)
(-10.0087 -0.512127 -1.66415e-14)
(-9.90501 -0.354805 -1.61617e-14)
(-9.83384 -0.232449 -1.5515e-14)
(-9.78666 -0.141648 -1.45698e-14)
(-9.75634 -0.0794279 -1.3339e-14)
(-9.73629 -0.043226 -1.1938e-14)
(-9.72099 -0.0309387 -1.04975e-14)
(-9.70653 -0.0415504 -9.1993e-15)
(-9.69058 -0.0752896 -7.97255e-15)
(64.4616 0.0985135 8.07202e-15)
(63.8473 0.269212 8.09225e-15)
(63.4347 0.333923 8.11426e-15)
(63.146 0.30018 8.15796e-15)
(62.8391 0.188118 8.21229e-15)
(62.397 0.0322171 8.26005e-15)
(61.8029 -0.117237 8.27392e-15)
(61.0778 -0.200882 8.25108e-15)
(60.2693 -0.165 8.18032e-15)
(59.4379 0.0223669 8.08076e-15)
(58.5829 0.370715 7.96407e-15)
(57.7193 0.869941 8.00728e-15)
(56.6512 1.48991 8.08392e-15)
(55.3706 2.20844 7.79991e-15)
(53.8555 3.00925 7.47515e-15)
(52.0923 3.88241 7.57367e-15)
(50.1 4.78792 7.69507e-15)
(47.8663 5.68447 8.59233e-15)
(45.3578 6.5163 9.55521e-15)
(42.5479 7.21372 1.06862e-14)
(39.389 7.72086 1.09994e-14)
(35.8627 7.99588 9.39211e-15)
(31.9623 8.02508 5.83379e-15)
(27.7536 7.79903 -4.19485e-17)
(22.0477 6.97103 -9.56398e-15)
(17.1873 6.16235 -1.80541e-14)
(12.9764 5.29036 -2.84698e-14)
(9.023 4.20406 -4.29507e-14)
(4.35179 2.23296 -6.20431e-14)
(-12.8747 -4.94037 -2.01269e-14)
(-13.2064 -5.09289 6.51425e-15)
(-12.1688 -4.69401 1.26457e-14)
(-12.7368 -4.82557 1.79664e-14)
(-11.9457 -4.0133 1.79638e-14)
(-11.4353 -3.56149 1.64019e-14)
(-10.7872 -2.94931 1.8857e-14)
(-10.2709 -2.45668 2.00052e-14)
(-9.85627 -1.99614 1.87511e-14)
(-9.54602 -1.60973 1.31242e-14)
(-9.31833 -1.28437 6.45723e-15)
(-9.15669 -1.01399 4.25277e-16)
(-9.04576 -0.792872 -4.44316e-15)
(-8.97277 -0.614457 -7.94191e-15)
(-8.92781 -0.473402 -1.02163e-14)
(-8.90323 -0.365162 -1.10526e-14)
(-8.89285 -0.286208 -1.08758e-14)
(-8.89127 -0.233828 -9.92397e-15)
(-8.89404 -0.206442 -8.51496e-15)
(-8.89798 -0.203634 -6.87248e-15)
(-8.90159 -0.226033 -5.25554e-15)
(47.0459 -0.261563 6.55148e-15)
(46.452 -0.115652 6.55457e-15)
(45.9977 0.0282896 6.55827e-15)
(45.6629 0.119973 6.55986e-15)
(45.3331 0.150061 6.55408e-15)
(44.9785 0.147585 6.54133e-15)
(44.568 0.157415 6.52087e-15)
(44.0916 0.229388 6.4928e-15)
(43.5519 0.406091 6.45783e-15)
(42.962 0.714476 6.41976e-15)
(42.4114 1.15977 6.39023e-15)
(41.9561 1.73795 6.37656e-15)
(41.6304 2.43613 6.38811e-15)
(41.43 3.23481 6.41464e-15)
(41.3174 4.11711 6.44599e-15)
(41.2353 5.06886 6.50185e-15)
(41.1127 6.06611 6.58153e-15)
(40.8766 7.0849 6.77838e-15)
(40.4575 8.09647 7.13293e-15)
(39.7882 9.0592 8.01183e-15)
(38.8018 9.92121 8.96786e-15)
(37.4352 10.6216 9.62152e-15)
(35.6353 11.106 9.54312e-15)
(33.3844 11.3376 7.66734e-15)
(30.521 11.1739 3.571e-15)
(27.2741 10.6249 -1.85717e-15)
(23.7955 9.74308 -7.23134e-15)
(20.0277 8.5835 -1.44081e-14)
(15.9271 7.15446 -2.60552e-14)
(9.73781 4.68076 -2.84426e-14)
(6.92963 3.36993 -3.02397e-14)
(-0.324555 -0.46591 -2.69804e-14)
(-10.4226 -5.38997 6.59264e-15)
(-9.09792 -4.57161 3.93221e-15)
(-9.70144 -4.46423 -6.86838e-15)
(-9.15128 -3.4642 3.17632e-15)
(-8.87144 -2.85495 2.09969e-14)
(-8.51568 -2.22937 4.7699e-14)
(-8.26482 -1.74596 6.12038e-14)
(-8.09084 -1.35048 6.3833e-14)
(-7.97894 -1.02455 5.98171e-14)
(-7.91183 -0.762002 5.40001e-14)
(-7.87682 -0.551733 4.69624e-14)
(-7.86461 -0.386836 4.06829e-14)
(-7.86853 -0.261545 3.50681e-14)
(-7.88323 -0.17105 3.06737e-14)
(-7.90546 -0.112441 2.72901e-14)
(-7.92998 -0.0843818 2.47311e-14)
(-7.9549 -0.0862758 2.29863e-14)
(-7.97946 -0.117819 2.12628e-14)
(42.6322 1.11669 6.37642e-15)
(42.0228 1.14309 6.3783e-15)
(41.4847 1.16747 6.37887e-15)
(41.0664 1.17376 6.37975e-15)
(40.6879 1.15056 6.38007e-15)
(40.2996 1.1174 6.37617e-15)
(39.8869 1.10548 6.36624e-15)
(39.4452 1.14731 6.34987e-15)
(38.9727 1.27157 6.32763e-15)
(38.472 1.49766 6.30192e-15)
(37.9548 1.83284 6.27525e-15)
(37.4334 2.2765 6.24906e-15)
(36.9217 2.82113 6.22661e-15)
(36.4339 3.45856 6.21079e-15)
(35.9848 4.18386 6.2034e-15)
(35.5881 4.9945 6.20811e-15)
(35.2525 5.88787 6.22707e-15)
(34.9772 6.86252 6.27495e-15)
(34.7465 7.91118 6.37937e-15)
(34.5214 9.01103 6.64505e-15)
(34.2383 10.1177 7.08793e-15)
(33.8132 11.1641 7.65822e-15)
(33.1539 12.0713 7.97371e-15)
(32.1774 12.7591 8.00856e-15)
(30.7861 13.1222 7.08927e-15)
(28.9515 13.0845 4.98886e-15)
(26.685 12.6241 1.69052e-15)
(23.9866 11.7838 -3.59535e-15)
(20.9145 10.6364 -1.2269e-14)
(17.1947 8.95004 -1.60164e-14)
(13.8514 7.26623 -2.04123e-14)
(9.61149 5.0381 -2.76719e-14)
(6.49477 3.38955 -2.1405e-14)
(0.887867 -0.0976735 -2.64981e-14)
(-7.85816 -4.76267 -6.53798e-14)
(-6.74159 -3.65879 -8.62981e-14)
(-7.24311 -3.243 -9.00859e-14)
(-6.99672 -2.4772 -3.8997e-14)
(-6.84421 -1.90451 1.15137e-14)
(-6.72981 -1.48817 4.22538e-14)
(-6.66466 -1.13822 5.61443e-14)
(-6.63688 -0.861966 6.00947e-14)
(-6.63391 -0.637174 5.85709e-14)
(-6.64867 -0.457971 5.54988e-14)
(-6.67546 -0.318196 5.1844e-14)
(-6.71184 -0.213381 4.84455e-14)
(-6.75285 -0.141641 4.56692e-14)
(-6.80198 -0.103466 4.32101e-14)
(-6.85742 -0.0994928 4.08841e-14)
(-6.91367 -0.129573 3.82125e-14)
(34.8322 1.21116 6.3454e-15)
(34.3321 1.13052 6.34614e-15)
(33.862 1.06571 6.34609e-15)
(33.5003 1.01575 6.34645e-15)
(33.1736 0.966356 6.34734e-15)
(32.8403 0.932799 6.34695e-15)
(32.4942 0.941022 6.34424e-15)
(32.1398 1.01595 6.33679e-15)
(31.7824 1.18012 6.32364e-15)
(31.4278 1.45089 6.30668e-15)
(31.0829 1.83763 6.28738e-15)
(30.7542 2.34092 6.26645e-15)
(30.4452 2.95333 6.24614e-15)
(30.1564 3.66287 6.2277e-15)
(29.8882 4.45645 6.21149e-15)
(29.6428 5.32142 6.1993e-15)
(29.4253 6.24664 6.19297e-15)
(29.2429 7.22388 6.19531e-15)
(29.102 8.24654 6.21588e-15)
(29.001 9.30659 6.28778e-15)
(28.9247 10.3899 6.44916e-15)
(28.8371 11.4688 6.72861e-15)
(28.6786 12.4954 7.04401e-15)
(28.3698 13.4007 7.2068e-15)
(27.8166 14.0932 7.04409e-15)
(26.9344 14.4747 6.38243e-15)
(25.6688 14.4736 4.88077e-15)
(23.9933 14.0701 2.03802e-15)
(21.9326 13.2845 -2.68228e-15)
(19.448 12.0481 -7.7309e-15)
(16.7856 10.4963 -1.65831e-14)
(13.7824 8.5914 -2.2566e-14)
(10.8716 6.62853 -2.46847e-14)
(7.33145 4.32022 -4.02001e-14)
(5.35505 2.98736 -4.59683e-14)
(-1.65317 -1.49338 -1.64076e-13)
(-5.5124 -3.25429 -2.55071e-13)
(-5.34781 -2.63872 -2.5569e-13)
(-5.29564 -1.88728 -1.71622e-13)
(-5.30527 -1.48569 -1.08567e-13)
(-5.27665 -1.10422 -5.46389e-14)
(-5.28453 -0.824003 -2.12592e-14)
(-5.31037 -0.583116 -1.18689e-15)
(-5.34886 -0.39425 9.94029e-15)
(-5.39373 -0.247825 1.54882e-14)
(-5.44476 -0.136888 1.82509e-14)
(-5.50775 -0.0597805 1.95955e-14)
(-5.58193 -0.0176739 2.06868e-14)
(-5.66109 -0.012907 2.12636e-14)
(-5.7416 -0.0464586 2.1508e-14)
(27.6483 2.06085 6.34324e-15)
(27.1527 1.90794 6.34325e-15)
(26.7108 1.79433 6.34264e-15)
(26.3917 1.72442 6.34263e-15)
(26.1121 1.67849 6.34324e-15)
(25.8405 1.66384 6.34349e-15)
(25.5694 1.69863 6.34293e-15)
(25.2991 1.79815 6.34044e-15)
(25.034 1.97413 6.33362e-15)
(24.7799 2.2362 6.3239e-15)
(24.5425 2.59135 6.31247e-15)
(24.3264 3.04247 6.29878e-15)
(24.1337 3.58788 6.28453e-15)
(23.9637 4.22168 6.27057e-15)
(23.8141 4.93474 6.2563e-15)
(23.6835 5.71556 6.24252e-15)
(23.5724 6.55203 6.23028e-15)
(23.4851 7.43414 6.21965e-15)
(23.4292 8.35655 6.21314e-15)
(23.4134 9.31948 6.22184e-15)
(23.4436 10.3253 6.26652e-15)
(23.5144 11.3696 6.37642e-15)
(23.5982 12.4298 6.55224e-15)
(23.6407 13.4556 6.74645e-15)
(23.5646 14.3675 6.8311e-15)
(23.2845 15.0648 6.56998e-15)
(22.7267 15.4494 5.88007e-15)
(21.8405 15.4533 4.37694e-15)
(20.6118 15.0462 1.55296e-15)
(19.0274 14.1894 -2.21e-15)
(17.1556 12.9095 -7.91342e-15)
(15.0063 11.2536 -1.26345e-14)
(12.7022 9.35747 -2.43447e-14)
(10.1592 7.25706 -3.70306e-14)
(7.98649 5.38114 -4.6242e-14)
(4.84054 3.11925 -1.05117e-13)
(3.43696 1.9019 -1.60266e-13)
(-4.08374 -2.64008 -4.25975e-13)
(-3.41648 -1.73233 -3.53311e-13)
(-3.86734 -1.48809 -3.0279e-13)
(-3.83023 -1.05962 -2.19604e-13)
(-3.87828 -0.824067 -1.64622e-13)
(-3.917 -0.565904 -1.21332e-13)
(-3.9649 -0.381144 -8.76528e-14)
(-4.01066 -0.237638 -6.21614e-14)
(-4.0505 -0.118751 -4.41568e-14)
(-4.11411 -0.0257107 -3.11696e-14)
(-4.18848 0.0355361 -2.16809e-14)
(-4.27073 0.0580913 -1.43488e-14)
(-4.35594 0.0366395 -7.86463e-15)
(19.5566 2.60962 6.35739e-15)
(19.1605 2.29103 6.35605e-15)
(18.8382 2.05724 6.35418e-15)
(18.6473 1.88662 6.35343e-15)
(18.4856 1.76002 6.35387e-15)
(18.3347 1.68406 6.35445e-15)
(18.1901 1.67069 6.35514e-15)
(18.0469 1.73305 6.35477e-15)
(17.9069 1.88277 6.35192e-15)
(17.7789 2.12845 6.34645e-15)
(17.6732 2.47581 6.33903e-15)
(17.597 2.92626 6.32977e-15)
(17.5517 3.4757 6.31967e-15)
(17.5322 4.11511 6.30915e-15)
(17.5313 4.83124 6.29769e-15)
(17.5432 5.60847 6.28501e-15)
(17.5661 6.43189 6.27149e-15)
(17.6045 7.2911 6.25678e-15)
(17.6682 8.18263 6.24188e-15)
(17.7694 9.11005 6.23012e-15)
(17.9192 10.0812 6.23044e-15)
(18.1221 11.1016 6.26021e-15)
(18.3673 12.1642 6.33531e-15)
(18.6225 13.2393 6.46047e-15)
(18.8341 14.2674 6.58632e-15)
(18.9346 15.1595 6.56545e-15)
(18.8563 15.8118 6.22223e-15)
(18.5422 16.1297 5.33343e-15)
(17.9567 16.0463 3.5749e-15)
(17.0788 15.514 8.96371e-16)
(15.9226 14.5251 -3.26736e-15)
(14.5117 13.1266 -7.78567e-15)
(12.8915 11.4058 -1.52476e-14)
(11.0939 9.46549 -2.49911e-14)
(9.33073 7.51084 -3.9131e-14)
(7.27244 5.45887 -7.24408e-14)
(5.58917 3.79388 -1.28251e-13)
(3.91811 2.42716 -1.77832e-13)
(0.835915 0.194568 -3.27599e-13)
(-2.59666 -1.51749 -3.94302e-13)
(-2.06986 -0.972061 -3.01489e-13)
(-2.48046 -0.833656 -2.31462e-13)
(-2.47423 -0.481714 -2.05014e-13)
(-2.47997 -0.31929 -1.65858e-13)
(-2.47597 -0.196645 -1.29511e-13)
(-2.46337 -0.0759071 -9.80871e-14)
(-2.4672 0.0393287 -7.2852e-14)
(-2.48932 0.130762 -5.19235e-14)
(-2.52523 0.18117 -3.43843e-14)
(-2.57075 0.173263 -1.87466e-14)
(11.0921 3.24766 6.40584e-15)
(10.8266 2.74949 6.39766e-15)
(10.7186 2.45095 6.39061e-15)
(10.7563 2.2171 6.38651e-15)
(10.804 2.03887 6.38532e-15)
(10.8542 1.92415 6.38552e-15)
(10.9004 1.87301 6.38749e-15)
(10.9347 1.89314 6.38993e-15)
(10.9555 1.99691 6.39197e-15)
(10.9703 2.19257 6.3927e-15)
(10.9935 2.48413 6.39159e-15)
(11.0383 2.8737 6.38729e-15)
(11.1104 3.36131 6.37959e-15)
(11.2065 3.94388 6.3679e-15)
(11.3185 4.61402 6.35222e-15)
(11.4401 5.35938 6.33442e-15)
(11.5726 6.16457 6.3154e-15)
(11.7243 7.01539 6.29492e-15)
(11.9067 7.90189 6.27384e-15)
(12.1306 8.82035 6.25289e-15)
(12.4055 9.77345 6.23474e-15)
(12.7358 10.7677 6.22802e-15)
(13.1162 11.8056 6.24663e-15)
(13.5276 12.8752 6.30846e-15)
(13.9358 13.9386 6.40158e-15)
(14.2948 14.9257 6.44541e-15)
(14.5524 15.7388 6.28803e-15)
(14.658 16.2726 5.7497e-15)
(14.5703 16.4378 4.62734e-15)
(14.2614 16.1715 2.70475e-15)
(13.7229 15.4469 -5.00278e-16)
(12.9649 14.293 -4.58871e-15)
(12.0029 12.7751 -1.06312e-14)
(10.8737 10.9986 -1.8221e-14)
(9.6661 9.10015 -2.83094e-14)
(8.29132 7.13837 -4.87272e-14)
(6.98044 5.36294 -8.27282e-14)
(5.7439 3.82217 -1.25588e-13)
(4.20852 2.41439 -1.91485e-13)
(3.2835 1.61865 -2.0721e-13)
(1.46396 0.280722 -2.49417e-13)
(-1.31415 -1.0595 -1.10408e-13)
(-1.05846 -0.75276 -8.39952e-14)
(-0.86168 -0.557217 -8.81737e-14)
(-0.784519 -0.415125 -9.58652e-14)
(-0.778386 -0.252523 -9.39867e-14)
(-0.665329 -0.0843659 -8.78977e-14)
(-0.55626 0.0579704 -7.76465e-14)
(-0.458093 0.155572 -6.28208e-14)
(-0.362024 0.179449 -5.05068e-14)
(3.108 4.05356 6.55238e-15)
(3.25114 3.04942 6.48701e-15)
(3.54115 2.69154 6.4468e-15)
(3.9111 2.41659 6.42676e-15)
(4.2818 2.20887 6.42028e-15)
(4.63764 2.06418 6.42081e-15)
(4.95348 1.96821 6.4273e-15)
(5.20851 1.92326 6.4369e-15)
(5.37713 1.94663 6.44833e-15)
(5.45168 2.05797 6.45831e-15)
(5.45936 2.27528 6.46038e-15)
(5.4527 2.60928 6.4513e-15)
(5.47061 3.05821 6.43421e-15)
(5.52612 3.61178 6.41376e-15)
(5.61638 4.25974 6.39062e-15)
(5.73668 4.99127 6.36648e-15)
(5.88961 5.79152 6.34235e-15)
(6.08536 6.64218 6.31758e-15)
(6.33377 7.52604 6.29259e-15)
(6.64059 8.43294 6.26685e-15)
(7.00964 9.36211 6.2404e-15)
(7.44133 10.32 6.21616e-15)
(7.92987 11.3159 6.20423e-15)
(8.46236 12.3506 6.21822e-15)
(9.01876 13.4041 6.25002e-15)
(9.57046 14.4236 6.26125e-15)
(10.0814 15.322 6.12386e-15)
(10.5122 15.9931 5.72969e-15)
(10.8247 16.337 4.92675e-15)
(10.9879 16.2776 3.45885e-15)
(10.9821 15.7739 8.77164e-16)
(10.8016 14.8359 -2.67925e-15)
(10.4437 13.5139 -7.78494e-15)
(9.92816 11.9025 -1.42529e-14)
(9.29254 10.1143 -2.22317e-14)
(8.51075 8.2477 -3.55724e-14)
(7.68569 6.47633 -5.79947e-14)
(6.85516 4.87974 -8.76832e-14)
(5.92375 3.47803 -1.27333e-13)
(5.08681 2.43926 -1.56428e-13)
(4.24473 1.62187 -1.82111e-13)
(3.57385 1.03557 -1.75098e-13)
(3.08507 0.589143 -1.45987e-13)
(2.62623 0.214157 -1.03269e-13)
(2.28716 -0.064262 -5.10862e-14)
(2.1157 -0.252273 -9.27995e-15)
(1.98501 -0.341508 4.14258e-15)
(1.90281 -0.319372 -1.02209e-14)
(1.88276 -0.235583 -2.81066e-14)
(1.90538 -0.155078 -3.78558e-14)
(-4.41566 3.09489 6.39555e-15)
(-3.53963 2.65007 6.34725e-15)
(-2.72664 2.42 6.33147e-15)
(-1.99181 2.21392 6.3207e-15)
(-1.31817 2.05986 6.3099e-15)
(-0.804073 1.96076 6.30737e-15)
(-0.457098 1.9141 6.32512e-15)
(-0.266497 1.92253 6.32037e-15)
(-0.200417 2.00129 6.32517e-15)
(-0.213014 2.15837 6.3301e-15)
(-0.258357 2.39321 6.35726e-15)
(-0.29412 2.70855 6.36284e-15)
(-0.293705 3.11046 6.34489e-15)
(-0.245291 3.60242 6.32401e-15)
(-0.145545 4.18491 6.3087e-15)
(0.00828335 4.85228 6.29438e-15)
(0.220311 5.59092 6.27764e-15)
(0.49665 6.37964 6.26084e-15)
(0.841696 7.19797 6.24985e-15)
(1.25812 8.05085 6.2312e-15)
(1.72896 8.91673 6.19714e-15)
(2.25414 9.79977 6.2033e-15)
(2.83606 10.7249 6.19332e-15)
(3.46969 11.6974 6.11658e-15)
(4.1497 12.7087 6.10727e-15)
(4.86442 13.7161 6.09886e-15)
(5.59008 14.64 5.8841e-15)
(6.29873 15.3801 5.55283e-15)
(6.95639 15.8348 4.94906e-15)
(7.53001 15.9215 3.76688e-15)
(7.99226 15.5878 1.57731e-15)
(8.32528 14.8279 -1.57074e-15)
(8.51318 13.6799 -6.06712e-15)
(8.55791 12.2264 -1.18147e-14)
(8.46883 10.5691 -1.86185e-14)
(8.23321 8.81648 -2.84007e-14)
(7.89875 7.11086 -4.36307e-14)
(7.49126 5.53647 -6.43017e-14)
(6.99165 4.13959 -9.06196e-14)
(6.46332 3.00761 -1.15076e-13)
(5.94204 2.11403 -1.35978e-13)
(5.46493 1.429 -1.47619e-13)
(5.04933 0.941879 -1.51588e-13)
(4.71861 0.60693 -1.50244e-13)
(4.47493 0.379035 -1.45768e-13)
(4.30544 0.222982 -1.38341e-13)
(4.19253 0.114966 -1.24799e-13)
(4.12204 0.0399555 -1.06321e-13)
(4.08239 -0.0119571 -8.54064e-14)
(4.05942 -0.0531322 -6.53722e-14)
(-13.7015 2.20151 4.25662e-15)
(-12.8014 1.91092 4.21266e-15)
(-12.1554 1.68281 4.23378e-15)
(-11.5097 1.53552 4.29665e-15)
(-10.8698 1.45907 4.40088e-15)
(-10.2533 1.45693 4.53691e-15)
(-9.67844 1.51991 4.69321e-15)
(-9.16764 1.63789 4.85226e-15)
(-8.73271 1.80688 5.00132e-15)
(-8.36627 2.02752 5.13202e-15)
(-8.04596 2.30278 5.24373e-15)
(-7.74725 2.6375 5.33162e-15)
(-7.45226 3.03699 5.39867e-15)
(-7.14759 3.50601 5.4537e-15)
(-6.82072 4.04649 5.50202e-15)
(-6.4594 4.65492 5.54229e-15)
(-6.05338 5.32136 5.57413e-15)
(-5.59616 6.03078 5.59743e-15)
(-5.08649 6.76913 5.60696e-15)
(-4.52143 7.53182 5.59168e-15)
(-3.90283 8.31185 5.55957e-15)
(-3.2266 9.11754 5.53312e-15)
(-2.49116 9.96624 5.39022e-15)
(-1.69304 10.8667 5.27597e-15)
(-0.828658 11.8143 5.2334e-15)
(0.106129 12.7757 5.29698e-15)
(1.11814 13.7133 5.34965e-15)
(2.13045 14.4824 5.20958e-15)
(3.12149 14.9887 4.84574e-15)
(4.0744 15.1625 3.88568e-15)
(4.96046 14.9483 1.91034e-15)
(5.7545 14.3285 -9.97672e-16)
(6.43277 13.3289 -5.11103e-15)
(6.98417 12.0212 -1.03313e-14)
(7.40124 10.501 -1.63014e-14)
(7.6697 8.87909 -2.39213e-14)
(7.80373 7.28233 -3.47334e-14)
(7.81128 5.79185 -4.91554e-14)
(7.69333 4.4572 -6.68512e-14)
(7.48498 3.32902 -8.45789e-14)
(7.22718 2.40791 -1.00322e-13)
(6.95318 1.68485 -1.12349e-13)
(6.69136 1.1461 -1.20648e-13)
(6.46579 0.759147 -1.2565e-13)
(6.28461 0.490657 -1.28152e-13)
(6.14523 0.312662 -1.285e-13)
(6.04127 0.201667 -1.25346e-13)
(5.9657 0.136601 -1.17341e-13)
(5.91071 0.0974173 -1.05454e-13)
(5.86431 0.0656714 -9.13514e-14)
(-22.1173 1.44531 7.18129e-16)
(-21.4168 1.2584 5.95592e-16)
(-20.9355 1.08134 5.43514e-16)
(-20.4516 0.95081 5.75821e-16)
(-19.9593 0.877269 6.98698e-16)
(-19.4461 0.870197 9.05544e-16)
(-18.9097 0.931914 1.17411e-15)
(-18.3559 1.0607 1.47793e-15)
(-17.7938 1.25272 1.78923e-15)
(-17.2304 1.50401 2.0875e-15)
(-16.668 1.81148 2.36044e-15)
(-16.1057 2.17272 2.60402e-15)
(-15.54 2.58658 2.81555e-15)
(-14.9647 3.05361 2.99773e-15)
(-14.3709 3.57358 3.15264e-15)
(-13.7486 4.1434 3.28026e-15)
(-13.089 4.75624 3.38106e-15)
(-12.3857 5.40296 3.45462e-15)
(-11.6363 6.07553 3.49679e-15)
(-10.8412 6.76979 3.50162e-15)
(-9.99893 7.48586 3.4681e-15)
(-9.104 8.23214 3.37837e-15)
(-8.15139 9.01922 3.21602e-15)
(-7.13096 9.85352 3.01133e-15)
(-6.03189 10.7289 2.9066e-15)
(-4.84142 11.6214 3.08694e-15)
(-3.54525 12.4884 3.61643e-15)
(-2.17309 13.2312 4.21621e-15)
(-0.7629 13.7569 4.45692e-15)
(0.672154 13.9961 3.93192e-15)
(2.04284 13.8675 2.12131e-15)
(3.25957 13.3651 -7.12527e-16)
(4.37168 12.5036 -4.64525e-15)
(5.37344 11.3347 -9.55519e-15)
(6.24906 9.95402 -1.48862e-14)
(6.9791 8.476 -2.10578e-14)
(7.55082 7.02172 -2.90518e-14)
(7.95084 5.66458 -3.9162e-14)
(8.18199 4.44571 -5.10033e-14)
(8.27338 3.39565 -6.29803e-14)
(8.26477 2.52129 -7.37928e-14)
(8.1932 1.81941 -8.26449e-14)
(8.09072 1.27769 -8.94692e-14)
(7.98192 0.873543 -9.44287e-14)
(7.88059 0.581881 -9.79987e-14)
(7.79213 0.379913 -1.0051e-13)
(7.71718 0.24778 -1.01494e-13)
(7.65367 0.167354 -1.00157e-13)
(7.59712 0.121179 -9.69526e-14)
(7.5386 0.0932377 -9.17685e-14)
(-28.4815 1.05141 1.39196e-15)
(-27.9704 0.92173 1.30552e-15)
(-27.625 0.778351 1.20798e-15)
(-27.2904 0.653824 1.11203e-15)
(-26.9627 0.567948 1.03007e-15)
(-26.6253 0.533523 9.69797e-16)
(-26.2651 0.557721 9.33604e-16)
(-25.8725 0.643643 9.23721e-16)
(-25.4406 0.791828 9.37359e-16)
(-24.9648 1.0014 9.72311e-16)
(-24.4432 1.27 1.02102e-15)
(-23.8758 1.59428 1.07756e-15)
(-23.2631 1.97122 1.13381e-15)
(-22.604 2.39842 1.18547e-15)
(-21.8956 2.87322 1.22926e-15)
(-21.1343 3.39168 1.26168e-15)
(-20.3159 3.94812 1.28148e-15)
(-19.4373 4.53606 1.28383e-15)
(-18.4966 5.15019 1.26125e-15)
(-17.4926 5.78802 1.20834e-15)
(-16.4233 6.45046 1.11233e-15)
(-15.2845 7.14231 9.44524e-16)
(-14.0693 7.86865 6.79888e-16)
(-12.7661 8.63053 3.66533e-16)
(-11.3614 9.41889 2.02655e-16)
(-9.84074 10.2121 5.13021e-16)
(-8.2009 10.9713 1.50802e-15)
(-6.4519 11.6299 2.85931e-15)
(-4.62395 12.1156 3.75935e-15)
(-2.74721 12.3678 3.67244e-15)
(-0.890008 12.3269 2.43763e-15)
(0.899906 11.9441 -2.78801e-16)
(2.47969 11.2134 -4.27696e-15)
(3.86149 10.2017 -9.08612e-15)
(5.13696 8.96955 -1.41194e-14)
(6.28371 7.65021 -1.92923e-14)
(7.259 6.36826 -2.53747e-14)
(8.02103 5.18692 -3.26542e-14)
(8.5676 4.1307 -4.06492e-14)
(8.92942 3.21389 -4.85647e-14)
(9.14889 2.44176 -5.57191e-14)
(9.2664 1.81271 -6.17723e-14)
(9.31612 1.31747 -6.67706e-14)
(9.32444 0.939947 -7.09079e-14)
(9.30951 0.661401 -7.44259e-14)
(9.28248 0.463739 -7.76112e-14)
(9.24931 0.330522 -8.02637e-14)
(9.21216 0.246742 -8.19632e-14)
(9.1702 0.19867 -8.27857e-14)
(9.11816 0.174557 -8.26399e-14)
(-33.6035 0.651066 3.22596e-16)
(-33.2429 0.550885 2.86428e-16)
(-33.0095 0.439293 2.57906e-16)
(-32.7928 0.336967 2.39854e-16)
(-32.5928 0.260404 2.33285e-16)
(-32.3954 0.221191 2.36463e-16)
(-32.1863 0.226722 2.45863e-16)
(-31.9516 0.28149 2.58586e-16)
(-31.6778 0.388099 2.72141e-16)
(-31.3533 0.547483 2.8512e-16)
(-30.9688 0.758804 2.95689e-16)
(-30.5173 1.02018 3.02296e-16)
(-29.993 1.32974 3.0217e-16)
(-29.3912 1.68569 2.94464e-16)
(-28.7073 2.08571 2.76898e-16)
(-27.9371 2.52653 2.45902e-16)
(-27.0767 3.00382 1.97778e-16)
(-26.1229 3.51285 1.23936e-16)
(-25.0733 4.04946 1.29876e-17)
(-23.926 4.61111 -1.4837e-16)
(-22.6785 5.19734 -3.73293e-16)
(-21.3273 5.80958 -6.74365e-16)
(-19.866 6.44892 -1.06953e-15)
(-18.2852 7.11284 -1.49848e-15)
(-16.5726 7.79152 -1.7485e-15)
(-14.7162 8.46502 -1.4543e-15)
(-12.7106 9.0998 -3.43458e-16)
(-10.5639 9.64704 1.28211e-15)
(-8.30456 10.0533 2.56236e-15)
(-5.98148 10.2748 2.76566e-15)
(-3.66365 10.2782 2.06246e-15)
(-1.41093 10.0322 -5.03463e-17)
(0.744508 9.48662 -3.78856e-15)
(2.58008 8.63572 -8.99479e-15)
(4.17441 7.57989 -1.39598e-14)
(5.6841 6.44375 -1.85557e-14)
(7.02419 5.3635 -2.33768e-14)
(8.11276 4.39181 -2.87997e-14)
(8.93707 3.53227 -3.44913e-14)
(9.53425 2.78329 -3.99578e-14)
(9.95374 2.14592 -4.49071e-14)
(10.2397 1.61932 -4.92128e-14)
(10.4282 1.19734 -5.29498e-14)
(10.5476 0.869138 -5.61979e-14)
(10.6195 0.621806 -5.91038e-14)
(10.6595 0.442572 -6.17595e-14)
(10.6779 0.319577 -6.40296e-14)
(10.6804 0.241971 -6.5825e-14)
(10.6696 0.200006 -6.7252e-14)
(10.6432 0.185597 -6.86137e-14)
(-37.8993 0.474805 -2.40255e-15)
(-37.6152 0.408175 -2.42008e-15)
(-37.4504 0.329426 -2.41846e-15)
(-37.3076 0.253396 -2.39558e-15)
(-37.1886 0.192247 -2.35e-15)
(-37.0818 0.155477 -2.283e-15)
(-36.9744 0.14976 -2.19886e-15)
(-36.8519 0.179628 -2.10195e-15)
(-36.6984 0.248176 -1.99586e-15)
(-36.4999 0.356687 -1.8862e-15)
(-36.243 0.505003 -1.77685e-15)
(-35.9158 0.692394 -1.6727e-15)
(-35.5072 0.918011 -1.57894e-15)
(-35.0068 1.18106 -1.50004e-15)
(-34.4053 1.48035 -1.44095e-15)
(-33.6941 1.81404 -1.40787e-15)
(-32.8653 2.17971 -1.40855e-15)
(-31.9118 2.57438 -1.45419e-15)
(-30.8278 2.99498 -1.55756e-15)
(-29.6081 3.43895 -1.7341e-15)
(-28.248 3.90449 -1.99802e-15)
(-26.7428 4.39042 -2.35499e-15)
(-25.0864 4.89503 -2.7823e-15)
(-23.2712 5.41401 -3.22675e-15)
(-21.2885 5.93819 -3.50955e-15)
(-19.1303 6.45142 -3.31752e-15)
(-16.7939 6.92922 -2.36641e-15)
(-14.2886 7.33902 -8.59112e-16)
(-11.6431 7.64491 4.02359e-16)
(-8.90741 7.81419 7.21051e-16)
(-6.15039 7.82154 3.35177e-16)
(-3.45588 7.65797 -1.08739e-15)
(-0.914386 7.32649 -3.68942e-15)
(1.6357 6.65321 -9.4419e-15)
(3.47887 5.81835 -1.46288e-14)
(5.27376 4.91652 -1.88464e-14)
(6.92192 4.09251 -2.2905e-14)
(8.28965 3.37934 -2.71744e-14)
(9.34604 2.75943 -3.14796e-14)
(10.1368 2.21828 -3.5499e-14)
(10.7217 1.75351 -3.91353e-14)
(11.1496 1.36532 -4.23089e-14)
(11.458 1.05038 -4.50498e-14)
(11.6774 0.801884 -4.74268e-14)
(11.8325 0.611773 -4.94005e-14)
(11.9421 0.472097 -5.11547e-14)
(12.0199 0.375477 -5.26474e-14)
(12.0747 0.315166 -5.382e-14)
(12.1117 0.285413 -5.48051e-14)
(12.1313 0.282133 -5.59277e-14)
(-41.2906 0.185131 -4.63919e-15)
(-41.0503 0.143481 -4.76398e-15)
(-40.9214 0.0903088 -4.88021e-15)
(-40.8174 0.0370908 -4.98125e-15)
(-40.7432 -0.00813766 -5.05994e-15)
(-40.6896 -0.0391113 -5.113e-15)
(-40.6452 -0.05134 -5.14078e-15)
(-40.5952 -0.0417019 -5.14252e-15)
(-40.5241 -0.00813582 -5.1205e-15)
(-40.4154 0.0505212 -5.07967e-15)
(-40.2537 0.134341 -5.02327e-15)
(-40.0241 0.243017 -4.95609e-15)
(-39.7121 0.376185 -4.88471e-15)
(-39.3036 0.533558 -4.81467e-15)
(-38.7855 0.714784 -4.75278e-15)
(-38.145 0.91918 -4.70663e-15)
(-37.3701 1.14581 -4.68406e-15)
(-36.4498 1.39323 -4.69487e-15)
(-35.374 1.65969 -4.75204e-15)
(-34.1337 1.94334 -4.86887e-15)
(-32.721 2.24233 -5.05773e-15)
(-31.128 2.55477 -5.32384e-15)
(-29.3476 2.8783 -5.6465e-15)
(-27.3718 3.20907 -5.96173e-15)
(-25.1936 3.54063 -6.16262e-15)
(-22.8074 3.86296 -6.03465e-15)
(-20.2129 4.16204 -5.34035e-15)
(-17.4219 4.42053 -4.14397e-15)
(-14.4654 4.61931 -3.06421e-15)
(-11.397 4.73907 -2.72984e-15)
(-8.28553 4.76237 -2.92476e-15)
(-5.20312 4.68621 -3.61672e-15)
(-2.25959 4.55238 -5.06179e-15)
(0.871865 4.25627 -1.03975e-14)