/*--------------------------------*- C++ -*----------------------------------*\
  =========                 |
  \\      /  F ield         | OpenFOAM: The Open Source CFD Toolbox
   \\    /   O peration     | Website:  https://openfoam.org
    \\  /    A nd           | Version:  8
     \\/     M anipulation  |
\*---------------------------------------------------------------------------*/
FoamFile
{
    version     2.0;
    format      ascii;
    class       volScalarField;
    location    "500";
    object      k;
}
// * * * * * * * * * * * * * * * * * * * * * * * * * * * * * * * * * * * * * //

dimensions      [0 2 -2 0 0 0 0];

internalField   nonuniform List<scalar> 
1200
(
0.0505472
0.0428478
0.0369112
0.0322398
0.0284973
0.0254525
0.0229422
0.020848
0.0190828
0.0175809
0.0162922
0.015178
0.0142081
0.0133583
0.0126095
0.0119463
0.0113559
0.0108281
0.0103542
0.00992716
0.0095409
0.00919038
0.00887133
0.00858008
0.00831349
0.00806886
0.00784383
0.00763639
0.00744475
0.00726736
0.00710286
0.00695002
0.00680779
0.00667522
0.00655147
0.00643577
0.00632746
0.00622593
0.00613064
0.00604109
0.00595684
0.00587749
0.00580267
0.00573205
0.00566532
0.00560221
0.00554247
0.00548587
0.00543219
0.00538123
0.00533282
0.0052868
0.005243
0.0052013
0.00516155
0.00512364
0.00508745
0.00505289
0.00501986
0.00498825
0.0434539
0.0320528
0.0244796
0.0192386
0.0154835
0.0127109
0.0106111
0.00898628
0.00770528
0.00667879
0.00584438
0.00515748
0.00458562
0.00410471
0.00369663
0.00334749
0.00304655
0.00278542
0.00255742
0.00235724
0.00218054
0.00202383
0.00188423
0.00175937
0.00164725
0.00154622
0.00145488
0.00137204
0.00129669
0.00122796
0.00116511
0.0011075
0.00105457
0.00100583
0.000960871
0.000919307
0.000880817
0.000845111
0.000811933
0.000781053
0.000752271
0.000725404
0.000700293
0.00067679
0.000654767
0.000634107
0.000614702
0.000596459
0.000579287
0.000563111
0.000547855
0.000533455
0.00051985
0.000506983
0.000494806
0.00048327
0.000472329
0.000461914
0.000451906
0.000441328
0.0434334
0.0319432
0.0243158
0.0190352
0.0152511
0.0124596
0.0103485
0.00871758
0.00743422
0.00640793
0.00557552
0.00489182
0.00432395
0.00384754
0.00344423
0.00309999
0.00280399
0.00254772
0.00232446
0.00212886
0.00195657
0.00180407
0.00166849
0.00154742
0.0014389
0.00134126
0.00125311
0.00117328
0.00110075
0.00103467
0.000974312
0.00091903
0.000868277
0.000821578
0.000778515
0.000738722
0.000701881
0.000667707
0.000635956
0.000606406
0.00057886
0.000553143
0.000529098
0.000506584
0.000485475
0.000465658
0.00044703
0.000429499
0.000412981
0.000397401
0.00038269
0.000368784
0.000355627
0.000343166
0.000331353
0.000320145
0.000309502
0.000299384
0.000289754
0.000280556
0.0434334
0.0319682
0.0243515
0.0190751
0.0152908
0.0124965
0.0103818
0.00874701
0.00745997
0.00643033
0.00559495
0.00490866
0.00433856
0.00386022
0.00345525
0.00310959
0.00281236
0.00255503
0.00233087
0.00213447
0.00196149
0.0018084
0.00167229
0.00155076
0.00144184
0.00134384
0.00125538
0.00117527
0.00110249
0.00103619
0.000975633
0.000920173
0.000869261
0.000822417
0.000779223
0.000739313
0.000702363
0.000668092
0.000636248
0.000606609
0.000578977
0.000553177
0.000529051
0.000506458
0.000485273
0.000465381
0.00044668
0.000429077
0.000412489
0.000396839
0.000382059
0.000368085
0.000354861
0.000342334
0.000330456
0.000319183
0.000308475
0.000298296
0.00028861
0.000279388
0.0434334
0.0319683
0.0243481
0.019069
0.0152831
0.0124882
0.0103735
0.0087393
0.00745296
0.0064241
0.00558947
0.00490389
0.00433443
0.00385665
0.00345218
0.00310694
0.00281008
0.00255307
0.00232917
0.00213301
0.00196024
0.00180731
0.00167135
0.00154995
0.00144114
0.00134324
0.00125486
0.00117482
0.0011021
0.00103586
0.000975346
0.000919927
0.00086905
0.000822238
0.000779071
0.000739184
0.000702256
0.000668003
0.000636175
0.00060655
0.000578931
0.000553142
0.000529025
0.000506441
0.000485263
0.000465378
0.000446682
0.000429084
0.0004125
0.000396854
0.000382077
0.000368106
0.000354884
0.000342358
0.000330482
0.00031921
0.000308503
0.000298324
0.000288639
0.000279417
0.0434334
0.0319683
0.0243481
0.019069
0.0152831
0.0124882
0.0103736
0.00873932
0.00745298
0.00642411
0.00558949
0.0049039
0.00433444
0.00385666
0.00345218
0.00310695
0.00281008
0.00255307
0.00232918
0.00213301
0.00196024
0.00180731
0.00167135
0.00154995
0.00144114
0.00134324
0.00125486
0.00117482
0.0011021
0.00103586
0.000975343
0.000919924
0.000869047
0.000822235
0.000779068
0.000739181
0.000702253
0.000668
0.000636172
0.000606547
0.000578928
0.000553139
0.000529022
0.000506438
0.00048526
0.000465375
0.00044668
0.000429082
0.000412498
0.000396852
0.000382075
0.000368104
0.000354882
0.000342356
0.000330479
0.000319208
0.000308501
0.000298322
0.000288637
0.000279415
0.0434334
0.0319682
0.0243515
0.0190751
0.0152907
0.0124965
0.0103817
0.00874699
0.00745994
0.00643031
0.00559493
0.00490864
0.00433854
0.00386021
0.00345524
0.00310958
0.00281235
0.00255502
0.00233086
0.00213446
0.00196149
0.00180839
0.00167228
0.00155076
0.00144183
0.00134384
0.00125538
0.00117526
0.00110249
0.00103619
0.000975629
0.000920168
0.000869256
0.000822413
0.000779219
0.000739308
0.000702359
0.000668088
0.000636244
0.000606605
0.000578973
0.000553173
0.000529047
0.000506454
0.000485269
0.000465377
0.000446675
0.000429073
0.000412484
0.000396834
0.000382054
0.00036808
0.000354855
0.000342328
0.000330449
0.000319176
0.000308468
0.000298288
0.000288602
0.000279379
0.0434334
0.0319432
0.0243159
0.0190352
0.0152512
0.0124596
0.0103485
0.00871761
0.00743424
0.00640795
0.00557553
0.00489183
0.00432396
0.00384754
0.00344423
0.00309999
0.00280398
0.00254771
0.00232446
0.00212885
0.00195656
0.00180407
0.00166848
0.00154742
0.00143889
0.00134126
0.00125311
0.00117327
0.00110075
0.00103467
0.000974306
0.000919023
0.000868271
0.000821571
0.000778507
0.000738715
0.000701873
0.000667699
0.000635944
0.000606386
0.000578829
0.000553097
0.000529034
0.0005065
0.000485368
0.000465527
0.000446876
0.000429323
0.000412783
0.000397181
0.000382448
0.000368521
0.000355342
0.00034286
0.000331027
0.000319799
0.000309135
0.000298996
0.000289345
0.000280134
0.0434539
0.0320528
0.0244797
0.0192388
0.0154838
0.0127113
0.0106117
0.00898699
0.00770612
0.00667974
0.00584544
0.00515864
0.00458685
0.00410601
0.00369796
0.00334884
0.00304792
0.00278678
0.00255876
0.00235854
0.0021818
0.00202505
0.00188541
0.00176049
0.00164832
0.00154725
0.00145586
0.00137297
0.00129758
0.00122882
0.00116594
0.0011083
0.00105534
0.00100658
0.000961581
0.000919987
0.000881465
0.000845727
0.000812519
0.000781612
0.000752804
0.000725916
0.000700786
0.00067727
0.000655237
0.000634569
0.000615159
0.000596911
0.000579738
0.00056356
0.000548304
0.000533905
0.000520302
0.000507441
0.000495269
0.00048374
0.000472805
0.000462396
0.000452388
0.000441779
0.0505472
0.0428477
0.036911
0.0322396
0.0284971
0.0254524
0.022942
0.0208478
0.0190826
0.0175807
0.016292
0.0151779
0.0142079
0.0133581
0.0126094
0.0119462
0.0113558
0.010828
0.0103541
0.00992706
0.0095408
0.0091903
0.00887125
0.00858
0.00831342
0.00806879
0.00784377
0.00763633
0.0074447
0.00726731
0.0071028
0.00694997
0.00680774
0.00667518
0.00655142
0.00643573
0.00632742
0.00622589
0.0061306
0.00604105
0.0059568
0.00587745
0.00580263
0.00573201
0.00566528
0.00560217
0.00554243
0.00548582
0.00543214
0.00538118
0.00533277
0.00528675
0.00524295
0.00520124
0.00516149
0.00512357
0.00508738
0.00505281
0.00501978
0.00498817
0.0505473
0.0428477
0.036911
0.0322395
0.028497
0.0254522
0.0229418
0.0208477
0.0190826
0.0175807
0.016292
0.0151778
0.0142079
0.0133581
0.0126094
0.0119462
0.0113558
0.010828
0.0103541
0.00992708
0.00954082
0.00919032
0.00887128
0.00858003
0.00831345
0.00806881
0.0078438
0.00763635
0.00744472
0.00726733
0.00710282
0.00694998
0.00680775
0.00667518
0.00655143
0.00643573
0.00632742
0.00622589
0.0061306
0.00604105
0.0059568
0.00587744
0.00580262
0.00573199
0.00566526
0.00560216
0.00554241
0.00548581
0.00543212
0.00538117
0.00533276
0.00528673
0.00524294
0.00520123
0.00516148
0.00512357
0.00508738
0.00505282
0.00501979
0.00498818
0.0434539
0.0320528
0.0244794
0.0192384
0.0154834
0.012711
0.0106112
0.00898634
0.00770525
0.00667864
0.00584412
0.00515714
0.00458523
0.00410433
0.00369626
0.00334718
0.00304633
0.0027853
0.0025574
0.00235729
0.00218068
0.00202404
0.0018845
0.00175967
0.00164757
0.00154655
0.00145521
0.00137237
0.00129701
0.00122828
0.00116543
0.00110782
0.00105489
0.00100615
0.000961194
0.000919637
0.000881155
0.000845457
0.000812283
0.000781407
0.000752626
0.00072576
0.000700649
0.000677148
0.000655125
0.000634465
0.00061506
0.000596814
0.000579641
0.00056346
0.0005482
0.000533797
0.000520189
0.000507323
0.000495148
0.000483613
0.000472669
0.000462251
0.000452236
0.000441637
0.0434334
0.0319432
0.0243159
0.0190353
0.0152512
0.0124596
0.0103485
0.00871757
0.00743419
0.0064079
0.00557548
0.00489178
0.00432391
0.0038475
0.00344419
0.00309995
0.00280395
0.00254768
0.00232443
0.00212883
0.00195654
0.00180405
0.00166846
0.0015474
0.00143887
0.00134124
0.00125309
0.00117326
0.00110073
0.00103466
0.000974294
0.000919012
0.00086826
0.000821561
0.000778498
0.000738706
0.000701864
0.000667691
0.00063594
0.000606391
0.000578845
0.000553129
0.000529084
0.00050657
0.000485461
0.000465644
0.000447016
0.000429485
0.000412967
0.000397386
0.000382674
0.000368768
0.00035561
0.000343148
0.000331335
0.000320126
0.000309481
0.000299363
0.000289731
0.000280531
0.0434334
0.0319682
0.0243515
0.0190751
0.0152908
0.0124965
0.0103817
0.00874698
0.00745993
0.0064303
0.00559491
0.00490863
0.00433853
0.0038602
0.00345523
0.00310957
0.00281234
0.00255502
0.00233085
0.00213446
0.00196148
0.00180839
0.00167228
0.00155076
0.00144183
0.00134384
0.00125538
0.00117526
0.00110249
0.00103619
0.000975627
0.000920167
0.000869254
0.000822411
0.000779217
0.000739306
0.000702357
0.000668085
0.000636241
0.000606602
0.00057897
0.000553169
0.000529043
0.000506451
0.000485265
0.000465373
0.000446672
0.000429069
0.000412481
0.000396831
0.00038205
0.000368077
0.000354852
0.000342325
0.000330446
0.000319173
0.000308466
0.000298286
0.0002886
0.000279377
0.0434334
0.0319682
0.0243481
0.019069
0.0152831
0.0124882
0.0103735
0.0087393
0.00745295
0.00642407
0.00558944
0.00490387
0.0043344
0.00385663
0.00345215
0.00310692
0.00281006
0.00255305
0.00232916
0.002133
0.00196022
0.0018073
0.00167134
0.00154994
0.00144113
0.00134323
0.00125485
0.00117481
0.00110209
0.00103585
0.000975336
0.000919917
0.00086904
0.000822228
0.000779061
0.000739175
0.000702247
0.000667994
0.000636166
0.000606541
0.000578921
0.000553132
0.000529015
0.000506431
0.000485253
0.000465368
0.000446672
0.000429074
0.00041249
0.000396844
0.000382067
0.000368096
0.000354874
0.000342348
0.000330471
0.0003192
0.000308493
0.000298314
0.000288628
0.000279406
0.0434334
0.0319682
0.0243481
0.019069
0.0152831
0.0124882
0.0103736
0.00873931
0.00745296
0.00642409
0.00558946
0.00490388
0.00433441
0.00385664
0.00345216
0.00310693
0.00281006
0.00255306
0.00232916
0.002133
0.00196022
0.0018073
0.00167134
0.00154994
0.00144113
0.00134323
0.00125485
0.00117481
0.00110209
0.00103585
0.000975335
0.000919916
0.00086904
0.000822227
0.00077906
0.000739174
0.000702245
0.000667993
0.000636164
0.000606539
0.00057892
0.000553131
0.000529014
0.00050643
0.000485252
0.000465366
0.000446671
0.000429073
0.000412489
0.000396843
0.000382066
0.000368095
0.000354873
0.000342347
0.00033047
0.000319199
0.000308492
0.000298313
0.000288627
0.000279405
0.0434334
0.0319682
0.0243515
0.0190751
0.0152907
0.0124965
0.0103817
0.00874696
0.00745991
0.00643028
0.0055949
0.00490862
0.00433852
0.00386019
0.00345522
0.00310956
0.00281233
0.00255501
0.00233085
0.00213445
0.00196148
0.00180838
0.00167227
0.00155075
0.00144183
0.00134383
0.00125537
0.00117526
0.00110248
0.00103618
0.000975624
0.000920164
0.000869252
0.000822408
0.000779214
0.000739304
0.000702354
0.000668083
0.000636239
0.000606599
0.000578968
0.000553167
0.000529041
0.000506449
0.000485263
0.000465371
0.00044667
0.000429067
0.000412478
0.000396828
0.000382048
0.000368074
0.000354849
0.000342322
0.000330443
0.00031917
0.000308462
0.000298282
0.000288596
0.000279373
0.0434334
0.0319432
0.0243159
0.0190353
0.0152512
0.0124596
0.0103485
0.0087176
0.00743422
0.00640792
0.0055755
0.0048918
0.00432393
0.00384752
0.0034442
0.00309997
0.00280396
0.00254769
0.00232444
0.00212884
0.00195655
0.00180405
0.00166847
0.0015474
0.00143888
0.00134124
0.0012531
0.00117326
0.00110073
0.00103466
0.000974295
0.000919012
0.00086826
0.000821561
0.000778497
0.000738704
0.000701862
0.000667688
0.000635933
0.000606375
0.000578818
0.000553086
0.000529023
0.000506488
0.000485357
0.000465519
0.000446869
0.000429317
0.000412778
0.000397177
0.000382444
0.000368517
0.000355339
0.000342856
0.000331023
0.000319794
0.000309129
0.00029899
0.000289338
0.000280126
0.0434539
0.0320528
0.0244796
0.0192388
0.015484
0.0127116
0.0106121
0.00898743
0.0077065
0.00668004
0.00584563
0.00515871
0.00458684
0.00410592
0.00369782
0.00334868
0.00304776
0.00278664
0.00255866
0.00235847
0.00218177
0.00202505
0.00188542
0.00176052
0.00164835
0.00154726
0.00145585
0.00137293
0.0012975
0.0012287
0.00116577
0.00110809
0.0010551
0.00100631
0.000961299
0.000919698
0.000881178
0.000845449
0.000812254
0.000781365
0.000752581
0.000725718
0.000700615
0.000677125
0.000655117
0.000634471
0.000615079
0.000596847
0.000579686
0.000563517
0.00054827
0.00053388
0.000520285
0.000507432
0.000495268
0.000483746
0.000472816
0.000462412
0.000452409
0.000441801
0.0505473
0.0428478
0.036911
0.0322395
0.0284969
0.0254521
0.0229418
0.0208477
0.0190825
0.0175806
0.016292
0.0151778
0.0142078
0.0133581
0.0126093
0.0119461
0.0113558
0.010828
0.0103541
0.00992703
0.00954078
0.00919027
0.00887123
0.00857998
0.00831339
0.00806876
0.00784374
0.0076363
0.00744466
0.00726727
0.00710276
0.00694993
0.0068077
0.00667512
0.00655137
0.00643567
0.00632736
0.00622583
0.00613053
0.00604098
0.00595673
0.00587737
0.00580255
0.00573192
0.00566519
0.00560208
0.00554234
0.00548573
0.00543204
0.00538109
0.00533268
0.00528665
0.00524285
0.00520114
0.00516138
0.00512347
0.00508727
0.00505271
0.00501967
0.00498806
)
;

boundaryField
{
    wall
    {
        type            kqRWallFunction;
        value           nonuniform List<scalar> 
1200
(
0.0505472
0.0434539
0.0434334
0.0434334
0.0434334
0.0434334
0.0434334
0.0434334
0.0434539
0.0505472
0.0428478
0.0320528
0.0319432
0.0319682
0.0319683
0.0319683
0.0319682
0.0319432
0.0320528
0.0428477
0.0369112
0.0244796
0.0243158
0.0243515
0.0243481
0.0243481
0.0243515
0.0243159
0.0244797
0.036911
0.0322398
0.0192386
0.0190352
0.0190751
0.019069
0.019069
0.0190751
0.0190352
0.0192388
0.0322396
0.0284973
0.0154835
0.0152511
0.0152908
0.0152831
0.0152831
0.0152907
0.0152512
0.0154838
0.0284971
0.0254525
0.0127109
0.0124596
0.0124965
0.0124882
0.0124882
0.0124965
0.0124596
0.0127113
0.0254524
0.0229422
0.0106111
0.0103485
0.0103818
0.0103735
0.0103736
0.0103817
0.0103485
0.0106117
0.022942
0.020848
0.00898628
0.00871758
0.00874701
0.0087393
0.00873932
0.00874699
0.00871761
0.00898699
0.0208478
0.0190828
0.00770528
0.00743422
0.00745997
0.00745296
0.00745298
0.00745994
0.00743424
0.00770612
0.0190826
0.0175809
0.00667879
0.00640793
0.00643033
0.0064241
0.00642411
0.00643031
0.00640795
0.00667974
0.0175807
0.0162922
0.00584438
0.00557552
0.00559495
0.00558947
0.00558949
0.00559493
0.00557553
0.00584544
0.016292
0.015178
0.00515748
0.00489182
0.00490866
0.00490389
0.0049039
0.00490864
0.00489183
0.00515864
0.0151779
0.0142081
0.00458562
0.00432395
0.00433856
0.00433443
0.00433444
0.00433854
0.00432396
0.00458685
0.0142079
0.0133583
0.00410471
0.00384754
0.00386022
0.00385665
0.00385666
0.00386021
0.00384754
0.00410601
0.0133581
0.0126095
0.00369663
0.00344423
0.00345525
0.00345218
0.00345218
0.00345524
0.00344423
0.00369796
0.0126094
0.0119463
0.00334749
0.00309999
0.00310959
0.00310694
0.00310695
0.00310958
0.00309999
0.00334884
0.0119462
0.0113559
0.00304655
0.00280399
0.00281236
0.00281008
0.00281008
0.00281235
0.00280398
0.00304792
0.0113558
0.0108281
0.00278542
0.00254772
0.00255503
0.00255307
0.00255307
0.00255502
0.00254771
0.00278678
0.010828
0.0103542
0.00255742
0.00232446
0.00233087
0.00232917
0.00232918
0.00233086
0.00232446
0.00255876
0.0103541
0.00992716
0.00235724
0.00212886
0.00213447
0.00213301
0.00213301
0.00213446
0.00212885
0.00235854
0.00992706
0.0095409
0.00218054
0.00195657
0.00196149
0.00196024
0.00196024
0.00196149
0.00195656
0.0021818
0.0095408
0.00919038
0.00202383
0.00180407
0.0018084
0.00180731
0.00180731
0.00180839
0.00180407
0.00202505
0.0091903
0.00887133
0.00188423
0.00166849
0.00167229
0.00167135
0.00167135
0.00167228
0.00166848
0.00188541
0.00887125
0.00858008
0.00175937
0.00154742
0.00155076
0.00154995
0.00154995
0.00155076
0.00154742
0.00176049
0.00858
0.00831349
0.00164725
0.0014389
0.00144184
0.00144114
0.00144114
0.00144183
0.00143889
0.00164832
0.00831342
0.00806886
0.00154622
0.00134126
0.00134384
0.00134324
0.00134324
0.00134384
0.00134126
0.00154725
0.00806879
0.00784383
0.00145488
0.00125311
0.00125538
0.00125486
0.00125486
0.00125538
0.00125311
0.00145586
0.00784377
0.00763639
0.00137204
0.00117328
0.00117527
0.00117482
0.00117482
0.00117526
0.00117327
0.00137297
0.00763633
0.00744475
0.00129669
0.00110075
0.00110249
0.0011021
0.0011021
0.00110249
0.00110075
0.00129758
0.0074447
0.00726736
0.00122796
0.00103467
0.00103619
0.00103586
0.00103586
0.00103619
0.00103467
0.00122882
0.00726731
0.00710286
0.00116511
0.000974312
0.000975633
0.000975346
0.000975343
0.000975629
0.000974306
0.00116594
0.0071028
0.00695002
0.0011075
0.00091903
0.000920173
0.000919927
0.000919924
0.000920168
0.000919023
0.0011083
0.00694997
0.00680779
0.00105457
0.000868277
0.000869261
0.00086905
0.000869047
0.000869256
0.000868271
0.00105534
0.00680774
0.00667522
0.00100583
0.000821578
0.000822417
0.000822238
0.000822235
0.000822413
0.000821571
0.00100658
0.00667518
0.00655147
0.000960871
0.000778515
0.000779223
0.000779071
0.000779068
0.000779219
0.000778507
0.000961581
0.00655142
0.00643577
0.000919307
0.000738722
0.000739313
0.000739184
0.000739181
0.000739308
0.000738715
0.000919987
0.00643573
0.00632746
0.000880817
0.000701881
0.000702363
0.000702256
0.000702253
0.000702359
0.000701873
0.000881465
0.00632742
0.00622593
0.000845111
0.000667707
0.000668092
0.000668003
0.000668
0.000668088
0.000667699
0.000845727
0.00622589
0.00613064
0.000811933
0.000635956
0.000636248
0.000636175
0.000636172
0.000636244
0.000635944
0.000812519
0.0061306
0.00604109
0.000781053
0.000606406
0.000606609
0.00060655
0.000606547
0.000606605
0.000606386
0.000781612
0.00604105
0.00595684
0.000752271
0.00057886
0.000578977
0.000578931
0.000578928
0.000578973
0.000578829
0.000752804
0.0059568
0.00587749
0.000725404
0.000553143
0.000553177
0.000553142
0.000553139
0.000553173
0.000553097
0.000725916
0.00587745
0.00580267
0.000700293
0.000529098
0.000529051
0.000529025
0.000529022
0.000529047
0.000529034
0.000700786
0.00580263
0.00573205
0.00067679
0.000506584
0.000506458
0.000506441
0.000506438
0.000506454
0.0005065
0.00067727
0.00573201
0.00566532
0.000654767
0.000485475
0.000485273
0.000485263
0.00048526
0.000485269
0.000485368
0.000655237
0.00566528
0.00560221
0.000634107
0.000465658
0.000465381
0.000465378
0.000465375
0.000465377
0.000465527
0.000634569
0.00560217
0.00554247
0.000614702
0.00044703
0.00044668
0.000446682
0.00044668
0.000446675
0.000446876
0.000615159
0.00554243
0.00548587
0.000596459
0.000429499
0.000429077
0.000429084
0.000429082
0.000429073
0.000429323
0.000596911
0.00548582
0.00543219
0.000579287
0.000412981
0.000412489
0.0004125
0.000412498
0.000412484
0.000412783
0.000579738
0.00543214
0.00538123
0.000563111
0.000397401
0.000396839
0.000396854
0.000396852
0.000396834
0.000397181
0.00056356
0.00538118
0.00533282
0.000547855
0.00038269
0.000382059
0.000382077
0.000382075
0.000382054
0.000382448
0.000548304
0.00533277
0.0052868
0.000533455
0.000368784
0.000368085
0.000368106
0.000368104
0.00036808
0.000368521
0.000533905
0.00528675
0.005243
0.00051985
0.000355627
0.000354861
0.000354884
0.000354882
0.000354855
0.000355342
0.000520302
0.00524295
0.0052013
0.000506983
0.000343166
0.000342334
0.000342358
0.000342356
0.000342328
0.00034286
0.000507441
0.00520124
0.00516155
0.000494806
0.000331353
0.000330456
0.000330482
0.000330479
0.000330449
0.000331027
0.000495269
0.00516149
0.00512364
0.00048327
0.000320145
0.000319183
0.00031921
0.000319208
0.000319176
0.000319799
0.00048374
0.00512357
0.00508745
0.000472329
0.000309502
0.000308475
0.000308503
0.000308501
0.000308468
0.000309135
0.000472805
0.00508738
0.00505289
0.000461914
0.000299384
0.000298296
0.000298324
0.000298322
0.000298288
0.000298996
0.000462396
0.00505281
0.00501986
0.000451906
0.000289754
0.00028861
0.000288639
0.000288637
0.000288602
0.000289345
0.000452388
0.00501978
0.00498825
0.000441328
0.000280556
0.000279388
0.000279417
0.000279415
0.000279379
0.000280134
0.000441779
0.00498817
0.0505473
0.0434539
0.0434334
0.0434334
0.0434334
0.0434334
0.0434334
0.0434334
0.0434539
0.0505473
0.0428477
0.0320528
0.0319432
0.0319682
0.0319682
0.0319682
0.0319682
0.0319432
0.0320528
0.0428478
0.036911
0.0244794
0.0243159
0.0243515
0.0243481
0.0243481
0.0243515
0.0243159
0.0244796
0.036911
0.0322395
0.0192384
0.0190353
0.0190751
0.019069
0.019069
0.0190751
0.0190353
0.0192388
0.0322395
0.028497
0.0154834
0.0152512
0.0152908
0.0152831
0.0152831
0.0152907
0.0152512
0.015484
0.0284969
0.0254522
0.012711
0.0124596
0.0124965
0.0124882
0.0124882
0.0124965
0.0124596
0.0127116
0.0254521
0.0229418
0.0106112
0.0103485
0.0103817
0.0103735
0.0103736
0.0103817
0.0103485
0.0106121
0.0229418
0.0208477
0.00898634
0.00871757
0.00874698
0.0087393
0.00873931
0.00874696
0.0087176
0.00898743
0.0208477
0.0190826
0.00770525
0.00743419
0.00745993
0.00745295
0.00745296
0.00745991
0.00743422
0.0077065
0.0190825
0.0175807
0.00667864
0.0064079
0.0064303
0.00642407
0.00642409
0.00643028
0.00640792
0.00668004
0.0175806
0.016292
0.00584412
0.00557548
0.00559491
0.00558944
0.00558946
0.0055949
0.0055755
0.00584563
0.016292
0.0151778
0.00515714
0.00489178
0.00490863
0.00490387
0.00490388
0.00490862
0.0048918
0.00515871
0.0151778
0.0142079
0.00458523
0.00432391
0.00433853
0.0043344
0.00433441
0.00433852
0.00432393
0.00458684
0.0142078
0.0133581
0.00410433
0.0038475
0.0038602
0.00385663
0.00385664
0.00386019
0.00384752
0.00410592
0.0133581
0.0126094
0.00369626
0.00344419
0.00345523
0.00345215
0.00345216
0.00345522
0.0034442
0.00369782
0.0126093
0.0119462
0.00334718
0.00309995
0.00310957
0.00310692
0.00310693
0.00310956
0.00309997
0.00334868
0.0119461
0.0113558
0.00304633
0.00280395
0.00281234
0.00281006
0.00281006
0.00281233
0.00280396
0.00304776
0.0113558
0.010828
0.0027853
0.00254768
0.00255502
0.00255305
0.00255306
0.00255501
0.00254769
0.00278664
0.010828
0.0103541
0.0025574
0.00232443
0.00233085
0.00232916
0.00232916
0.00233085
0.00232444
0.00255866
0.0103541
0.00992708
0.00235729
0.00212883
0.00213446
0.002133
0.002133
0.00213445
0.00212884
0.00235847
0.00992703
0.00954082
0.00218068
0.00195654
0.00196148
0.00196022
0.00196022
0.00196148
0.00195655
0.00218177
0.00954078
0.00919032
0.00202404
0.00180405
0.00180839
0.0018073
0.0018073
0.00180838
0.00180405
0.00202505
0.00919027
0.00887128
0.0018845
0.00166846
0.00167228
0.00167134
0.00167134
0.00167227
0.00166847
0.00188542
0.00887123
0.00858003
0.00175967
0.0015474
0.00155076
0.00154994
0.00154994
0.00155075
0.0015474
0.00176052
0.00857998
0.00831345
0.00164757
0.00143887
0.00144183
0.00144113
0.00144113
0.00144183
0.00143888
0.00164835
0.00831339
0.00806881
0.00154655
0.00134124
0.00134384
0.00134323
0.00134323
0.00134383
0.00134124
0.00154726
0.00806876
0.0078438
0.00145521
0.00125309
0.00125538
0.00125485
0.00125485
0.00125537
0.0012531
0.00145585
0.00784374
0.00763635
0.00137237
0.00117326
0.00117526
0.00117481
0.00117481
0.00117526
0.00117326
0.00137293
0.0076363
0.00744472
0.00129701
0.00110073
0.00110249
0.00110209
0.00110209
0.00110248
0.00110073
0.0012975
0.00744466
0.00726733
0.00122828
0.00103466
0.00103619
0.00103585
0.00103585
0.00103618
0.00103466
0.0012287
0.00726727
0.00710282
0.00116543
0.000974294
0.000975627
0.000975336
0.000975335
0.000975624
0.000974295
0.00116577
0.00710276
0.00694998
0.00110782
0.000919012
0.000920167
0.000919917
0.000919916
0.000920164
0.000919012
0.00110809
0.00694993
0.00680775
0.00105489
0.00086826
0.000869254
0.00086904
0.00086904
0.000869252
0.00086826
0.0010551
0.0068077
0.00667518
0.00100615
0.000821561
0.000822411
0.000822228
0.000822227
0.000822408
0.000821561
0.00100631
0.00667512
0.00655143
0.000961194
0.000778498
0.000779217
0.000779061
0.00077906
0.000779214
0.000778497
0.000961299
0.00655137
0.00643573
0.000919637
0.000738706
0.000739306
0.000739175
0.000739174
0.000739304
0.000738704
0.000919698
0.00643567
0.00632742
0.000881155
0.000701864
0.000702357
0.000702247
0.000702245
0.000702354
0.000701862
0.000881178
0.00632736
0.00622589
0.000845457
0.000667691
0.000668085
0.000667994
0.000667993
0.000668083
0.000667688
0.000845449
0.00622583
0.0061306
0.000812283
0.00063594
0.000636241
0.000636166
0.000636164
0.000636239
0.000635933
0.000812254
0.00613053
0.00604105
0.000781407
0.000606391
0.000606602
0.000606541
0.000606539
0.000606599
0.000606375
0.000781365
0.00604098
0.0059568
0.000752626
0.000578845
0.00057897
0.000578921
0.00057892
0.000578968
0.000578818
0.000752581
0.00595673
0.00587744
0.00072576
0.000553129
0.000553169
0.000553132
0.000553131
0.000553167
0.000553086
0.000725718
0.00587737
0.00580262
0.000700649
0.000529084
0.000529043
0.000529015
0.000529014
0.000529041
0.000529023
0.000700615
0.00580255
0.00573199
0.000677148
0.00050657
0.000506451
0.000506431
0.00050643
0.000506449
0.000506488
0.000677125
0.00573192
0.00566526
0.000655125
0.000485461
0.000485265
0.000485253
0.000485252
0.000485263
0.000485357
0.000655117
0.00566519
0.00560216
0.000634465
0.000465644
0.000465373
0.000465368
0.000465366
0.000465371
0.000465519
0.000634471
0.00560208
0.00554241
0.00061506
0.000447016
0.000446672
0.000446672
0.000446671
0.00044667
0.000446869
0.000615079
0.00554234
0.00548581
0.000596814
0.000429485
0.000429069
0.000429074
0.000429073
0.000429067
0.000429317
0.000596847
0.00548573
0.00543212
0.000579641
0.000412967
0.000412481
0.00041249
0.000412489
0.000412478
0.000412778
0.000579686
0.00543204
0.00538117
0.00056346
0.000397386
0.000396831
0.000396844
0.000396843
0.000396828
0.000397177
0.000563517
0.00538109
0.00533276
0.0005482
0.000382674
0.00038205
0.000382067
0.000382066
0.000382048
0.000382444
0.00054827
0.00533268
0.00528673
0.000533797
0.000368768
0.000368077
0.000368096
0.000368095
0.000368074
0.000368517
0.00053388
0.00528665
0.00524294
0.000520189
0.00035561
0.000354852
0.000354874
0.000354873
0.000354849
0.000355339
0.000520285
0.00524285
0.00520123
0.000507323
0.000343148
0.000342325
0.000342348
0.000342347
0.000342322
0.000342856
0.000507432
0.00520114
0.00516148
0.000495148
0.000331335
0.000330446
0.000330471
0.00033047
0.000330443
0.000331023
0.000495268
0.00516138
0.00512357
0.000483613
0.000320126
0.000319173
0.0003192
0.000319199
0.00031917
0.000319794
0.000483746
0.00512347
0.00508738
0.000472669
0.000309481
0.000308466
0.000308493
0.000308492
0.000308462
0.000309129
0.000472816
0.00508727
0.00505282
0.000462251
0.000299363
0.000298286
0.000298314
0.000298313
0.000298282
0.00029899
0.000462412
0.00505271
0.00501979
0.000452236
0.000289731
0.0002886
0.000288628
0.000288627
0.000288596
0.000289338
0.000452409
0.00501967
0.00498818
0.000441637
0.000280531
0.000279377
0.000279406
0.000279405
0.000279373
0.000280126
0.000441801
0.00498806
)
;
    }
    inlet
    {
        type            turbulentIntensityKineticEnergyInlet;
        intensity       0.05;
        value           uniform 0.06;
    }
    outlet
    {
        type            inletOutlet;
        inletValue      uniform 0.003;
        value           nonuniform List<scalar> 
20
(
0.00498825
0.000441328
0.000280556
0.000279388
0.000279417
0.000279415
0.000279379
0.000280134
0.000441779
0.00498817
0.00498818
0.000441637
0.000280531
0.000279377
0.000279406
0.000279405
0.000279373
0.000280126
0.000441801
0.00498806
)
;
    }
    heatWall
    {
        type            kqRWallFunction;
        value           nonuniform List<scalar> 
240
(
0.0505472
0.0505473
0.0428477
0.0428478
0.036911
0.036911
0.0322396
0.0322395
0.0284971
0.0284969
0.0254524
0.0254521
0.022942
0.0229418
0.0208478
0.0208477
0.0190826
0.0190825
0.0175807
0.0175806
0.016292
0.016292
0.0151779
0.0151778
0.0142079
0.0142078
0.0133581
0.0133581
0.0126094
0.0126093
0.0119462
0.0119461
0.0113558
0.0113558
0.010828
0.010828
0.0103541
0.0103541
0.00992706
0.00992703
0.0095408
0.00954078
0.0091903
0.00919027
0.00887125
0.00887123
0.00858
0.00857998
0.00831342
0.00831339
0.00806879
0.00806876
0.00784377
0.00784374
0.00763633
0.0076363
0.0074447
0.00744466
0.00726731
0.00726727
0.0071028
0.00710276
0.00694997
0.00694993
0.00680774
0.0068077
0.00667518
0.00667512
0.00655142
0.00655137
0.00643573
0.00643567
0.00632742
0.00632736
0.00622589
0.00622583
0.0061306
0.00613053
0.00604105
0.00604098
0.0059568
0.00595673
0.00587745
0.00587737
0.00580263
0.00580255
0.00573201
0.00573192
0.00566528
0.00566519
0.00560217
0.00560208
0.00554243
0.00554234
0.00548582
0.00548573
0.00543214
0.00543204
0.00538118
0.00538109
0.00533277
0.00533268
0.00528675
0.00528665
0.00524295
0.00524285
0.00520124
0.00520114
0.00516149
0.00516138
0.00512357
0.00512347
0.00508738
0.00508727
0.00505281
0.00505271
0.00501978
0.00501967
0.00498817
0.00498806
0.0505472
0.0505473
0.0428478
0.0428477
0.0369112
0.036911
0.0322398
0.0322395
0.0284973
0.028497
0.0254525
0.0254522
0.0229422
0.0229418
0.020848
0.0208477
0.0190828
0.0190826
0.0175809
0.0175807
0.0162922
0.016292
0.015178
0.0151778
0.0142081
0.0142079
0.0133583
0.0133581
0.0126095
0.0126094
0.0119463
0.0119462
0.0113559
0.0113558
0.0108281
0.010828
0.0103542
0.0103541
0.00992716
0.00992708
0.0095409
0.00954082
0.00919038
0.00919032
0.00887133
0.00887128
0.00858008
0.00858003
0.00831349
0.00831345
0.00806886
0.00806881
0.00784383
0.0078438