/*--------------------------------*- C++ -*----------------------------------*\
  =========                 |
  \\      /  F ield         | OpenFOAM: The Open Source CFD Toolbox
   \\    /   O peration     | Website:  https://openfoam.org
    \\  /    A nd           | Version:  8
     \\/     M anipulation  |
\*---------------------------------------------------------------------------*/
FoamFile
{
    version     2.0;
    format      ascii;
    class       volScalarField;
    location    "400";
    object      epsilon;
}
// * * * * * * * * * * * * * * * * * * * * * * * * * * * * * * * * * * * * * //

dimensions      [0 2 -3 0 0 0 0];

internalField   nonuniform List<scalar> 
1200
(
1.13863
0.888649
0.710517
0.579998
0.481998
0.406851
0.34817
0.301605
0.264122
0.233563
0.208359
0.187356
0.169687
0.154694
0.141872
0.130828
0.121251
0.112897
0.105569
0.0991055
0.0933785
0.0882809
0.0837246
0.0796362
0.0759544
0.0726273
0.0696112
0.0668688
0.0643683
0.0620822
0.0599869
0.058062
0.0562896
0.0546542
0.0531421
0.0517414
0.0504416
0.0492332
0.0481079
0.0470585
0.0460783
0.0451614
0.0443025
0.0434969
0.0427404
0.042029
0.0413593
0.040728
0.0401324
0.0395699
0.0390379
0.0385344
0.0380573
0.0376049
0.0371755
0.0367674
0.0363794
0.0360101
0.0356584
0.035323
1.45211
0.919933
0.613995
0.42778
0.30886
0.229728
0.175221
0.136555
0.108421
0.0874929
0.0716194
0.0593713
0.0497755
0.0421544
0.0360268
0.0310452
0.0269542
0.0235638
0.0207303
0.0183441
0.0163202
0.0145923
0.0131083
0.0118266
0.0107138
0.00974296
0.00889206
0.00814312
0.00748124
0.0068941
0.0063714
0.00590449
0.00548611
0.00511008
0.00477113
0.00446478
0.00418718
0.00393502
0.00370541
0.00349588
0.00330427
0.00312869
0.00296749
0.00281921
0.00268257
0.00255645
0.00243985
0.00233189
0.00223176
0.00213877
0.0020523
0.00197176
0.00189667
0.00182654
0.00176097
0.0016996
0.00164207
0.00158791
0.00153644
0.00148267
1.45109
0.91522
0.607843
0.421011
0.301934
0.222953
0.168762
0.130483
0.102758
0.0822316
0.0667406
0.0548491
0.0455813
0.0382597
0.0324045
0.0276701
0.0238031
0.0206157
0.0179663
0.0157469
0.0138746
0.0122846
0.0109261
0.00975881
0.00875048
0.00787516
0.00711178
0.00644313
0.00585507
0.00533589
0.00487587
0.00446687
0.00410204
0.00377563
0.00348273
0.00321918
0.00298142
0.00276639
0.00257148
0.00239439
0.00223315
0.00208604
0.00195155
0.00182835
0.00171531
0.00161139
0.0015157
0.00142745
0.00134593
0.00127052
0.00120066
0.00113584
0.00107563
0.00101961
0.000967449
0.000918805
0.000873391
0.000830938
0.00079119
0.000753841
1.45109
0.916295
0.609183
0.422338
0.303112
0.223945
0.169577
0.131145
0.103292
0.0826632
0.0670899
0.0551327
0.0458125
0.038449
0.0325602
0.0277987
0.0239098
0.0207046
0.0180406
0.0158092
0.013927
0.0123288
0.0109635
0.00979047
0.00877733
0.00789794
0.00713112
0.00645954
0.00586898
0.00534767
0.00488581
0.00447522
0.00410902
0.00378142
0.0034875
0.00322305
0.0029845
0.00276877
0.00257322
0.00239554
0.00223376
0.00208615
0.00195119
0.00182757
0.00171412
0.00160983
0.00151379
0.00142521
0.00134338
0.00126767
0.00119752
0.00113244
0.00107197
0.00101572
0.000963329
0.000914468
0.000868848
0.000826206
0.000786303
0.000748924
1.45109
0.916298
0.609053
0.422134
0.302882
0.223722
0.169375
0.130971
0.103146
0.0825429
0.0669913
0.0550523
0.045747
0.0383957
0.0325167
0.0277631
0.0238807
0.0206807
0.0180209
0.015793
0.0139136
0.0123177
0.0109543
0.0097828
0.00877093
0.00789261
0.00712667
0.00645583
0.00586588
0.00534508
0.00488365
0.00447342
0.00410753
0.00378019
0.00348648
0.00322221
0.00298382
0.00276822
0.00257278
0.0023952
0.0022335
0.00208595
0.00195105
0.00182747
0.00171407
0.00160981
0.0015138
0.00142524
0.00134343
0.00126774
0.0011976
0.00113253
0.00107207
0.00101583
0.000963439
0.000914581
0.000868962
0.00082632
0.000786417
0.000749037
1.45109
0.916298
0.609053
0.422134
0.302883
0.223722
0.169376
0.130971
0.103147
0.0825432
0.0669916
0.0550525
0.0457472
0.0383958
0.0325168
0.0277632
0.0238808
0.0206808
0.0180209
0.015793
0.0139136
0.0123177
0.0109543
0.00978278
0.00877091
0.00789259
0.00712664
0.0064558
0.00586585
0.00534505
0.00488362
0.00447339
0.0041075
0.00378016
0.00348645
0.00322219
0.00298379
0.0027682
0.00257275
0.00239518
0.00223348
0.00208593
0.00195103
0.00182746
0.00171405
0.00160979
0.00151378
0.00142523
0.00134341
0.00126772
0.00119759
0.00113252
0.00107206
0.00101582
0.000963428
0.00091457
0.000868951
0.000826309
0.000786406
0.000749026
1.45109
0.916295
0.609182
0.422337
0.303111
0.223944
0.169576
0.131144
0.103291
0.0826626
0.0670894
0.0551322
0.0458121
0.0384487
0.03256
0.0277985
0.0239096
0.0207044
0.0180404
0.0158091
0.0139269
0.0123287
0.0109634
0.00979039
0.00877725
0.00789787
0.00713106
0.00645949
0.00586893
0.00534762
0.00488576
0.00447517
0.00410898
0.00378139
0.00348746
0.00322302
0.00298447
0.00276875
0.00257319
0.00239552
0.00223374
0.00208613
0.00195117
0.00182755
0.0017141
0.00160981
0.00151377
0.00142518
0.00134335
0.00126764
0.0011975
0.00113241
0.00107195
0.0010157
0.000963302
0.000914439
0.000868818
0.000826174
0.00078627
0.00074889
1.45109
0.915221
0.607845
0.421013
0.301936
0.222955
0.168763
0.130484
0.102758
0.0822319
0.0667408
0.0548491
0.0455813
0.0382597
0.0324045
0.02767
0.0238031
0.0206156
0.0179662
0.0157468
0.0138745
0.0122845
0.010926
0.00975872
0.0087504
0.00787508
0.0071117
0.00644305
0.00585499
0.00533582
0.00487579
0.00446679
0.00410197
0.00377556
0.00348266
0.00321911
0.00298134
0.0027663
0.00257135
0.0023942
0.00223288
0.00208567
0.00195107
0.00182777
0.0017146
0.00161057
0.00151477
0.00142642
0.0013448
0.00126929
0.00119934
0.00113443
0.00107414
0.00101805
0.000965811
0.000917097
0.000871615
0.000829097
0.000789285
0.000751905
1.45211
0.919938
0.614001
0.427788
0.308871
0.229744
0.175239
0.136576
0.108444
0.0875162
0.0716432
0.0593953
0.0497992
0.0421775
0.0360492
0.0310667
0.0269749
0.0235835
0.020749
0.0183617
0.0163368
0.014608
0.013123
0.0118403
0.0107264
0.00975462
0.00890279
0.00815297
0.00749031
0.00690247
0.00637918
0.00591175
0.00549289
0.00511644
0.00477712
0.00447045
0.00419257
0.00394017
0.00371036
0.00350068
0.00330893
0.00313323
0.00297193
0.00282357
0.00268687
0.00256068
0.00244403
0.00233601
0.00223584
0.00214283
0.00205633
0.00197577
0.00190066
0.00183054
0.00176498
0.00170362
0.00164609
0.00159193
0.00154044
0.00148648
1.13863
0.888646
0.710513
0.579993
0.481992
0.406846
0.348165
0.3016
0.264118
0.233559
0.208356
0.187353
0.169684
0.154691
0.14187
0.130825
0.121249
0.112896
0.105567
0.0991039
0.0933771
0.0882796
0.0837234
0.0796351
0.0759533
0.0726263
0.0696103
0.066868
0.0643675
0.0620815
0.0599863
0.0580614
0.056289
0.0546537
0.0531416
0.051741
0.0504411
0.0492327
0.0481075
0.0470581
0.0460779
0.045161
0.0443021
0.0434965
0.0427399
0.0420285
0.0413588
0.0407275
0.0401319
0.0395693
0.0390373
0.0385337
0.0380566
0.0376041
0.0371746
0.0367665
0.0363784
0.0360091
0.0356574
0.0353219
1.13864
0.888649
0.710512
0.57999
0.481988
0.406843
0.348162
0.301598
0.264117
0.233558
0.208355
0.187352
0.169684
0.154691
0.14187
0.130826
0.12125
0.112896
0.105567
0.0991042
0.0933774
0.0882799
0.0837238
0.0796355
0.0759537
0.0726267
0.0696106
0.0668683
0.0643678
0.0620817
0.0599865
0.0580616
0.0562892
0.0546538
0.0531417
0.051741
0.0504411
0.0492327
0.0481075
0.047058
0.0460778
0.0451609
0.044302
0.0434964
0.0427399
0.0420285
0.0413588
0.0407275
0.0401319
0.0395693
0.0390374
0.0385339
0.0380568
0.0376044
0.0371749
0.0367669
0.0363789
0.0360096
0.0356579
0.0353225
1.45211
0.919932
0.613981
0.427764
0.308852
0.229729
0.175226
0.136561
0.108426
0.0874946
0.0716181
0.0593677
0.0497702
0.0421479
0.0360199
0.0310384
0.0269482
0.0235589
0.0207268
0.0183419
0.0163194
0.0145929
0.0131101
0.0118293
0.0107173
0.00974692
0.00889636
0.00814758
0.00748576
0.00689861
0.00637584
0.00590884
0.00549033
0.00511415
0.00477507
0.00446862
0.00419094
0.0039387
0.00370902
0.00349941
0.00330772
0.00313206
0.00297079
0.00282246
0.00268578
0.00255963
0.002443
0.00233501
0.00223486
0.00214184
0.00205533
0.00197477
0.00189965
0.00182953
0.00176398
0.00170262
0.00164508
0.00159091
0.00153941
0.00148552
1.45109
0.915221
0.607846
0.421015
0.301936
0.222954
0.168762
0.130483
0.102757
0.0822309
0.0667399
0.0548484
0.0455806
0.0382591
0.032404
0.0276695
0.0238027
0.0206153
0.0179659
0.0157466
0.0138743
0.0122843
0.0109259
0.00975857
0.00875026
0.00787496
0.00711159
0.00644296
0.00585491
0.00533574
0.00487573
0.00446673
0.00410191
0.00377551
0.00348261
0.00321907
0.00298131
0.0027663
0.00257139
0.00239431
0.00223308
0.00208598
0.00195149
0.0018283
0.00171526
0.00161135
0.00151566
0.00142742
0.0013459
0.00127049
0.00120062
0.0011358
0.00107559
0.00101958
0.000967413
0.000918769
0.000873354
0.000830899
0.000791148
0.000753794
1.45109
0.916294
0.609182
0.422338
0.303111
0.223945
0.169576
0.131144
0.103291
0.0826625
0.0670893
0.0551322
0.045812
0.0384486
0.0325599
0.0277984
0.0239096
0.0207044
0.0180404
0.0158091
0.0139269
0.0123287
0.0109634
0.00979039
0.00877725
0.00789787
0.00713105
0.00645948
0.00586892
0.00534761
0.00488575
0.00447516
0.00410897
0.00378138
0.00348745
0.003223
0.00298446
0.00276873
0.00257317
0.0023955
0.00223372
0.00208611
0.00195115
0.00182752
0.00171408
0.00160978
0.00151375
0.00142516
0.00134333
0.00126763
0.00119748
0.0011324
0.00107193
0.00101568
0.000963288
0.000914427
0.000868808
0.000826165
0.000786262
0.000748883
1.45109
0.916296
0.609052
0.422134
0.302883
0.223723
0.169375
0.130971
0.103146
0.0825425
0.0669909
0.0550518
0.0457465
0.0383953
0.0325164
0.0277628
0.0238805
0.0206805
0.0180207
0.0157928
0.0139135
0.0123176
0.0109541
0.00978268
0.00877083
0.00789251
0.00712657
0.00645574
0.00586579
0.00534499
0.00488357
0.00447334
0.00410746
0.00378012
0.00348641
0.00322215
0.00298376
0.00276816
0.00257272
0.00239514
0.00223344
0.00208589
0.00195099
0.00182742
0.00171402
0.00160976
0.00151375
0.00142519
0.00134338
0.00126769
0.00119756
0.00113248
0.00107203
0.00101578
0.000963395
0.000914537
0.000868919
0.000826277
0.000786374
0.000748994
1.45109
0.916297
0.609053
0.422135
0.302884
0.223723
0.169376
0.130971
0.103146
0.0825428
0.0669912
0.0550521
0.0457468
0.0383954
0.0325165
0.027763
0.0238806
0.0206806
0.0180208
0.0157929
0.0139135
0.0123176
0.0109542
0.00978269
0.00877083
0.00789251
0.00712657
0.00645573
0.00586579
0.00534499
0.00488356
0.00447333
0.00410745
0.00378011
0.0034864
0.00322214
0.00298374
0.00276815
0.00257271
0.00239513
0.00223343
0.00208589
0.00195099
0.00182741
0.00171401
0.00160975
0.00151374
0.00142518
0.00134337
0.00126768
0.00119755
0.00113248
0.00107202
0.00101578
0.00096339
0.000914532
0.000868914
0.000826273
0.000786369
0.00074899
1.45109
0.916294
0.609182
0.422337
0.303111
0.223944
0.169575
0.131143
0.103291
0.082662
0.0670888
0.0551318
0.0458117
0.0384483
0.0325597
0.0277982
0.0239095
0.0207043
0.0180403
0.015809
0.0139268
0.0123286
0.0109633
0.00979032
0.00877719
0.00789782
0.00713101
0.00645944
0.00586889
0.00534758
0.00488572
0.00447513
0.00410895
0.00378135
0.00348743
0.00322298
0.00298444
0.00276871
0.00257316
0.00239549
0.00223371
0.00208609
0.00195114
0.00182751
0.00171407
0.00160977
0.00151374
0.00142516
0.00134332
0.00126762
0.00119747
0.00113239
0.00107192
0.00101567
0.000963274
0.000914412
0.000868791
0.000826147
0.000786243
0.000748863
1.45109
0.915221
0.607847
0.421016
0.301937
0.222955
0.168762
0.130483
0.102758
0.0822313
0.0667403
0.0548487
0.0455809
0.0382593
0.0324041
0.0276697
0.0238028
0.0206154
0.017966
0.0157467
0.0138743
0.0122844
0.0109259
0.00975861
0.00875029
0.00787498
0.00711161
0.00644297
0.00585491
0.00533574
0.00487572
0.00446672
0.0041019
0.00377549
0.0034826
0.00321905
0.00298128
0.00276624
0.00257129
0.00239414
0.00223282
0.00208562
0.00195102
0.00182771
0.00171455
0.00161051
0.00151472
0.00142636
0.00134474
0.00126923
0.00119928
0.00113438
0.00107408
0.00101799
0.000965756
0.000917043
0.000871562
0.000829045
0.000789235
0.000751845
1.45211
0.919936
0.613991
0.427779
0.308871
0.229752
0.175252
0.13659
0.108457
0.0875278
0.0716521
0.0594015
0.0498031
0.0421794
0.0360495
0.0310658
0.0269732
0.0235814
0.0207468
0.0183596
0.0163348
0.0146063
0.0131217
0.0118393
0.0107259
0.00975432
0.00890269
0.00815298
0.00749031
0.00690235
0.00637881
0.00591109
0.00549194
0.00511517
0.00477555
0.00446861
0.0041905
0.0039379
0.00370794
0.00349813
0.00330632
0.00313062
0.00296935
0.00282106
0.00268448
0.00255845
0.00244196
0.0023341
0.0022341
0.00214123
0.00205489
0.00197449
0.00189954
0.00182958
0.0017642
0.001703
0.00164562
0.00159162
0.00154026
0.0014864
1.13864
0.888651
0.710513
0.57999
0.481988
0.406842
0.348161
0.301597
0.264116
0.233557
0.208355
0.187352
0.169683
0.154691
0.141869
0.130825
0.121249
0.112895
0.105567
0.0991037
0.0933768
0.0882794
0.0837232
0.0796349
0.0759531
0.0726261
0.06961
0.0668677
0.0643672
0.0620811
0.0599858
0.0580609
0.0562885
0.0546531
0.053141
0.0517403
0.0504404
0.049232
0.0481067
0.0470572
0.046077
0.04516
0.0443011
0.0434955
0.0427389
0.0420275
0.0413577
0.0407264
0.0401308
0.0395681
0.0390361
0.0385326
0.0380555
0.037603
0.0371735
0.0367654
0.0363773
0.0360079
0.0356562
0.0353207
)
;

boundaryField
{
    wall
    {
        type            epsilonWallFunction;
        value           nonuniform List<scalar> 
1200
(
1.13863
1.45211
1.45109
1.45109
1.45109
1.45109
1.45109
1.45109
1.45211
1.13863
0.888649
0.919933
0.91522
0.916295
0.916298
0.916298
0.916295
0.915221
0.919938
0.888646
0.710517
0.613995
0.607843
0.609183
0.609053
0.609053
0.609182
0.607845
0.614001
0.710513
0.579998
0.42778
0.421011
0.422338
0.422134
0.422134
0.422337
0.421013
0.427788
0.579993
0.481998
0.30886
0.301934
0.303112
0.302882
0.302883
0.303111
0.301936
0.308871
0.481992
0.406851
0.229728
0.222953
0.223945
0.223722
0.223722
0.223944
0.222955
0.229744
0.406846
0.34817
0.175221
0.168762
0.169577
0.169375
0.169376
0.169576
0.168763
0.175239
0.348165
0.301605
0.136555
0.130483
0.131145
0.130971
0.130971
0.131144
0.130484
0.136576
0.3016
0.264122
0.108421
0.102758
0.103292
0.103146
0.103147
0.103291
0.102758
0.108444
0.264118
0.233563
0.0874929
0.0822316
0.0826632
0.0825429
0.0825432
0.0826626
0.0822319
0.0875162
0.233559
0.208359
0.0716194
0.0667406
0.0670899
0.0669913
0.0669916
0.0670894
0.0667408
0.0716432
0.208356
0.187356
0.0593713
0.0548491
0.0551327
0.0550523
0.0550525
0.0551322
0.0548491
0.0593953
0.187353
0.169687
0.0497755
0.0455813
0.0458125
0.045747
0.0457472
0.0458121
0.0455813
0.0497992
0.169684
0.154694
0.0421544
0.0382597
0.038449
0.0383957
0.0383958
0.0384487
0.0382597
0.0421775
0.154691
0.141872
0.0360268
0.0324045
0.0325602
0.0325167
0.0325168
0.03256
0.0324045
0.0360492
0.14187
0.130828
0.0310452
0.0276701
0.0277987
0.0277631
0.0277632
0.0277985
0.02767
0.0310667
0.130825
0.121251
0.0269542
0.0238031
0.0239098
0.0238807
0.0238808
0.0239096
0.0238031
0.0269749
0.121249
0.112897
0.0235638
0.0206157
0.0207046
0.0206807
0.0206808
0.0207044
0.0206156
0.0235835
0.112896
0.105569
0.0207303
0.0179663
0.0180406
0.0180209
0.0180209
0.0180404
0.0179662
0.020749
0.105567
0.0991055
0.0183441
0.0157469
0.0158092
0.015793
0.015793
0.0158091
0.0157468
0.0183617
0.0991039
0.0933785
0.0163202
0.0138746
0.013927
0.0139136
0.0139136
0.0139269
0.0138745
0.0163368
0.0933771
0.0882809
0.0145923
0.0122846
0.0123288
0.0123177
0.0123177
0.0123287
0.0122845
0.014608
0.0882796
0.0837246
0.0131083
0.0109261
0.0109635
0.0109543
0.0109543
0.0109634
0.010926
0.013123
0.0837234
0.0796362
0.0118266
0.00975881
0.00979047
0.0097828
0.00978278
0.00979039
0.00975872
0.0118403
0.0796351
0.0759544
0.0107138
0.00875048
0.00877733
0.00877093
0.00877091
0.00877725
0.0087504
0.0107264
0.0759533
0.0726273
0.00974296
0.00787516
0.00789794
0.00789261
0.00789259
0.00789787
0.00787508
0.00975462
0.0726263
0.0696112
0.00889206
0.00711178
0.00713112
0.00712667
0.00712664
0.00713106
0.0071117
0.00890279
0.0696103
0.0668688
0.00814312
0.00644313
0.00645954
0.00645583
0.0064558
0.00645949
0.00644305
0.00815297
0.066868
0.0643683
0.00748124
0.00585507
0.00586898
0.00586588
0.00586585
0.00586893
0.00585499
0.00749031
0.0643675
0.0620822
0.0068941
0.00533589
0.00534767
0.00534508
0.00534505
0.00534762
0.00533582
0.00690247
0.0620815
0.0599869
0.0063714
0.00487587
0.00488581
0.00488365
0.00488362
0.00488576
0.00487579
0.00637918
0.0599863
0.058062
0.00590449
0.00446687
0.00447522
0.00447342
0.00447339
0.00447517
0.00446679
0.00591175
0.0580614
0.0562896
0.00548611
0.00410204
0.00410902
0.00410753
0.0041075
0.00410898
0.00410197
0.00549289
0.056289
0.0546542
0.00511008
0.00377563
0.00378142
0.00378019
0.00378016
0.00378139
0.00377556
0.00511644
0.0546537
0.0531421
0.00477113
0.00348273
0.0034875
0.00348648
0.00348645
0.00348746
0.00348266
0.00477712
0.0531416
0.0517414
0.00446478
0.00321918
0.00322305
0.00322221
0.00322219
0.00322302
0.00321911
0.00447045
0.051741
0.0504416
0.00418718
0.00298142
0.0029845
0.00298382
0.00298379
0.00298447
0.00298134
0.00419257
0.0504411
0.0492332
0.00393502
0.00276639
0.00276877
0.00276822
0.0027682
0.00276875
0.0027663
0.00394017
0.0492327
0.0481079
0.00370541
0.00257148
0.00257322
0.00257278
0.00257275
0.00257319
0.00257135
0.00371036
0.0481075
0.0470585
0.00349588
0.00239439
0.00239554
0.0023952
0.00239518
0.00239552
0.0023942
0.00350068
0.0470581
0.0460783
0.00330427
0.00223315
0.00223376
0.0022335
0.00223348
0.00223374
0.00223288
0.00330893
0.0460779
0.0451614
0.00312869
0.00208604
0.00208615
0.00208595
0.00208593
0.00208613
0.00208567
0.00313323
0.045161
0.0443025
0.00296749
0.00195155
0.00195119
0.00195105
0.00195103
0.00195117
0.00195107
0.00297193
0.0443021
0.0434969
0.00281921
0.00182835
0.00182757
0.00182747
0.00182746
0.00182755
0.00182777
0.00282357
0.0434965
0.0427404
0.00268257
0.00171531
0.00171412
0.00171407
0.00171405
0.0017141
0.0017146
0.00268687
0.0427399
0.042029
0.00255645
0.00161139
0.00160983
0.00160981
0.00160979
0.00160981
0.00161057
0.00256068
0.0420285
0.0413593
0.00243985
0.0015157
0.00151379
0.0015138
0.00151378
0.00151377
0.00151477
0.00244403
0.0413588
0.040728
0.00233189
0.00142745
0.00142521
0.00142524
0.00142523
0.00142518
0.00142642
0.00233601
0.0407275
0.0401324
0.00223176
0.00134593
0.00134338
0.00134343
0.00134341
0.00134335
0.0013448
0.00223584
0.0401319
0.0395699
0.00213877
0.00127052
0.00126767
0.00126774
0.00126772
0.00126764
0.00126929
0.00214283
0.0395693
0.0390379
0.0020523
0.00120066
0.00119752
0.0011976
0.00119759
0.0011975
0.00119934
0.00205633
0.0390373
0.0385344
0.00197176
0.00113584
0.00113244
0.00113253
0.00113252
0.00113241
0.00113443
0.00197577
0.0385337
0.0380573
0.00189667
0.00107563
0.00107197
0.00107207
0.00107206
0.00107195
0.00107414
0.00190066
0.0380566
0.0376049
0.00182654
0.00101961
0.00101572
0.00101583
0.00101582
0.0010157
0.00101805
0.00183054
0.0376041
0.0371755
0.00176097
0.000967449
0.000963329
0.000963439
0.000963428
0.000963302
0.000965811
0.00176498
0.0371746
0.0367674
0.0016996
0.000918805
0.000914468
0.000914581
0.00091457
0.000914439
0.000917097
0.00170362
0.0367665
0.0363794
0.00164207
0.000873391
0.000868848
0.000868962
0.000868951
0.000868818
0.000871615
0.00164609
0.0363784
0.0360101
0.00158791
0.000830938
0.000826206
0.00082632
0.000826309
0.000826174
0.000829097
0.00159193
0.0360091
0.0356584
0.00153644
0.00079119
0.000786303
0.000786417
0.000786406
0.00078627
0.000789285
0.00154044
0.0356574
0.035323
0.00148267
0.000753841
0.000748924
0.000749037
0.000749026
0.00074889
0.000751905
0.00148648
0.0353219
1.13864
1.45211
1.45109
1.45109
1.45109
1.45109
1.45109
1.45109
1.45211
1.13864
0.888649
0.919932
0.915221
0.916294
0.916296
0.916297
0.916294
0.915221
0.919936
0.888651
0.710512
0.613981
0.607846
0.609182
0.609052
0.609053
0.609182
0.607847
0.613991
0.710513
0.57999
0.427764
0.421015
0.422338
0.422134
0.422135
0.422337
0.421016
0.427779
0.57999
0.481988
0.308852
0.301936
0.303111
0.302883
0.302884
0.303111
0.301937
0.308871
0.481988
0.406843
0.229729
0.222954
0.223945
0.223723
0.223723
0.223944
0.222955
0.229752
0.406842
0.348162
0.175226
0.168762
0.169576
0.169375
0.169376
0.169575
0.168762
0.175252
0.348161
0.301598
0.136561
0.130483
0.131144
0.130971
0.130971
0.131143
0.130483
0.13659
0.301597
0.264117
0.108426
0.102757
0.103291
0.103146
0.103146
0.103291
0.102758
0.108457
0.264116
0.233558
0.0874946
0.0822309
0.0826625
0.0825425
0.0825428
0.082662
0.0822313
0.0875278
0.233557
0.208355
0.0716181
0.0667399
0.0670893
0.0669909
0.0669912
0.0670888
0.0667403
0.0716521
0.208355
0.187352
0.0593677
0.0548484
0.0551322
0.0550518
0.0550521
0.0551318
0.0548487
0.0594015
0.187352
0.169684
0.0497702
0.0455806
0.045812
0.0457465
0.0457468
0.0458117
0.0455809
0.0498031
0.169683
0.154691
0.0421479
0.0382591
0.0384486
0.0383953
0.0383954
0.0384483
0.0382593
0.0421794
0.154691
0.14187
0.0360199
0.032404
0.0325599
0.0325164
0.0325165
0.0325597
0.0324041
0.0360495
0.141869
0.130826
0.0310384
0.0276695
0.0277984
0.0277628
0.027763
0.0277982
0.0276697
0.0310658
0.130825
0.12125
0.0269482
0.0238027
0.0239096
0.0238805
0.0238806
0.0239095
0.0238028
0.0269732
0.121249
0.112896
0.0235589
0.0206153
0.0207044
0.0206805
0.0206806
0.0207043
0.0206154
0.0235814
0.112895
0.105567
0.0207268
0.0179659
0.0180404
0.0180207
0.0180208
0.0180403
0.017966
0.0207468
0.105567
0.0991042
0.0183419
0.0157466
0.0158091
0.0157928
0.0157929
0.015809
0.0157467
0.0183596
0.0991037
0.0933774
0.0163194
0.0138743
0.0139269
0.0139135
0.0139135
0.0139268
0.0138743
0.0163348
0.0933768
0.0882799
0.0145929
0.0122843
0.0123287
0.0123176
0.0123176
0.0123286
0.0122844
0.0146063
0.0882794
0.0837238
0.0131101
0.0109259
0.0109634
0.0109541
0.0109542
0.0109633
0.0109259
0.0131217
0.0837232
0.0796355
0.0118293
0.00975857
0.00979039
0.00978268
0.00978269
0.00979032
0.00975861
0.0118393
0.0796349
0.0759537
0.0107173
0.00875026
0.00877725
0.00877083
0.00877083
0.00877719
0.00875029
0.0107259
0.0759531
0.0726267
0.00974692
0.00787496
0.00789787
0.00789251
0.00789251
0.00789782
0.00787498
0.00975432
0.0726261
0.0696106
0.00889636
0.00711159
0.00713105
0.00712657
0.00712657
0.00713101
0.00711161
0.00890269
0.06961
0.0668683
0.00814758
0.00644296
0.00645948
0.00645574
0.00645573
0.00645944
0.00644297
0.00815298
0.0668677
0.0643678
0.00748576
0.00585491
0.00586892
0.00586579
0.00586579
0.00586889
0.00585491
0.00749031
0.0643672
0.0620817
0.00689861
0.00533574
0.00534761
0.00534499
0.00534499
0.00534758
0.00533574
0.00690235
0.0620811
0.0599865
0.00637584
0.00487573
0.00488575
0.00488357
0.00488356
0.00488572
0.00487572
0.00637881
0.0599858
0.0580616
0.00590884
0.00446673
0.00447516
0.00447334
0.00447333
0.00447513
0.00446672
0.00591109
0.0580609
0.0562892
0.00549033
0.00410191
0.00410897
0.00410746
0.00410745
0.00410895
0.0041019
0.00549194
0.0562885
0.0546538
0.00511415
0.00377551
0.00378138
0.00378012
0.00378011
0.00378135
0.00377549
0.00511517
0.0546531
0.0531417
0.00477507
0.00348261
0.00348745
0.00348641
0.0034864
0.00348743
0.0034826
0.00477555
0.053141
0.051741
0.00446862
0.00321907
0.003223
0.00322215
0.00322214
0.00322298
0.00321905
0.00446861
0.0517403
0.0504411
0.00419094
0.00298131
0.00298446
0.00298376
0.00298374
0.00298444
0.00298128
0.0041905
0.0504404
0.0492327
0.0039387
0.0027663
0.00276873
0.00276816
0.00276815
0.00276871
0.00276624
0.0039379
0.049232
0.0481075
0.00370902
0.00257139
0.00257317
0.00257272
0.00257271
0.00257316
0.00257129
0.00370794
0.0481067
0.047058
0.00349941
0.00239431
0.0023955
0.00239514
0.00239513
0.00239549
0.00239414
0.00349813
0.0470572
0.0460778
0.00330772
0.00223308
0.00223372
0.00223344
0.00223343
0.00223371
0.00223282
0.00330632
0.046077
0.0451609
0.00313206
0.00208598
0.00208611
0.00208589
0.00208589
0.00208609
0.00208562
0.00313062
0.04516
0.044302
0.00297079
0.00195149
0.00195115
0.00195099
0.00195099
0.00195114
0.00195102
0.00296935
0.0443011
0.0434964
0.00282246
0.0018283
0.00182752
0.00182742
0.00182741
0.00182751
0.00182771
0.00282106
0.0434955
0.0427399
0.00268578
0.00171526
0.00171408
0.00171402
0.00171401
0.00171407
0.00171455
0.00268448
0.0427389
0.0420285
0.00255963
0.00161135
0.00160978
0.00160976
0.00160975
0.00160977
0.00161051
0.00255845
0.0420275
0.0413588
0.002443
0.00151566
0.00151375
0.00151375
0.00151374
0.00151374
0.00151472
0.00244196
0.0413577
0.0407275
0.00233501
0.00142742
0.00142516
0.00142519
0.00142518
0.00142516
0.00142636
0.0023341
0.0407264
0.0401319
0.00223486
0.0013459
0.00134333
0.00134338
0.00134337
0.00134332
0.00134474
0.0022341
0.0401308
0.0395693
0.00214184
0.00127049
0.00126763
0.00126769
0.00126768
0.00126762
0.00126923
0.00214123
0.0395681
0.0390374
0.00205533
0.00120062
0.00119748
0.00119756
0.00119755
0.00119747
0.00119928
0.00205489
0.0390361
0.0385339
0.00197477
0.0011358
0.0011324
0.00113248
0.00113248
0.00113239
0.00113438
0.00197449
0.0385326
0.0380568
0.00189965
0.00107559
0.00107193
0.00107203
0.00107202
0.00107192
0.00107408
0.00189954
0.0380555
0.0376044
0.00182953
0.00101958
0.00101568
0.00101578
0.00101578
0.00101567
0.00101799
0.00182958
0.037603
0.0371749
0.00176398
0.000967413
0.000963288
0.000963395
0.00096339
0.000963274
0.000965756
0.0017642
0.0371735
0.0367669
0.00170262
0.000918769
0.000914427
0.000914537
0.000914532
0.000914412
0.000917043
0.001703
0.0367654
0.0363789
0.00164508
0.000873354
0.000868808
0.000868919
0.000868914
0.000868791
0.000871562
0.00164562
0.0363773
0.0360096
0.00159091
0.000830899
0.000826165
0.000826277
0.000826273
0.000826147
0.000829045
0.00159162
0.0360079
0.0356579
0.00153941
0.000791148
0.000786262
0.000786374
0.000786369
0.000786243
0.000789235
0.00154026
0.0356562
0.0353225
0.00148552
0.000753794
0.000748883
0.000748994
0.00074899
0.000748863
0.000751845
0.0014864
0.0353207
)
;
    }
    inlet
    {
        type            turbulentMixingLengthDissipationRateInlet;
        mixingLength    0.071;
        phi             phi;
        k               k;
        value           uniform 0.0340134;
    }
    outlet
    {
        type            inletOutlet;
        inletValue      uniform 0.0001;
        value           nonuniform List<scalar> 
20
(
0.035323
0.00148267
0.000753841
0.000748924
0.000749037
0.000749026
0.00074889
0.000751905
0.00148648
0.0353219
0.0353225
0.00148552
0.000753794
0.000748883
0.000748994
0.00074899
0.000748863
0.000751845
0.0014864
0.0353207
)
;
    }
    heatWall
    {
        type            epsilonWallFunction;
        value           nonuniform List<scalar> 
240
(
1.13863
1.13864
0.888646
0.888651
0.710513
0.710513
0.579993
0.57999
0.481992
0.481988
0.406846
0.406842
0.348165
0.348161
0.3016
0.301597
0.264118
0.264116
0.233559
0.233557
0.208356
0.208355
0.187353
0.187352
0.169684
0.169683
0.154691
0.154691
0.14187
0.141869
0.130825
0.130825
0.121249
0.121249
0.112896
0.112895
0.105567
0.105567
0.0991039
0.0991037
0.0933771
0.0933768
0.0882796
0.0882794
0.0837234
0.0837232
0.0796351
0.0796349
0.0759533
0.0759531
0.0726263
0.0726261
0.0696103
0.06961
0.066868
0.0668677
0.0643675
0.0643672
0.0620815
0.0620811
0.0599863
0.0599858
0.0580614
0.0580609
0.056289
0.0562885
0.0546537
0.0546531
0.0531416
0.053141
0.051741
0.0517403
0.0504411
0.0504404
0.0492327
0.049232
0.0481075
0.0481067
0.0470581
0.0470572
0.0460779
0.046077
0.045161
0.04516
0.0443021
0.0443011
0.0434965
0.0434955
0.0427399
0.0427389
0.0420285
0.0420275
0.0413588
0.0413577
0.0407275
0.0407264
0.0401319
0.0401308
0.0395693
0.0395681
0.0390373
0.0390361
0.0385337
0.0385326
0.0380566
0.0380555
0.0376041
0.037603
0.0371746
0.0371735
0.0367665
0.0367654
0.0363784
0.0363773
0.0360091
0.0360079
0.0356574
0.0356562
0.0353219
0.0353207
1.13863
1.13864
0.888649
0.888649
0.710517
0.710512
0.579998
0.57999
0.481998
0.481988
0.406851
0.406843
0.34817
0.348162
0.301605
0.301598
0.264122
0.264117
0.233563
0.233558
0.208359
0.208355
0.187356
0.187352
0.169687
0.169684
0.154694
0.154691
0.141872
0.14187
0.130828
0.130826
0.121251
0.12125
0.112897
0.112896
0.105569
0.105567
0.0991055
0.0991042
0.0933785
0.0933774
0.0882809
0.0882799
0.0837246
0.0837238
0.0796362
0.0796355
0.0759544
0.0759537
0.0726273
0.0726267
0.0696112
0.0696106
0.0668688
0.0668683
0.0643683
0.0643678
0.0620822
0.0620817
0.0599869
0.0599865
0.058062
0.0580616
0.0562896
0.0562892
0.0546542
0.0546538
0.0531421
0.0531417
0.0517414
0.051741
0.0504416
0.0504411
0.0492332
0.0492327
0.0481079
0.0481075
0.0470585
0.047058
0.0460783
0.0460778
0.0451614
0.0451609
0.0443025
0.044302
0.0434969
0.0434964
0.0427404
0.0427399
0.042029
0.0420285
0.0413593
0.0413588
0.040728
0.0407275
0.0401324
0.0401319
0.0395699
0.0395693
0.0390379
0.0390374
0.0385344
0.0385339
0.0380573
0.0380568
0.0376049
0.0376044
0.0371755
0.0371749
0.0367674
0.0367669
0.0363794
0.0363789
0.0360101
0.0360096
0.0356584
0.0356579
0.035323
0.0353225
)
;
    }
}


// ************************************************************************* //
