/*--------------------------------*- C++ -*----------------------------------*\
  =========                 |
  \\      /  F ield         | OpenFOAM: The Open Source CFD Toolbox
   \\    /   O peration     | Website:  https://openfoam.org
    \\  /    A nd           | Version:  8
     \\/     M anipulation  |
\*---------------------------------------------------------------------------*/
FoamFile
{
    version     2.0;
    format      ascii;
    class       volScalarField;
    location    "400";
    object      nut;
}
// * * * * * * * * * * * * * * * * * * * * * * * * * * * * * * * * * * * * * //

dimensions      [0 2 -1 0 0 0 0];

internalField   nonuniform List<scalar> 
1200
(
0.000201954
0.000185938
0.000172577
0.000161287
0.000151638
0.000143308
0.000136057
0.000129699
0.000124087
0.000119104
0.000114656
0.000110666
0.000107072
0.00010382
0.000100869
9.81805e-05
9.5724e-05
9.34731e-05
9.1405e-05
8.95003e-05
8.7742e-05
8.61154e-05
8.46076e-05
8.32074e-05
8.19048e-05
8.0691e-05
7.95582e-05
7.84994e-05
7.75085e-05
7.65798e-05
7.57084e-05
7.48898e-05
7.41198e-05
7.3395e-05
7.27118e-05
7.20672e-05
7.14586e-05
7.08834e-05
7.03392e-05
6.9824e-05
6.93357e-05
6.88728e-05
6.84334e-05
6.8016e-05
6.76194e-05
6.72421e-05
6.6883e-05
6.6541e-05
6.62151e-05
6.59042e-05
6.56076e-05
6.53243e-05
6.50536e-05
6.47948e-05
6.45472e-05
6.43101e-05
6.40831e-05
6.38655e-05
6.3657e-05
6.34567e-05
0.00011703
0.000100512
8.78389e-05
7.78703e-05
6.98584e-05
6.32951e-05
5.7831e-05
5.32191e-05
4.92799e-05
4.58799e-05
4.29182e-05
4.03172e-05
3.80164e-05
3.59677e-05
3.41329e-05
3.2481e-05
3.09866e-05
2.96288e-05
2.83901e-05
2.72561e-05
2.62144e-05
2.52546e-05
2.43677e-05
2.35461e-05
2.27831e-05
2.2073e-05
2.14108e-05
2.0792e-05
2.02126e-05
1.96694e-05
1.91592e-05
1.86792e-05
1.82272e-05
1.78009e-05
1.73982e-05
1.70176e-05
1.66573e-05
1.6316e-05
1.59923e-05
1.5685e-05
1.5393e-05
1.51154e-05
1.48512e-05
1.45996e-05
1.43598e-05
1.41312e-05
1.3913e-05
1.37046e-05
1.35056e-05
1.33154e-05
1.31334e-05
1.29594e-05
1.27927e-05
1.2633e-05
1.248e-05
1.23333e-05
1.21926e-05
1.2057e-05
1.19253e-05
1.17845e-05
0.000117003
0.00010034
8.75445e-05
7.74574e-05
6.93323e-05
6.26666e-05
5.71114e-05
5.24183e-05
4.84064e-05
4.49412e-05
4.19207e-05
3.92664e-05
3.69171e-05
3.4824e-05
3.29484e-05
3.12585e-05
2.97287e-05
2.83377e-05
2.70677e-05
2.59038e-05
2.48335e-05
2.38462e-05
2.29326e-05
2.2085e-05
2.12965e-05
2.05613e-05
1.98743e-05
1.92308e-05
1.8627e-05
1.80593e-05
1.75246e-05
1.70203e-05
1.65437e-05
1.60927e-05
1.56653e-05
1.52597e-05
1.48744e-05
1.45078e-05
1.41588e-05
1.3826e-05
1.35084e-05
1.3205e-05
1.29149e-05
1.26372e-05
1.23712e-05
1.21162e-05
1.18714e-05
1.16364e-05
1.14105e-05
1.11933e-05
1.09843e-05
1.07829e-05
1.05889e-05
1.04018e-05
1.02213e-05
1.00471e-05
9.87874e-06
9.71601e-06
9.55855e-06
9.40571e-06
0.000117003
0.000100379
8.76088e-05
7.75387e-05
6.94224e-05
6.27595e-05
5.72032e-05
5.25068e-05
4.84902e-05
4.50197e-05
4.19937e-05
3.9334e-05
3.69794e-05
3.48814e-05
3.3001e-05
3.13069e-05
2.97731e-05
2.83784e-05
2.71049e-05
2.59379e-05
2.48648e-05
2.38748e-05
2.29587e-05
2.21089e-05
2.13183e-05
2.05812e-05
1.98923e-05
1.92471e-05
1.86417e-05
1.80726e-05
1.75365e-05
1.70309e-05
1.65531e-05
1.61009e-05
1.56724e-05
1.52658e-05
1.48795e-05
1.4512e-05
1.4162e-05
1.38282e-05
1.35097e-05
1.32053e-05
1.29141e-05
1.26354e-05
1.23684e-05
1.21122e-05
1.18664e-05
1.16303e-05
1.14033e-05
1.11849e-05
1.09747e-05
1.07722e-05
1.05769e-05
1.03886e-05
1.02068e-05
1.00312e-05
9.86158e-06
9.69753e-06
9.53883e-06
9.38522e-06
0.000117003
0.000100379
8.76026e-05
7.75262e-05
6.94049e-05
6.27386e-05
5.71805e-05
5.24836e-05
4.84674e-05
4.49978e-05
4.19731e-05
3.93149e-05
3.69618e-05
3.48652e-05
3.29863e-05
3.12935e-05
2.9761e-05
2.83675e-05
2.70951e-05
2.59291e-05
2.48568e-05
2.38676e-05
2.29523e-05
2.21031e-05
2.13131e-05
2.05765e-05
1.98881e-05
1.92434e-05
1.86384e-05
1.80697e-05
1.7534e-05
1.70286e-05
1.6551e-05
1.60992e-05
1.56709e-05
1.52645e-05
1.48784e-05
1.45111e-05
1.41612e-05
1.38276e-05
1.35091e-05
1.32048e-05
1.29138e-05
1.26352e-05
1.23682e-05
1.21122e-05
1.18665e-05
1.16304e-05
1.14035e-05
1.11851e-05
1.0975e-05
1.07725e-05
1.05773e-05
1.0389e-05
1.02072e-05
1.00317e-05
9.86201e-06
9.69798e-06
9.53929e-06
9.38569e-06
0.000117003
0.000100379
8.76026e-05
7.75262e-05
6.94049e-05
6.27386e-05
5.71806e-05
5.24836e-05
4.84675e-05
4.49979e-05
4.19732e-05
3.93149e-05
3.69618e-05
3.48653e-05
3.29864e-05
3.12936e-05
2.9761e-05
2.83675e-05
2.70951e-05
2.59291e-05
2.48568e-05
2.38676e-05
2.29523e-05
2.21031e-05
2.13131e-05
2.05765e-05
1.98881e-05
1.92434e-05
1.86384e-05
1.80696e-05
1.75339e-05
1.70285e-05
1.6551e-05
1.60991e-05
1.56709e-05
1.52645e-05
1.48783e-05
1.4511e-05
1.41611e-05
1.38275e-05
1.35091e-05
1.32048e-05
1.29138e-05
1.26352e-05
1.23682e-05
1.21122e-05
1.18664e-05
1.16304e-05
1.14034e-05
1.11851e-05
1.09749e-05
1.07724e-05
1.05772e-05
1.03889e-05
1.02072e-05
1.00316e-05
9.86197e-06
9.69794e-06
9.53925e-06
9.38564e-06
0.000117003
0.000100379
8.76088e-05
7.75386e-05
6.94223e-05
6.27594e-05
5.72031e-05
5.25066e-05
4.84901e-05
4.50196e-05
4.19936e-05
3.93339e-05
3.69793e-05
3.48813e-05
3.3001e-05
3.13068e-05
2.9773e-05
2.83783e-05
2.71049e-05
2.59379e-05
2.48647e-05
2.38747e-05
2.29587e-05
2.21088e-05
2.13182e-05
2.05811e-05
1.98922e-05
1.92471e-05
1.86417e-05
1.80725e-05
1.75365e-05
1.70308e-05
1.6553e-05
1.61009e-05
1.56724e-05
1.52658e-05
1.48795e-05
1.4512e-05
1.41619e-05
1.38282e-05
1.35096e-05
1.32052e-05
1.29141e-05
1.26354e-05
1.23683e-05
1.21122e-05
1.18664e-05
1.16302e-05
1.14032e-05
1.11849e-05
1.09746e-05
1.07721e-05
1.05768e-05
1.03885e-05
1.02067e-05
1.00311e-05
9.86146e-06
9.69741e-06
9.5387e-06
9.38507e-06
0.000117003
0.00010034
8.75446e-05
7.74576e-05
6.93325e-05
6.26668e-05
5.71115e-05
5.24184e-05
4.84065e-05
4.49413e-05
4.19207e-05
3.92665e-05
3.69171e-05
3.4824e-05
3.29483e-05
3.12585e-05
2.97287e-05
2.83377e-05
2.70676e-05
2.59038e-05
2.48335e-05
2.38461e-05
2.29326e-05
2.20849e-05
2.12965e-05
2.05613e-05
1.98742e-05
1.92307e-05
1.86269e-05
1.80592e-05
1.75246e-05
1.70202e-05
1.65436e-05
1.60926e-05
1.56652e-05
1.52596e-05
1.48743e-05
1.45077e-05
1.41585e-05
1.38256e-05
1.35079e-05
1.32043e-05
1.29139e-05
1.26359e-05
1.23695e-05
1.21141e-05
1.1869e-05
1.16336e-05
1.14073e-05
1.11897e-05
1.09802e-05
1.07785e-05
1.05841e-05
1.03965e-05
1.02156e-05
1.00408e-05
9.87204e-06
9.70883e-06
9.55087e-06
9.39766e-06
0.00011703
0.000100512
8.78392e-05
7.78708e-05
6.98593e-05
6.32965e-05
5.7833e-05
5.32218e-05
4.92833e-05
4.5884e-05
4.2923e-05
4.03227e-05
3.80224e-05
3.59743e-05
3.414e-05
3.24886e-05
3.09945e-05
2.9637e-05
2.83986e-05
2.72648e-05
2.62233e-05
2.52636e-05
2.43768e-05
2.35551e-05
2.27921e-05
2.20818e-05
2.14194e-05
2.08003e-05
2.02208e-05
1.96774e-05
1.9167e-05
1.86869e-05
1.82347e-05
1.78082e-05
1.74055e-05
1.70248e-05
1.66645e-05
1.63231e-05
1.59994e-05
1.56922e-05
1.54002e-05
1.51227e-05
1.48586e-05
1.46071e-05
1.43675e-05
1.4139e-05
1.39209e-05
1.37127e-05
1.35138e-05
1.33238e-05
1.3142e-05
1.29681e-05
1.28017e-05
1.26423e-05
1.24895e-05
1.23431e-05
1.22025e-05
1.20672e-05
1.19357e-05
1.17946e-05
0.000201954
0.000185938
0.000172577
0.000161287
0.000151637
0.000143307
0.000136057
0.000129699
0.000124086
0.000119103
0.000114655
0.000110665
0.000107071
0.00010382
0.000100868
9.81799e-05
9.57234e-05
9.34725e-05
9.14045e-05
8.94998e-05
8.77415e-05
8.6115e-05
8.46072e-05
8.3207e-05
8.19044e-05
8.06906e-05
7.95578e-05
7.84991e-05
7.75082e-05
7.65795e-05
7.57081e-05
7.48895e-05
7.41196e-05
7.33947e-05
7.27116e-05
7.2067e-05
7.14584e-05
7.08832e-05
7.0339e-05
6.98238e-05
6.93355e-05
6.88726e-05
6.84331e-05
6.80158e-05
6.76192e-05
6.72419e-05
6.68828e-05
6.65408e-05
6.62148e-05
6.59039e-05
6.56072e-05
6.53239e-05
6.50532e-05
6.47943e-05
6.45467e-05
6.43096e-05
6.40825e-05
6.38649e-05
6.36563e-05
6.34561e-05
0.000201954
0.000185938
0.000172577
0.000161287
0.000151637
0.000143307
0.000136056
0.000129698
0.000124086
0.000119103
0.000114655
0.000110665
0.000107071
0.00010382
0.000100868
9.818e-05
9.57235e-05
9.34726e-05
9.14046e-05
8.94999e-05
8.77416e-05
8.61151e-05
8.46073e-05
8.32072e-05
8.19046e-05
8.06908e-05
7.9558e-05
7.84992e-05
7.75083e-05
7.65796e-05
7.57082e-05
7.48896e-05
7.41197e-05
7.33948e-05
7.27116e-05
7.20671e-05
7.14584e-05
7.08832e-05
7.0339e-05
6.98237e-05
6.93355e-05
6.88725e-05
6.84331e-05
6.80158e-05
6.76191e-05
6.72419e-05
6.68828e-05
6.65408e-05
6.62148e-05
6.59039e-05
6.56073e-05
6.5324e-05
6.50533e-05
6.47945e-05
6.45469e-05
6.43098e-05
6.40828e-05
6.38652e-05
6.36566e-05
6.34564e-05
0.00011703
0.000100512
8.78382e-05
7.78693e-05
6.98579e-05
6.32952e-05
5.78315e-05
5.32198e-05
4.92806e-05
4.58802e-05
4.2918e-05
4.03164e-05
3.8015e-05
3.59659e-05
3.41308e-05
3.24787e-05
3.09843e-05
2.96267e-05
2.83885e-05
2.7255e-05
2.6214e-05
2.52549e-05
2.43688e-05
2.35479e-05
2.27856e-05
2.2076e-05
2.14142e-05
2.07958e-05
2.02167e-05
1.96737e-05
1.91636e-05
1.86838e-05
1.82319e-05
1.78056e-05
1.7403e-05
1.70225e-05
1.66623e-05
1.63211e-05
1.59975e-05
1.56903e-05
1.53984e-05
1.51208e-05
1.48567e-05
1.46052e-05
1.43655e-05
1.4137e-05
1.39189e-05
1.37107e-05
1.35119e-05
1.33217e-05
1.31399e-05
1.29659e-05
1.27994e-05
1.26399e-05
1.24871e-05
1.23406e-05
1.22e-05
1.20646e-05
1.1933e-05
1.17921e-05
0.000117003
0.00010034
8.75447e-05
7.74576e-05
6.93325e-05
6.26667e-05
5.71115e-05
5.24183e-05
4.84063e-05
4.49411e-05
4.19206e-05
3.92663e-05
3.69169e-05
3.48238e-05
3.29482e-05
3.12583e-05
2.97285e-05
2.83375e-05
2.70675e-05
2.59036e-05
2.48333e-05
2.3846e-05
2.29324e-05
2.20848e-05
2.12964e-05
2.05612e-05
1.98741e-05
1.92306e-05
1.86268e-05
1.80591e-05
1.75245e-05
1.70201e-05
1.65435e-05
1.60925e-05
1.56651e-05
1.52596e-05
1.48742e-05
1.45077e-05
1.41586e-05
1.38259e-05
1.35083e-05
1.32049e-05
1.29148e-05
1.26371e-05
1.23711e-05
1.21161e-05
1.18713e-05
1.16363e-05
1.14104e-05
1.11932e-05
1.09842e-05
1.07828e-05
1.05888e-05
1.04017e-05
1.02212e-05
1.00469e-05
9.8786e-06
9.71586e-06
9.55838e-06
9.40552e-06
0.000117003
0.000100379
8.76088e-05
7.75387e-05
6.94223e-05
6.27594e-05
5.72031e-05
5.25067e-05
4.84901e-05
4.50196e-05
4.19936e-05
3.93339e-05
3.69793e-05
3.48813e-05
3.30009e-05
3.13068e-05
2.9773e-05
2.83783e-05
2.71049e-05
2.59379e-05
2.48647e-05
2.38747e-05
2.29587e-05
2.21088e-05
2.13182e-05
2.05811e-05
1.98922e-05
1.92471e-05
1.86417e-05
1.80725e-05
1.75365e-05
1.70308e-05
1.6553e-05
1.61008e-05
1.56724e-05
1.52658e-05
1.48795e-05
1.45119e-05
1.41619e-05
1.38281e-05
1.35096e-05
1.32052e-05
1.2914e-05
1.26353e-05
1.23683e-05
1.21121e-05
1.18663e-05
1.16302e-05
1.14032e-05
1.11848e-05
1.09746e-05
1.0772e-05
1.05768e-05
1.03885e-05
1.02067e-05
1.00311e-05
9.86143e-06
9.69737e-06
9.53866e-06
9.38505e-06
0.000117003
0.000100379
8.76025e-05
7.75262e-05
6.94049e-05
6.27386e-05
5.71806e-05
5.24836e-05
4.84674e-05
4.49978e-05
4.1973e-05
3.93148e-05
3.69616e-05
3.48651e-05
3.29862e-05
3.12934e-05
2.97609e-05
2.83673e-05
2.7095e-05
2.5929e-05
2.48567e-05
2.38675e-05
2.29522e-05
2.2103e-05
2.1313e-05
2.05764e-05
1.9888e-05
1.92433e-05
1.86383e-05
1.80696e-05
1.75339e-05
1.70285e-05
1.65509e-05
1.6099e-05
1.56708e-05
1.52644e-05
1.48783e-05
1.45109e-05
1.41611e-05
1.38274e-05
1.3509e-05
1.32047e-05
1.29137e-05
1.26351e-05
1.23681e-05
1.21121e-05
1.18663e-05
1.16303e-05
1.14033e-05
1.1185e-05
1.09748e-05
1.07723e-05
1.05771e-05
1.03888e-05
1.0207e-05
1.00315e-05
9.86185e-06
9.69781e-06
9.53912e-06
9.38551e-06
0.000117003
0.000100379
8.76026e-05
7.75263e-05
6.94049e-05
6.27387e-05
5.71806e-05
5.24836e-05
4.84674e-05
4.49978e-05
4.19731e-05
3.93148e-05
3.69617e-05
3.48652e-05
3.29863e-05
3.12935e-05
2.97609e-05
2.83674e-05
2.7095e-05
2.5929e-05
2.48567e-05
2.38675e-05
2.29522e-05
2.2103e-05
2.1313e-05
2.05764e-05
1.9888e-05
1.92433e-05
1.86383e-05
1.80696e-05
1.75338e-05
1.70285e-05
1.65509e-05
1.6099e-05
1.56708e-05
1.52644e-05
1.48783e-05
1.45109e-05
1.4161e-05
1.38274e-05
1.3509e-05
1.32047e-05
1.29137e-05
1.26351e-05
1.23681e-05
1.21121e-05
1.18663e-05
1.16302e-05
1.14033e-05
1.1185e-05
1.09748e-05
1.07723e-05
1.05771e-05
1.03888e-05
1.0207e-05
1.00315e-05
9.86183e-06
9.69779e-06
9.5391e-06
9.38549e-06
0.000117003
0.000100379
8.76088e-05
7.75386e-05
6.94223e-05
6.27593e-05
5.72031e-05
5.25066e-05
4.849e-05
4.50195e-05
4.19935e-05
3.93338e-05
3.69792e-05
3.48812e-05
3.30009e-05
3.13067e-05
2.97729e-05
2.83782e-05
2.71048e-05
2.59378e-05
2.48647e-05
2.38746e-05
2.29586e-05
2.21087e-05
2.13182e-05
2.05811e-05
1.98922e-05
1.9247e-05
1.86416e-05
1.80725e-05
1.75364e-05
1.70308e-05
1.65529e-05
1.61008e-05
1.56723e-05
1.52657e-05
1.48794e-05
1.45119e-05
1.41619e-05
1.38281e-05
1.35095e-05
1.32051e-05
1.2914e-05
1.26353e-05
1.23682e-05
1.21121e-05
1.18663e-05
1.16302e-05
1.14032e-05
1.11848e-05
1.09745e-05
1.0772e-05
1.05768e-05
1.03884e-05
1.02066e-05
1.0031e-05
9.86136e-06
9.6973e-06
9.53859e-06
9.38496e-06
0.000117003
0.00010034
8.75447e-05
7.74577e-05
6.93326e-05
6.26668e-05
5.71115e-05
5.24184e-05
4.84064e-05
4.49412e-05
4.19206e-05
3.92663e-05
3.6917e-05
3.48239e-05
3.29482e-05
3.12584e-05
2.97286e-05
2.83376e-05
2.70675e-05
2.59037e-05
2.48334e-05
2.3846e-05
2.29325e-05
2.20849e-05
2.12964e-05
2.05612e-05
1.98741e-05
1.92306e-05
1.86268e-05
1.80591e-05
1.75245e-05
1.70201e-05
1.65435e-05
1.60925e-05
1.56651e-05
1.52595e-05
1.48742e-05
1.45076e-05
1.41584e-05
1.38255e-05
1.35078e-05
1.32041e-05
1.29137e-05
1.26358e-05
1.23694e-05
1.2114e-05
1.18689e-05
1.16334e-05
1.14072e-05
1.11895e-05
1.09801e-05
1.07783e-05
1.05839e-05
1.03963e-05
1.02154e-05
1.00406e-05
9.87184e-06
9.70863e-06
9.55067e-06
9.3974e-06
0.00011703
0.000100512
8.78387e-05
7.78703e-05
6.98593e-05
6.32972e-05
5.78344e-05
5.32237e-05
4.92853e-05
4.5886e-05
4.29248e-05
4.03241e-05
3.80234e-05
3.59748e-05
3.41401e-05
3.24882e-05
3.09939e-05
2.96361e-05
2.83976e-05
2.72638e-05
2.62223e-05
2.52626e-05
2.4376e-05
2.35545e-05
2.27917e-05
2.20816e-05
2.14193e-05
2.08003e-05
2.02208e-05
1.96772e-05
1.91666e-05
1.86862e-05
1.82337e-05
1.78068e-05
1.74036e-05
1.70225e-05
1.66617e-05
1.632e-05
1.59959e-05
1.56883e-05
1.53962e-05
1.51185e-05
1.48543e-05
1.46028e-05
1.43632e-05
1.41348e-05
1.3917e-05
1.3709e-05
1.35103e-05
1.33205e-05
1.3139e-05
1.29653e-05
1.27992e-05
1.26401e-05
1.24877e-05
1.23416e-05
1.22014e-05
1.20664e-05
1.19352e-05
1.17944e-05
0.000201955
0.000185938
0.000172577
0.000161287
0.000151637
0.000143307
0.000136056
0.000129698
0.000124086
0.000119103
0.000114655
0.000110665
0.000107071
0.00010382
0.000100868
9.81798e-05
9.57234e-05
9.34725e-05
9.14044e-05
8.94997e-05
8.77415e-05
8.61149e-05
8.46071e-05
8.32069e-05
8.19043e-05
8.06905e-05
7.95577e-05
7.8499e-05
7.7508e-05
7.65793e-05
7.57079e-05
7.48893e-05
7.41194e-05
7.33945e-05
7.27113e-05
7.20667e-05
7.14581e-05
7.08828e-05
7.03386e-05
6.98233e-05
6.93351e-05
6.88721e-05
6.84326e-05
6.80153e-05
6.76186e-05
6.72413e-05
6.68822e-05
6.65402e-05
6.62142e-05
6.59033e-05
6.56066e-05
6.53232e-05
6.50525e-05
6.47937e-05
6.4546e-05
6.43089e-05
6.40819e-05
6.38642e-05
6.36556e-05
6.34554e-05
)
;

boundaryField
{
    wall
    {
        type            nutkWallFunction;
        Cmu             0.09;
        kappa           0.41;
        E               9.8;
        value           nonuniform List<scalar> 
1200
(
1.45301e-05
1.35454e-05
1.35424e-05
1.35424e-05
1.35424e-05
1.35424e-05
1.35424e-05
1.35424e-05
1.35454e-05
1.45301e-05
1.34572e-05
1.17545e-05
1.17357e-05
1.174e-05
1.174e-05
1.174e-05
1.174e-05
1.17357e-05
1.17545e-05
1.34572e-05
1.25548e-05
1.03592e-05
1.03265e-05
1.03337e-05
1.0333e-05
1.0333e-05
1.03337e-05
1.03266e-05
1.03592e-05
1.25548e-05
1.17865e-05
9.24633e-06
9.19992e-06
9.20905e-06
9.20765e-06
9.20765e-06
9.20905e-06
9.19993e-06
9.24639e-06
1.17864e-05
1.11252e-05
8.34056e-06
8.28069e-06
8.29094e-06
8.28895e-06
8.28895e-06
8.29093e-06
8.28071e-06
8.34066e-06
1.11251e-05
1.05507e-05
7.58994e-06
7.51763e-06
7.52831e-06
7.52591e-06
7.52591e-06
7.5283e-06
7.51764e-06
7.5901e-06
1.05507e-05
1.00477e-05
6.95837e-06
6.87471e-06
6.88538e-06
6.88275e-06
6.88275e-06
6.88537e-06
6.87472e-06
6.9586e-06
1.00477e-05
9.60426e-06
6.42003e-06
6.32602e-06
6.33641e-06
6.33369e-06
6.3337e-06
6.3364e-06
6.32603e-06
6.42034e-06
9.60421e-06
9.21082e-06
5.95597e-06
5.85251e-06
5.86244e-06
5.85974e-06
5.85975e-06
5.86243e-06
5.85252e-06
5.95638e-06
9.21077e-06
8.85984e-06
5.552e-06
5.43987e-06
5.44925e-06
5.44664e-06
5.44665e-06
5.44924e-06
5.43987e-06
5.55249e-06
8.85979e-06
8.54517e-06
5.19727e-06
5.07715e-06
5.08595e-06
5.08347e-06
5.08348e-06
5.08594e-06
5.07716e-06
5.19784e-06
8.54513e-06
8.26178e-06
4.88337e-06
4.75588e-06
4.76409e-06
4.76177e-06
4.76177e-06
4.76408e-06
4.75588e-06
4.88402e-06
8.26173e-06
8.00549e-06
4.60369e-06
4.46937e-06
4.477e-06
4.47484e-06
4.47484e-06
4.47698e-06
4.46937e-06
4.60443e-06
8.00545e-06
7.77285e-06
4.35298e-06
4.21229e-06
4.21935e-06
4.21736e-06
4.21737e-06
4.21934e-06
4.21228e-06
4.35379e-06
7.77281e-06
7.56095e-06
4.127e-06
3.98033e-06
3.98686e-06
3.98504e-06
3.98504e-06
3.98685e-06
3.98032e-06
4.12787e-06
7.5609e-06
7.36732e-06
3.92229e-06
3.76999e-06
3.77602e-06
3.77436e-06
3.77436e-06
3.77601e-06
3.76998e-06
3.92322e-06
7.36728e-06
7.18988e-06
3.73601e-06
3.57838e-06
3.58395e-06
3.58243e-06
3.58243e-06
3.58394e-06
3.57837e-06
3.737e-06
7.18984e-06
7.02683e-06
3.56581e-06
3.4031e-06
3.40824e-06
3.40686e-06
3.40686e-06
3.40823e-06
3.40309e-06
3.56685e-06
7.0268e-06
6.87664e-06
3.40972e-06
3.24215e-06
3.24688e-06
3.24563e-06
3.24563e-06
3.24687e-06
3.24214e-06
3.4108e-06
6.87661e-06
6.73797e-06
3.26608e-06
3.09383e-06
3.09819e-06
3.09706e-06
3.09706e-06
3.09818e-06
3.09382e-06
3.26719e-06
6.73794e-06
6.60966e-06
3.13349e-06
2.95671e-06
2.96073e-06
2.9597e-06
2.9597e-06
2.96072e-06
2.95671e-06
3.13463e-06
6.60963e-06
6.4907e-06
3.01074e-06
2.82956e-06
2.83325e-06
2.83233e-06
2.83233e-06
2.83325e-06
2.82956e-06
3.0119e-06
6.49067e-06
6.38021e-06
2.8968e-06
2.71133e-06
2.71472e-06
2.71389e-06
2.71389e-06
2.71471e-06
2.71133e-06
2.89797e-06
6.38018e-06
6.27739e-06
2.79079e-06
2.60111e-06
2.60422e-06
2.60346e-06
2.60346e-06
2.60421e-06
2.6011e-06
2.79196e-06
6.27736e-06
6.18156e-06
2.69193e-06
2.49809e-06
2.50094e-06
2.50026e-06
2.50026e-06
2.50093e-06
2.49808e-06
2.69309e-06
6.18153e-06
6.0921e-06
2.59955e-06
2.4016e-06
2.40421e-06
2.4036e-06
2.4036e-06
2.4042e-06
2.40159e-06
2.60069e-06
6.09208e-06
6.00848e-06
2.51305e-06
2.31103e-06
2.31341e-06
2.31286e-06
2.31286e-06
2.3134e-06
2.31102e-06
2.51418e-06
6.00845e-06
5.9302e-06
2.43192e-06
2.22585e-06
2.22801e-06
2.22752e-06
2.22752e-06
2.228e-06
2.22584e-06
2.43302e-06
5.93017e-06
5.85682e-06
2.35569e-06
2.14558e-06
2.14754e-06
2.1471e-06
2.1471e-06
2.14753e-06
2.14557e-06
2.35676e-06
5.8568e-06
5.78795e-06
2.28395e-06
2.06981e-06
2.07158e-06
2.07119e-06
2.07119e-06
2.07157e-06
2.0698e-06
2.285e-06
5.78793e-06
5.72325e-06
2.21634e-06
1.99816e-06
1.99976e-06
1.99941e-06
1.99941e-06
1.99975e-06
1.99815e-06
2.21738e-06
5.72322e-06
5.66238e-06
2.15254e-06
1.93032e-06
1.93174e-06
1.93144e-06
1.93143e-06
1.93174e-06
1.9303e-06
2.15356e-06
5.66236e-06
5.60506e-06
2.09225e-06
1.86597e-06
1.86724e-06
1.86697e-06
1.86696e-06
1.86723e-06
1.86595e-06
2.09325e-06
5.60505e-06
5.55104e-06
2.03521e-06
1.80485e-06
1.80597e-06
1.80573e-06
1.80573e-06
1.80596e-06
1.80484e-06
2.0362e-06
5.55102e-06
5.50006e-06
1.98119e-06
1.74673e-06
1.7477e-06
1.7475e-06
1.74749e-06
1.7477e-06
1.74672e-06
1.98216e-06
5.50005e-06
5.45192e-06
1.92996e-06
1.69138e-06
1.69222e-06
1.69204e-06
1.69203e-06
1.69221e-06
1.69137e-06
1.93093e-06
5.4519e-06
5.40641e-06
1.88134e-06
1.63862e-06
1.63932e-06
1.63917e-06
1.63916e-06
1.63931e-06
1.6386e-06
1.88231e-06
5.4064e-06
5.36336e-06
1.83515e-06
1.58826e-06
1.58883e-06
1.5887e-06
1.58869e-06
1.58882e-06
1.58823e-06
1.83611e-06
5.36335e-06
5.3226e-06
1.79122e-06
1.54014e-06
1.54058e-06
1.54047e-06
1.54046e-06
1.54058e-06
1.54011e-06
1.79219e-06
5.32258e-06
5.28397e-06
1.74941e-06
1.49412e-06
1.49443e-06
1.49434e-06
1.49433e-06
1.49442e-06
1.49407e-06
1.75039e-06
5.28395e-06
5.24733e-06
1.7096e-06
1.45007e-06
1.45024e-06
1.45017e-06
1.45016e-06
1.45023e-06
1.44999e-06
1.71058e-06
5.24732e-06
5.21256e-06
1.67164e-06
1.40785e-06
1.40789e-06
1.40783e-06
1.40782e-06
1.40788e-06
1.40775e-06
1.67264e-06
5.21255e-06
5.17954e-06
1.63544e-06
1.36737e-06
1.36726e-06
1.36721e-06
1.36721e-06
1.36725e-06
1.36722e-06
1.63645e-06
5.17952e-06
5.14815e-06
1.60088e-06
1.3285e-06
1.32824e-06
1.32821e-06
1.32821e-06
1.32824e-06
1.32831e-06
1.60191e-06
5.14813e-06
5.1183e-06
1.56787e-06
1.29116e-06
1.29075e-06
1.29074e-06
1.29073e-06
1.29075e-06
1.29092e-06
1.56893e-06
5.11828e-06
5.08988e-06
1.53633e-06
1.25525e-06
1.2547e-06
1.25469e-06
1.25469e-06
1.25469e-06
1.25496e-06
1.5374e-06
5.08987e-06
5.06282e-06
1.50616e-06
1.2207e-06
1.21999e-06
1.22e-06
1.21999e-06
1.21999e-06
1.22036e-06
1.50726e-06
5.0628e-06
5.03703e-06
1.4773e-06
1.18743e-06
1.18657e-06
1.18658e-06
1.18657e-06
1.18656e-06
1.18703e-06
1.47842e-06
5.03701e-06
5.01244e-06
1.44968e-06
1.15537e-06
1.15435e-06
1.15437e-06
1.15436e-06
1.15434e-06
1.15492e-06
1.45082e-06
5.01242e-06
4.98897e-06
1.42322e-06
1.12446e-06
1.12327e-06
1.1233e-06
1.12329e-06
1.12326e-06
1.12395e-06
1.4244e-06
4.98894e-06
4.96656e-06
1.39788e-06
1.09463e-06
1.09327e-06
1.0933e-06
1.0933e-06
1.09326e-06
1.09406e-06
1.39907e-06
4.96653e-06
4.94515e-06
1.37358e-06
1.06583e-06
1.06429e-06
1.06433e-06
1.06433e-06
1.06428e-06
1.0652e-06
1.3748e-06
4.94512e-06
4.92468e-06
1.35027e-06
1.03801e-06
1.03629e-06
1.03634e-06
1.03633e-06
1.03628e-06
1.03731e-06
1.35153e-06
4.92465e-06
4.9051e-06
1.32791e-06
1.01112e-06
1.00921e-06
1.00926e-06
1.00926e-06
1.0092e-06
1.01035e-06
1.3292e-06
4.90507e-06
4.88636e-06
1.30645e-06
9.85104e-07
9.83007e-07
9.83063e-07
9.83057e-07
9.82993e-07
9.84271e-07
1.30777e-06
4.88633e-06
4.86842e-06
1.28583e-06
9.5993e-07
9.5764e-07
9.57699e-07
9.57693e-07
9.57625e-07
9.59029e-07
1.2872e-06
4.86838e-06
4.85122e-06
1.26602e-06
9.35555e-07
9.33068e-07
9.3313e-07
9.33124e-07
9.33051e-07
9.34584e-07
1.26742e-06
4.85117e-06
4.83473e-06
1.24691e-06
9.11939e-07
9.09254e-07
9.09319e-07
9.09312e-07
9.09236e-07
9.10895e-07
1.24835e-06
4.83468e-06
4.81892e-06
1.22832e-06
8.89034e-07
8.86162e-07
8.86229e-07
8.86222e-07
8.86142e-07
8.87916e-07
1.22978e-06
4.81887e-06
4.80373e-06
1.20842e-06
8.66752e-07
8.6376e-07
8.63829e-07
8.63822e-07
8.63739e-07
8.65576e-07
1.20984e-06
4.80368e-06
1.45301e-05
1.35454e-05
1.35424e-05
1.35424e-05
1.35424e-05
1.35424e-05
1.35424e-05
1.35424e-05
1.35454e-05
1.45301e-05
1.34572e-05
1.17545e-05
1.17357e-05
1.174e-05
1.174e-05
1.174e-05
1.174e-05
1.17357e-05
1.17545e-05
1.34572e-05
1.25548e-05
1.03591e-05
1.03266e-05
1.03337e-05
1.0333e-05
1.0333e-05
1.03337e-05
1.03266e-05
1.03592e-05
1.25548e-05
1.17864e-05
9.24622e-06
9.19994e-06
9.20905e-06
9.20765e-06
9.20765e-06
9.20905e-06
9.19995e-06
9.24633e-06
1.17864e-05
1.11251e-05
8.3405e-06
8.28071e-06
8.29094e-06
8.28896e-06
8.28896e-06
8.29093e-06
8.28072e-06
8.34066e-06
1.11251e-05
1.05507e-05
7.58995e-06
7.51764e-06
7.52831e-06
7.52591e-06
7.52592e-06
7.5283e-06
7.51764e-06
7.59019e-06
1.05507e-05
1.00477e-05
6.95843e-06
6.87471e-06
6.88538e-06
6.88275e-06
6.88276e-06
6.88537e-06
6.87472e-06
6.95876e-06
1.00477e-05
9.60419e-06
6.42011e-06
6.32602e-06
6.3364e-06
6.33369e-06
6.33369e-06
6.33639e-06
6.32603e-06
6.42056e-06
9.60418e-06
9.21076e-06
5.95605e-06
5.8525e-06
5.86243e-06
5.85974e-06
5.85974e-06
5.86242e-06
5.85251e-06
5.95662e-06
9.21075e-06
8.85979e-06
5.55204e-06
5.43985e-06
5.44924e-06
5.44663e-06
5.44664e-06
5.44923e-06
5.43986e-06
5.55273e-06
8.85978e-06
8.54512e-06
5.19724e-06
5.07713e-06
5.08594e-06
5.08346e-06
5.08347e-06
5.08593e-06
5.07714e-06
5.19806e-06
8.54511e-06
8.26173e-06
4.88327e-06
4.75586e-06
4.76407e-06
4.76175e-06
4.76176e-06
4.76406e-06
4.75587e-06
4.88419e-06
8.26172e-06
8.00545e-06
4.60352e-06
4.46935e-06
4.47698e-06
4.47482e-06
4.47483e-06
4.47697e-06
4.46936e-06
4.60455e-06
8.00544e-06
7.77281e-06
4.35276e-06
4.21226e-06
4.21934e-06
4.21735e-06
4.21736e-06
4.21933e-06
4.21227e-06
4.35386e-06
7.7728e-06
7.56091e-06
4.12673e-06
3.9803e-06
3.98685e-06
3.98502e-06
3.98503e-06
3.98684e-06
3.98031e-06
4.12788e-06
7.5609e-06
7.36728e-06
3.922e-06
3.76996e-06
3.77601e-06
3.77434e-06
3.77435e-06
3.776e-06
3.76997e-06
3.92318e-06
7.36727e-06
7.18985e-06
3.73572e-06
3.57835e-06
3.58394e-06
3.58242e-06
3.58242e-06
3.58393e-06
3.57836e-06
3.73692e-06
7.18983e-06
7.0268e-06
3.56555e-06
3.40307e-06
3.40823e-06
3.40684e-06
3.40685e-06
3.40822e-06
3.40308e-06
3.56674e-06
7.02679e-06
6.87661e-06
3.40952e-06
3.24212e-06
3.24687e-06
3.24562e-06
3.24562e-06
3.24686e-06
3.24213e-06
3.41067e-06
6.8766e-06
6.73794e-06
3.26595e-06
3.09381e-06
3.09818e-06
3.09705e-06
3.09705e-06
3.09817e-06
3.09381e-06
3.26706e-06
6.73793e-06
6.60964e-06
3.13344e-06
2.95669e-06
2.96072e-06
2.95969e-06
2.95969e-06
2.96071e-06
2.95669e-06
3.13449e-06
6.60962e-06
6.49068e-06
3.01078e-06
2.82954e-06
2.83325e-06
2.83232e-06
2.83232e-06
2.83324e-06
2.82955e-06
3.01177e-06
6.49067e-06
6.38018e-06
2.89694e-06
2.71131e-06
2.71471e-06
2.71388e-06
2.71388e-06
2.71471e-06
2.71131e-06
2.89787e-06
6.38017e-06
6.27737e-06
2.79102e-06
2.60108e-06
2.60421e-06
2.60345e-06
2.60345e-06
2.6042e-06
2.60109e-06
2.79188e-06
6.27735e-06
6.18154e-06
2.69225e-06
2.49807e-06
2.50093e-06
2.50025e-06
2.50025e-06
2.50093e-06
2.49807e-06
2.69304e-06
6.18153e-06
6.09209e-06
2.59994e-06
2.40158e-06
2.4042e-06
2.40359e-06
2.40359e-06
2.4042e-06
2.40158e-06
2.60067e-06
6.09207e-06
6.00846e-06
2.5135e-06
2.31101e-06
2.3134e-06
2.31285e-06
2.31285e-06
2.3134e-06
2.31101e-06
2.51417e-06
6.00845e-06
5.93018e-06
2.43242e-06
2.22582e-06
2.228e-06
2.22751e-06
2.22751e-06
2.228e-06
2.22583e-06
2.43302e-06
5.93016e-06
5.8568e-06
2.35622e-06
2.14556e-06
2.14753e-06
2.14709e-06
2.14709e-06
2.14753e-06
2.14556e-06
2.35676e-06
5.85678e-06
5.78794e-06
2.28452e-06
2.06978e-06
2.07157e-06
2.07118e-06
2.07118e-06
2.07157e-06
2.06978e-06
2.28499e-06
5.78792e-06
5.72323e-06
2.21693e-06
1.99814e-06
1.99975e-06
1.9994e-06
1.9994e-06
1.99975e-06
1.99814e-06
2.21733e-06
5.72321e-06
5.66237e-06
2.15315e-06
1.93029e-06
1.93174e-06
1.93142e-06
1.93142e-06
1.93173e-06
1.93029e-06
2.15347e-06
5.66234e-06
5.60505e-06
2.09287e-06
1.86595e-06
1.86723e-06
1.86695e-06
1.86695e-06
1.86722e-06
1.86594e-06
2.09311e-06
5.60503e-06
5.55102e-06
2.03585e-06
1.80483e-06
1.80596e-06
1.80572e-06
1.80572e-06
1.80596e-06
1.80483e-06
2.036e-06
5.551e-06
5.50005e-06
1.98183e-06
1.74671e-06
1.74769e-06
1.74748e-06
1.74748e-06
1.74769e-06
1.7467e-06
1.98191e-06
5.50002e-06
5.45191e-06
1.93062e-06
1.69136e-06
1.69221e-06
1.69202e-06
1.69202e-06
1.69221e-06
1.69136e-06
1.93062e-06
5.45188e-06
5.4064e-06
1.88201e-06
1.63859e-06
1.63931e-06
1.63915e-06
1.63915e-06
1.63931e-06
1.63859e-06
1.88193e-06
5.40637e-06
5.36335e-06
1.83584e-06
1.58823e-06
1.58882e-06
1.58868e-06
1.58868e-06
1.58881e-06
1.58822e-06
1.83569e-06
5.36332e-06
5.32258e-06
1.79193e-06
1.54012e-06
1.54057e-06
1.54046e-06
1.54045e-06
1.54057e-06
1.54009e-06
1.79171e-06
5.32255e-06
5.28395e-06
1.75013e-06
1.4941e-06
1.49442e-06
1.49432e-06
1.49432e-06
1.49442e-06
1.49406e-06
1.74987e-06
5.28392e-06
5.24732e-06
1.71033e-06
1.45005e-06
1.45023e-06
1.45015e-06
1.45015e-06
1.45022e-06
1.44998e-06
1.71003e-06
5.24728e-06
5.21255e-06
1.67238e-06
1.40784e-06
1.40787e-06
1.40781e-06
1.40781e-06
1.40787e-06
1.40773e-06
1.67206e-06
5.21251e-06
5.17952e-06
1.63619e-06
1.36735e-06
1.36724e-06
1.3672e-06
1.36719e-06
1.36724e-06
1.3672e-06
1.63586e-06
5.17949e-06
5.14813e-06
1.60165e-06
1.32848e-06
1.32823e-06
1.3282e-06
1.32819e-06
1.32823e-06
1.32829e-06
1.60132e-06
5.1481e-06
5.11828e-06
1.56866e-06
1.29114e-06
1.29074e-06
1.29072e-06
1.29072e-06
1.29074e-06
1.2909e-06
1.56834e-06
5.11824e-06
5.08986e-06
1.53714e-06
1.25524e-06
1.25468e-06
1.25467e-06
1.25467e-06
1.25468e-06
1.25494e-06
1.53684e-06
5.08982e-06
5.0628e-06
1.50699e-06
1.22069e-06
1.21998e-06
1.21998e-06
1.21998e-06
1.21998e-06
1.22034e-06
1.50672e-06
5.06276e-06
5.03701e-06
1.47815e-06
1.18742e-06
1.18655e-06
1.18656e-06
1.18656e-06
1.18655e-06
1.18701e-06
1.47791e-06
5.03697e-06
5.01242e-06
1.45055e-06
1.15536e-06
1.15433e-06
1.15435e-06
1.15435e-06
1.15433e-06
1.1549e-06
1.45034e-06
5.01237e-06
4.98895e-06
1.42411e-06
1.12445e-06
1.12325e-06
1.12328e-06
1.12327e-06
1.12324e-06
1.12392e-06
1.42393e-06
4.9889e-06
4.96654e-06
1.39878e-06
1.09462e-06
1.09325e-06
1.09328e-06
1.09328e-06
1.09324e-06
1.09403e-06
1.39865e-06
4.96649e-06
4.94513e-06
1.3745e-06
1.06582e-06
1.06427e-06
1.06431e-06
1.06431e-06
1.06427e-06
1.06517e-06
1.37441e-06
4.94507e-06
4.92466e-06
1.35121e-06
1.03799e-06
1.03627e-06
1.03631e-06
1.03631e-06
1.03626e-06
1.03728e-06
1.35118e-06
4.9246e-06
4.90508e-06
1.32888e-06
1.0111e-06
1.00919e-06
1.00924e-06
1.00924e-06
1.00918e-06
1.01032e-06
1.3289e-06
4.90502e-06
4.88634e-06
1.30744e-06
9.85085e-07
9.82986e-07
9.8304e-07
9.83038e-07
9.82979e-07
9.84243e-07
1.30752e-06
4.88628e-06
4.86839e-06
1.28686e-06
9.59911e-07
9.57618e-07
9.57676e-07
9.57674e-07
9.5761e-07
9.59001e-07
1.28699e-06
4.86832e-06
4.85119e-06
1.26707e-06
9.35535e-07
9.33046e-07
9.33107e-07
9.33104e-07
9.33036e-07
9.34555e-07
1.26726e-06
4.85112e-06
4.8347e-06
1.24798e-06
9.11917e-07
9.0923e-07
9.09294e-07
9.09291e-07
9.0922e-07
9.10866e-07
1.24824e-06
4.83463e-06
4.81889e-06
1.2294e-06
8.89009e-07
8.86138e-07
8.86204e-07
8.86201e-07
8.86127e-07
8.87886e-07
1.22971e-06
4.81881e-06
4.80371e-06
1.20948e-06
8.66723e-07
8.63735e-07
8.63803e-07
8.638e-07
8.63723e-07
8.65539e-07
1.20981e-06
4.80363e-06
)
;
    }
    inlet
    {
        type            calculated;
        value           uniform 0.00952565;
    }
    outlet
    {
        type            calculated;
        value           nonuniform List<scalar> 
20
(
6.34567e-05
1.17845e-05
9.40571e-06
9.38522e-06
9.38569e-06
9.38564e-06
9.38507e-06
9.39766e-06
1.17946e-05
6.34561e-05
6.34564e-05
1.17921e-05
9.40552e-06
9.38505e-06
9.38551e-06
9.38549e-06
9.38496e-06
9.3974e-06
1.17944e-05
6.34554e-05
)
;
    }
    heatWall
    {
        type            nutkWallFunction;
        Cmu             0.09;