/*--------------------------------*- C++ -*----------------------------------*\
  =========                 |
  \\      /  F ield         | OpenFOAM: The Open Source CFD Toolbox
   \\    /   O peration     | Website:  https://openfoam.org
    \\  /    A nd           | Version:  8
     \\/     M anipulation  |
\*---------------------------------------------------------------------------*/
FoamFile
{
    version     2.0;
    format      ascii;
    class       volScalarField;
    location    "300";
    object      k;
}
// * * * * * * * * * * * * * * * * * * * * * * * * * * * * * * * * * * * * * //

dimensions      [0 2 -2 0 0 0 0];

internalField   nonuniform List<scalar> 
1200
(
2.37121e-05
2.33589e-05
2.29553e-05
2.25473e-05
2.21096e-05
2.09015e-05
1.96815e-05
1.94202e-05
2.1284e-05
2.39927e-05
2.67211e-05
2.94621e-05
3.21527e-05
3.49435e-05
3.75481e-05
3.90117e-05
4.05965e-05
4.23913e-05
4.48234e-05
4.52791e-05
4.53455e-05
4.59701e-05
4.60826e-05
5.49566e-05
9.06379e-05
7.5279e-05
6.61297e-05
5.85929e-05
5.28281e-05
5.52944e-05
5.47581e-05
5.98598e-05
6.96687e-05
7.81669e-05
8.37313e-05
9.09438e-05
0.000101883
0.000116921
0.000134988
0.000156534
0.000181786
0.00021051
0.000242682
0.000278828
0.000319711
0.000363718
0.000408266
0.000473106
0.000616885
0.000817359
0.000905594
0.000888614
0.00141891
0.00215868
0.00238521
0.00254881
0.00268398
0.00280304
0.00290632
0.00298056
2.0968e-05
1.81678e-05
1.57702e-05
1.38028e-05
1.2205e-05
1.09104e-05
1.11661e-05
1.36979e-05
2.21744e-05
2.73432e-05
2.72415e-05
2.6609e-05
2.51706e-05
2.33518e-05
2.24703e-05
2.18451e-05
2.21905e-05
2.44664e-05
2.67617e-05
2.78268e-05
2.84633e-05
2.95272e-05
3.45492e-05
4.48671e-05
4.49341e-05
4.14109e-05
4.33323e-05
4.52747e-05
4.6983e-05
5.27488e-05
5.91436e-05
6.73542e-05
7.78734e-05
9.13595e-05
0.000109119
0.000132591
0.000163717
0.000202586
0.000252007
0.000309372
0.000373959
0.000445877
0.000525809
0.000614707
0.000713647
0.000823439
0.000944512
0.00107657
0.00121886
0.00136757
0.00151719
0.00166263
0.00190355
0.00214802
0.00226516
0.00236684
0.00247418
0.00259151
0.00272117
0.00286418
2.09401e-05
1.79974e-05
1.54315e-05
1.3223e-05
1.13721e-05
1.30739e-05
1.76864e-05
2.12661e-05
2.22387e-05
1.99858e-05
1.52999e-05
1.18092e-05
1.25761e-05
1.53858e-05
1.79531e-05
1.82759e-05
1.86927e-05
2.03613e-05
2.49604e-05
2.81415e-05
3.103e-05
3.42943e-05
3.79214e-05
4.36096e-05
4.29929e-05
4.55008e-05
4.93954e-05
5.82855e-05
6.79255e-05
7.95985e-05
9.25816e-05
0.000107443
0.000126158
0.000147847
0.000172144
0.000199256
0.000229404
0.000264899
0.000306702
0.000356234
0.000412789
0.000476263
0.000546832
0.000624875
0.000710965
0.00080564
0.000909167
0.00102136
0.00114196
0.00127031
0.00140147
0.00152012
0.00159572
0.00153639
0.00131799
0.00108157
0.00111136
0.00143094
0.00190742
0.00248916
2.09381e-05
1.8015e-05
1.54679e-05
1.33026e-05
1.14169e-05
1.09641e-05
1.40981e-05
1.91583e-05
1.99682e-05
1.56352e-05
1.45691e-05
1.44934e-05
1.48565e-05
1.78889e-05
2.12177e-05
2.22664e-05
2.36108e-05
2.52346e-05
2.68764e-05
2.81708e-05
2.96366e-05
3.29023e-05
3.73585e-05
4.0811e-05
4.15366e-05
4.39926e-05
4.64762e-05
5.49156e-05
6.4273e-05
7.33972e-05
8.2733e-05
9.34669e-05
0.000105267
0.000118314
0.000133666
0.000153224
0.0001804
0.000215787
0.000255479
0.000298961
0.000347132
0.000400753
0.000460519
0.00052689
0.000600593
0.000682317
0.000771832
0.000868186
0.00097076
0.00108029
0.00119066
0.00126713
0.00124031
0.00101837
0.000658354
0.000578239
0.000773848
0.00109893
0.00161885
0.00237184
2.09428e-05
1.80317e-05
1.55193e-05
1.33709e-05
1.15105e-05
1.03176e-05
1.10328e-05
1.45132e-05
1.64603e-05
1.41686e-05
1.38169e-05
1.30769e-05
1.21349e-05
1.47706e-05
2.02201e-05
2.38635e-05
2.53893e-05
2.66208e-05
2.76322e-05
2.8758e-05
3.01008e-05
3.19513e-05
3.52512e-05
3.86705e-05
4.00655e-05
4.17925e-05
4.33351e-05
4.54416e-05
4.63632e-05
4.57387e-05
4.91533e-05
5.43205e-05
5.60447e-05
5.58232e-05
5.30334e-05
6.1947e-05
0.000108347
0.000153776
0.000190248
0.00022619
0.000264573
0.000306627
0.000353931
0.000406874
0.000466947
0.000536266
0.000615164
0.00070304
0.000799212
0.000905682
0.00101109
0.00106954
0.00100493
0.000739021
0.000274132
0.000321488
0.00032282
0.000354828
0.000518558
0.00131309
2.09575e-05
1.80624e-05
1.55545e-05
1.34117e-05
1.15792e-05
1.01488e-05
9.68291e-06
1.12251e-05
1.26585e-05
1.19831e-05
1.10656e-05
1.00543e-05
9.41218e-06
8.68832e-06
9.78553e-06
1.63937e-05
2.22943e-05
2.45734e-05
2.53633e-05
2.50499e-05
2.41143e-05
2.38269e-05
2.61056e-05
3.70464e-05
3.88258e-05
3.99905e-05
4.10077e-05
4.09598e-05
3.98579e-05
3.81587e-05
3.84619e-05
3.95624e-05
3.90643e-05
3.73098e-05
3.54447e-05
3.77524e-05
5.06129e-05
7.97102e-05
0.000115051
0.000149668
0.000183951
0.000214653
0.000249762
0.000287481
0.000328645
0.000379872
0.000443707
0.000521902
0.000608912
0.000725368
0.000860939
0.000945865
0.000901297
0.000651676
0.000499062
0.000434767
0.000391394
0.000352701
0.000311789
0.00025365
2.09533e-05
1.80744e-05
1.55992e-05
1.34645e-05
1.1645e-05
1.01491e-05
9.19549e-06
9.3075e-06
9.81994e-06
9.49914e-06
9.0179e-06
8.43318e-06
7.77621e-06
7.12882e-06
6.66526e-06
6.88543e-06
7.54609e-06
1.18502e-05
1.66961e-05
1.97057e-05
2.10021e-05
2.08213e-05
1.96006e-05
2.93839e-05
3.59479e-05
3.80943e-05
3.91089e-05
3.89058e-05
3.8197e-05
3.74891e-05
3.6911e-05
3.63787e-05
3.54457e-05
3.41093e-05
3.26702e-05
3.20579e-05
3.5272e-05
4.59516e-05
6.31145e-05
8.48171e-05
0.000110472
0.000137103
0.000162945
0.000188711
0.000216083
0.000248746
0.00029055
0.00034448
0.000411497
0.000516242
0.000667768
0.00079762
0.000798913
0.0006844
0.000609538
0.00054266
0.000484692
0.000435256
0.000391911
0.00035268
2.09612e-05
1.80811e-05
1.56172e-05
1.35276e-05
1.17302e-05
1.0212e-05
9.07024e-06
8.48247e-06
8.2432e-06
7.82923e-06
7.38294e-06
6.90625e-06
6.43199e-06
6.00883e-06
5.63454e-06
5.35855e-06
5.24338e-06
6.20416e-06
8.2737e-06
1.02426e-05
1.10252e-05
1.14124e-05
1.18033e-05
1.63394e-05
2.55551e-05
3.15322e-05
3.42783e-05
3.49231e-05
3.4616e-05
3.41833e-05
3.39512e-05
3.37519e-05
3.33851e-05
3.28119e-05
3.20712e-05
3.12952e-05
3.12507e-05
3.39105e-05
4.02213e-05
4.85441e-05
6.07478e-05
7.55186e-05
9.14511e-05
0.000108289
0.000126199
0.000146276
0.000170818
0.000202136
0.000245604
0.000316999
0.000443046
0.000581422
0.00063197
0.000602024
0.000561269
0.000514726
0.000469823
0.000429177
0.000393479
0.000363389
2.09907e-05
1.81866e-05
1.58008e-05
1.37661e-05
1.20561e-05
1.05726e-05
9.35481e-06
8.45458e-06
7.84591e-06
7.35089e-06
6.92546e-06
6.55705e-06
6.25015e-06
6.04201e-06
5.91934e-06
5.79799e-06
5.64036e-06
5.57771e-06
5.80178e-06
6.06502e-06
6.03999e-06
6.51382e-06
6.26988e-06
7.93379e-06
1.33489e-05
1.93752e-05
2.32923e-05
2.49209e-05
2.51879e-05
2.50697e-05
2.51005e-05
2.51901e-05
2.52115e-05
2.51432e-05
2.51029e-05
2.5238e-05
2.56313e-05
2.65484e-05
2.8463e-05
3.15802e-05
3.62427e-05
4.24122e-05
4.82664e-05
5.53441e-05
6.34835e-05
7.2892e-05
8.44617e-05
9.94836e-05
0.000121527
0.000159732
0.000232981
0.000331776
0.000388476
0.000390493
0.000373269
0.000355746
0.000339471
0.00032464
0.000310707
0.000296651
2.37344e-05
2.34342e-05
2.30826e-05
2.26634e-05
2.20529e-05
2.11437e-05
2.02366e-05
1.93239e-05
1.89008e-05
1.92799e-05
2.00325e-05
2.09781e-05
2.21448e-05
2.35213e-05
2.49731e-05
2.62483e-05
2.73586e-05
2.80087e-05
2.83167e-05
2.91758e-05
3.11808e-05
3.33925e-05
3.49937e-05
3.38337e-05
3.24733e-05
3.25525e-05
3.39823e-05
3.62851e-05
3.92175e-05
4.24435e-05
4.55527e-05
4.69467e-05
4.85633e-05
5.04993e-05
5.2613e-05
5.44752e-05
5.57737e-05
5.68039e-05
5.7987e-05
5.96733e-05
6.21269e-05
6.54549e-05
6.95924e-05
7.45413e-05
8.03083e-05
8.6917e-05
9.44953e-05
0.000103351
0.000114317
0.000130216
0.000158956
0.000204329
0.000245646
0.000273855
0.000297865
0.000322324
0.000347221
0.000372504
0.000398111
0.000424154
2.3719e-05
2.33301e-05
2.29241e-05
2.25647e-05
2.21628e-05
2.10372e-05
1.97425e-05
1.94584e-05
2.12351e-05
2.38846e-05
2.66168e-05
2.93689e-05
3.20597e-05
3.48429e-05
3.74689e-05
3.89584e-05
4.05199e-05
4.23412e-05
4.47994e-05
4.54142e-05
4.55507e-05
4.59666e-05
4.61071e-05
5.44086e-05
8.82793e-05
7.39068e-05
6.52026e-05
5.82194e-05
5.36748e-05
5.40125e-05
5.33783e-05
5.68537e-05
6.61167e-05
7.54622e-05
8.14959e-05
8.91787e-05
0.000101076
0.000116742
0.000135439
0.00015742
0.00018295
0.000211994
0.000244434
0.000281009
0.000322599
0.000367841
0.000413395
0.00047588
0.000616984
0.000822285
0.000920568
0.000902573
0.00134661
0.00216758
0.00240204
0.00256814
0.00270215
0.00281795
0.0029163
0.00298498
2.09755e-05
1.81678e-05
1.57613e-05
1.37849e-05
1.21551e-05
1.07638e-05
1.10595e-05
1.35192e-05
2.19291e-05
2.72305e-05
2.71412e-05
2.6502e-05
2.50403e-05
2.32303e-05
2.23511e-05
2.17185e-05
2.20659e-05
2.4323e-05
2.66402e-05
2.77305e-05
2.83816e-05
2.94435e-05
3.44391e-05
4.46666e-05
4.46711e-05
4.1159e-05
4.31075e-05
4.50256e-05
4.62315e-05
5.19678e-05
5.82032e-05
6.62815e-05
7.69623e-05
9.07884e-05
0.000109057
0.000133215
0.000164967
0.000204689
0.000254685
0.00031255
0.000377668
0.000450177
0.000530796
0.000620407
0.000719875
0.000829753
0.000950171
0.00108088
0.00122117
0.00136786
0.00151624
0.00165833
0.00188568
0.00214605
0.00226129
0.00236181
0.00246919
0.0025876
0.0027184
0.00286274
2.09382e-05
1.79929e-05
1.54325e-05
1.32422e-05
1.13704e-05
1.28636e-05
1.74555e-05
2.11147e-05
2.21202e-05
1.99375e-05
1.52195e-05
1.17147e-05
1.26795e-05
1.5467e-05
1.80088e-05
1.83259e-05
1.87235e-05
2.01858e-05
2.48036e-05
2.80481e-05
3.0948e-05
3.4199e-05
3.77951e-05
4.33051e-05
4.28911e-05
4.60191e-05
4.9559e-05
5.86249e-05
6.81207e-05
7.94993e-05
9.25516e-05
0.000107471
0.000126366
0.000148509
0.000173436
0.000201101
0.000231749
0.000267631
0.000310063
0.000360169
0.00041732
0.000481418
0.000552665
0.000631438
0.000718223
0.000813454
0.000917258
0.00102937
0.00114928
0.00127612
0.00140538
0.00152418
0.00160391
0.00156005
0.0013513
0.00112242
0.00113714
0.00144738
0.0019226
0.00249573
2.09487e-05
1.80234e-05
1.54913e-05
1.33369e-05
1.14451e-05
1.0909e-05
1.39144e-05
1.9e-05
1.99079e-05
1.5718e-05
1.46623e-05
1.45707e-05
1.49425e-05
1.79942e-05
2.13139e-05
2.23314e-05
2.36734e-05
2.53172e-05
2.69949e-05
2.83413e-05
2.98016e-05
3.24266e-05
3.70804e-05
4.05314e-05
4.15321e-05
4.37956e-05
4.59045e-05
5.3801e-05
6.39201e-05
7.43162e-05
8.39531e-05
9.4893e-05
0.00010695
0.000120221
0.000135719
0.000155574
0.00018322
0.00021891
0.000258886
0.000302923
0.0003517
0.000405913
0.000466377
0.000533385
0.000607584
0.000689559
0.000779034
0.000875027
0.000977031
0.0010863
0.00119775
0.00127824
0.00126074
0.0010545
0.000705177
0.000600167
0.000805629
0.00114154
0.00166486
0.00239977
2.09489e-05
1.80392e-05
1.55327e-05
1.33831e-05
1.15196e-05
1.03015e-05
1.0952e-05
1.43803e-05
1.63941e-05
1.41861e-05
1.39149e-05
1.31303e-05
1.21918e-05
1.48901e-05
2.03416e-05
2.39504e-05
2.54545e-05
2.66769e-05
2.76835e-05
2.88066e-05
3.01683e-05
3.2062e-05
3.54979e-05
3.88102e-05
4.01636e-05
4.17682e-05
4.31023e-05
4.46565e-05
4.53931e-05
4.43904e-05
4.83764e-05
5.31069e-05
5.44271e-05
5.40742e-05
5.18692e-05
6.10886e-05
0.000108376
0.000156777
0.00019311
0.000229829
0.000268744
0.000311214
0.00035926
0.000412801
0.000473375
0.000542924
0.000621558
0.000708508
0.00080379
0.000910567
0.00101804
0.00108127
0.00102468
0.000764306
0.000267183
0.000313619
0.000310404
0.000328082
0.000454598
0.00117211
2.09634e-05
1.80687e-05
1.55612e-05
1.34145e-05
1.15817e-05
1.01395e-05
9.65288e-06
1.11367e-05
1.26029e-05
1.19676e-05
1.1097e-05
1.01067e-05
9.49016e-06
8.72188e-06
9.89319e-06
1.6597e-05
2.24555e-05
2.46827e-05
2.54514e-05
2.51408e-05
2.42054e-05
2.39223e-05
2.62396e-05
3.72627e-05
3.8988e-05
4.0059e-05
4.09943e-05
4.07548e-05
3.96022e-05
3.79299e-05
3.81409e-05
3.90198e-05
3.83835e-05
3.66493e-05
3.50017e-05
3.73675e-05
4.9689e-05
7.87709e-05
0.000113952
0.000149447
0.000188125
0.000218038
0.000254103
0.00029241
0.000334127
0.000385844
0.00044956
0.000525568
0.000608901
0.000728436
0.000865622
0.000955169
0.000920652
0.000672046
0.000507943
0.000440414
0.000396272
0.000356714
0.00031485
0.000253242
2.09602e-05
1.80834e-05
1.56026e-05
1.34593e-05
1.16369e-05
1.01425e-05
9.17899e-06
9.2692e-06
9.78362e-06
9.48545e-06
8.99985e-06
8.4042e-06
7.74486e-06
7.12811e-06
6.66796e-06
6.85882e-06
7.61415e-06
1.21051e-05
1.69266e-05
1.98772e-05
2.11567e-05
2.09885e-05
1.97345e-05
2.95927e-05
3.61549e-05
3.82246e-05
3.91802e-05
3.89303e-05
3.82437e-05
3.75776e-05
3.69652e-05
3.6354e-05
3.53594e-05
3.39987e-05
3.25535e-05
3.19169e-05
3.49462e-05
4.58755e-05
6.19881e-05
8.35248e-05
0.000110398
0.000138005
0.00016606
0.000192786
0.000220548
0.000253437
0.000295317
0.00034894
0.000414301
0.000519514
0.000670578
0.000803694
0.000813804
0.000697057
0.000618869
0.000549435
0.000489267
0.000437499
0.000391356
0.000349527
2.09606e-05
1.80866e-05
1.5628e-05
1.35325e-05
1.17104e-05
1.01866e-05
9.05183e-06
8.4632e-06
8.23742e-06
7.83802e-06
7.39374e-06
6.9146e-06
6.4442e-06
6.02142e-06
5.65225e-06
5.38641e-06
5.29894e-06
6.34052e-06
8.4718e-06
1.04484e-05
1.12305e-05
1.16004e-05
1.19802e-05
1.65749e-05
2.58252e-05
3.16909e-05
3.43385e-05
3.49299e-05
3.46083e-05
3.41931e-05
3.39909e-05
3.38008e-05
3.34288e-05
3.28453e-05
3.20885e-05
3.12819e-05
3.11665e-05
3.36989e-05
3.9665e-05
4.7895e-05
6.01308e-05
7.48457e-05
9.1131e-05
0.000108421
0.000126754
0.0001473
0.000172475
0.000204446
0.000247713
0.000319558
0.000445581
0.000585233
0.000641223
0.000611053
0.000568606
0.000519599
0.000471866
0.000428535
0.000390613
0.000359285
2.09967e-05
1.81988e-05
1.58102e-05
1.37797e-05
1.20626e-05
1.05516e-05
9.31857e-06
8.43057e-06
7.8436e-06
7.36452e-06
6.95033e-06
6.58797e-06
6.28593e-06
6.09704e-06
5.99404e-06
5.87357e-06
5.70503e-06
5.6417e-06
5.88439e-06
6.17215e-06
6.09831e-06
6.49112e-06
6.27846e-06
8.07851e-06
1.35583e-05
1.95095e-05
2.33088e-05
2.48415e-05
2.5055e-05
2.49252e-05
2.49726e-05
2.5081e-05
2.51168e-05
2.50732e-05
2.50679e-05
2.52241e-05
2.56086e-05
2.64832e-05
2.8289e-05
3.13283e-05
3.59065e-05
4.19383e-05
4.77957e-05
5.48721e-05
6.29482e-05
7.22901e-05
8.38961e-05
9.90468e-05
0.000121235
0.000160018
0.000233931
0.000333405
0.000391623
0.000392816
0.000373695
0.000354482
0.000336819
0.000320903
0.000306217
0.000291754
2.37181e-05
2.3411e-05
2.30513e-05
2.26006e-05
2.19868e-05
2.10903e-05
2.01452e-05
1.91695e-05
1.87587e-05
1.92091e-05
1.99998e-05
2.09704e-05
2.22213e-05
2.37096e-05
2.52217e-05
2.65055e-05
2.75241e-05
2.79736e-05
2.83807e-05
2.92702e-05
3.12163e-05
3.33526e-05
3.50246e-05
3.37956e-05
3.2403e-05
3.25254e-05
3.39345e-05
3.63055e-05
3.93101e-05
4.25793e-05
4.55746e-05
4.69194e-05
4.85757e-05
5.05811e-05
5.27493e-05
5.4644e-05
5.5992e-05
5.70686e-05
5.83077e-05
6.00255e-05
6.24869e-05
6.57982e-05
6.98928e-05
7.47814e-05
8.04622e-05
8.69458e-05
9.43648e-05
0.000103048
0.000113823
0.000129641
0.000158581
0.000204188
0.000245412
0.000272897
0.000295936
0.00031945
0.000343456
0.000367929
0.000392812
0.000418295
)
;

boundaryField
{
    wall
    {
        type            kqRWallFunction;
        value           nonuniform List<scalar> 
1200
(
2.37121e-05
2.0968e-05
2.09401e-05
2.09381e-05
2.09428e-05
2.09575e-05
2.09533e-05
2.09612e-05
2.09907e-05
2.37344e-05
2.33589e-05
1.81678e-05
1.79974e-05
1.8015e-05
1.80317e-05
1.80624e-05
1.80744e-05
1.80811e-05
1.81866e-05
2.34342e-05
2.29553e-05
1.57702e-05
1.54315e-05
1.54679e-05
1.55193e-05
1.55545e-05
1.55992e-05
1.56172e-05
1.58008e-05
2.30826e-05
2.25473e-05
1.38028e-05
1.3223e-05
1.33026e-05
1.33709e-05
1.34117e-05
1.34645e-05
1.35276e-05
1.37661e-05
2.26634e-05
2.21096e-05
1.2205e-05
1.13721e-05
1.14169e-05
1.15105e-05
1.15792e-05
1.1645e-05
1.17302e-05
1.20561e-05
2.20529e-05
2.09015e-05
1.09104e-05
1.30739e-05
1.09641e-05
1.03176e-05
1.01488e-05
1.01491e-05
1.0212e-05
1.05726e-05
2.11437e-05
1.96815e-05
1.11661e-05
1.76864e-05
1.40981e-05
1.10328e-05
9.68291e-06
9.19549e-06
9.07024e-06
9.35481e-06
2.02366e-05
1.94202e-05
1.36979e-05
2.12661e-05
1.91583e-05
1.45132e-05
1.12251e-05
9.3075e-06
8.48247e-06
8.45458e-06
1.93239e-05
2.1284e-05
2.21744e-05
2.22387e-05
1.99682e-05
1.64603e-05
1.26585e-05
9.81994e-06
8.2432e-06
7.84591e-06
1.89008e-05
2.39927e-05
2.73432e-05
1.99858e-05
1.56352e-05
1.41686e-05
1.19831e-05
9.49914e-06
7.82923e-06
7.35089e-06
1.92799e-05
2.67211e-05
2.72415e-05
1.52999e-05
1.45691e-05
1.38169e-05
1.10656e-05
9.0179e-06
7.38294e-06
6.92546e-06
2.00325e-05
2.94621e-05
2.6609e-05
1.18092e-05
1.44934e-05
1.30769e-05
1.00543e-05
8.43318e-06
6.90625e-06
6.55705e-06
2.09781e-05
3.21527e-05
2.51706e-05
1.25761e-05
1.48565e-05
1.21349e-05
9.41218e-06
7.77621e-06
6.43199e-06
6.25015e-06
2.21448e-05
3.49435e-05
2.33518e-05
1.53858e-05
1.78889e-05
1.47706e-05
8.68832e-06
7.12882e-06
6.00883e-06
6.04201e-06
2.35213e-05
3.75481e-05
2.24703e-05
1.79531e-05
2.12177e-05
2.02201e-05
9.78553e-06
6.66526e-06
5.63454e-06
5.91934e-06
2.49731e-05
3.90117e-05
2.18451e-05
1.82759e-05
2.22664e-05
2.38635e-05
1.63937e-05
6.88543e-06
5.35855e-06
5.79799e-06
2.62483e-05
4.05965e-05
2.21905e-05
1.86927e-05
2.36108e-05
2.53893e-05
2.22943e-05
7.54609e-06
5.24338e-06
5.64036e-06
2.73586e-05
4.23913e-05
2.44664e-05
2.03613e-05
2.52346e-05
2.66208e-05
2.45734e-05
1.18502e-05
6.20416e-06
5.57771e-06
2.80087e-05
4.48234e-05
2.67617e-05
2.49604e-05
2.68764e-05
2.76322e-05
2.53633e-05
1.66961e-05
8.2737e-06
5.80178e-06
2.83167e-05
4.52791e-05
2.78268e-05
2.81415e-05
2.81708e-05
2.8758e-05
2.50499e-05
1.97057e-05
1.02426e-05
6.06502e-06
2.91758e-05
4.53455e-05
2.84633e-05
3.103e-05
2.96366e-05
3.01008e-05
2.41143e-05
2.10021e-05
1.10252e-05
6.03999e-06
3.11808e-05
4.59701e-05
2.95272e-05
3.42943e-05
3.29023e-05
3.19513e-05
2.38269e-05
2.08213e-05
1.14124e-05
6.51382e-06
3.33925e-05
4.60826e-05
3.45492e-05
3.79214e-05
3.73585e-05
3.52512e-05
2.61056e-05
1.96006e-05
1.18033e-05
6.26988e-06
3.49937e-05
5.49566e-05
4.48671e-05
4.36096e-05
4.0811e-05
3.86705e-05
3.70464e-05
2.93839e-05
1.63394e-05
7.93379e-06
3.38337e-05
9.06379e-05
4.49341e-05
4.29929e-05
4.15366e-05
4.00655e-05
3.88258e-05
3.59479e-05
2.55551e-05
1.33489e-05
3.24733e-05
7.5279e-05
4.14109e-05
4.55008e-05
4.39926e-05
4.17925e-05
3.99905e-05
3.80943e-05
3.15322e-05
1.93752e-05
3.25525e-05
6.61297e-05
4.33323e-05
4.93954e-05
4.64762e-05
4.33351e-05
4.10077e-05
3.91089e-05
3.42783e-05
2.32923e-05
3.39823e-05
5.85929e-05
4.52747e-05
5.82855e-05
5.49156e-05
4.54416e-05
4.09598e-05
3.89058e-05
3.49231e-05
2.49209e-05
3.62851e-05
5.28281e-05
4.6983e-05
6.79255e-05
6.4273e-05
4.63632e-05
3.98579e-05
3.8197e-05
3.4616e-05
2.51879e-05
3.92175e-05
5.52944e-05
5.27488e-05
7.95985e-05
7.33972e-05
4.57387e-05
3.81587e-05
3.74891e-05
3.41833e-05
2.50697e-05
4.24435e-05
5.47581e-05
5.91436e-05
9.25816e-05
8.2733e-05
4.91533e-05
3.84619e-05
3.6911e-05
3.39512e-05
2.51005e-05
4.55527e-05
5.98598e-05
6.73542e-05
0.000107443
9.34669e-05
5.43205e-05
3.95624e-05
3.63787e-05
3.37519e-05
2.51901e-05
4.69467e-05
6.96687e-05
7.78734e-05
0.000126158
0.000105267
5.60447e-05
3.90643e-05
3.54457e-05
3.33851e-05
2.52115e-05
4.85633e-05
7.81669e-05
9.13595e-05
0.000147847
0.000118314
5.58232e-05
3.73098e-05
3.41093e-05
3.28119e-05
2.51432e-05
5.04993e-05
8.37313e-05
0.000109119
0.000172144
0.000133666
5.30334e-05
3.54447e-05
3.26702e-05
3.20712e-05
2.51029e-05
5.2613e-05
9.09438e-05
0.000132591
0.000199256
0.000153224
6.1947e-05
3.77524e-05
3.20579e-05
3.12952e-05
2.5238e-05
5.44752e-05
0.000101883
0.000163717
0.000229404
0.0001804
0.000108347
5.06129e-05
3.5272e-05
3.12507e-05
2.56313e-05
5.57737e-05
0.000116921
0.000202586
0.000264899
0.000215787
0.000153776
7.97102e-05
4.59516e-05
3.39105e-05
2.65484e-05
5.68039e-05
0.000134988
0.000252007
0.000306702
0.000255479
0.000190248
0.000115051
6.31145e-05
4.02213e-05
2.8463e-05
5.7987e-05
0.000156534
0.000309372
0.000356234
0.000298961
0.00022619
0.000149668
8.48171e-05
4.85441e-05
3.15802e-05
5.96733e-05
0.000181786
0.000373959
0.000412789
0.000347132
0.000264573
0.000183951
0.000110472
6.07478e-05
3.62427e-05
6.21269e-05
0.00021051
0.000445877
0.000476263
0.000400753
0.000306627
0.000214653
0.000137103
7.55186e-05
4.24122e-05
6.54549e-05
0.000242682
0.000525809
0.000546832
0.000460519
0.000353931
0.000249762
0.000162945
9.14511e-05
4.82664e-05
6.95924e-05
0.000278828
0.000614707
0.000624875
0.00052689
0.000406874
0.000287481
0.000188711
0.000108289
5.53441e-05
7.45413e-05
0.000319711
0.000713647
0.000710965
0.000600593
0.000466947
0.000328645
0.000216083
0.000126199
6.34835e-05
8.03083e-05
0.000363718
0.000823439
0.00080564
0.000682317
0.000536266
0.000379872
0.000248746
0.000146276
7.2892e-05
8.6917e-05
0.000408266
0.000944512
0.000909167
0.000771832
0.000615164
0.000443707
0.00029055
0.000170818
8.44617e-05
9.44953e-05
0.000473106
0.00107657
0.00102136
0.000868186
0.00070304
0.000521902
0.00034448
0.000202136
9.94836e-05
0.000103351
0.000616885
0.00121886
0.00114196
0.00097076
0.000799212
0.000608912
0.000411497
0.000245604
0.000121527
0.000114317
0.000817359
0.00136757
0.00127031
0.00108029
0.000905682
0.000725368
0.000516242
0.000316999
0.000159732
0.000130216
0.000905594
0.00151719
0.00140147
0.00119066
0.00101109
0.000860939
0.000667768
0.000443046
0.000232981
0.000158956
0.000888614
0.00166263
0.00152012
0.00126713
0.00106954
0.000945865
0.00079762
0.000581422
0.000331776
0.000204329
0.00141891
0.00190355
0.00159572
0.00124031
0.00100493
0.000901297
0.000798913
0.00063197
0.000388476
0.000245646
0.00215868
0.00214802
0.00153639
0.00101837
0.000739021
0.000651676
0.0006844
0.000602024
0.000390493
0.000273855
0.00238521
0.00226516
0.00131799
0.000658354
0.000274132
0.000499062
0.000609538
0.000561269
0.000373269
0.000297865
0.00254881
0.00236684
0.00108157
0.000578239
0.000321488
0.000434767
0.00054266
0.000514726
0.000355746
0.000322324
0.00268398
0.00247418
0.00111136
0.000773848
0.00032282
0.000391394
0.000484692
0.000469823
0.000339471
0.000347221
0.00280304
0.00259151
0.00143094
0.00109893
0.000354828
0.000352701
0.000435256
0.000429177
0.00032464
0.000372504
0.00290632
0.00272117
0.00190742
0.00161885
0.000518558
0.000311789
0.000391911
0.000393479
0.000310707
0.000398111
0.00298056
0.00286418
0.00248916
0.00237184
0.00131309
0.00025365
0.00035268
0.000363389
0.000296651
0.000424154
2.3719e-05
2.09755e-05
2.09382e-05
2.09487e-05
2.09489e-05
2.09634e-05
2.09602e-05
2.09606e-05
2.09967e-05
2.37181e-05
2.33301e-05
1.81678e-05
1.79929e-05
1.80234e-05
1.80392e-05
1.80687e-05
1.80834e-05
1.80866e-05
1.81988e-05
2.3411e-05
2.29241e-05
1.57613e-05
1.54325e-05
1.54913e-05
1.55327e-05
1.55612e-05
1.56026e-05
1.5628e-05
1.58102e-05
2.30513e-05
2.25647e-05
1.37849e-05
1.32422e-05
1.33369e-05
1.33831e-05
1.34145e-05
1.34593e-05
1.35325e-05
1.37797e-05
2.26006e-05
2.21628e-05
1.21551e-05
1.13704e-05
1.14451e-05
1.15196e-05
1.15817e-05
1.16369e-05
1.17104e-05
1.20626e-05
2.19868e-05
2.10372e-05
1.07638e-05
1.28636e-05
1.0909e-05
1.03015e-05
1.01395e-05
1.01425e-05
1.01866e-05
1.05516e-05
2.10903e-05
1.97425e-05
1.10595e-05
1.74555e-05
1.39144e-05
1.0952e-05
9.65288e-06
9.17899e-06
9.05183e-06
9.31857e-06
2.01452e-05
1.94584e-05
1.35192e-05
2.11147e-05
1.9e-05
1.43803e-05
1.11367e-05
9.2692e-06
8.4632e-06
8.43057e-06
1.91695e-05
2.12351e-05
2.19291e-05
2.21202e-05
1.99079e-05
1.63941e-05
1.26029e-05
9.78362e-06
8.23742e-06
7.8436e-06
1.87587e-05
2.38846e-05
2.72305e-05
1.99375e-05
1.5718e-05
1.41861e-05
1.19676e-05
9.48545e-06
7.83802e-06
7.36452e-06
1.92091e-05
2.66168e-05
2.71412e-05
1.52195e-05
1.46623e-05
1.39149e-05
1.1097e-05
8.99985e-06
7.39374e-06
6.95033e-06
1.99998e-05
2.93689e-05
2.6502e-05
1.17147e-05
1.45707e-05
1.31303e-05
1.01067e-05
8.4042e-06
6.9146e-06
6.58797e-06
2.09704e-05
3.20597e-05
2.50403e-05
1.26795e-05
1.49425e-05
1.21918e-05
9.49016e-06
7.74486e-06
6.4442e-06
6.28593e-06
2.22213e-05
3.48429e-05
2.32303e-05
1.5467e-05
1.79942e-05
1.48901e-05
8.72188e-06
7.12811e-06
6.02142e-06
6.09704e-06
2.37096e-05
3.74689e-05
2.23511e-05
1.80088e-05
2.13139e-05
2.03416e-05
9.89319e-06
6.66796e-06
5.65225e-06
5.99404e-06
2.52217e-05
3.89584e-05
2.17185e-05
1.83259e-05
2.23314e-05
2.39504e-05
1.6597e-05
6.85882e-06
5.38641e-06
5.87357e-06
2.65055e-05
4.05199e-05
2.20659e-05
1.87235e-05
2.36734e-05
2.54545e-05
2.24555e-05
7.61415e-06
5.29894e-06
5.70503e-06
2.75241e-05
4.23412e-05
2.4323e-05
2.01858e-05
2.53172e-05
2.66769e-05
2.46827e-05
1.21051e-05
6.34052e-06
5.6417e-06
2.79736e-05
4.47994e-05
2.66402e-05
2.48036e-05
2.69949e-05
2.76835e-05
2.54514e-05
1.69266e-05
8.4718e-06
5.88439e-06
2.83807e-05
4.54142e-05
2.77305e-05
2.80481e-05
2.83413e-05
2.88066e-05
2.51408e-05
1.98772e-05
1.04484e-05
6.17215e-06
2.92702e-05
4.55507e-05
2.83816e-05
3.0948e-05
2.98016e-05
3.01683e-05
2.42054e-05
2.11567e-05
1.12305e-05
6.09831e-06
3.12163e-05
4.59666e-05
2.94435e-05
3.4199e-05
3.24266e-05
3.2062e-05
2.39223e-05
2.09885e-05
1.16004e-05
6.49112e-06
3.33526e-05
4.61071e-05
3.44391e-05
3.77951e-05
3.70804e-05
3.54979e-05
2.62396e-05
1.97345e-05
1.19802e-05
6.27846e-06
3.50246e-05
5.44086e-05
4.46666e-05
4.33051e-05
4.05314e-05
3.88102e-05
3.72627e-05
2.95927e-05
1.65749e-05
8.07851e-06
3.37956e-05
8.82793e-05
4.46711e-05
4.28911e-05
4.15321e-05
4.01636e-05
3.8988e-05
3.61549e-05
2.58252e-05
1.35583e-05
3.2403e-05
7.39068e-05
4.1159e-05
4.60191e-05
4.37956e-05
4.17682e-05
4.0059e-05
3.82246e-05
3.16909e-05
1.95095e-05
3.25254e-05
6.52026e-05
4.31075e-05
4.9559e-05
4.59045e-05
4.31023e-05
4.09943e-05
3.91802e-05
3.43385e-05
2.33088e-05
3.39345e-05
5.82194e-05
4.50256e-05
5.86249e-05
5.3801e-05
4.46565e-05
4.07548e-05
3.89303e-05
3.49299e-05
2.48415e-05
3.63055e-05
5.36748e-05
4.62315e-05
6.81207e-05
6.39201e-05
4.53931e-05
3.96022e-05
3.82437e-05
3.46083e-05
2.5055e-05
3.93101e-05
5.40125e-05
5.19678e-05
7.94993e-05
7.43162e-05
4.43904e-05
3.79299e-05
3.75776e-05
3.41931e-05
2.49252e-05
4.25793e-05
5.33783e-05
5.82032e-05
9.25516e-05
8.39531e-05
4.83764e-05
3.81409e-05
3.69652e-05
3.39909e-05
2.49726e-05
4.55746e-05
5.68537e-05
6.62815e-05
0.000107471
9.4893e-05
5.31069e-05
3.90198e-05
3.6354e-05
3.38008e-05
2.5081e-05
4.69194e-05
6.61167e-05
7.69623e-05
0.000126366
0.00010695
5.44271e-05
3.83835e-05
3.53594e-05
3.34288e-05
2.51168e-05
4.85757e-05
7.54622e-05
9.07884e-05
0.000148509
0.000120221
5.40742e-05
3.66493e-05
3.39987e-05
3.28453e-05
2.50732e-05
5.05811e-05
8.14959e-05
0.000109057
0.000173436
0.000135719
5.18692e-05
3.50017e-05
3.25535e-05
3.20885e-05
2.50679e-05
5.27493e-05
8.91787e-05
0.000133215
0.000201101
0.000155574
6.10886e-05
3.73675e-05
3.19169e-05
3.12819e-05
2.52241e-05
5.4644e-05
0.000101076
0.000164967
0.000231749
0.00018322
0.000108376
4.9689e-05
3.49462e-05
3.11665e-05
2.56086e-05
5.5992e-05
0.000116742
0.000204689
0.000267631
0.00021891
0.000156777
7.87709e-05
4.58755e-05
3.36989e-05
2.64832e-05
5.70686e-05
0.000135439
0.000254685
0.000310063
0.000258886
0.00019311
0.000113952
6.19881e-05
3.9665e-05
2.8289e-05
5.83077e-05
0.00015742
0.00031255
0.000360169
0.000302923
0.000229829
0.000149447
8.35248e-05
4.7895e-05
3.13283e-05
6.00255e-05
0.00018295
0.000377668
0.00041732
0.0003517
0.000268744
0.000188125
0.000110398
6.01308e-05
3.59065e-05
6.24869e-05
0.000211994
0.000450177
0.000481418
0.000405913
0.000311214
0.000218038
0.000138005
7.48457e-05
4.19383e-05
6.57982e-05
0.000244434
0.000530796
0.000552665
0.000466377
0.00035926
0.000254103
0.00016606
9.1131e-05
4.77957e-05
6.98928e-05
0.000281009
0.000620407
0.000631438
0.000533385
0.000412801
0.00029241
0.000192786
0.000108421
5.48721e-05
7.47814e-05
0.000322599
0.000719875
0.000718223
0.000607584
0.000473375
0.000334127
0.000220548
0.000126754
6.29482e-05
8.04622e-05
0.000367841
0.000829753
0.000813454
0.000689559
0.000542924
0.000385844
0.000253437
0.0001473
7.22901e-05
8.69458e-05
0.000413395
0.000950171
0.000917258
0.000779034
0.000621558
0.00044956
0.000295317
0.000172475
8.38961e-05
9.43648e-05
0.00047588
0.00108088
0.00102937
0.000875027
0.000708508
0.000525568
0.00034894
0.000204446
9.90468e-05
0.000103048
0.000616984
0.00122117
0.00114928
0.000977031
0.00080379
0.000608901
0.000414301
0.000247713
0.000121235
0.000113823
0.000822285
0.00136786
0.00127612
0.0010863
0.000910567
0.000728436
0.000519514
0.000319558
0.000160018
0.000129641
0.000920568
0.00151624
0.00140538
0.00119775
0.00101804
0.000865622
0.000670578
0.000445581
0.000233931
0.000158581
0.000902573
0.00165833
0.00152418
0.00127824
0.00108127
0.000955169
0.000803694
0.000585233
0.000333405
0.000204188
0.00134661
0.00188568
0.00160391
0.00126074
0.00102468
0.000920652
0.000813804
0.000641223
0.000391623
0.000245412
0.00216758
0.00214605
0.00156005
0.0010545
0.000764306
0.000672046
0.000697057
0.000611053
0.000392816
0.000272897
0.00240204
0.00226129
0.0013513
0.000705177
0.000267183
0.000507943
0.000618869
0.000568606
0.000373695
0.000295936
0.00256814
0.00236181
0.00112242
0.000600167
0.000313619
0.000440414
0.000549435
0.000519599
0.000354482
0.00031945
0.00270215
0.00246919
0.00113714
0.000805629
0.000310404
0.000396272
0.000489267
0.000471866
0.000336819
0.000343456
0.00281795
0.0025876
0.00144738
0.00114154
0.000328082
0.000356714
0.000437499
0.000428535
0.000320903
0.000367929
0.0029163
0.0027184
0.0019226
0.00166486
0.000454598
0.00031485
0.000391356
0.000390613
0.000306217
0.000392812
0.00298498
0.00286274
0.00249573
0.00239977
0.00117211
0.000253242
0.000349527
0.000359285
0.000291754
0.000418295
)
;
    }
    inlet
    {
        type            turbulentIntensityKineticEnergyInlet;
        intensity       0.05;
        value           uniform 2.4e-05;
    }
    outlet
    {
        type            inletOutlet;
        inletValue      uniform 0.003;
        value           nonuniform List<scalar> 
20
(
0.003
0.003
0.003
0.003
0.003
0.00025365
0.00035268
0.000363389
0.000296651
0.000424154
0.003
0.003
0.003
0.003
0.003
0.000253242
0.000349527
0.000359285
0.000291754
0.000418295
)
;
    }
    heatWall
    {
        type            kqRWallFunction;
        value           nonuniform List<scalar> 
240
(
2.37344e-05
2.37181e-05
2.34342e-05
2.3411e-05
2.30826e-05
2.30513e-05
2.26634e-05
2.26006e-05
2.20529e-05
2.19868e-05
2.11437e-05
2.10903e-05
2.02366e-05
2.01452e-05
1.93239e-05
1.91695e-05