/*--------------------------------*- C++ -*----------------------------------*\
  =========                 |
  \\      /  F ield         | OpenFOAM: The Open Source CFD Toolbox
   \\    /   O peration     | Website:  https://openfoam.org
    \\  /    A nd           | Version:  8
     \\/     M anipulation  |
\*---------------------------------------------------------------------------*/
FoamFile
{
    version     2.0;
    format      ascii;
    class       volScalarField;
    location    "300";
    object      nut;
}
// * * * * * * * * * * * * * * * * * * * * * * * * * * * * * * * * * * * * * //

dimensions      [0 2 -1 0 0 0 0];

internalField   nonuniform List<scalar> 
1200
(
9.44582e-06
9.33199e-06
9.19685e-06
9.05817e-06
8.91384e-06
8.52528e-06
8.12694e-06
8.0702e-06
8.66776e-06
9.51549e-06
1.03535e-05
1.11711e-05
1.19477e-05
1.27313e-05
1.34518e-05
1.38512e-05
1.42709e-05
1.47493e-05
1.53843e-05
6.02734e-06
6.04079e-06
6.08943e-06
6.0999e-06
6.61476e-06
8.41062e-06
7.69872e-06
7.23827e-06
6.86135e-06
6.6155e-06
6.52012e-06
6.49737e-06
6.68448e-06
7.25414e-06
7.77413e-06
8.08091e-06
8.4614e-06
9.02042e-06
9.70054e-06
1.04494e-05
1.12674e-05
1.21477e-05
1.30781e-05
1.40441e-05
1.50606e-05
1.61415e-05
1.72497e-05
1.83154e-05
1.96072e-05
2.21861e-05
2.55745e-05
2.72746e-05
2.70371e-05
3.27852e-05
4.18603e-05
4.40739e-05
4.5573e-05
4.6741e-05
4.77225e-05
4.8535e-05
4.90876e-05
7.35256e-06
6.37415e-06
5.53799e-06
4.85373e-06
4.30641e-06
3.80321e-06
3.90845e-06
4.783e-06
7.75786e-06
9.59804e-06
9.56301e-06
9.33782e-06
8.83089e-06
8.19338e-06
7.88354e-06
7.66303e-06
7.7848e-06
8.58273e-06
9.39322e-06
9.77177e-06
9.99746e-06
1.0371e-05
1.21347e-05
1.57506e-05
1.57507e-05
1.45088e-05
1.51935e-05
1.58781e-05
3.81176e-06
4.04224e-06
4.27698e-06
4.56469e-06
4.92194e-06
5.34756e-06
5.86382e-06
6.48637e-06
7.22376e-06
8.0478e-06
8.97782e-06
9.94464e-06
1.093e-05
1.19321e-05
1.29566e-05
1.40089e-05
1.50924e-05
1.62052e-05
1.73419e-05
1.84949e-05
1.96623e-05
2.08227e-05
2.19339e-05
2.29563e-05
2.4427e-05
2.60896e-05
2.67925e-05
2.73763e-05
2.79763e-05
2.86201e-05
2.93078e-05
3.00555e-05
7.34285e-06
6.30974e-06
5.40877e-06
4.63284e-06
3.98211e-06
4.55805e-06
6.18256e-06
7.45569e-06
7.80193e-06
7.01673e-06
5.35913e-06
4.13001e-06
4.40264e-06
5.39787e-06
6.30527e-06
6.42012e-06
6.56995e-06
7.13176e-06
8.75582e-06
9.8825e-06
1.08993e-05
1.20456e-05
1.33147e-05
1.528e-05
1.50813e-05
1.61535e-05
3.95296e-06
4.30102e-06
4.63552e-06
5.00632e-06
5.40156e-06
5.82244e-06
6.316e-06
6.84963e-06
7.40572e-06
7.97783e-06
8.56478e-06
9.20335e-06
9.90625e-06
1.06765e-05
1.14919e-05
1.23425e-05
1.32238e-05
1.41345e-05
1.50746e-05
1.60433e-05
1.70368e-05
1.80484e-05
1.90722e-05
2.01012e-05
2.11049e-05
2.19903e-05
2.25723e-05
2.23238e-05
2.08043e-05
1.89618e-05
1.89884e-05
2.13872e-05
2.46439e-05
2.80585e-05
7.34132e-06
6.31574e-06
5.41949e-06
4.65854e-06
3.99683e-06
3.83404e-06
4.92339e-06
6.71197e-06
7.01229e-06
5.50589e-06
5.10906e-06
5.08443e-06
5.21094e-06
6.27435e-06
7.44689e-06
7.82083e-06
8.29396e-06
8.86174e-06
9.43345e-06
9.87938e-06
1.03766e-05
1.14722e-05
1.30905e-05
1.42907e-05
1.45736e-05
1.55004e-05
3.86299e-06
4.24504e-06
4.57953e-06
4.86243e-06
5.16443e-06
5.49145e-06
5.82953e-06
6.17609e-06
6.55566e-06
7.01845e-06
7.62222e-06
8.33259e-06
9.05828e-06
9.79697e-06
1.05549e-05
1.13377e-05
1.21525e-05
1.29963e-05
1.38714e-05
1.47781e-05
1.57082e-05
1.66493e-05
1.75936e-05
1.85471e-05
1.94714e-05
2.01308e-05
2.006e-05
1.85073e-05
1.53788e-05
1.40577e-05
1.62454e-05
1.9275e-05
2.31743e-05
2.75761e-05
7.34303e-06
6.32151e-06
5.44009e-06
4.68643e-06
4.03452e-06
3.61443e-06
3.85786e-06
5.0776e-06
5.77551e-06
4.98244e-06
4.8433e-06
4.5892e-06
4.2572e-06
5.17481e-06
7.0914e-06
8.37845e-06
8.91861e-06
9.35317e-06
9.70943e-06
1.01057e-05
1.05739e-05
1.12185e-05
1.23515e-05
1.35455e-05
1.40528e-05
1.4684e-05
1.52609e-05
1.61086e-05
1.66309e-05
1.62961e-05
3.99037e-06
4.21884e-06
4.30755e-06
4.31047e-06
4.17273e-06
4.50067e-06
5.96593e-06
7.00664e-06
7.81051e-06
8.5325e-06
9.22886e-06
9.92848e-06
1.06671e-05
1.14346e-05
1.22453e-05
1.31148e-05
1.40346e-05
1.49879e-05
1.5962e-05
1.69733e-05
1.79376e-05
1.85073e-05
1.81121e-05
1.58986e-05
9.03837e-06
1.02958e-05
1.04313e-05
1.11466e-05
1.38322e-05
2.1862e-05
7.34895e-06
6.3333e-06
5.45389e-06
4.70318e-06
4.05988e-06
3.56084e-06
3.39083e-06
3.92599e-06
4.43718e-06
4.20629e-06
3.89153e-06
3.53106e-06
3.29582e-06
3.04773e-06
3.42296e-06
5.73358e-06
7.81581e-06
8.62508e-06
8.90604e-06
8.79499e-06
8.46612e-06
8.36397e-06
9.1544e-06
1.29834e-05
1.36145e-05
1.40374e-05
1.44103e-05
1.44268e-05
1.40581e-05
1.3451e-05
1.35723e-05
1.39975e-05
1.38475e-05
1.3232e-05
1.25416e-05
1.33387e-05
4.05679e-06
5.10834e-06
6.14292e-06
7.00085e-06
7.67985e-06
8.28843e-06
8.97068e-06
9.62355e-06
1.02869e-05
1.10547e-05
1.19333e-05
1.29056e-05
1.3906e-05
1.5162e-05
1.65211e-05
1.73735e-05
1.7156e-05
1.47868e-05
1.27926e-05
1.18975e-05
1.12822e-05
1.07158e-05
1.00577e-05
9.13965e-06
7.34612e-06
6.3367e-06
5.47109e-06
4.72512e-06
4.08688e-06
3.56171e-06
3.22735e-06
3.25851e-06
3.43923e-06
3.33035e-06
3.16164e-06
2.95428e-06
2.73434e-06
2.50519e-06
2.34155e-06
2.42177e-06
2.63806e-06
4.12468e-06
5.8333e-06
6.90163e-06
7.36145e-06
7.29615e-06
6.86949e-06
1.02927e-05
1.25977e-05
1.33643e-05
1.37314e-05
1.36696e-05
1.34191e-05
1.3165e-05
1.29678e-05
1.27937e-05
1.24766e-05
1.20113e-05
1.15067e-05
1.12956e-05
1.24557e-05
3.83086e-06
4.54685e-06
5.27374e-06
5.99401e-06
6.66826e-06
7.2585e-06
7.79526e-06
8.33435e-06
8.94063e-06
9.65612e-06
1.04894e-05
1.14229e-05
1.27447e-05
1.4493e-05
1.59076e-05
1.60982e-05
1.49298e-05
1.40843e-05
1.32833e-05
1.25541e-05
1.19053e-05
1.13121e-05
1.07448e-05
7.34927e-06
6.33939e-06
5.47752e-06
4.75012e-06
4.12342e-06
3.59023e-06
3.18686e-06
2.9777e-06
2.8922e-06
2.74787e-06
2.59364e-06
2.42446e-06
2.25571e-06
2.10701e-06
1.97574e-06
1.87845e-06
1.83534e-06
2.16039e-06
2.87569e-06
3.56456e-06
3.84199e-06
3.98115e-06
4.11879e-06
5.69182e-06
8.92961e-06
1.1052e-05
1.20352e-05
1.22716e-05
1.21669e-05
1.20131e-05
1.19278e-05
1.18575e-05
1.17302e-05
1.15308e-05
1.12735e-05
1.10057e-05
1.10012e-05
1.19662e-05
1.42513e-05
3.96234e-06
4.43423e-06
4.95261e-06
5.44886e-06
5.92443e-06
6.39023e-06
6.87405e-06
7.41316e-06
8.03867e-06
8.83301e-06
9.98988e-06
1.17613e-05
1.35301e-05
1.42519e-05
1.39451e-05
1.34815e-05
1.29232e-05
1.23589e-05
1.18253e-05
1.13357e-05
1.09024e-05
7.35895e-06
6.37586e-06
5.54173e-06
4.83304e-06
4.23988e-06
3.72313e-06
3.2947e-06
2.97296e-06
2.75361e-06
2.57646e-06
2.42542e-06
2.29455e-06
2.18652e-06
2.10994e-06
2.06254e-06
2.01921e-06
1.96583e-06
1.9461e-06
2.0254e-06
2.11531e-06
2.11752e-06
2.31229e-06
2.21254e-06
2.73689e-06
4.62057e-06
6.76751e-06
8.17163e-06
8.76089e-06
8.86453e-06
8.82594e-06
8.83544e-06
8.86558e-06
8.87217e-06
8.84527e-06
8.82637e-06
8.87075e-06
9.01006e-06
9.34076e-06
1.00334e-05
1.11431e-05
1.2802e-05
1.50053e-05
3.94093e-06
4.22251e-06
4.52728e-06
4.85608e-06
5.22553e-06
5.66402e-06
6.24817e-06
7.12832e-06
8.54352e-06
1.02104e-05
1.11523e-05
1.12246e-05
1.09893e-05
1.07418e-05
1.05047e-05
1.02813e-05
1.00634e-05
9.83618e-06
9.45206e-06
9.35454e-06
9.2386e-06
9.10527e-06
8.91035e-06
8.63738e-06
8.37569e-06
8.09729e-06
7.94777e-06
8.05073e-06
8.28174e-06
8.58159e-06
8.92975e-06
9.32978e-06
9.75614e-06
1.01229e-05
1.04309e-05
1.07176e-05
1.09042e-05
1.11506e-05
1.16963e-05
1.23024e-05
1.27869e-05
1.24311e-05
1.20234e-05
1.20791e-05
1.25152e-05
1.31599e-05
1.39572e-05
1.4816e-05
1.5656e-05
6.21008e-06
6.31005e-06
6.42445e-06
6.55221e-06
6.66732e-06
6.74785e-06
6.80738e-06
6.86939e-06
6.96125e-06
7.09599e-06
7.27882e-06
7.50393e-06
7.76626e-06
8.06408e-06
8.39576e-06
8.76322e-06
9.17473e-06
9.65914e-06
1.03084e-05
1.13563e-05
1.28678e-05
1.41711e-05
1.49978e-05
1.56569e-05
1.63002e-05
1.69278e-05
1.75395e-05
1.81352e-05
1.87197e-05
9.45033e-06
9.32325e-06
9.18718e-06
9.06776e-06
8.94571e-06
8.60163e-06
8.18896e-06
8.0928e-06
8.65227e-06
9.48155e-06
1.03218e-05
1.11444e-05
1.19223e-05
1.27048e-05
1.34312e-05
1.38413e-05
1.42542e-05
1.47363e-05
1.53793e-05
1.56273e-05
1.56824e-05
6.091e-06
6.10197e-06
6.58385e-06
8.29848e-06
7.63448e-06
7.19465e-06
6.83583e-06
6.67892e-06
6.51506e-06
6.46619e-06
6.54784e-06
7.05016e-06
7.62146e-06
7.96559e-06
8.36746e-06
8.974e-06
9.68695e-06
1.04652e-05
1.13013e-05
1.21945e-05
1.31389e-05
1.41134e-05
1.51393e-05
1.62279e-05
1.73419e-05
1.8406e-05
1.96143e-05
2.20864e-05
2.55335e-05
2.73857e-05
2.72351e-05
3.17966e-05
4.19327e-05
4.42211e-05
4.57409e-05
4.68952e-05
4.78456e-05
4.8615e-05
4.91222e-05
7.35515e-06
6.37357e-06
5.53304e-06
4.84044e-06
4.27719e-06
3.74069e-06
3.85484e-06
4.72013e-06
7.67159e-06
9.55742e-06
9.52776e-06
9.30375e-06
8.78563e-06
8.15092e-06
7.84221e-06
7.6189e-06
7.74135e-06
8.53231e-06
9.35051e-06
9.73728e-06
9.96865e-06
1.03422e-05
1.20943e-05
1.56759e-05
1.56574e-05
1.44245e-05
1.51075e-05
1.57715e-05
3.77524e-06
4.00772e-06
4.23786e-06
4.52118e-06
4.8842e-06
5.3229e-06
5.855e-06
6.49434e-06
7.23995e-06
8.08141e-06
9.01665e-06
9.98739e-06
1.09769e-05
1.19836e-05
1.30128e-05
1.40682e-05
1.51508e-05
1.62573e-05
1.73825e-05
1.85224e-05
1.96753e-05
2.08197e-05
2.1914e-05
2.29081e-05
2.42973e-05
2.60805e-05
2.67742e-05
2.73511e-05
2.79512e-05
2.86016e-05
2.92945e-05
3.00482e-05
7.34164e-06
6.3077e-06
5.40872e-06
4.63844e-06
3.98269e-06
4.48358e-06
6.10124e-06
7.4003e-06
7.76044e-06
7.0042e-06
5.34297e-06
4.10879e-06
4.44595e-06
5.42831e-06
6.32516e-06
6.43783e-06
6.58079e-06
7.06935e-06
8.69905e-06
9.84972e-06
1.08703e-05
1.20102e-05
1.32688e-05
1.51758e-05
1.5084e-05
1.63832e-05
3.94808e-06
4.30514e-06
4.6371e-06
5.00021e-06
5.39577e-06
5.81271e-06
6.30654e-06
6.85111e-06
7.42158e-06
8.00382e-06
8.60041e-06
9.24254e-06
9.95341e-06
1.07291e-05
1.15495e-05
1.24045e-05
1.32902e-05
1.42051e-05
1.51481e-05
1.61174e-05
1.71085e-05
1.81145e-05
1.91286e-05
2.01425e-05
2.11316e-05
2.20149e-05
2.26269e-05
2.24957e-05
2.10649e-05
1.93215e-05
1.92249e-05
2.15124e-05
2.47391e-05
2.80942e-05
7.34567e-06
6.31863e-06
5.42778e-06
4.67172e-06
4.0075e-06
3.81967e-06
4.86146e-06
6.65668e-06
6.99161e-06
5.53918e-06
5.14171e-06
5.11122e-06
5.24012e-06
6.31097e-06
7.48064e-06
7.84363e-06
8.31586e-06
8.89089e-06
9.47547e-06
9.94055e-06
1.0437e-05
1.12394e-05
1.29785e-05
1.41842e-05
1.45739e-05
1.54146e-05
3.83195e-06
4.23532e-06
4.61042e-06
4.88659e-06
5.17416e-06
5.50683e-06
5.85215e-06
6.20626e-06
6.59159e-06
7.06209e-06
7.67185e-06
8.37975e-06
9.10733e-06
9.85233e-06
1.06153e-05
1.14026e-05
1.22227e-05
1.30695e-05
1.39455e-05
1.48506e-05
1.57768e-05
1.67114e-05
1.76482e-05
1.85982e-05
1.95315e-05
2.02244e-05
2.02334e-05
1.88412e-05
1.59213e-05
1.42757e-05
1.65119e-05
1.95744e-05
2.3434e-05
2.76949e-05
7.34464e-06
6.32371e-06
5.44498e-06
4.69127e-06
4.03835e-06
3.6118e-06
3.83304e-06
5.03272e-06
5.75323e-06
4.98991e-06
4.8774e-06
4.608e-06
4.27633e-06
5.21584e-06
7.13386e-06
8.40879e-06
8.94155e-06
9.37284e-06
9.7275e-06
1.01228e-05
1.05995e-05
1.12589e-05
1.24433e-05
1.35997e-05
1.40909e-05
1.4673e-05
1.51663e-05
1.58133e-05
1.61407e-05
1.58319e-05
3.95863e-06
4.17192e-06
4.24154e-06
4.23649e-06
4.11947e-06
4.47127e-06
5.99383e-06
7.03183e-06
7.84428e-06
8.58422e-06
9.28621e-06
9.98952e-06
1.07366e-05
1.15066e-05
1.23186e-05
1.31861e-05
1.40985e-05
1.50379e-05
1.59999e-05
1.70142e-05
1.80017e-05
1.86217e-05
1.83161e-05
1.62429e-05
9.00276e-06
1.01755e-05
1.02409e-05
1.07717e-05
1.31506e-05
2.10931e-05
7.35019e-06
6.33494e-06
5.45667e-06
4.70397e-06
4.06037e-06
3.55696e-06
3.38292e-06
3.89644e-06
4.41856e-06
4.20152e-06
3.90343e-06
3.54006e-06
3.32239e-06
3.05981e-06
3.46061e-06
5.80527e-06
7.87275e-06
8.6638e-06
8.9373e-06
8.82769e-06
8.49863e-06
8.39853e-06
9.20825e-06
1.30624e-05
1.36723e-05
1.40631e-05
1.44038e-05
1.43494e-05
1.39582e-05
1.33652e-05
1.34585e-05
1.38002e-05
1.35955e-05
1.29843e-05
1.23757e-05
1.3201e-05
4.02111e-06
5.08681e-06
6.1241e-06
7.01022e-06
7.75303e-06
8.32364e-06
9.02074e-06
9.68572e-06
1.03524e-05
1.1121e-05
1.19937e-05
1.29408e-05
1.3899e-05
1.51734e-05
1.65594e-05
1.74716e-05
1.73617e-05
1.5095e-05
1.29671e-05
1.20094e-05
1.13832e-05
1.08108e-05
1.01473e-05
9.08915e-06
7.3481e-06
6.33957e-06
5.47292e-06
4.72316e-06
4.08241e-06
3.55696e-06
3.22028e-06
3.24687e-06
3.42741e-06
3.32592e-06
3.15905e-06
2.94564e-06
2.72244e-06
2.49888e-06
2.33756e-06
2.40931e-06
2.6599e-06
4.21535e-06
5.91676e-06
6.96393e-06
7.41769e-06
7.35574e-06
6.91884e-06
1.0375e-05
1.2675e-05
1.34118e-05
1.37571e-05
1.36768e-05
1.34334e-05
1.31939e-05
1.29852e-05
1.2783e-05
1.24431e-05
1.19693e-05
1.14635e-05
1.12458e-05
1.2345e-05
3.81326e-06
4.50816e-06
5.23634e-06
6.0033e-06
6.70574e-06
7.34007e-06
7.87255e-06
8.40214e-06
8.99812e-06
9.70262e-06
1.05241e-05
1.14637e-05
1.27726e-05
1.45004e-05
1.59606e-05
1.62592e-05
1.51025e-05
1.42284e-05
1.34019e-05
1.26478e-05
1.19683e-05
1.13289e-05
1.07007e-05
7.34855e-06
6.34088e-06
5.48145e-06
4.75216e-06
4.11586e-06
3.57813e-06
3.17633e-06
2.96858e-06
2.88968e-06
2.75109e-06
2.59911e-06
2.42852e-06
2.25843e-06
2.10847e-06
1.97845e-06
1.88438e-06
1.85052e-06
2.20601e-06
2.94742e-06
3.64183e-06
3.91533e-06
4.04775e-06
4.18294e-06
5.79071e-06
9.03754e-06
1.11153e-05
1.20608e-05
1.22771e-05
1.21667e-05
1.20182e-05
1.19425e-05
1.18745e-05
1.17449e-05
1.15417e-05
1.12789e-05
1.10008e-05
1.09729e-05
1.1899e-05
1.40639e-05
3.93748e-06
4.41981e-06
4.94377e-06
5.45649e-06
5.94419e-06
6.41851e-06
6.90937e-06
7.45646e-06
8.08919e-06
8.89037e-06
1.00495e-05
1.17899e-05
1.35601e-05
1.4351e-05
1.40538e-05
1.35764e-05
1.29944e-05
1.23965e-05
1.18246e-05
1.12975e-05
1.08385e-05
7.36121e-06
6.38005e-06
5.54507e-06
4.83796e-06
4.24198e-06
3.71444e-06
3.27818e-06
2.95942e-06
2.74842e-06
2.57814e-06
2.43211e-06
2.30429e-06
2.19794e-06
2.12811e-06
2.08865e-06
2.04667e-06
1.98972e-06
1.9683e-06
2.0525e-06
2.15136e-06
2.1256e-06
2.28751e-06
2.20098e-06
2.81255e-06
4.7309e-06
6.83544e-06
8.19051e-06
8.74432e-06
8.82805e-06
8.78401e-06
8.79777e-06
8.83208e-06
8.84178e-06
8.82197e-06
8.81475e-06
8.86716e-06
9.00497e-06
9.32275e-06
9.97886e-06
1.10648e-05
1.27038e-05
1.48685e-05
3.93231e-06
4.21625e-06
4.52188e-06
4.85137e-06
5.22558e-06
5.67242e-06
6.26471e-06
7.15555e-06
8.57472e-06
1.02396e-05
1.1201e-05
1.12655e-05
1.10055e-05
1.07333e-05
1.04735e-05
1.02301e-05
9.99646e-06
9.75879e-06
9.4469e-06
9.34846e-06
9.23107e-06
9.08399e-06
8.88863e-06
8.62218e-06
8.34789e-06
8.03411e-06
7.87547e-06
7.9988e-06
8.2485e-06
8.56059e-06
8.94814e-06
9.39973e-06
9.85881e-06
1.02443e-05
1.05482e-05
1.07343e-05
1.09518e-05
1.12486e-05
1.17926e-05
1.23546e-05
1.28493e-05
1.24568e-05
1.20304e-05
1.21042e-05
1.24837e-05
1.31187e-05
1.39207e-05
1.47782e-05
1.56237e-05
6.17991e-06
6.27465e-06
6.39134e-06
6.52203e-06
6.63612e-06
6.71317e-06
6.77096e-06
6.83597e-06
6.93136e-06
7.07185e-06
7.26085e-06
7.49038e-06
7.7566e-06
8.05691e-06
8.38849e-06
8.75339e-06
9.16173e-06
9.64245e-06
1.02913e-05
1.13493e-05
1.28708e-05
1.41734e-05
1.49826e-05
1.56166e-05
1.62359e-05
1.68412e-05
1.74331e-05
1.80117e-05
1.85841e-05
)
;

boundaryField
{
    wall
    {
        type            nutkWallFunction;
        Cmu             0.09;
        kappa           0.41;
        E               9.8;
        value           nonuniform List<scalar> 
1200
(
0
0
0
0
0
0
0
0
0
0
0
0
0
0
0
0
0
0
0
0
0
0
0
0
0
0
0
0
0
0
0
0
0
0
0
0
0
0
0
0
0
0
0
0
0
0
0
0
0
0
0
0
0
0
0
0
0
0
0
0
0
0
0
0
0
0
0
0
0
0
0
0
0
0
0
0
0
0
0
0
0
0
0
0
0
0
0
0
0
0
0
0
0
0
0
0
0
0
0
0
0
0
0
0
0
0
0
0
0
0
0
0
0
0
0
0
0
0
0
0
0
0
0
0
0
0
0
0
0
0
0
0
0
0
0
0
0
0
0
0
0
0
0
0
0
0
0
0
0
0
0
0
0
0
0
0
0
0
0
0
0
0
0
0
0
0
0
0
0
0
0
0
0
0
0
0
0
0
0
0
0
0
0
0
0
0
0
0
0
0
0
0
0
0
0
0
0
0
0
0
0
0
0
0
0
0
0
0
0
0
4.26538e-09
0
0
0
0
0
0
0
0
0
5.05082e-09
0
0
0
0
0
0
0
0
0
6.30371e-08
0
0
0
0
0
0
0
0
0
2.53299e-07
0
0
0
0
0
0
0
0
0
1.77687e-07
0
1.53359e-10
0
0
0
0
0
0
0
1.28364e-07
0
2.64839e-08
6.87094e-09
0
0
0
0
0
0
8.47027e-08
0
8.24662e-08
6.1883e-08
8.59435e-12
0
0
0
0
0
4.90651e-08
1.041e-08
1.3787e-07
1.17429e-07
6.48243e-09
0
0
0
0
0
6.44956e-08
4.82822e-08
1.99207e-07
1.67269e-07
2.27746e-09
0
0
0
0
0
6.11101e-08
8.76066e-08
2.61647e-07
2.1475e-07
2.5282e-08
0
0
0
0
3.99015e-10
9.20643e-08
1.34703e-07
3.27237e-07
2.65693e-07
5.85149e-08
0
0
0
0
1.00112e-08
1.47598e-07
1.90459e-07
4.02813e-07
3.17955e-07
6.92667e-08
0
0
0
0
2.09455e-08
1.92157e-07
2.55958e-07
4.82752e-07
3.71969e-07
6.79581e-08
0
0
0
0
3.37576e-08
2.19808e-07
3.34259e-07
5.64696e-07
4.31316e-07
5.05815e-08
0
0
0
0
4.74253e-08
2.54152e-07
4.27258e-07
6.48668e-07
5.01523e-07
1.0456e-07
0
0
0
0
5.92175e-08
3.03415e-07
5.37039e-07
7.34696e-07
5.9103e-07
3.3117e-07
3.50206e-08
0
0
0
6.7325e-08
3.66437e-07
6.58485e-07
8.28079e-07
6.96703e-07
5.03425e-07
2.00193e-07
3.85058e-09
0
0
7.36977e-08
4.36295e-07
7.95004e-07
9.29322e-07
8.04041e-07
6.2155e-07
3.59043e-07
1.11378e-07
0
0
8.09294e-08
5.12922e-07
9.35483e-07
1.03958e-06
9.11212e-07
7.25862e-07
4.89258e-07
2.2541e-07
2.14382e-08
0
9.10663e-08
5.95405e-07
1.07687e-06
1.15529e-06
1.02003e-06
8.27277e-07
6.02165e-07
3.40269e-07
9.76684e-08
0
1.05498e-07
6.81621e-07
1.2188e-06
1.27487e-06
1.13147e-06
9.29171e-07
6.93495e-07
4.44271e-07
1.78921e-07
0
1.24538e-07
7.70549e-07
1.36202e-06
1.39763e-06
1.24611e-06
1.03468e-06
7.89212e-07
5.34639e-07
2.56874e-07
1.95266e-08
1.47431e-07
8.62775e-07
1.50746e-06
1.52334e-06
1.36392e-06
1.14365e-06
8.83843e-07
6.16929e-07
3.31187e-07
6.50824e-08
1.73799e-07
9.59214e-07
1.65593e-06
1.65208e-06
1.48525e-06
1.25794e-06
9.79362e-07
6.97601e-07
4.03283e-07
1.13493e-07
2.03277e-07
1.05547e-06
1.8076e-06
1.78385e-06
1.61029e-06
1.37988e-06
1.08916e-06
7.86586e-07
4.77456e-07
1.6519e-07
2.35592e-07
1.14638e-06
1.96214e-06
1.91826e-06
1.73787e-06
1.50823e-06
1.21478e-06
8.91244e-07
5.60612e-07
2.23751e-07
2.70951e-07
1.26914e-06
2.11841e-06
2.05449e-06
1.86616e-06
1.64064e-06
1.35538e-06
1.01429e-06
6.57359e-07
2.93282e-07
3.1026e-07
1.51089e-06
2.27511e-06
2.1918e-06
1.99417e-06
1.77522e-06
1.49842e-06
1.15278e-06
7.784e-07
3.8517e-07
3.56343e-07
1.79953e-06
2.42821e-06
2.32922e-06
2.12268e-06
1.91391e-06
1.67278e-06
1.34563e-06
9.53138e-07
5.24088e-07
4.1885e-07
1.91377e-06
2.57304e-06
2.46179e-06
2.24494e-06
2.04242e-06
1.85682e-06
1.5887e-06
1.21358e-06
7.44738e-07
5.21582e-07
1.89229e-06
2.70631e-06
2.57581e-06
2.32594e-06
2.11042e-06
1.96386e-06
1.77308e-06
1.45459e-06
9.86514e-07
6.64065e-07
2.47888e-06
2.91334e-06
2.64587e-06
2.29787e-06
2.03514e-06
1.90842e-06
1.77484e-06
1.53438e-06
1.1069e-06
7.78772e-07
3.11709e-06
3.10885e-06
2.59106e-06
2.05103e-06
1.6922e-06
1.56453e-06
1.61342e-06
1.48757e-06
1.11099e-06
8.50877e-07
3.28692e-06
3.1981e-06
2.3783e-06
1.57464e-06
8.5131e-07
1.3157e-06
1.49945e-06
1.42169e-06
1.07564e-06
9.0899e-07
3.404e-06
3.27349e-06
2.12417e-06
1.44949e-06
9.6336e-07
1.1979e-06
1.39071e-06
1.34305e-06
1.03873e-06
9.65507e-07
3.49759e-06
3.35112e-06
2.15781e-06
1.74073e-06
9.66369e-07
1.11274e-06
1.29014e-06
1.26326e-06
1.00351e-06
1.02058e-06
3.57786e-06
3.43386e-06
2.49062e-06
2.14387e-06
1.03671e-06
1.03212e-06
1.19883e-06
1.18722e-06
9.70564e-07
1.07426e-06
3.64596e-06
3.52287e-06
2.91655e-06
2.66696e-06
1.34973e-06
9.41198e-07
1.11379e-06
1.11698e-06
9.3883e-07
1.12655e-06
3.69407e-06
3.61833e-06
3.36181e-06
3.27716e-06
2.37339e-06
7.99416e-07
1.03209e-06
1.05491e-06
9.0598e-07
1.1778e-06
0
0
0
0
0
0
0
0
0
0
0
0
0
0
0
0
0
0
0
0
0
0
0
0
0
0
0
0
0
0
0
0
0
0
0
0
0
0
0
0
0
0
0
0
0
0
0
0
0
0
0
0
0
0
0
0
0
0
0
0
0
0
0
0
0
0
0
0
0
0
0
0
0
0
0
0
0
0
0
0
0
0
0
0
0
0
0
0
0
0
0
0
0
0
0
0
0
0
0
0
0
0
0
0
0
0
0
0
0
0
0
0
0
0
0
0
0
0
0
0
0
0
0
0
0
0
0
0
0
0
0
0
0
0
0
0
0
0
0
0
0
0
0
0
0
0
0
0
0
0
0
0
0
0
0
0
0
0
0
0
0
0
0
0
0
0
0
0
0
0
0
0
0
0
0
0
0
0
0
0
0
0
0
0
0
0
0
0
0
0
3.42611e-10
0
0
0
0
0
0
0
0
0
1.34072e-09
0
0
0
0
0
0
0
0
0
4.2404e-09
0
0
0
0
0
0
0
0
0
5.21914e-09
0
0
0
0
0
0
0
0
0
5.96194e-08
0
0
0
0
0
0
0
0
0
2.42221e-07
0
0
0
0
0
0
0
0
0
1.70531e-07
0
3.71453e-09
0
0
0
0
0
0
0
1.23159e-07
0
2.75443e-08
2.9712e-09
0
0
0
0
0
0
8.24569e-08
0
8.44859e-08
5.49525e-08
0
0
0
0
0
0
5.44377e-08
5.25233e-09
1.38933e-07
1.15465e-07
0
0
0
0
0
0
5.65031e-08
4.32756e-08
1.98704e-07
1.72101e-07
0
0
0
0
0
0
5.24525e-08
8.19654e-08
2.61506e-07
2.20722e-07
2.01397e-08
0
0
0
0
5.39468e-10
7.39967e-08
1.28736e-07
3.27353e-07
2.722e-07
5.08977e-08
0
0
0
0
9.81305e-09
1.28027e-07
1.85802e-07
4.03612e-07
3.25127e-07
5.92646e-08
0
0
0
0
2.10157e-08
1.78276e-07
2.53299e-07
4.85081e-07
3.79569e-07
5.7106e-08
0
0
0
0
3.42799e-08
2.08805e-07
3.33997e-07
5.68861e-07
4.3895e-07
4.3163e-08
0
0
0
0
4.82835e-08
2.45881e-07
4.29592e-07
6.54136e-07
5.09603e-07
9.95802e-08
0
0
0
0
6.02621e-08
2.99879e-07
5.41185e-07
7.41108e-07
5.99861e-07
3.31326e-07
2.89801e-08
0
0
0
6.86603e-08
3.65714e-07
6.64658e-07
8.34961e-07
7.05535e-07
5.13714e-07
1.95481e-07
3.33898e-09
0
0
7.53018e-08
4.37965e-07
8.01944e-07
9.37111e-07
8.12796e-07
6.30244e-07
3.54579e-07
1.04891e-07
0
0
8.2851e-08
5.15939e-07
9.42812e-07
1.04796e-06
9.20521e-07
7.35878e-07
4.88498e-07
2.19138e-07
1.70953e-08
0
9.31434e-08
5.99045e-07
1.08455e-06
1.16415e-06
1.02988e-06
8.37775e-07
6.15067e-07
3.39976e-07
9.40478e-08
0
1.07574e-07
6.85887e-07
1.22686e-06
1.28417e-06
1.14174e-06
9.3979e-07
7.03091e-07
4.47593e-07
1.75441e-07
0
1.26459e-07
7.75192e-07
1.37054e-06
1.40736e-06
1.25688e-06
1.04605e-06
8.00498e-07
5.44973e-07
2.55399e-07
1.63705e-08
1.49056e-07
8.68116e-07
1.51637e-06
1.5335e-06
1.37498e-06
1.15533e-06
8.95672e-07
6.29346e-07
3.31753e-07
6.21596e-08
1.75048e-07
9.65755e-07
1.66487e-06
1.66252e-06
1.49631e-06
1.26966e-06
9.91556e-07
7.10198e-07
4.05434e-07
1.10431e-07
2.04044e-07
1.06414e-06
1.81597e-06
1.79432e-06
1.62095e-06
1.3911e-06
1.1014e-06
7.98801e-07
4.81087e-07
1.62011e-07
2.35729e-07
1.15648e-06
1.96908e-06
1.92839e-06
1.74776e-06
1.51821e-06
1.22577e-06
9.02617e-07
5.6598e-07
2.21008e-07
2.70357e-07
1.27418e-06
2.12332e-06
2.06389e-06
1.87496e-06
1.64856e-06
1.36167e-06
1.02396e-06
6.64151e-07
2.91358e-07
3.0895e-07
1.51105e-06
2.27757e-06
2.19987e-06
2.00174e-06
1.78139e-06
1.4984e-06
1.15829e-06
7.83954e-07
3.84027e-07
3.54324e-07
1.80609e-06
2.4285e-06
2.33526e-06
2.12952e-06
1.92005e-06
1.67715e-06
1.35128e-06
9.58966e-07
5.25058e-07
4.16669e-07
1.93252e-06
2.57216e-06
2.46564e-06
2.25257e-06
2.05062e-06
1.86287e-06
1.59289e-06
1.21835e-06
7.47323e-07
5.20316e-07
1.90996e-06
2.70247e-06
2.57962e-06
2.33748e-06
2.12382e-06
1.97525e-06
1.78127e-06
1.46073e-06
9.90132e-07
6.63651e-07
2.40723e-06
2.89851e-06
2.65334e-06
2.31929e-06
2.05844e-06
1.93268e-06
1.79484e-06
1.54859e-06
1.11328e-06
7.78155e-07
3.12395e-06
3.10732e-06
2.61306e-06
2.09315e-06
1.72755e-06
1.59513e-06
1.63197e-06
1.50182e-06
1.11568e-06
8.48502e-07
3.29916e-06
3.19519e-06
2.41198e-06
1.64381e-06
8.33971e-07
1.33127e-06
1.51407e-06
1.43374e-06
1.07653e-06
9.04426e-07
3.41755e-06
3.2698e-06
2.17018e-06
1.48467e-06
9.45431e-07
1.20862e-06
1.40206e-06
1.35147e-06
1.03603e-06
9.58998e-07
3.50997e-06
3.34756e-06
2.18651e-06
1.78392e-06
9.38026e-07
1.12257e-06
1.29831e-06
1.26698e-06
9.97679e-07
1.0124e-06
3.58777e-06
3.43114e-06
2.50655e-06
2.1914e-06
9.78208e-07
1.0407e-06
1.20309e-06
1.18598e-06
9.62134e-07
1.06471e-06
3.65246e-06
3.521e-06
2.92908e-06
2.70834e-06
1.23528e-06
9.48225e-07
1.11267e-06
1.11119e-06
9.28432e-07
1.11589e-06
3.69691e-06
3.61739e-06
3.36649e-06
3.29752e-06
2.22497e-06
7.9836e-07
1.0253e-06
1.04622e-06
8.94328e-07
1.16644e-06
)
;
    }
    inlet
    {
        type            calculated;
        value           uniform 0.000190513;
    }
    outlet
    {
        type            calculated;
        value           nonuniform List<scalar> 
20
(
0.0081
0.0081
0.0081
0.0081
0.0081
9.13965e-06
1.07448e-05
1.09024e-05
9.83618e-06
1.87197e-05
0.0081
0.0081
0.0081
0.0081
0.0081
9.08915e-06
1.07007e-05
1.08385e-05
9.75879e-06
1.85841e-05
)
;
    }
    heatWall
    {
        type            nutkWallFunction;
        Cmu             0.09;
        kappa           0.41;
        E               9.8;
        value           nonuniform List<scalar> 
240
(
1.08909e-06
1.08855e-06
1.07916e-06
1.07839e-06
1.06745e-06
1.0664e-06
1.05335e-06
1.05122e-06
1.03254e-06
1.03027e-06
1.00095e-06
9.99065e-07
9.6864e-07
9.6534e-07
9.35296e-07
9.29567e-07
9.19544e-07
9.14205e-07
9.33681e-07
9.31057e-07
9.61287e-07
9.60101e-07
9.95143e-07
9.94873e-07
1.03574e-06
1.03836e-06
1.0821e-06
1.08832e-06
1.12935e-06
1.13728e-06
1.16958e-06
1.17755e-06
1.20371e-06
1.20873e-06
1.22335e-06
1.2223e-06
1.23257e-06
1.23448e-06
1.25797e-06
1.26073e-06
1.31561e-06
1.31661e-06
1.3768e-06
1.37572e-06
1.41969e-06
1.4205e-06
1.38881e-06
1.38778e-06
1.35185e-06
1.34991e-06
1.35414e-06
1.3534e-06
1.39311e-06
1.39183e-06
1.45388e-06
1.4544e-06
1.52813e-06
1.53042e-06
1.60627e-06
1.60947e-06
1.67845e-06
1.67894e-06
1.70992e-06
1.7093e-06
1.74575e-06
1.74601e-06
1.78778e-06
1.78952e-06
1.83263e-06
1.83548e-06
1.87132e-06
1.87478e-06
1.89787e-06
1.90229e-06
1.9187e-06
1.924e-06
1.94235e-06
1.9487e-06
1.97558e-06
1.98244e-06
2.02298e-06
2.02984e-06
2.0856e-06
2.09195e-06
2.16099e-06
2.16636e-06
2.24791e-06
2.25204e-06
2.34518e-06
2.34772e-06
2.45192e-06
2.45237e-06
2.56883e-06
2.56686e-06
2.69894e-06
2.6946e-06
2.85164e-06
2.84495e-06
3.05906e-06
3.05181e-06
3.40057e-06
3.39635e-06
3.87535e-06
3.87396e-06
4.25842e-06
4.25635e-06
4.49954e-06
4.49159e-06
4.69405e-06
4.67876e-06
4.88336e-06
4.86154e-06
5.06799e-06
5.04056e-06
5.24806e-06
5.216e-06
5.4236e-06
5.3878e-06
5.59578e-06
5.55758e-06
1.08835e-06
1.08858e-06
1.07666e-06
1.07571e-06
1.06318e-06
1.06213e-06
1.04942e-06
1.05001e-06
1.03449e-06
1.03631e-06
9.92413e-07
9.97207e-07
9.48528e-07
9.50764e-07
9.39055e-07
9.40458e-07
1.0062e-06
1.00449e-06
1.09797e-06
1.09443e-06
1.18463e-06
1.18141e-06
1.26672e-06
1.264e-06
1.3432e-06
1.34062e-06
1.41881e-06
1.41614e-06
1.48637e-06
1.48435e-06
1.52324e-06
1.52191e-06
1.56229e-06
1.56042e-06
1.60547e-06
1.60427e-06
1.66229e-06
1.66173e-06
1.67279e-06
1.67586e-06
1.67433e-06
1.679e-06
1.68853e-06
1.68846e-06
1.69109e-06
1.69164e-06
1.88168e-06
1.87044e-06
2.51008e-06
2.47342e-06
2.26061e-06
2.23698e-06
2.0981e-06
2.08094e-06
1.95442e-06
1.94703e-06
1.8373e-06
1.85494e-06
1.8882e-06
1.86189e-06
1.8772e-06
1.84872e-06
1.97916e-06
1.91969e-06
2.16222e-06
2.09771e-06
2.30937e-06
2.26355e-06
2.40086e-06
2.36452e-06
2.51451e-06
2.48718e-06
2.67761e-06
2.66592e-06
2.88648e-06
2.88409e-06
3.11834e-06
3.12389e-06
3.37306e-06
3.3831e-06
3.64768e-06
3.65981e-06
3.93517e-06
3.94941e-06
4.23214e-06
4.24766e-06
4.54057e-06
4.55844e-06
4.86353e-06
4.88545e-06
5.18631e-06
5.2154e-06
5.49152e-06
5.52545e-06
5.90423e-06
5.92115e-06
6.71856e-06
6.71908e-06
7.69338e-06
7.71555e-06
8.07987e-06
8.14335e-06
8.00717e-06
8.06699e-06
9.99672e-06
9.75325e-06
1.21698e-05
1.21932e-05
1.27493e-05
1.27911e-05
1.31491e-05
1.31954e-05
1.34689e-05
1.35112e-05
1.37432e-05
1.37771e-05
1.3976e-05
1.39983e-05
1.41406e-05
1.41503e-05
)
;
    }
}


// ************************************************************************* //
