/*--------------------------------*- C++ -*----------------------------------*\
  =========                 |
  \\      /  F ield         | OpenFOAM: The Open Source CFD Toolbox
   \\    /   O peration     | Website:  https://openfoam.org
    \\  /    A nd           | Version:  8
     \\/     M anipulation  |
\*---------------------------------------------------------------------------*/
FoamFile
{
    version     2.0;
    format      ascii;
    class       volScalarField;
    location    "300";
    object      p_rgh;
}
// * * * * * * * * * * * * * * * * * * * * * * * * * * * * * * * * * * * * * //

dimensions      [1 -1 -2 0 0 0 0];

internalField   nonuniform List<scalar> 
1200
(
11080.6
11080.6
11080.6
11080.8
11081.3
11083.1
11083
11084.1
11083.9
11081.2
11078.2
11073.4
11071.6
11070.2
11067.3
11064.4
11059.1
11053.8
11046.2
11037.6
11028
11021.1
11013.9
11010.9
10996.5
10971.5
10943.9
10898
10871.7
10853.7
10825.2
10811.2
10791.6
10763.2
10732.2
10699.7
10655.4
10593.6
10514.2
10410
10279.2
10123.9
9943.34
9737.04
9500.92
9224.74
8923.39
8603.6
8101.24
6720.92
4362.56
2988.68
3062.82
1319.99
-891.574
-1636.25
-1531.66
-1090.3
-776.696
-180.537
11080.4
11080.5
11080.6
11080.7
11081.2
11083
11083
11084.3
11084.2
11079.6
11075.7
11071.9
11071.8
11071.2
11068.2
11065.3
11060.3
11054.7
11047.2
11038.3
11028.5
11021.9
11014.7
11011.6
10997
10973.9
10947.4
10902.2
10870.8
10851.4
10824.4
10809.8
10789.7
10761.2
10730.6
10698.7
10655.7
10595.2
10517.7
10414.1
10283.7
10128.7
9948.14
9742.07
9506.45
9231.17
8926.93
8610.9
8148.71
6917
4610.96
2882.59
2728.61
756.475
-1256.76
-1850.67
-1624.37
-1158.53
-911.502
-1648.04
11080.5
11080.5
11080.6
11080.8
11081.2
11083.5
11083.3
11082.6
11079
11072.8
11072.1
11071.4
11071.2
11070.5
11066.9
11064.2
11059.1
11054.1
11046.5
11036.8
11027
11021.8
11016.8
11015.6
10999.8
10974.2
10946.4
10906.7
10874.6
10851.4
10827.3
10809.3
10786.4
10756.8
10726.2
10695.8
10655.7
10594.5
10515.4
10411.5
10280.7
10126
9944.54
9737.24
9501.61
9228.07
8913.69
8556.97
8092.22
7193.36
5633.74
3863.95
1937.64
-805.985
-2286.27
-2384.07
-1665.85
-901.37
-284.117
-166.371
11080.4
11080.5
11080.5
11080.6
11080.8
11081.3
11081.4
11081.4
11077
11070.6
11070.6
11070.1
11070.2
11069.3
11066.4
11063.7
11059.1
11053.7
11045.8
11036.5
11027.2
11022.5
11019.1
11014.5
10998.9
10975.4
10945.9
10906.6
10872.5
10848.9
10827.1
10805.7
10779.4
10748.3
10717.3
10690.9
10659.5
10602.6
10523.4
10416.8
10283.4
10127.9
9944.76
9736.09
9500.71
9230.65
8917.25
8543.03
8070
7338.7
6194.93
4416.32
1447.91
-1683.87
-2512.39
-2268.67
-1633.68
-1015.18
-500.357
-266.615
11080.4
11080.4
11080.4
11080.5
11080.5
11080.3
11079.4
11078.8
11075.9
11070.8
11070.3
11068.7
11067.8
11067.1
11065
11062.6
11058.7
11054.1
11046.1
11036.3
11026.6
11021.9
11019.6
11014.7
10998.7
10975.5
10944.3
10903.9
10867.8
10848.3
10831.5
10807.9
10779.1
10746.4
10715.9
10695
10664.9
10604.4
10523.9
10415.6
10281
10125.9
9941.38
9732.14
9497.18
9229.1
8919.48
8547.95
8101.29
7485.02
6504.87
4615.23
1197.7
-1937.36
-2568.33
-2251.95
-1577.17
-920.509
-370.902
7.19811
11080.4
11080.4
11080.3
11080.2
11080.1
11079.7
11078.6
11077.7
11074.6
11070.6
11069.5
11068.4
11067.1
11065.9
11064
11061.6
11057.9
11054.5
11047.6
11038.2
11028.2
11023
11021.9
11017.1
11000.7
10976.9
10945.2
10905.3
10870.3
10849.3
10831.9
10807.5
10778.1
10746.8
10718
10694.2
10663
10605.6
10523.9
10415.4
10279.1
10123.8
9938.2
9729.09
9494.12
9225.58
8915.89
8543.32
8100.55
7523.52
6598.79
4675.42
1208.7
-1835.22
-2568.82
-2242.42
-1584.55
-938.53
-382.51
-11.8378
11080.3
11080.3
11080.2
11080.1
11079.8
11079.3
11078
11076.5
11073.7
11070.1
11068.7
11067.5
11066.3
11065.2
11062.7
11059.3
11056.3
11054.3
11048.2
11039.1
11029.8
11024.6
11022.6
11019.3
11003.1
10979.2
10947.2
10907.8
10874.2
10853.2
10834.2
10808.3
10778.6
10747.9
10719.5
10694.6
10661
10602.8
10520.7
10413.3
10278.9
10121.9
9936.72
9728.06
9492.58
9223.47
8912.61
8540.81
8098.5
7499.89
6566.53
4684.32
1393.83
-1611.81
-2437.47
-2160.78
-1546.13
-923.949
-385.832
-28.0203
11080.3
11080.3
11080.2
11080
11079.7
11079.1
11077.7
11075.9
11073
11069.6
11067.9
11066.6
11065.4
11064
11061.5
11058.5
11055.4
11052.6
11047.1
11039.2
11030.9
11024.9
11021.8
11018.2
11004.6
10981.5
10950.3
10911.8
10878.7
10856.4
10836.2
10809.6
10779.9
10749.7
10721.5
10694.5
10658.9
10601.2
10519.3
10412.9
10279.8
10122.5
9938.38
9729.83
9493.86
9224.18
8911.87
8538.88
8087.4
7474.55
6495.62
4665.33
1584.81
-1261.29
-2207.19
-2032.23
-1486.33
-908.65
-404.989
-85.8503
11080.3
11080.2
11080.1
11080
11079.6
11078.9
11077.6
11075.6
11072.7
11069.4
11067.4
11065.9
11064.6
11063
11060.5
11057.3
11054.2
11051.2
11045.8
11038.1
11029.8
11023.6
11019.8
11015.1
11002.4
10981.6
10952.2
10914.8
10881.9
10858.3
10836.9
10809.9
10780.1
10750.1
10721.6
10693.2
10656.5
10599.5
10518.4
10413.3
10281.7
10124.7
9941.56
9732.97
9496.31
9225.71
8912.02
8536.76
8075.37
7442.85
6445.78
4657.87
1769.09
-927.215
-1985.18
-1912.6
-1435.33
-900.987
-427.676
-137.517
11080.5
11080.3
11080.2
11080
11079.6
11078.9
11077.6
11075.6
11072.7
11069.4
11067.2
11065.7
11064.2
11062.5
11059.9
11056.8
11053.6
11050.3
11044.8
11037.2
11029.1
11022.9
11018.4
11013.1
11000.9
10980.7
10952.7
10915.8
10882.9
10858.6
10836.5
10809.6
10779.7
10749.7
10721
10691.7
10654.3
10597.9
10517.9
10414
10283.8
10127.6
9945.38
9737.1
9500.29
9229.37
8915.06
8538.53
8072.3
7431.99
6434.31
4691.49
1920.68
-699.5
-1831.44
-1831.55
-1401.14
-894.724
-440.551
-169.64
11080.6
11080.6
11080.7
11080.8
11081.3
11083.2
11083.1
11083.9
11083.8
11081.1
11078.3
11073.4
11071.5
11070.2
11067.3
11064.3
11059.1
11053.8
11046.2
11037.3
11027.8
11020.6
11013.9
11010.5
10996.1
10971.6
10943.9
10898.6
10871.9
10853.6
10825.4
10811.4
10791.8
10763.3
10732.2
10699.8
10655.6
10593.9
10514.5
10410.4
10279.8
10124.7
9944.48
9738.48
9502.87
9226.38
8926.51
8605.8
8103.98
6727.68
4349.79
2953.02
3063.75
1350.67
-881.846
-1625.88
-1514.27
-1076.67
-746.755
-220.218
11080.4
11080.5
11080.6
11080.8
11081.2
11083
11083
11083.6
11083.2
11078.7
11074.9
11071
11070.9
11070.2
11067.3
11064.3
11059.2
11053.4
11045.8
11036.9
11027.3
11020.7
11014.5
11011.5
10996.6
10973.9
10947.3
10902.9
10871
10851.1
10824.4
10809.8
10789.7
10761
10730.5
10698.8
10656
10595.5
10517.7
10414
10283.6
10128.7
9948.3
9742.46
9507.25
9231.53
8927.74
8607.05
8141.17
6926.14
4633.84
2866.67
2709.78
749.128
-1271.47
-1858.27
-1623.13
-1154.61
-901.603
-1632.74
11080.4
11080.5
11080.6
11080.8
11081.1
11083.3
11083.1
11082.2
11078.7
11072.7
11071.7
11070.9
11070.8
11070.1
11066.5
11063.8
11058.5
11053.6
11045.9
11036.3
11026.5
11021.5
11016.9
11015.5
10999.5
10974.4
10946.9
10907.6
10875.5
10851.8
10827.7
10809.8
10786.8
10757
10726.3
10696.1
10656.1
10595.4
10516.9
10413.2
10282.3
10127.4
9945.96
9738.87
9503.37
9230.31
8917.69
8559.38
8086.48
7176.84
5609.44
3862.36
1978.81
-761.138
-2260.43
-2379.59
-1683.37
-924.213
-325.632
-234.106
11080.4
11080.5
11080.5
11080.7
11080.7
11081.1
11081
11080.9
11077.2
11071.1
11070.6
11070.3
11070.4
11069.7
11066.9
11064.2
11059.4
11054
11046.2
11037
11027.7
11023
11019.4
11015
10999.9
10976.2
10946.9
10907.5
10874.1
10850.5
10828.2
10806.7
10780.1
10748.6
10717.9
10691.9
10660.1
10603.3
10524.6
10418.4
10284.8
10128.8
9945.8
9737.47
9501.87
9231.85
8919.33
8545.86
8073.85
7341.81
6192.74
4420.32
1465.86
-1668.75
-2511.68
-2272.27
-1636.42
-1014.75
-494.686
-263.178
11080.4
11080.4
11080.5
11080.5
11080.5
11080.2
11079.4
11078.7
11076
11071.2
11070.6
11069.1
11068.1
11067.4
11065.4
11063.1
11059.2
11055
11047
11037.3
11027.6
11023.4
11020.4
11015.9
10999.7
10976.4
10945.6
10904.9
10869.3
10850.2
10832.8
10809.1
10780.3
10747
10716.3
10695.7
10666.1
10605.8
10525.5
10417.7
10282.8
10126.9
9942.52
9733.61
9498.29
9230
8920.39
8549.71
8105.56
7487.96
6506.52
4622.7
1207.62
-1932.82
-2572.59
-2248.09
-1573.46
-916.741
-369.908
22.9878
11080.4
11080.4
11080.4
11080.3
11080.1
11079.6
11078.5
11077.6
11074.8
11070.7
11069.6
11068.6
11067.3
11066.2
11064.3
11062
11058.3
11054.9
11048.1
11039
11029.2
11024.1
11022.5
11018.2
11001.7
10978
10946.5
10906
10871.1
10850.4
10832.6
10808.1
10778.7
10747.2
10718.4
10694.6
10663.3
10606.6
10525.4
10417.4
10281
10124.9
9939.34
9730.45
9495.17
9226.66
8916.92
8545.55
8111.13
7526.56
6596.97
4681.35
1214.09
-1831.27
-2567.05
-2242.79
-1584.95
-939.104
-384.435
-10.306
11080.3
11080.3
11080.3
11080.1
11079.8
11079.3
11078
11076.5
11073.7
11070.1
11068.8
11067.6
11066.4
11065.3
11062.7
11059.3
11056.4
11054.6
11048.4
11039.3
11030
11025
11022.8
11020.3
11003.9
10980.1
10948.3
10908.2
10874.6
10853.8
10834.4
10808.5
10778.9
10747.9
10719.3
10694.3
10660.7
10602.7
10520.9
10414
10280.2
10122.9
9937.84
9729.34
9493.68
9224.69
8913.92
8542.07
8104.06
7507.12
6564.03
4688.49
1399.95
-1608.07
-2437.53
-2161.5
-1545.41
-922.677
-384.566
-24.1864
11080.3
11080.3
11080.2
11080
11079.7
11079.1
11077.8
11076
11073.1
11069.6
11067.9
11066.7
11065.5
11064.1
11061.6
11058.5
11055.4
11052.5
11047.1
11039.2
11031
11025
11021.6
11018.5
11005.3
10982.1
10951
10911.9
10878.7
10856.7
10836.2
10809.6
10779.9
10749.5
10721.1
10694.1
10658.5
10600.8
10519.1
10412.9
10280.1
10123
9939.2
9731.01
9495.21
9225.79
8913.57
8540.57
8091.47
7480.45
6497.48
4670.83
1593.1
-1256.94
-2205.33
-2031.37
-1484.78
-906.553
-402.66
-85.857
11080.3
11080.2
11080.2
11079.9
11079.6
11079
11077.6
11075.7
11072.8
11069.5
11067.5
11066
11064.7
11063.1
11060.5
11057.3
11054.1
11051.1
11045.7
11038
11029.8
11023.6
11019.5
11014.9
11002.4
10981.8
10952.5
10914.5
10881.8
10858.5
10836.9
10809.9
10780.2
10750.1
10721.3
10693
10656.2
10599.1
10518
10413.1
10281.6
10124.6
9941.72
9733.51
9497.23
9226.97
8913.23
8537.97
8078.55
7446.72
6449.51
4663.62
1776.15
-920.91
-1979.77
-1908.75
-1431.78
-896.984
-422.523
-137.515
11080.4
11080.3
11080.2
11080
11079.6
11078.9
11077.7
11075.7
11072.7
11069.4
11067.3
11065.7
11064.3
11062.5
11059.9
11056.7
11053.4
11050.1
11044.6
11037
11029
11022.8
11018.2
11012.8
11000.7
10980.7
10952.6
10915.2
10882.4
10858.2
10836.1
10809.3
10779.5
10749.4
10720.5
10691.3
10653.9
10597.4
10517.3
10413.5
10283.4
10127.2
9945.07
9737.15
9500.75
9230.16
8915.73
8539.14
8074.76
7435.97
6439.52
4697.51
1926.22
-693.503
-1826.02
-1828.27
-1398.17
-890.82
-434.515
-171.1
)
;

boundaryField
{
    wall
    {
        type            fixedFluxPressure;
        gradient        nonuniform List<scalar> 
1200
(
-1.38735
0.763367
2.88785
1.18902
-0.450859
-0.621286
0.65078
2.03105
0.918278
0.830425
-0.673208
-0.948742
-1.58375
-4.68781
-5.69616
-3.94253
-1.71932
-0.639248
-1.58862
-2.79188
-4.64466
-3.26534
-2.8767
-6.78112
-10.5819
-9.46127
-5.21854
-2.84596
-0.869187
-0.068486
-6.12612
-5.82586
-0.929505
-5.26621
-11.2324
-10.2542
-3.58699
0.716566
4.03959
5.83063
-9.80646
-3.91895
18.6235
5.26668
-2.20407
-9.42403
-6.88116
-4.60761
-2.18055
-2.91022
-8.20906
6.76582
47.4311
32.8858
20.3065
6.46761
-1.21116
-4.86096
-3.95372
-4.00601
-6.43309
4.57349
27.0378
58.7629
-1.61878
4.22376
-5.15736
-6.6445
-4.72531
-2.56771
33.037
134.541
70.1428
101.208
17.178
11.6662
-6.87107
-12.3083
-18.3407
-17.4124
5.01476
202.942
59.5803
-27.5265
-16.2479
-32.4863
-17.7625
-15.3742
-17.0804
-9.7928
7.19646
193.827
24.462
-80.9967
-67.2859
-33.7584
-10.0356
-11.1427
-15.7806
-7.7306
-28.3276
157.915
99.6938
8.74593
-58.6342
-21.2502
-14.4678
-16.021
-15.6239
-5.52281
7.49058
181.03
105.887
-29.9569
-69.793
-32.9866
-26.8784
-17.7477
-17.346
-5.23753
7.17404
179.33
85.6186
-26.2808
-53.1976
-45.6653
-26.6261
-19.4254
-24.016
-6.71645
8.87317
188.938
80.67
-73.7609
-69.4366
-50.8455
-29.2793
-22.4498
-25.1718
-4.1205
1.81975
198.385
84.5545
-95.7887
-77.9769
-62.3715
-15.1094
-12.1259
-8.56373
10.7691
0.350281
197.936
87.7328
-82.6243
-90.5618
-88.0797
2.00481
-3.70027
9.88159
24.0384
1.21247
203.61
123.883
-64.9554
-107.832
-66.5008
-23.1405
12.9546
17.8369
32.8628
8.75188
265.923
98.383
-48.7883
-169.351
-77.4423
-52.5947
23.1865
23.3533
41.6749
10.6103
295.732
122.286
-71.9857
-188.522
-113.224
-52.4683
13.2767
22.4645
37.7442
46.6799
268.693
112.057
-93.0746
-199.007
-159.624
-40.5094
-2.45944
21.7323
37.6003
40.4457
237.68
115.276
-99.6998
-183.257
-204.584
-37.1011
-24.9357
11.8237
25.9479
109.539
239.267
77.3908
-102.183
-306.424
-207.125
-74.2868
-22.0028
5.10072
14.8698
16.906
46.7075
-8.60181
-77.2878
-148.79
-116.046
-37.6763
40.8065
50.7961
42.9299
74.4237
32.2793
17.1494
-107.993
-253.498
-199.801
-192.073
-58.9918
46.5169
56.7487
82.2468
79.2205
60.8753
-198.39
-212.753
-200.808
-161.266
-124.922
6.71718
45.1689
-6.8895
8.65522
-44.2238
-158.591
-193.095
-211.309
-186.49
-123.829
-36.0827
2.62249
0.795523
22.8348
-112.863
-192.795
-262.77
-246.011
-208.179
-136.955
-39.4605
19.1982
-115.614
-144.845
-199.897
-176.96
-219.088
-142.006
-71.3421
-8.64371
49.9994
110.972
-42.5265
-44.8118
-203.953
-301.184
-327.338
-151.042
-77.2748
-8.75998
22.7444
102.393
22.706
63.919
-74.5572
-316.869
-376.45
-210.541
-104.479
-52.3216
-22.392
70.2114
-43.9564
4.76818
-82.6109
-227.569
-240.096
-132.27
-17.5019
11.1525
13.659
74.7948
-32.2763
-2.18193
-115.687
-191.516
-217.555
-130.27
-28.0254
8.86092
3.56687
52.5037
-41.93
8.45428
-97.438
-140.57
-213.437
-117.78
-36.663
10.3053
-9.28452
32.6612
-18.8501
49.5577
-37.3444
-61.3027
-102.512
-65.7794
9.1829
47.7625
14.2589
50.1109
-7.02562
34.8245
-29.1852
-116.517
-58.9112
-70.1352
58.2285
82.9492
49.8266
82.4742
-18.5161
-20.9713
-54.0681
-195.397
-121.124
-86.0465
51.4491
75.6321
52.5896
83.0163
-44.3695
-56.5975
-76.8586
-121.473
-208.329
-67.958
56.9117
90.2547
64.0164
79.7552
-55.9102
-45.4051
-176.638
-145.251
-285.394
-188.961
22.2965
88.3584
84.5051
103.507
-54.4005
0.835223
-285.563
-236.498
-335.287
-290.072
-37.6457
62.2153
87.3217
115.323
-71.8114
17.7003
-346.153
-330.343
-417.686
-395.741
-141.502
6.3512
66.4037
103.52
-113.426
15.9034
-326.227
-282.847
-364.48
-396.222
-237.964
-55.7775
39.716
93.694
-156.603
12.1519
-272.984
-182.452
-209.703
-233.874
-208.794
-89.8679
23.2779
87.4065
-223.794
-27.3948
-277.778
-205.847
-227.379
-228.605
-228.93
-153.568
-18.964
63.4838
-281.412
-72.5898
-316.775
-272.313
-294.249
-274.958
-258.629
-229.124
-96.5006
-7.69914
-386.016
-158.177
-342.262
-230.218
-218.718
-213.163
-225.191
-266.834
-171.123
-88.8243
-318.706
-68.2296
-443.467
-239.765
-179.285
-217.658
-245.468
-323.088
-242.702
-154.607
-619.686
-152.852
-792.09
-420.872
-188.475
-206.463
-260.964
-340.877
-230.576
-127.186
-429.331
785.911
-444.68
-567.26
-366.19
-457.535
-246.721
-337.37
-230.655
-114.476
-543.049
1433.43
1204.05
-770.073
-860.113
-2132.11
-1106.19
-817.7
-628.16
-480.489
-1295.52
-2053.45
3272.84
-629.808
-616.207
-629.36
-1469.15
-1196.29
-775.299
-783.861
2683.34
-4513.64
4598.63
407.561
-352.489
354.76
487.147
-403.689
-759.343
-1031.42
6876.44
3518.33
-227.844
-891.963
-1504.24
-1180.9
-783.238
-1080.27
-1139.65
-1162.05
-730.064
3327.94
-8514.99
-3523.13
-2044.53
-1052.41
-1139.39
-1560.18
-1351.43
-1057.89
-5981.03
1763.15
-8847.26
-2755.79
-789.754
-755.111
-680.907
-839.163
-1254.41
-1192.16
-1738.25
3042.41
-4885.79
-73.0634
846.772
-334.451
-17.6827
-377.671
-1079.4
-1064.13
-2005.44
1437.52
-390.906
676.078
-874.842
64.8958
103.428
-171.726
-759.786
-626.694
-3412.87
-305.673
3539.23
546.507
-762.873
83.2247
-164.247
-308.012
-705.493
-568.803
-2620.18
-804.553
4371.85
-25.1225
-762.134
117.719
-269.686
-422.338
-799.451
-765.27
-5751.12
-1973.71
7980.94
-1051.02
-184.893
368.532
-265.461
-470.774
-1026.55
-1194.46
8074.23
-3109.25
13243.2
-505.586
-3113.23
-254.503
-757.622
1.05994
-2.85192
286.272
1.38732
-0.76348
-2.88792
-1.18891
0.450889
0.621215
-0.65087
-2.03108
-0.918224
-0.830421
0.670521
0.949338
1.58618
4.68823
5.6937
3.94004
1.71979
0.641327
1.58914
2.79238
4.6407
3.26792
2.88396
6.77049
10.5549
9.45042
5.2248
2.85485
0.868856
0.0672968
6.12665
5.83662
0.953803
5.22026
11.1472
10.2073
3.6077
-0.69077
-4.03878
-5.83333
9.79675
3.91409
-18.5638
-5.32911
2.06858
9.32483
6.87229
4.6325
2.19095
2.92133
8.06865
-6.87426
-47.7286
-33.1833
-20.3924
-6.53222
1.12361
4.87504
3.96341
4.01793
6.24707
-4.49758
-27.1248
-59.0133
1.55244
-4.19493
5.15843
6.61692
4.72462
2.57042
-32.9766
-134.871
-69.9844
-100.94
-17.1759
-11.675
6.87726
12.3187
18.3197
17.4102
-4.85066
-202.885
-59.1272
27.9595
16.4636
32.5474
17.7698
15.3753
17.0876
9.76601
-7.01473
-192.719
-24.3365
81.155
67.3617
33.7932
10.0446
11.1293
15.8642
7.82146
28.5606
-156.857
-99.9879
-8.77994
58.1334
20.4844
14.4838
15.9983
15.8317
5.6855
-7.3222
-180.391
-105.763
30.0422
67.5734
32.8676
26.2109
17.6846
17.8104
5.47138
-7.10485
-178.921
-85.5411
26.3653
53.2052
41.9415
26.4453
19.3994
24.4653
6.9585
-8.84353
-188.91
-80.5632
74.0361
69.48
49.0502
28.5702
22.1136
25.3005
4.33763
-1.81186
-198.624
-84.379
96.2031
78.0817
61.6201
13.702
11.6124
8.55269
-10.5855
-0.327615
-198.378
-87.5152
83.0319
90.9598
87.0796
-1.95247
3.58149
-9.76617
-23.9128
-1.17601
-203.948
-123.661
65.3343
108.407
66.4825
24.1351
-12.9142
-17.5315
-32.7855
-8.63839
-266.314
-98.5556
48.9936
169.965
78.0344
51.2753
-23.8522
-23.0907
-41.6079
-10.4663
-295.032
-122.02
71.9886
188.98
113.893
50.5938
-14.7668
-22.4948
-37.7139
-46.43
-267.699
-111.4
92.9377
199.192
160.308
40.3637
0.286168
-22.0303
-37.6134
-40.1437
-236.745
-115.118
99.5757
183.341
205.096
37.5214
22.9251
-12.4358
-25.9401
-109.341
-238.601
-77.7548
100.733
306.443
207.433
74.8391
19.9519
-5.96822
-14.8639
-16.7937
-46.3573
8.32817
75.7265
148.737
116.326
38.2387
-42.3318
-51.8046
-42.935
-74.1889
-31.8542
-18.4269
106.642
253.643
203.127
195.924
60.2673
-46.6434
-56.7385
-81.6122
-78.8215
-61.7163
198.259
215.235
204.179
167.932
129.497
-5.25363
-45.0437
7.22793
-8.72323
44.1513
158.72
191.746
212.74
192.033
129.148
38.2603
-2.33131
-0.625403
-23.7361
113.211
192.795
257
243.648
211.183
141.461
42.4269
-19.0381
115.661
145.47
201.966
177.274
209.705
135.465
71.7569
11.7001
-45.8499
-111.699
42.3852
43.6121
208.611
301.533
315.44
138.192
78.7141
12.0254
-17.4867
-100.833
-23.0337
-65.9796
81.2026
317.335
370.444
199.254
108.144
56.9036
28.5936
-67.2762
43.937
-7.23402
90.5186
232.724
239.289
126.329
22.2012
-5.45243
-6.55201
-70.9541
32.1023
0.471937
124.085
199.128
217.341
122.285
31.856
-2.34622
4.04503
-48.2035
41.7557
-8.66839
105.809
149.686
213.08
107.472
39.8784
-3.72522
16.8246
-27.9737
18.7999
-47.6814
45.6163
71.2966
102.182
58.5535
-5.71909
-41.2313
-7.21506
-44.8775
7.00605
-30.4516
38.1124
126.578
58.5906
66.5536
-54.2546
-76.3819
-43.3202
-77.3807
18.753
27.7408
64.1678
206.388
120.847
83.5248
-47.794
-68.9363
-46.3594
-78.7066
45.1359
65.4274
88.7929
133.439
208.43
59.2777
-56.1772
-83.786
-57.6572
-76.059
57.0144
55.7547
191.43
158.251
288.283
185.042
-26.5136
-83.1154
-77.8771
-100.083
55.6104
11.2362
303.68
250.703
342.075
286.776
27.4472
-59.2321
-80.5473
-112.252
73.184
-3.88084
367.437
345.477
425.638
392.816
126.73
-5.95193
-59.7101
-100.678
114.938
-0.433817
350.621
299.512
373.418
394.443
231.358
52.7777
-33.5092
-91.1379
158.166
5.21262
300.716
201.331
220.262
235.327
200.168
84.2018
-18.2325
-85.1081
225.372
47.5554
309.295
226.99
239.21
230.718
220.264
147.884
22.6011
-61.2529
283.047
97.1259
353.026
296.223
307.318
277.656
256.34
222.305
98.829
9.94327
387.822
188.638
384.591
257.932
233.997
216.542
225.166
258.815
172.127
91.2975
320.754
107.138
493.489
271.656
197.144
221.942
245.938
314.551
242.102
157.332
621.739
200.377
853.554
457.022
208.072
212.051
261.827
332.523
228.085
130.049
431.663
-735.518
528.058
609.102
386.506
462.783
247.078
329.948
226.402
117.384
548.081
-1410.9
-1095.48
815.373
879.525
2134.27
1093.23
799.526
619.455
483.207
1300.14
2045.01
-3170.56
678.621
637.374
634.817
1456.24
1178.92
764.132
786.389
-2684.23
4539.52
-4546.29
-359.145
379.712
-346.237
-487.76
391.713
752.773
1034.92
-6877.46
-3438.88
254.024
944.252
1539.01
1193.13
785.381
1079.96
1138.39
1168.11
706.018
-3155.46
8556.27
3608.54
2098.66
1080.25
1138.21
1559.57
1351.32
1068.03
6032.57
-1682.47
8839.61
2894.41
852.54
768.781
679.491
838.485
1250.45
1203.05
1852.33
-3036.38
4945.98
141.92
-842.339
334.179
17.1024
377.179
1071.55
1072.91
2153.37
-1437.48
535.602
-632.771
874.734
-60.0094
-102.892
171.154
748.195
635.047
3575
303.42
-3272.34
-488.351
762.612
-75.4675
165.603
305.565
694.211
579.215
2757.37
803.203
-4074.48
102.08
761.75
-111.133
269.963
416.269
790.211
777.42
5862.6
1972.2
-7759.81
1112.96
186.111
-361.616
263.766
461.279
1018.51
1205.29
-8062.97
3110.2
-13212.2
509.503
3115.17
256.995
745.726
-13.7722
-5.69905
-279.818
)
;
        value           nonuniform List<scalar> 
1200
(
11080.6
11080.4
11080.5
11080.4
11080.4
11080.4
11080.3
11080.3
11080.3
11080.5
11080.6
11080.5
11080.5
11080.4
11080.4
11080.4
11080.3
11080.3
11080.2
11080.3
11080.6
11080.6
11080.6
11080.5
11080.4
11080.3
11080.2
11080.2
11080.1
11080.2
11080.8
11080.7
11080.8
11080.6
11080.4
11080.2
11080.1
11080
11080
11080
11081.2
11081.2
11081.2
11080.8
11080.4
11080
11079.8
11079.6
11079.6
11079.6
11083.1
11083.1
11083.7
11081.4
11080.3
11079.7
11079.3
11079.1
11078.9
11078.9
11083
11083
11083.4
11081.5
11079.4
11078.6
11078
11077.7
11077.6
11077.6
11084.2
11084.6
11082.7
11081.6
11078.8
11077.7
11076.5
11075.9
11075.6
11075.6
11083.9
11084.7
11079.1
11077
11075.9
11074.5
11073.6
11072.9
11072.7
11072.6
11081.2
11080.1
11072.9
11070.4
11070.7
11070.5
11070
11069.5
11069.3
11069.3
11078.1
11076.1
11072.4
11070.6
11070.2
11069.4
11068.7
11067.8
11067.3
11067.2
11073.4
11072.3
11071.7
11070.1
11068.6
11068.3
11067.5
11066.6
11065.9
11065.7
11071.6
11072.2
11071.5
11070.2
11067.7
11067
11066.2
11065.4
11064.5
11064.2
11070.3
11071.6
11070.7
11069.1
11066.9
11065.8
11065.1
11064
11062.9
11062.5
11067.3
11068.7
11067.1
11066.2
11064.8
11063.8
11062.6
11061.5
11060.5
11059.9
11064.4
11065.8
11064.4
11063.5
11062.4
11061.4
11059.3
11058.5
11057.4
11056.8
11059.1
11060.8
11059.4
11058.9
11058.4
11057.8
11056.3
11055.5
11054.2
11053.7
11053.8
11055.4
11054.4
11053.6
11053.7
11054.3
11054.2
11052.7
11051.2
11050.4
11046.2
11048
11046.8
11045.6
11045.6
11047.3
11048
11047.1
11045.8
11044.9
11037.7
11038.9
11037.1
11036.3
11035.8
11037.8
11039
11039.2
11038.1
11037.3
11028.1
11029.1
11027.3
11026.9
11026.2
11027.7
11029.7
11030.8
11029.8
11029.2
11021.4
11022.5
11022
11022.2
11021.1
11022.5
11024.4
11024.8
11023.6
11022.9
11014
11014.8
11016.8
11018.9
11019.3
11021.6
11022.5
11021.9
11019.9
11018.5
11011
11011.7
11015.6
11014.2
11014
11016.6
11018.8
11018.1
11015.2
11013.3
10996.7
10997.2
11000
10998.4
10998.1
11000.2
11002.7
11004.3
11002.5
11001
10971.5
10973.9
10974.1
10975
10975
10976.4
10978.7
10981.2
10981.5
10980.7
10943.9
10947.5
10946.1
10945.4
10943.6
10944.6
10946.7
10950
10952.1
10952.8
10897.7
10901.8
10906.1
10906.1
10903.3
10905
10907.6
10911.8
10914.9
10916.1
10871.5
10870.7
10874
10871.8
10866.9
10870
10874
10878.6
10881.9
10883.2
10853.8
10851.6
10851.3
10848.1
10847.4
10848.8
10853
10856.3
10858.3
10858.8
10825.1
10824.5
10827.1
10826.5
10831
10831.6
10834.2
10836.2
10836.9
10836.7
10811.1
10809.8
10809
10805.3
10807.4
10807.1
10808.3
10809.7
10809.9
10809.7
10791.5
10789.8
10786.1
10779
10778.6
10777.8
10778.5
10779.9
10780.1
10779.8
10763.2
10761.3
10756.7
10748.2
10746.2
10746.7
10747.9
10749.8
10750.1
10749.8
10732.1
10730.7
10726.1
10717
10715.8
10717.9
10719.7
10721.7
10721.7
10721.2
10699.7
10698.7
10695.7
10690.4
10694.7
10694
10694.7
10694.7
10693.3
10691.9
10655.3
10655.6
10655.5
10659.1
10664.5
10662.8
10661.1
10659.2
10656.6
10654.5
10593.4
10595.1
10594
10602.2
10603.7
10605.2
10602.8
10601.4
10599.7
10598.2
10514.1
10517.7
10514.7
10522.8
10523
10523.2
10520.6
10519.5
10518.6
10518.2
10409.8
10414.1
10410.6
10415.9
10414.5
10414.4
10412.9
10412.9
10413.5
10414.3
10279
10283.7
10279.9
10282.7
10280.1
10278.1
10278.4
10279.7
10281.9
10284.1
10123.5
10128.7
10125.3
10127.4
10125.4
10123.2
10121.4
10122.3
10124.8
10127.8
9942.79
9948.08
9943.86
9944.26
9940.82
9937.64
9936.16
9938.03
9941.53
9945.54
9736.36
9741.9
9736.47
9735.43
9731.41
9728.4
9727.43
9729.29
9732.75
9737.08
9499.97
9506.06
9500.78
9500.15
9496.65
9493.59
9492.02
9493.22
9495.9
9500.07
9223.98
9231.02
9226.97
9230.06
9228.66
9225.04
9222.87
9223.4
9225.12
9228.98
8921.87
8926.58
8911.74
8916.2
8919.01
8915.37
8911.97
8911.05
8911.47
8914.74
8602.58
8612.89
8555.98
8541.63
8547.02
8542.15
8540.2
8538.05
8536.21
8538.25
8099.92
8152.01
8095.36
8068.09
8099.13
8095.2
8095.76
8085.38
8073.83
8071.12
6717.9
6911.18
7201.36
7337.11
7483.44
7521.95
7496.23
7471.6
7440.94
7430.06
4369.71
4600.09
5644.34
6195.85
6503.98
6599.69
6567.77
6494.61
6443.89
6431.77
3004.89
2892.18
3861.89
4413.88
4611.59
4672.59
4682.53
4662.74
4655.11
4688.71
3059.43
2735.6
1916.16
1439.35
1192.74
1206.26
1391.22
1581.21
1765.89
1918.14
1305.72
761.662
-827.417
-1690.12
-1938.5
-1836.91
-1613.38
-1263.33
-930.332
-702.484
-895.499
-1248.94
-2297.52
-2512.32
-2566.58
-2569.58
-2437.62
-2208.16
-1987.85
-1834.07
-1641.1
-1847.3
-2383.88
-2267.08
-2254.13
-2242.25
-2160.64
-2032.67
-1914.44
-1833.06
-1540.02
-1625.27
-1657.18
-1632.28
-1579.11
-1584.3
-1546.61
-1487.1
-1437.05
-1402.52
-1096.56
-1160.55
-891.216
-1015.06
-922.424
-938.204
-924.68
-909.722
-902.969
-896.641
-790.374
-916.366
-265.209
-502.736
-371.354
-381.645
-386.556
-406.179
-430.224
-443.549
-159.941
-1655.87
-134.001
-267.348
-0.4906
-12.3872
-29.8639
-85.8272
-137.52
-168.97
11080.6
11080.4
11080.4
11080.4
11080.4
11080.4
11080.3
11080.3
11080.3
11080.4
11080.6
11080.5
11080.5
11080.5
11080.5
11080.4
11080.3
11080.3
11080.3
11080.3
11080.7
11080.6
11080.6
11080.6
11080.5
11080.4
11080.3
11080.2
11080.2
11080.2
11080.8
11080.8
11080.8
11080.7
11080.5
11080.3
11080.1
11080
11079.9
11079.9
11081.3
11081.2
11081
11080.7
11080.5
11080.1
11079.8
11079.7
11079.6
11079.6
11083.2
11083
11083.2
11081
11080.1
11079.6
11079.3
11079.1
11079
11079
11083.1
11083
11083.1
11080.9
11079.4
11078.5
11078
11077.8
11077.7
11077.7
11083.8
11083.3
11082
11080.6
11078.6
11077.6
11076.6
11076
11075.8
11075.8
11083.8
11082.7
11078.5
11077.2
11076
11074.8
11073.8
11073.1
11072.8
11072.7
11081.1
11078.2
11072.7
11071.3
11071.3
11070.8
11070.1
11069.7
11069.5
11069.4
11078.3
11074.5
11071.4
11070.6
11070.7
11069.6
11068.8
11068
11067.5
11067.3
11073.3
11070.6
11070.6
11070.4
11069.2
11068.7
11067.7
11066.8
11066.1
11065.7
11071.5
11070.4
11070.6
11070.4
11068.2
11067.4
11066.5
11065.6
11064.8
11064.3
11070.2
11069.7
11069.9
11069.8
11067.6
11066.3
11065.4
11064.2
11063.2
11062.5
11067.3
11066.8
11066.3
11067.2
11065.6
11064.4
11062.8
11061.6
11060.6
11059.8
11064.3
11063.8
11063.5
11064.4
11063.3
11062.2
11059.3
11058.5
11057.3
11056.6
11059.1
11058.7
11058.2
11059.6
11059.5
11058.4
11056.5
11055.3
11054.1
11053.3
11053.8
11052.7
11053.4
11054.1
11055.4
11055.1
11054.7
11052.5
11051
11050
11046.1
11045
11045.6
11046.3
11047.5
11048.4
11048.6
11047
11045.6
11044.5
11037.2
11036.3
11036
11037.2
11037.8
11039.4
11039.4
11039.2
11038
11036.9
11027.7
11026.8
11026.2
11027.9
11028
11029.8
11030.1
11031.1
11029.7
11028.9
11020.3
11020.1
11021.3
11023.2
11024.2
11024.6
11025.2
11025.1
11023.6
11022.7
11013.8
11014.4
11016.9
11019.6
11020.8
11022.8
11022.9
11021.5
11019.4
11018.1
11010.3
11011.4
11015.4
11015.3
11016.5
11018.7
11020.8
11018.7
11014.7
11012.7
10995.9
10996.4
10999.3
11000.4
11000.3
11002.3
11004.4
11005.6
11002.4
11000.6
10971.6
10973.9
10974.5
10976.6
10976.9
10978.5
10980.6
10982.5
10981.9
10980.7
10943.9
10947.2
10947.2
10947.4
10946.2
10947.1
10948.8
10951.4
10952.6
10952.6
10898.9
10903.3
10908.1
10908
10905.4
10906.4
10908.4
10911.9
10914.4
10915
10872
10871.1
10876.1
10874.9
10870.1
10871.4
10874.8
10878.8
10881.7
10882.1
10853.5
10850.9
10852
10851.3
10851.1
10850.9
10854.1
10856.9
10858.6
10858.1
10825.5
10824.4
10827.9
10828.8
10833.4
10832.9
10834.4
10836.2
10836.8
10835.9
10811.5
10809.8
10810.2
10807.2
10809.6
10808.4
10808.6
10809.6
10810
10809.2
10791.9
10789.7
10787.1
10780.4
10780.8
10778.9
10778.9
10779.9
10780.2
10779.5
10763.4
10760.8
10757.1
10748.8
10747.2
10747.3
10747.9
10749.4
10750.1
10749.3
10732.2
10730.4
10726.4
10718.2
10716.4
10718.5
10719.1
10720.9
10721.2
10720.3
10699.9
10698.9
10696.3
10692.4
10696
10694.8
10694.2
10694
10692.9
10691.1
10655.7
10656.1
10656.3
10660.4
10666.6
10663.5
10660.6
10658.3
10656.1
10653.7
10594
10595.6
10595.8
10603.7
10606.5
10607
10602.6
10600.6
10598.9
10597.2
10514.6
10517.7
10517.6
10525.2
10526.4
10526.1
10521
10518.9
10517.8
10517.1
10410.5
10414
10414.1
10419.3
10418.7
10418.3
10414.3
10412.9
10412.9
10413.3
10280.1
10283.6
10283.2
10285.6
10283.7
10282
10280.7
10280.2
10281.5
10283.1
10125.1
10128.7
10128.1
10129.3
10127.5
10125.5
10123.4
10123.2
10124.6
10127
9945.03
9948.41
9946.72
9946.36
9943.11
9939.91
9938.37
9939.54
9941.76
9944.92
9739.17
9742.68
9739.73
9738.19
9734.37
9731.14
9729.97
9731.54
9733.75
9737.18
9503.82
9507.71
9504.31
9502.5
9498.86
9495.71
9494.24
9495.83
9497.64
9500.98
9227.15
9231.78
9231.52
9232.52
9230.48
9227.21
9225.29
9226.56
9227.56
9230.56
8928.04
8928.21
8919.79
8920.46
8920.92
8917.45
8914.56
8914.37
8913.77
8916.05
8606.82
8605.19
8560.57
8547.36
8550.69
8546.74
8542.69
8541.38
8538.5
8539.43
8105.31
8137.93
8083.59
8075.87
8107.76
8116.48
8106.75
8093.45
8080.07
8075.95
6730.71
6931.94
7169.08
7343.52
7489.58
7528.15
7510.74
7483.37
7448.6
7437.91
4342.64
4644.78
5598.96
6191.93
6507.47
6596.09
6562.78
6498.47
6451.39
6442.07
2936.79
2857.28
3864.47
4422.9
4626.43
4684.21
4690.29
4673.42
4666.39
4700.3
3067.07
2703.18
2000.37
1474.63
1212.72
1216.6
1402.56
1596.7
1779.35
1928.79
1365.08
744.116
-739.745
-1662.16
-1931.51
-1829.52
-1606.51
-1254.9
-917.805
-690.493
-877.636
-1279.28
-2249.07
-2511.59
-2574.34
-2566.28
-2437.38
-2204.37
-1977.12
-1823.38
-1620.66
-1861.63
-2379.42
-2273.76
-2245.9
-2242.95
-2161.63
-2030.93
-1906.94
-1826.74
-1505.51
-1622.25
-1691.4
-1637.67
-1571.52
-1585.19
-1544.94
-1484.01
-1430.08
-1396.75
-1070.07
-1152.59
-933.637
-1014.66
-914.828
-939.416
-921.946
-905.494
-895.02
-888.873
-732.795
-896.742
-343.999
-492.136
-369.453
-385.287
-383.85