/*--------------------------------*- C++ -*----------------------------------*\
  =========                 |
  \\      /  F ield         | OpenFOAM: The Open Source CFD Toolbox
   \\    /   O peration     | Website:  https://openfoam.org
    \\  /    A nd           | Version:  8
     \\/     M anipulation  |
\*---------------------------------------------------------------------------*/
FoamFile
{
    version     2.0;
    format      ascii;
    class       surfaceScalarField;
    location    "300";
    object      phi;
}
// * * * * * * * * * * * * * * * * * * * * * * * * * * * * * * * * * * * * * //

dimensions      [1 0 -1 0 0 0 0];

internalField   nonuniform List<scalar> 
2860
(
0.00793431
3.50226e-05
-0.000763353
0.0078182
0.000160673
-0.0012119
0.00763665
0.000197215
-0.00408586
0.00732816
0.000294853
-0.00793006
0.00681088
0.000412947
-0.0144276
0.00784529
-0.000889023
-0.0173035
0.00898632
-0.00116868
-0.0119709
0.0109781
-0.00139034
0.0326756
0.01228
-0.00131121
0.0668486
0.0127898
-0.000236393
0.085223
0.0132235
-0.000283401
0.0885844
0.0129138
8.39377e-05
0.0939772
0.0121174
0.000557069
0.0944023
0.0115682
0.000364826
0.0962148
0.0114973
7.09617e-06
0.0971871
0.0121305
-0.000862707
0.10405
0.0130765
-0.00121898
0.112959
0.0143633
-0.00148666
0.132054
0.016028
-0.00158103
0.160083
0.0177111
-0.00160963
0.193036
0.0191375
-0.00151407
0.212135
0.0192152
-0.000371246
0.233941
0.0159425
0.00308457
0.231182
0.00914859
0.00632296
0.236586
0.00830844
-0.000588532
0.201674
0.0129103
-0.00548826
0.132449
0.0172841
-0.00509304
0.108845
0.0199448
-0.00456694
0.061357
0.0159245
0.00128078
0.0390677
0.013077
0.00343654
0.0582512
0.0101069
0.00318425
0.0420133
0.00596654
0.00550789
0.0464135
0.00308429
0.0046863
0.0628846
0.00114491
0.00280035
0.0896004
0.000661681
0.000807413
0.105012
0.00288303
-0.00194224
0.110964
0.00782569
-0.00465502
0.110103
0.0140238
-0.00572476
0.119102
0.0208774
-0.00625055
0.131886
0.0279199
-0.00670987
0.135713
0.0349577
-0.007074
0.13067
0.0420467
-0.00741002
0.122124
0.0491839
-0.00764219
0.110035
0.0565867
-0.0079643
0.0977524
0.0641939
-0.00839777
0.0825165
0.0721685
-0.00875224
0.0774922
0.079163
-0.00828069
0.0547643
0.0887335
-0.0102932
0.0543729
0.110126
-0.0219576
0.0724936
0.152233
-0.041659
0.0766634
0.178198
-0.0240904
0.183761
0.116356
0.0598706
0.390403
-0.0231052
0.152307
0.653662
-0.14521
0.124743
1.01598
-0.210486
0.0627119
1.19178
-0.241386
0.0264226
1.2844
-0.252467
0.0059655
1.39106
-0.254357
-0.00308903
1.53413
-0.250139
-0.00764818
1.69197
-0.00771111
1.94401
0.00790482
5.26202e-05
0.00042644
0.00779812
0.000235036
-0.000189254
0.00762302
0.000355395
-0.00227042
0.00730618
0.000524699
-0.0059578
0.00683611
0.000753463
-0.00844261
0.00785493
-0.000530049
0.0139311
0.00846123
-0.0017858
0.0453534
0.00713753
0.000835322
0.170003
0.00137068
0.00437201
0.302545
-0.00379616
0.00396907
0.343719
-0.00565569
0.000719162
0.332898
-0.00596978
-0.000220523
0.332525
-0.00495217
-0.000787645
0.308756
-0.00307696
-0.00165628
0.281937
-0.000587051
-0.00240686
0.25973
0.00201476
-0.00310955
0.240915
0.0041481
-0.00318917
0.2501
0.00551612
-0.00325758
0.303215
0.00617047
-0.00310371
0.345678
0.00613306
-0.00275764
0.343632
0.00587874
-0.00247983
0.329337
0.00548509
-0.000930715
0.363897
0.00493702
0.00290362
0.283222
0.00360085
0.00661032
0.2198
0.000889157
0.000566147
0.15803
-0.00569459
0.000553842
0.0966478
-0.0143876
0.00344309
0.0959184
-0.0212397
0.00290033
0.0872309
-0.0256014
0.00551921
0.115662
-0.0274564
0.00572067
0.133471
-0.0288395
0.00556275
0.1258
-0.0307342
0.00829801
0.126809
-0.033365
0.0080042
0.133215
-0.0363506
0.00601584
0.136341
-0.0393636
0.00345456
0.13295
-0.0427886
0.000474572
0.133792
-0.0477588
-0.00111885
0.144723
-0.0558432
0.000783374
0.162492
-0.0670291
0.00329057
0.178667
-0.0800976
0.00478403
0.189943
-0.0944118
0.00572254
0.198886
-0.109477
0.00617048
0.206893
-0.125175
0.00655698
0.214199
-0.141537
0.00679843
0.222583
-0.158695
0.00692735
0.232417
-0.176762
0.00731278
0.244949
-0.195556
0.00838556
0.254938
-0.216203
0.00833348
0.267416
-0.243849
0.00295221
0.259092
-0.286724
-0.00251048
0.238263
-0.345022
0.0336143
0.272096
-0.43299
0.147448
0.336174
-0.558415
0.269809
0.29832
-0.695184
0.252921
0.171579
-0.790204
0.150085
0.0135339
-0.832915
0.0629853
-0.098513
-0.846557
0.0151308
-0.153217
-0.850694
-0.00260791
-0.165936
-0.852884
-0.00909643
-0.171011
0.00887098
-0.184125
0.0078805
0.000174086
0.00161526
0.00777332
0.000416685
0.000585134
0.0075754
0.000675553
-0.00134454
0.00721308
0.00105535
-0.00218108
0.0061855
0.00225686
0.0102302
0.00447579
0.00243959
0.103193
0.00209224
0.000862955
0.158815
-0.000387485
0.00312579
0.245548
-0.00327957
0.00670174
0.255307
-0.00495696
0.00511216
0.213334
-0.00411891
-0.00034937
0.14417
-0.00313733
-0.000910291
0.0469768
-0.00184749
-0.0013755
-0.048409
-0.000688099
-0.00288012
-0.0986248
0.000580783
-0.00428665
-0.122577
0.00104373
-0.0041692
-0.103066
0.00145659
-0.00426125
-0.0674767
0.00155245
-0.00202314
0.0746123
-0.00118026
-0.000604436
0.192039
-0.00437727
-0.000254607
0.21238
-0.00641231
-0.00110371
0.208912
-0.00607523
-0.00121406
0.221139
-0.0050316
0.00209259
0.196618
-0.00901932
0.010825
0.136945
-0.0175483
0.010029
0.0557033
-0.0262556
0.00970513
0.0255423
-0.0342991
0.0116015
0.0301474
-0.0427295
0.0108237
0.0392633
-0.0496296
0.0114293
0.0590629
-0.0551668
0.0103329
0.074556
-0.0604941
0.009626
0.079478
-0.0660588
0.0124019
0.0867875
-0.0720621
0.0126329
0.0953047
-0.0777564
0.0104936
0.102704
-0.0824753
0.00701888
0.107088
-0.0860407
0.00282171
0.112005
-0.0899034
0.00150839
0.119293
-0.0957974
0.00542088
0.128156
-0.104099
0.010102
0.142544
-0.114863
0.0138322
0.161454
-0.127391
0.0164259
0.182452
-0.141065
0.0179532
0.20213
-0.155686
0.0192354
0.219436
-0.171122
0.020204
0.236592
-0.18746
0.0210566
0.254704
-0.20504
0.0223973
0.273469
-0.224262
0.0248353
0.294688
-0.245945
0.0272483
0.323749
-0.272168
0.0262116
0.34614
-0.307266
0.0286877
0.339136
-0.353175
0.0741559
0.301153
-0.403241
0.190884
0.249411
-0.433075
0.294613
0.21939
-0.417422
0.234605
0.270024
-0.330403
0.062771
0.437566
-0.229512
-0.0381306
0.703348
-0.176331
-0.0434872
1.06973
-0.16533
-0.0273736
1.40082
-0.175449
-0.0138535
1.7358
0.00994701
1.95095
0.0079118
0.000222557
0.000700494
0.00784275
0.000487263
-0.00211514
0.007767
0.000832386
-0.0062382
0.00762802
0.00133931
-0.00923021
0.00752582
0.0026966
-0.00309949
0.00651382
0.00434585
0.0501808
0.00439939
0.00398421
0.147135
0.00193827
0.00495248
0.211522
0.000501243
0.00659078
0.162647
-0.000366664
0.00429397
0.0711847
-0.000883035
0.000439063
-0.168378
-0.00118088
-0.000685164
-0.210734
-0.000821696
-0.00191232
-0.216479
-0.000800528
-0.00344879
-0.250028
-0.00115151
-0.0046935
-0.27039
-0.00267195
-0.00344464
-0.252853
-0.00478457
-0.00296787
-0.231456
-0.00565365
-0.00168851
-0.211581
-0.00578666
-0.000597247
-0.185959
-0.00601874
0.00011797
-0.130631
-0.00765658
-0.000118596
-0.0522043
-0.00800191
0.000369974
0.00631433
-0.00761481
0.00311938
0.0586146
-0.0090375
0.0133644
0.0341915
-0.0151956
0.0160037
-0.0413351
-0.0229403
0.0177218
-0.0477252
-0.0302498
0.0205642
-0.04353
-0.0376993
0.0206995
-0.0331547
-0.0440626
0.0193392
-0.0217776
-0.048494
0.0134264
-0.000662722
-0.0512876
0.0103749
0.0184043
-0.053214
0.0124328
0.0311724
-0.0544804
0.0122667
0.0394292
-0.0552801
0.00973437
0.0440341
-0.0559003
0.00588619
0.0440896
-0.0570988
0.00207498
0.0520001
-0.0606707
0.00310342
0.0718709
-0.0671808
0.00999802
0.0880832
-0.0748669
0.0157542
0.103318
-0.0835866
0.0205771
0.121339
-0.0933188
0.0243602
0.142028
-0.103639
0.0265508
0.157671
-0.114646
0.0284739
0.166319
-0.126172
0.0299026
0.173848
-0.138268
0.031258
0.181933
-0.151202
0.033323
0.186616
-0.165249
0.0367539
0.189258
-0.181295
0.0412646
0.193511
-0.201568
0.0444684
0.197079
-0.230013
0.0549713
0.204611
-0.2634
0.104926
0.20899
-0.284577
0.208451
0.182704
-0.273492
0.27995
0.16002
-0.223255
0.181157
0.168375
-0.163654
-0.00345339
0.142877
-0.150449
-0.0558079
0.0686676
-0.146777
-0.0521094
0.100877
-0.138374
-0.0414316
0.148178
-0.133089
-0.0261491
0.235493
0.00788665
0.380334
0.00792897
0.000237826
-0.000216049
0.00790924
0.00050863
-0.00371251
0.00791407
0.00087999
-0.010255
0.007902
0.00145732
-0.0168092
0.0081226
0.00267672
-0.0153415
0.00831243
0.00465467
0.0171324
0.00768857
0.00507479
0.0643114
0.00628439
0.00630574
0.127079
0.00526551
0.00651697
0.115783
0.00507943
0.00313092
0.0460148
0.005248
0.0018956
-0.132651
0.00414567
0.000427351
-0.200692
0.00270995
-0.000766565
-0.200375
0.00056963
-0.00135719
-0.240915
-0.00243098
-0.00194142
-0.282573
-0.00553372
-0.00105637
-0.296696
-0.00871224
-0.000740585
-0.315249
-0.0114825
0.000148178
-0.340877
-0.0133473
0.000527912
-0.336885
-0.014118
0.000370465
-0.312887
-0.0133474
-0.00130412
-0.273925
-0.0105055
-0.00286424
-0.22303
-0.00664142
-0.00139912
-0.0945835
-0.00520336
0.010686
-0.0604139
-0.00828536
0.0182162
-0.097608
-0.0124707
0.0216042
-0.107574
-0.0157984
0.0243262
-0.12459
-0.0168386
0.0227684
-0.140207
-0.0141177
0.0189218
-0.185778
-0.0120528
0.0145736
-0.210777
-0.0129364
0.0132625
-0.137717
-0.01222
0.0138933
-0.117643
-0.00933191
0.0127173
-0.127487
-0.00603235
0.00944483
-0.114977
-0.00438606
0.00652804
-0.13897
-0.00786602
0.00771479
-0.139922
-0.0157471
0.0122256
-0.047727
-0.0252351
0.0161065
0.0100692
-0.0332049
0.0210717
0.0362888
-0.0395333
0.0249103
0.059931
-0.0460735
0.0289748
0.0895012
-0.0523777
0.0311
0.111234
-0.0591461
0.0334947
0.117714
-0.0660539
0.0350504
0.12325
-0.0731354
0.0366459
0.131711
-0.080638
0.0390776
0.134214
-0.0887062
0.0428878
0.132856
-0.097899
0.0484672
0.129016
-0.109923
0.0548738
0.128196
-0.128492
0.071479
0.147224
-0.148456
0.122912
0.152722
-0.152182
0.209919
0.13023
-0.126241
0.250611
0.115442
-0.0556663
0.110535
0.104193
-0.0533822
-0.00312514
0.00983451
-0.0658985
-0.0466373
-0.0583707
-0.0628519
-0.0564381
-0.0617212
-0.052787
-0.054179
-0.0853575
-0.0376436
-0.0468358
-0.131973
-0.00551281
-0.372415
0.00795482
0.000209818
-0.000329321
0.00798658
0.000462057
-0.00283425
0.00803682
0.000809364
-0.0088494
0.00813367
0.00134292
-0.0155716
0.0085387
0.00229909
-0.0204019
0.00929295
0.00410451
-0.00497938
0.00962745
0.00504601
0.0225365
0.00993807
0.00609854
0.0688145
0.010076
0.00580202
0.0717949
0.00986572
0.00273307
0.0470775
0.0102235
0.00210584
0.00945044
0.0102547
0.00154954
-0.0190357
0.00955604
0.000802485
-0.054083
0.00822696
0.000278392
-0.0891934
0.00629908
0.000647279
-0.160827
0.00420828
0.00130418
-0.256873
0.00241506
0.000718178
-0.280597
0.000335967
0.00168604
-0.287314
-0.00230248
0.00239161
-0.312801
-0.0048517
0.00196451
-0.325197
-0.00596068
-0.00100836
-0.323452
-0.00513103
-0.00435333
-0.271174
-0.00283154
-0.00452859
-0.18494
8.08554e-05
0.00644482
-0.112028
0.000560879
0.0167132
-0.132223
-0.000305239
0.0218056
-0.1442
-8.11344e-05
0.0239326
-0.169717
0.00275948
0.0202411
-0.174623
0.00752447
0.0140989
-0.212101
0.0110492
0.0107893
-0.246027
0.013132
0.0113701
-0.216257
0.0155404
0.012002
-0.198104
0.0180824
0.0107534
-0.19482
0.0196394
0.00823734
-0.182606
0.0194818
0.00656562
-0.18085
0.0181061
0.00894752
-0.183412
0.0158671
0.0150148
-0.145937
0.0126049
0.0203511
-0.104994
0.010452
0.0245895
-0.0694574
0.00897806
0.0270632
-0.0408988
0.00509156
0.0290814
0.00946081
0.000562529
0.0327815
0.0601971
-0.00195321
0.0341919
0.0730629
-0.00413992
0.035211
0.0757544
-0.00623339
0.0369083
0.0916857
-0.00820309
0.0393986
0.0940227
-0.0104301
0.043341
0.0880571
-0.0126948
0.0483959
0.0523194
-0.0140969
0.0554898
-0.0300565
-0.023652
0.0790906
0.110626
-0.0309008
0.128813
0.14908
-0.0202958
0.197901
0.0987441
0.0272545
0.20107
0.0895
0.0629697
0.0726248
0.0683845
0.059928
-0.00119325
0.0369688
0.0485836
-0.0377525
0.0402869
0.0406264
-0.0495982
0.0326855
0.0355425
-0.0495608
0.0199996
0.0278607
-0.0401236
0.0220342
-0.0158514
-0.0437029
0.00797991
0.000170359
0.000362999
0.00807226
0.000355081
-0.000806332
0.0081861
0.000621135
-0.00426948
0.00836614
0.00102869
-0.00733614
0.00879655
0.00175567
-0.0131921
0.0098268
0.00310602
-0.0112164
0.0108896
0.00402632
-0.00141942
0.0119361
0.0051173
0.0224627
0.0129131
0.00462728
0.033013
0.0130795
0.00229634
0.0307915
0.0131866
0.00158615
0.021578
0.0133847
0.000806336
0.00709314
0.013461
0.000398796
-0.00536084
0.0134757
0.0006191
-0.0191568
0.013086
0.000750673
-0.0286909
0.0124691
0.00100559
-0.042676
0.0120025
0.00124775
-0.0707287
0.0118576
0.00272151
-0.142402
0.0115325
0.00311193
-0.204064
0.0112019
0.00224651
-0.235522
0.0104527
-0.000370784
-0.242353
0.00852264
-0.00253016
-0.241165
0.00593337
-0.00248975
-0.204064
0.00667764
0.00430904
-0.175978
0.00969058
0.0127244
-0.160676
0.0124787
0.0183843
-0.169814
0.0163324
0.019688
-0.192624
0.0209256
0.0155892
-0.191153
0.0247618
0.00989893
-0.204651
0.0273665
0.0075364
-0.220173
0.0297593
0.00838916
-0.211554
0.0322939
0.00900197
-0.204335
0.0344156
0.00824072
-0.200795
0.0355594
0.00671032
-0.191046
0.0356896
0.00601287
-0.177599
0.0359436
0.00837973
-0.16949
0.0372046
0.0136112
-0.154702
0.0389477
0.0186388
-0.134656
0.0412476
0.0227058
-0.11402
0.0435302
0.0254312
-0.0975107
0.045541
0.0272227
-0.0727454
0.0487245
0.0289964
-0.0312136
0.0513054
0.0297739
-0.00156263
0.0531563
0.0310965
0.014396
0.0550763
0.0327515
0.0321002
0.057628
0.0349283
0.0427026
0.0608417
0.0383957
0.0467041
0.0649762
0.0429515
0.0347977
0.0690131
0.0523935
-0.0453042
0.0743439
0.0723635
-0.0101406
0.0822688
0.11939
0.103078
0.111186
0.168617
0.0842412
0.161022
0.150536
0.0668921
0.181237
0.0517149
0.0502584
0.181165
-0.00409844
0.0489585
0.172086
-0.0314651
0.0415291
0.162438
-0.0416431
0.0232931
0.153734
-0.0418072
0.00244942
0.147563
-0.0338917
-0.017615
-0.0176837
-0.0493355
0.00796823
0.000178016
0.00112783
0.00808557
0.000278153
0.00066215
0.00828109
0.000442053
-0.0012488
0.00859004
0.00069169
-0.00136463
0.009057
0.00120387
-0.00533189
0.0100887
0.00205985
-0.00887687
0.011488
0.00262988
-0.00912786
0.0133451
0.0032416
-0.00300214
0.0148637
0.00290561
0.00219715
0.0154226
0.0015133
0.00280164
0.0157993
0.00101017
-0.000269157
0.0157245
0.000838125
-0.00536717
0.0154885
0.000825935
-0.0119259
0.0154646
0.000901567
-0.0202025
0.0154875
0.000860791
-0.0248078
0.0155517
0.000991769
-0.0269106
0.0157189
0.0013174
-0.0267908
0.0166654
0.0024055
-0.0412259
0.0179516
0.00264552
-0.0719241
0.019209
0.00165738
-0.100263
0.019709
-0.00025688
-0.114603
0.019056
-0.00144073
-0.119967
0.0173271
-0.000559099
-0.110118
0.0170302
0.00427316
-0.133305
0.0196889
0.00949558
-0.15818
0.0244337
0.0131573
-0.174017
0.0301685
0.0135722
-0.193037
0.0350298
0.0104927
-0.190194
0.0379163
0.00671214
-0.190451
0.0396828
0.0053612
-0.196149
0.0416315
0.0059721
-0.191975
0.0437994
0.00632025
-0.187705
0.0456575
0.00587501
-0.183426
0.0468883
0.00497347
-0.174683
0.0477571
0.00466139
-0.162392
0.0493139
0.00635514
-0.152772
0.0525116
0.0100122
-0.142876
0.0571263
0.0137123
-0.132101
0.0628129
0.0168432
-0.121539
0.06906
0.0191576
-0.113301
0.0755545
0.0207242
-0.104099
0.082566
0.0220523
-0.088299
0.0896004
0.0227409
-0.072451
0.0968762
0.0236716
-0.0599672
0.104441
0.0248333
-0.0473906
0.11239
0.0264673
-0.0367671
0.121004
0.0290921
-0.0270457
0.130259
0.0330691
-0.021561
0.141411
0.0415016
-0.0523698
0.155169
0.0584042
-0.0667526
0.18303
0.0900788
0.00120866
0.229005
0.122033
0.0254436
0.279581
0.100243
0.0196567
0.295429
0.0349651
0.0121435
0.293678
-0.00392677
0.00476506
0.284342
-0.0231554
-0.00613918
0.272286
-0.0300195
-0.0216521
0.260368
-0.0299137
-0.0395021
0.251685
-0.0248262
-0.0577437
-0.0144121
-0.0634108
0.00800947
6.98794e-05
0.000541152
0.0081276
8.79778e-05
-0.000402229
0.0083279
0.000174703
-0.000947502
0.00870603
0.000298136
0.00127151
0.00930019
0.000572119
-0.000566554
0.0103359
0.00103185
-0.00381509
0.0117201
0.00130194
-0.00681032
0.0134501
0.00154916
-0.0121905
0.0149433
0.00140464
-0.0146849
0.0156068
0.000758635
-0.0173881
0.0159756
0.000482352
-0.0202188
0.0162449
0.000390017
-0.023701
0.0165834
0.000390021
-0.0299046
0.0170171
0.00048451
-0.0369336
0.0173694
0.000531237
-0.0388604
0.0176442
0.000654425
-0.0350626
0.0180747
0.000745803
-0.0290716
0.0193858
0.00110351
-0.0243165
0.021129
0.00118308
-0.0251288
0.0225658
0.000780773
-0.0269519
0.0228301
-0.000102277
-0.0250722
0.022413
-0.000666127
-0.0237872
0.0219099
0.0001743
-0.0120165
0.0231807
0.00292005
-0.0262005
0.0267526
0.00548722
-0.0655609
0.0327339
0.00689882
-0.105202
0.0393467
0.00662177
-0.132501
0.0442786
0.00514581
-0.136294
0.0471335
0.0033792
-0.13753
0.0491277
0.00289391
-0.141816
0.0513336
0.00332017
-0.142144
0.053662
0.00347128
-0.142973
0.0557235
0.00328246
-0.14414
0.0573346
0.00288676
-0.14226
0.0588202
0.00274402
-0.136958
0.0611441
0.00364692
-0.132047
0.0652469
0.00557283
-0.126928
0.0711529
0.00746463
-0.120502
0.0785647
0.00907504
-0.114005
0.0871133
0.0103202
-0.109003
0.0964135
0.0111589
-0.10492
0.106358
0.0118791
-0.0997664
0.116621
0.0122961
-0.0948378
0.127291
0.012846
-0.0917497
0.138458
0.0135387
-0.0897293
0.150323
0.0145073
-0.0883746
0.163339
0.0160397
-0.0847779
0.177959
0.0184637
-0.0800234
0.196176
0.023463
-0.0894031
0.221534
0.033149
-0.099678
0.261491
0.0496696
-0.0823107
0.319319
0.0639596
-0.0629018
0.369382
0.0504208
-0.0599936
0.385969
0.017894
-0.0689875
0.384048
-0.00223714
-0.0838048
0.372963
-0.0119757
-0.0961365
0.3586
-0.0154868
-0.108152
0.344384
-0.015501
-0.121791
0.332977
-0.0130634
-0.139127
-0.00782641
-0.140427
0.00804955
0.00047537
0.00814732
-0.00121643
0.0083318
-0.00124411
0.00867931
0.00220031
0.00928467
0.00045943
0.0103622
-0.0019566
0.0117418
-0.0036788
0.0133895
-0.0114886
0.0148631
-0.0151371
0.0156325
-0.0175824
0.0161246
-0.0191787
0.0165038
-0.0206279
0.0168675
-0.0225212
0.0172938
-0.0236644
0.0177254
-0.0204936
0.0182081
-0.0136752
0.0186549
-0.0047011
0.019662
0.00527489
0.0208406
0.0124187
0.0216812
0.0189713
0.021683
0.0242266
0.0210971
0.0270888
0.0212507
0.0352228
0.024171
0.0386893
0.0297085
0.0269288
0.0366229
0.00162209
0.0436639
-0.018976
0.0487405
-0.0211022
0.0518172
-0.019794
0.0542925
-0.0207692
0.0570974
-0.0219653
0.0598966
-0.024733
0.0623566
-0.028063
0.0643559
-0.0287843
0.0662758
-0.0266726
0.0691954
-0.0261081
0.0741039
-0.0283264
0.0809913
-0.0305489
0.0895681
-0.0326302
0.0995019
-0.0355316
0.110379
-0.0384933
0.122032
-0.0409924
0.134175
-0.0436419
0.146903
-0.0481067
0.160324
-0.0542991
0.174704
-0.0614211
0.190644
-0.0665854
0.209047
-0.0703275
0.232523
-0.0824896
0.265703
-0.0992917
0.315327
-0.1127
0.379548
-0.119571
0.430171
-0.124578
0.447754
-0.134941
0.445403
-0.146734
0.433461
-0.153549
0.417924
-0.159627
0.402291
-0.168323
0.389178
-0.183051
-0.178863
0.00794081
6.56368e-05
0.00783007
0.000161031
0.00770007
0.00019954
0.00749445
0.000267077
0.00730461
0.000362944
0.00815056
-0.000535782
0.00900586
-0.00106883
0.0106954
-0.000955883
0.0122893
-0.0007357
0.0129245
0.000518741
0.0134932
0.000590856
0.0130807
0.000641162
0.0123113
0.000575878
0.0118027
0.000334139
0.0116791
5.16929e-05
0.0123114
-0.000788827
0.0132328
-0.00121222
0.0145536
-0.00148372
0.0162031
-0.00158776
0.0178474
-0.00153963
0.0192297
-0.00142908
0.0193967
-0.000460518
0.0163155
0.00280406
0.00998242
0.0058828
0.00927907
-0.000681991
0.0138461
-0.00586741
0.0185897
-0.00575066
0.0218218
-0.00606221
0.0191826
0.000284868
0.0170535
0.00354573
0.0133822
0.0033271
0.00929608
0.00572146
0.00616782
0.00533136
0.0038122
0.0034731
0.0029136
0.00117353
0.00489676
-0.00182446
0.00967681
-0.00468802
0.0156991
-0.00586676
0.0225477
-0.00659832
0.0296428
-0.00708496
0.0367039
-0.00743358
0.0438071
-0.00777102
0.0508734
-0.00795957
0.0580807
-0.00828415
0.0655895
-0.00872179
0.0731884
-0.00912161
0.080027
-0.00849888
0.0885577
-0.00992004
0.109569
-0.0217131
0.151324
-0.0443257
0.177395
-0.0285607
0.123724
0.0568013
-0.00835093
0.152417
-0.139207
0.132174
-0.209924
0.0666665
-0.24351
0.0289725
-0.255608
0.0069452
-0.257753
-0.00316786
-0.253893
-0.00841139
-0.00815387
0.00789749
7.69048e-05
0.00779637
0.000226527
0.00766507
0.000348329
0.00748825
0.000527416
0.00685985
0.000962333
0.00766022
0.000360257
0.00837336
-0.00131464
0.00717835
0.00115474
0.00151595
0.00494041
-0.00369776
0.00485788
-0.0055515
0.00158069
-0.0059192
0.00017845
-0.00485793
-0.00087139
-0.00295309
-0.00171226
-0.000462256
-0.00243488
0.00215181
-0.00316718
0.00426952
-0.00321249
0.00565256
-0.00328132
0.00631615
-0.00308738
0.00627371
-0.00263134
0.00598026
-0.00233846
0.00568096
-0.00109036
0.00529594
0.00243477
0.00437404
0.00575601
0.00221641
-0.00022666
-0.00402721
-0.000121934
-0.0121042
0.00257868
-0.0192148
0.00152716
-0.0238248
0.00426604
-0.0253943
0.00567818
-0.0270339
0.00550385
-0.0289305
0.00842962
-0.0316798
0.00855405
-0.035002
0.00664826
-0.0383431
0.0038605
-0.0419478
0.000762575
-0.0472169
-0.000728783
-0.055659
0.00111426
-0.0669978
0.00331583
-0.080216
0.00471107
-0.0947143
0.00566411
-0.109973
0.00611965
-0.125922
0.00659121
-0.142536
0.00684663
-0.159787
0.00694563
-0.177771
0.00709549
-0.19622
0.0079768
-0.216315
0.00810506
-0.241969
0.00315473
-0.281
-0.00361553
-0.337408
0.0264368
-0.422632
0.136621
-0.541223
0.269414
-0.679989
0.258356
-0.778104
0.155262
-0.822367
0.0683006
-0.836631
0.0175851
-0.840891
-0.00226066
-0.843784
-0.00921209
0.00772055
0.00785877
0.000159878
0.00776238
0.00035943
0.00759405
0.000529499
0.00721083
0.000829259
0.00604051
0.00222942
0.00454217
0.00326105
0.00220504
0.00144261
-0.000209043
0.0034744
-0.00304206
0.00709921
-0.00481795
0.00573526
-0.00397479
-0.000208842
-0.00311481
-0.000854116
-0.00205927
-0.00190464
-0.000913267
-0.00324235
0.000401977
-0.00444236
0.000747962
-0.00431366
0.00142337
-0.00434001
0.00193231
-0.00204588
-0.000837348
-0.000605554
-0.00408765
-0.000240683
-0.00624532
-0.00095888
-0.00583269
-0.00144582
-0.00478758
0.00166063
-0.00857051
0.0102336
-0.0168499
0.0096798
-0.0255108
0.00947291
-0.0332668
0.011326
-0.041834
0.0111297
-0.0488962
0.0116262
-0.0546371
0.0104134
-0.0601225
0.0100692
-0.0655405
0.0130414
-0.0715021
0.0135775
-0.0773384
0.011503
-0.082231
0.00779761
-0.0859288
0.00345791
-0.0899529
0.00208332
-0.0960942
0.00568847
-0.104559
0.0101163
-0.115485
0.0139181
-0.128216
0.0166133
-0.142078
0.0181717
-0.156956
0.0195822
-0.172706
0.0205966
-0.189385
0.021492
-0.207304
0.0227414
-0.226742
0.024909
-0.248454
0.0267631
-0.273841
0.0250462
-0.307032
0.0267458
-0.351798
0.0708424
-0.401042
0.188145
-0.431622
0.298182
-0.422107
0.243551
-0.340991
0.0701918
-0.240399
-0.0378081
-0.182569
-0.045277
-0.169084
-0.0273069
-0.178273
-0.0123789
0.011148
0.00789401
0.000196657
0.00785102
0.000429725
0.00781365
0.000633752
0.0076699
0.0010135
0.00753367
0.00232874
0.00657358
0.00472256
0.00448968
0.00438338
0.00208544
0.00527007
0.000731936
0.00696947
-0.000369091
0.00455633
-0.000911488
0.000239433
-0.0011953
-0.000999969
-0.000906828
-0.00244354
-0.000899321
-0.00383589
-0.00122023
-0.00491028
-0.00276385
-0.00361282
-0.0049301
-0.00303507
-0.00593985
-0.00161748
-0.00625421
-0.000463864
-0.00668818
0.00030331
-0.00752465
0.00012691
-0.00703571
0.000603158
-0.00686226
0.00338169
-0.00875402
0.0129985
-0.0157022
0.016799
-0.0231807
0.0184526
-0.0304264
0.0210335
-0.0378483
0.0212108
-0.0443687
0.0196392
-0.0491987
0.0136715
-0.052013
0.0109993
-0.0536646
0.0127689
-0.0546681
0.0122955
-0.0552966
0.00968426
-0.0558573
0.00609454
-0.0571457
0.00267577
-0.0609345
0.00386867
-0.0676506
0.0105988
-0.0753583
0.0162501
-0.0842162
0.0211876
-0.0941437
0.0248856
-0.104586
0.0269478
-0.11579
0.0290662
-0.127509
0.0305468
-0.1398
0.0319722
-0.152924
0.0340471
-0.167055
0.0372921
-0.183063
0.0409938
-0.202815
0.042996
-0.230659
0.0528218
-0.264299
0.102698
-0.286165
0.208202
-0.277571
0.285088
-0.232303
0.190178
-0.170838
0.000218381
-0.153832
-0.0564513
-0.150889
-0.0524349
-0.144003
-0.0414994
-0.139072
-0.0263288
0.00792911
0.00791792
0.000232565
0.00790833
0.000478612
0.00793455
0.000692993
0.0079158
0.00112657
0.00812079
0.00218693
0.00837772
0.00458644
0.00774269
0.00531606
0.00639118
0.00645816
0.0054969
0.00678249
0.0051197
0.00350213
0.00519394
0.00208417
0.00408676
0.000200992
0.00262209
-0.00116848
0.000465629
-0.00166185
-0.00251225
-0.00213402
-0.00559542
-0.00124167
-0.00877036
-0.000833875
-0.0116112
0.000259545
-0.0135705
0.00077085
-0.0144122
0.000689946
-0.0136434
-0.00099401
-0.0108877
-0.00266048
-0.00718752
-0.00102389
-0.00573509
0.0115326
-0.00859695
0.0191413
-0.0126926
0.0225015
-0.0159217
0.0250486
-0.0165079
0.0234528
-0.0130536
0.0195782
-0.0106824
0.0150128
-0.0116022
0.0136629
-0.0109576
0.013933
-0.00836954
0.0124477
-0.00558251
0.00928347
-0.00451001
0.00679769
-0.00909659
0.00789964
-0.0179051
0.0122539
-0.0262244
0.0171003
-0.0333271
0.021755
-0.0398148
0.0254818
-0.0465717
0.0297941
-0.0528891
0.0316196
-0.0598232
0.0342659
-0.06682
0.0357995
-0.073986
0.0373671
-0.0815817
0.0398305
-0.0895949
0.0436654
-0.0986841
0.0487877
-0.11043
0.0533218
-0.12934
0.0707018
-0.150135
0.121921
-0.154853
0.210206
-0.130257
0.257068
-0.0621409
0.115778
-0.0595579
-0.00145491
-0.065312
-0.0447483
-0.0617608
-0.0554811
-0.0509359
-0.0542872
-0.0347368
-0.0488618
-0.00656571
0.00794748
0.000231202
0.00796841
0.00047077
0.00802029
0.000709192
0.0081147
0.00112427
0.00849947
0.0019325
0.00926593
0.00386703
0.00968944
0.00504676
0.0100097
0.00620808
0.0102364
0.00601937
0.0100148
0.00300712
0.010272
0.00218858
0.0101379
0.00138951
0.009364
0.000602182
0.00801403
9.08249e-05
0.00613662
0.000452215
0.00407221
0.00110602
0.00229671
0.000619111
0.000178907
0.00181446
-0.00248965
0.0026202
-0.00507128
0.00225589
-0.00622144
-0.000657791
-0.00545303
-0.00410322
-0.00316941
-0.00436918
-0.000288028
0.00700189
0.000328986
0.0174826
-0.000396373
0.0225931
-1.38509e-05
0.0244531
0.00315643
0.0205052
0.00818464
0.0143044
0.0116919
0.0111316
0.0137362
0.0118116
0.016044
0.0121507
0.0182778
0.0106619
0.0194553
0.0082097
0.0191314
0.00685985
0.0177085
0.00937939
0.0151127
0.0153763
0.0115026
0.0206982
0.00878284
0.0247652
0.00703527
0.0275426
0.00450629
0.03028
0.00106378
0.033513
-0.0017956
0.03509
-0.0040133
0.0360966
-0.00609961
0.0376812
-0.0081792
0.0400792
-0.0104244
0.0439295
-0.0122195
0.0491322
-0.0149222
0.0569649
-0.0239972
0.078971
-0.0320247
0.12858
-0.0223593
0.198005
0.0243381
0.206003
0.0588138
0.0767428
0.0553759
-0.0017505
0.0480546
-0.0388085
0.0415684
-0.0506129
0.0369175
-0.0509207
0.0302897
-0.0417589
-0.0163465
0.0079717
0.000193104
0.0080503
0.000373965
0.00814859
0.000614601
0.00830076
0.000988744
0.00872566
0.00159154
0.00972047
0.00292457
0.0108877
0.00398127
0.0120739
0.00512314
0.0131059
0.00480003
0.0132476
0.00248851
0.0134417
0.00168311
0.0134631
0.000921761
0.0131691
0.000521493
0.0129095
0.000495776
0.0125809
0.000595037
0.0121455
0.000997832
0.0118514
0.00137694
0.0116952
0.00288998
0.0113342
0.00334018
0.0109645
0.00252998
0.0102205
-6.93586e-05
0.00828732
-0.00234936
0.00568849
-0.00234497
0.00642992
0.00465037
0.00960676
0.0132634
0.0125991
0.0189713
0.016612
0.0200542
0.021312
0.0157328
0.0251431
0.0100527
0.0276051
0.00779541
0.0298516
0.00874837
0.0322429
0.0091802
0.034146
0.0082664
0.0350841
0.00679358
0.0351612
0.00630358
0.0354116
0.00871013
0.0365659
0.0138714
0.0382338
0.0189619
0.0402855
0.0229489
0.0420539
0.0259396
0.0438239
0.0279372
0.0471206
0.0295664
0.0501565
0.0305044
0.0526016
0.0318036
0.0551004
0.0332986
0.0578639
0.0353776
0.0609676
0.0388302
0.0642871
0.0434624
0.0674595
0.0533575
0.0729943
0.0732217
0.0820116
0.118543
0.109347
0.168223
0.157217
0.154061
0.175946
0.0536443
0.176924
-0.00412678
0.169292
-0.0319571
0.160085
-0.0422786
0.151321
-0.0425692
0.144773
-0.0349748
-0.0181712
0.0079566
0.000174887
0.00807256
0.00026346
0.00826787
0.000446677
0.00851725
0.000758287
0.00895053
0.00119363
0.00993114
0.00197996
0.0113383
0.00262382
0.0132722
0.00325731
0.0149415
0.00303379
0.0154666
0.00168609
0.0156972
0.00121232
0.0153475
0.0009993
0.0149396
0.000784615
0.0148676
0.000663658
0.0149298
0.000607474
0.0150714
0.000811854
0.0153566
0.00121773
0.0163255
0.00244913
0.0176446
0.00276517
0.0188959
0.00185393
0.0194103
-3.61284e-05
0.0187692
-0.00126413
0.0170305
-0.000415696
0.016771
0.00458263
0.0196731
0.0097292
0.0246326
0.0134531
0.0303997
0.0138293
0.035181
0.0106074
0.0379433
0.00687206
0.0395648
0.00562459
0.041375
0.00626404
0.0434312
0.00646047
0.045147
0.00587655
0.0462672
0.00497745
0.0471246
0.00476099
0.0486872
0.00650889
0.0517875
0.010139
0.056315
0.0138693
0.0618697
0.0169606
0.0679518
0.0194491
0.0743545
0.0211633
0.0811907
0.0224663
0.0880538
0.023266
0.0952153
0.0241674
0.102764
0.0252267
0.110779
0.0268001
0.119421
0.0294967
0.128396
0.0335425
0.139384
0.0421888
0.153482
0.059265
0.182178
0.0899137
0.227438
0.121654
0.276343
0.101614
0.291565
0.0358089
0.290039
-0.00411514
0.280711
-0.0238669
0.26849
-0.0308638
0.256458
-0.0307793
0.247558
-0.0258555
-0.0149223
0.00799973
5.68298e-05
0.00812268
6.86445e-05
0.00834196
0.000175373
0.00869823
0.000350309
0.00924599
0.000588942
0.010182
0.0010089
0.0114893
0.00130264
0.0131759
0.00157881
0.0146363
0.00150677
0.0153373
0.000869508
0.0157343
0.000612994
0.016067
0.000493971
0.0164193
0.000369443
0.0167576
0.000323541
0.0170141
0.00033267
0.0172551
0.000476133
0.0176877
0.000656912
0.0188483
0.00123021
0.0203799
0.00129097
0.0215804
0.000869672
0.0217493
-1.13096e-05
0.0213317
-0.000594909
0.0208544
0.000204143
0.0224027
0.00306074
0.0266042
0.00552675
0.0328775
0.00682347
0.0394041
0.0067393
0.0441958
0.00520139
0.0469473
0.00343245
0.0488466
0.00297593
0.0509457
0.00335406
0.0531942
0.00349174
0.0551649
0.0032513
0.0567138
0.00284296
0.0582
0.00273492
0.0605165
0.00366686
0.0645192
0.00558653
0.0703089
0.00752377
0.0775984
0.009152
0.0860383
0.0104787
0.095288
0.0114032
0.105156
0.0121373
0.115351
0.0126175
0.125946
0.0131521
0.13703
0.0137858
0.148829
0.0147084
0.161767
0.0162562
0.176274
0.0186969
0.194451
0.023795
0.220061
0.0336085
0.260161
0.0499295
0.317224
0.064115
0.366415
0.0508413
0.383382
0.0180579
0.381341
-0.00255711
0.369598