/*--------------------------------*- C++ -*----------------------------------*\
  =========                 |
  \\      /  F ield         | OpenFOAM: The Open Source CFD Toolbox
   \\    /   O peration     | Website:  https://openfoam.org
    \\  /    A nd           | Version:  8
     \\/     M anipulation  |
\*---------------------------------------------------------------------------*/
FoamFile
{
    version     2.0;
    format      ascii;
    class       volScalarField;
    location    "300";
    object      T;
}
// * * * * * * * * * * * * * * * * * * * * * * * * * * * * * * * * * * * * * //

dimensions      [0 0 0 1 0 0 0];

internalField   nonuniform List<scalar> 
1200
(
303.143
303.134
303.127
303.119
303.11
303.015
302.668
301.766
300.863
300.291
299.79
299.543
299.201
298.674
297.942
296.947
295.96
294.925
294.073
293.554
293.302
293.188
293.137
293.407
295.418
295.968
296.195
296.332
296.463
296.818
297.085
297.354
297.647
297.961
298.324
298.617
298.828
298.953
299.05
299.155
299.255
299.339
299.408
299.464
299.511
299.55
299.579
299.615
299.677
299.743
299.755
299.737
299.83
299.924
299.952
299.969
299.98
299.988
299.993
299.997
303.15
303.149
303.149
303.148
303.145
302.319
300.662
297.935
294.703
293.71
293.804
293.872
293.712
293.399
293.214
293.165
293.145
293.131
293.123
293.121
293.123
293.112
293.117
293.677
295.316
295.7
296.34
296.936
297.388
297.935
298.422
298.764
299.083
299.325
299.478
299.57
299.636
299.689
299.727
299.758
299.783
299.805
299.825
299.842
299.858
299.872
299.884
299.895
299.904
299.911
299.917
299.922
299.954
299.984
299.994
299.996
299.996
299.997
299.998
300
303.15
303.15
303.15
303.15
303.12
298.395
294.675
293.921
293.507
293.33
293.371
293.559
293.606
293.402
293.199
293.137
293.134
293.132
293.134
293.158
293.221
293.294
293.553
294.827
296.981
297.728
298.046
298.415
298.703
298.984
299.144
299.248
299.344
299.407
299.446
299.474
299.499
299.525
299.55
299.571
299.591
299.61
299.63
299.65
299.669
299.689
299.707
299.724
299.741
299.76
299.777
299.776
299.736
299.62
299.445
299.292
299.408
299.613
299.807
299.98
303.15
303.15
303.15
303.15
303.142
301.091
296.586
293.905
293.378
293.321
293.498
293.78
293.871
293.563
293.253
293.138
293.139
293.164
293.229
293.399
293.821
294.195
294.366
295.57
297.075
297.481
297.784
298.192
298.691
299.113
299.234
299.286
299.328
299.353
299.366
299.376
299.392
299.414
299.434
299.448
299.46
299.473
299.487
299.501
299.514
299.528
299.542
299.552
299.559
299.567
299.571
299.542
299.418
299.143
298.787
298.742
298.85
299.034
299.348
299.804
303.15
303.15
303.15
303.15
303.144
302.28
299.706
296.25
294.33
293.808
293.738
294.222
294.604
294.238
293.544
293.188
293.142
293.153
293.183
293.246
293.373
293.661
294.444
295.625
296.652
296.774
296.643
296.331
295.754
295.235
295.924
296.338
296.094
295.794
295.345
296.002
298.571
299.378
299.385
299.386
299.387
299.391
299.398
299.405
299.412
299.421
299.431
299.438
299.44
299.438
299.43
299.38
299.225
298.935
298.702
298.727
298.735
298.685
298.603
298.595
303.15
303.15
303.15
303.15
303.145
302.838
301.568
298.959
296.846
295.957
295.589
295.369
295.352
295.702
295.249
293.937
293.287
293.166
293.158
293.183
293.254
293.41
293.737
294.998
296.247
296.324
296.023
295.553
294.943
294.482
294.472
294.548
294.431
294.263
294.11
294.249
295.223
296.649
297.915
298.762
299.249
299.31
299.34
299.355
299.354
299.36
299.375
299.402
299.412
299.373
299.365
299.33
299.174
298.913
298.865
298.892
298.907
298.895
298.853
298.779
303.15
303.15
303.15
303.15
303.148
303.043
302.533
301.114
299.601
298.883
298.26
297.833
297.729
297.696
297.647
297.467
297.106
295.756
294.533
293.82
293.475
293.5
293.686
294.092
295.384
295.689
295.488
295.13
294.763
294.479
294.289
294.152
294.016
293.894
293.809
293.803
294.056
294.699
295.612
296.567
297.459
298.146
298.608
298.887
299.048
299.147
299.218
299.281
299.328
299.342
299.328
299.305
299.192
299.08
299.054
299.025
298.985
298.933
298.872
298.815
303.15
303.15
303.15
303.15
303.15
303.119
302.941
302.36
301.618
301.22
300.915
300.644
300.432
300.323
300.251
300.088
299.798
298.967
297.828
296.875
296.37
296.137
295.805
295.114
295.033
295.118
295.019
294.834
294.652
294.497
294.352
294.209
294.073
293.952
293.853
293.781
293.781
293.936
294.286
294.794
295.393
296.013
296.591
297.095
297.521
297.877
298.181
298.441
298.664
298.866
299.055
299.16
299.155
299.128
299.1
299.023
298.923
298.816
298.713
298.636
303.15
303.15
303.149
303.149
303.149
303.143
303.096
302.916
302.647
302.471
302.303
302.12
301.994
301.951
301.946
301.911
301.79
301.424
300.887
300.422
300.252
300.132
300.033
298.955
297.556
296.577
296.032
295.775
295.683
295.646
295.582
295.495
295.406
295.313
295.196
295.031
294.826
294.641
294.536
294.536
294.64
294.827
295.067
295.336
295.616
295.902
296.2
296.512
296.859
297.274
297.765
298.19
298.395
298.428
298.384
298.302
298.204
298.105
298.011
297.933
303.143
303.135
303.127
303.12
303.114
303.111
303.103
303.071
303.014
302.97
302.924
302.872
302.833
302.81
302.795
302.777
302.749
302.661
302.507
302.363
302.288
302.214
302.073
301.603
300.802
299.956
299.277
298.863
298.642
298.485
298.325
298.181
298.066
297.976
297.887
297.751
297.541
297.282
297.016
296.772
296.57
296.414
296.302
296.227
296.181
296.16
296.161
296.186
296.245
296.364
296.579
296.842
297.006
297.041
297.018
296.996
296.974
296.952
296.929
296.906
303.143
303.134
303.127
303.119
303.11
303.018
302.647
301.81
300.884
300.331
299.824
299.553
299.225
298.713
297.996
296.998
296.01
294.981
294.12
293.583
293.317
293.195
293.14
293.395
295.35
295.933
296.181
296.339
296.43
296.757
297.024
297.311
297.624
297.951
298.319
298.627
298.849
298.972
299.066
299.166
299.261
299.342
299.41
299.466
299.513
299.552
299.582
299.616
299.678
299.746
299.762
299.742
299.821
299.926
299.953
299.97
299.981
299.988
299.993
299.997
303.15
303.149
303.149
303.148
303.145
302.411
300.687
298.03
294.761
293.718
293.809
293.873
293.717
293.404
293.216
293.166
293.146
293.132
293.123
293.122
293.124
293.113
293.117
293.664
295.289
295.724
296.4
297.007
297.458
297.976
298.444
298.771
299.088
299.333
299.491
299.583
299.646
299.697
299.735
299.765
299.79
299.812
299.831
299.848
299.863
299.876
299.888
299.898
299.907
299.913
299.919
299.923
299.951
299.984
299.993
299.996
299.996
299.997
299.998
300
303.15
303.15
303.15
303.15
303.127
298.592
294.758
293.938
293.522
293.337
293.377
293.564
293.604
293.4
293.198
293.137
293.134
293.133
293.134
293.16
293.224
293.304
293.574
294.894
297.118
297.853
298.161
298.517
298.762
299.005
299.161
299.264
299.359
299.421
299.459
299.486
299.511
299.537
299.562
299.583
299.602
299.622
299.642
299.661
299.681
299.699
299.717
299.733
299.749
299.768
299.784
299.785
299.75
299.644
299.478
299.329
299.422
299.623
299.818
299.982
303.15
303.15
303.15
303.15
303.143
301.198
296.722
293.948
293.388
293.323
293.497
293.778
293.866
293.556
293.249
293.138
293.138
293.163
293.225
293.385
293.789
294.257
294.447
295.636
297.015
297.38
297.605
297.921
298.441
299.074
299.256
299.305
299.343
299.365
299.377
299.387
299.404
299.427
299.447
299.461
299.475
299.488
299.502
299.516
299.531
299.545
299.558
299.567
299.575
299.582
299.589
299.564
299.452
299.197
298.858
298.787
298.917
299.117
299.431
299.851
303.15
303.15
303.15
303.15
303.143
302.333
299.8
296.334
294.367
293.82
293.737
294.231
294.607
294.228
293.537
293.187
293.141
293.152
293.181
293.242
293.362
293.635
294.391
295.578
296.6
296.708
296.547
296.196
295.566
295.03
295.723
296.146
295.902
295.613
295.215
295.861
298.395
299.387
299.396
299.398
299.4
299.405
299.414
299.421
299.43
299.44
299.45
299.457
299.459
299.458
299.452
299.407
299.262
298.976
298.652
298.678
298.699
298.649
298.548
298.421
303.15
303.15
303.15
303.15
303.144
302.848
301.617
299.035
296.89
295.982
295.597
295.313
295.352
295.728
295.232
293.913
293.279
293.165
293.157
293.182
293.251
293.404
293.721
294.951
296.207
296.277
295.962
295.482
294.886
294.44
294.409
294.465
294.352
294.2
294.07
294.208
295.111
296.522
297.793
298.683
299.272
299.333
299.357
299.37
299.369
299.378
299.394
299.419
299.414
299.395
299.389
299.357
299.215
298.954
298.906
298.93
298.939
298.917
298.865
298.76
303.15
303.15
303.15
303.15
303.148
303.041
302.543
301.159
299.634
298.896
298.322
297.915
297.774
297.697
297.662
297.499
297.091
295.699
294.495
293.8
293.462
293.481
293.675
294.073
295.354
295.642
295.432
295.079
294.729
294.457
294.265
294.123
293.986
293.869
293.79
293.787
294.019
294.626
295.504
296.451
297.373
298.089
298.593
298.896
299.07
299.173
299.244
299.304
299.33
299.352
299.35
299.332
299.228
299.114
299.086
299.054
299.008
298.946
298.87
298.797
303.15
303.15
303.15
303.15
303.149
303.117
302.937
302.363
301.616
301.208
300.914
300.606
300.384
300.324
300.255
300.074
299.758
298.901
297.754
296.814
296.309
296.08
295.758
295.081
295.006
295.081
294.977
294.797
294.626
294.477
294.333
294.19
294.053
293.933
293.834
293.765
293.763
293.907
294.236
294.724
295.314
295.929
296.515
297.032
297.47
297.838
298.154
298.424
298.643
298.85
299.057
299.176
299.18
299.154
299.124
299.038
298.925
298.805
298.691
298.607
303.15
303.15
303.149
303.149
303.149
303.142
303.093
302.909
302.635
302.457
302.278
302.089
301.98
301.954
301.955
301.915
301.778
301.383
300.819
300.338
300.176
300.059
299.965
298.909
297.513
296.542
296.015
295.776
295.699
295.67
295.604
295.514
295.421
295.322
295.196
295.025
294.82
294.632
294.52
294.51
294.604
294.782
295.015
295.28
295.556
295.84
296.138
296.454
296.807
297.233
297.738
298.176
298.388
298.418
298.364
298.272
298.167
298.064
297.967
297.887
303.143
303.135
303.127
303.12
303.115
303.111
303.103
303.069
303.011
302.966
302.916
302.863
302.827
302.808
302.796
302.777
302.743
302.653
302.509
302.372
302.304
302.235
302.099
301.625
300.82
299.961
299.271
298.886
298.688
298.541
298.386
298.246
298.131
298.039
297.945
297.806
297.596
297.338
297.072
296.825
296.616
296.452
296.331
296.247
296.193
296.165
296.16
296.18
296.236
296.355
296.571
296.835
296.998
297.028
297.003
296.979
296.956
296.934
296.911
296.886
)
;

boundaryField
{
    wall
    {
        type            zeroGradient;
    }
    inlet
    {
        type            fixedValue;
        value           uniform 303.15;
    }
    outlet
    {
        type            inletOutlet;
        inletValue      uniform 300;
        value           nonuniform List<scalar> 
20
(
300
300
300
300
300
298.763
298.797
298.616
297.913
296.897
300
300
300
300
300
298.743
298.779
298.589
297.868
296.878
)
;
    }
    heatWall
    {
        type            fixedGradient;
        gradient        uniform -500;
    }
}


// ************************************************************************* //
