/*--------------------------------*- C++ -*----------------------------------*\
  =========                 |
  \\      /  F ield         | OpenFOAM: The Open Source CFD Toolbox
   \\    /   O peration     | Website:  https://openfoam.org
    \\  /    A nd           | Version:  8
     \\/     M anipulation  |
\*---------------------------------------------------------------------------*/
FoamFile
{
    version     2.0;
    format      ascii;
    class       volVectorField;
    location    "300";
    object      U;
}
// * * * * * * * * * * * * * * * * * * * * * * * * * * * * * * * * * * * * * //

dimensions      [0 1 -1 0 0 0 0];

internalField   nonuniform List<vector> 
1200
(
(0.079774 -0.00528889 -0.000750903)
(0.079447 -0.00373911 -0.00117638)
(0.0782174 -0.00282456 -0.00409272)
(0.0759176 -0.00193892 -0.00798349)
(0.0706774 -0.000648534 -0.0145755)
(0.0751998 0.00170201 -0.0172217)
(0.0802531 0.00237369 -0.0120869)
(0.101521 -0.00453361 0.0334389)
(0.118828 -0.0164865 0.0672092)
(0.126856 -0.0156459 0.0859397)
(0.130726 -0.0111973 0.0891839)
(0.133516 -0.00446008 0.09417)
(0.125326 0.00619116 0.094547)
(0.116625 0.0102748 0.0964057)
(0.113584 0.0110002 0.0974814)
(0.116283 0.00811833 0.104178)
(0.126014 0.00644716 0.113032)
(0.136269 0.00847072 0.132223)
(0.151152 0.00858047 0.160567)
(0.169598 0.00561792 0.193565)
(0.18483 0.00305846 0.212532)
(0.198765 0.00395587 0.23417)
(0.184745 0.0107729 0.2315)
(0.133774 0.0255936 0.23666)
(0.0476979 0.00988323 0.200832)
(0.116257 -0.022074 0.131937)
(0.143232 -0.0357315 0.108444)
(0.189753 -0.0383374 0.0595593)
(0.197235 -0.0158778 0.0364765)
(0.121344 0.00423194 0.0591136)
(0.130268 0.00751748 0.0423261)
(0.074708 0.0185861 0.0479751)
(0.0394594 0.0177109 0.0649522)
(0.0126937 0.0138182 0.0908143)
(0.0010161 0.0102472 0.105731)
(0.00534598 9.98866e-05 0.111663)
(0.0448229 -0.0144933 0.11081)
(0.10436 -0.0262263 0.120025)
(0.170142 -0.0357588 0.132991)
(0.239937 -0.0419255 0.13657)
(0.310387 -0.0460753 0.13114)
(0.380496 -0.048998 0.122273)
(0.451227 -0.0510663 0.109948)
(0.523643 -0.0532331 0.0975497)
(0.600949 -0.0561379 0.0820265)
(0.671996 -0.0596481 0.0769604)
(0.759861 -0.0577336 0.0536538)
(0.84601 -0.0633667 0.0537948)
(1.0257 -0.119237 0.0722013)
(1.2023 -0.26955 0.0771266)
(1.6723 -0.396666 0.186012)
(1.85799 -0.198664 0.390536)
(0.578382 0.293456 0.669984)
(-1.06978 0.180387 1.02286)
(-1.88692 -0.0722357 1.19418)
(-2.33785 -0.241863 1.28538)
(-2.50665 -0.347319 1.39186)
(-2.56011 -0.429618 1.53568)
(-2.55335 -0.536515 1.6957)
(-2.46779 -0.715282 1.94933)
(0.0799364 0.00232424 0.000389975)
(0.0791691 0.00305934 -0.000245394)
(0.0779822 0.00312148 -0.00234527)
(0.0757964 0.00306339 -0.0060896)
(0.0698971 0.0028313 -0.00859602)
(0.0781388 -0.00681242 0.0153614)
(0.0783164 -0.0102214 0.0455589)
(0.0915433 -0.00669717 0.171537)
(0.0515753 0.00577276 0.303288)
(-0.0245337 0.0125257 0.343587)
(-0.0515934 0.00585544 0.332847)
(-0.0622427 0.00178047 0.332703)
(-0.057082 -0.0018813 0.309162)
(-0.0426485 -0.00692137 0.282441)
(-0.0198308 -0.0103261 0.260387)
(0.00763121 -0.014628 0.241803)
(0.0323232 -0.0155844 0.250821)
(0.0508296 -0.019781 0.303488)
(0.059455 -0.0208271 0.345581)
(0.0637552 -0.0185953 0.343211)
(0.0588452 -0.0150695 0.328843)
(0.0592249 -0.00627588 0.363744)
(0.0493757 0.014157 0.283112)
(0.048498 0.0244657 0.219274)
(0.0213569 -0.0151639 0.156916)
(-0.00660378 -0.0199441 0.0963983)
(-0.107402 -0.00140903 0.0961023)
(-0.191297 0.00694054 0.0881277)
(-0.241784 0.0247019 0.115908)
(-0.272585 0.0207376 0.134417)
(-0.28183 0.0171143 0.127249)
(-0.296852 0.0246874 0.128189)
(-0.322645 0.0185321 0.134427)
(-0.352378 0.00731404 0.137099)
(-0.383267 -0.00393044 0.133096)
(-0.412235 -0.0157965 0.133329)
(-0.452666 -0.0230352 0.143885)
(-0.511928 -0.0186604 0.161586)
(-0.614246 -0.0120362 0.177774)
(-0.738254 -0.00915126 0.189167)
(-0.877137 -0.00744357 0.198196)
(-1.02559 -0.00669329 0.206267)
(-1.18005 -0.00616253 0.213598)
(-1.34022 -0.0060896 0.221916)
(-1.50771 -0.00649661 0.231567)
(-1.68555 -0.00613987 0.243966)
(-1.87094 -0.00438348 0.253873)
(-2.05456 -0.0114064 0.26649)
(-2.25915 -0.0356488 0.257623)
(-2.61713 -0.0331355 0.236066)
(-3.21527 0.171541 0.272548)
(-3.77534 0.601803 0.336734)
(-4.82858 0.935326 0.29223)
(-6.42576 0.867873 0.163252)
(-7.62423 0.628087 0.00569575)
(-8.24022 0.47101 -0.104971)
(-8.47403 0.386628 -0.15826)
(-8.51666 0.374334 -0.170291)
(-8.54645 0.405789 -0.175418)
(-8.69682 0.487457 -0.188558)
(0.0796761 7.28187e-05 0.00167083)
(0.0788902 0.000400814 0.000635877)
(0.0776605 0.000914239 -0.00128363)
(0.0748623 0.00181493 -0.00209026)
(0.0697967 0.00300729 0.0107192)
(0.0573153 -0.000369933 0.104869)
(0.0323268 -0.00554272 0.159522)
(0.0095576 0.0120874 0.24597)
(-0.0176789 0.027167 0.255333)
(-0.0490847 0.0165 0.213262)
(-0.0500579 -0.00271261 0.144224)
(-0.0324282 -0.00407228 0.0473483)
(-0.026544 -0.00259669 -0.0479065)
(-0.0146757 -0.0054036 -0.0989595)
(-0.00358785 -0.00944655 -0.123475)
(0.0134662 -0.0110484 -0.103928)
(0.00495207 -0.0113432 -0.0682663)
(0.0245775 -0.00637242 0.0761476)
(0.00529081 -0.00430439 0.192231)
(-0.0301361 -0.00455554 0.212149)
(-0.0580776 -0.00574035 0.20871)
(-0.0695655 -0.000821976 0.221693)
(-0.0541232 0.0100829 0.197316)
(-0.048273 0.0311909 0.137589)
(-0.136604 0.0237733 0.0568864)
(-0.22345 0.0247134 0.0261177)
(-0.306097 0.0275721 0.0304488)
(-0.397313 0.0199758 0.0390437)
(-0.470424 0.02747 0.0584074)
(-0.528928 0.0289944 0.073898)
(-0.581106 0.0319181 0.0785329)
(-0.634534 0.0446465 0.0857056)
(-0.695909 0.0458661 0.0943439)
(-0.757085 0.0403836 0.101914)
(-0.810308 0.0315195 0.106368)
(-0.851045 0.0190508 0.111251)
(-0.88216 0.0119105 0.118531)
(-0.929239 0.0213601 0.127378)
(-0.999501 0.0349606 0.141602)
(-1.09771 0.0448736 0.160379)
(-1.21593 0.051523 0.181362)
(-1.34858 0.0552198 0.201059)
(-1.49096 0.0579751 0.218387)
(-1.64146 0.0598684 0.235521)
(-1.80014 0.0608987 0.253537)
(-1.9696 0.0630442 0.272103)
(-2.153 0.0681858 0.293136)
(-2.35224 0.067197 0.322267)
(-2.57755 0.0391666 0.344517)
(-2.87987 0.0147616 0.336706)
(-3.31006 0.194872 0.297507)
(-3.80043 0.732139 0.244724)
(-4.28062 1.21078 0.2157)
(-4.49071 1.01744 0.268311)
(-3.91277 0.435916 0.438715)
(-2.71398 -0.042301 0.705485)
(-1.8807 -0.271654 1.06866)
(-1.65763 -0.357689 1.39298)
(-1.65949 -0.390729 1.72839)
(-1.87262 -0.246269 1.94945)
(0.0798524 0.00078017 0.000709407)
(0.0792754 0.00191388 -0.00213417)
(0.0786023 0.0032062 -0.00623276)
(0.0780023 0.00487716 -0.00916938)
(0.0751649 0.0116425 -0.00281231)
(0.0734531 0.0160939 0.0513036)
(0.0571054 0.0105953 0.148619)
(0.0313792 0.0126703 0.211407)
(0.00711101 0.0265415 0.161474)
(0.000342455 0.0236605 0.0696132)
(-0.00577106 0.00101726 -0.168551)
(-0.0123524 -0.00364154 -0.21137)
(-0.0104593 -0.0112546 -0.217201)
(-0.00711842 -0.0184623 -0.251171)
(-0.0104271 -0.0238607 -0.271764)
(-0.0134796 -0.0209935 -0.25422)
(-0.0408893 -0.0208135 -0.232792)
(-0.054975 -0.010187 -0.212597)
(-0.0597155 -0.00154309 -0.186511)
(-0.0590303 0.00204798 -0.130807)
(-0.0645068 -0.00246074 -0.0528512)
(-0.0815273 -0.00510057 0.00770686)
(-0.0883039 0.00920975 0.0602322)
(-0.0715183 0.054712 0.0354117)
(-0.120537 0.0564859 -0.0415941)
(-0.194574 0.0582869 -0.0474461)
(-0.271307 0.0681936 -0.0418959)
(-0.352893 0.0672616 -0.0307934)
(-0.424269 0.0640808 -0.0203777)
(-0.470454 0.0491457 -0.0021562)
(-0.50322 0.042378 0.0163987)
(-0.53021 0.052569 0.0293689)
(-0.54749 0.0510727 0.0378705)
(-0.558147 0.0383956 0.0425428)
(-0.564384 0.0187079 0.0424356)
(-0.568155 -0.00214408 0.0502248)
(-0.586945 -0.000458944 0.0701572)
(-0.640865 0.0260561 0.0864925)
(-0.715231 0.0508732 0.101718)
(-0.79754 0.0694743 0.11987)
(-0.889994 0.0827489 0.140813)
(-0.991182 0.0913721 0.156585)
(-1.09839 0.0986914 0.165219)
(-1.21125 0.104721 0.172718)
(-1.32918 0.110267 0.180777)
(-1.45407 0.118487 0.185381)
(-1.58811 0.133103 0.187922)
(-1.73379 0.152442 0.192275)
(-1.90223 0.164325 0.195868)
(-2.14108 0.193498 0.203318)
(-2.47474 0.3774 0.20732)
(-2.79882 0.823806 0.180015)
(-2.96067 1.17905 0.156953)
(-2.68328 0.817009 0.165213)
(-1.8125 0.0636172 0.136546)
(-1.46389 -0.210473 0.0646794)
(-1.5101 -0.0701755 0.0962912)
(-1.43121 0.0905091 0.142856)
(-1.34146 0.206497 0.229184)
(-1.3691 0.255925 0.375488)
(0.0798846 0.000804863 -0.000220352)
(0.0796129 0.00181322 -0.00373346)
(0.0794147 0.00297369 -0.0102674)
(0.0797964 0.00475721 -0.0168004)
(0.0794519 0.0099267 -0.0152261)
(0.0821514 0.0189677 0.017708)
(0.0835086 0.0201575 0.0650461)
(0.0709042 0.0259281 0.127424)
(0.0549065 0.0262572 0.114988)
(0.0480242 0.0131452 0.0447725)
(0.0555633 0.00286619 -0.131291)
(0.048589 -0.00357575 -0.201171)
(0.0347034 -0.00785041 -0.201189)
(0.0192693 -0.0105725 -0.241568)
(-0.00889563 -0.0140269 -0.283478)
(-0.040532 -0.00620794 -0.298078)
(-0.0709753 -0.00219964 -0.316909)
(-0.103585 -0.00227047 -0.342579)
(-0.127322 -0.0018041 -0.338381)
(-0.141504 0.000450293 -0.314099)
(-0.14249 0.00111018 -0.274968)
(-0.124295 0.000941759 -0.223949)
(-0.0891904 0.0113445 -0.0954906)
(-0.0509027 0.0546291 -0.0616821)
(-0.0647295 0.0751853 -0.0987749)
(-0.106703 0.0847055 -0.108184)
(-0.147672 0.0961171 -0.124455)
(-0.177319 0.0968944 -0.139416)
(-0.169128 0.0906769 -0.183782)
(-0.116086 0.0662104 -0.208066)
(-0.124624 0.0501074 -0.136151)
(-0.139042 0.0541313 -0.115864)
(-0.114711 0.051827 -0.124599)
(-0.0848499 0.0407671 -0.112376)
(-0.0499097 0.0285096 -0.137119)
(-0.0469761 0.0218116 -0.138403)
(-0.119935 0.0277717 -0.046985)
(-0.223731 0.050933 0.00686957)
(-0.315295 0.0746713 0.0338651)
(-0.374666 0.0932906 0.0581445)
(-0.435967 0.111156 0.0879404)
(-0.499425 0.121732 0.10993)
(-0.564769 0.12964 0.116437)
(-0.633097 0.135838 0.121989)
(-0.702655 0.141678 0.130543)
(-0.775339 0.150042 0.133004)
(-0.852174 0.163392 0.131478)
(-0.936331 0.183221 0.127611)
(-1.02873 0.204346 0.127129)
(-1.17176 0.261572 0.145863)
(-1.38272 0.467284 0.151419)
(-1.5656 0.849179 0.128522)
(-1.5978 1.06477 0.112668)
(-1.20813 0.603774 0.104068)
(-0.239317 -0.133104 0.0126522)
(-0.587826 -0.271462 -0.0609311)
(-0.651461 -0.31571 -0.0630166)
(-0.591104 -0.327488 -0.0882767)
(-0.462894 -0.300354 -0.138144)
(-0.313659 -0.0912305 -0.376834)
(0.0799668 0.000796656 -0.000338854)
(0.0800831 0.00189108 -0.00285727)
(0.0803102 0.00336044 -0.00892098)
(0.0810144 0.00550841 -0.0156585)
(0.082463 0.00953292 -0.0204611)
(0.0888673 0.0190724 -0.00479973)
(0.0947848 0.0212711 0.0229443)
(0.0984325 0.0252347 0.0691926)
(0.100256 0.0256466 0.0714631)
(0.100099 0.0119367 0.0466102)
(0.0979298 0.0100631 0.0100737)
(0.10381 0.00698506 -0.0179719)
(0.101596 0.00114387 -0.0532796)
(0.0893085 -0.000408071 -0.0891182)
(0.0738908 -0.000983221 -0.160615)
(0.0514146 -0.00151174 -0.257227)
(0.0323327 -0.00312297 -0.281564)
(0.0164272 0.00444642 -0.288504)
(-0.0101227 0.00835544 -0.314285)
(-0.0369703 0.0062215 -0.326898)
(-0.061415 -0.00830055 -0.324995)
(-0.0586472 -0.0234138 -0.272462)
(-0.0457745 -0.0207737 -0.186244)
(-0.0138469 0.0378562 -0.113762)
(0.00823751 0.0766916 -0.133699)
(-0.00122787 0.0931556 -0.145332)
(-0.00854667 0.103351 -0.170404)
(0.000360664 0.091295 -0.174793)
(0.0485452 0.0695138 -0.212706)
(0.100135 0.0559545 -0.246901)
(0.120548 0.054919 -0.216611)
(0.139569 0.0554064 -0.198067)
(0.166073 0.0488189 -0.194719)
(0.188553 0.0353703 -0.182713)
(0.196496 0.024968 -0.181427)
(0.186909 0.0362282 -0.183982)
(0.169479 0.0613238 -0.145739)
(0.139204 0.0761262 -0.10444)
(0.100777 0.0912333 -0.0684344)
(0.0809763 0.102224 -0.0403998)
(0.0553011 0.115516 0.00598548)
(0.00300005 0.128965 0.0576917)
(-0.0167289 0.138439 0.0715359)
(-0.0398941 0.145708 0.0740627)
(-0.0593257 0.153512 0.0902341)
(-0.0810524 0.164261 0.0927406)
(-0.0971016 0.18009 0.0866452)
(-0.12408 0.202503 0.0503149)
(-0.124573 0.227454 -0.030704)
(-0.180525 0.307212 0.109232)
(-0.261617 0.508859 0.148392)
(-0.302363 0.8318 0.0976998)
(-0.278891 0.942159 0.0877189)
(0.434047 0.338897 0.0662227)
(0.748803 0.0490282 0.0357129)
(0.599964 -0.138377 0.0380447)
(0.453974 -0.196535 0.0316448)
(0.388106 -0.186327 0.019545)
(0.34871 -0.15383 0.021363)
(0.230205 -0.0155042 -0.040979)
(0.0800603 0.000613529 0.000362907)
(0.0805283 0.00130793 -0.000818495)
(0.0813979 0.0023654 -0.00435705)
(0.0826829 0.0041915 -0.00749599)
(0.0848267 0.00739059 -0.0133398)
(0.0918293 0.0142536 -0.0112401)
(0.103604 0.0189379 -0.00136544)
(0.113173 0.0233545 0.0226388)
(0.124978 0.0212111 0.0329554)
(0.13209 0.010275 0.0306338)
(0.130538 0.00721227 0.0212817)
(0.131889 0.00592261 0.00660135)
(0.135206 0.0035485 -0.00579529)
(0.133179 0.00303812 -0.0188757)
(0.13129 0.00527837 -0.0290332)
(0.126205 0.00988656 -0.0437024)
(0.122519 0.00889019 -0.0708604)
(0.119766 0.0108218 -0.141924)
(0.11773 0.0128948 -0.204202)
(0.112618 0.0121112 -0.236146)
(0.110465 0.00251596 -0.243034)
(0.0979078 -0.0100636 -0.241839)
(0.0712728 -0.0134761 -0.20511)
(0.0462882 0.0200295 -0.177872)
(0.0826441 0.0626524 -0.162182)
(0.108059 0.0861122 -0.170991)
(0.139158 0.0924126 -0.193601)
(0.182815 0.0747823 -0.191761)
(0.23151 0.0482947 -0.205589)
(0.262834 0.0359584 -0.221452)
(0.283966 0.0395614 -0.212739)
(0.308922 0.0422169 -0.205351)
(0.332913 0.03826 -0.201715)
(0.349717 0.0304812 -0.191937)
(0.35521 0.026648 -0.178478)
(0.353805 0.0368324 -0.170252)
(0.360194 0.0609261 -0.155262)
(0.37666 0.0826091 -0.134988)
(0.394612 0.0990856 -0.113894)
(0.417768 0.110342 -0.0971384)
(0.437849 0.116272 -0.0729189)
(0.456227 0.124797 -0.031876)
(0.487119 0.130139 -0.00326285)
(0.510135 0.135115 0.0122443)
(0.530324 0.142452 0.0300064)
(0.553628 0.152845 0.040947)
(0.585557 0.169506 0.0451576)
(0.62095 0.189367 0.0335402)
(0.684569 0.223572 -0.0446232)
(0.725409 0.310682 -0.0113514)
(0.767151 0.50912 0.10205)
(0.917989 0.74532 0.084033)
(1.17104 0.69966 0.0661102)
(1.75991 0.26838 0.0494207)
(1.89852 0.0141371 0.0463524)
(1.80717 -0.123181 0.0391093)
(1.68863 -0.179963 0.0217925)
(1.58981 -0.189254 0.00161289)
(1.50582 -0.162203 -0.0175281)
(1.44706 -0.0965885 -0.0479337)
(0.0799444 0.00095261 0.00117034)
(0.0804315 0.00199717 0.000712657)
(0.0817472 0.00304382 -0.00123542)
(0.0841375 0.00446368 -0.00138231)
(0.0872297 0.00678441 -0.00542496)
(0.0942792 0.0109713 -0.00892842)
(0.106639 0.0141175 -0.00916991)
(0.123062 0.0175745 -0.00301254)
(0.14026 0.0158532 0.0020362)
(0.151652 0.00852598 0.00259834)
(0.156603 0.00527881 -0.000419763)
(0.15835 0.00354197 -0.00545267)
(0.156413 0.00257225 -0.0117627)
(0.152791 0.00290628 -0.0200325)
(0.152069 0.00219942 -0.0248071)
(0.153423 0.000925381 -0.0270003)
(0.156395 0.00194329 -0.0266811)
(0.161608 0.00986623 -0.0407418)
(0.173307 0.01268 -0.0713433)
(0.185909 0.00838543 -0.0999046)
(0.197045 -0.00267416 -0.114336)
(0.195566 -0.00893695 -0.11988)
(0.184425 -0.00397307 -0.110222)
(0.161744 0.0196291 -0.134028)
(0.174762 0.045491 -0.159224)
(0.215943 0.0659669 -0.175027)
(0.271249 0.0699434 -0.193996)
(0.32847 0.0549361 -0.190983)
(0.368957 0.0357107 -0.191302)
(0.388652 0.0281396 -0.197113)
(0.404439 0.0303242 -0.193001)
(0.425793 0.0314234 -0.188756)
(0.44633 0.0288532 -0.184457)
(0.461411 0.0240068 -0.175677)
(0.470605 0.0219778 -0.16335)
(0.480008 0.0305927 -0.153672)
(0.501858 0.0493669 -0.143689)
(0.541774 0.0673808 -0.132825)
(0.59364 0.0822982 -0.122093)
(0.653396 0.0940697 -0.113691)
(0.717298 0.101353 -0.104442)
(0.783767 0.107525 -0.0885167)
(0.854841 0.111195 -0.0727143)
(0.926751 0.114862 -0.0603408)
(1.00043 0.11993 -0.0478828)
(1.07763 0.127434 -0.0373744)
(1.16131 0.140158 -0.0277955)
(1.25328 0.15799 -0.0222651)
(1.35726 0.195882 -0.0522575)
(1.49228 0.271563 -0.0671218)
(1.67709 0.432352 -3.69932e-05)
(2.00139 0.59133 0.0248489)
(2.45528 0.500141 0.0195862)
(2.90705 0.197607 0.0111221)
(3.02026 0.00514382 0.00323075)
(2.93758 -0.0961794 -0.00718509)
(2.80516 -0.137864 -0.0221803)
(2.67194 -0.142788 -0.0396493)
(2.56091 -0.12045 -0.0575378)
(2.47209 -0.0662697 -0.0629912)
(0.0802643 -0.00172779 0.000505727)
(0.0808304 -0.00167234 -0.000459308)
(0.0821886 -0.00102369 -0.00100442)
(0.0846301 -9.42757e-06 0.00126962)
(0.0891388 0.00203895 -0.000584809)
(0.0967324 0.00514042 -0.00383151)
(0.108894 0.00714005 -0.00680297)
(0.124747 0.00916316 -0.0122089)
(0.142366 0.00839054 -0.0147579)
(0.154005 0.00459857 -0.0175507)
(0.158624 0.0034238 -0.0204812)
(0.16136 0.00329203 -0.024005)
(0.164215 0.0028547 -0.030143)
(0.167386 0.00253192 -0.0371056)
(0.170565 0.00246533 -0.0390548)
(0.173935 0.00327428 -0.0353202)
(0.178246 0.00402175 -0.0293695)
(0.187635 0.00663264 -0.0244676)
(0.203688 0.00706866 -0.0249761)
(0.21941 0.00448881 -0.0265123)
(0.227631 0.000105094 -0.0247517)
(0.222815 -0.00277511 -0.0234821)
(0.22025 0.000997138 -0.0118058)
(0.214994 0.0173966 -0.0263078)
(0.237454 0.0326057 -0.0661985)
(0.29238 0.0423429 -0.105852)
(0.360867 0.0427921 -0.133289)
(0.421752 0.0336428 -0.137173)
(0.460308 0.0226292 -0.138475)
(0.481332 0.0187396 -0.142788)
(0.500341 0.0203147 -0.143103)
(0.523461 0.0207807 -0.143991)
(0.545567 0.0192842 -0.145152)
(0.563399 0.0165862 -0.143206)
(0.577719 0.015656 -0.13783)
(0.594504 0.0208122 -0.13285)
(0.624488 0.0320127 -0.127675)
(0.674515 0.0431464 -0.121241)
(0.741662 0.0524698 -0.114722)
(0.821645 0.060176 -0.109655)
(0.91155 0.0653468 -0.105538)
(1.00813 0.0696951 -0.100329)
(1.11003 0.0725516 -0.0953549)
(1.21531 0.0754704 -0.0922306)
(1.32459 0.0792393 -0.0901594)
(1.43961 0.0846489 -0.0887757)
(1.56437 0.0933231 -0.0851233)
(1.70374 0.106483 -0.0802896)
(1.86563 0.134416 -0.0895351)
(2.07886 0.189798 -0.0999219)
(2.39437 0.286761 -0.0829692)
(2.8698 0.374258 -0.0634366)
(3.42719 0.298214 -0.0602141)
(3.82351 0.111072 -0.0697434)
(3.9183 -0.0110219 -0.0843706)
(3.82779 -0.0735953 -0.0964198)
(3.67973 -0.0980585 -0.108394)
(3.52516 -0.0995722 -0.122036)
(3.39134 -0.0853589 -0.139294)
(3.26961 -0.0537921 -0.140674)
(0.080159 0.00539988 0.00051813)
(0.0811668 0.00409269 -0.00119095)
(0.0824502 0.00340085 -0.00122099)
(0.0845151 0.00292593 0.00227136)
(0.0888842 0.00298627 0.00050407)
(0.0968267 0.00351227 -0.00191762)
(0.109246 0.00372318 -0.0036348)
(0.124351 0.00384554 -0.0114624)
(0.141475 0.00328842 -0.0151524)
(0.15353 0.0018692 -0.0176742)
(0.159485 0.00105694 -0.0192924)
(0.163573 0.000557745 -0.0207556)
(0.166938 0.000171605 -0.0226852)
(0.169588 2.66604e-05 -0.0238633)
(0.172455 -0.000223675 -0.020708)
(0.176865 -0.000560653 -0.0139235)
(0.185359 -0.000724183 -0.00500563)
(0.193438 0.000145611 0.00526889)
(0.203785 0.0012171 0.0124951)
(0.213969 0.00119045 0.0191181)
(0.217653 -0.000569004 0.0244144)
(0.213353 -0.00156154 0.0272728)
(0.207096 0.000850924 0.0353602)
(0.217972 0.00663681 0.0388518)
(0.260418 0.0113088 0.0270677)
(0.327421 0.0151409 0.00155694)
(0.397904 0.0151873 -0.0186514)
(0.460971 0.0128259 -0.0211841)
(0.502196 0.00964437 -0.0201727)
(0.52796 0.00854054 -0.0212867)
(0.55225 0.00940547 -0.0226133)
(0.579799 0.00954645 -0.0255533)
(0.605485 0.00919134 -0.0290422)
(0.626967 0.00848844 -0.0298295)
(0.645857 0.00807813 -0.0276605)
(0.668409 0.00978029 -0.0269804)
(0.70537 0.0140709 -0.0291247)
(0.764037 0.0185523 -0.031254)
(0.842173 0.0223305 -0.0332664)
(0.935392 0.0254304 -0.0360589)
(1.04056 0.0274969 -0.0389355)
(1.15437 0.029185 -0.0413839)
(1.27467 0.0303262 -0.0439737)
(1.40017 0.0315597 -0.0484215)
(1.5314 0.033198 -0.0546332)
(1.67037 0.0355195 -0.0617784)
(1.82211 0.0391192 -0.066928)
(1.99346 0.0447533 -0.0706585)
(2.19875 0.0562277 -0.0827961)
(2.4725 0.0789712 -0.099625)
(2.87803 0.11733 -0.113157)
(3.45838 0.149276 -0.119856)
(4.06461 0.120116 -0.124944)
(4.444 0.0541493 -0.135733)
(4.52862 0.0104589 -0.147396)
(4.43495 -0.0125865 -0.154127)
(4.27923 -0.0226524 -0.160284)
(4.11236 -0.0249381 -0.169071)
(3.96345 -0.0216906 -0.183756)
(3.82177 -0.0119034 -0.179701)
(0.079821 -0.00518185 -0.000819065)
(0.0794893 -0.00364821 -0.00124037)
(0.0784636 -0.00258649 -0.00413424)
(0.0767866 -0.00160297 -0.0080059)
(0.0735265 -0.000200001 -0.0146509)
(0.0787613 0.00193743 -0.0176933)
(0.0838992 0.00156332 -0.0118544)
(0.0977628 -0.00333287 0.0321042)
(0.116979 -0.0147147 0.066409)
(0.127906 -0.0139044 0.084563)
(0.133127 -0.00942426 0.0879321)
(0.135265 -0.00431085 0.0941923)
(0.126603 0.00474709 0.0949853)
(0.118058 0.00887592 0.0967647)
(0.115135 0.00999252 0.0976159)
(0.117598 0.00728131 0.104572)
(0.127401 0.00533594 0.113597)
(0.137989 0.00732524 0.132589)
(0.152771 0.00740123 0.160418)
(0.17089 0.00495007 0.193389)
(0.185804 0.00276086 0.212674)
(0.199459 0.0034971 0.234766)
(0.186401 0.00975715 0.231964)
(0.138476 0.0239467 0.237584)
(0.0578347 0.0096592 0.203652)
(0.123371 -0.0222639 0.134102)
(0.154905 -0.0363173 0.110157)
(0.195325 -0.0410215 0.0642618)
(0.222016 -0.0218752 0.0415998)
(0.161114 0.0022029 0.0571435)
(0.163538 0.0075938 0.042421)
(0.108127 0.0189812 0.0449858)
(0.0685822 0.0199972 0.0609499)
(0.036679 0.0157494 0.0888413)
(0.021959 0.0113789 0.105133)
(0.0230935 0.000253223 0.111217)
(0.0603478 -0.015418 0.110427)
(0.118878 -0.0272234 0.119386)
(0.183067 -0.0369356 0.132123)
(0.25287 -0.0430136 0.136217)
(0.323829 -0.0469939 0.131545)
(0.393758 -0.0498256 0.123266)
(0.464521 -0.0517187 0.111346)
(0.535954 -0.0537352 0.0991841)
(0.61188 -0.0564976 0.0840361)
(0.680118 -0.060129 0.0792588)
(0.765455 -0.0578094 0.0566134)
(0.862504 -0.0598188 0.0559106)
(1.04114 -0.110974 0.0735101)
(1.17876 -0.265579 0.0791884)
(1.60303 -0.401369 0.186418)
(1.869 -0.233485 0.389689)
(0.794693 0.272889 0.637151)
(-1.01147 0.208171 1.01886)
(-1.86085 -0.0653597 1.20085)
(-2.34963 -0.241813 1.29464)
(-2.53389 -0.352964 1.40232)
(-2.59295 -0.438552 1.5461)
(-2.59051 -0.546542 1.70372)
(-2.5071 -0.730433 1.95588)
(0.079897 0.00245071 0.000477131)
(0.0790843 0.00304588 -0.000130068)
(0.0780395 0.00306968 -0.00224277)
(0.0765607 0.00294013 -0.00602635)
(0.0732576 0.00262611 -0.00844926)
(0.0752353 -0.00384716 0.0122388)
(0.0767301 -0.00870389 0.0451375)
(0.0908906 -0.00573672 0.169715)
(0.0529713 0.00706943 0.303367)
(-0.0234151 0.0146655 0.345433)
(-0.0507084 0.00751361 0.334573)
(-0.0614935 0.00236961 0.334148)
(-0.0564674 -0.00143455 0.309879)
(-0.0418282 -0.00653112 0.282729)
(-0.0189484 -0.00964113 0.260297)
(0.00884102 -0.0140235 0.241197)
(0.0334647 -0.0149798 0.250525)
(0.0520694 -0.0193861 0.304297)
(0.060664 -0.0205767 0.347287)
(0.065035 -0.0183605 0.345543)
(0.0600867 -0.014746 0.331282)
(0.0601324 -0.00649447 0.36564)
(0.0513048 0.0129102 0.284604)
(0.0526632 0.0221299 0.221377)
(0.0303564 -0.0161772 0.160167)
(0.00842781 -0.0214627 0.0974424)
(-0.0893061 -0.00381476 0.0960211)
(-0.171231 0.00102342 0.087026)
(-0.227205 0.0213861 0.116623)
(-0.25219 0.0210034 0.133408)
(-0.263175 0.0168091 0.125661)
(-0.279057 0.0247343 0.126464)
(-0.306068 0.0196668 0.133236)
(-0.339102 0.00902393 0.137006)
(-0.37378 -0.00271857 0.13415)
(-0.404916 -0.0152226 0.135418)
(-0.447182 -0.0225035 0.146721)
(-0.510459 -0.0183236 0.164717)
(-0.61538 -0.0126633 0.180944)
(-0.74085 -0.0100119 0.192263)
(-0.881405 -0.00815624 0.201214)
(-1.03164 -0.00728705 0.209227)
(-1.18821 -0.00654887 0.216601)
(-1.35078 -0.00655854 0.225122)
(-1.52015 -0.00731628 0.235126)
(-1.69851 -0.00779226 0.247904)
(-1.8812 -0.00654767 0.258156)
(-2.05686 -0.0136734 0.270762)
(-2.24634 -0.0398508 0.261322)
(-2.58319 -0.0458033 0.23832)
(-3.16375 0.148059 0.274582)
(-3.70354 0.583842 0.342506)
(-4.65874 0.936623 0.302269)
(-6.26067 0.878476 0.184589)
(-7.48797 0.633942 0.0229452)
(-8.12979 0.479022 -0.0938506)
(-8.37313 0.39745 -0.150147)
(-8.42007 0.3852 -0.163257)
(-8.44912 0.416193 -0.168055)
(-8.60048 0.49316 -0.181572)
(0.0795627 0.000111748 0.00162659)
(0.0787014 0.00030363 0.000568835)
(0.0776521 0.000665039 -0.00133972)
(0.0754328 0.00152956 -0.00211489)
(0.0681671 0.0044537 0.010135)
(0.05763 0.000982372 0.102212)
(0.0333303 -0.00448511 0.158848)
(0.0106446 0.0129671 0.246263)
(-0.0154929 0.0290096 0.256566)
(-0.0473572 0.0194884 0.214671)
(-0.0489356 0.000372306 0.145353)
(-0.0307086 -0.0023289 0.0472106)
(-0.0276454 -0.00421616 -0.0485931)
(-0.0158475 -0.00645102 -0.0984978)
(-0.00477759 -0.0101034 -0.122166)
(0.0119614 -0.0117954 -0.102511)
(0.00159636 -0.0118659 -0.0671574)
(0.0279747 -0.0063809 0.0730855)
(0.00820659 -0.00412123 0.192747)
(-0.0272754 -0.00435439 0.213689)
(-0.0556312 -0.00554682 0.210145)
(-0.067832 -0.0012153 0.221571)
(-0.0526736 0.00857459 0.196813)
(-0.0463592 0.0285695 0.136685)
(-0.133271 0.0201578 0.0543286)
(-0.217481 0.0206587 0.0247448)
(-0.298589 0.0226771 0.0293904)
(-0.390861 0.0167767 0.0386146)
(-0.463765 0.0259087 0.059229)
(-0.522616 0.0310618 0.075904)
(-0.577874 0.0346353 0.0808246)
(-0.630687 0.0476037 0.0880943)
(-0.691321 0.0493962 0.0967536)
(-0.753532 0.0434765 0.104203)
(-0.808538 0.0333055 0.108569)
(-0.850563 0.0201053 0.113572)
(-0.883292 0.0132418 0.121086)
(-0.932217 0.0222912 0.130301)
(-1.00508 0.0350186 0.144879)
(-1.10494 0.0448944 0.163954)
(-1.22497 0.0518843 0.185101)
(-1.3595 0.0558949 0.204904)
(-1.50394 0.0590921 0.222366)
(-1.6571 0.0611203 0.239709)
(-1.81899 0.0619646 0.258045)
(-1.99208 0.0631221 0.277063)
(-2.17814 0.0670303 0.298635)
(-2.37725 0.0648031 0.328322)
(-2.59787 0.0361352 0.351265)
(-2.88953 0.00948551 0.34377)
(-3.30725 0.182137 0.303595)
(-3.78236 0.71837 0.24944)
(-4.24832 1.2158 0.222743)
(-4.51261 1.03594 0.276236)
(-3.99971 0.456876 0.442935)
(-2.84001 -0.02431 0.711165)
(-1.96484 -0.26904 1.07951)
(-1.69572 -0.364364 1.41884)
(-1.69396 -0.399353 1.75608)
(-1.90442 -0.255619 1.96789)
(0.0797518 0.000685507 0.000712767)
(0.0791672 0.00167852 -0.0021439)
(0.0788341 0.00257751 -0.00631192)
(0.0786098 0.00388113 -0.00931992)
(0.0755719 0.0102541 -0.00312233)
(0.0736071 0.0182777 0.0498817)
(0.05798 0.0121952 0.146745)
(0.0323788 0.0139146 0.212659)
(0.00891794 0.0279727 0.164517)
(0.00122479 0.0255122 0.0735464)
(-0.005743 7.42274e-05 -0.168705)
(-0.0126529 -0.00464131 -0.210838)
(-0.0109285 -0.0124089 -0.21676)
(-0.00777963 -0.0197313 -0.250031)
(-0.0110061 -0.0246922 -0.270211)
(-0.013882 -0.021817 -0.252576)
(-0.0419343 -0.0213578 -0.231114)
(-0.0568825 -0.0101438 -0.211474)
(-0.0628626 -0.00138992 -0.186209)
(-0.0639055 0.00251191 -0.13104)
(-0.0717757 -0.000928091 -0.0525321)
(-0.0719611 -0.00521732 0.00382489)
(-0.084542 0.00938163 0.0568996)
(-0.0657926 0.0521984 0.0333768)
(-0.124894 0.0581518 -0.0416121)
(-0.197006 0.0609958 -0.049289)
(-0.271471 0.0702159 -0.0460766)
(-0.350643 0.0700949 -0.0359149)
(-0.423252 0.0651789 -0.0234092)
(-0.476798 0.0485046 0.000795704)
(-0.511502 0.043531 0.0204636)
(-0.536874 0.054417 0.0333314)
(-0.552162 0.0535337 0.0419278)
(-0.56115 0.0413177 0.0466806)
(-0.565807 0.0215752 0.0466092)
(-0.569301 0.000620085 0.0544205)
(-0.590521 0.00243712 0.0742954)
(-0.647052 0.0283996 0.0903722)
(-0.721922 0.0523095 0.105493)
(-0.80532 0.0709583 0.123589)
(-0.899556 0.0843644 0.144385)
(-1.00207 0.0930852 0.160101)
(-1.11085 0.100989 0.168838)
(-1.22545 0.107408 0.176451)
(-1.34524 0.113309 0.184635)
(-1.47207 0.121302 0.189378)
(-1.60738 0.134765 0.191987)
(-1.75234 0.150892 0.19628)
(-1.91688 0.157797 0.199891)
(-2.1495 0.182395 0.207461)
(-2.48045 0.364542 0.211927)
(-2.81006 0.820786 0.185647)
(-2.99207 1.19913 0.165236)
(-2.76679 0.850868 0.176828)
(-1.92303 0.0963469 0.151994)
(-1.48841 -0.210141 0.0711224)
(-1.54414 -0.0784298 0.10584)
(-1.47714 0.0838472 0.156181)
(-1.40326 0.198609 0.245426)
(-1.44728 0.243063 0.390995)
(0.0798297 0.000738242 -0.000225305)
(0.0795232 0.00162543 -0.00376423)
(0.079505 0.00222055 -0.0103881)
(0.0800998 0.00360526 -0.0169896)
(0.0793161 0.00825234 -0.015507)
(0.0827136 0.0199273 0.0170718)
(0.0837684 0.0213031 0.0642762)
(0.0716536 0.0267036 0.127635)
(0.0561091 0.0275075 0.117168)
(0.0496682 0.0146993 0.0475477)
(0.0555764 0.00207327 -0.134872)
(0.0480528 -0.00433609 -0.201298)
(0.033951 -0.00916573 -0.200717)
(0.0184588 -0.0118643 -0.241546)
(-0.00965648 -0.01498 -0.283032)
(-0.0410549 -0.00707397 -0.296647)
(-0.0714115 -0.00265826 -0.314977)
(-0.104326 -0.00216731 -0.340671)
(-0.128809 -0.00156682 -0.336909)
(-0.143865 0.000642953 -0.313137)
(-0.145597 0.00135658 -0.2742)
(-0.127341 0.00133749 -0.223064)
(-0.0928107 0.0129027 -0.094124)
(-0.054775 0.0564038 -0.0604869)
(-0.0669534 0.0777669 -0.0973663)
(-0.108521 0.0874554 -0.107859)
(-0.148384 0.0982989 -0.125747)
(-0.175732 0.099163 -0.142248)
(-0.160064 0.0919153 -0.189648)
(-0.102752 0.0670024 -0.215063)
(-0.111046 0.0527844 -0.139905)
(-0.123878 0.0550328 -0.119849)
(-0.100484 0.0509148 -0.130666)
(-0.0740475 0.0396061 -0.11774)
(-0.0450817 0.0292284 -0.14118)
(-0.0498547 0.0240443 -0.141093)
(-0.137385 0.0297618 -0.0476706)
(-0.238642 0.0542943 0.0121922)
(-0.319382 0.0774724 0.0382981)
(-0.380248 0.0962044 0.0624615)
(-0.443577 0.113203 0.0918217)
(-0.507282 0.123297 0.113448)
(-0.57373 0.132056 0.120025)
(-0.642929 0.138681 0.1256)
(-0.713165 0.144952 0.134131)
(-0.786728 0.15351 0.136695)
(-0.863961 0.166405 0.135203)
(-0.945986 0.183617 0.131085)
(-1.03385 0.200405 0.130303)
(-1.17451 0.257252 0.149115)
(-1.39025 0.46124 0.155129)
(-1.5892 0.850282 0.133636)
(-1.65258 1.08659 0.119731)
(-1.30019 0.632259 0.110616)
(-0.282346 -0.142348 0.00924373)
(-0.605556 -0.273319 -0.0638187)
(-0.645955 -0.31473 -0.0623008)
(-0.579893 -0.324593 -0.0836538)
(-0.442255 -0.300782 -0.12617)
(-0.26723 -0.0946928 -0.370053)
(0.0799415 0.000825118 -0.000341728)
(0.0799652 0.00185904 -0.00286567)
(0.0801403 0.00282231 -0.00895356)
(0.0809093 0.00452131 -0.0157438)
(0.0822455 0.0080861 -0.0206351)
(0.0883882 0.018041 -0.00506322)
(0.0954125 0.0220201 0.0224861)
(0.0988489 0.0258197 0.0690199)
(0.10082 0.0264643 0.0725846)
(0.101381 0.0131484 0.0479297)
(0.0996731 0.0110952 0.00909921)
(0.103145 0.0056521 -0.0201686)
(0.100036 -0.00051559 -0.0552467)
(0.087367 -0.00152908 -0.089864)
(0.0724303 -0.0018029 -0.161992)
(0.0501357 -0.00243526 -0.257788)
(0.0311621 -0.00377343 -0.280908)
(0.0150561 0.00456466 -0.28739)
(-0.0116815 0.00880594 -0.312675)
(-0.0386944 0.00675112 -0.324908)
(-0.0635267 -0.00756637 -0.323366)
(-0.0614641 -0.0226927 -0.271126)
(-0.0487574 -0.0203016 -0.184346)