/*--------------------------------*- C++ -*----------------------------------*\
  =========                 |
  \\      /  F ield         | OpenFOAM: The Open Source CFD Toolbox
   \\    /   O peration     | Website:  https://openfoam.org
    \\  /    A nd           | Version:  8
     \\/     M anipulation  |
\*---------------------------------------------------------------------------*/
FoamFile
{
    version     2.0;
    format      ascii;
    class       volScalarField;
    location    "900";
    object      alphat;
}
// * * * * * * * * * * * * * * * * * * * * * * * * * * * * * * * * * * * * * //

dimensions      [1 -1 -1 0 0 0 0];

internalField   nonuniform List<scalar> 
1200
(
0.00939387
0.00929276
0.00919159
0.00907884
0.00895688
0.00885075
0.00875036
0.00864714
0.00854614
0.00841803
0.00844336
0.00864569
0.00885149
0.00890281
0.00867589
0.00750501
0.00747803
0.00823402
0.00877769
0.00963654
0.0108101
0.0123074
0.0139113
0.0153091
0.00613103
0.0062876
0.0064447
0.00656846
0.00667462
0.00678365
0.00691119
0.00705634
0.007218
0.00739429
0.00755768
0.00770603
0.00783847
0.00794298
0.00799946
0.00802986
0.00809037
0.00812794
0.00807955
0.00833289
0.0086307
0.00879382
0.00845602
0.00783305
0.00821138
0.00844603
0.00954428
0.00960067
0.00937128
0.00789537
0.00921501
0.0101548
0.0107778
0.0110111
0.0104105
0.0299294
0.00728563
0.00631608
0.00549794
0.00478388
0.00416973
0.00365458
0.00324634
0.00293073
0.00274669
0.00252425
0.00300387
0.00391811
0.00373094
0.00362044
0.00276836
0.00296769
0.00497189
0.00737401
0.00662595
0.0047885
0.00543222
0.00681686
0.00829439
0.00972354
0.0108183
0.0112661
0.0113116
0.0113662
0.0114592
0.0115722
0.0116985
0.0118708
0.0120223
0.0122078
0.0125411
0.0129464
0.0134924
0.014679
0.00368854
0.0035199
0.0151005
0.0145827
0.0119659
0.00357796
0.00424154
0.00485847
0.00470878
0.00431408
0.00430717
0.00470416
0.00426447
0.00423192
0.00381131
0.00385831
0.00417575
0.00429956
0.00497121
0.00596725
0.00614687
0.0104087
0.00727339
0.00627102
0.00541346
0.00465858
0.004006
0.00345219
0.00298976
0.00259816
0.00228985
0.00205547
0.00229588
0.00286014
0.00251221
0.00200042
0.00173752
0.00374994
0.00736999
0.0103764
0.0105211
0.00844035
0.00864286
0.0100558
0.0121869
0.0140619
0.0146087
0.0144033
0.0139347
0.0141096
0.0142875
0.0144801
0.0147129
0.0149877
0.0152522
0.0154282
0.015495
0.0154738
0.0152212
0.0146469
0.0151891
0.0155398
0.00372053
0.00412438
0.00416943
0.00406676
0.00429655
0.00474847
0.0051989
0.00611701
0.00590755
0.00440068
0.00466236
0.00537121
0.00679355
0.00654577
0.005603
0.00723168
0.00947266
0.00947863
0.0122189
0.0174708
0.00727173
0.00627649
0.00542437
0.00466982
0.0040121
0.00345477
0.00298528
0.00257841
0.00222851
0.00194459
0.00199691
0.00236231
0.00232879
0.00199912
0.00161919
0.00590373
0.0111693
0.0121698
0.0133731
0.0143648
0.0148725
0.0151896
0.0153791
0.0155693
0.0156489
0.0156115
0.0155203
0.0152851
0.0149721
0.0148199
0.0151438
0.0155163
0.00376518
0.00394666
0.00413962
0.00434007
0.00454466
0.00473378
0.0049148
0.00518205
0.00556153
0.00592672
0.0062159
0.00652713
0.00697972
0.00752218
0.0081383
0.00868191
0.00901937
0.00917061
0.00949913
0.0102402
0.0109774
0.0111032
0.010403
0.00975689
0.0094319
0.0100625
0.015976
0.0240678
0.00727455
0.00628192
0.00542989
0.00467397
0.00401493
0.00345604
0.00298055
0.00257836
0.00222888
0.00193146
0.00180855
0.00194158
0.00201134
0.00191928
0.00173508
0.00267844
0.00464711
0.00666406
0.0103377
0.0124661
0.0135319
0.014176
0.0145746
0.0147555
0.0148005
0.0148105
0.0146772
0.0143497
0.0141445
0.0144928
0.014968
0.0153589
0.00366518
0.00387173
0.00407789
0.00429552
0.0045578
0.00486385
0.0051547
0.00546214
0.00580311
0.0061501
0.00658426
0.00705986
0.00753009
0.00806981
0.00868253
0.00941026
0.0102064
0.0109198
0.0115744
0.0123669
0.0132826
0.0142438
0.0152919
0.0163935
0.0176847
0.0189236
0.0213992
0.0261589
0.00728239
0.00628901
0.00543563
0.00468073
0.00402144
0.00345826
0.00297852
0.00257857
0.00223483
0.00193765
0.00173109
0.00167773
0.00167419
0.00163791
0.00156432
0.00173514
0.00282214
0.00394462
0.00563081
0.00780705
0.00989835
0.0116136
0.0126975
0.0127123
0.0130457
0.0137874
0.0139131
0.0137419
0.0134694
0.0133991
0.0134747
0.0134579
0.0134429
0.013444
0.0133084
0.0140719
0.0170342
0.00415566
0.00440257
0.00456036
0.00457946
0.00467201
0.00517965
0.00571641
0.00614259
0.00652295
0.00700247
0.00779535
0.00884784
0.00982676
0.0106447
0.0113552
0.0120904
0.0131168
0.0145575
0.0160438
0.0176225
0.0195699
0.0222854
0.0264716
0.00729171
0.00629642
0.00544232
0.00468995
0.00403041
0.00346335
0.00298129
0.00258098
0.00224319
0.00194906
0.00171323
0.00156353
0.00146866
0.00139686
0.0013326
0.00138394
0.00183673
0.0022585
0.00330462
0.00471226
0.00630773
0.00801584
0.00915651
0.00947226
0.00966749
0.0103705
0.0111365
0.0115358
0.0117728
0.0119368
0.0119077
0.0115913
0.0112768
0.0108304
0.00985226
0.0103877
0.0111613
0.0125941
0.0149491
0.0166037
0.012835
0.0130265
0.0149882
0.00382734
0.004257
0.00403898
0.0156274
0.00401846
0.00539022
0.00685612
0.00781746
0.00797371
0.00777313
0.00888304
0.0109526
0.0129766
0.0146978
0.0169721
0.0204889
0.025493
0.007298
0.00629942
0.00544096
0.00468603
0.00402519
0.00346108
0.00298636
0.00259011
0.00225397
0.00196222
0.00171914
0.00153534
0.00139456
0.00128115
0.00119497
0.00117698
0.00132244
0.00147733
0.00190721
0.00268513
0.00364962
0.00473363
0.00551364
0.00580954
0.00640545
0.00766171
0.00903699
0.0100873
0.0107441
0.0111004
0.0112412
0.0112184
0.0111018
0.0109395
0.0107818
0.0106841
0.0106817
0.0108929
0.0112992
0.0113394
0.0112007
0.0109722
0.0108566
0.011055
0.012022
0.0130748
0.0125832
0.0125783
0.00373948
0.00443609
0.00495934
0.00523312
0.00489588
0.0043149
0.00446194
0.00697133
0.00938065
0.0111678
0.0143001
0.0177353
0.00730996
0.00634627
0.00552764
0.00481389
0.00417909
0.00362112
0.00315541
0.00276971
0.0024394
0.00214354
0.00188459
0.00167434
0.00150782
0.0013744
0.00126504
0.00118054
0.00116057
0.0011799
0.00130378
0.00157981
0.00199261
0.00250341
0.00292176
0.00306554
0.00321106
0.00387059
0.0050242
0.00628491
0.00733123
0.00802849
0.0083937
0.00851686
0.00847491
0.00837603
0.00835196
0.00844162
0.00862767
0.0088532
0.00906684
0.00917512
0.00921812
0.00924558
0.0093607
0.00952721
0.00968717
0.00984455
0.0102448
0.0103195
0.010535
0.0109489
0.0117382
0.0131023
0.0134913
0.0142003
0.0142896
0.0157618
0.0043087
0.0056569
0.0079278
0.00976999
0.0093963
0.00932217
0.00923638
0.00912575
0.00898815
0.00884877
0.00870562
0.00856732
0.00838996
0.00812291
0.00780109
0.00754511
0.00740572
0.00735805
0.00732755
0.0070632
0.00682215
0.00671036
0.00660975
0.006574
0.00666971
0.00690604
0.00726566
0.00774006
0.00827342
0.00882913
0.00949396
0.0103012
0.011196
0.0121348
0.0131061
0.0141173
0.0152096
0.00617978
0.00641538
0.00664706
0.00685386
0.00705616
0.00726059
0.00750325
0.00777239
0.00801387
0.00821824
0.00841861
0.00863823
0.00894486
0.00926881
0.0095356
0.00976766
0.00996802
0.010112
0.0102374
0.0105805
0.0109339
0.0112189
0.011457
0.0117714
0.012151
0.0126833
0.0134943
0.00936942
0.00928172
0.00919115
0.00907309
0.00893904
0.00883522
0.00874439
0.00864889
0.00854848
0.00842003
0.00844427
0.00864933
0.00885826
0.00891862
0.00871402
0.00752125
0.00747556
0.00824037
0.00878759
0.0096164
0.0107742
0.0122649
0.013878
0.0152906
0.00612876
0.00628536
0.00644325
0.00656876
0.00667523
0.00678462
0.00691308
0.00705915
0.00722097
0.00739727
0.00756141
0.00771213
0.007846
0.00794864
0.00800609
0.00800218
0.00795893
0.00797112
0.00807016
0.00837276
0.00870504
0.008891
0.00873622
0.00789468
0.00810724
0.00830045
0.00946688
0.00953397
0.00950791
0.00835547
0.00863402
0.00982281
0.0106024
0.0108935
0.0108907
0.0335253
0.0072818
0.00632068
0.00550096
0.00478423
0.00417121
0.00365784
0.00323775
0.00292382
0.00274192
0.00252726
0.00299179
0.00390462
0.00372813
0.00362799
0.00278215
0.00296177
0.00498008
0.00738381
0.00679942
0.00485291
0.00540956
0.00677434
0.00824156
0.00967347
0.0107844
0.0112497
0.0112962
0.0113419
0.0114335
0.0115457
0.0116567
0.0118125
0.0119589
0.0121497
0.0124907
0.0129108
0.0135381
0.0149249
0.0035359
0.0163467
0.0152576
0.0143642
0.0129415
0.0156627
0.00413829
0.00505237
0.0049552
0.00442421
0.00425866
0.00453908
0.00419071
0.00439855
0.00389223
0.00391871
0.00383426
0.00430391
0.00478862
0.00605234
0.00623018
0.0102146
0.00727407
0.00627957
0.00541704
0.00465977
0.0040092
0.00345926
0.00298941
0.0025969
0.0022889
0.00205564
0.00228639
0.00284936
0.00251238
0.00200516
0.00176537
0.00373557
0.00737478
0.0103815
0.0106009
0.00855444
0.00866275
0.00999807
0.0120715
0.0139811
0.0145385
0.0143459
0.0138913
0.0140636
0.0142441
0.0144427
0.0146826
0.0149591
0.0152139
0.0153665
0.0154098
0.0153846
0.0152101
0.0146119
0.0151012
0.0155919
0.0161139
0.00393939
0.00408097
0.00393812
0.00424636
0.00476355
0.00522497
0.00626601
0.00603808
0.00435816
0.00465269
0.00544399
0.00688664
0.0066616
0.00581049
0.0074334
0.00955391
0.00967979
0.0125612
0.0177616
0.00728067
0.00628831
0.00542961
0.00467212
0.00401572
0.00345809
0.00298284
0.0025776
0.00222895
0.00194466
0.00198959
0.00235212
0.00232353
0.00199816
0.00161775
0.00584217
0.0111543
0.012151
0.0133443
0.0143413
0.0148505
0.0151572
0.0153342
0.015522
0.0155992
0.0155502
0.0154438
0.015189
0.0148791
0.0147852
0.015134
0.0155163
0.00376314
0.00394626
0.00414023
0.00434589
0.00455765
0.00476526
0.0049533
0.00521051
0.00556968
0.00593257
0.00621916
0.00652998
0.00699872
0.00755575
0.00817048
0.00871768
0.00906451
0.00924648
0.0095907
0.0103237
0.0110767
0.0112623
0.0106238
0.00996196
0.00962242
0.0101872
0.0160272
0.023366
0.00729014
0.00629447
0.00543261
0.00467374
0.00401697
0.00345693
0.00297889
0.00257656
0.0022289
0.00193166
0.00180503
0.00193446
0.00200487
0.00191492
0.0017305
0.00260216
0.00469618
0.00675365
0.0104523
0.0124465
0.0135103
0.0141565
0.014549
0.0147228
0.0147528
0.0147398
0.014583
0.0142543
0.0141043
0.0144941
0.0149934
0.0154702
0.016004
0.00386769
0.00407756
0.00429866
0.00455227
0.00485798
0.00515436
0.00546208
0.00580006
0.00615611
0.00658829
0.00705461
0.00752873
0.00806954
0.0086749
0.00940016
0.0102037
0.0109317
0.0115988
0.0123934
0.0133059
0.0142668
0.0153293
0.0164531
0.0177592
0.0189967
0.0214171
0.0261137
0.0072975
0.00630062
0.00543834
0.00467914
0.00401992
0.00345634
0.00297893
0.00257757
0.00223473
0.00193778
0.00172967
0.00167442
0.00167008
0.00163493
0.00156229
0.00176818
0.00283635
0.00398637
0.0056856
0.00783384
0.00991114
0.0116252
0.0126935
0.0127177
0.0130056
0.0137228
0.0138364
0.0136559
0.0133798
0.0133262
0.0134058
0.0133919
0.0133908
0.0133745
0.0133255
0.0144803
0.0171084
0.00409874
0.00436513
0.00454315
0.0045875
0.0046862
0.00518264
0.00571441
0.00612071
0.00648206
0.00696371
0.00776803
0.00883864
0.00982652
0.0106488
0.0113609
0.0120923
0.0131151
0.0145683
0.0160668
0.0176526
0.0195989
0.0222802
0.0264201
0.00730043
0.00630599
0.00544595
0.00468855
0.00402626
0.00346014
0.00298209
0.00258112
0.0022424
0.00194805
0.00171193
0.00156247
0.00146751
0.00139604
0.00133451
0.00139609
0.00182383
0.00228041
0.00335232
0.00473664
0.00631603
0.00801771
0.00913906
0.00946076
0.00968978
0.0104383
0.0112208
0.0115981
0.0118087
0.0119554
0.0119193
0.0116096
0.011317
0.0109386
0.00995118
0.0106728
0.0114399
0.0124538
0.0149011
0.0168378
0.0127631
0.0129619
0.0149355
0.00379486
0.00428251
0.00411052
0.0163011
0.00404557
0.0053748
0.00684221
0.00781647
0.00796734
0.00776322
0.00888022
0.010959
0.0129927
0.0147226
0.0169829
0.0204794
0.0254532
0.00730037
0.00630568
0.00544316
0.00468263
0.00401927
0.00345914
0.00299024
0.00259461
0.00225434
0.00196082
0.00171919
0.00153431
0.00139183
0.00127885
0.0011966
0.00118495
0.00132132
0.00147855
0.00193593
0.0027134
0.00366327
0.00473426
0.00549337
0.00579621
0.00644415
0.00774904
0.00914111
0.0101852
0.0108228
0.0111563
0.0112827
0.0112515
0.011126
0.0109628
0.0108072
0.0107165
0.0107234
0.0109376
0.0113053
0.011371
0.0112537
0.0110228
0.0109227
0.0110977
0.0118812
0.0132962
0.0128766
0.0129032
0.00355518
0.00438902
0.00488627
0.00520373
0.00489302
0.00431768
0.00448679
0.00700231
0.00943803
0.0112235
0.0143425
0.0177288
0.00731176
0.00635223
0.00553165
0.00481166
0.00417075
0.00361687
0.00315916
0.00277769
0.00244321
0.00214441
0.00188493
0.00167318
0.00150722
0.00137566
0.00126626
0.00118086
0.00116086
0.00118297
0.00131508
0.00159312
0.00200527
0.00251085
0.00291576
0.00305088
0.00321572
0.00392543
0.00511557
0.00637889
0.00740142
0.00806783
0.00840903
0.00851432
0.00846261
0.00836705
0.00835653
0.00845635
0.00864667
0.00887597
0.00908476
0.00919216
0.00922766
0.00926325
0.0093833
0.00955248
0.00969759
0.00986836
0.0103391
0.0103703
0.0104857
0.0109044
0.0119291
0.0132613
0.0136165
0.014256
0.0143105
0.0157145
0.00435482
0.00571725
0.00798039
0.00978047
0.00940016
0.0093104
0.00921263
0.00909993
0.00897878
0.0088624
0.00873731
0.00859805
0.00840538
0.00814413
0.00781927
0.00754973
0.00741179
0.00737785
0.00734973
0.00707331
0.00682498
0.00670301
0.00658389
0.0065512
0.00665066
0.00689288
0.00725096
0.00771507
0.00823109
0.00878229
0.0094667
0.0102951
0.0111996
0.0121382
0.0131064
0.0141168
0.0152149
0.00618395
0.00642098
0.00665463
0.00686081
0.00705931
0.007269
0.00751244
0.00777042
0.00800845
0.00821021
0.0084165
0.0086439
0.0089708
0.00927015
0.00952394
0.0097387
0.0099423
0.0101214
0.0102629
0.0106023
0.0109557
0.0112247
0.0114602
0.011773
0.0121549
0.0126961
0.0135006
)
;

boundaryField
{
    wall
    {
        type            compressible::alphatJayatillekeWallFunction;
        Prt             0.85;
        value           uniform 0;
    }
    inlet
    {
        type            calculated;
        value           uniform 0.189515;
    }
    outlet
    {
        type            calculated;
        value           nonuniform List<scalar> 
20
(
8.06525
0.0104087
0.0174707
8.06525
8.06525
8.06525
8.06525
0.0177353
0.00976999
0.0134943
8.06525
0.0102145
0.0177615
8.06525
8.06525
8.06525
8.06525
0.0177288
0.00978047
0.0135006
)
;
    }
    heatWall
    {
        type            compressible::alphatJayatillekeWallFunction;
        Prt             0.85;
        value           nonuniform List<scalar> 
240
(
0.000413712
0.000413889
0.000410837
0.000410731
0.000407908
0.000407293
0.000404186
0.000403484
0.000399649
0.000399585
0.000395155
0.000395796
0.000390805
0.000391709
0.000386074
0.000386759
0.000379345
0.000379767
0.000369699
0.000370261
0.000357888
0.00035828
0.000348252
0.000348442
0.000343158
0.000343593
0.000341749
0.000342512
0.000340726
0.000341535
0.000330788
0.000331247
0.000321371
0.000321704
0.000316783
0.000316554
0.000312641
0.000311674
0.000311607
0.000310702
0.00031544
0.000314893
0.000324433
0.000324279
0.000337579
0.000337453
0.000354574
0.000354021
0.000373317
0.000372283
0.00039294
0.000391938
0.000416474
0.000416145
0.000444301
0.000444493
0.000474122
0.000474436
0.000504514
0.000504725
0.000535263
0.000535338
0.000566712
0.000566757
0.000600167
0.000600406
0.000625726
0.000626282
0.000652785
0.000653348
0.000679406
0.000679959
0.00070303
0.000703776
0.00072582
0.000726433
0.000749701
0.000750235
0.000777155
0.00077702
0.00080631
0.000805858
0.000833936
0.000833528
0.000857317
0.000857757
0.000880776
0.000881764
0.000906165
0.000908611
0.000941817
0.000944646
0.000975762
0.000975928
0.00100461
0.00100359
0.00102844
0.00102603
0.00105136
0.00104853
0.00107027
0.00106788
0.00108903
0.0010895
0.00112825
0.00113069
0.0011667
0.00116848
0.00119655
0.00119691
0.00122341
0.00122411
0.00125883
0.00125946
0.0013013
0.00130191
0.00136145
0.00136247
0.00145119
0.00145143
0.000413793
0.000413388
0.000410345
0.000410115
0.000406763
0.000406634
0.00040293
0.000402738
0.000398925
0.000398568
0.000395269
0.000394899
0.000391515
0.000391371
0.000387779
0.000387791
0.00038419
0.000384224
0.0003796
0.000379673
0.000380466
0.000380559
0.000387523
0.00038774
0.000394699
0.00039501
0.000396292
0.00039691
0.000387866
0.000389239
0.00034643
0.000346927
0.000345764
0.000345586
0.000373013
0.000373198
0.000392278
0.00039247
0.000422596
0.000421823
0.000462225
0.000460985
0.000510829
0.000509457
0.00056103
0.000559915
0.000603337
0.000602746
0.00061975
0.000619426
0.000637748
0.000637398
0.000655606
0.000655349
0.000669534
0.000669492
0.000681664
0.000681687
0.000694158
0.000694258
0.000708596
0.000708852
0.000724975
0.000725353
0.000743449
0.0007438
0.000763456
0.000763692
0.000781869
0.000782149
0.000798416
0.00079882
0.000813161
0.000813579
0.000825776
0.000825471
0.000834285
0.000832392
0.000836551
0.000833187
0.000833157
0.000836153
0.0008295
0.000839285
0.000838556
0.000854415
0.000877612
0.000892388
0.000916841
0.000932969
0.000936803
0.000956741
0.000924538
0.000948817
0.0008668
0.000898696
0.000883368
0.000887073
0.000913696
0.000900242
0.00102822
0.00101147
0.00104306
0.00102911
0.000982925
0.00101966
0.00088484
0.000940394
0.00103371
0.000964194
0.00110988
0.00106406
0.0011544
0.00113514
0.00116835
0.00116207
0.00117121
0.00116602
0.00277207
0.0030777
)
;
    }
}


// ************************************************************************* //
