/*--------------------------------*- C++ -*----------------------------------*\
  =========                 |
  \\      /  F ield         | OpenFOAM: The Open Source CFD Toolbox
   \\    /   O peration     | Website:  https://openfoam.org
    \\  /    A nd           | Version:  8
     \\/     M anipulation  |
\*---------------------------------------------------------------------------*/
FoamFile
{
    version     2.0;
    format      ascii;
    class       volScalarField;
    location    "900";
    object      p;
}
// * * * * * * * * * * * * * * * * * * * * * * * * * * * * * * * * * * * * * //

dimensions      [1 -1 -2 0 0 0 0];

internalField   nonuniform List<scalar> 
1200
(
-2575.84
-2575.97
-2576.02
-2576
-2575.98
-2576.02
-2576.15
-2576.34
-2576.48
-2576.59
-2576.21
-2576.23
-2576.47
-2575.55
-2573.75
-2571.41
-2576.75
-2583.48
-2600.54
-2614.63
-2620.58
-2635.93
-2655.61
-2678.27
-2706.38
-2743.66
-2774.78
-2795.42
-2815.65
-2838.21
-2862.41
-2882.24
-2897.64
-2911.61
-2924.32
-2940.91
-2961.29
-2976.79
-2970.67
-2968.68
-2994.8
-3055.76
-3105.23
-3141.42
-3175.34
-3232.83
-3324.66
-3367.51
-3589.07
-3710.35
-3564.4
-3465.94
-3386.24
-2942.22
-2740.7
-2534.08
-2332.17
-2045.9
-1724.8
-1387.94
-2771.2
-2771.23
-2771.25
-2771.21
-2771.17
-2771.21
-2771.32
-2771.47
-2771.55
-2771.48
-2770.75
-2770.88
-2771.67
-2770.7
-2768.93
-2767.11
-2773.01
-2779.53
-2794.96
-2807.81
-2816.22
-2833.54
-2854.06
-2875.17
-2901.39
-2937.91
-2971.55
-2992.6
-3011.53
-3034.05
-3057.72
-3076.59
-3092.34
-3106.14
-3118.36
-3135.47
-3157.65
-3172.94
-3162.35
-3162.55
-3193.6
-3253.84
-3299.98
-3344.02
-3371.24
-3422.39
-3522.53
-3561.1
-3777.8
-3900.69
-3724.94
-3673.18
-3566.67
-3130.35
-2933.19
-2702.75
-2548.42
-2262.68
-1902.63
-1262.48
-2966.34
-2966.36
-2966.39
-2966.36
-2966.33
-2966.37
-2966.49
-2966.69
-2966.9
-2967.16
-2967.28
-2967.96
-2968.08
-2966.96
-2964.44
-2963.1
-2968.44
-2974.76
-2995.22
-3007.62
-3017.01
-3034.69
-3052.1
-3070.21
-3096.24
-3134.83
-3165.92
-3184.72
-3205.22
-3228.18
-3252.44
-3271.53
-3286.74
-3299.83
-3309.43
-3325.4
-3352.72
-3372.41
-3358.78
-3352.85
-3389.61
-3446
-3495.89
-3548.87
-3572.64
-3614.33
-3712.84
-3775.69
-3920.98
-4054.76
-3872.28
-3880.24
-3818.71
-3363.97
-3135.42
-2939.16
-2671.96
-2394.34
-2052.21
-1290.17
-3161.53
-3161.57
-3161.6
-3161.57
-3161.53
-3161.58
-3161.71
-3161.91
-3162.12
-3162.37
-3162.53
-3163.76
-3164.75
-3163.69
-3160.52
-3157.45
-3168.09
-3175.9
-3185.98
-3192.14
-3205.6
-3226.73
-3246.76
-3268.06
-3295.25
-3329.13
-3361.27
-3383.28
-3399.49
-3420.29
-3447.03
-3467.76
-3482.4
-3495.09
-3503.3
-3513.76
-3531.5
-3552.69
-3550.45
-3547.14
-3583.28
-3628.36
-3672.9
-3725.17
-3742.41
-3776.66
-3852.38
-3916.03
-4089.48
-4183.28
-4014.74
-3980.88
-3900.87
-3536.3
-3330.86
-3073.65
-2788.98
-2537.5
-2177.47
-1367.7
-3356.72
-3356.75
-3356.77
-3356.74
-3356.71
-3356.76
-3356.91
-3357.14
-3357.44
-3357.88
-3358.57
-3360.14
-3361.33
-3361.19
-3355.98
-3355.7
-3364.17
-3375.54
-3383.48
-3388.83
-3400.06
-3420.18
-3439.35
-3467.12
-3495.09
-3524.49
-3554.77
-3577.78
-3596.22
-3617.25
-3642.11
-3661.92
-3676.87
-3688.76
-3694.56
-3700.7
-3712.87
-3750.43
-3735.38
-3733.21
-3772.37
-3809.6
-3845.53
-3892.22
-3907.09
-3932.84
-3970.01
-3997.86
-4113.64
-4190.59
-4050.47
-3968.81
-3864.81
-3624.98
-3463.8
-3198.4
-3005.1
-2684.06
-2196.75
-1494.81
-3551.9
-3551.94
-3551.95
-3551.93
-3551.9
-3551.96
-3552.12
-3552.37
-3552.71
-3553.19
-3553.91
-3555.63
-3557.46
-3558.24
-3556.67
-3553.02
-3562.85
-3572.33
-3579.54
-3583.9
-3596.32
-3616.07
-3635.61
-3666.46
-3693.21
-3718.17
-3749.32
-3773.54
-3792.03
-3813.83
-3839.76
-3858.29
-3871.72
-3882.05
-3884.87
-3879.2
-3889.48
-3943.09
-3935.81
-3945.3
-3989.96
-4007.62
-4040.83
-4067.59
-4075.86
-4091.86
-4091.95
-4085.36
-4087.56
-4081.4
-3946.79
-3849.91
-3776.58
-3589.9
-3476.53
-3278.19
-3043.4
-2701.02
-2231.48
-1612.16
-3747.09
-3747.12
-3747.14
-3747.12
-3747.1
-3747.16
-3747.33
-3747.61
-3747.99
-3748.53
-3749.41
-3751.16
-3753.06
-3754.58
-3756.16
-3755.31
-3762
-3769.1
-3772.16
-3778.03
-3790.31
-3811.06
-3830.67
-3858.84
-3886.92
-3914.39
-3945.37
-3969.43
-3988.47
-4010.32
-4035.25
-4052.46
-4066.26
-4075.56
-4082.99
-4083.87
-4089.59
-4124.12
-4117.98
-4136.75
-4170.89
-4184.16
-4222.17
-4265.05
-4265.51
-4251.09
-4221.5
-4200.89
-4192.81
-4096.94
-3876.24
-3771.92
-3734.65
-3612.06
-3471.05
-3276.72
-3069.24
-2747.67
-2284.56
-1629.46
-3942.27
-3942.28
-3942.3
-3942.28
-3942.27
-3942.34
-3942.52
-3942.82
-3943.24
-3943.82
-3944.74
-3946.37
-3948.22
-3949.82
-3952
-3953.45
-3958.37
-3964.53
-3968.38
-3973.76
-3983.52
-4000.47
-4022.81
-4051.75
-4078.4
-4105.83
-4138.64
-4164.51
-4184.05
-4205.58
-4230.81
-4249.41
-4263.2
-4272.59
-4279.31
-4274.03
-4281.32
-4316.82
-4319.8
-4332.59
-4356.72
-4378.62
-4420.63
-4460.81
-4457.94
-4464.61
-4448.07
-4406.71
-4386.15
-4319.41
-4060.13
-3912.94
-3891.32
-3782.52
-3601.29
-3378.73
-3148.36
-2802.15
-2346.56
-1732.71
-4137.49
-4137.51
-4137.52
-4137.49
-4137.47
-4137.54
-4137.72
-4138.04
-4138.48
-4139.09
-4140.03
-4141.6
-4143.41
-4145.01
-4147.22
-4149.51
-4153.83
-4159.61
-4163.99
-4169.9
-4178.4
-4192.74
-4214.05
-4242.1
-4267.45
-4292.44
-4323.7
-4352.23
-4375.14
-4398.22
-4422.93
-4441.8
-4456.18
-4466.3
-4472.59
-4473.33
-4479.98
-4509.46
-4519.18
-4535.59
-4565.44
-4584.48
-4617.64
-4657.57
-4655.83
-4641.74
-4607.19
-4568.02
-4563.9
-4440.36
-4204.64
-4057.01
-4017.2
-3899.17
-3719.22
-3492.02
-3239.44
-2898.57
-2466.75
-1900.49
-4332.48
-4332.6
-4332.64
-4332.63
-4332.63
-4332.71
-4332.9
-4333.22
-4333.67
-4334.3
-4335.24
-4336.75
-4338.55
-4340.2
-4342.35
-4344.53
-4348.62
-4354.3
-4359.18
-4365.34
-4373.93
-4387.46
-4408.01
-4435.02
-4459.41
-4482.85
-4511.94
-4541.14
-4566.06
-4590.4
-4614.98
-4634.39
-4649.56
-4661.05
-4667.92
-4671.87
-4678.52
-4701.79
-4715.17
-4733.19
-4759.27
-4777.79
-4808.36
-4846.15
-4848.42
-4842.29
-4813.87
-4779.74
-4747.23
-4640.94
-4450.94
-4296.44
-4236.15
-4108.87
-3922.37
-3679.96
-3409.37
-3057.57
-2613.98
-2069.12
-2575.83
-2575.96
-2576.01
-2576
-2576
-2576.05
-2576.19
-2576.4
-2576.53
-2576.63
-2576.25
-2576.07
-2576.26
-2575.38
-2574.01
-2572.01
-2577.55
-2583.69
-2600.52
-2614.94
-2620.61
-2635.83
-2655.23
-2677.85
-2705.83
-2742.6
-2773.59
-2793.97
-2814.19
-2837.21
-2861.86
-2881.97
-2897.32
-2910.99
-2923.37
-2939.71
-2959.82
-2975.31
-2969.38
-2967.72
-2994.26
-3055.9
-3104.75
-3139.19
-3174.05
-3233.78
-3326.33
-3368.94
-3591.33
-3709.67
-3565.65
-3467.45
-3384.53
-2941.28
-2744.1
-2537.8
-2326.64
-2042.04
-1715.72
-1398.71
-2771.2
-2771.23
-2771.24
-2771.2
-2771.19
-2771.24
-2771.38
-2771.6
-2771.75
-2771.92
-2771.8
-2772.02
-2772.32
-2771.05
-2769.23
-2767.44
-2772.97
-2779.89
-2795.93
-2809.89
-2818.17
-2835.19
-2854.69
-2875.32
-2901.38
-2937.65
-2970.14
-2990.67
-3010.12
-3033.6
-3058.19
-3077.51
-3093.23
-3106.97
-3118.95
-3135.79
-3157.51
-3172.27
-3161.87
-3161.39
-3192.35
-3253.75
-3300.31
-3344.33
-3372.38
-3424.46
-3524.63
-3561.95
-3782.62
-3899.84
-3727.56
-3676.27
-3565.69
-3127.53
-2929.64
-2704.2
-2548.51
-2263.17
-1899.25
-1238.44
-2966.34
-2966.35
-2966.37
-2966.35
-2966.34
-2966.41
-2966.54
-2966.78
-2967.01
-2967.37
-2967.75
-2968.54
-2968.58
-2967.1
-2964.43
-2962.97
-2967.84
-2975.12
-2994.94
-3007.31
-3017.25
-3034.84
-3052.06
-3070.33
-3095.77
-3133.69
-3165.69
-3184.9
-3205.2
-3228.59
-3253.52
-3273.08
-3288.07
-3301.26
-3310.68
-3326.88
-3354.19
-3373.33
-3359.29
-3351.49
-3388.9
-3445.7
-3495.88
-3550.18
-3574.55
-3617.75
-3713.82
-3774.65
-3925.07
-4056.2
-3879.2
-3876.17
-3813.03
-3364.94
-3137.21
-2930.23
-2674.7
-2398.93
-2033.75
-1270.18
-3161.53
-3161.56
-3161.59
-3161.56
-3161.55
-3161.61
-3161.74
-3161.97
-3162.21
-3162.57
-3163
-3164.27
-3165.07
-3163.96
-3160.18
-3156.98
-3166.03
-3176.16
-3187.85
-3193.57
-3206.34
-3227.04
-3246.59
-3268
-3295.29
-3329.55
-3361.46
-3383.86
-3400.74
-3421.31
-3448.32
-3469.64
-3483.92
-3496.57
-3504.34
-3514.46
-3531.87
-3552.15
-3548.67
-3545.56
-3582.81
-3629.95
-3674.95
-3727.06
-3743.02
-3772.7
-3849.8
-3913.69
-4084.6
-4183.86
-4013.04
-3974.53
-3892.53
-3529.9
-3332.42
-3071.96
-2787.11
-2551.52
-2166.25
-1369.72
-3356.71
-3356.74
-3356.76
-3356.73
-3356.72
-3356.79
-3356.93
-3357.17
-3357.47
-3357.93
-3358.67
-3360.26
-3361.49
-3361.22
-3356.03
-3355.1
-3363.33
-3375.51
-3382.92
-3387.64
-3399.13
-3419.65
-3439.44
-3467.88
-3495.93
-3524.98
-3555.52
-3578.62
-3596.82
-3617.86
-3643.27
-3663.3
-3678.37
-3690.29
-3695.75
-3701.26
-3712.9
-3751.34
-3737.05
-3735.43
-3774.43
-3810.05
-3844.19
-3892.15
-3908.05
-3933.9
-3971.26
-3997.15
-4111.48
-4185.63
-4046.77
-3961.83
-3853.78
-3612.7
-3451.04
-3172.81
-2993.82
-2695.06
-2180.99
-1484.77
-3551.9
-3551.93
-3551.94
-3551.92
-3551.91
-3551.97
-3552.13
-3552.39
-3552.72
-3553.2
-3553.96
-3555.65
-3557.48
-3558.26
-3556.64
-3552.99
-3561.5
-3571.52
-3578.61
-3582.24
-3594.53
-3613.74
-3634.38
-3665.33
-3693.24
-3718.69
-3749.4
-3773.53
-3791.76
-3813.62
-3839.96
-3858.81
-3872.36
-3882.87
-3885.99
-3879.93
-3891.11
-3944.78
-3937.29
-3947.18
-3992.56
-4009.18
-4040.44
-4067.47
-4079.64
-4099.39
-4099.63
-4092.82
-4087.65
-4079.45
-3945.42
-3850.8
-3775.8
-3580.6
-3462.72
-3260.61
-3034.48
-2688.42
-2213.7
-1624.02
-3747.09
-3747.12
-3747.14
-3747.12
-3747.1
-3747.17
-3747.34
-3747.61
-3747.99
-3748.51
-3749.37
-3751.08
-3752.96
-3754.44
-3755.98
-3755.08
-3761.77
-3768.94
-3771.1
-3776.58
-3788.65
-3808.86
-3828.32
-3856.91
-3885.99
-3913.3
-3944.27
-3968.34
-3987.33
-4009.01
-4034.09
-4051.89
-4065.58
-4074.92
-4083.3
-4083.93
-4090.23
-4125.29
-4118.92
-4137.56
-4173.05
-4186.91
-4224.02
-4266.16
-4267.86
-4257.49
-4228.69
-4207.38
-4195.5
-4097.29
-3877.27
-3772.81
-3734.29
-3604.81
-3456
-3250.04
-3053.87
-2726.12
-2278.05
-1617.22
-3942.27
-3942.28
-3942.29
-3942.27
-3942.26
-3942.34
-3942.52
-3942.82
-3943.22
-3943.79
-3944.67
-3946.28
-3948.1
-3949.68
-3951.83
-3953.36
-3958.13
-3964.42
-3968.09
-3973.15
-3982.85
-3999.32
-4021.68
-4050.58
-4077.09
-4104.08
-4136.65
-4162.81
-4182.4
-4203.96
-4229.46
-4248.16
-4261.7
-4271.35
-4278.25
-4273.78
-4280.98
-4316.79
-4319.85
-4333.28
-4357.73
-4379.32
-4420.87
-4460.07
-4457.76
-4464.69
-4448.52
-4407.34
-4386.28
-4321.34
-4064.98
-3917.96
-3897.5
-3780.94
-3593.3
-3361.06
-3139.91
-2782.79
-2341.81
-1712.88
-4137.49
-4137.51
-4137.51
-4137.48
-4137.47
-4137.54
-4137.72
-4138.03
-4138.45
-4139.04
-4139.95
-4141.49
-4143.26
-4144.84
-4147.03
-4149.35
-4153.67
-4159.7
-4163.98
-4169.75
-4178.26
-4192.29
-4213.48
-4241.36
-4266.28
-4290.73
-4321.81
-4350.31
-4373.09
-4395.96
-4420.71
-4439.5
-4454.01
-4464.67
-4471
-4472.04
-4478.74
-4508.3
-4518.19
-4535.15
-4565.72
-4584.09
-4616.69
-4657.32
-4656.11
-4640.45
-4606.04
-4566.62
-4564.15
-4438.89
-4204.62
-4056.83
-4015.82
-3891.66
-3706.92
-3472.87
-3229.21
-2878.01
-2469.38
-1890.82
-4332.47
-4332.59
-4332.64
-4332.63
-4332.63
-4332.71
-4332.9
-4333.21
-4333.65
-4334.27
-4335.19
-4336.69
-4338.48
-4340.14
-4342.29
-4344.51
-4348.59
-4354.47
-4359.33
-4365.42
-4374.1
-4387.47
-4408.04
-4434.88
-4458.96
-4482.14
-4511.25
-4540.56
-4565.52
-4589.89
-4614.83
-4634.45
-4649.91
-4661.18
-4667.89
-4671.87
-4678.35
-4701.48
-4714.88
-4733.19
-4759.54
-4777.89
-4808.47
-4846.53
-4849.2
-4842.87
-4814.22
-4779.91
-4747.64
-4640.89
-4451.85
-4297.03
-4236.37
-4103.54
-3913.42
-3665.32
-3404.15
-3043.2
-2620.25
-2051.56
)
;

boundaryField
{
    wall
    {
        type            calculated;
        value           nonuniform List<scalar> 
1200
(
-2575.84
-2771.2
-2966.35
-3161.53
-3356.72
-3551.91
-3747.09
-3942.27
-4137.49
-4332.48
-2575.97
-2771.24
-2966.37
-3161.57
-3356.76
-3551.94
-3747.13
-3942.29
-4137.51
-4332.6
-2576.02
-2771.25
-2966.4
-3161.6
-3356.78
-3551.96
-3747.15
-3942.3
-4137.52
-4332.64
-2576
-2771.21
-2966.36
-3161.57
-3356.74
-3551.93
-3747.12
-3942.28
-4137.49
-4332.63
-2575.97
-2771.16
-2966.32
-3161.53
-3356.71
-3551.9
-3747.1
-3942.27
-4137.48
-4332.63
-2576
-2771.19
-2966.36
-3161.56
-3356.75
-3551.95
-3747.16
-3942.34
-4137.54
-4332.71
-2576.13
-2771.29
-2966.47
-3161.69
-3356.89
-3552.11
-3747.32
-3942.52
-4137.73
-4332.9
-2576.31
-2771.41
-2966.65
-3161.88
-3357.12
-3552.37
-3747.61
-3942.82
-4138.05
-4333.22
-2576.46
-2771.46
-2966.84
-3162.07
-3357.42
-3552.71
-3748
-3943.25
-4138.49
-4333.67
-2576.57
-2771.26
-2967.05
-3162.27
-3357.86
-3553.18
-3748.54
-3943.83
-4139.12
-4334.31
-2576.2
-2770.23
-2967.05
-3162.3
-3358.52
-3553.88
-3749.43
-3944.77
-4140.08
-4335.27
-2576.31
-2770.32
-2967.67
-3163.5
-3360.08
-3555.61
-3751.2
-3946.42
-4141.65
-4336.78
-2576.57
-2771.36
-2967.83
-3164.59
-3361.24
-3557.45
-3753.1
-3948.29
-4143.49
-4338.58
-2575.63
-2770.53
-2966.9
-3163.55
-3361.17
-3558.22
-3754.64
-3949.89
-4145.1
-4340.23
-2573.61
-2768.78
-2964.45
-3160.71
-3355.97
-3556.69
-3756.24
-3952.08
-4147.32
-4342.39
-2571.11
-2766.93
-2963.14
-3157.69
-3356.02
-3553.04
-3755.42
-3953.48
-4149.59
-4344.53
-2576.32
-2773.02
-2968.72
-3169.16
-3364.45
-3563.51
-3762.12
-3958.49
-4153.91
-4348.63
-2583.38
-2779.35
-2974.64
-3175.72
-3375.52
-3572.75
-3769.17
-3964.58
-4159.56
-4354.22
-2600.54
-2794.47
-2995.35
-3184.97
-3383.79
-3580.05
-3772.66
-3968.52
-4164
-4359.1
-2614.47
-2806.75
-3007.75
-3191.47
-3389.47
-3584.77
-3778.74
-3974.06
-4169.97
-4365.29
-2620.58
-2815.27
-3016.88
-3205.26
-3400.56
-3597.23
-3791.15
-3983.84
-4178.46
-4373.83
-2635.99
-2832.74
-3034.61
-3226.59
-3420.46
-3617.27
-3812.2
-4001.02
-4192.93
-4387.44
-2655.82
-2853.76
-3052.11
-3246.86
-3439.32
-3636.25
-3831.9
-4023.36
-4214.3
-4407.97
-2678.49
-2875.09
-3070.17
-3268.12
-3466.74
-3667.01
-3859.81
-4052.33
-4242.45
-4435.08
-2706.67
-2901.37
-3096.52
-3295.25
-3494.7
-3693.19
-3887.36
-4079.03
-4268.03
-4459.62
-2744.18
-2938.05
-3135.41
-3328.96
-3524.27
-3717.93
-3914.94
-4106.7
-4293.29
-4483.18
-2775.37
-2972.28
-3166.02
-3361.24
-3554.42
-3749.3
-3945.94
-4139.64
-4324.64
-4512.26
-2796.16
-2993.59
-3184.64
-3383.04
-3577.38
-3773.57
-3969.99
-4165.36
-4353.18
-4541.42
-2816.39
-3012.24
-3205.24
-3398.87
-3595.91
-3792.2
-3989.05
-4184.87
-4376.15
-4566.33
-2838.73
-3034.27
-3227.98
-3419.77
-3616.94
-3813.96
-4011
-4206.38
-4399.34
-4590.65
-2862.71
-3057.49
-3251.98
-3446.39
-3641.51
-3839.65
-4035.86
-4231.52
-4424.04
-4615.03
-2882.38
-3076.15
-3270.86
-3466.81
-3661.19
-3858.02
-4052.75
-4250.15
-4442.97
-4634.33
-2897.81
-3091.89
-3286.16
-3481.62
-3676.08
-3871.38
-4066.61
-4264.05
-4457.26
-4649.37
-2911.92
-3105.73
-3299.21
-3494.36
-3687.93
-3881.58
-4075.87
-4273.24
-4467.11
-4660.97
-2924.8
-3118.07
-3308.91
-3502.8
-3693.9
-3884.28
-4082.76
-4279.78
-4473.36
-4667.92
-2941.52
-3135.32
-3324.77
-3513.47
-3700.24
-3879.03
-4083.72
-4274.06
-4473.95
-4671.89
-2962.06
-3157.77
-3351.95
-3531.36
-3712.67
-3888.97
-4089.38
-4281.42
-4480.54
-4678.62
-2977.54
-3173.34
-3371.84
-3552.81
-3750.19
-3942.37
-4123.65
-4317
-4510.04
-4701.93
-2971.31
-3162.65
-3358.46
-3551.15
-3734.4
-3935.03
-4117.61
-4319.81
-4519.71
-4715.29
-2969.19
-3163.13
-3353.25
-3547.51
-3731.82
-3944.34
-4136.37
-4332.21
-4535.9
-4733.18
-2995.11
-3194.25
-3389.77
-3583.16
-3771.12
-3988.63
-4169.78
-4356.21
-4565.61
-4759.12
-3055.74
-3253.91
-3446.1
-3627.26
-3809.2
-4006.76
-4182.76
-4378.22
-4584.92
-4777.69
-3105.52
-3299.8
-3496.07
-3671.93
-3845.84
-4041.01
-4221.37
-4420.53
-4618.21
-4808.24
-3142.4
-3343.99
-3548.42
-3725.11
-3892.21
-4067.66
-4264.38
-4461.21
-4657.88
-4845.95
-3175.87
-3370.74
-3571.82
-3743.02
-3906.52
-4073.68
-4264.21
-4458
-4655.79
-4848.03
-3232.45
-3421.24
-3612.63
-3779.12
-3932.35
-4088.07
-4248.4
-4464.45
-4642.07
-4842.07
-3324.02
-3521.46
-3712.48
-3852.94
-3969.51
-4088.02
-4218.93
-4447.6
-4607.31
-4813.76
-3366.76
-3560.47
-3776.43
-3916.43
-3998.23
-4081.43
-4198.5
-4406.31
-4568.37
-4779.74
-3587.96
-3775.7
-3919.39
-4091.58
-4114.88
-4087.43
-4191.32
-4386.12
-4564.34
-4746.99
-3709.96
-3900.3
-4054.17
-4185.66
-4193.58
-4082.06
-4095.9
-4319.78
-4440.58
-4641.03
-3562.84
-3723.43
-3869.4
-4016.85
-4052.5
-3947.72
-3874.26
-4058.66
-4203.89
-4450.69
-3465.61
-3672.1
-3883.07
-3983.06
-3972.2
-3849.45
-3770.54
-3910.96
-4056.43
-4296.18
-3389.32
-3567.98
-3822.3
-3905.15
-3869.98
-3776.87
-3734.62
-3889.05
-4017.45
-4236.11
-2942.28
-3130.72
-3363.04
-3538.82
-3631.43
-3593.81
-3615.66
-3784.34
-3902.48
-4111.54
-2737.9
-2934.74
-3134.17
-3330.23
-3470.97
-3483.35
-3478.22
-3606.04
-3724.99
-3926.83
-2531.16
-2702.34
-2944.33
-3074.44
-3211.68
-3287.64
-3289.02
-3387.75
-3501.24
-3687.13
-2334.56
-2549.56
-2671.19
-2788.85
-3014.12
-3048.51
-3076.31
-3152.63
-3244.09
-3411.62
-2048.37
-2262.65
-2392.66
-2530.1
-2682.04
-2707.74
-2758.91
-2811.94
-2908.77
-3064.51
-1729.98
-1905.28
-2061.08
-2185.91
-2204.7
-2240.97
-2288.34
-2348.78
-2465.27
-2610.38
-1380.45
-1277.79
-1299.33
-1366.62
-1500.08
-1606.66
-1635.12
-1742.47
-1904.99
-2077.92
-2575.83
-2771.2
-2966.34
-3161.53
-3356.71
-3551.9
-3747.09
-3942.27
-4137.49
-4332.47
-2575.95
-2771.22
-2966.34
-3161.55
-3356.74
-3551.92
-3747.11
-3942.27
-4137.5
-4332.59
-2576.01
-2771.24
-2966.36
-3161.58
-3356.75
-3551.94
-3747.13
-3942.28
-4137.51
-4332.63
-2576
-2771.2
-2966.34
-3161.56
-3356.73
-3551.92
-3747.11
-3942.26
-4137.48
-4332.63
-2576.01
-2771.2
-2966.35
-3161.55
-3356.73
-3551.91
-3747.1
-3942.26
-4137.47
-4332.63
-2576.07
-2771.26
-2966.43
-3161.62
-3356.8
-3551.98
-3747.18
-3942.34
-4137.54
-4332.71
-2576.21
-2771.41
-2966.56
-3161.76
-3356.94
-3552.14
-3747.34
-3942.52
-4137.72
-4332.9
-2576.44
-2771.66
-2966.82
-3162
-3357.19
-3552.39
-3747.62
-3942.81
-4138.02
-4333.21
-2576.56
-2771.84
-2967.06
-3162.26
-3357.48
-3552.72
-3747.98
-3943.22
-4138.44
-4333.64
-2576.65
-2772.14
-2967.48
-3162.68
-3357.96
-3553.21
-3748.51
-3943.78
-4139.02
-4334.26
-2576.26
-2772.33
-2967.99
-3163.24
-3358.73
-3553.98
-3749.35
-3944.64
-4139.9
-4335.16
-2575.99
-2772.57
-2968.83
-3164.52
-3360.32
-3555.67
-3751.04
-3946.23
-4141.43
-4336.66
-2576.15
-2772.63
-2968.83
-3165.23
-3361.57
-3557.49
-3752.91
-3948.03
-4143.19
-4338.44
-2575.3
-2771.22
-2967.16
-3164.1
-3361.24
-3558.28
-3754.38
-3949.61
-4144.76
-4340.11
-2574.15
-2769.39
-2964.42
-3159.99
-3356.04
-3556.63
-3755.91
-3951.75
-4146.93
-4342.26
-2572.31
-2767.62
-2962.93
-3156.75
-3354.79
-3552.96
-3754.97
-3953.32
-4149.28
-4344.51
-2577.98
-2772.95
-2967.56
-3164.96
-3363.04
-3560.86
-3761.66
-3958.01
-4153.59
-4348.58
-2583.78
-2780.07
-2975.23
-3176.34
-3375.54
-3571.12
-3768.87
-3964.37
-4159.74
-4354.55
-2600.52
-2796.41
-2994.81
-3188.85
-3382.61
-3578.11
-3770.62
-3967.95
-4163.98
-4359.41
-2615.11
-2810.95
-3007.18
-3194.22
-3386.99
-3581.38
-3775.88
-3972.87
-4169.69
-4365.47
-2620.62
-2819.12
-3017.37
-3206.67
-3398.62
-3593.62
-3787.82
-3982.54
-4178.21
-4374.2
-2635.77
-2835.99
-3034.92
-3227.17
-3419.36
-3612.54
-3807.73
-3998.77
-4192.09
-4387.49
-2655.02
-2855
-3052.05
-3246.48
-3439.46
-3633.74
-3827.09
-4021.13
-4213.22
-4408.07
-2677.64
-2875.39
-3070.38
-3267.95
-3468.25
-3664.78
-3855.95
-4050
-4240.99
-4434.81
-2705.53
-2901.39
-3095.49
-3295.3
-3496.33
-3693.27
-3885.56
-4076.45
-4265.68
-4458.74
-2742.07
-2937.51
-3133.11
-3329.76
-3525.22
-3718.93
-3912.74
-4103.19
-4289.87
-4481.81
-2773
-2969.4
-3165.59
-3361.55
-3555.91
-3749.42
-3943.68
-4135.6
-4320.86
-4510.93
-2793.23
-2989.68
-3184.98
-3384.2
-3579.06
-3773.51
-3967.77
-4161.91
-4349.33
-4540.28
-2813.45
-3009.41
-3205.17
-3401.44
-3597.15
-3791.6
-3986.74
-4181.55
-4372.05
-4565.27
-2836.69
-3033.38
-3228.77
-3421.84
-3618.19
-3813.48
-4008.32
-4203.14
-4394.82
-4589.65
-2861.56
-3058.42
-3253.97
-3448.96
-3643.87
-3840.07
-4033.47
-4228.75
-4419.59
-4614.77
-2881.83
-3077.95
-3273.75
-3470.6
-3664.04
-3859.08
-4051.61
-4247.45
-4438.34
-4634.5
-2897.15
-3093.68
-3288.67
-3484.69
-3679.16
-3872.69
-4065.23
-4260.89
-4452.94
-4650.09
-2910.68
-3107.38
-3301.91
-3497.3
-3691.12
-3883.33
-4074.6
-4270.72
-4463.86
-4661.23
-2922.89
-3119.24
-3311.22
-3504.84
-3696.4
-3886.6
-4083.53
-4277.78
-4470.23
-4667.85
-2939.1
-3135.94
-3327.53
-3514.75
-3701.72
-3880.19
-4084.08
-4273.74
-4471.4
-4671.82
-2959.05
-3157.38
-3354.94
-3532
-3713.1
-3891.77
-4090.46
-4280.87
-4478.14
-4678.23
-2974.57
-3171.86
-3373.92
-3552.03
-3751.58
-3945.52
-4125.74
-4316.61
-4507.69
-4701.32
-2968.74
-3161.57
-3359.62
-3547.97
-3738.02
-3938.06
-4119.25
-4319.84
-4517.64
-4714.74
-2967.21
-3160.81
-3351.08
-3545.18
-3736.81
-3948.13
-4137.9
-4333.66
-4534.84
-4733.19
-2993.94
-3191.69
-3388.73
-3582.93
-3775.67
-3993.87
-4174.17
-4358.24
-4565.53
-4759.7
-3055.92
-3253.69
-3445.6
-3631.06
-3810.44
-4010.04
-4188.31
-4379.71
-4583.62
-4777.99
-3104.46
-3300.5
-3495.7
-3675.92
-3843.87
-4040.26
-4224.81
-4420.97
-4616.09
-4808.58
-3138.22
-3344.35
-3550.73
-3727.12
-3892.16
-4067.4
-4266.83
-4459.66
-4656.97
-4846.72
-3173.5
-3372.87
-3575.5
-3742.39
-3908.61
-4081.8
-4269.13
-4457.68
-4656.1
-4849.58
-3234.14
-3425.63
-3619.65
-3770.25
-3934.37
-4103.15
-4260.15
-4464.85
-4640.11
-4843.09
-3326.98
-3525.76
-3714.24
-3849.23
-3971.75
-4103.52
-4231.22
-4448.99
-4605.92
-4814.33
-3369.69
-3562.59
-3773.94
-3913.29
-3996.77
-4096.72
-4209.77
-4407.74
-4566.28
-4779.92
-3592.51
-3784.72
-3926.66
-4082.54
-4110.24
-4087.76
-4196.96
-4386.28
-4563.71
-4747.89
-3710.07
-3900.24
-4056.8
-4181.47
-4182.65
-4078.76
-4098.28
-4320.91
-4438.63
-4640.8
-3567.2
-3729.07
-3882.09
-4010.93
-4044.78
-3944.47
-3879.18
-4066.19
-4205.36
-4452.09
-3467.79
-3677.45
-3873.32
-3972.35
-3958.51
-3851.25
-3774.11
-3919.77
-4057.41
-4297.27
-3381.45
-3564.39
-3809.3
-3888.28
-3848.64
-3775.5
-3734.26
-3899.62
-4015.59
-4236.39
-2941.11
-3127.16
-3365.85
-3527.43
-3606.29
-3576.68
-3601.2
-3778.98
-3888.35
-4100.86
-2746.83
-2928.09
-3138.49
-3333.12
-3443.91
-3455.89
-3448.82
-3588.5
-3701.14
-3908.95
-2540.78
-2704.58
-2925.07
-3071.18
-3159.57
-3251.16
-3237.73
-3352
-3463.65
-3658.13
-2324.23
-2547.38
-2675.47
-2787.25
-2984.8
-3029.37
-3046.8
-3135.61
-3224.55
-3401.86
-2039.57
-2263.18
-2400.62
-2558.97
-2697.09
-2681.73
-2714.88
-2772.98
-2867.83
-3036.26
-1710.54
-1896.58
-2024.86
-2157.83
-2172.96
-2204.22
-2274.29
-2339.56
-2470.83
-2623.84
-1406.21
-1223.13
-1261.23
-1370.75
-1479.3
-1629.5
-1611.58
-1703.09
-1886.25
-2042.77
)
;
    }
    inlet
    {
        type            calculated;
        value           nonuniform List<scalar> 
20
(
-2575.84
-2771.2
-2966.34
-3161.53
-3356.72
-3551.9
-3747.09
-3942.27
-4137.49
-4332.48
-2575.83
-2771.2
-2966.34
-3161.53
-3356.71
-3551.9
-3747.09
-3942.27
-4137.49
-4332.47
)
;
    }
    outlet
    {
        type            calculated;
        value           nonuniform List<scalar> 
20
(
-97.6792
-293.155
-488.425
-683.754
-879.112
-1074.47
-1269.83
-1465.2
-1660.85
-1856.57
-97.6792
-293.147
-488.416
-683.754
-879.112
-1074.47
-1269.83
-1465.2
-1660.85
-1856.57
)
;
    }
    heatWall
    {
        type            calculated;
        value           nonuniform List<scalar> 
240
(
-4430.06
-4430.06
-4430.18
-4430.18
-4430.23
-4430.22
-4430.22
-4430.21
-4430.22
-4430.22
-4430.29
-4430.3
-4430.49
-4430.49
-4430.81
-4430.8
-4431.25
-4431.24
-4431.88
-4431.86
-4432.83
-4432.78
-4434.34
-4434.28
-4436.14
-4436.07
-4437.79
-4437.73
-4439.94
-4439.88
-4442.12
-4442.11
-4446.22
-4446.19
-4451.91
-4452.07
-4456.79
-4456.95
-4462.96
-4463.05
-4471.56
-4471.74
-4485.1
-4485.11
-4505.66
-4505.7
-4532.68
-4532.54
-4557.07
-4556.63
-4580.52
-4579.81
-4609.61
-4608.92
-4638.81
-4638.23
-4663.74
-4663.2
-4688.09
-4687.58
-4712.66
-4712.52
-4732.07
-4732.14
-4747.26
-4747.6
-4758.74
-4758.87
-4765.61
-4765.58
-4769.57
-4769.56
-4776.22
-4776.04
-4799.49
-4799.18
-4812.87
-4812.58
-4830.9
-4830.89
-4856.98
-4857.24
-4875.49
-4875.59
-4906.06
-4906.17
-4943.86
-4944.24
-4946.13
-4946.9
-4940
-4940.58
-4911.57
-4911.93
-4877.45
-4877.62
-4844.94
-4845.35
-4738.65
-4738.59
-4548.65
-4549.56
-4394.15
-4394.74
-4333.86
-4334.08
-4206.58
-4201.25
-4020.08
-4011.13
-3777.68
-3763.03
-3507.08
-3501.87
-3155.28
-3140.92
-2711.69
-2717.97
-2166.83
-2149.28
-2478.25
-2478.25
-2478.38
-2478.37
-2478.43
-2478.42
-2478.41
-2478.41
-2478.39
-2478.41
-2478.43
-2478.47
-2478.56
-2478.6
-2478.75
-2478.82
-2478.9
-2478.95
-2479.01
-2479.04
-2478.61
-2478.64
-2478.6
-2478.44
-2478.83
-2478.62
-2477.9
-2477.73
-2476.07
-2476.33
-2473.67
-2474.28
-2478.97
-2479.78
-2485.7
-2485.91
-2502.76
-2502.75
-2516.86
-2517.17
-2522.8
-2522.83
-2538.14
-2538.04
-2557.82
-2557.44
-2580.49
-2580.07
-2608.59
-2608.04
-2645.87
-2644.81
-2677
-2675.8
-2697.64
-2696.18
-2717.88
-2716.41
-2740.44
-2739.44
-2764.64
-2764.08
-2784.47
-2784.2
-2799.87
-2799.55
-2813.84
-2813.22
-2826.55
-2825.6
-2843.14
-2841.95
-2863.53
-2862.05
-2879.03
-2877.55
-2872.91
-2871.61
-2870.92
-2869.96
-2897.04
-2896.5
-2958.02
-2958.15
-3007.49
-3007
-3043.68
-3041.44
-3077.58
-3076.3
-3135.07
-3136.02
-3226.9
-3228.57
-3269.76
-3271.19
-3491.33
-3493.59
-3612.61
-3611.92
-3466.65
-3467.9
-3368.2
-3369.7
-3288.49
-3286.79
-2844.48
-2843.54
-2642.95
-2646.36
-2436.33
-2440.05
-2234.42
-2228.89
-1948.15
-1944.3
-1627.06
-1617.97
-1290.22
-1300.98
)
;
    }
}


// ************************************************************************* //
