/*--------------------------------*- C++ -*----------------------------------*\
  =========                 |
  \\      /  F ield         | OpenFOAM: The Open Source CFD Toolbox
   \\    /   O peration     | Website:  https://openfoam.org
    \\  /    A nd           | Version:  8
     \\/     M anipulation  |
\*---------------------------------------------------------------------------*/
FoamFile
{
    version     2.0;
    format      ascii;
    class       volScalarField;
    location    "900";
    object      p_rgh;
}
// * * * * * * * * * * * * * * * * * * * * * * * * * * * * * * * * * * * * * //

dimensions      [1 -1 -2 0 0 0 0];

internalField   nonuniform List<scalar> 
1200
(
-1134.77
-1134.88
-1134.92
-1134.9
-1134.86
-1134.84
-1134.85
-1134.89
-1134.89
-1134.89
-1134.4
-1134.44
-1134.9
-1134.23
-1133.17
-1131.69
-1138.36
-1147.52
-1165.94
-1181.61
-1190.21
-1208.26
-1228.54
-1250.19
-1275.5
-1308.37
-1335.23
-1354.36
-1376.01
-1400.22
-1425.21
-1444.17
-1455.6
-1461.12
-1461.34
-1460.89
-1460.58
-1455.36
-1430.4
-1409.76
-1409.59
-1451.38
-1512.85
-1555.95
-1548.69
-1496.2
-1456.04
-1378.21
-1507.65
-1675.27
-1606.11
-1373.94
-1216.63
-1079.68
-1148.93
-1075.43
-1126.99
-1058.97
-814.278
-493.361
-1134.96
-1134.97
-1134.97
-1134.94
-1134.89
-1134.85
-1134.85
-1134.85
-1134.78
-1134.53
-1133.34
-1133.2
-1134.19
-1133.54
-1132.67
-1131.43
-1138.77
-1148
-1164.78
-1179.3
-1189.92
-1208.91
-1230.14
-1251.3
-1275.1
-1307.32
-1336.6
-1356.15
-1376.68
-1400.84
-1425.3
-1443.43
-1454.77
-1459.97
-1460.07
-1460.84
-1463.4
-1459.53
-1428.71
-1407.26
-1408.17
-1449.52
-1511.35
-1559.64
-1551.63
-1494.45
-1468.91
-1379.65
-1502.12
-1682.37
-1584.47
-1373.82
-1182.26
-1046.53
-1139.66
-1029.46
-1151.42
-1089.08
-834.808
-272.474
-1134.93
-1134.92
-1134.93
-1134.91
-1134.87
-1134.84
-1134.85
-1134.9
-1134.94
-1135
-1134.45
-1134.41
-1134.49
-1133.85
-1132.29
-1131.84
-1139.13
-1147.33
-1168.61
-1183.54
-1194.71
-1213.62
-1232.42
-1251.06
-1275.03
-1309.73
-1336.06
-1353.04
-1374.91
-1399.44
-1425.61
-1445.3
-1455.92
-1460.81
-1459.59
-1459.7
-1465.26
-1464.72
-1432.47
-1401.58
-1405.27
-1446.65
-1512.8
-1557.47
-1552.12
-1508.2
-1479.53
-1402.79
-1460.77
-1649.76
-1551.49
-1395.73
-1235.8
-1058.46
-1137.2
-1087.79
-1115.73
-1052.13
-783.778
-204.695
-1134.93
-1134.95
-1134.97
-1134.94
-1134.9
-1134.87
-1134.88
-1134.92
-1134.96
-1135.01
-1134.4
-1134.55
-1135.14
-1134.42
-1132.9
-1132.46
-1143.77
-1150.93
-1161.51
-1172.97
-1188.68
-1210.56
-1232.33
-1254.22
-1279.08
-1308.31
-1335.56
-1355.81
-1373.64
-1396.56
-1425.94
-1446.76
-1457.4
-1462.61
-1461.31
-1458.67
-1454.28
-1452.91
-1430.38
-1407.65
-1413.31
-1440.64
-1497.57
-1541.91
-1527.55
-1483.98
-1453.09
-1416.33
-1470.3
-1614.55
-1529.72
-1366.34
-1265.9
-1085.48
-1150.67
-1087.22
-1058.44
-1027.45
-807.589
-216.536
-1134.94
-1134.95
-1134.96
-1134.94
-1134.89
-1134.87
-1134.89
-1134.96
-1135.08
-1135.33
-1135.39
-1135.75
-1136.04
-1135.8
-1133.31
-1135.58
-1141.57
-1152.04
-1162.32
-1174.16
-1187.92
-1208.68
-1231.21
-1259.46
-1284.37
-1308.61
-1333.23
-1354.18
-1374.42
-1398.61
-1425.84
-1445.76
-1456.97
-1462.16
-1459.75
-1456.24
-1448.43
-1467.51
-1459.39
-1452.71
-1463.29
-1455.5
-1465.83
-1503
-1504.09
-1503.99
-1507.14
-1496.87
-1532.38
-1612.45
-1539.42
-1393.53
-1299.36
-1164.94
-1170.72
-1075.47
-1102.12
-1012.46
-709.498
-222.238
-1134.94
-1134.95
-1134.97
-1134.95
-1134.9
-1134.88
-1134.92
-1135
-1135.16
-1135.43
-1135.69
-1136.37
-1137.09
-1137.18
-1136.52
-1136.82
-1141.1
-1150.68
-1161.05
-1171.99
-1187.43
-1208.19
-1232.53
-1264.26
-1287.71
-1306.99
-1332.08
-1354.54
-1375.32
-1399.86
-1427.81
-1446.31
-1456.72
-1462.12
-1459.65
-1448.78
-1435.57
-1464.16
-1474.01
-1485.81
-1501.81
-1469.72
-1462.6
-1476.83
-1488.35
-1517.11
-1541.82
-1561.31
-1567.79
-1595.5
-1544.42
-1444.37
-1388.64
-1241.73
-1188.26
-1098.19
-1051.48
-901.211
-630.469
-244.8
-1134.95
-1134.96
-1134.98
-1134.96
-1134.92
-1134.91
-1134.95
-1135.05
-1135.24
-1135.58
-1136.09
-1137.03
-1137.94
-1138.61
-1139.4
-1139.07
-1143.67
-1151.04
-1157.16
-1168.2
-1184.7
-1207.48
-1231.66
-1260.95
-1285.98
-1307.71
-1332.39
-1354.79
-1376.12
-1400.8
-1427.52
-1444.74
-1456.17
-1461.05
-1461.38
-1457.14
-1442.2
-1456.65
-1463.88
-1482.26
-1489.47
-1452.52
-1443.99
-1477.55
-1481.73
-1497.9
-1520.19
-1546.7
-1586.87
-1612.04
-1532.94
-1453.62
-1454.56
-1352.3
-1211.25
-1029.35
-940.199
-797.106
-540.143
-117.599
-1134.95
-1134.95
-1134.96
-1134.94
-1134.91
-1134.9
-1134.96
-1135.08
-1135.3
-1135.67
-1136.24
-1137.22
-1138.29
-1139.17
-1140.46
-1140.9
-1145.27
-1151.7
-1157.86
-1167.55
-1182.51
-1203.9
-1229.86
-1259.62
-1283.69
-1305.62
-1331.41
-1354.77
-1376.29
-1400.57
-1427.49
-1446.16
-1457.34
-1462.14
-1462.79
-1454.04
-1441.56
-1455.67
-1465.53
-1478.16
-1475.23
-1449.1
-1447.47
-1476.94
-1481.05
-1527.03
-1560.79
-1576.47
-1590.66
-1651.49
-1586.02
-1485.89
-1493.42
-1403.94
-1253.92
-1054.68
-907.558
-707.415
-435.55
-64.5637
-1134.99
-1135
-1135
-1134.97
-1134.94
-1134.93
-1134.98
-1135.12
-1135.35
-1135.75
-1136.35
-1137.33
-1138.45
-1139.44
-1141
-1142.55
-1146.66
-1152.9
-1159.01
-1168.64
-1182.49
-1202.55
-1228
-1257.34
-1281.55
-1302.62
-1327.72
-1351.8
-1374.09
-1398.29
-1423.97
-1442.63
-1454.38
-1460.08
-1459.78
-1453.1
-1443.23
-1454.98
-1467.35
-1481.08
-1484
-1459.76
-1451.98
-1480.75
-1485.3
-1513.76
-1532.24
-1547
-1579.52
-1592.97
-1513.6
-1429.43
-1425.52
-1343.98
-1206.08
-1021.81
-854.419
-653.725
-387.801
-75.1447
-1134.79
-1134.9
-1134.94
-1134.92
-1134.9
-1134.89
-1134.95
-1135.09
-1135.33
-1135.73
-1136.34
-1137.29
-1138.44
-1139.51
-1141.13
-1142.8
-1147.01
-1153.28
-1159.85
-1169.74
-1183.65
-1203.22
-1228.2
-1256.86
-1280.8
-1301.54
-1325.84
-1350.5
-1373.43
-1397.38
-1421.8
-1440.29
-1452.68
-1459.76
-1459.85
-1455.02
-1446.61
-1454.1
-1465.15
-1476.14
-1476.92
-1456.52
-1451.49
-1476.93
-1489.2
-1521.28
-1541.76
-1557.54
-1575.82
-1587.9
-1532.36
-1450.9
-1432.19
-1348.18
-1208.7
-1015.74
-834.289
-627.663
-359.21
-66.2075
-1134.76
-1134.87
-1134.91
-1134.9
-1134.88
-1134.87
-1134.89
-1134.96
-1134.94
-1134.93
-1134.44
-1134.28
-1134.69
-1134.07
-1133.44
-1132.29
-1139.19
-1147.72
-1165.94
-1181.93
-1190.22
-1208.15
-1228.13
-1249.77
-1274.93
-1307.32
-1334.05
-1352.9
-1374.54
-1399.2
-1424.63
-1443.89
-1455.27
-1460.49
-1460.39
-1459.68
-1459.07
-1453.87
-1429.13
-1408.79
-1409.02
-1451.47
-1512.32
-1553.91
-1547.53
-1497.02
-1457.47
-1379.6
-1510.04
-1675.38
-1608.23
-1375.01
-1212.36
-1079.15
-1153.41
-1080.11
-1121.88
-1054.43
-804.517
-506.259
-1134.96
-1134.96
-1134.96
-1134.94
-1134.9
-1134.89
-1134.9
-1134.98
-1134.97
-1134.97
-1134.39
-1134.33
-1134.82
-1133.89
-1132.98
-1131.78
-1138.73
-1148.37
-1165.77
-1181.4
-1191.84
-1210.53
-1230.76
-1251.45
-1275.11
-1307.05
-1335.16
-1354.19
-1375.26
-1400.4
-1425.77
-1444.33
-1455.66
-1460.8
-1460.66
-1461.16
-1463.2
-1458.77
-1428.16
-1406.1
-1406.86
-1449.41
-1511.72
-1559.86
-1552.79
-1496.65
-1471.06
-1380.65
-1506.51
-1682.36
-1587.11
-1376.6
-1180.38
-1044.85
-1136.21
-1030.66
-1150.28
-1089.36
-830.132
-244.342
-1134.92
-1134.91
-1134.91
-1134.9
-1134.88
-1134.88
-1134.89
-1134.98
-1135.05
-1135.21
-1134.93
-1134.99
-1135
-1133.98
-1132.27
-1131.73
-1138.54
-1147.62
-1168.35
-1183.26
-1194.96
-1213.77
-1232.38
-1251.16
-1274.51
-1308.58
-1335.85
-1353.2
-1374.88
-1399.84
-1426.61
-1446.72
-1457.15
-1462.13
-1460.7
-1461.05
-1466.76
-1465.75
-1433.05
-1400.52
-1404.73
-1446.34
-1512.55
-1558.61
-1554.05
-1511.89
-1480.44
-1401.3
-1464.29
-1651.01
-1557.64
-1390.68
-1228.7
-1059.49
-1139.45
-1077.95
-1117.85
-1055.77
-765.181
-185.08
-1134.93
-1134.94
-1134.95
-1134.94
-1134.91
-1134.9
-1134.91
-1134.99
-1135.05
-1135.21
-1134.88
-1135.07
-1135.47
-1134.7
-1132.54
-1131.98
-1141.67
-1151.25
-1163.48
-1174.34
-1189.38
-1210.85
-1232.15
-1254.13
-1279.09
-1308.68
-1335.67
-1356.34
-1374.89
-1397.6
-1427.23
-1448.66
-1458.93
-1464.07
-1462.32
-1459.28
-1454.56
-1452.48
-1428.69
-1406.44
-1413.16
-1442.49
-1499.52
-1542.73
-1527.14
-1479.48
-1451.15
-1414.65
-1465.43
-1611.53
-1526.14
-1360.73
-1257.21
-1079.55
-1152.01
-1085.55
-1057.9
-1041.9
-793.077
-218.563
-1134.93
-1134.94
-1134.95
-1134.93
-1134.9
-1134.89
-1134.92
-1135
-1135.11
-1135.38
-1135.5
-1135.88
-1136.22
-1135.84
-1133.34
-1134.96
-1140.9
-1152.08
-1161.72
-1172.92
-1186.95
-1208.13
-1231.28
-1260.22
-1285.18
-1309.06
-1333.95
-1355
-1375.03
-1399.23
-1427.03
-1447.19
-1458.52
-1463.76
-1461.02
-1457.05
-1448.69
-1468.24
-1461.31
-1455.36
-1465.72
-1456.18
-1464.85
-1502.99
-1505.12
-1504.96
-1508.25
-1496.2
-1529.98
-1606.65
-1535.25
-1386.35
-1288.47
-1152.14
-1156.91
-1049.29
-1087.06
-1019.26
-693.473
-211.836
-1134.94
-1134.95
-1134.96
-1134.94
-1134.91
-1134.9
-1134.93
-1135.02
-1135.16
-1135.45
-1135.74
-1136.4
-1137.12
-1137.22
-1136.5
-1136.77
-1139.76
-1149.86
-1160.08
-1170.3
-1185.63
-1205.81
-1231.27
-1263.14
-1287.75
-1307.49
-1332.14
-1354.5
-1375.01
-1399.61
-1428.01
-1446.84
-1457.36
-1463
-1460.81
-1449.28
-1436.9
-1465.71
-1475.57
-1487.74
-1504.46
-1471.37
-1462.18
-1476.66
-1492.44
-1524.78
-1549.9
-1569.68
-1568.16
-1593.96
-1542.81
-1445.35
-1388.07
-1233.27
-1174.47
-1079.87
-1041.9
-888.164
-612.085
-256.227
-1134.95
-1134.95
-1134.97
-1134.96
-1134.93
-1134.92
-1134.96
-1135.06
-1135.23
-1135.56
-1136.05
-1136.95
-1137.85
-1138.49
-1139.25
-1138.87
-1143.43
-1150.87
-1156.14
-1166.77
-1183.04
-1205.23
-1229.24
-1259.02
-1285.08
-1306.62
-1331.26
-1353.67
-1374.96
-1399.46
-1426.32
-1444.17
-1455.48
-1460.42
-1461.76
-1457.3
-1442.7
-1457.67
-1464.67
-1482.99
-1491.69
-1455.32
-1445.69
-1478.78
-1484.2
-1503.85
-1526.39
-1552.38
-1589.98
-1613.66
-1535.88
-1455.76
-1454.71
-1345.39
-1196.75
-1003.75
-925.401
-775.019
-533.116
-105.858
-1134.95
-1134.94
-1134.94
-1134.93
-1134.9
-1134.91
-1134.96
-1135.08
-1135.28
-1135.64
-1136.17
-1137.12
-1138.16
-1139.03
-1140.3
-1140.85
-1145.05
-1151.58
-1157.55
-1166.95
-1181.87
-1202.78
-1228.74
-1258.45
-1282.4
-1303.86
-1329.37
-1353.02
-1374.6
-1398.94
-1426.1
-1444.81
-1455.76
-1460.88
-1461.79
-1453.9
-1441.28
-1455.43
-1465.55
-1478.93
-1476.27
-1449.85
-1447.67
-1476.13
-1480.84
-1527.23
-1561.49
-1577.14
-1590.75
-1651.89
-1589.99
-1490.48
-1498.79
-1401.23
-1245.23
-1036.91
-899.079
-687.869
-430.918
-44.8162
-1134.99
-1134.99
-1135
-1134.97
-1134.93
-1134.93
-1134.98
-1135.11
-1135.33
-1135.7
-1136.26
-1137.22
-1138.3
-1139.27
-1140.81
-1142.41
-1146.51
-1152.98
-1158.98
-1168.47
-1182.36
-1202.13
-1227.47
-1256.62
-1280.37
-1300.91
-1325.82
-1349.86
-1372.01
-1396.01
-1421.73
-1440.31
-1452.21
-1458.46
-1458.21
-1451.82
-1442.02
-1453.79
-1466.31
-1480.55
-1483.92
-1459.09
-1450.9
-1480.26
-1485.42
-1512.74
-1531.56
-1545.97
-1579.04
-1592.09
-1514.49
-1430.08
-1424.71
-1337.03
-1194.27
-1003.16
-844.8
-633.345
-390.543
-65.7754
-1134.79
-1134.89
-1134.93
-1134.92
-1134.9
-1134.9
-1134.95
-1135.08
-1135.32
-1135.7
-1136.29
-1137.24
-1138.37
-1139.45
-1141.07
-1142.8
-1146.99
-1153.44
-1159.99
-1169.81
-1183.83
-1203.25
-1228.25
-1256.72
-1280.37
-1300.87
-1325.19
-1349.94
-1372.91
-1396.88
-1421.67
-1440.38
-1453.03
-1459.88
-1459.8
-1454.96
-1446.4
-1453.77
-1464.85
-1476.13
-1477.2
-1456.67
-1451.67
-1477.3
-1489.97
-1521.78
-1542.04
-1557.61
-1576.26
-1587.75
-1532.98
-1451.39
-1432.28
-1342.83
-1199.76
-1001.25
-829.445
-613.607
-366.034
-48.7081
)
;

boundaryField
{
    wall
    {
        type            fixedFluxPressure;
        gradient        nonuniform List<scalar> 
1200
(
-0.838194
-0.45464
-0.750008
-0.637645
-0.609197
-0.530359
-0.425021
-0.387556
-0.200885
-0.127537
-1.53037
-1.28569
-2.63897
-1.85376
-1.9841
-1.82324
-1.4745
-1.81473
-0.84467
-0.935423
-1.80462
-1.88889
-3.69564
-2.14525
-2.61385
-2.37251
-1.6527
-2.45815
-1.00715
-0.823394
0.136469
-0.483183
-1.86313
-0.485452
-1.23227
-1.28643
-0.74172
-1.86133
-0.640241
-0.171763
3.91298
3.25681
2.59756
2.7515
1.75489
0.805636
0.43157
-1.25563
-0.76409
-0.242754
6.92435
7.4643
7.10069
5.73922
4.73821
3.29421
2.16
0.282119
-0.0416449
0.554736
7.86878
11.602
9.66418
6.77302
4.97623
3.11149
1.83728
0.252929
-0.470777
0.317583
12.9892
25.1737
17.1199
12.3459
6.47944
2.82389
0.704876
-1.09292
-2.61284
-1.42155
10.0325
38.8549
22.482
18.2931
5.86142
1.22986
-1.53447
-3.01885
-5.37672
-2.83122
8.21254
89.4321
42.7171
41.436
9.7657
3.02268
-3.08593
-5.18917
-9.60133
-5.44638
6.81688
210.557
94.7615
95.0269
20.5107
9.97941
-7.44158
-12.559
-17.213
-10.266
-32.1816
222.906
115.165
102.07
24.8614
5.85889
-15.9937
-19.0922
-21.973
-11.1726
-41.661
124.944
100.37
64.0254
32.8087
4.39826
-18.9205
-25.36
-29.8004
-14.1516
-34.0756
68.0277
21.0135
55.5897
7.66776
7.23482
-25.7396
-28.2469
-33.539
-11.9588
54.3421
60.9914
-2.43281
-76.4639
4.09894
-5.92883
-28.6164
-32.3734
-39.2598
-12.6176
120.307
71.7903
-16.6872
-93.4532
-126.724
-8.53437
-44.8333
-13.9778
-32.0962
-0.974356
172.014
-6.63135
-111.995
-428.743
-113.257
-263.127
-47.7085
-48.2086
-31.6422
-4.58882
37.7191
73.7714
46.5131
73.6004
9.7202
-166.573
-30.1849
-21.9091
17.3208
33.4645
-0.818732
196.526
-52.1695
401.781
-124.59
-201.595
-201.413
-57.6769
-2.01181
31.6733
65.5839
424.293
-51.7432
267.366
-256.837
-345.392
-286.333
-118.508
-28.3823
18.9756
0.783936
380.468
51.9446
135.212
-200.777
-365.829
-334.247
-127.996
-21.032
39.2436
-24.1323
320.636
32.2824
54.8863
-111.948
-482.299
-453.481
-221.292
-79.256
8.42858
-83.4028
120.961
-5.78223
-41.8388
10.8331
-255.057
-491.667
-220.483
-102.377
14.573
-85.0219
29.7383
18.442
-23.0991
150.672
-219.559
-389.775
-232.453
-141.019
-24.0604
-116.849
5.37454
-113.045
-3.3068
157.852
11.5931
-177.693
-253.301
-232.753
-84.0609
-210.188
-56.5613
-232.352
67.9059
84.9643
96.6476
-219.317
-346.216
-337.53
-132.31
-234.598
-292.679
-39.9633
8.76771
138.849
6.00766
-226.796
-402.934
-375.994
-129.56
-293.4
-395.548
29.7405
97.1862
160.032
-13.0921
-221.87
-341.986
-380.412
-111.575
-295.797
-284.3
-8.09067
250.976
122.229
-68.5566
-232.677
-327.963
-404.057
-106.004
-207.237
-87.2928
78.157
207.465
125.111
-54.6358
-273.233
-321.733
-448.659
-98.7914
-116.555
94.4874
186.387
258.873
241.762
44.0773
-245.338
-287.238
-445.989
-21.7484
-55.9394
177.584
267.162
382.772
293.746
107.744
-114.141
-295.942
-466.408
23.9376
-66.6965
178.507
234.381
310.872
318.701
132.826
-139.137
-339.491
-433.155
78.5409
-125.734
165.621
249.861
293.191
331.283
185.509
-125.64
-259
-324.269
32.1523
-192.366
115.898
204.911
199.799
261.492
238.533
91.8397
-189.742
-307.62
-2.77273
-244.046
59.83
252.286
117.234
186.36
69.3388
57.2651
-13.9876
-249.684
-7.64499
-305.788
-49.6024
307.722
52.8879
80.4443
205.837
86.1164
-39.9583
-227.111
-37.3586
-299.149
-161.26
228.161
-47.1043
97.4842
286.237
188.077
-71.6926
-233.842
-57.0621
-253.706
-121.359
129.746
-276.231
390.116
312.047
148.06
-4.89651
-214.279
-49.3834
-201.91
-234.449
-158.171
-147.867
553.975
383.314
152.282
149.069
-123.683
6.45723
-126.167
-261.041
-67.4106
45.8727
499.893
531.965
446.271
202.654
-69.1014
62.9996
8.21032
-26.9975
-42.323
442.598
157.129
346.062
557.615
160.299
-178.34
40.0659
-114.284
74.3082
-74.1973
389.49
-125.29
-73.4656
318.011
37.7021
-227.743
47.6851
-389.449
10.8792
181.07
24.9618
5.6789
-27.5892
266.75
-159.654
-126.615
81.1875
-211.344
198.203
328.424
-245.364
230.112
871.785
520.649
-24.8654
12.8876
156.81
149.456
462.376
681.991
-982.587
196.224
1517.71
1077.92
67.0298
-131.266
90.7884
256.483
426.22
147.626
-222.536
199.232
1573.42
1025.27
190.269
-47.3776
43.9419
301.574
251.236
-298.012
-158.275
-147.501
1570.58
958.022
158.853
-136.987
1.22173
443.97
842.306
633.461
-838.296
-495.475
52.1005
595.695
12.2393
-178.047
99.1963
159.332
155.809
235.39
-955.476
-1193.29
-264.865
415.992
-149.395
-88.5963
-32.2296
622.146
603.857
1152.45
-844.78
-814.139
-371.127
794.343
584.587
301.745
97.9109
134.84
431.17
-1132.92
-873.552
-1353.82
182.289
553.921
792.866
231.503
101.356
-1235.49
-523.106
-1438.33
-1714.24
-2071.13
-116.078
11.4019
910.056
-98.4632
16.2033
-23.6933
-149.496
370.419
-1008.29
-2579.46
-1564.17
-1438.9
-728.134
-1326.09
-1066.69
1121.05
-619.677
503.436
254.35
-2868.36
-2727
-2865.78
-1897.15
-2307.42
-1783.18
1164.27
163.229
-2068.71
-318.373
-5308.46
-3779.63
-4921.47
-3608.6
-3686.56
-2868.35
-953.767
-454.493
306.342
51.5051
-3607.68
-2044.65
-2828.43
-1706.97
-1860.26
-902.773
-989.755
10.8055
673.295
2960.22
809.977
-2687.99
-4495.38
-3915.3
-4079.46
-2777.53
-2071.15
-1059.92
-3547.73
-3376.58
-3178.85
-3793.42
-1509.71
-886.824
591.769
1437.93
2995.89
-6124.07
-3664.14
430.676
-2109.31
2200.71
-2262.32
-3903.85
-1798.55
-3520.06
0.838192
0.454645
0.750008
0.637644
0.609197
0.530361
0.425025
0.387559
0.200884
0.127538
1.53067
1.28567
2.63894
1.85379
1.98427
1.82339
1.47456
1.81472
0.844653
0.935595
1.8066
1.8891
3.69523
2.14515
2.61357
2.37222
1.65241
2.45776
1.00693
0.824018
-0.130398
0.483883
1.86083
0.485134
1.22984
1.28431
0.74041
1.86008
0.639729
0.173041
-3.90567
-3.25709
-2.60263
-2.75167
-1.75879
-0.808349
-0.432664
1.25446
0.763735
0.242991
-6.92392
-7.46651
-7.10357
-5.74048
-4.7421
-3.29761
-2.16154
-0.285231
0.0413293
-0.557879
-7.8691
-11.6028
-9.6639
-6.77373
-4.9776
-3.11386
-1.83956
-0.257966
0.467619
-0.323464
-12.9885
-25.174
-17.1185
-12.3459
-6.47829
-2.82316
-0.705345
1.08686
2.60424
1.41569
-10.0309
-38.8563
-22.4818
-18.2926
-5.8599
-1.22752
1.5348
3.01077
5.35707
2.82141
-8.22059
-89.4673
-42.7279
-41.4419
-9.76545
-3.02048
3.08731
5.17955
9.5663
5.43065
-6.83797
-210.645
-94.8245
-95.0737
-20.5252
-9.98006
7.44531
12.5503
17.157
10.2351
32.1749
-222.866
-115.189
-102.1
-24.8878
-5.86577
15.9959
19.1126
21.8961
11.1101
41.6835
-124.844
-100.281
-63.9885
-32.8094
-4.40597
18.9205
25.4191
29.6866
14.0512
34.1012
-67.9817
-20.9384
-55.5184
-7.64051
-7.22951
25.743
28.2753
33.3563
11.8372
-54.3218
-60.6458
2.38571
75.7962
-4.06924
5.92947
28.6189
32.3541
39.0497
12.52
-120.415
-71.7608
15.439
93.1779
124.488
8.85822
44.8382
13.8935
31.6786
0.85687
-172.296
7.16649
111.679
429.819
113.379
258.692
43.7009
46.9396
31.5998
4.62252
-37.0822
-70.1173
-44.6167
-72.816
-14.0056
160.321
26.5836
19.569
-17.8847
-33.4268
0.968361
-194.168
52.7855
-398.461
124.65
198.899
194.548
54.1614
-0.40893
-31.7632
-65.6115
-424.324
52.6977
-261.958
258.567
344.811
281.477
111.44
25.3609
-19.1386
-0.866181
-380.575
-51.5726
-130.959
203.614
365.382
331.429
123.016
19.1499
-39.1399
24.0883
-320.477
-32.1719
-52.1815
115.592
481.904
452.273
220.22
79.1547
-7.48006
83.4368
-120.599
5.85358
42.0114
-8.23432
255.675
490.755
219.132
103.667
-11.5376
85.1468
-29.4891
-18.566
21.8367
-150.409
219.981
383.23
233.054
145.37
28.2238
116.984
-5.51813
112.379
-2.74383
-162.784
-11.2205
173.634
255.532
239.116
86.9152
210.387
56.2011
231.715
-83.1103
-96.362
-97.3363
223.734
354.711
342.641
132.879
234.828
292.713
39.9155
-36.2637
-156.444
-9.31492
234.363
419.836
382.706
128.953
293.697
395.699
-29.6424
-135.553
-177.184
6.72931
228.814
360.369
390.78
110.309
296.121
284.355
9.21774
-279.396
-132.696
63.1313
236.125
342.188
416.14
103.66
207.542
87.5293
-74.0188
-209.679
-130.813
52.8156
274.68
326.719
456.744
97.1832
116.739
-93.9761
-180.66
-258.425
-243.013
-43.3479
245.535
283.806
447.605
22.8759
56.0606
-177.196
-265.465
-383.748
-294.348
-107.102
114.418
285.439
463.436
-20.0354
66.7757
-178.442
-238.419
-311.075
-318.948
-131.888
139.825
325.588
429.903
-71.5508
125.755
-165.603
-258.329
-293.423
-330.87
-183.5
126.594
249.649
323.62
-22.2621
192.382
-115.905
-215.375
-200.017
-261.288
-243.508
-90.944
185.396
309.909
14.2616
244.066
-59.8765
-258.061
-117.322
-186.286
-104.596
-62.4909
15.549
256.631
18.0074
305.813
49.5195
-299.877
-52.8
-80.4448
-266.909
-91.3963
45.9305
237.214
45.1802
299.179
161.211
-235.1
47.5246
-95.1163
-296.576
-179.505
73.3709
242.012
64.8434
253.781
121.254
-130.419
278.513
-385.958
-310.933
-132.765
4.8853
219.374
56.3342
202.098
234.548
160.381
150.281
-552.098
-378.904
-136.29
-153.046
127.402
-1.8902
127.099
262.543
67.3885
-47.5849
-497.116
-525.073
-445.532
-202.791
74.5604
-61.9872
-6.01439
27.3311
42.2229
-442.581
-156.79
-346.086
-557.556
-157.887
186.974
-40.9602
115.156
-76.2312
73.5057
-389.231
125.613
73.4497
-315.392
-38.0463
239.596
-46.0714
389.051
-9.10569
-218.027
-23.9572
-3.59935
29.5503
-270.537
165.717
139.496
-76.1952
221.679
-195.938
-378.969
251.888
-223.484
-862.351
-511.687
34.3068
1.32197
-151.803
-145.274
-467.582
-757.834
983.686
-187.458
-1505.66
-1061.43
-62.0227
136.682
-85.5713
-260.585
-451.117
-168.154
225.24
-195.959
-1558.59
-1011.71
-190.818
49.9224
-43.9057
-302.295
-255.971
285.196
156.518
151.521
-1559.18
-952.706
-160.098
138.481
-3.01192
-470.622
-842.181
-634.237
824.648
497.283
-41.7416
-583.241
-2.50488
179.284
-99.1279
-160.853
-157.585
-238.869
954.96
1189.6
276.259
-395.926
170.431
102.967
34.139
-622.934
-604.685
-1156.02
844.259
794.204
377.852
-764.445
-484.232
-297.023
-95.7481
-138.56
-471.659
1139.51
870.254
1324.41
-178.209
-520.085
-722.252
-233.974
-97.6533
1235.28
523.311
1489.46
1697.55
2053.21
120.315
10.1358
-847.009
92.3774
-6.45758
66.9878
150.466
-366.571
987.998
2561
1568.36
1446.02
787.64
1325.41
1071.63
-1089.86
619.509
-512.91
-280.964
2851.97
2728.98
2869.17
1920.8
2311.98
1790.43
-1191.42
-152.427
2063.4
310.319
5295.77
3780.21
4923.34
3621.15
3688.45
2875.72
963.071
454.449
-307.355
-58.78
3604.66
2042.72
2827.88
1718.75
1863.43
916.887
990.518
-3.37048
-676.09
-2978.58
-813.824
2675.84
4494.26
3923.94
4072.44
2777.02
2071.68
1070.21
3556.38
3369.35
3214.1
3789.75
1505
898.553
-579.877
-1436.85
-3000.66
6121.81
3580.51
-413.301
2191.38
-2193.34
2256.3
3917.59
1829
3516.09
)
;
        value           nonuniform List<scalar> 
1200
(
-1134.77
-1134.96
-1134.93
-1134.93
-1134.94
-1134.94
-1134.95
-1134.95
-1134.99
-1134.8
-1134.88
-1134.97
-1134.93
-1134.95
-1134.95
-1134.96
-1134.97
-1134.95
-1135
-1134.9
-1134.92
-1134.98
-1134.94
-1134.97
-1134.97
-1134.97
-1134.98
-1134.96
-1135
-1134.94
-1134.9
-1134.94
-1134.92
-1134.95
-1134.94
-1134.95
-1134.96
-1134.95
-1134.98
-1134.92
-1134.86
-1134.88
-1134.86
-1134.89
-1134.89
-1134.9
-1134.92
-1134.91
-1134.94
-1134.9
-1134.82
-1134.83
-1134.82
-1134.85
-1134.86
-1134.88
-1134.9
-1134.9
-1134.93
-1134.89
-1134.83
-1134.82
-1134.82
-1134.86
-1134.88
-1134.91
-1134.94
-1134.96
-1134.99
-1134.95
-1134.86
-1134.79
-1134.85
-1134.89
-1134.95
-1135
-1135.05
-1135.08
-1135.13
-1135.09
-1134.87
-1134.68
-1134.88
-1134.92
-1135.07
-1135.15
-1135.25
-1135.3
-1135.37
-1135.34
-1134.87
-1134.3
-1134.89
-1134.9
-1135.31
-1135.43
-1135.59
-1135.68
-1135.77
-1135.75
-1134.39
-1132.81
-1134.21
-1134.16
-1135.34
-1135.66
-1136.1
-1136.27
-1136.39
-1136.36
-1134.52
-1132.65
-1134.12
-1134.3
-1135.68
-1136.35
-1137.07
-1137.27
-1137.38
-1137.32
-1135.01
-1133.88
-1134.24
-1134.98
-1135.96
-1137.08
-1137.99
-1138.35
-1138.52
-1138.47
-1134.32
-1133.37
-1133.81
-1134.28
-1135.78
-1137.16
-1138.68
-1139.24
-1139.52
-1139.53
-1133.03
-1132.52
-1132.29
-1133.11
-1133.28
-1136.53
-1139.48
-1140.54
-1141.1
-1141.16
-1131.39
-1131.24
-1131.86
-1132.7
-1135.89
-1136.82
-1139.2
-1140.94
-1142.64
-1142.8
-1137.91
-1138.77
-1139.4
-1144.87
-1141.84
-1141.75
-1143.78
-1145.38
-1146.74
-1147.02
-1147.43
-1147.81
-1147.24
-1150.74
-1152.01
-1151.08
-1151.11
-1151.75
-1152.86
-1153.19
-1165.94
-1164.28
-1168.73
-1160.52
-1162.64
-1161.55
-1157.65
-1158
-1159.01
-1159.76
-1181.44
-1178.22
-1183.65
-1172.31
-1174.82
-1172.9
-1168.91
-1167.84
-1168.7
-1169.69
-1190.21
-1188.98
-1194.58
-1188.35
-1188.44
-1188.37
-1185.53
-1182.83
-1182.54
-1183.55
-1208.32
-1208.12
-1213.53
-1210.43
-1208.97
-1209.39
-1208.6
-1204.45
-1202.75
-1203.2
-1228.75
-1229.85
-1232.43
-1232.46
-1231.19
-1233.16
-1232.89
-1230.4
-1228.26
-1228.17
-1250.41
-1251.22
-1251.02
-1254.29
-1259.08
-1264.79
-1261.9
-1260.19
-1257.7
-1256.93
-1275.8
-1275.08
-1275.34
-1279.1
-1283.99
-1287.66
-1286.4
-1284.31
-1282.15
-1281.02
-1308.9
-1307.47
-1310.31
-1308.16
-1308.41
-1306.76
-1308.27
-1306.47
-1303.47
-1301.88
-1335.81
-1337.35
-1336.15
-1335.58
-1332.9
-1332.1
-1332.97
-1332.41
-1328.67
-1326.18
-1355.1
-1357.15
-1352.97
-1355.59
-1353.8
-1354.6
-1355.35
-1355.63
-1352.75
-1350.79
-1376.75
-1377.39
-1374.94
-1373.01
-1374.12
-1375.51
-1376.71
-1377.12
-1375.09
-1373.7
-1400.74
-1401.06
-1399.26
-1396.04
-1398.3
-1400.01
-1401.5
-1401.39
-1399.41
-1397.62
-1425.5
-1425.07
-1425.19
-1425.28
-1425.23
-1427.71
-1428.15
-1428.24
-1425.09
-1421.84
-1444.31
-1443
-1444.66
-1445.8
-1445.01
-1446.05
-1445.03
-1446.95
-1443.8
-1440.22
-1455.77
-1454.33
-1455.33
-1456.61
-1456.16
-1456.39
-1456.53
-1458.22
-1455.45
-1452.47
-1461.43
-1459.58
-1460.17
-1461.86
-1461.31
-1461.65
-1461.37
-1462.77
-1460.9
-1459.68
-1461.83
-1459.81
-1459.05
-1460.79
-1459.1
-1459.05
-1461.12
-1463.23
-1460.54
-1459.86
-1461.51
-1460.73
-1459.04
-1458.33
-1455.79
-1448.62
-1456.91
-1454.09
-1453.72
-1455.04
-1461.37
-1463.57
-1464.46
-1454.08
-1448.22
-1435.17
-1442.02
-1441.65
-1443.79
-1446.7
-1456.14
-1459.95
-1464.1
-1452.85
-1467.41
-1463.54
-1456.27
-1455.87
-1455.57
-1454.24
-1431.09
-1429.09
-1432.13
-1430.73
-1458.64
-1473.32
-1463.57
-1465.6
-1467.92
-1465.26
-1410.35
-1407.87
-1401.84
-1407.7
-1451.62
-1484.93
-1481.9
-1477.91
-1481.46
-1476.11
-1410.01
-1408.76
-1405.28
-1412.95
-1462.31
-1500.55
-1488.42
-1474.82
-1484.28
-1476.74
-1451.41
-1449.54
-1446.57
-1439.28
-1455.16
-1468.8
-1451.19
-1448.73
-1460.31
-1456.39
-1513.18
-1511.2
-1512.94
-1496.53
-1465.97
-1462.6
-1443.15
-1447.37
-1452.59
-1451.36
-1556.99
-1559.8
-1557.14
-1542.1
-1503
-1476.67
-1476.85
-1477.3
-1481.12
-1476.73
-1549.29
-1551.39
-1551.41
-1528.43
-1503.49
-1486.09
-1480.45
-1481.04
-1485.29
-1488.82
-1495.88
-1493.35
-1506.59
-1486.35
-1503.55
-1513.72
-1495.74
-1526.75
-1513.92
-1521.09
-1455.34
-1467.71
-1479.42
-1453.01
-1506.87
-1538.79
-1518.34
-1560.16
-1532.23
-1541.67
-1377.28
-1378.67
-1402.92
-1416.08
-1497.55
-1559.18
-1544.94
-1575.95
-1547.25
-1557.53
-1506.57
-1499.91
-1459.05
-1471.37
-1533.7
-1568.12
-1586.2
-1590.77
-1579.92
-1575.52
-1674.53
-1681.54
-1648.96
-1615.77
-1615.07
-1596.29
-1611.79
-1652.35
-1593.28
-1587.92
-1603.76
-1582.43
-1548.66
-1530.77
-1540.86
-1545.47
-1531.42
-1585.98
-1512.84
-1532.04
-1373.83
-1373.76
-1398.46
-1367.58
-1396.05
-1444.1
-1452.65
-1484.81
-1428.85
-1450.58
-1220.2
-1184.27
-1239.04
-1269.64
-1303.88
-1389.16
-1455.17
-1491.87
-1425.76
-1432.15
-1079.67
-1046.44
-1057.19
-1087.05
-1171
-1245.52
-1356.67
-1406.38
-1347.32
-1350.87
-1145.51
-1140.1
-1135.99
-1149.84
-1177.56
-1194.92
-1218.85
-1259.37
-1212.01
-1213.25
-1071.74
-1029.29
-1092.69
-1087.75
-1088.21
-1107.81
-1041.19
-1064.22
-1031.33
-1023
-1129.25
-1153.22
-1115.63
-1057.74
-1111.59
-1056.93
-946.775
-912.029
-859.305
-836.619
-1061.61
-1089.48
-1050.42
-1019.87
-1010.76
-907.947
-808.307
-717.125
-664.153
-634.761
-819.863
-837.928
-792.054
-817.199
-717.33
-640.02
-544.083
-437.541
-386.19
-355.642
-486.619
-287.656
-212.274
-214.839
-227.755
-239.39
-122.841
-74.1797
-79.6095
-75.2595
-1134.76
-1134.96
-1134.92
-1134.93
-1134.93
-1134.94
-1134.94
-1134.95
-1134.99
-1134.79
-1134.86
-1134.96
-1134.9
-1134.93
-1134.93
-1134.94
-1134.95
-1134.93
-1134.99
-1134.89
-1134.91
-1134.96
-1134.91
-1134.95
-1134.94
-1134.95
-1134.97
-1134.94
-1134.99
-1134.93
-1134.9
-1134.94
-1134.9
-1134.94
-1134.93
-1134.94
-1134.96
-1134.93
-1134.97
-1134.92
-1134.89
-1134.91
-1134.89
-1134.92
-1134.91
-1134.91
-1134.93
-1134.9
-1134.93
-1134.9
-1134.89
-1134.91
-1134.89
-1134.91
-1134.91
-1134.91
-1134.92
-1134.91
-1134.93
-1134.9
-1134.91
-1134.93
-1134.92
-1134.93
-1134.93
-1134.94
-1134.96
-1134.96
-1134.98
-1134.95
-1134.99
-1135.04
-1135.02
-1135.02
-1135.01
-1135.03
-1135.06
-1135.07
-1135.1
-1135.08
-1134.97
-1135.07
-1135.1
-1135.1
-1135.13
-1135.17
-1135.23
-1135.27
-1135.31
-1135.31
-1134.95
-1135.2
-1135.32
-1135.32
-1135.41
-1135.46
-1135.55
-1135.63
-1135.68
-1135.69
-1134.45
-1134.92
-1135.17
-1135.12
-1135.55
-1135.77
-1136.03
-1136.14
-1136.22
-1136.26
-1134.2
-1134.88
-1135.28
-1135.33
-1135.95
-1136.42
-1136.91
-1137.08
-1137.16
-1137.21
-1134.59
-1135.13
-1135.25
-1135.63
-1136.3
-1137.13
-1137.8
-1138.1
-1138.22
-1138.33
-1133.98
-1134.06
-1134.03
-1134.84
-1135.86
-1137.23
-1138.42
-1138.96
-1139.18
-1139.42
-1133.58
-1133.14
-1132.27
-1132.34
-1133.36
-1136.48
-1139.18
-1140.22
-1140.71
-1141.04
-1132.6
-1131.97
-1131.71
-1131.74
-1134.66
-1136.78
-1138.74
-1140.82
-1142.32
-1142.8
-1139.64
-1138.72
-1138.27
-1140.57
-1140.63
-1139.12
-1143.33
-1144.94
-1146.43
-1146.98
-1147.81
-1148.55
-1147.7
-1151.44
-1152.12
-1149.47
-1150.81
-1151.53
-1153.03
-1153.52
-1165.94
-1166.27
-1168.22
-1164.46
-1161.4
-1159.59
-1155.67
-1157.42
-1158.99
-1160.07
-1182.1
-1182.48
-1183.15
-1174.98
-1172.26
-1169.39
-1166.08
-1166.68
-1168.41
-1169.86
-1190.22
-1192.79
-1195.1
-1189.7
-1186.42
-1184.69
-1182.22
-1181.57
-1182.32
-1183.93
-1208.09
-1211.32
-1213.85
-1210.97
-1207.83
-1204.61
-1204.11
-1202.24
-1201.93
-1203.26
-1227.92
-1231.05
-1232.37
-1232.02
-1231.3
-1230.64
-1228.01
-1228.21
-1227.21
-1228.28
-1249.56
-1251.53
-1251.2
-1254.06
-1260.6
-1262.62
-1258.08
-1257.88
-1256.25
-1256.64
-1274.63
-1275.14
-1274.2
-1279.08
-1285.58
-1287.79
-1284.67
-1281.78
-1279.75
-1280.14
-1306.79
-1306.9
-1308
-1308.86
-1309.29
-1307.72
-1306.05
-1302.99
-1300.05
-1300.53
-1333.46
-1334.42
-1335.76
-1335.72
-1334.33
-1332.13
-1330.66
-1328.33
-1324.86
-1324.85
-1352.16
-1353.19
-1353.27
-1356.65
-1355.42
-1354.46
-1353.09
-1352.12
-1348.89
-1349.65
-1373.8
-1374.55
-1374.85
-1375.6
-1375.35
-1374.83
-1374.36
-1373.74
-1370.98
-1372.64
-1398.68
-1400.18
-1400.02
-1398.14
-1399.56
-1399.46
-1398.75
-1398.11
-1394.87
-1396.64
-1424.34
-1426
-1427.02
-1427.88
-1427.64
-1428.11
-1425.69
-1425.37
-1420.61
-1421.61
-1443.75
-1444.75
-1447.35
-1449.63
-1447.94
-1447.1
-1443.88
-1444.05
-1439.15
-1440.44
-1455.11
-1456.09
-1457.75
-1459.72
-1459.34
-1457.69
-1455.12
-1454.93
-1451.14
-1453.21
-1460.18
-1461.2
-1462.78
-1464.82
-1464.6
-1463.47
-1460.1
-1460.27
-1457.65
-1459.93
-1459.9
-1460.92
-1461.27