/*--------------------------------*- C++ -*----------------------------------*\
  =========                 |
  \\      /  F ield         | OpenFOAM: The Open Source CFD Toolbox
   \\    /   O peration     | Website:  https://openfoam.org
    \\  /    A nd           | Version:  8
     \\/     M anipulation  |
\*---------------------------------------------------------------------------*/
FoamFile
{
    version     2.0;
    format      ascii;
    class       surfaceScalarField;
    location    "900";
    object      phi;
}
// * * * * * * * * * * * * * * * * * * * * * * * * * * * * * * * * * * * * * //

dimensions      [1 0 -1 0 0 0 0];

internalField   nonuniform List<scalar> 
2860
(
0.00801715
-9.50753e-07
-0.00050231
0.00798963
6.74823e-05
-0.00142064
0.00793638
6.93938e-05
-0.0025148
0.00789158
6.79005e-05
-0.00242424
0.0078666
6.69231e-05
2.28472e-05
0.00782497
6.45802e-05
0.00438555
0.00773801
9.83025e-05
0.00939654
0.00759628
0.000179355
0.0179304
0.00729599
0.000329351
0.0249844
0.00704448
0.000390008
0.0332534
0.00773651
0.000121628
0.0597795
0.0088384
0.000148843
0.0755244
0.0090818
0.000656689
0.0734209
0.00788932
0.00155289
0.0624807
0.00678433
0.00127405
0.0990343
0.00981682
-0.00281977
0.0860538
0.0154039
-0.00458653
0.0707759
0.0209386
-0.00556126
0.0708986
0.0240263
-0.00308137
0.0794725
0.0253638
-8.73694e-05
0.109456
0.0278301
5.22957e-05
0.151044
0.0307783
7.45837e-05
0.20451
0.0336638
-0.000323952
0.246469
0.0371709
-0.00173463
0.279627
0.0412037
-0.00320962
0.289659
0.0443864
-0.00276755
0.27518
0.0465846
-0.00197163
0.251755
0.0488504
-0.00234337
0.217656
0.0514063
-0.00275784
0.183358
0.053875
-0.00276192
0.160394
0.0557796
-0.00213592
0.148738
0.0570458
-0.0013965
0.143951
0.0576798
-0.000710225
0.138543
0.0575089
0.000157655
0.127867
0.0568656
0.000712243
0.111954
0.0559813
0.00105299
0.0918078
0.0540728
0.00214453
0.0661138
0.0495319
0.00524385
0.0397326
0.0450009
0.0061564
0.0144552
0.0431532
0.00295877
-0.00823284
0.04392
-0.000857685
-0.0275679
0.0461079
-0.00249643
-0.0283957
0.049059
-0.00323082
-0.0392983
0.0458982
0.00327646
-0.0755157
0.0345695
0.010952
-0.0928418
0.0182475
0.0165979
-0.0779607
0.000574398
0.022702
-0.0439168
0.0196736
0.00513284
0.00783372
0.0139311
0.00935851
0.0626811
0.00352949
0.0189979
0.052889
0.00175929
0.00322278
0.126764
-0.00248211
0.00907824
0.085781
-0.0152046
-0.00915108
-0.15171
0.0213786
-0.0205102
-0.0690576
0.0482405
-0.00992654
0.0644314
0.0687696
-0.0108344
0.167193
0.0735333
0.00398581
0.120999
0.0497086
0.0259692
0.0762674
0.00466159
0.0475149
-0.122457
0.0304185
0.567697
0.00799228
-3.4787e-05
-0.000270728
0.00797889
3.87798e-05
-0.00107379
0.00793456
5.8167e-05
-0.0022646
0.00791416
6.72542e-05
-0.00258956
0.00792428
6.70555e-05
-0.000571073
0.00789911
9.0494e-05
0.00408955
0.00779832
0.000196145
0.0113367
0.00757666
0.000457421
0.0274557
0.00703971
0.000980132
0.053313
0.00648483
0.00177921
0.15004
0.0050896
0.00231803
0.420434
0.00291442
0.00208035
0.555199
0.00165838
0.001046
0.408179
0.00129848
0.00126937
0.238092
0.0025396
-0.000949496
0.109301
0.00620044
-0.00665248
-0.159878
0.00840714
-0.00723944
-0.148686
0.0110556
-0.00981354
0.0350507
0.0149133
-0.00775495
0.138774
0.0175976
-0.000967821
0.378628
0.0188185
-0.000309937
0.541121
0.0197431
-0.00114182
0.582879
0.0202821
-0.00169016
0.531258
0.0210503
-0.00307487
0.466073
0.0228899
-0.00524895
0.409033
0.0250066
-0.00548646
0.349664
0.0258354
-0.00374647
0.268641
0.0259031
-0.00340463
0.188165
0.0262062
-0.00398261
0.143166
0.0266108
-0.00397006
0.138714
0.0265724
-0.00264207
0.160832
0.0261114
-0.00147516
0.190261
0.0252233
-0.000449494
0.211812
0.0235383
0.00086874
0.221854
0.0217653
0.00132726
0.215535
0.0207224
0.000983431
0.196308
0.0198253
0.00203375
0.154955
0.0164155
0.0084878
0.0971577
0.0109199
0.0114487
0.0465858
0.00743781
0.00393316
-0.040761
0.00238153
-0.00100762
-0.0819482
0.00346663
-0.00688358
-0.0310509
-0.000612235
-5.31202e-06
-0.00184611
-0.0110047
0.00977051
-0.0390066
-0.0144013
0.0238402
-0.0564435
-0.0155297
0.0299843
-0.0121428
-0.0120956
0.021831
-0.00568425
-0.000256516
0.0129679
-0.0691443
-0.000826471
0.00154812
0.145433
0.00892392
0.0136543
0.0777569
-0.00191619
0.0137724
0.214079
-0.0185426
0.0277363
0.0821417
-0.0384304
0.0238074
-0.106338
-0.0119637
0.0110165
-0.0320004
0.0133585
0.00756753
0.0119727
-0.00534715
0.0255841
0.0555396
0.000961622
-0.00329266
-0.11375
0.0200363
0.00195049
0.0537285
0.0213516
0.0348253
-0.158317
0.0247897
-0.291815
0.00794985
4.05558e-05
-0.000430027
0.0079445
7.73899e-05
-0.00206053
0.00792209
8.21984e-05
-0.00433935
0.0079255
8.57969e-05
-0.00546903
0.00794469
9.702e-05
-0.00380772
0.0079443
0.000137545
0.000701589
0.0079038
0.000262799
0.00692774
0.00784775
0.000570155
0.0184469
0.00770911
0.00121475
0.0358939
0.00760047
0.00233646
0.0896065
0.0070868
0.00368852
0.269155
0.00555486
0.00384788
0.421502
0.00301559
0.00276764
0.382746
0.00132757
0.00162297
0.217344
0.00186018
0.00110694
-0.0563083
0.0023513
-0.00649212
-0.333589
-0.000335271
-0.00426333
-0.161928
-0.00416994
-0.00868841
0.160497
-0.0010614
-0.0130829
0.196167
0.0057661
-0.00763244
0.287308
0.00798476
-0.00243399
0.335511
0.00646126
-0.000268156
0.301445
0.00153539
0.00207837
0.2168
-0.00455838
0.00251939
0.213999
-0.00809713
-0.00147595
0.230188
-0.00825668
-0.0046644
0.24572
-0.0105538
-0.00138719
0.267095
-0.0155063
0.00118237
0.276042
-0.0195694
-8.73736e-05
0.281175
-0.0238687
-0.000414149
0.289678
-0.0289579
0.000623577
0.296832
-0.0337388
0.00143912
0.307721
-0.036305
0.00164192
0.30607
-0.0361728
0.00152608
0.281841
-0.0340063
0.000652209
0.230868
-0.0306839
-0.00113658
0.169286
-0.0262915
-0.00250598
0.0969349
-0.0249364
0.00390879
0.0477671
-0.0287324
0.0119576
-0.00690123
-0.0375871
0.0148438
-0.063844
-0.046675
0.00767003
-0.0478911
-0.0537885
-0.00529765
-0.0416499
-0.0562818
-0.00701471
-0.023244
-0.0524995
0.00310441
0.0119521
-0.0442083
0.0116271
-0.00910377
-0.0350543
0.0183786
-0.0290358
-0.0281213
0.0134614
-0.149893
-0.0157749
0.00571054
-0.308742
-0.00545314
0.00359471
-0.184839
-0.00748873
0.0116121
0.19572
-0.0133
0.0219532
0.327056
-0.0144422
0.0253998
-0.309559
-0.00505408
0.0199398
-0.71837
0.000181409
0.014064
-0.401191
0.00176736
0.0162298
-0.149653
0.00243041
0.0262771
-0.375431
-0.00318471
0.00367262
-0.44849
-0.00336661
0.00315769
-0.263763
0.00809823
0.0234973
-0.710477
0.0207831
-0.674203
0.0079819
5.44405e-05
-0.00035995
0.0079792
6.67317e-05
-0.00151704
0.00794728
6.88984e-05
-0.00287826
0.00793553
7.90436e-05
-0.00323084
0.00795703
9.50745e-05
-0.00156712
0.0079675
0.000141738
0.00197137
0.00794465
0.00028274
0.00620984
0.00789391
0.000648898
0.0143131
0.00780603
0.00137829
0.0276563
0.00795711
0.00255598
0.0677093
0.00836491
0.00413184
0.207519
0.00812511
0.00444722
0.339544
0.00680138
0.00372536
0.351384
0.00459398
0.00299561
0.287956
0.00048556
0.0035048
0.0982488
-0.00652033
0.00332945
-0.339754
-0.0144105
0.00149019
0.0558045
-0.0208537
-0.00270418
0.224282
-0.0275806
-0.00636404
0.288365
-0.033342
-0.00297781
0.311032
-0.037557
0.000440126
0.317631
-0.041274
0.00250549
0.32645
-0.0449869
0.00528607
0.338193
-0.0482868
0.00582521
0.358378
-0.0501187
0.000623228
0.368552
-0.0506735
-0.00299393
0.364148
-0.0492472
-0.000208187
0.341865
-0.04568
0.00248702
0.294393
-0.0422127
0.00305652
0.202659
-0.0433825
0.00347004
0.0837487
-0.0487586
0.00213093
0.0350917
-0.0532064
0.00149517
0.00325001
-0.0558432
0.0021593
-0.0454143
-0.058042
0.00138076
-0.0894676
-0.0595244
-0.000657611
-0.135528
-0.0605144
-0.00341891
-0.174881
-0.0614236
-0.00444076
-0.205915
-0.0627151
0.00498246
-0.232316
-0.0638562
0.0140577
-0.258215
-0.0653777
0.0182699
-0.286955
-0.0675427
0.0104451
-0.324372
-0.0692408
-0.00529433
-0.370644
-0.0708705
-0.00859284
-0.427445
-0.0747138
0.00255126
-0.477717
-0.0788499
0.0134231
-0.54539
-0.0806454
0.0198585
-0.632401
-0.081031
0.0152733
-0.717956
-0.0791066
0.0055165
-0.801764
-0.0759757
0.00275295
-0.826201
-0.0741738
0.0102009
-0.781402
-0.0716043
0.0233831
-0.813415
-0.0695865
0.0288399
-0.97432
-0.0652298
0.0196967
-1.02666
-0.0519687
0.00932523
-0.857348
-0.034072
0.0071488
-0.599108
-0.0157995
0.0117209
-0.466263
-0.00937068
0.00500731
-0.24461
-0.0104981
0.00701125
0.216243
-0.0156737
0.0182041
-0.730907
0.0188893
-0.402234
0.00797719
6.75609e-05
-0.000336392
0.00796724
6.60125e-05
-0.00157263
0.00793763
6.20618e-05
-0.00320239
0.00793362
7.4094e-05
-0.00396874
0.00796245
9.58501e-05
-0.00286649
0.00799105
0.000156327
9.84279e-05
0.00800069
0.000296411
0.00331476
0.00804866
0.000623835
0.00788757
0.00816946
0.00130526
0.0139623
0.00853671
0.00239401
0.0324433
0.00924953
0.00399374
0.108944
0.00976943
0.0044309
0.210733
0.00973098
0.00379781
0.262538
0.00884176
0.0034966
0.252567
0.00807512
0.00357065
0.186503
0.0084204
0.00866078
-0.0038108
0.00640196
0.00704719
-0.220914
0.00211837
0.00176333
-0.197573
-0.00603619
0.000450003
-0.0604051
-0.0136512
0.00314127
0.0701972
-0.0197387
0.00538069
0.180452
-0.0250929
0.006625
0.254185
-0.0295759
0.00855159
0.301414
-0.032414
0.00799465
0.323302
-0.0337426
0.00191338
0.311118
-0.0342371
-0.00122117
0.286704
-0.0334538
0.00187455
0.248459
-0.0316413
0.00479429
0.172059
-0.0323449
0.00684672
0.0735227
-0.0367354
0.00758086
0.014428
-0.0427642
0.00644197
-0.0148182
-0.0474494
0.00442543
-0.0493241
-0.0509711
0.00391895
-0.0895254
-0.053864
0.00234208
-0.13383
-0.0560559
-0.00028642
-0.18124
-0.0578733
-0.00235752
-0.223083
-0.0601169
-0.00332911
-0.258532
-0.0651364
0.00770343
-0.295818
-0.0691816
0.018217
-0.33018
-0.0726272
0.0221363
-0.379281
-0.075848
0.0124735
-0.446205
-0.0783267
-0.0058666
-0.522859
-0.0807456
-0.00832622
-0.607221
-0.0835058
0.0016032
-0.681096
-0.0857889
0.0128788
-0.763794
-0.0876449
0.0197108
-0.878307
-0.0900465
0.0148984
-0.999174
-0.0938719
0.00556612
-1.14069
-0.0985677
0.004385
-1.28007
-0.102107
0.012055
-1.38695
-0.103031
0.0245669
-1.46486
-0.103396
0.0300923
-1.5903
-0.102568
0.0198853
-1.7044
-0.0994826
0.00662774
-1.73942
-0.0950361
0.0028828
-1.70875
-0.0888403
0.00636327
-1.6448
-0.0813452
-0.00033741
-1.48618
-0.0705951
0.00161807
-1.18711
-0.0676658
0.0155663
-1.07001
0.0237882
-0.918379
0.00797641
6.95845e-05
-0.000291046
0.00796642
5.70008e-05
-0.00142869
0.00793814
4.87971e-05
-0.00291296
0.00793581
5.91406e-05
-0.00371972
0.00796874
8.33702e-05
-0.0032156
0.00801841
0.000146979
-0.00115193
0.00805574
0.000287638
0.000878047
0.00812175
0.000574115
0.00300763
0.00830855
0.00115161
0.00517076
0.0087816
0.00204806
0.0128018
0.00970858
0.00336777
0.0491436
0.0106466
0.00382478
0.10755
0.0111991
0.00346324
0.154678
0.0111141
0.00349569
0.176826
0.010707
0.0039182
0.175604
0.0112795
0.0082053
0.095983
0.0120338
0.00879868
-0.143933
0.0109127
0.00399254
-0.262146
0.00799633
0.00340234
-0.353798
0.0054997
0.0057717
-0.400878
0.00303628
0.00820689
-0.302793
-0.000883337
0.010216
-0.146217
-0.00410502
0.0103507
0.121423
-0.00382467
0.00672273
0.152941
-0.0054211
0.00273272
0.191895
-0.0104997
0.00325236
0.214611
-0.0136845
0.0055481
0.20098
-0.0140599
0.00700723
0.1742
-0.0134593
0.00937806
0.120766
-0.0142522
0.0105399
0.0884629
-0.0159335
0.0085455
0.0992019
-0.0169846
0.00537791
0.119286
-0.0176611
0.00463794
0.13008
-0.0167938
0.00190085
0.140795
-0.0174984
0.00148908
0.131829
-0.0236053
0.0061489
0.0775756
-0.0337154
0.00698559
0.0251298
-0.0478065
0.00495017
-0.0630942
-0.051357
0.00758747
-0.105462
-0.0514537
0.00924831
-0.121879
-0.048831
-0.00041024
-0.116347
-0.0462415
-0.00878828
-0.138424
-0.0495183
-0.00701106
-0.263585
-0.0522771
0.000938679
-0.35746
-0.0528394
0.00946264
-0.398084
-0.0536978
0.0133251
-0.464515
-0.0566707
0.0101154
-0.58678
-0.0636873
0.00672311
-0.785242
-0.0724208
0.00770508
-1.02726
-0.0797844
0.0147654
-1.18086
-0.0834524
0.0232
-1.29248
-0.084387
0.0259832
-1.38788
-0.0842539
0.0149646
-1.51067
-0.0840557
0.00351585
-1.65359
-0.0841637
0.00118908
-1.70869
-0.0832094
0.00472841
-1.63752
-0.0824318
0.000388971
-1.42394
-0.0784343
-0.000603497
-1.21589
-0.0777431
0.0158791
-0.962704
0.0294981
-0.6406
0.00797862
5.6054e-05
-0.000236442
0.00797458
2.51039e-05
-0.00115742
0.00794751
1.73205e-05
-0.00220776
0.00794346
2.79038e-05
-0.00270404
0.00797924
5.00589e-05
-0.0024706
0.00804799
0.000100906
-0.00115295
0.00812726
0.000220942
-2.12066e-06
0.00822819
0.000458624
0.00056982
0.00846272
0.000905022
0.00027942
0.00900036
0.00160588
0.00117107
0.00995775
0.00261431
0.0114263
0.0110019
0.00295723
0.0330828
0.0118607
0.00271887
0.0563171
0.0124022
0.0028366
0.0730367
0.0126424
0.00341211
0.0822388
0.0141395
0.00630074
0.0718194
0.0159956
0.00780065
-0.0194031
0.0163053
0.00586846
-0.0974253
0.0160494
0.00527206
-0.232469
0.0159654
0.00643138
-0.36258
0.0158515
0.00834974
-0.411131
0.0159345
0.0101014
-0.393784
0.0174979
0.0101942
-0.331115
0.0191333
0.00611347
-0.307059
0.0181926
0.00276714
-0.252634
0.0153786
0.00378138
-0.179979
0.0124021
0.00555726
-0.0952299
0.0099443
0.00725555
-0.0410299
0.00947658
0.00903392
-0.0199236
0.0102639
0.00981978
-0.0322639
0.0101606
0.0087528
-0.0403954
0.00815184
0.0078072
-0.0231152
0.00636132
0.00655847
-0.0183541
0.00325093
0.00412447
-0.0346878
0.00110526
0.00179111
0.0329128
0.00479662
0.00190741
0.0600503
0.00641355
0.00496157
0.081969
0.00106853
0.00629172
0.0855523
-0.0041218
0.00733057
0.0472438
0.00210181
0.00159339
0.0337856
0.00856794
-0.00600364
0.208745
0.00448559
-0.00437272
0.346285
-0.00522955
0.00122965
0.304148
-0.00859225
0.00219992
0.0930967
0.00151298
0.00521077
0.151832
0.00571247
0.0131219
0.346781
0.00379055
0.0129587
0.38906
-0.0036028
0.0127399
0.291381
-0.0155339
0.0119466
-0.474638
-0.0248158
0.020764
-0.818441
-0.0272922
0.0225144
-0.950477
-0.0258054
0.0209911
-1.11375
-0.0280504
0.012703
-1.3175
-0.0346148
0.005809
-1.69182
-0.0397766
0.00394221
-1.98994
-0.0425169
0.0056972
-1.97414
-0.0450324
0.00194034
-1.70977
-0.0473961
0.00175557
-1.53022
-0.0490312
0.0164684
-1.03039
0.0283992
-0.926479
0.00794774
9.2922e-05
-0.000218822
0.00794048
3.05854e-05
-0.00134272
0.00791983
1.54996e-05
-0.00286751
0.00793123
1.22116e-05
-0.00401225
0.00798348
2.90328e-05
-0.00476751
0.00806138
7.44686e-05
-0.00453886
0.00816151
0.000163012
-0.004259
0.00830336
0.000326971
-0.00464502
0.00856911
0.00063396
-0.00584799
0.00910482
0.00110853
-0.00740878
0.0100576
0.00174368
-0.00879647
0.0110541
0.00200508
-0.00678885
0.0118753
0.00196922
-0.00363122
0.0128659
0.00195349
0.00139756
0.0136367
0.00233856
0.00679887
0.0157539
0.00447777
0.0221008
0.018346
0.0055068
-0.00158845
0.019956
0.0050311
-0.0303144
0.0214555
0.00550845
-0.0993545
0.0230022
0.00620353
-0.201834
0.024772
0.0069506
-0.283682
0.0269246
0.0076827
-0.339088
0.0292594
0.00762269
-0.359205
0.0301624
0.00502951
-0.377414
0.0294142
0.00267772
-0.378787
0.0282796
0.00289417
-0.352011
0.0270921
0.00402056
-0.307357
0.0264337
0.00547291
-0.255349
0.0273522
0.00701547
-0.223908
0.029675
0.00775646
-0.220859
0.0323584
0.00722657
-0.237672
0.0352089
0.00651418
-0.262207
0.0377301
0.0052095
-0.287086
0.0390071
0.00344177
-0.302704
0.0381813
0.00226881
-0.302293
0.0365582
0.00279769
-0.272552
0.0361856
0.0049877
-0.228363
0.0359639
0.00572399
-0.187667
0.0379711
0.00600228
-0.160434
0.0373402
0.00325968
-0.143024
0.0316768
5.66655e-05
-0.117999
0.0270834
0.0011096
-0.0941365
0.0245922
0.00405314
-0.0605374
0.019619
0.00580765
-0.0695068
0.0211635
0.00687492
-0.0320242
0.0258946
0.00260407
0.0907884
0.0294383
-0.00249633
0.11337
0.0298997
-0.000946878
0.113584
0.0222384
0.000677206
-0.0223205
0.0163266
-0.00418477
-0.191335
0.0219644
-0.00100457
-0.329657
0.02685
0.00286563
-0.425257
0.0255899
-0.0027426
-0.381524
0.0211122
-0.00316422
-0.480507
0.0185904
0.000685783
-0.854626
0.0160315
0.00478658
-1.44294
0.0138337
0.00198081
-1.53272
0.00770797
0.00400701
-1.7486
0.00818683
0.0142809
-1.22388
0.0170671
-1.26712
0.00798879
1.78384e-05
-0.0001133
0.00797313
-4.67418e-05
-0.000639786
0.00793559
-4.98112e-05
-0.00128085
0.00792868
-4.58593e-05
-0.00169991
0.00797051
-2.49948e-05
-0.00219586
0.00805169
6.62131e-06
-0.00224165
0.00816527
5.64628e-05
-0.00255898
0.00833129
0.00014347
-0.00417
0.00863396
0.000310381
-0.00731329
0.00918762
0.000570676
-0.0123579
0.0100743
0.000891957
-0.0198885
0.0110758
0.0010177
-0.0270791
0.0120652
0.00102798
-0.0354167
0.013091
0.00107824
-0.0428044
0.0143142
0.00128068
-0.0489179
0.0166124
0.0023045
-0.0408061
0.0193777
0.00289189
-0.0382421
0.0217768
0.00280657
-0.033769
0.024541
0.00336546
-0.0496949
0.0274982
0.00386636
-0.0879678
0.030678
0.00431537
-0.133552
0.0340867
0.00446748
-0.186045
0.0373117
0.00410981
-0.224699
0.0391329
0.00261344
-0.250481
0.0399157
0.0014951
-0.281006
0.0409289
0.00151873
-0.318324
0.042349
0.00183416
-0.343861
0.0442906
0.00243155
-0.351806
0.0471273
0.00326453
-0.356481
0.0506189
0.00380504
-0.369547
0.0540965
0.00364301
-0.389254
0.0572658
0.00339415
-0.41422
0.0595572
0.00292841
-0.437133
0.0606434
0.00222859
-0.452078
0.0609223
0.00154657
-0.461467
0.0613694
0.00161992
-0.45929
0.0629734
0.00284894
-0.448248
0.0650788
0.00314644
-0.434775
0.0676494
0.0031282
-0.424022
0.0691086
0.00132502
-0.416867
0.0686171
-0.000528617
-0.412996
0.0683336
0.000320554
-0.411258
0.0693426
0.00230454
-0.396586
0.0709164
0.00310285
-0.368948
0.0739965
0.00401828
-0.338688
0.0753577
0.00191464
-0.335767
0.0741382
-0.000444194
-0.332429
0.0740688
-0.000134193
-0.336288
0.0730423
-0.000924195
-0.325439
0.0709773
-0.00140529
-0.325808
0.0712868
0.0011613
-0.308591
0.0736847
0.00323306
-0.303798
0.0727254
-0.00022102
-0.310282
0.0710782
-0.000828776
-0.393805
0.0713618
0.000770556
-0.557832
0.0727589
0.00297264
-0.843138
0.0735197
0.00215035
-1.01085
0.0732063
0.00409964
-1.30329
0.0775827
0.00911389
-1.22544
0.00955485
-1.28074
0.00801537
-7.00726e-05
0.00798308
-0.000663423
0.00793257
-0.00118368
0.00789735
-0.00128351
0.00790307
-0.00141197
0.00794781
-0.00106792
0.00802891
-0.000904252
0.00817089
-0.00185742
0.00846827
-0.00375998
0.00902542
-0.00731898
0.00991068
-0.0136865
0.0109242
-0.0202121
0.0119497
-0.0276177
0.013057
-0.0334702
0.0143779
-0.039407
0.01675
-0.0397946
0.0196434
-0.0403991
0.0224271
-0.0319211
0.0258548
-0.0282263
0.0299137
-0.0329119
0.0344606
-0.039779
0.0390343
-0.0549405
0.0429925
-0.0682307
0.0453121
-0.0805259
0.0467819
-0.097243
0.0485671
-0.121774
0.0507653
-0.147817
0.0534684
-0.172212
0.0569004
-0.194917
0.0606992
-0.214315
0.0642308
-0.224674
0.0673599
-0.229688
0.0698199
-0.228532
0.07138
-0.227585
0.0722792
-0.227623
0.0732819
-0.228823
0.0755507
-0.235489
0.0783083
-0.244539
0.0812111
-0.251807
0.0825886
-0.252844
0.0821843
-0.249347
0.082759
-0.248029
0.0851445
-0.248749
0.0880971
-0.247213
0.0917786
-0.240901
0.0932278
-0.236217
0.092585
-0.234411
0.0921673
-0.234266
0.0913876
-0.229456
0.0897344
-0.230375
0.0900636
-0.223798
0.0928536
-0.218471
0.0921086
-0.215865
0.0906317
-0.268904
0.0905789
-0.360946
0.0925154
-0.512529
0.0950387
-0.571394
0.099369
-0.740123
0.10958
-0.72729
-0.908738
0.00801496
-5.56985e-07
0.00799206
6.46941e-05
0.0079519
6.76897e-05
0.00791128
6.92517e-05
0.00787342
7.03013e-05
0.00782359
6.35035e-05
0.00774752
7.37358e-05
0.00759488
0.000150469
0.00730303
0.000315861
0.00700909
0.000400724
0.00765792
0.000120251
0.00875825
0.000147492
0.00900245
0.000640082
0.00789855
0.00151574
0.00683182
0.00111365
0.00993803
-0.00286312
0.0152319
-0.00493483
0.0210816
-0.00561808
0.0243986
-0.00339321
0.0257083
-0.0001935
0.0282236
0.000149671
0.0310996
0.000238482
0.0339395
-0.000156044
0.0373722
-0.00163529
0.0414031
-0.00311292
0.0445628
-0.00277444
0.0467004
-0.00198197
0.0489607
-0.00229651
0.0515518
-0.00272061
0.0540749
-0.0026292
0.0559398
-0.0019568
0.0571131
-0.00125734
0.057682
-0.000586849
0.0574761
0.000255459
0.056873
0.000785782
0.05597
0.00127615
0.0538489
0.002874
0.0485948
0.00622072
0.0432385
0.00645153
0.0411732
0.00438185
0.0434345
-0.000896289
0.0468619
-0.00215901
0.0495432
-0.00182062
0.0466881
0.000355526
0.0362291
0.00842071
0.0214098
0.0171031
0.0113873
0.0206781
0.0315593
0.00193594
0.0277125
0.00685569
0.0007433
0.0143245
-0.0103798
-0.00209173
-0.00837505
0.0110682
-0.000736105
-0.00146494
0.0257711
-0.0188076
0.043525
-0.0219641
0.0623671
-0.0193608
0.0671443
-0.00026743
0.0476711
0.0298166
0.00550724
0.0523343
0.0360022
0.00798974
-3.55525e-05
0.0079775
3.43563e-05
0.00794896
5.0288e-05
0.0079418
5.83563e-05
0.00794795
6.01759e-05
0.00791888
8.11045e-05
0.00783009
0.000145627
0.00759977
0.00038647
0.00706833
0.000928234
0.00649937
0.00174757
0.00510498
0.00230417
0.00294024
0.00209901
0.00167605
0.00107905
0.0013008
0.00130293
0.00254599
-0.00112347
0.00610594
-0.00678211
0.0082698
-0.00759188
0.0110619
-0.00995993
0.0148613
-0.00809495
0.0176915
-0.00133876
0.0190147
-0.000225855
0.0199644
-0.000924052
0.0205095
-0.00146924
0.0212443
-0.00293629
0.0230632
-0.00522498
0.0251654
-0.00542987
0.0260065
-0.00358591
0.0261389
-0.00321084
0.0264905
-0.00387215
0.0269561
-0.00396827
0.0269514
-0.00253906
0.0264837
-0.00119782
0.0255168
-0.000234367
0.0237849
0.00103821
0.0221176
0.00134485
0.0212673
0.00111166
0.0205118
0.00324817
0.016724
0.0109328
0.0111408
0.0138237
0.00664935
0.00670496
0.000712166
0.000509029
0.00170087
-0.00504488
-0.00354335
-0.000904591
-0.00796661
0.00584398
-0.00658239
0.0182775
-0.0102414
0.0287441
-0.00865011
0.0193546
0.00344688
0.0044444
0.00811305
-0.00184389
0.00442326
0.00512627
-0.00949225
0.00960138
-0.0157754
0.0264932
-0.0140319
0.021396
-0.00492148
0.00854977
-0.00209299
0.00895575
-0.0211408
0.0246444
-0.0082037
0.00205669
0.0214736
0.00111133
0.0363422
0.0360602
0.0337954
0.00794444
3.99576e-05
0.00794193
7.11754e-05
0.00793994
7.24389e-05
0.00795889
7.25359e-05
0.00798157
7.75377e-05
0.00797491
0.000115268
0.00793564
0.000205105
0.00786208
0.000471859
0.00772763
0.0011286
0.00760959
0.00228038
0.00709614
0.00365759
0.00556953
0.00386071
0.00301676
0.00282404
0.0014131
0.00178257
0.00194021
0.000903257
0.00229172
-0.00664242
-0.000433864
-0.00484452
-0.00422809
-0.00805166
-0.00144148
-0.0132028
0.00549126
-0.00829143
0.008178
-0.00289074
0.00700314
-0.00042908
0.00222013
0.00210577
-0.0038606
0.0027779
-0.00747319
-0.000974869
-0.00788751
-0.00428739
-0.0102642
-0.00128368
-0.015111
0.00138603
-0.0191406
7.00086e-05
-0.0235495
-0.000178895
-0.0288385
0.00143326
-0.0336574
0.00243818
-0.0360008
0.00207785
-0.0356155
0.00195941
-0.0330654
0.00106636
-0.0287541
-0.000948078
-0.0224794
-0.00350096
-0.0193364
0.00121765
-0.0222383
0.00914521
-0.0336859
0.0139525
-0.0461721
0.00796459
-0.0542839
-0.0035949
-0.0533612
-0.00565149
-0.0476877
0.00187456
-0.0398921
0.00889133
-0.0315371
0.0158307
-0.0263962
0.0138339
-0.0190034
0.00351023
-0.00594048
0.00214611
-0.00968365
0.00622862
-0.012939
0.0186011
-0.0120315
0.0270195
-0.00199647
0.019084
0.000633284
0.0120124
0.000529228
0.0147574
0.00244937
0.0277001
-0.000657235
0.00929357
0.000763887
0.00531317
0.0117753
0.0242048
0.024466
0.00797801
5.37116e-05
0.0079783
6.19099e-05
0.00796356
6.22564e-05
0.00796531
6.58057e-05
0.00798334
6.99291e-05
0.00798405
0.000109195
0.00796551
0.000215265
0.00791076
0.000520613
0.00783388
0.0012447
0.00796952
0.00245076
0.00836562
0.00408124
0.00812426
0.00445895
0.00679367
0.00379468
0.00455007
0.00314536
0.000523641
0.00368261
-0.00666839
0.00332679
-0.0143126
0.00203401
-0.0206519
-0.00263055
-0.0274716
-0.00678774
-0.0332508
-0.00328846
-0.0374057
0.000164003
-0.0410257
0.00237129
-0.0445755
0.00525069
-0.0477938
0.00614308
-0.0494861
0.00109427
-0.0498218
-0.00274056
-0.0481833
-0.000145327
-0.0445091
0.00247631
-0.0413714
0.00312245
-0.0425313
0.00353199
-0.0475972
0.00249544
-0.0521855
0.00183465
-0.0551066
0.00240968
-0.0573702
0.00190653
-0.0589282
8.567e-05
-0.0600242
-0.00259323
-0.0612418
-0.00464078
-0.0628274
0.00144825
-0.0642496
0.010213
-0.0660386
0.0151525
-0.0681259
0.00879351
-0.069651
-0.0053152
-0.0707808
-0.00753249
-0.0739435
0.00405308
-0.0783969
0.0141735
-0.0807545
0.0192722
-0.0813821
0.0139579
-0.0805368
0.00252345
-0.0777157
0.000784912
-0.0746818
0.0101368
-0.072121
0.0229466
-0.0702709
0.0286806
-0.0659367
0.0190751
-0.0540072
0.0070401
-0.0359357
0.00585558
-0.0160087
0.0112516
-0.0102356
0.0028853
-0.0116872
0.00559234
-0.0120235
0.0218604
0.0205047
0.00797256
6.71763e-05
0.00796538
6.29189e-05
0.00795339
5.83922e-05
0.00796447
6.22262e-05
0.00799578
6.73046e-05
0.00801449
0.000113539
0.00801935
0.000237672
0.00805119
0.000507204
0.00817917
0.00116241
0.0085417
0.00226522
0.00925025
0.00391981
0.00975911
0.00442816
0.00969951
0.00387215
0.00875681
0.003688
0.00762517
0.00426084
0.00852032
0.0094075
0.00603519
0.00681077
0.00147177
0.00166235
-0.00641189
0.000768725
-0.0134242
0.00346482
-0.0195405
0.00556978
-0.0249948
0.00674035
-0.0293531
0.00853947
-0.0320417
0.00817776
-0.0331403
0.00224092
-0.0333892
-0.00111751
-0.0324943
0.00179218
-0.0307516
0.00474971
-0.0315033
0.00660125
-0.0357666
0.00674529
-0.0418098
0.00551225
-0.0464863
0.00372011
-0.0500647
0.00339213
-0.0530301
0.00216566
-0.0554356
8.73862e-05
-0.0574591
-0.00277244
-0.0598028
-0.00469979
-0.0642957
0.00489249
-0.0685947
0.0139281
-0.0724145
0.018135
-0.0756675
0.00997979
-0.0783771
-0.00621748
-0.0808771
-0.00827622
-0.0833002
0.00263541
-0.085617
0.0134317
-0.0874719
0.0192117
-0.0897346
0.0137172
-0.0939359
0.002955
-0.0988302
0.00288658
-0.10191
0.0122895
-0.102976
0.0245177
-0.10348
0.0298742
-0.102574
0.0187956
-0.0998225
0.00501565
-0.0954654
0.00257069
-0.0895965
0.00678268
-0.0815922
0.00154704
-0.0696237
0.0047269
-0.0661873
0.0188775
0.0252375
0.00797202
6.96402e-05
0.00796468
5.62501e-05
0.00795238
4.92592e-05
0.00796453
5.28486e-05
0.00799932
5.96327e-05
0.00804163
0.000104575
0.00808093
0.000234732
0.00812961
0.00048713
0.00831315
0.00102483
0.00878237
0.00190123
0.00971109
0.0032718
0.0106363
0.00381092
0.0111727
0.00350246
0.0110786
0.0036368
0.010641
0.00464561
0.0112662
0.00900628
0.0118311
0.00848881
0.0106505
0.00397303
0.00777854
0.00385378
0.00533265
0.00620674
0.00277397
0.00863596
-0.000935057
0.0106986
-0.00376219
0.0103201
-0.00345677
0.00663778
-0.00492096
0.00277142
-0.00982315
0.00331475
-0.0130338
0.00565477
-0.0134212
0.0071567
-0.0126896
0.00945138
-0.0134667
0.01018
-0.015622
0.00792838
-0.0171059
0.00502215
-0.0179513
0.0041851
-0.0176397
0.00172092
-0.0200777
0.00298961
-0.0267318
0.00903459
-0.0331482
0.00806461
-0.0442873
0.00201769
-0.0480335
0.00292788
-0.0491849
0.0061724
-0.0480133
-0.00174286
-0.046769
-0.00873515
-0.0496614
-0.00739343
-0.0517842
0.0013963
-0.0519101
0.00829605
-0.0525143
0.0125104
-0.0555997
0.00877817
-0.0629447
0.00396428
-0.0718218
0.00617957
-0.0787883
0.0140413
-0.0825061
0.0235494
-0.0836487
0.0259647
-0.0834883
0.0137226
-0.0836841
0.00140497
-0.0838446
0.000832109
-0.082863
0.00589589
-0.0818237
0.00291154
-0.0768735
0.00223136
-0.0752729
0.0194253
0.0309496
0.00797512
5.62462e-05
0.0079737
2.55667e-05
0.00795949
2.03044e-05
0.00796749
2.63879e-05
0.00800663
3.33272e-05
0.00806774
6.68925e-05
0.00814491
0.000175433
0.00823261
0.000396268
0.00845611
0.000824546
0.00897718
0.00149701
0.00995333
0.00248557
0.0109767
0.00291076
0.0118266
0.00270655
0.012391
0.00287733
0.0125711
0.00374033
0.0141825
0.00700307
0.0158166
0.00769832
0.0161101
0.00572846
0.0158468
0.00547657
0.0157951
0.00675638
0.0156656
0.00879262
0.0158351
0.0106491
0.0173677
0.0105054
0.0188477
0.00618955
0.0175792
0.00295089
0.0144511
0.00427256
0.0114799
0.00609707
0.00928728
0.0077493
0.00915631
0.00951402
0.0103048
0.0102339
0.0104646
0.00902649
0.00831159
0.00762844
0.00712805
0.00622544
0.00393832
0.00385316
-0.00126497
0.00221195
0.00108004
0.00241205
0.00545424
0.00533889
0.000730683
0.00574375
-0.00375674
0.00652764
0.00236353
0.000707209
0.00818404
-0.00699441
0.00440172
-0.00471528
-0.00428843
0.00069566
-0.00913433
0.00151619
-4.6503e-05
0.00366012
0.00460485
0.0148928
0.00338052
0.0163168
-0.00323711
0.0151374
-0.0141273
0.00880724
-0.0226792
0.0171679
-0.0254236
0.0201067
-0.0244516
0.019861
-0.026953
0.0113794
-0.0338024
0.00393131
-0.0390432
0.00326245
-0.0418978
0.00588709
-0.044238
0.00354025
-0.0455505
0.0041569
-0.0461827
0.0200078
0.0287168
0.00794328
9.44481e-05
0.00793844
3.16871e-05
0.00793243
1.839e-05
0.00795718
1.40598e-05
0.00801212
2.03171e-05
0.00807536
5.14114e-05
0.00815639
0.000131259
0.00828765
0.000285418
0.00854761
0.000582815
0.0090678
0.00103317
0.00999366
0.00167403
0.0110078
0.00197769
0.0118773
0.00194497
0.0128796
0.0019444
0.0135787
0.00236962
0.0157765
0.00449694
0.0182618
0.00552805
0.0198087
0.00491281
0.0212486
0.00565986
0.0228132
0.00638295
0.024581
0.00725075
0.0267612
0.00808315
0.029033
0.00791472
0.0298381
0.00519172
0.0289774
0.00289182
0.0277794
0.00340289
0.0266763
0.00468271
0.0261546
0.00600002
0.0272204
0.00738392
0.0296936
0.008037
0.032659
0.00755794
0.0357736
0.00679063
0.0383558
0.00535279
0.0394252
0.00344563
0.0385523
0.00239013
0.0368512
0.00278459
0.0363403
0.00499793
0.0368601
0.00603033
0.038749
0.00571072
0.0375193
0.00263597
0.0318098
-0.000901024
0.0266006
0.000459035
0.0241361
0.00419985
0.0194356
0.00574945
0.0197565
0.00581101
0.0244209
0.00223813
0.0269674
-0.00200981
0.0276727
-0.000105771
0.0204242
-0.000325171
0.0199439
0.000417046
0.0262426
0.00212118
0.0296767
0.0058794
0.0281115
0.000724095
0.0232971
-0.000143743
0.0201364
0.00244385
0.0170926
0.0057483
0.0148993
0.00363041
0.00955382
0.00575605
0.0109748
0.0166059
0.0171599
0.00798666
2.12657e-05
0.00797236
-4.40398e-05
0.00794272
-4.72941e-05
0.00794441
-4.35442e-05
0.00799323
-2.77915e-05
0.00806668
-3.03923e-06
0.00816378
4.27927e-05
0.00831918
0.000125942
0.00861515
0.000292218
0.009166
0.000538158
0.0100556
0.000862753
0.0110837
0.00101099
0.012096
0.0010113
0.0130598
0.00104176
0.0142858
0.00126981
0.0165592
0.00239582
0.0192955
0.00292119
0.0216705
0.00281378
0.0243669
0.00343416
0.027286
0.00395729
0.0304
0.00441533
0.0338009
0.00463254
0.0369789
0.00423672
0.0387708
0.00270421
0.0395396
0.0016942
0.0405959
0.00192575
0.0421699
0.00234433
0.0442863
0.00277781
0.0472509
0.00347477
0.05083