/*--------------------------------*- C++ -*----------------------------------*\
  =========                 |
  \\      /  F ield         | OpenFOAM: The Open Source CFD Toolbox
   \\    /   O peration     | Website:  https://openfoam.org
    \\  /    A nd           | Version:  8
     \\/     M anipulation  |
\*---------------------------------------------------------------------------*/
FoamFile
{
    version     2.0;
    format      ascii;
    class       volScalarField;
    location    "800";
    object      epsilon;
}
// * * * * * * * * * * * * * * * * * * * * * * * * * * * * * * * * * * * * * //

dimensions      [0 2 -3 0 0 0 0];

internalField   nonuniform List<scalar> 
1200
(
72.1346
55.7179
44.1247
35.6942
29.4072
24.6164
20.8949
17.9566
15.6027
13.6936
12.1285
10.8311
9.74456
8.82658
8.04454
7.3738
6.79566
6.29394
5.85482
5.46712
5.12321
4.81717
4.54369
4.2978
4.0777
3.88171
3.7074
3.5507
3.40823
3.27813
3.1595
3.05143
2.95208
2.85894
2.77118
2.69182
2.62443
2.57161
2.53594
2.51903
2.52298
2.55956
2.60247
2.59989
2.52441
2.38417
2.20703
2.02598
1.8673
1.74335
1.65331
1.58733
1.53306
1.48352
1.43797
1.39041
1.33616
1.27891
1.21975
1.18061
92.9318
58.8524
39.2603
27.331
19.7112
14.6383
11.1397
8.65939
6.85845
5.52249
4.51015
3.72964
3.11869
2.63198
2.23858
1.91744
1.65306
1.43433
1.25262
1.10092
0.973144
0.864716
0.772122
0.69258
0.623894
0.564349
0.512482
0.467058
0.427065
0.391714
0.360357
0.332453
0.307527
0.28517
0.265095
0.247248
0.2321
0.222582
0.232194
0.301907
0.472217
0.682179
0.818678
0.843821
0.788362
0.694065
0.588476
0.485155
0.389802
0.305239
0.234789
0.182293
0.149049
0.130629
0.119078
0.110758
0.104041
0.0982971
0.0931977
0.0893008
92.8696
58.5614
38.8863
26.9305
19.3127
14.2612
10.794
8.34397
6.56944
5.25617
4.26578
3.50596
2.91394
2.44629
2.07219
1.76957
1.52238
1.31873
1.14962
1.0081
0.888796
0.787526
0.701035
0.626745
0.562601
0.50699
0.458528
0.41606
0.378681
0.345665
0.316412
0.290416
0.267247
0.246543
0.228004
0.211377
0.196443
0.183203
0.172731
0.16952
0.183616
0.219874
0.263921
0.294348
0.302169
0.290747
0.267366
0.238427
0.208313
0.17976
0.154578
0.133772
0.117381
0.104463
0.0941397
0.0857728
0.0787945
0.0729082
0.0678807
0.0638516
92.8696
58.6369
38.9819
27.0237
19.3931
14.3271
10.848
8.38791
6.60468
5.28425
4.28815
3.52391
2.92847
2.45816
2.08202
1.77776
1.52923
1.32446
1.15442
1.01215
0.892236
0.790487
0.703623
0.629044
0.564671
0.508833
0.460156
0.417518
0.380011
0.346886
0.317521
0.2914
0.268101
0.247283
0.228649
0.211949
0.196944
0.183406
0.17117
0.160459
0.152684
0.150173
0.152734
0.15681
0.158908
0.157535
0.152734
0.145192
0.135708
0.12505
0.113975
0.10317
0.0931767
0.0843959
0.0769004
0.0706672
0.0656785
0.0618672
0.0591307
0.0570504
92.8695
58.6373
38.9715
27.008
19.3759
14.3104
10.8333
8.37559
6.59477
5.27653
4.28213
3.51914
2.92463
2.45498
2.07932
1.77547
1.5273
1.32286
1.15311
1.0111
0.891428
0.78991
0.703277
0.62893
0.564779
0.509137
0.460641
0.418181
0.38084
0.347853
0.318591
0.292541
0.269286
0.248509
0.229996
0.213536
0.198838
0.185561
0.173365
0.162055
0.151866
0.142978
0.135526
0.129374
0.124104
0.119383
0.115006
0.110781
0.106452
0.101789
0.0967034
0.0912713
0.085678
0.0801779
0.0751057
0.0708348
0.0675086
0.0651181
0.0636266
0.0624481
92.8695
58.6384
38.9716
27.0075
19.3749
14.309
10.8319
8.37434
6.59386
5.27597
4.2818
3.51892
2.92443
2.45478
2.07912
1.77533
1.52725
1.3229
1.15324
1.01132
0.891746
0.790351
0.703878
0.629736
0.565832
0.510474
0.462306
0.420214
0.383268
0.350697
0.321889
0.296382
0.273926
0.25458
0.238431
0.225036
0.213572
0.20317
0.193
0.18232
0.171061
0.160126
0.150249
0.141453
0.133637
0.126636
0.120124
0.114173
0.108713
0.103655
0.0988994
0.0943758
0.0900608
0.0859852
0.082217
0.0789997
0.0765511
0.0747814
0.0736588
0.0724523
92.8694
58.6422
38.985
27.026
19.3947
14.3276
10.8488
8.3892
6.60624
5.28588
4.28958
3.52503
2.92931
2.45871
2.08227
1.77779
1.52912
1.32429
1.15426
1.01207
0.892332
0.790885
0.704515
0.630685
0.567355
0.512908
0.466108
0.425976
0.391637
0.362316
0.337408
0.316426
0.298997
0.284925
0.274154
0.266208
0.259872
0.253795
0.246865
0.238307
0.227901
0.216194
0.204357
0.193467
0.183803
0.175028
0.166548
0.157268
0.148117
0.139465
0.131498
0.124188
0.117584
0.111686
0.106471
0.101766
0.0977478
0.0942359
0.0910476
0.0875133
92.8695
58.5684
38.8911
26.9328
19.3123
14.2587
10.7919
8.34302
6.56949
5.25704
4.26696
3.50712
2.91491
2.44697
2.07267
1.76999
1.52282
1.31924
1.15024
1.00891
0.889856
0.788943
0.702969
0.629444
0.56641
0.512357
0.46618
0.427013
0.393988
0.366207
0.342841
0.323129
0.306631
0.294966
0.292596
0.298891
0.306419
0.309461
0.30668
0.299182
0.288855
0.277745
0.267574
0.259114
0.251903
0.244618
0.236005
0.225219
0.211421
0.197901
0.185098
0.173275
0.162519
0.152839
0.144154
0.136206
0.128344
0.12037
0.111633
0.101998
92.9316
58.8385
39.2311
27.2937
19.669
14.599
11.1097
8.63376
6.83195
5.49318
4.48034
3.70108
3.09134
2.60679
2.21642
1.89823
1.63645
1.42025
1.24096
1.09096
0.964487
0.857117
0.765449
0.686793
0.618976
0.560716
0.510368
0.468358
0.43313
0.402956
0.376704
0.355389
0.347618
0.385383
0.497356
0.63851
0.738959
0.770761
0.751297
0.714225
0.685396
0.673937
0.67385
0.672166
0.656977
0.621688
0.565671
0.492192
0.407539
0.327506
0.26809
0.22502
0.192864
0.168175
0.148663
0.133064
0.121101
0.11352
0.110953
0.11005
72.1326
55.7269
44.1329
35.7019
29.4138
24.6217
20.9023
17.9667
15.6155
13.7077
12.1417
10.8427
9.75489
8.83583
8.05364
7.38448
6.81061
6.31686
5.88816
5.51022
5.17198
4.86613
4.5882
4.33673
4.11342
3.91923
3.74558
3.5906
3.45313
3.33209
3.22545
3.13084
3.05391
3.0393
3.16146
3.37187
3.52406
3.54728
3.45648
3.29155
3.08438
2.85289
2.60655
2.35176
2.09427
1.84051
1.59809
1.37549
1.17919
1.01114
0.874457
0.777082
0.716259
0.683399
0.66616
0.648709
0.619359
0.570396
0.506528
0.434832
72.1368
55.7309
44.1317
35.6961
29.4044
24.6088
20.8876
17.9537
15.605
13.6981
12.1314
10.8318
9.74351
8.82419
8.04173
7.3716
6.79449
6.29264
5.85302
5.46522
5.12144
4.81576
4.54321
4.29899
4.0792
3.88269
3.70849
3.553
3.41155
3.28076
3.16048
3.05108
2.95116
2.85799
2.77025
2.6904
2.62187
2.5671
2.52845
2.50968
2.51101
2.54416
2.59022
2.59861
2.53612
2.40548
2.23233
2.05013
1.88725
1.75837
1.66425
1.59572
1.54034
1.48968
1.44318
1.39539
1.34127
1.28403
1.22419
1.18369
92.9318
58.8527
39.2463
27.3092
19.6883
14.6232
11.1346
8.65809
6.85609
5.51564
4.5001
3.71809
3.10681
2.62206
2.23178
1.91317
1.65006
1.43264
1.25196
1.10065
0.973016
0.864648
0.772093
0.692586
0.623903
0.564292
0.51236
0.46692
0.426972
0.391656
0.360305
0.332395
0.307467
0.28511
0.265024
0.247117
0.23172
0.221077
0.225881
0.281427
0.435462
0.646313
0.799426
0.842138
0.797838
0.708499
0.603998
0.499775
0.402542
0.315564
0.242397
0.187141
0.151457
0.131635
0.119516
0.110942
0.1041
0.0982821
0.0931139
0.0891254
92.8696
58.575
38.8965
26.9358
19.3137
14.2582
10.7893
8.34082
6.56867
5.2569
4.26646
3.50615
2.91369
2.44569
2.07149
1.76901
1.52206
1.31862
1.14964
1.00818
0.888882
0.787614
0.701132
0.626858
0.56271
0.507016
0.458454
0.415939
0.378562
0.345568
0.31634
0.290359
0.2672
0.246501
0.227965
0.211339
0.1964
0.183073
0.172179
0.16732
0.177791
0.210644
0.254913
0.288814
0.300704
0.292273
0.270511
0.242127
0.211892
0.182833
0.156981
0.135506
0.118565
0.10528
0.0946873
0.086132
0.0790243
0.0730434
0.0679372
0.0638308
92.8695
58.6463
38.9887
27.0276
19.3945
14.3259
10.8455
8.38632
6.60495
5.28565
4.28954
3.52474
2.92877
2.45802
2.08164
1.7774
1.529
1.32438
1.15444
1.01221
0.892307
0.790559
0.7037
0.629129
0.564748
0.508876
0.460171
0.417533
0.380043
0.346933
0.317575
0.291459
0.268157
0.247316
0.228657
0.211936
0.196918
0.183372
0.171123
0.160296
0.152034
0.148653
0.150601
0.15479
0.15755
0.156994
0.1529
0.145859
0.136665
0.126114
0.115011
0.104098
0.0939586
0.0850138
0.0773833
0.0710246
0.0659138
0.0619854
0.0591447
0.0569984
92.8694
58.6444
38.9785
27.013
19.379
14.3113
10.8319
8.37435
6.59492
5.2776
4.2832
3.51974
2.92477
2.45477
2.07896
1.77515
1.52712
1.32281
1.15314
1.01116
0.891496
0.78998
0.703352
0.629012
0.564859
0.509208
0.460704
0.418247
0.38091
0.34792
0.31865
0.292591
0.269327
0.24855
0.23005
0.213608
0.198914
0.185617
0.173367
0.162052
0.151871
0.142971
0.135413
0.129126
0.123786
0.119078
0.114781
0.110677
0.106487
0.101955
0.0969719
0.091609
0.0860537
0.0805576
0.0754362
0.0710674
0.0676196
0.0651023
0.0634975
0.0622692
92.8694
58.6429
38.9769
27.0112
19.3774
14.3102
10.831
8.37345
6.59404
5.27685
4.28265
3.51936
2.9245
2.45459
2.07885
1.7751
1.52713
1.32288
1.15327
1.01138
0.891814
0.790426
0.703964
0.629837
0.565943
0.510593
0.462432
0.420351
0.383414
0.350851
0.322053
0.296571
0.274183
0.254983
0.239027
0.225788
0.214387
0.20393
0.193566
0.182555
0.171048
0.160088
0.150249
0.141488
0.133657
0.126637
0.120134
0.114171
0.10869
0.103619
0.0988661
0.0943547
0.0900533
0.0859844
0.0822109
0.078938
0.076417
0.0745741
0.0733958
0.0722142
92.8694
58.6457
38.991
27.0309
19.3986
14.3306
10.8493
8.38902
6.6067
5.28689
4.29057
3.52563
2.92947
2.45852
2.08194
1.77751
1.52897
1.32425
1.15428
1.01213
0.892402
0.79097
0.704625
0.630833
0.567556
0.513183
0.466486
0.426491
0.392319
0.363189
0.338493
0.317748
0.300587
0.286828
0.276381
0.268649
0.262334
0.256082
0.24879
0.239717
0.228728
0.216488
0.20435
0.193339
0.183649
0.174855
0.166318
0.156994
0.147841
0.139202
0.131246
0.124023
0.117513
0.111675
0.106484
0.101795
0.0977367
0.0942093
0.0910572
0.0876549
92.8695
58.5672
38.8921
26.9338
19.3138
14.2603
10.792
8.34269
6.56974
5.2577
4.26756
3.5074
2.91489
2.44679
2.07246
1.76983
1.52274
1.31923
1.15029
1.00897
0.88993
0.789031
0.703082
0.629603
0.566647
0.512717
0.46673
0.427835
0.395146
0.367728
0.344718
0.32533
0.309159
0.297994
0.296142
0.302543
0.309819
0.312451
0.309182
0.301166
0.290364
0.278865
0.26842
0.259762
0.252385
0.244978
0.236395
0.225857
0.21186
0.198212
0.185346
0.173516
0.162785
0.15314
0.144497
0.136636
0.128916
0.121107
0.112619
0.103256
92.9317
58.8428
39.2443
27.3111
19.6876
14.6131
11.115
8.63419
6.83261
5.49536
4.48229
3.70083
3.08913
2.6038
2.21362
1.89606
1.63501
1.4197
1.24071
1.09081
0.964367
0.857021
0.765376
0.686741
0.618939
0.560192
0.509569
0.467638
0.43251
0.402413
0.376825
0.35706
0.348485
0.379094
0.481609
0.620545
0.726918
0.766535
0.751946
0.715933
0.685943
0.673139
0.672795
0.672171
0.658908
0.625735
0.57154
0.499378
0.415178
0.333647
0.272154
0.227816
0.194859
0.169645
0.149765
0.133867
0.121579
0.113595
0.110595
0.109546
72.1329
55.7277
44.1385
35.7076
29.4195
24.6269
20.9045
17.9678
15.6173
13.7102
12.144
10.844
9.75491
8.8349
8.05236
7.38343
6.80997
6.31589
5.88702
5.5087
5.16996
4.8636
4.5851
4.3328
4.10769
3.90995
3.74016
3.58827
3.45241
3.33196
3.22554
3.13102
3.05263
3.02954
3.13755
3.34532
3.50895
3.54708
3.46789
3.31015
3.10692
2.87739
2.63177
2.3768
2.11838
1.86303
1.61849
1.3934
1.19449
1.02408
0.884782
0.784775
0.721941
0.687723
0.669836
0.652456
0.623696
0.57548
0.512257
0.440958
)
;

boundaryField
{
    wall
    {
        type            epsilonWallFunction;
        value           nonuniform List<scalar> 
1200
(
72.1346
92.9318
92.8696
92.8696
92.8695
92.8695
92.8694
92.8695
92.9316
72.1326
55.7179
58.8524
58.5614
58.6369
58.6373
58.6384
58.6422
58.5684
58.8385
55.7269
44.1247
39.2603
38.8863
38.9819
38.9715
38.9716
38.985
38.8911
39.2311
44.1329
35.6942
27.331
26.9305
27.0237
27.008
27.0075
27.026
26.9328
27.2937
35.7019
29.4072
19.7112
19.3127
19.3931
19.3759
19.3749
19.3947
19.3123
19.669
29.4138
24.6164
14.6383
14.2612
14.3271
14.3104
14.309
14.3276
14.2587
14.599
24.6217
20.8949
11.1397
10.794
10.848
10.8333
10.8319
10.8488
10.7919
11.1097
20.9023
17.9566
8.65939
8.34397
8.38791
8.37559
8.37434
8.3892
8.34302
8.63376
17.9667
15.6027
6.85845
6.56944
6.60468
6.59477
6.59386
6.60624
6.56949
6.83195
15.6155
13.6936
5.52249
5.25617
5.28425
5.27653
5.27597
5.28588
5.25704
5.49318
13.7077
12.1285
4.51015
4.26578
4.28815
4.28213
4.2818
4.28958
4.26696
4.48034
12.1417
10.8311
3.72964
3.50596
3.52391
3.51914
3.51892
3.52503
3.50712
3.70108
10.8427
9.74456
3.11869
2.91394
2.92847
2.92463
2.92443
2.92931
2.91491
3.09134
9.75489
8.82658
2.63198
2.44629
2.45816
2.45498
2.45478
2.45871
2.44697
2.60679
8.83583
8.04454
2.23858
2.07219
2.08202
2.07932
2.07912
2.08227
2.07267
2.21642
8.05364
7.3738
1.91744
1.76957
1.77776
1.77547
1.77533
1.77779
1.76999
1.89823
7.38448
6.79566
1.65306
1.52238
1.52923
1.5273
1.52725
1.52912
1.52282
1.63645
6.81061
6.29394
1.43433
1.31873
1.32446
1.32286
1.3229
1.32429
1.31924
1.42025
6.31686
5.85482
1.25262
1.14962
1.15442
1.15311
1.15324
1.15426
1.15024
1.24096
5.88816
5.46712
1.10092
1.0081
1.01215
1.0111
1.01132
1.01207
1.00891
1.09096
5.51022
5.12321
0.973144
0.888796
0.892236
0.891428
0.891746
0.892332
0.889856
0.964487
5.17198
4.81717
0.864716
0.787526
0.790487
0.78991
0.790351
0.790885
0.788943
0.857117
4.86613
4.54369
0.772122
0.701035
0.703623
0.703277
0.703878
0.704515
0.702969
0.765449
4.5882
4.2978
0.69258
0.626745
0.629044
0.62893
0.629736
0.630685
0.629444
0.686793
4.33673
4.0777
0.623894
0.562601
0.564671
0.564779
0.565832
0.567355
0.56641
0.618976
4.11342
3.88171
0.564349
0.50699
0.508833
0.509137
0.510474
0.512908
0.512357
0.560716
3.91923
3.7074
0.512482
0.458528
0.460156
0.460641
0.462306
0.466108
0.46618
0.510368
3.74558
3.5507
0.467058
0.41606
0.417518
0.418181
0.420214
0.425976
0.427013
0.468358
3.5906
3.40823
0.427065
0.378681
0.380011
0.38084
0.383268
0.391637
0.393988
0.43313
3.45313
3.27813
0.391714
0.345665
0.346886
0.347853
0.350697
0.362316
0.366207
0.402956
3.33209
3.1595
0.360357
0.316412
0.317521
0.318591
0.321889
0.337408
0.342841
0.376704
3.22545
3.05143
0.332453
0.290416
0.2914
0.292541
0.296382
0.316426
0.323129
0.355389
3.13084
2.95208
0.307527
0.267247
0.268101
0.269286
0.273926
0.298997
0.306631
0.347618
3.05391
2.85894
0.28517
0.246543
0.247283
0.248509
0.25458
0.284925
0.294966
0.385383
3.0393
2.77118
0.265095
0.228004
0.228649
0.229996
0.238431
0.274154
0.292596
0.497356
3.16146
2.69182
0.247248
0.211377
0.211949
0.213536
0.225036
0.266208
0.298891
0.63851
3.37187
2.62443
0.2321
0.196443
0.196944
0.198838
0.213572
0.259872
0.306419
0.738959
3.52406
2.57161
0.222582
0.183203
0.183406
0.185561
0.20317
0.253795
0.309461
0.770761
3.54728
2.53594
0.232194
0.172731
0.17117
0.173365
0.193
0.246865
0.30668
0.751297
3.45648
2.51903
0.301907
0.16952
0.160459
0.162055
0.18232
0.238307
0.299182
0.714225
3.29155
2.52298
0.472217
0.183616
0.152684
0.151866
0.171061
0.227901
0.288855
0.685396
3.08438
2.55956
0.682179
0.219874
0.150173
0.142978
0.160126
0.216194
0.277745
0.673937
2.85289
2.60247
0.818678
0.263921
0.152734
0.135526
0.150249
0.204357
0.267574
0.67385
2.60655
2.59989
0.843821
0.294348
0.15681
0.129374
0.141453
0.193467
0.259114
0.672166
2.35176
2.52441
0.788362
0.302169
0.158908
0.124104
0.133637
0.183803
0.251903
0.656977
2.09427
2.38417
0.694065
0.290747
0.157535
0.119383
0.126636
0.175028
0.244618
0.621688
1.84051
2.20703
0.588476
0.267366
0.152734
0.115006
0.120124
0.166548
0.236005
0.565671
1.59809
2.02598
0.485155
0.238427
0.145192
0.110781
0.114173
0.157268
0.225219
0.492192
1.37549
1.8673
0.389802
0.208313
0.135708
0.106452
0.108713
0.148117
0.211421
0.407539
1.17919
1.74335
0.305239
0.17976
0.12505
0.101789
0.103655
0.139465
0.197901
0.327506
1.01114
1.65331
0.234789
0.154578
0.113975
0.0967034
0.0988994
0.131498
0.185098
0.26809
0.874457
1.58733
0.182293
0.133772
0.10317
0.0912713
0.0943758
0.124188
0.173275
0.22502
0.777082
1.53306
0.149049
0.117381
0.0931767
0.085678
0.0900608
0.117584
0.162519
0.192864
0.716259
1.48352
0.130629
0.104463
0.0843959
0.0801779
0.0859852
0.111686
0.152839
0.168175
0.683399
1.43797
0.119078
0.0941397
0.0769004
0.0751057
0.082217
0.106471
0.144154
0.148663
0.66616
1.39041
0.110758
0.0857728
0.0706672
0.0708348
0.0789997
0.101766
0.136206
0.133064
0.648709
1.33616
0.104041
0.0787945
0.0656785
0.0675086
0.0765511
0.0977478
0.128344
0.121101
0.619359
1.27891
0.0982971
0.0729082
0.0618672
0.0651181
0.0747814
0.0942359
0.12037
0.11352
0.570396
1.21975
0.0931977
0.0678807
0.0591307
0.0636266
0.0736588
0.0910476
0.111633
0.110953
0.506528
1.18061
0.0893008
0.0638516
0.0570504
0.0624481
0.0724523
0.0875133
0.101998
0.11005
0.434832
72.1368
92.9318
92.8696
92.8695
92.8694
92.8694
92.8694
92.8695
92.9317
72.1329
55.7309
58.8527
58.575
58.6463
58.6444
58.6429
58.6457
58.5672
58.8428
55.7277
44.1317
39.2463
38.8965
38.9887
38.9785
38.9769
38.991
38.8921
39.2443
44.1385
35.6961
27.3092
26.9358
27.0276
27.013
27.0112
27.0309
26.9338
27.3111
35.7076
29.4044
19.6883
19.3137
19.3945
19.379
19.3774
19.3986
19.3138
19.6876
29.4195
24.6088
14.6232
14.2582
14.3259
14.3113
14.3102
14.3306
14.2603
14.6131
24.6269
20.8876
11.1346
10.7893
10.8455
10.8319
10.831
10.8493
10.792
11.115
20.9045
17.9537
8.65809
8.34082
8.38632
8.37435
8.37345
8.38902
8.34269
8.63419
17.9678
15.605
6.85609
6.56867
6.60495
6.59492
6.59404
6.6067
6.56974
6.83261
15.6173
13.6981
5.51564
5.2569
5.28565
5.2776
5.27685
5.28689
5.2577
5.49536
13.7102
12.1314
4.5001
4.26646
4.28954
4.2832
4.28265
4.29057
4.26756
4.48229
12.144
10.8318
3.71809
3.50615
3.52474
3.51974
3.51936
3.52563
3.5074
3.70083
10.844
9.74351
3.10681
2.91369
2.92877
2.92477
2.9245
2.92947
2.91489
3.08913
9.75491
8.82419
2.62206
2.44569
2.45802
2.45477
2.45459
2.45852
2.44679
2.6038
8.8349
8.04173
2.23178
2.07149
2.08164
2.07896
2.07885
2.08194
2.07246
2.21362
8.05236
7.3716
1.91317
1.76901
1.7774
1.77515
1.7751
1.77751
1.76983
1.89606
7.38343
6.79449
1.65006
1.52206
1.529
1.52712
1.52713
1.52897
1.52274
1.63501
6.80997
6.29264
1.43264
1.31862
1.32438
1.32281
1.32288
1.32425
1.31923
1.4197
6.31589
5.85302
1.25196
1.14964
1.15444
1.15314
1.15327
1.15428
1.15029
1.24071
5.88702
5.46522
1.10065
1.00818
1.01221
1.01116
1.01138
1.01213
1.00897
1.09081
5.5087
5.12144
0.973016
0.888882
0.892307
0.891496
0.891814
0.892402
0.88993
0.964367
5.16996
4.81576
0.864648
0.787614
0.790559
0.78998
0.790426
0.79097
0.789031
0.857021
4.8636
4.54321
0.772093
0.701132
0.7037
0.703352
0.703964
0.704625
0.703082
0.765376
4.5851
4.29899
0.692586
0.626858
0.629129
0.629012
0.629837
0.630833
0.629603
0.686741
4.3328
4.0792
0.623903
0.56271
0.564748
0.564859
0.565943
0.567556
0.566647
0.618939
4.10769
3.88269
0.564292
0.507016
0.508876
0.509208
0.510593
0.513183
0.512717
0.560192
3.90995
3.70849
0.51236
0.458454
0.460171
0.460704
0.462432
0.466486
0.46673
0.509569
3.74016
3.553
0.46692
0.415939
0.417533
0.418247
0.420351
0.426491
0.427835
0.467638
3.58827
3.41155
0.426972
0.378562
0.380043
0.38091
0.383414
0.392319
0.395146
0.43251
3.45241
3.28076
0.391656
0.345568
0.346933
0.34792
0.350851
0.363189
0.367728
0.402413
3.33196
3.16048
0.360305
0.31634
0.317575
0.31865
0.322053
0.338493
0.344718
0.376825
3.22554
3.05108
0.332395
0.290359
0.291459
0.292591
0.296571
0.317748
0.32533
0.35706
3.13102
2.95116
0.307467
0.2672
0.268157
0.269327
0.274183
0.300587
0.309159
0.348485
3.05263
2.85799
0.28511
0.246501
0.247316
0.24855
0.254983
0.286828
0.297994
0.379094
3.02954
2.77025
0.265024
0.227965
0.228657
0.23005
0.239027
0.276381
0.296142
0.481609
3.13755
2.6904
0.247117
0.211339
0.211936
0.213608
0.225788
0.268649
0.302543
0.620545
3.34532
2.62187
0.23172
0.1964
0.196918
0.198914
0.214387
0.262334
0.309819
0.726918
3.50895
2.5671
0.221077
0.183073
0.183372
0.185617
0.20393
0.256082
0.312451
0.766535
3.54708
2.52845
0.225881
0.172179
0.171123
0.173367
0.193566
0.24879
0.309182
0.751946
3.46789
2.50968
0.281427
0.16732
0.160296
0.162052
0.182555
0.239717
0.301166
0.715933
3.31015
2.51101
0.435462
0.177791
0.152034
0.151871
0.171048
0.228728
0.290364
0.685943
3.10692
2.54416
0.646313
0.210644
0.148653
0.142971
0.160088
0.216488
0.278865
0.673139
2.87739
2.59022
0.799426
0.254913
0.150601
0.135413
0.150249
0.20435
0.26842
0.672795
2.63177
2.59861
0.842138
0.288814
0.15479
0.129126
0.141488
0.193339
0.259762
0.672171
2.3768
2.53612
0.797838
0.300704
0.15755
0.123786
0.133657
0.183649
0.252385
0.658908
2.11838
2.40548
0.708499
0.292273
0.156994
0.119078
0.126637
0.174855
0.244978
0.625735
1.86303
2.23233
0.603998
0.270511
0.1529
0.114781
0.120134
0.166318
0.236395
0.57154
1.61849
2.05013
0.499775
0.242127
0.145859
0.110677
0.114171
0.156994
0.225857
0.499378
1.3934
1.88725
0.402542
0.211892
0.136665
0.106487
0.10869
0.147841
0.21186
0.415178
1.19449
1.75837
0.315564
0.182833
0.126114
0.101955
0.103619
0.139202
0.198212
0.333647
1.02408
1.66425
0.242397
0.156981
0.115011
0.0969719
0.0988661
0.131246
0.185346
0.272154
0.884782
1.59572
0.187141
0.135506
0.104098
0.091609
0.0943547
0.124023
0.173516
0.227816
0.784775
1.54034
0.151457
0.118565
0.0939586
0.0860537
0.0900533
0.117513
0.162785
0.194859
0.721941
1.48968
0.131635
0.10528
0.0850138
0.0805576
0.0859844
0.111675
0.15314
0.169645
0.687723
1.44318
0.119516
0.0946873
0.0773833
0.0754362
0.0822109
0.106484
0.144497
0.149765
0.669836
1.39539
0.110942
0.086132
0.0710246
0.0710674
0.078938
0.101795
0.136636
0.133867
0.652456
1.34127
0.1041
0.0790243
0.0659138
0.0676196
0.076417
0.0977367
0.128916
0.121579
0.623696
1.28403
0.0982821
0.0730434
0.0619854
0.0651023
0.0745741
0.0942093
0.121107
0.113595
0.57548
1.22419
0.0931139
0.0679372
0.0591447
0.0634975
0.0733958
0.0910572
0.112619
0.110595
0.512257
1.18369
0.0891254
0.0638308
0.0569984
0.0622692
0.0722142
0.0876549
0.103256
0.109546
0.440958
)
;
    }
    inlet
    {
        type            turbulentMixingLengthDissipationRateInlet;
        mixingLength    0.071;
        phi             phi;
        k               k;
        value           uniform 2.17686;
    }
    outlet
    {
        type            inletOutlet;
        inletValue      uniform 0.0001;
        value           nonuniform List<scalar> 
20
(
1.18061
0.0893008
0.0638516
0.0570504
0.0624481
0.0724523
0.0875133
0.101998
0.11005
0.434832
1.18369
0.0891254
0.0638308
0.0569984
0.0622692
0.0722142
0.0876549
0.103256
0.109546
0.440958
)
;
    }
    heatWall
    {
        type            epsilonWallFunction;
        value           nonuniform List<scalar> 
240
(
72.1326
72.1329
55.7269
55.7277
44.1329
44.1385
35.7019
35.7076
29.4138
29.4195
24.6217
24.6269
20.9023
20.9045
17.9667
17.9678
15.6155
15.6173
13.7077
13.7102
12.1417
12.144
10.8427
10.844
9.75489
9.75491
8.83583
8.8349
8.05364
8.05236
7.38448
7.38343
6.81061
6.80997
6.31686
6.31589
5.88816
5.88702
5.51022
5.5087
5.17198
5.16996
4.86613
4.8636
4.5882
4.5851
4.33673
4.3328
4.11342
4.10769
3.91923
3.90995
3.74558
3.74016
3.5906
3.58827
3.45313
3.45241
3.33209
3.33196
3.22545
3.22554
3.13084
3.13102
3.05391
3.05263
3.0393
3.02954
3.16146
3.13755
3.37187
3.34532
3.52406
3.50895
3.54728
3.54708
3.45648
3.46789
3.29155
3.31015
3.08438
3.10692
2.85289
2.87739
2.60655
2.63177
2.35176
2.3768
2.09427
2.11838
1.84051
1.86303
1.59809
1.61849
1.37549
1.3934
1.17919
1.19449
1.01114
1.02408
0.874457
0.884782
0.777082
0.784775
0.716259
0.721941
0.683399
0.687723
0.66616
0.669836
0.648709
0.652456
0.619359
0.623696
0.570396
0.57548
0.506528
0.512257
0.434832
0.440958
72.1346
72.1368
55.7179
55.7309
44.1247
44.1317
35.6942
35.6961
29.4072
29.4044
24.6164
24.6088
20.8949
20.8876
17.9566
17.9537
15.6027
15.605
13.6936
13.6981
12.1285
12.1314
10.8311
10.8318
9.74456
9.74351
8.82658
8.82419
8.04454
8.04173
7.3738
7.3716
6.79566
6.79449
6.29394
6.29264
5.85482
5.85302
5.46712
5.46522
5.12321
5.12144
4.81717
4.81576
4.54369
4.54321
4.2978
4.29899
4.0777
4.0792
3.88171
3.88269
3.7074
3.70849
3.5507
3.553
3.40823
3.41155
3.27813
3.28076
3.1595
3.16048
3.05143
3.05108
2.95208
2.95116
2.85894
2.85799
2.77118
2.77025
2.69182
2.6904
2.62443
2.62187
2.57161
2.5671
2.53594
2.52845
2.51903
2.50968
2.52298
2.51101
2.55956
2.54416
2.60247
2.59022
2.59989
2.59861
2.52441
2.53612
2.38417
2.40548
2.20703
2.23233
2.02598
2.05013
1.8673
1.88725
1.74335
1.75837
1.65331
1.66425
1.58733
1.59572
1.53306
1.54034
1.48352
1.48968
1.43797
1.44318
1.39041
1.39539
1.33616
1.34127
1.27891
1.28403
1.21975
1.22419
1.18061
1.18369
)
;
    }
}


// ************************************************************************* //
