/*--------------------------------*- C++ -*----------------------------------*\
  =========                 |
  \\      /  F ield         | OpenFOAM: The Open Source CFD Toolbox
   \\    /   O peration     | Website:  https://openfoam.org
    \\  /    A nd           | Version:  8
     \\/     M anipulation  |
\*---------------------------------------------------------------------------*/
FoamFile
{
    version     2.0;
    format      ascii;
    class       volScalarField;
    location    "800";
    object      k;
}
// * * * * * * * * * * * * * * * * * * * * * * * * * * * * * * * * * * * * * //

dimensions      [0 2 -2 0 0 0 0];

internalField   nonuniform List<scalar> 
1200
(
0.803287
0.676245
0.578845
0.502542
0.441648
0.392274
0.351669
0.317875
0.28945
0.26533
0.244706
0.226927
0.211485
0.197985
0.186111
0.175616
0.166312
0.158022
0.150584
0.143861
0.137763
0.132221
0.127169
0.12254
0.118319
0.114495
0.11104
0.107887
0.10498
0.10229
0.0998043
0.097513
0.0953837
0.0933671
0.0914453
0.0896845
0.0881689
0.0869614
0.0861263
0.0857318
0.0857913
0.0865884
0.087595
0.0876476
0.086066
0.0829427
0.0788316
0.0744645
0.0704976
0.0673037
0.0649311
0.0631696
0.0617132
0.0603662
0.0591156
0.0578044
0.0562946
0.0546774
0.0529719
0.0518176
0.695245
0.512711
0.39144
0.307467
0.247269
0.202778
0.169022
0.142896
0.122324
0.105873
0.0925031
0.0814966
0.0723337
0.0645968
0.0579878
0.052301
0.0473763
0.0430993
0.0393777
0.0361303
0.0332775
0.0307573
0.0285204
0.0265263
0.0247421
0.0231416
0.0217009
0.0203987
0.0192168
0.018141
0.0171593
0.0162615
0.0154381
0.0146805
0.0139829
0.0133469
0.0127916
0.0124192
0.0126916
0.0149312
0.0200839
0.0258805
0.0294781
0.0302573
0.0290234
0.02672
0.0239698
0.0210947
0.0182427
0.0155022
0.0130085
0.010971
0.00956564
0.00874131
0.00820967
0.00781855
0.00749699
0.00721708
0.0069638
0.00676631
0.694936
0.511019
0.38895
0.304456
0.243925
0.19928
0.165507
0.139404
0.118863
0.102441
0.0891305
0.0782044
0.0691321
0.0615219
0.0550779
0.0495756
0.0448441
0.04075
0.0371871
0.0340689
0.0313249
0.0288977
0.0267411
0.0248168
0.0230933
0.0215452
0.0201493
0.0188851
0.0177362
0.0166897
0.0157342
0.0148601
0.0140589
0.0133231
0.0126465
0.0120239
0.0114506
0.0109283
0.0104996
0.0103382
0.0108459
0.0122009
0.0138167
0.0149243
0.0152446
0.014897
0.0141105
0.0130852
0.0119634
0.0108429
0.00980075
0.00889401
0.00814559
0.00753186
0.00702333
0.00659788
0.00623285
0.00591673
0.00563992
0.00541279
0.694935
0.511457
0.389586
0.305157
0.244602
0.199894
0.166058
0.139893
0.119287
0.102806
0.0894419
0.0784712
0.0693619
0.061721
0.0552519
0.0497287
0.0449786
0.040868
0.0372906
0.03416
0.0314056
0.0289701
0.0268068
0.0248774
0.0231498
0.0215973
0.0201969
0.0189291
0.0177777
0.0167289
0.015771
0.0148938
0.014089
0.0133498
0.0126703
0.0120456
0.0114701
0.0109382
0.0104459
0.0100029
0.00966731
0.00954533
0.00964492
0.00982038
0.00992024
0.00987671
0.00968661
0.00937359
0.00896649
0.00849374
0.00798559
0.00747227
0.00698039
0.00653275
0.00613825
0.00579997
0.00552146
0.0053033
0.00514342
0.00502054
0.694935
0.511459
0.389517
0.305039
0.244457
0.199739
0.165908
0.139756
0.119168
0.102705
0.0893581
0.0784003
0.0693011
0.0616677
0.0552042
0.0496859
0.0449408
0.040835
0.0372623
0.0341364
0.0313867
0.0289559
0.0267979
0.0248742
0.0231525
0.0216056
0.0202107
0.0189488
0.0178032
0.0167597
0.0158062
0.0149325
0.0141303
0.0133937
0.0127197
0.012105
0.0115428
0.0110233
0.0105357
0.0100725
0.00964509
0.00926301
0.00893558
0.00866107
0.00842383
0.00820963
0.00800948
0.00781449
0.00761226
0.00739092
0.00714486
0.00687644
0.00659377
0.00630902
0.00603938
0.00580637
0.00562059
0.00548427
0.00539765
0.00532964
0.694934
0.511466
0.389517
0.305035
0.244449
0.199726
0.165893
0.139742
0.119157
0.102698
0.0893536
0.0783971
0.0692981
0.0616643
0.0552008
0.0496833
0.0449398
0.0408359
0.0372651
0.0341413
0.031394
0.0289666
0.026813
0.0248952
0.0231809
0.0216429
0.0202587
0.0190093
0.0178778
0.0168497
0.0159135
0.0150608
0.014289
0.0136056
0.0130205
0.0125251
0.0120942
0.0116982
0.0113069
0.0108909
0.0104422
0.00999346
0.00957711
0.00919867
0.00885652
0.0085446
0.00824873
0.00797379
0.0077174
0.00747622
0.00724606
0.00702377
0.00680835
0.00660153
0.00640712
0.00623756
0.00610631
0.00601012
0.00594867
0.00588411
0.694934
0.511487
0.389607
0.305175
0.244615
0.199899
0.166066
0.139907
0.119306
0.102827
0.0894616
0.0784878
0.0693751
0.0617301
0.0552564
0.0497293
0.0449765
0.0408645
0.037287
0.0341582
0.0314078
0.0289796
0.026829
0.0249197
0.0232214
0.0217098
0.0203667
0.019178
0.0181303
0.0172104
0.0164085
0.0157167
0.0151292
0.014645
0.0142674
0.0139858
0.0137614
0.0135476
0.0133042
0.0130018
0.0126287
0.0122004
0.0117562
0.0113372
0.0109574
0.0106068
0.0102634
0.00987987
0.00949252
0.00911857
0.00876721
0.00843864
0.00813613
0.00786113
0.00761394
0.00738746
0.00719104
0.00701749
0.00685917
0.00668329
0.694934
0.511058
0.38898
0.304473
0.243922
0.199257
0.165486
0.139393
0.118863
0.102452
0.0891469
0.0782216
0.0691474
0.0615334
0.0550866
0.0495836
0.0448529
0.0407605
0.0372006
0.034087
0.0313496
0.028932
0.0267896
0.0248868
0.0231952
0.0216933
0.0203667
0.0192054
0.0181967
0.0173248
0.0165732
0.0159252
0.0153717
0.0149681
0.0148718
0.0150779
0.0153366
0.0154494
0.0153671
0.0151234
0.0147786
0.0144005
0.0140484
0.0137519
0.0134976
0.0132393
0.0129315
0.0125411
0.0120253
0.0115087
0.0110084
0.0105359
0.0100966
0.00969283
0.00932326
0.00897957
0.0086336
0.00827605
0.0078766
0.00742382
0.695244
0.512628
0.391244
0.307187
0.246917
0.202416
0.168719
0.142614
0.122009
0.105498
0.0920955
0.0810806
0.0719113
0.0641856
0.0576065
0.0519533
0.0470596
0.042818
0.0391337
0.0359129
0.0330806
0.0305774
0.0283563
0.0263786
0.024612
0.023042
0.0216402
0.0204342
0.0193945
0.0184806
0.0176661
0.0169843
0.0167062
0.0178112
0.0210665
0.0249455
0.0275973
0.028464
0.0280247
0.0271005
0.0263511
0.0260413
0.0260366
0.0260052
0.0256331
0.024731
0.0232464
0.0212106
0.0187221
0.0161812
0.0141461
0.0125782
0.0113432
0.0103488
0.00952865
0.00884654
0.0083032
0.00794566
0.00781705
0.00777195
0.803272
0.676319
0.578917
0.502615
0.441715
0.392332
0.351752
0.317994
0.289608
0.265511
0.244883
0.22709
0.211635
0.198124
0.186252
0.175786
0.166557
0.158407
0.151158
0.144621
0.138642
0.133123
0.128006
0.123285
0.119015
0.115238
0.111808
0.108701
0.105908
0.103418
0.101199
0.0992108
0.0975639
0.0971704
0.0996345
0.104009
0.10723
0.107827
0.106076
0.102739
0.0984244
0.0934679
0.0880326
0.0822194
0.0761203
0.0698532
0.0635851
0.057538
0.0519236
0.046863
0.0425264
0.0392874
0.0371901
0.0360283
0.0354125
0.0347943
0.0337484
0.0319622
0.0295487
0.0267099
0.803304
0.676352
0.578907
0.50256
0.44162
0.392194
0.351587
0.31784
0.289478
0.265387
0.244746
0.226938
0.21147
0.19795
0.186067
0.175581
0.166293
0.158001
0.150553
0.143828
0.137732
0.132196
0.12716
0.122562
0.118349
0.114515
0.111062
0.107934
0.105048
0.102344
0.0998254
0.0975062
0.0953644
0.0933468
0.0914253
0.0896543
0.0881139
0.0868637
0.0859617
0.085508
0.0855208
0.0862404
0.0873071
0.087598
0.0863125
0.0834234
0.0794281
0.075057
0.0710044
0.0676955
0.0652217
0.0633947
0.0619093
0.0605357
0.0592603
0.0579436
0.0564393
0.0548249
0.0531032
0.0519118
0.695246
0.512711
0.391346
0.307303
0.247078
0.20264
0.168971
0.142882
0.122296
0.105786
0.092366
0.0813288
0.0721512
0.064436
0.0578718
0.0522242
0.0473194
0.0430655
0.0393637
0.0361244
0.0332746
0.0307557
0.0285196
0.0265264
0.0247423
0.0231401
0.0216976
0.0203948
0.019214
0.0181392
0.0171577
0.0162597
0.0154362
0.0146785
0.0139805
0.0133425
0.0127788
0.0123685
0.0124799
0.0142791
0.0190147
0.0249266
0.0289772
0.0301913
0.0292399
0.0270805
0.0243851
0.0215146
0.0186381
0.0158514
0.0132909
0.0111689
0.009673
0.00878815
0.00823069
0.00782767
0.00750013
0.00721659
0.00695992
0.00675779
0.694936
0.511097
0.389017
0.304496
0.243933
0.199252
0.165459
0.139369
0.118853
0.10245
0.0891397
0.0782071
0.0691281
0.0615119
0.0550655
0.0495652
0.0448379
0.0407477
0.0371874
0.0340706
0.0313269
0.0288998
0.0267435
0.0248197
0.0230961
0.0215459
0.0201471
0.0188814
0.0177325
0.0166866
0.0157318
0.0148582
0.0140573
0.0133216
0.0126451
0.0120225
0.011449
0.0109239
0.0104796
0.010256
0.0106246
0.0118568
0.0134907
0.0147248
0.015186
0.0149433
0.014218
0.0132192
0.0121003
0.0109671
0.00990334
0.00897199
0.00820125
0.00757186
0.00705117
0.00661679
0.00624537
0.0059244
0.00564339
0.00541194
0.694935
0.511512
0.389632
0.305187
0.244613
0.199883
0.166032
0.139875
0.119291
0.102823
0.0894608
0.0784833
0.0693664
0.0617186
0.0552454
0.0497219
0.0449741
0.0408663
0.0372909
0.0341614
0.0314073
0.0289718
0.0268088
0.0248796
0.0231518
0.0215984
0.0201972
0.0189294
0.0177786
0.0167304
0.0157727
0.0148957
0.0140908
0.013351
0.0126707
0.0120452
0.0114691
0.010937
0.0104442
0.00999687
0.00964207
0.00948325
0.00955521
0.00973388
0.00986079
0.00985145
0.0096917
0.00940111
0.00900803
0.00854174
0.00803408
0.00751731
0.00701978
0.00656496
0.00616425
0.00581983
0.00553497
0.00531039
0.0051445
0.00501763
0.694934
0.511501
0.389563
0.305077
0.244483
0.199746
0.165894
0.139742
0.11917
0.102719
0.0893728
0.0784091
0.0693032
0.0616642
0.0551979
0.0496801
0.0449373
0.0408339
0.0372629
0.0341378
0.0313882
0.0289576
0.0267998
0.0248764
0.0231547
0.0216076
0.0202126
0.0189507
0.0178054
0.0167619
0.0158081
0.0149341
0.0141317
0.0133952
0.0127217
0.0121077
0.0115457
0.0110255
0.0105359
0.0100724
0.00964536
0.00926281
0.00893089
0.00865011
0.0084092
0.00819523
0.00799849
0.00780906
0.00761344
0.00739855
0.00715779
0.00689318
0.00661288
0.00632888
0.00605725
0.00581939
0.00562718
0.00548383
0.00539066
0.00531953
0.694934
0.511491
0.389552
0.305063
0.24447
0.199736
0.165885
0.139732
0.119159
0.102709
0.0893651
0.0784035
0.0692991
0.0616612
0.0551959
0.0496791
0.0449374
0.0408353
0.0372658
0.0341426
0.0313956
0.0289684
0.0268152
0.0248978
0.0231839
0.0216462
0.0202624
0.0190134
0.0178823
0.0168546
0.0159189
0.0150671
0.0142977
0.0136195
0.0130417
0.0125525
0.0121246
0.0117275
0.0113296
0.010901
0.010442
0.00999095
0.00957662
0.0091998
0.00885677
0.00854409
0.00824877
0.00797341
0.00771622
0.0074745
0.00724446
0.00702273
0.00680797
0.0066015
0.00640682
0.00623446
0.0060994
0.00599922
0.00593451
0.00587089
0.694934
0.511508
0.389646
0.305212
0.244648
0.199926
0.166072
0.139905
0.119312
0.10284
0.0894753
0.0784966
0.0693774
0.0617269
0.0552505
0.049724
0.0449735
0.0408636
0.0372876
0.0341595
0.0314094
0.0289816
0.0268317
0.0249235
0.0232268
0.0217174
0.0203774
0.0191932
0.0181509
0.0172375
0.016443
0.0157596
0.0151818
0.014709
0.0143436
0.0140705
0.013848
0.0136291
0.0133742
0.0130544
0.012661
0.0122134
0.0117569
0.0113325
0.0109515
0.0106
0.010254
0.00986827
0.0094806
0.00910701
0.00875603
0.00843118
0.00813289
0.00786066
0.00761456
0.00738919
0.00719061
0.00701605
0.00685915
0.00668963
0.694934
0.511051
0.388987
0.30448
0.243935
0.199272
0.165486
0.13939
0.118866
0.102461
0.0891553
0.0782258
0.0691472
0.0615305
0.0550829
0.0495807
0.0448513
0.0407604
0.0372014
0.0340884
0.0313513
0.0289342
0.0267925
0.0248909
0.0232015
0.0217031
0.0203822
0.0192292
0.0182313
0.0173714
0.0166321
0.0159959
0.0154544
0.0150684
0.0149904
0.0151999
0.0154495
0.0155484
0.0154504
0.0151903
0.0148305
0.01444
0.0140792
0.0137762
0.0135161
0.0132533
0.0129457
0.0125639
0.0120408
0.011519
0.0110163
0.0105439
0.0101061
0.00970423
0.00933687
0.00899697
0.00865784
0.00830831
0.0079212
0.00748325
0.695244
0.512653
0.391333
0.307318
0.247073
0.202546
0.168772
0.142619
0.122017
0.105527
0.0921225
0.0810775
0.0718776
0.0641373
0.0575586
0.051914
0.047032
0.0428066
0.0391284
0.0359095
0.0330779
0.0305751
0.0283544
0.0263773
0.024611
0.0230277
0.0216173
0.0204128
0.0193754
0.0184633
0.0176678
0.0170359
0.0167374
0.0176273
0.020622
0.024468
0.0272866
0.0283526
0.0280383
0.0271448
0.0263673
0.0260218
0.0260086
0.0260031
0.0256804
0.0248354
0.0234044
0.0214145
0.0189546
0.0163845
0.01429
0.0126831
0.0114219
0.0104095
0.00957605
0.00888248
0.00832564
0.00794994
0.00780096
0.00774845
0.803274
0.676325
0.578965
0.502668
0.441771
0.392387
0.351777
0.318007
0.28963
0.265543
0.244914
0.227108
0.211635
0.19811
0.186232
0.175769
0.166547
0.158391
0.151139
0.144594
0.138606
0.133077
0.127949
0.123211
0.118905
0.115057
0.1117
0.108654
0.105893
0.103415
0.101201
0.0992147
0.0975395
0.0969737
0.0991405
0.103456
0.106909
0.10781
0.106299
0.103119
0.098899
0.0939993
0.0885975
0.0828007
0.0767026
0.0704218
0.0641256
0.0580371
0.0523725
0.0472622
0.0428621
0.0395478
0.0373877
0.036181
0.0355431
0.0349281
0.0339053
0.0321509
0.0297698
0.0269584
)
;

boundaryField
{
    wall
    {
        type            kqRWallFunction;
        value           nonuniform List<scalar> 
1200
(
0.803287
0.695245
0.694936
0.694935
0.694935
0.694934
0.694934
0.694934
0.695244
0.803272
0.676245
0.512711
0.511019
0.511457
0.511459
0.511466
0.511487
0.511058
0.512628
0.676319
0.578845
0.39144
0.38895
0.389586
0.389517
0.389517
0.389607
0.38898
0.391244
0.578917
0.502542
0.307467
0.304456
0.305157
0.305039
0.305035
0.305175
0.304473
0.307187
0.502615
0.441648
0.247269
0.243925
0.244602
0.244457
0.244449
0.244615
0.243922
0.246917
0.441715
0.392274
0.202778
0.19928
0.199894
0.199739
0.199726
0.199899
0.199257
0.202416
0.392332
0.351669
0.169022
0.165507
0.166058
0.165908
0.165893
0.166066
0.165486
0.168719
0.351752
0.317875
0.142896
0.139404
0.139893
0.139756
0.139742
0.139907
0.139393
0.142614
0.317994
0.28945
0.122324
0.118863
0.119287
0.119168
0.119157
0.119306
0.118863
0.122009
0.289608
0.26533
0.105873
0.102441
0.102806
0.102705
0.102698
0.102827
0.102452
0.105498
0.265511
0.244706
0.0925031
0.0891305
0.0894419
0.0893581
0.0893536
0.0894616
0.0891469
0.0920955
0.244883
0.226927
0.0814966
0.0782044
0.0784712
0.0784003
0.0783971
0.0784878
0.0782216
0.0810806
0.22709
0.211485
0.0723337
0.0691321
0.0693619
0.0693011
0.0692981
0.0693751
0.0691474
0.0719113
0.211635
0.197985
0.0645968
0.0615219
0.061721
0.0616677
0.0616643
0.0617301
0.0615334
0.0641856
0.198124
0.186111
0.0579878
0.0550779
0.0552519
0.0552042
0.0552008
0.0552564
0.0550866
0.0576065
0.186252
0.175616
0.052301
0.0495756
0.0497287
0.0496859
0.0496833
0.0497293
0.0495836
0.0519533
0.175786
0.166312
0.0473763
0.0448441
0.0449786
0.0449408
0.0449398
0.0449765
0.0448529
0.0470596
0.166557
0.158022
0.0430993
0.04075
0.040868
0.040835
0.0408359
0.0408645
0.0407605
0.042818
0.158407
0.150584
0.0393777
0.0371871
0.0372906
0.0372623
0.0372651
0.037287
0.0372006
0.0391337
0.151158
0.143861
0.0361303
0.0340689
0.03416
0.0341364
0.0341413
0.0341582
0.034087
0.0359129
0.144621
0.137763
0.0332775
0.0313249
0.0314056
0.0313867
0.031394
0.0314078
0.0313496
0.0330806
0.138642
0.132221
0.0307573
0.0288977
0.0289701
0.0289559
0.0289666
0.0289796
0.028932
0.0305774
0.133123
0.127169
0.0285204
0.0267411
0.0268068
0.0267979
0.026813
0.026829
0.0267896
0.0283563
0.128006
0.12254
0.0265263
0.0248168
0.0248774
0.0248742
0.0248952
0.0249197
0.0248868
0.0263786
0.123285
0.118319
0.0247421
0.0230933
0.0231498
0.0231525
0.0231809
0.0232214
0.0231952
0.024612
0.119015
0.114495
0.0231416
0.0215452
0.0215973
0.0216056
0.0216429
0.0217098
0.0216933
0.023042
0.115238
0.11104
0.0217009
0.0201493
0.0201969
0.0202107
0.0202587
0.0203667
0.0203667
0.0216402
0.111808
0.107887
0.0203987
0.0188851
0.0189291
0.0189488
0.0190093
0.019178
0.0192054
0.0204342
0.108701
0.10498
0.0192168
0.0177362
0.0177777
0.0178032
0.0178778
0.0181303
0.0181967
0.0193945
0.105908
0.10229
0.018141
0.0166897
0.0167289
0.0167597
0.0168497
0.0172104
0.0173248
0.0184806
0.103418
0.0998043
0.0171593
0.0157342
0.015771
0.0158062
0.0159135
0.0164085
0.0165732
0.0176661
0.101199
0.097513
0.0162615
0.0148601
0.0148938
0.0149325
0.0150608
0.0157167
0.0159252
0.0169843
0.0992108
0.0953837
0.0154381
0.0140589
0.014089
0.0141303
0.014289
0.0151292
0.0153717
0.0167062
0.0975639
0.0933671
0.0146805
0.0133231
0.0133498
0.0133937
0.0136056
0.014645
0.0149681
0.0178112
0.0971704
0.0914453
0.0139829
0.0126465
0.0126703
0.0127197
0.0130205
0.0142674
0.0148718
0.0210665
0.0996345
0.0896845
0.0133469
0.0120239
0.0120456
0.012105
0.0125251
0.0139858
0.0150779
0.0249455
0.104009
0.0881689
0.0127916
0.0114506
0.0114701
0.0115428
0.0120942
0.0137614
0.0153366
0.0275973
0.10723
0.0869614
0.0124192
0.0109283
0.0109382
0.0110233
0.0116982
0.0135476
0.0154494
0.028464
0.107827
0.0861263
0.0126916
0.0104996
0.0104459
0.0105357
0.0113069
0.0133042
0.0153671
0.0280247
0.106076
0.0857318
0.0149312
0.0103382
0.0100029
0.0100725
0.0108909
0.0130018
0.0151234
0.0271005
0.102739
0.0857913
0.0200839
0.0108459
0.00966731
0.00964509
0.0104422
0.0126287
0.0147786
0.0263511
0.0984244
0.0865884
0.0258805
0.0122009
0.00954533
0.00926301
0.00999346
0.0122004
0.0144005
0.0260413
0.0934679
0.087595
0.0294781
0.0138167
0.00964492
0.00893558
0.00957711
0.0117562
0.0140484
0.0260366
0.0880326
0.0876476
0.0302573
0.0149243
0.00982038
0.00866107
0.00919867
0.0113372
0.0137519
0.0260052
0.0822194
0.086066
0.0290234
0.0152446
0.00992024
0.00842383
0.00885652
0.0109574
0.0134976
0.0256331
0.0761203
0.0829427
0.02672
0.014897
0.00987671
0.00820963
0.0085446
0.0106068
0.0132393
0.024731
0.0698532
0.0788316
0.0239698
0.0141105
0.00968661
0.00800948
0.00824873
0.0102634
0.0129315
0.0232464
0.0635851
0.0744645
0.0210947
0.0130852
0.00937359
0.00781449
0.00797379
0.00987987
0.0125411
0.0212106
0.057538
0.0704976
0.0182427
0.0119634
0.00896649
0.00761226
0.0077174
0.00949252
0.0120253
0.0187221
0.0519236
0.0673037
0.0155022
0.0108429
0.00849374
0.00739092
0.00747622
0.00911857
0.0115087
0.0161812
0.046863
0.0649311
0.0130085
0.00980075
0.00798559
0.00714486
0.00724606
0.00876721
0.0110084
0.0141461
0.0425264
0.0631696
0.010971
0.00889401
0.00747227
0.00687644
0.00702377
0.00843864
0.0105359
0.0125782
0.0392874
0.0617132
0.00956564
0.00814559
0.00698039
0.00659377
0.00680835
0.00813613
0.0100966
0.0113432
0.0371901
0.0603662
0.00874131
0.00753186
0.00653275
0.00630902
0.00660153
0.00786113
0.00969283
0.0103488
0.0360283
0.0591156
0.00820967
0.00702333
0.00613825
0.00603938
0.00640712
0.00761394
0.00932326
0.00952865
0.0354125
0.0578044
0.00781855
0.00659788
0.00579997
0.00580637
0.00623756
0.00738746
0.00897957
0.00884654
0.0347943
0.0562946
0.00749699
0.00623285
0.00552146
0.00562059
0.00610631
0.00719104
0.0086336
0.0083032
0.0337484
0.0546774
0.00721708
0.00591673
0.0053033
0.00548427
0.00601012
0.00701749
0.00827605
0.00794566
0.0319622
0.0529719
0.0069638
0.00563992
0.00514342
0.00539765
0.00594867
0.00685917
0.0078766
0.00781705
0.0295487
0.0518176
0.00676631
0.00541279
0.00502054
0.00532964
0.00588411
0.00668329
0.00742382
0.00777195
0.0267099
0.803304
0.695246
0.694936
0.694935
0.694934
0.694934
0.694934
0.694934
0.695244
0.803274
0.676352
0.512711
0.511097
0.511512
0.511501
0.511491
0.511508
0.511051
0.512653
0.676325
0.578907
0.391346
0.389017
0.389632
0.389563
0.389552
0.389646
0.388987
0.391333
0.578965
0.50256
0.307303
0.304496
0.305187
0.305077
0.305063
0.305212
0.30448
0.307318
0.502668
0.44162
0.247078
0.243933
0.244613
0.244483
0.24447
0.244648
0.243935
0.247073
0.441771
0.392194
0.20264
0.199252
0.199883
0.199746
0.199736
0.199926
0.199272
0.202546
0.392387
0.351587
0.168971
0.165459
0.166032
0.165894
0.165885
0.166072
0.165486
0.168772
0.351777
0.31784
0.142882
0.139369
0.139875
0.139742
0.139732
0.139905
0.13939
0.142619
0.318007
0.289478
0.122296
0.118853
0.119291
0.11917
0.119159
0.119312
0.118866
0.122017
0.28963
0.265387
0.105786
0.10245
0.102823
0.102719
0.102709
0.10284
0.102461
0.105527
0.265543
0.244746
0.092366
0.0891397
0.0894608
0.0893728
0.0893651
0.0894753
0.0891553
0.0921225
0.244914
0.226938
0.0813288
0.0782071
0.0784833
0.0784091
0.0784035
0.0784966
0.0782258
0.0810775
0.227108
0.21147
0.0721512
0.0691281
0.0693664
0.0693032
0.0692991
0.0693774
0.0691472
0.0718776
0.211635
0.19795
0.064436
0.0615119
0.0617186
0.0616642
0.0616612
0.0617269
0.0615305
0.0641373
0.19811
0.186067
0.0578718
0.0550655
0.0552454
0.0551979
0.0551959
0.0552505
0.0550829
0.0575586
0.186232
0.175581
0.0522242
0.0495652
0.0497219
0.0496801
0.0496791
0.049724
0.0495807
0.051914
0.175769
0.166293
0.0473194
0.0448379
0.0449741
0.0449373
0.0449374
0.0449735
0.0448513
0.047032
0.166547
0.158001
0.0430655
0.0407477
0.0408663
0.0408339
0.0408353
0.0408636
0.0407604
0.0428066
0.158391
0.150553
0.0393637
0.0371874
0.0372909
0.0372629
0.0372658
0.0372876
0.0372014
0.0391284
0.151139
0.143828
0.0361244
0.0340706
0.0341614
0.0341378
0.0341426
0.0341595
0.0340884
0.0359095
0.144594
0.137732
0.0332746
0.0313269
0.0314073
0.0313882
0.0313956
0.0314094
0.0313513
0.0330779
0.138606
0.132196
0.0307557
0.0288998
0.0289718
0.0289576
0.0289684
0.0289816
0.0289342
0.0305751
0.133077
0.12716
0.0285196
0.0267435
0.0268088
0.0267998
0.0268152
0.0268317
0.0267925
0.0283544
0.127949
0.122562
0.0265264
0.0248197
0.0248796
0.0248764
0.0248978
0.0249235
0.0248909
0.0263773
0.123211
0.118349
0.0247423
0.0230961
0.0231518
0.0231547
0.0231839
0.0232268
0.0232015
0.024611
0.118905
0.114515
0.0231401
0.0215459
0.0215984
0.0216076
0.0216462
0.0217174
0.0217031
0.0230277
0.115057
0.111062
0.0216976
0.0201471
0.0201972
0.0202126
0.0202624
0.0203774
0.0203822
0.0216173
0.1117
0.107934
0.0203948
0.0188814
0.0189294
0.0189507
0.0190134
0.0191932
0.0192292
0.0204128
0.108654
0.105048
0.019214
0.0177325
0.0177786
0.0178054
0.0178823
0.0181509
0.0182313
0.0193754
0.105893
0.102344
0.0181392
0.0166866
0.0167304
0.0167619
0.0168546
0.0172375
0.0173714
0.0184633
0.103415
0.0998254
0.0171577
0.0157318
0.0157727
0.0158081
0.0159189
0.016443
0.0166321
0.0176678
0.101201
0.0975062
0.0162597
0.0148582
0.0148957
0.0149341
0.0150671
0.0157596
0.0159959
0.0170359
0.0992147
0.0953644
0.0154362
0.0140573
0.0140908
0.0141317
0.0142977
0.0151818
0.0154544
0.0167374
0.0975395
0.0933468
0.0146785
0.0133216
0.013351
0.0133952
0.0136195
0.014709
0.0150684
0.0176273
0.0969737
0.0914253
0.0139805
0.0126451
0.0126707
0.0127217
0.0130417
0.0143436
0.0149904
0.020622
0.0991405
0.0896543
0.0133425
0.0120225
0.0120452
0.0121077
0.0125525
0.0140705
0.0151999
0.024468
0.103456
0.0881139
0.0127788
0.011449
0.0114691
0.0115457
0.0121246
0.013848
0.0154495
0.0272866
0.106909
0.0868637
0.0123685
0.0109239
0.010937
0.0110255
0.0117275
0.0136291
0.0155484
0.0283526
0.10781
0.0859617
0.0124799
0.0104796
0.0104442
0.0105359
0.0113296
0.0133742
0.0154504
0.0280383
0.106299
0.085508
0.0142791
0.010256
0.00999687
0.0100724
0.010901
0.0130544
0.0151903
0.0271448
0.103119
0.0855208
0.0190147
0.0106246
0.00964207
0.00964536
0.010442
0.012661
0.0148305
0.0263673
0.098899
0.0862404
0.0249266
0.0118568
0.00948325
0.00926281
0.00999095
0.0122134
0.01444
0.0260218
0.0939993
0.0873071
0.0289772
0.0134907
0.00955521
0.00893089
0.00957662
0.0117569
0.0140792
0.0260086
0.0885975
0.087598
0.0301913
0.0147248
0.00973388
0.00865011
0.0091998
0.0113325
0.0137762
0.0260031
0.0828007
0.0863125
0.0292399
0.015186
0.00986079
0.0084092
0.00885677
0.0109515
0.0135161
0.0256804
0.0767026
0.0834234
0.0270805
0.0149433
0.00985145
0.00819523
0.00854409
0.0106
0.0132533
0.0248354
0.0704218
0.0794281
0.0243851
0.014218
0.0096917
0.00799849
0.00824877
0.010254
0.0129457
0.0234044
0.0641256
0.075057
0.0215146
0.0132192
0.00940111
0.00780906
0.00797341
0.00986827
0.0125639
0.0214145
0.0580371
0.0710044
0.0186381
0.0121003
0.00900803
0.00761344
0.00771622
0.0094806
0.0120408
0.0189546
0.0523725
0.0676955
0.0158514
0.0109671
0.00854174
0.00739855
0.0074745
0.00910701
0.011519
0.0163845
0.0472622
0.0652217
0.0132909
0.00990334
0.00803408
0.00715779
0.00724446
0.00875603
0.0110163
0.01429
0.0428621
0.0633947
0.0111689
0.00897199
0.00751731
0.00689318
0.00702273
0.00843118
0.0105439
0.0126831
0.0395478
0.0619093
0.009673
0.00820125
0.00701978
0.00661288
0.00680797
0.00813289
0.0101061
0.0114219
0.0373877
0.0605357
0.00878815
0.00757186
0.00656496
0.00632888
0.0066015
0.00786066
0.00970423
0.0104095
0.036181
0.0592603
0.00823069
0.00705117
0.00616425
0.00605725
0.00640682
0.00761456
0.00933687
0.00957605
0.0355431
0.0579436
0.00782767
0.00661679
0.00581983
0.00581939
0.00623446
0.00738919
0.00899697
0.00888248
0.0349281
0.0564393
0.00750013
0.00624537
0.00553497
0.00562718
0.0060994
0.00719061
0.00865784
0.00832564
0.0339053
0.0548249
0.00721659
0.0059244
0.00531039
0.00548383
0.00599922
0.00701605
0.00830831
0.00794994
0.0321509
0.0531032
0.00695992
0.00564339
0.0051445
0.00539066
0.00593451
0.00685915
0.0079212
0.00780096
0.0297698
0.0519118
0.00675779
0.00541194
0.00501763
0.00531953
0.00587089
0.00668963
0.00748325
0.00774845
0.0269584
)
;
    }
    inlet
    {
        type            turbulentIntensityKineticEnergyInlet;
        intensity       0.05;
        value           uniform 0.96;
    }
    outlet
    {
        type            inletOutlet;
        inletValue      uniform 0.003;
        value           nonuniform List<scalar> 
20
(
0.0518176
0.00676631
0.00541279
0.00502054
0.00532964
0.00588411
0.00668329
0.00742382
0.00777195
0.0267099
0.0519118
0.00675779
0.00541194
0.00501763
0.00531953
0.00587089
0.00668963
0.00748325
0.00774845
0.0269584
)
;
    }
    heatWall
    {
        type            kqRWallFunction;
        value           nonuniform List<scalar> 
240
(
0.803272
0.803274
0.676319
0.676325
0.578917
0.578965
0.502615
0.502668
0.441715
0.441771
0.392332
0.392387
0.351752
0.351777
0.317994
0.318007
0.289608
0.28963
0.265511
0.265543
0.244883
0.244914
0.22709
0.227108
0.211635
0.211635
0.198124
0.19811
0.186252
0.186232
0.175786
0.175769
0.166557
0.166547
0.158407
0.158391
0.151158
0.151139
0.144621
0.144594
0.138642
0.138606
0.133123
0.133077
0.128006
0.127949
0.123285
0.123211
0.119015
0.118905
0.115238
0.115057
0.111808
0.1117
0.108701
0.108654
0.105908
0.105893
0.103418
0.103415
0.101199
0.101201
0.0992108
0.0992147
0.0975639
0.0975395
0.0971704
0.0969737
0.0996345
0.0991405
0.104009
0.103456
0.10723
0.106909
0.107827
0.10781
0.106076
0.106299
0.102739
0.103119
0.0984244
0.098899
0.0934679
0.0939993
0.0880326
0.0885975
0.0822194
0.0828007
0.0761203
0.0767026
0.0698532
0.0704218
0.0635851
0.0641256
0.057538
0.0580371
0.0519236
0.0523725
0.046863
0.0472622
0.0425264
0.0428621
0.0392874
0.0395478
0.0371901
0.0373877
0.0360283
0.036181
0.0354125
0.0355431
0.0347943
0.0349281
0.0337484
0.0339053
0.0319622
0.0321509
0.0295487
0.0297698
0.0267099
0.0269584
0.803287
0.803304
0.676245
0.676352
0.578845
0.578907
0.502542
0.50256
0.441648
0.44162
0.392274
0.392194
0.351669
0.351587
0.317875
0.31784
0.28945
0.289478
0.26533
0.265387
0.244706
0.244746
0.226927
0.226938
0.211485
0.21147
0.197985
0.19795
0.186111
0.186067
0.175616
0.175581
0.166312
0.166293
0.158022
0.158001
0.150584
0.150553
0.143861
0.143828
0.137763
0.137732
0.132221
0.132196
0.127169
0.12716
0.12254
0.122562
0.118319
0.118349
0.114495
0.114515
0.11104
0.111062
0.107887
0.107934
0.10498
0.105048
0.10229
0.102344
0.0998043
0.0998254
0.097513
0.0975062
0.0953837
0.0953644
0.0933671
0.0933468
0.0914453
0.0914253
0.0896845
0.0896543
0.0881689
0.0881139
0.0869614
0.0868637
0.0861263
0.0859617
0.0857318
0.085508
0.0857913
0.0855208
0.0865884
0.0862404
0.087595
0.0873071
0.0876476
0.087598
0.086066
0.0863125
0.0829427
0.0834234
0.0788316
0.0794281
0.0744645
0.075057
0.0704976
0.0710044
0.0673037
0.0676955
0.0649311
0.0652217
0.0631696
0.0633947
0.0617132
0.0619093
0.0603662
0.0605357
0.0591156
0.0592603
0.0578044
0.0579436
0.0562946
0.0564393
0.0546774
0.0548249
0.0529719
0.0531032
0.0518176
0.0519118
)
;
    }
}


// ************************************************************************* //
