/*--------------------------------*- C++ -*----------------------------------*\
  =========                 |
  \\      /  F ield         | OpenFOAM: The Open Source CFD Toolbox
   \\    /   O peration     | Website:  https://openfoam.org
    \\  /    A nd           | Version:  8
     \\/     M anipulation  |
\*---------------------------------------------------------------------------*/
FoamFile
{
    version     2.0;
    format      ascii;
    class       volScalarField;
    location    "800";
    object      nut;
}
// * * * * * * * * * * * * * * * * * * * * * * * * * * * * * * * * * * * * * //

dimensions      [0 2 -1 0 0 0 0];

internalField   nonuniform List<scalar> 
1200
(
0.000805082
0.00073868
0.000683416
0.000636781
0.000596955
0.000562598
0.000532685
0.000506444
0.00048327
0.000462696
0.000444349
0.000427902
0.000413086
0.000399684
0.000387512
0.000376426
0.000366319
0.000357072
0.000348569
0.0003407
0.000333402
0.000326628
0.000320329
0.00031445
0.000308984
0.000303943
0.000299316
0.000295032
0.000291024
0.000287262
0.000283741
0.000280456
0.000277372
0.000274426
0.000271582
0.000268925
0.000266586
0.000264661
0.000263254
0.000262599
0.000262551
0.000263631
0.000265348
0.00026593
0.000264086
0.000259694
0.000253416
0.000246323
0.00023954
0.000233849
0.000229505
0.000226252
0.000223584
0.000221073
0.000218724
0.000216283
0.000213461
0.000210387
0.000207043
0.000204688
0.000468117
0.000401997
0.000351252
0.000311304
0.000279171
0.00025281
0.000230811
0.000212223
0.000196354
0.000182675
0.000170751
0.000160271
0.000150991
0.000142686
0.000135189
0.000128393
0.000122201
0.000116556
0.000111409
0.000106716
0.000102416
9.84615e-05
9.48129e-05
9.14375e-05
8.83092e-05
8.54047e-05
8.27024e-05
8.01822e-05
7.78236e-05
7.56128e-05
7.35373e-05
7.15869e-05
6.97507e-05
6.80173e-05
6.63795e-05
6.48442e-05
6.34476e-05
6.23646e-05
6.24349e-05
6.64593e-05
7.68768e-05
8.83668e-05
9.55272e-05
9.76459e-05
9.61642e-05
9.25796e-05
8.78704e-05
8.25486e-05
7.68381e-05
7.08584e-05
6.48659e-05
5.9425e-05
5.5251e-05
5.26449e-05
5.09402e-05
4.9673e-05
4.86199e-05
4.76897e-05
4.68306e-05
4.61414e-05
0.000468013
0.000401333
0.000350132
0.000309775
0.000277276
0.00025062
0.000228397
0.000209614
0.000193555
0.000179689
0.000167609
0.000156999
0.000147612
0.00013925
0.000131755
0.000125
0.000118886
0.000113329
0.000108261
0.000103622
9.93618e-05
9.54346e-05
9.18039e-05
8.84385e-05
8.53125e-05
8.24032e-05
7.96888e-05
7.71479e-05
7.47639e-05
7.2524e-05
7.0417e-05
6.84328e-05
6.65625e-05
6.47975e-05
6.31308e-05
6.1557e-05
6.00704e-05
5.86701e-05
5.74407e-05
5.67432e-05
5.76587e-05
6.09329e-05
6.50995e-05
6.81032e-05
6.92189e-05
6.8695e-05
6.70227e-05
6.46318e-05
6.18353e-05
5.88629e-05
5.59259e-05
5.322e-05
5.08734e-05
4.88749e-05
4.71581e-05
4.56775e-05
4.43731e-05
4.32146e-05
4.21737e-05
4.12965e-05
0.000468012
0.000401504
0.000350418
0.000310131
0.00027766
0.000251005
0.000228777
0.000209981
0.000193901
0.000180008
0.000167901
0.000157267
0.000147857
0.000139476
0.000131963
0.000125194
0.000119064
0.000113493
0.000108412
0.000103761
9.94896e-05
9.55537e-05
9.19166e-05
8.85465e-05
8.54162e-05
8.25022e-05
7.97821e-05
7.72369e-05
7.48507e-05
7.26092e-05
7.04996e-05
6.85113e-05
6.66353e-05
6.48633e-05
6.31903e-05
6.1612e-05
6.0122e-05
5.87116e-05
5.73727e-05
5.61215e-05
5.50886e-05
5.4605e-05
5.48155e-05
5.53509e-05
5.57367e-05
5.57302e-05
5.52904e-05
5.44644e-05
5.3319e-05
5.19227e-05
5.03556e-05
4.87073e-05
4.70646e-05
4.55107e-05
4.40964e-05
4.28427e-05
4.1776e-05
4.09143e-05
4.02656e-05
3.97636e-05
0.000468012
0.000401505
0.000350387
0.000310071
0.000277578
0.000250909
0.000228674
0.000209878
0.000193804
0.00017992
0.000167823
0.000157196
0.000147792
0.000139415
0.000131906
0.00012514
0.000119014
0.000113447
0.000108371
0.000103725
9.94595e-05
9.553e-05
9.19006e-05
8.85401e-05
8.54199e-05
8.25164e-05
7.98077e-05
7.72752e-05
7.49027e-05
7.26744e-05
7.05769e-05
6.85991e-05
6.67316e-05
6.49687e-05
6.33109e-05
6.17595e-05
6.03068e-05
5.89355e-05
5.76244e-05
5.63447e-05
5.5131e-05
5.40102e-05
5.3023e-05
5.21843e-05
5.14607e-05
5.081e-05
5.02031e-05
4.96108e-05
4.89907e-05
4.82989e-05
4.75103e-05
4.66268e-05
4.5671e-05
4.46798e-05
4.37073e-05
4.28356e-05
4.2116e-05
4.15698e-05
4.1211e-05
4.09373e-05
0.000468012
0.000401507
0.000350387
0.00031007
0.000277574
0.000250901
0.000228664
0.000209868
0.000193795
0.000179914
0.000167818
0.000157193
0.000147789
0.000139411
0.000131902
0.000125137
0.000119013
0.000113449
0.000108375
0.000103732
9.94709e-05
9.55471e-05
9.19256e-05
8.85757e-05
8.547e-05
8.25844e-05
7.98981e-05
7.73934e-05
7.5053e-05
7.28613e-05
7.0806e-05
6.88792e-05
6.70832e-05
6.54418e-05
6.39939e-05
6.2741e-05
6.16383e-05
6.06212e-05
5.96177e-05
5.85511e-05
5.73686e-05
5.61324e-05
5.49414e-05
5.38368e-05
5.28254e-05
5.18881e-05
5.09784e-05
5.01197e-05
4.93063e-05
4.85308e-05
4.77808e-05
4.70459e-05
4.63223e-05
4.5615e-05
4.49372e-05
4.43248e-05
4.38379e-05
4.34725e-05
4.32372e-05
4.30083e-05
0.000468012
0.000401516
0.000350427
0.000310141
0.000277668
0.000251009
0.000228783
0.000209992
0.000193916
0.000180026
0.00016792
0.000157284
0.000147871
0.000139486
0.000131969
0.000125195
0.000119062
0.000113488
0.000108406
0.000103758
9.94925e-05
9.5568e-05
9.19516e-05
8.86165e-05
8.55392e-05
8.27018e-05
8.00934e-05
7.7708e-05
7.55384e-05
7.35763e-05
7.18169e-05
7.02576e-05
6.88982e-05
6.77469e-05
6.68249e-05
6.61294e-05
6.55855e-05
6.5085e-05
6.45301e-05
6.38429e-05
6.29816e-05
6.19647e-05
6.08679e-05
5.97921e-05
5.87897e-05
5.78504e-05
5.69233e-05
5.58606e-05
5.4752e-05
5.36576e-05
5.26073e-05
5.16068e-05
5.06675e-05
4.97984e-05
4.90038e-05
4.82649e-05
4.76122e-05
4.70316e-05
4.65068e-05
4.59356e-05
0.000468012
0.000401347
0.000350145
0.000309783
0.000277274
0.000250606
0.000228383
0.000209606
0.000193556
0.000179698
0.000167624
0.000157017
0.000147628
0.000139263
0.000131766
0.000125011
0.000118898
0.000113344
0.000108281
0.00010365
9.94001e-05
9.54894e-05
9.1884e-05
8.85573e-05
8.54889e-05
8.26648e-05
8.00812e-05
7.77404e-05
7.56388e-05
7.37653e-05
7.21045e-05
7.06376e-05
6.93538e-05
6.83599e-05
6.80301e-05
6.84561e-05
6.90854e-05
6.94164e-05
6.93016e-05
6.88026e-05
6.80505e-05
6.71969e-05
6.63821e-05
6.56869e-05
6.50909e-05
6.44884e-05
6.37701e-05
6.28502e-05
6.1558e-05
6.02343e-05
5.89231e-05
5.76573e-05
5.64537e-05
5.53235e-05
5.42689e-05
5.3279e-05
5.22698e-05
5.12118e-05
5.0018e-05
4.86301e-05
0.000468116
0.000401963
0.000351162
0.000311161
0.000278971
0.000252585
0.000230604
0.000212015
0.000196102
0.000182352
0.000170376
0.000159863
0.000150553
0.000142237
0.000134752
0.000127974
0.000121797
0.00011618
0.000111068
0.000106398
0.000102116
9.81757e-05
9.45419e-05
9.11845e-05
8.80768e-05
8.52195e-05
8.25813e-05
8.02381e-05
7.81596e-05
7.62813e-05
7.45634e-05
7.30522e-05
7.22592e-05
7.40863e-05
8.03078e-05
8.77122e-05
9.27588e-05
9.46052e-05
9.40835e-05
9.2547e-05
9.118e-05
9.05622e-05
9.05416e-05
9.05497e-05
9.00109e-05
8.85431e-05
8.59784e-05
8.22648e-05
7.74072e-05
7.19522e-05
6.7179e-05
6.32791e-05
6.0043e-05
5.73145e-05
5.49671e-05
5.29333e-05
5.12374e-05
5.0053e-05
4.95665e-05
4.93983e-05
0.000805075
0.000738721
0.000683459
0.000636828
0.000597002
0.000562641
0.000532748
0.000506539
0.000483402
0.000462854
0.000444511
0.000428057
0.000413233
0.000399824
0.00038766
0.000376607
0.000366591
0.000357512
0.000349241
0.000341612
0.000334484
0.000327766
0.00032141
0.000315431
0.000309917
0.000304954
0.000300377
0.000296171
0.000292339
0.000288879
0.000285764
0.000282944
0.000280521
0.0002796
0.000282602
0.000288743
0.000293649
0.000294989
0.000292982
0.000288609
0.000282671
0.000275603
0.000267586
0.000258701
0.000249006
0.000238604
0.000227695
0.000216618
0.000205774
0.000195475
0.000186132
0.000178765
0.00017379
0.000170945
0.000169425
0.000167961
0.000165504
0.00016119
0.000155137
0.00014766
0.000805092
0.000738741
0.000683454
0.000636792
0.000596936
0.000562541
0.000532622
0.000506415
0.000483292
0.000462746
0.000444386
0.000427912
0.000413072
0.000399647
0.000387466
0.000376387
0.000366297
0.000357048
0.000348533
0.00034066
0.000333365
0.000326598
0.000320316
0.000314475
0.000309026
0.000303974
0.000299348
0.000295095
0.000291118
0.00028734
0.000283773
0.000280448
0.000277346
0.000274398
0.000271554
0.000268886
0.000266514
0.000264531
0.000263026
0.000262204
0.000262142
0.000263099
0.000264853
0.00026576
0.000264375
0.000260386
0.000254351
0.000247311
0.000240427
0.00023456
0.000230042
0.000226669
0.000223944
0.000221398
0.000219003
0.00021655
0.000213742
0.00021068
0.000207317
0.000204897
0.000468117
0.000401996
0.000351208
0.00031122
0.000279063
0.000252725
0.000230777
0.000212214
0.000196332
0.0001826
0.000170626
0.000160107
0.000150804
0.000142514
0.00013506
0.000128302
0.000122129
0.00011651
0.000111389
0.000106707
0.000102411
9.84585e-05
9.48115e-05
9.14381e-05
8.83094e-05
8.54023e-05
8.2697e-05
8.01747e-05
7.78181e-05
7.56091e-05
7.35341e-05
7.15831e-05
6.97465e-05
6.80128e-05
6.63743e-05
6.48355e-05
6.34249e-05
6.22777e-05
6.20562e-05
6.52043e-05
7.47257e-05
8.65216e-05
9.45319e-05
9.74142e-05
9.64447e-05
9.31572e-05
8.86043e-05
8.33558e-05
7.76664e-05
7.16619e-05
6.55876e-05
5.99918e-05
5.56003e-05
5.2804e-05
5.10139e-05
4.97065e-05
4.8633e-05
4.76906e-05
4.68205e-05
4.61159e-05
0.000468013
0.000401363
0.000350162
0.000309795
0.00027728
0.000250602
0.000228364
0.000209588
0.000193548
0.000179696
0.000167617
0.000157002
0.000147608
0.000139239
0.000131741
0.000124988
0.000118878
0.000113326
0.000108261
0.000103625
9.93647e-05
9.54377e-05
9.18079e-05
8.84439e-05
8.53171e-05
8.24041e-05
7.96845e-05
7.714e-05
7.47561e-05
7.25175e-05
7.04121e-05
6.84292e-05
6.65591e-05
6.4794e-05
6.31273e-05
6.15535e-05
6.00666e-05
5.86638e-05
5.74056e-05
5.65784e-05
5.7142e-05
6.00664e-05
6.42569e-05
6.75651e-05
6.90225e-05
6.87613e-05
6.72563e-05
6.49547e-05
6.21901e-05
5.9207e-05
5.62286e-05
5.34641e-05
5.1056e-05
4.90121e-05
4.72578e-05
4.57481e-05
4.4422e-05
4.32465e-05
4.21905e-05
4.1297e-05
0.000468012
0.000401526
0.000350439
0.000310146
0.000277666
0.000250999
0.00022876
0.000209968
0.000193904
0.000180023
0.000167918
0.000157279
0.000147862
0.000139473
0.000131956
0.000125185
0.000119058
0.000113491
0.000108412
0.000103763
9.94922e-05
9.55564e-05
9.19197e-05
8.85501e-05
8.54197e-05
8.25039e-05
7.97822e-05
7.72372e-05
7.48525e-05
7.26125e-05
7.05034e-05
6.85149e-05
6.66383e-05
6.48657e-05
6.31913e-05
6.16115e-05
6.01199e-05
5.87087e-05
5.73693e-05
5.61112e-05
5.50355e-05
5.44483e-05
5.45625e-05
5.50899e-05
5.55453e-05
5.56365e-05
5.52883e-05
5.4534e-05
5.34374e-05
5.20682e-05
5.05099e-05
4.88569e-05
4.72011e-05
4.56265e-05
4.41932e-05
4.29195e-05
4.18309e-05
4.09455e-05
4.0273e-05
3.97536e-05
0.000468013
0.000401521
0.000350407
0.00031009
0.000277592
0.000250912
0.000228664
0.000209868
0.000193806
0.000179932
0.000167836
0.000157204
0.000147794
0.000139411
0.000131899
0.000125133
0.00011901
0.000113446
0.000108371
0.000103727
9.94619e-05
9.55328e-05
9.19038e-05
8.85437e-05
8.54239e-05
8.252e-05
7.98112e-05
7.72792e-05
7.49073e-05
7.26791e-05
7.05812e-05
6.86028e-05
6.67347e-05
6.4972e-05
6.33154e-05
6.17659e-05
6.03142e-05
5.8942e-05
5.76262e-05
5.63452e-05
5.51322e-05
5.40108e-05
5.30115e-05
5.21522e-05
5.1414e-05
5.07614e-05
5.01636e-05
4.95885e-05
4.899e-05
4.83202e-05
4.75504e-05
4.66814e-05
4.57356e-05
4.47496e-05
4.37737e-05
4.28872e-05
4.21455e-05
4.15732e-05
4.1188e-05
4.08992e-05
0.000468012
0.000401517
0.000350402
0.000310083
0.000277585
0.000250907
0.000228658
0.000209861
0.000193797
0.000179923
0.000167829
0.000157199
0.00014779
0.000139408
0.000131897
0.000125131
0.00011901
0.000113448
0.000108376
0.000103735
9.94734e-05
9.555e-05
9.19292e-05
8.85802e-05
8.54755e-05
8.25905e-05
7.99052e-05
7.74016e-05
7.50623e-05
7.28716e-05
7.08175e-05
6.88929e-05
6.71016e-05
6.54717e-05
6.40415e-05
6.28057e-05
6.17136e-05
6.06973e-05
5.96814e-05
5.85846e-05
5.73707e-05
5.61174e-05
5.49356e-05
5.38368e-05
5.28205e-05
5.18817e-05
5.09746e-05
5.0116e-05
4.93017e-05
4.85252e-05
4.77757e-05
4.70425e-05
4.63211e-05
4.5615e-05
4.49364e-05
4.43153e-05
4.38155e-05
4.34353e-05
4.31858e-05
4.29564e-05
0.000468012
0.000401523
0.000350444
0.000310159
0.000277687
0.000251026
0.000228787
0.000209991
0.000193921
0.000180037
0.000167932
0.000157292
0.000147874
0.000139482
0.000131962
0.000125188
0.000119057
0.000113487
0.000108407
0.00010376
9.94949e-05
9.55711e-05
9.19561e-05
8.86229e-05
8.55485e-05
8.27152e-05
8.0113e-05
7.77365e-05
7.55785e-05
7.36305e-05
7.18879e-05
7.03482e-05
6.90116e-05
6.78876e-05
6.69959e-05
6.63246e-05
6.57901e-05
6.5283e-05
6.4706e-05
6.39824e-05
6.30755e-05
6.20132e-05
6.0877e-05
5.9783e-05
5.87764e-05
5.78325e-05
5.68967e-05
5.58267e-05
5.47165e-05
5.36227e-05
5.2574e-05
5.15841e-05
5.06577e-05
4.9797e-05
4.90057e-05
4.82737e-05
4.7612e-05
4.70255e-05
4.65017e-05
4.59483e-05
0.000468012
0.000401344
0.000350148
0.000309788
0.000277282
0.000250615
0.000228383
0.000209604
0.000193559
0.000179706
0.000167632
0.000157021
0.000147628
0.00013926
0.000131762
0.000125007
0.000118896
0.000113344
0.000108282
0.000103652
9.94027e-05
9.54927e-05
9.18886e-05
8.85642e-05
8.54995e-05
8.26818e-05
8.01087e-05
7.77839e-05
7.5704e-05
7.3856e-05
7.22228e-05
7.07839e-05
6.9529e-05
6.85758e-05
6.82914e-05
6.87281e-05
6.93368e-05
6.96361e-05
6.94875e-05
6.89552e-05
6.81733e-05
6.72952e-05
6.64632e-05
6.57546e-05
6.51454e-05
6.45301e-05
6.38046e-05
6.29015e-05
6.15891e-05
6.02477e-05
5.89291e-05
5.76641e-05
5.64668e-05
5.53445e-05
5.42981e-05
5.33176e-05
5.23305e-05
5.12978e-05
5.01433e-05
4.88096e-05
0.000468116
0.000401973
0.000351203
0.000311229
0.000279061
0.000252667
0.000230641
0.000212019
0.000196109
0.000182377
0.000170402
0.000159862
0.00015052
0.000142186
0.000134698
0.000127926
0.000121762
0.000116163
0.00011106
0.000106393
0.000102112
9.8172e-05
9.45388e-05
9.1182e-05
8.80749e-05
8.51934e-05
8.2536e-05
8.01931e-05
7.81176e-05
7.62412e-05
7.45538e-05
7.31529e-05
7.23491e-05
7.37682e-05
7.94714e-05
8.68295e-05
9.21843e-05
9.43839e-05
9.40931e-05
9.26281e-05
9.12194e-05
9.05339e-05
9.04888e-05
9.05343e-05
9.00787e-05
8.87142e-05
8.6256e-05
8.26477e-05
7.78821e-05
7.24139e-05
6.75297e-05
6.35488e-05
6.02555e-05
5.74857e-05
5.51067e-05
5.30442e-05
5.13118e-05
5.00739e-05
4.95226e-05
4.9326e-05
0.000805075
0.000738724
0.000683488
0.000636861
0.000597039
0.000562679
0.000532767
0.000506549
0.00048342
0.000462882
0.000444538
0.000428074
0.000413233
0.00039981
0.000387638
0.000376591
0.00036658
0.000357496
0.000349221
0.000341582
0.000334442
0.000327711
0.00032134
0.000315338
0.000309776
0.000304715
0.000300233
0.000296107
0.000292318
0.000288874
0.000285765
0.000282949
0.000280498
0.000279366
0.000281939
0.000287947
0.00029315
0.00029491
0.00029325
0.000289115
0.000283333
0.000276371
0.000268434
0.000259607
0.000249954
0.000239573
0.000228662
0.000217559
0.000206665
0.000196308
0.000186876
0.000179367
0.00017426
0.000171313
0.00016974
0.000168283
0.000165884
0.000161659
0.000155706
0.000148332
)
;

boundaryField
{
    wall
    {
        type            nutkWallFunction;
        Cmu             0.09;
        kappa           0.41;
        E               9.8;
        value           nonuniform List<scalar> 
1200
(
5.15285e-05
4.82507e-05
4.82409e-05
4.82409e-05
4.82409e-05
4.82409e-05
4.82408e-05
4.82408e-05
4.82506e-05
5.1528e-05
4.76461e-05
4.20051e-05
4.19419e-05
4.19583e-05
4.19584e-05
4.19586e-05
4.19594e-05
4.19434e-05
4.2002e-05
4.76484e-05
4.43903e-05
3.71467e-05
3.70389e-05
3.70665e-05
3.70635e-05
3.70635e-05
3.70674e-05
3.70402e-05
3.71383e-05
4.43928e-05
4.16237e-05
3.32754e-05
3.31264e-05
3.31611e-05
3.31553e-05
3.31551e-05
3.3162e-05
3.31272e-05
3.32615e-05
4.16264e-05
3.9246e-05
3.01267e-05
2.99401e-05
2.99779e-05
2.99698e-05
2.99694e-05
2.99787e-05
2.99399e-05
3.01071e-05
3.92487e-05
3.71828e-05
2.75175e-05
2.72996e-05
2.73379e-05
2.73283e-05
2.73275e-05
2.73383e-05
2.72982e-05
2.7495e-05
3.71853e-05
3.53767e-05
2.53195e-05
2.50772e-05
2.51154e-05
2.51051e-05
2.5104e-05
2.5116e-05
2.50758e-05
2.52987e-05
3.53805e-05
3.37843e-05
2.34464e-05
2.31822e-05
2.32194e-05
2.3209e-05
2.32079e-05
2.32205e-05
2.31814e-05
2.34252e-05
3.37901e-05
3.23715e-05
2.18341e-05
2.15486e-05
2.15838e-05
2.15739e-05
2.1573e-05
2.15854e-05
2.15486e-05
2.18083e-05
3.23795e-05
3.11117e-05
2.04339e-05
2.01269e-05
2.01598e-05
2.01507e-05
2.01501e-05
2.01617e-05
2.01279e-05
2.04006e-05
3.11214e-05
2.99838e-05
1.92047e-05
1.88795e-05
1.89098e-05
1.89016e-05
1.89012e-05
1.89117e-05
1.8881e-05
1.91658e-05
2.99936e-05
2.89687e-05
1.81172e-05
1.77763e-05
1.78042e-05
1.77968e-05
1.77965e-05
1.7806e-05
1.77781e-05
1.80745e-05
2.89783e-05
2.80512e-05
1.71483e-05
1.67939e-05
1.68196e-05
1.68128e-05
1.68125e-05
1.68211e-05
1.67956e-05
1.7102e-05
2.80602e-05
2.72183e-05
1.6276e-05
1.59133e-05
1.59371e-05
1.59307e-05
1.59303e-05
1.59382e-05
1.59147e-05
1.6228e-05
2.7227e-05
2.64596e-05
1.54839e-05
1.51194e-05
1.51415e-05
1.51355e-05
1.5135e-05
1.51421e-05
1.51205e-05
1.54368e-05
2.64688e-05
2.57666e-05
1.47615e-05
1.43999e-05
1.44205e-05
1.44147e-05
1.44144e-05
1.44206e-05
1.4401e-05
1.4716e-05
2.5778e-05
2.5133e-05
1.41e-05
1.3745e-05
1.37641e-05
1.37587e-05
1.37586e-05
1.37638e-05
1.37462e-05
1.40562e-05
2.51499e-05
2.45517e-05
1.34939e-05
1.31468e-05
1.31644e-05
1.31595e-05
1.31596e-05
1.31639e-05
1.31483e-05
1.34529e-05
2.45791e-05
2.40158e-05
1.29388e-05
1.25985e-05
1.26148e-05
1.26103e-05
1.26108e-05
1.26142e-05
1.26006e-05
1.29015e-05
2.40577e-05
2.35188e-05
1.24303e-05
1.20942e-05
1.21093e-05
1.21054e-05
1.21062e-05
1.2109e-05
1.20972e-05
1.23954e-05
2.35755e-05
2.30567e-05
1.19622e-05
1.16289e-05
1.16429e-05
1.16396e-05
1.16409e-05
1.16433e-05
1.16332e-05
1.19291e-05
2.3124e-05
2.2627e-05
1.15299e-05
1.11982e-05
1.12113e-05
1.12087e-05
1.12106e-05
1.1213e-05
1.12044e-05
1.14983e-05
2.26976e-05
2.22265e-05
1.11294e-05
1.07982e-05
1.08107e-05
1.0809e-05
1.08119e-05
1.08149e-05
1.08074e-05
1.10993e-05
2.22934e-05
2.18518e-05
1.07574e-05
1.0426e-05
1.0438e-05
1.04374e-05
1.04415e-05
1.04463e-05
1.04399e-05
1.07293e-05
2.19126e-05
2.15032e-05
1.04113e-05
1.00788e-05
1.00904e-05
1.0091e-05
1.00968e-05
1.01051e-05
1.00998e-05
1.03855e-05
2.15612e-05
2.11815e-05
1.00888e-05
9.75452e-06
9.76564e-06
9.76741e-06
9.77536e-06
9.78959e-06
9.78606e-06
1.00683e-05
2.12445e-05
2.08858e-05
9.78771e-06
9.45081e-06
9.46135e-06
9.46442e-06
9.47502e-06
9.49883e-06
9.4988e-06
9.77479e-06
2.09519e-05
2.06114e-05
9.50591e-06
9.16549e-06
9.17559e-06
9.18012e-06
9.19398e-06
9.23249e-06
9.23867e-06
9.51372e-06
2.06826e-05
2.03545e-05
9.24136e-06
8.89688e-06
8.90673e-06
8.9128e-06
8.93048e-06
8.99002e-06
9.00555e-06
9.2817e-06
2.04369e-05
2.01132e-05
8.99258e-06
8.64363e-06
8.65328e-06
8.66086e-06
8.68291e-06
8.77064e-06
8.79819e-06
9.07198e-06
2.02148e-05
1.98872e-05
8.75833e-06
8.4046e-06
8.41395e-06
8.42289e-06
8.45006e-06
8.57403e-06
8.61473e-06
8.88017e-06
2.00144e-05
1.96761e-05
8.53749e-06
8.17877e-06
8.18761e-06
8.19774e-06
8.23126e-06
8.40007e-06
8.45282e-06
8.71578e-06
1.98327e-05
1.94774e-05
8.32891e-06
7.96518e-06
7.97334e-06
7.98449e-06
8.02719e-06
8.24896e-06
8.31161e-06
8.64768e-06
1.96806e-05
1.9287e-05
8.13145e-06
7.76299e-06
7.77045e-06
7.78267e-06
7.84133e-06
8.12194e-06
8.20684e-06
8.91468e-06
1.96436e-05
1.91034e-05
7.94458e-06
7.57152e-06
7.57836e-06
7.59251e-06
7.67803e-06
8.02127e-06
8.18162e-06
9.65156e-06
1.98702e-05
1.89333e-05
7.76964e-06
7.39023e-06
7.39662e-06
7.41414e-06
7.53653e-06
7.94522e-06
8.23549e-06
1.04513e-05
2.02656e-05
1.87854e-05
7.61304e-06
7.2186e-06
7.22451e-06
7.24652e-06
7.4109e-06
7.88401e-06
8.30253e-06
1.09588e-05
2.0551e-05
1.86666e-05
7.5059e-06
7.05804e-06
7.06113e-06
7.08754e-06
7.29327e-06
7.82516e-06
8.33155e-06
1.11187e-05
2.06033e-05
1.85838e-05
7.58444e-06
6.92303e-06
6.90589e-06
6.93451e-06
7.17482e-06
7.75758e-06
8.31036e-06
1.10378e-05
2.04488e-05
1.85445e-05
8.19731e-06
6.8714e-06
6.76269e-06
6.78542e-06
7.04634e-06
7.67262e-06
8.24724e-06
1.08655e-05
2.01506e-05
1.85501e-05
9.43607e-06
7.0323e-06
6.65185e-06
6.64444e-06
6.90469e-06
7.56628e-06
8.15702e-06
1.07234e-05
1.97572e-05
1.86288e-05
1.06333e-05
7.44223e-06
6.61103e-06
6.51542e-06
6.75959e-06
7.44202e-06
8.0567e-06
1.06639e-05
1.92933e-05
1.87277e-05
1.13025e-05
7.89921e-06
6.64437e-06
6.40248e-06
6.62168e-06
7.31058e-06
7.96198e-06
1.06629e-05
1.87688e-05
1.87326e-05
1.14414e-05
8.19548e-06
6.70265e-06
6.30601e-06
6.4934e-06
7.184e-06
7.88121e-06
1.06569e-05
1.81877e-05
1.85761e-05
1.12205e-05
8.27887e-06
6.73557e-06
6.22125e-06
6.37486e-06
7.067e-06
7.81113e-06
1.05849e-05
1.75532e-05
1.82627e-05
1.07939e-05
8.18832e-06
6.72124e-06
6.14357e-06
6.26455e-06
6.95701e-06
7.73921e-06
1.04082e-05
1.68713e-05
1.784e-05
1.02568e-05
7.97903e-06
6.65826e-06
6.06996e-06
6.15783e-06
6.84727e-06
7.65249e-06
1.01094e-05
1.61547e-05
1.73775e-05
9.65746e-06
7.69619e-06
6.55304e-06
5.99725e-06
6.05672e-06
6.72225e-06
7.54083e-06
9.68199e-06
1.54255e-05
1.69443e-05
9.01622e-06
7.37225e-06
6.41323e-06
5.92077e-06
5.96067e-06
6.59322e-06
7.39031e-06
9.12729e-06
1.47094e-05
1.65856e-05
8.34517e-06
7.03131e-06
6.24635e-06
5.83575e-06
5.86868e-06
6.46584e-06
7.2359e-06
8.51686e-06
1.40265e-05
1.63129e-05
7.67448e-06
6.69612e-06
6.0611e-06
5.73955e-06
5.77934e-06
6.34347e-06
7.08265e-06
7.9883e-06
1.3408e-05
1.6107e-05
7.0712e-06
6.38794e-06
5.86716e-06
5.63248e-06
5.69153e-06
6.22655e-06
6.93434e-06
7.5515e-06
1.29229e-05
1.59342e-05
6.61774e-06
6.12009e-06
5.67421e-06
5.51717e-06
5.60495e-06
6.11663e-06
6.79306e-06
7.18559e-06
1.25969e-05
1.57725e-05
6.3343e-06
5.89003e-06
5.49191e-06
5.39818e-06
5.52037e-06
6.01471e-06
6.66014e-06
6.87453e-06
1.24119e-05
1.56205e-05
6.14351e-06
5.69134e-06
5.32538e-06
5.28272e-06
5.43951e-06
5.92139e-06
6.53576e-06
6.60517e-06
1.23125e-05
1.54593e-05
5.99871e-06
5.51885e-06
5.17776e-06
5.18059e-06
5.36786e-06
5.83439e-06
6.4176e-06
6.37114e-06
1.22118e-05
1.52711e-05
5.87661e-06
5.36584e-06
5.05256e-06
5.09752e-06
5.31164e-06
5.75773e-06
6.29608e-06
6.17742e-06
1.20391e-05
1.50665e-05
5.76792e-06
5.22924e-06
4.95201e-06
5.03558e-06
5.27001e-06
5.68901e-06
6.16761e-06
6.04605e-06
1.17371e-05
1.4847e-05
5.66753e-06
5.10623e-06
4.87684e-06
4.99577e-06
5.24322e-06
5.62548e-06
6.02036e-06
5.99796e-06
1.13139e-05
1.46962e-05
5.58783e-06
5.00276e-06
4.81818e-06
4.96427e-06
5.21491e-06
5.55394e-06
5.84832e-06
5.98098e-06
1.07908e-05
5.1529e-05
4.82507e-05
4.82409e-05
4.82409e-05
4.82408e-05
4.82408e-05
4.82408e-05
4.82409e-05
4.82506e-05
5.15281e-05
4.76495e-05
4.20051e-05
4.19448e-05
4.19603e-05
4.19599e-05
4.19595e-05
4.19602e-05
4.19431e-05
4.20029e-05
4.76487e-05
4.43924e-05
3.71427e-05
3.70418e-05
3.70684e-05
3.70655e-05
3.7065e-05
3.70691e-05
3.70405e-05
3.71421e-05
4.43945e-05
4.16244e-05
3.32673e-05
3.31283e-05
3.31626e-05
3.31571e-05
3.31565e-05
3.31638e-05
3.31276e-05
3.3268e-05
4.16284e-05
3.92449e-05
3.01161e-05
2.99405e-05
2.99786e-05
2.99713e-05
2.99705e-05
2.99805e-05
2.99406e-05
3.01158e-05
3.9251e-05
3.71793e-05
2.75089e-05
2.72978e-05
2.73373e-05
2.73287e-05
2.73281e-05
2.734e-05
2.72991e-05
2.75031e-05
3.71876e-05
3.53729e-05
2.5316e-05
2.50739e-05
2.51136e-05
2.5104e-05
2.51034e-05
2.51164e-05
2.50758e-05
2.53024e-05
3.53816e-05
3.37826e-05
2.34453e-05
2.31795e-05
2.3218e-05
2.32079e-05
2.32072e-05
2.32203e-05
2.31811e-05
2.34255e-05
3.37907e-05
3.23729e-05
2.18319e-05
2.15478e-05
2.15841e-05
2.15741e-05
2.15732e-05
2.15859e-05
2.15489e-05
2.1809e-05
3.23806e-05
3.11147e-05
2.04261e-05
2.01277e-05
2.01614e-05
2.0152e-05
2.01511e-05
2.01628e-05
2.01287e-05
2.04031e-05
3.11231e-05
2.99859e-05
1.91916e-05
1.88803e-05
1.89116e-05
1.8903e-05
1.89023e-05
1.8913e-05
1.88819e-05
1.91684e-05
2.99954e-05
2.89694e-05
1.81e-05
1.77766e-05
1.78055e-05
1.77978e-05
1.77972e-05
1.78069e-05
1.77786e-05
1.80742e-05
2.89793e-05
2.80503e-05
1.71283e-05
1.67934e-05
1.68201e-05
1.6813e-05
1.68126e-05
1.68213e-05
1.67956e-05
1.70983e-05
2.80602e-05
2.72161e-05
1.62572e-05
1.59121e-05
1.59368e-05
1.59303e-05
1.593e-05
1.59378e-05
1.59144e-05
1.62224e-05
2.72262e-05
2.64568e-05
1.54696e-05
1.51179e-05
1.51407e-05
1.51347e-05
1.51344e-05
1.51414e-05
1.51201e-05
1.54308e-05
2.64675e-05
2.57643e-05
1.47515e-05
1.43985e-05
1.44196e-05
1.4414e-05
1.44138e-05
1.44199e-05
1.44006e-05
1.47108e-05
2.57769e-05
2.51316e-05
1.40921e-05
1.37441e-05
1.37635e-05
1.37583e-05
1.37583e-05
1.37634e-05
1.3746e-05
1.40523e-05
2.51492e-05
2.45502e-05
1.3489e-05
1.31464e-05
1.31642e-05
1.31593e-05
1.31596e-05
1.31638e-05
1.31483e-05
1.34512e-05
2.4578e-05
2.40136e-05
1.29367e-05
1.25985e-05
1.26148e-05
1.26104e-05
1.26109e-05
1.26143e-05
1.26007e-05
1.29006e-05
2.40563e-05
2.35163e-05
1.24293e-05
1.20945e-05
1.21095e-05
1.21056e-05
1.21064e-05
1.21092e-05
1.20975e-05
1.23948e-05
2.35736e-05
2.30543e-05
1.19617e-05
1.16293e-05
1.16432e-05
1.16399e-05
1.16412e-05
1.16436e-05
1.16335e-05
1.19287e-05
2.31213e-05
2.2625e-05
1.15296e-05
1.11985e-05
1.12116e-05
1.1209e-05
1.1211e-05
1.12134e-05
1.12048e-05
1.14979e-05
2.2694e-05
2.22257e-05
1.11293e-05
1.07987e-05
1.08111e-05
1.08094e-05
1.08123e-05
1.08154e-05
1.0808e-05
1.1099e-05
2.22888e-05
2.18535e-05
1.07575e-05
1.04266e-05
1.04384e-05
1.04378e-05
1.0442e-05
1.04471e-05
1.04407e-05
1.0729e-05
2.19066e-05
2.15057e-05
1.04113e-05
1.00794e-05
1.00909e-05
1.00915e-05
1.00974e-05
1.01062e-05
1.0101e-05
1.03853e-05
2.15521e-05
2.11833e-05
1.00885e-05
9.75467e-06
9.76589e-06
9.76783e-06
9.77606e-06
9.7912e-06
9.78815e-06
1.00654e-05
2.12292e-05
2.08877e-05
9.78701e-06
9.45033e-06
9.46142e-06
9.46482e-06
9.47583e-06
9.5012e-06
9.50222e-06
9.76991e-06
2.09427e-05
2.06155e-05
9.50504e-06
9.16464e-06
9.17568e-06
9.18057e-06
9.19492e-06
9.23594e-06
9.2441e-06
9.509e-06
2.06785e-05
2.03606e-05
9.24073e-06
8.89599e-06
8.90696e-06
8.91332e-06
8.93155e-06
8.99486e-06
9.01365e-06
9.27737e-06
2.04356e-05
2.01181e-05
8.99217e-06
8.64287e-06
8.65366e-06
8.66139e-06
8.68411e-06
8.77719e-06
8.80941e-06
9.06796e-06
2.02145e-05
1.98891e-05
8.75794e-06
8.404e-06
8.4144e-06
8.42338e-06
8.45142e-06
8.58259e-06
8.62927e-06
8.88057e-06
2.00146e-05
1.96754e-05
8.53703e-06
8.17828e-06
8.1881e-06
8.19818e-06
8.2329e-06
8.41098e-06
8.47065e-06
8.72835e-06
1.98331e-05
1.94756e-05
8.3284e-06
7.96474e-06
7.97382e-06
7.98487e-06
8.02951e-06
8.26263e-06
8.33288e-06
8.65535e-06
1.96783e-05
1.9285e-05
8.13092e-06
7.76257e-06
7.77077e-06
7.78307e-06
7.84516e-06
8.13888e-06
8.23303e-06
8.8709e-06
1.96254e-05
1.91015e-05
7.94392e-06
7.57111e-06
7.57846e-06
7.59307e-06
7.684e-06
8.04169e-06
8.21266e-06
9.55487e-06
1.9825e-05
1.89304e-05
7.7684e-06
7.38981e-06
7.3965e-06
7.41492e-06
7.54443e-06
7.96817e-06
8.26717e-06
1.03567e-05
2.02161e-05
1.878e-05
7.6094e-06
7.21811e-06
7.22422e-06
7.2474e-06
7.41986e-06
7.90768e-06
8.33158e-06
1.09008e-05
2.05228e-05
1.86569e-05
7.49119e-06
7.05665e-06
7.06073e-06
7.08825e-06
7.30203e-06
7.84767e-06
8.35693e-06
1.10983e-05
2.06018e-05
1.85675e-05
7.52347e-06
6.91666e-06
6.90534e-06
6.93458e-06
7.18172e-06
7.77708e-06
8.33176e-06
1.10403e-05
2.04686e-05
1.85222e-05
8.02447e-06
6.84493e-06
6.76073e-06
6.78541e-06
7.0495e-06
7.68749e-06
8.26459e-06
1.08738e-05
2.01848e-05
1.85232e-05
9.19503e-06
6.96268e-06
6.64343e-06
6.64453e-06
6.90462e-06
7.57557e-06
8.17066e-06
1.07265e-05
1.98009e-05
1.85944e-05
1.04474e-05
7.34065e-06
6.59014e-06
6.51536e-06
6.75877e-06
7.44585e-06
8.06725e-06
1.06602e-05
1.93437e-05
1.86995e-05
1.12121e-05
7.80951e-06
6.61434e-06
6.40085e-06
6.62152e-06
7.31078e-06
7.97031e-06
1.06576e-05
1.88241e-05
1.87278e-05
1.14297e-05
8.14304e-06
6.67399e-06
6.30212e-06
6.49379e-06
7.18259e-06
7.88785e-06
1.06565e-05
1.82468e-05
1.86006e-05
1.12596e-05
8.26369e-06
6.71599e-06
6.21598e-06
6.37495e-06
7.06519e-06
7.81626e-06
1.05941e-05
1.7615e-05
1.83113e-05
1.0862e-05
8.20044e-06
6.71291e-06
6.13831e-06
6.26437e-06
6.95483e-06
7.74313e-06
1.04288e-05
1.69345e-05
1.79021e-05
1.034e-05
8.008e-06
6.65995e-06
6.06589e-06
6.15785e-06
6.84422e-06
7.65651e-06
1.01417e-05
1.6218e-05
1.74411e-05
9.7477e-06
7.73385e-06
6.56237e-06
5.99521e-06
6.05658e-06
6.71843e-06
7.54742e-06
9.7258e-06
1.54872e-05
1.70004e-05
9.10828e-06
7.41266e-06
6.42765e-06
5.92122e-06
5.96022e-06
6.5892e-06
7.39489e-06
9.18079e-06
1.47682e-05
1.66301e-05
8.43414e-06
7.07004e-06
6.26353e-06
5.83871e-06
5.86802e-06
6.46186e-06
7.23902e-06
8.56758e-06
1.40818e-05
1.63466e-05
7.75383e-06
6.72997e-06
6.07905e-06
5.74465e-06
5.77871e-06
6.33954e-06
7.08511e-06
8.02703e-06
1.3457e-05
1.61334e-05
7.13238e-06
6.41511e-06
5.88447e-06
5.63922e-06
5.69111e-06
6.22387e-06
6.93687e-06
7.58162e-06
1.29627e-05
1.59576e-05
6.65364e-06
6.14048e-06
5.68994e-06
5.52505e-06
5.60479e-06
6.11544e-06
6.79613e-06
7.20954e-06
1.2628e-05
1.5793e-05
6.35079e-06
5.90533e-06
5.50526e-06
5.40658e-06
5.52036e-06
6.01454e-06
6.66394e-06
6.89397e-06
1.24364e-05
1.56382e-05
6.15118e-06
5.70242e-06
5.33654e-06
5.29046e-06
5.43938e-06
5.92163e-06
6.54039e-06
6.62108e-06
1.23337e-05
1.54765e-05
6.00213e-06
5.52665e-06
5.18655e-06
5.18636e-06
5.36653e-06
5.83506e-06
6.42364e-06
6.38372e-06
1.22337e-05
1.52893e-05
5.87782e-06
5.37117e-06
5.05872e-06
5.10049e-06
5.30866e-06
5.75756e-06
6.30468e-06
6.18556e-06
1.20652e-05
1.50853e-05
5.76773e-06
5.2326e-06
4.95532e-06
5.03538e-06
5.26527e-06
5.68843e-06
6.17933e-06
6.04764e-06
1.17695e-05
1.4864e-05
5.66598e-06
5.10779e-06
4.87736e-06
4.99255e-06
5.23703e-06
5.62547e-06
6.037e-06
5.99193e-06
1.13535e-05
1.47086e-05
5.58436e-06
5.00237e-06
4.81678e-06
4.95957e-06
5.20909e-06
5.55654e-06
5.87123e-06
5.97213e-06
1.08378e-05
)
;
    }
    inlet
    {
        type            calculated;
        value           uniform 0.0381026;
    }
    outlet
    {
        type            calculated;
        value           nonuniform List<scalar> 
20
(
0.000204688
4.61414e-05
4.12965e-05
3.97636e-05
4.09373e-05
4.30083e-05
4.59356e-05
4.86301e-05
4.93983e-05
0.00014766
0.000204897
4.61159e-05
4.1297e-05
3.97536e-05
4.08992e-05
4.29564e-05
4.59483e-05
4.88096e-05
4.9326e-05
0.000148332
)
;
    }
    heatWall
    {
        type            nutkWallFunction;
        Cmu             0.09;