/*--------------------------------*- C++ -*----------------------------------*\
  =========                 |
  \\      /  F ield         | OpenFOAM: The Open Source CFD Toolbox
   \\    /   O peration     | Website:  https://openfoam.org
    \\  /    A nd           | Version:  8
     \\/     M anipulation  |
\*---------------------------------------------------------------------------*/
FoamFile
{
    version     2.0;
    format      ascii;
    class       volScalarField;
    location    "800";
    object      p;
}
// * * * * * * * * * * * * * * * * * * * * * * * * * * * * * * * * * * * * * //

dimensions      [1 -1 -2 0 0 0 0];

internalField   nonuniform List<scalar> 
1200
(
97247
94158.4
92687.4
92165.8
91801.7
91466.1
91219.7
91187.9
91328.2
91283.1
90964.1
90624.4
90359.5
90083.5
89751.2
89398.3
89091.4
88904.8
88908.3
88977.9
88907.4
88767.1
88644.3
88380.9
87662
86522.2
85457.2
84669.3
84240.1
83850.6
83275.6
82506.4
81560.6
80431.7
79050.8
77314.9
75217.9
73039
70924.9
68883
66432.8
63017.9
57771.3
50848.9
43289.4
35758.1
28388.7
21061.5
14111.5
8107.05
3219.38
-571.622
-3434.12
-5536.11
-7011.55
-7758.96
-7874.01
-6232.67
-5341.95
1544.25
89972.5
90431.7
90545
90687.1
90738.5
90658.3
90497.3
90549.2
90795.6
90837.3
90561.7
90274.1
90047.5
89775.3
89444
89088.1
88772
88571.8
88566.4
88640.1
88582.3
88454.8
88354.6
88129.1
87464.4
86336.3
85259.2
84485.5
84100.1
83770.9
83241.5
82501.6
81586.4
80494.5
79152.2
77436.6
75357.8
73223.7
71247.9
69537.9
67246.3
63397.6
57835.2
51081.6
43779.8
36365.6
28972.7
21570.9
14578.9
8584.77
3748.08
-5.28522
-2869.49
-4999.74
-6558.41
-7426.54
-7640.53
-6128.88
-5280.64
1355.23
90944.9
92059.2
92213.2
91965.1
91654.1
91319
91064.2
90973.5
91049.1
90989
90699
90341.4
90053.9
89764.9
89410
89011.3
88633.3
88367.7
88315.4
88371.4
88320.5
88209.8
88133.8
87941.1
87296.7
86164.2
85040.6
84248.4
83846.3
83499.5
82966.2
82227.7
81317.1
80233.3
78897.5
77124.6
74927.4
72666.1
70518
68602.9
66407.9
62920.8
57260.6
50043.4
42252.4
34429.5
26694.3
19022.6
11937.1
6108.44
1672.04
-1576.97
-3830.02
-5826.01
-7290.07
-8170.12
-8385.33
-7078
-5985.62
-273.553
90746
91193.5
91078.8
90800.6
90605.7
90418.9
90193.4
90157
90354.4
90425.8
90206.6
89906.2
89660.2
89392
89053.4
88661.4
88276.1
87992.6
87925
87980.5
87942.1
87842.1
87776.8
87615.2
87024.7
85937.5
84816
84028.4
83624.9
83275.2
82750.7
82036.8
81180.8
80179.3
78906.2
77082.5
74765.3
72375.5
70129.9
68072.7
65695.5
62279
57141
50581.3
43169.4
35441
27623.9
19828.9
12733.3
6998.84
2622.71
-739.084
-3379.44
-5635.88
-7484.1
-8606.25
-8878.69
-7711.69
-6358.07
-995.524
90598
90987.7
91084.3
90958.5
90817.9
90657.4
90405.9
90288.5
90377.3
90387.3
90167.3
89862.7
89592.1
89300.4
88941
88513.8
88066.3
87707
87577.6
87602.4
87561.9
87466.2
87406.3
87271.2
86747.9
85740.6
84644.8
83851.5
83412.4
83020.2
82479.5
81782.8
80973.3
80078.7
78933.1
77052.2
74535.6
71920.2
69395.1
67147.8
64678.2
61384.4
56507.4
50166.9
42724.1
34709.4
26465.5
18191.2
10764.6
5002.59
871.268
-2066.49
-4270.14
-6150.17
-7463.94
-8425.96
-8606.87
-7669.24
-6112.08
-2105.31
90387.1
90758.5
90876
90763.6
90638.8
90499.8
90248
90103
90157.8
90168.4
89978
89684.6
89399.6
89088.4
88703.8
88234
87717.5
87276.4
87080.2
87070.3
87020.6
86922.4
86864.1
86761.6
86337.1
85483.8
84495.7
83758.5
83313.2
82877.4
82299.6
81575.3
80740.1
79866.1
78807.6
76850.1
74152.7
71394.5
68857.3
66455.4
63947.5
60738
56093.5
50063.4
42863.3
34932
26542.2
18040.5
10619.2
5054.31
1173.5
-1673.95
-3942.39
-5965.67
-7497.33
-8600.35
-8827.16
-8040.39
-6093.47
-3039.85
90110.3
90485.7
90426.7
90177.7
90008.1
89890.1
89656.5
89531.5
89627.7
89707.6
89596.2
89354.3
89088.9
88791.7
88422.8
87963
87442.7
86988.9
86787.7
86788.1
86757.4
86667.8
86600.6
86487.6
86105.7
85367.2
84455.7
83752.2
83283.2
82794.4
82160.5
81396.4
80582.4
79796.6
78958.7
77018.8
74141.9
71239.2
68665.1
66353.9
63912.9
60736.7
56236.9
50351.8
43248.7
35138.9
26260.1
17033.5
9260.44
3862.65
465.8
-1696.14
-3424.68
-5101.59
-6403.73
-7154
-7038.2
-6297.39
-4183.15
-2871.69
89912.5
90899.5
91078.3
90884.8
90672.6
90476.4
90171.8
89935.4
89870.6
89823
89650.8
89376.7
89071
88731.4
88317.2
87800.6
87207.1
86683.2
86442.8
86446.7
86447
86406.5
86399.9
86365.5
86105.6
85539.3
84745.8
84118.8
83648.8
83111.4
82430.4
81555.7
80585
79719.7
79008.3
76892.2
73620.2
70445.8
67790.8
65516.8
63166.5
60161.3
55857.6
50128.4
43071
34788.5
25415.5
14742.2
6288.6
1277.41
-1286.03
-2873.11
-4191.97
-5574.72
-6662.88
-7392.03
-7263.68
-6523.63
-3655.37
-2850.7
88482.9
88884.9
89106.7
89252.6
89339.6
89392.3
89245.1
89133.2
89191.8
89259.7
89188.3
88986.6
88721.5
88414.8
88040.1
87572.7
87042
86594.5
86444.2
86543
86626
86651.3
86693.1
86688.8
86454.8
85920.3
85055.3
84387.7
83873.6
83279.2
82543.2
81804
81228.6
80984.6
80809.3
78437.5
74645.4
71330.4
68778.6
66526.5
64037
60909.5
56595.8
50936.8
43907.3
35516.1
25987.4
15681.6
6738.12
1779.84
-424.378
-1694.11
-2752.8
-3957.16
-4972.39
-5873.1
-5818.8
-5665.8
-3397.25
-2964.2
95451.4
92092.1
90771.8
90322
90053.7
89870.8
89590.2
89378.5
89333.4
89316.4
89193.5
88961.9
88674.7
88355.1
87975.1
87508.4
86980.4
86551.2
86433.8
86575.7
86699
86761.1
86832.9
86844.5
86615.1
86074.3
85159
84383.4
83740.9
83026.8
82201.7
81349.6
80633.2
80404.3
80620.1
78055.8
73664.5
69859.4
67045.6
64774.6
62415.5
59427.8
55184.7
49552
42556.9
34227.7
24850.1
14737.3
6219.6
1038.21
-1634.49
-3006.42
-4072.46
-5271.03
-6245.6
-7062.89
-6881.81
-6545.3
-3891.71
-3419.27
97291
93859.4
92535.6
92143.2
91928.8
91827.4
91680.6
91356.1
90972.4
90772.2
90746
90709.9
90587.1
90434.5
90274.8
90082.9
89845.6
89577.5
89232.3
88839.8
88513.9
88146.9
87660.5
87053.5
86466.1
86006.2
85496.7
84816.9
83975.1
83235.2
82583.4
81860
81002.7
79990.3
78747.3
77143
75265.4
73267
71184.5
68995.3
66230.2
62382.8
56875.5
49967.5
42530
35035.8
27595.6
20258
13362.9
7351.8
2499.75
-1142.51
-3747.44
-5499.16
-6722.36
-7228.78
-7237.62
-5599.75
-4577.46
1624.62
89985.5
90272
90467.6
90689.3
90843.1
90947.4
90892.1
90716.4
90481.9
90366.5
90356.8
90352.2
90260.5
90121.2
89991.4
89855.1
89688.5
89484.9
89177.5
88790.3
88449.7
88052.8
87523.1
86866.7
86243.3
85776.3
85254.8
84579.9
83760.3
83055.7
82428.9
81701.8
80828.3
79806.7
78554.4
76928.9
75031.5
73044.4
71043.4
69071.2
66302.6
61880
55978
49194.3
41962.6
34536.9
27056.6
19657
12737
6745.87
1954.94
-1623.11
-4187.69
-5937.56
-7213.55
-7801.04
-7869.74
-6306.07
-5263.72
746.525
90976
91857
92040.4
91896.7
91719.6
91603.7
91559.5
91277.2
90814.1
90522.5
90463.6
90399.3
90261.6
90125.3
89991.9
89830.1
89618.4
89363.6
89014
88600
88248.5
87855.5
87342.2
86707.7
86084.4
85585.3
85040.1
84362.2
83559.1
82865.3
82241.9
81514.3
80644.5
79641.8
78406.2
76745.6
74754.5
72673.2
70558.6
68511.7
66034.6
62163.6
56265.1
49014.8
41237.6
33353.6
25520.1
17869.9
10867.5
5018.31
566.899
-2617.9
-4704.18
-6409.11
-7659.28
-8294.46
-8394.5
-7001.03
-5784.29
-439.493
90794
91099.9
91030.5
90827.6
90695.3
90627.1
90564.9
90392.5
90148.2
90024.6
90002.7
89968.3
89861.9
89742
89632.5
89510.4
89353.2
89149.7
88831.8
88425.6
88069.1
87667.3
87147.9
86508.6
85864
85325.3
84759.4
84107.3
83355.3
82692.3
82076.7
81358.4
80526.1
79591.8
78396.4
76659.4
74515
72278.4
70046.3
67862.8
65236.6
61463
56078.6
49416.5
41915.1
34022.8
26047.5
18249.9
11219.6
5454.02
1086.46
-2142.6
-4520.8
-6402.43
-7969.46
-8828.45
-9023.69
-7784.81
-6409.24
-1311.12
90671
90960.2
91052.2
90968.3
90865.6
90798.4
90780.3
90614.6
90287.7
90056.7
89962.5
89903.6
89797.8
89690.5
89597.1
89488.4
89339.2
89134.2
88804.8
88379.9
88008.5
87596.6
87069.8
86417
85738.4
85157.2
84561.8
83908.3
83169.4
82512.7
81892.3
81178.5
80391.3
79572.2
78506
76712.3
74358.7
71891.1
69378
67028.2
64356.6
60770.2
55723.7
49357.2
41843.2
33650.9
25222.9
16950.8
9611.79
3812.99
-347.006
-3228.45
-5260.03
-6870.11
-8022.55
-8782.6
-8931.46
-7845.15
-6344.8
-2184.09
90484.4
90801.9
90893
90816.8
90715.7
90621.3
90611.5
90472.7
90159.9
89916.4
89795.1
89717.3
89613
89510.6
89414.9
89299.6
89143.7
88927.7
88581.5
88138.4
87757
87349
86843.7
86226.8
85573.5
85004
84413.8
83776.5
83057.1
82405.3
81781.1
81046.8
80238.8
79447
78468.1
76590.2
74035.2
71403.3
68849.6
66292.1
63528.7
59999.5
55189.8
49097.7
41823.3
33752.7
25238.2
16697.5
9288
3644.34
-253.904
-2990.88
-5016.43
-6699.71
-8025.25
-8919.72
-9181.08
-8271.88
-6613.71
-3132.76
90225.3
90570.7
90436.4
90199.1
90029.7
89910.8
89904
89831.6
89637.6
89488.2
89414.6
89363.7
89294.6
89227.7
89170.2
89106.9
89019.6
88871.5
88574.7
88153.9
87781.4
87370.1
86848.6
86199.2
85492.6
84860.6
84200.2
83528.4
82820.5
82199.2
81615.5
80931.4
80208.9
79529.6
78782.5
76945.2
74232.8
71481.5
68917.5
66469.9
63739.6
60145.2
55407.8
49460.7
42312.7
34117.4
25147.6
15882.6
8087.37
2549.67
-921.532
-3041.34
-4600.46
-5993.81
-7149.91
-7736.61
-7688.12
-6716.7
-4921.92
-2686.26
90062.9
91131.5
91242.8
91056.4
90815.4
90553.2
90488.1
90349.3
90012.9
89703
89507.6
89387.8
89288.3
89193.9
89094.9
88971.5
88802.3
88557.2
88168
87678.7
87271.8
86863.8
86382.9
85812.4
85199.2
84653.1
84050.8
83426.8
82748.5
82127.5
81539.6
80805.2
79951.1
79227.3
78724
76847.6
73821.8
70842.2
68232.3
65855
63227.1
59760.4
55152.3
49301.4
42163.8
33797.5
24343.1
13652.7
5149.07
-13.2295
-2647.38
-4158.91
-5258.33
-6329.54
-7279.84
-7874.78
-7931.21
-7066.09
-4850.65
-2784.35
88571.1
88995.4
89150.9
89326.5
89399
89386.2
89460.9
89459.2
89303.7
89146.7
89046.5
88983.1
88929.5
88875.2
88823.3
88769.2
88699.8
88562.5
88260
87815.9
87420.4
86993.1
86465.1
85829.6
85142
84528.3
83819.8
83121.8
82437.6
81835.8
81255
80602.3
80091.6
79936.8
79858.4
77615.2
73990.5
70823.8
68282.5
65898.1
63134.8
59591.6
55091.5
49456.5
42494.1
34152.4
24614.4
14244.8
5262.39
127.867
-2158.82
-3367.14
-4228.64
-5103.61
-5931.8
-6587.81
-6648.1
-6183.05
-4586.89
-2788.54
95658.6
92306.5
90862.3
90432.8
90127.1
89840.4
89773.7
89664.4
89395.4
89141.9
88974.5
88868.9
88786.6
88696.1
88586.2
88447
88259.9
87992.6
87578
87070.1
86659
86256.8
85795.3
85266.9
84718.5
84228.4
83633.9
83000.9
82325.3
81673.9
81047.9
80413.5
79942.7
79848.4
79931
77210.6
72931.4
69429.5
66830.8
64606.6
62118
58814.2
54434.4
48801.7
41787.7
33408.1
23951.2
13810.5
5284.2
40.8038
-2653.02
-3963.76
-4853.9
-5781.79
-6688.18
-7412.79
-7505.84
-6902.97
-4968.84
-2697.15
)
;

boundaryField
{
    wall
    {
        type            calculated;
        value           nonuniform List<scalar> 
1200
(
97223.8
89965.6
90928.8
90721.6
90561.1
90338.1
90052.5
89837.1
88438.8
95347.8
94309.7
90512.6
92161.3
91240.9
91001.5
90736.6
90442.7
90782.5
88829
91983.8
92764.6
90584.5
92300.5
91103.2
91100.4
90867.4
90421.6
90995.4
89084.3
90726.2
92178.4
90686.9
92000.5
90787.4
90953.8
90736.8
90166.7
90797.9
89215
90265.7
91739.4
90687
91622.6
90561.5
90794.6
90600.6
89997.4
90600.3
89309.3
90016
91285.1
90513.4
91177.2
90315.1
90587.9
90440
89880.7
90438.6
89396.1
89886.6
90987.3
90298.4
90815.4
90006.5
90218.3
90065.8
89532.6
90013.4
89137.3
89498.5
91102.1
90464.1
90820
90037.4
90123.8
89916.4
89380.2
89727
88969.3
89234.9
91506.7
90953
91167
90457.3
90421.5
90155.7
89621.8
89798.1
89135
89301.8
91540.5
91074.5
91224
90627.4
90553.1
90294.3
89817.1
89882.1
89315.9
89403.7
91074.8
90665.7
90818
90309.3
90270.3
90069.6
89687
89721.9
89259.4
89303.5
90582.6
90236
90313.2
89875.4
89842.5
89668.1
89349.6
89370.9
88988.9
89009.3
90246.4
89941.9
89950.8
89559.6
89489.5
89292.9
88985.9
88962
88618.1
88619.7
89908.4
89603.2
89585.6
89217.6
89105.6
88877
88573.2
88499.6
88184.9
88185.4
89489.4
89171
89119.7
88764.3
88612.9
88347.3
88047.7
87927.1
87648.5
87670.2
89055.6
88705.2
88602.4
88236.9
88025.7
87699.1
87388.2
87212.8
86973.9
87039.4
88714
88314.6
88141.3
87737
87428
87000.5
86649.1
86405.1
86211.3
86340.2
88568.4
88116.3
87870.2
87413
86990.2
86444.6
86039.5
85739.5
85607.5
85829.5
88747.2
88263.1
87967.5
87471.2
86960.7
86322.3
85884.6
85572.6
85534.1
85862
89049.1
88568.9
88260.1
87758.8
87211.4
86529.1
86095.1
85823.5
85907
86331.6
89105.6
88652.3
88359.3
87879.4
87336.2
86644.2
86233.7
86026.5
86230.7
86723.5
89077.5
88658.5
88389
87929.7
87398.1
86699.4
86302.5
86167.8
86483
87017.8
89136.2
88773.3
88531.8
88091.7
87572
86863.9
86460.5
86396.6
86810.9
87356.3
89046
88764.6
88561.7
88170.7
87697.6
87019.7
86615.4
86629.2
87123.8
87638.4
88262.1
88079.6
87907.4
87608.6
87253.6
86711.4
86397.1
86545.9
87118.5
87568.7
86780.5
86618
86455.9
86245.9
86033
85716.8
85606.4
85969.1
86624.1
87001.2
85435.3
85260.8
85040.4
84844.7
84685.6
84529.6
84570.3
85079.8
85683.1
85922.9
84591.5
84436.1
84189.6
83988.1
83821.4
83743.1
83851.9
84450.8
85031
85075.3
84369.7
84268.8
83989.2
83759.6
83532.7
83437
83504.2
84085.2
84602.2
84449.6
84157
84128.7
83816.7
83567.1
83272.9
83110.4
83081.9
83588.9
84010.3
83704
83621.5
83648.6
83328.7
83088
82771.9
82556.5
82421.9
82859.9
83194.6
82776.8
82829.8
82902.6
82584.9
82376.2
82084.2
81838.2
81618.3
81914.9
82411.5
81811.6
81839.7
81966.4
81654.2
81508.6
81264.3
80989
80760.7
80889.7
81802.7
80975.4
80652.1
80839.5
80529.6
80473.9
80332.8
80073
79924.7
79950.1
81511.1
80698.4
79201.7
79452.3
79142.8
79162.3
79148.3
78974.7
79045.4
79131.3
81283.1
80993.1
77400
77692.6
77312.8
77295.5
77223.8
76977.7
77056.6
76897.2
78847.9
78492.4
75193.1
75523.7
75010.6
74891
74624.6
74210.7
74098.2
73502.9
74976.1
74024.5
72924.1
73318.3
72657.5
72422.8
71934.4
71392.3
71120.6
70228.1
71591.6
70062.5
70796.5
71363.4
70492.4
70168.3
69401
68869
68543
67544.4
69039
67146.2
68835.3
69796.7
68644.4
68171.5
67203
66547.7
66303.7
65315.2
66855.9
64856.6
66552.9
67749.8
66590.5
65917.3
64831.4
64168.5
64011.7
63100.1
64503.5
62564.5
63354.3
64178
63291.5
62679.8
61685.5
61118.5
61048
60328.3
61582.2
59737.6
58218.7
58762.4
57745.9
57666
56896.4
56555.6
56667.8
56182.8
57356.3
55564.4
51268.4
52007
50542
51157.9
50567.4
50553.5
50812.1
50521
51679.3
49933
43642.6
44666.4
42744.3
43790.3
43160.9
43387.3
43730.5
43509.8
44612.4
42948.6
36099.6
37261.2
34955.5
36143
35236
35524
35662.5
35273.3
36195.1
34645.1
28775.4
29917
27274.3
28404.3
27085.4
27196.2
26827.7
25946.5
26667.7
25305.6
21460.4
22517.2
19596.5
20609.9
18810.9
18711.9
17617.9
15295.4
16383.5
15205
14486
15490.4
12473.1
13481.3
11341.1
11282.5
9855.36
6868.38
7468.98
6687.66
8485.81
9495.8
6657.57
7763.52
5598.23
5756.98
4525.82
1931.12
2602.4
1536.07
3580.62
4637.02
2230.64
3385.14
1481.83
1886.67
1162.69
-598.725
437.233
-1122.69
-284.75
796.33
-1048.8
-40.5236
-1484.88
-1013.5
-1023.8
-2223.75
-863.321
-2523.71
-3276.07
-2213.28
-3390.24
-2810.25
-3775.9
-3402.61
-2837.9
-3652.44
-2021.61
-3676.06
-5554.73
-4532.4
-5533.99
-5255.84
-5791.85
-5596.04
-4657.13
-5190.38
-3393.37
-5008.53
-7156.07
-6230.74
-7107.56
-7242.3
-7188.79
-7229.94
-6031.62
-6345.5
-4503.67
-6014.96
-8024.94
-7239.68
-8112.33
-8495.38
-8252.45
-8436.62
-6865.18
-7139.05
-5527.19
-6877.48
-8191.22
-7523.58
-8384.11
-8802.75
-8449.23
-8642.96
-6716.58
-6911.72
-5411.51
-6556.95
-6553.24
-6041.08
-7123.24
-7672.42
-7588.15
-7916.46
-6094.08
-6232.02
-5411.22
-6357.83
-5718.15
-5277.7
-6084.9
-6321.82
-5996.7
-5818.74
-3813.57
-3026.06
-2795.03
-3342.54
1488.7
1655.26
-199.361
-838.492
-2071.19
-2985.95
-2963.87
-2859.33
-3058.79
-3791.32
97314.2
89992.4
90992.2
90818.4
90707.9
90533.5
90283.1
90138.3
88615.2
95762.1
93708
90191.1
91755
91052.6
90946.4
90823.8
90613.7
91248.4
89051.3
92414.8
92458.4
90428.1
91953
91006
91036.1
90901.6
90441.4
91325.7
89173.3
90907.9
92130.6
90689.5
91861.4
90840.7
90973
90843.6
90210
91143.2
89364.1
90489.1
91991.2
90894.6
91751.1
90739.6
90888.9
90753.9
90040.4
90887.5
89429.3
90164.7
92008.4
91092.3
91745.5
90730.9
90867.9
90681.1
89920.1
90590.8
89382.4
89824.4
91913.2
91091.1
91808.2
90751.7
90968
90793.7
90027.9
90646.2
89568.7
89865.2
91442.2
90801.6
91430.9
90512.1
90779.3
90659.3
89982.9
90557.5
89623.1
89807.9
90794
90324.5
90696.4
90045.2
90243.4
90161.9
89643.5
90085
89360.3
89426.7
90514.8
90129.3
90287.6
89822.9
89890.8
89790.2
89378.5
89643.3
89090.3
89054.4
90635.3
90252.8
90344.6
89899.9
89859.4
89703.3
89323.6
89435.8
88975.1
88864.3
90751.7
90390.2
90427.5
89999.1
89923.8
89733.6
89368.3
89393
88980.6
88821.3
90700.2
90366.1
90364.7
89962.5
89900.4
89719.6
89397.5
89396.6
89032.8
88841.6
90609.7
90293.4
90304.7
89916.4
89885.3
89721.8
89446
89425.1
89104.9
88865.8
90536.9
90264.7
90282.5
89921.7
89925.3
89771.1
89544.9
89484.3
89214.7
88891.2
90426.1
90238.5
90239.7
89935.1
89976.6
89834.1
89681.1
89558.4
89368
88916.2
90223.7
90146.8
90111.4
89892.5
89977.5
89859.9
89812.1
89602.9
89530.4
88900.4
89914.5
89941.5
89862.2
89729.5
89850.7
89757.9
89818.7
89498.7
89549
88714.6
89394
89482.1
89363.1
89285.7
89420.7
89336.4
89473.7
89034.5
89169.2
88149.9
88769.3
88863.2
88712.6
88647
88769.1
88675
88840.6
88296.6
88450.6
87314.4
88316.7
88381.8
88211.3
88131.7
88232.1
88127.6
88296.8
87685.8
87815
86635.6
87837.4
87851.5
87678.2
87579.8
87662.4
87564.9
87724.8
87094.8
87161.5
86002.1
87169.4
87106.9
86946.1
86833.1
86901.5
86835.4
86975.4
86376.7
86348.3
85274.5
86388.8
86233.5
86088.8
85953.2
85987.8
85959.1
86055.4
85536.8
85396.4
84475.9
85866
85629.9
85475.4
85280.5
85230.1
85189.1
85183.6
84745
84481.1
83767.8
85747.9
85495
85294.8
85017.6
84863
84761.2
84603.5
84208
83828.2
83303.9
85518.5
85253.2
85041
84731.6
84519.7
84370.8
84068.8
83700.7
83196.6
82870.2
84894.7
84629.3
84421.7
84148.5
83937.3
83783.6
83413.4
83078
82484
82309.2
83845.6
83591.6
83416.9
83221.3
83048
82926
82586.1
82295
81715.2
81616.7
82928.8
82697.9
82548.4
82401
82259
82166.4
81900.2
81632.6
81111
80996.7
82237.5
82021.8
81879.3
81740
81599.2
81519.8
81344
81092.9
80608.8
80472.8
81536.6
81300.8
81157.1
81019.4
80876.6
80780.8
80700.1
80429.1
79997.1
79951.5
80723.6
80448.3
80307.5
80198.5
80100
79987.4
80022.5
79632.9
79517.5
79600.4
79769.9
79461.7
79345.5
79297.3
79317.8
79237.2
79396.4
78989.6
79409.6
79553.7
78596.3
78254.3
78160.9
78140.2
78290.4
78296.9
78694.6
78599.8
79381.9
79556.6
77057.9
76672.9
76557.4
76446.4
76540.3
76458.2
76908.5
76843.3
77200.6
76772.4
75290.2
74865.5
74671.3
74389.3
74269.8
73974
74277.1
73935.7
73656.7
72570.2
73381.9
72949.7
72681.7
72231
71878.1
71404.5
71599.2
71048.6
70561
69225.7
71312.6
70927.7
70584.1
70007.9
69374.7
68841.1
69037.5
68456.5
68021.3
66729.9
69042.9
68811.8
68470.1
67764.1
66979.1
66209.4
66518.3
66020.4
65568.2
64524.6
66109.8
65798
65851.8
65014.8
64210.4
63325.6
63641.2
63243.1
62668.1
61969.3
62045.9
61098.3
61792.6
61062.2
60475.9
59639.8
59838.8
59535.6
58918.9
58504.7
56427.6
55049.8
55779.5
55553.6
55339.7
54746.2
54986.5
54772.9
54331.3
54055.1
49547.6
48268.4
48516
48839.8
48957.5
48622.4
49011.8
48864.9
48714.6
48420.9
42176.7
41075.9
40745.6
41294.2
41406.4
41310.2
41842.2
41692.5
41789.7
41396.3
34694.3
33641.4
32827.7
33320.9
33124.3
33168
33603.9
33289.5
33474.3
32990.9
27208.8
26112.5
24940.4
25267.2
24603
24588.9
24588.5
23797.6
23935.1
23496.1
19859.1
18711
17296.3
17469
16331.1
16027.5
15306
13098.1
13544
13343.2
12988.5
11825.8
10331.9
10471.9
9035.35
8624.78
7500.02
4569.4
4532.71
4816.65
6973.03
5835.23
4469.62
4689.6
3217.41
2941.68
1893.25
-666.906
-693.782
-456.533
2138.51
1066.43
8.72348
324.296
-957.483
-967.072
-1614.13
-3334.7
-3019.71
-3164.35
-1429.36
-2424.22
-3145.71
-2840.9
-3809.96
-3651.33
-3713.23
-4808.28
-4197.3
-4446.1
-3905.45
-4843.29
-5143.66
-5089.73
-5754.14
-5556.2
-5187.22
-5797.84
-4959.24
-5250.08
-5480.42
-6404.21
-6700.82
-6782.18
-7228.28
-7069.33
-6438.26
-6713.87
-5666.86
-6044.21
-6577.67
-7540.49
-7841.32
-8210.86
-8297.52
-8292.65
-7522.02
-7597.21
-6400.05
-6918.84
-6962.61
-7987.11
-8351.56
-8938.7
-8955.89
-9083.49
-8025.45
-8127.78
-6933.41
-7598.25
-6920.19
-7985.81
-8394.79
-9098.7
-9088.82
-9365.43
-8009.83
-8283.21
-7055.38
-7830.67
-5278.89
-6392.88
-6954.6
-7822.85
-7925.91
-8396.23
-6920.34
-7357.83
-6438.04
-7090.29
-4201.01
-5265.68
-5683.64
-6444.08
-6460.07
-6889.7
-5292.95
-5480.45
-5189.9
-5517.73
1680.52
447.482
-512.275
-1466.91
-2218.53
-3189.21
-2597.33
-2776.56
-2694.63
-2324.73
)
;
    }
    inlet
    {
        type            calculated;
        value           nonuniform List<scalar> 
20
(
97247
89972.5
90944.9
90746
90598
90387.1
90110.3
89912.5
88482.9
95451.4
97291
89985.5
90976
90794
90671
90484.4
90225.3
90062.9
88571.1
95658.6
)
;
    }
    outlet
    {
        type            calculated;
        value           nonuniform List<scalar> 
20
(
-97.7627
-292.93
-488.016
-683.209
-878.437
-1073.76
-1269.32
-1465.93
-1662.61
-1858.43
-97.7619
-292.929
-488.016
-683.206
-878.427
-1073.74
-1269.28
-1465.88
-1662.58
-1858.43
)
;
    }
    heatWall
    {
        type            calculated;
        value           nonuniform List<scalar> 
240
(
95353.8
95561
91994.5
92208.9
90674.2
90764.7
90224.4
90335.2
89956.1
90029.6
89773.2
89742.9
89492.6
89676.2
89281
89566.8
89235.8
89297.8
89218.8
89044.3
89095.9
88876.9
88864.3
88771.3
88577.2
88689
88257.6
88598.5
87877.5
88488.6
87410.8
88349.4
86882.8
88162.3
86453.6
87895
86336.2
87480.4
86478.1
86972.5
86601.5
86561.4
86663.5
86159.3
86735.3
85697.7
86746.9
85169.3
86517.6
84620.9
85976.7
84130.8
85061.4
83536.3
84285.8
82903.3
83643.4
82227.8
82929.2
81576.3
82104.1
80950.3
81252
80315.9
80535.6
79845.1
80306.7
79750.7
80522.4
79833.3
77958.1
77112.9
73566.8
72833.7
69761.6
69331.8
66947.8
66733
64676.8
64508.8
62317.7
62020.3
59330
58716.4
55086.9
54336.6
49454.2
48703.9
42459
41689.9
34129.9
33310.2
24752.3
23853.4
14639.4
13712.7
6121.78
5186.37
940.382
-57.019
-1732.32
-2750.84
-3104.24
-4061.58
-4170.28
-4951.73
-5368.86
-5879.61
-6343.42
-6786
-7160.71
-7510.61
-6979.63
-7603.66
-6643.12
-7000.79
-3989.52
-5066.65
-3517.08
-2794.96
97344.6
97388.6
94256
93956.9
92785
92633.1
92263.4
92240.8
91899.3
92026.3
91563.7
91924.9
91317.3
91778.2
91285.5
91453.7
91425.8
91070
91380.6
90869.8
91061.7
90843.6
90722
90807.5
90457.1
90684.7
90181.1
90532.1
89848.8
90372.4
89495.9
90180.4
89189
89943.2
89002.4
89675
89005.9
89329.9
89075.5
88937.4
89005
88611.5
88864.7
88244.4
88741.9
87758.1
88478.5
87151.1
87759.6
86563.7
86619.8
86103.7
85554.8
85594.2
84766.9
84914.5
84337.7
84072.7
83948.2
83332.8
83373.1
82681
82603.9
81957.6
81658.2
81100.3
80529.3
80087.9
79148.3
78844.8
77412.5
77240.6
75315.5
75363
73136.6
73364.6
71022.5
71282
68980.6
69092.9
66530.4
66327.8
63115.5
62480.4
57869
56973.2
50946.6
50065.2
43387.1
42627.7
35855.8
35133.5
28486.4
27693.3
21159.2
20355.7
14209.2
13460.7
8204.78
7449.52
3317.11
2597.48
-473.883
-1044.78
-3336.38
-3649.7
-5438.36
-5401.42
-6913.8
-6624.61
-7661.21
-7131.03
-7776.25
-7139.87
-6134.92
-5501.99
-5244.19
-4479.7
1642.02
1722.38
)
;
    }
}


// ************************************************************************* //
