/*--------------------------------*- C++ -*----------------------------------*\
  =========                 |
  \\      /  F ield         | OpenFOAM: The Open Source CFD Toolbox
   \\    /   O peration     | Website:  https://openfoam.org
    \\  /    A nd           | Version:  8
     \\/     M anipulation  |
\*---------------------------------------------------------------------------*/
FoamFile
{
    version     2.0;
    format      ascii;
    class       volScalarField;
    location    "800";
    object      T;
}
// * * * * * * * * * * * * * * * * * * * * * * * * * * * * * * * * * * * * * //

dimensions      [0 0 0 1 0 0 0];

internalField   nonuniform List<scalar> 
1200
(
303.15
303.15
303.151
303.146
303.141
303.137
303.133
303.129
303.125
303.122
303.119
303.115
303.112
303.109
303.106
303.103
303.1
303.098
303.095
303.093
303.09
303.088
303.086
303.083
303.081
303.079
303.077
303.075
303.073
303.071
303.069
303.067
303.065
303.063
303.061
303.056
303.039
302.989
302.861
302.56
301.944
301.014
300.091
299.449
299.089
298.9
298.779
298.665
298.529
298.365
298.183
298.001
297.838
297.702
297.59
297.503
297.438
297.377
297.307
297.183
303.15
303.15
303.15
303.15
303.15
303.15
303.15
303.149
303.149
303.149
303.149
303.149
303.149
303.149
303.148
303.148
303.148
303.148
303.148
303.148
303.148
303.148
303.148
303.148
303.148
303.148
303.148
303.148
303.148
303.148
303.147
303.147
303.147
303.147
303.147
303.143
303.124
303.047
302.822
302.362
301.775
301.322
301.116
301.098
301.172
301.272
301.364
301.435
301.479
301.495
301.479
301.438
301.382
301.331
301.302
301.296
301.306
301.311
301.293
301.214
303.15
303.15
303.15
303.15
303.15
303.15
303.15
303.15
303.15
303.15
303.15
303.15
303.15
303.15
303.15
303.15
303.15
303.15
303.15
303.15
303.15
303.15
303.15
303.15
303.15
303.15
303.15
303.15
303.15
303.15
303.15
303.15
303.15
303.15
303.15
303.15
303.15
303.146
303.123
303.042
302.854
302.578
302.317
302.146
302.066
302.045
302.055
302.076
302.102
302.131
302.17
302.222
302.285
302.357
302.429
302.492
302.541
302.572
302.58
302.567
303.15
303.15
303.15
303.15
303.15
303.15
303.15
303.15
303.15
303.15
303.15
303.15
303.15
303.15
303.15
303.15
303.15
303.15
303.15
303.15
303.15
303.15
303.15
303.15
303.15
303.15
303.15
303.15
303.15
303.15
303.15
303.15
303.15
303.15
303.149
303.148
303.148
303.147
303.147
303.14
303.112
303.045
302.949
302.854
302.781
302.737
302.72
302.723
302.741
302.771
302.811
302.855
302.894
302.917
302.923
302.914
302.888
302.839
302.755
302.64
303.15
303.15
303.15
303.15
303.15
303.15
303.15
303.15
303.15
303.15
303.15
303.15
303.15
303.15
303.15
303.15
303.15
303.15
303.15
303.15
303.15
303.15
303.15
303.15
303.15
303.149
303.149
303.148
303.147
303.146
303.145
303.143
303.141
303.137
303.128
303.116
303.103
303.095
303.093
303.097
303.099
303.097
303.088
303.074
303.058
303.043
303.03
303.02
303.014
303.015
303.021
303.031
303.042
303.05
303.051
303.037
302.998
302.918
302.769
302.552
303.15
303.15
303.15
303.15
303.15
303.15
303.15
303.15
303.15
303.15
303.15
303.15
303.15
303.15
303.15
303.15
303.15
303.15
303.15
303.15
303.15
303.149
303.149
303.147
303.143
303.137
303.128
303.115
303.099
303.079
303.057
303.029
302.99
302.932
302.855
302.774
302.711
302.679
302.685
302.724
302.782
302.835
302.873
302.899
302.916
302.925
302.932
302.94
302.95
302.963
302.976
302.989
303.002
303.012
303.015
302.996
302.934
302.807
302.564
302.207
303.15
303.15
303.15
303.15
303.15
303.15
303.15
303.15
303.15
303.15
303.15
303.15
303.15
303.15
303.15
303.15
303.15
303.149
303.149
303.149
303.149
303.147
303.14
303.124
303.094
303.047
302.98
302.893
302.789
302.67
302.538
302.39
302.224
302.047
301.879
301.741
301.643
301.595
301.606
301.679
301.799
301.936
302.052
302.127
302.161
302.17
302.18
302.229
302.28
302.323
302.357
302.393
302.426
302.453
302.47
302.467
302.389
302.212
301.867
301.362
303.15
303.15
303.15
303.15
303.15
303.15
303.15
303.15
303.15
303.15
303.15
303.15
303.15
303.15
303.15
303.15
303.149
303.149
303.149
303.149
303.149
303.144
303.131
303.098
303.035
302.932
302.781
302.579
302.335
302.067
301.795
301.551
301.373
301.28
301.24
301.187
301.083
300.92
300.704
300.451
300.2
299.986
299.819
299.692
299.596
299.529
299.488
299.45
299.469
299.527
299.596
299.655
299.687
299.683
299.628
299.525
299.396
299.221
298.903
298.368
303.15
303.15
303.15
303.15
303.15
303.15
303.15
303.15
303.15
303.149
303.149
303.149
303.149
303.149
303.149
303.149
303.148
303.148
303.148
303.149
303.149
303.149
303.148
303.145
303.139
303.131
303.121
303.11
303.1
303.094
303.09
303.086
303.074
303.003
302.745
302.298
301.772
301.225
300.678
300.163
299.704
299.309
298.981
298.724
298.547
298.456
298.454
298.536
298.681
298.834
298.935
298.991
299.011
298.991
298.898
298.665
298.195
297.479
296.635
295.91
303.15
303.15
303.151
303.151
303.146
303.142
303.138
303.134
303.13
303.127
303.123
303.12
303.117
303.114
303.111
303.108
303.105
303.102
303.1
303.098
303.095
303.093
303.091
303.089
303.087
303.085
303.082
303.08
303.078
303.075
303.066
303.001
302.692
301.77
300.23
298.809
297.925
297.434
297.111
296.826
296.527
296.207
295.878
295.574
295.33
295.169
295.091
295.075
295.098
295.141
295.181
295.186
295.165
295.149
295.162
295.208
295.273
295.342
295.417
295.503
303.15
303.15
303.151
303.146
303.141
303.137
303.133
303.129
303.125
303.122
303.119
303.115
303.112
303.109
303.106
303.103
303.1
303.098
303.095
303.093
303.09
303.088
303.086
303.083
303.081
303.079
303.077
303.075
303.073
303.071
303.069
303.067
303.065
303.063
303.061
303.057
303.043
303.002
302.897
302.645
302.106
301.225
300.274
299.565
299.151
298.93
298.796
298.678
298.543
298.381
298.199
298.016
297.851
297.714
297.602
297.514
297.449
297.39
297.324
297.207
303.15
303.15
303.15
303.15
303.15
303.15
303.15
303.149
303.149
303.149
303.149
303.149
303.149
303.149
303.148
303.148
303.148
303.148
303.148
303.148
303.148
303.148
303.148
303.148
303.148
303.148
303.148
303.148
303.148
303.148
303.147
303.147
303.147
303.147
303.147
303.144
303.129
303.065
302.872
302.453
301.873
301.387
301.14
301.095
301.156
301.251
301.343
301.417
301.465
301.485
301.474
301.438
301.386
301.335
301.305
301.299
301.308
301.314
301.3
301.227
303.15
303.15
303.15
303.15
303.15
303.15
303.15
303.15
303.15
303.15
303.15
303.15
303.15
303.15
303.15
303.15
303.15
303.15
303.15
303.15
303.15
303.15
303.15
303.15
303.15
303.15
303.15
303.15
303.15
303.15
303.15
303.15
303.15
303.15
303.15
303.15
303.15
303.147
303.13
303.063
302.897
302.631
302.359
302.168
302.072
302.042
302.048
302.069
302.095
302.125
302.164
302.216
302.279
302.35
302.422
302.486
302.537
302.57
302.58
302.569
303.15
303.15
303.15
303.15
303.15
303.15
303.15
303.15
303.15
303.15
303.15
303.15
303.15
303.15
303.15
303.15
303.15
303.15
303.15
303.15
303.15
303.15
303.15
303.15
303.15
303.15
303.15
303.15
303.15
303.15
303.15
303.15
303.15
303.15
303.149
303.148
303.148
303.147
303.147
303.142
303.119
303.06
302.967
302.869
302.79
302.74
302.718
302.717
302.733
302.762
302.802
302.847
302.888
302.914
302.922
302.915
302.892
302.846
302.766
302.655
303.15
303.15
303.15
303.15
303.15
303.15
303.15
303.15
303.15
303.15
303.15
303.15
303.15
303.15
303.15
303.15
303.15
303.15
303.15
303.15
303.15
303.15
303.15
303.15
303.15
303.149
303.149
303.148
303.147
303.146
303.145
303.143
303.141
303.136
303.127
303.114
303.102
303.095
303.095
303.099
303.101
303.099
303.091
303.077
303.061
303.045
303.03
303.019
303.012
303.012
303.017
303.027
303.039
303.048
303.051
303.039
303.005
302.932
302.794
302.588
303.15
303.15
303.15
303.15
303.15
303.15
303.15
303.15
303.15
303.15
303.15
303.15
303.15
303.15
303.15
303.15
303.15
303.149
303.15
303.15
303.15
303.149
303.149
303.147
303.143
303.136
303.126
303.113
303.096
303.077
303.053
303.025
302.984
302.924
302.844
302.765
302.706
302.681
302.694
302.74
302.799
302.85
302.885
302.909
302.925
302.934
302.94
302.944
302.951
302.96
302.972
302.985
302.998
303.009
303.014
302.999
302.945
302.831
302.61
302.277
303.15
303.15
303.15
303.15
303.15
303.15
303.15
303.15
303.15
303.15
303.15
303.15
303.15
303.15
303.15
303.15
303.149
303.149
303.149
303.149
303.149
303.147
303.139
303.122
303.09
303.04
302.97
302.881
302.774
302.654
302.519
302.368
302.2
302.022
301.855
301.721
301.631
301.594
301.617
301.704
301.837
301.98
302.096
302.166
302.195
302.199
302.207
302.255
302.303
302.344
302.376
302.403
302.428
302.449
302.465
302.467
302.404
302.25
301.939
301.473
303.15
303.15
303.15
303.15
303.15
303.15
303.15
303.15
303.15
303.15
303.15
303.15
303.15
303.15
303.15
303.15
303.149
303.149
303.149
303.149
303.148
303.144
303.129
303.093
303.025
302.916
302.757
302.545
302.292
302.017
301.742
301.5
301.329
301.244
301.206
301.148
301.035
300.86
300.631
300.372
300.123
299.918
299.761
299.643
299.554
299.491
299.454
299.431
299.464
299.532
299.609
299.673
299.711
299.713
299.666
299.569
299.443
299.277
298.984
298.486
303.15
303.15
303.15
303.15
303.15
303.15
303.15
303.15
303.15
303.149
303.149
303.149
303.149
303.149
303.149
303.149
303.148
303.148
303.148
303.149
303.149
303.149
303.147
303.144
303.138
303.129
303.118
303.106
303.096
303.088
303.084
303.082
303.075
303.017
302.788
302.362
301.845
301.299
300.751
300.228
299.758
299.35
299.01
298.743
298.555
298.454
298.443
298.518
298.66
298.817
298.925
298.987
299.011
298.994
298.908
298.687
298.238
297.541
296.701
295.965
303.15
303.15
303.151
303.151
303.146
303.142
303.138
303.134
303.13
303.127
303.123
303.12
303.117
303.114
303.111
303.108
303.105
303.102
303.1
303.098
303.096
303.093
303.091
303.089
303.087
303.085
303.082
303.08
303.078
303.075
303.067
303.013
302.745
301.912
300.424
298.959
298.009
297.479
297.139
296.849
296.551
296.232
295.903
295.596
295.347
295.18
295.096
295.077
295.097
295.139
295.181
295.189
295.17
295.153
295.164
295.208
295.271
295.34
295.415
295.499
)
;

boundaryField
{
    wall
    {
        type            zeroGradient;
    }
    inlet
    {
        type            fixedValue;
        value           uniform 303.15;
    }
    outlet
    {
        type            inletOutlet;
        inletValue      uniform 300;
        value           nonuniform List<scalar> 
20
(
297.175
301.21
302.566
302.634
302.539
302.182
301.321
298.325
295.892
295.504
297.199
301.223
302.569
302.65
302.576
302.253
301.435
298.446
295.947
295.5
)
;
    }
    heatWall
    {
        type            fixedGradient;
        gradient        uniform -500;
    }
}


// ************************************************************************* //
