/*--------------------------------*- C++ -*----------------------------------*\
  =========                 |
  \\      /  F ield         | OpenFOAM: The Open Source CFD Toolbox
   \\    /   O peration     | Website:  https://openfoam.org
    \\  /    A nd           | Version:  8
     \\/     M anipulation  |
\*---------------------------------------------------------------------------*/
FoamFile
{
    version     2.0;
    format      ascii;
    class       volVectorField;
    location    "800";
    object      U;
}
// * * * * * * * * * * * * * * * * * * * * * * * * * * * * * * * * * * * * * //

dimensions      [0 1 -1 0 0 0 0];

internalField   nonuniform List<vector> 
1200
(
(16.0189 -1.18045 -0.0235998)
(16.1202 -0.896853 0.165098)
(16.1426 -0.737691 0.261049)
(16.132 -0.631461 0.276402)
(16.1165 -0.559421 0.198513)
(16.0981 -0.510758 -0.0271234)
(16.0722 -0.471156 -0.317526)
(16.0432 -0.436653 -0.425255)
(16.0175 -0.409102 -0.202028)
(16.0034 -0.386127 0.120602)
(15.9976 -0.365331 0.259752)
(15.9899 -0.349605 0.207701)
(15.9804 -0.338684 0.0658839)
(15.9714 -0.330323 -0.153944)
(15.961 -0.323151 -0.482614)
(15.9482 -0.314961 -0.912456)
(15.9346 -0.3046 -1.3852)
(15.9228 -0.292436 -1.80539)
(15.9156 -0.279804 -2.00385)
(15.9132 -0.268004 -1.90899)
(15.9136 -0.257505 -1.65447)
(15.915 -0.248529 -1.26017)
(15.9186 -0.242404 -0.63938)
(15.9328 -0.239294 0.197652)
(15.9746 -0.233811 0.9529)
(16.0263 -0.226497 1.27808)
(16.0663 -0.218863 1.25088)
(16.0869 -0.213405 1.15168)
(16.0963 -0.210058 1.30879)
(16.1107 -0.208192 1.68409)
(16.1362 -0.206262 2.10679)
(16.172 -0.203265 2.50056)
(16.218 -0.199734 2.83857)
(16.2789 -0.196697 3.10327)
(16.3619 -0.194462 3.28165)
(16.466 -0.192285 3.38039)
(16.5772 -0.191896 3.34844)
(16.6804 -0.197373 3.2169)
(16.7796 -0.215982 3.09844)
(16.9215 -0.241595 3.167)
(17.2088 -0.208855 3.68318)
(17.6993 -0.058508 4.85631)
(18.1725 0.137892 6.3897)
(18.2992 0.294753 7.74415)
(17.9829 0.396276 8.69677)
(17.3299 0.458386 9.36086)
(16.5021 0.495429 9.93882)
(15.6431 0.511269 10.501)
(14.8519 0.50464 11.0427)
(14.1953 0.47664 11.6026)
(13.7218 0.432368 12.1354)
(13.4463 0.380969 12.5445)
(13.3479 0.331064 12.746)
(13.3674 0.29215 12.6749)
(13.4419 0.267758 12.419)
(13.5641 0.247396 11.9965)
(13.7179 0.218082 11.5453)
(13.9947 0.180037 11.0906)
(14.2338 0.125066 10.6584)
(14.8929 0.0844803 10.5427)
(16.0273 0.415196 -0.0127104)
(16.0104 0.535913 0.0872356)
(16.0032 0.531053 0.137138)
(15.9977 0.505765 0.138059)
(15.9985 0.477652 0.0747846)
(16.0043 0.451461 -0.105219)
(16.0052 0.427738 -0.352412)
(15.9989 0.40681 -0.457311)
(15.9947 0.390575 -0.2588)
(16.0028 0.377537 0.0394086)
(16.0206 0.362885 0.170968)
(16.0362 0.350229 0.124406)
(16.051 0.339825 -0.00711005)
(16.0655 0.330395 -0.221262)
(16.0766 0.3216 -0.560739)
(16.082 0.312402 -1.03638)
(16.0843 0.301522 -1.60364)
(16.0887 0.288335 -2.16634)
(16.1001 0.273745 -2.53628)
(16.1186 0.259433 -2.61379)
(16.1412 0.246264 -2.51383)
(16.1665 0.235113 -2.24838)
(16.1964 0.226166 -1.71958)
(16.2343 0.21866 -0.92746)
(16.2881 0.210798 -0.165978)
(16.354 0.203267 0.184628)
(16.4086 0.201004 0.19051)
(16.4419 0.199701 0.133265)
(16.4619 0.196807 0.343619)
(16.4867 0.191163 0.787698)
(16.5242 0.182832 1.29539)
(16.573 0.172456 1.79943)
(16.6318 0.159177 2.28183)
(16.7046 0.141306 2.72488)
(16.799 0.120746 3.11709)
(16.9143 0.108082 3.46578)
(17.0335 0.111091 3.7307)
(17.138 0.131336 3.97132)
(17.2525 0.175727 4.41397)
(17.5195 0.257947 5.46281)
(18.0848 0.378106 7.33218)
(18.7895 0.487562 9.61406)
(19.3157 0.522229 11.6249)
(19.5286 0.483367 13.0408)
(19.4833 0.411922 13.9336)
(19.2864 0.338473 14.531)
(19.0212 0.270425 15.0242)
(18.732 0.199383 15.4641)
(18.4352 0.112677 15.8643)
(18.1464 0.00527987 16.2811)
(17.8846 -0.113881 16.6792)
(17.656 -0.224396 16.9551)
(17.461 -0.301315 17.0134)
(17.3031 -0.343136 16.8215)
(17.1857 -0.365783 16.4612)
(17.1118 -0.380098 15.9265)
(17.0656 -0.400128 15.3153)
(17.1323 -0.414296 14.67)
(17.1891 -0.461029 14.0198)
(17.7182 -0.428886 13.7562)
(15.9545 -0.0799759 -0.0179526)
(15.916 -0.168704 0.11188)
(15.9199 -0.238956 0.222705)
(15.9378 -0.275937 0.267542)
(15.9577 -0.293631 0.228094)
(15.9751 -0.303077 0.0498252)
(15.9823 -0.306867 -0.263582)
(15.9842 -0.304674 -0.457764)
(15.9892 -0.300032 -0.310499)
(16.0013 -0.296754 -0.0152318)
(16.0219 -0.29787 0.134885)
(16.042 -0.298177 0.100253)
(16.0593 -0.297314 -0.0285184)
(16.0749 -0.297666 -0.252881)
(16.0875 -0.298676 -0.615611)
(16.0954 -0.298889 -1.12544)
(16.1011 -0.297825 -1.7373)
(16.109 -0.295957 -2.35428)
(16.1234 -0.293488 -2.78353)
(16.1438 -0.290114 -2.91699)
(16.1674 -0.285972 -2.86375)
(16.1934 -0.281037 -2.63839)
(16.2243 -0.275956 -2.14562)
(16.2638 -0.271835 -1.38235)
(16.3169 -0.268418 -0.636216)
(16.3792 -0.265199 -0.285117)
(16.4282 -0.257527 -0.291626)
(16.4566 -0.248329 -0.368754)
(16.4772 -0.239561 -0.200105)
(16.5025 -0.230451 0.18149)
(16.5397 -0.221995 0.620238)
(16.5886 -0.215596 1.05397)
(16.6482 -0.213954 1.46332)
(16.7222 -0.219693 1.82035)
(16.8208 -0.228113 2.10986)
(16.9464 -0.222641 2.32668)
(17.0831 -0.193488 2.42048)
(17.213 -0.139 2.42061)
(17.3327 -0.0452073 2.44257)
(17.4861 0.100466 2.65527)
(17.7927 0.276535 3.27893)
(18.3343 0.438895 4.41945)
(18.9802 0.550892 5.80946)
(19.5122 0.59955 7.07974)
(19.8258 0.605711 8.08201)
(19.9227 0.596575 8.86007)
(19.8404 0.588342 9.48984)
(19.6072 0.580578 9.96765)
(19.2355 0.557988 10.2985)
(18.7441 0.50651 10.5601)
(18.1727 0.425333 10.7797)
(17.5806 0.326331 10.9621)
(17.038 0.231546 11.0968)
(16.5817 0.161639 11.0828)
(16.205 0.110343 10.9198)
(15.9043 0.0604282 10.566)
(15.6621 -0.015846 10.1119)
(15.5472 -0.0998812 9.56841)
(15.4652 -0.265198 8.99403)
(15.7792 -0.306314 8.64698)
(15.9905 -0.00537408 -0.0289804)
(15.9802 0.0457788 0.0300268)
(15.9923 0.0999557 0.0608711)
(16.0066 0.14402 0.0447671)
(16.0177 0.174859 -0.0102196)
(16.0284 0.192808 -0.139516)
(16.0334 0.212607 -0.372525)
(16.0303 0.234222 -0.521592)
(16.0274 0.251932 -0.392531)
(16.0341 0.263802 -0.139884)
(16.0505 0.271361 -0.0110361)
(16.067 0.275016 -0.0492731)
(16.0809 0.2773 -0.17476)
(16.094 0.27946 -0.392542)
(16.1047 0.280225 -0.753476)
(16.1112 0.278032 -1.28356)
(16.1154 0.271337 -1.95747)
(16.1218 0.259212 -2.6842)
(16.1358 0.243053 -3.25698)
(16.1569 0.225787 -3.54208)
(16.1817 0.209065 -3.63127)
(16.21 0.194209 -3.53732)
(16.2442 0.181772 -3.1659)
(16.287 0.171268 -2.50044)
(16.3381 0.162089 -1.80268)
(16.3903 0.154237 -1.44504)
(16.4313 0.152027 -1.42908)
(16.4619 0.153598 -1.4957)
(16.4911 0.155581 -1.34826)
(16.5245 0.156771 -1.0103)
(16.5648 0.15657 -0.618733)
(16.6117 0.152984 -0.226711)
(16.6655 0.141153 0.147643)
(16.7331 0.112195 0.472441)
(16.8287 0.0684203 0.735489)
(16.9566 0.0373381 0.938209)
(17.0986 0.0368282 1.04429)
(17.2361 0.0709786 1.08231)
(17.3654 0.143849 1.15253)
(17.5104 0.252009 1.32443)
(17.731 0.388634 1.69578)
(18.0965 0.502278 2.35659)
(18.5973 0.535484 3.2208)
(19.1341 0.487541 4.13025)
(19.6064 0.404339 5.00546)
(19.9524 0.327474 5.85076)
(20.1417 0.275163 6.66096)
(20.1527 0.24567 7.37278)
(19.9724 0.217955 7.97143)
(19.6192 0.170026 8.53076)
(19.1449 0.0963079 9.06215)
(18.6104 0.00872195 9.52797)
(18.0658 -0.0833463 9.8546)
(17.5326 -0.180983 9.94084)
(17.0352 -0.277139 9.79448)
(16.6135 -0.365236 9.40856)
(16.2855 -0.470203 8.93625)
(16.1168 -0.571834 8.40262)
(16.049 -0.748488 7.90424)
(16.3271 -0.773764 7.58911)
(15.9896 -0.0025604 -0.0428681)
(15.9748 -0.000183331 -0.0254495)
(15.976 -0.0157791 -0.00499376)
(15.9845 -0.0440718 -0.0108836)
(15.9936 -0.0775689 -0.0403449)
(16.005 -0.1142 -0.127966)
(16.0132 -0.148436 -0.363592)
(16.0149 -0.176577 -0.570532)
(16.0178 -0.196302 -0.515578)
(16.0281 -0.210168 -0.30795)
(16.0452 -0.224325 -0.179055)
(16.062 -0.238573 -0.204581)
(16.0761 -0.250153 -0.333296)
(16.0886 -0.259926 -0.577304)
(16.0984 -0.269255 -0.988037)
(16.1049 -0.277976 -1.59923)
(16.1102 -0.285449 -2.40033)
(16.1186 -0.291581 -3.30513)
(16.1353 -0.295945 -4.09346)
(16.1591 -0.297845 -4.60691)
(16.1865 -0.297723 -4.9209)
(16.2185 -0.296098 -5.04628)
(16.2582 -0.293909 -4.88802)
(16.3069 -0.292536 -4.40966)
(16.3604 -0.29261 -3.8326)
(16.4122 -0.293732 -3.51665)
(16.457 -0.292146 -3.5071)
(16.4975 -0.288703 -3.58238)
(16.5374 -0.284557 -3.47232)
(16.5773 -0.279773 -3.19995)
(16.6184 -0.27467 -2.87919)
(16.6612 -0.26972 -2.54822)
(16.7048 -0.267615 -2.23426)
(16.7596 -0.278206 -1.98068)
(16.8513 -0.302577 -1.80064)
(16.9883 -0.310595 -1.68915)
(17.1463 -0.284993 -1.66977)
(17.3048 -0.227032 -1.71302)
(17.4534 -0.138841 -1.7136)
(17.6024 -0.0147023 -1.56828)
(17.7946 0.120561 -1.25736)
(18.0621 0.228086 -0.740617)
(18.4065 0.283593 -0.111225)
(18.8276 0.298694 0.532897)
(19.2833 0.295958 1.19398)
(19.7311 0.30599 1.91891)
(20.1334 0.349853 2.71122)
(20.4406 0.426367 3.48039)
(20.5989 0.504469 4.18038)
(20.5882 0.552558 4.86113)
(20.4293 0.554542 5.50791)
(20.1639 0.514384 6.07106)
(19.8389 0.446723 6.48773)
(19.4874 0.356882 6.70423)
(19.1282 0.236196 6.78499)
(18.8009 0.0936788 6.70404)
(18.5186 -0.0879001 6.56097)
(18.3157 -0.284758 6.3122)
(18.1765 -0.574849 6.12908)
(18.2258 -0.672918 5.91634)
(15.9898 0.00654111 -0.0566055)
(15.9748 0.0138073 -0.084029)
(15.975 0.0328531 -0.0946417)
(15.9826 0.0612643 -0.128019)
(15.9907 0.0920976 -0.175912)
(16.0013 0.1212 -0.251038)
(16.0101 0.15163 -0.479424)
(16.0134 0.18295 -0.713538)
(16.018 0.209646 -0.716487)
(16.0291 0.228264 -0.558679)
(16.0455 0.238917 -0.443916)
(16.0616 0.245919 -0.464604)
(16.0751 0.252775 -0.598514)
(16.0869 0.258859 -0.863438)
(16.0968 0.262642 -1.31028)
(16.1048 0.263009 -1.98208)
(16.1124 0.258677 -2.88706)
(16.1234 0.24871 -3.94798)
(16.1427 0.234317 -4.93508)
(16.1689 0.218207 -5.67062)
(16.1984 0.201674 -6.22068)
(16.2331 0.185469 -6.60194)
(16.2766 0.170009 -6.72554)
(16.3298 0.155325 -6.53716)
(16.3877 0.142007 -6.20149)
(16.4447 0.131272 -6.03225)
(16.4978 0.127654 -6.09945)
(16.5478 0.128888 -6.21701)
(16.595 0.130874 -6.14936)
(16.6371 0.131607 -5.9328)
(16.676 0.130062 -5.67528)
(16.7137 0.124758 -5.40477)
(16.7533 0.108213 -5.15764)
(16.8218 0.0623601 -4.98379)
(16.9684 -0.0176706 -4.88197)
(17.1983 -0.0815618 -4.82965)
(17.4656 -0.100755 -4.83795)
(17.7367 -0.0825444 -4.87753)
(18.0003 -0.0414626 -4.84816)
(18.2519 0.0269461 -4.65186)
(18.5092 0.109256 -4.23751)
(18.8099 0.175715 -3.63132)
(19.1652 0.194586 -2.96632)
(19.5573 0.16853 -2.31695)
(19.9685 0.116788 -1.68057)
(20.381 0.070035 -1.0143)
(20.7721 0.0615754 -0.298452)
(21.1153 0.108678 0.444664)
(21.3593 0.173051 1.19657)
(21.4823 0.211708 1.98763)
(21.4982 0.201993 2.77409)
(21.4377 0.141622 3.48667)
(21.3345 0.0456913 4.05689)
(21.2101 -0.0706576 4.43442)
(21.0688 -0.205753 4.68596)
(20.8996 -0.358711 4.80621)
(20.707 -0.532478 4.89607)
(20.4983 -0.701956 4.89095)
(20.2853 -0.928532 5.03465)
(20.1476 -0.965942 5.01295)
(15.992 0.00754977 -0.0668867)
(15.9823 -0.0358934 -0.12162)
(15.9924 -0.0845757 -0.129102)
(16.0057 -0.127177 -0.144081)
(16.0149 -0.162656 -0.159009)
(16.0252 -0.192234 -0.172469)
(16.034 -0.216915 -0.328913)
(16.0345 -0.234982 -0.519713)
(16.0331 -0.245653 -0.528732)
(16.0378 -0.252093 -0.393292)
(16.05 -0.258693 -0.281348)
(16.0646 -0.26577 -0.289207)
(16.078 -0.270895 -0.4201)
(16.0892 -0.274228 -0.695577)
(16.097 -0.276512 -1.16753)
(16.1012 -0.277629 -1.89198)
(16.1039 -0.277178 -2.8979)
(16.1105 -0.274905 -4.11616)
(16.1274 -0.270387 -5.30367)
(16.1533 -0.263421 -6.25928)
(16.1845 -0.254949 -7.04002)
(16.2239 -0.246848 -7.66761)
(16.2763 -0.241407 -8.0591)
(16.3426 -0.240831 -8.14541)
(16.4166 -0.245619 -8.03186)
(16.4923 -0.253739 -7.96743)
(16.567 -0.259908 -8.03377)
(16.641 -0.265305 -8.09178)
(16.7162 -0.270982 -7.97234)
(16.7935 -0.276126 -7.74769)
(16.8778 -0.280396 -7.53833)
(16.9711 -0.280509 -7.35298)
(17.0737 -0.283259 -7.17231)
(17.2084 -0.319989 -6.97179)
(17.4236 -0.401518 -6.73439)
(17.7228 -0.460241 -6.50954)
(18.0556 -0.466642 -6.37631)
(18.3956 -0.439297 -6.3445)
(18.751 -0.398528 -6.33547)
(19.1399 -0.344529 -6.26362)
(19.5696 -0.272109 -6.04185)
(20.026 -0.200238 -5.6025)
(20.4922 -0.155824 -5.04878)
(20.9599 -0.141296 -4.48269)
(21.4203 -0.140179 -3.91516)
(21.8629 -0.123271 -3.32729)
(22.2784 -0.0575634 -2.72593)
(22.6223 0.111427 -2.13703)
(22.8452 0.31706 -1.5189)
(22.9569 0.479578 -0.820412)
(22.998 0.566862 -0.0888944)
(22.9888 0.582209 0.619739)
(22.9615 0.545117 1.23468)
(22.9232 0.474635 1.69635)
(22.8713 0.382722 2.06014)
(22.7863 0.264426 2.33932)
(22.6438 0.100004 2.67742)
(22.4233 -0.0928771 2.94925)
(22.1177 -0.387833 3.48094)
(21.7718 -0.547433 3.73456)
(15.9566 0.0852369 -0.0846599)
(15.9197 0.177963 -0.230786)
(15.9207 0.247655 -0.334913)
(15.9343 0.285231 -0.444435)
(15.9487 0.302184 -0.535974)
(15.9642 0.307126 -0.584307)
(15.9777 0.30645 -0.784078)
(15.987 0.304117 -1.04694)
(15.9977 0.30188 -1.13919)
(16.0122 0.299118 -1.06595)
(16.029 0.294578 -0.977495)
(16.0445 0.289103 -0.985493)
(16.0574 0.284561 -1.1229)
(16.0683 0.280693 -1.41469)
(16.0784 0.276854 -1.90584)
(16.0885 0.272783 -2.64755)
(16.0996 0.268079 -3.66469)
(16.115 0.262588 -4.87459)
(16.139 0.25731 -6.01398)
(16.169 0.253829 -6.86534)
(16.2014 0.252294 -7.48618)
(16.2385 0.251676 -7.91038)
(16.2845 0.250299 -8.07597)
(16.3405 0.24564 -7.93777)
(16.4013 0.236056 -7.59512)
(16.4633 0.221284 -7.27019)
(16.5235 0.208739 -7.06509)
(16.5817 0.196095 -6.86295)
(16.6402 0.181368 -6.52859)
(16.6995 0.16603 -6.13411)
(16.7643 0.150139 -5.78566)
(16.8334 0.121139 -5.47368)
(16.8888 0.0527328 -5.11083)
(16.9341 -0.0857116 -4.64932)
(17.0386 -0.267418 -4.10511)
(17.2372 -0.381408 -3.59015)
(17.4719 -0.405645 -3.23313)
(17.704 -0.38996 -3.08374)
(17.954 -0.367592 -3.10198)
(18.2724 -0.340827 -3.22564)
(18.6962 -0.308013 -3.31902)
(19.205 -0.28531 -3.17259)
(19.7425 -0.287715 -2.77646)
(20.2587 -0.315229 -2.19648)
(20.73 -0.352352 -1.48539)
(21.1562 -0.374168 -0.708068)
(21.5599 -0.358347 0.0704546)
(21.9675 -0.279748 0.690328)
(22.3022 -0.137073 1.10424)
(22.5066 -0.02166 1.54125)
(22.6259 0.0258582 1.9971)
(22.6993 0.0227096 2.43123)
(22.7476 -0.0212421 2.79376)
(22.7731 -0.0974516 3.05209)
(22.7671 -0.197309 3.28774)
(22.7083 -0.295107 3.50509)
(22.5541 -0.391735 3.86285)
(22.2402 -0.451948 4.24602)
(21.7419 -0.514351 5.17541)
(21.1634 -0.491568 5.87642)
(16.0277 -0.416817 -0.0549754)
(16.0084 -0.529053 -0.127596)
(15.9976 -0.524342 -0.157456)
(15.9911 -0.499727 -0.205907)
(15.988 -0.471238 -0.245032)
(15.9912 -0.444086 -0.241478)
(15.9974 -0.417661 -0.37725)
(15.9981 -0.391651 -0.583157)
(15.9976 -0.368302 -0.654958)
(16.0022 -0.349645 -0.585195)
(16.0127 -0.336 -0.496759)
(16.0259 -0.325538 -0.494565)
(16.0384 -0.315719 -0.624645)
(16.0485 -0.305804 -0.912816)
(16.0555 -0.295516 -1.40339)
(16.0595 -0.284329 -2.15385)
(16.0622 -0.271916 -3.19646)
(16.0691 -0.258065 -4.43938)
(16.0869 -0.242503 -5.58946)
(16.1137 -0.225507 -6.39153)
(16.1448 -0.207478 -6.88249)
(16.1813 -0.189366 -7.08044)
(16.2253 -0.173006 -6.91576)
(16.2765 -0.161069 -6.35426)
(16.33 -0.156162 -5.51025)
(16.3844 -0.157938 -4.61911)
(16.435 -0.159979 -3.8234)
(16.4766 -0.162015 -3.00987)
(16.5138 -0.164464 -2.09521)
(16.5514 -0.165016 -1.18317)
(16.5911 -0.162901 -0.373427)
(16.6245 -0.167121 0.394598)
(16.6338 -0.195841 1.16513)
(16.632 -0.29142 2.00885)
(16.7548 -0.450426 3.08097)
(17.0494 -0.518385 4.36045)
(17.3587 -0.457762 5.6321)
(17.6061 -0.333041 6.78989)
(17.8331 -0.199189 7.90081)
(18.0833 -0.0874828 9.01149)
(18.3438 -0.0165934 10.1059)
(18.565 0.00565352 11.1717)
(18.6941 -0.00891866 12.0428)
(18.7007 -0.0358661 12.637)
(18.5918 -0.0486003 13.0009)
(18.4011 -0.0271726 13.2046)
(18.1725 0.0334243 13.2999)
(17.9199 0.125669 13.2755)
(17.6884 0.244051 13.0587)
(17.5207 0.350194 12.7684)
(17.3615 0.414562 12.5568)
(17.2095 0.43589 12.4118)
(17.0525 0.431584 12.2667)
(16.8611 0.417007 12.0501)
(16.6139 0.400423 11.8841)
(16.3149 0.393996 11.8182)
(16.0501 0.388121 12.2538)
(15.9232 0.413582 13.0567)
(16.0506 0.406282 14.8269)
(16.2273 0.36392 15.6282)
(16.0243 1.17443 -0.114962)
(16.1278 0.902094 -0.248626)
(16.1443 0.750239 -0.305428)
(16.1307 0.644772 -0.375695)
(16.1119 0.567023 -0.422947)
(16.0938 0.508557 -0.403811)
(16.0755 0.460944 -0.518479)
(16.0534 0.420719 -0.698079)
(16.0318 0.388497 -0.737564)
(16.0143 0.363931 -0.628181)
(16.0013 0.344932 -0.490195)
(15.9908 0.32957 -0.430779)
(15.9805 0.31678 -0.499907)
(15.9694 0.305515 -0.712976)
(15.9582 0.294827 -1.09588)
(15.9475 0.284066 -1.68485)
(15.9378 0.272889 -2.48903)
(15.9319 0.26098 -3.39637)
(15.9333 0.248738 -4.11397)
(15.9395 0.236622 -4.41386)
(15.9462 0.224517 -4.37109)
(15.9532 0.212055 -4.03544)
(15.9621 0.19918 -3.36803)
(15.9741 0.186394 -2.36743)
(15.9896 0.174193 -1.17251)
(16.0193 0.165418 -0.0140197)
(16.0564 0.152736 0.947601)
(16.0859 0.140858 1.82499)
(16.1143 0.130839 2.7314)
(16.1477 0.121528 3.60633)
(16.1786 0.110363 4.35308)
(16.1876 0.0987064 4.95424)
(16.1593 0.0764651 5.50954)
(16.2415 -0.012956 6.57217)
(16.7417 -0.157142 8.89455)
(17.4478 -0.219177 11.9102)
(17.8904 -0.196132 14.3158)
(17.9846 -0.159382 15.641)
(17.8492 -0.152343 16.1335)
(17.583 -0.181821 16.1623)
(17.2182 -0.236954 16.0276)
(16.7491 -0.305574 15.983)
(16.1651 -0.376871 16.013)
(15.4649 -0.443593 16.0763)
(14.6697 -0.50166 16.1859)
(13.8172 -0.547842 16.323)
(12.9525 -0.580411 16.4412)
(12.1099 -0.59064 16.4402)
(11.3582 -0.541734 16.2987)
(10.8308 -0.431242 16.1568)
(10.5852 -0.332837 16.0909)
(10.5205 -0.28682 16.1458)
(10.5623 -0.282478 16.3102)
(10.6561 -0.301715 16.5205)
(10.7786 -0.325228 16.9033)
(10.8964 -0.333478 17.2582)
(11.0177 -0.32582 17.7508)
(11.0804 -0.300937 17.7375)
(11.2029 -0.291308 18.1736)
(11.1354 -0.244233 16.7993)
(16.0261 -1.17841 -0.0316912)
(16.1286 -0.908187 0.155371)
(16.1418 -0.756543 0.251735)
(16.1252 -0.652888 0.267965)
(16.1033 -0.578644 0.190796)
(16.0806 -0.520578 -0.034483)
(16.0653 -0.466853 -0.323351)
(16.0561 -0.424225 -0.429647)
(16.0426 -0.39672 -0.20599)
(16.0188 -0.380314 0.116673)
(15.9947 -0.366059 0.25624)
(15.9769 -0.353142 0.204432)
(15.9633 -0.341441 0.0627288)
(15.9514 -0.328684 -0.156509)
(15.9417 -0.314949 -0.483995)
(15.9348 -0.301144 -0.912566)
(15.9303 -0.287835 -1.38434)
(15.9287 -0.274767 -1.804)
(15.9299 -0.262135 -2.00208)
(15.9295 -0.250445 -1.90675)
(15.928 -0.239741 -1.65205)
(15.9313 -0.230334 -1.2581)
(15.9415 -0.223353 -0.638209)
(15.9525 -0.2223 0.196946)
(15.9678 -0.22686 0.950743)
(16.0002 -0.227964 1.27516)
(16.04 -0.224625 1.24792)
(16.0763 -0.220526 1.14989)
(16.1014 -0.218179 1.30864)
(16.1174 -0.217982 1.68508)
(16.1379 -0.21797 2.10825)
(16.1702 -0.216179 2.50199)
(16.2148 -0.212914 2.83979)
(16.275 -0.209634 3.10432)
(16.3572 -0.206881 3.28273)
(16.4606 -0.204163 3.38137)
(16.5723 -0.202965 3.34899)
(16.6793 -0.207243 3.21541)
(16.7828 -0.224313 3.08865)
(16.9206 -0.252646 3.12841)
(17.1835 -0.235349 3.57469)
(17.646 -0.103582 4.65987)
(18.1393 0.0891483 6.16493)
(18.3339 0.253959 7.56545)
(18.0901 0.365365 8.58881)
(17.4847 0.435326 9.30886)
(16.6732 0.478059 9.91705)
(15.8051 0.498251 10.4905)
(14.9901 0.49504 11.0358)
(14.3024 0.469419 11.5978)
(13.7963 0.426344 12.1331)
(13.4918 0.375191 12.5448)
(13.3705 0.325017 12.7482)
(13.3766 0.284941 12.6796)
(13.4433 0.259749 12.4252)
(13.5578 0.239736 12.0029)
(13.7018 0.211862 11.5494)
(13.9632 0.175608 11.0964)
(14.1885 0.122234 10.6579)
(14.8217 0.0822905 10.5558)
(16.0313 0.415973 -0.00499705)
(16.0156 0.530527 0.0981363)
(16.003 0.528356 0.148769)
(15.9927 0.506799 0.149374)
(15.9865 0.482844 0.0857309)
(15.9866 0.460872 -0.0949253)
(15.9949 0.432527 -0.344003)
(16.0077 0.402588 -0.450827)
(16.0178 0.380055 -0.253461)
(16.0205 0.365336 0.0440822)
(16.0209 0.354126 0.17485)
(16.0251 0.344826 0.127696)
(16.0328 0.336472 -0.00402041)
(16.0418 0.327177 -0.218388)
(16.0508 0.316187 -0.558045)
(16.0608 0.30318 -1.0337)
(16.0728 0.28842 -1.60072)
(16.089 0.272551 -2.16292)
(16.1103 0.256893 -2.53201)
(16.1321 0.242911 -2.60833)
(16.1537 0.231048 -2.50743)
(16.1812 0.221382 -2.24172)
(16.2166 0.213929 -1.71323)
(16.2543 0.208551 -0.922045)
(16.2858 0.206051 -0.162543)
(16.3186 0.20669 0.18598)
(16.3598 0.210103 0.19053)
(16.4068 0.213848 0.132773)
(16.4529 0.212633 0.341932)
(16.4894 0.204631 0.783237)
(16.5261 0.192817 1.28777)
(16.5723 0.180287 1.78912)
(16.6296 0.16658 2.26946)
(16.7014 0.148944 2.71085)
(16.7949 0.128539 3.10128)
(16.9093 0.114667 3.44676)
(17.0294 0.115439 3.70539)
(17.1385 0.132185 3.93143)
(17.2524 0.170226 4.33104)
(17.4946 0.241961 5.29228)
(18.0226 0.353291 7.0833)
(18.722 0.467335 9.36762)
(19.2803 0.516795 11.4455)
(19.5344 0.491007 12.941)
(19.5192 0.427008 13.8962)
(19.3373 0.357075 14.5329)
(19.0757 0.29097 15.0467)
(18.784 0.221647 15.496)
(18.4823 0.136371 15.9004)
(18.1876 0.0290848 16.3201)
(17.9196 -0.0921982 16.7224)
(17.6858 -0.206819 17.0047)
(17.4865 -0.289599 17.0694)
(17.3229 -0.334696 16.8782)
(17.1989 -0.358505 16.5171)
(17.1176 -0.372443 15.9828)
(17.062 -0.39096 15.3704)
(17.1137 -0.403593 14.7243)
(17.1539 -0.448322 14.061)
(17.6459 -0.41822 13.793)
(15.9599 -0.0819629 -0.0212201)
(15.9252 -0.174327 0.105884)
(15.9235 -0.245073 0.215561)
(15.9346 -0.282226 0.260108)
(15.9464 -0.297679 0.220555)
(15.9536 -0.300513 0.041675)
(15.9652 -0.302706 -0.270937)
(15.9887 -0.30526 -0.463502)
(16.0116 -0.307236 -0.315515)
(16.0218 -0.308604 -0.0208078)
(16.0254 -0.308378 0.129377)
(16.0327 -0.306394 0.0948882)
(16.0421 -0.303904 -0.0337321)
(16.0514 -0.303009 -0.256993)
(16.0617 -0.30345 -0.617854)
(16.0743 -0.304507 -1.12562)
(16.0897 -0.305561 -1.73585)
(16.1091 -0.305806 -2.35195)
(16.133 -0.304477 -2.78061)
(16.1565 -0.301035 -2.91331)
(16.1792 -0.295909 -2.85955)
(16.2069 -0.290057 -2.63424)
(16.2422 -0.284787 -2.14195)
(16.2806 -0.280653 -1.37943)
(16.3143 -0.274895 -0.634145)
(16.3457 -0.264179 -0.282638)
(16.3827 -0.250718 -0.2878)
(16.4272 -0.239489 -0.363532)
(16.4714 -0.233778 -0.194086)
(16.5086 -0.231338 0.186074)
(16.5449 -0.2278 0.621285)
(16.5898 -0.222743 1.05138)
(16.646 -0.220065 1.45805)
(16.7175 -0.224227 1.8137)
(16.8138 -0.231425 2.10303)
(16.9368 -0.226479 2.32023)
(17.0719 -0.199143 2.41457)
(17.2043 -0.148536 2.41285)
(17.3285 -0.0630825 2.4277)
(17.4789 0.0684568 2.61673)
(17.7628 0.229992 3.19389)
(18.2745 0.388135 4.29447)
(18.9168 0.510553 5.68772)
(19.4762 0.575907 6.99761)
(19.8289 0.596443 8.04952)
(19.9614 0.596651 8.87025)
(19.9059 0.593556 9.53053)
(19.6918 0.588918 10.0281)
(19.3336 0.568932 10.3708)
(18.8502 0.519509 10.6375)
(18.2796 0.439244 10.8548)
(17.6801 0.340329 11.0268)
(17.1232 0.243924 11.1474)
(16.6514 0.171856 11.1292)
(16.2613 0.120146 10.9665)
(15.9482 0.0719927 10.6163)
(15.6922 -0.000229603 10.1652)
(15.5578 -0.079959 9.62558)
(15.4549 -0.238782 9.04625)
(15.725 -0.285468 8.69958)
(15.994 -0.00766185 -0.0285308)
(15.9858 0.0330239 0.0313156)
(15.994 0.0812262 0.0629485)
(16.0046 0.124221 0.0473833)
(16.0111 0.160011 -0.00710207)
(16.0158 0.190687 -0.136061)
(16.0236 0.218587 -0.369422)
(16.0364 0.237805 -0.519223)
(16.047 0.247164 -0.390808)
(16.0508 0.252127 -0.138739)
(16.0525 0.259889 -0.0101401)
(16.0573 0.267163 -0.0485417)
(16.0651 0.271879 -0.174238)
(16.0731 0.274339 -0.392293)
(16.0814 0.273395 -0.753483)
(16.0911 0.267908 -1.28379)
(16.1033 0.257057 -1.95802)
(16.1205 0.241711 -2.68527)
(16.1437 0.224218 -3.25837)
(16.1679 0.207324 -3.54323)
(16.1919 0.192014 -3.63218)
(16.2214 0.178392 -3.53843)
(16.2587 0.166234 -3.16749)
(16.2999 0.15601 -2.50215)
(16.3378 0.150699 -1.80369)
(16.3732 0.152339 -1.44418)
(16.4122 0.15858 -1.42632)
(16.4563 0.163515 -1.49192)
(16.4996 0.163492 -1.34426)
(16.5374 0.160274 -1.0068)
(16.5759 0.156562 -0.616146)
(16.6203 0.151446 -0.22522)
(16.6706 0.139252 0.14758)
(16.7332 0.110951 0.470861)
(16.8241 0.0691401 0.732841)
(16.9467 0.0397767 0.93458)
(17.0844 0.0406877 1.03931)
(17.2224 0.074916 1.07484)
(17.3563 0.145273 1.1405)
(17.505 0.245217 1.30599)
(17.7206 0.369629 1.66656)
(18.0674 0.477655 2.3145)
(18.5502 0.517919 3.17421)
(19.0879 0.482688 4.09335)
(19.5804 0.410597 4.98808)
(19.9561 0.340478 5.85555)
(20.1763 0.291558 6.68566)
(20.2155 0.264044 7.4131)
(20.0591 0.238203 8.02258)
(19.722 0.191701 8.58692)
(19.2536 0.11767 9.11748)
(18.7168 0.0276226 9.57885)
(18.1653 -0.0660943 9.90243)
(17.6258 -0.16504 9.99106)
(17.119 -0.262341 9.85472)
(16.6873 -0.349142 9.47653)
(16.3457 -0.449723 9.00697)
(16.156 -0.54671 8.47371)
(16.0643 -0.714202 7.9668)
(16.2938 -0.746925 7.64683)
(15.9924 -0.00530785 -0.0428776)
(15.9801 -0.0112141 -0.0257711)
(15.9798 -0.0293438 -0.00577896)
(15.9857 -0.0572711 -0.0121078)
(15.9913 -0.0876743 -0.0418612)
(15.9948 -0.116304 -0.129489)
(16.0015 -0.148772 -0.364986)
(16.0172 -0.183453 -0.571767)
(16.0341 -0.212235 -0.516905)
(16.0438 -0.231106 -0.309667)
(16.0485 -0.242362 -0.18097)
(16.0541 -0.250625 -0.206449)
(16.0615 -0.259172 -0.335002)
(16.0688 -0.268947 -0.57881)
(16.0764 -0.279455 -0.989374)
(16.0858 -0.289888 -1.60066)
(16.0982 -0.299551 -2.40243)
(16.1164 -0.307287 -3.30869)
(16.1415 -0.311958 -4.09858)
(16.1681 -0.313022 -4.61294)
(16.1949 -0.311546 -4.92765)
(16.2278 -0.308998 -5.05393)
(16.2696 -0.306774 -4.89645)
(16.3172 -0.305328 -4.41792)
(16.3629 -0.302474 -3.83941)
(16.406 -0.296781 -3.52133)
(16.4508 -0.289253 -3.51013)
(16.4987 -0.283154 -3.58461)
(16.5444 -0.279815 -3.47399)
(16.5836 -0.277483 -3.20126)
(16.6214 -0.274261 -2.8803)
(16.661 -0.269878 -2.54909)
(16.7016 -0.268506 -2.23533)
(16.755 -0.28091 -1.98316)
(16.848 -0.306073 -1.80432)
(16.9861 -0.312607 -1.69193)
(17.1441 -0.283053 -1.66921)
(17.3042 -0.219735 -1.70706)
(17.4562 -0.124011 -1.69559)
(17.6124 0.00795528 -1.54727)
(17.8159 0.147329 -1.23705)
(18.0928 0.253013 -0.725326)
(18.436 0.301208 -0.106738)
(18.8365 0.303445 0.524174)
(19.2756 0.292419 1.17966)
(19.7204 0.298534 1.90685)
(20.1309 0.341075 2.70616)
(20.4542 0.420041 3.48428)
(20.6343 0.502988 4.19381)
(20.6453 0.556632 4.88328)
(20.5028 0.56337 5.537)
(20.2477 0.526745 6.10566)
(19.9281 0.461394 6.52739)
(19.5795 0.374437 6.74883)
(19.2215 0.257964 6.83204)
(18.8888 0.119974 6.75738)
(18.5975 -0.0542534 6.61792)
(18.3812 -0.243911 6.37042)
(18.2237 -0.519713 6.17931)
(18.2345 -0.629123 5.95574)
(15.9917 0.00420739 -0.0566323)
(15.9789 0.00497963 -0.0843891)
(15.9784 0.0232511 -0.0954647)
(15.9841 0.0530941 -0.129279)
(15.9906 0.0876209 -0.177464)
(15.9945 0.125501 -0.252589)
(16.0001 0.161843 -0.480842)
(16.0147 0.190939 -0.714974)
(16.0318 0.209899 -0.718065)
(16.0428 0.222542 -0.560424)
(16.049 0.233571 -0.445621)
(16.0552 0.244003 -0.466165)
(16.0624 0.251568 -0.599968)
(16.0698 0.255884 -0.864909)
(16.0777 0.257235 -1.3121)
(16.0877 0.25488 -1.98487)
(16.1012 0.247554 -2.89176)
(16.1208 0.235554 -3.95577)
(16.1478 0.220801 -4.94635)
(16.1765 0.205636 -5.68485)
(16.2055 0.190488 -6.23789)
(16.2408 0.175296 -6.62244)
(16.2859 0.16023 -6.74904)
(16.3388 0.146073 -6.56214)
(16.3922 0.135658 -6.22584)
(16.4443 0.131086 -6.05471)
(16.4974 0.133146 -6.11973)
(16.5512 0.137402 -6.23482)
(16.6002 0.139164 -6.16382)
(16.6402 0.137883 -5.94374)
(16.676 0.133868 -5.6833)
(16.7113 0.126072 -5.41105)
(16.7498 0.106328 -5.16466)
(16.8225 0.0556151 -4.99364)
(16.979 -0.0268444 -4.8931)
(17.2176 -0.0884348 -4.83871)
(17.4897 -0.103012 -4.84176)
(17.7645 -0.0802374 -4.87259)
(18.0304 -0.0332925 -4.82952)
(18.2817 0.0421113 -4.61242)
(18.5419 0.130429 -4.18634)
(18.8491 0.197505 -3.58132)
(19.2075 0.212611 -2.92247)
(19.5987 0.182596 -2.28091)
(20.0062 0.128475 -1.65024)
(20.4146 0.0793626 -0.988465)
(20.803 0.0677202 -0.27783)
(21.1388 0.114793 0.455763)
(21.3813 0.183752 1.19906)
(21.5121 0.228576 1.98693)
(21.5386 0.222808 2.77427)
(21.4866 0.163747 3.48879)
(21.3884 0.0677829 4.06056)
(21.2673 -0.0491971 4.43932)
(21.1311 -0.182798 4.69031)
(20.9683 -0.333864 4.81281)
(20.7806 -0.502309 4.90502)
(20.5757 -0.667274 4.90093)
(20.3583 -0.881171 5.03739)
(20.195 -0.931978 5.00238)
(15.9936 0.00468542 -0.0664144)
(15.9866 -0.0493153 -0.120346)
(15.9978 -0.103596 -0.127115)
(16.0101 -0.148674 -0.141756)
(16.0187 -0.182738 -0.156619)
(16.0227 -0.20426 -0.169882)
(16.0257 -0.22192 -0.32642)
(16.0342 -0.239716 -0.517782)
(16.0446 -0.255324 -0.527605)
(16.051 -0.265464 -0.393031)
(16.0548 -0.270021 -0.281587)
(16.0589 -0.271732 -0.289546)
(16.0639 -0.274042 -0.420568)
(16.0689 -0.277036 -0.696497)
(16.074 -0.279763 -1.1694)
(16.0804 -0.28167 -1.89547)
(16.0898 -0.282229 -2.90411)
(16.1061 -0.280231 -4.12649)
(16.1315 -0.274821 -5.31879)
(16.1604 -0.266183 -6.27902)
(16.1913 -0.256092 -7.06491)
(16.2314 -0.246995 -7.69856)
(16.2856 -0.241214 -8.09613)
(16.3524 -0.240483 -8.1866)
(16.4238 -0.243804 -8.07399)
(16.4966 -0.24834 -8.00766)
(16.5713 -0.251349 -8.07049)
(16.6481 -0.255098 -8.12432)
(16.725 -0.261204 -8.00053)
(16.8019 -0.267759 -7.77265)
(16.886 -0.273584 -7.56147)
(16.9804 -0.275551 -7.37302)
(17.0855 -0.281223 -7.18578)
(17.2275 -0.324565 -6.97594)
(17.4544 -0.411019 -6.73216)
(17.7631 -0.469568 -6.50723)
(18.102 -0.474054 -6.37716)
(18.4487 -0.445132 -6.3482)
(18.8133 -0.40211 -6.3397)
(19.2124 -0.342406 -6.26466)
(19.649 -0.262204 -6.03541)
(20.1041 -0.184599 -5.58636)
(20.5629 -0.138505 -5.02719)
(21.0208 -0.12492 -4.46018)
(21.4709 -0.124799 -3.89493)
(21.9011 -0.109139 -3.3096)
(22.3004 -0.0450514 -2.70821)
(22.627 0.11896 -2.11805)
(22.8377 0.319027 -1.49857)
(22.9447 0.477304 -0.800083)
(22.9872 0.563032 -0.069468)
(22.9884 0.581813 0.631875)
(22.9735 0.550055 1.23859)
(22.9493 0.484575 1.69428)
(22.9102 0.397995 2.05508)
(22.8395 0.287609 2.3276)
(22.7076 0.135402 2.65774)
(22.5009 -0.0464949 2.9213)
(22.2063 -0.320038 3.43163)
(21.8657 -0.490012 3.65116)
(15.9559 0.0868261 -0.0878472)
(15.9197 0.177599 -0.236312)
(15.9228 0.245422 -0.341308)
(15.9368 0.280695 -0.450752)
(15.9531 0.29695 -0.541716)
(15.964 0.305122 -0.589258)
(15.9714 0.307082 -0.788267)
(15.987 0.303645 -1.05061)
(16.0073 0.297411 -1.14249)
(16.023 0.292015 -1.06897)
(16.033 0.288905 -0.980281)
(16.0404 0.286931 -0.988173)
(16.0474 0.283876 -1.12558)
(16.0548 0.279966 -1.41747)
(16.0634 0.275862 -1.90901)
(16.0746 0.271465 -2.65165)
(16.0901 0.266351 -3.67066)