/*--------------------------------*- C++ -*----------------------------------*\
  =========                 |
  \\      /  F ield         | OpenFOAM: The Open Source CFD Toolbox
   \\    /   O peration     | Website:  https://openfoam.org
    \\  /    A nd           | Version:  8
     \\/     M anipulation  |
\*---------------------------------------------------------------------------*/
FoamFile
{
    version     2.0;
    format      ascii;
    class       volScalarField;
    location    "400";
    object      alphat;
}
// * * * * * * * * * * * * * * * * * * * * * * * * * * * * * * * * * * * * * //

dimensions      [1 -1 -1 0 0 0 0];

internalField   nonuniform List<scalar> 
1200
(
0.200897
0.184965
0.171674
0.160444
0.150844
0.142559
0.135346
0.129021
0.123439
0.118482
0.114057
0.110088
0.106513
0.103278
0.100342
0.0976681
0.0952246
0.0929855
0.0909283
0.0890336
0.0872845
0.0856665
0.0841666
0.0827738
0.081478
0.0802706
0.0791438
0.0780906
0.0771048
0.0761811
0.0753143
0.0744999
0.0737341
0.073013
0.0723335
0.0716923
0.0710869
0.0705147
0.0699734
0.0694609
0.0689753
0.0685147
0.0680777
0.0676626
0.067268
0.0668928
0.0665356
0.0661954
0.0658712
0.065562
0.0652669
0.0649851
0.0647159
0.0644585
0.0642122
0.0639764
0.0637506
0.0635342
0.0633268
0.0631276
0.116417
0.0999853
0.0873787
0.0774624
0.0694924
0.0629635
0.057528
0.0529403
0.0490217
0.0456396
0.0426934
0.040106
0.0378172
0.0357793
0.0339541
0.0323109
0.0308243
0.0294736
0.0282414
0.0271133
0.0260771
0.0251223
0.0242401
0.0234228
0.0226638
0.0219574
0.0212987
0.0206831
0.0201068
0.0195664
0.0190588
0.0185814
0.0181318
0.0177076
0.0173071
0.0169285
0.0165701
0.0162306
0.0159085
0.0156029
0.0153124
0.0150363
0.0147734
0.0145232
0.0142846
0.0140572
0.0138401
0.0136329
0.0134349
0.0132457
0.0130647
0.0128915
0.0127257
0.0125669
0.0124147
0.0122688
0.0121287
0.0119939
0.0118629
0.0117229
0.11639
0.0998142
0.0870859
0.0770516
0.0689691
0.0623383
0.0568122
0.0521437
0.0481528
0.0447058
0.0417011
0.0390607
0.0367237
0.0346416
0.0327757
0.0310948
0.029573
0.0281892
0.0269259
0.0257681
0.0247034
0.0237212
0.0228125
0.0219693
0.021185
0.0204536
0.0197701
0.0191301
0.0185294
0.0179647
0.0174328
0.0169311
0.016457
0.0160084
0.0155832
0.0151798
0.0147965
0.0144318
0.0140846
0.0137536
0.0134377
0.0131358
0.0128472
0.012571
0.0123064
0.0120527
0.0118092
0.0115754
0.0113508
0.0111347
0.0109267
0.0107265
0.0105335
0.0103474
0.0101678
0.00999444
0.00982698
0.00966511
0.00950847
0.00935643
0.11639
0.0998533
0.0871498
0.0771324
0.0690586
0.0624307
0.0569035
0.0522317
0.0482362
0.0447838
0.0417737
0.0391279
0.0367857
0.0346986
0.0328281
0.0311429
0.0296171
0.0282297
0.0269629
0.025802
0.0247345
0.0237497
0.0228385
0.021993
0.0212066
0.0204733
0.0197881
0.0191463
0.0185441
0.0179779
0.0174447
0.0169416
0.0164663
0.0160166
0.0155903
0.0151859
0.0148016
0.014436
0.0140878
0.0137558
0.0134389
0.0131361
0.0128465
0.0125692
0.0123036
0.0120488
0.0118043
0.0115694
0.0113436
0.0111263
0.0109172
0.0107157
0.0105215
0.0103342
0.0101533
0.00997869
0.00980991
0.00964673
0.00948885
0.00933605
0.11639
0.0998534
0.0871436
0.07712
0.0690412
0.0624099
0.056881
0.0522086
0.0482135
0.0447621
0.0417532
0.0391089
0.0367681
0.0346826
0.0328135
0.0311296
0.0296051
0.0282188
0.0269531
0.0257932
0.0247266
0.0237425
0.0228321
0.0219873
0.0212015
0.0204687
0.0197839
0.0191426
0.0185408
0.017975
0.0174421
0.0169394
0.0164643
0.0160148
0.0155888
0.0151846
0.0148004
0.014435
0.014087
0.0137551
0.0134383
0.0131357
0.0128462
0.012569
0.0123034
0.0120487
0.0118043
0.0115695
0.0113437
0.0111265
0.0109175
0.010716
0.0105218
0.0103345
0.0101537
0.0099791
0.00981034
0.00964717
0.00948931
0.00933652
0.11639
0.0998534
0.0871436
0.07712
0.0690413
0.0624099
0.056881
0.0522087
0.0482135
0.0447622
0.0417533
0.039109
0.0367682
0.0346826
0.0328136
0.0311296
0.0296051
0.0282188
0.0269532
0.0257932
0.0247266
0.0237425
0.022832
0.0219873
0.0212014
0.0204687
0.0197839
0.0191426
0.0185408
0.0179749
0.0174421
0.0169393
0.0164643
0.0160148
0.0155888
0.0151845
0.0148004
0.014435
0.0140869
0.0137551
0.0134383
0.0131356
0.0128461
0.012569
0.0123034
0.0120487
0.0118042
0.0115694
0.0113437
0.0111265
0.0109174
0.010716
0.0105218
0.0103345
0.0101537
0.00997905
0.0098103
0.00964713
0.00948927
0.00933647
0.11639
0.0998533
0.0871498
0.0771324
0.0690586
0.0624306
0.0569034
0.0522316
0.0482361
0.0447837
0.0417736
0.0391278
0.0367856
0.0346985
0.0328281
0.0311428
0.029617
0.0282296
0.0269629
0.025802
0.0247344
0.0237496
0.0228384
0.021993
0.0212065
0.0204733
0.019788
0.0191462
0.018544
0.0179778
0.0174446
0.0169416
0.0164663
0.0160165
0.0155903
0.0151858
0.0148015
0.0144359
0.0140877
0.0137557
0.0134388
0.013136
0.0128464
0.0125692
0.0123035
0.0120487
0.0118042
0.0115693
0.0113435
0.0111263
0.0109171
0.0107157
0.0105214
0.0103341
0.0101532
0.00997858
0.0098098
0.0096466
0.00948872
0.0093359
0.11639
0.0998142
0.0870859
0.0770517
0.0689692
0.0623384
0.0568123
0.0521438
0.0481529
0.0447058
0.0417011
0.0390607
0.0367237
0.0346416
0.0327757
0.0310947
0.029573
0.0281892
0.0269258
0.025768
0.0247034
0.0237212
0.0228124
0.0219692
0.0211849
0.0204536
0.0197701
0.01913
0.0185293
0.0179646
0.0174327
0.016931
0.0164569
0.0160083
0.0155831
0.0151797
0.0147963
0.0144317
0.0140844
0.0137532
0.0134371
0.0131351
0.0128462
0.0125697
0.0123047
0.0120506
0.0118068
0.0115726
0.0113476
0.0111311
0.0109227
0.010722
0.0105286
0.0103421
0.010162
0.00998824
0.00982032
0.00965797
0.00950084
0.00934842
0.116417
0.0999854
0.087379
0.0774628
0.0694933
0.0629649
0.05753
0.052943
0.0490251
0.0456436
0.0426981
0.0401114
0.0378232
0.0357858
0.0339612
0.0323184
0.0308322
0.0294818
0.0282499
0.027122
0.026086
0.0251313
0.0242491
0.0234318
0.0226727
0.0219662
0.0213072
0.0206914
0.0201149
0.0195743
0.0190666
0.018589
0.0181392
0.017715
0.0173144
0.0169357
0.0165772
0.0162377
0.0159156
0.01561
0.0153196
0.0150435
0.0147808
0.0145306
0.0142923
0.0140649
0.013848
0.0136409
0.0134431
0.013254
0.0130732
0.0129002
0.0127347
0.0125761
0.0124241
0.0122784
0.0121386
0.012004
0.0118732
0.0117329
0.200897
0.184964
0.171674
0.160443
0.150844
0.142558
0.135345
0.129021
0.123438
0.118481
0.114056
0.110087
0.106512
0.103278
0.100342
0.0976676
0.095224
0.0929849
0.0909278
0.0890331
0.0872841
0.085666
0.0841662
0.0827734
0.0814777
0.0802703
0.0791434
0.0780903
0.0771045
0.0761808
0.075314
0.0744997
0.0737339
0.0730128
0.0723332
0.0716921
0.0710867
0.0705145
0.0699732
0.0694607
0.0689751
0.0685145
0.0680775
0.0676624
0.0672678
0.0668925
0.0665353
0.0661951
0.0658709
0.0655617
0.0652666
0.0649848
0.0647155
0.064458
0.0642117
0.0639759
0.0637501
0.0635336
0.0633261
0.063127
0.200897
0.184965
0.171674
0.160443
0.150843
0.142558
0.135345
0.129021
0.123438
0.118481
0.114056
0.110087
0.106512
0.103278
0.100342
0.0976676
0.0952241
0.092985
0.0909279
0.0890332
0.0872842
0.0856661
0.0841664
0.0827735
0.0814778
0.0802704
0.0791436
0.0780904
0.0771046
0.0761809
0.0753141
0.0744998
0.0737339
0.0730129
0.0723333
0.0716921
0.0710867
0.0705145
0.0699732
0.0694607
0.0689751
0.0685145
0.0680774
0.0676623
0.0672678
0.0668925
0.0665353
0.0661951
0.0658709
0.0655617
0.0652666
0.0649849
0.0647156
0.0644582
0.0642119
0.0639761
0.0637503
0.0635339
0.0633265
0.0631273
0.116417
0.0999852
0.087378
0.0774614
0.0694919
0.0629636
0.0575285
0.052941
0.0490224
0.0456399
0.0426932
0.0401052
0.0378158
0.0357775
0.033952
0.0323085
0.030822
0.0294715
0.0282398
0.0271123
0.0260767
0.0251226
0.0242411
0.0234245
0.0226662
0.0219604
0.0213021
0.0206868
0.0201108
0.0195707
0.0190633
0.018586
0.0181364
0.0177123
0.0173119
0.0169334
0.0165751
0.0162356
0.0159137
0.0156081
0.0153177
0.0150416
0.0147789
0.0145287
0.0142903
0.014063
0.0138461
0.013639
0.0134411
0.013252
0.0130711
0.0128981
0.0127324
0.0125738
0.0124218
0.012276
0.0121362
0.0120015
0.0118705
0.0117304
0.11639
0.0998142
0.087086
0.0770518
0.0689692
0.0623384
0.0568122
0.0521437
0.0481527
0.0447056
0.0417009
0.0390606
0.0367235
0.0346414
0.0327755
0.0310946
0.0295728
0.028189
0.0269257
0.0257679
0.0247032
0.0237211
0.0228123
0.0219691
0.0211848
0.0204535
0.01977
0.0191299
0.0185292
0.0179645
0.0174327
0.0169309
0.0164568
0.0160082
0.015583
0.0151796
0.0147963
0.0144317
0.0140844
0.0137534
0.0134375
0.0131357
0.0128471
0.0125709
0.0123063
0.0120526
0.0118091
0.0115753
0.0113507
0.0111346
0.0109266
0.0107263
0.0105333
0.0103472
0.0101677
0.00999431
0.00982684
0.00966496
0.0095083
0.00935624
0.11639
0.0998532
0.0871498
0.0771324
0.0690586
0.0624306
0.0569034
0.0522316
0.0482361
0.0447837
0.0417736
0.0391278
0.0367855
0.0346985
0.032828
0.0311428
0.029617
0.0282296
0.0269629
0.025802
0.0247344
0.0237496
0.0228384
0.021993
0.0212065
0.0204733
0.019788
0.0191462
0.018544
0.0179778
0.0174446
0.0169416
0.0164663
0.0160165
0.0155903
0.0151858
0.0148015
0.0144359
0.0140877
0.0137557
0.0134388
0.013136
0.0128464
0.0125691
0.0123035
0.0120487
0.0118042
0.0115693
0.0113435
0.0111262
0.0109171
0.0107156
0.0105214
0.010334
0.0101532
0.00997854
0.00980976
0.00964657
0.00948869
0.00933588
0.11639
0.0998533
0.0871436
0.0771201
0.0690413
0.0624099
0.056881
0.0522086
0.0482134
0.044762
0.0417531
0.0391088
0.036768
0.0346824
0.0328134
0.0311295
0.029605
0.0282187
0.026953
0.0257931
0.0247265
0.0237424
0.022832
0.0219872
0.0212014
0.0204686
0.0197838
0.0191425
0.0185407
0.0179749
0.017442
0.0169393
0.0164642
0.0160147
0.0155887
0.0151844
0.0148003
0.0144349
0.0140869
0.013755
0.0134382
0.0131355
0.012846
0.0125689
0.0123033
0.0120486
0.0118042
0.0115693
0.0113436
0.0111264
0.0109173
0.0107159
0.0105217
0.0103344
0.0101536
0.00997894
0.00981018
0.009647
0.00948914
0.00933634
0.11639
0.0998533
0.0871436
0.0771201
0.0690413
0.06241
0.056881
0.0522087
0.0482135
0.0447621
0.0417532
0.0391088
0.0367681
0.0346825
0.0328135
0.0311295
0.029605
0.0282188
0.0269531
0.0257932
0.0247265
0.0237425
0.022832
0.0219872
0.0212014
0.0204686
0.0197838
0.0191425
0.0185407
0.0179749
0.017442
0.0169393
0.0164642
0.0160147
0.0155887
0.0151844
0.0148003
0.0144349
0.0140869
0.013755
0.0134382
0.0131355
0.012846
0.0125689
0.0123033
0.0120486
0.0118041
0.0115693
0.0113436
0.0111264
0.0109173
0.0107159
0.0105217
0.0103344
0.0101535
0.00997892
0.00981016
0.00964699
0.00948912
0.00933632
0.11639
0.0998532
0.0871498
0.0771324
0.0690586
0.0624305
0.0569034
0.0522315
0.048236
0.0447836
0.0417735
0.0391277
0.0367854
0.0346984
0.032828
0.0311427
0.029617
0.0282295
0.0269628
0.0258019
0.0247344
0.0237496
0.0228383
0.0219929
0.0212065
0.0204732
0.0197879
0.0191462
0.018544
0.0179778
0.0174446
0.0169415
0.0164662
0.0160164
0.0155902
0.0151858
0.0148015
0.0144359
0.0140877
0.0137557
0.0134388
0.013136
0.0128463
0.0125691
0.0123034
0.0120487
0.0118041
0.0115692
0.0113434
0.0111262
0.010917
0.0107156
0.0105213
0.010334
0.0101531
0.00997848
0.0098097
0.0096465
0.00948861
0.00933579
0.11639
0.0998142
0.087086
0.0770519
0.0689693
0.0623385
0.0568123
0.0521437
0.0481528
0.0447057
0.041701
0.0390606
0.0367236
0.0346415
0.0327756
0.0310946
0.0295729
0.0281891
0.0269257
0.025768
0.0247033
0.0237211
0.0228123
0.0219691
0.0211848
0.0204535
0.01977
0.0191299
0.0185292
0.0179645
0.0174327
0.0169309
0.0164568
0.0160082
0.015583
0.0151796
0.0147962
0.0144316
0.0140843
0.0137531
0.013437
0.013135
0.0128461
0.0125696
0.0123046
0.0120505
0.0118067
0.0115725
0.0113474
0.0111309
0.0109225
0.0107218
0.0105284
0.0103419
0.0101619
0.00998804
0.00982012
0.00965776
0.00950063
0.00934817
0.116417
0.0999853
0.0873785
0.0774623
0.0694933
0.0629656
0.0575314
0.0529448
0.0490271
0.0456457
0.0426999
0.0401128
0.0378242
0.0357864
0.0339613
0.032318
0.0308315
0.0294809
0.0282489
0.027121
0.0260849
0.0251303
0.0242483
0.0234312
0.0226723
0.021966
0.0213071
0.0206914
0.0201149
0.0195742
0.0190662
0.0185883
0.0181382
0.0177135
0.0173125
0.0169333
0.0165745
0.0162345
0.0159122
0.0156062
0.0153156
0.0150393
0.0147765
0.0145263
0.014288
0.0140608
0.0138441
0.0136372
0.0134396
0.0132507
0.0130702
0.0128975
0.0127322
0.0125739
0.0124223
0.012277
0.0121375
0.0120032
0.0118727
0.0117327
0.200897
0.184965
0.171674
0.160443
0.150843
0.142557
0.135345
0.12902
0.123438
0.118481
0.114056
0.110087
0.106512
0.103278
0.100342
0.0976675
0.0952239
0.0929849
0.0909277
0.089033
0.087284
0.085666
0.0841662
0.0827733
0.0814776
0.0802702
0.0791433
0.0780901
0.0771044
0.0761806
0.0753138
0.0744995
0.0737336
0.0730126
0.072333
0.0716918
0.0710864
0.0705141
0.0699728
0.0694603
0.0689746
0.0685141
0.068077
0.0676618
0.0672673
0.066892
0.0665348
0.0661945
0.0658703
0.0655611
0.0652659
0.0649841
0.0647148
0.0644574
0.0642111
0.0639753
0.0637494
0.0635329
0.0633254
0.0631263
)
;

boundaryField
{
    wall
    {
        type            compressible::alphatJayatillekeWallFunction;
        Prt             0.85;
        value           uniform 0;
    }
    inlet
    {
        type            calculated;
        value           uniform 9.47574;
    }
    outlet
    {
        type            calculated;
        value           nonuniform List<scalar> 
20
(
0.0631276
0.0117229
0.00935643
0.00933605
0.00933652
0.00933647
0.0093359
0.00934842
0.0117329
0.063127
0.0631273
0.0117304
0.00935624
0.00933588
0.00933634
0.00933632
0.00933579
0.00934817
0.0117327
0.0631263
)
;
    }
    heatWall
    {
        type            compressible::alphatJayatillekeWallFunction;
        Prt             0.85;
        value           nonuniform List<scalar> 
240
(
0.0209458
0.0209458
0.0193321
0.0193322
0.0179825
0.0179825
0.0168393
0.0168392
0.01586
0.01586
0.015013
0.015013
0.0142744
0.0142744
0.0136256
0.0136256
0.013052
0.013052
0.012542
0.012542
0.0120861
0.0120861
0.0116767
0.0116766
0.0113074
0.0113073
0.0109729
0.0109729
0.0106691
0.010669
0.010392
0.010392
0.0101386
0.0101386
0.00990617
0.00990616
0.00969248
0.00969247
0.00949552
0.00949551
0.00931357
0.00931356
0.00914513
0.00914513
0.00898891
0.0089889
0.00884373
0.00884373
0.0087086
0.0087086
0.00858262
0.00858261
0.00846498
0.00846497
0.00835498
0.00835496
0.00825197
0.00825196
0.0081554
0.00815538
0.00806475
0.00806473
0.00797955
0.00797953
0.00789939
0.00789937
0.00782389
0.00782387
0.00775272
0.00775269
0.00768554
0.00768551
0.00762209
0.00762206
0.00756211
0.00756207
0.00750534
0.0075053
0.00745158
0.00745154
0.00740063
0.00740058
0.0073523
0.00735225
0.00730642
0.00730636
0.00726283
0.00726278
0.00722139
0.00722134
0.00718198
0.00718192
0.00714445
0.00714439
0.0071087
0.00710864
0.00707462
0.00707456
0.00704212
0.00704205
0.00701109
0.00701103
0.00698146
0.00698139
0.00695314
0.00695307
0.00692606
0.00692599
0.00690015
0.00690008
0.00687534
0.00687527
0.00685157
0.0068515
0.00682879
0.00682872
0.00680696
0.00680688
0.00678599
0.00678591
0.0209458
0.0209458
0.0193322
0.0193322
0.0179825
0.0179825
0.0168393
0.0168392
0.0158601
0.01586
0.0150131
0.015013
0.0142745
0.0142744
0.0136257
0.0136256
0.0130521
0.013052
0.0125421
0.012542
0.0120862
0.0120861
0.0116767
0.0116767
0.0113074
0.0113074
0.010973
0.0109729
0.0106691
0.0106691
0.010392
0.010392
0.0101386
0.0101386
0.00990622
0.00990618
0.00969253
0.00969249
0.00949557
0.00949553
0.00931362
0.00931358
0.00914518
0.00914515
0.00898895
0.00898892
0.00884377
0.00884375
0.00870864
0.00870862
0.00858265
0.00858263
0.00846501
0.00846499
0.00835501
0.00835499
0.008252
0.00825198
0.00815543
0.00815541
0.00806477
0.00806475
0.00797957
0.00797956
0.00789941
0.0078994
0.00782392
0.0078239
0.00775274
0.00775272
0.00768557
0.00768555
0.00762211
0.00762209
0.00756213
0.0075621
0.00750536
0.00750534
0.0074516
0.00745158
0.00740065
0.00740063
0.00735232
0.00735229
0.00730644
0.00730641
0.00726285
0.00726283
0.00722142
0.00722139
0.007182
0.00718197
0.00714448
0.00714445
0.00710873
0.0071087
0.00707466
0.00707463
0.00704215
0.00704212
0.00701113
0.0070111
0.0069815
0.00698147
0.00695318
0.00695315
0.00692611
0.00692608
0.0069002
0.00690017
0.00687539
0.00687536
0.00685163
0.0068516
0.00682886
0.00682882
0.00680702
0.00680699
0.00678606
0.00678602
)
;
    }
}


// ************************************************************************* //
