/*--------------------------------*- C++ -*----------------------------------*\
  =========                 |
  \\      /  F ield         | OpenFOAM: The Open Source CFD Toolbox
   \\    /   O peration     | Website:  https://openfoam.org
    \\  /    A nd           | Version:  8
     \\/     M anipulation  |
\*---------------------------------------------------------------------------*/
FoamFile
{
    version     2.0;
    format      ascii;
    class       volScalarField;
    location    "400";
    object      k;
}
// * * * * * * * * * * * * * * * * * * * * * * * * * * * * * * * * * * * * * //

dimensions      [0 2 -2 0 0 0 0];

internalField   nonuniform List<scalar> 
1200
(
0.0505472
0.0428478
0.0369112
0.0322398
0.0284974
0.0254526
0.0229422
0.0208481
0.0190829
0.017581
0.0162923
0.0151782
0.0142082
0.0133585
0.0126097
0.0119465
0.0113562
0.0108284
0.0103545
0.0099275
0.00954126
0.00919078
0.00887177
0.00858055
0.008314
0.0080694
0.00784442
0.00763702
0.00744542
0.00726807
0.00710361
0.00695082
0.00680863
0.00667611
0.0065524
0.00643675
0.00632849
0.00622701
0.00613177
0.00604227
0.00595807
0.00587876
0.00580399
0.00573342
0.00566674
0.00560369
0.005544
0.00548745
0.00543382
0.00538292
0.00533456
0.00528859
0.00524486
0.00520321
0.00516352
0.00512566
0.00508954
0.00505503
0.00502207
0.00499053
0.0434539
0.0320528
0.0244796
0.0192387
0.0154835
0.0127107
0.0106109
0.008986
0.00770496
0.00667846
0.00584406
0.00515718
0.00458534
0.00410446
0.00369639
0.00334727
0.00304635
0.00278521
0.0025572
0.00235699
0.00218028
0.00202354
0.00188391
0.00175901
0.00164687
0.00154581
0.00145444
0.00137158
0.00129622
0.00122748
0.00116462
0.00110701
0.00105407
0.00100534
0.000960378
0.000918815
0.000880324
0.000844615
0.000811432
0.000780547
0.000751759
0.000724887
0.000699768
0.000676258
0.000654228
0.000633558
0.000614144
0.00059589
0.000578707
0.00056252
0.000547253
0.000532841
0.000519225
0.000506346
0.000494155
0.000482606
0.000471652
0.000461224
0.000451203
0.000440612
0.0434334
0.0319432
0.0243158
0.0190352
0.0152511
0.0124596
0.0103485
0.00871761
0.00743425
0.00640797
0.00557556
0.00489186
0.004324
0.00384759
0.00344428
0.00310005
0.00280404
0.00254777
0.00232452
0.00212892
0.00195663
0.00180413
0.00166855
0.00154748
0.00143896
0.00134133
0.00125318
0.00117335
0.00110082
0.00103474
0.000974383
0.000919101
0.00086835
0.000821651
0.000778588
0.000738797
0.000701956
0.000667785
0.000636038
0.000606492
0.000578949
0.000553235
0.000529193
0.000506681
0.000485574
0.000465759
0.000447134
0.000429605
0.000413089
0.000397511
0.000382801
0.000368898
0.000355742
0.000343283
0.000331472
0.000320266
0.000309623
0.000299507
0.000289878
0.000280682
0.0434334
0.0319682
0.0243515
0.0190751
0.0152908
0.0124965
0.0103818
0.00874705
0.00746001
0.00643037
0.00559499
0.00490871
0.00433861
0.00386027
0.0034553
0.00310965
0.00281241
0.00255509
0.00233092
0.00213453
0.00196155
0.00180846
0.00167235
0.00155083
0.0014419
0.00134391
0.00125545
0.00117534
0.00110256
0.00103627
0.000975705
0.000920246
0.000869335
0.000822492
0.000779299
0.000739389
0.00070244
0.000668169
0.000636325
0.000606686
0.000579054
0.000553254
0.000529128
0.000506536
0.00048535
0.000465458
0.000446757
0.000429154
0.000412565
0.000396915
0.000382135
0.000368161
0.000354936
0.000342409
0.00033053
0.000319257
0.000308549
0.000298369
0.000288683
0.00027946
0.0434334
0.0319683
0.0243481
0.019069
0.0152831
0.0124882
0.0103736
0.00873933
0.00745299
0.00642413
0.00558951
0.00490394
0.00433447
0.0038567
0.00345223
0.00310699
0.00281013
0.00255312
0.00232923
0.00213307
0.00196029
0.00180737
0.00167141
0.00155002
0.0014412
0.00134331
0.00125493
0.00117489
0.00110217
0.00103593
0.000975418
0.00092
0.000869124
0.000822313
0.000779147
0.000739261
0.000702333
0.00066808
0.000636253
0.000606628
0.000579009
0.000553219
0.000529103
0.000506519
0.000485341
0.000465455
0.000446759
0.000429161
0.000412577
0.00039693
0.000382152
0.000368181
0.000354958
0.000342433
0.000330555
0.000319283
0.000308576
0.000298396
0.000288711
0.000279488
0.0434334
0.0319683
0.0243481
0.019069
0.0152831
0.0124882
0.0103736
0.00873935
0.00745301
0.00642415
0.00558953
0.00490395
0.00433449
0.00385671
0.00345223
0.003107
0.00281014
0.00255313
0.00232923
0.00213307
0.00196029
0.00180737
0.00167141
0.00155002
0.0014412
0.0013433
0.00125493
0.00117488
0.00110217
0.00103593
0.000975414
0.000919995
0.00086912
0.000822308
0.000779142
0.000739256
0.000702329
0.000668076
0.000636249
0.000606624
0.000579005
0.000553216
0.000529099
0.000506515
0.000485337
0.000465452
0.000446756
0.000429158
0.000412574
0.000396927
0.00038215
0.000368178
0.000354956
0.00034243
0.000330553
0.000319281
0.000308573
0.000298394
0.000288708
0.000279485
0.0434334
0.0319682
0.0243515
0.0190751
0.0152907
0.0124965
0.0103817
0.00874701
0.00745997
0.00643034
0.00559496
0.00490868
0.00433859
0.00386025
0.00345529
0.00310963
0.0028124
0.00255507
0.00233091
0.00213452
0.00196154
0.00180845
0.00167234
0.00155082
0.0014419
0.0013439
0.00125544
0.00117533
0.00110256
0.00103626
0.000975699
0.00092024
0.000869329
0.000822487
0.000779294
0.000739384
0.000702435
0.000668165
0.000636321
0.000606682
0.00057905
0.00055325
0.000529124
0.000506532
0.000485346
0.000465454
0.000446753
0.00042915
0.000412561
0.000396911
0.00038213
0.000368156
0.000354931
0.000342403
0.000330524
0.00031925
0.000308542
0.000298361
0.000288675
0.000279452
0.0434334
0.0319432
0.0243159
0.0190353
0.0152512
0.0124596
0.0103485
0.00871764
0.00743427
0.00640798
0.00557557
0.00489187
0.004324
0.00384759
0.00344428
0.00310004
0.00280403
0.00254776
0.00232451
0.00212891
0.00195662
0.00180412
0.00166854
0.00154747
0.00143895
0.00134132
0.00125317
0.00117334
0.00110081
0.00103473
0.000974372
0.000919091
0.000868339
0.000821641
0.000778578
0.000738786
0.000701944
0.000667771
0.000636016
0.000606459
0.000578902
0.00055317
0.000529107
0.000506573
0.000485441
0.000465601
0.00044695
0.000429397
0.000412857
0.000397255
0.000382521
0.000368593
0.000355414
0.000342932
0.000331098
0.000319869
0.000309204
0.000299065
0.000289412
0.000280201
0.0434539
0.0320529
0.0244798
0.0192389
0.0154839
0.0127113
0.0106116
0.0089869
0.00770603
0.00667965
0.00584536
0.00515857
0.0045868
0.00410597
0.00369793
0.00334882
0.0030479
0.00278676
0.00255874
0.00235851
0.00218176
0.00202498
0.00188531
0.00176036
0.00164816
0.00154704
0.00145561
0.00137269
0.00129726
0.00122847
0.00116557
0.00110791
0.00105494
0.00100617
0.000961182
0.000919593
0.00088108
0.000845352
0.000812155
0.000781261
0.000752464
0.000725587
0.000700465
0.000676955
0.000654926
0.000634257
0.000614844
0.000596592
0.000579414
0.000563231
0.000547969
0.000533563
0.000519954
0.000507084
0.000494904
0.000483366
0.000472422
0.000462003
0.000451986
0.000441367
0.0505472
0.0428477
0.036911
0.0322396
0.0284971
0.0254524
0.022942
0.0208479
0.0190827
0.0175808
0.0162921
0.015178
0.014208
0.0133583
0.0126096
0.0119464
0.0113561
0.0108283
0.0103544
0.00992739
0.00954117
0.00919069
0.00887168
0.00858047
0.00831392
0.00806933
0.00784435
0.00763696
0.00744536
0.00726802
0.00710356
0.00695077
0.00680859
0.00667607
0.00655236
0.00643672
0.00632846
0.00622698
0.00613173
0.00604223
0.00595803
0.00587873
0.00580396
0.00573338
0.0056667
0.00560365
0.00554395
0.0054874
0.00543377
0.00538286
0.00533451
0.00528853
0.00524479
0.00520313
0.00516344
0.00512558
0.00508945
0.00505494
0.00502197
0.00499042
0.0505473
0.0428478
0.036911
0.0322395
0.028497
0.0254522
0.0229419
0.0208478
0.0190826
0.0175808
0.0162921
0.015178
0.0142081
0.0133583
0.0126096
0.0119464
0.0113561
0.0108283
0.0103545
0.00992741
0.00954119
0.00919072
0.00887171
0.0085805
0.00831395
0.00806935
0.00784438
0.00763698
0.00744538
0.00726804
0.00710357
0.00695078
0.0068086
0.00667608
0.00655237
0.00643672
0.00632846
0.00622698
0.00613173
0.00604223
0.00595803
0.00587872
0.00580395
0.00573338
0.0056667
0.00560364
0.00554395
0.0054874
0.00543377
0.00538287
0.00533452
0.00528855
0.00524481
0.00520316
0.00516347
0.00512561
0.00508949
0.00505498
0.00502202
0.00499048
0.0434539
0.0320527
0.0244792
0.0192382
0.0154832
0.0127108
0.0106111
0.00898624
0.00770517
0.00667855
0.005844
0.00515697
0.00458501
0.00410405
0.00369592
0.00334678
0.00304589
0.00278483
0.00255691
0.00235681
0.0021802
0.00202359
0.00188408
0.00175928
0.00164721
0.00154623
0.00145491
0.00137208
0.00129674
0.00122801
0.00116516
0.00110755
0.00105461
0.00100587
0.000960907
0.000919342
0.000880851
0.000845143
0.000811959
0.000781072
0.000752281
0.000725406
0.000700287
0.000676778
0.000654749
0.000634083
0.000614672
0.000596421
0.000579244
0.000563057
0.000547792
0.000533383
0.000519769
0.000506898
0.000494717
0.000483178
0.000472228
0.000461804
0.000451784
0.000441177
0.0434334
0.0319432
0.0243159
0.0190353
0.0152512
0.0124596
0.0103485
0.0087176
0.00743422
0.00640793
0.00557552
0.00489182
0.00432396
0.00384755
0.00344424
0.00310001
0.002804
0.00254774
0.00232449
0.00212888
0.0019566
0.00180411
0.00166852
0.00154746
0.00143894
0.0013413
0.00125316
0.00117332
0.0011008
0.00103472
0.000974364
0.000919083
0.000868332
0.000821633
0.000778571
0.00073878
0.000701939
0.00066777
0.000636024
0.000606479
0.000578937
0.000553224
0.000529182
0.000506672
0.000485566
0.000465751
0.000447126
0.000429598
0.000413082
0.000397504
0.000382794
0.00036889
0.000355734
0.000343275
0.000331464
0.000320257
0.000309615
0.000299498
0.000289868
0.00028067
0.0434334
0.0319682
0.0243515
0.0190751
0.0152908
0.0124965
0.0103818
0.00874702
0.00745997
0.00643034
0.00559496
0.00490868
0.00433858
0.00386025
0.00345528
0.00310963
0.0028124
0.00255507
0.00233091
0.00213452
0.00196154
0.00180845
0.00167234
0.00155082
0.0014419
0.0013439
0.00125544
0.00117533
0.00110256
0.00103626
0.000975698
0.000920239
0.000869328
0.000822485
0.000779292
0.000739382
0.000702433
0.000668162
0.000636318
0.000606679
0.000579047
0.000553247
0.000529121
0.000506528
0.000485342
0.00046545
0.000446749
0.000429146
0.000412557
0.000396907
0.000382126
0.000368152
0.000354927
0.0003424
0.000330521
0.000319247
0.000308539
0.000298359
0.000288673
0.00027945
0.0434334
0.0319682
0.0243481
0.019069
0.0152831
0.0124882
0.0103736
0.00873932
0.00745298
0.00642411
0.00558948
0.00490391
0.00433445
0.00385668
0.0034522
0.00310697
0.00281011
0.0025531
0.00232921
0.00213305
0.00196028
0.00180736
0.0016714
0.00155001
0.00144119
0.00134329
0.00125492
0.00117488
0.00110216
0.00103592
0.000975407
0.000919989
0.000869114
0.000822302
0.000779136
0.00073925
0.000702323
0.00066807
0.000636243
0.000606618
0.000578999
0.000553209
0.000529093
0.000506509
0.000485331
0.000465445
0.000446749
0.000429151
0.000412567
0.00039692
0.000382143
0.000368171
0.000354948
0.000342422
0.000330545
0.000319273
0.000308566
0.000298386
0.0002887
0.000279478
0.0434334
0.0319682
0.0243481
0.019069
0.0152831
0.0124883
0.0103736
0.00873934
0.007453
0.00642413
0.0055895
0.00490392
0.00433446
0.00385669
0.00345221
0.00310698
0.00281012
0.00255311
0.00232922
0.00213306
0.00196028
0.00180736
0.0016714
0.00155001
0.00144119
0.0013433
0.00125492
0.00117488
0.00110216
0.00103592
0.000975406
0.000919988
0.000869112
0.000822301
0.000779135
0.000739249
0.000702321
0.000668069
0.000636241
0.000606616
0.000578997
0.000553208
0.000529092
0.000506507
0.000485329
0.000465444
0.000446748
0.00042915
0.000412565
0.000396919
0.000382141
0.00036817
0.000354947
0.000342421
0.000330544
0.000319272
0.000308564
0.000298385
0.000288699
0.000279476
0.0434334
0.0319682
0.0243515
0.0190751
0.0152907
0.0124965
0.0103817
0.00874698
0.00745994
0.00643031
0.00559493
0.00490866
0.00433856
0.00386023
0.00345527
0.00310961
0.00281238
0.00255506
0.0023309
0.00213451
0.00196153
0.00180844
0.00167233
0.00155081
0.00144189
0.0013439
0.00125544
0.00117532
0.00110255
0.00103625
0.000975694
0.000920235
0.000869324
0.000822481
0.000779288
0.000739378
0.00070243
0.000668159
0.000636315
0.000606676
0.000579045
0.000553245
0.000529119
0.000506526
0.000485341
0.000465448
0.000446747
0.000429144
0.000412555
0.000396905
0.000382124
0.00036815
0.000354925
0.000342397
0.000330518
0.000319244
0.000308535
0.000298355
0.000288668
0.000279445
0.0434334
0.0319432
0.0243159
0.0190353
0.0152513
0.0124597
0.0103485
0.00871762
0.00743425
0.00640796
0.00557554
0.00489184
0.00432397
0.00384756
0.00344425
0.00310002
0.00280401
0.00254775
0.00232449
0.00212889
0.0019566
0.00180411
0.00166853
0.00154746
0.00143894
0.00134131
0.00125316
0.00117333
0.0011008
0.00103472
0.000974363
0.000919081
0.00086833
0.000821631
0.000778568
0.000738776
0.000701935
0.000667762
0.000636007
0.000606449
0.000578892
0.00055316
0.000529097
0.000506563
0.000485431
0.00046559
0.000446939
0.000429386
0.000412845
0.000397243
0.000382509
0.000368581
0.000355402
0.000342919
0.000331085
0.000319856
0.000309191
0.000299052
0.0002894
0.000280186
0.0434539
0.0320528
0.0244795
0.0192386
0.0154839
0.0127116
0.0106122
0.00898753
0.00770667
0.00668024
0.00584585
0.00515893
0.00458704
0.00410609
0.00369795
0.00334875
0.00304777
0.0027866
0.00255856
0.00235832
0.00218158
0.00202483
0.00188519
0.00176027
0.0016481
0.00154701
0.0014556
0.00137269
0.00129726
0.00122845
0.00116552
0.00110783
0.00105482
0.00100601
0.000960972
0.000919341
0.000880789
0.000845027
0.000811801
0.000780882
0.00075207
0.000725183
0.00070006
0.000676555
0.000654538
0.000633888
0.000614497
0.000596268
0.000579113
0.000562951
0.000547713
0.000533333
0.000519749
0.000506908
0.000494758
0.00048325
0.000472333
0.000461941
0.00045195
0.000441353
0.0505473
0.0428478
0.036911
0.0322395
0.028497
0.0254522
0.0229418
0.0208478
0.0190826
0.0175807
0.0162921
0.0151779
0.014208
0.0133583
0.0126096
0.0119464
0.011356
0.0108283
0.0103544
0.00992738
0.00954115
0.00919068
0.00887166
0.00858045
0.0083139
0.00806931
0.00784433
0.00763693
0.00744534
0.00726799
0.00710352
0.00695073
0.00680855
0.00667602
0.00655231
0.00643666
0.0063284
0.00622691
0.00613166
0.00604216
0.00595795
0.00587865
0.00580387
0.00573329
0.00566661
0.00560355
0.00554386
0.0054873
0.00543367
0.00538276
0.0053344
0.00528843
0.00524468
0.00520303
0.00516333
0.00512547
0.00508934
0.00505483
0.00502186
0.00499031
)
;

boundaryField
{
    wall
    {
        type            kqRWallFunction;
        value           nonuniform List<scalar> 
1200
(
0.0505472
0.0434539
0.0434334
0.0434334
0.0434334
0.0434334
0.0434334
0.0434334
0.0434539
0.0505472
0.0428478
0.0320528
0.0319432
0.0319682
0.0319683
0.0319683
0.0319682
0.0319432
0.0320529
0.0428477
0.0369112
0.0244796
0.0243158
0.0243515
0.0243481
0.0243481
0.0243515
0.0243159
0.0244798
0.036911
0.0322398
0.0192387
0.0190352
0.0190751
0.019069
0.019069
0.0190751
0.0190353
0.0192389
0.0322396
0.0284974
0.0154835
0.0152511
0.0152908
0.0152831
0.0152831
0.0152907
0.0152512
0.0154839
0.0284971
0.0254526
0.0127107
0.0124596
0.0124965
0.0124882
0.0124882
0.0124965
0.0124596
0.0127113
0.0254524
0.0229422
0.0106109
0.0103485
0.0103818
0.0103736
0.0103736
0.0103817
0.0103485
0.0106116
0.022942
0.0208481
0.008986
0.00871761
0.00874705
0.00873933
0.00873935
0.00874701
0.00871764
0.0089869
0.0208479
0.0190829
0.00770496
0.00743425
0.00746001
0.00745299
0.00745301
0.00745997
0.00743427
0.00770603
0.0190827
0.017581
0.00667846
0.00640797
0.00643037
0.00642413
0.00642415
0.00643034
0.00640798
0.00667965
0.0175808
0.0162923
0.00584406
0.00557556
0.00559499
0.00558951
0.00558953
0.00559496
0.00557557
0.00584536
0.0162921
0.0151782
0.00515718
0.00489186
0.00490871
0.00490394
0.00490395
0.00490868
0.00489187
0.00515857
0.015178
0.0142082
0.00458534
0.004324
0.00433861
0.00433447
0.00433449
0.00433859
0.004324
0.0045868
0.014208
0.0133585
0.00410446
0.00384759
0.00386027
0.0038567
0.00385671
0.00386025
0.00384759
0.00410597
0.0133583
0.0126097
0.00369639
0.00344428
0.0034553
0.00345223
0.00345223
0.00345529
0.00344428
0.00369793
0.0126096
0.0119465
0.00334727
0.00310005
0.00310965
0.00310699
0.003107
0.00310963
0.00310004
0.00334882
0.0119464
0.0113562
0.00304635
0.00280404
0.00281241
0.00281013
0.00281014
0.0028124
0.00280403
0.0030479
0.0113561
0.0108284
0.00278521
0.00254777
0.00255509
0.00255312
0.00255313
0.00255507
0.00254776
0.00278676
0.0108283
0.0103545
0.0025572
0.00232452
0.00233092
0.00232923
0.00232923
0.00233091
0.00232451
0.00255874
0.0103544
0.0099275
0.00235699
0.00212892
0.00213453
0.00213307
0.00213307
0.00213452
0.00212891
0.00235851
0.00992739
0.00954126
0.00218028
0.00195663
0.00196155
0.00196029
0.00196029
0.00196154
0.00195662
0.00218176
0.00954117
0.00919078
0.00202354
0.00180413
0.00180846
0.00180737
0.00180737
0.00180845
0.00180412
0.00202498
0.00919069
0.00887177
0.00188391
0.00166855
0.00167235
0.00167141
0.00167141
0.00167234
0.00166854
0.00188531
0.00887168
0.00858055
0.00175901
0.00154748
0.00155083
0.00155002
0.00155002
0.00155082
0.00154747
0.00176036
0.00858047
0.008314
0.00164687
0.00143896
0.0014419
0.0014412
0.0014412
0.0014419
0.00143895
0.00164816
0.00831392
0.0080694
0.00154581
0.00134133
0.00134391
0.00134331
0.0013433
0.0013439
0.00134132
0.00154704
0.00806933
0.00784442
0.00145444
0.00125318
0.00125545
0.00125493
0.00125493
0.00125544
0.00125317
0.00145561
0.00784435
0.00763702
0.00137158
0.00117335
0.00117534
0.00117489
0.00117488
0.00117533
0.00117334
0.00137269
0.00763696
0.00744542
0.00129622
0.00110082
0.00110256
0.00110217
0.00110217
0.00110256
0.00110081
0.00129726
0.00744536
0.00726807
0.00122748
0.00103474
0.00103627
0.00103593
0.00103593
0.00103626
0.00103473
0.00122847
0.00726802
0.00710361
0.00116462
0.000974383
0.000975705
0.000975418
0.000975414
0.000975699
0.000974372
0.00116557
0.00710356
0.00695082
0.00110701
0.000919101
0.000920246
0.00092
0.000919995
0.00092024
0.000919091
0.00110791
0.00695077
0.00680863
0.00105407
0.00086835
0.000869335
0.000869124
0.00086912
0.000869329
0.000868339
0.00105494
0.00680859
0.00667611
0.00100534
0.000821651
0.000822492
0.000822313
0.000822308
0.000822487
0.000821641
0.00100617
0.00667607
0.0065524
0.000960378
0.000778588
0.000779299
0.000779147
0.000779142
0.000779294
0.000778578
0.000961182
0.00655236
0.00643675
0.000918815
0.000738797
0.000739389
0.000739261
0.000739256
0.000739384
0.000738786
0.000919593
0.00643672
0.00632849
0.000880324
0.000701956
0.00070244
0.000702333
0.000702329
0.000702435
0.000701944
0.00088108
0.00632846
0.00622701
0.000844615
0.000667785
0.000668169
0.00066808
0.000668076
0.000668165
0.000667771
0.000845352
0.00622698
0.00613177
0.000811432
0.000636038
0.000636325
0.000636253
0.000636249
0.000636321
0.000636016
0.000812155
0.00613173
0.00604227
0.000780547
0.000606492
0.000606686
0.000606628
0.000606624
0.000606682
0.000606459
0.000781261
0.00604223
0.00595807
0.000751759
0.000578949
0.000579054
0.000579009
0.000579005
0.00057905
0.000578902
0.000752464
0.00595803
0.00587876
0.000724887
0.000553235
0.000553254
0.000553219
0.000553216
0.00055325
0.00055317
0.000725587
0.00587873
0.00580399
0.000699768
0.000529193
0.000529128
0.000529103
0.000529099
0.000529124
0.000529107
0.000700465
0.00580396
0.00573342
0.000676258
0.000506681
0.000506536
0.000506519
0.000506515
0.000506532
0.000506573
0.000676955
0.00573338
0.00566674
0.000654228
0.000485574
0.00048535
0.000485341
0.000485337
0.000485346
0.000485441
0.000654926
0.0056667
0.00560369
0.000633558
0.000465759
0.000465458
0.000465455
0.000465452
0.000465454
0.000465601
0.000634257
0.00560365
0.005544
0.000614144
0.000447134
0.000446757
0.000446759
0.000446756
0.000446753
0.00044695
0.000614844
0.00554395
0.00548745
0.00059589
0.000429605
0.000429154
0.000429161
0.000429158
0.00042915
0.000429397
0.000596592
0.0054874
0.00543382
0.000578707
0.000413089
0.000412565
0.000412577
0.000412574
0.000412561
0.000412857
0.000579414
0.00543377
0.00538292
0.00056252
0.000397511
0.000396915
0.00039693
0.000396927
0.000396911
0.000397255
0.000563231
0.00538286
0.00533456
0.000547253
0.000382801
0.000382135
0.000382152
0.00038215
0.00038213
0.000382521
0.000547969
0.00533451
0.00528859
0.000532841
0.000368898
0.000368161
0.000368181
0.000368178
0.000368156
0.000368593
0.000533563
0.00528853
0.00524486
0.000519225
0.000355742
0.000354936
0.000354958
0.000354956
0.000354931
0.000355414
0.000519954
0.00524479
0.00520321
0.000506346
0.000343283
0.000342409
0.000342433
0.00034243
0.000342403
0.000342932
0.000507084
0.00520313
0.00516352
0.000494155
0.000331472
0.00033053
0.000330555
0.000330553
0.000330524
0.000331098
0.000494904
0.00516344
0.00512566
0.000482606
0.000320266
0.000319257
0.000319283
0.000319281
0.00031925
0.000319869
0.000483366
0.00512558
0.00508954
0.000471652
0.000309623
0.000308549
0.000308576
0.000308573
0.000308542
0.000309204
0.000472422
0.00508945
0.00505503
0.000461224
0.000299507
0.000298369
0.000298396
0.000298394
0.000298361
0.000299065
0.000462003
0.00505494
0.00502207
0.000451203
0.000289878
0.000288683
0.000288711
0.000288708
0.000288675
0.000289412
0.000451986
0.00502197
0.00499053
0.000440612
0.000280682
0.00027946
0.000279488
0.000279485
0.000279452
0.000280201
0.000441367
0.00499042
0.0505473
0.0434539
0.0434334
0.0434334
0.0434334
0.0434334
0.0434334
0.0434334
0.0434539
0.0505473
0.0428478
0.0320527
0.0319432
0.0319682
0.0319682
0.0319682
0.0319682
0.0319432
0.0320528
0.0428478
0.036911
0.0244792
0.0243159
0.0243515
0.0243481
0.0243481
0.0243515
0.0243159
0.0244795
0.036911
0.0322395
0.0192382
0.0190353
0.0190751
0.019069
0.019069
0.0190751
0.0190353
0.0192386
0.0322395
0.028497
0.0154832
0.0152512
0.0152908
0.0152831
0.0152831
0.0152907
0.0152513
0.0154839
0.028497
0.0254522
0.0127108
0.0124596
0.0124965
0.0124882
0.0124883
0.0124965
0.0124597
0.0127116
0.0254522
0.0229419
0.0106111
0.0103485
0.0103818
0.0103736
0.0103736
0.0103817
0.0103485
0.0106122
0.0229418
0.0208478
0.00898624
0.0087176
0.00874702
0.00873932
0.00873934
0.00874698
0.00871762
0.00898753
0.0208478
0.0190826
0.00770517
0.00743422
0.00745997
0.00745298
0.007453
0.00745994
0.00743425
0.00770667
0.0190826
0.0175808
0.00667855
0.00640793
0.00643034
0.00642411
0.00642413
0.00643031
0.00640796
0.00668024
0.0175807
0.0162921
0.005844
0.00557552
0.00559496
0.00558948
0.0055895
0.00559493
0.00557554
0.00584585
0.0162921
0.015178
0.00515697
0.00489182
0.00490868
0.00490391
0.00490392
0.00490866
0.00489184
0.00515893
0.0151779
0.0142081
0.00458501
0.00432396
0.00433858
0.00433445
0.00433446
0.00433856
0.00432397
0.00458704
0.014208
0.0133583
0.00410405
0.00384755
0.00386025
0.00385668
0.00385669
0.00386023
0.00384756
0.00410609
0.0133583
0.0126096
0.00369592
0.00344424
0.00345528
0.0034522
0.00345221
0.00345527
0.00344425
0.00369795
0.0126096
0.0119464
0.00334678
0.00310001
0.00310963
0.00310697
0.00310698
0.00310961
0.00310002
0.00334875
0.0119464
0.0113561
0.00304589
0.002804
0.0028124
0.00281011
0.00281012
0.00281238
0.00280401
0.00304777
0.011356
0.0108283
0.00278483
0.00254774
0.00255507
0.0025531
0.00255311
0.00255506
0.00254775
0.0027866
0.0108283
0.0103545
0.00255691
0.00232449
0.00233091
0.00232921
0.00232922
0.0023309
0.00232449
0.00255856
0.0103544
0.00992741
0.00235681
0.00212888
0.00213452
0.00213305
0.00213306
0.00213451
0.00212889
0.00235832
0.00992738
0.00954119
0.0021802
0.0019566
0.00196154
0.00196028
0.00196028
0.00196153
0.0019566
0.00218158
0.00954115
0.00919072
0.00202359
0.00180411
0.00180845
0.00180736
0.00180736
0.00180844
0.00180411
0.00202483
0.00919068
0.00887171
0.00188408
0.00166852
0.00167234
0.0016714
0.0016714
0.00167233
0.00166853
0.00188519
0.00887166
0.0085805
0.00175928
0.00154746
0.00155082
0.00155001
0.00155001
0.00155081
0.00154746
0.00176027
0.00858045
0.00831395
0.00164721
0.00143894
0.0014419
0.00144119
0.00144119
0.00144189
0.00143894
0.0016481
0.0083139
0.00806935
0.00154623
0.0013413
0.0013439
0.00134329
0.0013433
0.0013439
0.00134131
0.00154701
0.00806931
0.00784438
0.00145491
0.00125316
0.00125544
0.00125492
0.00125492
0.00125544
0.00125316
0.0014556
0.00784433
0.00763698
0.00137208
0.00117332
0.00117533
0.00117488
0.00117488
0.00117532
0.00117333
0.00137269
0.00763693
0.00744538
0.00129674
0.0011008
0.00110256
0.00110216
0.00110216
0.00110255
0.0011008
0.00129726
0.00744534
0.00726804
0.00122801
0.00103472
0.00103626
0.00103592
0.00103592
0.00103625
0.00103472
0.00122845
0.00726799
0.00710357
0.00116516
0.000974364
0.000975698
0.000975407
0.000975406
0.000975694
0.000974363
0.00116552
0.00710352
0.00695078
0.00110755
0.000919083
0.000920239
0.000919989
0.000919988
0.000920235
0.000919081
0.00110783
0.00695073
0.0068086
0.00105461
0.000868332
0.000869328
0.000869114
0.000869112
0.000869324
0.00086833
0.00105482
0.00680855
0.00667608
0.00100587
0.000821633
0.000822485
0.000822302
0.000822301
0.000822481
0.000821631
0.00100601
0.00667602
0.00655237
0.000960907
0.000778571
0.000779292
0.000779136
0.000779135
0.000779288
0.000778568
0.000960972
0.00655231
0.00643672
0.000919342
0.00073878
0.000739382
0.00073925
0.000739249
0.000739378
0.000738776
0.000919341
0.00643666
0.00632846
0.000880851
0.000701939
0.000702433
0.000702323
0.000702321
0.00070243
0.000701935
0.000880789
0.0063284
0.00622698
0.000845143
0.00066777
0.000668162
0.00066807
0.000668069
0.000668159
0.000667762
0.000845027
0.00622691
0.00613173
0.000811959
0.000636024
0.000636318
0.000636243
0.000636241
0.000636315
0.000636007
0.000811801
0.00613166
0.00604223
0.000781072
0.000606479
0.000606679
0.000606618
0.000606616
0.000606676
0.000606449
0.000780882
0.00604216
0.00595803
0.000752281
0.000578937
0.000579047
0.000578999
0.000578997
0.000579045
0.000578892
0.00075207
0.00595795
0.00587872
0.000725406
0.000553224
0.000553247
0.000553209
0.000553208
0.000553245
0.00055316
0.000725183
0.00587865
0.00580395
0.000700287
0.000529182
0.000529121
0.000529093
0.000529092
0.000529119
0.000529097
0.00070006
0.00580387
0.00573338
0.000676778
0.000506672
0.000506528
0.000506509
0.000506507
0.000506526
0.000506563
0.000676555
0.00573329
0.0056667
0.000654749
0.000485566
0.000485342
0.000485331
0.000485329
0.000485341
0.000485431
0.000654538
0.00566661
0.00560364
0.000634083
0.000465751
0.00046545
0.000465445
0.000465444
0.000465448
0.00046559
0.000633888
0.00560355
0.00554395
0.000614672
0.000447126
0.000446749
0.000446749
0.000446748
0.000446747
0.000446939
0.000614497
0.00554386
0.0054874
0.000596421
0.000429598
0.000429146
0.000429151
0.00042915
0.000429144
0.000429386
0.000596268
0.0054873
0.00543377
0.000579244
0.000413082
0.000412557
0.000412567
0.000412565
0.000412555
0.000412845
0.000579113
0.00543367
0.00538287
0.000563057
0.000397504
0.000396907
0.00039692
0.000396919
0.000396905
0.000397243
0.000562951
0.00538276
0.00533452
0.000547792
0.000382794
0.000382126
0.000382143
0.000382141
0.000382124
0.000382509
0.000547713
0.0053344
0.00528855
0.000533383
0.00036889
0.000368152
0.000368171
0.00036817
0.00036815
0.000368581
0.000533333
0.00528843
0.00524481
0.000519769
0.000355734
0.000354927
0.000354948
0.000354947
0.000354925
0.000355402
0.000519749
0.00524468
0.00520316
0.000506898
0.000343275
0.0003424
0.000342422
0.000342421
0.000342397
0.000342919
0.000506908
0.00520303
0.00516347
0.000494717
0.000331464
0.000330521
0.000330545
0.000330544
0.000330518
0.000331085
0.000494758
0.00516333
0.00512561
0.000483178
0.000320257
0.000319247
0.000319273
0.000319272
0.000319244
0.000319856
0.00048325
0.00512547
0.00508949
0.000472228
0.000309615
0.000308539
0.000308566
0.000308564
0.000308535
0.000309191
0.000472333
0.00508934
0.00505498
0.000461804
0.000299498
0.000298359
0.000298386
0.000298385
0.000298355
0.000299052
0.000461941
0.00505483
0.00502202
0.000451784
0.000289868
0.000288673
0.0002887
0.000288699
0.000288668
0.0002894
0.00045195
0.00502186
0.00499048
0.000441177
0.00028067
0.00027945
0.000279478
0.000279476
0.000279445
0.000280186
0.000441353
0.00499031
)
;
    }
    inlet
    {
        type            turbulentIntensityKineticEnergyInlet;
        intensity       0.05;
        value           uniform 0.06;
    }
    outlet
    {
        type            inletOutlet;
        inletValue      uniform 0.003;
        value           nonuniform List<scalar> 
20
(
0.00499053
0.000440612
0.000280682
0.00027946
0.000279488
0.000279485
0.000279452
0.000280201
0.000441367
0.00499042
0.00499048
0.000441177
0.00028067
0.00027945
0.000279478
0.000279476
0.000279445
0.000280186
0.000441353
0.00499031
)
;
    }
    heatWall
    {
        type            kqRWallFunction;
        value           nonuniform List<scalar> 
240
(
0.0505472
0.0505473
0.0428477
0.0428478
0.036911
0.036911
0.0322396
0.0322395
0.0284971
0.028497
0.0254524
0.0254522
0.022942
0.0229418
0.0208479
0.0208478
0.0190827
0.0190826
0.0175808
0.0175807
0.0162921
0.0162921
0.015178
0.0151779
0.014208
0.014208
0.0133583
0.0133583
0.0126096
0.0126096
0.0119464
0.0119464
0.0113561
0.011356
0.0108283
0.0108283
0.0103544
0.0103544
0.00992739
0.00992738
0.00954117
0.00954115
0.00919069
0.00919068
0.00887168
0.00887166
0.00858047
0.00858045
0.00831392
0.0083139
0.00806933
0.00806931
0.00784435
0.00784433
0.00763696
0.00763693
0.00744536
0.00744534
0.00726802
0.00726799
0.00710356
0.00710352
0.00695077
0.00695073
0.00680859
0.00680855
0.00667607
0.00667602
0.00655236
0.00655231
0.00643672
0.00643666
0.00632846
0.0063284
0.00622698
0.00622691
0.00613173
0.00613166
0.00604223
0.00604216
0.00595803
0.00595795
0.00587873
0.00587865
0.00580396
0.00580387
0.00573338
0.00573329
0.0056667
0.00566661
0.00560365
0.00560355
0.00554395
0.00554386
0.0054874
0.0054873
0.00543377
0.00543367
0.00538286
0.00538276
0.00533451
0.0053344
0.00528853
0.00528843
0.00524479
0.00524468
0.00520313
0.00520303
0.00516344
0.00516333
0.00512558
0.00512547
0.00508945
0.00508934
0.00505494
0.00505483
0.00502197
0.00502186
0.00499042
0.00499031
0.0505472
0.0505473
0.0428478
0.0428478
0.0369112
0.036911
0.0322398
0.0322395
0.0284974
0.028497
0.0254526
0.0254522
0.0229422
0.0229419
0.0208481
0.0208478
0.0190829
0.0190826
0.017581
0.0175808
0.0162923
0.0162921
0.0151782
0.015178
0.0142082
0.0142081
0.0133585
0.0133583
0.0126097
0.0126096
0.0119465
0.0119464
0.0113562
0.0113561
0.0108284
0.0108283
0.0103545
0.0103545
0.0099275
0.00992741
0.00954126
0.00954119
0.00919078
0.00919072
0.00887177
0.00887171
0.00858055
0.0085805
0.008314
0.00831395
0.0080694
0.00806935
0.00784442
0.00784438
0.00763702