/*--------------------------------*- C++ -*----------------------------------*\
  =========                 |
  \\      /  F ield         | OpenFOAM: The Open Source CFD Toolbox
   \\    /   O peration     | Website:  https://openfoam.org
    \\  /    A nd           | Version:  8
     \\/     M anipulation  |
\*---------------------------------------------------------------------------*/
FoamFile
{
    version     2.0;
    format      ascii;
    class       volScalarField;
    location    "400";
    object      p;
}
// * * * * * * * * * * * * * * * * * * * * * * * * * * * * * * * * * * * * * //

dimensions      [1 -1 -2 0 0 0 0];

internalField   nonuniform List<scalar> 
1200
(
482.53
274.847
186.883
156.384
136.032
119.072
105.383
93.9176
83.9077
75.0076
66.958
59.6233
52.9321
46.789
41.1153
35.8371
30.9026
26.29
21.9558
17.8494
13.9423
10.226
6.68073
3.2681
-0.026378
-3.20378
-6.28693
-9.29504
-12.2306
-15.1027
-17.9247
-20.7026
-23.443
-26.1556
-28.8458
-31.5164
-34.1693
-36.8083
-39.442
-42.0738
-44.7039
-47.3369
-49.9764
-52.6206
-55.2677
-57.9229
-60.5909
-63.2727
-65.964
-68.6627
-71.3796
-74.1075
-76.8519
-79.6152
-82.3865
-85.1697
-87.9748
-90.8329
-93.7778
-97.4751
-154.838
-129.374
-123.048
-117.228
-116.33
-119.231
-123.563
-128.437
-133.521
-138.595
-143.577
-148.406
-153.03
-157.448
-161.673
-165.727
-169.621
-173.353
-176.942
-180.413
-183.775
-187.028
-190.181
-193.26
-196.267
-199.2
-202.076
-204.907
-207.692
-210.436
-213.15
-215.837
-218.501
-221.149
-223.784
-226.41
-229.026
-231.635
-234.247
-236.862
-239.479
-242.102
-244.734
-247.373
-250.017
-252.67
-255.337
-258.02
-260.712
-263.413
-266.131
-268.861
-271.608
-274.373
-277.148
-279.935
-282.74
-285.582
-288.473
-291.509
-278.592
-220.94
-214.346
-227.541
-242.735
-257.538
-271.444
-284.174
-295.684
-306.044
-315.425
-323.956
-331.713
-338.785
-345.264
-351.237
-356.763
-361.89
-366.674
-371.161
-375.385
-379.374
-383.158
-386.773
-390.231
-393.546
-396.747
-399.849
-402.859
-405.793
-408.666
-411.483
-414.255
-416.992
-419.698
-422.381
-425.044
-427.69
-430.331
-432.968
-435.599
-438.233
-440.871
-443.513
-446.158
-448.81
-451.473
-454.151
-456.836
-459.532
-462.241
-464.962
-467.7
-470.452
-473.217
-475.994
-478.783
-481.59
-484.384
-486.994
-473.279
-450.995
-457.618
-475.32
-489.258
-499.672
-508.42
-516.031
-522.711
-528.68
-534.149
-539.234
-543.99
-548.466
-552.706
-556.747
-560.613
-564.323
-567.898
-571.346
-574.68
-577.912
-581.056
-584.125
-587.116
-590.037
-592.906
-595.725
-598.496
-601.23
-603.935
-606.61
-609.264
-611.903
-614.528
-617.144
-619.752
-622.355
-624.959
-627.565
-630.17
-632.784
-635.405
-638.033
-640.67
-643.315
-645.975
-648.649
-651.332
-654.028
-656.736
-659.46
-662.2
-664.953
-667.723
-670.504
-673.294
-676.087
-678.845
-681.354
-664.849
-645.502
-641.985
-651.393
-661.504
-670.971
-680.629
-690.142
-699.1
-707.397
-715.073
-722.165
-728.715
-734.777
-740.398
-745.633
-750.53
-755.132
-759.471
-763.57
-767.459
-771.167
-774.717
-778.129
-781.41
-784.578
-787.655
-790.647
-793.563
-796.422
-799.228
-801.986
-804.709
-807.404
-810.074
-812.725
-815.361
-817.987
-820.61
-823.228
-825.844
-828.466
-831.092
-833.723
-836.362
-839.009
-841.67
-844.343
-847.024
-849.719
-852.424
-855.147
-857.884
-860.632
-863.398
-866.176
-868.96
-871.736
-874.457
-876.856
-860.019
-840.675
-837.166
-846.596
-856.726
-866.201
-875.873
-885.382
-894.323
-902.616
-910.282
-917.357
-923.893
-929.945
-935.555
-940.78
-945.671
-950.267
-954.6
-958.692
-962.577
-966.283
-969.831
-973.238
-976.517
-979.688
-982.765
-985.756
-988.675
-991.539
-994.348
-997.109
-999.836
-1002.53
-1005.21
-1007.86
-1010.5
-1013.13
-1015.76
-1018.38
-1020.99
-1023.62
-1026.25
-1028.88
-1031.52
-1034.16
-1036.83
-1039.5
-1042.18
-1044.87
-1047.58
-1050.3
-1053.04
-1055.79
-1058.55
-1061.33
-1064.11
-1066.89
-1069.61
-1072.01
-1058.78
-1036.49
-1043.08
-1060.78
-1074.71
-1085.12
-1093.87
-1101.48
-1108.15
-1114.16
-1119.65
-1124.74
-1129.5
-1134
-1138.25
-1142.3
-1146.17
-1149.89
-1153.47
-1156.92
-1160.25
-1163.48
-1166.63
-1169.69
-1172.67
-1175.6
-1178.47
-1181.28
-1184.05
-1186.79
-1189.5
-1192.17
-1194.82
-1197.46
-1200.08
-1202.7
-1205.3
-1207.9
-1210.51
-1213.11
-1215.72
-1218.33
-1220.95
-1223.58
-1226.22
-1228.87
-1231.53
-1234.2
-1236.88
-1239.58
-1242.3
-1245.02
-1247.76
-1250.52
-1253.29
-1256.07
-1258.87
-1261.66
-1264.42
-1266.93
-1254.45
-1196.9
-1190.33
-1203.51
-1218.68
-1233.49
-1247.4
-1260.06
-1271.51
-1281.87
-1291.24
-1299.74
-1307.48
-1314.56
-1321.04
-1327.02
-1332.55
-1337.68
-1342.47
-1346.96
-1351.18
-1355.17
-1358.96
-1362.57
-1366.03
-1369.36
-1372.56
-1375.67
-1378.68
-1381.63
-1384.51
-1387.33
-1390.11
-1392.85
-1395.56
-1398.24
-1400.9
-1403.55
-1406.2
-1408.83
-1411.46
-1414.09
-1416.73
-1419.37
-1422.01
-1424.67
-1427.34
-1430.01
-1432.69
-1435.39
-1438.1
-1440.82
-1443.56
-1446.31
-1449.08
-1451.85
-1454.65
-1457.46
-1460.26
-1462.87
-1520.97
-1495.51
-1489.21
-1483.36
-1482.47
-1485.43
-1489.79
-1494.63
-1499.72
-1504.84
-1509.83
-1514.65
-1519.28
-1523.71
-1527.94
-1532
-1535.89
-1539.63
-1543.22
-1546.68
-1550.03
-1553.28
-1556.43
-1559.5
-1562.5
-1565.43
-1568.31
-1571.13
-1573.91
-1576.65
-1579.37
-1582.05
-1584.72
-1587.36
-1590
-1592.62
-1595.23
-1597.85
-1600.46
-1603.07
-1605.69
-1608.31
-1610.94
-1613.58
-1616.22
-1618.88
-1621.55
-1624.23
-1626.92
-1629.62
-1632.35
-1635.08
-1637.82
-1640.59
-1643.36
-1646.15
-1648.96
-1651.81
-1654.71
-1657.75
-1274.26
-1481.57
-1569.67
-1600.15
-1620.44
-1637.47
-1651.18
-1662.57
-1672.57
-1681.5
-1689.54
-1696.84
-1703.54
-1709.68
-1715.36
-1720.65
-1725.59
-1730.21
-1734.55
-1738.66
-1742.56
-1746.27
-1749.83
-1753.24
-1756.53
-1759.71
-1762.8
-1765.8
-1768.73
-1771.6
-1774.43
-1777.21
-1779.95
-1782.67
-1785.36
-1788.03
-1790.68
-1793.33
-1795.97
-1798.61
-1801.24
-1803.88
-1806.52
-1809.16
-1811.81
-1814.48
-1817.15
-1819.82
-1822.51
-1825.21
-1827.93
-1830.66
-1833.4
-1836.16
-1838.93
-1841.72
-1844.53
-1847.39
-1850.34
-1854.06
481.886
274.575
186.602
156.373
136.232
119.169
105.361
93.9128
83.9203
74.9772
66.9503
59.686
53.029
46.895
41.2163
35.9449
31.0302
26.4077
22.0455
17.9276
14.0235
10.2936
6.71684
3.29304
0.000945192
-3.18942
-6.28327
-9.28714
-12.2212
-15.0963
-17.9173
-20.6951
-23.4377
-26.1484
-28.8332
-31.4992
-34.1536
-36.7996
-39.4352
-42.0648
-44.6948
-47.3257
-49.9588
-52.5993
-55.2521
-57.9133
-60.5804
-63.2549
-65.9439
-68.6509
-71.3642
-74.0927
-76.8339
-79.5859
-82.3595
-85.1547
-87.97
-90.8168
-93.7522
-97.4549
-154.999
-129.601
-123.376
-117.367
-116.304
-119.223
-123.601
-128.452
-133.524
-138.646
-143.632
-148.42
-153.026
-157.447
-161.684
-165.735
-169.615
-173.354
-176.958
-180.43
-183.785
-187.045
-190.217
-193.296
-196.298
-199.241
-202.124
-204.95
-207.735
-210.485
-213.199
-215.887
-218.555
-221.203
-223.836
-226.458
-229.076
-231.693
-234.306
-236.919
-239.538
-242.159
-244.786
-247.423
-250.072
-252.733
-255.4
-258.075
-260.766
-263.475
-266.192
-268.924
-271.669
-274.426
-277.203
-280
-282.815
-285.648
-288.529
-291.56
-278.747
-221.238
-214.841
-228.039
-243.085
-257.775
-271.618
-284.263
-295.702
-306.066
-315.44
-323.931
-331.666
-338.741
-345.235
-351.211
-356.737
-361.874
-366.666
-371.153
-375.375
-379.371
-383.164
-386.772
-390.226
-393.551
-396.755
-399.854
-402.871
-405.812
-408.688
-411.51
-414.288
-417.027
-419.735
-422.418
-425.083
-427.736
-430.377
-433.01
-435.644
-438.275
-440.908
-443.547
-446.195
-448.853
-451.515
-454.184
-456.868
-459.566
-462.276
-464.999
-467.734
-470.483
-473.247
-476.03
-478.825
-481.624
-484.407
-487.011
-473.383
-451.025
-457.738
-475.5
-489.378
-499.695
-508.395
-515.961
-522.604
-528.594
-534.082
-539.165
-543.928
-548.426
-552.695
-556.76
-560.644
-564.365
-567.939
-571.387
-574.722
-577.957
-581.096
-584.147
-587.13
-590.054
-592.917
-595.73
-598.505
-601.242
-603.947
-606.628
-609.287
-611.928
-614.556
-617.173
-619.785
-622.394
-624.996
-627.599
-630.208
-632.819
-635.437
-638.065
-640.703
-643.353
-646.009
-648.675
-651.357
-654.054
-656.766
-659.49
-662.228
-664.983
-667.75
-670.533
-673.327
-676.114
-678.859
-681.364
-664.942
-645.501
-642.114
-651.676
-661.81
-671.177
-680.733
-690.154
-699.036
-707.309
-714.979
-722.076
-728.641
-734.722
-740.375
-745.643
-750.563
-755.171
-759.504
-763.604
-767.497
-771.204
-774.744
-778.137
-781.411
-784.578
-787.646
-790.634
-793.555
-796.412
-799.217
-801.982
-804.71
-807.407
-810.082
-812.738
-815.379
-818.01
-820.63
-823.249
-825.87
-828.489
-831.114
-833.748
-836.388
-839.038
-841.693
-844.358
-847.04
-849.734
-852.443
-855.162
-857.895
-860.648
-863.409
-866.184
-868.967
-871.738
-874.444
-876.839
-860.099
-840.661
-837.279
-846.844
-856.985
-866.364
-875.924
-885.357
-894.246
-902.505
-910.163
-917.257
-923.816
-929.887
-935.533
-940.796
-945.71
-950.312
-954.641
-958.74
-962.631
-966.335
-969.875
-973.271
-976.546
-979.712
-982.782
-985.773
-988.694
-991.55
-994.355
-997.122
-999.852
-1002.55
-1005.23
-1007.88
-1010.53
-1013.16
-1015.78
-1018.4
-1021.02
-1023.64
-1026.27
-1028.9
-1031.54
-1034.19
-1036.85
-1039.51
-1042.19
-1044.89
-1047.6
-1050.31
-1053.05
-1055.8
-1058.56
-1061.34
-1064.12
-1066.89
-1069.59
-1071.99
-1058.86
-1036.49
-1043.19
-1060.93
-1074.79
-1085.11
-1093.8
-1101.41
-1108.09
-1114.08
-1119.57
-1124.68
-1129.46
-1133.96
-1138.24
-1142.31
-1146.2
-1149.92
-1153.5
-1156.96
-1160.29
-1163.53
-1166.67
-1169.73
-1172.71
-1175.63
-1178.49
-1181.3
-1184.07
-1186.8
-1189.5
-1192.17
-1194.83
-1197.46
-1200.09
-1202.7
-1205.31
-1207.92
-1210.52
-1213.12
-1215.73
-1218.34
-1220.97
-1223.6
-1226.24
-1228.88
-1231.54
-1234.21
-1236.89
-1239.59
-1242.3
-1245.02
-1247.76
-1250.52
-1253.29
-1256.07
-1258.86
-1261.65
-1264.4
-1266.9
-1254.54
-1197.02
-1190.68
-1203.87
-1218.89
-1233.55
-1247.37
-1260.04
-1271.49
-1281.83
-1291.21
-1299.72
-1307.47
-1314.54
-1321.04
-1327.02
-1332.55
-1337.69
-1342.49
-1346.98
-1351.21
-1355.2
-1359
-1362.61
-1366.07
-1369.4
-1372.6
-1375.71
-1378.72
-1381.66
-1384.53
-1387.35
-1390.13
-1392.86
-1395.57
-1398.25
-1400.92
-1403.57
-1406.21
-1408.84
-1411.47
-1414.1
-1416.73
-1419.37
-1422.02
-1424.67
-1427.33
-1430
-1432.69
-1435.38
-1438.09
-1440.81
-1443.55
-1446.3
-1449.07
-1451.85
-1454.64
-1457.45
-1460.23
-1462.84
-1521.1
-1495.7
-1489.42
-1483.44
-1482.4
-1485.27
-1489.64
-1494.57
-1499.69
-1504.81
-1509.83
-1514.67
-1519.3
-1523.72
-1527.96
-1532.01
-1535.9
-1539.63
-1543.23
-1546.7
-1550.05
-1553.31
-1556.47
-1559.54
-1562.55
-1565.48
-1568.36
-1571.19
-1573.97
-1576.71
-1579.42
-1582.1
-1584.76
-1587.4
-1590.03
-1592.65
-1595.27
-1597.87
-1600.48
-1603.09
-1605.7
-1608.32
-1610.94
-1613.58
-1616.23
-1618.88
-1621.54
-1624.22
-1626.92
-1629.62
-1632.34
-1635.07
-1637.82
-1640.58
-1643.36
-1646.16
-1648.97
-1651.81
-1654.69
-1657.74
-1274.52
-1481.93
-1569.81
-1600.08
-1620.24
-1637.23
-1651.04
-1662.57
-1672.59
-1681.51
-1689.57
-1696.88
-1703.55
-1709.69
-1715.37
-1720.64
-1725.56
-1730.17
-1734.53
-1738.64
-1742.54
-1746.27
-1749.83
-1753.25
-1756.54
-1759.73
-1762.82
-1765.83
-1768.76
-1771.63
-1774.45
-1777.23
-1779.96
-1782.67
-1785.35
-1788.02
-1790.67
-1793.31
-1795.94
-1798.57
-1801.2
-1803.83
-1806.47
-1809.11
-1811.77
-1814.42
-1817.09
-1819.77
-1822.47
-1825.18
-1827.89
-1830.62
-1833.37
-1836.13
-1838.9
-1841.7
-1844.51
-1847.36
-1850.31
-1854.03
)
;

boundaryField
{
    wall
    {
        type            calculated;
        value           nonuniform List<scalar> 
1200
(
482.851
-154.758
-278.514
-473.226
-664.803
-859.979
-1058.75
-1254.41
-1520.91
-1274.14
274.986
-129.26
-220.792
-450.98
-645.503
-840.683
-1036.49
-1196.84
-1495.41
-1481.39
187.028
-122.883
-214.098
-457.559
-641.922
-837.11
-1043.03
-1190.15
-1489.1
-1569.6
156.39
-117.158
-227.291
-475.23
-651.252
-846.473
-1060.7
-1203.33
-1483.31
-1600.19
135.93
-116.343
-242.558
-489.196
-661.35
-856.596
-1074.66
-1218.58
-1482.51
-1620.55
119.022
-119.235
-257.418
-499.659
-670.866
-866.118
-1085.12
-1233.46
-1485.52
-1637.59
105.393
-123.544
-271.357
-508.431
-680.575
-875.846
-1093.91
-1247.41
-1489.86
-1651.25
93.9192
-128.43
-284.129
-516.065
-690.134
-885.393
-1101.51
-1260.07
-1494.66
-1662.58
83.9013
-133.519
-295.675
-522.764
-699.131
-894.361
-1108.19
-1271.52
-1499.73
-1672.55
75.0237
-138.569
-306.033
-528.724
-707.441
-902.671
-1114.2
-1281.89
-1504.85
-1681.5
66.9632
-143.549
-315.417
-534.183
-715.12
-910.343
-1119.7
-1291.26
-1509.83
-1689.52
59.5934
-148.398
-323.968
-539.269
-722.21
-917.408
-1124.77
-1299.75
-1514.64
-1696.83
52.8849
-153.031
-331.736
-544.021
-728.753
-923.932
-1129.52
-1307.49
-1519.27
-1703.53
46.737
-157.447
-338.806
-548.487
-734.806
-929.976
-1134.01
-1314.56
-1523.7
-1709.68
41.0657
-161.667
-345.279
-552.712
-740.411
-935.568
-1138.25
-1321.04
-1527.93
-1715.36
35.7838
-165.722
-351.249
-556.741
-745.629
-940.774
-1142.29
-1327.02
-1531.99
-1720.66
30.8387
-169.623
-356.775
-560.598
-750.515
-945.651
-1146.16
-1332.55
-1535.89
-1725.6
26.2306
-173.352
-361.898
-564.302
-755.113
-950.244
-1149.88
-1337.68
-1539.62
-1730.22
21.9101
-176.934
-366.678
-567.877
-759.455
-954.579
-1153.45
-1342.47
-1543.21
-1734.56
17.8093
-180.405
-371.165
-571.325
-763.552
-958.668
-1156.9
-1346.95
-1546.67
-1738.66
13.9005
-183.771
-375.391
-574.658
-767.439
-962.549
-1160.23
-1351.17
-1550.02
-1742.56
10.1906
-187.02
-379.375
-577.889
-771.147
-966.256
-1163.46
-1355.16
-1553.27
-1746.28
6.66124
-190.164
-383.155
-581.035
-774.703
-969.808
-1166.6
-1358.94
-1556.42
-1749.83
3.25433
-193.242
-386.774
-584.113
-778.124
-973.221
-1169.67
-1362.55
-1559.49
-1753.24
-0.0412638
-196.252
-390.234
-587.108
-781.409
-976.502
-1172.66
-1366.01
-1562.48
-1756.52
-3.212
-199.179
-393.544
-590.028
-784.578
-979.675
-1175.58
-1369.34
-1565.41
-1759.7
-6.28953
-202.053
-396.744
-592.9
-787.66
-982.756
-1178.46
-1372.55
-1568.29
-1762.79
-9.29959
-204.886
-399.848
-595.723
-790.653
-985.747
-1181.27
-1375.65
-1571.1
-1765.78
-12.2357
-207.67
-402.854
-598.491
-793.568
-988.666
-1184.04
-1378.66
-1573.88
-1768.71
-15.1061
-210.412
-405.785
-601.224
-796.427
-991.533
-1186.79
-1381.61
-1576.63
-1771.59
-17.9286
-213.126
-408.655
-603.929
-799.234
-994.344
-1189.49
-1384.5
-1579.34
-1774.41
-20.7065
-215.812
-411.47
-606.602
-801.988
-997.103
-1192.17
-1387.32
-1582.03
-1777.2
-23.4458
-218.474
-414.239
-609.254
-804.709
-999.828
-1194.82
-1390.1
-1584.69
-1779.95
-26.1593
-221.122
-416.975
-611.891
-807.403
-1002.53
-1197.46
-1392.84
-1587.34
-1782.67
-28.8521
-223.759
-419.68
-614.514
-810.07
-1005.2
-1200.08
-1395.55
-1589.98
-1785.36
-31.5251
-226.386
-422.363
-617.129
-812.719
-1007.85
-1202.69
-1398.23
-1592.6
-1788.04
-34.1773
-229.001
-425.024
-619.736
-815.353
-1010.49
-1205.29
-1400.89
-1595.21
-1790.69
-36.8128
-231.607
-427.667
-622.335
-817.976
-1013.12
-1207.9
-1403.55
-1597.83
-1793.35
-39.4456
-234.218
-430.309
-624.941
-820.601
-1015.75
-1210.5
-1406.19
-1600.45
-1795.99
-42.0785
-236.834
-432.947
-627.548
-823.219
-1018.37
-1213.1
-1408.82
-1603.06
-1798.62
-44.7086
-239.449
-435.576
-630.151
-825.831
-1020.98
-1215.71
-1411.45
-1605.68
-1801.27
-47.3426
-242.073
-438.212
-632.766
-828.454
-1023.61
-1218.32
-1414.09
-1608.31
-1803.9
-49.9853
-244.708
-440.853
-635.39
-831.081
-1026.23
-1220.94
-1416.73
-1610.94
-1806.55
-52.6315
-247.348
-443.495
-638.017
-833.71
-1028.86
-1223.57
-1419.36
-1613.57
-1809.19
-55.2757
-249.99
-446.14
-640.654
-836.349
-1031.5
-1226.21
-1422.01
-1616.22
-1811.84
-57.9279
-252.639
-448.788
-643.296
-838.995
-1034.15
-1228.86
-1424.67
-1618.88
-1814.5
-60.5961
-255.306
-451.452
-645.957
-841.658
-1036.82
-1231.52
-1427.34
-1621.56
-1817.17
-63.2817
-257.992
-454.134
-648.636
-844.335
-1039.49
-1234.2
-1430.01
-1624.24
-1819.85
-65.9741
-260.684
-456.82
-651.319
-847.016
-1042.17
-1236.88
-1432.69
-1626.92
-1822.53
-68.6685
-263.383
-459.515
-654.015
-849.711
-1044.87
-1239.58
-1435.39
-1629.62
-1825.23
-71.3872
-266.101
-462.223
-656.721
-852.414
-1047.57
-1242.29
-1438.1
-1632.35
-1827.95
-74.1147
-268.83
-464.943
-659.445
-855.139
-1050.3
-1245.02
-1440.83
-1635.08
-1830.68
-76.8607
-271.578
-467.683
-662.187
-857.878
-1053.04
-1247.76
-1443.56
-1637.82
-1833.42
-79.6297
-274.347
-470.437
-664.939
-860.623
-1055.78
-1250.52
-1446.31
-1640.59
-1836.18
-82.3998
-277.121
-473.202
-667.709
-863.392
-1058.55
-1253.29
-1449.08
-1643.36
-1838.95
-85.1771
-279.902
-475.976
-670.49
-866.171
-1061.33
-1256.07
-1451.86
-1646.15
-1841.73
-87.9769
-282.702
-478.762
-673.278
-868.955
-1064.11
-1258.87
-1454.65
-1648.96
-1844.54
-90.8406
-285.549
-481.572
-676.073
-871.734
-1066.89
-1261.67
-1457.47
-1651.81
-1847.4
-93.7902
-288.445
-484.373
-678.838
-874.463
-1069.62
-1264.44
-1460.27
-1654.72
-1850.36
-97.4846
-291.483
-486.985
-681.349
-876.864
-1072.02
-1266.95
-1462.88
-1657.76
-1854.07
481.565
-155.079
-278.825
-473.436
-664.988
-860.14
-1058.89
-1254.58
-1521.17
-1274.65
274.437
-129.715
-221.386
-451.04
-645.5
-840.653
-1036.49
-1197.08
-1495.8
-1482.11
186.457
-123.54
-215.089
-457.798
-642.178
-837.334
-1043.25
-1190.86
-1489.53
-1569.88
156.367
-117.438
-228.289
-475.59
-651.816
-846.967
-1061.01
-1204.06
-1483.49
-1600.04
136.334
-116.29
-243.261
-489.44
-661.965
-857.116
-1074.84
-1219
-1482.37
-1620.13
119.219
-119.218
-257.894
-499.708
-671.281
-866.448
-1085.11
-1233.57
-1485.19
-1637.11
105.351
-123.62
-271.706
-508.384
-680.788
-875.951
-1093.77
-1247.35
-1489.57
-1650.97
93.9112
-128.46
-284.308
-515.927
-690.163
-885.346
-1101.37
-1260.02
-1494.54
-1662.56
83.9267
-133.525
-295.711
-522.55
-699.006
-894.209
-1108.06
-1271.48
-1499.68
-1672.61
74.9611
-138.671
-306.077
-528.55
-707.265
-902.449
-1114.03
-1281.81
-1504.8
-1681.52
66.9451
-143.66
-315.448
-534.048
-714.932
-910.103
-1119.52
-1291.19
-1509.83
-1689.59
59.7159
-148.428
-323.919
-539.13
-722.03
-917.206
-1124.65
-1299.72
-1514.68
-1696.9
53.0762
-153.025
-331.643
-543.897
-728.603
-923.776
-1129.44
-1307.46
-1519.3
-1703.55
46.947
-157.448
-338.72
-548.405
-734.693
-929.856
-1133.94
-1314.54
-1523.73
-1709.69
41.266
-161.69
-345.22
-552.689
-740.363
-935.521
-1138.24
-1321.04
-1527.98
-1715.37
35.9983
-165.739
-351.199
-556.766
-745.647
-940.802
-1142.32
-1327.02
-1532.02
-1720.63
31.0942
-169.612
-356.725
-560.659
-750.579
-945.729
-1146.21
-1332.55
-1535.9
-1725.54
26.4672
-173.354
-361.867
-564.386
-755.19
-950.335
-1149.94
-1337.69
-1539.63
-1730.16
22.0912
-176.967
-366.663
-567.96
-759.52
-954.662
-1153.52
-1342.49
-1543.23
-1734.52
17.9678
-180.439
-371.149
-571.407
-763.621
-958.764
-1156.98
-1346.99
-1546.71
-1738.63
14.0655
-183.79
-375.37
-574.744
-767.516
-962.658
-1160.32
-1351.22
-1550.06
-1742.54
10.3289
-187.053
-379.37
-577.98
-771.223
-966.361
-1163.55
-1355.22
-1553.32
-1746.26
6.73637
-190.235
-383.167
-581.117
-774.758
-969.897
-1166.69
-1359.02
-1556.48
-1749.82
3.30683
-193.314
-386.771
-584.159
-778.142
-973.288
-1169.75
-1362.63
-1559.56
-1753.25
0.0158279
-196.313
-390.223
-587.138
-781.412
-976.561
-1172.73
-1366.1
-1562.57
-1756.55
-3.18121
-199.261
-393.553
-590.063
-784.579
-979.725
-1175.64
-1369.42
-1565.5
-1759.74
-6.2807
-202.147
-396.758
-592.922
-787.642
-982.79
-1178.5
-1372.62
-1568.38
-1762.83
-9.28264
-204.971
-399.856
-595.732
-790.628
-985.782
-1181.31
-1375.73
-1571.22
-1765.84
-12.2161
-207.757
-402.875
-598.509
-793.551
-988.704
-1184.08
-1378.74
-1574
-1768.78
-15.0929
-210.509
-405.821
-601.248
-796.407
-991.556
-1186.8
-1381.67
-1576.74
-1771.65
-17.9135
-213.223
-408.698
-603.952
-799.211
-994.359
-1189.5
-1384.54
-1579.44
-1774.47
-20.6913
-215.913
-411.523
-606.636
-801.98
-997.129
-1192.18
-1387.36
-1582.12
-1777.23
-23.435
-218.582
-414.304
-609.298
-804.711
-999.86
-1194.83
-1390.14
-1584.78
-1779.97
-26.1449
-221.229
-417.044
-611.939
-807.408
-1002.56
-1197.46
-1392.87
-1587.42
-1782.67
-28.827
-223.861
-419.753
-614.57
-810.086
-1005.23
-1200.09
-1395.58
-1590.05
-1785.35
-31.4905
-226.482
-422.436
-617.188
-812.743
-1007.89
-1202.71
-1398.26
-1592.67
-1788.01
-34.1457
-229.101
-425.102
-619.801
-815.388
-1010.54
-1205.32
-1400.93
-1595.29
-1790.66
-36.7951
-231.722
-427.759
-622.413
-818.021
-1013.17
-1207.92
-1403.58
-1597.89
-1793.29
-39.4317
-234.336
-430.399
-625.014
-820.64
-1015.79
-1210.52
-1406.21
-1600.49
-1795.92
-42.0602
-236.948
-433.031
-627.616
-823.258
-1018.41
-1213.13
-1408.85
-1603.1
-1798.55
-44.6902
-239.567
-435.667
-630.228
-825.883
-1021.04
-1215.74
-1411.48
-1605.71
-1801.17
-47.3201
-242.188
-438.297
-632.837
-828.501
-1023.66
-1218.35
-1414.11
-1608.32
-1803.8
-49.9499
-244.812
-440.926
-635.453
-831.125
-1026.28
-1220.97
-1416.74
-1610.95
-1806.44
-52.5886
-247.448
-443.565
-638.081
-833.76
-1028.92
-1223.61
-1419.38
-1613.58
-1809.09
-55.2442
-250.1
-446.214
-640.719
-836.401
-1031.56
-1226.25
-1422.03
-1616.23
-1811.74
-57.9084
-252.764
-448.875
-643.372
-839.053
-1034.21
-1228.89
-1424.67
-1618.88
-1814.4
-60.5752
-255.431
-451.536
-646.026
-841.705
-1036.86
-1231.54
-1427.33
-1621.54
-1817.06
-63.2459
-258.103
-454.201
-648.687
-844.366
-1039.52
-1234.21
-1430
-1624.21
-1819.75
-65.9339
-260.794
-456.884
-651.37
-847.048
-1042.2
-1236.9
-1432.68
-1626.91
-1822.45
-68.6451
-263.505
-459.584
-654.067
-849.742
-1044.89
-1239.59
-1435.38
-1629.62
-1825.16
-71.3567
-266.222
-462.294
-656.781
-852.453
-1047.6
-1242.3
-1438.09
-1632.34
-1827.87
-74.0856
-268.955
-465.018
-659.504
-855.169
-1050.32
-1245.02
-1440.81
-1635.07
-1830.6
-76.8252
-271.699
-467.751
-662.241
-857.901
-1053.05
-1247.76
-1443.55
-1637.82
-1833.35
-79.5715
-274.452
-470.498
-664.997
-860.656
-1055.8
-1250.52
-1446.3
-1640.58
-1836.11
-82.3463
-277.23
-473.262
-667.763
-863.415
-1058.56
-1253.28
-1449.06
-1643.36
-1838.88
-85.1474
-280.032
-476.048
-670.548
-866.189
-1061.34
-1256.07
-1451.85
-1646.16
-1841.69
-87.9679
-282.852
-478.846
-673.343
-868.972
-1064.12
-1258.86
-1454.64
-1648.97
-1844.5
-90.8092
-285.681
-481.641
-676.128
-871.74
-1066.89
-1261.64
-1457.44
-1651.8
-1847.35
-93.7399
-288.557
-484.419
-678.867
-874.438
-1069.59
-1264.38
-1460.22
-1654.68
-1850.29
-97.4455
-291.587
-487.02
-681.369
-876.831
-1071.98
-1266.88
-1462.83
-1657.73
-1854.01
)
;
    }
    inlet
    {
        type            calculated;
        value           nonuniform List<scalar> 
20
(
482.53
-154.838
-278.592
-473.279
-664.849
-860.019
-1058.78
-1254.45
-1520.97
-1274.26
481.886
-154.999
-278.747
-473.383
-664.942
-860.099
-1058.86
-1254.54
-1521.1
-1274.52
)
;
    }
    outlet
    {
        type            calculated;
        value           nonuniform List<scalar> 
20
(
-97.5912
-292.76
-487.93
-683.102
-878.274
-1073.45
-1268.62
-1463.79
-1658.97
-1854.23
-97.5912
-292.76
-487.93
-683.102
-878.274
-1073.45
-1268.62
-1463.79
-1658.97
-1854.23
)
;
    }
    heatWall
    {
        type            calculated;
        value           nonuniform List<scalar> 
240
(
-1371.85
-1372.11
-1579.16
-1579.52
-1667.26
-1667.39
-1697.74
-1697.67
-1718.03
-1717.82
-1735.06
-1734.82
-1748.76
-1748.62
-1760.16
-1760.15
-1770.15
-1770.18
-1779.09
-1779.1
-1787.13
-1787.16
-1794.43
-1794.47
-1801.12
-1801.13
-1807.27
-1807.27
-1812.95
-1812.96
-1818.24
-1818.22
-1823.17
-1823.14
-1827.79
-1827.76
-1832.14
-1832.12
-1836.24
-1836.23
-1840.15
-1840.13
-1843.86
-1843.85
-1847.42
-1847.41
-1850.83
-1850.84
-1854.11
-1854.13
-1857.3
-1857.32
-1860.38
-1860.41
-1863.38
-1863.42
-1866.32
-1866.35
-1869.19
-1869.22
-1872.02
-1872.04
-1874.8
-1874.81
-1877.54
-1877.55
-1880.26
-1880.26
-1882.95
-1882.94
-1885.62
-1885.61
-1888.27
-1888.26
-1890.92
-1890.9
-1893.56
-1893.53
-1896.2
-1896.16
-1898.83
-1898.79
-1901.47
-1901.42
-1904.11
-1904.06
-1906.75
-1906.7
-1909.4
-1909.36
-1912.07
-1912.01
-1914.74
-1914.68
-1917.41
-1917.36
-1920.1
-1920.06
-1922.8
-1922.77
-1925.52
-1925.48
-1928.25
-1928.21
-1930.99
-1930.96
-1933.75
-1933.72
-1936.52
-1936.49
-1939.31
-1939.29
-1942.12
-1942.1
-1944.98
-1944.95
-1947.93
-1947.9
-1951.65
-1951.62
580.116
579.472
372.434
372.161
284.47
284.188
253.971
253.96
233.618
233.818
216.659
216.756
202.97
202.948
191.505
191.5
181.495
181.508
172.595
172.565
164.546
164.538
157.211
157.274
150.52
150.617
144.377
144.483
138.703
138.804
133.425
133.533
128.491
128.618
123.878
123.996
119.544
119.634
115.438
115.516
111.531
111.612
107.815
107.882
104.269
104.306
100.857
100.882
97.5625
97.5898
94.3851
94.3995
91.3021
91.3057
88.294
88.3019
85.3586
85.368
82.4866
82.4929
79.6646
79.672
76.8868
76.8943
74.1464
74.1518
71.4339
71.4411
68.7438
68.7564
66.0733
66.0905
63.4204
63.4361
60.7815
60.7902
58.1478
58.1547
55.5161
55.5251
52.8861
52.8952
50.2532
50.2643
47.6138
47.6314
44.9696
44.9909
42.3226
42.3382
39.6674
39.677
36.9995
37.01
34.3177
34.3356
31.6265
31.6466
28.9279
28.9397
26.2111
26.2264
23.4833
23.498
20.7388
20.7569
17.9757
18.0049
15.2044
15.2314
12.4212
12.4363
9.6162
9.62107
6.75817
6.77427
3.81334
3.83894
0.11611
0.136276
)
;
    }
}


// ************************************************************************* //
