/*--------------------------------*- C++ -*----------------------------------*\
  =========                 |
  \\      /  F ield         | OpenFOAM: The Open Source CFD Toolbox
   \\    /   O peration     | Website:  https://openfoam.org
    \\  /    A nd           | Version:  8
     \\/     M anipulation  |
\*---------------------------------------------------------------------------*/
FoamFile
{
    version     2.0;
    format      ascii;
    class       volVectorField;
    location    "400";
    object      U;
}
// * * * * * * * * * * * * * * * * * * * * * * * * * * * * * * * * * * * * * //

dimensions      [0 1 -1 0 0 0 0];

internalField   nonuniform List<vector> 
1200
(
(4.00457 -0.295025 0.00249922)
(4.02909 -0.228023 0.00346936)
(4.03229 -0.19078 0.00426287)
(4.02777 -0.165124 0.00426615)
(4.02218 -0.146273 0.00367876)
(4.0163 -0.131935 0.00332737)
(4.0102 -0.120613 0.00327273)
(4.00405 -0.111427 0.00317979)
(3.99795 -0.103841 0.00305215)
(3.99192 -0.0975011 0.00304463)
(3.98599 -0.0921605 0.00299111)
(3.98015 -0.087639 0.00276918)
(3.9744 -0.0837949 0.00246846)
(3.96874 -0.0805165 0.00215118)
(3.96316 -0.0777136 0.00185229)
(3.95767 -0.0753133 0.00154078)
(3.95226 -0.073256 0.00118125)
(3.94692 -0.0714893 0.0008487)
(3.94166 -0.0699686 0.00058965)
(3.93648 -0.0686582 0.000361928)
(3.93136 -0.0675287 0.000127876)
(3.92631 -0.0665534 -7.06269e-05)
(3.92132 -0.0657085 -0.000186646)
(3.9164 -0.0649749 -0.00027181)
(3.91154 -0.0643376 -0.000361198)
(3.90674 -0.0637823 -0.000415142)
(3.90199 -0.0632963 -0.000439032)
(3.8973 -0.06287 -0.000471632)
(3.89265 -0.0624951 -0.000506083)
(3.88806 -0.0621636 -0.000530809)
(3.88352 -0.061869 -0.000556643)
(3.87903 -0.0616058 -0.000581324)
(3.87458 -0.0613691 -0.000599183)
(3.87018 -0.0611549 -0.000620656)
(3.86582 -0.0609601 -0.00065512)
(3.86151 -0.0607815 -0.000701213)
(3.85723 -0.0606165 -0.00074282)
(3.853 -0.0604622 -0.000765739)
(3.8488 -0.0603163 -0.000783075)
(3.84465 -0.060177 -0.000805606)
(3.84052 -0.0600433 -0.000827642)
(3.83644 -0.0599139 -0.0008546)
(3.83239 -0.0597881 -0.000897991)
(3.82837 -0.0596653 -0.000950911)
(3.82438 -0.0595444 -0.000988519)
(3.82043 -0.0594251 -0.00100983)
(3.8165 -0.0593069 -0.00103266)
(3.81261 -0.0591896 -0.0010746)
(3.80875 -0.0590731 -0.00112208)
(3.80491 -0.0589564 -0.00114677)
(3.8011 -0.0588402 -0.00118035)
(3.79732 -0.0587242 -0.00121162)
(3.79356 -0.058608 -0.00125087)
(3.78983 -0.0584923 -0.0013198)
(3.78613 -0.0583763 -0.00138225)
(3.78245 -0.0582599 -0.00141268)
(3.77879 -0.058144 -0.00141484)
(3.77518 -0.058034 -0.00144625)
(3.77169 -0.0579431 -0.00150177)
(3.76787 -0.0580678 -0.00154342)
(4.00712 0.10407 -0.000582554)
(4.00323 0.133704 -0.000483307)
(4.00187 0.13409 0.000131109)
(4.00119 0.129213 0.000408075)
(4.00157 0.122994 0.000334315)
(4.00256 0.116383 0.00034271)
(4.00374 0.110094 0.000488699)
(4.00497 0.104419 0.000588054)
(4.00618 0.0994019 0.000662194)
(4.00734 0.0950019 0.000858917)
(4.00844 0.0911558 0.00106733)
(4.00947 0.0878015 0.00117245)
(4.01042 0.0848814 0.00122947)
(4.01129 0.0823391 0.00129111)
(4.01211 0.0801247 0.00137754)
(4.01287 0.0781934 0.00145207)
(4.01357 0.076505 0.00148656)
(4.01422 0.0750289 0.00153342)
(4.01482 0.0737386 0.00161509)
(4.01539 0.0726076 0.00169568)
(4.01592 0.0716119 0.00175311)
(4.01642 0.0707336 0.00182508)
(4.01688 0.0699595 0.00194089)
(4.01732 0.0692752 0.00205497)
(4.01773 0.0686662 0.00215313)
(4.01812 0.0681226 0.00227535)
(4.01849 0.0676365 0.00241146)
(4.01884 0.0671989 0.00253351)
(4.01918 0.0668022 0.00265684)
(4.0195 0.0664413 0.00279088)
(4.0198 0.0661114 0.00292434)
(4.0201 0.0658082 0.00306054)
(4.02038 0.0655283 0.00320378)
(4.02066 0.0652684 0.00334568)
(4.02092 0.0650255 0.00348013)
(4.02118 0.0647975 0.00360548)
(4.02143 0.064583 0.00373442)
(4.02168 0.0643797 0.00388143)
(4.02192 0.0641852 0.00403133)
(4.02216 0.0639985 0.00417514)
(4.02239 0.0638179 0.00432299)
(4.02262 0.063643 0.00446671)
(4.02285 0.063473 0.00459603)
(4.02307 0.063307 0.00471856)
(4.02329 0.0631452 0.00485304)
(4.02351 0.0629866 0.00500541)
(4.02372 0.0628309 0.00515754)
(4.02394 0.0626777 0.00529135)
(4.02415 0.0625265 0.00542187)
(4.02436 0.062378 0.00556843)
(4.02457 0.0622304 0.00571175)
(4.02478 0.062084 0.00586087)
(4.02498 0.0619387 0.00600355)
(4.02519 0.0617933 0.00612569)
(4.02539 0.0616489 0.00625238)
(4.0256 0.0615053 0.00640493)
(4.0258 0.0613597 0.00658195)
(4.02602 0.0612016 0.00673668)
(4.02626 0.0610027 0.00686693)
(4.02651 0.0604976 0.00698877)
(3.98981 -0.0197043 0.000757528)
(3.98182 -0.0407185 0.00187548)
(3.98275 -0.0575839 0.00336543)
(3.98641 -0.0670416 0.00477319)
(3.99025 -0.0718597 0.00574614)
(3.99391 -0.0743596 0.00639027)
(3.9973 -0.0755201 0.0068439)
(4.00037 -0.0758672 0.00706352)
(4.00314 -0.0757552 0.00708969)
(4.00563 -0.0754001 0.00711733)
(4.00789 -0.0749258 0.00712447)
(4.00994 -0.0744001 0.00702779)
(4.0118 -0.0738583 0.00687499)
(4.0135 -0.0733203 0.00673118)
(4.01506 -0.0727972 0.00662269)
(4.01651 -0.0722953 0.00652585)
(4.01784 -0.0718175 0.00642959)
(4.01908 -0.0713604 0.00635889)
(4.02024 -0.0709205 0.00631002)
(4.02133 -0.0704993 0.00626128)
(4.02236 -0.0700974 0.00620835)
(4.02333 -0.0697118 0.00617668)
(4.02425 -0.0693382 0.00616787)
(4.02513 -0.0689762 0.00614069)
(4.02598 -0.0686271 0.00610475)
(4.02679 -0.0682889 0.00609556)
(4.02758 -0.06796 0.00609319)
(4.02834 -0.0676413 0.00608337)
(4.02908 -0.0673328 0.0060906)
(4.02981 -0.0670329 0.00611803)
(4.03052 -0.0667413 0.00615383)
(4.03122 -0.0664582 0.00620384)
(4.0319 -0.0661826 0.00626866)
(4.03258 -0.0659142 0.00634047)
(4.03326 -0.0656532 0.00641732)
(4.03392 -0.0653991 0.00649387)
(4.03459 -0.0651511 0.00657765)
(4.03525 -0.0649077 0.00668043)
(4.0359 -0.0646671 0.00678211)
(4.03656 -0.0644298 0.00687653)
(4.03722 -0.0641963 0.00697876)
(4.03787 -0.063966 0.00707499)
(4.03853 -0.0637392 0.00715771)
(4.03919 -0.063516 0.00723644)
(4.03984 -0.0632953 0.00732099)
(4.0405 -0.0630772 0.00742197)
(4.04117 -0.0628614 0.00751939)
(4.04183 -0.0626482 0.00759574)
(4.0425 -0.0624379 0.00766944)
(4.04317 -0.0622292 0.00774994)
(4.04384 -0.0620237 0.00783326)
(4.04451 -0.0618201 0.00792126)
(4.04519 -0.0616185 0.00800198)
(4.04587 -0.0614206 0.00807369)
(4.04655 -0.0612244 0.00814452)
(4.04724 -0.0610298 0.00823005)
(4.04793 -0.0608402 0.00833163)
(4.04862 -0.0606676 0.00841538)
(4.04929 -0.0605411 0.00847136)
(4.04984 -0.0606014 0.008514)
(3.99817 -0.00163769 0.000188632)
(3.99614 0.00888854 0.000143594)
(3.99912 0.0201746 0.000310006)
(4.00301 0.0301563 0.000651755)
(4.00598 0.0384642 0.000882567)
(4.00832 0.0450597 0.000899656)
(4.01031 0.050311 0.000819472)
(4.01205 0.0545553 0.000643056)
(4.01359 0.0580059 0.000384731)
(4.01498 0.0608194 0.000185198)
(4.01627 0.0631116 4.01904e-05)
(4.01748 0.0649696 -0.000104997)
(4.01861 0.0664681 -0.00023002)
(4.01968 0.0676697 -0.000300917)
(4.0207 0.0686222 -0.000298778)
(4.02168 0.069364 -0.000237377)
(4.02262 0.0699291 -0.000130502)
(4.02352 0.0703493 5.05004e-06)
(4.02439 0.070649 0.00013965)
(4.02523 0.0708453 0.00027195)
(4.02605 0.0709541 0.000407199)
(4.02684 0.0709919 0.000549653)
(4.02761 0.070972 0.000679188)
(4.02837 0.0709033 0.000763017)
(4.0291 0.0707933 0.000825949)
(4.02983 0.0706506 0.000894771)
(4.03054 0.0704815 0.000945383)
(4.03123 0.0702894 0.000978427)
(4.03192 0.0700793 0.00102162)
(4.0326 0.0698561 0.0010704)
(4.03327 0.0696221 0.00111804)
(4.03394 0.0693794 0.00117815)
(4.0346 0.0691303 0.00124923)
(4.03526 0.068877 0.0013244)
(4.03592 0.0686205 0.00140788)
(4.03657 0.0683619 0.00149467)
(4.03722 0.0681027 0.00158898)
(4.03787 0.0678442 0.00169836)
(4.03853 0.0675867 0.00180083)
(4.03918 0.06733 0.00189678)
(4.03983 0.0670744 0.00200413)
(4.04049 0.0668211 0.00210373)
(4.04115 0.0665696 0.00219296)
(4.04181 0.0663201 0.00228291)
(4.04247 0.0660738 0.00237386)
(4.04313 0.065831 0.00247756)
(4.0438 0.065592 0.00257274)
(4.04447 0.0653562 0.0026457)
(4.04514 0.0651233 0.00271775)
(4.04582 0.064894 0.00279127)
(4.0465 0.0646671 0.00287423)
(4.04719 0.0644436 0.00295626)
(4.04787 0.0642226 0.00303141)
(4.04857 0.0640029 0.00311146)
(4.04926 0.0637861 0.00318578)
(4.04996 0.0635722 0.0032646)
(4.05066 0.0633592 0.003352)
(4.05135 0.0631402 0.00342694)
(4.05202 0.0629039 0.00346972)
(4.05277 0.0626132 0.00350153)
(3.99793 -0.00102116 0.000216291)
(3.99506 -0.001205 0.000237416)
(3.99582 -0.00451607 0.000593646)
(3.99829 -0.0103642 0.00133761)
(4.00076 -0.0173496 0.00214283)
(4.00317 -0.0245846 0.00269246)
(4.00559 -0.0315004 0.0029827)
(4.00791 -0.037803 0.00303692)
(4.01008 -0.0433841 0.0028921)
(4.01208 -0.0482296 0.00267725)
(4.01393 -0.0523836 0.00244371)
(4.01564 -0.055915 0.00221563)
(4.01722 -0.0588921 0.00202215)
(4.01868 -0.0613809 0.00187432)
(4.02004 -0.0634472 0.00180498)
(4.02131 -0.0651503 0.00181739)
(4.0225 -0.0665406 0.00188848)
(4.02362 -0.0676618 0.00197555)
(4.02468 -0.0685541 0.00204872)
(4.02567 -0.0692531 0.00212745)
(4.02663 -0.0697879 0.00221822)
(4.02753 -0.0701822 0.00230772)
(4.0284 -0.0704581 0.00237196)
(4.02924 -0.0706352 0.00239119)
(4.03005 -0.0707291 0.00239223)
(4.03083 -0.0707519 0.00239037)
(4.03159 -0.0707159 0.00236586)
(4.03233 -0.0706322 0.00233163)
(4.03306 -0.0705079 0.00230796)
(4.03377 -0.0703492 0.0022798)
(4.03446 -0.0701631 0.00224794)
(4.03515 -0.0699555 0.00223366)
(4.03583 -0.0697304 0.00223211)
(4.0365 -0.0694914 0.00223502)
(4.03717 -0.0692418 0.00225042)
(4.03783 -0.0689847 0.00227647)
(4.0385 -0.0687222 0.00231552)
(4.03915 -0.0684551 0.00236791)
(4.03981 -0.0681852 0.00241241)
(4.04047 -0.0679143 0.00245746)
(4.04113 -0.067643 0.00251841)
(4.04179 -0.0673718 0.00257254)
(4.04245 -0.0671021 0.0026231)
(4.04311 -0.0668345 0.00268176)
(4.04377 -0.0665688 0.00274213)
(4.04444 -0.0663049 0.00281159)
(4.04511 -0.0660429 0.00286726)
(4.04578 -0.065784 0.00290254)
(4.04645 -0.0655285 0.00294004)
(4.04713 -0.0652758 0.0029762)
(4.04781 -0.0650258 0.0030235)
(4.0485 -0.0647774 0.0030602)
(4.04919 -0.0645316 0.00308827)
(4.04988 -0.0642889 0.0031282)
(4.05057 -0.0640486 0.0031568)
(4.05127 -0.0638107 0.00318032)
(4.05197 -0.0635757 0.00320194)
(4.05266 -0.0633473 0.00321084)
(4.0533 -0.0631335 0.00318165)
(4.05396 -0.0629589 0.00314189)
(3.99794 0.00101678 0.000187517)
(3.99506 0.00119316 0.000175356)
(3.99582 0.00448814 0.000491508)
(3.99829 0.010323 0.00114756)
(4.00077 0.0172977 0.00183382)
(4.00319 0.024522 0.002277)
(4.0056 0.031433 0.00243257)
(4.00792 0.0377265 0.0023909)
(4.01009 0.0432957 0.00221135)
(4.01209 0.0481403 0.00194046)
(4.01394 0.0522986 0.001642)
(4.01564 0.0558299 0.00138582)
(4.01722 0.0588059 0.00118534)
(4.01868 0.0612968 0.00102846)
(4.02004 0.0633657 0.000960149)
(4.0213 0.0650717 0.000985913)
(4.02249 0.0664663 0.00107363)
(4.02361 0.0675933 0.00117728)
(4.02466 0.0684908 0.00127158)
(4.02566 0.0691929 0.00138286)
(4.02661 0.0697294 0.0015115)
(4.02752 0.0701259 0.00163643)
(4.02839 0.0704028 0.00174228)
(4.02923 0.0705779 0.00182106)
(4.03003 0.0706684 0.00188936)
(4.03082 0.0706896 0.0019483)
(4.03158 0.070652 0.00198721)
(4.03232 0.0705649 0.00202621)
(4.03304 0.0704383 0.0020706)
(4.03375 0.0702802 0.00209583)
(4.03445 0.0700956 0.00211048)
(4.03514 0.0698897 0.00213984)
(4.03582 0.0696669 0.00217601)
(4.03649 0.0694307 0.00220974)
(4.03716 0.0691843 0.00224997)
(4.03783 0.0689297 0.00229952)
(4.03849 0.0686691 0.00236079)
(4.03915 0.0684052 0.0024257)
(4.03981 0.068139 0.00247789)
(4.04046 0.0678709 0.00253375)
(4.04112 0.067603 0.00260135)
(4.04178 0.0673359 0.00265851)
(4.04244 0.0670698 0.00271358)
(4.0431 0.0668054 0.0027776)
(4.04377 0.0665432 0.00284348)
(4.04443 0.0662843 0.00291087)
(4.0451 0.0660288 0.00295663)
(4.04578 0.0657758 0.00298368)
(4.04645 0.0655254 0.00301517)
(4.04713 0.0652785 0.00304268)
(4.04781 0.0650353 0.00307813)
(4.04849 0.0647951 0.00309884)
(4.04918 0.0645573 0.00311235)
(4.04987 0.0643226 0.00313954)
(4.05057 0.0640906 0.00315637)
(4.05127 0.0638615 0.00316884)
(4.05197 0.0636369 0.00317624)
(4.05266 0.0634199 0.00317294)
(4.0533 0.0632181 0.00313393)
(4.05396 0.0630513 0.00308222)
(3.99817 0.00163601 0.000111575)
(3.99613 -0.00886451 -1.45429e-05)
(3.9991 -0.0201221 0.000127805)
(4.00299 -0.0300871 0.000410229)
(4.00597 -0.0383898 0.000549315)
(4.0083 -0.0449814 0.000482882)
(4.01029 -0.0502345 0.000278008)
(4.01203 -0.0544993 8.83711e-05)
(4.01357 -0.057985 -7.36877e-05)
(4.01497 -0.0608305 -0.000278029)
(4.01627 -0.0631547 -0.000477286)
(4.01747 -0.0650485 -0.000610796)
(4.01861 -0.0665817 -0.000696947)
(4.01968 -0.0678131 -0.000758999)
(4.02071 -0.0687903 -0.000754538)
(4.02169 -0.0695511 -0.000693059)
(4.02262 -0.0701305 -0.000600038)
(4.02353 -0.0705603 -0.000496067)
(4.0244 -0.0708661 -0.000392377)
(4.02524 -0.0710668 -0.000269157)
(4.02606 -0.0711789 -0.000132245)
(4.02685 -0.0712178 2.94751e-06)
(4.02762 -0.0711967 0.000130853)
(4.02837 -0.0711266 0.000249024)
(4.02911 -0.0710151 0.000360643)
(4.02983 -0.0708682 0.000453864)
(4.03054 -0.0706931 0.00052697)
(4.03124 -0.0704956 0.000602942)
(4.03192 -0.070279 0.000673422)
(4.0326 -0.0700472 0.000711523)
(4.03328 -0.0698036 0.000732531)
(4.03394 -0.0695507 0.000760676)
(4.0346 -0.0692909 0.000788289)
(4.03526 -0.0690266 0.000809319)
(4.03592 -0.0687591 0.000831713)
(4.03657 -0.0684903 0.000863541)
(4.03722 -0.0682215 0.000909429)
(4.03787 -0.0679528 0.000953703)
(4.03852 -0.0676857 0.00098789)
(4.03918 -0.0674213 0.00103294)
(4.03983 -0.0671585 0.00108596)
(4.04049 -0.0668988 0.00112989)
(4.04114 -0.0666424 0.00117467)
(4.0418 -0.0663892 0.00122898)
(4.04246 -0.06614 0.00128938)
(4.04313 -0.0658931 0.00134544)
(4.0438 -0.0656491 0.00137701)
(4.04447 -0.065409 0.00139561)
(4.04514 -0.0651727 0.00142267)
(4.04582 -0.0649397 0.00144463)
(4.0465 -0.064709 0.00146666)
(4.04718 -0.0644817 0.00147562)
(4.04787 -0.0642577 0.00147936)
(4.04856 -0.0640355 0.00149006)
(4.04926 -0.063816 0.00149118)
(4.04996 -0.063599 0.00149163)
(4.05066 -0.0633818 0.00148404)
(4.05135 -0.0631578 0.00145911)
(4.05201 -0.0629151 0.00139827)
(4.05275 -0.0626133 0.00132614)
(3.98982 0.0196872 0.000606794)
(3.98184 0.040684 0.00127439)
(3.98278 0.0575489 0.00240619)
(3.98643 0.0669989 0.00347776)
(3.99027 0.0718156 0.00409754)
(3.99393 0.0743326 0.0042779)
(3.9973 0.0755125 0.0042162)
(4.00036 0.0758718 0.00414972)
(4.00312 0.0757736 0.00408266)
(4.00561 0.075435 0.00395069)
(4.00786 0.0749723 0.00382891)
(4.00991 0.0744553 0.00375099)
(4.01177 0.0739227 0.00367987)
(4.01347 0.0733926 0.00360902)
(4.01504 0.0728766 0.00357288)
(4.01648 0.0723815 0.00354114)
(4.01782 0.0719078 0.003505)
(4.01906 0.0714526 0.00347874)
(4.02022 0.071014 0.00347012)
(4.02131 0.0705927 0.0034863)
(4.02234 0.0701881 0.00351755)
(4.02331 0.0697977 0.00356104)
(4.02423 0.0694203 0.00361648)
(4.02512 0.0690542 0.00368594)
(4.02596 0.0686987 0.0037668)
(4.02678 0.0683538 0.00383659)
(4.02756 0.0680182 0.00389784)
(4.02833 0.0676912 0.00397397)
(4.02907 0.0673726 0.00404856)
(4.0298 0.0670617 0.00409591)
(4.03051 0.0667584 0.00412995)
(4.03121 0.0664637 0.0041651)
(4.0319 0.0661769 0.00419465)
(4.03258 0.0658972 0.00421665)
(4.03325 0.065625 0.00423357)
(4.03392 0.0653597 0.0042561)
(4.03458 0.0651008 0.00429067)
(4.03524 0.0648488 0.00431417)
(4.0359 0.0646026 0.00432594)
(4.03656 0.0643622 0.00434701)
(4.03721 0.0641284 0.00436338)
(4.03787 0.0638997 0.00436783)
(4.03853 0.0636761 0.00436934)
(4.03918 0.0634576 0.00437475)
(4.03985 0.0632433 0.004387)
(4.04051 0.063033 0.00438425)
(4.04117 0.0628253 0.00435575)
(4.04184 0.0626196 0.00432032)
(4.04251 0.062416 0.00429841)
(4.04318 0.0622144 0.00427592)
(4.04385 0.062016 0.00424761)
(4.04453 0.0618192 0.00421541)
(4.04521 0.0616237 0.0041861)
(4.0459 0.0614311 0.00415972)
(4.04658 0.0612404 0.00412995)
(4.04727 0.0610517 0.00411088)
(4.04797 0.0608687 0.00408881)
(4.04866 0.0607035 0.00404509)
(4.04933 0.0605861 0.00397283)
(4.04989 0.0606528 0.0038967)
(4.00712 -0.104007 -0.000648849)
(4.00324 -0.13371 -0.000637376)
(4.00187 -0.134131 -0.000320887)
(4.00119 -0.129287 -0.000187153)
(4.00158 -0.123108 -0.000379768)
(4.00257 -0.116518 -0.000770029)
(4.00376 -0.110239 -0.00109728)
(4.00498 -0.104572 -0.00119885)
(4.0062 -0.0995469 -0.00120155)
(4.00736 -0.0951272 -0.00120963)
(4.00846 -0.091261 -0.00114179)
(4.00948 -0.0878843 -0.00102279)
(4.01044 -0.0849365 -0.000917973)
(4.01131 -0.0823653 -0.00081603)
(4.01213 -0.0801208 -0.000694806)
(4.01288 -0.0781584 -0.000604056)
(4.01358 -0.0764406 -0.000545628)
(4.01423 -0.074935 -0.000488804)
(4.01484 -0.0736141 -0.000412721)
(4.0154 -0.0724515 -0.000322956)
(4.01593 -0.0714256 -0.000231768)
(4.01642 -0.0705187 -0.000130616)
(4.01688 -0.0697146 -2.06917e-05)
(4.01732 -0.0690001 0.000106671)
(4.01773 -0.0683638 0.000254662)
(4.01812 -0.067795 0.000396846)
(4.01849 -0.0672846 0.000538144)
(4.01884 -0.0668252 0.000703725)
(4.01917 -0.0664098 0.000876752)
(4.01949 -0.0660331 0.00103465)
(4.0198 -0.0656892 0.00118376)
(4.02009 -0.0653723 0.00132504)
(4.02037 -0.0650792 0.00145397)
(4.02065 -0.0648071 0.00157255)
(4.02091 -0.0645526 0.00167608)
(4.02117 -0.0643135 0.00177644)
(4.02142 -0.064088 0.00188196)
(4.02167 -0.0638738 0.00196403)
(4.02191 -0.0636701 0.00202887)
(4.02214 -0.0634754 0.00209531)
(4.02238 -0.0632879 0.00214164)
(4.0226 -0.0631076 0.00217241)
(4.02283 -0.0629336 0.00219436)
(4.02305 -0.062765 0.0022138)
(4.02327 -0.0626018 0.00223945)
(4.02349 -0.0624414 0.0022418)
(4.0237 -0.0622848 0.00222277)
(4.02392 -0.0621315 0.0022025)
(4.02413 -0.0619808 0.00219869)
(4.02434 -0.0618326 0.00220005)
(4.02455 -0.0616853 0.00218813)
(4.02476 -0.0615397 0.00217678)
(4.02496 -0.0613958 0.0021731)
(4.02517 -0.0612524 0.00216743)
(4.02538 -0.0611099 0.00216095)
(4.02558 -0.060968 0.00217268)
(4.02579 -0.0608239 0.00218534)
(4.026 -0.060667 0.00216979)
(4.02625 -0.0604682 0.00212763)
(4.0265 -0.0599536 0.00208299)
(4.00452 0.295115 0.00160997)
(4.02902 0.228097 0.00279805)
(4.03224 0.190876 0.00322564)
(4.02771 0.165246 0.00301967)
(4.02212 0.146399 0.00241409)
(4.01625 0.13207 0.00170816)
(4.01015 0.120761 0.00124628)
(4.00399 0.111576 0.00111791)
(3.99789 0.103983 0.0010836)
(3.99187 0.0976339 0.00101587)
(3.98594 0.092277 0.00101442)
(3.9801 0.0877311 0.00102897)
(3.97436 0.0838581 0.000990011)
(3.9687 0.0805474 0.000935787)
(3.96313 0.0777106 0.000893922)
(3.95764 0.0752761 0.000812863)
(3.95223 0.0731839 0.000695845)
(3.9469 0.0713831 0.000579231)
(3.94164 0.0698306 0.00049246)
(3.93646 0.0684905 0.00042334)
(3.93134 0.067332 0.000358249)
(3.92629 0.0663284 0.000311203)
(3.92131 0.0654576 0.000277407)
(3.91639 0.0646998 0.000270371)
(3.91152 0.0640382 0.000298052)
(3.90672 0.0634593 0.000329059)
(3.90197 0.062951 0.000366325)
(3.89728 0.0625029 0.000434018)
(3.89264 0.0621063 0.000513951)
(3.88805 0.0617537 0.00058364)
(3.88351 0.0614389 0.00064186)
(3.87901 0.061157 0.000679935)
(3.87457 0.0609032 0.000695933)
(3.87017 0.060673 0.000695445)
(3.86581 0.0604633 0.000669907)
(3.86149 0.0602709 0.0006333)
(3.85722 0.0600931 0.00059607)
(3.85299 0.0599279 0.000527152)
(3.84879 0.0597732 0.000438838)
(3.84463 0.0596275 0.000349506)
(3.84051 0.0594897 0.000234163)
(3.83643 0.0593581 0.000107251)
(3.83237 0.0592318 -2.5122e-05)
(3.82835 0.05911 -0.00015577)
(3.82437 0.0589917 -0.000272249)
(3.82042 0.058876 -0.000407445)
(3.81649 0.0587616 -0.000549435)
(3.8126 0.0586481 -0.000679882)
(3.80873 0.0585352 -0.000785233)
(3.8049 0.0584225 -0.000875683)
(3.80109 0.0583105 -0.000981039)
(3.7973 0.0581986 -0.00108078)
(3.79355 0.0580865 -0.00116587)
(3.78982 0.0579744 -0.00125127)
(3.78611 0.057862 -0.001332)
(3.78243 0.0577494 -0.0013853)
(3.77878 0.0576375 -0.00143007)
(3.77517 0.0575317 -0.00150254)
(3.77169 0.0574457 -0.00159378)
(3.76788 0.0575778 -0.00166884)
(4.0045 -0.295176 0.000454876)
(4.02898 -0.228218 0.000848856)
(4.03217 -0.19101 0.00149202)
(4.02762 -0.165365 0.00155842)
(4.02204 -0.146499 0.00113817)
(4.0162 -0.132166 0.000990714)
(4.01013 -0.120868 0.00114633)
(4.00398 -0.111704 0.00125638)
(3.99789 -0.104136 0.00131852)
(3.99187 -0.0978118 0.00148576)
(3.98594 -0.0924793 0.0015914)
(3.9801 -0.0879548 0.00151308)
(3.97435 -0.0841003 0.00134136)
(3.96869 -0.0808061 0.00113976)
(3.96312 -0.0779845 0.000944605)
(3.95763 -0.0755634 0.000726069)
(3.95222 -0.0734818 0.000449843)
(3.9469 -0.0716907 0.000192003)
(3.94165 -0.0701493 1.13662e-07)
(3.93646 -0.0688212 -0.000167155)
(3.93135 -0.0676747 -0.000346554)
(3.92631 -0.066684 -0.000495483)
(3.92133 -0.0658282 -0.000566625)
(3.91641 -0.0650878 -0.000611191)
(3.91155 -0.0644448 -0.000663858)
(3.90675 -0.0638852 -0.000684621)
(3.902 -0.0633973 -0.000678555)
(3.8973 -0.06297 -0.000684115)
(3.89266 -0.0625938 -0.000694171)
(3.88807 -0.0622613 -0.000696906)
(3.88353 -0.0619659 -0.000702927)
(3.87904 -0.0617021 -0.000709765)
(3.87459 -0.0614653 -0.000711568)
(3.87019 -0.0612512 -0.000718599)
(3.86583 -0.061056 -0.00074008)
(3.86151 -0.060877 -0.000774508)
(3.85724 -0.0607118 -0.00080564)
(3.853 -0.060558 -0.00081916)
(3.84881 -0.0604132 -0.000828071)
(3.84465 -0.0602757 -0.000843055)
(3.84053 -0.0601438 -0.000858337)
(3.83644 -0.0600164 -0.000879256)
(3.83239 -0.0598926 -0.000917252)
(3.82837 -0.0597714 -0.000965358)
(3.82438 -0.0596528 -0.000998675)
(3.82043 -0.0595358 -0.00101616)
(3.81651 -0.0594204 -0.0010356)
(3.81261 -0.0593059 -0.00107452)
(3.80875 -0.0591921 -0.00111932)
(3.80491 -0.0590791 -0.00114164)
(3.8011 -0.0589663 -0.00117313)
(3.79732 -0.0588535 -0.00120257)
(3.79356 -0.0587407 -0.00124021)
(3.78983 -0.0586272 -0.00130775)
(3.78613 -0.0585137 -0.001369)
(3.78245 -0.0584007 -0.00139838)
(3.7788 -0.0582893 -0.00139964)
(3.77518 -0.0581835 -0.00143016)
(3.77169 -0.0580969 -0.00148583)
(3.76787 -0.0582293 -0.00152403)
(4.00712 0.103954 0.00133024)
(4.00325 0.133613 0.00239353)
(4.00187 0.134074 0.00344337)
(4.00115 0.129332 0.00387919)
(4.00151 0.123245 0.00382267)
(4.00251 0.116694 0.00377164)
(4.0037 0.110407 0.00381587)
(4.00493 0.104717 0.00379189)
(4.00614 0.0996714 0.00373306)
(4.00731 0.0952338 0.00379316)
(4.00841 0.0913574 0.00386534)
(4.00943 0.0879839 0.00383773)
(4.01038 0.0850498 0.00376712)
(4.01126 0.0824986 0.00370688)
(4.01208 0.080279 0.00367738)
(4.01283 0.0783468 0.00364201)
(4.01354 0.0766646 0.00357276)
(4.01419 0.0751953 0.00352174)
(4.0148 0.0739066 0.003511)
(4.01536 0.0727745 0.00350441)
(4.01589 0.0717791 0.00347969)
(4.01639 0.0709004 0.0034742)
(4.01685 0.0701196 0.0035168)
(4.01729 0.0694239 0.00356169)
(4.0177 0.0688039 0.0035945)
(4.01809 0.0682491 0.00365487)
(4.01846 0.0677499 0.00373238)
(4.01881 0.0673001 0.0037989)
(4.01915 0.066894 0.00386958)
(4.01947 0.0665254 0.00395361)
(4.01977 0.0661893 0.00403955)
(4.02007 0.0658816 0.00413055)
(4.02035 0.0655984 0.00423072)
(4.02063 0.0653366 0.00433155)
(4.02089 0.065094 0.00442684)
(4.02115 0.0648676 0.00451483)
(4.02141 0.064655 0.00460809)
(4.02165 0.0644533 0.00472095)
(4.02189 0.0642596 0.00483814)
(4.02213 0.0640734 0.00495057)
(4.02236 0.0638941 0.00506834)
(4.02259 0.0637205 0.00518319)
(4.02282 0.0635518 0.00528482)
(4.02304 0.0633877 0.00538078)
(4.02326 0.0632268 0.00548975)
(4.02348 0.0630691 0.00561759)
(4.02369 0.062914 0.00574611)
(4.02391 0.0627612 0.00585722)
(4.02412 0.0626107 0.00596592)
(4.02433 0.0624611 0.00609147)
(4.02454 0.062314 0.00621457)
(4.02475 0.0621683 0.0063442)
(4.02496 0.0620238 0.0064681)
(4.02516 0.0618813 0.00657217)
(4.02537 0.0617388 0.00668146)
(4.02557 0.0615952 0.00681722)
(4.02578 0.0614486 0.00697803)
(4.02599 0.0612906 0.00711712)
(4.02623 0.0610913 0.00723229)
(4.02648 0.060583 0.00733964)
(3.98982 -0.0197169 -4.79306e-05)
(3.98186 -0.0407802 0.000330931)
(3.9828 -0.0576903 0.00134006)
(3.98644 -0.0671199 0.00245413)
(3.99024 -0.0718839 0.0032627)
(3.99388 -0.0743684 0.00383208)
(3.99725 -0.0755415 0.0042722)
(4.0003 -0.0759063 0.004519)
(4.00307 -0.0758178 0.00459868)
(4.00556 -0.0754923 0.00469703)
(4.00782 -0.0750413 0.00478558)
(4.00986 -0.0745264 0.00477594)
(4.01173 -0.0739879 0.00471241)
(4.01344 -0.0734484 0.00465803)
(4.015 -0.0729192 0.00463782)
(4.01645 -0.0724042 0.00462716)
(4.01779 -0.0719051 0.0046143)
(4.01903 -0.0714268 0.00462388)
(4.02019 -0.0709717 0.00465202)
(4.02128 -0.0705368 0.00467686)
(4.02231 -0.0701194 0.00469404)
(4.02329 -0.0697203 0.00472909)
(4.02421 -0.0693409 0.00478376)
(4.0251 -0.0689787 0.00481684)
(4.02594 -0.0686301 0.00483804)
(4.02676 -0.0682948 0.0048831)
(4.02755 -0.0679725 0.00493221)
(4.02831 -0.0676606 0.00497124)
(4.02905 -0.0673576 0.00502485)
(4.02978 -0.0670638 0.00509638)
(4.03049 -0.0667782 0.00517414)
(4.03119 -0.0664998 0.0052641)
(4.03188 -0.0662284 0.00536701)
(4.03256 -0.0659635 0.00547516)
(4.03323 -0.0657042 0.00558669)
(4.0339 -0.0654503 0.00569634)
(4.03456 -0.0652022 0.00581175)
(4.03523 -0.0649587 0.0059448)
(4.03588 -0.0647192 0.00607546)
(4.03654 -0.0644832 0.00619765)
(4.03719 -0.0642501 0.00632649)
(4.03785 -0.0640207 0.00644822)
(4.03851 -0.0637943 0.00655537)
(4.03916 -0.0635707 0.0066575)
(4.03982 -0.0633508 0.00676448)
(4.04048 -0.0631343 0.00688699)
(4.04114 -0.0629212 0.00700508)
(4.04181 -0.0627111 0.00710125)
(4.04247 -0.0625036 0.00719396)
(4.04314 -0.0622997 0.0072927)
(4.04381 -0.0620975 0.00739354)
(4.04449 -0.0618979 0.00749836)
(4.04516 -0.0617004 0.00759523)
(4.04584 -0.0615035 0.00768245)
(4.04653 -0.0613095 0.00776816)
(4.04722 -0.0611199 0.00786798)
(4.04791 -0.0609373 0.00798331)
(4.04859 -0.0607705 0.00808024)
(4.04926 -0.0606508 0.00814881)
(4.04981 -0.060718 0.00820339)
(3.99816 -0.00165129 0.000300242)
(3.99613 0.00880146 0.000498395)
(3.99912 0.0200085 0.00094356)
(4.00301 0.0299616 0.00152466)
(4.00597 0.038288 0.0019356)
(4.00829 0.0449011 0.00207925)
(4.01027 0.050157 0.00208184)
(4.012 0.0544036 0.00195394)
(4.01354 0.0578546 0.00171837)
(4.01494 0.06066 0.00152242)
(4.01624 0.0629449 0.00136703)
(4.01744 0.064808 0.00120165)
(4.01858 0.0663212 0.00104968)
(4.01966 0.0675402 0.000947273)
(4.02069 0.0685136 0.00091487)
(4.02167 0.0692827 0.000939863)
(4.02261 0.0698796 0.00100933)
(4.02352 0.0703279 0.00110712)
(4.02439 0.0706496 0.00120412)
(4.02523 0.0708669 0.00129935)
(4.02604 0.0709973 0.00139833)
(4.02684 0.0710526 0.00150548)
(4.02761 0.0710438 0.0016008)
(4.02836 0.0709828 0.00165166)
(4.02909 0.0708794 0.00168294)
(4.02981 0.0707399 0.00172142)
(4.03052 0.0705708 0.001743)
(4.03122 0.0703791 0.00174833)
(4.03191 0.0701689 0.00176507)
(4.03259 0.0699429 0.00178859)
(4.03326 0.0697051 0.00181213)
(4.03393 0.0694591 0.00184923)
(4.03459 0.0692068 0.00189831)
(4.03525 0.0689501 0.00195243)
(4.03591 0.0686911 0.00201577)
(4.03656 0.0684313 0.00208327)
(4.03722 0.0681715 0.00215909)
(4.03787 0.0679115 0.00225072)
(4.03852 0.0676518 0.00233613)
(4.03917 0.0673937 0.00241569)
(4.03983 0.0671376 0.00250727)
(4.04048 0.0668836 0.0025917)
(4.04114 0.0666325 0.00266634)
(4.0418 0.0663849 0.00274225)
(4.04246 0.0661399 0.00281967)
(4.04312 0.0658974 0.00291031)
(4.04379 0.0656574 0.00299288)
(4.04446 0.0654206 0.00305369)
(4.04513 0.0651874 0.00311401)
(4.04581 0.0649569 0.00317622)
(4.04649 0.0647301 0.00324825)
(4.04718 0.064505 0.00331969)
(4.04786 0.0642824 0.00338461)
(4.04855 0.0640636 0.00345476)
(4.04925 0.0638466 0.0035195)
(4.04995 0.0636302 0.00358904)
(4.05065 0.063413 0.00366742)
(4.05134 0.0631909 0.00373362)
(4.052 0.0629506 0.00376799)
(4.05275 0.062654 0.00379164)
(3.99792 -0.00102696 0.000215581)
(3.99506 -0.00122167 0.00018179)
(3.99584 -0.00453287 0.000461932)
(3.99832 -0.0103614 0.00112746)
(4.00078 -0.0173097 0.00186271)
(4.00317 -0.0245101 0.00235714)
(4.00556 -0.0314118 0.00260735)
(4.00786 -0.0377097 0.00263444)
(4.01002 -0.0432899 0.00247277)
(4.01203 -0.0481495 0.00224908)
(4.01388 -0.052324 0.00201276)
(4.01559 -0.0558683 0.00178642)
(4.01718 -0.0588529 0.001598)
(4.01865 -0.0613497 0.00145762)
(4.02002 -0.0634217 0.00139747)
(4.02129 -0.0651262 0.00142031)
(4.02249 -0.0665161 0.00150266)
(4.02361 -0.0676386 0.00160151)
(4.02466 -0.0685332 0.00168668)
(4.02566 -0.0692325 0.00177746)
(4.02661 -0.0697663 0.00188017)
(4.02752 -0.0701613 0.00198143)
(4.02839 -0.0704389 0.00205712)
(4.02922 -0.0706163 0.00208741)
(4.03003 -0.0707098 0.0020991)
(4.03081 -0.0707345 0.00210745)
(4.03157 -0.0707011 0.00209271)
(4.03231 -0.0706184 0.00206781)
(4.03304 -0.0704961 0.00205304)
(4.03375 -0.0703423 0.00203338)
(4.03444 -0.0701622 0.00200962)
(4.03513 -0.06996 0.00200306)
(4.03581 -0.0697405 0.0020089)
(4.03649 -0.0695076 0.00201888)
(4.03716 -0.0692638 0.00204105)
(4.03782 -0.0690115 0.00207358)
(4.03848 -0.068753 0.00211886)
(4.03914 -0.0684908 0.00217724)
(4.0398 -0.0682261 0.00222749)
(4.04046 -0.0679589 0.00227807)
(4.04112 -0.0676909 0.00234435)
(4.04178 -0.0674231 0.0024036)
(4.04244 -0.0671556 0.00245911)
(4.0431 -0.0668889 0.00252253)
(4.04376 -0.0666241 0.0025875)
(4.04443 -0.0663623 0.0026614)
(4.04509 -0.0661036 0.00272135)
(4.04577 -0.0658474 0.00276076)
(4.04644 -0.0655937 0.00280223)
(4.04712 -0.0653432 0.00284222)
(4.0478 -0.0650955 0.00289322)
(4.04848 -0.064851 0.00293348)
(4.04917 -0.064609 0.00296497)
(4.04986 -0.0643689 0.00300821)
(4.05056 -0.0641319 0.00304)
(4.05126 -0.0638985 0.00306659)
(4.05195 -0.0636698 0.00309115)
(4.05264 -0.0634478 0.00310288)
(4.05328 -0.0632411 0.00307641)
(4.05394 -0.0630714 0.00303917)
(3.99792 0.00101177 0.000186827)
(3.99506 0.0011892 0.000119889)
(3.99584 0.00448092 0.000360259)
(3.99833 0.0102841 0.000938228)
(4.00079 0.0172036 0.00155479)
(4.00318 0.0243787 0.00194292)
(4.00557 0.0312538 0.00205844)
(4.00788 0.037539 0.00198948)
(4.01004 0.0431242 0.00179276)
(4.01204 0.0479877 0.00151257)
(4.01389 0.0521644 0.00121074)
(4.0156 0.0557182 0.000955618)
(4.01719 0.0587157 0.000759462)
(4.01865 0.0612234 0.00060927)
(4.02002 0.0633062 0.000549371)
(4.02129 0.0650219 0.000584799)
(4.02249 0.0664225 0.000683054)
(4.0236 0.0675544 0.000797793)
(4.02466 0.0684581 0.000903472)
(4.02566 0.0691676 0.00102623)
(4.02661 0.0697115 0.00116633)
(4.02752 0.0701148 0.00130257)
(4.02838 0.0704004 0.00141951)
(4.02922 0.0705879 0.00150907)
(4.03002 0.0706917 0.00158781)
(4.03081 0.0707239 0.00165683)
(4.03156 0.0706972 0.00170541)
(4.03231 0.070622 0.00175371)
(4.03303 0.0705051 0.00180702)