/*--------------------------------*- C++ -*----------------------------------*\
  =========                 |
  \\      /  F ield         | OpenFOAM: The Open Source CFD Toolbox
   \\    /   O peration     | Website:  https://openfoam.org
    \\  /    A nd           | Version:  8
     \\/     M anipulation  |
\*---------------------------------------------------------------------------*/
FoamFile
{
    version     2.0;
    format      ascii;
    class       volScalarField;
    location    "500";
    object      alphat;
}
// * * * * * * * * * * * * * * * * * * * * * * * * * * * * * * * * * * * * * //

dimensions      [1 -1 -1 0 0 0 0];

internalField   nonuniform List<scalar> 
1200
(
0.800831
0.734753
0.679814
0.63346
0.593908
0.559828
0.530182
0.504171
0.481209
0.460867
0.442819
0.426744
0.412408
0.399334
0.387245
0.375973
0.365939
0.357524
0.350672
0.344538
0.338846
0.342363
0.344147
0.337448
0.324334
0.308742
0.293728
0.280668
0.269366
0.259406
0.251072
0.244324
0.238936
0.23464
0.231198
0.228486
0.226429
0.224976
0.224031
0.223485
0.223216
0.22305
0.222584
0.221586
0.219756
0.216671
0.211989
0.205847
0.198886
0.191968
0.185803
0.18084
0.177254
0.175012
0.173837
0.173036
0.171771
0.169501
0.166046
0.161617
0.465604
0.399826
0.349355
0.309636
0.277709
0.251494
0.229637
0.211194
0.195432
0.181858
0.170015
0.159577
0.150192
0.141885
0.134505
0.127931
0.122067
0.116807
0.112054
0.10924
0.111715
0.12807
0.140308
0.142986
0.138278
0.130086
0.121046
0.112461
0.104878
0.0986711
0.0934916
0.0890759
0.0852421
0.0818616
0.0788447
0.0761203
0.0736463
0.0713909
0.0693322
0.0674607
0.0657902
0.064379
0.0634098
0.0628086
0.0624159
0.0620862
0.0617003
0.0610911
0.0602099
0.0590822
0.0577361
0.056177
0.0545092
0.0529233
0.0515239
0.0504968
0.0499842
0.0498237
0.0497577
0.0492781
0.46553
0.399187
0.348248
0.308113
0.275802
0.249304
0.227228
0.208592
0.192641
0.178904
0.166934
0.156446
0.14718
0.138955
0.13162
0.125038
0.11924
0.114134
0.109568
0.105475
0.102496
0.104032
0.108061
0.110676
0.110871
0.108739
0.105386
0.101698
0.0979695
0.094439
0.091148
0.0880342
0.0850416
0.0821956
0.079561
0.0771672
0.074998
0.073014
0.0711779
0.06946
0.0678287
0.0662305
0.0646368
0.0630787
0.0615742
0.0601187
0.0587024
0.0573096
0.0559532
0.0546783
0.0535319
0.0525289
0.0516451
0.0508088
0.0499542
0.0490593
0.0481252
0.0471551
0.0461421
0.0451059
0.465577
0.399379
0.348543
0.308511
0.276224
0.249709
0.227619
0.208949
0.192988
0.179217
0.167204
0.156644
0.147349
0.139076
0.13171
0.125155
0.119425
0.114389
0.109852
0.105711
0.102159
0.0999481
0.0990873
0.0983584
0.0970141
0.0950846
0.0928507
0.0904226
0.0879814
0.0854986
0.0830552
0.0807206
0.0785367
0.0765003
0.0745754
0.0727287
0.0709423
0.0692437
0.0676611
0.0661879
0.0648017
0.0635166
0.0623133
0.0611659
0.0600225
0.0589184
0.0577011
0.0563135
0.0548259
0.0533801
0.0521133
0.0510927
0.0502761
0.0495604
0.0488326
0.0480852
0.0473326
0.0465852
0.0458416
0.0451123
0.465595
0.399387
0.34852
0.30847
0.276141
0.249607
0.227543
0.208876
0.192919
0.179128
0.167122
0.156601
0.147298
0.139041
0.131679
0.125193
0.119597
0.114726
0.110317
0.106212
0.102471
0.0993234
0.0968068
0.0945969
0.0924106
0.0901828
0.0879329
0.085694
0.0835331
0.0814487
0.0794451
0.0775304
0.0756821
0.0739026
0.0721841
0.0705232
0.068923
0.0673642
0.0658387
0.0643458
0.0628938
0.0615019
0.0601883
0.0589145
0.0576962
0.0565412
0.0554747
0.0544913
0.053468
0.0523537
0.0511802
0.0500477
0.0490414
0.0481988
0.0474712
0.0467946
0.0461343
0.0454805
0.0448294
0.0441897
0.465572
0.399399
0.348551
0.30846
0.27613
0.249604
0.227531
0.208865
0.192896
0.179106
0.167124
0.156614
0.147325
0.139067
0.131741
0.125469
0.120414
0.116061
0.111884
0.107779
0.103877
0.100435
0.097435
0.0947633
0.0922972
0.0899718
0.0877783
0.0857013
0.0836904
0.0817217
0.0797951
0.0778967
0.0760382
0.0742228
0.0724505
0.0707226
0.0690379
0.0674088
0.0658325
0.0642958
0.0627958
0.0613492
0.0599732
0.0586602
0.0574005
0.0561971
0.055076
0.0540024
0.0528842
0.0516671
0.0504071
0.049217
0.0481584
0.0472304
0.0464053
0.0456377
0.0449064
0.0442032
0.0435196
0.0428582
0.465536
0.399424
0.348625
0.308535
0.276253
0.249761
0.227676
0.209
0.193033
0.179247
0.167245
0.15672
0.147411
0.139126
0.131853
0.126622
0.12353
0.120458
0.116419
0.111861
0.107455
0.103565
0.100301
0.097457
0.094859
0.0924022
0.0900109
0.0876308
0.0852558
0.0829038
0.0805995
0.078374
0.0762481
0.074224
0.0722735
0.0703694
0.068529
0.06679
0.0651623
0.0636241
0.062142
0.0607043
0.0593496
0.058072
0.0568187
0.0555384
0.0542298
0.0529799
0.0517016
0.0504829
0.049348
0.0481985
0.0470305
0.0459311
0.0449676
0.0441013
0.0432977
0.0425384
0.04181
0.0411087
0.46553
0.399257
0.348329
0.308149
0.275839
0.249336
0.227239
0.20858
0.192656
0.178911
0.166937
0.156431
0.147138
0.138896
0.132147
0.131629
0.134454
0.133826
0.128695
0.121767
0.115207
0.109609
0.104745
0.100342
0.0961782
0.0922568
0.0886156
0.0852971
0.0823943
0.0798852
0.0776257
0.0754558
0.0733281
0.0712954
0.0695729
0.0682896
0.0671557
0.0656573
0.063725
0.0616085
0.0597245
0.0584657
0.0575887
0.0568259
0.0552945
0.0534158
0.0518566
0.0512554
0.0510764
0.0506393
0.0497494
0.0483948
0.0466927
0.0449368
0.0433902
0.0421495
0.041141
0.0402838
0.0394917
0.0386652
0.46566
0.39987
0.349347
0.309541
0.277491
0.251201
0.229235
0.210647
0.194741
0.180977
0.168987
0.158461
0.149195
0.14135
0.135957
0.153415
0.166473
0.168536
0.164211
0.156972
0.148778
0.141042
0.133306
0.125787
0.119317
0.113849
0.109072
0.104711
0.101177
0.0982806
0.096183
0.0946363
0.0929485
0.0910648
0.0890487
0.086524
0.0830678
0.0796489
0.0769896
0.0747943
0.0727583
0.0707596
0.06896
0.0673054
0.0656758
0.0641376
0.0626383
0.0607138
0.0581218
0.0559241
0.0543784
0.052505
0.0497489
0.0466121
0.0438962
0.0417831
0.0400199
0.0384403
0.0368918
0.0353245
0.800935
0.734841
0.679879
0.633549
0.593924
0.559733
0.530089
0.504115
0.481153
0.460746
0.442564
0.426314
0.411833
0.398761
0.385699
0.390296
0.397891
0.393179
0.380695
0.36501
0.348402
0.332788
0.319415
0.308303
0.298897
0.290659
0.283092
0.275768
0.26853
0.261699
0.255553
0.249963
0.244524
0.238688
0.231885
0.223692
0.214032
0.203319
0.192003
0.180998
0.171137
0.162426
0.154956
0.148984
0.144573
0.141793
0.140939
0.142028
0.143442
0.142189
0.13665
0.127056
0.115351
0.104367
0.095737
0.0898607
0.0861896
0.0839803
0.0825427
0.0818222
0.800826
0.734922
0.679939
0.633574
0.593987
0.559815
0.530075
0.504095
0.48119
0.460918
0.442842
0.426718
0.412265
0.399146
0.387027
0.375682
0.365469
0.356687
0.349607
0.343719
0.337831
0.339918
0.342971
0.337916
0.325781
0.310537
0.295512
0.2823
0.270851
0.260641
0.252029
0.245055
0.239505
0.235088
0.231547
0.228741
0.226586
0.22504
0.224033
0.223485
0.22329
0.223241
0.222826
0.221906
0.220205
0.217345
0.212789
0.206739
0.19982
0.192903
0.186717
0.181715
0.178068
0.17577
0.174466
0.173608
0.172396
0.170265
0.166985
0.162728
0.465675
0.399866
0.34928
0.309481
0.277443
0.251219
0.229425
0.211056
0.195378
0.181773
0.169859
0.159361
0.150076
0.141806
0.134438
0.127852
0.121951
0.116719
0.112036
0.108773
0.11084
0.125145
0.137822
0.142222
0.13874
0.131058
0.12213
0.113478
0.105683
0.099267
0.0939395
0.0894217
0.0855172
0.082087
0.0790344
0.0762842
0.0737908
0.0715205
0.0694485
0.0675593
0.0658602
0.0644116
0.0634739
0.0628612
0.0624095
0.0619388
0.0615402
0.0609593
0.0601195
0.0590389
0.0577469
0.0562473
0.0546219
0.0530111
0.051647
0.0506164
0.0500556
0.049836
0.0497475
0.0493112
0.465592
0.399266
0.348315
0.308193
0.275836
0.249302
0.227231
0.208579
0.192678
0.178919
0.166928
0.156431
0.147159
0.138917
0.131572
0.125029
0.119262
0.114195
0.109639
0.105567
0.102964
0.104654
0.108337
0.110288
0.110423
0.108553
0.105442
0.101884
0.0982247
0.0946872
0.0913691
0.0882657
0.0853082
0.0824864
0.0798352
0.0773892
0.0751674
0.0731502
0.0713067
0.069603
0.0679992
0.0664245
0.0648406
0.0632734
0.061752
0.0602638
0.0588203
0.0574161
0.0560549
0.054767
0.0535995
0.0525778
0.0516826
0.0508488
0.0500073
0.0491287
0.0482114
0.0472578
0.046261
0.0452401
0.465574
0.39942
0.348609
0.308557
0.276237
0.249713
0.227635
0.208967
0.193006
0.179204
0.1672
0.156688
0.147369
0.139091
0.131726
0.125217
0.1195
0.114452
0.109901
0.105765
0.102333
0.100379
0.099621
0.0987967
0.0973339
0.0953513
0.093147
0.0907649
0.0882274
0.0856401
0.0831192
0.0807272
0.0784898
0.0763881
0.0743897
0.0724885
0.070691
0.0690207
0.0674727
0.0660138
0.0646161
0.0632965
0.0620579
0.0608731
0.0596985
0.0586078
0.057579
0.0564671
0.0551662
0.0537615
0.0524253
0.0512912
0.0503827
0.0496285
0.0489058
0.0481723
0.0474284
0.0466846
0.045942
0.0452147
0.46554
0.399423
0.348594
0.308467
0.276151
0.249649
0.227549
0.208868
0.192912
0.179142
0.167156
0.156634
0.147324
0.139057
0.131708
0.125246
0.119662
0.114782
0.110354
0.106236
0.102538
0.0994769
0.0970171
0.0948035
0.0925857
0.0903315
0.088054
0.0857744
0.0835752
0.0814625
0.0794364
0.0774966
0.0756294
0.0738314
0.0720989
0.0704312
0.06882
0.0672487
0.0657087
0.0642028
0.062743
0.061355
0.0600305
0.0587461
0.0575183
0.0563508
0.0552712
0.0542927
0.0533875
0.0524445
0.0514015
0.0503131
0.0492856
0.0483931
0.0476256
0.0469271
0.046258
0.0456017
0.0449487
0.0443106
0.465531
0.399428
0.348585
0.308442
0.27615
0.249646
0.227516
0.208834
0.19289
0.179128
0.167143
0.156613
0.147322
0.139078
0.131767
0.125544
0.120507
0.116117
0.111891
0.107765
0.103892
0.100493
0.097527
0.0948693
0.0924012
0.0900722
0.0878717
0.0857678
0.0837269
0.0817346
0.0797844
0.07787
0.0759975
0.0741678
0.0723842
0.070649
0.0689655
0.0673321
0.0657403
0.0641806
0.0626574
0.0611985
0.0598117
0.0584901
0.0572232
0.0560158
0.0548878
0.0538539
0.0528596
0.0517972
0.0506274
0.0494397
0.0483433
0.0473796
0.0465304
0.0457505
0.0450113
0.0443014
0.0436103
0.0429448
0.465557
0.399431
0.348627
0.30855
0.27628
0.249787
0.22766
0.208983
0.193035
0.179257
0.167253
0.156711
0.147398
0.139129
0.131911
0.126846
0.123715
0.120476
0.116309
0.111723
0.107361
0.103559
0.100349
0.0975305
0.0949343
0.092459
0.0900391
0.0876503
0.0852876
0.0829618
0.0806855
0.078471
0.0763249
0.0742454
0.0722254
0.0702803
0.0684477
0.0667416
0.0651341
0.0635605
0.0620067
0.0605289
0.0591472
0.0578504
0.056583
0.0553287
0.0541099
0.052994
0.0518392
0.0506408
0.049486
0.0483329
0.0471672
0.0460618
0.0450875
0.0442097
0.0433947
0.0426243
0.0418839
0.0411749
0.465588
0.399222
0.348303
0.308166
0.275828
0.249319
0.227235
0.208585
0.192657
0.178912
0.166939
0.156432
0.147147
0.138903
0.132476
0.132174
0.134651
0.13362
0.128186
0.121241
0.114832
0.109402
0.104631
0.10023
0.0960597
0.0921325
0.0884559
0.0850837
0.082087
0.0794363
0.0770142
0.0747501
0.0726142
0.070668
0.0690963
0.0678583
0.0665579
0.0648115
0.0627327
0.0607183
0.0591039
0.0579718
0.0571681
0.0565243
0.0554537
0.0538925
0.0522894
0.0513638
0.0510324
0.050636
0.0498371
0.0485543
0.0468858
0.0451238
0.0435446
0.0422657
0.0412244
0.0403441
0.0395402
0.0387166
0.465699
0.399843
0.349348
0.309562
0.277466
0.251139
0.22915
0.210512
0.194589
0.180852
0.168888
0.158418
0.149128
0.140881
0.136387
0.151311
0.164261
0.167414
0.163907
0.156955
0.148606
0.140539
0.132449
0.124988
0.11863
0.113216
0.10853
0.104502
0.101169
0.0981225
0.0952745
0.0930753
0.0909303
0.0889764
0.0873516
0.0857246
0.0834069
0.0807002
0.0780585
0.0757261
0.0736051
0.0714251
0.0694055
0.0675759
0.0658663
0.0642602
0.062714
0.0608703
0.0583929
0.056128
0.0545538
0.0527246
0.0500143
0.0468608
0.0440869
0.0419239
0.0401334
0.0385429
0.0369963
0.0354386
0.800833
0.734802
0.679887
0.633501
0.593918
0.559802
0.530112
0.504104
0.481106
0.460617
0.442247
0.425705
0.410858
0.39804
0.385531
0.387556
0.396173
0.393043
0.381501
0.366292
0.349868
0.334127
0.320563
0.309349
0.299894
0.29166
0.284125
0.276797
0.269501
0.262617
0.256394
0.250697
0.245236
0.239436
0.23273
0.224691
0.215206
0.204607
0.193405
0.182459
0.172569
0.163747
0.156095
0.149908
0.145276
0.142289
0.141234
0.142156
0.143577
0.1426
0.137398
0.128089
0.116502
0.105444
0.0966154
0.0905228
0.0866833
0.0843686
0.0828698
0.0821158
)
;

boundaryField
{
    wall
    {
        type            compressible::alphatJayatillekeWallFunction;
        Prt             0.85;
        value           uniform 0;
    }
    inlet
    {
        type            calculated;
        value           uniform 37.903;
    }
    outlet
    {
        type            calculated;
        value           nonuniform List<scalar> 
20
(
0.161617
0.0492784
0.0451063
0.0451125
0.0441898
0.0428582
0.0411091
0.0386654
0.0353245
0.081822
0.162728
0.0493115
0.0452406
0.0452149
0.0443107
0.0429448
0.0411752
0.0387168
0.0354386
0.0821156
)
;
    }
    heatWall
    {
        type            compressible::alphatJayatillekeWallFunction;
        Prt             0.85;
        value           nonuniform List<scalar> 
240
(
0
0
0
0
0
0
0
0
0.0602408
0.0602416
0.0568724
0.0568762
0.0539425
0.0539435
0.0513723
0.0513727
0.0491001
0.0490968
0.0470793
0.0470677
0.0452745
0.0452487
0.0436603
0.0436136
0.0422118
0.0421588
0.040893
0.0408533
0.0397008
0.0396409
0.0405289
0.0402382
0.0412403
0.0410792
0.0406238
0.0406242
0.0392411
0.0393328
0.0375775
0.0377144
0.0358618
0.0360101
0.0342988
0.034434
0.0329786
0.0330962
0.0318785
0.0319848
0.0309429
0.031044
0.0301167
0.0302171
0.029348
0.0294498
0.0286009
0.0287032
0.0278729
0.0279716
0.0271876
0.0272794
0.0265695
0.0266522
0.0260026
0.0260782
0.0254443
0.0255188
0.0248372
0.0249151
0.0241229
0.024211
0.0232609
0.0233656
0.0222476
0.0223701
0.0211298
0.0212673
0.0199609
0.0201096
0.0188332
0.0189846
0.0178319
0.0179767
0.0169567
0.0170878
0.0162153
0.0163267
0.01563
0.0157191
0.0152042
0.0152721
0.0149451
0.0149936
0.0148865
0.014915
0.0150249
0.0150373
0.0151735
0.0151899
0.0150229
0.0150683
0.0144183
0.0144987
0.013395
0.0135033
0.0121675
0.0122851
0.0110309
0.0111386
0.0101502
0.0102374
0.00955847
0.00962382
0.0091934
0.00924233
0.00897467
0.00901359
0.00883503
0.00886832
0.00876308
0.00879364
0
0
0
0
0
0
0.0641354
0.0641457
0.0602405
0.0602451
0.0568796
0.0568773
0.0539525
0.0539449
0.0513818
0.0513772
0.0491082
0.0491131
0.0470941
0.0471016
0.0453066
0.0453095
0.0437138
0.0437079
0.0422884
0.0422698
0.0409876
0.0409632
0.0397834
0.0397556
0.0386708
0.0386329
0.0376939
0.0376363
0.0368833
0.0367853
0.0362256
0.0361226
0.0356173
0.0355343
0.0352386
0.0350853
0.0356727
0.0354391
0.0356878
0.0356062
0.0348559
0.0349318
0.0334416
0.0336033
0.0318247
0.0320123
0.0302924
0.0304739
0.0289697
0.0291339
0.0278342
0.0279815
0.0268535
0.026975
0.0260414
0.0261371
0.0253861
0.0254607
0.0248624
0.0249209
0.0244439
0.0244898
0.0241077
0.0241432
0.0238437
0.0238701
0.0236444
0.0236625
0.0235046
0.0235154
0.0234131
0.0234194
0.0233577
0.0233638
0.0233247
0.0233363
0.023298
0.0233184
0.0232426
0.0232677
0.0231276
0.0231615
0.0229211
0.0229695
0.0225848
0.0226528
0.0220923
0.0221758
0.0214584
0.0215541
0.0207507
0.020853
0.0200554
0.0201593
0.0194407
0.0195429
0.0189506
0.0190476
0.0186004
0.0186893
0.0183893
0.0184668
0.0182833
0.0183477
0.0182024
0.0182623
0.0180602
0.0181264
0.0178042
0.0178849
0.0174253
0.0175233
0.0169437
0.0170579
)
;
    }
}


// ************************************************************************* //
