/*--------------------------------*- C++ -*----------------------------------*\
  =========                 |
  \\      /  F ield         | OpenFOAM: The Open Source CFD Toolbox
   \\    /   O peration     | Website:  https://openfoam.org
    \\  /    A nd           | Version:  8
     \\/     M anipulation  |
\*---------------------------------------------------------------------------*/
FoamFile
{
    version     2.0;
    format      ascii;
    class       volScalarField;
    location    "500";
    object      p_rgh;
}
// * * * * * * * * * * * * * * * * * * * * * * * * * * * * * * * * * * * * * //

dimensions      [1 -1 -2 0 0 0 0];

internalField   nonuniform List<scalar> 
1200
(
1.50506e+06
1.50218e+06
1.50064e+06
1.50016e+06
1.49974e+06
1.49909e+06
1.4985e+06
1.49818e+06
1.49834e+06
1.49823e+06
1.49749e+06
1.49651e+06
1.49544e+06
1.49398e+06
1.49191e+06
1.48868e+06
1.48343e+06
1.47709e+06
1.47159e+06
1.46897e+06
1.47494e+06
1.47961e+06
1.46817e+06
1.45701e+06
1.44843e+06
1.44101e+06
1.43561e+06
1.43285e+06
1.43291e+06
1.43269e+06
1.42932e+06
1.42137e+06
1.40921e+06
1.39422e+06
1.37714e+06
1.35801e+06
1.33577e+06
1.31027e+06
1.28204e+06
1.25238e+06
1.22248e+06
1.19328e+06
1.16551e+06
1.14073e+06
1.11943e+06
1.10076e+06
1.08232e+06
1.06033e+06
1.03105e+06
989955
932585
857070
765653
664128
558317
451247
345492
241735
142423
41770.9
1.49785e+06
1.49859e+06
1.49861e+06
1.49876e+06
1.4988e+06
1.49855e+06
1.49818e+06
1.4979e+06
1.49811e+06
1.49798e+06
1.49735e+06
1.49647e+06
1.49548e+06
1.49407e+06
1.49203e+06
1.48882e+06
1.48342e+06
1.47683e+06
1.47103e+06
1.46797e+06
1.47072e+06
1.47437e+06
1.46821e+06
1.45888e+06
1.44936e+06
1.44154e+06
1.43624e+06
1.43364e+06
1.43412e+06
1.43426e+06
1.43088e+06
1.42273e+06
1.41039e+06
1.39537e+06
1.3784e+06
1.35943e+06
1.33733e+06
1.31184e+06
1.28345e+06
1.25341e+06
1.22289e+06
1.19305e+06
1.16498e+06
1.14024e+06
1.11921e+06
1.10101e+06
1.08317e+06
1.06182e+06
1.0332e+06
992559
935306
859440
767412
665485
559370
452106
346300
242639
143218
42562.5
1.49914e+06
1.50045e+06
1.50059e+06
1.50036e+06
1.50001e+06
1.49945e+06
1.49875e+06
1.49836e+06
1.49844e+06
1.49835e+06
1.49763e+06
1.49664e+06
1.49559e+06
1.4942e+06
1.49228e+06
1.48914e+06
1.48336e+06
1.47644e+06
1.4705e+06
1.46682e+06
1.46721e+06
1.46981e+06
1.46536e+06
1.45771e+06
1.44912e+06
1.442e+06
1.43654e+06
1.43349e+06
1.43377e+06
1.43384e+06
1.43062e+06
1.42256e+06
1.41016e+06
1.39507e+06
1.3782e+06
1.35944e+06
1.33756e+06
1.31207e+06
1.28347e+06
1.25309e+06
1.22223e+06
1.19214e+06
1.16395e+06
1.13916e+06
1.11832e+06
1.10067e+06
1.08353e+06
1.06287e+06
1.03495e+06
994741
937574
861505
769117
666287
559488
451950
346169
242779
143276
41797.9
1.49913e+06
1.49969e+06
1.49952e+06
1.4992e+06
1.49898e+06
1.4987e+06
1.49819e+06
1.49787e+06
1.498e+06
1.49796e+06
1.49735e+06
1.49646e+06
1.49553e+06
1.49422e+06
1.49241e+06
1.48946e+06
1.48321e+06
1.47588e+06
1.46983e+06
1.46588e+06
1.46569e+06
1.46782e+06
1.46525e+06
1.45986e+06
1.4527e+06
1.44532e+06
1.43931e+06
1.43593e+06
1.43561e+06
1.43509e+06
1.43132e+06
1.42291e+06
1.41048e+06
1.3955e+06
1.3787e+06
1.35987e+06
1.33799e+06
1.31246e+06
1.2837e+06
1.25291e+06
1.22133e+06
1.19047e+06
1.16236e+06
1.13829e+06
1.11824e+06
1.10135e+06
1.08514e+06
1.06542e+06
1.03804e+06
997427
939087
861579
768606
665852
559589
452663
347417
244498
144685
43455.6
1.4992e+06
1.49963e+06
1.4997e+06
1.49954e+06
1.49938e+06
1.49915e+06
1.49861e+06
1.49815e+06
1.4981e+06
1.49801e+06
1.49748e+06
1.49664e+06
1.49577e+06
1.49455e+06
1.49299e+06
1.49059e+06
1.48368e+06
1.47553e+06
1.46897e+06
1.46476e+06
1.46452e+06
1.46649e+06
1.46502e+06
1.46084e+06
1.45465e+06
1.44771e+06
1.4417e+06
1.43835e+06
1.43792e+06
1.43734e+06
1.43342e+06
1.42472e+06
1.41187e+06
1.39654e+06
1.37956e+06
1.36073e+06
1.33896e+06
1.31337e+06
1.2843e+06
1.253e+06
1.22088e+06
1.18982e+06
1.16212e+06
1.13882e+06
1.1193e+06
1.10195e+06
1.08462e+06
1.06489e+06
1.03864e+06
998855
940277
861567
766797
663139
557100
451068
346925
245006
145478
44506.5
1.49919e+06
1.49956e+06
1.49965e+06
1.4995e+06
1.49935e+06
1.49919e+06
1.49867e+06
1.49818e+06
1.49804e+06
1.49791e+06
1.49741e+06
1.49658e+06
1.49569e+06
1.49441e+06
1.49272e+06
1.49112e+06
1.48357e+06
1.47515e+06
1.46902e+06
1.46512e+06
1.46536e+06
1.46744e+06
1.46637e+06
1.46251e+06
1.45663e+06
1.44982e+06
1.44406e+06
1.44176e+06
1.4424e+06
1.4425e+06
1.43862e+06
1.42938e+06
1.41551e+06
1.39905e+06
1.38157e+06
1.36295e+06
1.3416e+06
1.31604e+06
1.2865e+06
1.25447e+06
1.22162e+06
1.19004e+06
1.16233e+06
1.13965e+06
1.12094e+06
1.10392e+06
1.08632e+06
1.06649e+06
1.04046e+06
1.00064e+06
940893
860536
764642
660744
555267
450229
347117
245887
146514
45490.6
1.49911e+06
1.49944e+06
1.49934e+06
1.499e+06
1.49878e+06
1.49869e+06
1.49824e+06
1.49778e+06
1.49763e+06
1.49751e+06
1.49708e+06
1.49631e+06
1.49539e+06
1.49399e+06
1.49198e+06
1.49216e+06
1.48383e+06
1.47374e+06
1.46583e+06
1.46068e+06
1.45944e+06
1.46105e+06
1.46049e+06
1.45764e+06
1.45318e+06
1.44805e+06
1.44475e+06
1.44553e+06
1.4491e+06
1.4512e+06
1.44791e+06
1.43777e+06
1.42183e+06
1.40305e+06
1.38424e+06
1.36571e+06
1.3448e+06
1.319e+06
1.28851e+06
1.25542e+06
1.22179e+06
1.18992e+06
1.16239e+06
1.14051e+06
1.12269e+06
1.10635e+06
1.08927e+06
1.0698e+06
1.04368e+06
1.00265e+06
941080
859175
761817
656808
551552
447761
346237
246264
147532
46473.4
1.49912e+06
1.50006e+06
1.50025e+06
1.49997e+06
1.49968e+06
1.49948e+06
1.49895e+06
1.49841e+06
1.4981e+06
1.49784e+06
1.49738e+06
1.49664e+06
1.49567e+06
1.49416e+06
1.49112e+06
1.49424e+06
1.48464e+06
1.47411e+06
1.46663e+06
1.46107e+06
1.457e+06
1.45405e+06
1.45132e+06
1.44888e+06
1.44736e+06
1.44715e+06
1.44966e+06
1.45627e+06
1.46406e+06
1.46778e+06
1.46361e+06
1.45047e+06
1.43008e+06
1.40711e+06
1.38622e+06
1.36786e+06
1.3476e+06
1.3216e+06
1.29027e+06
1.25635e+06
1.22218e+06
1.19004e+06
1.16267e+06
1.14207e+06
1.12672e+06
1.11126e+06
1.09305e+06
1.07094e+06
1.04304e+06
1.00124e+06
938901
856424
759099
654707
550070
446962
346421
247109
148569
48175.4
1.49791e+06
1.49815e+06
1.49844e+06
1.49848e+06
1.49847e+06
1.49862e+06
1.49827e+06
1.49789e+06
1.49774e+06
1.4976e+06
1.49726e+06
1.49663e+06
1.49573e+06
1.49443e+06
1.49269e+06
1.50058e+06
1.48754e+06
1.47341e+06
1.46555e+06
1.46188e+06
1.45871e+06
1.45759e+06
1.45569e+06
1.45291e+06
1.45138e+06
1.45135e+06
1.45423e+06
1.46137e+06
1.46907e+06
1.47186e+06
1.46643e+06
1.452e+06
1.43063e+06
1.40813e+06
1.38896e+06
1.37239e+06
1.35258e+06
1.32533e+06
1.29246e+06
1.25754e+06
1.22358e+06
1.19257e+06
1.16519e+06
1.14312e+06
1.12583e+06
1.10953e+06
1.09238e+06
1.07238e+06
1.04571e+06
1.00399e+06
940632
856706
757917
652347
547618
445559
346268
247784
149411
49160.3
1.50507e+06
1.50161e+06
1.50035e+06
1.49978e+06
1.49941e+06
1.49928e+06
1.4988e+06
1.49834e+06
1.4981e+06
1.49789e+06
1.49751e+06
1.49684e+06
1.496e+06
1.49489e+06
1.49515e+06
1.50897e+06
1.49016e+06
1.47152e+06
1.46171e+06
1.45723e+06
1.4536e+06
1.45051e+06
1.44774e+06
1.44533e+06
1.44456e+06
1.44564e+06
1.44964e+06
1.45779e+06
1.4664e+06
1.4698e+06
1.46477e+06
1.45074e+06
1.42971e+06
1.40696e+06
1.38678e+06
1.36882e+06
1.34846e+06
1.32185e+06
1.29004e+06
1.25617e+06
1.223e+06
1.19235e+06
1.16496e+06
1.14318e+06
1.1265e+06
1.11049e+06
1.09266e+06
1.07129e+06
1.04271e+06
999483
936106
853095
755486
650850
546668
445068
346479
248472
150194
49715.5
1.50545e+06
1.50148e+06
1.50023e+06
1.49974e+06
1.49943e+06
1.49938e+06
1.49924e+06
1.49879e+06
1.49796e+06
1.49732e+06
1.49684e+06
1.49625e+06
1.49535e+06
1.49401e+06
1.49217e+06
1.48926e+06
1.48428e+06
1.47802e+06
1.47207e+06
1.46866e+06
1.47429e+06
1.47859e+06
1.46673e+06
1.45499e+06
1.44637e+06
1.44033e+06
1.43616e+06
1.43402e+06
1.43351e+06
1.43253e+06
1.42876e+06
1.42074e+06
1.40871e+06
1.3939e+06
1.37708e+06
1.358e+06
1.33602e+06
1.31075e+06
1.28263e+06
1.25284e+06
1.2226e+06
1.19288e+06
1.16494e+06
1.14021e+06
1.11893e+06
1.10012e+06
1.08131e+06
1.05915e+06
1.02997e+06
988851
931506
856174
765082
664009
558462
451675
346053
242509
142780
42501.8
1.49798e+06
1.4982e+06
1.49839e+06
1.49851e+06
1.49859e+06
1.49876e+06
1.49882e+06
1.49843e+06
1.49772e+06
1.4971e+06
1.49668e+06
1.49617e+06
1.49533e+06
1.49405e+06
1.49225e+06
1.48939e+06
1.48425e+06
1.47782e+06
1.47168e+06
1.46793e+06
1.47057e+06
1.47417e+06
1.46739e+06
1.45676e+06
1.4466e+06
1.43992e+06
1.43586e+06
1.43397e+06
1.43394e+06
1.43347e+06
1.42982e+06
1.42162e+06
1.40941e+06
1.39454e+06
1.37779e+06
1.35887e+06
1.33705e+06
1.31182e+06
1.28351e+06
1.25335e+06
1.22252e+06
1.19218e+06
1.16393e+06
1.13922e+06
1.11821e+06
1.09984e+06
1.08161e+06
1.06009e+06
1.03155e+06
990841
933576
857880
766194
664734
558903
451968
346343
242939
143152
42857.9
1.49934e+06
1.50007e+06
1.50026e+06
1.50007e+06
1.49981e+06
1.49955e+06
1.49935e+06
1.49896e+06
1.49817e+06
1.4976e+06
1.49714e+06
1.49658e+06
1.4957e+06
1.49444e+06
1.49276e+06
1.48995e+06
1.48445e+06
1.47762e+06
1.47131e+06
1.467e+06
1.4674e+06
1.47019e+06
1.46548e+06
1.45695e+06
1.44781e+06
1.44152e+06
1.437e+06
1.43434e+06
1.43393e+06
1.43336e+06
1.42988e+06
1.42178e+06
1.4095e+06
1.39456e+06
1.37782e+06
1.35907e+06
1.33744e+06
1.31218e+06
1.28361e+06
1.25311e+06
1.222e+06
1.19147e+06
1.16314e+06
1.13842e+06
1.11757e+06
1.09974e+06
1.08221e+06
1.06141e+06
1.03359e+06
993319
936128
860177
768110
665755
559233
452018
346404
243255
143335
42464
1.49928e+06
1.49951e+06
1.49942e+06
1.4992e+06
1.499e+06
1.49878e+06
1.49868e+06
1.49842e+06
1.49784e+06
1.49736e+06
1.49699e+06
1.4965e+06
1.4957e+06
1.49451e+06
1.49292e+06
1.49025e+06
1.48429e+06
1.47725e+06
1.47099e+06
1.4664e+06
1.46614e+06
1.46832e+06
1.46542e+06
1.45915e+06
1.45148e+06
1.44489e+06
1.43985e+06
1.43689e+06
1.43595e+06
1.43492e+06
1.43092e+06
1.42241e+06
1.41002e+06
1.39516e+06
1.37847e+06
1.35968e+06
1.33803e+06
1.31274e+06
1.28398e+06
1.25307e+06
1.22122e+06
1.18987e+06
1.16154e+06
1.13752e+06
1.11745e+06
1.10035e+06
1.08376e+06
1.06399e+06
1.03682e+06
996159
937752
860298
767561
665225
559197
452572
347462
244771
144554
44021
1.49934e+06
1.49961e+06
1.49969e+06
1.49959e+06
1.49941e+06
1.49909e+06
1.49899e+06
1.49875e+06
1.49812e+06
1.49757e+06
1.49718e+06
1.4967e+06
1.49598e+06
1.49493e+06
1.49368e+06
1.49165e+06
1.48507e+06
1.47715e+06
1.47021e+06
1.46526e+06
1.46489e+06
1.46686e+06
1.46508e+06
1.46009e+06
1.45336e+06
1.447e+06
1.44182e+06
1.43879e+06
1.43781e+06
1.43692e+06
1.43296e+06
1.42422e+06
1.41141e+06
1.39621e+06
1.37933e+06
1.36056e+06
1.33899e+06
1.31364e+06
1.28456e+06
1.25317e+06
1.2208e+06
1.18923e+06
1.16128e+06
1.13803e+06
1.1185e+06
1.10102e+06
1.08337e+06
1.06352e+06
1.03736e+06
997500
938896
860312
765891
662704
556868
451070
346970
245219
145243
45058.3
1.49934e+06
1.49966e+06
1.49975e+06
1.49968e+06
1.49953e+06
1.49916e+06
1.49906e+06
1.49886e+06
1.49828e+06
1.49773e+06
1.49728e+06
1.49677e+06
1.4961e+06
1.49507e+06
1.49378e+06
1.49263e+06
1.48558e+06
1.47757e+06
1.47094e+06
1.46591e+06
1.46569e+06
1.46759e+06
1.46621e+06
1.46169e+06
1.45529e+06
1.44883e+06
1.44371e+06
1.44163e+06
1.44179e+06
1.44178e+06
1.43808e+06
1.42889e+06
1.41507e+06
1.39873e+06
1.38134e+06
1.36277e+06
1.34157e+06
1.31622e+06
1.28666e+06
1.25454e+06
1.22146e+06
1.18933e+06
1.16135e+06
1.13872e+06
1.12001e+06
1.10288e+06
1.08508e+06
1.06519e+06
1.03926e+06
999355
939541
859184
763495
660023
554758
449992
346907
245880
146075
45983.5
1.49926e+06
1.49961e+06
1.49942e+06
1.49915e+06
1.49892e+06
1.49858e+06
1.4985e+06
1.49836e+06
1.49793e+06
1.49749e+06
1.49709e+06
1.49661e+06
1.496e+06
1.49501e+06
1.49358e+06
1.49435e+06
1.48657e+06
1.47683e+06
1.46826e+06
1.46175e+06
1.45985e+06
1.46124e+06
1.46034e+06
1.45687e+06
1.45179e+06
1.44665e+06
1.44375e+06
1.44461e+06
1.4478e+06
1.45002e+06
1.44714e+06
1.43717e+06
1.42128e+06
1.40263e+06
1.3839e+06
1.36541e+06
1.34462e+06
1.31896e+06
1.28844e+06
1.25527e+06
1.22147e+06
1.18901e+06
1.16122e+06
1.13943e+06
1.1216e+06
1.10512e+06
1.08787e+06
1.06839e+06
1.04236e+06
1.00119e+06
939577
857795
760819
656344
551240
447608
345938
246068
146841
46823.5
1.49928e+06
1.50045e+06
1.50051e+06
1.50034e+06
1.50007e+06
1.49947e+06
1.49928e+06
1.49904e+06
1.49846e+06
1.49787e+06
1.49733e+06
1.49671e+06
1.496e+06
1.49485e+06
1.49247e+06
1.49673e+06
1.4887e+06
1.47964e+06
1.47212e+06
1.46507e+06
1.45939e+06
1.45526e+06
1.45161e+06
1.44835e+06
1.44612e+06
1.44565e+06
1.44837e+06
1.45495e+06
1.46241e+06
1.46635e+06
1.46274e+06
1.44983e+06
1.42948e+06
1.40661e+06
1.38587e+06
1.36766e+06
1.34754e+06
1.32167e+06
1.29027e+06
1.25624e+06
1.22188e+06
1.18907e+06
1.16144e+06
1.14091e+06
1.12552e+06
1.11005e+06
1.09194e+06
1.07003e+06
1.04227e+06
1.00027e+06
937715
855047
757802
653846
549449
446589
345868
246642
147638
48173.8
1.49798e+06
1.49838e+06
1.49848e+06
1.49866e+06
1.4987e+06
1.49845e+06
1.49845e+06
1.49832e+06
1.49791e+06
1.49745e+06
1.49698e+06
1.49639e+06
1.49567e+06
1.49463e+06
1.49327e+06
1.50176e+06
1.48988e+06
1.47662e+06
1.46835e+06
1.46372e+06
1.46022e+06
1.45889e+06
1.45654e+06
1.45309e+06
1.45074e+06
1.45015e+06
1.45299e+06
1.45992e+06
1.46723e+06
1.4703e+06
1.46551e+06
1.45137e+06
1.43013e+06
1.40774e+06
1.38857e+06
1.37198e+06
1.35225e+06
1.3252e+06
1.29235e+06
1.25739e+06
1.22332e+06
1.19163e+06
1.16402e+06
1.1421e+06
1.12472e+06
1.10814e+06
1.09074e+06
1.07066e+06
1.04393e+06
1.00204e+06
938744
855017
756607
651595
547011
445054
345404
246883
148031
48881.7
1.50516e+06
1.50207e+06
1.50041e+06
1.5e+06
1.49966e+06
1.49907e+06
1.49891e+06
1.49866e+06
1.49812e+06
1.49757e+06
1.49705e+06
1.49644e+06
1.49579e+06
1.49488e+06
1.49528e+06
1.50909e+06
1.49126e+06
1.47406e+06
1.46443e+06
1.45911e+06
1.45463e+06
1.45082e+06
1.44735e+06
1.44437e+06
1.44298e+06
1.44367e+06
1.4478e+06
1.45587e+06
1.46423e+06
1.46791e+06
1.46357e+06
1.44992e+06
1.42901e+06
1.40636e+06
1.38623e+06
1.3683e+06
1.34797e+06
1.32148e+06
1.28973e+06
1.25588e+06
1.22268e+06
1.19139e+06
1.16378e+06
1.14214e+06
1.12548e+06
1.10944e+06
1.09175e+06
1.07071e+06
1.0423e+06
998761
935053
851831
754335
650197
546199
444734
345756
247703
148984
49534.1
)
;

boundaryField
{
    wall
    {
        type            fixedFluxPressure;
        gradient        nonuniform List<scalar> 
1200
(
-79248.2
-26042.2
-40182.7
-29002.7
-28448.8
-30122
-30938.9
-33751.1
-15320.8
-17988.1
142134
79227.9
77129.6
35636.5
4877.46
-20261.4
-33683.7
-77961.1
-47848.5
-92993.2
82011.2
43286.6
67337.6
19076.2
1918.91
-20476.4
-16150
-52791.8
-7088.62
-13531
84739.4
50691
57525.2
802.027
-9600.8
-35995.7
-28807.7
-75481.8
-36081.4
-42783.8
63302.3
43335.9
40633.3
-4201.96
-5671.94
-36296.4
-29444.6
-79151.1
-45569.3
-51250.9
-58013.8
-41687.2
-20071.3
-14813.7
13655.4
4406.7
22329.8
2704.41
32944.2
43858.6
-148976
-127618
-119039
-98130.7
-76393.6
-78222.8
-53282.9
-67556
-36392.3
-22721.7
-123716
-105114
-120613
-111748
-120519
-136501
-116317
-127314
-86120.2
-63306.5
77021
78396.8
54402.2
31865.2
-4320.13
-49158.6
-59543.8
-73114.8
-34784.9
-3873.51
181157
176779
150543
119961
88417.6
35144.1
2525.02
-6620.98
29546.6
64903.3
131824
134832
97973.3
72624.2
60763.8
24732.1
-4329.74
9405.91
56519.5
93119.1
51634.2
60402.9
11590
-9037.19
-13500.2
-39914.2
-63127.7
-18206.2
48217.5
81718.9
18973.4
32293.6
-20498.4
-32393.7
-41499.2
-82071.6
-126482
-69970.8
11939.6
42866.3
-5553.27
6781.62
-47953.3
-55966.4
-75481.7
-132731
-211857
-144682
-37555.4
3367.8
-50759.6
-44071.2
-95948.4
-102391
-138630
-214812
-330979
-284435
-118571
-16910.9
-114026
-112502
-163374
-158027
-210860
-307224
-444688
-516467
-228276
-25191.1
-168767
-165613
-219578
-216253
-276702
-406264
-554115
-820954
-456141
-236607
-185614
-198124
-237659
-273852
-322361
-483612
-624565
-1.1235e+06
-637904
-518002
-94602
-131359
-162286
-229694
-243358
-373591
-490516
-1.14216e+06
-557292
-543755
63804
6999.71
-36854.9
-103116
-94556.7
-139834
-212592
-859140
-363318
-364410
141403
29686
-43124
-87745.8
-68875.7
-40729.3
-76732.8
-529894
-299256
-192789
205841
41616.2
-79929.5
-94442.6
-67397
-4017.95
-26526.7
-285035
-264357
-53422.6
272694
162677
-15151.7
-27176
-5928.18
53757.3
37458.8
-85765.9
-196758
79910.8
383192
420709
161294
146338
154171
179925
160193
91781.3
-77277.1
192766
401537
549077
265321
245997
263748
280208
280121
246930
96554.1
314626
130713
325013
94049.1
85090.6
144645
205297
275117
311162
221434
393316
-111663
74646.2
-94527.5
-112507
-25700.1
68131.1
193335
283546
238958
367553
-236460
-70825.7
-170724
-201065
-95321.8
19464.8
175294
302089
290168
386394
-119634
30011.4
-32396.2
-79047.6
11387.9
113958
254308
377920
370756
440327
31623.6
152246
91579.7
24387.7
71866.3
134961
236919
340764
315366
388646
112751
208958
139760
69268
81821.3
101338
160383
226129
185604
255964
127326
218740
146661
91992.4
93386.6
92366.1
130547
172255
124432
183535
100817
196382
126448
85813.3
87010.5
83507.5
118961
149514
98061.5
156331
63598.2
163503
101446
64380.1
63182.1
61299.9
94791.8
112083
73193.8
132328
12832.5
120124
75824.9
43740.3
43354.2
46002.8
75444.4
74102.3
67952.6
116048
2886.09
108953
71658.9
35921.7
32750.5
37134.7
63463.2
45960.7
69696.5
109991
-49086.5
53507.2
21071.2
-12169
-10717.6
4233.24
41592
25680.9
59619.6
104696
-96080
2933.53
-27564.9
-58700.3
-57541.6
-35841
11969.6
3152.78
31797
76319.2
-117587
-14390.1
-36672.1
-59499.3
-58146
-31998.4
17593.2
14389.8
30491.6
61330.4
-90659.9
11797.1
-11968.8
-34812.3
-38095.9
-12830.7
30671.2
34348.7
36681.3
56679
-23624.7
73962.3
43285
20438.2
12562.2
32379.1
64431.8
71858.7
58611.6
61479.7
79995.4
174748
134280
118937
115448
142186
182357
201925
195435
191690
113939
212842
167610
163546
165701
196865
235315
249346
241269
237570
104458
204278
156257
153534
156005
185382
217550
226898
211354
208575
100063
201220
156110
156017
155700
186840
220164
224807
230907
201053
128417
232778
189486
192374
182116
209025
245926
227138
286346
206664
201310
310588
264464
262249
245620
247314
276172
214104
333635
181212
237012
346277
291487
268955
266886
253744
276042
179317
345547
114936
216093
327873
267612
230789
245600
230212
257816
150862
351583
81105
220453
340847
279494
245286
258588
247642
285170
186754
380975
143025
215054
343064
283001
261952
264425
262148
292096
232216
365757
209251
178250
309169
258952
253387
240255
264395
266075
271937
328065
252266
113586
242763
195592
206027
172821
224060
191786
256983
256312
230816
23783.2
149912
102706
121813
81885.6
139104
88716
169559
148564
132079
-28513.7
93090
48806.8
75054.7
44029.9
98067.1
61548.5
121559
121869
95613
-84629.9
27355.4
-15063.7
15495.7
-1237.46
45202.8
31371.5
73831.5
102298
68656.8
-111204
-8798.98
-47911.5
-11381.2
-9168.77
41317.8
61254.5
111208
174828
145794
-153338
-59749.8
-95476.1
-56509.2
-42817.9
1381.69
40679.4
94773.5
182336
154217
-71781.2
11939.7
-12728.2
24480.3
46674
88456.5
139624
187760
278505
242433
-142976
-57352.1
-129184
-112233
-109142
-97122.5
-67966.6
1600.58
56766
36990.6
79248
26041.9
40182.6
29002.6
28448.8
30122
30938.9
33751.1
15320.8
17988.1
-142187
-79235
-77140.1
-35640.3
-4879.75
20259.6
33682.3
77960.7
47849.4
93003.9
-82034.9
-43288.9
-67343.8
-19079.5
-1924.33
20467.3
16138.3
52766.5
7080.43
13544.5
-84735.3
-50685.4
-57524.1
-801.786
9594.05
35968.5
28774.5
75405.3
36061.8
42778.4
-63281.3
-43326
-40628.2
4203.13
5655.24
36212.9
29363
78980.6
45545.1
51260.4
58058.9
41705.8
20080.6
14814.6
-13687.7
-4587.27
-22498.4
-3072.3
-33017.5
-43888.9
149047
127649
119054
98133.2
76370.1
78020.2
53101.2
67130.6
36334
22739.1
123817
105159
120637
111782
120489
136217
116056
126800
86093.4
63405.2
-76830.6
-78188.1
-54304.6
-31859.1
4222.8
48619.3
59015.2
72359
34758.6
4040.82
-181086
-176754
-150527
-119986
-88580.6
-35927.6
-3393.47
5554.02
-29574.5
-64659.8
-131780
-134819
-97963.4
-72623
-60878.8
-25606.4
3144.17
-10809.1
-56512.4
-92812.2
-51592.2
-60393.2
-11580.6
9043.34
13436
38959.7
61496
16447.8
-48131.1
-81433.9
-18929.3
-32287
20507.6
32403.6
41400.3
80847.8
123960
67656.1
-11729.5
-42715.8
5595.73
-6779.71
47963
55984.6
75228.2
131051
207763
141658
37932.1
-3257.95
50802
44072.4
95961.1
102420
138086
212201
324308
280593
119019
16523.3
114079
112510
163385
157966
209468
302778
437735
517080
229163
22086
168863
165636
219728
216309
275491
401708
548923
827412
441053
233101
185818
198189
238322
274748
323407
480723
617469
1.11725e+06
630442
516470
94984.3
132018
163438
232129
248718
375988
483436
1.10586e+06
555445
543504
-62242.8
-4754.46
39120.5
107573
104419
150807
214101
806713
363078
364706
-141642
-27673.3
46991.3
94300
79168
58236.1
88512.1
493086
299187
193177
-206798
-40064.7
87566.1
104104
77058.2
18598
39152
272964
262345
52976.1
-273566
-163194
27083.6
36733.5
13519.5
-44228.6
-31480.7
91417.1
168331
-81146.7
-383478
-421633
-153020
-139707
-149822
-175408
-158561
-76579.9
24534.8
-193550
-401445
-549785
-265182
-242125
-262582
-279463
-279851
-226697
-141652
-314792
-130448
-325235
-94044
-83099.2
-145666
-206711
-273962
-288122
-251351
-393098
111978
-74480
94527.1
113074
22734.9
-70718.7
-189419
-260200
-258374
-367136
236769
71214.3
170755
198133
90042.3
-22131.3
-168742
-280102
-304179
-385930
119922
-29564.3
32473.9
71024.7
-18176.5
-116322
-245563
-357979
-382403
-439857
-31314.2
-151809
-91397.5
-33874.8
-78630.6
-136544
-226271
-322931
-325628
-388165
-112437
-208533
-139552
-77753.9
-87408.7
-102121
-148910
-211318
-193730
-255500
-127027
-218325
-146480
-98672.2
-97814.5
-92726.7
-119677
-160806
-129588
-183105
-100540
-195996
-126302
-90824.2
-90560.3
-83516.7
-109582
-141033
-99536.3
-155946
-63345.4
-163169
-101310
-68348.7
-66250.6
-61020.3
-87132
-105138
-73625.6
-131954
-12597.8
-119848
-75680.4
-47126.4
-46257.5
-45588.6
-69573.1
-68182.8
-68212.6
-115669
-2675.01
-108730
-71530.1
-38727.4
-35244.7
-36643.4
-59450.6
-42192.6
-69947.4
-109603
49271.1
-53327.3
-20982
10308
8905.88
-3722.54
-39255.4
-24294.3
-59704.7
-104293
96234.7
-2785.41
27619.5
57628.1
55846.4
36083.9
-10683.8
-3603.78
-31670.4
-75916.3
117714
14517.9
36712.9
58649.2
55670.3
31777.8
-16372.6
-14506
-30261.3
-60955.5
90763.7
-11677.9
12009.9
33695.1
34800
12499.1
-28780.5
-31115.2
-36455.9
-56344.2
23708.2
-73842.3
-43246.1
-22047.3
-16007.9
-32853.8
-62310.2
-64988
-58441.8
-61181
-79930.3
-174629
-134248
-120686
-118379
-142723
-179954
-194331
-195357
-191421
-113880
-212721
-167580
-165115
-168030
-196664
-231917
-242217
-241225
-237328
-104396
-204145
-156228
-154845
-157769
-184299
-213475
-223095
-211339
-208371
-99997.3
-201069
-156120
-156426
-157107
-185261
-216396
-224757
-230943
-200899
-128338
-232604
-189577
-191938
-183543
-207573
-243934
-227129
-286438
-206577
-201218
-310395
-264651
-262157
-246883
-246636
-277074
-214249
-333851
-181245
-236919
-346089
-291727
-268929
-267157
-253736
-277171
-180020
-345994
-115162
-216013
-327739
-267852
-230870
-245564
-230744
-259024
-152431
-352203
-81494.3
-220397
-340811
-279757
-245566
-258986
-248730
-286741
-188593
-381621
-143407
-215010
-343067
-283304
-262373
-265235
-263204
-293565
-233392
-366088
-209362
-178206
-309067
-259242
-253732
-241019
-264873
-266860
-272257
-327910
-252028
-113553
-242536
-195769
-206222
-173206
-224030
-191870
-256843
-255905
-230362
-23763.3
-149650
-102772
-121844
-81976.8
-138955
-88477.2
-169306
-148188
-131575
28494.6
-92842.8
-48783.2
-75039.9
-43992.7
-97982.1
-61348.4
-121304
-121554
-95163.9
84567.9
-27141
15161
-15474
1270.43
-45144.4
-31213.4
-73595
-102002
-68276.6
111127
8984.56
48061.8
11416
9195.34
-41264.6
-61134.3
-111031
-174569
-145476
153286
59917.2
95651.1
56556.9
42842.2
-1332.85
-40598.2
-94676.5
-182115
-153950
71804.9
-11757.2
12910.9
-24424.6
-46652.1
-88420.7
-139599
-187774
-278351
-242280
143042
57541.6
129327
112285
109164
97147.3
67944.1
-1665.93
-56594.6
-36876.7
)
;
        value           nonuniform List<scalar> 
1200
(
1.50486e+06
1.49779e+06
1.49904e+06
1.49906e+06
1.49913e+06
1.49911e+06
1.49903e+06
1.49903e+06
1.49787e+06
1.50503e+06
1.50254e+06
1.49879e+06
1.50065e+06
1.49977e+06
1.49964e+06
1.49951e+06
1.49936e+06
1.49987e+06
1.49802e+06
1.50137e+06
1.50084e+06
1.49872e+06
1.50076e+06
1.49957e+06
1.49971e+06
1.4996e+06
1.4993e+06
1.50012e+06
1.49843e+06
1.50031e+06
1.50037e+06
1.49889e+06
1.5005e+06
1.49921e+06
1.49952e+06
1.49941e+06
1.49893e+06
1.49978e+06
1.49839e+06
1.49968e+06
1.4999e+06
1.49891e+06
1.50011e+06
1.49897e+06
1.49937e+06
1.49925e+06
1.4987e+06
1.49948e+06
1.49836e+06
1.49928e+06
1.49895e+06
1.49845e+06
1.4994e+06
1.49867e+06
1.49919e+06
1.4992e+06
1.49875e+06
1.49949e+06
1.4987e+06
1.49939e+06
1.49812e+06
1.49786e+06
1.49846e+06
1.49795e+06
1.49842e+06
1.49847e+06
1.4981e+06
1.49878e+06
1.49818e+06
1.49874e+06
1.49786e+06
1.49764e+06
1.49806e+06
1.49758e+06
1.49785e+06
1.49784e+06
1.49749e+06
1.49809e+06
1.49768e+06
1.49818e+06
1.49854e+06
1.4983e+06
1.49858e+06
1.49808e+06
1.49809e+06
1.49792e+06
1.49748e+06
1.49792e+06
1.49765e+06
1.49809e+06
1.49868e+06
1.49843e+06
1.49872e+06
1.49826e+06
1.49824e+06
1.498e+06
1.49751e+06
1.49782e+06
1.49767e+06
1.49806e+06
1.49782e+06
1.49769e+06
1.49787e+06
1.49753e+06
1.49763e+06
1.49747e+06
1.49707e+06
1.49741e+06
1.49741e+06
1.49774e+06
1.49664e+06
1.49662e+06
1.49667e+06
1.49644e+06
1.4966e+06
1.49647e+06
1.49615e+06
1.49659e+06
1.49675e+06
1.49705e+06
1.49549e+06
1.49557e+06
1.49554e+06
1.49545e+06
1.49567e+06
1.49549e+06
1.49506e+06
1.49549e+06
1.49576e+06
1.49611e+06
1.49397e+06
1.49409e+06
1.49408e+06
1.49409e+06
1.49436e+06
1.49408e+06
1.49345e+06
1.49379e+06
1.49434e+06
1.4949e+06
1.49179e+06
1.49192e+06
1.49204e+06
1.49215e+06
1.49264e+06
1.49218e+06
1.49114e+06
1.49037e+06
1.49239e+06
1.49514e+06
1.4884e+06
1.48854e+06
1.48873e+06
1.48906e+06
1.49007e+06
1.49035e+06
1.49105e+06
1.4929e+06
1.5e+06
1.50891e+06
1.48301e+06
1.48301e+06
1.48281e+06
1.48267e+06
1.483e+06
1.48255e+06
1.48245e+06
1.48254e+06
1.48636e+06
1.48953e+06
1.47663e+06
1.47633e+06
1.47583e+06
1.4752e+06
1.47473e+06
1.47395e+06
1.47218e+06
1.47127e+06
1.47181e+06
1.47021e+06
1.47136e+06
1.47069e+06
1.47008e+06
1.46925e+06
1.46835e+06
1.4681e+06
1.46461e+06
1.46379e+06
1.46416e+06
1.46036e+06
1.46914e+06
1.46798e+06
1.46671e+06
1.46561e+06
1.46451e+06
1.46478e+06
1.46013e+06
1.45898e+06
1.46098e+06
1.45636e+06
1.47533e+06
1.47079e+06
1.46707e+06
1.46546e+06
1.46434e+06
1.46527e+06
1.45919e+06
1.45573e+06
1.45796e+06
1.45314e+06
1.48011e+06
1.47447e+06
1.46958e+06
1.46757e+06
1.46631e+06
1.46744e+06
1.46092e+06
1.45336e+06
1.45693e+06
1.45039e+06
1.4688e+06
1.46861e+06
1.46531e+06
1.46517e+06
1.465e+06
1.46651e+06
1.46052e+06
1.4511e+06
1.45523e+06
1.44797e+06
1.45791e+06
1.45992e+06
1.45811e+06
1.46021e+06
1.46122e+06
1.46296e+06
1.45799e+06
1.4491e+06
1.45281e+06
1.44585e+06
1.44941e+06
1.45073e+06
1.44978e+06
1.4533e+06
1.45532e+06
1.45733e+06
1.45383e+06
1.44798e+06
1.45172e+06
1.44538e+06
1.44133e+06
1.44235e+06
1.44222e+06
1.44552e+06
1.44807e+06
1.45033e+06
1.44869e+06
1.44795e+06
1.45198e+06
1.44666e+06
1.43533e+06
1.43641e+06
1.4363e+06
1.43902e+06
1.44163e+06
1.44422e+06
1.4452e+06
1.45041e+06
1.45489e+06
1.45059e+06
1.43225e+06
1.43344e+06
1.43306e+06
1.43542e+06
1.4381e+06
1.44179e+06
1.44595e+06
1.45707e+06
1.46215e+06
1.45879e+06
1.43261e+06
1.43418e+06
1.43369e+06
1.43541e+06
1.43794e+06
1.44268e+06
1.44973e+06
1.46505e+06
1.47004e+06
1.46754e+06
1.43277e+06
1.43463e+06
1.43406e+06
1.43516e+06
1.43751e+06
1.44282e+06
1.4518e+06
1.46868e+06
1.47268e+06
1.47081e+06
1.4296e+06
1.4314e+06
1.43097e+06
1.4315e+06
1.43363e+06
1.43887e+06
1.44832e+06
1.4642e+06
1.4669e+06
1.46543e+06
1.42169e+06
1.42328e+06
1.42293e+06
1.42315e+06
1.42496e+06
1.42961e+06
1.4381e+06
1.4509e+06
1.4523e+06
1.45121e+06
1.40947e+06
1.41088e+06
1.41049e+06
1.4107e+06
1.4121e+06
1.41571e+06
1.42213e+06
1.43044e+06
1.43086e+06
1.43011e+06
1.39438e+06
1.39577e+06
1.39534e+06
1.39567e+06
1.3967e+06
1.3992e+06
1.40329e+06
1.40737e+06
1.4083e+06
1.4073e+06
1.37717e+06
1.37869e+06
1.3784e+06
1.37881e+06
1.37967e+06
1.38168e+06
1.38443e+06
1.38641e+06
1.38911e+06
1.38707e+06
1.35802e+06
1.35969e+06
1.35961e+06
1.35996e+06
1.36081e+06
1.36305e+06
1.36586e+06
1.36801e+06
1.37255e+06
1.3691e+06
1.33565e+06
1.33746e+06
1.3376e+06
1.33796e+06
1.33892e+06
1.34161e+06
1.34491e+06
1.34771e+06
1.35273e+06
1.34873e+06
1.31003e+06
1.31185e+06
1.31199e+06
1.31231e+06
1.31322e+06
1.31595e+06
1.31903e+06
1.32165e+06
1.32543e+06
1.32203e+06
1.28174e+06
1.28341e+06
1.28336e+06
1.28355e+06
1.28415e+06
1.28642e+06
1.28856e+06
1.29034e+06
1.29255e+06
1.29019e+06
1.25215e+06
1.25344e+06
1.25305e+06
1.25282e+06
1.25291e+06
1.25444e+06
1.25549e+06
1.25645e+06
1.25764e+06
1.2563e+06
1.22242e+06
1.22308e+06
1.22234e+06
1.22138e+06
1.22091e+06
1.22171e+06
1.22194e+06
1.22236e+06
1.22373e+06
1.22314e+06
1.19348e+06
1.19349e+06
1.19248e+06
1.19077e+06
1.19011e+06
1.1904e+06
1.19037e+06
1.19054e+06
1.19307e+06
1.19283e+06
1.1658e+06
1.16552e+06
1.16439e+06
1.16277e+06
1.16254e+06
1.16282e+06
1.16297e+06
1.16328e+06
1.1658e+06
1.16555e+06
1.14099e+06
1.14075e+06
1.13957e+06
1.13868e+06
1.13921e+06
1.14011e+06
1.14105e+06
1.14262e+06
1.14366e+06
1.1437e+06
1.11968e+06
1.11971e+06
1.11872e+06
1.11863e+06
1.11968e+06
1.12141e+06
1.12324e+06
1.12726e+06
1.12642e+06
1.127e+06
1.10108e+06
1.10159e+06
1.10115e+06
1.10182e+06
1.1024e+06
1.10445e+06
1.10695e+06
1.11181e+06
1.11026e+06
1.111e+06
1.08282e+06
1.08394e+06
1.08419e+06
1.08578e+06
1.08523e+06
1.08694e+06
1.08995e+06
1.09358e+06
1.09323e+06
1.09311e+06
1.06093e+06
1.06269e+06
1.0636e+06
1.06607e+06
1.06555e+06
1.06711e+06
1.07048e+06
1.07139e+06
1.07325e+06
1.07158e+06
1.03159e+06
1.03402e+06
1.03561e+06
1.0386e+06
1.03924e+06
1.04102e+06
1.04432e+06
1.04341e+06
1.04658e+06
1.04292e+06
990506
993409
995431
998033
999481
1.00125e+06
1.00335e+06
1.00169e+06
1.00492e+06
999841
933122
936161
938271
939740
940917
941539
941793
939479
941519
936628
857515
860209
862141
862213
862148
861193
859821
857105
857504
853726
765937
768017
769599
769119
767216
765198
762283
759742
758546
756064
664188
665858
666540
666152
663338
661086
657025
655127
652715
651181
558247
559602
559607
559772
557209
555507
551706
550368
547924
546908
451037
452173
451909
452698
451066
450339
447842
447145
445817
445241
345216
346277
346047
347385
346903
347220
346394
346700