/*--------------------------------*- C++ -*----------------------------------*\
  =========                 |
  \\      /  F ield         | OpenFOAM: The Open Source CFD Toolbox
   \\    /   O peration     | Website:  https://openfoam.org
    \\  /    A nd           | Version:  8
     \\/     M anipulation  |
\*---------------------------------------------------------------------------*/
FoamFile
{
    version     2.0;
    format      ascii;
    class       volScalarField;
    location    "800";
    object      alphat;
}
// * * * * * * * * * * * * * * * * * * * * * * * * * * * * * * * * * * * * * //

dimensions      [1 -1 -1 0 0 0 0];

internalField   nonuniform List<scalar> 
8400
(
0.0705312
0.0698737
0.0691582
0.0684279
0.0677968
0.0672091
0.0666521
0.0662073
0.0659381
0.0658302
0.0658403
0.0659447
0.0661484
0.0665132
0.0672698
0.0690851
0.073049
0.0789644
0.082826
0.0810612
0.0777498
0.0756975
0.0745918
0.0736147
0.0725685
0.0714313
0.0702984
0.0697202
0.0697657
0.0699543
0.0701534
0.0703292
0.0704326
0.0704422
0.0703357
0.0700294
0.0694945
0.0689641
0.0684328
0.0679015
0.0673727
0.0668466
0.06632
0.0657929
0.0652683
0.0647473
0.0642275
0.0637097
0.0631954
0.062682
0.0588851
0.058671
0.0589209
0.0592962
0.0594954
0.0596094
0.0596852
0.059724
0.0596989
0.0596217
0.0594785
0.0591736
0.0584759
0.0567952
0.0531302
0.0479526
0.0455998
0.0473686
0.0489983
0.0490148
0.0481091
0.0467129
0.0440913
0.0416698
0.0405573
0.0405542
0.0406576
0.0406883
0.0408437
0.0408981
0.0409017
0.0408856
0.0408307
0.0407346
0.0405993
0.0404939
0.04047
0.0403259
0.0400932
0.0397889
0.0394352
0.0390431
0.0386279
0.0382054
0.0377814
0.0373698
0.0369827
0.0366297
0.0363247
0.0360832
0.0611228
0.0610558
0.0609644
0.0609272
0.0611181
0.0614851
0.0615471
0.0611275
0.0606794
0.060357
0.060161
0.0600418
0.0599529
0.0598578
0.0597155
0.0595055
0.0593608
0.0591455
0.0581372
0.0442501
0.0300584
0.0366221
0.0364514
0.0347435
0.0344117
0.0348922
0.0350887
0.0352736
0.0354136
0.0353818
0.0353324
0.0352893
0.0352389
0.035192
0.0351524
0.0351725
0.0352551
0.0352871
0.0352813
0.035249
0.0351994
0.0351406
0.0350814
0.0350285
0.0349836
0.0349505
0.034931
0.034924
0.0349291
0.0349444
0.0611743
0.0610981
0.061033
0.0610089
0.0610196
0.061043
0.061036
0.0609936
0.0609264
0.060848
0.0607681
0.0606894
0.0606103
0.0605259
0.0604368
0.060366
0.0602281
0.0600621
0.05975
0.0584225
0.0540894
0.0516468
0.0492808
0.0361455
0.0269806
0.033839
0.0346158
0.0348041
0.0345504
0.0345354
0.0343933
0.0343162
0.0342652
0.0342366
0.0342304
0.0342778
0.0343689
0.0344334
0.034477
0.0345047
0.0345198
0.0345289
0.0345359
0.0345437
0.0345515
0.0345606
0.0345726
0.0345841
0.0345963
0.0346096
0.0612092
0.0611813
0.0611527
0.0611238
0.0610937
0.0610627
0.0610302
0.0609969
0.0609623
0.0609268
0.0608906
0.060854
0.0608185
0.0607837
0.06074
0.0606659
0.0605769
0.0604664
0.0603144
0.0599793
0.0589564
0.0575791
0.055889
0.0524307
0.0478168
0.0454605
0.0333513
0.0302757
0.0346509
0.0351015
0.0348072
0.0346221
0.034552
0.0345064
0.0344898
0.0345268
0.0346014
0.0346648
0.03472
0.0347685
0.034812
0.0348548
0.0348963
0.0349376
0.0349803
0.0350223
0.0350645
0.0351052
0.0351439
0.03518
0.0612052
0.0611723
0.0611388
0.0611053
0.0610704
0.0610354
0.060999
0.0609611
0.0609222
0.0608828
0.0608426
0.0608024
0.0607623
0.0607189
0.0606811
0.0606415
0.0605956
0.0605368
0.0604553
0.060317
0.0599803
0.0593726
0.0584545
0.0568622
0.0544553
0.052005
0.0474892
0.0458156
0.0356241
0.0308916
0.0365941
0.0352228
0.0353103
0.0352769
0.0352831
0.0353354
0.0354165
0.0355074
0.0356043
0.0357089
0.0358195
0.0359377
0.036063
0.0361927
0.036329
0.0364679
0.0366077
0.0367482
0.0368863
0.0370189
0.0612021
0.0611661
0.0611297
0.0610925
0.0610542
0.0610149
0.0609742
0.0609326
0.0608895
0.0608465
0.0608029
0.0607598
0.060712
0.0606688
0.0606272
0.0605874
0.0605478
0.0605057
0.0604548
0.060381
0.0602358
0.0599519
0.0594632
0.0586224
0.0572577
0.0555126
0.0529145
0.0508109
0.046921
0.0468149
0.0278946
0.034832
0.0360718
0.0360843
0.0361627
0.0362521
0.036354
0.0364874
0.0366412
0.0368128
0.0369989
0.0371973
0.0374077
0.0376252
0.0378491
0.0380767
0.0383043
0.0385297
0.0387506
0.0389623
0.0611956
0.0611519
0.0611074
0.061062
0.0610157
0.0609689
0.0609212
0.0608717
0.0608215
0.0607711
0.0607193
0.0606645
0.0606166
0.0605717
0.0605305
0.0604944
0.0604619
0.0604299
0.0603952
0.0603505
0.0602748
0.0601276
0.0598554
0.0593722
0.0585504
0.0573676
0.0556758
0.0538547
0.051386
0.049852
0.0438975
0.0366703
0.0343387
0.0367548
0.0368028
0.0369219
0.0370524
0.0372261
0.0374275
0.0376492
0.037887
0.0381346
0.0383901
0.0386473
0.0389049
0.0391579
0.0394019
0.0396355
0.0398556
0.0400567
0.061186
0.0611315
0.0610765
0.0610196
0.0609615
0.0609
0.0608394
0.0607788
0.0607172
0.0606503
0.0605879
0.0605324
0.0604823
0.0604392
0.0604019
0.0603699
0.0603433
0.0603206
0.0602989
0.0602728
0.0602306
0.0601479
0.0599872
0.0596903
0.0591649
0.0583509
0.0571702
0.0557273
0.0539235
0.0522669
0.0492935
0.0457175
0.0425539
0.0344263
0.0370256
0.0371805
0.0373535
0.0375671
0.0378042
0.0380586
0.0383246
0.0385891
0.0388516
0.0391052
0.039345
0.0395663
0.039763
0.0399323
0.0400687
0.0401691
0.061169
0.0610943
0.061018
0.0609416
0.0608606
0.0607761
0.0606864
0.0605927
0.0605006
0.0604204
0.060349
0.0602934
0.0602523
0.0602242
0.0602066
0.060196
0.0601881
0.0601817
0.0601746
0.0601645
0.0601443
0.0600976
0.0599992
0.0598055
0.0594489
0.0588679
0.0580018
0.0568695
0.0554659
0.0539919
0.0520206
0.0497557
0.047887
0.0467537
0.0338808
0.0369617
0.0371904
0.0374753
0.0377656
0.0380538
0.0383404
0.038618
0.0388809
0.0391234
0.0393399
0.0395231
0.039662
0.039754
0.0397852
0.0397549
0.061132
0.0610121
0.0608907
0.0607694
0.0606403
0.0605005
0.0603503
0.0601989
0.0600594
0.0599598
0.0599034
0.0598932
0.0599098
0.0599312
0.0599538
0.0599767
0.0599976
0.0600154
0.0600283
0.060036
0.0600345
0.0600121
0.0599505
0.059818
0.0595613
0.0591257
0.0584609
0.0575567
0.0564256
0.0551712
0.0536836
0.0520727
0.05063
0.0496622
0.0460761
0.0407494
0.0362763
0.0369838
0.0373239
0.0376394
0.0379409
0.0382377
0.0385262
0.0387869
0.0390128
0.0392014
0.0393387
0.039436
0.0394559
0.0393832
0.0609881
0.0606949
0.0605114
0.060316
0.060151
0.0603604
0.0602456
0.0596267
0.0592236
0.0591854
0.0593026
0.0594307
0.0595354
0.0596303
0.0597179
0.0597763
0.0598141
0.0598483
0.0598795
0.0599013
0.0599136
0.0599099
0.0598725
0.0597758
0.0595788
0.0592342
0.0586998
0.0579571
0.0570212
0.0559622
0.0547789
0.0535613
0.0524524
0.0515519
0.0498697
0.0470731
0.0428785
0.0393201
0.0375263
0.0370623
0.037171
0.037459
0.0377978
0.0381301
0.0384251
0.0386805
0.0388868
0.0390459
0.0391372
0.0391447
0.0597953
0.0593625
0.0590577
0.0587777
0.0585714
0.0584802
0.0584673
0.0585013
0.0585988
0.0587447
0.0589085
0.0590726
0.0592257
0.0593608
0.0594729
0.0595625
0.0596318
0.059691
0.0597367
0.0597741
0.0598012
0.0598105
0.0597869
0.0597024
0.0595391
0.0592508
0.0588001
0.0581707
0.05738
0.0564839
0.055523
0.0545805
0.0537319
0.0529698
0.0518646
0.0501404
0.0474994
0.0441263
0.0409873
0.0388269
0.0376774
0.0372338
0.0372065
0.0373928
0.0376676
0.0379681
0.0382544
0.038503
0.0386973
0.0388262
0.0583912
0.0581427
0.058002
0.0579523
0.0579795
0.0580786
0.0582045
0.058335
0.0584653
0.0585956
0.0587328
0.0588729
0.0590095
0.0591399
0.0592602
0.0593657
0.0594556
0.0595326
0.0595944
0.0596435
0.0596804
0.0596982
0.0596829
0.0596177
0.0594819
0.0592315
0.0587736
0.0582481
0.0575742
0.0568156
0.0560349
0.0553037
0.0546532
0.0540167
0.0531458
0.0518613
0.0500162
0.0475672
0.0447976
0.0421883
0.0401124
0.0386912
0.037857
0.0374669
0.037375
0.0374674
0.0376595
0.037891
0.0381225
0.0383298
0.0579463
0.0579295
0.0579653
0.0580365
0.0581312
0.0582304
0.058328
0.0584227
0.0585141
0.058608
0.0587047
0.0588056
0.0589085
0.0590117
0.0591136
0.0592104
0.059299
0.0593779
0.0594461
0.0595016
0.0595416
0.0595624
0.0595523
0.059496
0.0593758
0.059157
0.0587818
0.0582801
0.0575758
0.0569975
0.0563841
0.0558264
0.0553185
0.0547669
0.0540063
0.0529282
0.0514741
0.0496303
0.0474764
0.0451983
0.0430334
0.0411791
0.039738
0.0387203
0.0380746
0.0377242
0.0375899
0.037601
0.0377016
0.0378497
0.0579766
0.0580245
0.0580867
0.0581553
0.0582251
0.0582945
0.0583637
0.0584332
0.0585048
0.0585795
0.0586558
0.0587345
0.0588157
0.0588983
0.0589812
0.0590625
0.059141
0.0592138
0.0592778
0.0593308
0.0593696
0.0593881
0.0593786
0.0593276
0.0592207
0.059031
0.058723
0.0583032
0.0577056
0.0569461
0.0565952
0.0561975
0.0557828
0.0552732
0.0545616
0.053596
0.0523648
0.0508779
0.0491708
0.0473167
0.0454254
0.0436205
0.0420095
0.0406618
0.039604
0.0388257
0.0382933
0.0379626
0.0377884
0.0377284
0.0579416
0.0579753
0.0580118
0.0580518
0.0580944
0.058141
0.0581918
0.0582474
0.0583084
0.0583732
0.0584417
0.0585134
0.0585872
0.0586625
0.0587386
0.0588135
0.0588861
0.0589537
0.0590147
0.0590653
0.0591022
0.0591207
0.0591149
0.0590737
0.0589858
0.0588347
0.0585992
0.0582748
0.0578189
0.0569553
0.0566538
0.0564446
0.0560682
0.0555583
0.0548621
0.0539636
0.0528733
0.0516111
0.0502016
0.04868
0.047098
0.0455191
0.0440102
0.0426305
0.0414237
0.0404119
0.039598
0.0389706
0.0385091
0.0381876
0.0575806
0.0575785
0.0575794
0.0575855
0.0575977
0.0576181
0.0576469
0.0576859
0.057734
0.0577901
0.0578539
0.0579241
0.057999
0.0580778
0.0581585
0.0582396
0.0583199
0.0583959
0.0584661
0.0585282
0.0585791
0.0586144
0.0586307
0.058621
0.0585783
0.0584931
0.0583541
0.0581533
0.0578566
0.0571871
0.0564579
0.0565461
0.0561763
0.0556417
0.0549432
0.0540866
0.0530905
0.0519753
0.0507627
0.0494765
0.048147
0.0468069
0.0454932
0.044244
0.0430919
0.0420602
0.0411632
0.0404061
0.0397852
0.0392912
0.0567037
0.0566486
0.056597
0.056551
0.0565146
0.0564893
0.0564773
0.0564799
0.0564968
0.0565287
0.0565745
0.0566334
0.056704
0.0567847
0.0568738
0.0569696
0.0570701
0.0571737
0.0572784
0.0573816
0.0574813
0.0575753
0.0576611
0.0577354
0.057795
0.0578354
0.0578516
0.0578355
0.0577602
0.0574195
0.0561877
0.0564219
0.0560798
0.0555384
0.0548422
0.054018
0.0530906
0.05208
0.0510082
0.0498972
0.0487687
0.0476446
0.0465484
0.0455032
0.0445287
0.0436407
0.0428514
0.0421677
0.0415905
0.0411171
0.073492
0.0727252
0.0719401
0.0711267
0.0702838
0.0694145
0.0685247
0.0676238
0.0667235
0.0658353
0.0649711
0.0641414
0.0633559
0.0626224
0.061947
0.0613332
0.060783
0.0602974
0.0598745
0.0595117
0.0592052
0.0589503
0.0587425
0.0585764
0.0584471
0.0583482
0.0582704
0.058197
0.0580899
0.0576173
0.0572708
0.0573244
0.0573591
0.0572797
0.0570877
0.0567973
0.0564286
0.0560029
0.055541
0.0550616
0.0545836
0.0541264
0.0537093
0.05335
0.0530642
0.052865
0.0527613
0.0527576
0.0528517
0.0530328
0.00545354
0.0054572
0.00546586
0.00543601
0.00539232
0.00535289
0.00532071
0.00529183
0.00526378
0.00523712
0.0052134
0.00519345
0.00517702
0.00516315
0.00515057
0.00513786
0.00512364
0.00510674
0.0050863
0.00506183
0.00501149
0.00497708
0.00494226
0.00489875
0.00486378
0.00483526
0.00482131
0.00480577
0.00479205
0.00478183
0.00477527
0.00477156
0.00476925
0.00476684
0.00476293
0.00475628
0.00474589
0.00473108
0.00471156
0.00468744
0.00465775
0.00462412
0.00458858
0.00455306
0.00451968
0.00449058
0.00446735
0.00445009
0.00443597
0.00441943
0.00538275
0.00523228
0.00512957
0.00503682
0.00493522
0.00482473
0.00471333
0.00460817
0.00451255
0.00442715
0.00435159
0.00428496
0.00422577
0.00417184
0.00412052
0.00406907
0.00401515
0.00395716
0.00389571
0.00382966
0.00372641
0.00363114
0.00355713
0.0153445
0.0155045
0.0155704
0.015535
0.0155299
0.0155657
0.0156329
0.0157164
0.0158023
0.0158794
0.015939
0.0159745
0.015981
0.0159553
0.0158965
0.0158055
0.0156854
0.0155491
0.0154016
0.0152497
0.0151019
0.0149666
0.0148527
0.0147718
0.0147375
0.0147494
0.0147596
0.00540686
0.00528719
0.00516146
0.00504401
0.00493007
0.00481616
0.00470369
0.00459615
0.00449623
0.00440504
0.00432249
0.00424772
0.00417933
0.0041155
0.0040542
0.0039934
0.00393141
0.00386752
0.00378191
0.0159741
0.0156886
0.0154769
0.0153023
0.0151587
0.0150341
0.0149274
0.0148382
0.0147702
0.0147219
0.0146893
0.0146664
0.0146467
0.0146238
0.0145918
0.0145458
0.0144827
0.0144001
0.0142971
0.0141742
0.0140337
0.0138798
0.013718
0.0135554
0.013399
0.0132535
0.0131206
0.0130013
0.012906
0.0128686
0.0129435
0.00539483
0.00529529
0.00517817
0.00505766
0.00493922
0.00482339
0.00471087
0.00460353
0.00450336
0.0044116
0.00432841
0.00425304
0.00418409
0.00411974
0.0040579
0.00399659
0.00393412
0.00386983
0.00378452
0.0159928
0.0156989
0.0154851
0.0153094
0.0151558
0.0150203
0.0149036
0.0148062
0.0147279
0.0146665
0.0146179
0.0145771
0.0145378
0.0144942
0.0144409
0.0143736
0.0142887
0.0141844
0.0140602
0.0139172
0.0137581
0.0135869
0.0134089
0.0132312
0.013062
0.0129094
0.0127769
0.0126578
0.0125374
0.0124213
0.0123953
0.00538764
0.00528899
0.00517971
0.00506213
0.0049428
0.00482514
0.00471127
0.00460306
0.0045022
0.00440984
0.00432619
0.00425058
0.00418162
0.00411743
0.00405586
0.00399486
0.00393269
0.00386868
0.00378382
0.0159888
0.0156987
0.015486
0.0153098
0.0151553
0.0150189
0.0149011
0.0148025
0.0147226
0.0146586
0.0146068
0.0145621
0.0145183
0.0144698
0.0144113
0.0143387
0.014249
0.0141406
0.0140131
0.013868
0.013708
0.0135371
0.0133599
0.0131819
0.0130094
0.0128514
0.0127185
0.012616
0.0125281
0.0124233
0.0123536
0.00538882
0.00528653
0.00517944
0.00506466
0.00494639
0.00482837
0.00471367
0.00460472
0.00450331
0.00441052
0.00432658
0.00425086
0.00418194
0.00411793
0.00405665
0.00399598
0.00393414
0.00386997
0.00380288
0.0159139
0.0157376
0.0155559
0.015377
0.0152081
0.0150554
0.0149225
0.0148114
0.014721
0.0146485
0.0145893
0.0145381
0.0144888
0.0144355
0.0143731
0.0142975
0.0142061
0.0140973
0.0139711
0.0138288
0.0136731
0.0135083
0.0133391
0.0131705
0.013006
0.0128495
0.0127083
0.0125957
0.0125151
0.0124332
0.0123611
0.00539203
0.0052893
0.00518169
0.00506742
0.00494951
0.00483106
0.00471535
0.00460522
0.00450274
0.0044091
0.00432457
0.00424851
0.00417948
0.00411555
0.00405449
0.00399414
0.00393266
0.00386884
0.00380229
0.0159145
0.0157416
0.0155622
0.0153845
0.015216
0.0150629
0.0149291
0.0148163
0.0147236
0.0146482
0.0145856
0.0145302
0.0144762
0.0144181
0.0143512
0.0142717
0.0141774
0.0140673
0.0139416
0.0138018
0.0136504
0.0134909
0.0133283
0.0131683
0.0130156
0.0128714
0.0127359
0.012616
0.0125253
0.0124473
0.0123758
0.00539375
0.00529351
0.00518587
0.00507124
0.00495296
0.00483391
0.00471729
0.0046061
0.00450264
0.00440822
0.00432317
0.00424683
0.00417777
0.00411397
0.00405318
0.00399319
0.00393214
0.00386878
0.00380268
0.0159254
0.0157537
0.0155755
0.0153988
0.015231
0.0150782
0.0149442
0.0148305
0.014736
0.0146578
0.0145914
0.0145314
0.014472
0.0144082
0.0143355
0.0142509
0.0141526
0.0140401
0.0139142
0.0137767
0.01363
0.0134769
0.0133209
0.013167
0.0130209
0.0128863
0.0127617
0.0126455
0.0125479
0.012465
0.0123897
0.00539423
0.00529678
0.00519009
0.00507527
0.00495638
0.00483651
0.0047189
0.00460664
0.00450216
0.0044069
0.00432123
0.00424453
0.00417532
0.00411158
0.00405098
0.00399129
0.00393063
0.00386771
0.00380211
0.0159293
0.0157597
0.0155834
0.0154083
0.0152419
0.0150899
0.0149562
0.0148418
0.0147457
0.0146647
0.0145945
0.0145295
0.0144644
0.0143942
0.0143153
0.0142251
0.0141224
0.0140074
0.0138812
0.0137461
0.0136046
0.0134594
0.013313
0.0131681
0.0130288
0.0128999
0.0127827
0.0126732
0.0125744
0.0124862
0.0124047
0.00539456
0.00529903
0.0051935
0.00507881
0.00495944
0.00483876
0.0047202
0.00460696
0.00450157
0.00440556
0.00431935
0.00424231
0.00417297
0.00410928
0.00404888
0.00398949
0.00392923
0.00386681
0.00380178
0.0159358
0.0157683
0.0155941
0.0154209
0.0152559
0.0151049
0.0149713
0.0148562
0.0147582
0.0146742
0.0145996
0.0145292
0.0144577
0.0143807
0.0142951
0.014199
0.014092
0.0139748
0.0138489
0.0137166
0.0135805
0.0134434
0.0133074
0.0131741
0.0130448
0.0129227
0.0128105
0.0127057
0.0126074
0.0125151
0.0124264
0.00539514
0.00530081
0.00519612
0.00508161
0.00496189
0.00484052
0.00472112
0.00460701
0.00450082
0.00440414
0.00431743
0.00424006
0.00417056
0.00410685
0.00404659
0.00398747
0.00392756
0.00386561
0.00380118
0.0159408
0.0157758
0.0156039
0.015433
0.01527
0.0151206
0.014988
0.0148728
0.0147736
0.0146869
0.0146081
0.014532
0.0144539
0.0143699
0.0142772
0.014175
0.0140635
0.0139442
0.0138192
0.0136907
0.0135609
0.013432
0.0133062
0.0131845
0.0130668
0.0129537
0.0128469
0.0127454
0.0126473
0.0125511
0.012455
0.00539581
0.00530233
0.0051981
0.00508366
0.00496365
0.00484173
0.00472163
0.00460681
0.00449995
0.0044027
0.00431554
0.00423786
0.00416817
0.00410439
0.00404418
0.00398524
0.00392564
0.00386412
0.00380027
0.0159437
0.015781
0.0156115
0.0154431
0.0152829
0.0151361
0.0150056
0.0148918
0.0147926
0.0147042
0.0146219
0.0145406
0.0144559
0.0143644
0.0142646
0.014156
0.0140398
0.0139183
0.0137939
0.0136692
0.013546
0.0134257
0.0133097
0.0131985
0.0130917
0.0129878
0.0128869
0.012788
0.0126891
0.0125884
0.0124844
0.00539632
0.00530346
0.00519941
0.00508491
0.00496465
0.00484233
0.00472175
0.00460642
0.0044991
0.00440145
0.00431396
0.00423602
0.00416615
0.00410227
0.00404206
0.00398324
0.00392391
0.0038628
0.00379954
0.015949
0.0157902
0.0156239
0.0154572
0.0152968
0.0151481
0.0150142
0.0148957
0.0147909
0.0146962
0.0146072
0.0145188
0.0144271
0.0143292
0.0142239
0.0141115
0.0139935
0.0138725
0.0137514
0.0136326
0.013518
0.0134082
0.0133035
0.0132036
0.0131077
0.0130135
0.0129193
0.0128233
0.0127238
0.0126189
0.0125075
0.00539661
0.00530403
0.00519999
0.00508536
0.00496487
0.00484226
0.00472134
0.00460567
0.00449801
0.00440002
0.0043122
0.00423396
0.00416383
0.00409974
0.00403938
0.00398053
0.00392132
0.00386053
0.00379775
0.015937
0.0157833
0.0156221
0.0154612
0.0153075
0.0151656
0.0150378
0.0149236
0.0148207
0.0147252
0.0146326
0.0145384
0.0144393
0.0143331
0.0142197
0.0141003
0.0139773
0.0138536
0.0137323
0.0136159
0.0135062
0.0134036
0.0133074
0.0132163
0.0131285
0.0130414
0.0129521
0.0128581
0.0127571
0.0126475
0.0125286
0.00539671
0.005304
0.0051998
0.00508501
0.00496441
0.00484175
0.00472083
0.00460518
0.00449752
0.0043995
0.00431157
0.00423316
0.00416281
0.0040985
0.00403796
0.00397901
0.00391985
0.00385931
0.00379594
0.00365486
0.0154441
0.0154034
0.0153235
0.0152238
0.0151176
0.0150125
0.0149119
0.0148159
0.0147223
0.0146281
0.01453
0.0144258
0.0143144
0.0141961
0.0140732
0.0139483
0.0138249
0.0137061
0.0135943
0.013491
0.0133963
0.013309
0.013227
0.0131474
0.0130671
0.0129826
0.0128905
0.0127886
0.0126751
0.0125501
0.00539665
0.00530342
0.00519878
0.00508369
0.00496285
0.00484002
0.00471898
0.00460324
0.00449547
0.00439729
0.00430915
0.00423044
0.00415974
0.00409507
0.0040342
0.00397501
0.00391578
0.00385539
0.00379355
0.0159241
0.0157724
0.0156173
0.0154636
0.0153159
0.0151774
0.0150494
0.0149314
0.0148212
0.0147157
0.0146111
0.0145043
0.014393
0.0142763
0.0141549
0.0140307
0.013907
0.0137868
0.0136733
0.0135687
0.0134738
0.0133885
0.0133113
0.0132391
0.0131686
0.013096
0.0130173
0.012929
0.0128283
0.0127142
0.0125871
0.00539646
0.00530243
0.00519738
0.00508226
0.00496169
0.00483935
0.00471891
0.00460375
0.00449644
0.00439853
0.00431043
0.00423156
0.00416051
0.00409536
0.004034
0.00397439
0.0039149
0.00385448
0.00379292
0.015935
0.0157878
0.0156353
0.0154834
0.0153369
0.0151986
0.01507
0.0149503
0.0148377
0.0147289
0.0146206
0.0145101
0.0143956
0.0142765
0.0141541
0.0140307
0.0139095
0.013794
0.013687
0.0135906
0.0135056
0.0134313
0.0133658
0.0133059
0.0132476
0.0131867
0.0131189
0.0130405
0.012949
0.0128436
0.0127252
0.00539615
0.00530055
0.0051941
0.00507786
0.00495645
0.0048336
0.00471297
0.00459784
0.00449067
0.00439292
0.00430494
0.00422613
0.0041551
0.00408999
0.00402871
0.00396932
0.00391024
0.00385045
0.00378975
0.0159213
0.015782
0.0156372
0.0154954
0.0153665
0.0152428
0.0151272
0.0150209
0.0149228
0.0148297
0.014738
0.0146443
0.0145464
0.0144442
0.014339
0.0142335
0.0141313
0.0140363
0.0139516
0.0138794
0.0138204
0.0137738
0.0137374
0.0137075
0.0136797
0.0136493
0.0136116
0.0135626
0.0134997
0.0134224
0.0133328
0.0053961
0.00530058
0.00519506
0.00508096
0.00496394
0.00484559
0.00472916
0.00461783
0.0045142
0.00442003
0.00433608
0.00426208
0.00419687
0.00413863
0.00408515
0.00403419
0.00398381
0.00393264
0.00388019
0.0038256
0.003737
0.00365634
0.00360296
0.0155509
0.0157169
0.0158005
0.0158435
0.0158685
0.0158838
0.0158895
0.0158832
0.0158628
0.0158281
0.0157815
0.0157277
0.0156724
0.0156218
0.0155812
0.0155545
0.0155432
0.0155469
0.0155625
0.0155853
0.015609
0.015627
0.0156326
0.0156204
0.0155869
0.0155319
0.0154596
0.00546475
0.00545158
0.00543061
0.00540389
0.00537211
0.00533875
0.00530587
0.00527518
0.00524786
0.00522443
0.00520478
0.00518827
0.00517387
0.00516037
0.0051466
0.00513159
0.00511472
0.00509578
0.00507497
0.00505272
0.00500787
0.00498158
0.00495402
0.00492847
0.00490791
0.00488906
0.00487031
0.00485099
0.00483084
0.00480986
0.00478805
0.00476561
0.00474284
0.00472019
0.00469828
0.00467769
0.00465896
0.00464243
0.00462821
0.00461607
0.00460554
0.00459591
0.00458629
0.00457575
0.00456336
0.00454833
0.0045301
0.0045084
0.00448334
0.0044556
0.0101263
0.00793613
0.00578565
0.00450333
0.00389905
0.00363186
0.00348893
0.0033905
0.00330234
0.00321829
0.00313393
0.00304982
0.00296974
0.00290166
0.00286599
0.00288801
0.00299238
0.00312429
0.00314803
0.00292558
0.0100804
0.00796437
0.00581365
0.00452807
0.00392201
0.00365304
0.00350839
0.00340923
0.00332104
0.00323712
0.00315246
0.00306806
0.00298796
0.00292048
0.00288626
0.00291074
0.00301858
0.00315388
0.00317972
0.00295343
0.0101106
0.00803848
0.00585618
0.00455718
0.00394706
0.00367645
0.0035309
0.00343162
0.00334344
0.00325924
0.00317443
0.00309031
0.00301098
0.00294456
0.00291165
0.00293783
0.00304833
0.0031875
0.00321889
0.00299796
0.0101674
0.00814063
0.00591061
0.00459614
0.00398155
0.00370842
0.00356049
0.00345921
0.00336946
0.00328417
0.00319898
0.00311508
0.00303645
0.00297056
0.00293759
0.00296304
0.00307247
0.00321017
0.00324146
0.00303356
0.010259
0.00824009
0.0059612
0.0046328
0.00401457
0.00373956
0.00359002
0.00348745
0.00339687
0.00331125
0.00322617
0.00314261
0.00306434
0.00299865
0.00296568
0.00299112
0.00310059
0.00323685
0.00326409
0.00306653
0.010355
0.0082994
0.00599105
0.00465747
0.00403949
0.00376522
0.00361637
0.00351436
0.00342429
0.0033391
0.00325424
0.00317031
0.0030907
0.00302293
0.00298776
0.00301194
0.00312234
0.00326064
0.00328757
0.00310132
0.0104183
0.00829849
0.00599459
0.00466901
0.00405537
0.00378494
0.00363928
0.00353942
0.0034505
0.00336556
0.00328033
0.00319545
0.00311421
0.00304422
0.00300643
0.00302864
0.00313974
0.00328239
0.0033145
0.00314248
0.0104236
0.00824996
0.00598282
0.00467119
0.00406642
0.00380254
0.00366122
0.00356353
0.00347484
0.00338858
0.00330112
0.00321385
0.00313079
0.00306001
0.00302218
0.00304516
0.00315908
0.00330854
0.00334988
0.00319257
0.0103752
0.008193
0.00596897
0.00467517
0.00408056
0.0038231
0.00368487
0.0035876
0.00349727
0.00340808
0.00331739
0.00322747
0.00314314
0.00307307
0.00303799
0.00306537
0.00318562
0.0033445
0.00339745
0.00325
0.0103097
0.00815737
0.00597003
0.00469109
0.00410389
0.00384984
0.00371136
0.00361131
0.00351698
0.00342386
0.0033305
0.00323975
0.0031564
0.00308922
0.00305888
0.00309283
0.00322109
0.00339063
0.00345517
0.00330901
0.0102651
0.00816357
0.00599422
0.00472226
0.00413693
0.00388159
0.00373942
0.00363426
0.00353479
0.0034381
0.0033437
0.00325454
0.00317458
0.00311214
0.00308731
0.00312733
0.00326271
0.00344123
0.00351428
0.00336158
0.0102635
0.00821015
0.00603995
0.00476258
0.00417336
0.00391359
0.0037661
0.00365561
0.00355239
0.00345433
0.00336108
0.00327504
0.00319926
0.00314151
0.00312061
0.00316406
0.0033033
0.00348657
0.00356292
0.00340194
0.0103028
0.00828225
0.00608816
0.00480073
0.00420621
0.00394181
0.00378951
0.00367578
0.00357174
0.00347515
0.00338469
0.00330185
0.00322898
0.00317325
0.00315277
0.00319581
0.00333469
0.0035178
0.00359283
0.00343063
0.0103674
0.00834404
0.00612298
0.00482835
0.00423184
0.0039646
0.00381048
0.00369697
0.00359502
0.00350141
0.00341374
0.00333245
0.00325962
0.00320195
0.00317813
0.00321739
0.00335286
0.00353276
0.00360552
0.00345442
0.0104282
0.00837075
0.0061378
0.00484574
0.00425056
0.00398414
0.00383213
0.00372175
0.00362321
0.00353213
0.00344538
0.00336298
0.00328694
0.00322437
0.00319508
0.00322947
0.00336121
0.00353814
0.00361193
0.00348377
0.0104616
0.00836194
0.00614208
0.00485745
0.00426722
0.00400528
0.0038578
0.00375142
0.00365545
0.00356491
0.00347656
0.00339055
0.0033096
0.00324161
0.00320762
0.0032389
0.00336901
0.00354694
0.00362703
0.00352729
0.0104618
0.00834325
0.00614565
0.00487143
0.00428849
0.00403226
0.003889
0.003785
0.00368932
0.00359699
0.00350528
0.00341497
0.00332978
0.0032586
0.00322302
0.00325462
0.00338734
0.00357138
0.00366229
0.00358723
0.0104468
0.00834024
0.00616017
0.00489502
0.00431837
0.00406607
0.00392435
0.00381968
0.00372175
0.00362626
0.00353124
0.00343828
0.0033519
0.00328129
0.0032479
0.00328342
0.00342237
0.00361622
0.00371995
0.00365832
0.0104444
0.00836599
0.00619181
0.00493005
0.00435597
0.00410377
0.00395996
0.00385178
0.00375021
0.00365185
0.00355553
0.00346322
0.0033795
0.003313
0.0032845
0.00332583
0.00347236
0.00367676
0.00379222
0.00372989
0.0104715
0.00842156
0.00623779
0.0049724
0.00439626
0.00414022
0.00399146
0.00387848
0.00377368
0.0036744
0.00357984
0.00349156
0.00341327
0.00335248
0.00332916
0.00337569
0.00352835
0.00374059
0.00386432
0.00379215
0.0105298
0.00849397
0.00628888
0.00501477
0.0044332
0.00417112
0.00401657
0.00389955
0.00379346
0.00369595
0.0036058
0.00352331
0.00345078
0.00339461
0.00337441
0.00342337
0.00357867
0.00379449
0.00392218
0.00384124
0.0106069
0.00856547
0.00633516
0.00505114
0.00446342
0.0041956
0.00403675
0.00391802
0.00381326
0.00371965
0.00363474
0.00355729
0.00348831
0.00343365
0.00341315
0.00346112
0.00361552
0.00383147
0.00396091
0.00388079
0.0106874
0.00862169
0.00637183
0.00508022
0.0044883
0.00421731
0.00405716
0.00393961
0.00383817
0.00374889
0.00366789
0.00359264
0.00352356
0.00346676
0.0034429
0.00348743
0.00363908
0.00385424
0.00398643
0.00391969
0.010756
0.0086634
0.00640147
0.00510638
0.00451347
0.00424282
0.00408461
0.00397041
0.00387276
0.00378646
0.0037065
0.00362982
0.00355713
0.00349547
0.00346665
0.00350721
0.0036567
0.00387299
0.00401118
0.0039672
0.0108117
0.00869827
0.00643167
0.00513662
0.00454573
0.00427845
0.0041244
0.00401426
0.00391939
0.00383359
0.00375147
0.00367031
0.00359179
0.00352426
0.00349071
0.00352862
0.00367845
0.00389959
0.00404765
0.00402846
0.0108629
0.00873777
0.00647012
0.00517667
0.0045894
0.00432701
0.00417776
0.00407092
0.00397686
0.00388901
0.00380234
0.00371508
0.00363029
0.00355756
0.00352093
0.00355856
0.00371187
0.00394165
0.00410246
0.00410272
0.0109203
0.00878904
0.00652003
0.00522757
0.00464378
0.0043861
0.00424081
0.00413561
0.00404033
0.0039486
0.00385636
0.00376312
0.00367319
0.00359718
0.00355965
0.0035993
0.00375853
0.0039995
0.00417438
0.00418475
0.0109905
0.00885024
0.00657798
0.00528478
0.00470313
0.00444872
0.00430567
0.00420028
0.00410234
0.00400614
0.00390886
0.0038112
0.00371837
0.00364138
0.00360488
0.00364794
0.00381424
0.00406737
0.00425627
0.00426819
0.0110715
0.00891158
0.00663567
0.00534041
0.00475919
0.00450613
0.0043635
0.0042566
0.00415562
0.00405573
0.00395524
0.00385561
0.00376236
0.00368637
0.00365203
0.00369891
0.00387229
0.00413742
0.00433972
0.00434904
0.0111544
0.00896141
0.00668453
0.00538721
0.00480518
0.00455192
0.00440849
0.00429972
0.00419646
0.00409473
0.00399353
0.00389447
0.00380284
0.00372908
0.00369732
0.00374775
0.00392765
0.00420423
0.00441957
0.00442713
0.0112294
0.00899345
0.0067205
0.00542233
0.00483895
0.0045847
0.0044402
0.00433032
0.00422654
0.00412537
0.00402589
0.00392934
0.00384056
0.00376951
0.0037402
0.00379365
0.00397942
0.00426701
0.00449561
0.00450505
0.0112925
0.00901148
0.00674639
0.00544861
0.00486389
0.00460876
0.00446394
0.0043546
0.00425247
0.00415403
0.00405793
0.00396489
0.00387929
0.00381075
0.00378334
0.00383905
0.00403003
0.00432843
0.00457088
0.00458547
0.0113497
0.00902753
0.00677042
0.00547328
0.00488742
0.00463213
0.00448839
0.00438146
0.00428276
0.00418832
0.00409617
0.00400657
0.00392361
0.00385667
0.00383005
0.00388697
0.0040824
0.00439146
0.0046483
0.004669
0.0114142
0.00905655
0.00680241
0.00550461
0.00491754
0.00466291
0.00452161
0.0044184
0.00432392
0.00423353
0.00414473
0.0040575
0.00397575
0.00390877
0.00388136
0.00393824
0.00413732
0.00445677
0.00472811
0.00475376
0.0115016
0.00910905
0.00684922
0.00554811
0.00495925
0.00470565
0.00456742
0.00446813
0.00437737
0.00428987
0.00420287
0.00411615
0.00403358
0.00396463
0.00393486
0.0039906
0.00419261
0.00452202
0.00480757
0.00483676
0.0116224
0.00918566
0.00691124
0.00560383
0.00501212
0.00475916
0.00462354
0.00452715
0.00443859
0.00435212
0.00426486
0.00417656
0.00409128
0.00401891
0.00398592
0.00404005
0.00424459
0.00458357
0.00488304
0.00491629
0.0117773
0.00927602
0.00698188
0.00566625
0.00507053
0.00481708
0.00468275
0.00458752
0.00449928
0.00441193
0.00432265
0.00423137
0.00414257
0.00406668
0.00403079
0.00408361
0.00429076
0.00463928
0.00495296
0.00499327
0.0119572
0.00936647
0.00704823
0.00572539
0.00512579
0.00487088
0.00473635
0.00464074
0.00455148
0.00446222
0.00437037
0.0042762
0.00418467
0.00410647
0.00406898
0.00412141
0.00433173
0.00469035
0.00501931
0.00507076
0.0121498
0.00943746
0.00710077
0.00577381
0.00517105
0.00491432
0.00477889
0.00468232
0.00459179
0.00450108
0.00440763
0.00431215
0.00421989
0.00414136
0.00410386
0.00415702
0.00437131
0.00474094
0.00508655
0.00515192
0.0123395
0.00948221
0.00713578
0.00580907
0.00520467
0.00494661
0.00481066
0.00471381
0.00462314
0.00453258
0.00443972
0.00434527
0.00425445
0.00417728
0.00414094
0.00419556
0.0044144
0.0047957
0.00515878
0.00523774
0.0125185
0.00950684
0.00715769
0.00583475
0.00523062
0.00497256
0.00483739
0.00474185
0.00465294
0.00456459
0.00447461
0.00438308
0.00429495
0.00421975
0.00418472
0.00424072
0.00446387
0.0048566
0.00523683
0.00532643
0.0126911
0.00952773
0.00717656
0.00585868
0.0052566
0.00500012
0.00486725
0.00477464
0.00468914
0.00460453
0.00451831
0.00443034
0.00434465
0.00427064
0.00423592
0.00429223