/*--------------------------------*- C++ -*----------------------------------*\
  =========                 |
  \\      /  F ield         | OpenFOAM: The Open Source CFD Toolbox
   \\    /   O peration     | Website:  https://openfoam.org
    \\  /    A nd           | Version:  8
     \\/     M anipulation  |
\*---------------------------------------------------------------------------*/
FoamFile
{
    version     2.0;
    format      ascii;
    class       volScalarField;
    location    "800";
    object      epsilon;
}
// * * * * * * * * * * * * * * * * * * * * * * * * * * * * * * * * * * * * * //

dimensions      [0 2 -3 0 0 0 0];

internalField   nonuniform List<scalar> 
8400
(
0.0188078
0.0183075
0.0177974
0.0172912
0.0167951
0.0163374
0.015917
0.015529
0.0151939
0.014934
0.0147517
0.0146375
0.0145838
0.0145888
0.0146606
0.0148314
0.0152277
0.0161885
0.0180708
0.0204751
0.0220875
0.0225016
0.0223366
0.0220212
0.0216393
0.0211984
0.0207048
0.0201633
0.0197455
0.0195527
0.019469
0.0193974
0.0192758
0.0190668
0.0187657
0.0184049
0.0180418
0.0176755
0.0173074
0.0169377
0.0165667
0.016195
0.015825
0.0154571
0.0150913
0.0147285
0.0143699
0.0140162
0.0136675
0.0133249
0.011074
0.0111374
0.01122
0.011289
0.011396
0.0115138
0.0116327
0.0117507
0.0118692
0.0119751
0.0120554
0.012105
0.0121154
0.0120658
0.0118795
0.0112681
0.0098511
0.00839658
0.00780728
0.00770337
0.00775674
0.00782977
0.00766833
0.00708573
0.00639346
0.00586975
0.00552927
0.00531093
0.00520953
0.00519126
0.00519123
0.00518338
0.00515321
0.00509198
0.00500007
0.00487586
0.00470978
0.00451614
0.00430725
0.00409312
0.00388111
0.00367731
0.00348525
0.00330697
0.00314447
0.00299897
0.00287124
0.00276228
0.00267324
0.00260556
0.0130428
0.0128154
0.0125801
0.0123201
0.012039
0.0117766
0.0116661
0.0117531
0.0119106
0.0120681
0.0121952
0.0122836
0.0123344
0.012351
0.0123346
0.0122829
0.0121977
0.0120935
0.0118436
0.0113677
0.00832099
0.00520533
0.00458197
0.00410451
0.00364823
0.00336203
0.00320237
0.00309861
0.00305894
0.00305788
0.00305955
0.00305652
0.00304324
0.00301709
0.00297951
0.0029298
0.00286575
0.00279564
0.00272576
0.00266065
0.00260333
0.00255526
0.00251674
0.00248741
0.00246666
0.00245345
0.00244674
0.00244544
0.00244841
0.00245453
0.0131225
0.0130673
0.0130141
0.0129648
0.0129096
0.0128513
0.0128025
0.0127671
0.012744
0.0127289
0.012717
0.0127047
0.0126884
0.0126656
0.0126333
0.0125917
0.0125408
0.0124699
0.0123663
0.012195
0.0116591
0.0104168
0.00911669
0.00780957
0.00420634
0.00273511
0.0026077
0.00257422
0.00254459
0.00253197
0.00252953
0.0025298
0.00252788
0.00252165
0.00251187
0.00249785
0.00247865
0.00245864
0.0024407
0.00242664
0.00241709
0.00241163
0.00240965
0.00241043
0.00241323
0.00241726
0.00242196
0.00242696
0.00243186
0.0024365
0.0131533
0.0131349
0.0131165
0.0130976
0.0130784
0.0130587
0.0130384
0.0130174
0.0129956
0.012973
0.0129497
0.0129257
0.0129012
0.0128763
0.0128511
0.012822
0.0127836
0.0127331
0.012666
0.0125721
0.0123962
0.0119984
0.0113562
0.010473
0.00884402
0.00716822
0.00595417
0.00319569
0.00253834
0.00250092
0.002443
0.00242827
0.00242615
0.00242906
0.00243355
0.00243882
0.00244315
0.00244874
0.00245653
0.00246694
0.00247968
0.00249403
0.00250936
0.00252506
0.00254059
0.00255571
0.00257011
0.00258354
0.00259576
0.00260653
0.0131505
0.0131293
0.0131078
0.0130859
0.0130638
0.0130412
0.0130181
0.0129944
0.0129701
0.0129451
0.0129195
0.0128934
0.0128672
0.012841
0.0128143
0.0127882
0.0127617
0.0127322
0.0126956
0.0126455
0.012565
0.0124039
0.0121049
0.0116177
0.010774
0.00963635
0.00843022
0.00683042
0.00598814
0.00322952
0.00250463
0.00249153
0.0024656
0.0024774
0.00249572
0.00251815
0.00254399
0.00257367
0.00260734
0.00264447
0.00268433
0.00272632
0.00276979
0.0028142
0.00285892
0.00290358
0.00294776
0.00299064
0.00303151
0.00306966
0.0131487
0.0131253
0.0131017
0.0130777
0.0130533
0.0130282
0.0130024
0.0129756
0.0129482
0.0129199
0.0128911
0.0128622
0.0128334
0.0128038
0.0127748
0.012747
0.0127206
0.0126949
0.0126681
0.0126362
0.0125909
0.0125111
0.0123598
0.0120902
0.0116167
0.0108917
0.00997364
0.00883721
0.00783533
0.006375
0.00508262
0.00267529
0.00254842
0.00256052
0.00259554
0.00263761
0.00268705
0.00274294
0.00280455
0.00287087
0.00294084
0.00301365
0.00308824
0.00316392
0.00324002
0.00331565
0.00339002
0.00346209
0.00353089
0.00359553
0.0131446
0.0131167
0.0130885
0.0130597
0.0130305
0.0130006
0.0129696
0.0129377
0.0129048
0.0128715
0.0128378
0.0128041
0.01277
0.0127373
0.0127069
0.0126789
0.0126536
0.012631
0.0126102
0.0125885
0.0125609
0.0125162
0.0124325
0.0122754
0.0119902
0.01152
0.0108572
0.0100054
0.00909609
0.00799806
0.00689957
0.00554681
0.00283316
0.00261608
0.00267284
0.00273657
0.00280983
0.00289057
0.00297699
0.0030678
0.00316153
0.00325663
0.00335155
0.0034452
0.00353638
0.00362395
0.00370688
0.00378417
0.00385511
0.00391922
0.0131388
0.0131044
0.0130693
0.0130337
0.0129969
0.0129597
0.0129216
0.0128822
0.0128419
0.0128016
0.0127601
0.0127187
0.0126791
0.0126424
0.0126099
0.0125826
0.0125606
0.0125432
0.0125294
0.0125166
0.0125014
0.0124767
0.0124282
0.0123316
0.0121483
0.0118293
0.0113453
0.0106891
0.00991411
0.00899652
0.00799115
0.0068187
0.00509919
0.00291832
0.00269622
0.00278261
0.00287855
0.00298031
0.00308574
0.00319298
0.00330008
0.0034051
0.00350564
0.00360013
0.00368697
0.00376442
0.00383118
0.00388632
0.00392947
0.00396072
0.0131282
0.0130822
0.0130355
0.0129871
0.0129375
0.0128856
0.0128325
0.0127784
0.0127236
0.0126676
0.0126136
0.0125641
0.0125208
0.0124855
0.0124589
0.0124407
0.0124301
0.0124257
0.0124251
0.0124254
0.0124234
0.0124142
0.0123874
0.012326
0.0122011
0.0119722
0.0116052
0.0110833
0.0104256
0.00962993
0.00871297
0.00762125
0.0061879
0.00445978
0.00301198
0.00276708
0.00288384
0.00300101
0.00311879
0.0032358
0.003349
0.00345605
0.00355449
0.00364197
0.00371662
0.00377592
0.00381784
0.00384068
0.00384355
0.00382604
0.0131068
0.0130344
0.0129622
0.0128869
0.0128081
0.0127243
0.0126341
0.0125381
0.0124406
0.0123466
0.0122701
0.0122198
0.0121988
0.0122026
0.0122206
0.0122435
0.0122669
0.0122888
0.0123088
0.0123257
0.0123375
0.0123414
0.0123299
0.0122898
0.0121992
0.0120242
0.0117314
0.0112995
0.0107307
0.0100233
0.00917858
0.00815501
0.00686644
0.00536144
0.00396308
0.00310462
0.00284493
0.00294749
0.00307681
0.00319942
0.00331488
0.00342158
0.00351786
0.00360118
0.00366974
0.00372064
0.00375114
0.00375935
0.00374377
0.00370262
0.0130097
0.0128246
0.0126739
0.0125224
0.0123213
0.0119631
0.0116819
0.0116114
0.0116218
0.0116729
0.0117409
0.0118143
0.0118886
0.0119579
0.0120212
0.0120775
0.0121275
0.0121704
0.0122048
0.012234
0.0122559
0.0122683
0.012266
0.0122384
0.0121669
0.0120227
0.0117746
0.0114004
0.0108936
0.0102487
0.0094589
0.00849019
0.00729763
0.00594135
0.00465483
0.00368917
0.0031403
0.00297439
0.00299945
0.00309241
0.00320159
0.00330845
0.00340687
0.00349353
0.00356597
0.00362193
0.00365892
0.00367529
0.00366958
0.00364056
0.0123574
0.0120976
0.0118668
0.011657
0.0114778
0.0113437
0.0112918
0.0113193
0.0113853
0.0114671
0.0115535
0.0116403
0.0117254
0.0118071
0.0118833
0.0119518
0.0120126
0.0120652
0.0121098
0.0121469
0.0121755
0.0121941
0.0121981
0.0121779
0.0121149
0.0119853
0.011761
0.0114203
0.0109528
0.0103495
0.00959829
0.00867232
0.00755465
0.00631886
0.00514939
0.0042129
0.00356986
0.0032131
0.00306802
0.00305082
0.00309954
0.003177
0.00326312
0.00334722
0.00342324
0.0034875
0.0035372
0.00357045
0.00358579
0.0035822
0.0116562
0.0114973
0.0113762
0.0112969
0.011261
0.0112619
0.0112948
0.0113463
0.0114063
0.0114703
0.0115356
0.0116018
0.0116693
0.0117365
0.0118018
0.0118643
0.0119226
0.0119752
0.0120217
0.0120611
0.0120916
0.0121115
0.0121164
0.012097
0.0120381
0.0119181
0.0117086
0.011377
0.0109301
0.010351
0.00962446
0.00873278
0.00768278
0.00655805
0.00550627
0.00463982
0.00399235
0.00355327
0.00328756
0.00315198
0.00310557
0.00311529
0.00315718
0.00321498
0.003278
0.00333925
0.00339389
0.00343873
0.00347162
0.00349111
0.0113229
0.0112821
0.0112653
0.0112711
0.0112934
0.0113281
0.0113692
0.0114132
0.011459
0.0115053
0.0115524
0.0116007
0.01165
0.0117001
0.0117505
0.0118001
0.0118479
0.0118927
0.011933
0.0119673
0.0119936
0.0120086
0.0120077
0.0119818
0.0119177
0.0117963
0.0115945
0.0112863
0.0108525
0.0102694
0.00955454
0.00869345
0.00771413
0.00670192
0.00576915
0.00498741
0.00437289
0.00391316
0.00358626
0.00336828
0.00323584
0.00316757
0.00314512
0.00315355
0.00318122
0.00321935
0.00326136
0.00330246
0.00333931
0.0033695
0.0112555
0.0112659
0.0112839
0.0113082
0.0113366
0.0113672
0.0113987
0.0114312
0.0114641
0.0114976
0.0115322
0.0115678
0.0116042
0.0116412
0.0116785
0.0117153
0.0117507
0.0117837
0.0118131
0.0118366
0.0118518
0.0118551
0.0118409
0.0118011
0.011724
0.0115941
0.0113931
0.0111014
0.0107015
0.0101406
0.00940361
0.00857258
0.00767521
0.00678247
0.0059705
0.00527984
0.00471602
0.0042678
0.0039198
0.00365716
0.00346622
0.00333441
0.00325011
0.0032028
0.00318317
0.00318327
0.00319659
0.00321787
0.00324304
0.00326899
0.0112359
0.0112494
0.0112643
0.0112799
0.0112964
0.0113135
0.0113315
0.0113506
0.0113707
0.0113924
0.0114153
0.0114393
0.0114641
0.0114893
0.0115143
0.0115384
0.0115607
0.0115801
0.011595
0.0116033
0.0116022
0.0115879
0.0115549
0.0114964
0.011403
0.0112629
0.0110634
0.0107913
0.0104338
0.00995595
0.00919465
0.00839099
0.00759312
0.00682838
0.00613826
0.0055421
0.0050399
0.00462295
0.00428077
0.00400381
0.00378376
0.00361324
0.00348535
0.00339354
0.00333162
0.00329383
0.00327503
0.00327072
0.00327709
0.003291
0.0111084
0.0111064
0.0111039
0.0111014
0.0110992
0.0110979
0.0110979
0.0110994
0.0111028
0.0111081
0.0111153
0.0111238
0.0111335
0.0111436
0.0111534
0.0111621
0.0111685
0.0111714
0.0111691
0.0111594
0.0111396
0.0111064
0.0110554
0.0109814
0.0108779
0.0107381
0.0105547
0.0103212
0.0100304
0.00966082
0.00896443
0.00818144
0.0074971
0.00686411
0.00629473
0.00579527
0.00536392
0.00499491
0.00468154
0.00441782
0.00419865
0.00401961
0.00387663
0.00376581
0.00368339
0.0036257
0.00358925
0.00357074
0.00356719
0.00357587
0.0107696
0.0107435
0.0107159
0.0106878
0.0106596
0.0106321
0.0106058
0.0105811
0.0105585
0.0105381
0.0105199
0.0105036
0.0104891
0.0104757
0.0104626
0.0104492
0.0104344
0.0104169
0.0103953
0.010368
0.010333
0.0102881
0.0102307
0.0101582
0.0100677
0.00995682
0.00982382
0.00966785
0.00948709
0.00926806
0.00870067
0.00800245
0.00743479
0.0069258
0.00647049
0.00606795
0.00571575
0.00541038
0.00514798
0.0049249
0.00473793
0.00458428
0.00446138
0.00436678
0.0042981
0.00425296
0.00422898
0.00422378
0.00423494
0.00425992
0.0227162
0.0220732
0.0214384
0.0208008
0.0201572
0.0195064
0.0188501
0.0181913
0.0175343
0.0168845
0.0162473
0.0156281
0.0150313
0.0144607
0.0139191
0.0134085
0.0129296
0.0124824
0.0120665
0.0116806
0.0113232
0.0109929
0.0106879
0.0104068
0.0101481
0.0099105
0.00969374
0.0094998
0.00933524
0.00921234
0.00871429
0.0083438
0.00803104
0.00777703
0.00757501
0.0074212
0.00731347
0.00725007
0.00722955
0.00725068
0.00731264
0.00741492
0.00755736
0.00773995
0.00796283
0.00822601
0.0085292
0.00887132
0.00924954
0.00965723
9.32897e-06
9.20249e-06
9.08108e-06
8.96583e-06
8.85603e-06
8.74872e-06
8.64361e-06
8.54031e-06
8.43826e-06
8.33693e-06
8.23582e-06
8.13461e-06
8.03318e-06
7.93167e-06
7.83045e-06
7.7301e-06
7.6314e-06
7.53517e-06
7.44221e-06
7.35321e-06
7.26695e-06
7.16002e-06
7.05751e-06
6.98327e-06
6.90728e-06
6.83114e-06
6.73501e-06
6.64679e-06
6.56351e-06
6.48239e-06
6.40161e-06
6.32029e-06
6.23828e-06
6.15584e-06
6.07356e-06
5.99222e-06
5.91268e-06
5.83571e-06
5.76195e-06
5.69188e-06
5.62573e-06
5.56324e-06
5.50403e-06
5.44802e-06
5.39457e-06
5.34219e-06
5.28912e-06
5.23593e-06
5.18889e-06
5.15881e-06
8.97768e-06
8.37406e-06
7.82496e-06
7.32496e-06
6.87022e-06
6.4581e-06
6.08351e-06
5.74185e-06
5.42896e-06
5.14112e-06
4.87512e-06
4.62825e-06
4.39833e-06
4.18372e-06
3.98322e-06
3.79607e-06
3.6218e-06
3.46009e-06
3.3093e-06
3.17103e-06
3.1298e-06
3.11336e-06
3.10521e-06
7.28418e-07
7.22134e-07
7.16514e-07
7.17347e-07
7.19027e-07
7.20461e-07
7.2128e-07
7.2146e-07
7.21098e-07
7.203e-07
7.1915e-07
7.17702e-07
7.15991e-07
7.14052e-07
7.11927e-07
7.09646e-07
7.07251e-07
7.04782e-07
7.02306e-07
6.99882e-07
6.97539e-07
6.95325e-07
6.93125e-07
6.90103e-07
6.8402e-07
6.7212e-07
6.55265e-07
8.97623e-06
8.3682e-06
7.81173e-06
7.30381e-06
6.84013e-06
6.41641e-06
6.02846e-06
5.67224e-06
5.34411e-06
5.04076e-06
4.75935e-06
4.49749e-06
4.25322e-06
4.02501e-06
3.81169e-06
3.6124e-06
3.42646e-06
3.25275e-06
3.11648e-06
7.19677e-07
7.18071e-07
7.14947e-07
7.11118e-07
7.06846e-07
7.02533e-07
6.9827e-07
6.94271e-07
6.90347e-07
6.86391e-07
6.82314e-07
6.78056e-07
6.73593e-07
6.68928e-07
6.6409e-07
6.59124e-07
6.54084e-07
6.49036e-07
6.44042e-07
6.3918e-07
6.34497e-07
6.30025e-07
6.2576e-07
6.21656e-07
6.1767e-07
6.13927e-07
6.10971e-07
6.09715e-07
6.10462e-07
6.10201e-07
6.00075e-07
8.97624e-06
8.37237e-06
7.82035e-06
7.3162e-06
6.85544e-06
6.43372e-06
6.04694e-06
5.69123e-06
5.3631e-06
5.05936e-06
4.77725e-06
4.51446e-06
4.26908e-06
4.03961e-06
3.82493e-06
3.62416e-06
3.43666e-06
3.26131e-06
3.12261e-06
7.20397e-07
7.18585e-07
7.15122e-07
7.109e-07
7.06399e-07
7.01853e-07
6.97339e-07
6.92849e-07
6.88328e-07
6.83705e-07
6.78912e-07
6.739e-07
6.68642e-07
6.63141e-07
6.57423e-07
6.5154e-07
6.45558e-07
6.39557e-07
6.33612e-07
6.27796e-07
6.2217e-07
6.16788e-07
6.11689e-07
6.06842e-07
6.02064e-07
5.96982e-07
5.91316e-07
5.85668e-07
5.82073e-07
5.81935e-07
5.77831e-07
8.97619e-06
8.37225e-06
7.81976e-06
7.31479e-06
6.85312e-06
6.43062e-06
6.0433e-06
5.68735e-06
5.35921e-06
5.05568e-06
4.77395e-06
4.51162e-06
4.26674e-06
4.03778e-06
3.82355e-06
3.62318e-06
3.436e-06
3.26088e-06
3.12204e-06
7.20339e-07
7.18424e-07
7.149e-07
7.10619e-07
7.06051e-07
7.01422e-07
6.96814e-07
6.92223e-07
6.87598e-07
6.82874e-07
6.77988e-07
6.72891e-07
6.67559e-07
6.6199e-07
6.56212e-07
6.50271e-07
6.44232e-07
6.38171e-07
6.32161e-07
6.26268e-07
6.20541e-07
6.15021e-07
6.09768e-07
6.04894e-07
6.00506e-07
5.96475e-07
5.92139e-07
5.86645e-07
5.80674e-07
5.77473e-07
5.73916e-07
8.97613e-06
8.37229e-06
7.8201e-06
7.31557e-06
6.85449e-06
6.43272e-06
6.04621e-06
5.69111e-06
5.36385e-06
5.06116e-06
4.7802e-06
4.51855e-06
4.27423e-06
4.04569e-06
3.83173e-06
3.63148e-06
3.44426e-06
3.26953e-06
3.10735e-06
7.28547e-07
7.22338e-07
7.16417e-07
7.10777e-07
7.05409e-07
7.00285e-07
6.95356e-07
6.90556e-07
6.85804e-07
6.81019e-07
6.76128e-07
6.71074e-07
6.65826e-07
6.60374e-07
6.54736e-07
6.48951e-07
6.43077e-07
6.37182e-07
6.31336e-07
6.25607e-07
6.20038e-07
6.14632e-07
6.0935e-07
6.04189e-07
5.99298e-07
5.94975e-07
5.91239e-07
5.87189e-07
5.81838e-07
5.77365e-07
5.73359e-07
8.97605e-06
8.37203e-06
7.81958e-06
7.31475e-06
6.85341e-06
6.43146e-06
6.04489e-06
5.68988e-06
5.36284e-06
5.06048e-06
4.77992e-06
4.51871e-06
4.27481e-06
4.04664e-06
3.83297e-06
3.6329e-06
3.44575e-06
3.27097e-06
3.10837e-06
7.28779e-07
7.22521e-07
7.16501e-07
7.10742e-07
7.05244e-07
6.99989e-07
6.94933e-07
6.90015e-07
6.85162e-07
6.80298e-07
6.75356e-07
6.70283e-07
6.65048e-07
6.5964e-07
6.54075e-07
6.48389e-07
6.42631e-07
6.36859e-07
6.31138e-07
6.25534e-07
6.20113e-07
6.14918e-07
6.09926e-07
6.05012e-07
6.00063e-07
5.95224e-07
5.90932e-07
5.8712e-07
5.82575e-07
5.77966e-07
5.73609e-07
8.97598e-06
8.37174e-06
7.81901e-06
7.31393e-06
6.85246e-06
6.43057e-06
6.04429e-06
5.68974e-06
5.36332e-06
5.06168e-06
4.78188e-06
4.52141e-06
4.2782e-06
4.0506e-06
3.83737e-06
3.63758e-06
3.45055e-06
3.27573e-06
3.11294e-06
7.29458e-07
7.23134e-07
7.17029e-07
7.11167e-07
7.05552e-07
7.00171e-07
6.94985e-07
6.89941e-07
6.84971e-07
6.80006e-07
6.74983e-07
6.69853e-07
6.64588e-07
6.59179e-07
6.5364e-07
6.48005e-07
6.42321e-07
6.3664e-07
6.31013e-07
6.25482e-07
6.20092e-07
6.14908e-07
6.09988e-07
6.05304e-07
6.00674e-07
5.9592e-07
5.91254e-07
5.87093e-07
5.82797e-07
5.78315e-07
5.73847e-07
8.97589e-06
8.37139e-06
7.81831e-06
7.3129e-06
6.85121e-06
6.42927e-06
6.04312e-06
5.68889e-06
5.36291e-06
5.06182e-06
4.78263e-06
4.52275e-06
4.28008e-06
4.05293e-06
3.84002e-06
3.64042e-06
3.45342e-06
3.27848e-06
3.11544e-06
7.29824e-07
7.23449e-07
7.1727e-07
7.11316e-07
7.05595e-07
7.00099e-07
6.94794e-07
6.89632e-07
6.84553e-07
6.79491e-07
6.74392e-07
6.69208e-07
6.63915e-07
6.58505e-07
6.52992e-07
6.47407e-07
6.41795e-07
6.36209e-07
6.30701e-07
6.25304e-07
6.20033e-07
6.14898e-07
6.09947e-07
6.05251e-07
6.00767e-07
5.96271e-07
5.91645e-07
5.87233e-07
5.82889e-07
5.78462e-07
5.7398e-07
8.97581e-06
8.37104e-06
7.8176e-06
7.31185e-06
6.84995e-06
6.42799e-06
6.04202e-06
5.68817e-06
5.36273e-06
5.06228e-06
4.78377e-06
4.52458e-06
4.28253e-06
4.05591e-06
3.8434e-06
3.64404e-06
3.45712e-06
3.2821e-06
3.11882e-06
7.30318e-07
7.23879e-07
7.17615e-07
7.11558e-07
7.05723e-07
7.00103e-07
6.94675e-07
6.89393e-07
6.84204e-07
6.7905e-07
6.73878e-07
6.6865e-07
6.6334e-07
6.57943e-07
6.52471e-07
6.4695e-07
6.4142e-07
6.35927e-07
6.30523e-07
6.25251e-07
6.20131e-07
6.15143e-07
6.10267e-07
6.05542e-07
6.01028e-07
5.96631e-07
5.92137e-07
5.87659e-07
5.83221e-07
5.78757e-07
5.74244e-07
8.97573e-06
8.37072e-06
7.81692e-06
7.31085e-06
6.84875e-06
6.42677e-06
6.04098e-06
5.68749e-06
5.36255e-06
5.06271e-06
4.78485e-06
4.52629e-06
4.28483e-06
4.05869e-06
3.84654e-06
3.64739e-06
3.46052e-06
3.28539e-06
3.12185e-06
7.30757e-07
7.24262e-07
7.17932e-07
7.11801e-07
7.05885e-07
7.0018e-07
6.94659e-07
6.89284e-07
6.84004e-07
6.78769e-07
6.73532e-07
6.6826e-07
6.62933e-07
6.5755e-07
6.52123e-07
6.46679e-07
6.4125e-07
6.35871e-07
6.30578e-07
6.25413e-07
6.20409e-07
6.15564e-07
6.10834e-07
6.0618e-07
6.01642e-07
5.97232e-07
5.92798e-07
5.88315e-07
5.83805e-07
5.79263e-07
5.74679e-07
8.97565e-06
8.37039e-06
7.81626e-06
7.30988e-06
6.84759e-06
6.42559e-06
6.03996e-06
5.68679e-06
5.36232e-06
5.06302e-06
4.78574e-06
4.52776e-06
4.28682e-06
4.06111e-06
3.84927e-06
3.65029e-06
3.46343e-06
3.28817e-06
3.12436e-06
7.31139e-07
7.24642e-07
7.18327e-07
7.12224e-07
7.06337e-07
7.00647e-07
6.95119e-07
6.89709e-07
6.8437e-07
6.7906e-07
6.73744e-07
6.68399e-07
6.63016e-07
6.576e-07
6.52168e-07
6.46749e-07
6.41375e-07
6.36076e-07
6.30877e-07
6.25796e-07
6.20858e-07
6.16077e-07
6.11432e-07
6.06858e-07
6.02323e-07
5.9786e-07
5.93397e-07
5.88878e-07
5.84295e-07
5.79655e-07
5.74968e-07
8.97558e-06
8.37011e-06
7.81569e-06
7.30904e-06
6.8466e-06
6.42461e-06
6.03918e-06
5.68638e-06
5.36239e-06
5.06366e-06
4.78699e-06
4.52961e-06
4.28921e-06
4.06396e-06
3.85246e-06
3.65369e-06
3.4669e-06
3.29156e-06
3.1275e-06
7.31493e-07
7.24724e-07
7.18048e-07
7.11556e-07
7.05306e-07
6.99315e-07
6.93568e-07
6.88021e-07
6.82623e-07
6.7732e-07
6.72065e-07
6.66824e-07
6.6158e-07
6.56327e-07
6.51074e-07
6.45841e-07
6.40655e-07
6.35546e-07
6.30534e-07
6.25626e-07
6.20826e-07
6.16144e-07
6.11575e-07
6.07079e-07
6.02593e-07
5.98112e-07
5.93611e-07
5.89048e-07
5.84405e-07
5.79688e-07
5.74912e-07
8.97553e-06
8.36986e-06
7.81514e-06
7.3082e-06
6.84555e-06
6.42348e-06
6.03809e-06
5.68543e-06
5.36169e-06
5.06326e-06
4.78693e-06
4.52988e-06
4.28978e-06
4.06478e-06
3.85346e-06
3.65476e-06
3.46794e-06
3.29246e-06
3.12818e-06
7.31672e-07
7.25078e-07
7.18644e-07
7.12402e-07
7.06358e-07
7.00495e-07
6.94786e-07
6.89197e-07
6.83693e-07
6.78242e-07
6.72822e-07
6.67419e-07
6.62028e-07
6.56656e-07
6.51317e-07
6.46028e-07
6.40811e-07
6.35691e-07
6.30687e-07
6.25804e-07
6.21032e-07
6.16363e-07
6.11788e-07
6.07279e-07
6.02785e-07
5.98268e-07
5.93707e-07
5.89077e-07
5.84361e-07
5.79567e-07
5.74714e-07
8.97548e-06
8.36963e-06
7.81465e-06
7.30755e-06
6.84491e-06
6.42302e-06
6.03796e-06
5.68576e-06
5.36255e-06
5.06468e-06
4.78889e-06
4.53235e-06
4.2927e-06
4.06806e-06
3.85699e-06
3.65844e-06
3.47164e-06
3.29606e-06
3.13155e-06
3.08862e-06
7.25485e-07
7.18969e-07
7.12632e-07
7.06482e-07
7.00509e-07
6.94694e-07
6.89008e-07
6.83423e-07
6.77913e-07
6.72457e-07
6.67044e-07
6.61667e-07
6.5633e-07
6.51045e-07
6.45826e-07
6.40686e-07
6.35641e-07
6.30706e-07
6.25887e-07
6.21176e-07
6.16548e-07
6.11991e-07
6.07477e-07
6.02968e-07
5.98424e-07
5.93818e-07
5.89134e-07
5.84363e-07
5.79515e-07
5.74615e-07
8.97545e-06
8.36921e-06
7.81355e-06
7.30568e-06
6.84227e-06
6.41971e-06
6.0341e-06
5.68151e-06
5.35805e-06
5.06007e-06
4.78427e-06
4.5278e-06
4.28828e-06
4.06378e-06
3.85286e-06
3.65444e-06
3.46774e-06
3.2922e-06
3.12768e-06
7.31524e-07
7.24775e-07
7.18098e-07
7.11548e-07
7.05165e-07
6.98975e-07
6.92985e-07
6.87188e-07
6.81562e-07
6.7608e-07
6.70716e-07
6.65446e-07
6.60252e-07
6.55124e-07
6.50061e-07
6.45067e-07
6.40148e-07
6.35311e-07
6.3056e-07
6.25899e-07
6.21325e-07
6.16816e-07
6.12347e-07
6.07899e-07
6.0344e-07
5.98935e-07
5.94362e-07
5.89711e-07
5.84985e-07
5.80205e-07
5.75406e-07
8.97545e-06
8.36907e-06
7.81363e-06
7.30638e-06
6.84377e-06
6.42202e-06
6.03715e-06
5.68515e-06
5.36212e-06
5.06442e-06
4.78878e-06
4.53235e-06
4.29278e-06
4.06818e-06
3.85708e-06
3.65843e-06
3.47144e-06
3.29557e-06
3.13067e-06
7.31932e-07
7.25118e-07
7.18376e-07
7.11761e-07
7.05313e-07
6.99061e-07
6.93019e-07
6.87183e-07
6.81536e-07
6.76058e-07
6.70725e-07
6.6552e-07
6.60428e-07
6.55438e-07
6.50549e-07
6.4576e-07
6.41072e-07
6.36488e-07
6.32005e-07
6.27617e-07
6.23318e-07
6.19095e-07
6.14914e-07
6.10755e-07
6.06593e-07
6.02402e-07
5.98169e-07
5.9389e-07
5.89585e-07
5.85293e-07
5.81073e-07
8.97544e-06
8.36486e-06
7.80489e-06
7.2938e-06
6.82826e-06
6.40455e-06
6.01862e-06
5.66628e-06
5.34347e-06
5.04641e-06
4.77174e-06
4.51652e-06
4.27832e-06
4.05521e-06
3.8457e-06
3.64866e-06
3.4633e-06
3.28903e-06
3.12571e-06
7.31479e-07
7.24978e-07
7.18648e-07
7.12441e-07
7.06416e-07
7.00655e-07
6.95217e-07
6.90054e-07
6.85104e-07
6.8032e-07
6.75678e-07
6.71181e-07
6.66837e-07
6.62658e-07
6.58651e-07
6.5482e-07
6.51156e-07
6.47651e-07
6.44289e-07
6.4105e-07
6.3791e-07
6.34847e-07
6.31829e-07
6.28827e-07
6.25818e-07
6.22784e-07
6.19725e-07
6.16656e-07
6.1362e-07
6.10692e-07
6.0799e-07
8.97719e-06
8.37158e-06
7.8195e-06
7.31671e-06
6.86031e-06
6.44794e-06
6.07485e-06
5.73647e-06
5.42848e-06
5.14682e-06
4.88784e-06
4.64835e-06
4.42567e-06
4.21763e-06
4.02252e-06
3.83912e-06
3.66655e-06
3.50427e-06
3.35201e-06
3.20914e-06
3.1622e-06
3.13873e-06
3.1124e-06
7.31416e-07
7.28477e-07
7.26786e-07
7.25841e-07
7.25189e-07
7.24545e-07
7.23795e-07
7.22934e-07
7.22019e-07
7.2111e-07
7.20255e-07
7.19475e-07
7.18766e-07
7.18107e-07
7.17463e-07
7.16795e-07
7.16065e-07
7.15231e-07
7.14261e-07
7.13131e-07
7.11819e-07
7.10328e-07
7.08676e-07
7.06911e-07
7.05124e-07
7.03461e-07
7.02177e-07
9.32697e-06
9.19936e-06
9.07766e-06
8.96299e-06
8.85507e-06
8.7513e-06
8.65094e-06
8.55301e-06
8.45647e-06
8.36034e-06
8.26385e-06
8.16645e-06
8.06794e-06
7.96842e-06
7.86826e-06
7.76805e-06
7.66848e-06
7.57029e-06
7.47414e-06
7.38054e-06
7.28809e-06
7.17309e-06
7.06718e-06
6.9678e-06
6.86728e-06
6.7687e-06
6.67358e-06
6.58236e-06
6.49478e-06
6.41029e-06
6.32835e-06
6.24857e-06
6.17076e-06
6.09489e-06
6.02098e-06
5.94911e-06
5.87927e-06
5.81141e-06
5.74532e-06
5.6808e-06
5.61755e-06
5.55519e-06
5.49346e-06
5.43203e-06
5.37071e-06
5.30937e-06
5.24794e-06
5.18643e-06
5.12485e-06
5.06324e-06
4.9111e-07
3.78625e-07
2.69986e-07
2.08732e-07
1.80231e-07
1.67573e-07
1.6085e-07
1.56284e-07
1.52253e-07
1.48423e-07
1.44613e-07
1.40861e-07
1.3731e-07
1.34274e-07
1.32646e-07
1.33551e-07
1.38151e-07
1.44064e-07
1.44939e-07
1.356e-07
4.92262e-07
3.79544e-07
2.70913e-07
2.09766e-07
1.81393e-07
1.68831e-07
1.62166e-07
1.57641e-07
1.53636e-07
1.4982e-07
1.46016e-07
1.4225e-07
1.38673e-07
1.35612e-07
1.33979e-07
1.34933e-07
1.3967e-07
1.45768e-07
1.46774e-07
1.36944e-07
4.9226e-07
3.80302e-07
2.71845e-07
2.10789e-07
1.82518e-07
1.70036e-07
1.63412e-07
1.58911e-07
1.54909e-07
1.51089e-07
1.47267e-07
1.43472e-07
1.39862e-07
1.36776e-07
1.35142e-07
1.36144e-07
1.41e-07
1.47253e-07
1.48345e-07
1.38195e-07
4.92653e-07
3.81032e-07
2.7281e-07
2.11846e-07
1.83669e-07
1.71259e-07
1.64664e-07
1.60169e-07
1.56157e-07
1.52322e-07
1.48478e-07
1.44663e-07
1.41039e-07
1.37952e-07
1.36337e-07
1.37401e-07
1.42389e-07
1.48815e-07
1.50034e-07
1.3986e-07
4.93024e-07
3.81818e-07
2.73815e-07
2.12922e-07
1.84814e-07
1.72449e-07
1.65859e-07
1.61351e-07
1.57317e-07
1.53457e-07
1.49595e-07
1.4577e-07
1.42147e-07
1.3907e-07
1.37481e-07
1.38604e-07
1.43707e-07
1.5029e-07
1.51632e-07
1.41507e-07
4.93436e-07
3.82743e-07
2.74865e-07
2.14001e-07
1.85942e-07
1.73598e-07
1.66994e-07
1.62458e-07
1.58395e-07
1.54513e-07
1.50642e-07
1.46819e-07
1.43212e-07
1.40152e-07
1.38583e-07
1.39753e-07
1.44952e-07
1.51676e-07
1.53138e-07
1.43156e-07
4.93951e-07
3.83793e-07
2.75941e-07
2.15072e-07
1.87039e-07
1.74705e-07
1.68079e-07
1.63509e-07
1.59418e-07
1.55525e-07
1.51657e-07
1.47851e-07
1.44262e-07
1.41216e-07
1.3966e-07
1.40859e-07
1.46139e-07
1.52997e-07
1.54591e-07
1.44847e-07
4.94575e-07
3.84895e-07
2.77004e-07
2.16118e-07
1.88106e-07
1.75775e-07
1.69125e-07
1.64529e-07
1.60423e-07
1.5653e-07
1.52677e-07
1.48894e-07
1.45322e-07
1.42279e-07
1.40725e-07
1.41942e-07
1.47298e-07
1.54297e-07
1.56046e-07
1.46615e-07
4.95267e-07
3.85959e-07
2.78028e-07
2.17132e-07
1.89146e-07
1.76825e-07
1.70162e-07
1.65549e-07
1.61442e-07
1.57562e-07
1.53728e-07
1.49964e-07
1.46397e-07
1.43349e-07
1.41786e-07
1.4302e-07
1.48459e-07
1.55619e-07
1.57556e-07
1.48479e-07
4.95946e-07
3.86906e-07
2.78987e-07
2.18107e-07
1.90164e-07
1.77868e-07
1.71205e-07
1.66593e-07
1.62495e-07
1.58629e-07
1.54811e-07
1.51053e-07
1.47479e-07
1.44416e-07
1.42845e-07
1.44104e-07
1.4964e-07
1.56989e-07
1.59151e-07
1.50437e-07
4.96528e-07
3.87683e-07
2.7987e-07
2.19053e-07
1.91176e-07
1.78921e-07
1.72272e-07
1.6767e-07
1.63582e-07
1.59725e-07
1.55905e-07
1.52137e-07
1.48545e-07
1.45466e-07
1.43893e-07
1.45191e-07
1.50846e-07
1.58415e-07
1.60835e-07
1.52472e-07
4.96962e-07
3.88284e-07
2.80688e-07
2.19986e-07
1.92193e-07
1.79994e-07
1.73373e-07
1.68782e-07
1.64693e-07
1.60825e-07
1.56986e-07
1.53192e-07
1.49575e-07
1.46484e-07
1.44923e-07
1.46278e-07
1.52071e-07
1.59885e-07
1.62591e-07
1.54561e-07
4.97231e-07
3.8874e-07
2.81463e-07
2.20919e-07
1.93231e-07
1.81097e-07
1.74503e-07
1.69916e-07
1.65812e-07
1.61912e-07
1.58035e-07
1.54205e-07
1.50561e-07
1.47468e-07
1.45933e-07
1.4736e-07
1.53306e-07
1.61381e-07
1.64388e-07
1.56676e-07
4.97363e-07
3.89097e-07
2.82225e-07
2.21872e-07
1.94298e-07
1.82233e-07
1.75661e-07
1.71066e-07
1.66928e-07
1.62979e-07
1.59052e-07
1.5518e-07
1.51514e-07
1.48428e-07
1.4693e-07
1.48438e-07
1.54544e-07
1.62879e-07
1.66188e-07
1.58789e-07
4.97427e-07
3.89424e-07
2.83e-07
2.22854e-07
1.954e-07
1.83402e-07
1.76844e-07
1.72229e-07
1.68043e-07
1.64036e-07
1.60054e-07
1.56142e-07
1.5246e-07
1.49387e-07
1.47931e-07
1.4952e-07
1.55777e-07
1.64359e-07
1.67954e-07
1.60881e-07
4.97466e-07
3.89763e-07
2.83807e-07
2.23874e-07
1.9654e-07
1.84601e-07
1.78051e-07
1.73407e-07
1.69169e-07
1.65102e-07
1.61067e-07
1.5712e-07
1.53428e-07
1.5037e-07
1.4895e-07
1.5061e-07
1.56999e-07
1.658e-07
1.69665e-07
1.6295e-07
4.97551e-07
3.90161e-07
2.84662e-07
2.24932e-07
1.97717e-07
1.8583e-07
1.79284e-07
1.74606e-07
1.70317e-07
1.66195e-07
1.62118e-07
1.58144e-07
1.54443e-07
1.51395e-07
1.5e-07
1.51712e-07
1.5821e-07
1.67201e-07
1.7132e-07
1.65012e-07
4.97713e-07
3.90656e-07
2.85572e-07
2.26029e-07
1.98926e-07
1.87087e-07
1.80539e-07
1.75829e-07
1.71497e-07
1.67332e-07
1.63223e-07
1.59228e-07
1.55519e-07
1.52472e-07
1.51087e-07
1.52833e-07
1.59418e-07
1.68577e-07
1.72951e-07
1.67106e-07
4.97986e-07
3.9128e-07
2.86546e-07
2.27167e-07
2.00165e-07
1.88369e-07
1.81817e-07
1.7708e-07
1.72713e-07
1.68518e-07
1.64388e-07
1.60378e-07
1.56659e-07
1.53606e-07
1.52218e-07
1.53985e-07
1.60645e-07
1.69966e-07
1.74617e-07
1.6928e-07
4.98406e-07
3.92078e-07
2.87599e-07
2.2835e-07
2.01439e-07
1.89678e-07
1.8312e-07
1.78358e-07
1.73967e-07
1.69751e-07
1.65609e-07
1.61588e-07
1.5786e-07
1.54797e-07
1.53401e-07
1.55188e-07
1.61923e-07
1.71425e-07
1.76386e-07
1.71576e-07
4.98998e-07
3.93094e-07
2.88755e-07
2.29594e-07
2.02758e-07
1.91021e-07
1.84452e-07
1.79666e-07
1.75255e-07
1.71026e-07
1.66877e-07
1.62851e-07
1.59117e-07
1.56047e-07
1.54648e-07
1.56462e-07
1.63288e-07
1.73004e-07
1.78314e-07
1.74011e-07
4.99827e-07
3.94357e-07
2.90047e-07
2.3092e-07
2.04139e-07
1.92413e-07
1.85824e-07
1.81009e-07
1.76576e-07
1.72336e-07
1.68185e-07
1.6416e-07
1.60428e-07
1.57362e-07
1.55971e-07
1.57827e-07
1.64766e-07
1.74729e-07
1.80421e-07
1.76571e-07
5.00947e-07
3.95908e-07
2.91505e-07
2.32356e-07
2.05597e-07
1.93861e-07
1.87238e-07
1.82385e-07
1.77928e-07
1.73677e-07
1.69531e-07
1.65515e-07
1.61798e-07
1.58748e-07
1.57378e-07
1.59287e-07
1.66358e-07
1.76591e-07
1.82686e-07
1.79221e-07
5.02415e-07
3.97791e-07
2.93125e-07
2.33891e-07
2.07128e-07
1.95364e-07
1.88694e-07
1.83797e-07
1.79312e-07
1.75054e-07
1.70919e-07
1.66923e-07
1.63231e-07
1.60206e-07
1.58863e-07
1.6083e-07
1.68038e-07
1.78552e-07
1.85056e-07
1.81918e-07
5.04266e-07
3.99959e-07
2.94876e-07
2.35506e-07
2.08716e-07
1.96911e-07
1.90188e-07
1.85246e-07
1.80737e-07
1.76481e-07
1.72365e-07
1.68396e-07
1.64731e-07
1.61729e-07
1.60409e-07
1.6243e-07
1.69771e-07
1.80563e-07
1.87477e-07
1.84638e-07
5.06476e-07
4.02295e-07
2.96697e-07
2.37167e-07
2.10339e-07
1.98491e-07
1.9172e-07
1.86743e-07
1.82223e-07
1.77977e-07
1.73887e-07
1.69944e-07
1.66299e-07
1.63309e-07
1.61998e-07
1.64061e-07
1.71526e-07
1.82591e-07
1.89914e-07
1.87389e-07
5.08952e-07
4.04644e-07
2.98514e-07
2.38837e-07
2.11976e-07
2.00098e-07
1.93299e-07
1.88309e-07
1.83795e-07
1.7957e-07
1.75505e-07
1.71578e-07
1.67938e-07
1.6494e-07
1.63622e-07
1.65712e-07
1.73294e-07
1.84633e-07
1.92377e-07
1.90207e-07
5.11564e-07
4.06866e-07
3.0028e-07
2.405e-07
2.13627e-07
2.01744e-07
1.94948e-07
1.89971e-07
1.8548e-07
1.8128e-07
1.77231e-07
1.73305e-07
1.69647e-07
1.66621e-07
1.65281e-07
1.67391e-07
1.7509e-07
1.8672e-07
1.94913e-07
1.93139e-07
5.14185e-07
4.089e-07
3.01998e-07
2.42171e-07
2.15312e-07
2.03457e-07
1.96696e-07
1.91755e-07
1.87296e-07
1.83115e-07
1.79069e-07
1.75122e-07
1.71428e-07
1.6836e-07
1.6699e-07
1.69121e-07
1.76951e-07
1.88903e-07
1.9758e-07
1.96225e-07
5.16756e-07
4.10802e-07
3.03723e-07
2.43889e-07
2.17066e-07
2.05266e-07
1.98563e-07
1.9367e-07
1.89241e-07
1.85069e-07
1.81007e-07
1.77023e-07
1.73279e-07
1.70163e-07