/*--------------------------------*- C++ -*----------------------------------*\
  =========                 |
  \\      /  F ield         | OpenFOAM: The Open Source CFD Toolbox
   \\    /   O peration     | Website:  https://openfoam.org
    \\  /    A nd           | Version:  8
     \\/     M anipulation  |
\*---------------------------------------------------------------------------*/
FoamFile
{
    version     2.0;
    format      ascii;
    class       volScalarField;
    location    "800";
    object      k;
}
// * * * * * * * * * * * * * * * * * * * * * * * * * * * * * * * * * * * * * //

dimensions      [0 2 -2 0 0 0 0];

internalField   nonuniform List<scalar> 
8400
(
0.00384709
0.00377787
0.00370578
0.0036334
0.00356438
0.00350023
0.00344058
0.00338707
0.00334352
0.0033121
0.00329209
0.00328193
0.00328095
0.00329055
0.00331734
0.0033813
0.00352308
0.00377669
0.00408655
0.00430326
0.00437717
0.00435928
0.00431143
0.00425276
0.00418567
0.00411023
0.00402977
0.00396036
0.0039204
0.0039065
0.00390369
0.0039014
0.00389202
0.00387113
0.00383756
0.00379221
0.00374026
0.00368795
0.00363528
0.00358227
0.003529
0.00347556
0.00342207
0.0033686
0.00331522
0.00326204
0.00320913
0.00315659
0.00310448
0.00305286
0.00269746
0.00270025
0.00271602
0.00273305
0.0027506
0.00276744
0.00278347
0.00279847
0.00281196
0.00282265
0.00282869
0.00282723
0.00281171
0.00276533
0.00265389
0.00245552
0.0022389
0.0021067
0.00206606
0.00205259
0.00204055
0.00202016
0.00194231
0.00181507
0.00170096
0.00162975
0.0015838
0.0015528
0.00154084
0.00153917
0.00153923
0.00153777
0.00153226
0.00152134
0.00150504
0.0014843
0.00145838
0.00142554
0.00138816
0.00134807
0.00130685
0.00126574
0.00122567
0.00118737
0.00115139
0.00111829
0.00108854
0.00106258
0.00104095
0.00102427
0.00298263
0.00295489
0.00292544
0.00289416
0.00286543
0.00284251
0.00283058
0.00283141
0.00283987
0.00285099
0.0028613
0.00286882
0.00287261
0.00287226
0.00286695
0.0028559
0.00284251
0.00282521
0.00277193
0.00236923
0.00167063
0.00145848
0.00136516
0.00126145
0.00118358
0.00114411
0.00111976
0.00110437
0.00109945
0.00109877
0.0010983
0.00109709
0.00109392
0.00108849
0.00108108
0.00107233
0.00106179
0.0010492
0.00103592
0.001023
0.00101121
0.001001
0.000992588
0.000986044
0.000981293
0.0009782
0.000976589
0.000976232
0.000976896
0.000978331
0.00299299
0.00298483
0.00297717
0.00297093
0.00296485
0.00295873
0.00295293
0.00294782
0.00294353
0.00293989
0.00293659
0.00293326
0.00292948
0.00292481
0.00291892
0.00291241
0.0029032
0.00289098
0.00287147
0.00281965
0.0026528
0.0024502
0.00223908
0.0017748
0.00112535
0.00101626
0.00100363
0.00099988
0.000990481
0.000987806
0.000985298
0.000984244
0.00098314
0.000981518
0.000979524
0.000977464
0.000974994
0.000971962
0.000969024
0.000966618
0.000964923
0.000963962
0.000963663
0.000963928
0.000964596
0.000965529
0.000966636
0.000967793
0.000968942
0.000970051
0.00299736
0.00299459
0.00299178
0.00298892
0.002986
0.00298299
0.00297988
0.00297667
0.00297333
0.00296989
0.00296634
0.00296269
0.00295902
0.00295532
0.00295137
0.00294623
0.00293964
0.00293117
0.00291976
0.00290082
0.0028558
0.00277658
0.00266131
0.0024754
0.00217235
0.00190693
0.0014886
0.00103906
0.000990704
0.000989747
0.000974111
0.000968582
0.000967181
0.000967122
0.000967783
0.00096935
0.000971259
0.00097326
0.000975582
0.000978331
0.000981468
0.000984909
0.000988519
0.000992192
0.000995847
0.000999405
0.00100282
0.00100602
0.00100895
0.00101156
0.00299694
0.00299371
0.00299045
0.00298713
0.00298376
0.00298031
0.00297678
0.00297314
0.00296942
0.00296559
0.00296168
0.00295771
0.00295373
0.00294966
0.00294568
0.00294172
0.00293756
0.00293274
0.00292656
0.00291744
0.00290002
0.00286674
0.00281
0.00271511
0.00255873
0.0023648
0.00211365
0.00186872
0.00154288
0.00105512
0.00101132
0.000989595
0.000985656
0.000987543
0.000991275
0.000996458
0.00100271
0.00100983
0.0010178
0.00102653
0.00103584
0.00104563
0.00105577
0.00106611
0.00107657
0.00108702
0.00109735
0.00110743
0.00111706
0.00112608
0.00299666
0.00299311
0.00298953
0.00298588
0.00298215
0.00297833
0.00297438
0.00297031
0.00296611
0.00296183
0.00295747
0.0029531
0.00294863
0.00294418
0.00293984
0.00293567
0.00293166
0.00292768
0.00292337
0.00291791
0.00290918
0.0028931
0.00286382
0.00281232
0.00272443
0.00259753
0.00242678
0.00223847
0.00202548
0.00182493
0.00125782
0.00101974
0.00101282
0.0010154
0.00102343
0.00103297
0.00104407
0.0010568
0.00107086
0.00108598
0.00110191
0.00111845
0.00113541
0.00115257
0.00116981
0.00118694
0.00120376
0.00122006
0.00123565
0.00125031
0.00299603
0.00299178
0.00298747
0.00298308
0.00297861
0.00297404
0.00296934
0.00296448
0.00295948
0.00295444
0.00294931
0.00294411
0.00293902
0.00293418
0.00292967
0.00292557
0.00292186
0.00291849
0.00291524
0.00291166
0.00290664
0.00289792
0.00288167
0.00285183
0.00279894
0.00271566
0.00259722
0.00245214
0.00228384
0.00210935
0.00183842
0.00150658
0.00104194
0.00103585
0.00104771
0.00106184
0.00107786
0.0010958
0.00111506
0.00113529
0.00115613
0.00117722
0.00119825
0.00121894
0.00123907
0.00125839
0.00127667
0.00129373
0.00130942
0.00132359
0.00299513
0.00298987
0.00298453
0.00297907
0.00297345
0.00296769
0.00296184
0.00295586
0.00294973
0.00294348
0.00293719
0.00293108
0.0029253
0.00292002
0.00291537
0.00291144
0.00290825
0.0029057
0.00290357
0.00290146
0.00289869
0.00289384
0.00288435
0.002866
0.00283208
0.00277536
0.00269035
0.00257823
0.00244249
0.00229069
0.0020966
0.00186512
0.00155609
0.00105883
0.00105546
0.00107448
0.00109539
0.00111776
0.00114094
0.0011645
0.001188
0.00121091
0.00123283
0.00125341
0.00127232
0.00128922
0.00130383
0.00131597
0.00132552
0.00133244
0.00299351
0.00298643
0.00297923
0.00297184
0.00296418
0.00295618
0.00294791
0.00293941
0.00293087
0.00292248
0.00291452
0.00290745
0.00290145
0.00289669
0.00289318
0.0028908
0.00288938
0.00288872
0.00288847
0.00288827
0.00288756
0.00288537
0.0028799
0.00286811
0.00284503
0.00280442
0.00274072
0.00265211
0.00254027
0.00240875
0.00224898
0.00205707
0.00181842
0.00152538
0.00106713
0.00106832
0.001094
0.00112027
0.00114645
0.00117221
0.00119702
0.00122039
0.00124186
0.00126096
0.00127734
0.00129048
0.00129991
0.0013053
0.0013063
0.00130283
0.00299016
0.00297896
0.00296775
0.00295617
0.00294399
0.00293095
0.00291691
0.00290217
0.00288751
0.00287419
0.00286392
0.00285781
0.00285574
0.0028567
0.00285934
0.00286257
0.00286581
0.00286879
0.00287143
0.00287359
0.00287493
0.00287485
0.00287204
0.0028642
0.00284749
0.00281664
0.00276646
0.00269398
0.00259937
0.00248415
0.0023449
0.00217687
0.00196963
0.00172372
0.00142747
0.00118817
0.00107315
0.00110293
0.00113203
0.00115924
0.00118469
0.0012083
0.0012298
0.00124848
0.00126397
0.00127578
0.00128324
0.00128623
0.00128389
0.00127563
0.00297555
0.00294721
0.00292541
0.00290316
0.00287582
0.00283864
0.00280241
0.00277955
0.00277138
0.00277658
0.0027874
0.00279913
0.00281038
0.0028208
0.00283034
0.00283835
0.00284511
0.00285096
0.00285573
0.00285967
0.00286252
0.00286388
0.00286272
0.0028572
0.00284414
0.00281905
0.00277721
0.00271537
0.00263281
0.00252987
0.0024046
0.00225268
0.00206675
0.00184875
0.00160948
0.00139208
0.0012258
0.00114241
0.00112074
0.00113091
0.00115239
0.001176
0.00119874
0.00121922
0.00123655
0.00125035
0.00126007
0.00126546
0.00126596
0.00126106
0.0028715
0.00283085
0.00279652
0.00276511
0.00273896
0.00272079
0.00271425
0.00271834
0.00272853
0.00274172
0.00275587
0.00277005
0.00278376
0.00279663
0.00280828
0.00281849
0.00282729
0.00283488
0.0028412
0.00284644
0.00285044
0.00285284
0.00285275
0.00284838
0.00283711
0.00281506
0.00277797
0.00272275
0.00264825
0.0025541
0.00243865
0.00229827
0.00212832
0.00193262
0.00172634
0.00153532
0.00137557
0.00125784
0.00118459
0.00114971
0.00114158
0.00114893
0.00116397
0.00118182
0.00119955
0.00121558
0.00122881
0.00123858
0.00124437
0.00124582
0.00275591
0.00273123
0.00271351
0.00270289
0.00269922
0.00270163
0.00270851
0.00271771
0.00272793
0.00273862
0.00274962
0.00276079
0.00277202
0.00278306
0.00279363
0.00280351
0.00281251
0.00282054
0.00282748
0.00283327
0.00283774
0.00284049
0.0028407
0.00283688
0.00282674
0.0028067
0.00277114
0.00271939
0.00264998
0.00256178
0.0024532
0.0023215
0.00216462
0.00198822
0.00180708
0.00163865
0.00149274
0.00137335
0.00128197
0.00121816
0.00117903
0.00115977
0.00115488
0.00115939
0.00116926
0.00118159
0.00119427
0.00120582
0.00121527
0.00122198
0.00270586
0.00270059
0.00269941
0.00270176
0.00270664
0.0027131
0.00272029
0.00272777
0.00273538
0.00274309
0.00275097
0.00275908
0.00276736
0.00277573
0.0027841
0.00279225
0.0028
0.00280716
0.00281352
0.00281888
0.00282292
0.00282519
0.00282484
0.00282046
0.00281006
0.00279056
0.00275781
0.00270926
0.00264059
0.00255574
0.00245188
0.00232719
0.00218219
0.00202382
0.00186463
0.00171631
0.00158487
0.00147215
0.0013784
0.00130341
0.00124655
0.00120647
0.00118096
0.00116731
0.0011626
0.00116415
0.00116963
0.00117716
0.00118529
0.00119297
0.0026985
0.00270085
0.00270446
0.00270898
0.00271399
0.00271928
0.00272466
0.00273016
0.00273576
0.00274151
0.00274742
0.0027535
0.00275974
0.00276608
0.00277245
0.00277873
0.00278477
0.00279041
0.00279539
0.00279943
0.00280213
0.00280296
0.00280106
0.00279515
0.00278349
0.00276359
0.00273238
0.00268751
0.00262511
0.00253851
0.00243698
0.00231862
0.0021858
0.00204534
0.00190662
0.00177702
0.00166005
0.00155662
0.00146656
0.00138961
0.00132554
0.001274
0.00123435
0.00120552
0.00118608
0.00117439
0.00116875
0.00116756
0.00116942
0.00117316
0.00269533
0.00269774
0.00270038
0.00270318
0.00270614
0.00270928
0.00271262
0.0027162
0.00272003
0.00272413
0.00272847
0.00273301
0.0027377
0.00274247
0.00274723
0.00275185
0.00275622
0.00276011
0.00276331
0.00276549
0.00276622
0.00276495
0.00276088
0.00275292
0.00273967
0.0027193
0.00268971
0.00264906
0.00259461
0.0025155
0.002411
0.00229897
0.00217963
0.00205754
0.00193853
0.00182685
0.00172442
0.00163172
0.00154858
0.00147478
0.00141019
0.00135475
0.00130832
0.00127058
0.00124099
0.00121877
0.00120298
0.00119263
0.0011867
0.00118424
0.00267163
0.00267135
0.00267107
0.00267091
0.00267093
0.00267125
0.00267191
0.002673
0.00267452
0.00267646
0.0026788
0.00268146
0.00268436
0.0026874
0.00269045
0.00269338
0.002696
0.00269811
0.00269946
0.00269972
0.00269849
0.00269528
0.00268946
0.00268022
0.00266659
0.00264747
0.00262164
0.00258802
0.00254479
0.00248297
0.0023765
0.00227212
0.00216789
0.00206446
0.00196454
0.00187024
0.00178264
0.00170207
0.00162848
0.00156177
0.00150195
0.00144898
0.00140286
0.00136355
0.00133087
0.00130451
0.00128402
0.00126887
0.00125846
0.00125214
0.00261048
0.00260604
0.00260151
0.00259704
0.00259278
0.00258885
0.00258537
0.00258242
0.00258005
0.00257829
0.0025771
0.00257645
0.00257627
0.00257645
0.00257687
0.00257738
0.00257782
0.00257799
0.00257768
0.00257661
0.00257449
0.00257099
0.00256572
0.00255826
0.00254815
0.00253497
0.00251833
0.00249791
0.00247284
0.00243691
0.00233567
0.00224466
0.00215701
0.00207179
0.00198994
0.00191252
0.00184018
0.00177323
0.0017118
0.00165596
0.00160576
0.00156119
0.0015223
0.00148907
0.00146141
0.00143915
0.00142205
0.00140979
0.00140196
0.00139806
0.0043162
0.00423242
0.00414855
0.00406322
0.0039761
0.00388712
0.0037966
0.00370507
0.00361325
0.00352199
0.00343215
0.00334455
0.00325992
0.00317889
0.00310193
0.00302937
0.00296141
0.0028981
0.0028394
0.00278515
0.00273514
0.00268914
0.0026469
0.00260816
0.00257269
0.00254025
0.00251064
0.00248383
0.00245996
0.00243375
0.00235992
0.00231029
0.00226726
0.00222957
0.00219674
0.00216878
0.00214598
0.00212858
0.00211679
0.00211071
0.00211049
0.00211627
0.00212826
0.0021466
0.00217145
0.00220289
0.00224092
0.00228534
0.00233563
0.00239063
2.38383e-05
2.36841e-05
2.3546e-05
2.33321e-05
2.30954e-05
2.2871e-05
2.26648e-05
2.24677e-05
2.22738e-05
2.20835e-05
2.18994e-05
2.17227e-05
2.15527e-05
2.13874e-05
2.12246e-05
2.10621e-05
2.08982e-05
2.07317e-05
2.05622e-05
2.03897e-05
2.01687e-05
1.99509e-05
1.97381e-05
1.95474e-05
1.93713e-05
1.92076e-05
1.90445e-05
1.88888e-05
1.87433e-05
1.86072e-05
1.84782e-05
1.83533e-05
1.82295e-05
1.8104e-05
1.79753e-05
1.7842e-05
1.77038e-05
1.75608e-05
1.74134e-05
1.72628e-05
1.71078e-05
1.6951e-05
1.67956e-05
1.66451e-05
1.65024e-05
1.63692e-05
1.62455e-05
1.61323e-05
1.60342e-05
1.59578e-05
2.32329e-05
2.21224e-05
2.11739e-05
2.03002e-05
1.94607e-05
1.86556e-05
1.78962e-05
1.71913e-05
1.6542e-05
1.59445e-05
1.53935e-05
1.48834e-05
1.44084e-05
1.39625e-05
1.35398e-05
1.31351e-05
1.27448e-05
1.23667e-05
1.2e-05
1.16466e-05
1.14136e-05
1.12371e-05
1.11075e-05
1.11734e-05
1.1183e-05
1.1163e-05
1.11568e-05
1.1168e-05
1.1192e-05
1.12225e-05
1.12539e-05
1.12817e-05
1.1303e-05
1.13151e-05
1.13163e-05
1.13051e-05
1.12807e-05
1.12431e-05
1.11929e-05
1.11315e-05
1.10637e-05
1.09917e-05
1.09185e-05
1.08472e-05
1.07814e-05
1.07233e-05
1.06707e-05
1.06112e-05
1.05228e-05
1.03936e-05
2.3283e-05
2.22304e-05
2.12217e-05
2.02853e-05
1.94079e-05
1.85787e-05
1.77968e-05
1.70645e-05
1.63825e-05
1.57486e-05
1.51586e-05
1.46077e-05
1.40907e-05
1.36024e-05
1.3138e-05
1.26937e-05
1.22664e-05
1.18539e-05
1.14738e-05
1.13317e-05
1.12175e-05
1.11173e-05
1.10248e-05
1.09399e-05
1.08615e-05
1.079e-05
1.07269e-05
1.0672e-05
1.0624e-05
1.05806e-05
1.05394e-05
1.04976e-05
1.0453e-05
1.04037e-05
1.03484e-05
1.02863e-05
1.02173e-05
1.01415e-05
1.00596e-05
9.97287e-06
9.88302e-06
9.79194e-06
9.70177e-06
9.61465e-06
9.5333e-06
9.46249e-06
9.4097e-06
9.38092e-06
9.3653e-06
9.31423e-06
2.32571e-05
2.2253e-05
2.12677e-05
2.033e-05
1.94476e-05
1.86177e-05
1.78377e-05
1.71068e-05
1.64246e-05
1.57894e-05
1.51975e-05
1.46444e-05
1.4125e-05
1.3634e-05
1.31668e-05
1.27194e-05
1.22889e-05
1.1873e-05
1.1489e-05
1.1344e-05
1.12252e-05
1.11216e-05
1.10256e-05
1.09354e-05
1.08513e-05
1.07742e-05
1.07044e-05
1.06411e-05
1.05832e-05
1.05286e-05
1.04749e-05
1.04199e-05
1.03614e-05
1.02977e-05
1.02276e-05
1.01504e-05
1.00662e-05
9.97531e-06
9.8788e-06
9.77806e-06
9.67493e-06
9.57153e-06
9.47014e-06
9.37229e-06
9.27797e-06
9.18635e-06
9.09965e-06
9.02843e-06
8.98545e-06
8.94435e-06
2.32415e-05
2.22396e-05
2.12701e-05
2.0337e-05
1.94514e-05
1.86166e-05
1.7833e-05
1.71001e-05
1.64166e-05
1.57805e-05
1.51884e-05
1.46356e-05
1.41169e-05
1.36271e-05
1.31612e-05
1.2715e-05
1.22854e-05
1.18705e-05
1.14869e-05
1.13422e-05
1.12238e-05
1.11202e-05
1.10236e-05
1.09325e-05
1.08475e-05
1.07693e-05
1.06982e-05
1.06336e-05
1.05739e-05
1.05174e-05
1.04617e-05
1.04045e-05
1.03437e-05
1.02776e-05
1.02052e-05
1.01259e-05
1.00397e-05
9.9472e-06
9.84932e-06
9.74746e-06
9.64333e-06
9.53901e-06
9.43729e-06
9.3413e-06
9.25317e-06
9.1717e-06
9.09218e-06
9.01421e-06
8.95166e-06
8.89899e-06
2.3244e-05
2.22345e-05
2.127e-05
2.03432e-05
1.94604e-05
1.86259e-05
1.78419e-05
1.71088e-05
1.64257e-05
1.57902e-05
1.5199e-05
1.46473e-05
1.41298e-05
1.36413e-05
1.31765e-05
1.27313e-05
1.23025e-05
1.18882e-05
1.14887e-05
1.13799e-05
1.12683e-05
1.11571e-05
1.1049e-05
1.09466e-05
1.08518e-05
1.07658e-05
1.06885e-05
1.06191e-05
1.05559e-05
1.04967e-05
1.0439e-05
1.03804e-05
1.03188e-05
1.02524e-05
1.01802e-05
1.01015e-05
1.00166e-05
9.92579e-06
9.83019e-06
9.73111e-06
9.63e-06
9.52831e-06
9.42771e-06
9.33068e-06
9.24084e-06
9.16103e-06
9.08905e-06
9.01855e-06
8.95439e-06
8.89737e-06
2.32508e-05
2.224e-05
2.12739e-05
2.03476e-05
1.9465e-05
1.86292e-05
1.78431e-05
1.71079e-05
1.64231e-05
1.57867e-05
1.5195e-05
1.46435e-05
1.41266e-05
1.36389e-05
1.31751e-05
1.27309e-05
1.23028e-05
1.18891e-05
1.14897e-05
1.13819e-05
1.12712e-05
1.116e-05
1.10514e-05
1.09481e-05
1.08522e-05
1.07648e-05
1.06861e-05
1.06151e-05
1.05502e-05
1.04893e-05
1.043e-05
1.03699e-05
1.03069e-05
1.02395e-05
1.01666e-05
1.00878e-05
1.00034e-05
9.91375e-06
9.82003e-06
9.72359e-06
9.62606e-06
9.52894e-06
9.43336e-06
9.34006e-06
9.25067e-06
9.1686e-06
9.09586e-06
9.02795e-06
8.96412e-06
8.90459e-06
2.32544e-05
2.22484e-05
2.12817e-05
2.03541e-05
1.94704e-05
1.86335e-05
1.78459e-05
1.71093e-05
1.64237e-05
1.5787e-05
1.51957e-05
1.4645e-05
1.41293e-05
1.3643e-05
1.31806e-05
1.27375e-05
1.23106e-05
1.18976e-05
1.14987e-05
1.13911e-05
1.12803e-05
1.11689e-05
1.10598e-05
1.09559e-05
1.08592e-05
1.07707e-05
1.06906e-05
1.06181e-05
1.05514e-05
1.04885e-05
1.04271e-05
1.03648e-05
1.02997e-05
1.02305e-05
1.01562e-05
1.00766e-05
9.99198e-06
9.90303e-06
9.81069e-06
9.71618e-06
9.62097e-06
9.52679e-06
9.43516e-06
9.34672e-06
9.26141e-06
9.18037e-06
9.10629e-06
9.03782e-06
8.9732e-06
8.91143e-06
2.32554e-05
2.22548e-05
2.12894e-05
2.03607e-05
1.94754e-05
1.86366e-05
1.78472e-05
1.7109e-05
1.64222e-05
1.57848e-05
1.51935e-05
1.46432e-05
1.41283e-05
1.36429e-05
1.31815e-05
1.27395e-05
1.23133e-05
1.1901e-05
1.15025e-05
1.13953e-05
1.12849e-05
1.11736e-05
1.10644e-05
1.09601e-05
1.08628e-05
1.07735e-05
1.06923e-05
1.06183e-05
1.05499e-05
1.0485e-05
1.04214e-05
1.03568e-05
1.02895e-05
1.02182e-05
1.01423e-05
1.00617e-05
9.97695e-06
9.88883e-06
9.79838e-06
9.70664e-06
9.61465e-06
9.52365e-06
9.43515e-06
9.35028e-06
9.26904e-06
9.19098e-06
9.11733e-06
9.04806e-06
8.98199e-06
8.91785e-06
2.3256e-05
2.22591e-05
2.12954e-05
2.03664e-05
1.94796e-05
1.86391e-05
1.7848e-05
1.71085e-05
1.64208e-05
1.57831e-05
1.5192e-05
1.46423e-05
1.41284e-05
1.36441e-05
1.31839e-05
1.27429e-05
1.23177e-05
1.19062e-05
1.15082e-05
1.14015e-05
1.12913e-05
1.11801e-05
1.10708e-05
1.09662e-05
1.08682e-05
1.07781e-05
1.06956e-05
1.06201e-05
1.05499e-05
1.04829e-05
1.04169e-05
1.03499e-05
1.02803e-05
1.02069e-05
1.01294e-05
1.00479e-05
9.96312e-06
9.87591e-06
9.78745e-06
9.69882e-06
9.61085e-06
9.52416e-06
9.43956e-06
9.35805e-06
9.28001e-06
9.20479e-06
9.13233e-06
9.06252e-06
8.99466e-06
8.92772e-06
2.32571e-05
2.22624e-05
2.12999e-05
2.03706e-05
1.94827e-05
1.86407e-05
1.78482e-05
1.71076e-05
1.64192e-05
1.57812e-05
1.51903e-05
1.46412e-05
1.41281e-05
1.36448e-05
1.31856e-05
1.27456e-05
1.23212e-05
1.19103e-05
1.15129e-05
1.14067e-05
1.1297e-05
1.11861e-05
1.1077e-05
1.09725e-05
1.08745e-05
1.07839e-05
1.07008e-05
1.06241e-05
1.05522e-05
1.04832e-05
1.04149e-05
1.03454e-05
1.02733e-05
1.01978e-05
1.01187e-05
1.00364e-05
9.95179e-06
9.86577e-06
9.77947e-06
9.69397e-06
9.61007e-06
9.52814e-06
9.44825e-06
9.37072e-06
9.29581e-06
9.223e-06
9.1517e-06
9.08141e-06
9.01154e-06
8.94138e-06
2.32584e-05
2.22652e-05
2.1303e-05
2.03734e-05
1.94845e-05
1.86413e-05
1.78477e-05
1.71062e-05
1.64172e-05
1.57792e-05
1.51884e-05
1.46398e-05
1.41273e-05
1.36448e-05
1.31863e-05
1.27471e-05
1.23233e-05
1.1913e-05
1.15161e-05
1.14107e-05
1.13018e-05
1.11919e-05
1.1084e-05
1.09806e-05
1.08837e-05
1.07938e-05
1.07109e-05
1.06338e-05
1.05607e-05
1.04898e-05
1.04191e-05
1.03467e-05
1.02718e-05
1.01936e-05
1.01125e-05
1.0029e-05
9.94414e-06
9.85906e-06
9.77479e-06
9.69216e-06
9.61183e-06
9.53404e-06
9.45856e-06
9.38494e-06
9.31296e-06
9.24202e-06
9.17135e-06
9.10019e-06
9.02796e-06
8.95416e-06
2.32595e-05
2.22672e-05
2.13049e-05
2.03747e-05
1.9485e-05
1.8641e-05
1.78468e-05
1.71048e-05
1.64158e-05
1.57779e-05
1.51876e-05
1.46396e-05
1.41278e-05
1.3646e-05
1.31883e-05
1.27498e-05
1.23268e-05
1.19171e-05
1.15208e-05
1.14154e-05
1.13058e-05
1.11942e-05
1.10838e-05
1.09776e-05
1.08777e-05
1.07849e-05
1.06992e-05
1.06196e-05
1.05443e-05
1.04715e-05
1.0399e-05
1.03253e-05
1.02492e-05
1.01705e-05
1.00895e-05
1.00068e-05
9.92364e-06
9.84118e-06
9.76036e-06
9.68188e-06
9.60607e-06
9.53295e-06
9.46213e-06
9.39278e-06
9.32411e-06
9.25527e-06
9.18535e-06
9.1135e-06
9.03915e-06
8.962e-06
2.326e-05
2.2268e-05
2.13054e-05
2.03744e-05
1.9484e-05
1.86393e-05
1.78444e-05
1.7102e-05
1.64127e-05
1.57747e-05
1.51844e-05
1.46365e-05
1.41248e-05
1.36432e-05
1.31857e-05
1.27473e-05
1.23246e-05
1.19152e-05
1.15194e-05
1.14125e-05
1.1306e-05
1.11981e-05
1.10918e-05
1.09896e-05
1.08931e-05
1.08028e-05
1.07184e-05
1.06386e-05
1.05619e-05
1.04865e-05
1.04106e-05
1.03331e-05
1.02532e-05
1.01709e-05
1.00869e-05
1.00022e-05
9.91799e-06
9.83552e-06
9.75577e-06
9.67927e-06
9.60613e-06
9.536e-06
9.46822e-06
9.40174e-06
9.33532e-06
9.26778e-06
9.19799e-06
9.12506e-06
9.04843e-06
8.96802e-06
2.32602e-05
2.22676e-05
2.13043e-05
2.03728e-05
1.94822e-05
1.86376e-05
1.78432e-05
1.71016e-05
1.64131e-05
1.5776e-05
1.51864e-05
1.46391e-05
1.41279e-05
1.36466e-05
1.31894e-05
1.27513e-05
1.23288e-05
1.19199e-05
1.15228e-05
1.12289e-05
1.1187e-05
1.1122e-05
1.10441e-05
1.09605e-05
1.0876e-05
1.0793e-05
1.07127e-05
1.06348e-05
1.05583e-05
1.0482e-05
1.04047e-05
1.03255e-05
1.02439e-05
1.01604e-05
1.00756e-05
9.99084e-06
9.90732e-06
9.8263e-06
9.74869e-06
9.67495e-06
9.60497e-06
9.53817e-06
9.47359e-06
9.40993e-06
9.34574e-06
9.27954e-06
9.21005e-06
9.13632e-06
9.05791e-06
8.97495e-06
2.326e-05
2.22659e-05
2.13007e-05
2.03676e-05
1.94753e-05
1.86295e-05
1.78341e-05
1.70916e-05
1.64025e-05
1.57649e-05
1.51748e-05
1.4627e-05
1.41154e-05
1.36337e-05
1.31762e-05
1.27379e-05
1.23155e-05
1.19068e-05
1.15121e-05
1.14067e-05
1.12998e-05
1.11922e-05
1.10861e-05
1.09834e-05
1.08855e-05
1.0793e-05
1.07055e-05
1.06222e-05
1.05417e-05
1.04624e-05
1.0383e-05
1.03027e-05
1.02209e-05
1.01379e-05
1.00545e-05
9.97185e-06
9.8911e-06
9.81341e-06
9.73958e-06
9.66993e-06
9.60425e-06
9.54174e-06
9.48123e-06
9.42121e-06
9.36006e-06
9.2962e-06
9.22828e-06
9.1554e-06
9.07727e-06
8.99432e-06
2.32596e-05
2.22636e-05
2.1298e-05
2.03657e-05
1.94752e-05
1.86315e-05
1.78384e-05
1.7098e-05
1.64105e-05
1.57739e-05
1.51842e-05
1.46363e-05
1.41241e-05
1.36416e-05
1.31831e-05
1.27439e-05
1.23207e-05
1.19115e-05
1.15166e-05
1.14138e-05
1.1308e-05
1.12008e-05
1.10948e-05
1.0992e-05
1.08938e-05
1.08006e-05
1.07123e-05
1.06279e-05
1.05462e-05
1.04659e-05
1.03857e-05
1.0305e-05
1.02234e-05
1.01415e-05
1.00599e-05
9.97997e-06
9.90282e-06
9.82954e-06
9.76082e-06
9.69685e-06
9.63732e-06
9.58129e-06
9.52742e-06
9.47409e-06
9.41957e-06
9.36224e-06
9.30079e-06
9.23446e-06
9.16324e-06
9.08799e-06
2.32589e-05
2.22541e-05
2.12793e-05
2.03393e-05
1.94428e-05
1.85951e-05
1.77998e-05
1.70587e-05
1.63714e-05
1.57357e-05
1.51475e-05
1.46013e-05
1.40912e-05
1.36109e-05
1.3155e-05
1.27187e-05
1.22989e-05
1.18935e-05
1.15027e-05
1.14054e-05
1.13048e-05
1.12036e-05
1.11044e-05
1.10113e-05
1.09221e-05
1.08383e-05
1.07599e-05
1.06862e-05
1.06156e-05
1.05465e-05
1.04779e-05
1.0409e-05
1.03398e-05
1.02708e-05
1.02032e-05
1.0138e-05
1.00766e-05
1.00201e-05
9.96898e-06
9.92339e-06
9.88283e-06
9.84625e-06
9.81214e-06
9.77872e-06
9.74415e-06
9.70674e-06
9.66522e-06
9.61901e-06
9.56853e-06
9.51542e-06
2.32611e-05
2.22631e-05
2.13012e-05
2.03775e-05
1.95032e-05
1.86811e-05
1.79134e-05
1.72013e-05
1.65443e-05
1.59405e-05
1.5386e-05
1.48758e-05
1.44036e-05
1.39631e-05
1.35479e-05
1.31527e-05
1.27731e-05
1.24068e-05
1.20531e-05
1.17102e-05
1.14888e-05
1.13219e-05
1.11917e-05
1.12714e-05
1.13087e-05
1.13255e-05
1.13336e-05
1.13374e-05
1.13378e-05
1.1334e-05
1.1325e-05
1.13105e-05
1.1291e-05
1.12677e-05
1.12424e-05
1.12171e-05
1.11938e-05
1.11743e-05
1.11595e-05
1.11498e-05
1.11446e-05
1.11426e-05
1.11419e-05
1.11402e-05
1.11349e-05
1.11239e-05
1.11057e-05
1.10798e-05
1.10471e-05
1.10113e-05
2.38602e-05
2.36679e-05
2.34655e-05
2.32594e-05
2.30509e-05
2.28442e-05
2.26427e-05
2.2449e-05
2.22641e-05
2.20877e-05
2.19185e-05
2.17544e-05
2.15927e-05
2.14311e-05
2.12676e-05
2.11008e-05
2.09307e-05
2.07577e-05
2.05833e-05
2.04091e-05
2.01907e-05
1.99781e-05
1.97751e-05
1.95849e-05
1.94025e-05
1.92257e-05
1.90535e-05
1.88853e-05
1.87202e-05
1.85576e-05
1.83967e-05
1.82375e-05
1.80803e-05
1.79258e-05
1.77754e-05
1.76302e-05
1.74913e-05
1.73592e-05
1.72338e-05
1.71142e-05
1.69992e-05
1.68869e-05
1.67753e-05
1.6662e-05
1.65453e-05
1.64234e-05
1.62954e-05
1.61607e-05
1.60198e-05
1.58739e-05
7.45287e-06
5.79327e-06
4.177e-06
3.24026e-06
2.80164e-06
2.60727e-06
2.50367e-06
2.43281e-06
2.36981e-06
2.30984e-06
2.24992e-06
2.19054e-06
2.13417e-06
2.08612e-06
2.06064e-06
2.07559e-06
2.14884e-06
2.24217e-06
2.25748e-06
2.10496e-06
7.44471e-06
5.81061e-06
4.19427e-06
3.25719e-06
2.81893e-06
2.62466e-06
2.52088e-06
2.45009e-06
2.38728e-06
2.32747e-06
2.26748e-06
2.20789e-06
2.15131e-06
2.10327e-06
2.07829e-06
2.0945e-06
2.17005e-06
2.26605e-06
2.28314e-06
2.12542e-06
7.45581e-06
5.8434e-06
4.21682e-06
3.27559e-06
2.83667e-06
2.64244e-06
2.53866e-06
2.46801e-06
2.40522e-06
2.34528e-06
2.2851e-06
2.22538e-06
2.16882e-06
2.12097e-06
2.09645e-06
2.11364e-06
2.19108e-06
2.28967e-06
2.30942e-06
2.15114e-06
7.47971e-06
5.88606e-06
4.24388e-06
3.29781e-06
2.85801e-06
2.66343e-06
2.55902e-06
2.4877e-06
2.42427e-06
2.36381e-06
2.30333e-06
2.24353e-06
2.18712e-06
2.13945e-06
2.11505e-06
2.13246e-06
2.21055e-06
2.30996e-06
2.33066e-06
2.17687e-06
7.51617e-06
5.92801e-06
4.26985e-06
3.31933e-06
2.87877e-06
2.68386e-06
2.57892e-06
2.50702e-06
2.44313e-06
2.38237e-06
2.32178e-06
2.26203e-06
2.20575e-06
2.15824e-06
2.13404e-06
2.1519e-06
2.2309e-06
2.331e-06
2.3512e-06
2.20151e-06
7.5544e-06
5.95651e-06
4.28873e-06
3.33658e-06
2.89648e-06
2.70201e-06
2.59721e-06
2.5253e-06
2.46136e-06
2.40058e-06
2.34e-06
2.28014e-06
2.2235e-06
2.17537e-06
2.15054e-06
2.16831e-06
2.24838e-06
2.35031e-06
2.37134e-06
2.22683e-06
7.58139e-06
5.96434e-06
4.29839e-06
3.34906e-06
2.91072e-06
2.7177e-06
2.61387e-06
2.54247e-06
2.47873e-06
2.41795e-06
2.35727e-06
2.29719e-06
2.24011e-06
2.19128e-06
2.16561e-06
2.1829e-06
2.26385e-06
2.36839e-06
2.3923e-06
2.25476e-06
7.58814e-06
5.95541e-06
4.30242e-06
3.35798e-06
2.92299e-06
2.73234e-06
2.62988e-06
2.55906e-06
2.49528e-06
2.43404e-06
2.37266e-06
2.31191e-06
2.2543e-06
2.20521e-06
2.17954e-06
2.19725e-06
2.2798e-06
2.38789e-06
2.41632e-06
2.28649e-06
7.5758e-06
5.94301e-06
4.30538e-06
3.36728e-06
2.93615e-06
2.74789e-06
2.64644e-06
2.57563e-06
2.51126e-06
2.44906e-06
2.38668e-06
2.32512e-06
2.26708e-06
2.21821e-06
2.19346e-06
2.21289e-06
2.29836e-06
2.41109e-06
2.44516e-06
2.32158e-06
7.55703e-06
5.93735e-06
4.31318e-06
3.38058e-06
2.95244e-06
2.7656e-06
2.66406e-06
2.59227e-06
2.52652e-06
2.46303e-06
2.3998e-06
2.33797e-06
2.28024e-06
2.23229e-06
2.20919e-06
2.23118e-06
2.32029e-06
2.43832e-06
2.47829e-06
2.35795e-06
7.54506e-06
5.94556e-06
4.32874e-06
3.39914e-06
2.97218e-06
2.78519e-06
2.68243e-06
2.60889e-06
2.54138e-06
2.47665e-06
2.41304e-06
2.3517e-06
2.29504e-06
2.24869e-06
2.22756e-06
2.25204e-06
2.34463e-06
2.46758e-06
2.51259e-06
2.39263e-06
7.54779e-06
5.96712e-06
4.35157e-06
3.42087e-06
2.99317e-06
2.80502e-06
2.70057e-06
2.6252e-06
2.55633e-06
2.49102e-06
2.42767e-06
2.36726e-06
2.31192e-06
2.26717e-06
2.24754e-06
2.27369e-06
2.36873e-06
2.49528e-06
2.5437e-06
2.42339e-06
7.56426e-06
5.99679e-06
4.37493e-06
3.44183e-06
3.01303e-06
2.82372e-06
2.71777e-06
2.64126e-06
2.57198e-06
2.50695e-06
2.44431e-06
2.38478e-06
2.33028e-06
2.28623e-06
2.26695e-06
2.2935e-06
2.3896e-06
2.51813e-06
2.56843e-06
2.45018e-06
7.58893e-06
6.02187e-06
4.39336e-06
3.45915e-06
3.03053e-06
2.84074e-06
2.73431e-06
2.65781e-06
2.58902e-06
2.52468e-06
2.46266e-06
2.40336e-06
2.34871e-06
2.30401e-06
2.28381e-06
2.30964e-06
2.40575e-06
2.53517e-06
2.587e-06
2.47518e-06
7.61167e-06
6.03404e-06
4.4047e-06
3.47304e-06
3.04582e-06
2.85686e-06
2.75128e-06
2.67575e-06
2.60781e-06
2.54394e-06
2.48182e-06
2.42182e-06
2.36588e-06
2.31952e-06
2.29768e-06
2.32238e-06
2.41834e-06
2.54859e-06
2.60303e-06
2.502e-06
7.62413e-06
6.03349e-06
4.41252e-06
3.48517e-06
3.06068e-06
2.87377e-06
2.76989e-06
2.69557e-06
2.62815e-06
2.56401e-06
2.50091e-06
2.43933e-06
2.38155e-06
2.33335e-06
2.3101e-06
2.33423e-06
2.43062e-06
2.56292e-06
2.62172e-06
2.53371e-06
7.62487e-06
6.02982e-06
4.42045e-06
3.49842e-06
3.07747e-06
2.89302e-06
2.79067e-06
2.71695e-06
2.64924e-06
2.58404e-06
2.51939e-06
2.45606e-06
2.39669e-06
2.34742e-06
2.32379e-06
2.34844e-06
2.44661e-06
2.58258e-06
2.64725e-06
2.57126e-06
7.62064e-06
6.03255e-06
4.43273e-06
3.51543e-06
3.0976e-06
2.91493e-06
2.81313e-06
2.73892e-06
2.67006e-06
2.60338e-06
2.53731e-06
2.47286e-06
2.413e-06
2.36394e-06
2.34118e-06
2.3675e-06
2.4686e-06
2.60941e-06
2.68068e-06
2.61304e-06
7.62185e-06
6.04669e-06
4.45168e-06
3.53685e-06
3.12073e-06
2.93843e-06
2.83585e-06
2.76016e-06
2.68974e-06
2.6218e-06
2.55509e-06
2.49076e-06
2.43178e-06
2.38416e-06
2.36312e-06
2.39171e-06
2.49611e-06
2.64198e-06
2.71959e-06
2.65559e-06
7.63496e-06
6.07292e-06
4.47637e-06
3.56125e-06
3.14509e-06
2.96169e-06
2.85728e-06
2.77969e-06
2.70791e-06
2.63948e-06
2.57331e-06
2.51035e-06
2.45324e-06
2.4076e-06
2.38836e-06
2.41896e-06
2.52614e-06
2.67623e-06
2.7592e-06
2.69576e-06
7.66073e-06
6.10687e-06
4.50369e-06
3.58611e-06
3.1686e-06
2.98323e-06
2.87667e-06
2.79743e-06
2.72504e-06
2.65714e-06
2.5925e-06
2.53157e-06
2.47649e-06
2.43244e-06
2.41429e-06
2.44596e-06
2.5548e-06
2.70783e-06
2.79493e-06
2.73233e-06
7.69511e-06
6.14236e-06
4.53033e-06
3.60948e-06
3.19019e-06
3.00285e-06
2.89458e-06
2.81451e-06
2.74242e-06
2.67583e-06
2.61306e-06
2.55395e-06
2.50016e-06
2.45668e-06
2.43848e-06
2.47012e-06
2.57951e-06
2.73452e-06
2.82524e-06
2.7665e-06
7.73291e-06
6.17459e-06
4.55483e-06
3.63109e-06
3.21047e-06
3.02191e-06
2.91291e-06
2.83296e-06
2.76187e-06
2.69676e-06
2.63543e-06
2.57718e-06
2.52346e-06
2.47934e-06
2.46011e-06
2.49093e-06
2.60037e-06
2.75721e-06
2.85206e-06
2.80111e-06
7.76903e-06
6.20421e-06
4.57808e-06
3.65243e-06
3.23142e-06
3.04277e-06
2.93409e-06
2.855e-06
2.78506e-06
2.72096e-06
2.66009e-06
2.60148e-06
2.54665e-06
2.50098e-06
2.48019e-06
2.51006e-06
2.61979e-06
2.77921e-06
2.8794e-06
2.83915e-06
7.80347e-06
6.2336e-06
4.60256e-06
3.67586e-06
3.25536e-06
3.06759e-06
2.96e-06
2.88202e-06
2.81289e-06
2.74897e-06
2.68748e-06
2.62746e-06
2.57076e-06
2.52317e-06
2.50086e-06
2.53019e-06
2.64109e-06
2.80441e-06
2.91131e-06
2.8823e-06
7.83901e-06
6.26596e-06
4.63052e-06
3.70315e-06
3.28365e-06
3.0973e-06
2.99106e-06
2.91399e-06
2.84506e-06
2.78049e-06
2.71756e-06
2.65557e-06
2.59678e-06
2.54742e-06
2.52408e-06
2.55363e-06
2.66673e-06
2.83527e-06
2.94995e-06
2.93034e-06
7.8789e-06
6.30264e-06
4.66256e-06
3.73438e-06
3.31588e-06
3.13097e-06
3.02593e-06
2.94934e-06
2.88001e-06
2.81422e-06
2.74949e-06
2.6855e-06
2.62491e-06
2.57432e-06
2.55061e-06
2.5811e-06
2.69723e-06
2.87193e-06
2.99493e-06
2.98166e-06
7.92444e-06
6.34188e-06
4.69707e-06
3.76782e-06
3.34997e-06
3.16619e-06