/*--------------------------------*- C++ -*----------------------------------*\
  =========                 |
  \\      /  F ield         | OpenFOAM: The Open Source CFD Toolbox
   \\    /   O peration     | Website:  https://openfoam.org
    \\  /    A nd           | Version:  8
     \\/     M anipulation  |
\*---------------------------------------------------------------------------*/
FoamFile
{
    version     2.0;
    format      ascii;
    class       surfaceScalarField;
    location    "800";
    object      phi;
}
// * * * * * * * * * * * * * * * * * * * * * * * * * * * * * * * * * * * * * //

dimensions      [1 0 -1 0 0 0 0];

internalField   nonuniform List<scalar> 
16360
(
-3.17096
-0.0160638
-3.16447
-0.00647803
-3.15988
-0.00459235
-3.14485
-0.0150258
-3.1161
-0.02875
-3.0721
-0.0439973
-3.00164
-0.0704577
-2.88606
-0.115582
-2.71759
-0.16847
-2.50625
-0.21134
-2.27034
-0.235905
-2.02758
-0.242749
-1.79134
-0.236241
-1.56785
-0.223499
-1.35538
-0.212484
-1.15357
-0.201798
-0.978049
-0.175522
-0.859405
-0.118635
-0.810282
-0.0491281
-0.79893
-0.0113473
-0.798861
-5.91494e-05
-0.812926
0.0140638
-0.836954
0.024051
-0.853341
0.0163865
-0.857449
0.00413147
-0.856447
-0.00098191
-0.849399
-0.00706285
-0.832696
-0.0167218
-0.809949
-0.022769
-0.786089
-0.0238434
-0.764182
-0.0218639
-0.746314
-0.0178649
-0.733518
-0.012818
-0.725958
-0.00758652
-0.723209
-0.00274528
-0.724588
0.00138868
-0.729345
0.00477169
-0.736807
0.00746369
-0.746371
0.0095585
-0.757489
0.0111177
-0.769704
0.0122095
-0.782603
0.0128973
-0.795838
0.0132358
-0.8091
0.0132683
-0.822085
0.0129968
-0.834512
0.0124298
-0.846059
0.0115528
-0.85638
0.0103292
-0.865096
0.00870902
0.00626379
-0.871364
-1.22661
-0.0711169
-1.23964
0.00654446
-1.24799
0.00377212
-1.24586
-0.0171579
-1.23669
-0.037923
-1.21535
-0.0653397
-1.16683
-0.118995
-1.07659
-0.205827
-0.947055
-0.29799
-0.793721
-0.364672
-0.635703
-0.393933
-0.491659
-0.386788
-0.379924
-0.34798
-0.319649
-0.28376
-0.330606
-0.20152
-0.420811
-0.111613
-0.557533
-0.0388263
-0.673995
-0.00214258
-0.742133
0.0189938
-0.768079
0.0145889
-0.766539
-0.00159798
-0.782886
0.0304122
-0.821296
0.0624524
-0.843849
0.0389009
-0.846488
0.00672683
-0.849478
0.00200774
-0.844977
-0.0115307
-0.823452
-0.038235
-0.796323
-0.049896
-0.770416
-0.0498057
-0.747299
-0.0449788
-0.728872
-0.03624
-0.715987
-0.0256889
-0.708616
-0.0149541
-0.706263
-0.00507571
-0.708241
0.00335695
-0.713713
0.0102381
-0.72191
0.0156967
-0.732218
0.0198782
-0.744046
0.0229601
-0.756928
0.0250962
-0.770451
0.0264269
-0.784283
0.0270649
-0.798157
0.0271036
-0.811777
0.0266098
-0.824926
0.0255879
-0.837409
0.0240316
-0.848985
0.0219046
-0.859365
0.0190854
0.015287
-0.868373
0.614932
-0.115398
0.594463
0.0270118
0.571488
0.0267358
0.561889
-0.0075632
0.589376
-0.06542
0.666228
-0.142164
0.781157
-0.233936
0.897487
-0.322166
0.985889
-0.386398
1.04154
-0.420313
1.06726
-0.419669
1.06405
-0.383581
1.03066
-0.314567
0.965319
-0.218417
0.866836
-0.103021
0.73883
0.0163921
0.586404
0.113594
0.394746
0.189522
0.156883
0.256863
-0.136512
0.307979
-0.444042
0.305897
-0.67296
0.25931
-0.80145
0.190963
-0.852755
0.0902333
-0.837409
-0.00860733
-0.837948
0.00255985
-0.834275
-0.0152037
-0.800211
-0.0722885
-0.768188
-0.081902
-0.738687
-0.0792978
-0.712063
-0.071624
-0.691742
-0.0565757
-0.67783
-0.0396008
-0.670008
-0.0227616
-0.667562
-0.00751215
-0.669561
0.00535039
-0.675061
0.0157337
-0.68323
0.0238641
-0.693389
0.0300206
-0.704953
0.0345117
-0.717462
0.0375966
-0.730535
0.0395034
-0.743863
0.0404066
-0.757207
0.0404457
-0.770324
0.0397209
-0.783009
0.038275
-0.795113
0.0361309
-0.806474
0.0332665
-0.816978
0.029592
0.0248712
-0.826567
1.65421
-0.0825143
1.76239
-0.0811411
1.90554
-0.116398
2.06553
-0.167562
2.22665
-0.226536
2.37431
-0.289819
2.49148
-0.351104
2.56918
-0.399861
2.6087
-0.425934
2.6118
-0.423404
2.58223
-0.390101
2.52417
-0.325536
2.44076
-0.231167
2.33442
-0.112098
2.21169
0.019721
2.07816
0.149911
1.91839
0.273389
1.71996
0.387932
1.48909
0.487733
1.22988
0.567202
0.931107
0.604706
0.593433
0.596962
0.221301
0.563107
-0.19797
0.509512
-0.564723
0.358115
-0.772
0.209825
-0.840299
0.0530791
-0.774327
-0.138282
-0.735371
-0.120858
-0.69435
-0.120297
-0.660754
-0.105199
-0.637347
-0.0799835
-0.62185
-0.0551067
-0.6136
-0.0310027
-0.611478
-0.00963571
-0.614148
0.0080323
-0.620396
0.0219956
-0.629274
0.0327451
-0.640041
0.0407927
-0.652138
0.046605
-0.665124
0.0505762
-0.678665
0.0530345
-0.692478
0.054226
-0.706358
0.0543217
-0.72011
0.0534637
-0.733545
0.0517251
-0.746548
0.0491307
-0.758959
0.0456755
-0.770652
0.0412873
0.035884
-0.781679
4.75007
-0.00999173
4.70603
-0.037107
4.65744
-0.0678086
4.60035
-0.110487
4.53172
-0.157907
4.44743
-0.205538
4.345
-0.248662
4.2262
-0.281059
4.09601
-0.295747
3.95961
-0.287005
3.82174
-0.252243
3.68707
-0.190832
3.55955
-0.103655
3.43992
0.00754031
3.31819
0.14145
3.17601
0.292097
3.00262
0.446786
2.79707
0.59349
2.56173
0.723074
2.30198
0.826944
2.01324
0.893436
1.692
0.918194
1.34784
0.907281
0.993011
0.864344
0.601046
0.750084
0.195014
0.615861
-0.240342
0.48842
-0.570517
0.191906
-0.692741
0.00135616
-0.635562
-0.177495
-0.600165
-0.140603
-0.572003
-0.108132
-0.554517
-0.0725954
-0.546031
-0.039497
-0.544552
-0.0111139
-0.548147
0.0116389
-0.555253
0.0291127
-0.564766
0.0422611
-0.575903
0.0519352
-0.588128
0.058833
-0.601033
0.0634972
-0.614351
0.0663498
-0.627862
0.0677244
-0.641392
0.0678449
-0.654817
0.0668785
-0.668006
0.0649254
-0.680895
0.0620229
-0.693403
0.0581786
-0.705485
0.0533528
0.0475043
-0.717107
4.06257
0.0445868
4.01059
0.0148735
3.96269
-0.0199056
3.91083
-0.0586217
3.85301
-0.100081
3.78704
-0.139578
3.71117
-0.17279
3.62511
-0.194986
3.5302
-0.200846
3.429
-0.185803
3.32423
-0.147475
3.21861
-0.0852145
3.11446
0.000488586
3.01265
0.109341
2.91595
0.238145
2.82706
0.38099
2.74085
0.532981
2.6472
0.687142
2.53596
0.834327
2.39927
0.963631
2.22919
1.06351
2.02148
1.12591
1.78105
1.1477
1.51861
1.12677
1.21747
1.05123
0.894429
0.938914
0.578831
0.804043
0.200021
0.5707
-0.201148
0.402504
-0.475353
0.0967047
-0.540202
-0.0757486
-0.49371
-0.154622
-0.473645
-0.09264
-0.465958
-0.0471776
-0.465668
-0.011426
-0.470538
0.0164978
-0.478567
0.0371314
-0.4886
0.0522805
-0.499907
0.0632419
-0.512054
0.0709604
-0.524723
0.0761588
-0.537728
0.0793562
-0.550951
0.0809342
-0.564271
0.0811635
-0.577628
0.080224
-0.590937
0.0782319
-0.604141
0.075229
-0.61718
0.0712101
-0.629999
0.0661573
0.060087
-0.642574
3.69477
0.10631
3.64041
0.0692433
3.58842
0.0320691
3.53446
-0.00465412
3.47512
-0.0407335
3.40915
-0.0736095
3.33548
-0.0991203
3.25382
-0.113335
3.16515
-0.112168
3.07153
-0.0921948
2.9755
-0.0514301
2.87873
0.011561
2.78067
0.0985627
2.68364
0.206377
2.59234
0.32945
2.50876
0.464548
2.43341
0.608326
2.36378
0.756766
2.2939
0.904204
2.2151
1.04243
2.11744
1.16117
1.99317
1.25018
1.8397
1.30116
1.65818
1.3083
1.44336
1.26605
1.20367
1.17859
0.956662
1.05107
0.662716
0.864661
0.38238
0.682825
0.0424471
0.436635
-0.260631
0.227355
-0.410459
-0.00481248
-0.385032
-0.118088
-0.376704
-0.0554988
-0.378959
-0.00917333
-0.385211
0.0227458
-0.393953
0.0458851
-0.404167
0.0624969
-0.415255
0.0743334
-0.426887
0.0825897
-0.438868
0.0881408
-0.451101
0.0915951
-0.46355
0.0933767
-0.476156
0.0937802
-0.488905
0.0929862
-0.501764
0.0911039
-0.514706
0.0881769
-0.527691
0.0842056
-0.540686
0.0791656
0.0730769
-0.553668
3.05503
0.15957
2.9993
0.124984
2.94589
0.0854719
2.89434
0.0468936
2.84204
0.0115736
2.78576
-0.0173312
2.72453
-0.0379033
2.65808
-0.0468959
2.58673
-0.0408068
2.51155
-0.0170069
2.43282
0.0272909
2.35055
0.0938214
2.26952
0.179587
2.19505
0.280855
2.12865
0.395865
2.07073
0.522473
2.02081
0.65824
1.97736
0.80022
1.93728
0.944298
1.89532
1.08438
1.84443
1.21206
1.77737
1.31725
1.68863
1.38991
1.57509
1.42185
1.43381
1.40733
1.26742
1.34496
1.08173
1.23675
0.865451
1.08095
0.645623
0.902656
0.393656
0.688598
0.144074
0.476935
-0.137836
0.277091
-0.290311
0.0343895
-0.289339
-0.0564646
-0.289543
-0.00899582
-0.295593
0.0287793
-0.303945
0.054245
-0.31334
0.0718826
-0.323262
0.084251
-0.333445
0.0927902
-0.343824
0.0985294
-0.354401
0.102176
-0.365227
0.104193
-0.376323
0.104878
-0.38774
0.104401
-0.399503
0.102859
-0.411616
0.100288
-0.424067
0.0966634
-0.436833
0.0919277
0.0861169
-0.449888
2.43332
0.218436
2.378
0.180307
2.32387
0.139603
2.27076
0.0999953
2.22009
0.0622354
2.17181
0.0309755
2.12223
0.011672
2.06964
0.00571327
2.01385
0.0149822
1.95316
0.0436928
1.88743
0.0930141
1.82084
0.160411
1.75751
0.242916
1.69945
0.338909
1.64843
0.446883
1.60562
0.565301
1.57136
0.692498
1.5452
0.826377
1.52554
0.963944
1.50904
1.10088
1.49058
1.23051
1.46401
1.34381
1.42336
1.43055
1.36387
1.48134
1.28216
1.48905
1.17748
1.44965
1.05108
1.36314
0.900627
1.23141
0.736403
1.06689
0.552601
0.872399
0.361112
0.668417
0.166122
0.472071
-0.065565
0.266079
-0.188775
0.0667572
-0.203464
0.00568374
-0.20638
0.0316872
-0.212354
0.0602143
-0.219371
0.0788813
-0.226793
0.091672
-0.234273
0.100291
-0.241832
0.106092
-0.249578
0.109922
-0.257645
0.112262
-0.266136
0.113379
-0.275145
0.113421
-0.284736
0.112457
-0.294937
0.110497
-0.30577
0.107496
-0.317212
0.103362
0.0981293
-0.329236
1.73591
0.278617
1.68217
0.23404
1.63032
0.191448
1.58032
0.149991
1.53141
0.111149
1.48367
0.0787144
1.4383
0.0570309
1.39402
0.049999
1.34772
0.0612831
1.2999
0.0915019
1.25396
0.138976
1.21187
0.202483
1.17456
0.280232
1.14277
0.370696
1.11714
0.472516
1.09821
0.584226
1.08638
0.704339
1.08157
0.831188
1.08344
0.962076
1.0901
1.09423
1.09819
1.22241
1.10313
1.33887
1.0997
1.43399
1.08304
1.49799
1.04943
1.52266
0.996602
1.50248
0.923871
1.43586
0.830573
1.32471
0.720601
1.17686
0.593721
0.999276
0.45595
0.806184
0.315383
0.612622
0.161391
0.420064
-0.00893459
0.237087
-0.102253
0.0989764
-0.124245
0.0536722
-0.124377
0.0603621
-0.127035
0.0815422
-0.130365
0.0950083
-0.133552
0.103476
-0.136756
0.109287
-0.140204
0.113354
-0.144083
0.116123
-0.148519
0.117816
-0.153625
0.118535
-0.159491
0.118319
-0.166154
0.117166
-0.173693
0.115025
-0.182116
0.111786
0.107457
-0.19144
0.988482
0.355265
0.937564
0.284947
0.886108
0.24292
0.840121
0.195985
0.795995
0.155262
0.750173
0.124522
0.700269
0.106943
0.650682
0.0995639
0.6079
0.104033
0.576137
0.123262
0.556734
0.158392
0.548164
0.21105
0.54739
0.280988
0.551742
0.366329
0.559795
0.464462
0.571295
0.572741
0.586626
0.689012
0.605608
0.812214
0.630307
0.937383
0.65965
1.06488
0.69173
1.19033
0.72337
1.30723
0.750513
1.40685
0.768957
1.47954
0.775219
1.51639
0.766589
1.51112
0.741287
1.46116
0.698393
1.3676
0.639126
1.23613
0.564137
1.07426
0.476635
0.893694
0.382022
0.707239
0.279795
0.522285
0.166607
0.35028
0.0563499
0.209254
-0.0129427
0.122968
-0.0397582
0.0871892
-0.043853
0.0856382
-0.0416642
0.0927892
-0.0386488
0.10043
-0.0358208
0.106463
-0.0334348
0.11099
-0.0316577
0.114337
-0.0305648
0.116705
-0.0302167
0.118174
-0.0306912
0.118783
-0.032023
0.118519
-0.0343394
0.117335
-0.0377191
0.115151
0.112011
-0.042274
0.132776
0.382135
0.119809
0.297913
0.10773
0.255011
0.0904704
0.213214
0.0672752
0.178496
0.0442702
0.147499
0.0280498
0.123148
0.0164074
0.111244
0.003133
0.117334
-0.0114663
0.13787
-0.0230404
0.169977
-0.0271539
0.215171
-0.0216497
0.275498
-0.00634434
0.351035
0.0178917
0.44022
0.049956
0.540671
0.0891364
0.649849
0.133456
0.767875
0.181888
0.888937
0.233781
1.01298
0.28843
1.13569
0.344081
1.25158
0.397865
1.35307
0.446239
1.43116
0.486613
1.47602
0.516372
1.48137
0.532753
1.44478
0.534397
1.36595
0.521171
1.24937
0.493325
1.1021
0.452601
0.934405
0.402009
0.757831
0.342114
0.582184
0.273745
0.418658
0.201818
0.281175
0.14229
0.182504
0.104633
0.124869
0.0883166
0.101938
0.0845242
0.0965649
0.0867317
0.0982284
0.0911864
0.102007
0.0961989
0.106011
0.100966
0.109579
0.10515
0.112493
0.108645
0.114675
0.111351
0.116086
0.11321
0.116678
0.114132
0.116409
0.114016
0.115252
0.113258
0.112762
-0.717056
0.330673
-0.707304
0.288153
-0.697308
0.24501
-0.688499
0.204396
-0.676899
0.16691
-0.66361
0.134195
-0.651854
0.111394
-0.6424
0.101777
-0.630951
0.105903
-0.615904
0.122813
-0.598085
0.152143
-0.577408
0.194488
-0.55258
0.250674
-0.522207
0.320658
-0.485376
0.403392
-0.441787
0.49706
-0.391567
0.599625
-0.33358
0.709888
-0.268882
0.824245
-0.19741
0.941517
-0.11997
1.05825
-0.0380299
1.16964
0.0459036
1.26915
0.127605
1.34946
0.20232
1.4013
0.266922
1.41676
0.319608
1.3921
0.360291
1.32527
0.387973
1.22167
0.402299
1.08777
0.404046
0.93267
0.394575
0.767312
0.373904
0.60285
0.342579
0.449974
0.303945
0.319804
0.265608
0.220853
0.23527
0.155208
0.218227
0.118971
0.212442
0.102366
0.213853
0.0968389
0.219044
0.0968126
0.225877
0.0991782
0.233134
0.102316
0.24019
0.105429
0.246758
0.108123
0.252645
0.1102
0.25774
0.11157
0.261948
0.11219
0.265146
0.112057
0.111212
0.2672
-1.37821
0.276386
-1.33964
0.249592
-1.30963
0.215006
-1.28514
0.179874
-1.26515
0.146912
-1.24978
0.118836
-1.23713
0.0987407
-1.22427
0.0889135
-1.20886
0.0904838
-1.18985
0.103812
-1.16672
0.129016
-1.13864
0.166401
-1.10428
0.216313
-1.06236
0.278731
-1.012
0.353037
-0.952928
0.437997
-0.885327
0.532028
-0.808808
0.633362
-0.72416
0.739583
-0.631442
0.848801
-0.53114
0.957945
-0.424273
1.06277
-0.312718
1.15759
-0.199015
1.23576
-0.0870909
1.28937
0.0183269
1.31133
0.112588
1.29785
0.191481
1.24638
0.254785
1.15836
0.30601
1.03654
0.345651
0.89304
0.373781
0.739192
0.388948
0.587673
0.390789
0.448139
0.381514
0.329091
0.366092
0.236263
0.350489
0.170796
0.339873
0.129588
0.33577
0.106474
0.337319
0.0952966
0.342835
0.0913036
0.350725
0.0912849
0.359806
0.0932288
0.369297
0.0959354
0.378718
0.0987114
0.387744
0.101171
0.396169
0.103129
0.403838
0.104515
0.410586
0.105317
0.105561
0.416247
-1.89452
0.223446
-1.85032
0.205389
-1.81522
0.179911
-1.78784
0.152492
-1.76709
0.126172
-1.75174
0.10347
-1.73965
0.0866578
-1.72831
0.0775775
-1.71536
0.0775241
-1.69888
0.087317
-1.67731
0.107459
-1.64925
0.138334
-1.6132
0.180245
-1.56768
0.233225
-1.51157
0.296923
-1.44413
0.37055
-1.36504
0.452932
-1.2742
0.542529
-1.17204
0.637426
-1.05881
0.735567
-0.935041
0.834175
-0.801797
0.929519
-0.661051
1.01683
-0.515566
1.09028
-0.369319
1.14313
-0.227095
1.16911
-0.0933928
1.16415
0.0269422
1.12605
0.129599
1.05571
0.214606
0.951539
0.287969
0.819678
0.350206
0.676942
0.397633
0.540242
0.428796
0.416984
0.445248
0.312635
0.451145
0.230355
0.451636
0.170317
0.451293
0.129946
0.452776
0.104991
0.457018
0.0910515
0.463892
0.0844296
0.47282
0.082359
0.483141
0.0829108
0.494274
0.0848012
0.505763
0.0872197
0.517253
0.0896759
0.528465
0.0919116
0.539167
0.0938204
0.54911
0.0953841
0.0966366
0.558034
-2.33018
0.174516
-2.28809
0.163296
-2.25391
0.145746
-2.22709
0.125661
-2.20661
0.105703
-2.19117
0.0880133
-2.17895
0.0744497
-2.16793
0.0665626
-2.15597
0.0655742
-2.14104
0.0723707
-2.12118
0.0876001
-2.09454
0.111702
-2.05928
0.144979
-2.0136
0.187547
-1.95594
0.239254
-1.88502
0.299629
-1.79995
0.367871
-1.70024
0.442813
-1.58577
0.522956
-1.45663
0.606436
-1.31331
0.690841
-1.15684
0.77306
-0.989187
0.849166
-0.813305
0.91441
-0.63355
0.963365
-0.455327
0.990884
-0.284333
0.993162
-0.126152
0.967867
0.0147423
0.914808
0.133399
0.832879
0.238842
0.714231
0.332286
0.583501
0.408172
0.464359
0.464497
0.360658
0.502824
0.274305
0.527217
0.205955
0.542536
0.154998
0.553095
0.119384
0.561935
0.0961443
0.570814
0.0821643
0.580544
0.0746983
0.591355
0.0715519
0.603171
0.071097
0.615787
0.0721873
0.628945
0.0740575
0.642394
0.076225
0.655882
0.0784273
0.669153
0.0805624
0.681904
0.0826368
0.0847406
0.693793
-2.71187
0.131077
-2.67262
0.124044
-2.63922
0.112336
-2.61189
0.0983332
-2.59014
0.0839478
-2.57299
0.0708622
-2.55906
0.0605164
-2.54665
0.0541569
-2.53387
0.0527878
-2.51868
0.0571909
-2.49904
0.0679571
-2.47285
0.0855144
-2.43802
0.110152
-2.39247
0.142016
-2.33428
0.181055
-2.26168
0.227031
-2.17325
0.279431
-2.06788
0.337457
-1.94492
0.399989
-1.80406
0.465573
-1.64553
0.532311
-1.47026
0.597797
-1.28015
0.659066
-1.0783
0.712559
-0.869186
0.75425
-0.658495
0.780194
-0.452643
0.7873
-0.258472
0.773698
-0.0821411
0.738479
0.0709338
0.679799
0.206521
0.578634
0.327874
0.462149
0.427534
0.364701
0.504136
0.284054
0.560015
0.218428
0.599518
0.166457
0.627414
0.12711
0.647894
0.0989002
0.664152
0.0798781
0.678357
0.0679563
0.691842
0.06121
0.705366
0.0580257
0.719301
0.0571625
0.73378
0.0577162
0.748776
0.0590608
0.764194
0.0608046
0.779881
0.0627453
0.795623
0.0648289
0.811128
0.0671312
0.069867
0.825995
-3.04059
0.0888562
-3.00155
0.0850005
-2.96703
0.0778376
-2.93763
0.0689276
-2.91321
0.0595448
-2.89317
0.0508098
-2.87638
0.0437356
-2.8614
0.0391782
-2.84647
0.0378545
-2.82963
0.0403527
-2.80878
0.0471092
-2.78173
0.0584614
-2.74622
0.0746451
-2.69999
0.0957867
-2.64083
0.121898
-2.56665
0.152859
-2.47559
0.18837
-2.36609
0.227953
-2.23697
0.270882
-2.08754
0.316146
-1.91768
0.362446
-1.72805
0.408172
-1.52035
0.451371
-1.29755
0.489758
-1.06406
0.520764
-0.825667
0.541803
-0.589163
0.550797
-0.362186
0.546727
-0.152786
0.529077
0.0335792
0.493444
0.198031
0.414195
0.344009
0.31617
0.461215
0.247499
0.552004
0.193261
0.620404
0.150024
0.671113
0.115751
0.708765
0.089455
0.737405
0.0702536
0.760234
0.0570515
0.779602
0.0485996
0.797123
0.0436837
0.813882
0.0412635
0.83054
0.0405104
0.847463
0.0408013
0.864816
0.0417041
0.882655
0.0429633
0.900942
0.0444615
0.919557
0.046213
0.938299
0.0483891
0.0513767
0.956791
-3.30623
0.0458333
-3.26529
0.0440593
-3.22805
0.0405764
-3.19531
0.0362008
-3.16728
0.0315131
-3.14356
0.0270889
-3.12326
0.0234417
-3.10509
0.021004
-3.0874
0.0201693
-3.06828
0.0212323
-3.04561
0.0244405
-3.01712
0.0299818
-2.98045
0.0379803
-2.93319
0.0485149
-2.87291
0.0616191
-2.7973
0.0772401
-2.70418
0.0952547
-2.59166
0.11544
-2.45821
0.137429
-2.30277
0.16071
-2.12492
0.184602
-1.92503
0.208285
-1.70449
0.230826
-1.46593
0.251194
-1.21343
0.268265
-0.952499
0.280874
-0.689735
0.288034
-0.432702
0.289688
-0.190504
0.286873
0.0343366
0.268602
0.232365
0.216173
0.392352
0.1562
0.517161
0.122695
0.614218
0.0961994
0.688932
0.0753206
0.745958
0.0587366
0.789593
0.045812
0.823616
0.0362331
0.851102
0.0295696
0.874438
0.0252627
0.895376
0.0227387
0.91515
0.021492
0.934565
0.0211012
0.954113
0.0212484
0.974086
0.0217233
0.994639
0.0224086
1.01584
0.023266
1.03768
0.0243631
1.06011
0.0259569
0.0286844
1.08281
-3.50499
-3.46093
-3.42035
-3.38416
-3.35265
-3.32556
-3.30212
-3.28111
-3.26094
-3.23971
-3.21526
-3.18529
-3.14731
-3.09879
-3.03717
-2.95993
-2.86467
-2.74923
-2.6118
-2.4511
-2.2665
-2.05821
-1.82739
-1.57619
-1.30792
-1.02704
-0.73901
-0.44932
-0.162441
0.106162
0.322348
0.478549
0.601239
0.697437
0.772761
0.831502
0.877319
0.91356
0.943125
0.968382
0.991124
1.01262
1.03372
1.05496
1.07668
1.09909
1.12236
1.14673
1.17268
1.20137
0.00812109
-0.000163001
0.00814707
-7.4462e-05
0.00813059
-5.67504e-05
0.00812315
-1.64591e-05
0.00812097
6.63379e-06
0.00811891
1.15326e-05
0.00811663
9.72079e-06
0.0081163
8.7868e-06
0.00811831
1.03109e-05
0.00812037
1.31809e-05
0.00811906
1.62785e-05
0.0081115
1.91335e-05
0.00809619
2.15612e-05
0.00807306
2.33266e-05
0.00804334
2.41387e-05
0.00800934
2.37894e-05
0.00797412
2.22779e-05
0.00794093
1.99412e-05
0.00791268
1.73296e-05
0.00789141
1.51586e-05
0.00788103
1.10159e-05
0.0078832
6.20657e-06
0.00789655
2.86929e-06
0.00791794
1.65233e-06
0.00794334
2.39699e-06
0.00796842
4.69481e-06
0.0079891
7.93513e-06
0.00800167
1.18392e-05
0.00800329
1.59854e-05
0.00799231
1.98468e-05
0.00796829
2.29556e-05
0.00793201
2.50617e-05
0.00788532
2.59997e-05
0.0078309
2.56481e-05
0.007772
2.39718e-05
0.00771228
2.10372e-05
0.00765557
1.7003e-05
0.00760573
1.20914e-05
0.00756639
6.53382e-06
0.00754061
6.19818e-07
0.00753063
-5.29711e-06
0.0075376
-1.08322e-05
0.00756134
-1.56275e-05
0.00760043
-1.96003e-05
0.00765253
-2.31456e-05
0.00771504
-2.71936e-05
0.00778557
-3.28231e-05
0.00786143
-4.03881e-05
0.00793995
-4.99769e-05
-6.70622e-05
0.00802474
0.00785523
-5.46758e-05
0.00783472
-4.18015e-06
0.00777126
3.23792e-07
0.00772705
1.53053e-06
0.00770947
9.7453e-06
0.00771148
1.52325e-05
0.00772519
1.58749e-05
0.00774551
1.43547e-05
0.00776918
1.31484e-05
0.0077931
1.30277e-05
0.00781382
1.36853e-05
0.00782833
1.46015e-05
0.00783481
1.54225e-05
0.00783306
1.59563e-05
0.00782441
1.60884e-05
0.00781144
1.57643e-05
0.00779765
1.49979e-05
0.00778702
1.3869e-05
0.00778352
1.25101e-05
0.00779099
1.08525e-05
0.00780907
8.98956e-06
0.00783667
7.26894e-06
0.0078722
6.72285e-06
0.00791334
7.10723e-06
0.00795703
7.8951e-06
0.00799949
8.9474e-06
0.00803657
1.00824e-05
0.00806465
1.11508e-05
0.00808128
1.17522e-05
0.00808532
1.16101e-05
0.00807669
1.06357e-05
0.00805629
8.88965e-06
0.00802598
6.54496e-06
0.00798836
3.79453e-06
0.00794655
8.39435e-07
0.00790401
-2.1161e-06
0.00786435
-4.89329e-06
0.00783116
-7.35707e-06
0.00780781
-9.44915e-06
0.00779712
-1.12323e-05
0.00780115
-1.28923e-05
0.00782087
-1.47062e-05
0.00785599
-1.69874e-05
0.00790481
-2.00874e-05
0.00796397
-2.45681e-05
0.00802875
-3.14804e-05
0.00809441
-4.25835e-05
0.00815801
-5.98347e-05
0.00821867
-8.41337e-05
-0.00011655
0.00827314
0.00785451
-4.81496e-06
0.00781434
1.64489e-05
0.0077913
1.918e-05
0.00777157
1.34321e-05
0.0077651
1.04204e-05
0.00777355
1.04485e-05
0.0077934
1.04931e-05
0.00781989
9.59492e-06
0.00784873
8.41763e-06
0.00787623
7.71289e-06
0.00789918
7.70037e-06
0.00791498
8.19367e-06
0.00792215
8.89003e-06
0.00792066
9.5474e-06
0.00791195
1.00118e-05
0.00789872
1.02227e-05
0.00788447
1.02014e-05
0.00787297
1.00583e-05
0.00786789
9.67159e-06
0.00787206
8.80347e-06
0.00788665
7.609e-06
0.00791111
6.99502e-06
0.00794435
7.15147e-06
0.00798376
7.77259e-06
0.0080256
8.49586e-06
0.00806591
9.02339e-06
0.00810082
9.26558e-06
0.00812712
8.98707e-06
0.00814239
7.92037e-06
0.0081454
5.91794e-06
0.00813613
3.01943e-06
0.00811557
-6.1361e-07
0.00808555
-4.68979e-06
0.00804862
-8.86923e-06
0.00800784
-1.28052e-05
0.00796665
-1.61909e-05
0.00792858
-1.88183e-05
0.0078971
-2.05958e-05
0.00787543
-2.15483e-05
0.00786622
-2.18979e-05
0.00787134
-2.20986e-05
0.00789167
-2.28271e-05
0.00792694
-2.49221e-05
0.00797576
-2.92283e-05
0.00803541
-3.64619e-05
0.00810162
-4.72871e-05
0.00816879
-6.28153e-05
0.00823129
-8.48145e-05
0.00828492
-0.000114463
-0.000151759
0.0083267
0.00792775
1.06141e-06
0.00788791
1.19122e-05
0.00786669
1.89205e-05
0.00785174
1.87051e-05
0.00784377
1.57472e-05
0.00784613
1.34111e-05
0.00785883
1.17615e-05
0.00787902
1.01173e-05
0.00790268
8.41391e-06
0.00792573
6.9999e-06
0.00794464
6.1517e-06
0.00795675
5.89272e-06
0.00796058
6.06299e-06
0.00795609
6.4553e-06
0.00794476
6.89954e-06
0.00792925
7.30678e-06
0.00791306
7.69762e-06
0.00789994
8.17077e-06
0.00789339
8.56825e-06
0.00789644
8.10961e-06
0.00791028
7.12265e-06
0.00793427
7.18648e-06
0.00796714
7.73455e-06
0.00800603
8.50229e-06
0.00804718
9.0969e-06
0.00808647
9.19899e-06
0.00812016
8.60102e-06
0.00814516
7.09501e-06
0.00815922
4.50136e-06
0.00816119
7.73524e-07
0.00815114
-3.93168e-06
0.00813016
-9.32354e-06
0.00810019
-1.50134e-05
0.00806378
-2.0551e-05
0.00802394
-2.54562e-05
0.00798399
-2.93165e-05
0.00794735
-3.18613e-05
0.00791731
-3.30222e-05
0.00789689
-3.29545e-05
0.00788853
-3.20404e-05
0.0078939
-3.09143e-05
0.00791357
-3.04685e-05
0.00794687
-3.18478e-05
0.00799204
-3.63599e-05
0.00804644
-4.52632e-05
0.00810657
-5.94777e-05
0.00816802
-7.9642e-05
0.0082257
-0.000106689
0.00827521
-0.000141322
-0.000182442
0.00831309
0.00793668
1.5272e-05
0.00788636
2.1121e-05
0.00785031
2.40179e-05
0.00782882
2.42131e-05
0.00781927
2.09995e-05
0.00782176
1.66234e-05
0.00783541
1.25314e-05
0.00785742
9.0333e-06
0.00788368
6.11954e-06
0.00790977
3.84898e-06
0.00793172
2.31313e-06
0.00794663
1.50841e-06
0.00795294
1.31448e-06
0.00795063
1.55328e-06
0.00794123
2.05825e-06
0.00792753
2.71783e-06
0.00791317
3.51633e-06
0.0079019
4.63469e-06
0.00789693
6.14633e-06
0.00790259
5.17117e-06
0.00791899
4.49478e-06
0.00794498
5.75009e-06
0.00797916
7.15613e-06
0.00801885
8.29528e-06
0.00806038
8.89727e-06
0.00809968
8.66368e-06
0.008133
7.35522e-06
0.00815734
4.78866e-06
0.0081707
8.4074e-07
0.00817212
-4.45838e-06
0.0081618
-1.08493e-05
0.00814092
-1.7897e-05
0.00811151
-2.50788e-05
0.00807613
-3.18279e-05
0.0080377
-3.75534e-05
0.00799936
-4.17404e-05
0.00796434
-4.4064e-05
0.00793571
-4.44738e-05
0.00791623
-4.3239e-05
0.00790814
-4.09532e-05
0.00791294
-3.84968e-05
0.00793118
-3.6963e-05
0.00796213
-3.76362e-05
0.00800377
-4.19627e-05
0.00805298
-5.144e-05
0.008106
-6.73235e-05
0.0081587
-9.02879e-05
0.00820681
-0.000120809
0.00824684
-0.000159346
-0.000204364
0.00827672
0.00794073
2.25733e-05
0.00789808
2.83712e-05
0.00786312
2.61979e-05
0.00784284
2.43077e-05
0.00783574
2.08918e-05
0.00784074
1.63375e-05
0.00785617
1.16471e-05
0.00787919
7.45334e-06
0.00790596
3.99499e-06
0.00793223
1.33656e-06
0.00795406
-5.11279e-07
0.00796853
-1.58442e-06
0.00797412
-1.98629e-06
0.00797086
-1.85671e-06
0.00796038
-1.32102e-06
0.00794557
-4.70041e-07
0.00793017
6.54375e-07
0.00791826
2.05512e-06
0.00791373
3.65556e-06
0.00791775
4.18117e-06
0.00793144
4.85282e-06
0.00795537
6.59529e-06
0.00798781
8.26294e-06
0.00802569
9.47558e-06
0.00806526
9.8818e-06
0.00810252
9.14657e-06
0.00813376
6.99663e-06
0.00815606
3.26789e-06
0.00816757
-2.08238e-06
0.00816755
-8.93873e-06
0.00815633
-1.69719e-05
0.00813519
-2.56383e-05
0.00810616
-3.42627e-05
0.00807182
-4.21456e-05
0.00803497
-4.86034e-05
0.00799856
-5.30483e-05
0.00796555
-5.51158e-05
0.00793868
-5.47534e-05
0.00792038
-5.23014e-05
0.00791252
-4.85232e-05
0.00791633
-4.45564e-05
0.00793218
-4.17984e-05
0.0079595
-4.1753e-05
0.00799654
-4.59471e-05
0.00804036
-5.58916e-05
0.00808723
-7.28858e-05
0.00813313
-9.76213e-05
0.00817399
-0.000130246
0.00820655
-0.000170958
-0.00021852
0.0082294
0.00793865
2.43036e-05
0.00789784
3.26956e-05
0.00786178
2.89888e-05
0.00783842
2.54317e-05
0.00782843
2.13605e-05
0.00783148
1.65905e-05
0.00784577
1.15589e-05
0.00786824
6.82404e-06
0.00789494
2.75659e-06
0.00792151
-4.72466e-07
0.0079439
-2.82586e-06
0.00795905
-4.33956e-06
0.00796533
-5.09895e-06
0.00796278
-5.22532e-06
0.00795299
-4.82057e-06
0.00793893
-3.9548e-06
0.00792441
-2.69381e-06
0.00791351
-1.13467e-06
0.00791006
4.63013e-07
0.00791575
1.73143e-06
0.00793099
3.848e-06
0.00795604
6.31457e-06
0.00798909
8.44272e-06
0.00802706
9.86801e-06
0.00806616
1.02239e-05
0.00810252
9.14546e-06
0.00813256
6.32677e-06
0.00815355
1.60794e-06
0.00816381
-4.98441e-06
0.00816283
-1.32274e-05
0.00815118
-2.27021e-05
0.00813025
-3.27839e-05
0.00810212
-4.26715e-05
0.00806934
-5.15147e-05
0.0080346
-5.85254e-05
0.00800064
-6.30647e-05
0.0079701
-6.47522e-05
0.00794535
-6.35659e-05
0.00792844
-5.99175e-05
0.00792089
-5.46755e-05
0.00792359
-4.91401e-05
0.00793664
-4.49458e-05
0.00795936
-4.38706e-05
0.00799023
-4.76245e-05
0.00802679
-5.77515e-05
0.00806585
-7.55367e-05
0.00810396
-0.000101633
0.00813766
-0.000135869
0.00816395
-0.000177954
-0.00022692
0.00818153
0.00793757
2.30752e-05
0.00789614
3.25516e-05
0.0078605
2.9126e-05
0.00783718
2.48474e-05
0.00782729
2.01469e-05
0.00783095
1.51022e-05
0.00784637
9.9577e-06
0.00787029
5.08676e-06
0.00789851
8.14771e-07
0.00792654
-2.66673e-06
0.00795025
-5.29305e-06
0.00796651
-7.07911e-06
0.00797366
-8.08329e-06
0.00797176
-8.38559e-06
0.00796248
-8.06417e-06
0.00794877
-7.15555e-06
0.00793444
-5.69108e-06
0.00792344
-3.73184e-06
0.00791918
-1.47249e-06
0.00792388
5.85027e-07
0.00793844
3.59073e-06
0.00796252
6.75561e-06
0.00799425
9.31221e-06
0.00803054
1.09039e-05
0.0080676
1.11678e-05
0.00810162
9.7237e-06
0.00812922
6.25104e-06
0.00814784
5.99478e-07
0.00815603
-7.15537e-06
0.00815346
-1.66999e-05
0.00814089
-2.74971e-05
0.00811991
-3.8821e-05
0.00809261
-4.97846e-05
0.00806148
-5.94241e-05
0.00802905
-6.6845e-05
0.00799779
-7.13561e-05
0.00796996
-7.25777e-05
0.00794751
-7.05365e-05
0.00793204
-6.5737e-05
0.0079247
-5.91708e-05
0.00792612
-5.22568e-05
0.00793623
-4.67657e-05
0.00795427
-4.46365e-05
0.0079788
-4.77449e-05
0.00800773
-5.7713e-05
0.00803844
-7.58171e-05
0.00806818
-0.000102745
0.00809438
-0.000138178
0.0081148
-0.000181322
-0.000231079
0.00812825
0.00793745
2.0946e-05
0.00789393
2.96877e-05
0.0078573
2.69041e-05
0.00783334
2.2865e-05
0.0078228
1.82158e-05
0.00782594
1.32873e-05
0.00784113
8.3375e-06
0.0078651
3.63125e-06
0.00789357
-5.88264e-07
0.00792195
-4.14728e-06
0.00794606
-6.96473e-06
0.00796272
-9.02147e-06
0.00797025
-1.03269e-05
0.0079687
-1.08962e-05
0.00795978
-1.07511e-05
0.00794646
-9.90624e-06
0.00793253
-8.36053e-06
0.00792194
-6.14991e-06
0.00791828
-3.53289e-06
0.00792365
-9.62162e-07
0.00793871
2.77429e-06
0.00796292
6.57704e-06
0.00799431
9.58225e-06
0.00802973
1.1425e-05
0.00806544
1.16893e-05
0.00809771
9.96449e-06
0.00812335
5.94228e-06
0.00814005
-4.92475e-07
0.00814659
-9.21574e-06
0.00814289
-1.98418e-05
0.00812991
-3.17262e-05
0.00810938
-4.40296e-05
0.0080835
-5.57776e-05
0.00805464
-6.59359e-05
0.00802517
-7.35422e-05
0.00799723
-7.78588e-05
0.00797267
-7.8521e-05
0.00795296
-7.56193e-05
0.00793919
-6.9734e-05
0.0079321
-6.19684e-05
0.007932
-5.38758e-05
0.00793875
-4.73031e-05
0.00795162
-4.42788e-05
0.0079694
-4.67593e-05
0.00799036
-5.64126e-05
0.00801243
-7.44655e-05
0.00803349
-0.00010162
0.00805179
-0.000137621
0.00806599
-0.000181394
-0.000231564
0.00807543
0.00793732
1.82527e-05
0.00789201
2.53886e-05
0.00785401
2.29473e-05
0.00782937
1.94339e-05
0.00781854
1.5262e-05
0.00782171
1.07768e-05
0.00783724
6.25644e-06
0.00786184
1.91471e-06
0.00789115
-2.06707e-06
0.00792048
-5.55044e-06
0.00794555
-8.44408e-06
0.00796316
-1.07011e-05
0.00797159
-1.22787e-05
0.00797089
-1.31237e-05
0.00796275
-1.31839e-05
0.00795019
-1.24231e-05
0.00793694
-1.0816e-05
0.0079269
-8.36569e-06
0.00792347
-5.31902e-06
0.0079288
-2.22855e-06
0.00794356
2.11501e-06
0.00796704
6.47352e-06
0.00799719
9.87895e-06
0.00803085
1.19654e-05
0.00806438
1.22402e-05
0.00809416
1.02547e-05
0.00811721
5.73428e-06
0.00813144
-1.38704e-06
0.0081359
-1.09222e-05
0.0081308
-2.24078e-05
0.00811727
-3.51166e-05
0.00809719
-4.81102e-05
0.0080728
-6.03279e-05
0.00804639
-7.06936e-05
0.00802011