/*--------------------------------*- C++ -*----------------------------------*\
  =========                 |
  \\      /  F ield         | OpenFOAM: The Open Source CFD Toolbox
   \\    /   O peration     | Website:  https://openfoam.org
    \\  /    A nd           | Version:  8
     \\/     M anipulation  |
\*---------------------------------------------------------------------------*/
FoamFile
{
    version     2.0;
    format      ascii;
    class       volVectorField;
    location    "800";
    object      U;
}
// * * * * * * * * * * * * * * * * * * * * * * * * * * * * * * * * * * * * * //

dimensions      [0 1 -1 0 0 0 0];

internalField   nonuniform List<vector> 
8400
(
(-31.7484 -0.172122 1.24021e-15)
(-31.7067 -0.20499 1.23197e-15)
(-31.6726 -0.285212 1.219e-15)
(-31.5454 -0.410932 1.20162e-15)
(-31.2642 -0.551475 1.18182e-15)
(-30.8743 -0.691691 1.16321e-15)
(-30.3089 -0.852052 1.14607e-15)
(-29.3989 -1.06149 1.13197e-15)
(-28.0505 -1.30056 1.12608e-15)
(-26.3085 -1.49395 1.13614e-15)
(-24.2847 -1.58427 1.16914e-15)
(-22.102 -1.56181 1.22622e-15)
(-19.8766 -1.44913 1.3012e-15)
(-17.6953 -1.29472 1.38418e-15)
(-15.5967 -1.16234 1.46071e-15)
(-13.579 -1.09958 1.51432e-15)
(-11.6258 -1.0858 1.51794e-15)
(-9.82387 -0.981063 1.42806e-15)
(-8.55316 -0.679892 1.25442e-15)
(-8.01558 -0.338247 1.07702e-15)
(-7.88459 -0.126392 9.50989e-16)
(-7.91022 -0.0170164 8.70779e-16)
(-8.05137 0.04172 8.1401e-16)
(-8.2389 0.0422339 7.691e-16)
(-8.37056 0.0094721 7.31788e-16)
(-8.41987 -0.0233053 7.01189e-16)
(-8.40017 -0.0611029 6.75264e-16)
(-8.30155 -0.10678 6.48475e-16)
(-8.12461 -0.142552 6.18583e-16)
(-7.90591 -0.1582 5.88654e-16)
(-7.68784 -0.157856 5.56994e-16)
(-7.49888 -0.146907 5.24646e-16)
(-7.35434 -0.130078 4.93437e-16)
(-7.25921 -0.112049 4.65161e-16)
(-7.21141 -0.0956271 4.40511e-16)
(-7.2064 -0.082287 4.19593e-16)
(-7.23894 -0.0730255 4.01966e-16)
(-7.30232 -0.0679996 3.85387e-16)
(-7.3903 -0.0671226 3.70414e-16)
(-7.49718 -0.0700879 3.56863e-16)
(-7.61783 -0.0765241 3.45843e-16)
(-7.74777 -0.0860617 3.38659e-16)
(-7.88326 -0.0984175 3.33399e-16)
(-8.02101 -0.113367 3.29089e-16)
(-8.15789 -0.130827 3.26294e-16)
(-8.29091 -0.150933 3.24115e-16)
(-8.41723 -0.174077 3.24553e-16)
(-8.53348 -0.200905 3.27126e-16)
(-8.63396 -0.232825 3.30902e-16)
(-8.71212 -0.273786 3.37051e-16)
(-12.01 0.0831653 8.22608e-16)
(-12.3501 0.149909 7.46806e-16)
(-12.3408 -0.0251852 6.85681e-16)
(-12.1951 -0.270191 6.31391e-16)
(-12.0186 -0.511263 5.93866e-16)
(-11.7728 -0.746444 5.65962e-16)
(-11.302 -1.07881 5.45671e-16)
(-10.5368 -1.62915 5.20126e-16)
(-9.66149 -2.33723 4.84566e-16)
(-8.738 -2.92071 4.54214e-16)
(-7.77484 -3.21341 4.52575e-16)
(-6.87648 -3.17958 4.95923e-16)
(-6.19422 -2.82856 5.90859e-16)
(-5.92947 -2.2127 7.39147e-16)
(-6.34583 -1.45148 9.50901e-16)
(-7.71039 -0.804201 1.2592e-15)
(-9.18024 -0.704203 1.63841e-15)
(-8.95492 -0.929964 1.76095e-15)
(-7.85443 -0.823674 1.59336e-15)
(-7.42262 -0.576607 1.39167e-15)
(-7.43293 -0.27683 1.22502e-15)
(-7.55379 0.0956694 1.08711e-15)
(-7.79274 0.368254 9.94601e-16)
(-8.08792 0.347632 9.47975e-16)
(-8.27704 0.150495 9.15078e-16)
(-8.34504 -0.00548502 8.85881e-16)
(-8.33841 -0.10061 8.48434e-16)
(-8.23109 -0.196764 7.98632e-16)
(-8.01984 -0.277699 7.70603e-16)
(-7.76817 -0.305921 7.86474e-16)
(-7.52829 -0.283433 8.08626e-16)
(-7.32715 -0.223982 8.25725e-16)
(-7.17797 -0.143666 8.17246e-16)
(-7.08316 -0.058715 7.84574e-16)
(-7.03772 0.0209606 7.51063e-16)
(-7.0368 0.0914468 7.16988e-16)
(-7.07597 0.152538 6.90901e-16)
(-7.14712 0.204258 6.73935e-16)
(-7.24319 0.247166 6.56169e-16)
(-7.35792 0.282214 6.40329e-16)
(-7.48592 0.310443 6.47812e-16)
(-7.6227 0.33281 6.62714e-16)
(-7.76457 0.350119 6.77601e-16)
(-7.90844 0.363048 6.89948e-16)
(-8.05152 0.371954 7.00977e-16)
(-8.1913 0.376737 7.09015e-16)
(-8.32545 0.376949 7.13941e-16)
(-8.45161 0.371852 7.18171e-16)
(-8.56744 0.359687 7.22719e-16)
(-8.67076 0.33498 7.25693e-16)
(6.23019 -1.50106 1.13636e-15)
(6.50286 -0.177633 1.16467e-15)
(6.51858 0.262793 1.23006e-15)
(6.43635 0.350731 1.32223e-15)
(6.59053 0.13634 1.35679e-15)
(7.25733 -0.367105 1.338e-15)
(8.51854 -1.17723 1.23481e-15)
(9.72455 -2.18167 1.01851e-15)
(10.1732 -3.10863 8.11441e-16)
(10.2231 -3.77366 6.54178e-16)
(10.1368 -4.07986 5.5336e-16)
(9.95444 -3.99189 5.14e-16)
(9.63037 -3.50976 5.35813e-16)
(9.072 -2.67051 6.08829e-16)
(8.15664 -1.55306 7.35121e-16)
(6.70703 -0.290184 8.61151e-16)
(4.9239 0.935949 1.0034e-15)
(3.61141 2.02931 1.17943e-15)
(2.29917 2.75105 1.35533e-15)
(0.717529 2.91064 1.54361e-15)
(-3.22155 1.72957 1.53132e-15)
(-6.31791 0.635763 7.81529e-16)
(-7.21609 0.405268 2.31668e-16)
(-7.94064 0.107207 -1.13667e-16)
(-8.28308 -0.0264373 -3.6624e-16)
(-8.27543 0.10379 -4.78002e-16)
(-8.19427 0.113915 -5.1112e-16)
(-8.06285 -0.218301 -5.03282e-16)
(-7.80896 -0.526604 -4.52322e-16)
(-7.49482 -0.626374 -3.6007e-16)
(-7.19999 -0.60719 -2.53489e-16)
(-6.96264 -0.514579 -1.60659e-16)
(-6.79426 -0.385342 -1.28122e-16)
(-6.69165 -0.248512 -1.30521e-16)
(-6.64324 -0.120982 -1.30096e-16)
(-6.64143 -0.0110875 -1.29389e-16)
(-6.68155 0.0775699 -1.06144e-16)
(-6.75364 0.146046 -8.87384e-17)
(-6.84978 0.1963 -6.54146e-17)
(-6.96332 0.230681 -2.95443e-17)
(-7.08887 0.251455 7.5726e-18)
(-7.22211 0.260665 4.24047e-17)
(-7.35959 0.260138 7.80133e-17)
(-7.4985 0.251458 1.14355e-16)
(-7.63658 0.235803 1.50651e-16)
(-7.77171 0.213833 1.77872e-16)
(-7.90172 0.185936 1.926e-16)
(-8.02456 0.152358 1.94394e-16)
(-8.13942 0.112966 1.85845e-16)
(-8.24748 0.0663388 1.76988e-16)
(16.3802 -1.81744 5.44006e-16)
(17.4004 -1.24389 5.51746e-16)
(18.6815 -1.33909 5.54352e-16)
(20.2611 -1.74614 5.64861e-16)
(21.8967 -2.32111 5.62253e-16)
(23.5133 -3.0369 5.43037e-16)
(24.9475 -3.85086 5.26876e-16)
(25.8988 -4.64101 5.07545e-16)
(26.2685 -5.21358 5.05695e-16)
(26.2008 -5.43791 5.02376e-16)
(25.8433 -5.26416 5.07454e-16)
(25.2792 -4.68355 5.31836e-16)
(24.5405 -3.71757 5.76101e-16)
(23.6125 -2.4189 6.57803e-16)
(22.4352 -0.877178 7.90677e-16)
(21.1094 0.786403 9.40421e-16)
(19.7286 2.40488 1.11361e-15)
(17.9642 3.7672 1.34222e-15)
(15.9091 4.75365 1.57871e-15)
(13.5788 5.33062 1.732e-15)
(10.6796 5.34976 1.89463e-15)
(7.58943 4.92915 1.87969e-15)
(4.53723 4.29633 1.79003e-15)
(1.29239 3.39288 1.68576e-15)
(-5.04027 0.791822 6.78391e-16)
(-7.14707 -0.354475 -2.39267e-16)
(-7.74962 -0.852708 -4.43425e-16)
(-7.96874 -1.18871 -4.2075e-16)
(-7.61511 -1.16867 -4.11955e-16)
(-7.14611 -0.989284 -7.10399e-16)
(-6.72819 -0.885811 -9.05869e-16)
(-6.42198 -0.713642 -1.07507e-15)
(-6.22087 -0.497036 -1.19177e-15)
(-6.10925 -0.276239 -1.17549e-15)
(-6.0627 -0.0783071 -1.13171e-15)
(-6.06765 0.0873505 -1.07197e-15)
(-6.11718 0.220994 -1.0603e-15)
(-6.19867 0.325837 -1.0465e-15)
(-6.30325 0.405962 -9.97247e-16)
(-6.42414 0.465405 -9.32798e-16)
(-6.55617 0.507654 -8.2438e-16)
(-6.69529 0.535651 -7.13192e-16)
(-6.83833 0.551776 -6.29804e-16)
(-6.98291 0.55781 -5.644e-16)
(-7.12725 0.554938 -4.94739e-16)
(-7.26969 0.543699 -4.24513e-16)
(-7.40836 0.523981 -3.565e-16)
(-7.54147 0.495151 -3.17901e-16)
(-7.66855 0.456031 -2.79754e-16)
(-7.79052 0.405075 -2.4695e-16)
(48.1405 0.213545 3.83136e-16)
(47.6494 0.0612193 3.8031e-16)
(47.1423 -0.298647 3.76113e-16)
(46.623 -0.821185 3.69229e-16)
(45.9936 -1.452 3.58726e-16)
(45.2223 -2.1598 3.47969e-16)
(44.2758 -2.90336 3.297e-16)
(43.1199 -3.58299 3.15884e-16)
(41.7795 -4.03842 3.12354e-16)
(40.3387 -4.15411 2.89917e-16)
(38.8875 -3.88246 2.69974e-16)
(37.4938 -3.22448 2.7293e-16)
(36.1993 -2.21937 2.69339e-16)
(35.0188 -0.934766 2.65492e-16)
(33.9179 0.551402 2.39469e-16)
(32.6638 2.14592 2.08653e-16)
(31.0244 3.72211 2.25987e-16)
(29.0356 5.18206 3.04746e-16)
(26.756 6.43771 4.31642e-16)
(24.2371 7.40985 5.96157e-16)
(21.4777 8.01069 8.44151e-16)
(18.5111 8.18719 1.15367e-15)
(15.3497 7.96866 1.42082e-15)
(11.9579 7.39462 1.72118e-15)
(7.7159 6.13376 1.72967e-15)
(4.2194 4.84992 1.54426e-15)
(1.12074 3.38408 1.57057e-15)
(-6.06623 -1.37738 2.3987e-15)
(-6.8377 -2.03664 2.28215e-15)
(-6.46607 -1.78783 1.79056e-15)
(-6.11531 -1.47416 1.45781e-15)
(-5.75717 -1.06516 9.78446e-16)
(-5.51574 -0.72651 6.73141e-16)
(-5.39909 -0.413039 3.78841e-16)
(-5.36128 -0.139938 7.17525e-17)
(-5.37894 0.0813189 -1.25807e-16)
(-5.44209 0.252052 -3.87537e-16)
(-5.53474 0.380599 -5.32632e-16)
(-5.64723 0.474745 -6.0919e-16)
(-5.77289 0.541011 -7.25482e-16)
(-5.90699 0.58465 -7.45972e-16)
(-6.04602 0.609856 -7.47109e-16)
(-6.18743 0.61987 -7.00752e-16)
(-6.32944 0.617109 -5.94103e-16)
(-6.47088 0.603367 -4.51008e-16)
(-6.61084 0.579858 -3.13489e-16)
(-6.74816 0.54717 -1.89987e-16)
(-6.88172 0.505402 -1.22779e-16)
(-7.01172 0.454286 -8.97831e-17)
(-7.13946 0.393566 -4.63622e-17)
(41.1665 -0.212965 1.14249e-16)
(40.6647 -0.580836 1.14229e-16)
(40.1092 -1.02212 1.13472e-16)
(39.5902 -1.53386 1.12845e-16)
(39.0367 -2.05891 1.12235e-16)
(38.4075 -2.54349 1.10564e-16)
(37.6848 -2.93764 1.08505e-16)
(36.8528 -3.17053 1.06214e-16)
(35.9144 -3.16385 1.03494e-16)
(34.8999 -2.87164 1.01419e-16)
(33.8503 -2.28941 1.00348e-16)
(32.7992 -1.44144 9.96486e-17)
(31.7672 -0.367807 1.00001e-16)
(30.7526 0.892328 1.02417e-16)
(29.7244 2.29062 1.02504e-16)
(28.7791 3.75191 1.07749e-16)
(27.885 5.24871 1.09011e-16)
(26.9631 6.74236 1.37211e-16)
(25.9205 8.15654 1.77823e-16)
(24.6744 9.38395 2.63477e-16)
(23.155 10.3056 4.06534e-16)
(21.3156 10.8228 5.79312e-16)
(19.1317 10.8937 7.68932e-16)
(16.6009 10.5297 1.02427e-15)
(13.6476 9.66805 1.1691e-15)
(10.5975 8.43002 1.24185e-15)
(7.54013 6.88188 1.43758e-15)
(3.34096 4.28228 1.69689e-15)
(0.98235 2.67245 1.76e-15)
(-4.91202 -1.70622 1.241e-15)
(-5.398 -2.00932 1.28328e-15)
(-4.84626 -1.44624 1.29237e-15)
(-4.63019 -0.912921 1.22902e-15)
(-4.54182 -0.480816 9.60463e-16)
(-4.52255 -0.129705 7.47241e-16)
(-4.56298 0.145189 3.55092e-16)
(-4.64451 0.351215 8.54264e-17)
(-4.74956 0.503518 -5.63968e-17)
(-4.86924 0.614241 -1.3033e-16)
(-4.99817 0.692589 -2.73028e-16)
(-5.13284 0.74549 -3.48888e-16)
(-5.27088 0.778089 -3.85581e-16)
(-5.41073 0.79414 -3.98832e-16)
(-5.55144 0.796361 -3.61297e-16)
(-5.69252 0.786654 -2.67396e-16)
(-5.83362 0.766249 -1.37162e-16)
(-5.97405 0.735756 4.52596e-19)
(-6.11287 0.695236 1.39537e-16)
(-6.25029 0.644425 2.02303e-16)
(-6.3872 0.583245 2.38428e-16)
(37.523 0.982125 6.6003e-17)
(36.9076 0.618517 6.61268e-17)
(36.2993 0.222741 6.5686e-17)
(35.772 -0.188956 6.5487e-17)
(35.2183 -0.589074 6.55681e-17)
(34.5979 -0.945588 6.51085e-17)
(33.8986 -1.22653 6.44676e-17)
(33.1142 -1.39368 6.36752e-17)
(32.2482 -1.40397 6.2319e-17)
(31.3194 -1.22342 6.14274e-17)
(30.3566 -0.836226 6.11114e-17)
(29.3883 -0.241086 6.04588e-17)
(28.4184 0.556728 6.0161e-17)
(27.3979 1.54755 6.0241e-17)
(26.4223 2.71283 6.17837e-17)
(25.524 4.0515 6.50461e-17)
(24.7193 5.54525 6.94865e-17)
(23.9982 7.14037 7.91195e-17)
(23.3147 8.74333 9.69064e-17)
(22.5914 10.2301 1.34375e-16)
(21.7339 11.4664 2.07632e-16)
(20.6503 12.3307 3.18891e-16)
(19.271 12.743 4.76148e-16)
(17.5626 12.6757 6.70777e-16)
(15.508 12.1076 8.67557e-16)
(13.2082 11.0739 1.03603e-15)
(10.7518 9.64359 1.22174e-15)
(7.89749 7.67349 1.43419e-15)
(5.34375 5.78364 1.60901e-15)
(1.88981 3.13185 1.57963e-15)
(-0.780116 0.858527 1.45615e-15)
(-4.07262 -1.68772 1.4291e-15)
(-3.658 -1.07799 1.32733e-15)
(-3.54544 -0.539389 1.07218e-15)
(-3.59087 -0.108504 8.9453e-16)
(-3.6589 0.213272 5.75619e-16)
(-3.76109 0.446261 3.36747e-16)
(-3.87769 0.613891 1.41139e-16)
(-4.00197 0.733303 -2.96181e-17)
(-4.13071 0.816416 -1.88125e-16)
(-4.26214 0.871661 -2.63748e-16)
(-4.39523 0.904954 -3.53899e-16)
(-4.52937 0.920485 -3.84799e-16)
(-4.66433 0.921287 -3.32733e-16)
(-4.80024 0.909468 -2.18792e-16)
(-4.93726 0.886435 -9.91968e-17)
(-5.07512 0.852984 5.35868e-17)
(-5.21323 0.809338 1.95747e-16)
(-5.35202 0.755371 3.22141e-16)
(-5.49239 0.691306 3.77955e-16)
(31.0668 1.20093 4.8848e-17)
(30.4282 0.78356 4.91789e-17)
(29.8077 0.349024 4.88244e-17)
(29.2687 -0.0754447 4.87596e-17)
(28.7978 -0.472666 4.91859e-17)
(28.2728 -0.806963 4.9035e-17)
(27.686 -1.05432 4.87907e-17)
(27.0391 -1.1865 4.84482e-17)
(26.3369 -1.17 4.78506e-17)
(25.5915 -0.97448 4.72141e-17)
(24.8224 -0.578294 4.68697e-17)
(24.0125 0.0393759 4.66169e-17)
(23.1536 0.896156 4.64575e-17)
(22.3654 1.97867 4.67379e-17)
(21.6693 3.26379 4.69212e-17)
(21.0651 4.70909 4.86274e-17)
(20.5412 6.25833 5.22202e-17)
(20.0801 7.85227 5.71385e-17)
(19.6598 9.42867 6.6115e-17)
(19.2462 10.9133 8.43205e-17)
(18.7821 12.2145 1.22009e-16)
(18.1909 13.2287 1.88857e-16)
(17.3972 13.8632 2.96565e-16)
(16.3494 14.0577 4.44892e-16)
(15.0244 13.7781 6.21753e-16)
(13.4471 13.0184 7.93564e-16)
(11.6597 11.8123 9.70805e-16)
(9.60414 10.1477 1.15785e-15)
(7.4979 8.26873 1.32976e-15)
(5.07158 6.03936 1.47033e-15)
(2.68768 3.84846 1.60799e-15)
(0.554727 1.82664 1.77792e-15)
(-2.65074 -1.05666 2.04131e-15)
(-2.58958 -0.573091 1.7396e-15)
(-2.59148 -0.0647976 1.4821e-15)
(-2.70019 0.29797 1.11416e-15)
(-2.81779 0.549663 7.81133e-16)
(-2.93842 0.72608 5.2386e-16)
(-3.05882 0.850283 2.9884e-16)
(-3.17873 0.936458 1.08054e-16)
(-3.29841 0.994086 -1.36457e-17)
(-3.41828 1.02968 -1.61447e-16)
(-3.53874 1.04769 -2.18608e-16)
(-3.66033 1.05118 -1.89059e-16)
(-3.78391 1.04216 -1.08368e-16)
(-3.91034 1.02192 2.13614e-17)
(-4.03996 0.991102 1.72673e-16)
(-4.17259 0.949723 2.93381e-16)
(-4.30882 0.897464 3.86561e-16)
(-4.44926 0.834682 4.69409e-16)
(24.854 1.92547 3.93231e-17)
(24.1313 1.51795 3.97339e-17)
(23.5191 1.10102 3.94076e-17)
(22.996 0.700843 3.94889e-17)
(22.484 0.328634 4.00339e-17)
(22.0252 0.0115775 3.99916e-17)
(21.5555 -0.205838 3.99479e-17)
(21.0409 -0.290546 3.9839e-17)
(20.4922 -0.215481 3.89597e-17)
(19.9201 0.0459924 3.87386e-17)
(19.2736 0.517677 3.93301e-17)
(18.5908 1.20179 3.92424e-17)
(17.9501 2.07565 3.9416e-17)
(17.3705 3.11907 3.98654e-17)
(16.8582 4.30242 4.01188e-17)
(16.4115 5.59205 4.12527e-17)
(16.0282 6.95604 4.38831e-17)
(15.7097 8.36642 4.7224e-17)
(15.4551 9.79306 5.27908e-17)
(15.2501 11.19 6.32717e-17)
(15.0571 12.4856 8.4867e-17)
(14.8159 13.5857 1.26229e-16)
(14.4581 14.3902 1.99964e-16)
(13.9267 14.8148 3.11097e-16)
(13.1851 14.7995 4.55973e-16)
(12.2222 14.3089 6.20685e-16)
(11.0446 13.3476 7.92846e-16)
(9.63586 11.9346 9.77034e-16)
(8.08064 10.1948 1.15827e-15)
(6.31586 8.16351 1.32861e-15)
(4.49943 6.06281 1.4961e-15)
(2.73232 4.04811 1.62817e-15)
(0.739548 1.86315 2.04376e-15)
(-1.34363 -0.348083 2.96683e-15)
(-1.6053 -0.0406188 2.71063e-15)
(-1.72935 0.373177 2.16953e-15)
(-1.85088 0.64095 1.74693e-15)
(-1.96167 0.819706 1.38816e-15)
(-2.06501 0.945 1.06988e-15)
(-2.1642 1.03214 7.73389e-16)
(-2.26098 1.09105 5.36553e-16)
(-2.35693 1.1287 3.04635e-16)
(-2.45342 1.14966 1.1697e-16)
(-2.55171 1.15679 -8.72132e-18)
(-2.65326 1.15186 -5.58481e-17)
(-2.75948 1.13599 2.25213e-17)
(-2.87123 1.10971 1.39334e-16)
(-2.98858 1.07297 2.46825e-16)
(-3.11205 1.02534 3.3229e-16)
(-3.24181 0.967451 3.41933e-16)
(17.8524 2.4596 3.42621e-17)
(17.0646 2.02151 3.46909e-17)
(16.4846 1.5811 3.46051e-17)
(16.01 1.15315 3.47388e-17)
(15.5445 0.741191 3.5185e-17)
(15.0643 0.382059 3.5158e-17)
(14.6095 0.12778 3.51484e-17)
(14.1886 0.0212254 3.51536e-17)
(13.7489 0.0941438 3.45665e-17)
(13.2539 0.368744 3.44007e-17)
(12.7818 0.851359 3.50223e-17)
(12.3694 1.5397 3.51832e-17)
(12.0254 2.41422 3.55353e-17)
(11.7369 3.44052 3.61318e-17)
(11.4887 4.57665 3.64428e-17)
(11.2761 5.7893 3.75289e-17)
(11.1043 7.06053 3.98735e-17)
(10.985 8.38021 4.25715e-17)
(10.9284 9.73372 4.67262e-17)
(10.9333 11.0912 5.39693e-17)
(10.9774 12.3959 6.82195e-17)
(11.0182 13.5647 9.62352e-17)
(11.0016 14.4991 1.49136e-16)
(10.8755 15.1035 2.34601e-16)
(10.5982 15.3004 3.53649e-16)
(10.1422 15.0371 4.99642e-16)
(9.49401 14.3002 6.65572e-16)
(8.64237 13.1107 8.46289e-16)
(7.62439 11.5497 1.0277e-15)
(6.43233 9.69167 1.22021e-15)
(5.14268 7.6896 1.39533e-15)
(3.82127 5.69588 1.57675e-15)
(2.41388 3.70753 1.90157e-15)
(0.940228 1.74252 2.46211e-15)
(-0.345411 0.293729 2.75498e-15)
(-0.784848 0.341964 2.83889e-15)
(-0.900789 0.660677 2.49477e-15)
(-0.984662 0.860122 2.1307e-15)
(-1.0532 0.994703 1.77491e-15)
(-1.1175 1.08612 1.4234e-15)
(-1.17863 1.14798 1.12434e-15)
(-1.23849 1.18917 8.2656e-16)
(-1.29915 1.2149 5.58383e-16)
(-1.36223 1.22791 3.45374e-16)
(-1.42939 1.22965 2.00279e-16)
(-1.50232 1.22088 1.38917e-16)
(-1.58229 1.20196 1.68896e-16)
(-1.6698 1.17262 2.09772e-16)
(-1.76545 1.13189 2.33398e-16)
(-1.86906 1.08002 2.73658e-16)
(10.4268 3.05814 3.1723e-17)
(9.45653 2.58543 3.22029e-17)
(8.90238 2.15455 3.22498e-17)
(8.48552 1.73279 3.24767e-17)
(8.06511 1.33594 3.29354e-17)
(7.61939 0.995512 3.29666e-17)
(7.15624 0.744856 3.30028e-17)
(6.68577 0.625814 3.30624e-17)
(6.23045 0.680281 3.31534e-17)
(5.85257 0.932262 3.29699e-17)
(5.62922 1.3847 3.30847e-17)
(5.57606 2.02131 3.35652e-17)
(5.64142 2.80417 3.40585e-17)
(5.74978 3.70009 3.47936e-17)
(5.85189 4.6931 3.53052e-17)
(5.93765 5.77537 3.60947e-17)
(6.02347 6.93994 3.79675e-17)
(6.13491 8.17749 4.04913e-17)
(6.2958 9.47149 4.4196e-17)
(6.51538 10.793 5.00145e-17)
(6.78183 12.092 6.09527e-17)
(7.06711 13.2935 8.23993e-17)
(7.33238 14.3048 1.23632e-16)
(7.53573 15.0281 1.93128e-16)
(7.63845 15.3778 2.94046e-16)
(7.60756 15.2914 4.24006e-16)
(7.41858 14.7435 5.77852e-16)
(7.05621 13.7493 7.51174e-16)
(6.53445 12.3685 9.39593e-16)
(5.8586 10.6791 1.13093e-15)
(5.0716 8.80369 1.32543e-15)
(4.20557 6.87144 1.50039e-15)
(3.25529 4.95546 1.76092e-15)
(2.26196 3.1731 2.13893e-15)
(1.30796 1.65815 2.44252e-15)
(0.551932 0.747012 2.76965e-15)
(0.104407 0.542606 2.74314e-15)
(-0.00916079 0.754682 2.50319e-15)
(-0.0498732 0.921508 2.27223e-15)
(-0.0759303 1.02939 1.99341e-15)
(-0.0931592 1.10129 1.71564e-15)
(-0.107291 1.15139 1.38547e-15)
(-0.122345 1.18669 1.05414e-15)
(-0.140552 1.21025 7.53753e-16)
(-0.163345 1.2232 5.24201e-16)
(-0.192149 1.22601 4.03833e-16)
(-0.228498 1.21897 3.79946e-16)
(-0.273604 1.20204 4.44706e-16)
(-0.328424 1.17387 4.98471e-16)
(-0.392613 1.13421 5.02708e-16)
(1.1817 4.28256 3.18839e-17)
(0.431302 3.01074 3.22233e-17)
(0.534875 2.50521 3.23941e-17)
(0.443765 2.04087 3.25627e-17)
(0.120741 1.62863 3.31321e-17)
(-0.382535 1.26422 3.34949e-17)
(-0.327933 1.09795 3.39417e-17)
(-0.0544602 1.06041 3.40236e-17)
(-0.0543877 1.16249 3.43281e-17)
(-0.163204 1.40844 3.31602e-17)
(-0.206565 1.78055 3.33918e-17)
(-0.112754 2.28228 3.40458e-17)
(0.0679302 2.92285 3.44866e-17)
(0.28776 3.69625 3.50819e-17)
(0.521771 4.59375 3.55274e-17)
(0.769475 5.60109 3.63623e-17)
(1.0434 6.70293 3.79208e-17)
(1.36633 7.91944 4.07837e-17)
(1.73223 9.15251 4.43184e-17)
(2.1565 10.4207 4.96969e-17)
(2.62922 11.6762 5.93343e-17)
(3.1335 12.8581 7.79185e-17)
(3.64534 13.8843 1.13675e-16)
(4.13276 14.6619 1.74603e-16)
(4.56094 15.1036 2.64237e-16)
(4.89632 15.1419 3.82651e-16)
(5.10956 14.7432 5.26863e-16)
(5.17984 13.9142 6.93134e-16)
(5.10688 12.7002 8.77274e-16)
(4.89552 11.1719 1.07153e-15)
(4.57082 9.43321 1.26742e-15)
(4.14803 7.59997 1.44049e-15)
(3.62974 5.77205 1.65207e-15)
(3.03911 4.06502 1.90856e-15)
(2.43276 2.62143 2.09395e-15)
(1.8812 1.56499 2.27869e-15)
(1.44964 0.967355 2.34698e-15)
(1.22108 0.813975 2.2767e-15)
(1.12958 0.85595 2.12216e-15)
(1.10375 0.941407 2.00719e-15)
(1.10817 1.01921 1.8721e-15)
(1.12542 1.08033 1.64581e-15)
(1.14593 1.12655 1.34812e-15)
(1.16465 1.16049 1.0051e-15)
(1.17926 1.18365 6.90443e-16)
(1.18843 1.19664 4.88559e-16)
(1.19091 1.19967 3.99659e-16)
(1.18506 1.19295 4.16692e-16)
(1.16988 1.17619 4.74787e-16)
(1.14354 1.14958 5.78291e-16)
(-7.7109 3.4827 3.00177e-17)
(-7.53488 2.946 3.02625e-17)
(-7.24288 2.50516 3.10602e-17)
(-7.12999 2.08612 3.17884e-17)
(-7.03271 1.72634 3.28845e-17)
(-6.89941 1.43666 3.45912e-17)
(-6.71079 1.23668 3.55263e-17)
(-6.57454 1.13201 3.56881e-17)
(-6.46865 1.15667 3.54138e-17)
(-6.31658 1.32659 3.48934e-17)
(-6.11585 1.63504 3.49993e-17)
(-5.86614 2.07745 3.57378e-17)
(-5.57235 2.65729 3.61759e-17)
(-5.23757 3.37351 3.67597e-17)
(-4.86564 4.21914 3.76077e-17)
(-4.45604 5.17984 3.84751e-17)
(-4.00489 6.23825 4.00537e-17)
(-3.4961 7.38697 4.32081e-17)
(-2.92524 8.57803 4.7007e-17)
(-2.28652 9.80238 5.28959e-17)
(-1.58635 11.0199 6.29393e-17)
(-0.835788 12.1794 8.12992e-17)
(-0.0485067 13.2108 1.14902e-16)
(0.754435 14.0343 1.7208e-16)
(1.52145 14.5398 2.57114e-16)
(2.19726 14.6525 3.6863e-16)
(2.77326 14.3591 5.04875e-16)
(3.22931 13.6633 6.64472e-16)
(3.55674 12.597 8.43766e-16)
(3.75721 11.2186 1.03618e-15)
(3.84707 9.61648 1.23063e-15)
(3.83492 7.89912 1.39874e-15)
(3.71976 6.17944 1.57578e-15)
(3.50666 4.57099 1.75803e-15)
(3.22528 3.19167 1.87465e-15)
(2.92066 2.13018 1.95109e-15)
(2.64039 1.42059 1.98019e-15)
(2.44393 1.04445 1.95039e-15)
(2.34207 0.900864 1.87183e-15)
(2.31154 0.883747 1.80108e-15)
(2.32578 0.919907 1.73502e-15)
(2.36451 0.971033 1.62698e-15)
(2.41423 1.0207 1.43869e-15)
(2.46676 1.06303 1.17312e-15)
(2.51757 1.09632 8.672e-16)
(2.56417 1.12016 5.85205e-16)
(2.60495 1.1345 3.66041e-16)
(2.63837 1.13945 2.31754e-16)
(2.66317 1.13529 1.6854e-16)
(2.67676 1.12266 1.78652e-16)
(-14.377 3.09821 2.44852e-17)
(-13.7993 2.83535 2.61514e-17)
(-13.4232 2.43986 2.87458e-17)
(-13.1374 2.02765 3.10594e-17)
(-12.9089 1.63566 3.38249e-17)
(-12.7294 1.29202 3.67182e-17)
(-12.584 1.03333 3.81489e-17)
(-12.4476 0.895865 3.86489e-17)
(-12.291 0.898471 3.90388e-17)
(-12.0962 1.04252 3.88449e-17)
(-11.857 1.3225 3.92593e-17)
(-11.5662 1.73444 4.04629e-17)
(-11.2154 2.27795 4.1402e-17)
(-10.7972 2.95127 4.26325e-17)
(-10.3077 3.7476 4.43517e-17)
(-9.74577 4.65467 4.6635e-17)
(-9.1117 5.65638 4.94756e-17)
(-8.40476 6.73239 5.36579e-17)
(-7.62133 7.85699 5.89578e-17)
(-6.7614 9.01042 6.65395e-17)
(-5.82726 10.1603 7.87547e-17)
(-4.82566 11.2622 9.95115e-17)
(-3.76649 12.2557 1.33963e-16)
(-2.66728 13.0685 1.88987e-16)
(-1.56335 13.6103 2.66428e-16)
(-0.505689 13.8069 3.71024e-16)
(0.479992 13.6241 5.01366e-16)
(1.34923 13.0317 6.59937e-16)
(2.03896 12.0958 8.38443e-16)
(2.59675 10.862 1.03075e-15)
(3.04759 9.3963 1.22285e-15)
(3.40526 7.80023 1.38241e-15)
(3.66013 6.20485 1.532e-15)
(3.79535 4.71878 1.66586e-15)
(3.81944 3.43952 1.74761e-15)
(3.76317 2.43378 1.77898e-15)
(3.66774 1.7181 1.7674e-15)
(3.57854 1.26617 1.723e-15)
(3.5238 1.01849 1.65595e-15)
(3.51122 0.909171 1.58684e-15)
(3.53586 0.882177 1.52949e-15)
(3.58775 0.897815 1.47244e-15)
(3.65672 0.931564 1.37726e-15)
(3.73451 0.969779 1.22019e-15)
(3.81525 1.00546 1.00639e-15)
(3.895 1.03527 7.63802e-16)
(3.97109 1.05782 5.23938e-16)
(4.04143 1.07267 3.16327e-16)
(4.10427 1.07987 1.5167e-16)
(4.15651 1.07986 3.81315e-17)
(-19.5 2.52631 1.79187e-17)
(-18.8921 2.33555 2.14179e-17)
(-18.4995 2.03819 2.53016e-17)
(-18.1797 1.71634 2.86658e-17)
(-17.9361 1.41214 3.21569e-17)
(-17.7535 1.15711 3.55828e-17)
(-17.6118 0.975414 3.81524e-17)
(-17.4857 0.884466 4.04106e-17)
(-17.3512 0.894495 4.24676e-17)
(-17.1874 1.01179 4.41036e-17)
(-16.9771 1.24044 4.62263e-17)
(-16.7055 1.58369 4.89527e-17)
(-16.3591 2.04411 5.16789e-17)
(-15.926 2.62193 5.48944e-17)
(-15.3966 3.31318 5.87876e-17)
(-14.7652 4.10905 6.29626e-17)
(-14.0282 4.99651 6.83639e-17)
(-13.1841 5.95873 7.55585e-17)
(-12.2318 6.97537 8.32746e-17)
(-11.1724 8.02474 9.29888e-17)
(-10.0087 9.07767 1.07433e-16)
(-8.74797 10.0943 1.3089e-16)
(-7.40245 11.0213 1.68451e-16)
(-5.99589 11.7922 2.23525e-16)
(-4.56307 12.3323 2.98454e-16)
(-3.14419 12.5778 3.97989e-16)
(-1.7772 12.4894 5.23326e-16)
(-0.508522 12.0413 6.76209e-16)
(0.605996 11.2426 8.55736e-16)
(1.53239 10.1265 1.05389e-15)
(2.28369 8.80749 1.2399e-15)
(2.96172 7.33799 1.38714e-15)
(3.55191 5.88144 1.51467e-15)
(4.00329 4.5423 1.61825e-15)
(4.30555 3.3943 1.68371e-15)
(4.48121 2.48257 1.70422e-15)
(4.56868 1.81381 1.68079e-15)
(4.60954 1.36204 1.61997e-15)
(4.63687 1.08274 1.52713e-15)
(4.67121 0.928659 1.43232e-15)
(4.722 0.858479 1.35052e-15)
(4.7909 0.840143 1.28058e-15)
(4.87521 0.850888 1.21199e-15)
(4.97059 0.87569 1.12236e-15)
(5.07263 0.905302 1.0035e-15)
(5.17754 0.934429 8.57595e-16)
(5.28216 0.960344 6.92002e-16)
(5.38367 0.981773 5.23494e-16)
(5.47954 0.998204 3.64565e-16)
(5.56575 1.00958 2.2307e-16)
(-23.8283 1.98524 2.17528e-17)
(-23.251 1.85823 2.68232e-17)
(-22.8785 1.66117 3.19763e-17)
(-22.5691 1.43639 3.61967e-17)
(-22.3297 1.21494 4.06773e-17)
(-22.1471 1.02155 4.53871e-17)
(-22.0044 0.876638 4.91329e-17)
(-21.8818 0.796743 5.25386e-17)
(-21.7582 0.794765 5.56642e-17)
(-21.6124 0.88035 5.86243e-17)
(-21.4243 1.06004 6.19039e-17)
(-21.1749 1.33821 6.55242e-17)
(-20.8466 1.71766 6.94203e-17)
(-20.4232 2.19908 7.39503e-17)
(-19.8905 2.78018 7.92773e-17)
(-19.237 3.45503 8.54112e-17)
(-18.4536 4.2138 9.35392e-17)
(-17.5335 5.04283 1.0396e-16)
(-16.472 5.92504 1.15986e-16)
(-15.2669 6.84025 1.30521e-16)
(-13.9199 7.76303 1.49182e-16)
(-12.4383 8.66011 1.75406e-16)
(-10.837 9.48807 2.13185e-16)
(-9.14121 10.1926 2.68167e-16)
(-7.38636 10.7118 3.43215e-16)
(-5.61594 10.9867 4.41491e-16)
(-3.88018 10.9743 5.64075e-16)
(-2.23972 10.6521 7.15514e-16)
(-0.746671 10.0263 8.92453e-16)
(0.576795 9.07947 1.0887e-15)
(1.65309 7.87641 1.28006e-15)
(2.59075 6.5444 1.40781e-15)
(3.47438 5.24726 1.51269e-15)
(4.2065 4.08267 1.58957e-15)
(4.75409 3.09693 1.63778e-15)
(5.13511 2.31233 1.6551e-15)
(5.38832 1.72685 1.634e-15)
(5.55598 1.31756 1.57533e-15)
(5.67451 1.05036 1.47884e-15)
(5.77075 0.889589 1.3638e-15)
(5.86197 0.803687 1.25531e-15)
(5.95759 0.767303 1.16416e-15)
(6.06152 0.761524 1.0926e-15)
(6.17422 0.773179 1.02738e-15)
(6.2944 0.793762 9.60095e-16)
(6.41989 0.81819 8.86407e-16)
(6.54807 0.843695 8.01284e-16)
(6.676 0.868857 7.08695e-16)
(6.80056 0.892936 6.14947e-16)
(6.91691 0.915592 5.22256e-16)
(-27.6256 1.49823 2.51254e-17)
(-27.088 1.40973 3.103e-17)
(-26.7315 1.26782 3.72653e-17)
(-26.4237 1.10044 4.31355e-17)
(-26.1751 0.930452 4.9537e-17)
(-25.9772 0.777721 5.61752e-17)
(-25.8178 0.659215 6.20126e-17)
(-25.6811 0.588993 6.7536e-17)
(-25.5486 0.578428 7.27921e-17)
(-25.4001 0.636306 7.78963e-17)
(-25.2149 0.76915 8.33351e-17)
(-24.9721 0.981697 8.92062e-17)
(-24.6517 1.27721 9.54484e-17)
(-24.2343 1.65726 1.02401e-16)
(-23.7023 2.12118 1.10367e-16)
(-23.0398 2.66543 1.19133e-16)
(-22.2328 3.28296 1.30128e-16)
(-21.2688 3.96292 1.43763e-16)
(-20.1374 4.69086 1.59485e-16)
(-18.8309 5.44918 1.78471e-16)
(-17.3466 6.21669 2.01992e-16)
(-15.69 6.96759 2.31986e-16)
(-13.8772 7.66939 2.71463e-16)
(-11.9355 8.2812 3.25565e-16)
(-9.90331 8.75451 3.99215e-16)
(-7.82751 9.03915 4.97488e-16)
(-5.76211 9.09352 6.19377e-16)
(-3.76917 8.89355 7.67467e-16)
(-1.91554 8.43893 9.38182e-16)
(-0.257151 7.72902 1.12134e-15)
(1.22866 6.63701 1.32073e-15)
(2.37966 5.44907 1.41854e-15)
(3.49865 4.34384 1.4966e-15)
(4.46741 3.38496 1.54748e-15)
(5.22129 2.58888 1.58129e-15)
(5.77432 1.95675 1.60138e-15)
(6.16792 1.4795 1.59618e-15)
(6.44705 1.13807 1.55661e-15)
(6.65121 0.907614 1.48087e-15)
(6.81115 0.762405 1.38086e-15)
(6.94858 0.679037 1.2757e-15)
(7.07766 0.637906 1.18328e-15)
(7.20688 0.623841 1.10494e-15)
(7.34083 0.62613 1.04103e-15)
(7.48137 0.638035 9.86936e-16)
(7.62839 0.655909 9.40911e-16)
(7.78036 0.678114 8.99066e-16)
(7.93456 0.704069 8.60806e-16)
(8.08765 0.733633 8.27831e-16)
(8.23409 0.767011 8.00658e-16)
(-30.9198 1.12901 6.06495e-17)
(-30.3849 1.08045 6.81688e-17)
(-30.0222 0.99267 7.60737e-17)
(-29.6973 0.884884 8.37575e-17)
(-29.4242 0.772334 9.18064e-17)
(-29.1982 0.668822 1.00133e-16)
(-29.0103 0.586274 1.07929e-16)
(-28.8475 0.534864 1.15502e-16)
(-28.6931 0.523123 1.22786e-16)
(-28.5277 0.55801 1.30062e-16)
(-28.3305 0.645127 1.3751e-16)
(-28.0797 0.788961 1.45209e-16)
(-27.7534 0.992994 1.534e-16)
(-27.3304 1.25959 1.62309e-16)
(-26.7905 1.58957 1.72271e-16)
(-26.1153 1.98161 1.83082e-16)
(-25.2875 2.43139 1.96024e-16)
(-24.291 2.93113 2.1182e-16)
(-23.1104 3.4696 2.30148e-16)
(-21.7322 4.03277 2.52129e-16)
(-20.1481 4.60489 2.78725e-16)
(-18.3595 5.16861 3.11622e-16)
(-16.3809 5.70338 3.53221e-16)
(-14.2418 6.18225 4.07461e-16)
(-11.9842 6.57002 4.80141e-16)
(-9.65813 6.82618 5.75898e-16)
(-7.31801 6.91418 6.95964e-16)
(-5.02259 6.8134 8.33429e-16)
(-2.83838 6.52349 9.91137e-16)
(-0.85459 6.04165 1.15858e-15)
(1.0176 5.1494 1.35923e-15)
(2.40772 4.09806 1.44109e-15)
(3.68824 3.24136 1.4948e-15)
(4.83525 2.53229 1.52614e-15)
(5.74633 1.95993 1.5437e-15)
(6.43015 1.50959 1.55549e-15)
(6.93185 1.1677 1.55837e-15)
(7.29983 0.919189 1.5452e-15)
(7.57619 0.747544 1.5044e-15)
(7.79395 0.636072 1.43995e-15)
(7.97712 0.569136 1.36324e-15)
(8.14236 0.533022 1.29402e-15)
(8.3011 0.516676 1.23333e-15)
(8.46094 0.512216 1.18397e-15)
(8.62649 0.515022 1.1441e-15)
(8.79967 0.523247 1.11108e-15)
(8.98005 0.536855 1.08222e-15)
(9.16532 0.556681 1.0576e-15)
(9.35216 0.583956 1.03909e-15)
(9.53503 0.620396 1.03247e-15)
(-33.5949 0.647547 1.33306e-16)
(-33.0386 0.620609 1.44084e-16)
(-32.6519 0.567972 1.555e-16)
(-32.2956 0.501951 1.66854e-16)
(-31.987 0.431684 1.78783e-16)
(-31.7242 0.365707 1.9123e-16)
(-31.5007 0.311542 2.03172e-16)
(-31.3051 0.275612 2.14942e-16)
(-31.1221 0.2633 2.26507e-16)
(-30.9332 0.278949 2.37464e-16)
(-30.7173 0.326054 2.48838e-16)
(-30.452 0.407401 2.60765e-16)
(-30.1141 0.525161 2.72505e-16)
(-29.6806 0.680952 2.84735e-16)
(-29.1297 0.875591 2.97722e-16)
(-28.4411 1.10867 3.11206e-16)
(-27.5956 1.37792 3.26774e-16)
(-26.5748 1.67874 3.45009e-16)
(-25.3601 2.00411 3.6525e-16)
(-23.9334 2.34545 3.88695e-16)
(-22.2801 2.69405 4.16245e-16)
(-20.3962 3.04188 4.49117e-16)
(-18.2944 3.38016 4.89182e-16)
(-16.0067 3.69533 5.39784e-16)
(-13.5796 3.96566 6.06855e-16)
(-11.065 4.16308 6.94541e-16)
(-8.51106 4.2633 8.02604e-16)
(-5.96333 4.26174 9.19802e-16)
(-3.48312 4.17849 1.04939e-15)
(-1.17618 4.00172 1.19224e-15)
(1.20894 3.35802 1.39976e-15)
(2.78069 2.44663 1.46397e-15)
(4.14072 1.86708 1.50315e-15)
(5.38372 1.41884 1.52523e-15)
(6.38594 1.07485 1.53682e-15)
(7.14685 0.81308 1.54558e-15)
(7.71349 0.617864 1.55227e-15)
(8.13725 0.477568 1.55242e-15)
(8.46211 0.382189 1.53618e-15)
(8.72204 0.322333 1.50387e-15)
(8.94165 0.289068 1.45879e-15)
(9.13844 0.274168 1.41645e-15)
(9.3251 0.27061 1.37664e-15)
(9.51104 0.273237 1.34186e-15)
(9.70284 0.279167 1.31297e-15)
(9.90403 0.287682 1.28934e-15)