/*--------------------------------*- C++ -*----------------------------------*\
  =========                 |
  \\      /  F ield         | OpenFOAM: The Open Source CFD Toolbox
   \\    /   O peration     | Website:  https://openfoam.org
    \\  /    A nd           | Version:  8
     \\/     M anipulation  |
\*---------------------------------------------------------------------------*/
FoamFile
{
    version     2.0;
    format      ascii;
    class       volScalarField;
    location    "300";
    object      alphat;
}
// * * * * * * * * * * * * * * * * * * * * * * * * * * * * * * * * * * * * * //

dimensions      [1 -1 -1 0 0 0 0];

internalField   nonuniform List<scalar> 
8400
(
0.0672948
0.0671235
0.0669673
0.0666233
0.0661963
0.065709
0.0651134
0.0643715
0.0635185
0.0627096
0.0621829
0.0619415
0.0613767
0.0599548
0.0588401
0.0577774
0.0566822
0.0555769
0.0544884
0.0534349
0.0524162
0.0514221
0.0504445
0.0494912
0.0485791
0.0477147
0.0468964
0.0461115
0.045356
0.0446329
0.0439458
0.0432961
0.0426824
0.042105
0.0415663
0.0410658
0.0406023
0.0401725
0.0397724
0.0393999
0.0390417
0.0386656
0.0382603
0.037813
0.0373222
0.0367874
0.0362155
0.0356169
0.0350031
0.0343838
0.0577546
0.0577697
0.0572978
0.0569108
0.0563888
0.055679
0.0545332
0.0529131
0.0509368
0.0493706
0.04975
0.0509728
0.0495414
0.0480434
0.0452495
0.0422022
0.0390723
0.0359331
0.0328336
0.0300083
0.0275867
0.0258649
0.024989
0.0244598
0.0235366
0.0223621
0.0212567
0.0204478
0.0199445
0.0195201
0.0191347
0.0189007
0.018893
0.0191011
0.0194321
0.0198423
0.0203126
0.0208111
0.021299
0.0217431
0.0221406
0.0225636
0.0230215
0.0235371
0.0241208
0.0247742
0.0254918
0.0262595
0.027063
0.0278896
0.0610828
0.0608805
0.060697
0.0605324
0.0603661
0.0602091
0.0600586
0.059903
0.0597414
0.0595803
0.0594159
0.0592326
0.0589631
0.0584098
0.0575762
0.0564669
0.0551239
0.0533796
0.0507867
0.0464295
0.0303226
0.0231452
0.0235811
0.0223441
0.0221047
0.0215113
0.021292
0.0212533
0.0214763
0.0218642
0.0223883
0.0230052
0.0236659
0.0243328
0.0249932
0.0256326
0.0262323
0.0267841
0.0273006
0.0277996
0.0283058
0.0288776
0.0295356
0.0303012
0.0311825
0.0321772
0.0332634
0.0344039
0.0355607
0.0367093
0.0611629
0.061079
0.060997
0.0609125
0.0608326
0.0607503
0.0606691
0.0605911
0.0605116
0.0604252
0.0603377
0.0602239
0.0600897
0.0599112
0.0596699
0.0593376
0.0588845
0.0582607
0.0573541
0.055919
0.053894
0.0506108
0.0465909
0.0421876
0.0369492
0.0268216
0.0210805
0.0237682
0.0244025
0.0258913
0.0269221
0.0283158
0.029472
0.030478
0.0313736
0.0321505
0.0327866
0.0333268
0.0338435
0.034369
0.0349135
0.0354997
0.0361802
0.0369843
0.0379093
0.0389594
0.0400958
0.0412435
0.04234
0.0433483
0.0611899
0.0611414
0.0610923
0.0610414
0.0609941
0.0609438
0.0608917
0.0608418
0.0607901
0.0607309
0.0606613
0.0605842
0.0604972
0.0603964
0.0602765
0.0601274
0.0599346
0.0596782
0.0593223
0.0587977
0.0580237
0.0568156
0.0551493
0.0530002
0.050212
0.0468318
0.0431254
0.0396219
0.0358387
0.0311023
0.0243852
0.0277352
0.0319977
0.0333488
0.0356708
0.0372831
0.0384094
0.0390753
0.0396513
0.0402392
0.0408832
0.0415838
0.042234
0.042976
0.0438299
0.04486
0.0459999
0.0471098
0.0480657
0.0488658
0.0611671
0.0610904
0.0610106
0.0609339
0.0608496
0.0607696
0.0606908
0.060607
0.0605297
0.060464
0.0604068
0.0603558
0.0603051
0.0602517
0.0601904
0.0601146
0.0600192
0.0598973
0.0597348
0.0595046
0.0591684
0.0586643
0.0579397
0.0569414
0.0555929
0.0538481
0.0517232
0.0494606
0.046995
0.0440781
0.0415027
0.0392932
0.0372439
0.0344298
0.0303385
0.0338345
0.0403242
0.0422792
0.0444051
0.045242
0.0458209
0.0463582
0.0471984
0.0479064
0.0485277
0.049435
0.0505569
0.0516476
0.0525172
0.0532606
0.061162
0.0610737
0.0609846
0.0608979
0.0608051
0.0607121
0.0606223
0.0605309
0.0604375
0.0603474
0.0602637
0.0601818
0.0601077
0.0600431
0.059985
0.0599302
0.0598733
0.0598058
0.0597211
0.0596071
0.0594453
0.0592085
0.0588647
0.0583808
0.0577141
0.0568264
0.0557004
0.054392
0.0529088
0.0511999
0.0494057
0.0476373
0.0459947
0.0441203
0.0423272
0.0406795
0.0396251
0.0385309
0.0373604
0.041119
0.0470666
0.0492035
0.0492193
0.0493012
0.0495474
0.0504621
0.0517165
0.0526104
0.0531238
0.0535287
0.0611447
0.061038
0.060934
0.0608148
0.060708
0.0605965
0.0604856
0.060379
0.0602737
0.0601733
0.0600783
0.0599905
0.059912
0.0598391
0.0597741
0.0597188
0.0596698
0.0596228
0.0595724
0.059508
0.0594193
0.0592946
0.0591169
0.058866
0.0585203
0.0580543
0.057448
0.0567084
0.0558403
0.0548367
0.0537278
0.0525625
0.0513947
0.0501492
0.0488462
0.0475132
0.0463507
0.0451911
0.0440461
0.0433499
0.0433562
0.0440543
0.0446581
0.0444921
0.0446164
0.0483021
0.0521588
0.0533816
0.0530947
0.0526493
0.0611125
0.0609643
0.060832
0.0606867
0.0605469
0.0603954
0.0602551
0.0601141
0.0599793
0.0598654
0.0597603
0.0596714
0.0596071
0.0595565
0.0595158
0.0594815
0.0594504
0.0594189
0.0593831
0.0593448
0.0592939
0.0592191
0.0591152
0.0589715
0.0587756
0.058512
0.0581672
0.0577378
0.057221
0.0566173
0.0559361
0.0551955
0.0544188
0.0535946
0.0527248
0.0518221
0.0509455
0.0500781
0.0492316
0.0485128
0.0480562
0.0479948
0.0481891
0.0485401
0.0488966
0.0492906
0.0501602
0.0509582
0.0516192
0.0521015
0.0610666
0.0608532
0.0606268
0.0604516
0.0602858
0.0601356
0.0600122
0.0598507
0.0597043
0.0595566
0.0594272
0.0593379
0.0592928
0.0592745
0.0592657
0.0592659
0.0592706
0.0592661
0.059245
0.0592133
0.0591683
0.0591073
0.0590287
0.0589255
0.0587937
0.0586261
0.0584102
0.0581398
0.0578147
0.0574359
0.0570053
0.0565288
0.0560153
0.0554666
0.0548877
0.0542833
0.0536732
0.0530673
0.0524837
0.0519651
0.0515735
0.051368
0.0513454
0.0514859
0.0517529
0.0518962
0.0520952
0.0524198
0.0526777
0.0528704
0.0609813
0.0607612
0.0606905
0.0612486
0.062511
0.0645477
0.0666094
0.0663756
0.0636554
0.0609151
0.0590172
0.0581852
0.0580181
0.0582415
0.0585206
0.0587375
0.0588837
0.058974
0.0590128
0.0590112
0.05898
0.0589257
0.0588534
0.0587677
0.0586677
0.0585446
0.0583927
0.0582079
0.0579883
0.0577348
0.0574482
0.0571285
0.0567794
0.0564028
0.0560044
0.0555878
0.0551627
0.0547389
0.0543312
0.0539606
0.0536552
0.0534418
0.0533311
0.0533174
0.05338
0.0534718
0.0534822
0.0535058
0.0535526
0.0535748
0.0589231
0.0571447
0.0558827
0.0556566
0.056442
0.0569878
0.0568175
0.05732
0.0580936
0.0594357
0.0579278
0.0564322
0.0565109
0.0571944
0.0576203
0.0578157
0.0581119
0.0583106
0.0584504
0.0585324
0.0585635
0.0585594
0.0585236
0.0584664
0.0583931
0.0582994
0.0581837
0.0580482
0.0578941
0.0577177
0.0575176
0.0572937
0.0570459
0.0567789
0.0564976
0.056202
0.0558952
0.0555857
0.055286
0.0550056
0.0547579
0.0545536
0.0544018
0.054303
0.0542446
0.0542165
0.0541529
0.0540631
0.0539731
0.0538767
0.0505867
0.048634
0.0478682
0.048061
0.0487764
0.0495619
0.0504966
0.0516467
0.0530558
0.0547809
0.0567939
0.0583947
0.0586627
0.0583824
0.0582592
0.0582046
0.058255
0.0582933
0.0583032
0.0581929
0.0581181
0.058083
0.0580517
0.0580243
0.0579817
0.0579238
0.0578468
0.0577521
0.0576425
0.0575169
0.057371
0.0572054
0.0570209
0.0568235
0.0566128
0.0563904
0.0561588
0.0559208
0.0556841
0.0554531
0.0552349
0.0550392
0.0548693
0.054721
0.0545943
0.0544714
0.054348
0.0541942
0.0540335
0.0538649
0.0462911
0.0462053
0.046683
0.0473804
0.0480331
0.0486158
0.0493081
0.0501234
0.0510861
0.0522242
0.0535431
0.0550265
0.0566013
0.0578896
0.0584228
0.0585597
0.0585344
0.0584268
0.0582486
0.0580493
0.0579212
0.0578374
0.0577927
0.0577625
0.0577023
0.057565
0.0574636
0.0573788
0.0572939
0.0571969
0.057086
0.0569594
0.0568167
0.0566613
0.056496
0.0563201
0.0561342
0.0559393
0.0557374
0.05553
0.0553267
0.0551354
0.0549528
0.0547722
0.0545989
0.0544133
0.0542186
0.0540343
0.0538173
0.0535967
0.0453706
0.0458224
0.0463704
0.0469115
0.0473923
0.0478753
0.0484468
0.0490935
0.0498321
0.0506641
0.0515832
0.0525862
0.0536572
0.0547543
0.055799
0.0565674
0.0570839
0.0574564
0.0576251
0.0576643
0.057642
0.0576058
0.0575769
0.0575428
0.0574374
0.0573145
0.0572119
0.0571294
0.057037
0.056892
0.0567511
0.0566278
0.0565003
0.0563724
0.0562352
0.0560831
0.0559223
0.0557511
0.0555651
0.0553714
0.0551806
0.0549877
0.054787
0.0545787
0.0543609
0.0541304
0.0538802
0.053628
0.0533743
0.0531094
0.0451105
0.0455183
0.0459545
0.0463907
0.0468276
0.047298
0.0478233
0.0483987
0.0490245
0.0496965
0.0504145
0.0511809
0.0519885
0.0528165
0.0536338
0.0543954
0.0550409
0.0555823
0.0560711
0.0564595
0.0567439
0.0569375
0.057059
0.0571182
0.0571117
0.0570669
0.0570158
0.0569581
0.0568437
0.0566951
0.0565623
0.0564295
0.0562443
0.0560601
0.055912
0.0557568
0.0555971
0.0554279
0.0552472
0.0550523
0.0548613
0.0546596
0.0544389
0.0542106
0.0539564
0.0536863
0.0534017
0.0530769
0.0527532
0.0524181
0.0447716
0.0451552
0.0455944
0.0460595
0.0465527
0.0470568
0.0475642
0.0480757
0.0485915
0.0491165
0.049661
0.0502341
0.0508393
0.0514746
0.0521298
0.0527829
0.0534017
0.0539504
0.0544354
0.054912
0.0553564
0.0557393
0.0560481
0.0562823
0.0564418
0.0565363
0.0565831
0.0565934
0.0565538
0.0564667
0.0563581
0.0562309
0.0560431
0.0558526
0.0556815
0.0554406
0.0552075
0.0550127
0.0548196
0.0546241
0.0544172
0.0541881
0.0539471
0.0536842
0.0533842
0.0530505
0.0526777
0.0522899
0.0518832
0.0514727
0.0450039
0.0455852
0.0462285
0.046899
0.0475694
0.0481492
0.0486118
0.0489749
0.0492564
0.0494816
0.0496813
0.0498849
0.0501211
0.0504148
0.0507822
0.0512283
0.0517408
0.0522907
0.0528334
0.0533308
0.0537974
0.0542333
0.0546283
0.0549736
0.0552634
0.0554947
0.0556648
0.0557794
0.0558429
0.0558584
0.0558349
0.0557786
0.0556797
0.0555474
0.0553799
0.0551418
0.0549107
0.0547085
0.054395
0.054127
0.0538939
0.053609
0.0533119
0.0529521
0.0525879
0.0522084
0.0517504
0.0512605
0.0507241
0.0502247
0.0495824
0.0507783
0.0519587
0.053069
0.0540542
0.0545795
0.0546764
0.0545113
0.0541666
0.0536879
0.0531089
0.0524607
0.0517825
0.0511195
0.0505237
0.0500557
0.0497783
0.0497589
0.0500649
0.0507572
0.0515907
0.0522565
0.0528086
0.0532591
0.0536389
0.0539565
0.0542185
0.0544288
0.0545916
0.0547108
0.0547866
0.0548188
0.0548078
0.0547585
0.054672
0.0545407
0.0543768
0.0541794
0.0539141
0.0536632
0.0533823
0.0529125
0.0525507
0.052176
0.0516692
0.0510441
0.0503623
0.0496725
0.0492291
0.04891
0.0778968
0.0780939
0.0780551
0.0777554
0.0771987
0.0767035
0.0763252
0.0759609
0.0755602
0.0750981
0.0745606
0.0739355
0.0732147
0.0723925
0.0714622
0.0704182
0.0692553
0.0679721
0.0665655
0.0650296
0.0635418
0.0623002
0.0612666
0.0604172
0.0597091
0.0591135
0.0585994
0.0581431
0.0577244
0.0573269
0.0569374
0.0565436
0.0561365
0.0557089
0.0552524
0.0547583
0.0542198
0.0536372
0.0530014
0.0523012
0.05152
0.0506799
0.0497749
0.048687
0.049161
0.0504612
0.0515105
0.0509462
0.0508237
0.0507447
0.00545351
0.00542681
0.00540133
0.00537708
0.0053536
0.00533045
0.00530842
0.00528799
0.00526885
0.00525034
0.0052319
0.00521331
0.00519445
0.00517509
0.00515495
0.005134
0.00511256
0.00509125
0.00507071
0.00505149
0.00503391
0.0050067
0.0049827
0.00496184
0.00494444
0.00492811
0.00491146
0.00489322
0.00487544
0.00485591
0.00483406
0.00481025
0.0047852
0.00476003
0.0047361
0.00471435
0.00469497
0.00467771
0.00466216
0.00464734
0.00463291
0.00461878
0.00460515
0.00459255
0.00458036
0.00456792
0.00455537
0.004543
0.00453169
0.00452169
0.0053822
0.00525425
0.00513281
0.00501698
0.00490699
0.00480434
0.00470892
0.00461973
0.00453553
0.00445517
0.00437785
0.0043029
0.00422955
0.00415722
0.00408606
0.00401706
0.00395162
0.00389106
0.00383622
0.00378899
0.00374452
0.00363835
0.00358537
0.00356181
0.0154951
0.0157277
0.0158287
0.0158339
0.0157585
0.0156426
0.0155218
0.015418
0.0153421
0.0152971
0.0152796
0.0152819
0.0152948
0.0153099
0.01532
0.0153217
0.0153113
0.0152876
0.0152504
0.0151982
0.0151338
0.0150616
0.0149827
0.0148933
0.014787
0.0146677
0.00538241
0.00525444
0.00513144
0.00501364
0.00490168
0.00479624
0.00469721
0.00460375
0.00451477
0.00442943
0.00434701
0.00426678
0.00418799
0.00411031
0.00403409
0.0039602
0.00388967
0.00382332
0.00376263
0.0160505
0.0157963
0.0156393
0.0155243
0.0154242
0.0153302
0.0152277
0.0151105
0.0149792
0.0148372
0.0146906
0.0145453
0.014407
0.0142808
0.0141699
0.0140747
0.0139932
0.0139225
0.013858
0.013795
0.0137298
0.0136605
0.0135865
0.013507
0.0134221
0.0133334
0.0132438
0.0131557
0.0130678
0.012974
0.0128604
0.0053827
0.00525583
0.00513371
0.00501694
0.00490622
0.00480189
0.00470356
0.00461039
0.00452149
0.00443614
0.00435354
0.00427276
0.00419314
0.00411465
0.00403792
0.00396386
0.00389329
0.00382679
0.00376397
0.00364114
0.0154929
0.0154863
0.0154376
0.0153632
0.0152692
0.0151575
0.0150305
0.0148916
0.0147454
0.0145958
0.0144466
0.014302
0.0141661
0.0140416
0.0139293
0.0138278
0.0137345
0.0136454
0.0135565
0.0134656
0.0133718
0.0132749
0.0131742
0.0130698
0.0129631
0.0128555
0.0127492
0.012648
0.0125537
0.0124531
0.00538282
0.0052558
0.00513357
0.00501702
0.00490667
0.00480252
0.004704
0.00461048
0.0045213
0.00443573
0.0043528
0.00427155
0.00419149
0.00411285
0.00403629
0.00396257
0.0038923
0.00382598
0.00376507
0.016056
0.0157888
0.015624
0.0155051
0.0154008
0.0152938
0.0151759
0.0150454
0.0149045
0.0147567
0.0146057
0.0144556
0.0143106
0.0141748
0.0140503
0.0139372
0.0138341
0.0137376
0.0136434
0.0135484
0.0134511
0.0133509
0.0132475
0.0131405
0.0130309
0.0129202
0.012809
0.012697
0.0125862
0.0124824
0.0123822
0.00538277
0.00525567
0.00513391
0.00501816
0.00490848
0.00480463
0.00470609
0.00461244
0.00452319
0.00443757
0.0043545
0.00427307
0.00419296
0.00411443
0.00403804
0.00396439
0.00389407
0.00382768
0.00376678
0.0160709
0.015803
0.0156359
0.0155148
0.0154085
0.0152996
0.0151804
0.0150496
0.0149092
0.0147627
0.0146137
0.0144667
0.0143258
0.0141943
0.0140737
0.0139638
0.0138623
0.0137657
0.01367
0.0135729
0.0134732
0.0133703
0.0132633
0.0131518
0.0130377
0.0129236
0.0128116
0.0127015
0.012592
0.0124864
0.0123861
0.00538267
0.00525573
0.00513454
0.00501935
0.00490986
0.00480576
0.00470683
0.00461285
0.00452342
0.00443762
0.00435433
0.00427268
0.00419242
0.00411376
0.00403719
0.00396329
0.00389276
0.00382631
0.00376548
0.0160577
0.0157908
0.0156242
0.0155028
0.0153953
0.015285
0.015165
0.0150346
0.0148959
0.0147525
0.0146079
0.0144664
0.0143317
0.0142062
0.0140909
0.0139851
0.0138863
0.0137908
0.0136953
0.0135976
0.0134966
0.0133912
0.0132804
0.0131646
0.0130457
0.0129271
0.012812
0.0127023
0.0125959
0.0124938
0.0123965
0.00538266
0.00525615
0.00513544
0.0050205
0.00491102
0.00480675
0.00470768
0.00461372
0.00452433
0.00443847
0.00435497
0.00427305
0.00419252
0.00411362
0.00403682
0.00396277
0.00389224
0.00382596
0.00376541
0.0160487
0.015782
0.0156222
0.0155018
0.0153921
0.0152789
0.015157
0.0150264
0.0148893
0.0147491
0.0146093
0.0144734
0.0143446
0.0142246
0.0141141
0.0140119
0.0139153
0.0138209
0.0137251
0.0136259
0.0135217
0.0134118
0.013296
0.0131757
0.0130532
0.0129316
0.0128141
0.0127032
0.0125986
0.0125002
0.012407
0.00538275
0.00525664
0.00513624
0.00502144
0.00491195
0.00480771
0.00470874
0.00461488
0.0045254
0.00443914
0.00435504
0.00427254
0.0041916
0.00411245
0.0040355
0.00396141
0.00389102
0.00382505
0.00376318
0.00362384
0.00353988
0.0151334
0.0152218
0.0152328
0.0151884
0.0151056
0.0149975
0.0148742
0.0147431
0.0146103
0.0144806
0.0143573
0.0142422
0.0141357
0.0140366
0.013942
0.0138481
0.0137515
0.0136501
0.0135424
0.0134281
0.013308
0.0131842
0.0130594
0.0129365
0.012818
0.0127065
0.0126032
0.012507
0.0124173
0.00538286
0.00525701
0.00513684
0.00502232
0.00491306
0.00480907
0.00471029
0.00461639
0.00452646
0.00443946
0.00435462
0.00427165
0.00419053
0.00411135
0.00403442
0.00396044
0.00389031
0.00382478
0.00376343
0.00362487
0.0154361
0.015457
0.0154294
0.0153637
0.0152695
0.0151551
0.0150276
0.0148932
0.014757
0.0146232
0.0144951
0.0143744
0.0142624
0.0141586
0.0140615
0.0139676
0.0138732
0.0137749
0.013671
0.0135607
0.0134439
0.0133217
0.0131957
0.0130688
0.0129442
0.0128246
0.0127125
0.0126094
0.0125143
0.0124265
0.0053829
0.00525737
0.00513762
0.00502341
0.00491445
0.00481062
0.00471183
0.00461754
0.0045269
0.00443912
0.00435378
0.00427069
0.00418962
0.00411043
0.00403343
0.00395952
0.00388975
0.00382473
0.00376373
0.00362521
0.0154322
0.0154524
0.0154223
0.0153543
0.0152584
0.0151435
0.0150171
0.0148855
0.0147537
0.0146253
0.0145024
0.0143866
0.0142785
0.0141776
0.0140818
0.013988
0.0138926
0.013793
0.0136879
0.0135768
0.0134595
0.0133363
0.013209
0.0130801
0.0129535
0.0128322
0.0127192
0.0126151
0.0125203
0.0124337
0.00538293
0.00525797
0.00513874
0.00502476
0.00491586
0.00481194
0.00471285
0.00461802
0.00452674
0.00443855
0.00435313
0.00427008
0.00418889
0.00410939
0.00403222
0.00395853
0.00388928
0.00382471
0.00376377
0.00362498
0.0154194
0.0154374
0.0154057
0.0153367
0.0152406
0.0151268
0.0150033
0.0148763
0.0147501
0.0146272
0.0145094
0.0143976
0.0142925
0.0141933
0.0140981
0.0140039
0.0139079
0.0138081
0.0137032
0.0135922
0.0134748
0.0133509
0.0132222
0.0130918
0.0129633
0.0128404
0.0127257
0.0126199
0.0125244
0.0124385
0.0053831
0.005259
0.00514011
0.00502606
0.00491688
0.00481269
0.00471329
0.00461814
0.00452669
0.00443851
0.00435311
0.00426983
0.00418814
0.00410826
0.00403117
0.00395802
0.00388936
0.00382501
0.00376385
0.00362487
0.0154088
0.015424
0.0153891
0.0153177
0.0152213
0.0151098
0.0149908
0.0148695
0.0147491
0.0146315
0.0145181
0.0144101
0.0143076
0.0142097
0.0141146
0.01402
0.0139237
0.013824
0.0137193
0.0136081
0.01349
0.0133654
0.0132358
0.0131043
0.0129741
0.0128489
0.0127311
0.0126233
0.012526
0.0124395
0.00538341
0.00526012
0.00514128
0.00502689
0.00491738
0.00481302
0.00471355
0.00461842
0.00452699
0.00443866
0.00435279
0.00426874
0.00418638
0.00410633
0.00402965
0.0039571
0.00388876
0.00382431
0.00376285
0.00362693
0.0153997
0.0154059
0.0153595
0.0152792
0.0151795
0.0150704
0.0149579
0.0148451
0.0147335
0.0146244
0.0145191
0.0144178
0.0143201
0.014225
0.014131
0.0140368
0.0139405
0.0138405
0.0137353
0.0136237
0.0135052
0.0133804
0.0132506
0.0131177
0.0129851
0.0128565
0.0127349
0.0126241
0.0125253
0.0124377
0.00538378
0.005261
0.005142
0.00502732
0.00491778
0.00481363
0.00471447
0.00461952
0.00452797
0.00443915
0.0043525
0.00426777
0.00418521
0.00410553
0.0040295
0.00395743
0.00388919
0.00382463
0.00376305
0.00362687
0.0153918
0.0153965
0.0153501
0.0152715
0.0151746
0.0150687
0.014959
0.0148486
0.0147397
0.0146338
0.0145318
0.0144332
0.0143368
0.0142418
0.0141471
0.0140517
0.0139543
0.0138533
0.0137475
0.0136362
0.0135186
0.0133945
0.0132641
0.0131292
0.0129934
0.012861
0.0127366
0.0126231
0.0125226
0.0124348
0.00538406
0.0052614
0.00514216
0.00502734
0.00491793
0.00481399
0.00471485
0.00461952
0.00452717
0.00443733
0.0043498
0.00426462
0.0041821
0.00410275
0.00402703
0.00395512
0.00388691
0.00382237
0.00376074
0.00362026
0.0153552
0.0153669
0.015335
0.0152734
0.0151917
0.0150968
0.014994
0.0148872
0.0147799
0.0146742
0.014571
0.0144698
0.0143697
0.0142704
0.0141713
0.0140717
0.0139708
0.0138678
0.0137615
0.0136509
0.0135344
0.0134104
0.0132789
0.0131422
0.0130046
0.0128707
0.0127459
0.0126329
0.0125332
0.0124476
0.00538419
0.00526155
0.00514241
0.00502806
0.0049193
0.00481587
0.00471679
0.00462101
0.00452799
0.00443762
0.00434987
0.00426471
0.0041823
0.0041031
0.00402755
0.00395582
0.00388777
0.00382328
0.00376147
0.0036204
0.0153517
0.0153627
0.0153314
0.015271
0.0151911
0.0150987
0.0149991
0.0148962
0.0147928
0.0146908
0.0145907
0.0144919
0.014394
0.0142963
0.0141986
0.0141009
0.0140028
0.013904
0.0138031
0.0136979
0.0135859
0.0134658
0.0133379
0.0132053
0.0130726
0.012945
0.0128263
0.0127214
0.0126322
0.0125593
0.00538423
0.00526077
0.00514085
0.00502595
0.00491668
0.00481251
0.00471239
0.00461558
0.00452186
0.00443118
0.00434332
0.00425807
0.00417568
0.00409677
0.00402183
0.00395083
0.00388345
0.00381952
0.00375829
0.00361873
0.0153431
0.0153598
0.0153367
0.0152838
0.0152136
0.0151297
0.0150418
0.0149518
0.0148609
0.0147712
0.0146851
0.014603
0.0145242
0.014448
0.0143737
0.014301
0.0142296
0.014158
0.0140837
0.0140036
0.0139149
0.0138166
0.0137102
0.013599
0.0134876
0.013382
0.0132867
0.0132072
0.0131473
0.0131094
0.00538459
0.00526224
0.00514443
0.00503196
0.00492468
0.00482287
0.00472604
0.00463342
0.00454465
0.00445921
0.00437644
0.00429608
0.00421863
0.00414493
0.00407542
0.00400994
0.00394822
0.00389047
0.00383728
0.00378632
0.00370325
0.00362857
0.0157421
0.0158588
0.0159338
0.0159113
0.0158908
0.015871
0.0158314
0.0157828
0.0157391
0.0157074
0.0156888
0.0156814
0.0156825
0.0156891
0.0156975
0.0157029
0.0157001
0.0156841
0.0156515
0.0156013
0.0155348
0.0154546
0.015369
0.0152859
0.0152115
0.0151544
0.0151201
0.0151148
0.00545343
0.00542828
0.00540381
0.00538075
0.00535932
0.00533809
0.00531652
0.00529491
0.00527332
0.00525164
0.00522994
0.00520872
0.00518857
0.00516965
0.00515166
0.00513423
0.00511736
0.00510127
0.00508592
0.00507072
0.0050316
0.00501417
0.00501861
0.0049811
0.00495409
0.00493976
0.00491939
0.00489767
0.00487921
0.00486198
0.00484415
0.00482494
0.00480446
0.00478341
0.00476259
0.00474266
0.00472385
0.00470593
0.00468858
0.00467131
0.00465374
0.00463555
0.00461648
0.00459701
0.00457703
0.00455664
0.00453779
0.00452097
0.00450628
0.00449356
0.0177749
0.00838221
0.00688961
0.00626361
0.00547072
0.0046694
0.00402296
0.015701
0.014365
0.0135706
0.01342
0.0136865
0.0145277
0.00371018
0.003998
0.00437811
0.00480212
0.00526307
0.00583525
0.0106887
0.0176161
0.00828241
0.00688374
0.00626537
0.00546458
0.00465656
0.00400802
0.0155942
0.0142763
0.0134794
0.0133117
0.0134763
0.0143563
0.00369117
0.00399
0.00437342
0.00479607
0.00525376
0.00582946
0.0108518
0.0174168
0.00821509
0.00688227
0.00626917
0.00546048
0.00464555
0.00399448
0.0155007
0.0141931
0.0133849
0.013198
0.0133458
0.0142284
0.0155759
0.00397499
0.00435782
0.00478069
0.00523772
0.00582024
0.0110076
0.0172486
0.0081463
0.00688257
0.00627381
0.00545747
0.00463564
0.00398189
0.0154181
0.0141164
0.0132952
0.0131105
0.0132304
0.0141087
0.0154929
0.00395945
0.00434267
0.00476557
0.00522195
0.00581147
0.0111633
0.017076
0.00808279
0.00688448
0.00627896
0.0054549
0.00462612
0.00396978
0.0153423
0.0140437
0.013211
0.013059
0.0131294
0.0139989
0.0154164
0.00394559
0.00432812
0.00475102
0.00520684
0.00580363
0.0113199
0.0169017
0.00802462
0.00688772
0.0062843
0.00545239
0.00461664
0.00395805
0.0152721
0.0139745
0.0131322
0.0130088
0.0130265
0.0138954
0.0153428
0.00393245
0.00431415
0.00473704
0.00519234
0.00579669
0.0114779
0.0167268
0.00796968
0.00689177
0.00628958
0.00544985
0.00460726
0.00394657
0.0152057
0.0139079
0.0130567
0.0129301
0.0129133
0.0137946
0.0152722
0.00391978
0.00430056
0.00472348
0.00517819
0.00579039
0.011637
0.0165515
0.00791669
0.00689631
0.0062947
0.00544728
0.0045981
0.00393551
0.0151423
0.013842
0.0129807
0.0128277
0.0127948
0.0136964
0.0152046
0.00390751
0.00428726
0.00471013
0.00516414
0.00578445
0.011797
0.0163754
0.00786533
0.00690125
0.00629976
0.00544485
0.00458917
0.00392489
0.0150812
0.0137763
0.0129004
0.0127124
0.0126827
0.0136059
0.0151416
0.00389564
0.00427421
0.00469687
0.00515003
0.00577872
0.0119579
0.0161982
0.00781554
0.00690654
0.00630487
0.00544263
0.0045804
0.00391471
0.0150217
0.0137104
0.0128173
0.0126137
0.0125873
0.0135273
0.0150845
0.00388433
0.00426148
0.00468375
0.00513591
0.00577328
0.0121198
0.01602
0.00776752
0.00691216
0.00631005
0.00544056
0.00457167
0.00390471
0.0149631
0.0136445
0.0127328
0.0125412
0.0125107
0.0134626
0.0150337
0.00387369
0.0042492
0.00467091
0.00512191
0.00576836
0.0122829
0.0158405
0.00772121
0.00691818
0.00631531
0.00543838
0.00456262
0.00389456
0.0149047
0.013578
0.0126487
0.0124865
0.0124468
0.0134086
0.014988
0.00386371
0.00423744
0.00465847
0.00510825
0.00576421
0.0124474
0.0156601
0.00767643
0.00692451
0.00632049
0.0054358
0.00455271
0.00388383
0.0148449
0.0135097
0.0125633
0.0124304
0.0123853
0.0133593
0.0149454
0.00385427
0.0042262
0.00464652
0.00509503
0.00576091
0.0126131
0.015479
0.00763312
0.00693124
0.00632543
0.00543243
0.00454139
0.00387205
0.0147818
0.0134371
0.0124732
0.0123595
0.0123169
0.0133089
0.0149037
0.00384514
0.00421534
0.00463496
0.00508216
0.00575838
0.0127799
0.0152973
0.00759112
0.00693835
0.00633
0.00542784
0.00452828
0.00385894
0.014714
0.0133583
0.0123742
0.0122693
0.0122376
0.0132542
0.0148613
0.00383603
0.00420458
0.00462356
0.00506945
0.00575646
0.0129473
0.0151155
0.00755023
0.0069458
0.00633407
0.00542182
0.0045132
0.00384452
0.0146408
0.0132723
0.0122636
0.0121633
0.0121495
0.0131949
0.014817
0.00382667
0.00419368
0.00461208
0.00505669
0.00575498
0.0131151
0.0149337
0.00751017
0.00695354
0.00633752
0.00541437
0.00449621
0.00382915
0.0145627
0.0131796
0.012141
0.0120492
0.012058
0.0131328
0.0147707
0.00381689
0.00418246
0.00460038
0.00504378
0.00575388
0.0132831
0.0147522
0.00747072
0.00696153
0.00634037
0.00540568
0.00447762
0.00381343
0.0144812
0.0130819
0.0120085
0.0119352
0.0119679
0.0130706
0.0147228
0.00380672
0.00417092
0.00458848
0.00503074
0.0057532
0.0134513
0.0145708
0.00743187
0.00696973
0.00634271
0.005396
0.00445784
0.00379803
0.0143983
0.0129818
0.0118702
0.0118258
0.0118815
0.0130104
0.0146741
0.00379632
0.0041592
0.00457649
0.00501772
0.0057531
0.01362
0.0143895
0.00739378
0.0069781
0.00634465
0.00538556
0.00443726
0.00378358
0.014316
0.0128821
0.0117313
0.0117197
0.0117988
0.0129534
0.0146254
0.00378594
0.00414752
0.00456462
0.00500489
0.0057538
0.0137896
0.014208
0.00735672
0.00698659
0.0063462
0.00537456
0.00441624
0.0037706
0.0142362
0.0127857
0.0115984
0.011611
0.0117175
0.0128984
0.0145767
0.00377574
0.00413603
0.00455301
0.00499239
0.00575541
0.0139601
0.0140263
0.00732102
0.00699512
0.00634736
0.00536318
0.00439509
0.00375947
0.0141603
0.0126956
0.011479
0.0114901
0.0116328
0.0128422
0.0145274
0.00376577
0.00412479
0.00454169
0.00498022
0.00575791
0.0141317
0.0138442
0.00728709
0.00700362
0.00634816
0.00535161
0.00437418
0.00375047
0.0140901
0.0126149
0.0113801
0.011343
0.0115378
0.0127809
0.0144763
0.0037559
0.00411371
0.00453056
0.00496821
0.00576115
0.0143041
0.0136618
0.00725544
0.00701212
0.00634872
0.00534016
0.00435397
0.00374363
0.0140271
0.0125462
0.0113072
0.0111567
0.011427
0.0127114
0.0144226
0.00374596
0.00410263
0.00451942
0.00495619
0.00576499
0.0144771
0.0134792
0.00722664
0.00702073
0.00634926
0.00532919
0.00433502
0.00373856
0.0139725
0.0124921
0.0112644
0.0109281
0.0112997
0.0126334
0.0143665
0.0158556
0.00409163
0.00450815
0.00494407
0.00576937
0.0146509
0.0132966
0.0072012
0.00702962
0.00635003
0.00531916
0.00431793
0.00373415
0.0139281
0.0124548
0.0112538
0.0106655
0.0111613
0.0125501
0.0143129
0.0158181
0.00407959
0.00449683
0.00493191
0.00577438
0.0148257
0.0131145
0.00717942
0.0070389
0.00635128
0.00531057
0.00430329
0.00372811
0.0138949
0.012436
0.0112747
0.0105064
0.011029
0.0124669
0.0142599
0.0157894
0.00406818
0.00448568
0.00491986
0.00578017
0.0150018
0.0129329
0.00716131
0.00704856
0.00635322
0.00530385
0.00429386
0.0157511
0.0138701
0.0124367
0.0113226
0.010611
0.0109316
0.01239
0.0142096
0.0157552
0.00405798
0.0044749
0.0049081
0.00578699
0.0151799
0.0127522
0.00714659
0.00705847
0.00635589
0.0052993
0.00428887
0.0157014
0.0138572
0.012456
0.0113882
0.0107308
0.0108667
0.012324
0.0141666
0.0157214
0.00404839
0.00446472
0.00489683
0.00579518
0.0153607
0.0125724
0.0071349
0.00706838
0.00635925
0.00529709
0.00428713
0.0156794
0.013859
0.0124911
0.0114607
0.0108305
0.0108266
0.0122723
0.0141335
0.0156925
0.00403971
0.00445539
0.00488633
0.00580503
0.0155448
0.0123931
0.00712593
0.007078
0.00636324
0.00529733
0.00428928
0.0156815
0.0138732
0.012536
0.0115301
0.0108941
0.0108019
0.0122384
0.0141127
0.015671
0.0040322
0.00444714
0.00487674
0.00581377
0.0157336
0.0122141
0.00711965
0.0070872
0.00636789
0.00530014
0.00429772
0.0156984
0.0138932
0.0125813
0.0115907
0.010911
0.0107843
0.0122259
0.014106
0.0156573
0.00402598
0.00444002
0.00486808
0.0058343
0.0159222
0.0120355
0.00711631
0.00709602
0.00637553
0.00530767
0.00430652
0.0157138
0.0139167
0.0126263
0.0116435
0.0108736
0.0107693
0.0122366
0.0141136
0.0156513
0.00402103
0.00443395
0.00486023
0.00586606
0.0161109
0.0118572
0.00711628
0.00710634
0.00638586
0.00531631
0.00431533
0.0157311
0.0139439
0.0126719
0.0116928
0.0107796
0.0107552
0.0122756
0.0141337
0.0156539
0.00401716
0.0044288
0.0048536
0.005907
0.0162995
0.0116796
0.00711977
0.00711807
0.00639768
0.00532705
0.00432578
0.0157504
0.0139749
0.012717
0.011745
0.0106609
0.0107889
0.0123336
0.0141594
0.0156632
0.00401412
0.00442415
0.00484807
0.00595575
0.0164879
0.0115043
0.00712461
0.00713096
0.00641133
0.00533978
0.00433761
0.015775
0.0140102
0.0127643
0.011798
0.0106463
0.0108704
0.0124022
0.0141889
0.0156778
0.00401162
0.00441983
0.00484351
0.00601101
0.0166763
0.011333
0.00712777
0.00714488
0.00642665
0.00535428
0.00435057
0.0158065
0.01405
0.0128168
0.0118547
0.0107709
0.0109851
0.0124764
0.0142208
0.0156964
0.00400946
0.00441571
0.00483992
0.00607191
0.0168648
0.0111643
0.00713125
0.00715962
0.0064434
0.00537033
0.00436435
0.0158451
0.0140941
0.0128736
0.0119237
0.0109117
0.0111193
0.0125528
0.0142541
0.0157183
0.00400754
0.00441182
0.00483742
0.00613828
0.0170536
0.0109979
0.00713479
0.00717493
0.00646139
0.00538783
0.00438041
0.0158872
0.0141393
0.0129333
0.0119988
0.0110603
0.0112627
0.01263
0.0142887
0.0157432
0.0040059
0.00440828
0.00483624
0.00621045
0.0172426
0.0108333
0.00713816
0.00719068
0.00648055
0.00540668
0.00439596
0.00375941
0.0141909
0.0129951
0.0120765
0.0112127
0.0114102
0.0127085
0.0143251
0.0157711
0.00400467
0.00440522
0.00483657
0.00628878
0.0174317
0.0106705
0.00714129
0.00720693
0.00650096
0.005427
0.00441282
0.00377146
0.0142453
0.0130585
0.0121543
0.0113668
0.0115609
0.0127896
0.0143637
0.0158021
0.00400393
0.00440268
0.0048385
0.00637324
0.0176204
0.0105093
0.00714429
0.00722386
0.00652283
0.00544897
0.00443106
0.0037843
0.014303
0.0131239
0.0122312
0.0115199
0.0117142
0.0128738
0.0144045
0.0158359
0.00400369
0.00440064
0.00484204
0.00646334
0.0178086
0.0103497
0.00714735
0.00724164
0.00654625
0.00547272
0.00445077
0.00379804
0.0143643
0.0131919
0.0123071
0.011668
0.0118684
0.0129611
0.0144475
0.015872
0.00400391
0.00439901
0.00484712
0.00655816
0.0179959
0.010192
0.00715051
0.00726024
0.00657119
0.00549823
0.00447201
0.0038127
0.0144296
0.0132637
0.0123832