/*--------------------------------*- C++ -*----------------------------------*\
  =========                 |
  \\      /  F ield         | OpenFOAM: The Open Source CFD Toolbox
   \\    /   O peration     | Website:  https://openfoam.org
    \\  /    A nd           | Version:  8
     \\/     M anipulation  |
\*---------------------------------------------------------------------------*/
FoamFile
{
    version     2.0;
    format      ascii;
    class       volScalarField;
    location    "300";
    object      epsilon;
}
// * * * * * * * * * * * * * * * * * * * * * * * * * * * * * * * * * * * * * //

dimensions      [0 2 -3 0 0 0 0];

internalField   nonuniform List<scalar> 
8400
(
0.0167753
0.0164316
0.0160092
0.0155974
0.0152386
0.0149402
0.0147128
0.0145428
0.0144049
0.0142727
0.0141268
0.013956
0.0137423
0.0134188
0.0129611
0.0124732
0.0119806
0.0114799
0.01097
0.0104531
0.00993532
0.00942405
0.00892432
0.0084395
0.00797195
0.00752491
0.00710078
0.00670076
0.0063251
0.00597268
0.00564273
0.00533455
0.00504739
0.00478032
0.00453229
0.00430232
0.00408959
0.00389331
0.00371268
0.00354675
0.00339532
0.00326212
0.00314742
0.00304931
0.00296499
0.00289114
0.00282443
0.00276162
0.00269984
0.00263714
0.0112853
0.0109272
0.0111004
0.0112989
0.0114598
0.0115393
0.0115602
0.0115153
0.0113676
0.0110113
0.0103221
0.00974258
0.00984308
0.00979106
0.00968848
0.00929784
0.00865185
0.00782267
0.00688509
0.00590047
0.00494232
0.00404977
0.00328406
0.00267449
0.00221552
0.00186172
0.00157058
0.00133016
0.00113409
0.000980207
0.000860555
0.000764313
0.000686723
0.000624887
0.000577172
0.000541206
0.000514739
0.00049664
0.000486384
0.000483595
0.000487563
0.000494255
0.000501657
0.00050895
0.00051594
0.000522777
0.000529813
0.000537558
0.000546481
0.000556935
0.0130731
0.0129563
0.0128461
0.0127455
0.0126581
0.0125846
0.0125216
0.0124648
0.0124084
0.0123488
0.012281
0.0122001
0.0120879
0.011953
0.0118068
0.0116374
0.0114125
0.0111018
0.0106694
0.0100758
0.0092548
0.00802822
0.0051901
0.00396477
0.00294963
0.00234264
0.00188736
0.0015665
0.00133003
0.0011593
0.00103665
0.000950142
0.000891051
0.000853026
0.000831399
0.000822996
0.000825663
0.000837433
0.000856324
0.00088033
0.000907393
0.000934014
0.000958287
0.000979398
0.000997546
0.00101368
0.00102942
0.00104675
0.00106752
0.00109314
0.0131216
0.0130665
0.0130129
0.0129613
0.0129126
0.0128666
0.0128219
0.0127779
0.0127335
0.012688
0.0126403
0.0125902
0.012532
0.0124633
0.012381
0.0122826
0.0121632
0.0120139
0.0118201
0.0115612
0.0112053
0.0106873
0.0099875
0.00905227
0.0079646
0.00677451
0.00545395
0.0036294
0.00291158
0.00237095
0.00207446
0.00185241
0.00171887
0.00164038
0.00160327
0.00159607
0.00161233
0.00164481
0.00168761
0.00173609
0.00178727
0.00183773
0.00188161
0.00191697
0.00194457
0.00196591
0.00198476
0.00200601
0.00203363
0.00206999
0.0131408
0.0131082
0.013075
0.0130409
0.0130053
0.0129682
0.0129295
0.0128893
0.012848
0.0128064
0.0127637
0.0127188
0.0126708
0.012619
0.0125622
0.0124987
0.0124261
0.0123409
0.0122377
0.0121085
0.011941
0.0117138
0.0114034
0.010979
0.0104357
0.00976724
0.0089572
0.00808574
0.00716536
0.00628998
0.00537244
0.00432307
0.00335112
0.00305642
0.00279808
0.00270325
0.00269514
0.00274668
0.00282184
0.00290219
0.00298079
0.00305974
0.00314128
0.00320503
0.00325037
0.00327677
0.00328975
0.00330004
0.00331482
0.0033348
0.0131259
0.0130762
0.0130253
0.0129738
0.0129212
0.0128677
0.012813
0.0127571
0.0127004
0.0126427
0.0125866
0.0125333
0.0124836
0.0124378
0.0123951
0.0123537
0.0123113
0.0122652
0.0122121
0.0121477
0.0120661
0.0119589
0.0118148
0.0116193
0.0113609
0.0110282
0.0106087
0.0101091
0.00953393
0.00892541
0.00826433
0.0075554
0.00686392
0.00616013
0.00543752
0.00462924
0.00379164
0.00376662
0.0038043
0.00398678
0.00417771
0.00433789
0.00446325
0.00459821
0.00471785
0.00479943
0.00484653
0.00487584
0.00489664
0.00489882
0.0131212
0.0130648
0.0130072
0.0129484
0.0128885
0.0128277
0.0127655
0.0127022
0.0126378
0.0125726
0.012507
0.0124425
0.0123794
0.0123187
0.0122621
0.0122101
0.0121628
0.0121196
0.0120783
0.012036
0.0119888
0.0119317
0.0118585
0.0117617
0.0116334
0.0114657
0.0112506
0.0109838
0.0106632
0.0102985
0.00988775
0.00942973
0.00893477
0.00840686
0.00784324
0.00720963
0.00655768
0.00593931
0.00544037
0.00502876
0.00472936
0.00493669
0.00528826
0.00556064
0.00579469
0.00598831
0.00616875
0.00633814
0.00648205
0.00657561
0.0131098
0.0130388
0.0129663
0.0128915
0.0128146
0.0127365
0.0126568
0.012577
0.0124973
0.0124188
0.0123426
0.0122684
0.0121972
0.0121304
0.0120679
0.0120104
0.0119594
0.0119149
0.0118764
0.0118424
0.0118105
0.0117769
0.0117376
0.0116878
0.0116223
0.011536
0.0114236
0.0112807
0.0111043
0.0108949
0.0106514
0.0103725
0.0100592
0.00971246
0.00933049
0.00890179
0.00843149
0.00793753
0.00746776
0.00703023
0.00665993
0.00640609
0.0062657
0.0062473
0.00628959
0.00630819
0.00651034
0.00683311
0.00717214
0.00743468
0.0130911
0.0129947
0.0128955
0.0127937
0.0126883
0.0125799
0.0124695
0.0123593
0.0122537
0.0121523
0.0120578
0.0119706
0.0118905
0.0118184
0.0117537
0.0116965
0.0116475
0.0116072
0.0115757
0.0115513
0.0115326
0.0115172
0.0115016
0.0114819
0.011454
0.0114143
0.0113591
0.0112853
0.0111901
0.0110722
0.0109306
0.010764
0.010572
0.010354
0.0101087
0.00983247
0.00952472
0.00919143
0.00885061
0.0085169
0.00821243
0.00796051
0.0077742
0.00767569
0.00765183
0.00768777
0.0077144
0.00777869
0.00785535
0.00792886
0.0130529
0.012896
0.0127395
0.0125757
0.0123993
0.0122107
0.0120167
0.0118328
0.0116657
0.011524
0.011409
0.0113199
0.0112516
0.0111992
0.0111603
0.0111322
0.011112
0.0110998
0.0110963
0.011101
0.0111118
0.0111261
0.0111411
0.0111538
0.0111609
0.011159
0.0111455
0.0111184
0.0110756
0.0110159
0.0109383
0.0108423
0.0107274
0.0105933
0.010439
0.0102634
0.0100663
0.00985012
0.0096219
0.00939102
0.00917079
0.00897506
0.00881543
0.00870215
0.00863413
0.00860398
0.00859815
0.00858398
0.00857927
0.00857408
0.0129454
0.0125641
0.0121905
0.0116421
0.0108493
0.00982424
0.00875172
0.00809759
0.00801553
0.00825657
0.0086775
0.00912118
0.00951743
0.00981467
0.0100309
0.0101873
0.0103005
0.0103856
0.0104563
0.0105199
0.0105798
0.0106374
0.0106919
0.0107417
0.0107845
0.010818
0.0108402
0.0108495
0.010845
0.010826
0.010792
0.0107429
0.0106783
0.0105986
0.0105034
0.0103927
0.0102664
0.0101257
0.00997438
0.00981772
0.00966282
0.0095179
0.00939005
0.0092849
0.00920322
0.00914201
0.00909633
0.00905715
0.00901155
0.0089653
0.0107553
0.00932866
0.00804773
0.00684926
0.00612281
0.00594472
0.0061166
0.00637264
0.00670523
0.00711279
0.00762143
0.00821436
0.00869695
0.00903913
0.0093103
0.00954755
0.00969892
0.00982056
0.00992119
0.0100112
0.0100962
0.0101785
0.0102585
0.0103336
0.0104015
0.0104605
0.0105081
0.0105434
0.0105658
0.0105745
0.0105697
0.0105514
0.0105197
0.0104751
0.0104178
0.010348
0.0102663
0.0101733
0.010071
0.00996239
0.00985143
0.00974293
0.00964126
0.00954911
0.0094679
0.00939645
0.00933229
0.00927263
0.00921336
0.00914975
0.00779366
0.00677421
0.00610577
0.00575753
0.0056877
0.00576349
0.00588425
0.0060356
0.00622455
0.00646174
0.00676199
0.00714346
0.00762299
0.0081261
0.0085356
0.00887295
0.00911783
0.00931997
0.00948017
0.0096169
0.00973034
0.00982709
0.00991767
0.0100005
0.0100773
0.0101462
0.0102049
0.0102533
0.0102897
0.0103134
0.0103252
0.010325
0.0103132
0.0102898
0.0102557
0.0102111
0.0101563
0.0100922
0.01002
0.00994159
0.00985905
0.0097749
0.0096918
0.00961168
0.00953514
0.00946244
0.00939218
0.00932291
0.00925367
0.00918308
0.0062731
0.00583654
0.00561592
0.00555925
0.00559741
0.00567378
0.00576636
0.00587929
0.00601623
0.00618114
0.00637923
0.00661628
0.00689808
0.00722895
0.00760749
0.00799217
0.00833722
0.00864392
0.00890274
0.00911961
0.00929668
0.00944712
0.0095775
0.00969244
0.00979512
0.00988375
0.00995146
0.0100047
0.0100446
0.0100729
0.0100907
0.0100986
0.0100961
0.0100835
0.0100616
0.0100307
0.00999126
0.0099441
0.00988953
0.00982888
0.00976348
0.00969493
0.00962425
0.00955269
0.00948103
0.00940912
0.00933699
0.00926367
0.00918896
0.0091122
0.00567654
0.00551865
0.00545883
0.00546533
0.00550744
0.0055682
0.00564289
0.0057353
0.00584713
0.00597992
0.00613573
0.00631683
0.00652486
0.00676128
0.00702617
0.00731608
0.00762267
0.00791989
0.00820961
0.00847908
0.00872379
0.00894132
0.0091332
0.00930186
0.00944852
0.00956977
0.0096663
0.00974354
0.00980312
0.00984716
0.00987409
0.00988484
0.0098853
0.00987569
0.00985839
0.00983432
0.00980251
0.0097633
0.0097182
0.0096674
0.00961103
0.00955085
0.00948705
0.00942015
0.00935122
0.00927965
0.00920585
0.00912912
0.00904974
0.00896753
0.00539953
0.00533772
0.00531901
0.00533115
0.00536441
0.00541385
0.00547837
0.00555943
0.00565755
0.00577323
0.00590711
0.00605991
0.00623233
0.0064248
0.00663699
0.00686745
0.00711281
0.00736669
0.0076197
0.00787169
0.00811892
0.00835673
0.00858028
0.00878603
0.00897124
0.00913368
0.00927233
0.00938842
0.00948349
0.00955742
0.00960805
0.00964101
0.00965986
0.00966356
0.00965144
0.00963048
0.00960131
0.0095655
0.00952295
0.00947626
0.00942389
0.00936638
0.00930506
0.00923924
0.00916967
0.0090961
0.00901821
0.00893588
0.00884916
0.00875838
0.00516146
0.00512793
0.00511938
0.00513319
0.00516692
0.00521859
0.00528636
0.00536874
0.00546443
0.00557263
0.00569304
0.00582577
0.00597138
0.00613072
0.00630441
0.00649256
0.00669407
0.00690636
0.00712521
0.00734437
0.00756309
0.00778125
0.00799646
0.00820509
0.0084035
0.00858793
0.00875529
0.00890377
0.00903267
0.00914163
0.00922985
0.00929859
0.00934927
0.00938044
0.00939224
0.00939125
0.00937689
0.00934544
0.00930573
0.00925947
0.00920798
0.00915028
0.00908707
0.00901867
0.00894562
0.00886581
0.00877958
0.00868736
0.00858912
0.00848415
0.00489313
0.00489157
0.00491446
0.00496191
0.00503264
0.00512425
0.00523029
0.00534291
0.00545695
0.00556951
0.00567946
0.00578715
0.00589402
0.0060026
0.00611626
0.0062385
0.0063725
0.00652054
0.00668322
0.00685879
0.00704263
0.00723095
0.00742152
0.00761185
0.00779924
0.00798081
0.00815384
0.00831572
0.00846437
0.00859808
0.00871538
0.0088157
0.00889876
0.00896372
0.00901055
0.00904066
0.00905356
0.0090468
0.00902735
0.00899585
0.00894346
0.00888725
0.00882328
0.00875033
0.00867014
0.0085802
0.00848124
0.00837308
0.00825528
0.00812898
0.00502191
0.00515989
0.0053343
0.00554295
0.00578111
0.00604207
0.00630048
0.00652796
0.00671306
0.00685276
0.00694778
0.00700069
0.00701517
0.0069964
0.00695112
0.00688751
0.00681562
0.00674708
0.00669473
0.00667248
0.00669485
0.0067761
0.00689264
0.00703261
0.00718421
0.00734127
0.00749855
0.00765239
0.00779983
0.00793858
0.00806688
0.00818319
0.00828647
0.00837547
0.00844928
0.00850733
0.00854921
0.00857394
0.00858206
0.0085731
0.00854501
0.00850557
0.00845314
0.00837244
0.00829588
0.00820458
0.00809244
0.00796743
0.00781475
0.00765112
0.0179302
0.0183258
0.0186977
0.0190043
0.0192167
0.0193142
0.0193227
0.019288
0.0192288
0.0191506
0.0190528
0.0189324
0.0187855
0.0186078
0.0183948
0.0181421
0.0178453
0.0175006
0.0171046
0.0166552
0.0161506
0.0155899
0.0150171
0.014457
0.0139295
0.0134426
0.0129997
0.0125995
0.0122385
0.0119122
0.0116152
0.0113424
0.011089
0.0108504
0.0106224
0.0104011
0.0101833
0.00996561
0.00974525
0.00951967
0.0092866
0.00904441
0.0087905
0.00852407
0.00825187
0.00797745
0.00766767
0.00762137
0.00752686
0.00741239
9.32872e-06
9.19947e-06
9.07623e-06
8.96104e-06
8.85316e-06
8.74987e-06
8.64819e-06
8.54575e-06
8.44176e-06
8.33677e-06
8.23182e-06
8.1278e-06
8.02567e-06
7.92673e-06
7.83262e-06
7.74453e-06
7.66266e-06
7.58604e-06
7.51283e-06
7.44066e-06
7.36663e-06
7.2613e-06
7.15476e-06
7.04408e-06
6.92811e-06
6.80789e-06
6.68625e-06
6.56698e-06
6.4484e-06
6.33549e-06
6.23147e-06
6.13788e-06
6.05521e-06
5.98247e-06
5.91726e-06
5.85682e-06
5.79902e-06
5.74237e-06
5.68587e-06
5.62915e-06
5.57235e-06
5.51564e-06
5.45891e-06
5.40145e-06
5.34432e-06
5.28894e-06
5.23537e-06
5.18235e-06
5.12587e-06
5.06129e-06
8.97674e-06
8.37098e-06
7.82304e-06
7.32725e-06
6.87761e-06
6.46784e-06
6.09214e-06
5.74645e-06
5.42815e-06
5.13525e-06
4.86603e-06
4.61917e-06
4.39396e-06
4.18995e-06
4.00607e-06
3.84009e-06
3.68891e-06
3.54909e-06
3.41728e-06
3.28917e-06
3.16631e-06
3.17343e-06
3.15904e-06
3.12822e-06
7.31779e-07
7.24234e-07
7.16597e-07
7.09541e-07
7.04903e-07
7.02851e-07
7.02893e-07
7.04432e-07
7.06839e-07
7.09484e-07
7.1184e-07
7.13557e-07
7.1443e-07
7.14351e-07
7.13321e-07
7.11443e-07
7.08841e-07
7.05606e-07
7.01872e-07
6.97965e-07
6.94038e-07
6.90048e-07
6.86057e-07
6.82464e-07
6.80181e-07
6.79775e-07
8.97503e-06
8.364e-06
7.80891e-06
7.30577e-06
6.84742e-06
6.4271e-06
6.03949e-06
5.681e-06
5.3492e-06
5.04207e-06
4.75795e-06
4.49578e-06
4.25494e-06
4.03471e-06
3.83367e-06
3.64968e-06
3.48014e-06
3.3224e-06
3.17342e-06
7.27849e-07
7.26627e-07
7.2332e-07
7.18379e-07
7.12167e-07
7.05056e-07
6.97479e-07
6.89869e-07
6.82559e-07
6.75837e-07
6.69872e-07
6.64766e-07
6.60523e-07
6.57004e-07
6.53964e-07
6.51143e-07
6.48307e-07
6.45259e-07
6.41881e-07
6.3816e-07
6.34145e-07
6.29874e-07
6.25381e-07
6.20768e-07
6.16178e-07
6.11675e-07
6.07179e-07
6.02481e-07
5.9745e-07
5.92454e-07
5.88887e-07
8.97451e-06
8.36748e-06
7.81752e-06
7.31853e-06
6.86273e-06
6.44361e-06
6.05648e-06
5.69807e-06
5.36587e-06
5.05781e-06
4.77255e-06
4.50943e-06
4.26793e-06
4.04706e-06
3.84499e-06
3.65939e-06
3.48781e-06
3.32786e-06
3.1774e-06
3.12381e-06
7.30267e-07
7.2362e-07
7.16951e-07
7.09917e-07
7.02503e-07
6.94899e-07
6.87356e-07
6.80068e-07
6.73175e-07
6.66815e-07
6.61101e-07
6.5605e-07
6.51555e-07
6.47427e-07
6.43452e-07
6.39419e-07
6.35166e-07
6.30632e-07
6.25849e-07
6.20863e-07
6.15687e-07
6.10357e-07
6.0498e-07
5.99696e-07
5.94627e-07
5.8986e-07
5.85372e-07
5.80881e-07
5.76023e-07
5.71543e-07
8.97422e-06
8.36775e-06
7.81792e-06
7.31784e-06
6.8602e-06
6.4393e-06
6.05092e-06
5.69176e-06
5.35902e-06
5.05062e-06
4.76542e-06
4.50284e-06
4.26216e-06
4.04197e-06
3.84024e-06
3.65473e-06
3.48316e-06
3.32328e-06
3.17221e-06
7.27167e-07
7.25779e-07
7.22144e-07
7.16849e-07
7.10358e-07
7.0312e-07
6.95561e-07
6.88015e-07
6.80709e-07
6.73811e-07
6.67472e-07
6.61786e-07
6.56726e-07
6.5216e-07
6.47888e-07
6.43687e-07
6.39355e-07
6.34772e-07
6.29932e-07
6.24883e-07
6.19649e-07
6.14228e-07
6.08673e-07
6.03094e-07
5.97579e-07
5.92179e-07
5.86985e-07
5.8217e-07
5.77775e-07
5.73384e-07
5.69081e-07
8.97434e-06
8.36863e-06
7.81894e-06
7.3183e-06
6.86e-06
6.43891e-06
6.05087e-06
5.69223e-06
5.35992e-06
5.0519e-06
4.76717e-06
4.50512e-06
4.2648e-06
4.04469e-06
3.84284e-06
3.6572e-06
3.48558e-06
3.32564e-06
3.17435e-06
7.27413e-07
7.25985e-07
7.2234e-07
7.17035e-07
7.10565e-07
7.03403e-07
6.95972e-07
6.88586e-07
6.81464e-07
6.74776e-07
6.68661e-07
6.63169e-07
6.58237e-07
6.53713e-07
6.49396e-07
6.45071e-07
6.40568e-07
6.35814e-07
6.30825e-07
6.25627e-07
6.20217e-07
6.14614e-07
6.08923e-07
6.03309e-07
5.97885e-07
5.92651e-07
5.87561e-07
5.82691e-07
5.78233e-07
5.7401e-07
5.69896e-07
8.97459e-06
8.36873e-06
7.81799e-06
7.31597e-06
6.85658e-06
6.43496e-06
6.04674e-06
5.6879e-06
5.35527e-06
5.04695e-06
4.76205e-06
4.49991e-06
4.2595e-06
4.03932e-06
3.83757e-06
3.65218e-06
3.48088e-06
3.32116e-06
3.16994e-06
7.26729e-07
7.25259e-07
7.21556e-07
7.1622e-07
7.09793e-07
7.0277e-07
6.9556e-07
6.88448e-07
6.81634e-07
6.75273e-07
6.69465e-07
6.6422e-07
6.59451e-07
6.55004e-07
6.50684e-07
6.46292e-07
6.41684e-07
6.3681e-07
6.3168e-07
6.26296e-07
6.20662e-07
6.14841e-07
6.08983e-07
6.03284e-07
5.97892e-07
5.9284e-07
5.88051e-07
5.83452e-07
5.79135e-07
5.7505e-07
5.71073e-07
8.9746e-06
8.36789e-06
7.81603e-06
7.31309e-06
6.85322e-06
6.4315e-06
6.0432e-06
5.6841e-06
5.35114e-06
5.04264e-06
4.75782e-06
4.49595e-06
4.25593e-06
4.03622e-06
3.835e-06
3.65017e-06
3.47926e-06
3.31969e-06
3.1684e-06
7.26638e-07
7.2496e-07
7.21088e-07
7.15677e-07
7.0931e-07
7.02473e-07
6.95533e-07
6.88735e-07
6.8225e-07
6.76207e-07
6.70671e-07
6.65625e-07
6.60975e-07
6.5657e-07
6.5222e-07
6.47732e-07
6.42973e-07
6.379e-07
6.32521e-07
6.26865e-07
6.20985e-07
6.14998e-07
6.0907e-07
6.03361e-07
5.97995e-07
5.93036e-07
5.88464e-07
5.8416e-07
5.80081e-07
5.76162e-07
5.72291e-07
8.97437e-06
8.36676e-06
7.81409e-06
7.3105e-06
6.85012e-06
6.42782e-06
6.0387e-06
5.67867e-06
5.345e-06
5.0363e-06
4.75176e-06
4.49042e-06
4.25095e-06
4.03174e-06
3.83098e-06
3.64651e-06
3.47575e-06
3.31604e-06
3.16504e-06
3.13015e-06
3.09088e-06
7.25684e-07
7.18419e-07
7.10957e-07
7.0354e-07
6.96347e-07
6.89503e-07
6.83101e-07
6.77208e-07
6.71832e-07
6.66918e-07
6.62354e-07
6.57976e-07
6.53584e-07
6.48982e-07
6.4405e-07
6.3876e-07
6.33139e-07
6.27253e-07
6.21208e-07
6.1514e-07
6.09211e-07
6.03549e-07
5.98246e-07
5.9337e-07
5.88932e-07
5.84837e-07
5.80967e-07
5.77212e-07
5.73458e-07
8.97412e-06
8.36595e-06
7.81263e-06
7.30826e-06
6.84695e-06
6.42351e-06
6.03317e-06
5.67218e-06
5.33822e-06
5.02997e-06
4.74628e-06
4.48574e-06
4.24683e-06
4.02806e-06
3.8277e-06
3.6435e-06
3.47275e-06
3.31269e-06
3.16108e-06
3.12629e-06
7.31849e-07
7.25013e-07
7.17818e-07
7.10513e-07
7.03308e-07
6.96364e-07
6.89797e-07
6.83686e-07
6.78064e-07
6.72906e-07
6.6814e-07
6.63652e-07
6.59275e-07
6.54807e-07
6.5007e-07
6.44969e-07
6.39508e-07
6.33745e-07
6.27758e-07
6.21641e-07
6.15523e-07
6.0955e-07
6.03872e-07
5.98598e-07
5.93785e-07
5.89439e-07
5.85472e-07
5.8176e-07
5.78167e-07
5.74554e-07
8.97403e-06
8.36527e-06
7.81095e-06
7.30544e-06
6.84288e-06
6.41815e-06
6.02675e-06
5.66532e-06
5.33171e-06
5.02429e-06
4.74135e-06
4.48123e-06
4.24254e-06
4.02406e-06
3.82408e-06
3.64007e-06
3.4691e-06
3.30843e-06
3.15616e-06
3.12069e-06
7.30937e-07
7.24151e-07
7.17079e-07
7.09954e-07
7.02984e-07
6.96327e-07
6.9008e-07
6.84277e-07
6.78905e-07
6.73917e-07
6.69242e-07
6.64771e-07
6.60345e-07
6.5578e-07
6.50929e-07
6.45731e-07
6.40203e-07
6.34402e-07
6.28387e-07
6.22225e-07
6.16029e-07
6.09968e-07
6.04225e-07
5.9894e-07
5.9416e-07
5.89868e-07
5.85987e-07
5.82403e-07
5.78973e-07
5.75524e-07
8.97396e-06
8.36394e-06
7.80817e-06
7.30144e-06
6.83786e-06
6.4123e-06
6.02046e-06
5.65917e-06
5.32611e-06
5.01917e-06
4.73638e-06
4.47623e-06
4.23775e-06
4.01977e-06
3.82025e-06
3.63626e-06
3.46478e-06
3.30344e-06
3.15076e-06
3.115e-06
7.30054e-07
7.23326e-07
7.16364e-07
7.09422e-07
7.02716e-07
6.96377e-07
6.90443e-07
6.84895e-07
6.79696e-07
6.74804e-07
6.70163e-07
6.65676e-07
6.61192e-07
6.56552e-07
6.51644e-07
6.46428e-07
6.40907e-07
6.35102e-07
6.29046e-07
6.22812e-07
6.16528e-07
6.10383e-07
6.0458e-07
5.99253e-07
5.94455e-07
5.90168e-07
5.8634e-07
5.82867e-07
5.79582e-07
5.76276e-07
8.97359e-06
8.36156e-06
7.80434e-06
7.29685e-06
6.83286e-06
6.40709e-06
6.01523e-06
5.65409e-06
5.32112e-06
5.01405e-06
4.73109e-06
4.47119e-06
4.23345e-06
4.01632e-06
3.81717e-06
3.63289e-06
3.46079e-06
3.29901e-06
3.14632e-06
3.11026e-06
7.29246e-07
7.22527e-07
7.15699e-07
7.09014e-07
7.02641e-07
6.96633e-07
6.90965e-07
6.85602e-07
6.80523e-07
6.75703e-07
6.71089e-07
6.66573e-07
6.62026e-07
6.57331e-07
6.52396e-07
6.47174e-07
6.41647e-07
6.35806e-07
6.29688e-07
6.23383e-07
6.17041e-07
6.10838e-07
6.04956e-07
5.99529e-07
5.94639e-07
5.90307e-07
5.86502e-07
5.83107e-07
5.79937e-07
5.76752e-07
8.97282e-06
8.35871e-06
7.80051e-06
7.29282e-06
6.82873e-06
6.40268e-06
6.01034e-06
5.64855e-06
5.31484e-06
5.00723e-06
4.72433e-06
4.46515e-06
4.22838e-06
4.01181e-06
3.81248e-06
3.62755e-06
3.4549e-06
3.29297e-06
3.14035e-06
3.09999e-06
7.26965e-07
7.20049e-07
7.13494e-07
7.07384e-07
7.01671e-07
6.96261e-07
6.91078e-07
6.86094e-07
6.81303e-07
6.76677e-07
6.72144e-07
6.67612e-07
6.62991e-07
6.58213e-07
6.5322e-07
6.47952e-07
6.4237e-07
6.36481e-07
6.30323e-07
6.23983e-07
6.17585e-07
6.11279e-07
6.05243e-07
5.99646e-07
5.94622e-07
5.90231e-07
5.86439e-07
5.83104e-07
5.80028e-07
5.76979e-07
8.97193e-06
8.35635e-06
7.79781e-06
7.29015e-06
6.82587e-06
6.3992e-06
6.00598e-06
5.64339e-06
5.30931e-06
5.00205e-06
4.72021e-06
4.46234e-06
4.22651e-06
4.01012e-06
3.81039e-06
3.62498e-06
3.45208e-06
3.2901e-06
3.13745e-06
3.0969e-06
7.26559e-07
7.1981e-07
7.1346e-07
7.07539e-07
7.01974e-07
6.96684e-07
6.9163e-07
6.86795e-07
6.82142e-07
6.77588e-07
6.73043e-07
6.68436e-07
6.63726e-07
6.58873e-07
6.53819e-07
6.48517e-07
6.42931e-07
6.37061e-07
6.3093e-07
6.24571e-07
6.18071e-07
6.11591e-07
6.05352e-07
5.99591e-07
5.94472e-07
5.90057e-07
5.86292e-07
5.83032e-07
5.8008e-07
5.77208e-07
8.97126e-06
8.3548e-06
7.79565e-06
7.28699e-06
6.82103e-06
6.39223e-06
5.99703e-06
5.63314e-06
5.29873e-06
4.99198e-06
4.71099e-06
4.45382e-06
4.21824e-06
4.00172e-06
3.80177e-06
3.61622e-06
3.44331e-06
3.28133e-06
3.12882e-06
3.09407e-06
7.27358e-07
7.21607e-07
7.15841e-07
7.10126e-07
7.04515e-07
6.99062e-07
6.93817e-07
6.88782e-07
6.83903e-07
6.79091e-07
6.74267e-07
6.69395e-07
6.64463e-07
6.59442e-07
6.54289e-07
6.48957e-07
6.43405e-07
6.37591e-07
6.31473e-07
6.25055e-07
6.18426e-07
6.11804e-07
6.0547e-07
5.99678e-07
5.94584e-07
5.90233e-07
5.8657e-07
5.83472e-07
5.80757e-07
5.78189e-07
8.97095e-06
8.35427e-06
7.79509e-06
7.28616e-06
6.81948e-06
6.38992e-06
5.9945e-06
5.63115e-06
5.29777e-06
4.99203e-06
4.71174e-06
4.45488e-06
4.21935e-06
4.00271e-06
3.80245e-06
3.61645e-06
3.44297e-06
3.28044e-06
3.12757e-06
3.09277e-06
7.27221e-07
7.21576e-07
7.15934e-07
7.10367e-07
7.04927e-07
6.99657e-07
6.94571e-07
6.89648e-07
6.84827e-07
6.80032e-07
6.75213e-07
6.70347e-07
6.65433e-07
6.60472e-07
6.55442e-07
6.50298e-07
6.4496e-07
6.3933e-07
6.3333e-07
6.26986e-07
6.20448e-07
6.13975e-07
6.07858e-07
6.0233e-07
5.97534e-07
5.93528e-07
5.90293e-07
5.87728e-07
5.8566e-07
5.83856e-07
8.97086e-06
8.34977e-06
7.78534e-06
7.27127e-06
6.80014e-06
6.36764e-06
5.97106e-06
5.60787e-06
5.27526e-06
4.97053e-06
4.69153e-06
4.43637e-06
4.20279e-06
3.98802e-06
3.78939e-06
3.60488e-06
3.43295e-06
3.27213e-06
3.12106e-06
3.08827e-06
7.26781e-07
7.21488e-07
7.16091e-07
7.10926e-07
7.05857e-07
7.01105e-07
6.96498e-07
6.92042e-07
6.87775e-07
6.83695e-07
6.79714e-07
6.75779e-07
6.7187e-07
6.67975e-07
6.64057e-07
6.60035e-07
6.55768e-07
6.51125e-07
6.46051e-07
6.40619e-07
6.35022e-07
6.29532e-07
6.24421e-07
6.19923e-07
6.16223e-07
6.13436e-07
6.1158e-07
6.10563e-07
6.1023e-07
6.10391e-07
8.97259e-06
8.35618e-06
7.79868e-06
7.29137e-06
6.82896e-06
6.40768e-06
6.02377e-06
5.67376e-06
5.35438e-06
5.06311e-06
4.79826e-06
4.55805e-06
4.33987e-06
4.14059e-06
3.95747e-06
3.78858e-06
3.63236e-06
3.48688e-06
3.34992e-06
3.21995e-06
3.18329e-06
3.1705e-06
7.30844e-07
7.28507e-07
7.24352e-07
7.23959e-07
7.23061e-07
7.21512e-07
7.20898e-07
7.21354e-07
7.22479e-07
7.23871e-07
7.25257e-07
7.26433e-07
7.27199e-07
7.27317e-07
7.26567e-07
7.24823e-07
7.22089e-07
7.18533e-07
7.14419e-07
7.10099e-07
7.05972e-07
7.02548e-07
7.00046e-07
6.9857e-07
6.98345e-07
6.99264e-07
7.01173e-07
7.03949e-07
9.32224e-06
9.18921e-06
9.06326e-06
8.94239e-06
8.82451e-06
8.70886e-06
8.59569e-06
8.48513e-06
8.37769e-06
8.27437e-06
8.17578e-06
8.08137e-06
7.98988e-06
7.90033e-06
7.8126e-06
7.72679e-06
7.64239e-06
7.55824e-06
7.47354e-06
7.38853e-06
7.30418e-06
7.19016e-06
7.07975e-06
6.99662e-06
6.90832e-06
6.80209e-06
6.70682e-06
6.61764e-06
6.52637e-06
6.43447e-06
6.34436e-06
6.25776e-06
6.17524e-06
6.09621e-06
6.01934e-06
5.94313e-06
5.86647e-06
5.78901e-06
5.71099e-06
5.63332e-06
5.55725e-06
5.48438e-06
5.41637e-06
5.35382e-06
5.29839e-06
5.25034e-06
5.20709e-06
5.16681e-06
5.12763e-06
5.08703e-06
0.000330025
3.40059e-05
1.91148e-05
1.43118e-05
9.44245e-06
5.79301e-06
3.66069e-06
7.12927e-07
6.51939e-07
6.14113e-07
6.00546e-07
6.16834e-07
6.65528e-07
3.08615e-06
3.90082e-06
5.06613e-06
6.58761e-06
8.5506e-06
1.15063e-05
7.15327e-05
0.000320599
3.29703e-05
1.9052e-05
1.43092e-05
9.38438e-06
5.71901e-06
3.59907e-06
7.07257e-07
6.4731e-07
6.0956e-07
5.95694e-07
6.10819e-07
6.62521e-07
3.07183e-06
3.88452e-06
5.04491e-06
6.55741e-06
8.50148e-06
1.14672e-05
7.48716e-05
0.000312055
3.19156e-05
1.90091e-05
1.43137e-05
9.33673e-06
5.65667e-06
3.54779e-06
7.02678e-07
6.43538e-07
6.05724e-07
5.93208e-07
6.0582e-07
6.57199e-07
7.2021e-07
3.82809e-06
4.98154e-06
6.48636e-06
8.4166e-06
1.14032e-05
7.79983e-05
0.00030279
3.10136e-05
1.89908e-05
1.43275e-05
9.30016e-06
5.60513e-06
3.50534e-06
6.98919e-07
6.40293e-07
6.02096e-07
5.89731e-07
6.00833e-07
6.52345e-07
7.16637e-07
3.77605e-06
4.9214e-06
6.41826e-06
8.33455e-06
1.13437e-05
8.12379e-05
0.000293775
3.02083e-05
1.89919e-05
1.43495e-05
9.27355e-06
5.56282e-06
3.47014e-06
6.95775e-07
6.37395e-07
5.98504e-07
5.83342e-07
5.95187e-07
6.47644e-07
7.13153e-07
3.72669e-06
4.86406e-06
6.35267e-06
8.25469e-06
1.12876e-05
8.45966e-05
0.000284933
2.94861e-05
1.90092e-05
1.43787e-05
9.25549e-06
5.52797e-06
3.44058e-06
6.93057e-07
6.34722e-07
5.95021e-07
5.75291e-07
5.89115e-07
6.43027e-07
7.09825e-07
3.6801e-06
4.80913e-06
6.28925e-06
8.17663e-06
1.12348e-05
8.80791e-05
0.000276238
2.88416e-05
1.90405e-05
1.44139e-05
9.2441e-06
5.4987e-06
3.41524e-06
6.90621e-07
6.32225e-07
5.91823e-07
5.68585e-07
5.83459e-07
6.38752e-07
7.067e-07
3.636e-06
4.75644e-06
6.22788e-06
8.1004e-06
1.11855e-05
9.16905e-05
0.000267696
2.82648e-05
1.90832e-05
1.44537e-05
9.23744e-06
5.47332e-06
3.39293e-06
6.88358e-07
6.29858e-07
5.88979e-07
5.64901e-07
5.78995e-07
6.35046e-07
7.03823e-07
3.59431e-06
4.70595e-06
6.16862e-06
8.02624e-06
1.11404e-05
9.54365e-05
0.000259316
2.77428e-05
1.91347e-05
1.44965e-05
9.23382e-06
5.45051e-06
3.37274e-06
6.86193e-07
6.27555e-07
5.86343e-07
5.6383e-07
5.75875e-07
6.31903e-07
7.01174e-07
3.55481e-06
4.65754e-06
6.1115e-06
7.95441e-06
1.11001e-05
9.93213e-05
0.000251104
2.72637e-05
1.91928e-05
1.45409e-05
9.23207e-06
5.42936e-06
3.35398e-06
6.8406e-07
6.25232e-07
5.83632e-07
5.63321e-07
5.73601e-07
6.29094e-07
6.98677e-07
3.51713e-06
4.61094e-06
6.0564e-06
7.88492e-06
1.10646e-05
0.000103347
0.000243057
2.6818e-05
1.92556e-05
1.45863e-05
9.23148e-06
5.40928e-06
3.33624e-06
6.81931e-07
6.2283e-07
5.80633e-07
5.6136e-07
5.71342e-07
6.26302e-07
6.96231e-07
3.48082e-06
4.5658e-06
6.00301e-06
7.81745e-06
1.10336e-05
0.000107512
0.000235173
2.63992e-05
1.9322e-05
1.46321e-05
9.2317e-06
5.38991e-06
3.31919e-06
6.79801e-07
6.20349e-07
5.77297e-07
5.57165e-07
5.68428e-07
6.23295e-07
6.93751e-07
3.44549e-06
4.52173e-06
5.95083e-06
7.75142e-06
1.10066e-05
0.000111815
0.000227447
2.60025e-05
1.93911e-05
1.46783e-05
9.23254e-06
5.37102e-06
3.30267e-06
6.77688e-07
6.17825e-07
5.73764e-07
5.51392e-07
5.64668e-07
6.20031e-07
6.91198e-07
3.41084e-06
4.47836e-06
5.89943e-06
7.68636e-06
1.0983e-05
0.000116256
0.000219874
2.56244e-05
1.94624e-05
1.47247e-05
9.23383e-06
5.35231e-06
3.28647e-06
6.75605e-07
6.15299e-07
5.702e-07
5.45388e-07
5.60353e-07
6.16612e-07
6.88572e-07
3.37675e-06
4.43552e-06
5.84858e-06
7.62208e-06
1.09629e-05
0.000120837
0.000212451
2.52628e-05
1.95355e-05
1.47712e-05
9.23522e-06
5.33331e-06
3.27024e-06
6.73524e-07
6.12761e-07
5.6669e-07
5.40235e-07
5.55974e-07
6.13199e-07
6.85898e-07
3.34329e-06
4.39326e-06
5.79838e-06
7.55872e-06
1.09464e-05
0.000125563
0.000205175
2.49166e-05
1.96103e-05
1.48178e-05
9.23605e-06
5.31325e-06
3.25346e-06
6.71382e-07
6.10142e-07
5.63161e-07
5.36282e-07
5.51926e-07
6.09924e-07
6.83218e-07
3.31064e-06
4.35183e-06
5.74909e-06
7.49658e-06
1.0934e-05
0.000130442
0.000198046
2.45856e-05
1.96869e-05
1.48639e-05
9.2354e-06
5.29125e-06
3.23556e-06
6.69099e-07
6.07344e-07
5.59445e-07
5.33211e-07
5.4837e-07
6.0685e-07
6.80575e-07
3.27904e-06
4.31152e-06
5.70101e-06
7.43594e-06
1.09262e-05
0.000135483
0.000191068
2.42694e-05
1.97655e-05
1.49092e-05
9.23227e-06
5.26646e-06
3.21614e-06
6.66613e-07
6.04284e-07
5.55359e-07
5.30304e-07
5.45246e-07
6.03955e-07
6.77989e-07
3.2486e-06
4.27248e-06
5.65428e-06
7.37697e-06
1.09233e-05
0.000140692
0.000184247
2.39675e-05
1.9846e-05
1.4953e-05
9.22595e-06
5.23842e-06
3.19517e-06
6.63909e-07
6.00933e-07
5.50789e-07
5.26643e-07
5.42313e-07
6.01143e-07
6.7545e-07
3.21927e-06
4.2347e-06
5.60887e-06
7.31959e-06
1.09252e-05
0.000146074
0.000177588
2.36793e-05
1.99285e-05
1.49951e-05
9.21616e-06
5.2071e-06
3.173e-06
6.61019e-07
5.97324e-07
5.45733e-07
5.21398e-07
5.39203e-07
5.98263e-07
6.72925e-07
3.19086e-06
4.19803e-06
5.56461e-06
7.26352e-06
1.09316e-05
0.00015163
0.000171093
2.34043e-05
2.0013e-05
1.50355e-05
9.20308e-06
5.17286e-06
3.15031e-06
6.58011e-07
5.93537e-07
5.40301e-07
5.1421e-07
5.35549e-07
5.95194e-07
6.70377e-07
3.16316e-06
4.16227e-06
5.52123e-06
7.20844e-06
1.09423e-05
0.000157363
0.000164765
2.31425e-05
2.00996e-05
1.50745e-05
9.18718e-06
5.13626e-06
3.12801e-06
6.54967e-07
5.89686e-07
5.34717e-07
5.05481e-07
5.31158e-07
5.91904e-07
6.67793e-07
3.13602e-06
4.1273e-06
5.47859e-06
7.15423e-06
1.09573e-05
0.000163279
0.0001586
2.28942e-05
2.01883e-05
1.51121e-05
9.16897e-06
5.098e-06
3.10714e-06
6.51967e-07
5.859e-07
5.29304e-07
4.96434e-07
5.26116e-07
5.88478e-07
6.65198e-07
3.10948e-06
4.09319e-06
5.43682e-06
7.10109e-06
1.09771e-05
0.00016939
0.000152598
2.26594e-05
2.02785e-05
1.51483e-05
9.14897e-06
5.05879e-06
3.08885e-06
6.49081e-07
5.82308e-07
5.24413e-07
4.88612e-07
5.20774e-07
5.85078e-07
6.62654e-07
3.08374e-06
4.06023e-06
5.39629e-06
7.04949e-06
1.10025e-05
0.00017571
0.000146754
2.24387e-05
2.03697e-05
1.51831e-05
9.12772e-06
5.01935e-06
3.07436e-06
6.46364e-07
5.79019e-07
5.20348e-07
4.83125e-07
5.15591e-07
5.81868e-07
6.60237e-07
7.25291e-07
4.02879e-06
5.35744e-06
6.99987e-06
1.10342e-05
0.000182254
0.000141062
2.22333e-05
2.04613e-05
1.52166e-05
9.10583e-06
4.98045e-06
3.06496e-06
6.43857e-07
5.76125e-07
5.1731e-07
4.80222e-07
5.10916e-07
5.78948e-07
6.58016e-07
7.2385e-07
3.99932e-06
5.32058e-06
6.95256e-06
1.1073e-05
0.000189041
0.000135519
2.2045e-05
2.05531e-05
1.5249e-05
9.08407e-06
4.94296e-06
3.06209e-06
6.41605e-07
5.73702e-07
5.15382e-07
4.7946e-07
5.06875e-07
5.7634e-07
6.56029e-07
7.21907e-07
3.97187e-06
5.28588e-06
6.90777e-06
1.11195e-05
0.000196085
0.000130125
2.18765e-05
2.06452e-05
1.52811e-05
9.0635e-06
4.90787e-06
7.23665e-07
6.39623e-07
5.71818e-07
5.14556e-07
4.80311e-07
5.03438e-07
5.74058e-07
6.5439e-07
7.20359e-07
3.94583e-06
5.25348e-06
6.86564e-06
1.11742e-05
0.000203401
0.000124879
2.17308e-05
2.07382e-05
1.53139e-05
9.04544e-06
4.87635e-06
7.21813e-07
6.37998e-07
5.70543e-07
5.14788e-07
4.82524e-07
5.00609e-07
5.72169e-07
6.53067e-07
7.19177e-07
3.9221e-06
5.22349e-06