/*--------------------------------*- C++ -*----------------------------------*\
  =========                 |
  \\      /  F ield         | OpenFOAM: The Open Source CFD Toolbox
   \\    /   O peration     | Website:  https://openfoam.org
    \\  /    A nd           | Version:  8
     \\/     M anipulation  |
\*---------------------------------------------------------------------------*/
FoamFile
{
    version     2.0;
    format      ascii;
    class       volScalarField;
    location    "300";
    object      nut;
}
// * * * * * * * * * * * * * * * * * * * * * * * * * * * * * * * * * * * * * //

dimensions      [0 2 -1 0 0 0 0];

internalField   nonuniform List<scalar> 
8400
(
6.75192e-05
6.73517e-05
6.7201e-05
6.68619e-05
6.6439e-05
6.59547e-05
6.53603e-05
6.46177e-05
6.37621e-05
6.2949e-05
6.24178e-05
6.21714e-05
6.15996e-05
6.01677e-05
5.90459e-05
5.79777e-05
5.68784e-05
5.57701e-05
5.46797e-05
5.36249e-05
5.26052e-05
5.16101e-05
5.06315e-05
4.96769e-05
4.87632e-05
4.7897e-05
4.70765e-05
4.6289e-05
4.55305e-05
4.48038e-05
4.4113e-05
4.34592e-05
4.2841e-05
4.22591e-05
4.17157e-05
4.12106e-05
4.07423e-05
4.0308e-05
3.99036e-05
3.95269e-05
3.91648e-05
3.8785e-05
3.83762e-05
3.79256e-05
3.74315e-05
3.68937e-05
3.6319e-05
3.57177e-05
3.51016e-05
3.44799e-05
5.7998e-05
5.80127e-05
5.7541e-05
5.71537e-05
5.663e-05
5.59173e-05
5.47664e-05
5.3139e-05
5.1154e-05
4.95806e-05
4.99604e-05
5.11865e-05
4.97476e-05
4.82412e-05
4.54323e-05
4.23689e-05
3.92232e-05
3.60701e-05
3.29575e-05
3.01208e-05
2.76902e-05
2.59624e-05
2.5084e-05
2.45536e-05
2.36275e-05
2.24492e-05
2.13399e-05
2.05281e-05
2.0023e-05
1.95968e-05
1.92096e-05
1.89743e-05
1.8966e-05
1.91741e-05
1.95054e-05
1.99161e-05
2.03869e-05
2.08861e-05
2.13744e-05
2.18188e-05
2.22166e-05
2.26398e-05
2.30981e-05
2.36143e-05
2.41989e-05
2.48533e-05
2.55722e-05
2.63416e-05
2.71469e-05
2.79755e-05
6.1346e-05
6.11428e-05
6.09584e-05
6.07931e-05
6.0626e-05
6.04681e-05
6.03167e-05
6.01602e-05
5.99976e-05
5.98355e-05
5.96701e-05
5.94856e-05
5.92146e-05
5.86584e-05
5.78206e-05
5.67056e-05
5.53555e-05
5.36021e-05
5.09964e-05
4.66191e-05
3.04449e-05
2.32373e-05
2.36741e-05
2.24322e-05
2.21921e-05
2.15966e-05
2.13767e-05
2.1338e-05
2.15621e-05
2.19516e-05
2.24777e-05
2.30969e-05
2.37599e-05
2.44291e-05
2.50914e-05
2.57325e-05
2.63336e-05
2.68865e-05
2.74038e-05
2.79036e-05
2.84105e-05
2.89833e-05
2.96424e-05
3.04094e-05
3.12924e-05
3.22891e-05
3.33775e-05
3.45204e-05
3.56797e-05
3.68308e-05
6.14264e-05
6.13422e-05
6.12599e-05
6.1175e-05
6.10947e-05
6.10121e-05
6.09305e-05
6.08522e-05
6.07725e-05
6.06857e-05
6.05978e-05
6.04834e-05
6.03487e-05
6.01693e-05
5.99268e-05
5.95928e-05
5.91373e-05
5.85102e-05
5.7599e-05
5.61567e-05
5.41219e-05
5.08234e-05
4.67852e-05
4.23624e-05
3.71014e-05
2.69315e-05
2.11665e-05
2.38649e-05
2.4502e-05
2.59968e-05
2.70318e-05
2.8431e-05
2.95918e-05
3.06016e-05
3.15005e-05
3.22802e-05
3.29183e-05
3.34601e-05
3.39782e-05
3.4505e-05
3.50507e-05
3.56382e-05
3.63202e-05
3.71261e-05
3.8053e-05
3.91053e-05
4.02439e-05
4.13936e-05
4.2492e-05
4.35017e-05
6.14536e-05
6.14049e-05
6.13556e-05
6.13045e-05
6.12571e-05
6.12067e-05
6.11544e-05
6.11043e-05
6.10524e-05
6.09929e-05
6.0923e-05
6.08456e-05
6.07582e-05
6.0657e-05
6.05366e-05
6.03867e-05
6.0193e-05
5.99354e-05
5.95778e-05
5.90506e-05
5.82728e-05
5.7059e-05
5.53848e-05
5.32258e-05
5.0425e-05
4.70297e-05
4.3307e-05
3.97882e-05
3.59887e-05
3.12322e-05
2.44867e-05
2.78503e-05
3.21302e-05
3.34868e-05
3.58181e-05
3.74368e-05
3.85674e-05
3.92359e-05
3.98141e-05
4.04041e-05
4.10503e-05
4.17532e-05
4.24053e-05
4.31493e-05
4.40054e-05
4.50381e-05
4.61806e-05
4.72926e-05
4.82497e-05
4.90503e-05
6.14307e-05
6.13536e-05
6.12735e-05
6.11964e-05
6.11117e-05
6.10314e-05
6.09523e-05
6.08681e-05
6.07904e-05
6.07244e-05
6.06669e-05
6.06158e-05
6.05649e-05
6.05113e-05
6.04497e-05
6.03736e-05
6.02778e-05
6.01553e-05
5.99922e-05
5.97609e-05
5.94231e-05
5.89168e-05
5.81888e-05
5.71859e-05
5.58312e-05
5.40786e-05
5.19442e-05
4.96715e-05
4.71951e-05
4.42654e-05
4.16787e-05
3.94595e-05
3.74011e-05
3.45749e-05
3.0466e-05
3.39762e-05
4.04925e-05
4.24554e-05
4.45901e-05
4.54307e-05
4.60121e-05
4.65516e-05
4.73952e-05
4.81059e-05
4.87292e-05
4.96394e-05
5.07648e-05
5.18585e-05
5.27299e-05
5.34743e-05
6.14256e-05
6.13369e-05
6.12473e-05
6.11603e-05
6.10671e-05
6.09737e-05
6.08835e-05
6.07918e-05
6.06979e-05
6.06075e-05
6.05233e-05
6.04412e-05
6.03666e-05
6.03018e-05
6.02434e-05
6.01884e-05
6.01312e-05
6.00635e-05
5.99785e-05
5.98639e-05
5.97014e-05
5.94636e-05
5.91182e-05
5.86321e-05
5.79624e-05
5.70708e-05
5.59397e-05
5.46255e-05
5.31357e-05
5.14192e-05
4.96172e-05
4.78409e-05
4.6191e-05
4.43084e-05
4.25074e-05
4.08522e-05
3.97929e-05
3.86938e-05
3.7518e-05
4.12922e-05
4.72646e-05
4.94108e-05
4.94271e-05
4.95097e-05
4.9757e-05
5.06756e-05
5.19352e-05
5.28325e-05
5.33476e-05
5.37535e-05
6.14082e-05
6.1301e-05
6.11965e-05
6.10769e-05
6.09696e-05
6.08576e-05
6.07462e-05
6.06392e-05
6.05334e-05
6.04326e-05
6.03371e-05
6.0249e-05
6.01701e-05
6.0097e-05
6.00316e-05
5.99761e-05
5.99269e-05
5.98796e-05
5.9829e-05
5.97644e-05
5.96754e-05
5.95501e-05
5.93716e-05
5.91196e-05
5.87724e-05
5.83043e-05
5.76953e-05
5.69525e-05
5.60806e-05
5.50725e-05
5.39587e-05
5.27882e-05
5.16153e-05
5.03643e-05
4.90554e-05
4.77165e-05
4.65487e-05
4.53839e-05
4.42338e-05
4.35344e-05
4.35405e-05
4.42415e-05
4.48478e-05
4.46812e-05
4.48062e-05
4.85076e-05
5.2381e-05
5.36093e-05
5.33214e-05
5.28744e-05
6.13758e-05
6.12269e-05
6.10941e-05
6.09481e-05
6.08078e-05
6.06556e-05
6.05147e-05
6.03731e-05
6.02378e-05
6.01233e-05
6.00177e-05
5.99285e-05
5.98639e-05
5.98131e-05
5.97722e-05
5.97377e-05
5.97066e-05
5.96749e-05
5.9639e-05
5.96005e-05
5.95493e-05
5.94743e-05
5.93699e-05
5.92256e-05
5.90288e-05
5.8764e-05
5.84178e-05
5.79865e-05
5.74674e-05
5.68611e-05
5.61769e-05
5.5433e-05
5.46529e-05
5.38251e-05
5.29514e-05
5.20447e-05
5.11642e-05
5.02929e-05
4.94425e-05
4.87204e-05
4.82618e-05
4.82e-05
4.83951e-05
4.87475e-05
4.91057e-05
4.95015e-05
5.03748e-05
5.11763e-05
5.18402e-05
5.23246e-05
6.13297e-05
6.11154e-05
6.0888e-05
6.0712e-05
6.05456e-05
6.03947e-05
6.02707e-05
6.01085e-05
5.99615e-05
5.98132e-05
5.96832e-05
5.95936e-05
5.95482e-05
5.95299e-05
5.95211e-05
5.95213e-05
5.9526e-05
5.95215e-05
5.95003e-05
5.94685e-05
5.94233e-05
5.9362e-05
5.9283e-05
5.91794e-05
5.90471e-05
5.88787e-05
5.86618e-05
5.83903e-05
5.80638e-05
5.76833e-05
5.72509e-05
5.67723e-05
5.62565e-05
5.57054e-05
5.51239e-05
5.45168e-05
5.39041e-05
5.32954e-05
5.27092e-05
5.21882e-05
5.17949e-05
5.15884e-05
5.15657e-05
5.17068e-05
5.19749e-05
5.21188e-05
5.23187e-05
5.26447e-05
5.29038e-05
5.30974e-05
6.12441e-05
6.10229e-05
6.0952e-05
6.15125e-05
6.27803e-05
6.48258e-05
6.68962e-05
6.66614e-05
6.39294e-05
6.11773e-05
5.92713e-05
5.84357e-05
5.82679e-05
5.84923e-05
5.87727e-05
5.89905e-05
5.91373e-05
5.92281e-05
5.9267e-05
5.92654e-05
5.92341e-05
5.91796e-05
5.91069e-05
5.90209e-05
5.89204e-05
5.87969e-05
5.86443e-05
5.84587e-05
5.82382e-05
5.79836e-05
5.76957e-05
5.73746e-05
5.7024e-05
5.66458e-05
5.62456e-05
5.58271e-05
5.54002e-05
5.49745e-05
5.4565e-05
5.41927e-05
5.38859e-05
5.36716e-05
5.35604e-05
5.35466e-05
5.36095e-05
5.37016e-05
5.37121e-05
5.37358e-05
5.37828e-05
5.38051e-05
5.91769e-05
5.73908e-05
5.61233e-05
5.58962e-05
5.66849e-05
5.72329e-05
5.70616e-05
5.75661e-05
5.83428e-05
5.96906e-05
5.81763e-05
5.66745e-05
5.67538e-05
5.74403e-05
5.78681e-05
5.80644e-05
5.83619e-05
5.85615e-05
5.8702e-05
5.87844e-05
5.88157e-05
5.88116e-05
5.87757e-05
5.87182e-05
5.86446e-05
5.85505e-05
5.84344e-05
5.82983e-05
5.81436e-05
5.79663e-05
5.77654e-05
5.75406e-05
5.72917e-05
5.70236e-05
5.6741e-05
5.64441e-05
5.61359e-05
5.58251e-05
5.55241e-05
5.52424e-05
5.49936e-05
5.47884e-05
5.46359e-05
5.45366e-05
5.44779e-05
5.44498e-05
5.43858e-05
5.42957e-05
5.42053e-05
5.41084e-05
5.08045e-05
4.88434e-05
4.80742e-05
4.82677e-05
4.8986e-05
4.97745e-05
5.07128e-05
5.18674e-05
5.3282e-05
5.5014e-05
5.70352e-05
5.86426e-05
5.89119e-05
5.8631e-05
5.85077e-05
5.84533e-05
5.85043e-05
5.85432e-05
5.85534e-05
5.84429e-05
5.83679e-05
5.83328e-05
5.83014e-05
5.8274e-05
5.82313e-05
5.81732e-05
5.80959e-05
5.80008e-05
5.78908e-05
5.77647e-05
5.76181e-05
5.74519e-05
5.72666e-05
5.70684e-05
5.68567e-05
5.66334e-05
5.64007e-05
5.61617e-05
5.5924e-05
5.5692e-05
5.54728e-05
5.52761e-05
5.51055e-05
5.49565e-05
5.48293e-05
5.47058e-05
5.45819e-05
5.44275e-05
5.4266e-05
5.40967e-05
4.64902e-05
4.64039e-05
4.68835e-05
4.75835e-05
4.82385e-05
4.88231e-05
4.95176e-05
5.03355e-05
5.13015e-05
5.24434e-05
5.37669e-05
5.52557e-05
5.68364e-05
5.81299e-05
5.86657e-05
5.8804e-05
5.87796e-05
5.86726e-05
5.84947e-05
5.82954e-05
5.81676e-05
5.80842e-05
5.80398e-05
5.80099e-05
5.79498e-05
5.78122e-05
5.77106e-05
5.76256e-05
5.75403e-05
5.74431e-05
5.73317e-05
5.72046e-05
5.70613e-05
5.69053e-05
5.67392e-05
5.65626e-05
5.63759e-05
5.61802e-05
5.59774e-05
5.57691e-05
5.55649e-05
5.53728e-05
5.51893e-05
5.5008e-05
5.48339e-05
5.46475e-05
5.44519e-05
5.42668e-05
5.4049e-05
5.38274e-05
4.55645e-05
4.60178e-05
4.65675e-05
4.71101e-05
4.7592e-05
4.80759e-05
4.86486e-05
4.92967e-05
5.0037e-05
5.08711e-05
5.17927e-05
5.27984e-05
5.38724e-05
5.4973e-05
5.60213e-05
5.67928e-05
5.73122e-05
5.76873e-05
5.78582e-05
5.78992e-05
5.78786e-05
5.7844e-05
5.78166e-05
5.77839e-05
5.76794e-05
5.75571e-05
5.7455e-05
5.73729e-05
5.72807e-05
5.71356e-05
5.69944e-05
5.68708e-05
5.67429e-05
5.66146e-05
5.64769e-05
5.63242e-05
5.61627e-05
5.59909e-05
5.58041e-05
5.56096e-05
5.5418e-05
5.52242e-05
5.50227e-05
5.48135e-05
5.45948e-05
5.43632e-05
5.4112e-05
5.38587e-05
5.3604e-05
5.33379e-05
4.52979e-05
4.57064e-05
4.61432e-05
4.65799e-05
4.70171e-05
4.74879e-05
4.80137e-05
4.85899e-05
4.92167e-05
4.98899e-05
5.06091e-05
5.13771e-05
5.21863e-05
5.30162e-05
5.38355e-05
5.45991e-05
5.52467e-05
5.57907e-05
5.62823e-05
5.66735e-05
5.6961e-05
5.71576e-05
5.72821e-05
5.73442e-05
5.73402e-05
5.72978e-05
5.72488e-05
5.71931e-05
5.70802e-05
5.69326e-05
5.68006e-05
5.66685e-05
5.64834e-05
5.62992e-05
5.61509e-05
5.59953e-05
5.58352e-05
5.56654e-05
5.54841e-05
5.52885e-05
5.50967e-05
5.48942e-05
5.46726e-05
5.44434e-05
5.41882e-05
5.3917e-05
5.36312e-05
5.3305e-05
5.29799e-05
5.26434e-05
4.49457e-05
4.53294e-05
4.57688e-05
4.62341e-05
4.67276e-05
4.72321e-05
4.774e-05
4.82522e-05
4.87687e-05
4.92945e-05
4.98398e-05
5.04138e-05
5.10201e-05
5.16566e-05
5.23131e-05
5.29676e-05
5.35878e-05
5.41381e-05
5.46249e-05
5.51037e-05
5.55509e-05
5.59368e-05
5.62487e-05
5.64863e-05
5.66492e-05
5.67472e-05
5.67974e-05
5.68111e-05
5.67747e-05
5.66904e-05
5.65844e-05
5.64595e-05
5.62734e-05
5.60844e-05
5.59144e-05
5.5674e-05
5.54411e-05
5.52464e-05
5.50529e-05
5.4857e-05
5.46494e-05
5.44196e-05
5.41779e-05
5.3914e-05
5.36128e-05
5.32778e-05
5.29035e-05
5.25141e-05
5.21057e-05
5.16936e-05
4.51632e-05
4.57454e-05
4.63898e-05
4.70614e-05
4.7733e-05
4.83139e-05
4.87773e-05
4.91409e-05
4.94227e-05
4.96481e-05
4.9848e-05
5.00517e-05
5.02882e-05
5.05824e-05
5.09505e-05
5.13975e-05
5.19114e-05
5.24628e-05
5.30071e-05
5.35062e-05
5.39747e-05
5.44127e-05
5.48102e-05
5.5158e-05
5.54506e-05
5.56848e-05
5.58581e-05
5.59761e-05
5.6043e-05
5.6062e-05
5.6042e-05
5.59891e-05
5.58935e-05
5.57643e-05
5.55997e-05
5.53638e-05
5.51347e-05
5.49341e-05
5.46215e-05
5.43541e-05
5.41212e-05
5.38357e-05
5.35379e-05
5.3177e-05
5.28117e-05
5.24309e-05
5.19712e-05
5.14793e-05
5.09408e-05
5.04394e-05
4.97451e-05
5.09442e-05
5.21279e-05
5.32412e-05
5.42291e-05
5.47557e-05
5.48527e-05
5.46869e-05
5.4341e-05
5.38605e-05
5.32796e-05
5.26293e-05
5.19489e-05
5.12837e-05
5.0686e-05
5.02165e-05
4.99381e-05
4.99187e-05
5.02257e-05
5.09203e-05
5.17567e-05
5.24249e-05
5.29792e-05
5.34317e-05
5.38135e-05
5.4133e-05
5.43972e-05
5.46096e-05
5.47747e-05
5.48965e-05
5.4975e-05
5.50101e-05
5.50021e-05
5.4956e-05
5.48727e-05
5.47447e-05
5.45839e-05
5.43895e-05
5.41268e-05
5.38782e-05
5.35993e-05
5.31301e-05
5.27691e-05
5.23945e-05
5.18862e-05
5.12592e-05
5.0575e-05
4.98827e-05
4.94377e-05
4.91175e-05
7.81487e-05
7.83462e-05
7.83069e-05
7.80059e-05
7.74473e-05
7.69503e-05
7.65707e-05
7.62051e-05
7.58031e-05
7.53396e-05
7.48004e-05
7.41734e-05
7.34504e-05
7.26257e-05
7.16926e-05
7.06454e-05
6.9479e-05
6.81919e-05
6.67809e-05
6.52402e-05
6.37479e-05
6.25025e-05
6.14658e-05
6.06138e-05
5.99038e-05
5.93065e-05
5.87911e-05
5.83338e-05
5.79143e-05
5.75164e-05
5.71266e-05
5.67326e-05
5.63257e-05
5.58984e-05
5.54425e-05
5.49489e-05
5.44112e-05
5.38296e-05
5.31947e-05
5.24953e-05
5.17147e-05
5.08751e-05
4.99701e-05
4.88813e-05
4.93602e-05
5.06689e-05
5.17242e-05
5.1158e-05
5.10357e-05
5.09567e-05
5.48223e-06
5.45538e-06
5.42976e-06
5.40538e-06
5.38177e-06
5.3585e-06
5.33634e-06
5.3158e-06
5.29656e-06
5.27794e-06
5.2594e-06
5.24071e-06
5.22174e-06
5.20228e-06
5.18203e-06
5.16096e-06
5.1394e-06
5.11798e-06
5.09733e-06
5.07801e-06
5.06033e-06
5.03297e-06
5.00884e-06
4.98787e-06
4.97038e-06
4.95396e-06
4.93721e-06
4.91888e-06
4.90099e-06
4.88136e-06
4.85939e-06
4.83546e-06
4.81027e-06
4.78497e-06
4.76091e-06
4.73904e-06
4.71956e-06
4.70221e-06
4.68657e-06
4.67167e-06
4.65716e-06
4.64296e-06
4.62925e-06
4.61658e-06
4.60432e-06
4.59182e-06
4.5792e-06
4.56677e-06
4.5554e-06
4.54534e-06
5.41055e-06
5.28192e-06
5.15984e-06
5.0434e-06
4.93283e-06
4.82964e-06
4.73372e-06
4.64406e-06
4.55942e-06
4.47863e-06
4.40091e-06
4.32556e-06
4.25183e-06
4.17912e-06
4.10757e-06
4.03821e-06
3.97243e-06
3.91155e-06
3.85642e-06
3.80894e-06
3.76424e-06
3.65751e-06
3.60425e-06
3.58056e-06
1.55767e-05
1.58105e-05
1.5912e-05
1.59172e-05
1.58414e-05
1.5725e-05
1.56035e-05
1.54992e-05
1.54229e-05
1.53776e-05
1.536e-05
1.53624e-05
1.53753e-05
1.53904e-05
1.54006e-05
1.54023e-05
1.53918e-05
1.5368e-05
1.53306e-05
1.52781e-05
1.52134e-05
1.51409e-05
1.50615e-05
1.49717e-05
1.48647e-05
1.47448e-05
5.41076e-06
5.28212e-06
5.15847e-06
5.04005e-06
4.9275e-06
4.8215e-06
4.72195e-06
4.62799e-06
4.53855e-06
4.45276e-06
4.36991e-06
4.28925e-06
4.21004e-06
4.13195e-06
4.05534e-06
3.98106e-06
3.91015e-06
3.84346e-06
3.78244e-06
1.6135e-05
1.58795e-05
1.57217e-05
1.5606e-05
1.55054e-05
1.54109e-05
1.53079e-05
1.51901e-05
1.50581e-05
1.49154e-05
1.4768e-05
1.46219e-05
1.44829e-05
1.4356e-05
1.42445e-05
1.41488e-05
1.40669e-05
1.39958e-05
1.3931e-05
1.38677e-05
1.38021e-05
1.37324e-05
1.3658e-05
1.35781e-05
1.34927e-05
1.34036e-05
1.33136e-05
1.32249e-05
1.31366e-05
1.30423e-05
1.29281e-05
5.41105e-06
5.28351e-06
5.16075e-06
5.04336e-06
4.93206e-06
4.82718e-06
4.72833e-06
4.63467e-06
4.5453e-06
4.4595e-06
4.37647e-06
4.29526e-06
4.21522e-06
4.13632e-06
4.05919e-06
3.98474e-06
3.91379e-06
3.84695e-06
3.7838e-06
3.66032e-06
1.55745e-05
1.55679e-05
1.55189e-05
1.54441e-05
1.53496e-05
1.52374e-05
1.51096e-05
1.49701e-05
1.48231e-05
1.46727e-05
1.45227e-05
1.43773e-05
1.42407e-05
1.41156e-05
1.40026e-05
1.39007e-05
1.38068e-05
1.37172e-05
1.36279e-05
1.35365e-05
1.34423e-05
1.33448e-05
1.32436e-05
1.31387e-05
1.30314e-05
1.29232e-05
1.28164e-05
1.27146e-05
1.26198e-05
1.25186e-05
5.41117e-06
5.28348e-06
5.1606e-06
5.04344e-06
4.93251e-06
4.82781e-06
4.72878e-06
4.63477e-06
4.54512e-06
4.45909e-06
4.37572e-06
4.29404e-06
4.21357e-06
4.13451e-06
4.05755e-06
3.98344e-06
3.9128e-06
3.84613e-06
3.7849e-06
1.61406e-05
1.5872e-05
1.57063e-05
1.55868e-05
1.54819e-05
1.53743e-05
1.52558e-05
1.51247e-05
1.4983e-05
1.48345e-05
1.46827e-05
1.45317e-05
1.4386e-05
1.42495e-05
1.41243e-05
1.40106e-05
1.3907e-05
1.38099e-05
1.37153e-05
1.36198e-05
1.35219e-05
1.34212e-05
1.33173e-05
1.32098e-05
1.30996e-05
1.29883e-05
1.28765e-05
1.27638e-05
1.26525e-05
1.25482e-05
1.24474e-05
5.41112e-06
5.28335e-06
5.16094e-06
5.04459e-06
4.93433e-06
4.82993e-06
4.73088e-06
4.63673e-06
4.54701e-06
4.46094e-06
4.37743e-06
4.29558e-06
4.21504e-06
4.1361e-06
4.05931e-06
3.98527e-06
3.91458e-06
3.84784e-06
3.78662e-06
1.61556e-05
1.58862e-05
1.57182e-05
1.55965e-05
1.54896e-05
1.53802e-05
1.52604e-05
1.51288e-05
1.49877e-05
1.48404e-05
1.46907e-05
1.45429e-05
1.44012e-05
1.4269e-05
1.41478e-05
1.40373e-05
1.39353e-05
1.38382e-05
1.3742e-05
1.36444e-05
1.35442e-05
1.34407e-05
1.33331e-05
1.32211e-05
1.31063e-05
1.29916e-05
1.28791e-05
1.27684e-05
1.26583e-05
1.25522e-05
1.24513e-05
5.41102e-06
5.28341e-06
5.16159e-06
5.04578e-06
4.93572e-06
4.83107e-06
4.73162e-06
4.63715e-06
4.54724e-06
4.46099e-06
4.37726e-06
4.29519e-06
4.2145e-06
4.13543e-06
4.05845e-06
3.98416e-06
3.91326e-06
3.84646e-06
3.78531e-06
1.61423e-05
1.58739e-05
1.57065e-05
1.55844e-05
1.54763e-05
1.53655e-05
1.52449e-05
1.51138e-05
1.49744e-05
1.48301e-05
1.46848e-05
1.45426e-05
1.44072e-05
1.4281e-05
1.41652e-05
1.40588e-05
1.39595e-05
1.38635e-05
1.37674e-05
1.36692e-05
1.35677e-05
1.34617e-05
1.33504e-05
1.3234e-05
1.31145e-05
1.29952e-05
1.28795e-05
1.27692e-05
1.26623e-05
1.25596e-05
1.24618e-05
5.41101e-06
5.28384e-06
5.16249e-06
5.04694e-06
4.93689e-06
4.83207e-06
4.73248e-06
4.63802e-06
4.54816e-06
4.46185e-06
4.3779e-06
4.29555e-06
4.2146e-06
4.13528e-06
4.05808e-06
3.98364e-06
3.91274e-06
3.84611e-06
3.78524e-06
1.61332e-05
1.58651e-05
1.57045e-05
1.55834e-05
1.54731e-05
1.53594e-05
1.52369e-05
1.51055e-05
1.49678e-05
1.48268e-05
1.46862e-05
1.45497e-05
1.44201e-05
1.42995e-05
1.41884e-05
1.40857e-05
1.39886e-05
1.38936e-05
1.37974e-05
1.36976e-05
1.3593e-05
1.34824e-05
1.3366e-05
1.32451e-05
1.31219e-05
1.29997e-05
1.28815e-05
1.27701e-05
1.26649e-05
1.25661e-05
1.24724e-05
5.4111e-06
5.28433e-06
5.16329e-06
5.04789e-06
4.93782e-06
4.83303e-06
4.73354e-06
4.63918e-06
4.54923e-06
4.46252e-06
4.37798e-06
4.29505e-06
4.21368e-06
4.13411e-06
4.05675e-06
3.98228e-06
3.91152e-06
3.84519e-06
3.783e-06
3.64292e-06
3.55852e-06
1.52131e-05
1.5302e-05
1.5313e-05
1.52684e-05
1.51851e-05
1.50765e-05
1.49525e-05
1.48207e-05
1.46873e-05
1.45569e-05
1.44329e-05
1.43172e-05
1.42102e-05
1.41106e-05
1.40154e-05
1.3921e-05
1.3824e-05
1.3722e-05
1.36137e-05
1.34988e-05
1.33781e-05
1.32536e-05
1.31282e-05
1.30046e-05
1.28856e-05
1.27734e-05
1.26695e-05
1.25729e-05
1.24827e-05
5.41121e-06
5.28469e-06
5.1639e-06
5.04877e-06
4.93894e-06
4.8344e-06
4.7351e-06
4.6407e-06
4.5503e-06
4.46284e-06
4.37755e-06
4.29414e-06
4.2126e-06
4.13301e-06
4.05567e-06
3.9813e-06
3.9108e-06
3.84492e-06
3.78325e-06
3.64396e-06
1.55174e-05
1.55384e-05
1.55106e-05
1.54447e-05
1.535e-05
1.52349e-05
1.51068e-05
1.49716e-05
1.48347e-05
1.47003e-05
1.45714e-05
1.44501e-05
1.43375e-05
1.42332e-05
1.41356e-05
1.40412e-05
1.39462e-05
1.38474e-05
1.3743e-05
1.36321e-05
1.35147e-05
1.33919e-05
1.32652e-05
1.31376e-05
1.30124e-05
1.28922e-05
1.27795e-05
1.26758e-05
1.25802e-05
1.24919e-05
5.41125e-06
5.28506e-06
5.16468e-06
5.04987e-06
4.94033e-06
4.83596e-06
4.73664e-06
4.64186e-06
4.55074e-06
4.4625e-06
4.37671e-06
4.29318e-06
4.21169e-06
4.13208e-06
4.05467e-06
3.98037e-06
3.91023e-06
3.84487e-06
3.78356e-06
3.6443e-06
1.55135e-05
1.55338e-05
1.55035e-05
1.54351e-05
1.53388e-05
1.52233e-05
1.50962e-05
1.49639e-05
1.48314e-05
1.47023e-05
1.45788e-05
1.44624e-05
1.43537e-05
1.42522e-05
1.4156e-05
1.40616e-05
1.39657e-05
1.38656e-05
1.376e-05
1.36483e-05
1.35304e-05
1.34066e-05
1.32785e-05
1.3149e-05
1.30217e-05
1.28998e-05
1.27862e-05
1.26815e-05
1.25863e-05
1.24992e-05
5.41128e-06
5.28566e-06
5.1658e-06
5.05123e-06
4.94175e-06
4.83728e-06
4.73767e-06
4.64234e-06
4.55059e-06
4.46193e-06
4.37606e-06
4.29257e-06
4.21095e-06
4.13104e-06
4.05346e-06
3.97938e-06
3.90976e-06
3.84486e-06
3.78359e-06
3.64407e-06
1.55006e-05
1.55187e-05
1.54869e-05
1.54174e-05
1.53209e-05
1.52065e-05
1.50823e-05
1.49546e-05
1.48277e-05
1.47043e-05
1.45858e-05
1.44735e-05
1.43678e-05
1.42681e-05
1.41723e-05
1.40776e-05
1.39811e-05
1.38809e-05
1.37754e-05
1.36638e-05
1.35458e-05
1.34212e-05
1.32919e-05
1.31607e-05
1.30316e-05
1.2908e-05
1.27927e-05
1.26864e-05
1.25904e-05
1.2504e-05
5.41145e-06
5.2867e-06
5.16718e-06
5.05253e-06
4.94278e-06
4.83804e-06
4.73811e-06
4.64246e-06
4.55053e-06
4.46189e-06
4.37604e-06
4.29231e-06
4.2102e-06
4.1299e-06
4.0524e-06
3.97887e-06
3.90984e-06
3.84516e-06
3.78367e-06
3.64396e-06
1.549e-05
1.55052e-05
1.54702e-05
1.53984e-05
1.53015e-05
1.51893e-05
1.50697e-05
1.49478e-05
1.48268e-05
1.47086e-05
1.45946e-05
1.4486e-05
1.43829e-05
1.42845e-05
1.41889e-05
1.40938e-05
1.3997e-05
1.38968e-05
1.37915e-05
1.36798e-05
1.35611e-05
1.34357e-05
1.33055e-05
1.31733e-05
1.30424e-05
1.29166e-05
1.27981e-05
1.26897e-05
1.2592e-05
1.2505e-05
5.41176e-06
5.28783e-06
5.16836e-06
5.05336e-06
4.94328e-06
4.83837e-06
4.73838e-06
4.64274e-06
4.55083e-06
4.46204e-06
4.37571e-06
4.29122e-06
4.20843e-06
4.12796e-06
4.05088e-06
3.97795e-06
3.90924e-06
3.84445e-06
3.78267e-06
3.64603e-06
1.54808e-05
1.54871e-05
1.54404e-05
1.53596e-05
1.52594e-05
1.51498e-05
1.50367e-05
1.49232e-05
1.48111e-05
1.47015e-05
1.45955e-05
1.44937e-05
1.43955e-05
1.42999e-05
1.42055e-05
1.41107e-05
1.40139e-05
1.39134e-05
1.38077e-05
1.36955e-05
1.35764e-05
1.34509e-05
1.33203e-05
1.31868e-05
1.30535e-05
1.29242e-05
1.28019e-05
1.26906e-05
1.25912e-05
1.25032e-05
5.41214e-06
5.28871e-06
5.16909e-06
5.0538e-06
4.94368e-06
4.83899e-06
4.7393e-06
4.64385e-06
4.55182e-06
4.46253e-06
4.37543e-06
4.29025e-06
4.20725e-06
4.12716e-06
4.05072e-06
3.97827e-06
3.90967e-06
3.84477e-06
3.78287e-06
3.64598e-06
1.54728e-05
1.54776e-05
1.5431e-05
1.53519e-05
1.52546e-05
1.51481e-05
1.50378e-05
1.49268e-05
1.48173e-05
1.47109e-05
1.46084e-05
1.45092e-05
1.44123e-05
1.43168e-05
1.42216e-05
1.41258e-05
1.40278e-05
1.39263e-05
1.38199e-05
1.3708e-05
1.35898e-05
1.3465e-05
1.3334e-05
1.31984e-05
1.30619e-05
1.29287e-05
1.28037e-05
1.26896e-05
1.25885e-05
1.25003e-05
5.41241e-06
5.28911e-06
5.16924e-06
5.05382e-06
4.94383e-06
4.83935e-06
4.73969e-06
4.64385e-06
4.55102e-06
4.4607e-06
4.37271e-06
4.28709e-06
4.20413e-06
4.12435e-06
4.04824e-06
3.97595e-06
3.90738e-06
3.84251e-06
3.78055e-06
3.63932e-06
1.54361e-05
1.54478e-05
1.54158e-05
1.53538e-05
1.52717e-05
1.51764e-05
1.5073e-05
1.49656e-05
1.48577e-05
1.47515e-05
1.46477e-05
1.4546e-05
1.44454e-05
1.43455e-05
1.42459e-05
1.41458e-05
1.40444e-05
1.39408e-05
1.3834e-05
1.37228e-05
1.36057e-05
1.3481e-05
1.33488e-05
1.32114e-05
1.30731e-05
1.29385e-05
1.2813e-05
1.26994e-05
1.25992e-05
1.25131e-05
5.41254e-06
5.28926e-06
5.1695e-06
5.05454e-06
4.94521e-06
4.84124e-06
4.74163e-06
4.64534e-06
4.55184e-06
4.46099e-06
4.37278e-06
4.28717e-06
4.20433e-06
4.12471e-06
4.04876e-06
3.97665e-06
3.90825e-06
3.84341e-06
3.78128e-06
3.63947e-06
1.54326e-05
1.54436e-05
1.54122e-05
1.53514e-05
1.52711e-05
1.51782e-05
1.50781e-05
1.49746e-05
1.48707e-05
1.47682e-05
1.46675e-05
1.45683e-05
1.44698e-05
1.43716e-05
1.42734e-05
1.41751e-05
1.40766e-05
1.39772e-05
1.38757e-05
1.377e-05
1.36575e-05
1.35367e-05
1.34081e-05
1.32749e-05
1.31414e-05
1.30131e-05
1.28939e-05
1.27883e-05
1.26987e-05
1.26255e-05
5.41259e-06
5.28848e-06
5.16793e-06
5.05242e-06
4.94258e-06
4.83786e-06
4.73721e-06
4.63989e-06
4.54567e-06
4.45452e-06
4.36619e-06
4.2805e-06
4.19767e-06
4.11835e-06
4.04301e-06
3.97164e-06
3.9039e-06
3.83964e-06
3.77808e-06
3.63779e-06
1.54239e-05
1.54407e-05
1.54175e-05
1.53643e-05
1.52937e-05
1.52094e-05
1.5121e-05
1.50305e-05
1.49391e-05
1.4849e-05
1.47625e-05
1.46799e-05
1.46007e-05
1.45241e-05
1.44494e-05
1.43763e-05
1.43045e-05
1.42325e-05
1.41579e-05
1.40773e-05
1.39881e-05
1.38893e-05
1.37823e-05
1.36706e-05
1.35586e-05
1.34524e-05
1.33567e-05
1.32767e-05
1.32165e-05
1.31784e-05
5.41295e-06
5.28996e-06
5.17153e-06
5.05846e-06
4.95062e-06
4.84827e-06
4.75093e-06
4.65783e-06
4.56858e-06
4.48269e-06
4.39949e-06
4.3187e-06
4.24085e-06
4.16676e-06
4.09688e-06
4.03105e-06
3.96901e-06
3.91096e-06
3.85749e-06
3.80625e-06
3.72275e-06
3.64768e-06
1.5825e-05
1.59423e-05
1.60177e-05
1.5995e-05
1.59744e-05
1.59546e-05
1.59147e-05
1.58658e-05
1.58219e-05
1.57901e-05
1.57714e-05
1.57639e-05
1.5765e-05
1.57716e-05
1.57801e-05
1.57855e-05
1.57827e-05
1.57666e-05
1.57338e-05
1.56833e-05
1.56165e-05
1.55359e-05
1.54498e-05
1.53663e-05
1.52915e-05
1.52341e-05
1.51996e-05
1.51943e-05
5.48215e-06
5.45686e-06
5.43225e-06
5.40907e-06
5.38752e-06
5.36617e-06
5.34449e-06
5.32276e-06
5.30105e-06
5.27925e-06
5.25743e-06
5.23609e-06
5.21583e-06
5.19681e-06
5.17872e-06
5.1612e-06
5.14423e-06
5.12805e-06
5.11261e-06
5.09734e-06
5.05801e-06
5.04048e-06
5.04494e-06
5.00723e-06
4.98008e-06
4.96566e-06
4.94519e-06
4.92334e-06
4.90479e-06
4.88747e-06
4.86953e-06
4.85022e-06
4.82964e-06
4.80847e-06
4.78754e-06
4.7675e-06
4.74859e-06
4.73057e-06
4.71313e-06
4.69577e-06
4.6781e-06
4.65981e-06
4.64064e-06
4.62106e-06
4.60098e-06
4.58048e-06
4.56153e-06
4.54462e-06
4.52985e-06
4.51706e-06
1.78552e-05
8.4133e-06
6.91004e-06
6.27948e-06
5.48349e-06
4.67994e-06
4.03195e-06
1.57359e-05
1.43969e-05
1.36007e-05
1.34499e-05
1.37169e-05
1.45602e-05
3.71856e-06
4.00715e-06
4.38825e-06
4.81334e-06
5.27539e-06
5.84883e-06
1.07132e-05
1.76956e-05
8.31299e-06
6.90403e-06
6.28115e-06
5.47729e-06
4.66706e-06
4.01697e-06
1.56289e-05
1.43081e-05
1.35094e-05
1.33412e-05
1.35064e-05
1.43884e-05
3.69951e-06
3.99912e-06
4.38352e-06
4.80724e-06
5.266e-06
5.84296e-06
1.08765e-05
1.74952e-05
8.24529e-06
6.90242e-06
6.28487e-06
5.47313e-06
4.65601e-06
4.00339e-06
1.55352e-05
1.42247e-05
1.34146e-05
1.32274e-05
1.33755e-05
1.42603e-05
1.5611e-05
3.98407e-06
4.36788e-06
4.7918e-06
5.24989e-06
5.83368e-06
1.10326e-05
1.73262e-05
8.17612e-06
6.9026e-06
6.28944e-06
5.47008e-06
4.64607e-06
3.99076e-06
1.54524e-05
1.41477e-05
1.33248e-05
1.31396e-05
1.32598e-05
1.41402e-05
1.55278e-05
3.96848e-06
4.35268e-06
4.77662e-06
5.23405e-06
5.82485e-06
1.11886e-05
1.71527e-05
8.11224e-06
6.9044e-06
6.29454e-06
5.46747e-06
4.6365e-06
3.97862e-06
1.53764e-05
1.40749e-05
1.32404e-05
1.30881e-05
1.31586e-05
1.40302e-05
1.54511e-05
3.95458e-06
4.33808e-06
4.76201e-06
5.21888e-06
5.81696e-06
1.13455e-05
1.69775e-05
8.05373e-06
6.90753e-06
6.29983e-06
5.46493e-06
4.627e-06
3.96687e-06
1.5306e-05
1.40056e-05
1.31614e-05
1.30377e-05
1.30555e-05
1.39265e-05
1.53774e-05
3.9414e-06
4.32406e-06
4.74797e-06
5.20432e-06
5.80997e-06
1.15038e-05
1.68017e-05
7.99847e-06
6.91149e-06
6.30506e-06
5.46235e-06
4.61758e-06
3.95536e-06
1.52395e-05
1.39388e-05
1.30857e-05
1.29588e-05
1.2942e-05
1.38255e-05
1.53066e-05
3.92869e-06
4.31043e-06
4.73437e-06
5.19011e-06
5.80362e-06
1.16632e-05
1.66255e-05
7.94516e-06
6.91594e-06
6.31013e-06
5.45975e-06
4.6084e-06
3.94427e-06
1.5176e-05
1.38728e-05
1.30095e-05
1.28562e-05
1.28233e-05
1.3727e-05
1.52388e-05
3.91639e-06
4.29709e-06
4.72096e-06
5.176e-06
5.79764e-06
1.18235e-05
1.64485e-05
7.8935e-06
6.9208e-06
6.31515e-06
5.4573e-06
4.59944e-06
3.93362e-06
1.51147e-05
1.38069e-05
1.29291e-05
1.27407e-05
1.27109e-05
1.36363e-05
1.51757e-05
3.90448e-06
4.28399e-06
4.70765e-06
5.16184e-06
5.79187e-06
1.19847e-05
1.62704e-05
7.8434e-06
6.926e-06
6.32022e-06
5.45505e-06
4.59065e-06
3.92342e-06
1.5055e-05
1.37409e-05
1.28457e-05
1.26418e-05
1.26153e-05
1.35575e-05
1.51184e-05
3.89314e-06
4.27122e-06
4.69449e-06
5.14765e-06
5.78639e-06
1.21469e-05
1.60912e-05
7.79508e-06
6.93156e-06
6.32537e-06
5.45296e-06
4.58189e-06
3.91339e-06
1.49963e-05
1.36748e-05
1.27611e-05
1.25691e-05
1.25385e-05
1.34927e-05
1.50675e-05
3.88247e-06
4.2589e-06
4.68159e-06
5.1336e-06
5.78143e-06
1.23104e-05
1.59108e-05
7.74849e-06
6.93751e-06
6.33059e-06
5.45076e-06
4.57281e-06
3.90322e-06
1.49378e-05
1.36082e-05
1.26768e-05
1.25142e-05
1.24745e-05
1.34385e-05
1.50217e-05
3.87246e-06
4.2471e-06
4.66912e-06
5.11988e-06
5.77724e-06
1.24751e-05
1.57295e-05
7.70343e-06
6.94377e-06
6.33574e-06
5.44816e-06
4.56287e-06
3.89246e-06
1.48778e-05
1.35397e-05
1.25912e-05
1.2458e-05
1.24129e-05
1.33892e-05
1.4979e-05
3.86299e-06
4.23583e-06
4.65712e-06
5.10661e-06
5.77391e-06
1.26412e-05
1.55474e-05
7.65985e-06
6.95043e-06
6.34066e-06
5.44477e-06
4.55153e-06
3.88066e-06
1.48146e-05
1.34669e-05
1.25009e-05
1.2387e-05
1.23443e-05
1.33386e-05
1.49372e-05
3.85384e-06
4.22492e-06
4.64551e-06
5.09369e-06
5.77136e-06
1.28083e-05
1.53648e-05
7.61758e-06
6.95749e-06
6.3452e-06
5.44016e-06
4.53839e-06
3.86752e-06
1.47467e-05
1.3388e-05
1.24016e-05
1.22966e-05
1.22649e-05
1.32838e-05
1.48946e-05
3.8447e-06
4.21414e-06
4.63407e-06
5.08093e-06
5.76941e-06
1.29761e-05
1.5182e-05
7.57643e-06
6.96487e-06
6.34924e-06
5.43411e-06
4.52327e-06
3.85307e-06
1.46733e-05
1.33018e-05
1.22908e-05
1.21903e-05
1.21765e-05
1.32243e-05
1.48502e-05
3.83531e-06
4.20319e-06
4.62255e-06
5.06812e-06
5.76791e-06
1.31442e-05
1.49993e-05
7.53611e-06
6.97255e-06
6.35267e-06
5.42664e-06
4.50623e-06
3.83766e-06
1.4595e-05
1.32088e-05
1.21679e-05
1.20759e-05
1.20848e-05
1.31621e-05
1.48038e-05
3.8255e-06
4.19194e-06
4.61081e-06
5.05517e-06
5.76678e-06
1.33125e-05
1.48168e-05
7.4964e-06
6.98049e-06
6.35548e-06
5.41792e-06
4.4876e-06
3.8219e-06
1.45133e-05
1.31109e-05
1.20352e-05
1.19617e-05
1.19945e-05
1.30997e-05
1.47558e-05
3.8153e-06
4.18036e-06
4.59887e-06
5.04209e-06
5.76609e-06
1.34811e-05
1.46345e-05
7.45729e-06
6.98863e-06
6.3578e-06
5.4082e-06
4.46778e-06
3.80647e-06
1.44303e-05
1.30106e-05
1.18966e-05
1.18521e-05
1.19079e-05
1.30394e-05
1.4707e-05
3.80488e-06
4.16861e-06
4.58684e-06
5.02902e-06
5.76598e-06
1.36501e-05
1.44522e-05
7.41895e-06
6.99694e-06
6.3597e-06
5.39772e-06
4.44715e-06
3.79199e-06
1.43478e-05
1.29107e-05
1.17574e-05
1.17457e-05
1.18251e-05
1.29823e-05
1.46582e-05
3.79447e-06
4.15689e-06
4.57493e-06
5.01615e-06
5.76666e-06
1.38201e-05
1.42697e-05
7.38164e-06
7.00537e-06
6.36123e-06
5.38669e-06
4.42608e-06
3.77897e-06
1.42678e-05
1.2814e-05
1.16242e-05
1.16368e-05
1.17436e-05
1.29271e-05
1.46094e-05
3.78424e-06
4.14536e-06
4.56328e-06
5.00361e-06
5.76826e-06
1.3991e-05
1.40871e-05
7.34569e-06
7.01385e-06
6.36235e-06
5.37527e-06
4.40488e-06
3.76782e-06
1.41918e-05
1.27238e-05
1.15045e-05
1.15157e-05
1.16587e-05
1.28708e-05
1.45599e-05
3.77424e-06
4.13409e-06
4.55192e-06
4.99139e-06
5.77076e-06
1.41629e-05
1.3904e-05
7.31152e-06
7.02229e-06
6.36312e-06
5.36367e-06
4.38392e-06
3.7588e-06
1.41214e-05
1.26429e-05
1.14053e-05
1.13682e-05
1.15635e-05
1.28094e-05
1.45086e-05
3.76434e-06
4.12298e-06
4.54075e-06
4.97935e-06
5.774e-06
1.43357e-05
1.37207e-05
7.27965e-06
7.03073e-06
6.36365e-06