/*--------------------------------*- C++ -*----------------------------------*\
  =========                 |
  \\      /  F ield         | OpenFOAM: The Open Source CFD Toolbox
   \\    /   O peration     | Website:  https://openfoam.org
    \\  /    A nd           | Version:  8
     \\/     M anipulation  |
\*---------------------------------------------------------------------------*/
FoamFile
{
    version     2.0;
    format      ascii;
    class       volScalarField;
    location    "300";
    object      T;
}
// * * * * * * * * * * * * * * * * * * * * * * * * * * * * * * * * * * * * * //

dimensions      [0 0 0 1 0 0 0];

internalField   nonuniform List<scalar> 
8400
(
296.788
297.007
297.303
297.606
297.884
298.123
298.301
298.409
298.44
298.386
298.248
298.035
297.771
297.508
297.327
297.227
297.209
297.265
297.376
297.522
297.687
297.856
298.02
298.169
298.296
298.395
298.459
298.487
298.476
298.425
298.337
298.211
298.052
297.864
297.651
297.419
297.173
296.922
296.67
296.426
296.195
295.981
295.786
295.611
295.459
295.328
295.22
295.134
295.067
295.016
299.688
299.669
299.79
299.863
299.899
299.907
299.895
299.876
299.853
299.818
299.74
299.616
299.521
299.373
299.116
298.82
298.529
298.367
298.24
298.155
298.165
298.228
298.328
298.437
298.542
298.631
298.702
298.75
298.771
298.761
298.717
298.641
298.532
298.396
298.238
298.061
297.873
297.678
297.482
297.29
297.107
296.932
296.767
296.61
296.463
296.329
296.209
296.106
296.022
295.958
300
299.999
299.997
299.993
299.985
299.975
299.963
299.949
299.933
299.917
299.9
299.881
299.859
299.832
299.793
299.73
299.645
299.54
299.409
299.256
299.093
298.917
298.793
298.798
298.824
298.866
298.909
298.942
298.965
298.973
298.966
298.942
298.898
298.833
298.748
298.645
298.527
298.4
298.267
298.132
297.997
297.859
297.718
297.572
297.421
297.266
297.112
296.965
296.83
296.712
300.003
300.003
300.003
300.003
300.003
300.004
300.005
300.006
300.007
300.007
300.007
300.007
300.004
299.998
299.989
299.973
299.95
299.918
299.873
299.813
299.737
299.645
299.546
299.456
299.378
299.312
299.252
299.221
299.231
299.233
299.228
299.215
299.194
299.167
299.132
299.091
299.041
298.983
298.916
298.84
298.756
298.661
298.555
298.434
298.296
298.143
297.977
297.802
297.628
297.46
300.004
300.005
300.006
300.008
300.011
300.013
300.015
300.017
300.018
300.019
300.019
300.019
300.019
300.019
300.018
300.015
300.011
300.004
299.992
299.975
299.95
299.917
299.876
299.829
299.78
299.73
299.681
299.637
299.598
299.565
299.528
299.486
299.454
299.433
299.404
299.379
299.36
299.344
299.329
299.306
299.273
299.226
299.167
299.093
298.999
298.883
298.745
298.589
298.421
298.248
300.001
300.001
300
300
299.999
299.998
299.998
299.997
299.996
299.996
299.996
299.996
299.996
299.997
299.998
299.999
300
300.001
300
299.997
299.991
299.982
299.968
299.951
299.931
299.908
299.883
299.857
299.831
299.805
299.778
299.749
299.72
299.688
299.651
299.603
299.552
299.539
299.533
299.541
299.552
299.554
299.542
299.521
299.486
299.433
299.357
299.26
299.149
299.025
300.002
300.002
300.001
300.001
300.001
300.001
300.001
300.001
300.001
300.001
300.001
300.001
300
300
300
300
300
300
300
299.999
299.998
299.996
299.993
299.987
299.98
299.971
299.961
299.949
299.936
299.922
299.907
299.89
299.871
299.849
299.825
299.796
299.764
299.732
299.704
299.681
299.667
299.688
299.714
299.735
299.743
299.745
299.736
299.716
299.683
299.643
300.001
300.001
300.001
300.001
300.001
300.001
300
300
300
300
300
300
300
300
300
300
300
300
300
300
300
300
299.999
299.998
299.996
299.993
299.989
299.984
299.978
299.972
299.964
299.955
299.945
299.933
299.918
299.901
299.882
299.862
299.842
299.824
299.81
299.803
299.802
299.808
299.818
299.826
299.842
299.86
299.878
299.892
300.001
300.001
300.001
300.001
300
300
300
300
300
300
300
300
300
300
300
300
300
300
300
300.001
300.001
300.001
300.001
300.001
300
299.999
299.998
299.996
299.994
299.992
299.988
299.984
299.978
299.972
299.964
299.955
299.944
299.932
299.92
299.909
299.899
299.892
299.888
299.889
299.892
299.897
299.901
299.907
299.912
299.916
300
300
300
300
300
300
300
300
300
300
300
300
300
300
300
300
300
300
300
300.001
300.001
300.001
300.001
300.001
300.001
300.001
300.001
300.001
300
299.999
299.998
299.996
299.993
299.99
299.986
299.981
299.975
299.968
299.961
299.954
299.948
299.943
299.94
299.938
299.939
299.94
299.942
299.943
299.945
299.947
300
300
299.999
299.999
299.998
299.997
299.994
299.99
299.987
299.987
299.989
299.99
299.992
299.993
299.994
299.994
299.995
299.996
299.997
299.997
299.998
299.999
299.999
300
300
300.001
300.001
300.002
300.002
300.001
300.001
300
299.999
299.998
299.996
299.993
299.99
299.986
299.982
299.978
299.974
299.97
299.968
299.966
299.966
299.965
299.966
299.966
299.966
299.966
299.998
299.996
299.994
299.989
299.982
299.972
299.962
299.951
299.943
299.938
299.941
299.955
299.963
299.969
299.973
299.978
299.981
299.985
299.987
299.989
299.991
299.993
299.994
299.996
299.997
299.998
299.999
300
300.001
300.001
300.002
300.002
300.001
300.001
300
299.998
299.996
299.994
299.992
299.989
299.987
299.984
299.983
299.981
299.98
299.98
299.979
299.979
299.979
299.978
299.996
299.991
299.985
299.974
299.959
299.938
299.914
299.886
299.856
299.826
299.802
299.79
299.801
299.83
299.856
299.885
299.907
299.928
299.944
299.958
299.967
299.974
299.979
299.984
299.987
299.99
299.993
299.995
299.996
299.998
299.999
299.999
300
300
299.999
299.999
299.998
299.996
299.995
299.993
299.992
299.99
299.989
299.988
299.987
299.986
299.985
299.985
299.984
299.984
299.981
299.97
299.953
299.929
299.896
299.854
299.805
299.751
299.694
299.636
299.579
299.529
299.493
299.482
299.507
299.552
299.606
299.665
299.721
299.774
299.82
299.859
299.891
299.917
299.938
299.954
299.965
299.972
299.978
299.982
299.986
299.988
299.99
299.991
299.992
299.992
299.992
299.992
299.991
299.99
299.99
299.989
299.988
299.987
299.987
299.986
299.986
299.985
299.985
299.984
299.882
299.85
299.808
299.753
299.687
299.611
299.528
299.443
299.355
299.268
299.181
299.099
299.025
298.966
298.932
298.937
298.983
299.047
299.133
299.228
299.329
299.428
299.523
299.609
299.686
299.751
299.806
299.85
299.886
299.913
299.932
299.945
299.954
299.96
299.965
299.969
299.972
299.973
299.975
299.976
299.977
299.978
299.978
299.978
299.979
299.979
299.979
299.979
299.979
299.98
299.489
299.421
299.338
299.242
299.138
299.031
298.926
298.823
298.723
298.624
298.528
298.434
298.344
298.262
298.192
298.143
298.126
298.155
298.211
298.3
298.411
298.543
298.687
298.838
298.989
299.136
299.273
299.399
299.511
299.609
299.691
299.758
299.813
299.855
299.882
299.9
299.914
299.924
299.932
299.939
299.944
299.949
299.952
299.956
299.958
299.961
299.963
299.964
299.966
299.967
298.615
298.52
298.413
298.3
298.188
298.083
297.99
297.904
297.823
297.746
297.67
297.596
297.523
297.453
297.388
297.332
297.288
297.266
297.276
297.313
297.381
297.476
297.599
297.746
297.913
298.095
298.285
298.48
298.672
298.86
299.036
299.2
299.348
299.477
299.586
299.676
299.748
299.798
299.827
299.852
299.869
299.884
299.896
299.906
299.915
299.922
299.928
299.933
299.938
299.941
297.467
297.387
297.302
297.217
297.138
297.072
297.019
296.973
296.933
296.896
296.86
296.825
296.79
296.756
296.723
296.693
296.666
296.646
296.637
296.643
296.666
296.709
296.772
296.858
296.966
297.096
297.249
297.421
297.61
297.812
298.025
298.243
298.461
298.676
298.881
299.073
299.247
299.396
299.523
299.63
299.702
299.742
299.777
299.803
299.825
299.844
299.859
299.871
299.881
299.889
296.617
296.576
296.536
296.498
296.466
296.442
296.426
296.416
296.408
296.403
296.399
296.396
296.393
296.39
296.388
296.387
296.386
296.387
296.39
296.396
296.407
296.425
296.45
296.484
296.529
296.588
296.661
296.751
296.86
296.988
297.136
297.303
297.488
297.689
297.903
298.126
298.354
298.58
298.801
299.009
299.195
299.357
299.5
299.598
299.643
299.687
299.72
299.747
299.768
299.784
296.462
296.447
296.434
296.423
296.414
296.407
296.403
296.4
296.399
296.4
296.403
296.407
296.412
296.419
296.427
296.437
296.447
296.457
296.469
296.481
296.493
296.505
296.517
296.531
296.546
296.564
296.586
296.614
296.65
296.696
296.753
296.824
296.91
297.014
297.137
297.279
297.441
297.622
297.82
298.034
298.259
298.491
298.725
298.949
299.16
299.362
299.473
299.506
299.548
299.571
303.148
303.144
303.141
303.138
303.135
303.132
303.129
303.126
303.123
303.12
303.117
303.114
303.111
303.108
303.105
303.102
303.099
303.096
303.093
303.09
303.087
303.085
303.083
303.08
303.078
303.076
303.073
303.071
303.069
303.067
303.065
303.063
303.061
303.059
303.057
303.055
303.053
303.051
303.049
303.047
303.045
303.043
303.041
303.039
303.038
303.036
303.034
303.033
303.032
303.031
303.15
303.15
303.15
303.15
303.15
303.15
303.149
303.149
303.149
303.149
303.149
303.148
303.148
303.148
303.147
303.147
303.146
303.146
303.146
303.145
303.145
303.144
303.143
303.143
303.142
303.141
303.14
303.14
303.139
303.138
303.137
303.136
303.135
303.134
303.133
303.133
303.132
303.131
303.13
303.129
303.129
303.128
303.127
303.127
303.126
303.125
303.125
303.124
303.123
303.123
303.15
303.15
303.15
303.15
303.15
303.15
303.15
303.15
303.15
303.15
303.15
303.15
303.15
303.15
303.15
303.15
303.15
303.15
303.15
303.15
303.15
303.15
303.149
303.149
303.149
303.149
303.149
303.149
303.149
303.148
303.148
303.148
303.148
303.147
303.147
303.147
303.147
303.147
303.146
303.146
303.146
303.146
303.145
303.145
303.145
303.145
303.144
303.144
303.144
303.144
303.15
303.15
303.15
303.15
303.15
303.15
303.15
303.15
303.15
303.15
303.15
303.15
303.15
303.15
303.15
303.15
303.15
303.15
303.15
303.15
303.15
303.15
303.15
303.15
303.15
303.15
303.15
303.15
303.15
303.15
303.15
303.15
303.15
303.15
303.15
303.15
303.15
303.15
303.149
303.149
303.149
303.149
303.149
303.149
303.149
303.149
303.149
303.149
303.149
303.149
303.15
303.15
303.15
303.15
303.15
303.15
303.15
303.15
303.15
303.15
303.15
303.15
303.15
303.15
303.15
303.15
303.15
303.15
303.15
303.15
303.15
303.15
303.15
303.15
303.15
303.15
303.15
303.15
303.15
303.15
303.15
303.15
303.15
303.15
303.15
303.15
303.15
303.15
303.15
303.15
303.15
303.15
303.15
303.15
303.15
303.15
303.15
303.15
303.15
303.15
303.15
303.15
303.15
303.15
303.15
303.15
303.15
303.15
303.15
303.15
303.15
303.15
303.15
303.15
303.15
303.15
303.15
303.15
303.15
303.15
303.15
303.15
303.15
303.15
303.15
303.15
303.15
303.15
303.15
303.15
303.15
303.15
303.15
303.15
303.15
303.15
303.15
303.15
303.15
303.15
303.15
303.15
303.15
303.15
303.15
303.15
303.15
303.15
303.15
303.15
303.15
303.15
303.15
303.15
303.15
303.15
303.15
303.15
303.15
303.15
303.15
303.15
303.15
303.15
303.15
303.15
303.15
303.15
303.15
303.15
303.15
303.15
303.15
303.15
303.15
303.15
303.15
303.15
303.15
303.15
303.15
303.15
303.15
303.15
303.15
303.15
303.15
303.15
303.15
303.15
303.15
303.15
303.15
303.15
303.15
303.15
303.15
303.15
303.15
303.15
303.15
303.15
303.15
303.15
303.15
303.15
303.15
303.15
303.15
303.15
303.15
303.15
303.15
303.15
303.15
303.15
303.15
303.15
303.15
303.15
303.15
303.15
303.15
303.15
303.15
303.15
303.15
303.15
303.15
303.15
303.15
303.15
303.15
303.15
303.15
303.15
303.15
303.15
303.15
303.15
303.15
303.15
303.15
303.15
303.15
303.15
303.15
303.15
303.15
303.15
303.15
303.15
303.15
303.15
303.15
303.15
303.15
303.15
303.15
303.15
303.15
303.15
303.15
303.15
303.15
303.15
303.15
303.15
303.15
303.15
303.15
303.15
303.15
303.15
303.15
303.15
303.15
303.15
303.15
303.15
303.15
303.15
303.15
303.15
303.15
303.15
303.15
303.15
303.15
303.15
303.15
303.15
303.15
303.15
303.15
303.15
303.15
303.15
303.15
303.15
303.15
303.15
303.15
303.15
303.15
303.15
303.15
303.15
303.15
303.15
303.15
303.15
303.15
303.15
303.15
303.15
303.15
303.15
303.15
303.15
303.15
303.15
303.15
303.15
303.15
303.15
303.15
303.15
303.15
303.15
303.15
303.15
303.15
303.15
303.15
303.15
303.15
303.15
303.15
303.15
303.15
303.15
303.15
303.15
303.15
303.15
303.15
303.15
303.15
303.15
303.15
303.15
303.15
303.15
303.15
303.15
303.15
303.15
303.15
303.15
303.15
303.15
303.15
303.15
303.15
303.15
303.15
303.15
303.15
303.15
303.15
303.15
303.15
303.15
303.15
303.15
303.15
303.15
303.15
303.15
303.15
303.15
303.15
303.15
303.15
303.15
303.15
303.15
303.15
303.15
303.15
303.15
303.15
303.15
303.15
303.15
303.15
303.15
303.15
303.15
303.15
303.15
303.15
303.15
303.15
303.15
303.15
303.15
303.15
303.15
303.15
303.15
303.15
303.15
303.15
303.15
303.15
303.15
303.15
303.15
303.15
303.15
303.15
303.15
303.15
303.15
303.15
303.15
303.15
303.15
303.15
303.15
303.15
303.15
303.15
303.15
303.15
303.15
303.15
303.15
303.15
303.15
303.15
303.15
303.15
303.15
303.15
303.15
303.15
303.15
303.15
303.15
303.15
303.15
303.15
303.15
303.15
303.15
303.15
303.15
303.15
303.15
303.15
303.15
303.15
303.15
303.15
303.15
303.15
303.15
303.15
303.15
303.15
303.15
303.15
303.15
303.15
303.15
303.15
303.15
303.15
303.15
303.15
303.15
303.15
303.15
303.15
303.15
303.15
303.15
303.15
303.15
303.15
303.15
303.15
303.15
303.15
303.15
303.15
303.15
303.15
303.15
303.15
303.15
303.15
303.15
303.15
303.15
303.15
303.15
303.15
303.15
303.15
303.15
303.15
303.15
303.15
303.15
303.15
303.15
303.15
303.15
303.15
303.15
303.15
303.15
303.15
303.15
303.15
303.15
303.15
303.15
303.15
303.15
303.15
303.15
303.15
303.15
303.15
303.15
303.15
303.15
303.15
303.15
303.15
303.15
303.15
303.15
303.15
303.15
303.15
303.15
303.15
303.15
303.15
303.15
303.15
303.15
303.15
303.15
303.15
303.15
303.15
303.15
303.15
303.15
303.15
303.15
303.15
303.15
303.15
303.15
303.15
303.15
303.15
303.15
303.15
303.15
303.15
303.15
303.15
303.15
303.15
303.15
303.15
303.15
303.15
303.15
303.15
303.15
303.15
303.15
303.15
303.15
303.15
303.15
303.15
303.15
303.15
303.15
303.15
303.15
303.15
303.15
303.15
303.15
303.15
303.15
303.15
303.15
303.15
303.15
303.15
303.15
303.15
303.15
303.15
303.15
303.15
303.15
303.15
303.15
303.15
303.15
303.15
303.15
303.15
303.15
303.15
303.15
303.15
303.15
303.15
303.15
303.15
303.15
303.15
303.15
303.15
303.15
303.15
303.15
303.15
303.15
303.15
303.15
303.15
303.15
303.15
303.15
303.15
303.15
303.15
303.15
303.15
303.15
303.15
303.15
303.15
303.15
303.15
303.15
303.15
303.15
303.15
303.15
303.15
303.15
303.15
303.15
303.15
303.15
303.15
303.15
303.15
303.15
303.15
303.15
303.15
303.15
303.15
303.15
303.15
303.15
303.15
303.15
303.15
303.149
303.149
303.149
303.149
303.149
303.149
303.149
303.149
303.149
303.149
303.148
303.148
303.148
303.15
303.15
303.15
303.15
303.15
303.15
303.15
303.15
303.15
303.15
303.15
303.15
303.15
303.15
303.15
303.15
303.15
303.15
303.15
303.15
303.15
303.15
303.149
303.149
303.149
303.149
303.149
303.149
303.149
303.148
303.148
303.148
303.148
303.147
303.147
303.147
303.147
303.146
303.146
303.146
303.145
303.145
303.145
303.144
303.144
303.143
303.143
303.142
303.142
303.141
303.15
303.15
303.15
303.15
303.15
303.15
303.149
303.149
303.149
303.149
303.149
303.148
303.148
303.148
303.147
303.147
303.146
303.146
303.146
303.145
303.145
303.144
303.143
303.143
303.142
303.141
303.14
303.14
303.139
303.138
303.137
303.136
303.135
303.134
303.133
303.132
303.131
303.131
303.13
303.129
303.128
303.127
303.126
303.125
303.124
303.123
303.121
303.12
303.119
303.117
303.148
303.144
303.141
303.138
303.135
303.132
303.129
303.126
303.123
303.12
303.117
303.114
303.111
303.108
303.105
303.102
303.099
303.096
303.093
303.09
303.088
303.085
303.083
303.08
303.078
303.076
303.073
303.071
303.069
303.067
303.065
303.062
303.06
303.058
303.056
303.054
303.052
303.05
303.048
303.046
303.044
303.043
303.041
303.039
303.037
303.035
303.033
303.032
303.03
303.028
300.68
298.024
295.577
294.151
293.492
293.243
293.161
293.135
293.126
293.124
293.126
293.138
293.177
293.248
293.341
293.432
293.495
293.511
293.468
293.345
300.662
297.971
295.513
294.102
293.463
293.229
293.155
293.132
293.125
293.123
293.124
293.137
293.173
293.242
293.331
293.415
293.471
293.479
293.431
293.309
300.644
297.918
295.45
294.056
293.437
293.217
293.149
293.129
293.123
293.122
293.123
293.135
293.17
293.236
293.322
293.403
293.454
293.459
293.408
293.288
300.624
297.865
295.391
294.015
293.414
293.207
293.145
293.127
293.122
293.121
293.122
293.133
293.168
293.231
293.315
293.391
293.438
293.439
293.387
293.268
300.603
297.812
295.335
293.976
293.393
293.198
293.141
293.126
293.121
293.12
293.122
293.132
293.165
293.227
293.307
293.38
293.423
293.42
293.366
293.249
300.581
297.759
295.282
293.941
293.375
293.19
293.138
293.124
293.12
293.12
293.121
293.131
293.163
293.223
293.3
293.369
293.408
293.401
293.346
293.231
300.558
297.707
295.231
293.908
293.359
293.184
293.136
293.123
293.12
293.119
293.121
293.13
293.161
293.219
293.293
293.359
293.393
293.384
293.328
293.215
300.534
297.655
295.183
293.878
293.345
293.178
293.133
293.122
293.119
293.119
293.12
293.13
293.16
293.215
293.287
293.349
293.379
293.366
293.31
293.2
300.508
297.603
295.136
293.85
293.332
293.173
293.132
293.121
293.119
293.119
293.12
293.129
293.158
293.212
293.28
293.339
293.366
293.35
293.293
293.186
300.482
297.552
295.092
293.824
293.32
293.169
293.13
293.12
293.118
293.118
293.12
293.128
293.156
293.208
293.274
293.329
293.353
293.334
293.277
293.173
300.454
297.5
295.049
293.8
293.31
293.165
293.129
293.12
293.118
293.118
293.119
293.128
293.155
293.205
293.268
293.32
293.34
293.319
293.262
293.161
300.425
297.448
295.007
293.776
293.3
293.162
293.127
293.119
293.117
293.118
293.119
293.127
293.153
293.202
293.262
293.311
293.327
293.304
293.248
293.15
300.396
297.396
294.967
293.755
293.291
293.159
293.126
293.118
293.117
293.118
293.119
293.127
293.152
293.198
293.257
293.302
293.315
293.29
293.235
293.139
300.365
297.344
294.927
293.734
293.283
293.156
293.125
293.118
293.117
293.118
293.119
293.126
293.151
293.195
293.251
293.294
293.304
293.277
293.223
293.13
300.334
297.291
294.888
293.714
293.276
293.154
293.124
293.117
293.116
293.118
293.119
293.126
293.149
293.192
293.246
293.285
293.292
293.264
293.211
293.121
300.301
297.238
294.85
293.694
293.269
293.151
293.124
293.117
293.116
293.118
293.119
293.126
293.148
293.19
293.24
293.277
293.281
293.252
293.201
293.113
300.268
297.185
294.812
293.675
293.262
293.149
293.123
293.116
293.116
293.118
293.119
293.125
293.147
293.187
293.235
293.269
293.271
293.241
293.19
293.106
300.233
297.131
294.775
293.657
293.255
293.147
293.122
293.116
293.116
293.118
293.119
293.125
293.146
293.184
293.23
293.261
293.261
293.23
293.181
293.099
300.198
297.077
294.737
293.639
293.248
293.145
293.121
293.115
293.116
293.118
293.119
293.125
293.145
293.182
293.226
293.254
293.251
293.22
293.172
293.093
300.162
297.022
294.699
293.62
293.242
293.143
293.12
293.115
293.115
293.118
293.119
293.125
293.144
293.179
293.221
293.247
293.242
293.21
293.164
293.088
300.126
296.967
294.662
293.602
293.235
293.141
293.119
293.115
293.115
293.118
293.119
293.124
293.143
293.177
293.217
293.24
293.233
293.201
293.157
293.083
300.088
296.912
294.624
293.584
293.229
293.139
293.119
293.114
293.115
293.118
293.119
293.124
293.142
293.175
293.213
293.233
293.224
293.192
293.15
293.078
300.05
296.855
294.586
293.566
293.223
293.137
293.118
293.114
293.115
293.119
293.12
293.124
293.142
293.173
293.208
293.226
293.216
293.184
293.144
293.074
300.012
296.799
294.548
293.549
293.217
293.135
293.117
293.113
293.115
293.119
293.12
293.124
293.141
293.171
293.204
293.22
293.208
293.176
293.138
293.07
299.972
296.742
294.511
293.531
293.211
293.133
293.116
293.113
293.115
293.119
293.12
293.124
293.14
293.169
293.201
293.214
293.2
293.169
293.133
293.066
299.932
296.684
294.473
293.514
293.205
293.131
293.116
293.113
293.115
293.12
293.121
293.124
293.14
293.168
293.197
293.208
293.193
293.162
293.128
293.063
299.892
296.627
294.436
293.497
293.199
293.13
293.115
293.113
293.116
293.12
293.121
293.124
293.139
293.166
293.193
293.202
293.186
293.155
293.124
293.06
299.851
296.569
294.4
293.481
293.194
293.128
293.114
293.112
293.116
293.121
293.122
293.124
293.139
293.164
293.19
293.197
293.179
293.149
293.12
293.058
299.809
296.512
294.364
293.466
293.189
293.126
293.114
293.112
293.116
293.121
293.122
293.124
293.139
293.163
293.186
293.191
293.173
293.144
293.116
293.055
299.767
296.454
294.33
293.451
293.184
293.125
293.113
293.112
293.116
293.122
293.123
293.125
293.138
293.162
293.183
293.186
293.167
293.139
293.113
293.053
299.724
296.398
294.296
293.437
293.18
293.124
293.113
293.112
293.117
293.122
293.123
293.125
293.138
293.16
293.18
293.181
293.161
293.134
293.11
293.051
299.681
296.341
294.264
293.424
293.177
293.123
293.113
293.112
293.117
293.123
293.124
293.125
293.138
293.159
293.177
293.176
293.156
293.129
293.107
293.049
299.637
296.285
294.233
293.412
293.173
293.122
293.112
293.112
293.117
293.123
293.125
293.125
293.138
293.158
293.174
293.171
293.151
293.125
293.105
293.048
299.593
296.23
294.203
293.401
293.17
293.121
293.112
293.112
293.117
293.123
293.125
293.125
293.138
293.157
293.171
293.167
293.146
293.121
293.103
293.046
299.548
296.177
294.175
293.391
293.168
293.121
293.112
293.112
293.117
293.124
293.126
293.126
293.138
293.156
293.168
293.162
293.141
293.118
293.101
293.045
299.503
296.126
294.149
293.381
293.165
293.12
293.111
293.112
293.118
293.124
293.126
293.127
293.138
293.155
293.165
293.158
293.137
293.115
293.1
293.043
299.458
296.078
294.123
293.373
293.163
293.119
293.111
293.112
293.118
293.124
293.127
293.127
293.138
293.153
293.162
293.154
293.133
293.112
293.098
293.042
299.413
296.032
294.099
293.364
293.161
293.119
293.111
293.112
293.118
293.124
293.127
293.128
293.138
293.152
293.159
293.15
293.129
293.109
293.097
293.041
299.371
295.988
294.077
293.357
293.159
293.118
293.111
293.112
293.118
293.125
293.128
293.129
293.138
293.151
293.156
293.146
293.125
293.107
293.096
293.04
299.33
295.946
294.055
293.349
293.157
293.118
293.11
293.112
293.118
293.125
293.128
293.129
293.138
293.15
293.154
293.142
293.122
293.105
293.095
293.039
299.29
295.905
294.035
293.343
293.156
293.117
293.11
293.112
293.118
293.125
293.128
293.13
293.138
293.148
293.151
293.139
293.119
293.103
293.094
293.038
299.252
295.867
294.016
293.337
293.154
293.117
293.11
293.111
293.118
293.125
293.129
293.13
293.138
293.147
293.148
293.135
293.116
293.102
293.094
293.037
299.216
295.831
293.999
293.331
293.153
293.116
293.11
293.111
293.118
293.125
293.129
293.131
293.137
293.145
293.145
293.132
293.113
293.1
293.093
293.036
299.182
295.798
293.983
293.326
293.151
293.116
293.109
293.111
293.117
293.125
293.129
293.131
293.137
293.144
293.143
293.129
293.111
293.099
293.093
293.036
299.15
295.766
293.968
293.321
293.15
293.115
293.109
293.111
293.117
293.125
293.129
293.131
293.137
293.142
293.14
293.126
293.108
293.098
293.092
293.035
299.12
295.737
293.955
293.317
293.149
293.115
293.109
293.111
293.117
293.124
293.129
293.131
293.136
293.141
293.137
293.123
293.106
293.097
293.092
293.034
299.093
295.711
293.943
293.314
293.148
293.115
293.109
293.11
293.117
293.124
293.129
293.131
293.135
293.139
293.135
293.12
293.104
293.096
293.092
293.033
299.067
295.687
293.932
293.311
293.148
293.115
293.109
293.11
293.116
293.124
293.129
293.131
293.135
293.137
293.132
293.118
293.103
293.095
293.092
293.033
299.045
295.666
293.923
293.308
293.147
293.114
293.108
293.11
293.116
293.123
293.129
293.131
293.134
293.136
293.13
293.115
293.101
293.095
293.092
293.032
299.025
295.647
293.915
293.306
293.146
293.114
293.108
293.11
293.115
293.123
293.128
293.131
293.133
293.134
293.127
293.113
293.1
293.094
293.092
293.031
299.008
295.631
293.909
293.304
293.146
293.114
293.108
293.109
293.115
293.122
293.128
293.131
293.132
293.132
293.125
293.111
293.098
293.094
293.092
293.03
298.994
295.618
293.904
293.303
293.146
293.114
293.108
293.109
293.114
293.121
293.127
293.13
293.131
293.131
293.123
293.109
293.097
293.094
293.092
293.03
298.983
295.608
293.901
293.303
293.146
293.113
293.107
293.108
293.114
293.121
293.127
293.129
293.13
293.129
293.121
293.107
293.096
293.094
293.092
293.029
298.975
295.601
293.899
293.303
293.146
293.113
293.107
293.108
293.113
293.12
293.126
293.129
293.129
293.127
293.118
293.105
293.096
293.094
293.091
293.028
298.971
295.598
293.899
293.303
293.146
293.113
293.107
293.108
293.113
293.119
293.125
293.128
293.128
293.125
293.116
293.103
293.095
293.094
293.091
293.028
298.971
295.598
293.901
293.304
293.146
293.113
293.107
293.107
293.112
293.118
293.124
293.127
293.126
293.123
293.114
293.102
293.094
293.094
293.091
293.027
298.974
295.602
293.905
293.306
293.146
293.113
293.107
293.107
293.111
293.117
293.123
293.126
293.125
293.121
293.112
293.101
293.094
293.094
293.091
293.026
298.982
295.609
293.911
293.309
293.147
293.113
293.106
293.106
293.11
293.116
293.122
293.124
293.123
293.119
293.11
293.099
293.094
293.094
293.091
293.026
298.994
295.621
293.919
293.312
293.148
293.113
293.106
293.106
293.11
293.115
293.12
293.123
293.122
293.117
293.109
293.098
293.093
293.094
293.091
293.025
299.011
295.638
293.93
293.317
293.149
293.113
293.106
293.106
293.109
293.114
293.119
293.121
293.12
293.115
293.107
293.097
293.093
293.095
293.091
293.024
299.033
295.659
293.943
293.322
293.151
293.113
293.106
293.105
293.108
293.113
293.117
293.12
293.118
293.113
293.105
293.097
293.093
293.095
293.091
293.023
299.061
295.687
293.959
293.329
293.152
293.114
293.106
293.105
293.107
293.111
293.116
293.118
293.116
293.112
293.104
293.096
293.093
293.095
293.091
293.023
299.094
295.72
293.979
293.337
293.155
293.114
293.106
293.104
293.106
293.11
293.114
293.116
293.115
293.11
293.103
293.095
293.093
293.096
293.091
293.022
299.135
295.76
294.003
293.346
293.157
293.114
293.105
293.104
293.105
293.109
293.113
293.114
293.113
293.108
293.101
293.095
293.094
293.096
293.09
293.021
299.182
295.807
294.031
293.358
293.16
293.115
293.105
293.103
293.105
293.108
293.111
293.113
293.111
293.107
293.1
293.095
293.094
293.096
293.09
293.02
299.237
295.863
294.064
293.371
293.164
293.116
293.105
293.103
293.104
293.106
293.109
293.111
293.109
293.105
293.099
293.094
293.094
293.097
293.09
293.02
299.301
295.928
294.103
293.387
293.169
293.117
293.105
293.103
293.103
293.105
293.108
293.109
293.108
293.104
293.098
293.094
293.094
293.097
293.089
293.019
299.373
296.003
294.148
293.406
293.175
293.118
293.106
293.102
293.102
293.104
293.106
293.107
293.106
293.102
293.098
293.094
293.095
293.097
293.089
293.018
299.455
296.09
294.201
293.429
293.182
293.119
293.106
293.102
293.102
293.103
293.105
293.106
293.104
293.101
293.097
293.094
293.095
293.097
293.088
293.017
299.548
296.19
294.263
293.456
293.19
293.121
293.106
293.102
293.101
293.102
293.103
293.104
293.103
293.1
293.096
293.094
293.096
293.098
293.087
293.016
299.652
296.306
294.336
293.488
293.201
293.124
293.106
293.102
293.101
293.101
293.102
293.103
293.102
293.099
293.096
293.095
293.096
293.098
293.086
293.015
299.768
296.437
294.422
293.527
293.214
293.127
293.107
293.102
293.1
293.1
293.101
293.101
293.1
293.098
293.096
293.095
293.097
293.098
293.085
293.014
299.898
296.588
294.521
293.574
293.23
293.131
293.108
293.102
293.1
293.099
293.1
293.1
293.099
293.098
293.096
293.096
293.097
293.098
293.084
293.014
300.04
296.759
294.639
293.63
293.25
293.136
293.109
293.103
293.1
293.099
293.099
293.099
293.099
293.097
293.096
293.096
293.098
293.098
293.083
293.013
300.197
296.954
294.776
293.699
293.276
293.143
293.111
293.103
293.1
293.099
293.098
293.098
293.098
293.097
293.096
293.097
293.098
293.097
293.081
293.011
300.368
297.176
294.938
293.784
293.309
293.153
293.113
293.104
293.101
293.099
293.098
293.098
293.098
293.097
293.097
293.097
293.099
293.097
293.079
293.01
300.554
297.427
295.129
293.887
293.351
293.166
293.116
293.105
293.101
293.099
293.098
293.098
293.098
293.097
293.097
293.098
293.099
293.096
293.077
293.009
300.754
297.71
295.355
294.015
293.406
293.183
293.12
293.106
293.102
293.1
293.099
293.098
293.098
293.098
293.098
293.099
293.099
293.095
293.075
293.008
300.967
298.028
295.621
294.174
293.478
293.208
293.126
293.107
293.103
293.101
293.1
293.099
293.099
293.099
293.099
293.099
293.099
293.093
293.072
293.006
301.192
298.385
295.935
294.372
293.573
293.243
293.135
293.109
293.104
293.102
293.101
293.1
293.099
293.099
293.1
293.1
293.098
293.091
293.069
293.005
301.427
298.782
296.307
294.62
293.7
293.292
293.149
293.112
293.104
293.103
293.101
293.101
293.1
293.1
293.1
293.1
293.097
293.088
293.065
293.003
301.668
299.219
296.744
294.932
293.87
293.364
293.172
293.116
293.105
293.103
293.102
293.102
293.101
293.101
293.1
293.099
293.095
293.085
293.061
293.001
301.911
299.696
297.257
295.324
294.102
293.47
293.208
293.125
293.106
293.103
293.103
293.102
293.102
293.101
293.1
293.098
293.093
293.081
293.056
292.999
302.148
300.207
297.852
295.816
294.416
293.628
293.268
293.141
293.108
293.103
293.102
293.102
293.101
293.1
293.099
293.095
293.089
293.076
293.05
292.996
302.373
300.741
298.534
296.431
294.846
293.866
293.371
293.172
293.113
293.102
293.101
293.101
293.1
293.099
293.096
293.092
293.084
293.07
293.044
292.993
302.576
301.278
299.294
297.188
295.429
294.225
293.545
293.236
293.127
293.101
293.098
293.098
293.097
293.096
293.093
293.087
293.079
293.063
293.037
292.989
302.746
301.792
300.112
298.096
296.209
294.763
293.843
293.364
293.166
293.106
293.094
293.093
293.093
293.091
293.087
293.081
293.071
293.055
293.03
292.984
302.878
302.248
300.942
299.14
297.223
295.556
294.349
293.623
293.267
293.131
293.093
293.087
293.086
293.084
293.08
293.073
293.062
293.046
293.021
292.977
302.969
302.615
301.71
300.26
298.472
296.68
295.183
294.133
293.518
293.224
293.114
293.083
293.077
293.075
293.07
293.063
293.052
293.036
293.014
292.98
303.021
302.873
302.339
301.336
299.877
298.163
296.481
295.087
294.107
293.525
293.237
293.118
293.076
293.067
293.066
293.065
293.07
293.101
293.228
293.752
303.044
303.026
302.773
302.209
301.244
299.887
298.294
296.71
295.364
294.381
293.765
293.426
293.263
293.22
293.315
293.533
294.025
295.113
297.035
297.992
303.049
303.097
303.012
302.772
302.297
301.504
300.379
299.017
297.608
296.359