/*--------------------------------*- C++ -*----------------------------------*\
  =========                 |
  \\      /  F ield         | OpenFOAM: The Open Source CFD Toolbox
   \\    /   O peration     | Website:  https://openfoam.org
    \\  /    A nd           | Version:  8
     \\/     M anipulation  |
\*---------------------------------------------------------------------------*/
FoamFile
{
    version     2.0;
    format      ascii;
    class       volVectorField;
    location    "300";
    object      U;
}
// * * * * * * * * * * * * * * * * * * * * * * * * * * * * * * * * * * * * * //

dimensions      [0 1 -1 0 0 0 0];

internalField   nonuniform List<vector> 
8400
(
(-10.396 -0.148608 1.91091e-17)
(-10.3066 -0.0988171 1.82799e-17)
(-10.3111 -0.0453957 1.74272e-17)
(-10.3317 -0.0118847 1.57565e-17)
(-10.2859 0.0155065 1.44834e-17)
(-10.1387 0.0429552 1.3909e-17)
(-9.90488 0.0732071 1.25189e-17)
(-9.59927 0.105575 1.07021e-17)
(-9.23268 0.135417 8.34324e-18)
(-8.81791 0.150115 5.01341e-18)
(-8.35303 0.132862 2.00276e-18)
(-7.8502 0.0768672 -2.02881e-19)
(-7.49363 0.00865996 -2.27149e-18)
(-7.44001 -0.0394221 -2.97901e-18)
(-7.52577 -0.0524643 -2.0147e-18)
(-7.72465 -0.0491137 -7.20595e-19)
(-7.9853 -0.0356075 1.65753e-18)
(-8.26185 -0.0184187 4.9575e-18)
(-8.52554 0.00143406 8.17645e-18)
(-8.76596 0.0255507 1.16249e-17)
(-8.98301 0.0462459 1.53192e-17)
(-9.16588 0.0595878 1.92124e-17)
(-9.31661 0.0760413 2.32666e-17)
(-9.45501 0.0959049 2.74473e-17)
(-9.59213 0.107649 3.17277e-17)
(-9.72674 0.109002 3.60816e-17)
(-9.8495 0.0966932 4.07795e-17)
(-9.95035 0.0786481 4.52365e-17)
(-10.0275 0.0601393 4.93634e-17)
(-10.0834 0.0434 5.36939e-17)
(-10.1213 0.0291867 5.80026e-17)
(-10.144 0.0167774 6.22321e-17)
(-10.1547 0.00721449 6.68164e-17)
(-10.1581 0.000677346 7.09151e-17)
(-10.1586 -0.00311691 7.44117e-17)
(-10.1589 -0.00598929 7.8117e-17)
(-10.1608 -0.00885867 8.17005e-17)
(-10.1655 -0.0138777 8.51186e-17)
(-10.1715 -0.0219232 8.83348e-17)
(-10.1753 -0.0332369 9.13752e-17)
(-10.1715 -0.0481628 9.41824e-17)
(-10.1545 -0.066515 9.72077e-17)
(-10.1187 -0.0882235 9.96389e-17)
(-10.0598 -0.11245 1.01338e-16)
(-9.97501 -0.138526 1.0321e-16)
(-9.86326 -0.166034 1.04925e-16)
(-9.72558 -0.194704 1.0664e-16)
(-9.56272 -0.224832 1.0816e-16)
(-9.37062 -0.2581 1.08654e-16)
(-9.14228 -0.298356 1.08845e-16)
(-2.11847 -0.268898 2.63514e-17)
(-3.10888 0.0523969 3.03665e-17)
(-2.9781 -0.033614 2.96924e-17)
(-3.14861 -0.144458 2.56994e-17)
(-3.14918 -0.236902 2.35877e-17)
(-3.1909 -0.299009 2.31611e-17)
(-3.28795 -0.317752 2.41491e-17)
(-3.52644 -0.2467 2.67801e-17)
(-4.08311 -0.0501705 2.9854e-17)
(-5.42441 0.307433 3.00699e-17)
(-7.80709 0.764823 3.21513e-17)
(-8.19944 0.920126 3.44484e-17)
(-5.55787 0.829076 2.75844e-17)
(-4.85858 0.790796 2.18778e-17)
(-4.91814 0.728721 1.52029e-17)
(-5.28882 0.659667 9.11047e-18)
(-5.80996 0.559101 6.38443e-18)
(-6.22897 0.491676 6.69729e-18)
(-6.71956 0.445905 1.00223e-17)
(-7.26487 0.384878 1.55741e-17)
(-7.7423 0.315117 2.36019e-17)
(-8.16577 0.251593 3.32454e-17)
(-8.51143 0.219424 4.36458e-17)
(-8.82178 0.220129 5.40444e-17)
(-9.10996 0.232069 6.38522e-17)
(-9.36746 0.243884 7.29098e-17)
(-9.57924 0.235932 8.12814e-17)
(-9.73321 0.220938 8.8459e-17)
(-9.83933 0.205008 9.45035e-17)
(-9.90976 0.184456 9.95512e-17)
(-9.95456 0.158926 1.03478e-16)
(-9.97858 0.125596 1.06434e-16)
(-9.98578 0.0943871 1.08361e-16)
(-9.98316 0.0703463 1.09474e-16)
(-9.97777 0.0552885 1.09612e-16)
(-9.97345 0.047322 1.09392e-16)
(-9.97255 0.0443741 1.09092e-16)
(-9.97664 0.0424044 1.08575e-16)
(-9.9826 0.0390146 1.08309e-16)
(-9.98643 0.0317629 1.07714e-16)
(-9.98266 0.0182997 1.07183e-16)
(-9.96583 -0.000775249 1.0816e-16)
(-9.93018 -0.0251331 1.10314e-16)
(-9.87086 -0.0527597 1.13462e-16)
(-9.78531 -0.0825098 1.18382e-16)
(-9.67269 -0.112403 1.2428e-16)
(-9.53461 -0.141285 1.31583e-16)
(-9.37363 -0.168312 1.38171e-16)
(-9.18911 -0.195461 1.44851e-16)
(-8.9772 -0.228436 1.48362e-16)
(7.17872 -1.09477 1.38825e-17)
(7.20648 -0.402575 1.38414e-17)
(7.30717 -0.130315 1.34393e-17)
(7.41267 -0.0780371 1.35545e-17)
(7.52728 -0.135608 1.38849e-17)
(7.65043 -0.233393 1.3935e-17)
(7.77596 -0.311514 1.43376e-17)
(7.89249 -0.31585 1.50099e-17)
(7.98218 -0.213772 1.52889e-17)
(8.01931 -0.00201194 1.60124e-17)
(7.96603 0.298914 1.71677e-17)
(7.78817 0.654235 1.81071e-17)
(7.45455 1.01771 1.93222e-17)
(7.07889 1.34259 2.04925e-17)
(6.5863 1.5965 2.07255e-17)
(5.95044 1.77142 2.03779e-17)
(5.12984 1.86006 1.99971e-17)
(4.09007 1.87073 1.84633e-17)
(2.88068 1.8378 1.54224e-17)
(1.51889 1.76507 1.22331e-17)
(-0.0288929 1.63194 7.60188e-18)
(-1.96119 1.39243 2.56543e-18)
(-4.89952 1.01004 -2.23335e-17)
(-5.8683 0.868406 -3.68789e-17)
(-7.01989 0.640054 -5.09039e-17)
(-7.77385 0.445537 -6.15188e-17)
(-8.40712 0.256644 -7.38107e-17)
(-8.84038 0.128382 -8.47053e-17)
(-9.15323 0.0542897 -9.46894e-17)
(-9.37409 0.0209914 -1.01325e-16)
(-9.52763 0.000218249 -1.05445e-16)
(-9.61933 -0.0291193 -1.08242e-16)
(-9.65686 -0.056697 -1.10703e-16)
(-9.66232 -0.0781973 -1.12508e-16)
(-9.6534 -0.0938272 -1.13673e-16)
(-9.64082 -0.105332 -1.13415e-16)
(-9.63069 -0.114368 -1.11229e-16)
(-9.62639 -0.123713 -1.08439e-16)
(-9.62602 -0.135674 -1.053e-16)
(-9.62669 -0.152895 -1.01632e-16)
(-9.62149 -0.176443 -9.64613e-17)
(-9.60422 -0.207306 -8.99304e-17)
(-9.56832 -0.245903 -8.21408e-17)
(-9.50852 -0.291545 -7.5139e-17)
(-9.42122 -0.342861 -6.67688e-17)
(-9.30447 -0.396309 -5.77699e-17)
(-9.15954 -0.450257 -4.91025e-17)
(-8.98948 -0.501272 -3.92575e-17)
(-8.79612 -0.548975 -2.92933e-17)
(-8.57883 -0.594762 -2.05239e-17)
(15.8634 -1.35804 1.81381e-17)
(15.6846 -1.00755 1.79063e-17)
(15.6364 -0.976264 1.72829e-17)
(15.7558 -1.07976 1.71364e-17)
(15.9406 -1.20467 1.72512e-17)
(16.1154 -1.28661 1.71492e-17)
(16.2401 -1.28122 1.70774e-17)
(16.296 -1.16189 1.68126e-17)
(16.2766 -0.922301 1.59951e-17)
(16.1798 -0.575076 1.58082e-17)
(15.9993 -0.145964 1.6191e-17)
(15.7799 0.339664 1.57868e-17)
(15.4603 0.855343 1.54488e-17)
(15.0373 1.36199 1.5373e-17)
(14.5071 1.82619 1.50746e-17)
(13.8668 2.2265 1.51967e-17)
(13.1161 2.5538 1.57434e-17)
(12.2401 2.81097 1.58295e-17)
(11.2256 3.00488 1.55352e-17)
(10.0759 3.13727 1.47348e-17)
(8.78389 3.2065 1.326e-17)
(7.30441 3.20223 1.11537e-17)
(5.44717 3.08143 7.6576e-18)
(3.79926 2.92931 2.47727e-18)
(2.02223 2.69881 -1.18284e-18)
(0.181064 2.37866 -6.0974e-18)
(-1.87771 1.93464 -7.92577e-18)
(-4.82988 1.12522 -1.00012e-17)
(-6.06289 0.706882 -1.43877e-17)
(-7.20374 0.338998 -2.69954e-17)
(-7.81716 0.130249 -4.11226e-17)
(-8.31135 -0.0222645 -5.53607e-17)
(-8.57674 -0.0769641 -6.82148e-17)
(-8.74575 -0.0710326 -7.78211e-17)
(-8.84385 -0.0350532 -8.63514e-17)
(-8.90485 0.0107947 -9.0802e-17)
(-8.94304 0.0524353 -9.39415e-17)
(-8.97112 0.0881213 -9.57209e-17)
(-8.99268 0.102339 -9.53527e-17)
(-9.00633 0.0939957 -9.58016e-17)
(-9.00604 0.0607383 -9.37814e-17)
(-8.98859 0.00816726 -9.17072e-17)
(-8.95294 -0.0632345 -8.89491e-17)
(-8.89401 -0.15043 -8.64665e-17)
(-8.80548 -0.249326 -8.56312e-17)
(-8.68572 -0.35468 -8.51317e-17)
(-8.53495 -0.460001 -8.59114e-17)
(-8.35531 -0.559685 -8.68641e-17)
(-8.15024 -0.647696 -8.95829e-17)
(-7.92229 -0.722029 -9.25299e-17)
(27.1936 0.153242 7.41041e-18)
(26.7032 0.0896172 7.42404e-18)
(26.2432 -0.0276989 6.92323e-18)
(25.8416 -0.16673 6.89537e-18)
(25.4169 -0.295266 7.40011e-18)
(24.9401 -0.38233 7.3667e-18)
(24.4253 -0.40079 7.343e-18)
(23.9024 -0.331385 7.33448e-18)
(23.4031 -0.166801 6.90849e-18)
(22.956 0.0893785 6.98306e-18)
(22.51 0.426167 7.55025e-18)
(22.0087 0.823428 7.52447e-18)
(21.4233 1.26541 7.58663e-18)
(20.7609 1.73814 7.85211e-18)
(20.0309 2.22521 8.191e-18)
(19.2433 2.70736 8.65075e-18)
(18.4063 3.16465 9.40877e-18)
(17.5215 3.58041 1.0016e-17)
(16.5852 3.94102 1.04602e-17)
(15.5921 4.23425 1.06801e-17)
(14.5333 4.45134 1.07797e-17)
(13.3901 4.58485 1.05768e-17)
(12.1521 4.62613 9.87426e-18)
(10.8215 4.58238 8.59995e-18)
(9.41763 4.46031 7.07797e-18)
(7.92508 4.25534 5.27202e-18)
(6.3086 3.96449 3.42479e-18)
(4.35478 3.50044 1.58115e-18)
(2.65138 3.03063 5.85633e-19)
(0.921894 2.50794 -3.08614e-19)
(-0.84229 1.92354 -2.98193e-18)
(-3.0059 1.15924 -5.00492e-19)
(-5.18043 0.324296 1.3048e-17)
(-5.89997 0.126936 2.20351e-17)
(-6.58751 -0.0132184 2.45517e-17)
(-6.97992 -0.0261104 2.54697e-17)
(-7.27344 -0.000175541 2.68498e-17)
(-7.49453 0.0534033 2.65718e-17)
(-7.67695 0.0977367 2.66351e-17)
(-7.81725 0.122452 2.22152e-17)
(-7.90572 0.116307 1.87382e-17)
(-7.93543 0.0741659 1.22313e-17)
(-7.91111 -0.00427304 1.01681e-17)
(-7.85532 -0.110479 6.41532e-18)
(-7.76401 -0.239566 7.30254e-18)
(-7.63639 -0.389434 7.55674e-18)
(-7.47113 -0.549633 9.25188e-18)
(-7.2652 -0.709693 9.71588e-18)
(-7.02386 -0.850324 6.54804e-18)
(-6.76216 -0.960954 2.22121e-18)
(17.5266 -0.117334 6.98485e-18)
(17.0861 -0.249166 6.98952e-18)
(16.6893 -0.307581 6.59823e-18)
(16.4147 -0.326757 6.57259e-18)
(16.1799 -0.321799 6.9691e-18)
(15.9382 -0.282664 6.96995e-18)
(15.6865 -0.193361 6.99552e-18)
(15.433 -0.0407841 7.03264e-18)
(15.1829 0.181145 6.90732e-18)
(14.9288 0.473018 6.80334e-18)
(14.7821 0.82256 6.87502e-18)
(14.7584 1.22191 6.899e-18)
(14.8458 1.66362 6.95112e-18)
(15.0038 2.13823 7.03271e-18)
(15.1799 2.6342 6.65361e-18)
(15.3267 3.1374 6.74089e-18)
(15.4101 3.63141 7.31723e-18)
(15.4094 4.09959 7.62017e-18)
(15.3124 4.5259 8.52747e-18)
(15.1117 4.89505 9.13485e-18)
(14.8022 5.19428 9.24396e-18)
(14.378 5.4133 9.16609e-18)
(13.8343 5.54483 9.1202e-18)
(13.172 5.59024 8.97195e-18)
(12.3994 5.55078 8.64733e-18)
(11.5196 5.4289 8.51362e-18)
(10.5261 5.22671 7.81056e-18)
(9.42057 4.93707 6.47987e-18)
(8.21296 4.57726 5.65863e-18)
(6.95498 4.16527 4.85965e-18)
(5.60852 3.70041 3.61343e-18)
(4.08827 3.15386 2.92082e-18)
(2.41201 2.52596 1.88665e-18)
(1.02343 2.01545 1.64898e-18)
(-0.444712 1.49361 -1.70825e-18)
(-2.05544 0.930437 -6.80068e-18)
(-3.99456 0.305706 -3.89785e-17)
(-4.45472 0.2054 -5.38424e-17)
(-5.11839 0.0327585 -6.72124e-17)
(-5.48794 -0.0731546 -6.95512e-17)
(-5.84607 -0.212626 -6.95328e-17)
(-6.07038 -0.329975 -6.04452e-17)
(-6.19097 -0.449786 -5.2031e-17)
(-6.13428 -0.57326 -4.28408e-17)
(-6.01271 -0.683174 -3.3658e-17)
(-5.8637 -0.788857 -1.92505e-17)
(-5.68769 -0.907899 -3.58333e-18)
(-5.45636 -1.04258 1.33773e-17)
(-5.17527 -1.17092 3.20865e-17)
(-4.86869 -1.25923 4.95936e-17)
(15.5572 0.846653 8.28458e-18)
(15.0963 0.707534 8.39859e-18)
(14.6785 0.590365 7.95519e-18)
(14.3641 0.496138 7.85965e-18)
(14.1016 0.415265 8.32358e-18)
(13.8646 0.360135 8.36031e-18)
(13.6453 0.349974 8.43867e-18)
(13.4372 0.399988 8.50107e-18)
(13.236 0.517393 7.95664e-18)
(13.0464 0.698116 7.83033e-18)
(12.8702 0.93871 8.27554e-18)
(12.7154 1.23497 8.19477e-18)
(12.5966 1.58159 8.1588e-18)
(12.5289 1.97354 8.12148e-18)
(12.5231 2.40559 7.40865e-18)
(12.58 2.87056 7.27368e-18)
(12.6885 3.35726 7.64539e-18)
(12.8287 3.84981 7.5069e-18)
(12.9752 4.32904 7.58934e-18)
(13.1008 4.77482 7.97579e-18)
(13.1808 5.16854 8.90587e-18)
(13.1934 5.49461 9.26649e-18)
(13.1216 5.74201 9.24573e-18)
(12.9544 5.90536 9.24876e-18)
(12.6871 5.98266 9.15338e-18)
(12.3184 5.97492 9.48795e-18)
(11.8463 5.88432 9.49107e-18)
(11.2709 5.7127 8.79192e-18)
(10.5971 5.47107 8.64794e-18)
(9.84198 5.16777 8.40941e-18)
(9.00396 4.81275 7.92362e-18)
(8.07385 4.40776 7.62857e-18)
(7.06296 3.96243 6.73198e-18)
(5.99854 3.50548 5.61716e-18)
(4.89548 3.0469 4.03118e-18)
(3.70794 2.56215 1.35863e-18)
(2.34102 2.02276 -4.71598e-18)
(1.29928 1.61153 -1.33069e-17)
(0.25335 1.18756 -1.99687e-17)
(-0.742697 0.768585 -3.17896e-17)
(-1.8532 0.268372 -4.33605e-17)
(-2.86455 -0.454952 -9.0589e-17)
(-3.14928 -0.808488 -1.0942e-16)
(-3.61367 -1.15944 -1.25135e-16)
(-3.52942 -1.30433 -1.11649e-16)
(-3.18509 -1.44044 -9.8593e-17)
(-2.94163 -1.58105 -8.13167e-17)
(-2.71105 -1.71005 -7.00706e-17)
(-2.51387 -1.80862 -5.42974e-17)
(-2.24082 -1.83805 -3.19199e-17)
(12.1178 1.14577 1.15772e-17)
(11.6826 0.873868 1.15731e-17)
(11.309 0.624042 1.09468e-17)
(11.0513 0.413084 1.08166e-17)
(10.8401 0.249616 1.14214e-17)
(10.6616 0.155287 1.14996e-17)
(10.5213 0.143546 1.15786e-17)
(10.418 0.215827 1.16141e-17)
(10.3404 0.368336 1.13014e-17)
(10.2823 0.593791 1.09252e-17)
(10.2369 0.88261 1.07822e-17)
(10.2018 1.22303 1.06357e-17)
(10.1762 1.60138 1.04988e-17)
(10.1642 2.00525 1.03766e-17)
(10.1739 2.42597 9.45405e-18)
(10.2163 2.85794 9.02137e-18)
(10.3011 3.29745 9.20954e-18)
(10.4332 3.74027 8.80502e-18)
(10.6094 4.17925 8.50366e-18)
(10.8169 4.60402 8.34822e-18)
(11.0358 5.00113 8.48183e-18)
(11.2424 5.35598 9.24414e-18)
(11.414 5.65514 9.95014e-18)
(11.5315 5.88808 1.02117e-17)
(11.5812 6.04774 1.04125e-17)
(11.5545 6.13069 1.10554e-17)
(11.4458 6.13641 1.12802e-17)
(11.2525 6.06688 1.09788e-17)
(10.9754 5.92759 1.13342e-17)
(10.6199 5.72451 1.16365e-17)
(10.1885 5.46552 1.18109e-17)
(9.6807 5.15655 1.22711e-17)
(9.10059 4.80748 1.20265e-17)
(8.46078 4.43349 1.09442e-17)
(7.77408 4.04179 1.02404e-17)
(7.03459 3.62946 8.8261e-18)
(6.26402 3.20037 6.22998e-18)
(5.48527 2.76481 2.32238e-18)
(4.74767 2.32319 -1.61568e-18)
(4.02715 1.86104 -7.5351e-18)
(3.31981 1.35577 -1.38162e-17)
(2.6321 0.802106 -2.17982e-17)
(2.12267 0.344503 -3.46806e-17)
(1.70053 -0.126637 -3.98258e-17)
(1.4889 -0.566861 -4.4688e-17)
(0.943338 -1.0733 -5.17208e-17)
(0.602598 -1.51422 -5.68685e-17)
(0.371848 -1.88025 -5.71737e-17)
(0.276704 -2.09316 -6.39504e-17)
(0.373288 -2.1514 -6.68938e-17)
(8.60037 1.74135 1.24902e-17)
(8.15588 1.36657 1.25094e-17)
(7.85764 1.06024 1.21018e-17)
(7.70243 0.810427 1.2082e-17)
(7.59573 0.618529 1.25921e-17)
(7.51805 0.506765 1.27245e-17)
(7.47243 0.485371 1.29047e-17)
(7.4611 0.547077 1.30463e-17)
(7.47979 0.676383 1.28573e-17)
(7.52049 0.86022 1.2469e-17)
(7.57625 1.09189 1.22448e-17)
(7.63843 1.36626 1.20749e-17)
(7.70078 1.67678 1.19788e-17)
(7.76249 2.01518 1.18573e-17)
(7.82822 2.37743 1.09784e-17)
(7.90599 2.75868 1.04747e-17)
(8.00726 3.15305 1.05023e-17)
(8.14415 3.55505 1.00876e-17)
(8.32512 3.95785 9.71584e-18)
(8.55061 4.35527 9.37647e-18)
(8.81163 4.73788 9.15239e-18)
(9.09196 5.0944 9.22935e-18)
(9.37175 5.41235 9.77663e-18)
(9.63161 5.68041 1.03752e-17)
(9.85512 5.88923 1.07392e-17)
(10.0297 6.03245 1.15653e-17)
(10.1466 6.107 1.23128e-17)
(10.2004 6.11284 1.25444e-17)
(10.1888 6.05234 1.3065e-17)
(10.1127 5.92926 1.38309e-17)
(9.97405 5.74935 1.44397e-17)
(9.77463 5.51907 1.52602e-17)
(9.51773 5.24653 1.59403e-17)
(9.21007 4.94031 1.5825e-17)
(8.85979 4.60622 1.56509e-17)
(8.47052 4.24524 1.51645e-17)
(8.05145 3.85897 1.39588e-17)
(7.61657 3.45215 1.27367e-17)
(7.18705 3.02157 1.05865e-17)
(6.76729 2.56513 7.51424e-18)
(6.36296 2.0773 4.76716e-18)
(5.9843 1.56687 1.4168e-18)
(5.6218 1.04265 -3.01038e-18)
(5.32888 0.523487 -5.51573e-18)
(5.10618 0.0254644 -7.22918e-18)
(4.92739 -0.444404 -7.88086e-18)
(4.63044 -0.889755 -8.77732e-18)
(4.32497 -1.25006 -1.01629e-17)
(4.00941 -1.51491 -1.16865e-17)
(3.72639 -1.66935 -1.53983e-17)
(4.80422 2.28842 1.29021e-17)
(4.34717 1.76408 1.28631e-17)
(4.18531 1.39057 1.23481e-17)
(4.19129 1.04877 1.23012e-17)
(4.2474 0.755603 1.2842e-17)
(4.3394 0.538368 1.29471e-17)
(4.46121 0.41205 1.31807e-17)
(4.60696 0.38376 1.34824e-17)
(4.76477 0.44981 1.29291e-17)
(4.92906 0.600449 1.29326e-17)
(5.09782 0.82022 1.36525e-17)
(5.25931 1.09426 1.36818e-17)
(5.40227 1.40747 1.37474e-17)
(5.52851 1.74678 1.38147e-17)
(5.64612 2.10783 1.28794e-17)
(5.75903 2.48923 1.24782e-17)
(5.87778 2.88507 1.26171e-17)
(6.01695 3.28741 1.20764e-17)
(6.19233 3.68728 1.15714e-17)
(6.41306 4.07831 1.10815e-17)
(6.67678 4.45413 1.06429e-17)
(6.97383 4.80704 1.03659e-17)
(7.2895 5.12757 1.04171e-17)
(7.60775 5.4068 1.07655e-17)
(7.91295 5.63652 1.08746e-17)
(8.19222 5.81012 1.11907e-17)
(8.4359 5.92366 1.16421e-17)
(8.63687 5.97578 1.19497e-17)
(8.79066 5.96733 1.26905e-17)
(8.89617 5.90048 1.33181e-17)
(8.95441 5.77912 1.42324e-17)
(8.96701 5.60843 1.56719e-17)
(8.93638 5.39443 1.69487e-17)
(8.86643 5.14288 1.76437e-17)
(8.76203 4.85789 1.84197e-17)
(8.62718 4.54108 1.88662e-17)
(8.46698 4.19321 1.87425e-17)
(8.28793 3.81417 1.8461e-17)
(8.098 3.40154 1.7612e-17)
(7.90056 2.95338 1.60665e-17)
(7.69679 2.46841 1.44504e-17)
(7.48781 1.95363 1.24602e-17)
(7.27359 1.42109 8.94215e-18)
(7.06175 0.881897 5.87376e-18)
(6.85007 0.355495 4.23393e-18)
(6.63216 -0.142586 2.22545e-18)
(6.39549 -0.596846 1.05073e-18)
(6.09885 -0.983052 -1.18652e-18)
(5.7881 -1.27192 -2.11859e-18)
(5.48116 -1.4665 -2.41976e-18)
(1.03465 3.05971 1.33755e-17)
(0.659231 1.9803 1.3119e-17)
(0.927619 1.59418 1.25283e-17)
(1.22371 1.2341 1.20423e-17)
(1.62499 0.946915 1.183e-17)
(2.07369 0.712845 1.14096e-17)
(2.43424 0.507849 1.14658e-17)
(2.66801 0.380979 1.18151e-17)
(2.90786 0.369673 1.12627e-17)
(3.12075 0.474186 1.08021e-17)
(3.36471 0.667859 1.10703e-17)
(3.54943 0.911296 1.1683e-17)
(3.71891 1.20298 1.23325e-17)
(3.82513 1.51701 1.28298e-17)
(3.92026 1.84659 1.23436e-17)
(4.00478 2.20313 1.23236e-17)
(4.08382 2.58737 1.27028e-17)
(4.17924 2.98351 1.23797e-17)
(4.30694 3.3843 1.20729e-17)
(4.48529 3.77544 1.17102e-17)
(4.71543 4.14975 1.1336e-17)
(4.98999 4.49895 1.10025e-17)
(5.29668 4.81666 1.08617e-17)
(5.62237 5.09569 1.08735e-17)
(5.95266 5.33032 1.09928e-17)
(6.27528 5.5157 1.14297e-17)
(6.58067 5.6482 1.11844e-17)
(6.86125 5.72594 1.05878e-17)
(7.11145 5.74908 1.10026e-17)
(7.32874 5.71925 1.1825e-17)
(7.51328 5.63916 1.24909e-17)
(7.66592 5.51229 1.38914e-17)
(7.78781 5.34274 1.526e-17)
(7.88081 5.1343 1.63947e-17)
(7.94722 4.88969 1.79062e-17)
(7.98893 4.60995 1.92824e-17)
(8.00781 4.29496 2.02711e-17)
(8.00573 3.9435 2.13701e-17)
(7.98418 3.55372 2.16591e-17)
(7.94278 3.12469 2.12686e-17)
(7.87982 2.65786 2.13766e-17)
(7.79314 2.16012 2.12665e-17)
(7.6807 1.64243 2.0542e-17)
(7.54159 1.11849 2.03305e-17)
(7.37448 0.606417 2.02617e-17)
(7.17899 0.124055 2.04736e-17)
(6.95639 -0.311206 2.13876e-17)
(6.70956 -0.684067 2.16428e-17)
(6.43675 -0.981289 2.14948e-17)
(6.159 -1.19059 2.09939e-17)
(-3.15058 2.45717 1.22758e-17)
(-3.22719 1.82007 1.17927e-17)
(-3.05957 1.36571 1.16454e-17)
(-3.06235 0.872458 1.16609e-17)
(-2.9749 0.448825 1.23299e-17)
(-2.72766 0.160251 1.35158e-17)
(-2.30676 0.0219381 1.41709e-17)
(-1.69651 -0.00271191 1.44138e-17)
(-0.905456 0.0821433 1.41085e-17)
(-0.0178101 0.273578 1.34327e-17)
(0.947585 0.572377 1.26883e-17)
(1.83291 0.987301 1.30157e-17)
(2.03905 1.35786 1.33737e-17)
(2.19681 1.62586 1.32682e-17)
(2.27352 1.89793 1.17809e-17)
(2.36031 2.22734 1.18001e-17)
(2.40608 2.5495 1.20636e-17)
(2.47284 2.88274 1.17796e-17)
(2.56377 3.22586 1.16042e-17)
(2.70331 3.56643 1.14464e-17)
(2.89607 3.89789 1.13426e-17)
(3.13758 4.21145 1.11808e-17)
(3.41874 4.50256 1.11083e-17)
(3.72867 4.76327 1.1223e-17)
(4.05595 4.98736 1.13631e-17)
(4.38891 5.17008 1.18986e-17)
(4.71846 5.30756 1.15772e-17)
(5.03727 5.39742 1.07123e-17)
(5.33975 5.43899 1.07548e-17)
(5.62298 5.43346 1.08775e-17)
(5.88611 5.38257 1.09206e-17)
(6.12887 5.28838 1.18165e-17)
(6.35118 5.15324 1.28406e-17)
(6.55314 4.97932 1.35053e-17)
(6.73477 4.76808 1.46273e-17)
(6.89572 4.5199 1.60869e-17)
(7.03539 4.23434 1.76673e-17)
(7.15275 3.91041 1.95367e-17)
(7.24612 3.54714 2.21767e-17)
(7.3128 3.14503 2.32644e-17)
(7.34953 2.70719 2.49771e-17)
(7.35297 2.24069 2.64635e-17)
(7.32011 1.75606 2.69167e-17)
(7.24903 1.26675 2.73389e-17)
(7.13949 0.788893 2.84154e-17)
(6.99339 0.338604 2.94712e-17)
(6.81519 -0.06897 3.03393e-17)
(6.61197 -0.421518 2.90765e-17)
(6.39299 -0.711082 2.72085e-17)
(6.16939 -0.931917 2.48474e-17)
(-6.79441 1.98944 1.09252e-17)
(-6.57921 1.52712 1.13388e-17)
(-6.43612 1.06166 1.2474e-17)
(-6.33413 0.625525 1.38798e-17)
(-6.20237 0.256944 1.57758e-17)
(-6.04577 -0.0234605 1.80862e-17)
(-5.84328 -0.213972 1.96009e-17)
(-5.55957 -0.320164 2.04585e-17)
(-5.18021 -0.335663 2.08003e-17)
(-4.66358 -0.246672 2.03019e-17)
(-3.95758 -0.0355135 1.9662e-17)
(-2.99733 0.305738 1.90227e-17)
(-1.76531 0.751554 1.72111e-17)
(-0.672595 1.23442 1.50859e-17)
(-0.0654224 1.66686 1.32713e-17)
(0.269763 2.0845 1.22483e-17)
(0.397903 2.45305 1.18142e-17)
(0.528788 2.79714 1.16928e-17)
(0.655391 3.12374 1.15852e-17)
(0.831659 3.43771 1.15143e-17)
(1.05732 3.72983 1.15252e-17)
(1.31492 3.99209 1.15908e-17)
(1.60316 4.23765 1.17503e-17)
(1.91026 4.45848 1.21117e-17)
(2.23511 4.65282 1.22809e-17)
(2.56932 4.81513 1.28798e-17)
(2.90813 4.94189 1.21064e-17)
(3.24523 5.02967 1.12415e-17)
(3.57631 5.07766 1.08749e-17)
(3.89859 5.08586 1.05261e-17)
(4.21088 5.05442 1.02448e-17)
(4.51189 4.98399 1.06738e-17)
(4.80016 4.87516 1.02001e-17)
(5.07428 4.72868 1.01988e-17)
(5.33267 4.54497 1.07891e-17)
(5.57324 4.32409 1.20177e-17)
(5.79375 4.06554 1.39584e-17)
(5.99162 3.76903 1.59584e-17)
(6.16366 3.43462 1.85058e-17)
(6.30624 3.06404 2.03777e-17)
(6.41556 2.66127 2.24164e-17)
(6.48794 2.23326 2.3928e-17)
(6.52034 1.78967 2.4786e-17)
(6.51116 1.34256 2.54139e-17)
(6.46073 0.905636 2.59773e-17)
(6.37172 0.492419 2.63314e-17)
(6.24927 0.115473 2.64125e-17)
(6.10049 -0.21532 2.51717e-17)
(5.93326 -0.493881 2.338e-17)
(5.76079 -0.717003 2.05126e-17)
(-9.30437 1.50284 1.09247e-17)
(-8.92747 1.15194 1.27269e-17)
(-8.70593 0.763458 1.51113e-17)
(-8.53165 0.393058 1.74394e-17)
(-8.3973 0.0639989 1.98541e-17)
(-8.29072 -0.205868 2.20827e-17)
(-8.17619 -0.409716 2.32389e-17)
(-8.04495 -0.551863 2.39953e-17)
(-7.87227 -0.624783 2.45476e-17)
(-7.62911 -0.617948 2.46361e-17)
(-7.28237 -0.517903 2.48749e-17)
(-6.79359 -0.312094 2.52177e-17)
(-6.12671 0.00371641 2.47417e-17)
(-5.25914 0.429076 2.3518e-17)
(-4.19078 0.951917 2.15003e-17)
(-3.24871 1.49147 1.93486e-17)
(-2.53855 1.98878 1.76424e-17)
(-1.99738 2.43896 1.59148e-17)
(-1.59138 2.83045 1.49009e-17)
(-1.25174 3.16865 1.41557e-17)
(-0.938029 3.45833 1.37713e-17)
(-0.628697 3.70727 1.36742e-17)
(-0.304142 3.92975 1.38857e-17)
(0.0345826 4.12692 1.43583e-17)
(0.391995 4.30129 1.5073e-17)
(0.769077 4.4512 1.62993e-17)
(1.14233 4.56568 1.61427e-17)
(1.50743 4.64548 1.62722e-17)
(1.86444 4.69222 1.69394e-17)
(2.21706 4.70693 1.74202e-17)
(2.56386 4.68746 1.78188e-17)
(2.90548 4.63347 1.86318e-17)
(3.23872 4.54407 1.82598e-17)
(3.56182 4.41877 1.75726e-17)
(3.87204 4.25752 1.67458e-17)
(4.16639 4.06021 1.59678e-17)
(4.44171 3.82647 1.54868e-17)
(4.69481 3.55675 1.52666e-17)
(4.92202 3.25201 1.50583e-17)
(5.11951 2.91469 1.51626e-17)
(5.28341 2.54901 1.51922e-17)
(5.41014 2.16148 1.45124e-17)
(5.49683 1.76065 1.39823e-17)
(5.54224 1.3568 1.27483e-17)
(5.54684 0.961199 1.25082e-17)
(5.51332 0.585031 1.15494e-17)
(5.44665 0.238488 1.10477e-17)
(5.35288 -0.0702617 9.16503e-18)
(5.23916 -0.336035 6.18289e-18)
(5.11364 -0.555886 3.46068e-18)
(-10.9504 1.14598 7.9632e-18)
(-10.5564 0.888487 8.95768e-18)
(-10.3395 0.586344 1.00048e-17)
(-10.1824 0.282443 1.05328e-17)
(-10.0832 -0.000684059 1.12561e-17)
(-10.0231 -0.247654 1.24103e-17)
(-9.97938 -0.451247 1.32779e-17)
(-9.94329 -0.608576 1.43379e-17)
(-9.89595 -0.713493 1.56256e-17)
(-9.81634 -0.758696 1.67061e-17)
(-9.68127 -0.735469 1.8401e-17)
(-9.46476 -0.634937 2.07732e-17)
(-9.13942 -0.450055 2.28604e-17)
(-8.679 -0.175563 2.46961e-17)
(-8.06127 0.191396 2.60821e-17)
(-7.26247 0.647642 2.64959e-17)
(-6.34985 1.16444 2.61531e-17)
(-5.52897 1.67143 2.58745e-17)
(-4.77424 2.15211 2.49497e-17)
(-4.12205 2.57779 2.36914e-17)
(-3.54461 2.94181 2.2668e-17)
(-3.02715 3.24608 2.20749e-17)
(-2.54425 3.4997 2.18922e-17)
(-2.08371 3.71015 2.21971e-17)
(-1.63546 3.88341 2.28149e-17)
(-1.19359 4.02392 2.37555e-17)
(-0.759492 4.1317 2.46123e-17)
(-0.326765 4.21122 2.56299e-17)
(0.105425 4.26379 2.66599e-17)
(0.541563 4.28974 2.7729e-17)
(0.969628 4.2823 2.9122e-17)
(1.35389 4.24289 3.07593e-17)
(1.72717 4.17067 3.04937e-17)
(2.08568 4.06482 2.9997e-17)
(2.43365 3.92436 2.87406e-17)
(2.76614 3.7493 2.67984e-17)
(3.08041 3.53967 2.48393e-17)
(3.37311 3.29657 2.29436e-17)
(3.64095 3.02212 2.04528e-17)
(3.87989 2.71832 1.78886e-17)
(4.08635 2.3897 1.59329e-17)
(4.25708 2.0422 1.32613e-17)
(4.38933 1.68318 9.87209e-18)
(4.48193 1.32117 6.51894e-18)
(4.53532 0.965234 3.35347e-18)
(4.55187 0.624484 6.69076e-19)
(4.53589 0.307252 -1.76767e-18)
(4.49258 0.0204521 -2.88518e-18)
(4.42811 -0.230837 -4.93993e-18)
(4.34933 -0.443687 -7.48549e-18)
(-12.1426 0.858043 -2.19411e-19)
(-11.8068 0.656753 -9.83603e-19)
(-11.6335 0.417638 -1.79951e-18)
(-11.5139 0.169779 -2.94287e-18)
(-11.4505 -0.0665486 -3.23083e-18)
(-11.4293 -0.278325 -2.6585e-18)
(-11.4377 -0.459493 -1.92904e-18)
(-11.4683 -0.607203 -8.86685e-19)
(-11.5064 -0.716946 4.49004e-19)
(-11.5361 -0.783396 1.68795e-18)
(-11.5401 -0.800467 3.62455e-18)
(-11.4993 -0.761906 6.30154e-18)
(-11.393 -0.661796 9.09164e-18)
(-11.1993 -0.494821 1.20884e-17)
(-10.8957 -0.257203 1.50283e-17)
(-10.4621 0.0508325 1.73697e-17)
(-9.88627 0.423392 2.08509e-17)
(-9.14462 0.856484 2.44899e-17)
(-8.37344 1.30627 2.66587e-17)
(-7.58859 1.74891 2.8154e-17)
(-6.82847 2.1593 2.91359e-17)
(-6.10007 2.52402 2.9847e-17)
(-5.41181 2.83601 3.03589e-17)
(-4.75899 3.09581 3.07637e-17)
(-4.13789 3.30685 3.12639e-17)
(-3.54447 3.47318 3.20612e-17)
(-2.97405 3.60005 3.26535e-17)
(-2.41842 3.69353 3.36176e-17)
(-1.87529 3.75692 3.39796e-17)
(-1.34326 3.79209 3.47113e-17)
(-0.821505 3.79883 3.59602e-17)
(-0.32345 3.77724 3.70158e-17)
(0.165158 3.72566 3.67139e-17)
(0.638976 3.63939 3.60701e-17)
(1.06176 3.51973 3.41063e-17)
(1.43047 3.37442 3.1345e-17)
(1.77512 3.19619 2.87163e-17)
(2.09703 2.98716 2.57393e-17)
(2.39716 2.74776 2.1618e-17)
(2.66878 2.48088 1.76601e-17)
(2.90999 2.1909 1.43347e-17)
(3.11724 1.88523 9.95427e-18)
(3.28827 1.56829 4.40564e-18)
(3.42133 1.24761 -7.52141e-19)
(3.51681 0.930983 -5.42092e-18)
(3.57676 0.624982 -9.26663e-18)
(3.60492 0.337059 -5.82492e-18)
(3.60565 0.0733354 -4.79192e-18)
(3.58417 -0.161385 -5.38669e-18)
(3.54629 -0.363989 -6.19045e-18)
(-13.112 0.619362 -2.17524e-18)
(-12.8341 0.469597 -2.85593e-18)
(-12.7018 0.292015 -3.53194e-18)
(-12.6163 0.10386 -4.63911e-18)
(-12.5835 -0.0805739 -5.08078e-18)
(-12.5947 -0.25144 -5.13779e-18)
(-12.6431 -0.402943 -5.25284e-18)
(-12.7228 -0.531282 -5.08923e-18)
(-12.8226 -0.632671 -4.68757e-18)
(-12.9298 -0.703223 -4.01318e-18)
(-13.0312 -0.738785 -2.85175e-18)
(-13.1118 -0.735191 -1.24892e-18)
(-13.1555 -0.688395 7.65896e-19)
(-13.1443 -0.594568 3.01828e-18)
(-13.0591 -0.450586 5.58128e-18)
(-12.8808 -0.254988 7.94759e-18)
(-12.592 -0.00926793 1.1075e-17)
(-12.1799 0.282443 1.48393e-17)
(-11.6255 0.617536 1.83373e-17)
(-10.9815 0.975782 2.1523e-17)
(-10.2715 1.33879 2.42704e-17)
(-9.52086 1.68871 2.65855e-17)
(-8.74843 2.01126 2.85863e-17)
(-7.97299 2.29604 3.03363e-17)
(-7.20469 2.53854 3.19725e-17)
(-6.45103 2.73766 3.3259e-17)
(-5.714 2.89548 3.45343e-17)
(-4.99316 3.01577 3.5548e-17)
(-4.28783 3.10216 3.58593e-17)
(-3.59964 3.15714 3.65184e-17)
(-2.93385 3.18202 3.72084e-17)
(-2.29075 3.17945 3.75195e-17)
(-1.67209 3.14944 3.69835e-17)
(-1.08091 3.09166 3.57499e-17)
(-0.525174 3.00543 3.37548e-17)
(-0.00800446 2.89333 3.06749e-17)
(0.48199 2.75127 2.77962e-17)
(0.92496 2.57014 2.39144e-17)
(1.24866 2.38649 1.92746e-17)
(1.54931 2.17002 1.44583e-17)
(1.81177 1.93349 9.94132e-18)
(2.05114 1.67858 4.15388e-18)
(2.25485 1.40929 -2.45806e-18)
(2.42243 1.13335 -9.50181e-18)
(2.55356 0.860533 -1.7327e-17)
(2.64987 0.5934 -2.05161e-17)
(2.71566 0.337231 -1.97844e-17)
(2.75374 0.0999784 -1.08549e-17)
(2.76825 -0.114716 -7.05466e-18)
(2.76414 -0.303054 -7.10375e-18)
(-13.9351 0.409293 -8.22534e-18)
(-13.6926 0.305092 -9.15959e-18)
(-13.5872 0.179388 -1.00913e-17)
(-13.5252 0.0440831 -1.12767e-17)
(-13.515 -0.0909698 -1.18779e-17)
(-13.5513 -0.218115 -1.19184e-17)
(-13.6303 -0.332624 -1.20242e-17)
(-13.7473 -0.43155 -1.18788e-17)
(-13.8935 -0.512224 -1.15586e-17)
(-14.0586 -0.572091 -1.13626e-17)
(-14.2317 -0.608598 -1.03258e-17)
(-14.4009 -0.619231 -8.49619e-18)
(-14.5531 -0.601478 -6.66617e-18)
(-14.6735 -0.552914 -4.64639e-18)
(-14.7464 -0.471501 -2.42071e-18)
(-14.7554 -0.356008 -3.26439e-19)
(-14.6843 -0.206412 2.16442e-18)
(-14.5179 -0.0239975 5.13612e-18)
(-14.2437 0.188215 8.03324e-18)
(-13.8467 0.427942 1.09065e-17)
(-13.3446 0.685803 1.36148e-17)
(-12.7509 0.950864 1.62105e-17)
(-12.0792 1.21211 1.86623e-17)
(-11.3443 1.45937 2.099e-17)
(-10.5636 1.68413 2.31279e-17)
(-9.7513 1.88095 2.49242e-17)
(-8.92037 2.04679 2.65088e-17)
(-8.08042 2.18101 2.76583e-17)
(-7.23903 2.28454 2.85829e-17)
(-6.40237 2.35914 2.94878e-17)
(-5.57594 2.40647 3.00487e-17)
(-4.76382 2.42804 3.00869e-17)
(-3.97141 2.42434 3.00081e-17)
(-3.2079 2.39562 2.9259e-17)
(-2.48195 2.34281 2.70877e-17)
(-1.79626 2.26719 2.46027e-17)
(-1.15939 2.17053 2.21884e-17)
(-0.565412 2.05033 1.88182e-17)
(-0.0434005 1.91823 1.48033e-17)
(0.445693 1.76084 9.83389e-18)
(0.868052 1.56718 4.30643e-18)
(1.12366 1.38737 -1.17652e-18)
(1.34767 1.18853 -8.76459e-18)
(1.53335 0.978884 -1.7097e-17)
(1.69175 0.766266 -2.46842e-17)
(1.81881 0.547932 -3.73559e-17)
(1.9144 0.330613 -2.26894e-17)
(1.98414 0.127796 -1.92088e-17)
(2.02766 -0.0594797 -1.55456e-17)
(2.05044 -0.22603 -1.64396e-17)
(-14.6423 0.247211 -2.22475e-17)
(-14.4103 0.188011 -2.35436e-17)
(-14.3149 0.113261 -2.47059e-17)
(-14.2625 0.0309434 -2.60137e-17)
(-14.2637 -0.0529411 -2.66569e-17)
(-14.3154 -0.133529 -2.6488e-17)
(-14.415 -0.207439 -2.63264e-17)
(-14.5586 -0.272276 -2.58704e-17)
(-14.7385 -0.326253 -2.50647e-17)
(-14.9459 -0.367958 -2.4311e-17)
(-15.1713 -0.396188 -2.28034e-17)
(-15.4044 -0.409823 -2.061e-17)
(-15.634 -0.407668 -1.85477e-17)
(-15.8478 -0.388552 -1.63234e-17)
(-16.0324 -0.351532 -1.40168e-17)
(-16.1743 -0.296019 -1.19429e-17)
(-16.2592 -0.22189 -9.41021e-18)
(-16.2736 -0.12953 -6.37932e-18)
(-16.2044 -0.0198842 -3.69663e-18)
(-16.0403 0.105499 -1.06598e-18)
(-15.7689 0.245652 1.51777e-18)
(-15.3948 0.396255 3.97933e-18)
(-14.9207 0.551938 6.2613e-18)
(-14.3538 0.706753 8.38455e-18)
(-13.7017 0.855285 1.0341e-17)
(-12.9758 0.992723 1.20446e-17)
(-12.1879 1.11557 1.39056e-17)
(-11.3506 1.22141 1.51725e-17)
(-10.4758 1.30906 1.5729e-17)
(-9.57454 1.37824 1.64327e-17)
(-8.65696 1.42916 1.68344e-17)
(-7.73216 1.46231 1.68661e-17)
(-6.80872 1.47817 1.69178e-17)
(-5.89525 1.47715 1.61591e-17)