/*--------------------------------*- C++ -*----------------------------------*\
  =========                 |
  \\      /  F ield         | OpenFOAM: The Open Source CFD Toolbox
   \\    /   O peration     | Website:  https://openfoam.org
    \\  /    A nd           | Version:  8
     \\/     M anipulation  |
\*---------------------------------------------------------------------------*/
FoamFile
{
    version     2.0;
    format      ascii;
    class       volScalarField;
    location    "300";
    object      epsilon;
}
// * * * * * * * * * * * * * * * * * * * * * * * * * * * * * * * * * * * * * //

dimensions      [0 2 -3 0 0 0 0];

internalField   nonuniform List<scalar> 
8400
(
0.0243318
0.0242645
0.0239599
0.0234701
0.0229225
0.0223455
0.0217451
0.0211238
0.0204815
0.0198188
0.0191352
0.0184311
0.017754
0.017129
0.0165481
0.0160027
0.0154927
0.0150208
0.0145831
0.0141729
0.0137846
0.0134141
0.0130597
0.0127204
0.0123938
0.0120773
0.0117704
0.0114745
0.0111901
0.0109146
0.0106418
0.0103643
0.0100741
0.00976576
0.00943646
0.00908073
0.00868678
0.00824546
0.00776606
0.00728689
0.00687515
0.00661798
0.00659872
0.00683997
0.00725297
0.0076808
0.00803127
0.00825974
0.008307
0.00826289
0.0045637
0.00466698
0.00486777
0.00507064
0.00521627
0.00533351
0.00545156
0.0055977
0.00577631
0.0059653
0.00616016
0.00639068
0.00663494
0.00686034
0.00706963
0.00726479
0.00743533
0.00757596
0.00769497
0.00779991
0.00789023
0.00795736
0.00798811
0.00797486
0.00792247
0.00784721
0.00777419
0.00773247
0.00774353
0.00780922
0.00791162
0.00802568
0.00813176
0.00821905
0.00827875
0.00828528
0.00818132
0.00788254
0.00730774
0.00643575
0.005367
0.00429771
0.00342575
0.00285119
0.00250879
0.00231869
0.00219178
0.00211935
0.00204449
0.00192319
0.00862755
0.0082098
0.0082331
0.00850866
0.00894788
0.0095172
0.010054
0.0102935
0.0104819
0.0107301
0.0109004
0.0109372
0.0109231
0.0109002
0.010883
0.010856
0.0107972
0.0107117
0.0106138
0.0105142
0.0104183
0.0103275
0.0102359
0.0101357
0.0100223
0.00989451
0.00975301
0.0095983
0.00943003
0.00925896
0.00908009
0.00888885
0.00870041
0.00856869
0.00858013
0.00870866
0.00887309
0.00899404
0.00903131
0.00897278
0.00882689
0.00864594
0.00840566
0.00802285
0.00527898
0.00364065
0.00240956
0.00167716
0.00126764
0.00105172
0.0131045
0.013026
0.0129465
0.0128674
0.0127895
0.0127141
0.0126418
0.0125718
0.0125033
0.0124366
0.012369
0.0123002
0.01223
0.0121582
0.012085
0.0120111
0.0119363
0.0118604
0.0117838
0.0117064
0.0116276
0.0115464
0.0114616
0.0113719
0.0112757
0.0111716
0.0110647
0.0109558
0.010844
0.0107225
0.0105952
0.0104729
0.0103712
0.010305
0.010263
0.0102312
0.0101927
0.0101324
0.0100487
0.00995227
0.00983359
0.00968113
0.00950067
0.0092809
0.00899463
0.00843339
0.00764981
0.00662146
0.00552701
0.00304527
0.0131399
0.0131061
0.0130719
0.0130374
0.013002
0.012966
0.0129286
0.0128903
0.0128504
0.0128089
0.0127657
0.0127207
0.012674
0.0126258
0.0125765
0.0125262
0.0124755
0.0124248
0.0123744
0.0123248
0.0122763
0.0122291
0.0121835
0.0121397
0.0120978
0.012058
0.0120158
0.0119705
0.0119231
0.0118743
0.0118251
0.0117766
0.0117292
0.0116794
0.0116181
0.0115444
0.0114578
0.0113581
0.0112403
0.0110963
0.0109299
0.0107412
0.0105309
0.0102996
0.0100438
0.00973352
0.00934673
0.00883442
0.00817821
0.00726161
0.013127
0.0130787
0.0130299
0.0129811
0.012932
0.0128829
0.0128338
0.0127845
0.0127351
0.0126856
0.0126358
0.0125857
0.0125354
0.0124846
0.0124332
0.0123813
0.0123289
0.0122762
0.0122231
0.0121698
0.0121163
0.0120629
0.0120099
0.0119575
0.0119062
0.0118564
0.0118086
0.0117632
0.0117199
0.0116781
0.0116366
0.0115942
0.01155
0.0115027
0.0114515
0.0113957
0.0113346
0.0112677
0.011193
0.0111078
0.0110092
0.0108943
0.0107608
0.0106071
0.0104313
0.0102276
0.00998776
0.0096919
0.00931608
0.00881026
0.0131239
0.0130716
0.0130179
0.0129636
0.0129085
0.0128527
0.0127966
0.0127392
0.0126817
0.0126228
0.0125633
0.0125033
0.0124426
0.0123815
0.0123199
0.0122581
0.0121959
0.0121336
0.0120711
0.0120088
0.0119468
0.0118851
0.0118239
0.0117635
0.0117046
0.0116473
0.0115913
0.0115377
0.011487
0.0114396
0.0113951
0.0113527
0.0113114
0.0112702
0.0112282
0.0111848
0.0111395
0.0110919
0.0110408
0.0109848
0.0109215
0.0108482
0.0107622
0.0106609
0.0105422
0.0104032
0.01024
0.0100449
0.00980533
0.00949769
0.0131153
0.0130528
0.0129885
0.0129241
0.012859
0.0127923
0.0127244
0.0126568
0.0125873
0.0125164
0.0124449
0.0123723
0.0122986
0.0122244
0.0121499
0.0120749
0.0119994
0.0119239
0.0118489
0.0117747
0.0117014
0.0116291
0.0115577
0.0114877
0.0114195
0.0113525
0.011288
0.0112266
0.0111689
0.0111155
0.0110671
0.0110235
0.0109844
0.0109485
0.0109149
0.0108831
0.0108525
0.0108222
0.0107916
0.010759
0.0107224
0.0106794
0.0106274
0.0105639
0.0104864
0.0103925
0.0102804
0.0101457
0.00998224
0.00977861
0.0131034
0.0130255
0.0129468
0.0128673
0.0127861
0.0127042
0.0126199
0.0125349
0.0124484
0.0123597
0.0122692
0.0121764
0.0120826
0.0119879
0.0118924
0.0117962
0.0116989
0.0116013
0.0115055
0.0114131
0.0113237
0.011236
0.0111502
0.0110671
0.0109878
0.0109089
0.0108342
0.0107638
0.0106987
0.0106402
0.0105899
0.0105483
0.0105152
0.0104897
0.0104707
0.0104573
0.0104484
0.0104423
0.0104375
0.010432
0.0104239
0.0104108
0.0103901
0.0103595
0.0103165
0.0102591
0.0101863
0.0100954
0.00998296
0.00984296
0.0130837
0.0129798
0.0128768
0.0127728
0.0126674
0.0125592
0.0124493
0.0123349
0.0122175
0.0121
0.0119749
0.0118462
0.0117165
0.0115856
0.0114537
0.0113167
0.0111701
0.0110124
0.0108554
0.0107178
0.0105994
0.0104896
0.0103854
0.0102893
0.0102067
0.0101263
0.0100541
0.00999002
0.0099338
0.00988669
0.00985122
0.00982989
0.00982339
0.00983022
0.0098481
0.00987488
0.00990776
0.00994358
0.00997995
0.0100146
0.0100446
0.0100674
0.0100807
0.0100827
0.0100722
0.0100474
0.0100078
0.009952
0.0098783
0.00978313
0.013047
0.0128903
0.0127388
0.0125886
0.0124396
0.0122842
0.0121246
0.0119502
0.0117657
0.0115668
0.0113659
0.0111501
0.0109443
0.0107321
0.0105142
0.0102862
0.0100167
0.00961216
0.00912022
0.00869767
0.00841505
0.00820198
0.00801104
0.00781238
0.00762955
0.00768997
0.00789682
0.00812799
0.00832633
0.00848894
0.00863102
0.00876309
0.00889004
0.00901265
0.00912729
0.00923301
0.00933273
0.00942664
0.00951218
0.00958762
0.00965289
0.00970793
0.00975196
0.00978255
0.0097992
0.00980124
0.00978862
0.00976059
0.00971676
0.00965499
0.0129341
0.0125975
0.0123431
0.0120987
0.0118374
0.0115241
0.0109475
0.0101862
0.00924675
0.00836208
0.00777859
0.00740677
0.0071474
0.00698
0.00687479
0.00677401
0.00670605
0.00671798
0.00679279
0.00691155
0.00704874
0.00718061
0.00730665
0.00743876
0.00757079
0.00769792
0.00781661
0.00792234
0.0080188
0.00811436
0.00821125
0.0083096
0.00841092
0.00851707
0.00862683
0.00873845
0.00885383
0.00897463
0.00909673
0.00921078
0.00931427
0.00940307
0.00946811
0.00951614
0.0095471
0.00956386
0.00956791
0.00955804
0.00953458
0.00949635
0.0122621
0.0118122
0.0113973
0.0109703
0.0105165
0.0100456
0.00957125
0.009108
0.00864453
0.00821567
0.00786024
0.00757313
0.00736508
0.00724457
0.00718413
0.00716309
0.00717675
0.00721649
0.00726871
0.00731997
0.00736236
0.00739654
0.00742507
0.00745005
0.00747285
0.00749499
0.00751822
0.00754496
0.00757452
0.00760648
0.00764782
0.00770373
0.00777874
0.00787586
0.00799525
0.00813431
0.00828876
0.00845257
0.00861813
0.00877591
0.00892007
0.00904436
0.00914392
0.00922271
0.00928189
0.00932386
0.00935131
0.00936063
0.00935233
0.00932976
0.0111006
0.0106318
0.0101898
0.00976907
0.00936968
0.00899634
0.00865326
0.00834389
0.00806852
0.00783014
0.00763497
0.00748591
0.00738681
0.00733145
0.00730561
0.00729771
0.00729847
0.00729999
0.00729701
0.00728743
0.00727117
0.00724927
0.00722343
0.00719592
0.00716934
0.00714645
0.00713012
0.00712333
0.00712916
0.00715016
0.00718791
0.00724547
0.00732445
0.00742494
0.00754558
0.00768335
0.00783438
0.0079944
0.00815903
0.00832344
0.00848162
0.00862863
0.0087591
0.00887185
0.00896542
0.00904091
0.00909822
0.0091332
0.00914939
0.00914871
0.00960459
0.00924437
0.00891116
0.00861187
0.00834786
0.00811835
0.00792305
0.00776031
0.00762822
0.00752389
0.00744501
0.00738871
0.00735069
0.00732444
0.0073035
0.00728353
0.00726144
0.00723569
0.00720694
0.00717725
0.00714844
0.00712145
0.00709688
0.00707658
0.00706242
0.00705614
0.0070593
0.00707319
0.00709876
0.00713651
0.00718648
0.00724822
0.00732046
0.00740158
0.00749023
0.00758563
0.00768787
0.00779755
0.00791464
0.00803843
0.00816648
0.00829509
0.00841969
0.00853726
0.00864392
0.0087375
0.00881573
0.00887567
0.008917
0.00893905
0.00818357
0.00800691
0.00784898
0.00771464
0.0076035
0.00751384
0.00744273
0.00738779
0.00734617
0.00731412
0.00728913
0.00726892
0.00725058
0.00723214
0.00721282
0.00719237
0.00717084
0.00714904
0.00712853
0.0071107
0.00709658
0.00708692
0.00708255
0.00708437
0.00709303
0.00710893
0.00713222
0.00716286
0.00720047
0.00724431
0.00729347
0.007347
0.007404
0.00746376
0.00752616
0.00759169
0.00766113
0.0077352
0.00781455
0.00789949
0.00798999
0.0080852
0.00818297
0.00828102
0.00837607
0.00846525
0.00854552
0.00861346
0.00866649
0.00870214
0.0072398
0.00720484
0.00717566
0.00715406
0.00713919
0.00712981
0.00712442
0.00712165
0.0071201
0.00711855
0.00711633
0.00711282
0.0071075
0.00710059
0.00709268
0.00708418
0.00707556
0.00706757
0.00706106
0.00705663
0.00705473
0.00705573
0.00705994
0.0070676
0.00707887
0.00709388
0.00711264
0.00713499
0.00716086
0.00719031
0.0072234
0.00726026
0.00730117
0.00734649
0.00739626
0.0074504
0.00750902
0.00757215
0.00763949
0.00771073
0.0077856
0.00786357
0.00794368
0.00802505
0.00810543
0.00818299
0.00825547
0.00832006
0.00837368
0.0084135
0.00656795
0.0065998
0.00663156
0.00666336
0.00669466
0.00672473
0.00675309
0.00677903
0.00680205
0.00682194
0.00683843
0.00685138
0.00686092
0.00686739
0.0068711
0.00687227
0.00687121
0.00686827
0.00686385
0.00685823
0.0068517
0.00684459
0.00683728
0.00683025
0.00682407
0.00681934
0.00681671
0.00681691
0.00682069
0.00682882
0.00684206
0.00686133
0.00688749
0.00692111
0.00696258
0.0070119
0.00706846
0.00713156
0.00720035
0.00727369
0.00735059
0.00742997
0.00751026
0.00759076
0.0076699
0.00774614
0.00781793
0.00788329
0.00793967
0.00798471
0.00556136
0.00563159
0.00570105
0.00576912
0.00583521
0.00589867
0.00595871
0.0060145
0.00606547
0.00611116
0.00615102
0.00618475
0.00621229
0.00623372
0.00624908
0.00625846
0.00626207
0.00626024
0.00625337
0.00624189
0.00622631
0.00620729
0.0061856
0.0061621
0.00613775
0.00611368
0.00609102
0.00607084
0.00605437
0.00604306
0.00603832
0.00604138
0.0060534
0.00607513
0.00610695
0.00614898
0.00620094
0.00626228
0.00633201
0.0064088
0.0064912
0.00657802
0.00666755
0.00675834
0.00684911
0.00693827
0.00702421
0.00710544
0.00717995
0.00724596
0.0144221
0.0143957
0.0143728
0.0143483
0.0143198
0.0142858
0.0142453
0.014198
0.0141438
0.0140827
0.0140141
0.0139378
0.0138529
0.013759
0.0136553
0.0135411
0.0134158
0.0132789
0.0131301
0.0129692
0.0127962
0.0126116
0.0124157
0.0122092
0.0119924
0.011766
0.0115306
0.0112871
0.0110362
0.0107789
0.0105163
0.0102498
0.0099813
0.00971294
0.00944753
0.00918819
0.00893786
0.00869979
0.00847698
0.00827171
0.00808556
0.0079196
0.00777399
0.0076482
0.00754125
0.0074516
0.00737708
0.00731548
0.00726418
0.00722047
9.32898e-06
9.20277e-06
9.08152e-06
8.96552e-06
8.85344e-06
8.74282e-06
8.63385e-06
8.52682e-06
8.42197e-06
8.31944e-06
8.21926e-06
8.1213e-06
8.02539e-06
7.93122e-06
7.83851e-06
7.74702e-06
7.65657e-06
7.5671e-06
7.47862e-06
7.39125e-06
7.30536e-06
7.19467e-06
7.09137e-06
6.9874e-06
6.88545e-06
6.78728e-06
6.69333e-06
6.6033e-06
6.51658e-06
6.4321e-06
6.34893e-06
6.26658e-06
6.18506e-06
6.10474e-06
6.02615e-06
5.94986e-06
5.87643e-06
5.80634e-06
5.73998e-06
5.6777e-06
5.61959e-06
5.56536e-06
5.5147e-06
5.46743e-06
5.42295e-06
5.38018e-06
5.3377e-06
5.29444e-06
5.25051e-06
5.20658e-06
8.97785e-06
8.37466e-06
7.82551e-06
7.32424e-06
6.86721e-06
6.45181e-06
6.07359e-06
5.72873e-06
5.4138e-06
5.12568e-06
4.86153e-06
4.61869e-06
4.39476e-06
4.18762e-06
3.99538e-06
3.81644e-06
3.64949e-06
3.49348e-06
3.34761e-06
3.21108e-06
3.16929e-06
3.14679e-06
3.12062e-06
3.10186e-06
3.09034e-06
7.31266e-07
7.30295e-07
7.29127e-07
7.27524e-07
7.25468e-07
7.2309e-07
7.2055e-07
7.17974e-07
7.15435e-07
7.12963e-07
7.10572e-07
7.08277e-07
7.06103e-07
7.04063e-07
7.02191e-07
7.0054e-07
6.99184e-07
6.98133e-07
6.97298e-07
6.96552e-07
6.95705e-07
6.9442e-07
6.9212e-07
6.88085e-07
6.82141e-07
8.97634e-06
8.36868e-06
7.81218e-06
7.30314e-06
6.83716e-06
6.41036e-06
6.01918e-06
5.66031e-06
5.33069e-06
5.02748e-06
4.74802e-06
4.48988e-06
4.25083e-06
4.02885e-06
3.82222e-06
3.62942e-06
3.4492e-06
3.28052e-06
3.12276e-06
7.30945e-07
7.24105e-07
7.17737e-07
7.11874e-07
7.06568e-07
7.01736e-07
6.97245e-07
6.92945e-07
6.88694e-07
6.8437e-07
6.79892e-07
6.75222e-07
6.70361e-07
6.65341e-07
6.6021e-07
6.55034e-07
6.49884e-07
6.44833e-07
6.39952e-07
6.35328e-07
6.31023e-07
6.27085e-07
6.2353e-07
6.20332e-07
6.17428e-07
6.14758e-07
6.12313e-07
6.10163e-07
6.08269e-07
6.05982e-07
6.01557e-07
8.97637e-06
8.37295e-06
7.82106e-06
7.31595e-06
6.85302e-06
6.42829e-06
6.03829e-06
5.67988e-06
5.35015e-06
5.04639e-06
4.76605e-06
4.50676e-06
4.26635e-06
4.0429e-06
3.83468e-06
3.64026e-06
3.45841e-06
3.28809e-06
3.12876e-06
3.0895e-06
7.25849e-07
7.19361e-07
7.13054e-07
7.07062e-07
7.01415e-07
6.9607e-07
6.90935e-07
6.85901e-07
6.8086e-07
6.7572e-07
6.7042e-07
6.6493e-07
6.59256e-07
6.53433e-07
6.4752e-07
6.41591e-07
6.35727e-07
6.30009e-07
6.24513e-07
6.19313e-07
6.14462e-07
6.09989e-07
6.05879e-07
6.02054e-07
5.98361e-07
5.94643e-07
5.90902e-07
5.87443e-07
5.84492e-07
5.80573e-07
8.97636e-06
8.373e-06
7.82083e-06
7.31508e-06
6.85136e-06
6.42586e-06
6.03521e-06
5.67631e-06
5.34626e-06
5.04235e-06
4.762e-06
4.50282e-06
4.26259e-06
4.03936e-06
3.83143e-06
3.63733e-06
3.45582e-06
3.28588e-06
3.12691e-06
7.31916e-07
7.25635e-07
7.19264e-07
7.13029e-07
7.07065e-07
7.01408e-07
6.96022e-07
6.90823e-07
6.85708e-07
6.80572e-07
6.75331e-07
6.69926e-07
6.64333e-07
6.58559e-07
6.52642e-07
6.46641e-07
6.40629e-07
6.34683e-07
6.28879e-07
6.23293e-07
6.1799e-07
6.13016e-07
6.08402e-07
6.04162e-07
6.00273e-07
5.96636e-07
5.93038e-07
5.89214e-07
5.85191e-07
5.81526e-07
5.77574e-07
8.97636e-06
8.37328e-06
7.82165e-06
7.31656e-06
6.85354e-06
6.42875e-06
6.03875e-06
5.68043e-06
5.35087e-06
5.04735e-06
4.76727e-06
4.50827e-06
4.26815e-06
4.04499e-06
3.83708e-06
3.64297e-06
3.46145e-06
3.29148e-06
3.13178e-06
7.20203e-07
7.18179e-07
7.14615e-07
7.10225e-07
7.05465e-07
7.00583e-07
6.95681e-07
6.9077e-07
6.85809e-07
6.80738e-07
6.75506e-07
6.70077e-07
6.64446e-07
6.58636e-07
6.52693e-07
6.46681e-07
6.40674e-07
6.34744e-07
6.28968e-07
6.23414e-07
6.1814e-07
6.1318e-07
6.08545e-07
6.0422e-07
6.00185e-07
5.9643e-07
5.92868e-07
5.89247e-07
5.85285e-07
5.8132e-07
5.77228e-07
8.97634e-06
8.3733e-06
7.82174e-06
7.31668e-06
6.85358e-06
6.42861e-06
6.03838e-06
5.67979e-06
5.34996e-06
5.04617e-06
4.76587e-06
4.50668e-06
4.26643e-06
4.04319e-06
3.83528e-06
3.64125e-06
3.45985e-06
3.29004e-06
3.13052e-06
7.19887e-07
7.17866e-07
7.14357e-07
7.10036e-07
7.05338e-07
7.00499e-07
6.95615e-07
6.90697e-07
6.85706e-07
6.8059e-07
6.75302e-07
6.6982e-07
6.64147e-07
6.58314e-07
6.52371e-07
6.46385e-07
6.40424e-07
6.3456e-07
6.28857e-07
6.23377e-07
6.18176e-07
6.1329e-07
6.08729e-07
6.04454e-07
6.00401e-07
5.96532e-07
5.92842e-07
5.89227e-07
5.85387e-07
5.81373e-07
5.77188e-07
8.97633e-06
8.37329e-06
7.8218e-06
7.31681e-06
6.85378e-06
6.42887e-06
6.03871e-06
5.68018e-06
5.35041e-06
5.04667e-06
4.76644e-06
4.50733e-06
4.26719e-06
4.04409e-06
3.83634e-06
3.6425e-06
3.46131e-06
3.29171e-06
3.1324e-06
7.20202e-07
7.18197e-07
7.14701e-07
7.10381e-07
7.05667e-07
7.00794e-07
6.95856e-07
6.90865e-07
6.85785e-07
6.80573e-07
6.75191e-07
6.69627e-07
6.63892e-07
6.58026e-07
6.52083e-07
6.46128e-07
6.40228e-07
6.34444e-07
6.28832e-07
6.23437e-07
6.183e-07
6.13457e-07
6.08928e-07
6.04691e-07
6.0068e-07
5.9679e-07
5.92998e-07
5.89288e-07
5.85462e-07
5.81447e-07
5.7723e-07
8.97631e-06
8.37327e-06
7.82178e-06
7.31679e-06
6.85371e-06
6.42872e-06
6.03842e-06
5.67974e-06
5.34983e-06
5.04595e-06
4.76559e-06
4.5064e-06
4.26621e-06
4.04312e-06
3.83544e-06
3.64171e-06
3.46067e-06
3.29124e-06
3.13211e-06
7.20192e-07
7.18226e-07
7.14756e-07
7.10447e-07
7.05724e-07
7.0082e-07
6.95831e-07
6.9077e-07
6.85612e-07
6.8032e-07
6.7487e-07
6.6926e-07
6.63512e-07
6.57669e-07
6.51789e-07
6.45934e-07
6.40163e-07
6.34527e-07
6.2907e-07
6.23821e-07
6.18803e-07
6.14035e-07
6.09524e-07
6.05271e-07
6.01243e-07
5.97336e-07
5.93469e-07
5.8964e-07
5.85742e-07
5.81679e-07
5.77413e-07
8.9763e-06
8.37323e-06
7.82171e-06
7.31667e-06
6.85353e-06
6.42846e-06
6.03807e-06
5.67929e-06
5.34928e-06
5.04536e-06
4.76498e-06
4.5058e-06
4.26568e-06
4.0427e-06
3.83518e-06
3.64165e-06
3.46083e-06
3.29162e-06
3.1327e-06
7.20311e-07
7.18367e-07
7.14903e-07
7.10582e-07
7.05825e-07
7.00864e-07
6.95798e-07
6.90645e-07
6.85387e-07
6.80001e-07
6.74474e-07
6.68815e-07
6.63054e-07
6.57239e-07
6.51426e-07
6.45674e-07
6.40032e-07
6.34537e-07
6.29219e-07
6.24095e-07
6.19178e-07
6.14467e-07
6.09958e-07
6.05651e-07
6.01526e-07
5.9754e-07
5.93591e-07
5.89644e-07
5.85644e-07
5.81517e-07
5.77211e-07
8.97629e-06
8.3732e-06
7.82165e-06
7.31654e-06
6.85331e-06
6.42813e-06
6.03763e-06
5.67878e-06
5.34869e-06
5.04471e-06
4.76429e-06
4.50511e-06
4.26502e-06
4.04212e-06
3.83472e-06
3.64134e-06
3.4607e-06
3.29167e-06
3.1329e-06
7.20366e-07
7.18437e-07
7.14972e-07
7.10628e-07
7.05827e-07
7.00798e-07
6.95644e-07
6.90392e-07
6.85034e-07
6.79557e-07
6.73962e-07
6.68267e-07
6.62507e-07
6.56735e-07
6.51005e-07
6.45368e-07
6.39865e-07
6.34517e-07
6.29335e-07
6.24324e-07
6.19482e-07
6.14805e-07
6.10281e-07
6.05904e-07
6.01658e-07
5.97535e-07
5.93473e-07
5.89413e-07
5.85308e-07
5.81109e-07
5.76766e-07
8.97628e-06
8.37314e-06
7.82154e-06
7.31635e-06
6.85305e-06
6.42778e-06
6.0372e-06
5.67826e-06
5.34811e-06
5.04406e-06
4.76359e-06
4.50437e-06
4.26429e-06
4.04143e-06
3.83411e-06
3.64084e-06
3.46033e-06
3.29143e-06
3.13278e-06
7.20363e-07
7.18443e-07
7.14967e-07
7.1059e-07
7.05732e-07
7.00625e-07
6.95377e-07
6.90024e-07
6.8457e-07
6.79016e-07
6.73371e-07
6.67662e-07
6.61931e-07
6.56228e-07
6.50607e-07
6.45112e-07
6.39772e-07
6.34593e-07
6.29567e-07
6.24678e-07
6.19911e-07
6.15255e-07
6.10706e-07
6.06249e-07
6.01891e-07
5.97621e-07
5.93414e-07
5.89231e-07
5.85027e-07
5.80758e-07
5.76378e-07
8.97627e-06
8.37313e-06
7.82146e-06
7.3162e-06
6.85283e-06
6.42754e-06
6.03695e-06
5.67799e-06
5.34784e-06
5.04379e-06
4.76335e-06
4.50417e-06
4.26416e-06
4.04139e-06
3.83419e-06
3.64106e-06
3.46069e-06
3.29195e-06
3.13341e-06
7.20467e-07
7.18535e-07
7.15029e-07
7.10599e-07
7.05667e-07
7.00468e-07
6.95117e-07
6.89661e-07
6.84115e-07
6.78492e-07
6.72811e-07
6.67104e-07
6.61417e-07
6.55801e-07
6.50306e-07
6.44966e-07
6.39797e-07
6.34792e-07
6.29925e-07
6.25159e-07
6.20462e-07
6.15819e-07
6.11228e-07
6.06683e-07
6.02198e-07
5.97781e-07
5.93422e-07
5.89099e-07
5.84787e-07
5.80444e-07
5.76029e-07
8.97626e-06
8.37306e-06
7.8213e-06
7.31592e-06
6.85243e-06
6.42698e-06
6.03623e-06
5.6771e-06
5.34676e-06
5.04252e-06
4.7619e-06
4.50256e-06
4.26242e-06
4.03958e-06
3.83236e-06
3.63926e-06
3.45896e-06
3.2903e-06
3.13184e-06
7.20233e-07
7.18304e-07
7.14779e-07
7.10307e-07
7.05312e-07
7.00034e-07
6.94598e-07
6.89059e-07
6.83446e-07
6.7778e-07
6.72088e-07
6.66408e-07
6.60788e-07
6.55278e-07
6.49922e-07
6.44744e-07
6.39745e-07
6.34902e-07
6.30171e-07
6.25502e-07
6.20852e-07
6.16195e-07
6.11529e-07
6.06875e-07
6.02242e-07
5.9766e-07
5.93143e-07
5.88681e-07
5.8426e-07
5.79846e-07
5.75403e-07
8.97626e-06
8.37299e-06
7.82113e-06
7.31571e-06
6.85227e-06
6.42695e-06
6.03635e-06
5.6774e-06
5.34722e-06
5.04313e-06
4.76263e-06
4.50339e-06
4.26334e-06
4.04059e-06
3.83346e-06
3.64047e-06
3.46027e-06
3.29168e-06
3.13323e-06
7.20423e-07
7.18448e-07
7.14859e-07
7.10305e-07
7.05212e-07
6.99827e-07
6.94283e-07
6.88646e-07
6.82954e-07
6.77237e-07
6.71528e-07
6.6587e-07
6.60309e-07
6.54893e-07
6.49658e-07
6.44619e-07
6.3976e-07
6.35043e-07
6.30408e-07
6.25795e-07
6.21155e-07
6.16459e-07
6.11703e-07
6.06921e-07
6.02143e-07
5.97402e-07
5.92732e-07
5.88145e-07
5.83637e-07
5.79185e-07
5.74754e-07
8.97626e-06
8.3727e-06
7.82026e-06
7.31413e-06
6.84992e-06
6.42383e-06
6.03251e-06
5.67291e-06
5.34218e-06
5.03764e-06
4.75678e-06
4.49729e-06
4.25709e-06
4.0343e-06
3.82723e-06
3.63438e-06
3.45437e-06
3.28599e-06
3.12774e-06
7.196e-07
7.17641e-07
7.14046e-07
7.09469e-07
7.04338e-07
6.98907e-07
6.93317e-07
6.87643e-07
6.81933e-07
6.76223e-07
6.70553e-07
6.64968e-07
6.59513e-07
6.54231e-07
6.49147e-07
6.44268e-07
6.39567e-07
6.34989e-07
6.30466e-07
6.25933e-07
6.21335e-07
6.16645e-07
6.11869e-07
6.0703e-07
6.0219e-07
5.97395e-07
5.9269e-07
5.88101e-07
5.83639e-07
5.7929e-07
5.75031e-07
8.97626e-06
8.37262e-06
7.82043e-06
7.31493e-06
6.85148e-06
6.42612e-06
6.03541e-06
5.67625e-06
5.34577e-06
5.04131e-06
4.76038e-06
4.50074e-06
4.26033e-06
4.03731e-06
3.83002e-06
3.63693e-06
3.4567e-06
3.28807e-06
3.12954e-06
7.19996e-07
7.17918e-07
7.14216e-07
7.0954e-07
7.0432e-07
6.98809e-07
6.93153e-07
6.87433e-07
6.81703e-07
6.76006e-07
6.70388e-07
6.64895e-07
6.59573e-07
6.54461e-07
6.4958e-07
6.4493e-07
6.40477e-07
6.36158e-07
6.319e-07
6.2763e-07
6.23289e-07
6.18849e-07
6.14323e-07
6.09744e-07
6.0517e-07
6.00675e-07
5.96319e-07
5.92141e-07
5.88166e-07
5.84394e-07
5.80818e-07
8.97627e-06
8.36846e-06
7.81174e-06
7.30235e-06
6.83584e-06
6.4084e-06
6.01648e-06
5.65685e-06
5.32646e-06
5.02251e-06
4.74246e-06
4.48395e-06
4.2449e-06
4.02341e-06
3.81776e-06
3.62641e-06
3.44794e-06
3.28107e-06
3.12499e-06
3.08817e-06
7.25855e-07
7.19645e-07
7.13487e-07
7.07512e-07
7.01709e-07
6.96036e-07
6.90457e-07
6.84962e-07
6.79567e-07
6.74309e-07
6.69238e-07
6.64415e-07
6.59911e-07
6.55781e-07
6.5204e-07
6.48651e-07
6.45535e-07
6.42592e-07
6.3971e-07
6.36802e-07
6.33816e-07
6.30735e-07
6.276e-07
6.24467e-07
6.21417e-07
6.1852e-07
6.15841e-07
6.13423e-07
6.113e-07
6.09508e-07
8.97802e-06
8.37513e-06
7.82618e-06
7.32493e-06
6.86745e-06
6.45155e-06
6.0728e-06
5.72738e-06
5.41186e-06
5.12312e-06
4.85839e-06
4.61518e-06
4.39125e-06
4.18463e-06
3.99351e-06
3.81628e-06
3.65146e-06
3.49774e-06
3.35402e-06
3.21877e-06
3.09395e-06
3.10233e-06
3.10647e-06
3.10817e-06
3.10656e-06
3.10062e-06
3.08996e-06
7.29977e-07
7.27029e-07
7.23695e-07
7.20178e-07
7.16773e-07
7.13802e-07
7.11508e-07
7.10003e-07
7.0926e-07
7.09132e-07
7.09409e-07
7.09851e-07
7.10251e-07
7.10468e-07
7.10416e-07
7.10093e-07
7.09558e-07
7.089e-07
7.08213e-07
7.07584e-07
7.07096e-07
7.06846e-07
7.06994e-07
9.32781e-06
9.20169e-06
9.08097e-06
8.96561e-06
8.85483e-06
8.74579e-06
8.63854e-06
8.53315e-06
8.42966e-06
8.32811e-06
8.22845e-06
8.13063e-06
8.03455e-06
7.94008e-06
7.84704e-06
7.75523e-06
7.66445e-06
7.57451e-06
7.48526e-06
7.39654e-06
7.30767e-06
7.19296e-06
7.07905e-06
6.96738e-06
6.85954e-06
6.75623e-06
6.65761e-06
6.56358e-06
6.47391e-06
6.38841e-06
6.30691e-06
6.22899e-06
6.15416e-06
6.082e-06
6.01213e-06
5.94422e-06
5.87785e-06
5.81263e-06
5.74826e-06
5.68458e-06
5.62156e-06
5.5596e-06
5.49878e-06
5.43946e-06
5.38176e-06
5.32566e-06
5.27096e-06
5.21725e-06
5.16397e-06
5.11051e-06
0.000169255
2.22437e-05
1.85571e-05
1.56678e-05
1.08337e-05
6.70668e-06
4.15928e-06
3.12138e-06
6.78184e-07
6.37809e-07
6.32954e-07
6.39141e-07
6.859e-07
3.17969e-06
3.98882e-06
5.08536e-06
6.37203e-06
7.82604e-06
1.01502e-05
8.10712e-05
0.000163722
2.18498e-05
1.86062e-05
1.56955e-05
1.08022e-05
6.65401e-06
4.11394e-06
3.10596e-06
6.75672e-07
6.34394e-07
5.97191e-07
6.295e-07
6.80447e-07
3.12788e-06
3.92973e-06
5.0429e-06
6.35727e-06
7.84189e-06
1.02527e-05
8.47512e-05
0.000158298
2.14967e-05
1.86615e-05
1.5726e-05
1.07763e-05
6.60767e-06
4.07404e-06
3.09491e-06
6.73737e-07
6.33265e-07
6.21273e-07
6.2741e-07
6.75325e-07
3.07684e-06
3.86761e-06
4.98194e-06
6.30315e-06
7.79545e-06
1.02636e-05
8.82831e-05
0.000153033
2.11772e-05
1.87219e-05
1.5759e-05
1.07552e-05
6.56658e-06
4.03829e-06
3.08601e-06
6.71163e-07
6.28091e-07
6.1635e-07
6.246e-07
6.70687e-07
7.24286e-07
3.80805e-06
4.92311e-06
6.25078e-06
7.75032e-06
1.02774e-05
9.19603e-05
0.00014789
2.08895e-05
1.87867e-05
1.57942e-05
1.07381e-05
6.53003e-06
4.0069e-06
3.08201e-06
6.69534e-07
6.25483e-07
6.09101e-07
6.20718e-07
6.66225e-07
7.20479e-07
3.7518e-06
4.86648e-06
6.20015e-06
7.70651e-06
1.02942e-05
9.57928e-05
0.000142873
2.06298e-05
1.88553e-05
1.5831e-05
1.07237e-05
6.49605e-06
3.97723e-06
3.07902e-06
6.67789e-07
6.23117e-07
6.05583e-07
6.1665e-07
6.61822e-07
7.1672e-07
3.69861e-06
4.812e-06
6.15119e-06
7.66399e-06
1.03142e-05
9.97877e-05
0.000137984
2.0394e-05
1.89273e-05
1.58695e-05
1.07122e-05
6.46502e-06
3.94974e-06
3.07716e-06
6.65964e-07
6.20483e-07
6.03452e-07
6.12743e-07
6.57433e-07
7.13015e-07
3.64827e-06
4.75971e-06
6.10397e-06
7.62285e-06
1.03375e-05
0.000103953
0.000133221
2.01783e-05
1.90019e-05
1.59087e-05
1.07023e-05
6.43589e-06
3.92382e-06
3.07482e-06
6.64096e-07
6.17759e-07
6.01186e-07
6.08968e-07
6.53046e-07
7.09355e-07
3.60069e-06
4.70966e-06
6.05859e-06
7.58317e-06
1.03644e-05
0.000108296
0.000128584
1.99803e-05
1.90788e-05
1.59487e-05
1.06934e-05
6.40801e-06
3.89995e-06
3.06892e-06
6.62077e-07
6.15071e-07
5.98729e-07
6.05256e-07
6.48678e-07
7.05734e-07
3.55575e-06
4.66191e-06
6.01509e-06
7.54499e-06
1.0395e-05
0.000112823
0.000124069
1.97976e-05
1.91575e-05
1.59891e-05
1.06854e-05
6.38117e-06
3.87721e-06
3.06468e-06
6.60046e-07
6.12413e-07
5.96406e-07
6.01624e-07
6.44348e-07
7.02162e-07
3.51332e-06
4.61645e-06
5.9735e-06
7.50833e-06
1.04295e-05
0.000117539
0.000119674
1.96284e-05
1.9238e-05
1.60297e-05
1.06781e-05
6.35511e-06
3.85539e-06
3.06304e-06
6.57996e-07
6.09701e-07
5.94226e-07
5.98098e-07
6.40095e-07
6.98655e-07
3.47329e-06
4.57322e-06
5.93376e-06
7.47313e-06
1.04678e-05
0.000122447
0.000115396
1.94717e-05
1.93201e-05
1.60705e-05
1.06711e-05
6.32966e-06
3.83439e-06
3.06561e-06
6.55922e-07
6.06894e-07
5.92153e-07
5.94673e-07
6.3594e-07
6.9523e-07
3.43549e-06
4.53213e-06
5.89578e-06
7.43929e-06
1.051e-05
0.000127551
0.000111233
1.93266e-05
1.9404e-05
1.61115e-05
1.06642e-05
6.30458e-06
3.81411e-06
7.23966e-07
6.53681e-07
6.03948e-07
5.89505e-07
5.91262e-07
6.31892e-07
6.91895e-07
3.39976e-06
4.49304e-06
5.85946e-06
7.40672e-06
1.05561e-05
0.000132853
0.000107184
1.91927e-05
1.94896e-05
1.61527e-05
1.06575e-05
6.27978e-06
3.7946e-06
7.21463e-07
6.51391e-07
6.00877e-07
5.86296e-07
5.8784e-07
6.27948e-07
6.88652e-07
3.36591e-06
4.45581e-06
5.82466e-06
7.37529e-06
1.06061e-05
0.000138356
0.000103248
1.90694e-05
1.95773e-05
1.61941e-05
1.06506e-05
6.25511e-06
3.77561e-06
7.18991e-07
6.49096e-07
5.97674e-07
5.8243e-07
5.8436e-07
6.24104e-07
6.85502e-07
3.33377e-06
4.42029e-06
5.79128e-06
7.34491e-06
1.06599e-05
0.000144064
9.94226e-05
1.89563e-05
1.96669e-05
1.62359e-05
1.06438e-05
6.2305e-06
3.75704e-06
7.1654e-07
6.46774e-07
5.94331e-07
5.78026e-07
5.80772e-07
6.20357e-07
6.82445e-07
3.30317e-06
4.38637e-06
5.75923e-06
7.31551e-06
1.07176e-05
0.00014998
9.57066e-05
1.8853e-05
1.97587e-05
1.62779e-05
1.06367e-05
6.20585e-06
3.73878e-06
7.14098e-07
6.44403e-07
5.90832e-07
5.73288e-07
5.77028e-07
6.16696e-07
6.7948e-07
3.274e-06
4.35401e-06
5.7285e-06
7.28708e-06
1.07794e-05
0.000156112
9.20981e-05
1.87594e-05
1.98526e-05
1.63203e-05
1.06295e-05
6.18111e-06
3.72075e-06
7.11646e-07
6.41942e-07
5.87119e-07
5.6846e-07
5.73138e-07
6.1312e-07
6.76615e-07
3.2462e-06
4.32321e-06
5.69912e-06
7.25967e-06
1.08456e-05
0.000162466
8.8595e-05
1.86751e-05
1.99487e-05
1.63632e-05
1.06222e-05
6.15627e-06
3.70287e-06
7.09161e-07
6.39348e-07
5.83101e-07
5.6373e-07
5.69197e-07
6.09646e-07
6.73869e-07
3.21977e-06
4.29409e-06
5.67121e-06
7.23338e-06
1.09165e-05
0.000169054
8.51951e-05
1.86004e-05
2.00468e-05
1.64065e-05
1.06149e-05
6.13139e-06
3.68511e-06
7.06622e-07
6.36577e-07
5.78675e-07
5.58983e-07
5.65329e-07
6.06315e-07
6.71275e-07
3.19481e-06
4.26683e-06
5.64495e-06
7.20836e-06
1.09925e-05
0.000175886
8.18962e-05
1.85354e-05
2.01468e-05
1.64503e-05
1.06078e-05
6.10672e-06
3.6676e-06
7.04022e-07
6.33598e-07
5.73787e-07
5.53787e-07
5.61627e-07
6.03191e-07
6.6888e-07
3.17143e-06
4.24166e-06
5.62054e-06
7.18472e-06
1.10741e-05
0.000182974
7.86957e-05
1.84803e-05
2.02484e-05
1.64948e-05
1.06014e-05
6.08271e-06
3.65064e-06
7.01368e-07
6.30411e-07
5.68472e-07
5.47807e-07
5.58143e-07
6.00357e-07
6.66745e-07
3.1498e-06
4.21883e-06
5.59816e-06
7.16259e-06
1.11616e-05
0.000190331
7.55912e-05
1.84358e-05
2.03513e-05
1.65402e-05
1.05965e-05
6.06015e-06
3.63482e-06
6.98698e-07
6.27051e-07
5.62877e-07
5.41158e-07
5.54945e-07
5.97908e-07
6.64936e-07
3.13005e-06
4.19852e-06
5.57793e-06
7.14204e-06
1.12556e-05
0.000197969
7.258e-05
1.84027e-05
2.04551e-05
1.65869e-05
1.05941e-05
6.04022e-06
3.62107e-06
6.96082e-07
6.23605e-07
5.57287e-07
5.34279e-07
5.52108e-07
5.95935e-07
6.63508e-07
3.11223e-06
4.18085e-06
5.55991e-06
7.12307e-06
1.13562e-05
0.000205896
6.96596e-05
1.8382e-05
2.05594e-05
1.66356e-05
1.05957e-05
6.02451e-06
3.61068e-06
6.93635e-07
6.20222e-07
5.52144e-07
5.28051e-07
5.49746e-07
5.94521e-07
6.62491e-07
3.0963e-06
4.16578e-06
5.54399e-06
7.1056e-06
1.1464e-05
0.000214119
6.6828e-05
1.83752e-05
2.06639e-05
1.66873e-05
1.06032e-05
6.01501e-06
3.60529e-06
6.91517e-07
6.17137e-07
5.48081e-07
5.24176e-07
5.48066e-07
5.93717e-07
6.61864e-07
3.08206e-06
4.1531e-06
5.52998e-06
7.08947e-06
1.15788e-05
0.000222641
6.40831e-05
1.83835e-05
2.07684e-05
1.67429e-05
1.06185e-05
6.014e-06
3.60684e-06
6.89935e-07
6.14676e-07
5.4594e-07
5.26387e-07
5.47541e-07
5.93041e-07
6.61458e-07
3.06917e-06
4.14247e-06
5.51762e-06
7.07447e-06
1.17014e-05
0.000231461
6.14234e-05
1.84081e-05
2.08726e-05
1.68035e-05
1.0644e-05
6.02385e-06
3.61739e-06
6.89264e-07
6.13692e-07
5.45777e-07
5.29348e-07
5.47696e-07
5.92691e-07
6.61009e-07
7.24977e-07
4.13341e-06
5.50653e-06
7.0604e-06
1.186e-05
0.000240497
5.88473e-05
1.84497e-05
2.09776e-05
1.68762e-05
1.06838e-05
6.04597e-06
3.63432e-06
6.89446e-07
6.1437e-07
5.47091e-07
5.30489e-07
5.48164e-07
5.925e-07
6.60641e-07
7.23107e-07
4.12544e-06
5.49633e-06
7.04702e-06
1.20522e-05
0.000249748
5.63535e-05
1.85066e-05
2.10895e-05
1.69634e-05