/*--------------------------------*- C++ -*----------------------------------*\
  =========                 |
  \\      /  F ield         | OpenFOAM: The Open Source CFD Toolbox
   \\    /   O peration     | Website:  https://openfoam.org
    \\  /    A nd           | Version:  8
     \\/     M anipulation  |
\*---------------------------------------------------------------------------*/
FoamFile
{
    version     2.0;
    format      ascii;
    class       volScalarField;
    location    "300";
    object      p;
}
// * * * * * * * * * * * * * * * * * * * * * * * * * * * * * * * * * * * * * //

dimensions      [1 -1 -2 0 0 0 0];

internalField   nonuniform List<scalar> 
8400
(
13232
15417.1
17240.8
18965.8
20970.2
23530.8
26864.1
31252.9
36901.1
43703.2
51248.7
59032.5
66624.4
73635.9
79869
85342.9
90097.3
94105.7
97387.9
100084
102396
104478
106373
107998
109219
109927
110077
109707
108939
107949
106889
105818
104793
104071
104081
105083
106948
109287
111706
113983
116111
118242
120528
122963
125434
127904
130516
133215
135918
138477
13438.6
15952.9
17526
18738.4
20254.4
22441.6
25478.3
29796.6
35745.8
43168.9
51414.8
59656.2
67381.3
74268.4
80238.9
85459.3
90023.5
93862.2
96983
99572
101866
104031
106088
107917
109340
110209
110452
110085
109217
108054
106836
105733
104877
104529
105078
106694
109125
111863
114406
116446
117967
119259
120787
122750
124925
127172
129898
132791
135680
138307
14458.8
17261.3
18347.4
18970.8
20069.8
22134.2
25370.8
30238.4
36653.6
44207.6
52704.1
61444
69493.6
76327.7
82044.9
86916.4
91043.8
94383.5
97015.4
99179.1
101122
102997
104803
106403
107631
108353
108517
108154
107364
106377
105500
104962
104886
105343
106488
108343
110715
113363
115984
118240
119909
121262
122741
124320
125709
127217
129506
132358
135541
138409
11126.2
14696.5
17054
18214.9
19492.2
21620.7
24992.7
29991.1
36432.8
43927.9
52140.5
60445.6
68047
74477
79746.8
84071.8
87617.9
90462
92728.7
94631.2
96370.1
98054.9
99674.7
101130
102296
103021
103289
103218
102961
102657
102422
102375
102611
103270
104481
106225
108458
111153
114103
117104
119943
122403
124402
125901
126953
128618
130992
134032
137267
139378
-5481.19
6755.68
17103.8
23016.7
27224.1
31302.9
35872
41253
47385
53944.5
60492
66521.8
71628.5
75675.8
78776.7
81145.5
82980.7
84425.2
85598.5
86621
87591.3
88562
89534.4
90477.1
91366.6
92270
93169.2
93933.6
94527.1
94971.3
95329.9
95685.4
96148.8
96842.6
97711.6
98839.2
100659
103678
107997
113072
118161
122737
126461
129214
131008
132503
134117
136091
138332
139842
8101.2
16238.7
26127.5
32931.9
37387.2
41122.7
44936.3
49005
53207.4
57313
61102
64420.2
67203.8
69471.6
71302.8
72803
74068.4
75169.9
76158.3
77077.2
77963.9
78844
79729.6
80621.5
81516.3
82403.4
83252.5
84053.4
84823
85551.1
86218
86823.3
87398.4
88007.1
88756.4
89946.9
92068.4
95528.3
100328
106005
111920
117525
122457
126551
129801
132445
134759
136956
139062
140808
8098.58
17428.2
26973.5
33882.7
38714.2
42705.3
46457.1
50053.7
53379.4
56341.8
58916.5
61144.1
63094.9
64828.2
66383.1
67783.2
69038.4
70152.2
71135.1
72013.5
72824.4
73602.5
74374.4
75161.3
75981
76837.2
77700.5
78555.7
79400.8
80206.4
80945.2
81629.7
82334.9
83205.6
84443.4
86292.8
88985.7
92647.8
97203.3
102367
107766
113064
118027
122527
126530
130095
133318
136287
139018
141457
11729.8
22032.9
31580.4
38618.1
43775.5
47939.6
51429
54346.4
56744.6
58631.8
60092.8
61269.2
62311
63332.8
64389.5
65468.4
66509.1
67445.3
68246.5
68931.8
69546.4
70128
70699.2
71281.3
71911.4
72602
73347.1
74163.7
75029.5
75907
76772.7
77642.4
78589
79741.8
81265.2
83315.8
85992.9
89332
93316.2
97856.1
102788
107915
113050
118049
122815
127304
131500
135389
138933
142078
13694
25184.9
34558.8
41359.1
46466.2
50561
53810
56201.1
57840.1
58892.5
59518.8
59945.7
60394
61018.3
61878.6
62916.5
63986.8
64943.9
65717.3
66334.5
66863.5
67344.5
67787.1
68205
68646.7
69160.4
69791.8
70571.5
71465.9
72425.3
73413.4
74429.1
75519.7
76777.7
78324.8
80285.6
82752
85773.5
89382.7
93590.8
98345.2
103517
108941
114446
119884
125140
130128
134765
138967
142658
15755.2
27958.1
36974.7
43491.9
48542.3
52613.3
55773.5
57965.3
59175.7
59593
59546.8
59375.3
59377.3
59734
60509
61599.2
62776.8
63818.9
64603.5
65171.1
65632.2
66030.3
66351.6
66592.8
66793.7
67083
67595.2
68356.8
69311.4
70372.2
71472
72586.9
73744.1
75014.1
76498.8
78317.2
80584.2
83390.5
86799.1
90844.2
95505
100695
106282
112093
117951
123691
129172
134279
138915
142999
16902.7
29607.4
38161.5
44469.3
49529.2
53627.7
56802.4
58941.4
59968.5
59960.5
59366.1
58761
58513.6
58795.1
59636.5
60893.5
62283.3
63522.9
64428.3
65046.1
65553.8
66005
66345
66567.7
66693.8
66859
67261.3
67950.3
68857.6
69885.9
70961.3
72057
73194.7
74435.3
75869.1
77604.4
79754.4
82423.3
85690
89589.4
94101.9
99169.3
104725
110615
116653
122634
128384
133779
138728
143141
18139.3
29880.1
37981.8
44305.4
49426
53542.1
56729.1
58952.6
60043.5
59883
58898.1
57957.3
57550.9
57790.3
58723.7
60137
61624.6
62973.2
64047.2
64820.3
65443.9
66001
66429.4
66716.2
66919.6
67175.5
67642.6
68350.8
69220.1
70173.6
71164.1
72178
73245.3
74433.4
75833.8
77550
79687
82339
85574.1
89418.2
93847
98812.3
104258
110075
116088
122088
127915
133455
138631
143313
18318
28999.8
36834.9
43215.6
48380
52498.6
55544.2
57445.6
58218
58022.9
57424.7
57052.8
57199.9
57861.7
58928.3
60237.1
61595.1
62864.2
63941.3
64782.3
65443.3
66004.8
66504
66959.4
67394.3
67851.8
68392.1
69063.6
69871.4
70759.2
71672.5
72606.5
73595.8
74710.7
76044.7
77702.2
79794.3
82424.8
85662.3
89521.7
93975.5
98979.3
104432
110215
116173
122141
127988
133620
138939
143789
16848.9
26158.3
33814.9
40118
45201.4
49225.5
52268.3
54385
55671.9
56339.8
56728
57144.6
57748
58560.4
59539.3
60605.4
61657.6
62610.4
63422.9
64100.6
64682.3
65208.3
65708
66210.5
66742.3
67330.1
67999.7
68767.8
69632.1
70569.1
71547.7
72557.7
73629.3
74825.1
76232
77949.2
80083.1
82736.5
85989.3
89870.1
94356.8
99394.9
104876
110679
116657
122671
128597
134327
139717
144635
15647.4
23789.2
31122.5
37359.8
42541.5
46757.9
50092.8
52625
54460.4
55759.6
56723.8
57534.1
58309.4
59109.9
59953.8
60817.4
61649.8
62403.3
63055.9
63617.1
64118
64591.2
65061.6
65554.3
66097.5
66716.3
67429.9
68247
69162.8
70162.8
71235.3
72378.3
73612.8
74988.3
76576.3
78463.1
80742.2
83504.2
86825.2
90744
95252.9
100301
105797
111625
117651
123739
129752
135546
140961
145910
15261.8
22676.2
29613.7
35674.3
40846
45157.4
48669.1
51455.4
53611.1
55256.9
56532.4
57572
58483.2
59340
60180.1
61004.6
61790.5
62511.3
63153.3
63721.1
64232.1
64708.9
65175.8
65660
66191.5
66799
67503.9
68315.2
69231.5
70246.7
71356.9
72568.8
73905
75408.5
77142.8
79185.6
81620.9
84528.5
87971.7
91983.6
96560
101658
107199
113077
119167
125324
131387
137181
142561
147510
15174.3
22094.4
28679.3
34524.4
39603.2
43916.1
47502.8
50427.3
52770.4
54628.4
56110.4
57325.7
58370
59316.3
60208.6
61061.6
61869
62618.1
63300.5
63917.5
64479.7
65003.5
65510.1
66026.2
66581.4
67204
67914.8
68725.2
69638.3
70653.1
71771.5
73004.9
74380.6
75944.9
77761.8
79907.2
82460.2
85493.1
89059.5
93184.4
97862.1
103054
108686
114658
120842
127081
133189
138980
144324
149255
15120.8
21694.9
28009.8
33677.7
38662.3
42953.4
46576.9
49583.5
52040.2
54027.7
55638.3
56967.3
58101.9
59111.8
60043.9
60921.5
61749.4
62523.5
63238.9
63895.3
64500
65067.7
65619.8
66184.2
66790.5
67465.4
68227.1
69084.8
70041
71096
72254
73530.4
74957.3
76585.7
78481.4
80718
83368.4
86496.7
90149
94348.1
99092.8
104354
110068
116140
122433
128771
134951
140775
146124
151037
15010.1
21393.2
27530.3
33074.9
37987.9
42254.5
45892.7
48942.1
51459.5
53517.3
55199.6
56594.5
57783.5
58833.6
59792.5
60687.8
61530.5
62320.3
63053.6
63729.4
64353.7
64942.1
65519
66114.9
66761.1
67484.2
68300.8
69216.9
70231.4
71342.6
72555.6
73889.9
75383
77090.1
79077
81413.2
84163.9
87383.4
91109.2
95362.3
100150
105456
111233
117390
123786
130228
136499
142391
147765
152621
14930
21259.8
27311.7
32788.9
37658
41904.3
45541.4
48603.9
51144.2
53230.9
54944
56367.5
57579.9
58646.9
59617.2
60520
61368.1
62162.5
62899.9
63578.8
64204.6
64793.7
65373.1
65977.1
66639.8
67387.6
68234.9
69184.4
70232.9
71378.8
72629
74005.3
75548.5
77317.5
79380.6
81803.8
84645.1
87952
91757
96079.2
100930
106305
112164
118419
124924
131476
137844
143808
149189
153940
142747
142747
142747
142747
142747
142747
142747
142747
142747
142747
142747
142747
142747
142747
142747
142747
142747
142747
142747
142747
142747
142747
142748
142748
142748
142748
142748
142749
142749
142749
142750
142750
142750
142751
142751
142751
142751
142751
142751
142751
142751
142751
142751
142751
142751
142751
142751
142751
142751
142751
142649
142649
142649
142649
142649
142649
142649
142649
142649
142649
142649
142649
142649
142649
142649
142649
142649
142649
142649
142650
142650
142650
142650
142650
142650
142651
142651
142651
142651
142652
142652
142652
142653
142653
142653
142653
142654
142654
142654
142654
142654
142654
142654
142654
142653
142653
142653
142653
142653
142653
142552
142552
142552
142552
142552
142552
142552
142552
142552
142552
142552
142552
142551
142551
142552
142552
142552
142552
142552
142552
142552
142552
142552
142553
142553
142553
142553
142554
142554
142554
142554
142555
142555
142555
142556
142556
142556
142556
142556
142556
142556
142556
142556
142556
142556
142556
142556
142556
142556
142556
142454
142454
142454
142454
142454
142454
142454
142454
142454
142454
142454
142454
142454
142454
142454
142454
142454
142454
142454
142454
142455
142455
142455
142455
142455
142455
142456
142456
142456
142457
142457
142457
142457
142458
142458
142458
142458
142459
142459
142459
142459
142459
142458
142458
142458
142458
142458
142458
142458
142458
142357
142357
142357
142357
142357
142357
142357
142357
142356
142356
142356
142356
142356
142356
142356
142356
142356
142357
142357
142357
142357
142357
142357
142357
142358
142358
142358
142358
142359
142359
142359
142360
142360
142360
142360
142361
142361
142361
142361
142361
142361
142361
142361
142361
142361
142361
142361
142361
142361
142361
142259
142259
142259
142259
142259
142259
142259
142259
142259
142259
142259
142259
142259
142259
142259
142259
142259
142259
142259
142259
142259
142260
142260
142260
142260
142260
142261
142261
142261
142261
142262
142262
142262
142263
142263
142263
142263
142263
142263
142263
142263
142263
142263
142263
142263
142263
142263
142263
142263
142263
142161
142161
142161
142161
142161
142161
142161
142161
142161
142161
142161
142161
142161
142161
142161
142161
142161
142161
142162
142162
142162
142162
142162
142162
142163
142163
142163
142163
142164
142164
142164
142164
142165
142165
142165
142166
142166
142166
142166
142166
142166
142166
142166
142165
142165
142165
142165
142165
142165
142166
142064
142064
142064
142064
142064
142064
142064
142064
142064
142064
142064
142064
142064
142064
142064
142064
142064
142064
142064
142064
142064
142064
142065
142065
142065
142065
142065
142066
142066
142066
142067
142067
142067
142067
142068
142068
142068
142068
142068
142068
142068
142068
142068
142068
142068
142068
142068
142068
142068
142068
141966
141966
141966
141966
141966
141966
141966
141966
141966
141966
141966
141966
141966
141966
141966
141966
141966
141966
141966
141967
141967
141967
141967
141967
141967
141968
141968
141968
141968
141969
141969
141969
141970
141970
141970
141970
141970
141970
141971
141971
141971
141970
141970
141970
141970
141970
141970
141970
141970
141971
141869
141869
141869
141869
141869
141869
141869
141869
141869
141869
141869
141869
141869
141869
141869
141869
141869
141869
141869
141869
141869
141869
141869
141870
141870
141870
141870
141871
141871
141871
141872
141872
141872
141872
141872
141873
141873
141873
141873
141873
141873
141873
141873
141873
141873
141873
141873
141873
141873
141873
141771
141771
141771
141771
141771
141771
141771
141771
141771
141771
141771
141771
141771
141771
141771
141771
141771
141771
141771
141771
141772
141772
141772
141772
141772
141773
141773
141773
141773
141774
141774
141774
141774
141775
141775
141775
141775
141775
141775
141775
141775
141775
141775
141775
141775
141775
141775
141775
141775
141775
141674
141674
141674
141674
141674
141674
141674
141674
141674
141673
141673
141673
141673
141673
141673
141673
141674
141674
141674
141674
141674
141674
141674
141675
141675
141675
141675
141676
141676
141676
141676
141677
141677
141677
141677
141677
141677
141678
141678
141678
141678
141678
141678
141678
141678
141678
141678
141678
141678
141678
141576
141576
141576
141576
141576
141576
141576
141576
141576
141576
141576
141576
141576
141576
141576
141576
141576
141576
141576
141576
141576
141577
141577
141577
141577
141578
141578
141578
141578
141579
141579
141579
141579
141579
141580
141580
141580
141580
141580
141580
141580
141580
141580
141580
141580
141580
141580
141580
141580
141580
141478
141478
141478
141478
141478
141478
141478
141478
141478
141478
141478
141478
141478
141478
141478
141478
141478
141479
141479
141479
141479
141479
141479
141480
141480
141480
141480
141481
141481
141481
141481
141481
141482
141482
141482
141482
141482
141482
141482
141482
141482
141482
141482
141482
141482
141482
141483
141483
141483
141483
141381
141381
141381
141381
141381
141381
141381
141381
141381
141381
141381
141381
141381
141381
141381
141381
141381
141381
141381
141381
141381
141382
141382
141382
141382
141383
141383
141383
141383
141384
141384
141384
141384
141384
141384
141384
141385
141385
141385
141385
141385
141385
141385
141385
141385
141385
141385
141385
141385
141385
141283
141283
141283
141283
141283
141283
141283
141283
141283
141283
141283
141283
141283
141283
141283
141283
141283
141283
141284
141284
141284
141284
141284
141284
141285
141285
141285
141285
141286
141286
141286
141286
141286
141287
141287
141287
141287
141287
141287
141287
141287
141287
141287
141287
141287
141287
141287
141288
141288
141288
141186
141186
141186
141186
141186
141186
141186
141186
141186
141186
141186
141186
141186
141186
141186
141186
141186
141186
141186
141186
141186
141186
141187
141187
141187
141187
141188
141188
141188
141188
141189
141189
141189
141189
141189
141189
141189
141189
141189
141190
141190
141190
141190
141190
141190
141190
141190
141190
141190
141190
141088
141088
141088
141088
141088
141088
141088
141088
141088
141088
141088
141088
141088
141088
141088
141088
141088
141088
141088
141089
141089
141089
141089
141089
141090
141090
141090
141090
141091
141091
141091
141091
141091
141091
141091
141092
141092
141092
141092
141092
141092
141092
141092
141092
141092
141092
141092
141092
141093
141093
140990
140990
140990
140990
140990
140990
140990
140990
140990
140990
140990
140990
140990
140990
140990
140991
140991
140991
140991
140991
140991
140991
140992
140992
140992
140992
140993
140993
140993
140993
140993
140994
140994
140994
140994
140994
140994
140994
140994
140994
140994
140995
140995
140995
140995
140995
140995
140995
140995
140995
140893
140893
140893
140893
140893
140893
140893
140893
140893
140893
140893
140893
140893
140893
140893
140893
140893
140893
140893
140893
140894
140894
140894
140894
140894
140895
140895
140895
140895
140896
140896
140896
140896
140896
140896
140896
140896
140897
140897
140897
140897
140897
140897
140897
140897
140897
140897
140897
140897
140897
152175
152192
152193
152205
152206
152212
152213
152215
152214
152214
152214
152214
152215
152217
152220
152224
152227
152234
152237
152246
152075
152091
152091
152102
152102
152108
152107
152108
152107
152106
152104
152104
152104
152105
152107
152110
152112
152118
152120
152129
151975
151990
151989
151999
151998
152003
152002
152002
151999
151997
151995
151993
151992
151992
151993
151996
151997
152002
152002
152011
151874
151889
151887
151896
151894
151898
151896
151895
151892
151889
151885
151882
151880
151879
151879
151880
151880
151885
151884
151892
151774
151788
151785
151793
151791
151793
151790
151788
151784
151780
151776
151771
151768
151766
151765
151765
151764
151767
151766
151773
151674
151687
151683
151690
151687
151689
151685
151682
151676
151671
151666
151661
151656
151653
151651
151650
151648
151650
151647
151653
151574
151586
151582
151588
151583
151584
151579
151575
151569
151563
151556
151550
151545
151541
151537
151535
151531
151533
151529
151534
151475
151485
151480
151485
151480
151480
151473
151469
151461
151454
151447
151440
151433
151428
151423
151420
151415
151416
151411
151415
151375
151385
151378
151383
151376
151375
151368
151362
151354
151346
151337
151329
151322
151315
151309
151305
151299
151299
151293
151296
151275
151284
151277
151280
151273
151271
151263
151256
151247
151238
151228
151219
151211
151203
151196
151191
151184
151182
151175
151178
151176
151184
151176
151178
151170
151167
151157
151150
151139
151129
151119
151109
151100
151091
151083
151077
151069
151066
151058
151060
151076
151083
151074
151076
151067
151062
151052
151044
151032
151021
151010
150999
150989
150979
150970
150963
150954
150951
150942
150942
150977
150983
150973
150973
150964
150958
150947
150938
150925
150914
150901
150889
150878
150868
150857
150849
150840
150835
150825
150825
150878
150883
150872
150871
150861
150854
150843
150832
150819
150806
150793
150780
150768
150756
150745
150736
150725
150720
150709
150708
150778
150783
150771
150769
150758
150751
150738
150726
150712
150698
150684
150670
150657
150645
150633
150623
150611
150605
150594
150592
150679
150683
150670
150668
150655
150647
150633
150620
150605
150591
150576
150561
150547
150534
150521
150510
150498
150491
150478
150476
150580
150583
150569
150566
150552
150543
150528
150515
150499
150484
150468
150452
150437
150423
150409
150398
150384
150377
150363
150360
150482
150483
150469
150464
150450
150440
150424
150409
150393
150376
150359
150343
150327
150312
150297
150285
150271
150262
150248
150244
150383
150384
150368
150363
150347
150336
150320
150304
150286
150269
150251
150234
150217
150201
150186
150173
150158
150149
150133
150128
150285
150284
150268
150262
150245
150233
150216
150199
150180
150162
150144
150125
150107
150091
150074
150061
150045
150035
150019
150013
150187
150186
150168
150161
150144
150130
150112
150094
150075
150056
150036
150016
149998
149981
149963
149949
149933
149922
149905
149898
150089
150087
150069
150061
150042
150028
150009
149990
149969
149949
149929
149908
149889
149871
149853
149838
149821
149809
149791
149784
149993
149990
149970
149961
149942
149927
149906
149886
149865
149843
149822
149801
149780
149762
149743
149727
149709
149697
149678
149670
149897
149893
149873
149862
149842
149826
149804
149783
149761
149738
149716
149694
149673
149653
149634
149617
149598
149585
149566
149556
149801
149796
149775
149764
149743
149725
149703
149681
149657
149634
149611
149588
149566
149546
149525
149508
149488
149474
149454
149443
149707
149701
149679
149666
149644
149626
149602
149580
149555
149532
149507
149483
149460
149439
149418
149399
149378
149363
149342
149331
149613
149606
149583
149569
149547
149527
149503
149479
149455
149430
149405
149379
149356
149334
149311
149291
149269
149254
149231
149219
149519
149512
149488
149473
149450
149429
149404
149380
149355
149329
149303
149277
149252
149229
149205
149184
149161
149144
149121
149108
149427
149418
149393
149378
149353
149332
149307
149282
149256
149230
149203
149176
149150
149125
149100
149078
149054
149036
149011
148998
149334
149325
149299
149283
149258
149236
149209
149184
149158
149131
149103
149075
149047
149021
148995
148972
148947
148928
148902
148887
149243
149232
149206
149188
149162
149140
149113
149086
149059
149031
149003
148974
148945
148918
148891
148867
148840
148820
148794
148778
149151
149139
149112
149094
149067
149044
149016
148989
148961
148932
148902
148873
148843
148815
148786
148761
148734
148713
148685
148668
149060
149047
149019
149000
148972
148948
148919
148891
148862
148833
148802
148772
148741
148712
148682
148656
148628
148606
148577
148559
148969
148955
148927
148906
148878
148852
148823
148794
148764
148733
148702
148670
148639
148609
148578
148551
148522
148499
148470
148451
148879
148864
148834
148813
148784
148757
148726
148696
148665
148634
148601
148569
148537
148506
148474
148447
148416
148393
148363
148343
148789
148773
148742
148720
148690
148662
148630
148599
148567
148534
148501
148468
148435
148403
148371
148343
148311
148287
148256
148235
148699
148682
148651
148627
148596
148567
148535
148502
148469
148436
148401
148367
148333
148301
148268
148239
148207
148181
148150
148128
148610
148592
148560
148535
148503
148473
148440
148406
148372
148337
148302
148267
148233
148200
148166
148135
148103
148077
148044
148022
148522
148503
148470
148444
148411
148379
148345
148311
148276
148240
148204
148168
148132
148099
148064
148033
147999
147972
147939
147916
148435
148414
148380
148353
148319
148287
148251
148216
148180
148143
148106
148070
148033
147998
147963
147931
147896
147869
147834
147810
148348
148326
148291
148263
148228
148195
148158
148122
148085
148047
148009
147972
147934
147899
147862
147830
147794
147766
147731
147706
148262
148239
148203
148174
148138
148103
148066
148029
147991
147952
147913
147875
147836
147800
147763
147729
147693
147664
147628
147602
148176
148153
148116
148085
148048
148013
147974
147936
147897
147858
147818
147779
147739
147702
147664
147630
147593
147563
147526
147499
148092
148067
148029
147997
147959
147923
147884
147845
147805
147764
147724
147683
147643
147605
147566
147531
147493
147462
147424
147397
148009
147983
147944
147911
147872
147834
147794
147754
147713
147672
147630
147589
147548
147509
147469
147434
147395
147363
147324
147296
147926
147899
147859
147825
147785
147746
147705
147664
147622
147580
147538
147496
147454
147414
147373
147337
147297
147265
147225
147196
147845
147816
147775
147740
147699
147659
147617
147575
147532
147489
147446
147403
147360
147320
147278
147241
147201
147168
147127
147097
147764
147735
147693
147656
147614
147573
147530
147487
147443
147399
147355
147311
147268
147226
147184
147146
147105
147071
147030
146999
147685
147654
147611
147573
147530
147487
147443
147399
147355
147310
147265
147221
147177
147134
147092
147053
147011
146976
146933
146901
147607
147575
147531
147491
147447
147403
147358
147313
147268
147222
147177
147131
147086
147043
147000
146960
146917
146882
146838
146805
147530
147496
147451
147410
147365
147320
147274
147228
147182
147135
147089
147043
146997
146953
146909
146868
146825
146788
146744
146710
147454
147419
147373
147331
147284
147239
147192
147144
147097
147050
147002
146955
146909
146864
146819
146778
146734
146696
146651
146617
147380
147343
147296
147252
147205
147158
147110
147062
147013
146965
146917
146869
146822
146776
146731
146689
146644
146606
146560
146524
147306
147268
147220
147175
147127
147078
147029
146980
146931
146881
146832
146784
146736
146690
146644
146601
146555
146516
146469
146432
147234
147194
147145
147099
147049
147000
146950
146900
146849
146799
146749
146700
146651
146604
146557
146514
146467
146427
146380
146342
147163
147122
147072
147024
146973
146923
146872
146820
146769
146718
146667
146617
146568
146520
146473
146428
146381
146340
146292
146253
147093
147051
146999
146950
146899
146847
146795
146743
146691
146639
146587
146536
146486
146437
146389
146344
146296
146254
146205
146165
147025
146981
146928
146878
146825
146772
146719
146666
146613
146560
146508
146456
146405
146356
146307
146261
146212
146170
146119
146078
146958
146912
146859
146807
146753
146699
146645
146590
146536
146483
146430
146377
146326
146275
146226
146179
146130
146086
146035
145993
146892
146845
146790
146737
146682
146627
146571
146516
146461
146407
146353
146300
146247
146196
146146
146098
146049
146004
145952
145909
146827
146779
146723
146669
146612
146556
146499
146443
146387
146332
146277
146223
146170
146119
146068
146019
145969
145923
145871
145826
146764
146714
146657
146601
146544
146486
146429
146371
146315
146258
146203
146148
146094
146042
145991
145941
145890
145844
145790
145745
146702
146650
146592
146535
146476
146418
146359
146301
146243
146186
146130
146074
146020
145967
145915
145864
145813
145765
145711
145664
146641
146587
146529
146470
146410
146350
146290
146231
146172
146115
146057
146001
145946
145893
145840
145789
145737
145688
145634
145585
146581
146526
146466
146406
146345
146284
146223
146163
146103
146044
145986
145930
145874
145820
145766
145714
145662
145612
145557
145507
146521
146465
146404
146343
146281
146218
146156
146095
146035
145975
145917
145859
145803
145748
145694
145641
145588
145537
145482
145431
146463
146405
146343
146281
146217
146154
146091
146029
145967
145907
145848
145789
145732
145677
145622
145569
145515
145463
145407
145355
146404
146345
146282
146219
146155
146090
146026
145963
145901
145840
145780
145721
145663
145607
145552
145498
145443
145391
145334
145280
146346
146286
146222
146158
146093
146027
145962
145898
145835
145773
145713
145653
145595
145538
145482
145427
145372
145318
145261
145206
146288
146226
146162
146097
146031
145965
145899
145834
145771
145708
145646
145586
145527
145469
145413
145357
145302
145247
145189
145132
146229
146166
146101
146036
145969
145903
145836
145771
145706
145643
145581
145520
145460
145402
145344
145288
145231
145176
145117
145058
146169
146106
146040
145974
145907
145840
145774
145707
145642
145578
145515
145454
145393
145334
145276
145219
145161
145104
145044
144985
146109
146045
145979
145912
145845
145778
145711
145644
145578
145514
145450
145388
145327
145267
145208
145149
145091
145033
144972
144911
146048
145983
145916
145850
145782
145715
145647
145581
145514
145449
145385
145322
145260
145199
145139
145080
145020
144961
144899
144836
145985
145920
145853
145786
145719
145651
145583
145516
145450
145384
145319
145256
145193
145131
145070
145009
144949
144888
144824
144760
145922
145856
145789
145722
145654
145586
145519
145451
145385
145319
145253
145189
145125
145062
145000
144938
144876
144813
144749
144683
145858
145791
145724
145656
145588
145520
145453
145385
145318
145252
145186
145121
145056
144992
144929
144865
144802
144738
144672
144605
145793
145726
145658
145590
145522
145454
145386
145318
145251
145184
145118
145052
144986
144921
144856
144791
144726
144661
144594
144526
145728
145660
145592
145523
145455
145386
145318
145250
145182
145115
145048
144981
144915
144849
144782
144716
144650
144583
144514
144445
145663
145594
145525
145456
145387
145318
145249
145181
145112
145044
144976
144909
144842
144774
144707
144639
144571
144502
144433
144363
145597
145528
145459
145389
145320
145250
145181
145112
145042
144973
144905
144837
144768
144700
144630
144561
144491
144421
144351
144281
145532
145462
145392
145322
145252
145182
145112
145042
144973
144903
144833
144764
144696
144627
144557
144486
144414
144343
144272
144200
145467
145396
145326
145255
145184
145114
145044
144973
144903
144833
144762
144692
144622
144553
144483
144412
144339
144267
144195
144122
145402
145331
145259
145188
145117
145046
144975
144904
144833
144762
144691
144620
144549
144478
144407
144335
144263
144190
144117
144045
145338
145266
145194
145122
145050
144978
144906
144834
144763
144691
144619
144547
144475
144403
144331
144259
144186
144113
144040
143967
145274
145201
145128
145056
144983
144911
144838
144765
144693
144620
144548
144475
144402
144330
144257
144184
144110
144037
143964
143891
145210
145137
145063
144990
144917
144844
144770
144697
144624
144551
144477
144404
144331
144257
144183
144110
144036
143962
143888
143815
145147
145073
144999
144925
144851
144777
144703
144630
144556
144482
144408
144334
144259
144185
144111
144037
143962
143888
143814
143739
145085
145010
144936
144861
144786
144712
144637
144563
144488
144413
144339
144264
144189
144114
144039
143965
143890
143815
143740
143665
145023
144948
144873
144797
144722
144647
144572
144496
144421
144346
144270
144195
144120
144044
143969
143893
143818
143742
143667
143591
144962
144886
144810
144734
144659
144583
144507
144431
144355
144279
144203
144127
144051
143975
143899
143823
143747
143670
143594
143518
144902
144825
144749
144672
144596
144519
144443
144366
144290
144213
144136
144060
143983
143906
143830
143753
143676
143600
143523
143446
144842
144765
144688
144611
144534
144456
144379
144302
144225
144148
144071
143993
143916
143839
143762
143684
143607
143530
143452
143375
144783
144705
144628
144550
144472
144394
144317
144239
144161
144083
144006
143928
143850
143772
143694
143616
143538
143461
143383
143305
144725
144647
144568
144490
144412
144333
144255
144177
144098
144020
143941
143863
143785
143706
143628
143549
143471
143392
143314
143236
144667
144588
144510
144431
144352
144273
144194
144115
144036
143957
143878
143799
143720
143641
143562
143483
143404
143325
143246
143167
144611
144531
144452
144372
144293
144213
144134
144054
143975
143895
143815
143736
143656
143577
143497
143418
143338
143259
143179
143100
144554
144474
144394
144314
144234
144154
144074
143994
143914
143834
143754
143674
143594
143513
143433
143353
143273
143193
143113
143033
144499
144419
144338
144257
144177
144096
144015
143935
143854
143774
143693
143612
143532
143451
143370
143290
143209
143129
143048
142967
144445
144364
144282
144201
144120
144039
143958
143876
143795
143714
143633
143552
143471
143389
143308
143227
143146
143065
142984
142903
144391
144309
144228
144146
144064
143982
143901
143819
143737
143656
143574
143492
143410
143329
143247
143165
143084
143002
142920
142839
144338
144256
144173
144091
144009
143927
143845
143762
143680
143598
143516
143433
143351
143269
143187
143105
143022
142940
142858
142776
144286
144203
144120
144037
143955
143872
143789
143706
143624
143541
143458
143376
143293
143210
143127
143045
142962
142879
142797
142714
144234
144151
144068
143985
143901
143818
143735
143651
143568
143485
143402
143319
143235
143152
143069
142986
142902
142819
142736
142653
144184
144100
144016
143932
143849
143765
143681
143597
143514
143430
143346
143262
143179
143095
143011
142928
142844
142760
142676
142593
144134
144050
143965
143881
143797
143713
143628
143544
143460
143376
143292