/*--------------------------------*- C++ -*----------------------------------*\
  =========                 |
  \\      /  F ield         | OpenFOAM: The Open Source CFD Toolbox
   \\    /   O peration     | Website:  https://openfoam.org
    \\  /    A nd           | Version:  8
     \\/     M anipulation  |
\*---------------------------------------------------------------------------*/
FoamFile
{
    version     2.0;
    format      ascii;
    class       surfaceScalarField;
    location    "300";
    object      phi;
}
// * * * * * * * * * * * * * * * * * * * * * * * * * * * * * * * * * * * * * //

dimensions      [1 0 -1 0 0 0 0];

internalField   nonuniform List<scalar> 
16360
(
-1.38933
-0.00469597
-1.39209
0.00277229
-1.40359
0.0113991
-1.42075
0.017217
-1.44026
0.019494
-1.45938
0.0191094
-1.47663
0.0172753
-1.49028
0.0136296
-1.49777
0.00744928
-1.49665
-0.00116386
-1.48562
-0.0110428
-1.46578
-0.0198181
-1.43967
-0.0260673
-1.40996
-0.0296674
-1.37849
-0.0314437
-1.34607
-0.0324052
-1.31342
-0.0326424
-1.28169
-0.0317363
-1.25172
-0.0299821
-1.22347
-0.0282636
-1.19619
-0.0272975
-1.16896
-0.0272375
-1.14133
-0.0276415
-1.1134
-0.0279259
-1.08559
-0.0278014
-1.05845
-0.02713
-1.03275
-0.0256825
-1.00944
-0.023271
-0.989336
-0.0200689
-0.97236
-0.0169455
-0.957071
-0.0152798
-0.940774
-0.0163027
-0.919898
-0.0208802
-0.890629
-0.0292631
-0.85023
-0.0403869
-0.798725
-0.0515065
-0.73927
-0.0594786
-0.676681
-0.0626257
-0.615683
-0.0610335
-0.560326
-0.0553682
-0.51418
-0.0461142
-0.479287
-0.034824
-0.454738
-0.0244726
-0.438358
-0.0163282
-0.429491
-0.00884086
-0.428933
-0.000582404
-0.430213
0.00129668
-0.430208
6.79646e-05
-0.426944
-0.00333083
-0.00665202
-0.420425
-1.19149
-0.0111797
-1.18449
-0.00415978
-1.17528
0.00218168
-1.16354
0.00536313
-1.14518
0.0012064
-1.11494
-0.0110808
-1.07072
-0.026829
-1.01332
-0.0436796
-0.949926
-0.0558203
-0.887149
-0.0638738
-0.82239
-0.0757929
-0.752391
-0.0898485
-0.678535
-0.0999726
-0.603541
-0.104695
-0.528672
-0.106301
-0.455322
-0.105704
-0.385606
-0.102289
-0.32137
-0.0959085
-0.263622
-0.08768
-0.213106
-0.0787356
-0.170716
-0.069652
-0.137623
-0.0603117
-0.11532
-0.0499547
-0.105316
-0.0379735
-0.108479
-0.0247065
-0.124437
-0.0112409
-0.150963
0.000804862
-0.184111
0.00986981
-0.21983
0.0156387
-0.254918
0.0180825
-0.287132
0.0168417
-0.314802
0.0113101
-0.336174
0.000503601
-0.350525
-0.0148656
-0.358693
-0.0321858
-0.363074
-0.0471211
-0.367621
-0.0549284
-0.375858
-0.0543593
-0.388134
-0.0487187
-0.401158
-0.0423236
-0.412215
-0.0350552
-0.420779
-0.0262796
-0.423245
-0.0220146
-0.417927
-0.0216013
-0.412994
-0.0136233
-0.422378
0.00881871
-0.430096
0.0088312
-0.433031
0.00292979
-0.42921
-0.00713864
-0.0144636
-0.421232
0.0664258
-0.0604256
0.0854427
-0.0235393
0.110686
-0.0228195
0.146366
-0.0304974
0.190924
-0.0434078
0.239104
-0.0596486
0.290213
-0.0777369
0.33698
-0.0907607
0.381678
-0.100596
0.427705
-0.109902
0.469398
-0.117533
0.502654
-0.123195
0.530121
-0.127549
0.555698
-0.130389
0.579672
-0.130381
0.600639
-0.126764
0.617927
-0.119665
0.631994
-0.110045
0.643208
-0.0989319
0.651338
-0.0868664
0.655794
-0.0740829
0.656044
-0.0605394
0.652247
-0.0461644
0.645411
-0.0311753
0.63675
-0.0160913
0.626666
-0.00117567
0.614749
0.0127515
0.600245
0.0244355
0.583142
0.0328176
0.563209
0.0380939
0.538198
0.0419363
0.505141
0.0444731
0.461695
0.0440665
0.409528
0.0373943
0.354053
0.0233349
0.29966
0.0072907
0.248662
-0.00390703
0.199058
-0.00470095
0.144256
0.00617889
0.078767
0.0233028
0.00647458
0.0373885
-0.0694129
0.0496559
-0.153338
0.0618061
-0.241384
0.0661838
-0.310321
0.0551628
-0.358058
0.0566112
-0.394267
0.0449101
-0.414983
0.0235741
-0.417993
-0.00424359
-0.024944
-0.407428
1.15729
-0.038128
1.14279
-0.0091757
1.13479
-0.0148349
1.13254
-0.0281824
1.13574
-0.046365
1.1432
-0.0670768
1.15314
-0.087565
1.16761
-0.105245
1.18655
-0.119591
1.2074
-0.130792
1.22845
-0.138616
1.24827
-0.143032
1.26506
-0.144322
1.27744
-0.14272
1.28533
-0.138213
1.28942
-0.13079
1.29046
-0.120652
1.28875
-0.108295
1.28414
-0.0942988
1.27634
-0.0790347
1.26493
-0.0626589
1.24965
-0.0452459
1.2304
-0.0269154
1.20722
-0.00801438
1.18041
0.0107009
1.15163
0.0275907
1.12283
0.0415531
1.09406
0.0532212
1.06418
0.0626894
1.03296
0.0693071
1.00243
0.0724669
0.975427
0.0714972
0.953815
0.0657119
0.936011
0.055227
0.916328
0.0430356
0.888694
0.0349279
0.850149
0.0346179
0.802878
0.0425249
0.753161
0.055841
0.703301
0.0731176
0.647559
0.0931452
0.583779
0.113577
0.513584
0.132231
0.432657
0.147346
0.334737
0.153179
0.235135
0.156316
0.124862
0.155174
-0.000222961
0.148687
-0.140219
0.135751
0.0976255
-0.262822
2.57553
0.0326159
2.54828
0.0180579
2.52125
0.0121583
2.49559
-0.00254148
2.46904
-0.0198136
2.43932
-0.0373969
2.40602
-0.0542898
2.36997
-0.0692056
2.3318
-0.0814409
2.29183
-0.0908452
2.25067
-0.0974872
2.20913
-0.101521
2.16795
-0.103157
2.1278
-0.102564
2.08936
-0.0997835
2.05341
-0.0948471
2.02062
-0.0878694
1.99139
-0.079065
1.96584
-0.0687345
1.94398
-0.0571621
1.92589
-0.0445507
1.9117
-0.0310587
1.9016
-0.0168311
1.89563
-0.00207257
1.89338
0.0129322
1.89281
0.0281483
1.89149
0.0428738
1.88854
0.0561652
1.88391
0.067312
1.87746
0.0757419
1.86876
0.0811587
1.85663
0.0836277
1.83844
0.0839083
1.81004
0.0836194
1.76858
0.0844889
1.71455
0.0889675
1.64988
0.0992832
1.576
0.1164
1.49235
0.139463
1.39957
0.165865
1.29964
0.193013
1.19439
0.218772
1.08543
0.241164
0.974193
0.258576
0.858018
0.269322
0.739942
0.274395
0.621061
0.274101
0.501303
0.268435
0.37962
0.257408
0.231952
0.245265
1.77219
0.0678162
1.74105
0.0492082
1.72044
0.0327528
1.70185
0.0160466
1.68476
-0.00270753
1.66913
-0.0217509
1.6545
-0.0396898
1.64087
-0.0555881
1.6282
-0.068748
1.61631
-0.0789328
1.60502
-0.0861686
1.59408
-0.090566
1.58325
-0.0923136
1.57235
-0.0916712
1.56141
-0.0888642
1.5506
-0.0840668
1.54013
-0.0774305
1.53014
-0.0691097
1.52069
-0.0593104
1.51181
-0.0482977
1.5036
-0.0363583
1.49628
-0.0237639
1.49015
-0.0107409
1.48554
0.00250302
1.48273
0.0157203
1.48226
0.028626
1.48446
0.0407002
1.48883
0.0518124
1.49428
0.0618776
1.49919
0.0708294
1.50173
0.0786029
1.50005
0.085275
1.49265
0.0912632
1.47876
0.097475
1.45797
0.105233
1.43061
0.116287
1.39773
0.132141
1.36067
0.153442
1.32039
0.179749
1.27671
0.209557
1.22886
0.240871
1.17602
0.271598
1.11747
0.299696
1.05264
0.323399
0.980576
0.341373
0.901689
0.353237
0.816857
0.358898
0.727013
0.358275
0.633399
0.351018
0.335294
0.530045
1.62804
0.113258
1.59047
0.0867702
1.55856
0.0646465
1.53105
0.0435305
1.50617
0.0221523
1.4832
0.00122278
1.46135
-0.0178265
1.44011
-0.0343066
1.41953
-0.0481313
1.39968
-0.0590395
1.38051
-0.0669607
1.36201
-0.072056
1.3443
-0.0745996
1.32753
-0.0748949
1.31187
-0.0732127
1.29753
-0.0697527
1.28467
-0.0646048
1.27329
-0.0577736
1.26326
-0.0493005
1.25436
-0.039393
1.24643
-0.0284217
1.23946
-0.0167821
1.23349
-0.00477323
1.22861
0.00739542
1.2249
0.0194636
1.22237
0.0312089
1.22101
0.0421057
1.22091
0.0519331
1.22192
0.0608581
1.2235
0.0692209
1.22474
0.0773318
1.22449
0.0855073
1.22156
0.0941805
1.21502
0.104006
1.20436
0.1159
1.18968
0.130966
1.17172
0.150113
1.15147
0.173705
1.12975
0.201476
1.10677
0.232538
1.08214
0.265505
1.05507
0.298672
1.02456
0.330222
0.9895
0.358468
0.948817
0.382063
0.901945
0.400137
0.848714
0.412126
0.789277
0.417688
0.72385
0.416443
0.407977
0.65118
1.33334
0.150412
1.29986
0.120282
1.27135
0.0931316
1.246
0.068885
1.22265
0.0455205
1.20089
0.022986
1.18093
0.00216735
1.16221
-0.0155341
1.14388
-0.0297743
1.1258
-0.0409521
1.10798
-0.0491162
1.09053
-0.0545927
1.0737
-0.0577931
1.05783
-0.0590472
1.04323
-0.0586379
1.03023
-0.0567772
1.01906
-0.0534727
1.00973
-0.0484816
1.00195
-0.0415367
0.995286
-0.0327284
0.989449
-0.0225855
0.984396
-0.0117335
0.980166
-0.00055105
0.976689
0.0108618
0.973691
0.0224481
0.971229
0.0336477
0.969354
0.0439507
0.968064
0.0532048
0.967338
0.061585
0.967049
0.0695275
0.966842
0.0775674
0.966147
0.086231
0.964301
0.0960447
0.960743
0.107568
0.955211
0.12142
0.947883
0.138265
0.939252
0.158702
0.929864
0.183048
0.920138
0.211181
0.910184
0.242494
0.899765
0.275943
0.88832
0.310136
0.875059
0.343497
0.859052
0.37449
0.839314
0.40179
0.815085
0.424377
0.785811
0.441449
0.751098
0.45242
0.710734
0.456832
0.454405
0.664323
1.04773
0.188963
1.01539
0.152633
0.987442
0.121063
0.962713
0.093578
0.940369
0.0678205
0.919782
0.0435326
0.900649
0.0212892
0.883259
0.00186162
0.866837
-0.0133756
0.85005
-0.024219
0.832791
-0.0318842
0.815374
-0.0371776
0.79831
-0.0407291
0.782078
-0.042815
0.767104
-0.0436576
0.753888
-0.0435479
0.743005
-0.0425738
0.734727
-0.0401847
0.728605
-0.035399
0.723769
-0.0278895
0.719619
-0.0184426
0.716093
-0.00822123
0.713381
0.00214148
0.711434
0.0127894
0.709645
0.0242268
0.707673
0.0356188
0.705666
0.0459632
0.703891
0.0549917
0.702541
0.0629444
0.701635
0.0704333
0.70104
0.0781639
0.700508
0.0867895
0.699786
0.0968316
0.698716
0.108733
0.69731
0.12292
0.695814
0.139849
0.694585
0.160024
0.693839
0.183859
0.693614
0.211415
0.693831
0.242256
0.694239
0.275519
0.694371
0.310002
0.693649
0.344218
0.691402
0.376762
0.686851
0.406379
0.679256
0.432006
0.668002
0.452765
0.652547
0.467926
0.63251
0.476905
0.479322
0.607602
0.734624
0.225229
0.706989
0.180242
0.683266
0.144809
0.661932
0.114926
0.642516
0.0871943
0.624478
0.061548
0.607681
0.0380492
0.591879
0.0176106
0.577079
0.00138674
0.561196
-0.00841726
0.542624
-0.0133877
0.522736
-0.0173067
0.503162
-0.0211358
0.484774
-0.0244234
0.467478
-0.0263852
0.451373
-0.0274709
0.437763
-0.028976
0.428185
-0.0305966
0.422567
-0.0297626
0.419368
-0.0246805
0.41718
-0.0162503
0.41585
-0.00687939
0.416169
0.00184634
0.418613
0.0103708
0.42134
0.0215009
0.422449
0.0344488
0.422564
0.0457202
0.422615
0.0548138
0.422901
0.0625799
0.42342
0.0698701
0.424074
0.0774795
0.424825
0.0860176
0.425835
0.0958107
0.427453
0.107127
0.430128
0.120275
0.434306
0.135697
0.440272
0.154079
0.447944
0.176215
0.4569
0.202454
0.466712
0.232411
0.476939
0.265256
0.487074
0.299849
0.496806
0.334504
0.505672
0.367946
0.513105
0.399006
0.518478
0.426691
0.52122
0.450074
0.520846
0.468344
0.516958
0.480811
0.48706
0.509238
0.39973
0.266597
0.379361
0.200624
0.359785
0.164396
0.342155
0.132594
0.325452
0.103946
0.308719
0.0783538
0.293626
0.0531696
0.27998
0.0312328
0.265655
0.0158445
0.246696
0.0106208
0.221125
0.0121402
0.192145
0.0116275
0.162688
0.0083335
0.133155
0.00515002
0.104391
0.00240399
0.0768974
3.11708e-05
0.048513
-0.000592754
0.0197034
-0.00179272
-0.00535089
-0.00470549
-0.0241196
-0.00588735
-0.0373245
-0.00300883
-0.0452845
0.00108342
-0.047367
0.00385636
-0.0431332
0.00600866
-0.0291202
0.00742706
-0.0044324
0.00983752
0.0259021
0.0154379
0.0563507
0.0243716
0.0831713
0.0357946
0.105054
0.0480719
0.122383
0.060262
0.136054
0.0724712
0.147255
0.0847475
0.157377
0.0971424
0.167833
0.109946
0.179854
0.123786
0.194083
0.139923
0.210279
0.16007
0.227645
0.185103
0.245634
0.214428
0.263818
0.247082
0.281547
0.282097
0.299352
0.316695
0.316908
0.350424
0.333813
0.382164
0.349378
0.41119
0.363053
0.436433
0.374419
0.456995
0.383189
0.472048
0.481321
0.388959
0.00126152
0.272756
-0.00445398
0.20644
-0.0152546
0.175215
-0.0326242
0.149888
-0.0592435
0.130608
-0.0991206
0.118264
-0.154809
0.108722
-0.225313
0.101355
-0.30161
0.0921146
-0.367196
0.0762881
-0.411792
0.0567503
-0.438462
0.0382746
-0.452642
0.0225069
-0.457349
0.00989209
-0.457545
0.00267994
-0.456114
-0.0012859
-0.450873
-0.0057227
-0.441572
-0.0110218
-0.430116
-0.0161264
-0.41647
-0.0195248
-0.399591
-0.0198919
-0.379852
-0.0186463
-0.358042
-0.0179182
-0.334392
-0.0175982
-0.310589
-0.0163404
-0.287956
-0.0127036
-0.266707
-0.00568798
-0.24607
0.00381459
-0.224246
0.0139896
-0.200521
0.0243475
-0.175466
0.0352184
-0.14962
0.0466385
-0.123591
0.0587167
-0.0981202
0.071654
-0.0739784
0.0857731
-0.0517443
0.101523
-0.031396
0.119553
-0.0120246
0.140678
0.00770091
0.165351
0.028869
0.193215
0.0524963
0.223407
0.0785769
0.255997
0.105864
0.289441
0.132765
0.323555
0.158504
0.356449
0.182664
0.387031
0.205017
0.41408
0.225385
0.436618
0.244052
0.453401
0.465024
0.260368
-0.312784
0.23554
-0.313259
0.206899
-0.323054
0.185005
-0.34037
0.16717
-0.362737
0.152929
-0.386321
0.141842
-0.409017
0.131618
-0.427883
0.120255
-0.441661
0.105812
-0.452797
0.0873769
-0.463094
0.0670429
-0.472668
0.0478479
-0.481794
0.0316148
-0.490978
0.0190535
-0.498778
0.0104716
-0.504424
0.00436918
-0.509029
-0.00111458
-0.513829
-0.00624237
-0.519289
-0.0107057
-0.5248
-0.0140553
-0.528773
-0.015948
-0.530307
-0.0171199
-0.529889
-0.0183196
-0.528075
-0.0193904
-0.524756
-0.0196601
-0.519111
-0.0183726
-0.509776
-0.0150685
-0.496247
-0.00979316
-0.479305
-0.00307896
-0.459417
0.00429255
-0.436567
0.0121918
-0.410993
0.0209086
-0.383114
0.0307224
-0.353508
0.0419822
-0.322845
0.0550894
-0.291796
0.0704807
-0.260876
0.0886525
-0.230327
0.110117
-0.200077
0.135085
-0.170013
0.163166
-0.140169
0.193555
-0.110077
0.225857
-0.0795829
0.258922
-0.0482043
0.292155
-0.0161358
0.324363
0.0161742
0.35468
0.048262
0.381986
0.0788022
0.406071
0.106888
0.425356
0.439645
0.132314
-0.571187
0.201209
-0.555696
0.191413
-0.548802
0.17813
-0.546669
0.165067
-0.546508
0.152689
-0.54583
0.141113
-0.543814
0.129646
-0.540848
0.117338
-0.538364
0.103321
-0.538561
0.0875414
-0.542668
0.0711343
-0.550402
0.0555872
-0.560734
0.0419603
-0.572469
0.0308118
-0.58411
0.0221389
-0.594864
0.0151376
-0.604916
0.00892906
-0.614476
0.00328894
-0.623679
-0.00153316
-0.632467
-0.00528509
-0.640325
-0.00809703
-0.646965
-0.010484
-0.652532
-0.0127522
-0.657144
-0.0147807
-0.660605
-0.0162302
-0.662353
-0.0166945
-0.661615
-0.0159004
-0.657687
-0.0138154
-0.650248
-0.010596
-0.639543
-0.00646256
-0.625813
-0.00155517
-0.60912
0.00423275
-0.589568
0.0112153
-0.56729
0.0197612
-0.54245
0.0303074
-0.515259
0.0433355
-0.485895
0.0593241
-0.454467
0.0786752
-0.421
0.10157
-0.385671
0.1278
-0.348941
0.156788
-0.310938
0.187816
-0.271986
0.219939
-0.232207
0.252354
-0.191951
0.284108
-0.151687
0.314405
-0.111973
0.342289
-0.073041
0.367162
-0.0353967
0.387731
0.403211
0.00107056
-0.772455
0.169864
-0.747383
0.166344
-0.7278
0.15851
-0.711892
0.149201
-0.698475
0.139272
-0.686584
0.12919
-0.675843
0.118913
-0.666632
0.108141
-0.659922
0.096593
-0.656767
0.0843559
-0.657613
0.071963
-0.662123
0.0601037
-0.669453
0.0493215
-0.678529
0.0399381
-0.688317
0.0319748
-0.698261
0.0251015
-0.708272
0.0189239
-0.718301
0.0132792
-0.728105
0.00823134
-0.737302
0.0038892
-0.745625
0.000221427
-0.753151
-0.00295964
-0.760087
-0.00582525
-0.766488
-0.00838832
-0.772224
-0.0104991
-0.776951
-0.0119662
-0.780187
-0.012648
-0.781474
-0.0124902
-0.780483
-0.0115305
-0.777059
-0.00982215
-0.771219
-0.00733743
-0.762975
-0.00397113
-0.752236
0.000493365
-0.738871
0.00639374
-0.722706
0.0141308
-0.703536
0.0241497
-0.681117
0.0368942
-0.655205
0.0527363
-0.625557
0.0718823
-0.592076
0.094282
-0.554906
0.11959
-0.514315
0.147225
-0.470814
0.176445
-0.424929
0.206468
-0.377287
0.236474
-0.328588
0.265705
-0.279661
0.293356
-0.231001
0.318509
-0.183179
0.339914
0.356265
-0.136232
-0.959164
0.137039
-0.929114
0.13628
-0.902645
0.132013
-0.879403
0.125936
-0.859025
0.118883
-0.841187
0.11133
-0.825737
0.103447
-0.812807
0.0952014
-0.802759
0.0865508
-0.795958
0.0775811
-0.792504
0.0685417
-0.79213
0.0597607
-0.794306
0.0515284
-0.798365
0.0440314
-0.80368
0.0373077
-0.809837
0.031242
-0.816633
0.0256763
-0.823933
0.020529
-0.831548
0.0158142
-0.839234
0.0115705
-0.846771
0.00777625
-0.854052
0.0043427
-0.861052
0.00118853
-0.86774
-0.00169229
-0.873999
-0.004225
-0.879647
-0.00629754
-0.884455
-0.00781958
-0.888175
-0.00876368
-0.89058
-0.00914465
-0.891487
-0.00896225
-0.890731
-0.00815965
-0.888168
-0.00660495
-0.88364
-0.00409711
-0.876921
-0.00036812
-0.867719
0.00491096
-0.855671
0.0121031
-0.84034
0.0215716
-0.821232
0.0336305
-0.797837
0.048487
-0.769743
0.0661828
-0.736717
0.0865572
-0.69873
0.109258
-0.656047
0.13378
-0.609094
0.159523
-0.558447
0.185831
-0.504761
0.212024
-0.448757
0.237342
-0.391137
0.260865
-0.332671
0.281431
0.297851
-0.274264
-1.16201
0.102345
-1.12853
0.102779
-1.09736
0.100844
-1.0688
0.0973665
-1.04289
0.09298
-1.01959
0.0880436
-0.998908
0.0827371
-0.980881
0.077134
-0.965623
0.0712725
-0.953251
0.0652149
-0.94377
0.0590784
-0.937013
0.0530166
-0.932667
0.0471822
-0.930335
0.0416906
-0.929623
0.0365861
-0.930228
0.0318388
-0.931947
0.0273901
-0.93462
0.0232058
-0.938082
0.0192902
-0.942146
0.0156586
-0.94664
0.0123005
-0.951442
0.00917511
-0.956481
0.00624361
-0.961684
0.00350391
-0.966935
0.00099732
-0.972066
-0.00121194
-0.976876
-0.00306653
-0.98117
-0.00453547
-0.984776
-0.00560757
-0.98754
-0.00626275
-0.989303
-0.00644332
-0.989887
-0.00603992
-0.989084
-0.00489322
-0.986626
-0.00279673
-0.982173
0.000498603
-0.9753
0.00526678
-0.965489
0.0117846
-0.952143
0.020296
-0.934616
0.0309747
-0.912312
0.0438879
-0.884726
0.0589751
-0.851495
0.0760498
-0.812504
0.0948036
-0.76782
0.114842
-0.717704
0.135705
-0.662562
0.156867
-0.602925
0.177697
-0.539481
0.197412
-0.473139
0.215061
0.229834
-0.405137
-1.3657
0.0670995
-1.33054
0.067627
-1.29658
0.0669122
-1.2644
0.0651889
-1.23424
0.0628215
-1.20624
0.0600385
-1.1805
0.0569733
-1.15709
0.0537054
-1.13609
0.0502798
-1.11758
0.0467255
-1.10158
0.0430882
-1.08801
0.0394376
-1.0767
0.0358507
-1.06742
0.0323925
-1.05995
0.0290961
-1.05409
0.0259583
-1.04967
0.0229584
-1.04656
0.0200837
-1.04462
0.0173379
-1.04372
0.0147309
-1.04371
0.0122621
-1.0445
0.00991652
-1.04598
0.00767989
-1.04807
0.00555595
-1.05066
0.00356817
-1.05362
0.00174788
-1.0568
0.000123831
-1.06004
-0.00128023
-1.0632
-0.00244161
-1.06612
-0.00333086
-1.06864
-0.00390186
-1.07057
-0.00408082
-1.07168
-0.00375976
-1.07166
-0.00279356
-1.07013
-0.00100565
-1.06663
0.00179178
-1.06062
0.0057802
-1.05143
0.0111217
-1.03839
0.0179436
-1.0208
0.0263057
-0.998007
0.036185
-0.969441
0.0474873
-0.934696
0.0600454
-0.893501
0.0736317
-0.845774
0.0879611
-0.791612
0.102681
-0.731288
0.117358
-0.665339
0.131452
-0.594653
0.144343
0.155541
-0.520376
-1.52564
0.0330084
-1.49114
0.0331538
-1.45711
0.0329107
-1.42412
0.0322199
-1.39249
0.0312166
-1.36244
0.0300015
-1.3341
0.0286489
-1.30757
0.0272018
-1.28295
0.0256794
-1.26032
0.0240932
-1.23973
0.0224612
-1.22116
0.0208124
-1.20454
0.0191772
-1.18976
0.0175797
-1.17672
0.0160321
-1.1653
0.0145346
-1.15542
0.013081
-1.147
0.0116671
-1.13993
0.0102945
-1.13415
0.00896722
-1.12955
0.00768867
-1.12607
0.00645846
-1.12363
0.00527143
-1.12216
0.00412219
-1.12158
0.00301422
-1.12178
0.0019643
-1.12266
0.000996928
-1.12408
0.000133859
-1.12591
-0.000612404
-1.12802
-0.00123219
-1.13023
-0.00170336
-1.13235
-0.00198061
-1.13413
-0.00200045
-1.13523
-0.0016912
-1.13527
-0.000970929
-1.13375
0.000260035
-1.13009
0.00210506
-1.12363
0.00464603
-1.11363
0.00794067
-1.09937
0.0120259
-1.0801
0.0169005
-1.05514
0.022517
-1.02392
0.0287968
-0.985954
0.0356428
-0.940927
0.042916
-0.888688
0.0504305
-0.829309
0.0579657
-0.763116
0.0652533
-0.69085
0.0720404
0.0780561
-0.613374
-1.61885
-1.58568
-1.55275
-1.52051
-1.48929
-1.45928
-1.43063
-1.40341
-1.37773
-1.35365
-1.33121
-1.31043
-1.29127
-1.27368
-1.25762
-1.24305
-1.22993
-1.21821
-1.20787
-1.19885
-1.19111
-1.18462
-1.17936
-1.17527
-1.17229
-1.17035
-1.16936
-1.16922
-1.16984
-1.1711
-1.17282
-1.17482
-1.17683
-1.17854
-1.17952
-1.17927
-1.17718
-1.17255
-1.16461
-1.15259
-1.13571
-1.1132
-1.08441
-1.04878
-1.00587
-0.95544
-0.897489
-0.832223
-0.760196
-0.682126
0.0081246
-0.000166511
0.00817855
-5.35957e-05
0.00821438
-3.546e-05
0.00822696
-1.22408e-05
0.00822461
2.67927e-06
0.00821458
1.03239e-05
0.00820057
1.42617e-05
0.00818436
1.64365e-05
0.0081669
1.76465e-05
0.00814878
1.82817e-05
0.00813034
1.8584e-05
0.00811177
1.87004e-05
0.00809318
1.87131e-05
0.00807463
1.86659e-05
0.00805615
1.85872e-05
0.00803775
1.85057e-05
0.00801937
1.84763e-05
0.00800081
1.86405e-05
0.00798151
1.93728e-05
0.00796183
1.97419e-05
0.00794308
1.87981e-05
0.00792552
1.75877e-05
0.00790875
1.6773e-05
0.00789249
1.62548e-05
0.00787656
1.58899e-05
0.00786091
1.55792e-05
0.00784553
1.52785e-05
0.00783043
1.49612e-05
0.00781565
1.46062e-05
0.00780126
1.41814e-05
0.00778736
1.36468e-05
0.00777408
1.29923e-05
0.00776154
1.22188e-05
0.00774986
1.13368e-05
0.00773916
1.03518e-05
0.00772952
9.26997e-06
0.00772105
8.09538e-06
0.00771384
6.82215e-06
0.00770804
5.41037e-06
0.00770384
3.81118e-06
0.00770152
1.94449e-06
0.00770145
-2.91098e-07
0.00770409
-3.01153e-06
0.0077101
-6.38072e-06
0.0077204
-1.06761e-05
0.00773648
-1.63946e-05
0.00776052
-2.43374e-05
0.00779537
-3.55742e-05
0.0078448
-5.16186e-05
-7.60384e-05
0.00791606
0.00788043
-8.84942e-05
0.00786696
-3.94132e-05
0.00784104
-8.88738e-06
0.0078278
1.56647e-06
0.00782185
9.14566e-06
0.00781909
1.35536e-05
0.00781825
1.5516e-05
0.00781882
1.62313e-05
0.00782045
1.63623e-05
0.00782284
1.62056e-05
0.00782579
1.59209e-05
0.00782915
1.56022e-05
0.00783282
1.52994e-05
0.00783668
1.50334e-05
0.00784066
1.48118e-05
0.00784472
1.46391e-05
0.00784883
1.45244e-05
0.00785311
1.44958e-05
0.0078582
1.43892e-05
0.00786397
1.40488e-05
0.00787022
1.26041e-05
0.00787562
1.22176e-05
0.00788018
1.21992e-05
0.0078842
1.21811e-05
0.00788784
1.21383e-05
0.00789119
1.20566e-05
0.0078943
1.19164e-05
0.00789725
1.1682e-05
0.0079001
1.1325e-05
0.00790294
1.08147e-05
0.00790586
1.01172e-05
0.00790893
9.23047e-06
0.00791225
8.16614e-06
0.0079159
6.91425e-06
0.00791999
5.47158e-06
0.00792463
3.832e-06
0.00792997
1.97242e-06
0.00793618
-1.47128e-07
0.00794345
-2.58832e-06
0.00795203
-5.44102e-06
0.00796219
-8.82904e-06
0.00797424
-1.29198e-05
0.00798858
-1.79322e-05
0.00800567
-2.41064e-05
0.00802589
-3.17033e-05
0.00804965
-4.10715e-05
0.0080776
-5.28307e-05
0.00811156
-6.82254e-05
0.00815483
-8.95761e-05
-0.000120629
0.00820971
0.00789032
-2.04503e-05
0.00786983
-1.83512e-05
0.00786757
-6.04466e-06
0.00786926
3.84218e-07
0.0078746
4.24846e-06
0.0078813
7.25429e-06
0.00788794
9.23793e-06
0.00789413
1.03551e-05
0.00789985
1.09282e-05
0.00790512
1.11853e-05
0.00791002
1.12642e-05
0.00791458
1.12542e-05
0.00791888
1.12105e-05
0.00792294
1.11632e-05
0.0079268
1.11251e-05
0.0079305
1.10994e-05
0.00793407
1.1089e-05
0.00793758
1.10984e-05
0.00794072
1.13345e-05
0.00794385
1.09828e-05
0.00794594
1.05427e-05
0.00794796
1.02052e-05
0.00795024
9.90101e-06
0.00795265
9.70848e-06
0.00795516
9.52392e-06
0.00795776
9.29913e-06
0.00796047
9.0036e-06
0.00796329
8.59715e-06
0.00796623
8.05044e-06
0.00796931
7.34083e-06
0.00797255
6.42506e-06
0.00797601
5.27825e-06
0.00797974
3.90617e-06
0.00798382
2.27208e-06
0.00798837
3.4153e-07
0.00799352
-1.90909e-06
0.00799942
-4.51979e-06
0.00800623
-7.55016e-06
0.00801414
-1.10784e-05
0.00802338
-1.52295e-05
0.00803419
-2.01739e-05
0.00804688
-2.61341e-05
0.00806185
-3.33897e-05
0.00807957
-4.22939e-05
0.00810063
-5.32851e-05
0.00812538
-6.68614e-05
0.0081537
-8.35447e-05
0.00818512
-0.000103943
0.00821997
-0.00012903
-0.000161121
0.00826184
0.00795136
-1.34513e-05
0.00794946
-1.59018e-05
0.00795208
-8.13378e-06
0.00795407
-1.11837e-06
0.00795509
3.68515e-06
0.00795566
7.08699e-06
0.00795594
9.33444e-06
0.00795605
1.058e-05
0.00795616
1.11212e-05
0.00795639
1.12371e-05
0.0079568
1.11177e-05
0.00795741
1.08852e-05
0.00795822
1.06155e-05
0.00795924
1.03482e-05
0.00796045
1.00948e-05
0.00796186
9.8509e-06
0.00796347
9.60457e-06
0.00796532
9.3552e-06
0.00796741
9.34268e-06
0.00796887
9.58191e-06
0.00796987
9.58796e-06
0.00797111
8.97758e-06
0.00797263
8.36308e-06
0.00797442
7.85717e-06
0.00797645
7.39675e-06
0.00797866
6.92043e-06
0.00798106
6.3858e-06
0.00798361
5.74772e-06
0.00798632
4.96576e-06
0.00798922
3.99974e-06
0.00799236
2.79374e-06
0.00799579
1.30635e-06
0.0079996
-4.80078e-07
0.00800387
-2.59722e-06
0.00800869
-5.0879e-06
0.00801415
-7.98795e-06
0.00802037
-1.13438e-05
0.00802746
-1.52324e-05
0.00803558
-1.97619e-05
0.0080449
-2.50828e-05
0.0080556
-3.13927e-05
0.00806785
-3.89218e-05
0.00808182
-4.79283e-05
0.00809777
-5.87358e-05
0.00811614
-7.17988e-05
0.0081375
-8.77517e-05
0.00816212
-0.000107375
0.00818926
-0.000131369
0.00821733
-0.000160022
-0.000193756
0.0082489
0.00795225
-7.34049e-06
0.00794497
-8.09036e-06
0.00794007
-2.71374e-06
0.00793699
2.4268e-06
0.00793525
5.85898e-06
0.00793483
7.91178e-06
0.00793552
9.01539e-06
0.00793703
9.41178e-06
0.00793914
9.33232e-06
0.00794169
8.99181e-06
0.00794454
8.54462e-06
0.00794759
8.08377e-06
0.00795078
7.6578e-06
0.00795406
7.28234e-06
0.00795738
6.94994e-06
0.00796075
6.63484e-06
0.0079642
6.28552e-06
0.00796789
5.76534e-06
0.00797216
5.15667e-06
0.00797564
6.15841e-06
0.00797847
6.78309e-06
0.00798134
6.11643e-06
0.0079843
5.3734e-06
0.0079873
4.80319e-06
0.0079903
4.29219e-06
0.00799329
3.76308e-06
0.00799629
3.16065e-06
0.00799931
2.43508e-06
0.00800238
1.53373e-06
0.00800555
4.00647e-07
0.00800888
-1.01887e-06
0.00801243
-2.77241e-06
0.00801627
-4.89659e-06
0.00802048
-7.41533e-06
0.00802514
-1.03631e-05
0.00803031
-1.3788e-05
0.0080361
-1.77534e-05
0.00804261
-2.23521e-05
0.00804997
-2.77099e-05
0.00805835
-3.40043e-05
0.0080679
-4.14661e-05
0.0080788
-5.03531e-05
0.00809118
-6.0942e-05
0.0081051
-7.35266e-05
0.00812062
-8.84343e-05
0.00813802
-0.000106108
0.00815772
-0.00012725
0.0081796
-0.000152775
0.00820168
-0.000183238
-0.000218323
0.00822503
0.00795671
-5.70023e-06
0.00795495
-5.81034e-06
0.00795445
-1.70856e-06
0.00795523
2.12792e-06
0.00795665
4.86929e-06
0.00795844
6.53277e-06
0.00796045
7.39043e-06
0.00796256
7.66541e-06
0.00796469
7.54546e-06
0.00796681
7.1988e-06
0.00796889
6.75523e-06
0.00797095
6.29716e-06
0.00797299
5.86688e-06
0.00797501
5.47765e-06
0.00797701
5.12525e-06
0.00797901
4.79467e-06
0.00798096
4.4688e-06
0.00798268
4.15055e-06
0.00798397
3.95185e-06
0.00798586
4.32244e-06
0.00798768
4.99386e-06
0.00798946
4.34687e-06
0.00799126
3.55426e-06
0.00799317
2.8244e-06
0.00799522
2.1302e-06
0.00799739
1.42004e-06
0.00799966
6.36147e-07
0.00800206
-2.79231e-07
0.0080046
-1.38476e-06
0.0080073
-2.74561e-06
0.0080102
-4.42189e-06
0.00801334
-6.46126e-06
0.00801676
-8.90193e-06
0.00802051
-1.17802e-05
0.00802467
-1.51377e-05
0.00802929
-1.90277e-05
0.00803446
-2.35254e-05
0.00804025
-2.87339e-05
0.00804676
-3.47883e-05
0.00805409
-4.18782e-05
0.00806235
-5.02362e-05
0.00807167
-6.01242e-05
0.00808222
-7.18541e-05
0.00809408
-8.57695e-05
0.00810717
-0.000102191
0.00812141
-0.000121418
0.00813697
-0.000143805
0.00815411
-0.000170055
0.0081713
-0.00020098
-0.000236486
0.00818858
0.00795756
-4.92012e-06
0.00795653
-4.27534e-06
0.00795554
-2.45895e-07
0.00795497
3.15104e-06
0.00795478
5.49986e-06
0.00795494
6.79553e-06
0.00795546
7.26679e-06
0.00795634
7.16801e-06
0.00795755
6.71197e-06
0.00795902
6.07024e-06
0.00796073
5.36958e-06
0.00796262
4.6899e-06
0.00796467
4.07004e-06
0.00796685
3.52029e-06
0.00796913
3.03467e-06
0.00797148
2.6005e-06
0.00797387
2.20487e-06
0.00797629
1.84214e-06
0.0079788
1.51973e-06
0.00798177
1.41761e-06
0.00798494
1.86882e-06
0.00798788
1.41965e-06
0.0079907
7.17158e-07
0.00799346
4.40642e-09
0.00799619
-7.0851e-07
0.00799888
-1.45627e-06
0.00800156
-2.29322e-06
0.00800424
-3.28175e-06
0.00800695
-4.48446e-06
0.00800972
-5.96714e-06
0.00801257
-7.794e-06
0.00801557
-1.00191e-05
0.00801875
-1.26837e-05
0.00802218
-1.58263e-05
0.00802591
-1.94885e-05
0.00803
-2.37278e-05
0.0080345
-2.86278e-05
0.00803949
-3.42982e-05
0.00804503
-4.08873e-05
0.00805118
-4.8597e-05
0.00805801
-5.76494e-05
0.00806556
-6.82814e-05
0.00807393
-8.07818e-05
0.00808324
-9.55001e-05
0.00809348
-0.000112805
0.00810446
-0.000133033
0.00811605
-0.000156379
0.00812854
-0.000183163
0.00814105
-0.000214065
-0.000249342
0.00815319
0.007958
-4.59029e-06
0.0079578
-3.59511e-06
0.00795769
3.47048e-07
0.00795797
3.31048e-06
0.00795873
5.18486e-06
0.0079599
6.05335e-06
0.00796143
6.16045e-06
0.00796323
5.77059e-06
0.00796524
5.09928e-06
0.00796737
4.3078e-06
0.00796957
3.50818e-06
0.0079718
2.76454e-06
0.00797403
2.10402e-06
0.00797625
1.52908e-06
0.00797845
1.03057e-06
0.00798061
5.96318e-07
0.00798273
2.20669e-07
0.00798477
-9.10924e-08
0.0079867
-3.29266e-07
0.00798859
-4.11583e-07
0.0079904
9.45949e-08
0.00799227
-4.38332e-07
0.00799418
-1.21785e-06
0.00799613
-2.01012e-06
0.0079981
-2.81173e-06
0.0080001
-3.6544e-06
0.00800213
-4.59077e-06
0.0080042
-5.68581e-06
0.00800632
-7.00961e-06
0.00800852
-8.63238e-06
0.00801081
-1.06186e-05
0.00801325
-1.30219e-05
0.00801585
-1.58846e-05
0.00801865
-1.92468e-05
0.00802171
-2.31519e-05
0.00802503
-2.76618e-05
0.00802868
-3.28631e-05
0.00803267
-3.88667e-05
0.00803705
-4.58313e-05
0.00804189
-5.39672e-05
0.00804719
-6.34984e-05
0.00805297
-7.46607e-05
0.00805923
-8.77102e-05
0.00806605
-0.000102944
0.00807343
-0.000120715
0.0080813
-0.00014138
0.00808937
-0.000165203
0.00809776
-0.000192314
0.00810609
-0.000223077
-0.000257849
0.00811386
0.00795807
-4.34073e-06
0.00795812
-3.17991e-06
0.00795827
6.74467e-07
0.00795867
3.36071e-06
0.00795938
4.91494e-06
0.00796039
5.49591e-06
0.00796162
5.36312e-06
0.00796305
4.77545e-06
0.00796461
3.94427e-06
0.00796628
3.02449e-06
0.00796802
2.1186e-06
0.00796982
1.28114e-06
0.00797165
5.36127e-07
0.00797353
-1.15756e-07
0.00797544
-6.84361e-07
0.00797738
-1.18061e-06
0.00797936
-1.61438e-06
0.00798138
-1.99376e-06
0.00798349
-2.34913e-06
0.00798574
-2.58527e-06
0.00798799
-2.1058e-06
0.00799023
-2.65252e-06
0.00799245
-3.46156e-06
0.00799464
-4.28414e-06
0.0079968
-5.11889e-06
0.00799892
-5.99747e-06
0.008001
-6.9742e-06
0.00800306
-8.11793e-06
0.0080051
-9.50257e-06
0.00800716
-1.11992e-05
0.00800925
-1.32712e-05
0.0080114
-1.5771e-05
0.00801364
-1.8741e-05
0.008016
-2.22203e-05
0.0080185
-2.6254e-05
0.00802116
-3.09077e-05
0.00802399
-3.62679e-05
0.00802701
-4.2447e-05
0.00803022
-4.96087e-05
0.00803367
-5.79567e-05
0.00803737
-6.77149e-05
0.00804132
-7.91353e-05
0.00804546
-9.24667e-05
0.00804981
-0.000107955
0.00805436
-0.000125915
0.0080591
-0.00014666
0.00806377
-0.000170512
0.00806833
-0.000197613
0.00807265
-0.000228118
-0.000262344
0.00807638
0.00795803
-4.05887e-06
0.00795817
-2.85225e-06
0.00795852
7.86191e-07
0.00795917