/*--------------------------------*- C++ -*----------------------------------*\
  =========                 |
  \\      /  F ield         | OpenFOAM: The Open Source CFD Toolbox
   \\    /   O peration     | Website:  https://openfoam.org
    \\  /    A nd           | Version:  8
     \\/     M anipulation  |
\*---------------------------------------------------------------------------*/
FoamFile
{
    version     2.0;
    format      ascii;
    class       volVectorField;
    location    "300";
    object      U;
}
// * * * * * * * * * * * * * * * * * * * * * * * * * * * * * * * * * * * * * //

dimensions      [0 1 -1 0 0 0 0];

internalField   nonuniform List<vector> 
8400
(
(-14.0032 0.0419072 5.39046e-17)
(-13.9253 0.0503715 5.38713e-17)
(-13.9937 0.0754372 5.41348e-17)
(-14.1307 0.0927664 5.46385e-17)
(-14.3115 0.0967337 5.54757e-17)
(-14.5009 0.0909126 5.6428e-17)
(-14.6742 0.0805177 5.7229e-17)
(-14.8133 0.0677811 5.79654e-17)
(-14.9018 0.0530396 5.85778e-17)
(-14.9245 0.0355291 5.84677e-17)
(-14.8687 0.0135868 5.86715e-17)
(-14.7247 -0.0120408 5.92545e-17)
(-14.5111 -0.0358445 5.91484e-17)
(-14.2524 -0.053198 5.87587e-17)
(-13.9638 -0.0646713 5.80661e-17)
(-13.6554 -0.0729626 5.65258e-17)
(-13.3364 -0.0785279 5.51286e-17)
(-13.0189 -0.0801173 5.39732e-17)
(-12.7129 -0.0789567 5.2001e-17)
(-12.4208 -0.0781774 4.96575e-17)
(-12.139 -0.0804035 4.69571e-17)
(-11.8611 -0.0868954 4.39164e-17)
(-11.5827 -0.0970258 4.05742e-17)
(-11.3046 -0.10888 3.69874e-17)
(-11.0301 -0.121443 3.32163e-17)
(-10.7632 -0.134907 2.93329e-17)
(-10.5088 -0.149283 2.59942e-17)
(-10.2733 -0.163771 2.21982e-17)
(-10.0631 -0.177124 1.79068e-17)
(-9.88291 -0.188226 1.43997e-17)
(-9.73223 -0.196688 1.12952e-17)
(-9.60293 -0.203666 8.6773e-18)
(-9.47252 -0.212367 6.63863e-18)
(-9.29558 -0.226951 5.13215e-18)
(-9.01619 -0.247429 4.23437e-18)
(-8.59908 -0.266015 4.25281e-18)
(-8.04966 -0.274262 5.1906e-18)
(-7.41052 -0.274254 6.7564e-18)
(-6.73899 -0.276506 8.21818e-18)
(-6.08579 -0.287055 8.40659e-18)
(-5.49022 -0.299047 5.35118e-18)
(-4.98393 -0.29727 -3.08794e-18)
(-4.58906 -0.270691 -2.13125e-17)
(-4.31421 -0.22115 -5.00055e-17)
(-4.15285 -0.16264 -8.378e-17)
(-4.08342 -0.113072 -1.16145e-16)
(-4.06818 -0.0898493 -1.41097e-16)
(-4.07043 -0.0892194 -1.57052e-16)
(-4.06551 -0.108632 -1.63724e-16)
(-4.04116 -0.137352 -1.64852e-16)
(-12.0211 -0.155231 9.22549e-17)
(-11.9447 -0.0117936 9.31426e-17)
(-11.8483 0.156018 9.22644e-17)
(-11.7319 0.248547 8.94486e-17)
(-11.5829 0.270388 8.67638e-17)
(-11.3389 0.241852 8.40846e-17)
(-10.9553 0.182946 8.03501e-17)
(-10.3946 0.103531 7.58216e-17)
(-9.7067 0.0125851 7.05329e-17)
(-9.02745 -0.0839692 6.4395e-17)
(-8.40539 -0.19097 5.91523e-17)
(-7.77112 -0.303119 5.47769e-17)
(-7.08733 -0.403372 4.9576e-17)
(-6.38535 -0.47884 4.44838e-17)
(-5.66481 -0.53365 3.94468e-17)
(-4.93331 -0.57437 3.41446e-17)
(-4.22341 -0.59855 2.9356e-17)
(-3.56415 -0.60023 2.48861e-17)
(-2.95704 -0.582716 2.01449e-17)
(-2.40358 -0.556546 1.54762e-17)
(-1.91489 -0.529264 1.08776e-17)
(-1.50993 -0.502212 6.43044e-18)
(-1.21341 -0.467798 2.28791e-18)
(-1.04901 -0.415216 -1.33314e-18)
(-1.03556 -0.341394 -4.27669e-18)
(-1.18227 -0.253271 -6.01922e-18)
(-1.47233 -0.163436 -6.37448e-18)
(-1.85248 -0.0852625 -6.01036e-18)
(-2.25051 -0.0295497 -5.58998e-18)
(-2.61388 -0.00463502 -4.92158e-18)
(-2.93698 -0.0142194 -4.15341e-18)
(-3.25157 -0.0546443 -3.09699e-18)
(-3.58325 -0.117239 -2.47512e-18)
(-3.90105 -0.197084 -2.41533e-18)
(-4.15127 -0.289669 -2.55539e-18)
(-4.30615 -0.363681 -1.99094e-18)
(-4.37477 -0.370155 1.57991e-18)
(-4.40651 -0.301763 9.70662e-18)
(-4.4427 -0.207846 2.45873e-17)
(-4.47338 -0.151401 4.59449e-17)
(-4.45141 -0.152806 7.35735e-17)
(-4.36347 -0.193374 1.05313e-16)
(-4.23296 -0.238007 1.34884e-16)
(-4.08717 -0.24717 1.58828e-16)
(-3.97927 -0.215629 1.77377e-16)
(-3.95327 -0.143947 1.89769e-16)
(-4.0052 -0.0692292 1.98016e-16)
(-4.0574 -0.0112512 2.02812e-16)
(-4.07532 0.00692622 2.08975e-16)
(-4.06286 -0.00606529 2.1854e-16)
(0.214696 0.580423 2.68067e-17)
(0.738715 0.741828 3.16109e-17)
(1.13514 0.543288 3.43739e-17)
(1.43789 0.366687 3.35004e-17)
(1.97604 0.161649 3.15259e-17)
(2.75239 -0.108723 2.88273e-17)
(3.68008 -0.41918 2.41315e-17)
(4.12344 -0.593999 2.19194e-17)
(4.39915 -0.693191 1.92164e-17)
(4.82702 -0.784104 1.69097e-17)
(5.15949 -0.905526 1.52417e-17)
(5.31682 -1.018 1.30228e-17)
(5.37853 -1.10076 1.06441e-17)
(5.50176 -1.15815 7.84865e-18)
(5.68961 -1.19243 4.65902e-18)
(5.89029 -1.19874 3.15481e-18)
(6.05992 -1.17252 2.81794e-18)
(6.2033 -1.11834 1.90558e-18)
(6.33717 -1.04523 8.95673e-19)
(6.4547 -0.961104 -2.45996e-19)
(6.54215 -0.87172 -1.47956e-18)
(6.58508 -0.779343 -2.84724e-18)
(6.57497 -0.68269 -4.60224e-18)
(6.52037 -0.580565 -6.99811e-18)
(6.43434 -0.474037 -1.02369e-17)
(6.32428 -0.364884 -1.3923e-17)
(6.19256 -0.255837 -1.90751e-17)
(6.03775 -0.148806 -2.46858e-17)
(5.85416 -0.0425633 -2.91442e-17)
(5.67159 0.0683717 -3.23689e-17)
(5.46384 0.184556 -3.20572e-17)
(5.1794 0.288675 -2.72888e-17)
(4.75128 0.349737 -1.68004e-17)
(4.12334 0.337418 -8.21579e-18)
(3.41242 0.228648 -3.86353e-18)
(2.71251 0.0646754 -4.44949e-18)
(2.13241 -0.0569521 -7.30365e-18)
(1.66456 -0.0462802 -8.99203e-18)
(1.2097 0.112683 -8.50469e-18)
(0.64016 0.368391 -6.07832e-18)
(-0.0741057 0.653569 -2.98e-18)
(-0.638614 0.931043 -6.9201e-19)
(-1.14919 1.16458 4.1055e-19)
(-1.80228 1.29589 1.73534e-18)
(-2.81359 0.601654 8.39895e-17)
(-2.98682 0.257398 1.50915e-16)
(-3.44179 0.020144 2.14558e-16)
(-3.70428 -0.140348 2.61544e-16)
(-3.87797 -0.238972 2.879e-16)
(-3.92529 -0.26895 2.96761e-16)
(11.8007 -2.00037 -3.39843e-18)
(11.561 -1.36785 -3.39146e-18)
(11.4035 -1.09194 -4.29488e-18)
(11.3584 -1.02946 -4.63489e-18)
(11.3814 -1.08304 -4.22591e-18)
(11.462 -1.19588 -3.81822e-18)
(11.5937 -1.32842 -2.98987e-18)
(11.7663 -1.45355 -1.83514e-18)
(11.9712 -1.56355 -1.50936e-18)
(12.1898 -1.66259 -7.34185e-19)
(12.3932 -1.74906 7.11802e-19)
(12.5604 -1.81563 9.59476e-19)
(12.6905 -1.85169 9.16524e-19)
(12.7897 -1.8525 7.01747e-19)
(12.8605 -1.81808 5.58031e-20)
(12.9027 -1.74847 3.65687e-19)
(12.9176 -1.64435 1.10872e-18)
(12.9107 -1.51206 9.14797e-19)
(12.884 -1.36115 5.30755e-20)
(12.8325 -1.19891 -1.16995e-18)
(12.7485 -1.02932 -2.52607e-18)
(12.6245 -0.852571 -4.24049e-18)
(12.4572 -0.667363 -6.27574e-18)
(12.2474 -0.475074 -8.80233e-18)
(11.9962 -0.281162 -1.18308e-17)
(11.7013 -0.0935984 -1.49975e-17)
(11.4069 0.080348 -1.88921e-17)
(11.1187 0.234205 -2.32021e-17)
(10.8326 0.359155 -2.74844e-17)
(10.5247 0.443593 -3.1823e-17)
(10.2023 0.478271 -3.57378e-17)
(9.88759 0.4513 -3.81469e-17)
(9.59993 0.348553 -4.10196e-17)
(9.35254 0.172181 -4.21689e-17)
(9.11782 -0.0290848 -4.22589e-17)
(8.8507 -0.172445 -4.13569e-17)
(8.52842 -0.196491 -4.00347e-17)
(8.121 -0.0831501 -3.84308e-17)
(7.64965 0.147757 -3.71596e-17)
(7.19917 0.458485 -3.62785e-17)
(6.71837 0.793579 -3.52218e-17)
(6.12867 1.10594 -3.30093e-17)
(5.47327 1.36993 -3.01457e-17)
(4.73141 1.57262 -2.68347e-17)
(3.82843 1.61313 -2.51328e-17)
(2.9512 1.55307 -1.53446e-17)
(2.05335 1.41629 -7.4303e-18)
(1.04127 1.17939 1.89133e-17)
(-0.0545091 0.859172 3.65634e-17)
(-2.06555 0.183106 1.19308e-16)
(26.2866 0.875156 4.65729e-19)
(25.8142 0.91948 4.784e-19)
(25.4488 0.861221 2.95584e-19)
(25.1884 0.71872 1.67463e-19)
(24.9486 0.530508 2.69983e-19)
(24.6799 0.31937 3.12156e-19)
(24.3769 0.101251 3.39413e-19)
(24.0401 -0.113609 3.60542e-19)
(23.6728 -0.321483 -2.01025e-19)
(23.2762 -0.520182 -2.12414e-19)
(22.8535 -0.702316 3.66061e-19)
(22.4154 -0.856373 3.12677e-19)
(21.9769 -0.97363 3.24436e-19)
(21.55 -1.05045 3.99065e-19)
(21.1431 -1.08657 1.00687e-19)
(20.7632 -1.08366 4.32555e-19)
(20.4163 -1.0444 9.32174e-19)
(20.1066 -0.9738 8.29283e-19)
(19.8358 -0.878919 8.38768e-19)
(19.6033 -0.765868 6.41231e-19)
(19.4083 -0.638752 4.86822e-19)
(19.2509 -0.499575 2.93249e-19)
(19.1328 -0.349478 1.56979e-19)
(19.0558 -0.19098 1.15503e-19)
(19.0196 -0.0287981 9.93171e-20)
(19.021 0.130514 4.77206e-19)
(19.0153 0.27829 3.20874e-19)
(18.9899 0.408055 -4.11028e-19)
(18.9464 0.511799 -8.86237e-19)
(18.8836 0.58108 -1.36113e-18)
(18.7987 0.609511 -1.86408e-18)
(18.682 0.595464 -1.63245e-18)
(18.518 0.544736 -2.13785e-18)
(18.2744 0.474197 -2.31495e-18)
(17.9022 0.416936 -2.78132e-18)
(17.418 0.417743 -3.16697e-18)
(16.8422 0.507102 -3.78427e-18)
(16.1903 0.689754 -4.70383e-18)
(15.4407 0.944149 -5.73558e-18)
(14.5572 1.23652 -7.50015e-18)
(13.58 1.53941 -9.15458e-18)
(12.5309 1.82575 -1.15372e-17)
(11.4341 2.07486 -1.43753e-17)
(10.3062 2.27093 -1.60531e-17)
(9.157 2.39954 -1.73746e-17)
(7.99273 2.45621 -1.59263e-17)
(6.8454 2.43661 -1.51683e-17)
(5.69413 2.34084 -1.249e-17)
(4.53013 2.17357 -6.92263e-18)
(3.16983 1.86263 1.13256e-17)
(18.0677 0.129492 1.25747e-19)
(17.7373 -0.0810107 1.34999e-19)
(17.4081 -0.242098 -2.43562e-19)
(17.1742 -0.425597 -2.27428e-19)
(16.9956 -0.626542 1.63403e-19)
(16.8477 -0.825598 1.62754e-19)
(16.7086 -1.01211 1.92982e-19)
(16.5731 -1.17995 2.28148e-19)
(16.4399 -1.32263 -1.47055e-19)
(16.3095 -1.43378 -1.36404e-19)
(16.1826 -1.50648 2.77876e-19)
(16.0593 -1.53553 2.84151e-19)
(15.9392 -1.52234 3.32307e-19)
(15.8219 -1.47324 3.72449e-19)
(15.7079 -1.39536 4.83678e-22)
(15.5979 -1.2951 8.60708e-21)
(15.4929 -1.17781 4.06253e-19)
(15.3936 -1.04831 3.83845e-19)
(15.3001 -0.910991 3.61799e-19)
(15.2123 -0.769052 3.11965e-19)
(15.1306 -0.624425 1.32598e-19)
(15.0563 -0.47788 -2.09794e-19)
(14.9923 -0.329606 -3.41298e-19)
(14.9416 -0.180464 -4.06357e-19)
(14.9071 -0.03231 -4.55835e-19)
(14.8903 0.112658 -8.14041e-21)
(14.8971 0.250939 -5.00833e-20)
(14.9281 0.378982 -5.67068e-19)
(14.9741 0.49242 -7.35598e-19)
(15.0203 0.586542 -1.05728e-18)
(15.0497 0.659416 -1.30335e-18)
(15.044 0.714625 -9.24534e-19)
(14.9865 0.764889 -1.02032e-18)
(14.8678 0.832281 -1.35192e-18)
(14.6887 0.940633 -1.55398e-18)
(14.4588 1.10342 -1.85201e-18)
(14.185 1.31812 -2.16457e-18)
(13.8667 1.57227 -2.08984e-18)
(13.5008 1.85088 -2.65317e-18)
(13.0842 2.13967 -3.91229e-18)
(12.6165 2.42526 -4.33546e-18)
(12.0962 2.69456 -5.50424e-18)
(11.5208 2.93376 -7.61477e-18)
(10.8867 3.13086 -8.84242e-18)
(10.1908 3.27548 -1.06798e-17)
(9.43403 3.36242 -1.21496e-17)
(8.62528 3.38621 -1.32104e-17)
(7.76706 3.34477 -1.45728e-17)
(6.85711 3.23703 -1.49667e-17)
(5.89038 3.05319 -1.22956e-17)
(16.6986 1.07175 1.028e-18)
(16.2574 0.870995 1.06363e-18)
(15.829 0.691634 6.22603e-19)
(15.5024 0.51632 4.9262e-19)
(15.2429 0.336027 9.03961e-19)
(15.0123 0.151134 9.15682e-19)
(14.7967 -0.0338335 9.67701e-19)
(14.579 -0.209851 1.03787e-18)
(14.3625 -0.367758 9.04158e-19)
(14.1514 -0.499623 7.52595e-19)
(13.9483 -0.600836 8.52023e-19)
(13.7538 -0.670241 9.54981e-19)
(13.5686 -0.708688 1.11204e-18)
(13.3939 -0.718099 1.27473e-18)
(13.2312 -0.701517 8.44378e-19)
(13.082 -0.662576 7.97331e-19)
(12.9475 -0.60446 1.22272e-18)
(12.8282 -0.529622 1.16607e-18)
(12.7233 -0.440332 1.1327e-18)
(12.6307 -0.33932 1.11264e-18)
(12.5487 -0.229837 1.07054e-18)
(12.4765 -0.11512 8.77089e-19)
(12.4145 0.00228868 5.9509e-19)
(12.3635 0.120349 1.00586e-19)
(12.3235 0.236685 6.58797e-20)
(12.2941 0.34911 5.77558e-19)
(12.2717 0.45248 5.45162e-19)
(12.2605 0.546732 1.31593e-19)
(12.2588 0.633644 2.14079e-20)
(12.2632 0.716511 -3.80567e-19)
(12.2679 0.798555 -8.2591e-19)
(12.2648 0.883709 -6.59448e-19)
(12.2444 0.977726 -8.985e-19)
(12.1978 1.08885 -1.54625e-18)
(12.1182 1.2257 -1.65975e-18)
(12.0042 1.39179 -1.85258e-18)
(11.8583 1.5857 -2.10092e-18)
(11.6834 1.80838 -2.41357e-18)
(11.4819 2.06318 -2.7913e-18)
(11.2573 2.34957 -3.26534e-18)
(11.0115 2.65926 -3.34937e-18)
(10.7425 2.97671 -4.16654e-18)
(10.4445 3.28222 -5.53862e-18)
(10.1086 3.55676 -6.46575e-18)
(9.72553 3.78489 -7.73881e-18)
(9.28786 3.95593 -8.69627e-18)
(8.79225 4.06206 -1.02834e-17)
(8.23646 4.09837 -1.27272e-17)
(7.61652 4.06151 -1.48195e-17)
(6.93794 3.94885 -1.63922e-17)
(13.7229 1.26389 3.16862e-18)
(13.3226 0.994816 3.14682e-18)
(12.9373 0.746928 2.64868e-18)
(12.6395 0.514969 2.51379e-18)
(12.3961 0.284249 2.8859e-18)
(12.1671 0.0538029 2.87703e-18)
(11.9462 -0.168681 2.94294e-18)
(11.7486 -0.3721 3.0054e-18)
(11.5531 -0.547066 2.37763e-18)
(11.3614 -0.690047 2.26451e-18)
(11.1767 -0.798931 2.78961e-18)
(11.0005 -0.87369 2.76008e-18)
(10.834 -0.915264 2.80527e-18)
(10.678 -0.925442 2.89376e-18)
(10.5332 -0.907874 2.23534e-18)
(10.4003 -0.867443 2.07829e-18)
(10.2818 -0.808094 2.59867e-18)
(10.1797 -0.731922 2.4377e-18)
(10.0939 -0.640397 2.3907e-18)
(10.0214 -0.536465 2.30117e-18)
(9.95869 -0.424865 2.19199e-18)
(9.90423 -0.310202 2.084e-18)
(9.85869 -0.195298 1.78793e-18)
(9.82244 -0.08143 1.48613e-18)
(9.79478 0.0301953 2.93728e-19)
(9.76673 0.138166 -2.48878e-19)
(9.7455 0.240851 -4.66215e-19)
(9.72826 0.337383 -8.06672e-19)
(9.71315 0.430314 -1.0687e-18)
(9.70033 0.524421 -1.52321e-18)
(9.68927 0.624031 -2.24131e-18)
(9.67804 0.732886 -2.52927e-18)
(9.66283 0.854163 -3.02472e-18)
(9.63889 0.990778 -3.71129e-18)
(9.60125 1.14683 -3.98947e-18)
(9.54664 1.32814 -4.39529e-18)
(9.47721 1.53961 -4.87038e-18)
(9.39811 1.78539 -5.41577e-18)
(9.31169 2.06941 -5.89493e-18)
(9.21755 2.39103 -6.43338e-18)
(9.11475 2.74107 -6.83015e-18)
(9.00108 3.10324 -7.39969e-18)
(8.87171 3.45825 -8.54363e-18)
(8.71981 3.78699 -9.66115e-18)
(8.53733 4.07333 -1.04047e-17)
(8.31614 4.30512 -1.08289e-17)
(8.0492 4.4731 -1.15559e-17)
(7.73034 4.57055 -1.34297e-17)
(7.35313 4.59293 -1.56446e-17)
(6.92144 4.53882 -1.80138e-17)
(10.9075 1.73975 3.56758e-18)
(10.4587 1.40938 3.59887e-18)
(10.0782 1.11287 3.10554e-18)
(9.79195 0.850562 3.15357e-18)
(9.55558 0.603379 3.65431e-18)
(9.33251 0.367984 3.56489e-18)
(9.1137 0.149765 3.57208e-18)
(8.90303 -0.0445061 3.57697e-18)
(8.72483 -0.211183 3.17579e-18)
(8.54884 -0.345598 3.06619e-18)
(8.37668 -0.447442 3.37944e-18)
(8.21212 -0.517219 3.3697e-18)
(8.05687 -0.556783 3.47197e-18)
(7.91159 -0.568391 3.59383e-18)
(7.77434 -0.556696 3.06188e-18)
(7.64373 -0.528521 2.82648e-18)
(7.52477 -0.487572 3.10964e-18)
(7.42542 -0.43206 3.02915e-18)
(7.34899 -0.357997 3.0156e-18)
(7.29054 -0.266275 3.06609e-18)
(7.24146 -0.164617 3.03245e-18)
(7.19835 -0.0611299 2.8957e-18)
(7.16388 0.0409973 2.7629e-18)
(7.14057 0.142829 3.05563e-18)
(7.1276 0.246527 2.65342e-18)
(7.11012 0.347081 2.64601e-18)
(7.09533 0.440588 7.54711e-19)
(7.07904 0.526592 -1.67099e-19)
(7.06191 0.607501 -7.23473e-19)
(7.04463 0.688075 -1.61896e-18)
(7.02847 0.77344 -2.63325e-18)
(7.01469 0.868097 -3.093e-18)
(7.00386 0.975775 -4.16763e-18)
(6.99598 1.10001 -5.59419e-18)
(6.99077 1.24502 -6.53632e-18)
(6.98724 1.41782 -7.38782e-18)
(6.98556 1.62674 -8.30969e-18)
(6.98878 1.87549 -8.73672e-18)
(6.99799 2.16314 -9.77578e-18)
(7.00941 2.48575 -1.12335e-17)
(7.01778 2.8353 -1.19367e-17)
(7.01938 3.1984 -1.23085e-17)
(7.01115 3.55852 -1.36692e-17)
(6.989 3.89908 -1.4272e-17)
(6.94758 4.20472 -1.50479e-17)
(6.88041 4.46272 -1.54763e-17)
(6.78037 4.66296 -1.57483e-17)
(6.64092 4.79829 -1.71438e-17)
(6.45588 4.86433 -1.84212e-17)
(6.22597 4.85931 -2.10758e-17)
(7.80309 2.0657 3.6614e-18)
(7.33757 1.66596 3.69508e-18)
(7.00545 1.32618 3.2223e-18)
(6.76606 1.03647 3.20325e-18)
(6.56039 0.769998 3.67573e-18)
(6.35667 0.521647 3.6555e-18)
(6.1507 0.294044 3.74003e-18)
(5.94379 0.0904503 3.844e-18)
(5.73949 -0.0858283 3.24003e-18)
(5.57377 -0.232272 3.05389e-18)
(5.40095 -0.346565 3.57692e-18)
(5.23256 -0.43265 3.54846e-18)
(5.07563 -0.491871 3.61668e-18)
(4.93449 -0.522619 3.74363e-18)
(4.80139 -0.528151 2.98302e-18)
(4.65629 -0.520462 2.65289e-18)
(4.5087 -0.505193 3.05896e-18)
(4.38191 -0.476192 2.88641e-18)
(4.29152 -0.422262 2.82742e-18)
(4.23578 -0.341059 3.00778e-18)
(4.1954 -0.246359 3.37934e-18)
(4.16072 -0.154596 3.65199e-18)
(4.14216 -0.0705159 3.84161e-18)
(4.1497 0.0108985 3.83057e-18)
(4.18155 0.0973531 4.34907e-18)
(4.21616 0.194336 5.32864e-18)
(4.23774 0.295446 5.75094e-18)
(4.25224 0.394093 5.57225e-18)
(4.25812 0.489601 6.01479e-18)
(4.25626 0.584208 5.70385e-18)
(4.24902 0.682452 4.60942e-18)
(4.24101 0.788461 3.96938e-18)
(4.23846 0.905126 2.60516e-18)
(4.24834 1.03505 4.89299e-19)
(4.27731 1.18181 -1.53295e-18)
(4.32934 1.35156 -3.56533e-18)
(4.40334 1.55502 -5.4196e-18)
(4.49516 1.80091 -6.96962e-18)
(4.59947 2.08866 -8.57714e-18)
(4.70937 2.41018 -1.05074e-17)
(4.81772 2.75686 -1.15682e-17)
(4.91948 3.11879 -1.30965e-17)
(5.01236 3.48159 -1.51493e-17)
(5.09437 3.83102 -1.62758e-17)
(5.16232 4.15229 -1.73293e-17)
(5.21208 4.43212 -1.77129e-17)
(5.23906 4.66036 -1.78545e-17)
(5.23893 4.83047 -1.89832e-17)
(5.20637 4.93802 -2.06254e-17)
(5.13833 4.98 -2.33166e-17)
(4.56485 2.40943 3.71647e-18)
(4.01882 1.91199 3.76999e-18)
(3.75077 1.53842 3.35844e-18)
(3.56886 1.23241 3.39427e-18)
(3.39063 0.957745 3.74129e-18)
(3.19195 0.709449 3.62023e-18)
(2.97432 0.487164 3.64935e-18)
(2.73991 0.288978 3.78629e-18)
(2.48426 0.115674 3.56774e-18)
(2.20549 -0.0215344 3.16923e-18)
(1.98763 -0.124326 3.12056e-18)
(1.78752 -0.20141 3.08577e-18)
(1.62551 -0.255148 3.10608e-18)
(1.47411 -0.267337 3.32646e-18)
(1.30909 -0.237396 2.6185e-18)
(1.10832 -0.192323 1.82728e-18)
(0.89573 -0.147277 1.75748e-18)
(0.60819 -0.102978 1.41783e-18)
(0.262345 -0.041565 1.39359e-18)
(-0.0503042 0.0739077 1.30251e-18)
(-0.292206 0.232442 1.90525e-18)
(-0.524383 0.360672 3.79866e-18)
(-0.675661 0.439327 4.57271e-18)
(-0.716604 0.508223 4.52108e-18)
(-0.728677 0.576318 5.53122e-18)
(-0.406694 0.628484 6.38271e-18)
(0.0395046 0.675203 1.2228e-17)
(0.444729 0.717111 1.49493e-17)
(0.753381 0.758563 1.7607e-17)
(0.969291 0.803555 1.93626e-17)
(1.11995 0.85997 2.21348e-17)
(1.23168 0.93062 2.29165e-17)
(1.3284 1.01513 2.0748e-17)
(1.43159 1.11289 1.65723e-17)
(1.55763 1.22534 1.18243e-17)
(1.71677 1.35589 7.16517e-18)
(1.90745 1.51451 2.79687e-18)
(2.1139 1.71691 -8.26376e-19)
(2.31597 1.96814 -4.6387e-18)
(2.50696 2.25876 -8.41601e-18)
(2.69035 2.57934 -1.02402e-17)
(2.86545 2.92205 -1.26939e-17)
(3.03331 3.27509 -1.55646e-17)
(3.19413 3.62448 -1.73656e-17)
(3.3442 3.95567 -1.93955e-17)
(3.48184 4.25487 -2.07573e-17)
(3.60546 4.51127 -2.11037e-17)
(3.71261 4.71677 -2.2138e-17)
(3.7984 4.86469 -2.37288e-17)
(3.85579 4.95044 -2.65169e-17)
(0.723368 2.98285 3.71092e-18)
(0.188238 1.9682 3.96683e-18)
(0.127486 1.58147 3.4501e-18)
(0.00311401 1.28818 3.83501e-18)
(-0.256044 1.02298 3.95316e-18)
(-0.661162 0.790133 3.365e-18)
(-1.40961 0.559601 3.71538e-18)
(-2.3011 0.406624 3.90906e-18)
(-3.28228 0.301148 3.33575e-18)
(-4.10287 0.23263 1.90579e-18)
(-4.45693 0.192601 1.80619e-18)
(-4.56485 0.148144 2.38954e-18)
(-4.59772 0.100897 2.96396e-18)
(-4.57474 0.0587008 3.76742e-18)
(-4.49623 0.0298661 4.97921e-18)
(-4.48575 0.00167438 6.61908e-18)
(-4.46649 -0.0322711 9.05401e-18)
(-4.39082 -0.0716579 1.18238e-17)
(-4.304 -0.106055 1.4402e-17)
(-4.21205 -0.120761 1.69537e-17)
(-4.09045 -0.111075 1.93526e-17)
(-3.93859 -0.0896634 2.15634e-17)
(-3.75376 -0.0636786 2.35441e-17)
(-3.52926 -0.0264221 2.51096e-17)
(-3.2855 0.031567 2.63609e-17)
(-3.03575 0.111849 2.76657e-17)
(-2.78963 0.208277 2.90647e-17)
(-2.57174 0.306472 3.01693e-17)
(-2.36649 0.401525 3.0785e-17)
(-2.14762 0.497945 3.00888e-17)
(-1.92175 0.596981 2.89401e-17)
(-1.69014 0.699591 2.6989e-17)
(-1.4491 0.806479 2.38177e-17)
(-1.19711 0.918672 1.91296e-17)
(-0.935124 1.03912 1.32111e-17)
(-0.665158 1.17246 8.13652e-18)
(-0.389373 1.32729 3.75744e-18)
(-0.114004 1.5185 -8.55865e-19)
(0.150042 1.75727 -5.01381e-18)
(0.401504 2.04107 -8.8406e-18)
(0.649191 2.35791 -1.13013e-17)
(0.902312 2.70913 -1.41177e-17)
(1.13959 3.05588 -1.68555e-17)
(1.37254 3.3976 -1.88506e-17)
(1.58935 3.72065 -2.08654e-17)
(1.79694 4.02087 -2.19481e-17)
(1.99578 4.28863 -2.22513e-17)
(2.18478 4.51473 -2.31769e-17)
(2.36045 4.69021 -2.51957e-17)
(2.51165 4.80817 -2.80462e-17)
(-2.98919 2.41518 3.66242e-18)
(-3.05212 1.87173 3.69741e-18)
(-3.05264 1.58125 3.50174e-18)
(-3.22045 1.34376 3.17887e-18)
(-3.46919 1.15398 2.91106e-18)
(-3.74882 1.00908 3.07955e-18)
(-4.06125 0.897935 3.13566e-18)
(-4.35566 0.817364 2.97689e-18)
(-4.58676 0.747441 2.63225e-18)
(-4.73874 0.674717 1.79466e-18)
(-4.79549 0.592755 1.83881e-18)
(-4.81475 0.497768 2.72479e-18)
(-4.81812 0.392965 3.42999e-18)
(-4.84918 0.281084 4.46066e-18)
(-4.90182 0.18002 5.73705e-18)
(-4.96082 0.0938297 6.88839e-18)
(-5.00951 0.00550149 8.38923e-18)
(-5.06089 -0.0911266 1.00409e-17)
(-5.13261 -0.185242 1.13116e-17)
(-5.21946 -0.256946 1.24149e-17)
(-5.29614 -0.289577 1.31615e-17)
(-5.3407 -0.295325 1.37194e-17)
(-5.35096 -0.297935 1.39778e-17)
(-5.33838 -0.300456 1.39631e-17)
(-5.30963 -0.291822 1.37841e-17)
(-5.26205 -0.261116 1.3503e-17)
(-5.18542 -0.202824 1.32161e-17)
(-5.06526 -0.121792 1.28665e-17)
(-4.9092 -0.0301457 1.20813e-17)
(-4.7338 0.064015 1.1083e-17)
(-4.53079 0.162328 1.00612e-17)
(-4.29996 0.268004 8.71707e-18)
(-4.0405 0.383791 7.22274e-18)
(-3.75297 0.512472 5.26238e-18)
(-3.44062 0.657237 2.69652e-18)
(-3.1093 0.821688 5.39825e-19)
(-2.76517 1.00974 -1.75512e-18)
(-2.4153 1.2267 -4.68596e-18)
(-2.06918 1.47814 -7.06101e-18)
(-1.73359 1.76446 -1.00269e-17)
(-1.40991 2.07669 -1.33691e-17)
(-1.09332 2.41049 -1.49499e-17)
(-0.788819 2.75094 -1.7408e-17)
(-0.485021 3.09245 -1.96699e-17)
(-0.188182 3.42307 -2.12165e-17)
(0.108999 3.73735 -2.13379e-17)
(0.402683 4.02366 -2.22959e-17)
(0.693162 4.27473 -2.31605e-17)
(0.951939 4.46273 -2.53598e-17)
(1.18 4.59563 -2.90864e-17)
(-5.85245 2.10524 2.34385e-18)
(-5.57121 1.90848 2.19109e-18)
(-5.4602 1.71857 2.01046e-18)
(-5.44138 1.55877 1.25119e-18)
(-5.46036 1.42954 9.32279e-19)
(-5.48889 1.32495 1.19722e-18)
(-5.50962 1.23477 1.02716e-18)
(-5.51947 1.14746 7.29501e-19)
(-5.51709 1.05208 3.71506e-19)
(-5.50923 0.938467 -4.34754e-19)
(-5.50934 0.804992 -7.68486e-19)
(-5.53515 0.658657 -4.93334e-19)
(-5.59122 0.508572 -5.63692e-19)
(-5.67805 0.364653 -6.44351e-19)
(-5.78286 0.239414 -7.65632e-19)
(-5.89015 0.133968 -1.41955e-18)
(-5.99553 0.0389755 -2.25835e-18)
(-6.10049 -0.0480073 -2.25246e-18)
(-6.20332 -0.122852 -2.54153e-18)
(-6.3065 -0.180102 -2.90655e-18)
(-6.40276 -0.217889 -3.32905e-18)
(-6.48428 -0.242832 -3.79465e-18)
(-6.54805 -0.263666 -4.38229e-18)
(-6.59735 -0.282279 -5.06026e-18)
(-6.63423 -0.294761 -5.75032e-18)
(-6.65688 -0.295422 -6.4114e-18)
(-6.65978 -0.279742 -6.46942e-18)
(-6.63573 -0.246902 -6.64818e-18)
(-6.57923 -0.199208 -7.21788e-18)
(-6.4904 -0.139827 -7.29432e-18)
(-6.37479 -0.0699858 -7.26595e-18)
(-6.22929 0.0124409 -7.28772e-18)
(-6.05245 0.110323 -6.8482e-18)
(-5.84283 0.226442 -6.94052e-18)
(-5.60002 0.363364 -7.84293e-18)
(-5.32532 0.523981 -8.53286e-18)
(-5.02121 0.711516 -9.45942e-18)
(-4.69077 0.92869 -1.06262e-17)
(-4.33801 1.17707 -1.19998e-17)
(-3.96822 1.45623 -1.3512e-17)
(-3.58726 1.76171 -1.53985e-17)
(-3.20007 2.08586 -1.65396e-17)
(-2.81015 2.41935 -1.81757e-17)
(-2.41779 2.75496 -1.97478e-17)
(-2.02686 3.08338 -2.01843e-17)
(-1.63648 3.39694 -1.97861e-17)
(-1.25269 3.68452 -1.99063e-17)
(-0.877046 3.93908 -2.11813e-17)
(-0.524434 4.14261 -2.52419e-17)
(-0.193734 4.29221 -3.0516e-17)
(-7.95555 1.87013 -2.17086e-20)
(-7.56374 1.80998 -2.82079e-19)
(-7.35024 1.6955 -6.06122e-19)
(-7.1831 1.57528 -1.35169e-18)
(-7.05264 1.45889 -1.80021e-18)
(-6.94471 1.34896 -1.80583e-18)
(-6.851 1.24314 -2.14486e-18)
(-6.76924 1.137 -2.50703e-18)
(-6.70224 1.02541 -2.9546e-18)
(-6.6564 0.904934 -3.38165e-18)
(-6.63912 0.777191 -3.62464e-18)
(-6.65474 0.648021 -3.73922e-18)
(-6.70186 0.524645 -3.88148e-18)
(-6.77365 0.413472 -4.12091e-18)
(-6.86057 0.318094 -4.45416e-18)
(-6.95525 0.236572 -5.09661e-18)
(-7.05503 0.164485 -5.40451e-18)
(-7.15895 0.0997437 -5.0599e-18)
(-7.26454 0.0431827 -4.93614e-18)
(-7.36705 -0.00361174 -5.19135e-18)
(-7.46101 -0.0408985 -5.44722e-18)
(-7.54426 -0.0718169 -5.7385e-18)
(-7.61855 -0.0995844 -6.08138e-18)
(-7.68454 -0.125381 -6.57912e-18)
(-7.74278 -0.147694 -7.08403e-18)
(-7.79229 -0.163618 -7.55626e-18)
(-7.82978 -0.170374 -7.59666e-18)
(-7.85096 -0.166413 -8.10903e-18)
(-7.85239 -0.151606 -9.20717e-18)
(-7.83139 -0.126397 -9.81957e-18)
(-7.78689 -0.0904262 -1.03018e-17)
(-7.71946 -0.0421746 -1.07777e-17)
(-7.62633 0.0206439 -1.07753e-17)
(-7.50485 0.100823 -1.12005e-17)
(-7.3523 0.201509 -1.21257e-17)
(-7.1662 0.326292 -1.27249e-17)
(-6.94448 0.479076 -1.33212e-17)
(-6.68556 0.663218 -1.39552e-17)
(-6.38862 0.880364 -1.45283e-17)
(-6.05435 1.12949 -1.51191e-17)
(-5.68526 1.407 -1.59085e-17)
(-5.28508 1.70688 -1.65722e-17)
(-4.85829 2.02119 -1.70606e-17)
(-4.41001 2.34205 -1.7724e-17)
(-3.94593 2.66095 -1.70473e-17)
(-3.47095 2.96943 -1.66138e-17)
(-2.99309 3.25706 -1.71464e-17)
(-2.5231 3.51183 -1.96697e-17)
(-2.0683 3.72203 -2.43422e-17)
(-1.62155 3.87918 -2.90202e-17)
(-9.85646 1.56073 -1.78894e-18)
(-9.43198 1.54466 -2.00163e-18)
(-9.15714 1.48022 -2.27461e-18)
(-8.91174 1.39579 -2.91122e-18)
(-8.70228 1.30384 -3.09704e-18)
(-8.52222 1.2106 -2.98493e-18)
(-8.36765 1.11783 -3.19572e-18)
(-8.23673 1.0248 -3.38121e-18)
(-8.13013 0.930024 -3.60692e-18)
(-8.04999 0.832801 -4.09277e-18)
(-7.99823 0.734387 -4.14461e-18)
(-7.97511 0.637578 -3.85932e-18)
(-7.97827 0.545628 -3.75763e-18)
(-8.00316 0.461211 -3.64375e-18)
(-8.04459 0.38556 -3.81905e-18)
(-8.09849 0.31791 -4.40401e-18)
(-8.16241 0.256666 -4.16355e-18)
(-8.23462 0.201014 -3.54558e-18)
(-8.31292 0.151275 -3.33225e-18)
(-8.39425 0.108082 -3.1919e-18)
(-8.47526 0.0712086 -3.06029e-18)
(-8.55337 0.0390826 -2.96197e-18)
(-8.62728 0.00975874 -2.94264e-18)
(-8.69648 -0.0177193 -2.95639e-18)
(-8.76044 -0.0429051 -3.0003e-18)
(-8.81813 -0.0644703 -3.03813e-18)
(-8.86843 -0.0809126 -2.63136e-18)
(-8.90975 -0.0911882 -2.66455e-18)
(-8.93983 -0.0948786 -3.40783e-18)
(-8.95671 -0.0916789 -3.8398e-18)
(-8.95842 -0.0807692 -4.15058e-18)
(-8.94274 -0.0605778 -4.45228e-18)
(-8.90764 -0.0287414 -4.595e-18)
(-8.85001 0.0178065 -5.13663e-18)
(-8.76629 0.0826417 -6.115e-18)
(-8.65267 0.169675 -6.84586e-18)
(-8.50522 0.28282 -7.61105e-18)
(-8.31994 0.425392 -8.39643e-18)
(-8.09304 0.599377 -9.0972e-18)
(-7.82144 0.804648 -9.81199e-18)
(-7.50342 1.03885 -1.06092e-17)
(-7.13894 1.2976 -1.0994e-17)
(-6.72977 1.57474 -1.14649e-17)
(-6.27951 1.86315 -1.20607e-17)
(-5.79325 2.15514 -1.18562e-17)
(-5.27718 2.44264 -1.18977e-17)
(-4.73943 2.7163 -1.31162e-17)
(-4.18961 2.96506 -1.59398e-17)
(-3.63434 3.17677 -2.08761e-17)
(-3.06192 3.34153 -2.58987e-17)
(-11.9054 1.21246 -2.9336e-18)
(-11.4618 1.21427 -3.12319e-18)
(-11.1448 1.1834 -3.34017e-18)
(-10.8469 1.13341 -3.62195e-18)
(-10.5792 1.07352 -3.58015e-18)
(-10.3397 1.00908 -3.65391e-18)
(-10.127 0.942581 -3.71938e-18)
(-9.94026 0.87463 -3.7574e-18)
(-9.77935 0.805105 -3.8399e-18)
(-9.6445 0.734038 -4.48407e-18)
(-9.53589 0.662032 -4.61121e-18)
(-9.45296 0.590362 -4.15343e-18)
(-9.394 0.520672 -3.99934e-18)
(-9.35631 0.454437 -3.90904e-18)
(-9.33695 0.392567 -3.77854e-18)
(-9.33337 0.335221 -4.03914e-18)
(-9.34358 0.282151 -3.85624e-18)
(-9.36591 0.233265 -3.15397e-18)
(-9.39855 0.188796 -2.64932e-18)
(-9.43925 0.148989 -2.23989e-18)
(-9.48558 0.113626 -1.81046e-18)
(-9.53541 0.0819063 -1.59798e-18)
(-9.5872 0.0528866 -1.37678e-18)
(-9.63987 0.0260673 -1.11122e-18)
(-9.69243 0.00162591 -7.45383e-19)
(-9.74376 -0.0197888 -2.20296e-19)
(-9.7925 -0.0374664 3.91655e-19)
(-9.83716 -0.0509382 5.56872e-19)
(-9.87623 -0.0599577 -1.88394e-19)
(-9.90824 -0.0642331 -2.04924e-19)
(-9.9315 -0.0630902 -1.56851e-19)
(-9.94394 -0.0552433 -1.72895e-19)
(-9.94288 -0.0387624 -2.07037e-20)
(-9.92509 -0.0111461 -2.3674e-19)
(-9.88683 0.030555 -8.16193e-19)
(-9.82385 0.0895021 -1.14985e-18)
(-9.73152 0.168776 -1.51368e-18)
(-9.60485 0.271095 -1.96751e-18)
(-9.4387 0.398388 -2.12195e-18)
(-9.22805 0.551374 -2.59093e-18)
(-8.96848 0.729373 -3.45755e-18)
(-8.65654 0.930279 -3.53987e-18)
(-8.29037 1.15061 -3.97583e-18)
(-7.86996 1.38566 -4.69029e-18)
(-7.39742 1.62957 -4.49177e-18)
(-6.87693 1.87534 -4.93788e-18)
(-6.31479 2.1145 -6.47282e-18)
(-5.71844 2.33709 -9.31273e-18)
(-5.09312 2.5323 -1.45381e-17)
(-4.42629 2.69212 -1.86192e-17)
(-13.95 0.856504 -1.91245e-18)
(-13.503 0.863689 -1.95189e-18)
(-13.1623 0.851871 -1.98464e-18)
(-12.8316 0.826251 -2.41388e-18)
(-12.5225 0.792361 -2.49061e-18)
(-12.2356 0.753821 -2.1626e-18)
(-11.9714 0.712614 -2.1071e-18)
(-11.7302 0.669591 -2.10253e-18)
(-11.512 0.625042 -2.27552e-18)
(-11.317 0.579096 -2.88723e-18)
(-11.1452 0.53203 -2.9308e-18)
(-10.9964 0.484463 -2.34234e-18)
(-10.8696 0.437276 -2.08418e-18)
(-10.7634 0.391328 -1.87652e-18)
(-10.6762 0.347243 -1.63334e-18)
(-10.6066 0.305307 -1.8257e-18)
(-10.5532 0.265588 -1.82585e-18)
(-10.515 0.228129 -1.34048e-18)
(-10.4905 0.193054 -9.35041e-19)
(-10.4782 0.160472 -5.24948e-19)
(-10.4762 0.130302 -3.75449e-19)
(-10.4827 0.102263 -1.00093e-19)
(-10.4962 0.0760894 2.12477e-19)
(-10.5153 0.0517609 5.534e-19)
(-10.539 0.029565 9.50703e-19)
(-10.5663 0.00996637 1.32811e-18)
(-10.5961 -0.00661035 2.3085e-18)
(-10.6274 -0.0199124 2.54772e-18)
(-10.659 -0.0298213 1.78308e-18)
(-10.6897 -0.0361855 2.06748e-18)
(-10.7176 -0.0385963 2.32522e-18)
(-10.7408 -0.0361993 2.52941e-18)
(-10.7562 -0.027611 3.31696e-18)
(-10.7604 -0.0109919 3.35751e-18)
(-10.7494 0.0158173 2.80161e-18)
(-10.7188 0.0550508 2.80831e-18)
(-10.6637 0.108749 2.73234e-18)
(-10.5787 0.178616 2.62152e-18)
(-10.458 0.265854 2.52026e-18)
(-10.2955 0.371055 2.37291e-18)
(-10.0853 0.494211 2.15282e-18)
(-9.82177 0.634709 2.17595e-18)
(-9.50044 0.791177 1.94037e-18)
(-9.11845 0.961308 1.47963e-18)
(-8.67503 1.14162 1.4965e-18)
(-8.17169 1.32718 1.10909e-18)
(-7.61194 1.51163 -8.37194e-20)
(-7.00019 1.68764 -2.8113e-18)
(-6.33973 1.84722 -7.18096e-18)
(-5.62088 1.98385 -1.16053e-17)
(-15.5402 0.496381 6.05164e-19)
(-15.1127 0.5013 5.26006e-19)
(-14.7745 0.497411 4.09617e-19)
(-14.4394 0.485794 -5.87923e-20)
(-14.1182 0.469173 -2.25112e-19)
(-13.8126 0.449545 -6.07278e-22)
(-13.524 0.428124 -1.52367e-19)
(-13.2531 0.405567 -3.49829e-19)
(-13.0003 0.382135 -5.86086e-19)
(-12.7661 0.357897 -1.1912e-18)
(-12.5507 0.332954 -1.34822e-18)
(-12.3541 0.30755 -1.01078e-18)
(-12.1761 0.282052 -1.06293e-18)
(-12.0162 0.256848 -1.16969e-18)
(-11.8738 0.232253 -1.36952e-18)
(-11.7485 0.208437 -1.61928e-18)