/*--------------------------------*- C++ -*----------------------------------*\
  =========                 |
  \\      /  F ield         | OpenFOAM: The Open Source CFD Toolbox
   \\    /   O peration     | Website:  https://openfoam.org
    \\  /    A nd           | Version:  8
     \\/     M anipulation  |
\*---------------------------------------------------------------------------*/
FoamFile
{
    version     2.0;
    format      ascii;
    class       volScalarField;
    location    "600";
    object      T;
}
// * * * * * * * * * * * * * * * * * * * * * * * * * * * * * * * * * * * * * //

dimensions      [0 0 0 1 0 0 0];

internalField   nonuniform List<scalar> 
1200
(
303.15
303.15
303.151
303.146
303.141
303.137
303.133
303.129
303.125
303.122
303.119
303.115
303.112
303.109
303.106
303.103
303.101
303.098
303.096
303.093
303.091
303.089
303.086
303.083
303.078
303.013
302.621
301.515
300.059
299.077
298.66
298.573
298.626
298.716
298.798
298.854
298.878
298.868
298.828
298.762
298.675
298.566
298.431
298.27
298.084
297.881
297.666
297.453
297.259
297.1
296.968
296.834
296.655
296.41
296.112
295.81
295.547
295.332
295.172
295.075
303.15
303.15
303.15
303.15
303.15
303.15
303.15
303.149
303.149
303.149
303.149
303.149
303.149
303.148
303.148
303.148
303.148
303.148
303.148
303.148
303.147
303.147
303.146
303.144
303.143
303.132
303.043
302.699
301.98
301.242
300.877
300.857
301.009
301.209
301.397
301.55
301.663
301.74
301.789
301.819
301.829
301.816
301.774
301.695
301.578
301.427
301.261
301.106
300.994
300.941
300.941
300.965
300.974
300.925
300.783
300.522
300.134
299.638
299.037
298.4
303.15
303.15
303.15
303.15
303.15
303.15
303.15
303.15
303.15
303.15
303.15
303.15
303.15
303.15
303.15
303.15
303.15
303.15
303.15
303.151
303.151
303.151
303.151
303.15
303.149
303.148
303.141
303.099
302.967
302.769
302.583
302.432
302.313
302.219
302.152
302.11
302.085
302.073
302.073
302.084
302.101
302.127
302.162
302.203
302.248
302.296
302.347
302.399
302.448
302.494
302.536
302.57
302.591
302.596
302.583
302.542
302.433
302.259
302.035
301.841
303.15
303.15
303.15
303.15
303.15
303.15
303.15
303.15
303.15
303.15
303.15
303.15
303.15
303.15
303.15
303.15
303.15
303.15
303.15
303.151
303.15
303.148
303.145
303.141
303.137
303.136
303.134
303.13
303.112
303.08
303.044
303.011
302.983
302.964
302.96
302.961
302.963
302.963
302.964
302.963
302.96
302.957
302.948
302.93
302.904
302.871
302.839
302.813
302.793
302.777
302.764
302.746
302.705
302.635
302.553
302.489
302.462
302.453
302.426
302.391
303.15
303.15
303.15
303.15
303.15
303.15
303.15
303.15
303.15
303.15
303.15
303.15
303.15
303.15
303.15
303.15
303.15
303.15
303.149
303.147
303.14
303.128
303.116
303.105
303.098
303.097
303.1
303.102
303.099
303.091
303.078
303.064
303.049
303.036
303.023
303.01
302.995
302.979
302.964
302.953
302.947
302.945
302.946
302.947
302.947
302.946
302.938
302.918
302.884
302.839
302.785
302.699
302.54
302.296
302.011
301.761
301.603
301.546
301.541
301.548
303.15
303.15
303.15
303.15
303.15
303.15
303.15
303.15
303.15
303.15
303.15
303.15
303.15
303.15
303.15
303.149
303.149
303.147
303.137
303.11
303.066
303.014
302.969
302.936
302.926
302.953
303.001
303.035
303.053
303.059
303.059
303.055
303.049
303.042
303.033
303.022
303.008
302.991
302.97
302.946
302.919
302.893
302.866
302.841
302.816
302.793
302.76
302.696
302.587
302.458
302.324
302.132
301.775
301.229
300.61
300.082
299.729
299.557
299.515
299.538
303.15
303.15
303.15
303.15
303.15
303.15
303.15
303.15
303.15
303.15
303.15
303.15
303.15
303.15
303.15
303.149
303.147
303.135
303.086
302.977
302.813
302.619
302.428
302.271
302.207
302.295
302.503
302.684
302.761
302.774
302.748
302.691
302.608
302.504
302.383
302.254
302.124
301.999
301.881
301.773
301.674
301.589
301.521
301.468
301.427
301.397
301.376
301.308
301.168
301.027
300.891
300.567
299.858
298.922
298.086
297.525
297.239
297.173
297.276
297.428
303.15
303.15
303.15
303.15
303.15
303.15
303.15
303.15
303.15
303.15
303.15
303.15
303.15
303.15
303.15
303.149
303.146
303.125
303.027
302.794
302.409
301.883
301.274
300.672
300.124
299.648
299.297
299.103
298.989
298.861
298.705
298.543
298.4
298.277
298.167
298.067
297.976
297.897
297.838
297.805
297.803
297.834
297.886
297.948
298
298.041
298.073
298.069
298.073
298.088
298.031
297.781
297.263
296.637
296.124
295.807
295.656
295.608
295.598
295.573
303.15
303.15
303.15
303.15
303.15
303.15
303.15
303.15
303.15
303.15
303.149
303.149
303.149
303.149
303.149
303.149
303.148
303.144
303.114
303.009
302.799
302.493
302.15
301.838
301.316
300.63
300.136
299.883
299.732
299.615
299.52
299.426
299.329
299.245
299.191
299.171
299.18
299.201
299.22
299.231
299.24
299.259
299.266
299.258
299.237
299.209
299.181
299.161
299.143
299.068
298.762
297.997
296.88
295.884
295.241
294.887
294.695
294.597
294.576
294.595
303.15
303.15
303.151
303.151
303.146
303.142
303.138
303.134
303.13
303.127
303.123
303.12
303.117
303.114
303.111
303.108
303.106
303.103
303.097
303.077
303.027
302.945
302.849
302.717
299.624
297.75
297.347
297.362
297.432
297.473
297.474
297.428
297.319
297.133
296.866
296.531
296.156
295.779
295.439
295.17
294.994
294.918
294.923
294.952
294.966
294.948
294.899
294.825
294.746
294.7
294.734
294.876
295.081
295.253
295.361
295.422
295.475
295.553
295.692
295.928
303.15
303.15
303.151
303.146
303.141
303.137
303.133
303.129
303.125
303.122
303.119
303.115
303.112
303.109
303.106
303.103
303.101
303.098
303.096
303.093
303.091
303.089
303.086
303.084
303.079
303.031
302.729
301.773
300.322
299.231
298.724
298.589
298.623
298.707
298.79
298.849
298.875
298.869
298.834
298.772
298.688
298.583
298.452
298.293
298.11
297.908
297.693
297.477
297.281
297.119
296.985
296.852
296.678
296.439
296.143
295.84
295.574
295.355
295.19
295.087
303.15
303.15
303.15
303.15
303.15
303.15
303.15
303.149
303.149
303.149
303.149
303.149
303.149
303.149
303.148
303.148
303.148
303.148
303.148
303.148
303.148
303.147
303.146
303.145
303.144
303.136
303.069
302.789
302.127
301.359
300.922
300.853
300.983
301.178
301.369
301.528
301.647
301.729
301.783
301.815
301.827
301.818
301.78
301.706
301.593
301.447
301.282
301.126
301.01
300.951
300.946
300.969
300.979
300.936
300.802
300.55
300.172
299.685
299.092
298.462
303.15
303.15
303.15
303.15
303.15
303.15
303.15
303.15
303.15
303.15
303.15
303.15
303.15
303.15
303.15
303.15
303.15
303.15
303.15
303.151
303.151
303.151
303.151
303.15
303.149
303.149
303.144
303.111
302.996
302.804
302.613
302.458
302.336
302.24
302.169
302.125
302.097
302.083
302.08
302.087
302.101
302.125
302.157
302.197
302.241
302.288
302.339
302.391
302.441
302.489
302.531
302.567
302.59
302.596
302.586
302.549
302.448
302.278
302.055
301.86
303.15
303.15
303.15
303.15
303.15
303.15
303.15
303.15
303.15
303.15
303.15
303.15
303.15
303.15
303.15
303.15
303.15
303.15
303.15
303.151
303.15
303.147
303.143
303.139
303.136
303.134
303.133
303.128
303.11
303.079
303.043
303.012
302.986
302.967
302.961
302.962
302.963
302.963
302.963
302.961
302.957
302.954
302.949
302.937
302.916
302.885
302.852
302.823
302.8
302.782
302.768
302.749
302.71
302.643
302.561
302.494
302.464
302.455
302.43
302.396
303.15
303.15
303.15
303.15
303.15
303.15
303.15
303.15
303.15
303.15
303.15
303.15
303.15
303.15
303.15
303.15
303.149
303.15
303.149
303.146
303.138
303.126
303.113
303.102
303.096
303.097
303.101
303.102
303.098
303.087
303.073
303.057
303.042
303.028
303.014
303
302.985
302.969
302.956
302.947
302.943
302.943
302.945
302.947
302.949
302.949
302.942
302.922
302.888
302.843
302.789
302.707
302.558
302.324
302.043
301.791
301.624
301.558
301.549
301.555
303.15
303.15
303.15
303.15
303.15
303.15
303.15
303.15
303.15
303.15
303.15
303.15
303.15
303.15
303.15
303.149
303.149
303.146
303.135
303.106
303.059
303.007
302.962
302.93
302.927
302.963
303.011
303.042
303.056
303.06
303.058
303.053
303.046
303.038
303.029
303.017
303.002
302.984
302.963
302.938
302.91
302.882
302.854
302.827
302.802
302.779
302.751
302.696
302.599
302.475
302.342
302.16
301.828
301.306
300.692
300.151
299.779
299.589
299.533
299.547
303.15
303.15
303.15
303.15
303.15
303.15
303.15
303.15
303.15
303.15
303.15
303.15
303.15
303.15
303.149
303.149
303.147
303.133
303.079
302.963
302.792
302.593
302.402
302.249
302.215
302.335
302.553
302.713
302.771
302.773
302.737
302.673
302.584
302.473
302.347
302.215
302.085
301.96
301.845
301.738
301.64
301.556
301.488
301.437
301.401
301.372
301.353
301.302
301.187
301.049
300.918
300.633
299.973
299.045
298.182
297.585
297.268
297.179
297.267
297.414
303.15
303.15
303.15
303.15
303.15
303.15
303.15
303.15
303.15
303.15
303.15
303.15
303.15
303.15
303.149
303.149
303.146
303.121
303.013
302.764
302.361
301.819
301.201
300.605
300.058
299.59
299.254
299.071
298.947
298.808
298.645
298.487
298.351
298.236
298.131
298.035
297.948
297.873
297.818
297.791
297.795
297.83
297.886
297.956
298.024
298.062
298.08
298.076
298.075
298.086
298.042
297.819
297.327
296.702
296.17
295.832
295.667
295.611
295.601
295.578
303.15
303.15
303.15
303.15
303.15
303.15
303.15
303.15
303.15
303.15
303.15
303.149
303.149
303.149
303.149
303.149
303.148
303.143
303.108
302.991
302.762
302.438
302.08
301.739
301.251
300.698
300.234
299.954
299.781
299.649
299.546
299.448
299.347
299.257
299.192
299.162
299.163
299.18
299.198
299.211
299.223
299.244
299.255
299.251
299.233
299.207
299.18
299.159
299.14
299.074
298.8
298.085
296.99
295.971
295.294
294.916
294.711
294.606
294.579
294.595
303.15
303.15
303.151
303.151
303.146
303.142
303.138
303.134
303.13
303.127
303.123
303.12
303.117
303.114
303.111
303.108
303.106
303.103
303.096
303.071
303.013
302.92
302.808
302.646
300.173
298.014
297.411
297.366
297.427
297.47
297.474
297.432
297.328
297.148
296.888
296.558
296.186
295.809
295.466
295.192
295.008
294.925
294.926
294.955
294.971
294.956
294.909
294.837
294.758
294.709
294.737
294.87
295.071
295.245
295.356
295.42
295.473
295.55
295.687
295.919
)
;

boundaryField
{
    wall
    {
        type            zeroGradient;
    }
    inlet
    {
        type            fixedValue;
        value           uniform 303.15;
    }
    outlet
    {
        type            inletOutlet;
        inletValue      uniform 300;
        value           nonuniform List<scalar> 
20
(
295.071
298.379
301.835
302.389
301.546
299.535
297.432
295.571
294.595
295.932
295.082
298.44
301.853
302.393
301.552
299.543
297.419
295.576
294.595
295.922
)
;
    }
    heatWall
    {
        type            fixedGradient;
        gradient        uniform -500;
    }
}


// ************************************************************************* //
