/*--------------------------------*- C++ -*----------------------------------*\
  =========                 |
  \\      /  F ield         | OpenFOAM: The Open Source CFD Toolbox
   \\    /   O peration     | Website:  https://openfoam.org
    \\  /    A nd           | Version:  8
     \\/     M anipulation  |
\*---------------------------------------------------------------------------*/
FoamFile
{
    version     2.0;
    format      ascii;
    class       volVectorField;
    location    "600";
    object      U;
}
// * * * * * * * * * * * * * * * * * * * * * * * * * * * * * * * * * * * * * //

dimensions      [0 1 -1 0 0 0 0];

internalField   nonuniform List<vector> 
1200
(
(16.0176 -1.17452 -0.12546)
(16.1187 -0.886259 0.208142)
(16.1432 -0.721202 0.397837)
(16.1345 -0.607005 0.537913)
(16.1258 -0.527339 0.585749)
(16.1173 -0.478757 0.362018)
(16.0993 -0.449177 -0.0530663)
(16.0699 -0.423701 -0.323673)
(16.0404 -0.399786 -0.0812331)
(16.0308 -0.372475 0.385947)
(16.0371 -0.347138 0.672581)
(16.044 -0.327583 0.726197)
(16.0518 -0.313116 0.678499)
(16.0672 -0.302878 0.544072)
(16.0922 -0.297224 0.262991)
(16.1179 -0.297692 -0.185422)
(16.1263 -0.300122 -0.738772)
(16.1103 -0.293957 -1.25615)
(16.0673 -0.276658 -1.47725)
(15.9831 -0.251145 -1.30307)
(15.8382 -0.221104 -1.01036)
(15.6257 -0.193119 -0.673414)
(15.3582 -0.172407 -0.126935)
(15.0905 -0.171647 0.798354)
(15.013 -0.175536 1.83637)
(15.0366 -0.163463 2.35436)
(15.0838 -0.0921454 2.6153)
(15.5573 0.0993049 3.62875)
(16.6115 0.242998 6.00881)
(17.3905 0.293428 8.39495)
(17.4408 0.320295 9.88134)
(16.9447 0.338157 10.5228)
(16.2093 0.349589 10.629)
(15.4627 0.350495 10.4567)
(14.8327 0.336628 10.1238)
(14.3754 0.309402 9.76708)
(14.0918 0.277191 9.29267)
(13.9286 0.254456 8.71968)
(13.8299 0.23965 8.14063)
(13.7599 0.228287 7.68331)
(13.7061 0.217239 7.45965)
(13.6741 0.204382 7.5528)
(13.6695 0.190687 7.77236)
(13.6836 0.180571 7.97567)
(13.7039 0.179068 8.17209)
(13.7112 0.191245 8.45986)
(13.6905 0.212304 8.95061)
(13.6528 0.230019 9.52936)
(13.6246 0.238539 10.055)
(13.636 0.238821 10.6079)
(13.7113 0.229709 11.1643)
(13.8608 0.210049 11.6228)
(14.0737 0.185613 11.8808)
(14.2932 0.165349 11.8548)
(14.4516 0.154115 11.6507)
(14.4927 0.15831 11.2601)
(14.4348 0.172307 10.849)
(14.211 0.185502 10.2636)
(13.9934 0.204824 10.19)
(13.5027 0.232123 9.5153)
(16.0235 0.416618 -0.0464146)
(16.0042 0.537817 0.13518)
(15.9986 0.53025 0.236548)
(15.9936 0.502585 0.319194)
(15.9973 0.470937 0.349085)
(16.0088 0.438634 0.175794)
(16.0172 0.416417 -0.17643)
(16.0143 0.397681 -0.408465)
(16.01 0.384358 -0.178958)
(16.0231 0.371655 0.26018)
(16.0509 0.357594 0.539915)
(16.0794 0.345875 0.604994)
(16.1095 0.336136 0.579426)
(16.1478 0.327855 0.46459)
(16.1963 0.320071 0.192838)
(16.2443 0.309978 -0.250101)
(16.2739 0.295174 -0.804215)
(16.279 0.28453 -1.35862)
(16.2591 0.288645 -1.65699)
(16.1985 0.306967 -1.57567)
(16.0729 0.333608 -1.37391)
(15.8744 0.353884 -1.10225)
(15.6113 0.370392 -0.58125)
(15.3327 0.333714 0.370816)
(15.2364 0.279783 1.44737)
(15.2995 0.293629 2.01736)
(15.3368 0.39834 2.15149)
(15.472 0.614684 2.36917)
(16.0862 0.725588 3.70687)
(17.2377 0.627987 6.13557)
(18.4298 0.470023 8.62903)
(19.2773 0.327375 10.4698)
(19.7156 0.200954 11.5316)
(19.8337 0.0808021 11.9664)
(19.7443 -0.0345271 11.9537)
(19.5431 -0.13658 11.6865)
(19.3062 -0.205423 11.2074)
(19.0735 -0.241573 10.6356)
(18.8552 -0.257947 10.0942)
(18.6569 -0.262521 9.67819)
(18.4752 -0.26351 9.46157)
(18.3116 -0.269224 9.50963)
(18.1758 -0.276281 9.69977)
(18.0735 -0.278607 9.92211)
(18.0043 -0.27902 10.1716)
(17.952 -0.277662 10.5115)
(17.9001 -0.276395 11.0091)
(17.8627 -0.283619 11.5509)
(17.8684 -0.303608 12.0099)
(17.9316 -0.333344 12.4277)
(18.0503 -0.367521 12.7852)
(18.2267 -0.3953 13.0558)
(18.4799 -0.394855 13.2442)
(18.799 -0.34734 13.3597)
(19.1192 -0.256058 13.4888)
(19.2971 -0.15283 13.5002)
(19.2304 -0.0511146 13.3667)
(18.8852 0.0271167 12.9757)
(18.4222 0.0990375 12.8543)
(17.7192 0.0451669 12.1548)
(15.9516 -0.0841786 -0.0700431)
(15.91 -0.171805 0.129099)
(15.9143 -0.242244 0.305128)
(15.933 -0.277357 0.433413)
(15.958 -0.292816 0.493379)
(15.9874 -0.30295 0.373069)
(16.0076 -0.304549 0.0130487)
(16.0095 -0.301082 -0.302506)
(16.0099 -0.293139 -0.14587)
(16.0251 -0.287889 0.256656)
(16.0574 -0.286359 0.499944)
(16.0914 -0.282565 0.511297)
(16.1253 -0.276762 0.429269)
(16.1652 -0.270484 0.258402)
(16.212 -0.266572 -0.0566988)
(16.254 -0.273368 -0.547014)
(16.2844 -0.285857 -1.16395)
(16.2988 -0.287028 -1.82183)
(16.2886 -0.260176 -2.26302)
(16.2283 -0.196001 -2.32893)
(16.0849 -0.102381 -2.24984)
(15.8531 -0.0148716 -2.0641)
(15.5444 0.060671 -1.59353)
(15.2533 0.02288 -0.731675)
(15.1224 -0.0904991 0.216821)
(15.1533 -0.118483 0.631546)
(15.266 0.00378465 0.540279)
(15.4107 0.26311 0.328263)
(15.616 0.508704 0.603801)
(15.9339 0.576182 1.32489)
(16.296 0.507632 2.16358)
(16.612 0.415549 2.92504)
(16.8639 0.341795 3.51402)
(17.0269 0.280033 3.8691)
(17.0761 0.215194 3.98929)
(17.057 0.144664 3.96356)
(17.0543 0.100338 3.82493)
(17.0712 0.0892551 3.59518)
(17.0944 0.0902388 3.37734)
(17.1122 0.0892982 3.2512)
(17.1108 0.0901708 3.28937)
(17.0946 0.0831904 3.54916)
(17.0704 0.0688022 3.91003)
(17.0411 0.0581338 4.26754)
(17.0287 0.0528379 4.62935)
(17.0301 0.0648223 5.06901)
(17.0028 0.0853206 5.61712)
(16.9506 0.0809333 6.14314)
(16.9393 0.0385233 6.57339)
(17.0148 -0.0230499 7.01672)
(17.1479 -0.0870049 7.45062)
(17.2839 -0.148018 7.77618)
(17.4255 -0.191137 7.90227)
(17.6174 -0.186767 7.80544)
(17.9036 -0.111305 7.65245)
(18.2878 0.026588 7.53473)
(18.7526 0.200006 7.64533)
(19.107 0.348703 7.7483)
(19.3697 0.470001 8.16283)
(19.41 0.374129 7.99419)
(15.989 -0.00571725 -0.0629374)
(15.9778 0.0509889 0.029355)
(15.9915 0.110718 0.0808239)
(16.0068 0.160984 0.0830507)
(16.0195 0.196659 0.0611325)
(16.0363 0.212352 -0.0245831)
(16.0486 0.220801 -0.315908)
(16.0487 0.237898 -0.591249)
(16.0479 0.256334 -0.482158)
(16.0597 0.273819 -0.162146)
(16.0862 0.284987 0.0203697)
(16.1157 0.290876 -0.0118583)
(16.1447 0.29424 -0.126265)
(16.1779 0.295245 -0.324547)
(16.2162 0.292372 -0.660644)
(16.2571 0.28262 -1.17226)
(16.2952 0.265851 -1.84755)
(16.324 0.25924 -2.61017)
(16.3277 0.286399 -3.1787)
(16.2646 0.35068 -3.36997)
(16.0877 0.444136 -3.41064)
(15.8025 0.523101 -3.3721)
(15.4494 0.596122 -3.10813)
(15.1917 0.543118 -2.44757)
(15.1959 0.372348 -1.60471)
(15.4312 0.301439 -1.1947)
(15.716 0.399627 -1.2375)
(15.9592 0.601605 -1.39718)
(16.195 0.736317 -1.23206)
(16.424 0.704461 -0.865598)
(16.5926 0.557754 -0.481984)
(16.7212 0.394221 -0.112904)
(16.688 0.236213 0.214986)
(16.5836 0.0771644 0.465455)
(16.5031 -0.086014 0.615947)
(16.434 -0.207732 0.679637)
(16.3685 -0.270566 0.564808)
(16.3156 -0.291067 0.284609)
(16.3333 -0.290254 -0.0156522)
(16.2009 -0.281432 -0.208293)
(16.0108 -0.278352 -0.222742)
(15.8255 -0.282103 0.0578453)
(15.1633 -0.301563 0.528162)
(14.6024 -0.33353 1.00238)
(14.2903 -0.355803 1.45378)
(14.0665 -0.357177 1.96792)
(13.8075 -0.354307 2.57995)
(13.6259 -0.394645 3.16494)
(13.6485 -0.480729 3.66687)
(13.8636 -0.562652 4.20956)
(14.1673 -0.615482 4.75572)
(14.4596 -0.655219 5.20802)
(14.7168 -0.686321 5.47498)
(14.9579 -0.680877 5.51132)
(15.2031 -0.61326 5.44554)
(15.432 -0.478636 5.25609)
(15.6728 -0.29071 5.10992)
(15.9618 -0.101181 4.98419)
(16.34 0.068889 5.26874)
(16.6301 0.111932 5.12262)
(15.9887 -0.00347114 -0.0694898)
(15.9734 0.00161958 -0.0507876)
(15.9753 -0.0133034 -0.0326138)
(15.9843 -0.0415587 -0.041007)
(15.9952 -0.0755266 -0.047209)
(16.0127 -0.11451 -0.0559349)
(16.0298 -0.151353 -0.303516)
(16.0362 -0.180369 -0.619026)
(16.042 -0.197439 -0.607229)
(16.0575 -0.20709 -0.362633)
(16.0844 -0.217514 -0.199165)
(16.1142 -0.228621 -0.230951)
(16.1438 -0.236541 -0.361079)
(16.1764 -0.242512 -0.608554)
(16.2124 -0.249899 -1.04745)
(16.2508 -0.263117 -1.72838)
(16.2917 -0.279094 -2.65431)
(16.3302 -0.279423 -3.73571)
(16.3404 -0.223889 -4.63235)
(16.2724 -0.0845094 -5.09649)
(16.1077 0.12875 -5.34138)
(15.9403 0.331581 -5.46119)
(15.8723 0.496339 -5.34846)
(16.0611 0.416565 -4.86604)
(16.6013 0.0839184 -4.18421)
(17.2525 -0.116608 -3.74842)
(17.7005 -0.0604541 -3.61733)
(17.8896 0.176822 -3.56962)
(17.9404 0.392851 -3.27468)
(17.9474 0.470476 -2.86036)
(17.929 0.437083 -2.47048)
(17.9176 0.366334 -2.1151)
(17.9397 0.287743 -1.82809)
(17.9612 0.193929 -1.64048)
(17.9058 0.0879172 -1.53825)
(17.7183 0.0113998 -1.47746)
(17.4243 -0.0155496 -1.53885)
(17.0762 0.00695448 -1.72861)
(16.7547 0.0645535 -1.921)
(16.5093 0.124664 -2.03509)
(16.3316 0.156885 -1.99188)
(16.2134 0.178972 -1.68138)
(16.1389 0.188652 -1.21943)
(16.0474 0.162244 -0.776144)
(15.9253 0.1241 -0.332918)
(15.7248 0.0677202 0.20551)
(15.4658 -0.0386773 0.848801)
(15.4807 -0.210202 1.43434)
(15.646 -0.394933 1.93403)
(15.7587 -0.528785 2.51623)
(15.7421 -0.594254 3.17885)
(15.6533 -0.623581 3.83776)
(15.5971 -0.640922 4.36052)
(15.624 -0.623414 4.65242)
(15.7181 -0.534743 4.82151)
(15.8107 -0.373663 4.83159)
(15.8559 -0.172934 4.78425)
(15.7918 0.0110495 4.56382)
(15.7182 0.156535 4.60573)
(15.5806 0.239577 4.17004)
(15.9895 0.00608933 -0.0772209)
(15.9745 0.016348 -0.125873)
(15.9752 0.0385553 -0.160666)
(15.9833 0.0713529 -0.227341)
(15.9926 0.106467 -0.290919)
(16.008 0.135043 -0.301047)
(16.0244 0.163393 -0.538993)
(16.0327 0.193293 -0.887117)
(16.0421 0.22059 -0.97116)
(16.0601 0.240863 -0.827548)
(16.0863 0.252826 -0.715928)
(16.1146 0.259929 -0.769251)
(16.1432 0.266452 -0.94186)
(16.1754 0.270599 -1.26687)
(16.2129 0.268896 -1.82695)
(16.2567 0.258231 -2.69178)
(16.3101 0.240679 -3.89247)
(16.3728 0.242482 -5.35717)
(16.4246 0.305314 -6.71838)
(16.4542 0.432845 -7.68419)
(16.5121 0.596465 -8.43072)
(16.7128 0.697957 -8.96987)
(17.051 0.745237 -9.13761)
(17.5629 0.62518 -8.7949)
(18.2751 0.304696 -7.99542)
(18.9372 0.207145 -7.11066)
(19.2639 0.373664 -6.29972)
(19.2746 0.603475 -5.59849)
(19.1448 0.728118 -4.84996)
(19.0036 0.704952 -4.1861)
(18.8946 0.582064 -3.70005)
(18.8424 0.435537 -3.32967)
(18.8416 0.303602 -3.05605)
(18.8436 0.185992 -2.89035)
(18.7998 0.0842655 -2.804)
(18.7103 0.0141225 -2.77284)
(18.6193 -0.0269469 -2.83661)
(18.5804 -0.0487417 -3.00344)
(18.6191 -0.0607258 -3.17648)
(18.718 -0.0761294 -3.28579)
(18.8305 -0.0983193 -3.24632)
(18.9111 -0.10401 -2.9324)
(18.942 -0.105304 -2.47681)
(18.9075 -0.121426 -2.03028)
(18.8151 -0.144486 -1.56998)
(18.7128 -0.187765 -1.03013)
(18.6121 -0.294752 -0.375579)
(18.4155 -0.473883 0.303623)
(18.0841 -0.625222 0.928924)
(17.7098 -0.668135 1.63684)
(17.3061 -0.659221 2.40971)
(16.8422 -0.704045 3.19365)
(16.3869 -0.797648 3.9306)
(16.0885 -0.846937 4.55212)
(16.0095 -0.796176 5.11151)
(16.0641 -0.639591 5.47925)
(16.1462 -0.415141 5.73174)
(16.1499 -0.181438 5.74609)
(16.1283 0.00723536 5.91402)
(16.0296 0.101277 5.56695)
(15.9924 0.00684497 -0.0811658)
(15.9838 -0.036382 -0.16814)
(15.9954 -0.0863732 -0.197289)
(16.0102 -0.129219 -0.247153)
(16.0197 -0.163988 -0.287752)
(16.0328 -0.193177 -0.238851)
(16.049 -0.218369 -0.394123)
(16.0555 -0.237456 -0.67787)
(16.0595 -0.247098 -0.770544)
(16.0713 -0.250822 -0.675073)
(16.0928 -0.254669 -0.590833)
(16.1186 -0.259359 -0.647791)
(16.1455 -0.260399 -0.849678)
(16.1743 -0.258427 -1.24265)
(16.2064 -0.256427 -1.9212)
(16.2446 -0.257315 -2.99522)
(16.299 -0.259904 -4.55674)
(16.3897 -0.240626 -6.5265)
(16.5163 -0.145373 -8.31853)
(16.6653 0.0275746 -9.44577)
(16.8573 0.23113 -10.1274)
(17.1809 0.354402 -10.5843)
(17.6075 0.417267 -10.7931)
(18.1272 0.219503 -10.6444)
(18.8718 -0.446412 -10.1615)
(19.6164 -0.775853 -9.53601)
(19.9953 -0.603792 -8.82157)
(20.037 -0.133121 -8.04194)
(19.9823 0.233026 -7.19304)
(19.983 0.392136 -6.44141)
(20.0802 0.39648 -5.90922)
(20.2643 0.331892 -5.50975)
(20.4808 0.257856 -5.1885)
(20.6594 0.189747 -4.93821)
(20.7565 0.132009 -4.72366)
(20.7711 0.0932464 -4.52482)
(20.7306 0.0731386 -4.37005)
(20.6607 0.0677947 -4.27461)
(20.5718 0.0779082 -4.16886)
(20.4597 0.101181 -4.01421)
(20.3135 0.135531 -3.74813)
(20.134 0.181503 -3.23273)
(19.9299 0.218101 -2.60859)
(19.7009 0.227358 -2.00775)
(19.4675 0.204333 -1.41944)
(19.2692 0.143786 -0.796431)
(19.1103 0.0408723 -0.141401)
(18.745 -0.0776097 0.488688)
(18.2188 -0.207422 1.13922)
(17.6324 -0.292597 1.94643)
(16.9801 -0.264683 2.92554)
(16.2338 -0.198857 4.1048)
(15.6656 -0.230986 5.41641)
(15.575 -0.361429 6.64708)
(15.8587 -0.448488 7.6935)
(16.2329 -0.396388 8.32968)
(16.5405 -0.229575 8.65512)
(16.6913 -0.0307688 8.57691)
(16.7443 0.115909 8.50212)
(16.6252 0.205081 7.90523)
(15.9568 0.0841208 -0.0915072)
(15.9196 0.18055 -0.298409)
(15.9209 0.25026 -0.442962)
(15.9356 0.288532 -0.625884)
(15.9522 0.306221 -0.795834)
(15.9726 0.310316 -0.801784)
(15.9925 0.30812 -1.00286)
(16.0074 0.30363 -1.34517)
(16.0246 0.300349 -1.51206)
(16.0473 0.297445 -1.47653)
(16.074 0.293108 -1.39688)
(16.1024 0.288382 -1.40068)
(16.132 0.286484 -1.53471)
(16.1646 0.287601 -1.84473)
(16.2025 0.291513 -2.40742)
(16.247 0.297909 -3.32812)
(16.3036 0.306407 -4.73662)
(16.3974 0.320548 -6.6064)
(16.5383 0.34888 -8.35422)
(16.6762 0.394779 -9.40836)
(16.7535 0.453863 -10.0015)
(16.8635 0.458954 -10.5273)
(17.0243 0.416321 -11.1053)
(17.314 0.143383 -11.6836)
(18.2217 -0.376633 -12.1956)
(19.5052 -0.349454 -12.7219)
(20.3794 -0.000321776 -12.7883)
(20.6672 0.401446 -12.0645)
(20.611 0.575502 -10.6864)
(20.5267 0.526431 -9.36368)
(20.4844 0.359934 -8.3499)
(20.4692 0.188135 -7.53412)
(20.4273 0.0807186 -6.84438)
(20.3053 0.030356 -6.25629)
(20.0849 0.00571631 -5.71828)
(19.7822 -0.0110949 -5.21474)
(19.4293 -0.0281855 -4.77737)
(19.0543 -0.0460655 -4.43734)
(18.6787 -0.0594131 -4.13087)
(18.3159 -0.064861 -3.81492)
(17.9764 -0.0544825 -3.41326)
(17.6804 -0.0285552 -2.73684)
(17.4274 -0.0032716 -1.96429)
(17.2029 0.0103541 -1.20719)
(17.0132 0.00723494 -0.455414)
(16.6531 -0.0190641 0.292921)
(16.1102 -0.0388926 1.08713)
(15.5993 -0.0551446 1.87248)
(14.9908 -0.0514518 2.65953)
(14.2628 0.00684674 3.54371)
(13.6381 0.0732962 4.49201)
(13.5524 -0.0150739 5.71033)
(14.1715 -0.34806 7.3427)
(15.0005 -0.721756 8.99651)
(15.6067 -0.922049 10.3721)
(15.8818 -0.893008 11.2255)
(15.9097 -0.70559 11.7529)
(15.7299 -0.448537 11.863)
(15.439 -0.195758 11.952)
(15.0133 -0.0557508 11.3685)
(16.03 -0.417328 -0.0528542)
(16.0119 -0.527845 -0.171453)
(16.0013 -0.521938 -0.205791)
(15.9967 -0.494315 -0.297725)
(15.9932 -0.461663 -0.394638)
(15.9978 -0.432891 -0.337755)
(16.0098 -0.40613 -0.465369)
(16.0161 -0.380072 -0.719852)
(16.0215 -0.356225 -0.826344)
(16.0331 -0.336799 -0.75357)
(16.0525 -0.323049 -0.624324)
(16.0782 -0.313413 -0.552346)
(16.1081 -0.303944 -0.606142)
(16.1411 -0.293102 -0.821778)
(16.1766 -0.27966 -1.25025)
(16.2128 -0.262576 -1.95944)
(16.2494 -0.239663 -3.02122)
(16.3027 -0.201593 -4.34734)
(16.4115 -0.134795 -5.48305)
(16.5948 -0.0321375 -6.03899)
(16.7489 0.100389 -6.1618)
(16.8276 0.214781 -5.88475)
(16.5718 0.242703 -5.04654)
(15.4702 -0.0343078 -3.64923)
(14.4672 -0.933799 -1.4852)
(14.9299 -1.03789 0.841711)
(15.9339 -0.769731 2.379)
(16.4957 -0.385073 2.97619)
(16.6782 -0.00165525 2.84876)
(16.6959 0.203321 2.7818)
(16.6902 0.259054 2.90197)
(16.7614 0.240019 3.31401)
(16.9252 0.210252 3.76384)
(17.1082 0.193461 4.09516)
(17.262 0.189156 4.34)
(17.3772 0.193949 4.53197)
(17.4501 0.204498 4.64023)
(17.4684 0.218599 4.6178)
(17.4259 0.234935 4.52172)
(17.3348 0.251497 4.39862)
(17.2106 0.272565 4.30958)
(17.0805 0.301258 4.47441)
(16.9495 0.326958 4.75549)
(16.8268 0.343702 5.01895)
(16.7136 0.357332 5.2809)
(16.6092 0.369306 5.5427)
(16.5122 0.385073 5.80497)
(16.4237 0.390401 6.02781)
(16.3591 0.364347 6.28607)
(16.3687 0.276974 6.84018)
(16.5279 0.0963758 7.92672)
(16.7629 -0.152519 9.72401)
(16.7575 -0.389854 11.9985)
(16.2735 -0.526122 13.9292)
(15.3771 -0.525012 15.088)
(14.3433 -0.394493 15.4416)
(13.4481 -0.182753 15.5398)
(12.783 0.0493165 15.4173)
(12.3814 0.214334 15.4737)
(12.1565 0.201913 15.0197)
(16.0252 1.17499 -0.088559)
(16.1284 0.899575 -0.307608)
(16.1456 0.745124 -0.369301)
(16.1339 0.636874 -0.488788)
(16.1164 0.556064 -0.603416)
(16.1015 0.496929 -0.52436)
(16.089 0.449458 -0.619155)
(16.0724 0.409016 -0.822448)
(16.0565 0.3768 -0.864623)
(16.0459 0.352799 -0.719458)
(16.0417 0.334973 -0.509593)
(16.0439 0.32134 -0.353968)
(16.0513 0.31087 -0.327491)
(16.0633 0.302193 -0.447098)
(16.0802 0.294 -0.737866)
(16.0999 0.285149 -1.24232)
(16.1176 0.27365 -1.99217)
(16.1341 0.256821 -2.87118)
(16.1626 0.232037 -3.48286)
(16.2576 0.203409 -3.52306)
(16.3873 0.176561 -3.25862)
(16.5913 0.16001 -2.79353)
(16.7483 0.130381 -1.99582)
(15.7677 0.0351621 -0.950389)
(16.1727 -0.739519 4.22979)
(17.7164 -0.428527 9.48543)
(18.0813 -0.0781451 11.9906)
(17.9051 0.00701941 13.1557)
(17.741 -0.0566557 13.9527)
(17.719 -0.18473 14.5835)
(17.6623 -0.300054 14.9357)
(17.4206 -0.381605 15.0407)
(16.9702 -0.436777 14.9502)
(16.3643 -0.467043 14.7012)
(15.6814 -0.475484 14.3804)
(14.9863 -0.469119 14.0388)
(14.3186 -0.455168 13.6461)
(13.6921 -0.439329 13.1438)
(13.1044 -0.42403 12.5979)
(12.5535 -0.407075 12.0617)
(12.0283 -0.378043 11.6039)
(11.5531 -0.32573 11.5404)
(11.1909 -0.265942 11.5884)
(10.932 -0.218239 11.5557)
(10.7539 -0.189204 11.5445)
(10.6464 -0.178 11.6383)
(10.6016 -0.176857 11.7734)
(10.6001 -0.17112 11.823)
(10.6306 -0.140807 11.9017)
(10.7252 -0.0653142 12.3952)
(10.9147 0.0669213 13.4141)
(11.1404 0.213705 14.7738)
(11.2314 0.244811 15.9447)
(10.9233 0.111052 16.406)
(10.1618 -0.0842662 16.2812)
(9.13611 -0.224401 15.693)
(8.18641 -0.264685 15.3364)
(7.54667 -0.216967 15.0692)
(7.36389 -0.135537 15.3545)
(7.39369 -0.105617 14.855)
(16.0343 -1.16451 -0.1331)
(16.1402 -0.899087 0.198743)
(16.1498 -0.747159 0.389259)
(16.1331 -0.640136 0.53039)
(16.1136 -0.561705 0.578765)
(16.0945 -0.505778 0.355174)
(16.0815 -0.462479 -0.0596098)
(16.0814 -0.422115 -0.328364)
(16.0781 -0.397025 -0.0858889)
(16.057 -0.379775 0.380651)
(16.0391 -0.363017 0.66686)
(16.034 -0.347723 0.719682)
(16.0389 -0.334636 0.670899)
(16.0506 -0.324508 0.535389)
(16.0686 -0.31777 0.253768)
(16.0914 -0.310643 -0.19197)
(16.1134 -0.298408 -0.738804)
(16.1206 -0.28163 -1.25072)
(16.0976 -0.260143 -1.46925)
(16.0183 -0.233921 -1.29442)
(15.8669 -0.204834 -1.00174)
(15.654 -0.177291 -0.665658)
(15.4051 -0.157397 -0.122509)
(15.1313 -0.168873 0.79328)
(14.9981 -0.193544 1.8217)
(15.0072 -0.193568 2.32125)
(15.0593 -0.134081 2.5026)
(15.4676 0.0461854 3.31022)
(16.4761 0.201559 5.58322)
(17.3233 0.263127 8.07859)
(17.4696 0.297431 9.72381)
(17.0414 0.31871 10.4767)
(16.3394 0.331115 10.6397)
(15.5978 0.333834 10.4887)
(14.9519 0.323223 10.1605)
(14.4664 0.299232 9.80109)
(14.1554 0.267809 9.32253)
(13.9753 0.243951 8.74588)
(13.873 0.227732 8.16509)
(13.8058 0.216207 7.70679)
(13.7527 0.206476 7.4821)
(13.7152 0.193653 7.5742)
(13.7013 0.180074 7.79375)
(13.7037 0.170419 7.99797)
(13.7139 0.167109 8.19563)
(13.7181 0.176988 8.48426)
(13.6969 0.198045 8.97441)
(13.6573 0.216996 9.5515)
(13.6318 0.22542 10.0751)
(13.6538 0.224653 10.6252)
(13.7451 0.21504 11.1786)
(13.9128 0.196009 11.635)
(14.1456 0.172756 11.8918)
(14.3889 0.153757 11.8649)
(14.5735 0.143555 11.6591)
(14.6402 0.147137 11.265)
(14.6055 0.160458 10.8505)
(14.4088 0.173459 10.261)
(14.1977 0.192332 10.185)
(13.732 0.218452 9.50469)
(16.0317 0.422566 -0.0389422)
(16.016 0.529233 0.145351)
(16.0033 0.522851 0.246756)
(15.9938 0.496868 0.327852)
(15.9877 0.469059 0.355632)
(15.9857 0.448281 0.181264)
(15.9963 0.430076 -0.171346)
(16.0206 0.403595 -0.403937)
(16.043 0.380717 -0.175102)
(16.0511 0.362832 0.261953)
(16.0568 0.348405 0.539222)
(16.0723 0.337097 0.601884)
(16.0976 0.328515 0.574029)
(16.1294 0.32063 0.457209)
(16.1669 0.312093 0.184179)
(16.21 0.299603 -0.256353)
(16.2525 0.282743 -0.804223)
(16.2816 0.268847 -1.35228)
(16.2834 0.26886 -1.646)
(16.2284 0.283674 -1.5621)
(16.0964 0.307148 -1.35962)
(15.8965 0.326671 -1.08856)
(15.647 0.342948 -0.569852)
(15.3952 0.305685 0.369762)
(15.2388 0.249956 1.42937)
(15.2676 0.257708 1.98567)
(15.326 0.358698 2.09599)
(15.475 0.574728 2.24093)
(16.0289 0.713374 3.44866)
(17.1005 0.643402 5.81058)
(18.2818 0.491606 8.36036)
(19.1714 0.345173 10.3075)
(19.6665 0.216937 11.4655)
(19.8322 0.0988436 11.9698)
(19.7731 -0.0133059 12.0029)
(19.5864 -0.1168 11.7635)
(19.3532 -0.190769 11.2931)
(19.1222 -0.232255 10.7176)
(18.9063 -0.25314 10.169)
(18.7113 -0.259932 9.74633)
(18.5297 -0.259331 9.52481)
(18.3607 -0.264276 9.56671)
(18.2159 -0.270723 9.75075)
(18.1006 -0.271135 9.96841)
(18.0185 -0.271605 10.2135)
(17.9607 -0.271844 10.5501)
(17.9068 -0.271598 11.0461)
(17.8642 -0.279421 11.5882)
(17.8659 -0.301364 12.0494)
(17.9329 -0.333441 12.4699)
(18.063 -0.369398 12.8285)
(18.2541 -0.398761 13.0956)
(18.5212 -0.400738 13.2745)
(18.8545 -0.356048 13.3772)
(19.1928 -0.265895 13.4978)
(19.3991 -0.16094 13.5136)
(19.3654 -0.0577236 13.3942)
(19.0539 0.0229545 13.012)
(18.6083 0.0964284 12.8969)
(17.9288 0.0445602 12.1959)
(15.9618 -0.0861454 -0.0732759)
(15.9279 -0.182217 0.123069)
(15.9245 -0.254628 0.298235)
(15.9358 -0.293252 0.426564)
(15.9511 -0.308401 0.48688)
(15.9669 -0.305667 0.366552)
(15.9809 -0.298461 0.00547958)
(16.0092 -0.299265 -0.308812)
(16.0399 -0.303742 -0.151771)
(16.0524 -0.308204 0.250137)
(16.0625 -0.309362 0.493331)
(16.083 -0.30726 0.504484)
(16.1117 -0.302797 0.422032)
(16.1443 -0.299213 0.250438)
(16.179 -0.298646 -0.0655043)
(16.2222 -0.300485 -0.553606)
(16.267 -0.307003 -1.16651)
(16.3012 -0.305629 -1.82053)
(16.3066 -0.278534 -2.25893)
(16.2454 -0.212539 -2.3235)
(16.0891 -0.118305 -2.24357)
(15.8463 -0.032105 -2.05774)
(15.5354 0.0361782 -1.58909)
(15.2503 -0.0177335 -0.732573)
(15.1306 -0.14478 0.203554)
(15.1356 -0.178373 0.611836)
(15.2254 -0.0587725 0.514771)
(15.3782 0.205989 0.287753)
(15.6409 0.458702 0.543365)
(15.9784 0.536607 1.25816)
(16.3162 0.472501 2.11141)
(16.6255 0.381364 2.89099)
(16.8968 0.312848 3.49698)
(17.087 0.262896 3.87348)
(17.1524 0.21359 4.01738)
(17.1238 0.151666 3.99906)
(17.0964 0.106324 3.85022)
(17.0956 0.0890847 3.61147)
(17.1165 0.0830808 3.3872)
(17.1461 0.0788098 3.25951)
(17.1551 0.0840544 3.3003)
(17.1365 0.0813689 3.56365)
(17.1055 0.0723732 3.92946)
(17.0612 0.0694731 4.29069)
(17.0248 0.0647843 4.6537)
(17.0137 0.0684254 5.09717)
(16.9885 0.0810894 5.65352)
(16.9349 0.0757801 6.18689)
(16.9157 0.0330014 6.61752)
(16.9904 -0.0325345 7.05589)
(17.1401 -0.101752 7.48598)
(17.3083 -0.166349 7.81211)
(17.4861 -0.211967 7.94026)
(17.7097 -0.210696 7.84145)
(18.0168 -0.138579 7.67815)
(18.4091 -0.00215985 7.53881)
(18.8762 0.173633 7.62481)
(19.2468 0.328023 7.72057)
(19.5129 0.454059 8.13823)
(19.5807 0.369526 7.97733)
(15.9954 -0.0053917 -0.0624735)
(15.9884 0.033579 0.0305212)
(15.9968 0.0820269 0.0823686)
(16.0084 0.12535 0.0843664)
(16.0175 0.162176 0.0618644)
(16.0229 0.196661 -0.0235245)
(16.0316 0.220839 -0.314552)
(16.0512 0.239223 -0.590239)
(16.0712 0.246656 -0.481922)
(16.0824 0.252446 -0.163454)
(16.0909 0.260137 0.0175848)
(16.1063 0.267137 -0.0160594)
(16.1296 0.272491 -0.131579)
(16.158 0.274115 -0.330445)
(16.1941 0.269761 -0.66642)
(16.2389 0.257118 -1.17701)
(16.2863 0.237249 -1.85043)
(16.328 0.231005 -2.61073)
(16.3406 0.262326 -3.17673)
(16.2701 0.331534 -3.36742)
(16.0753 0.425955 -3.41121)
(15.7787 0.502718 -3.38234)
(15.439 0.567867 -3.13692)
(15.2359 0.495079 -2.49583)
(15.2864 0.349525 -1.66455)
(15.5238 0.322981 -1.25165)
(15.7988 0.449085 -1.28193)
(16.0354 0.650159 -1.42999)
(16.2477 0.763942 -1.26175)
(16.431 0.712577 -0.897852)
(16.5649 0.559912 -0.516564)
(16.7168 0.403549 -0.147934)
(16.8561 0.265077 0.185911)
(16.8817 0.124014 0.450449)
(16.8116 -0.0299793 0.625752)
(16.6739 -0.159894 0.704673)
(16.5272 -0.235466 0.597892)
(16.395 -0.264756 0.320933)
(16.2844 -0.264546 0.0225436)
(15.927 -0.258649 -0.182325)
(15.6421 -0.26105 -0.205714)
(15.6084 -0.26585 0.0858119)
(15.3593 -0.280199 0.569807)
(14.925 -0.308621 1.04776)
(14.5091 -0.338228 1.49328)
(14.1992 -0.349277 2.00628)
(13.9183 -0.34397 2.62739)
(13.7022 -0.374066 3.22346)
(13.6811 -0.46295 3.72892)
(13.8802 -0.562512 4.26831)
(14.2027 -0.634137 4.81074)
(14.5379 -0.683891 5.26218)
(14.8466 -0.717242 5.5297)
(15.1381 -0.710955 5.56548)
(15.4227 -0.641294 5.49764)
(15.6819 -0.506553 5.30401)
(15.9335 -0.31775 5.14651)
(16.2205 -0.126263 5.00054)
(16.5696 0.0461758 5.27242)
(16.865 0.0990151 5.12211)
(15.9928 -0.00481744 -0.0695104)
(15.9809 -0.0136227 -0.051201)
(15.9808 -0.0347773 -0.0336807)
(15.9883 -0.0665467 -0.0428003)
(15.9987 -0.100672 -0.049646)
(16.0056 -0.127184 -0.0584528)
(16.0131 -0.154679 -0.305816)
(16.0342 -0.187491 -0.621082)
(16.0599 -0.217567 -0.609334)
(16.0769 -0.237824 -0.365497)
(16.0891 -0.248921 -0.202686)
(16.1062 -0.255166 -0.234759)
(16.1297 -0.261244 -0.3651)
(16.1573 -0.268921 -0.612994)
(16.1911 -0.279513 -1.05275)
(16.2334 -0.294855 -1.73481)
(16.2831 -0.312007 -2.66097)
(16.3322 -0.309668 -3.74111)
(16.3479 -0.246093 -4.63497)
(16.2715 -0.095811 -5.09787)
(16.1011 0.11725 -5.34888)
(15.9532 0.306692 -5.4842)
(15.9418 0.437166 -5.39709)
(16.2266 0.28912 -4.9373)
(16.8243 -0.0257359 -4.2598)
(17.4321 -0.159658 -3.78941)
(17.7998 -0.0414853 -3.6243)
(17.9269 0.22293 -3.56079)
(17.9326 0.433269 -3.26254)
(17.8997 0.494859 -2.84937)
(17.8562 0.448648 -2.46053)
(17.8329 0.365893 -2.10634)
(17.8361 0.272883 -1.82091)
(17.8167 0.169313 -1.63426)
(17.7041 0.0671281 -1.5304)
(17.4673 0.00704787 -1.47053)
(17.1499 0.00338802 -1.53252)
(16.8208 0.0404361 -1.72483)
(16.5393 0.0949984 -1.92015)
(16.3256 0.144303 -2.03841)
(16.18 0.172352 -2.00127)
(16.0896 0.188851 -1.69629)
(16.0201 0.187115 -1.23921)
(15.9257 0.160188 -0.79935)
(15.8226 0.139694 -0.354285)
(15.7659 0.11918 0.199095)
(15.6299 0.0287584 0.858786)
(15.57 -0.151083 1.46134)
(15.6622 -0.363275 1.9689)
(15.8019 -0.529026 2.54829)
(15.867 -0.618984 3.20302)
(15.8492 -0.661162 3.85647)
(15.834 -0.682247 4.37897)
(15.8875 -0.664231 4.67351)
(16.001 -0.572211 4.84605)
(16.1144 -0.405298 4.861)
(16.1789 -0.196801 4.82005)
(16.1442 -0.00368544 4.60402)
(16.0642 0.146261 4.64317)
(15.9536 0.232062 4.20438)
(15.9917 0.00502587 -0.0772479)
(15.9788 0.00545032 -0.126282)
(15.9784 0.0258868 -0.161667)
(15.9851 0.0584108 -0.229049)
(15.9965 0.0945185 -0.29333)
(16.0048 0.132735 -0.303682)
(16.0112 0.170618 -0.541551)
(16.0301 0.200713 -0.890025)
(16.0555 0.218403 -0.974804)
(16.0747 0.229513 -0.832081)
(16.0897 0.240968 -0.721214)
(16.1082 0.252307 -0.775295)
(16.1323 0.25835 -0.948977)
(16.161 0.258068 -1.27557)
(16.1971 0.250585 -1.83801)
(16.2439 0.233966 -2.70627)
(16.3042 0.21276 -3.9116)
(16.3757 0.217105 -5.38112)
(16.4337 0.287995 -6.74799)
(16.4656 0.421633 -7.72257)
(16.5401 0.572513 -8.48108)
(16.7755 0.640935 -9.02643)
(17.158 0.643234 -9.19483)
(17.7338 0.43989 -8.83318)
(18.4598 0.157311 -7.98089)
(19.0505 0.147969 -7.03758)
(19.2838 0.378644 -6.19918)
(19.23 0.628038 -5.50905)
(19.0649 0.746447 -4.78047)
(18.9039 0.710997 -4.13557)
(18.7929 0.579733 -3.66551)
(18.7475 0.429392 -3.30816)
(18.7434 0.295763 -3.04502)
(18.7288 0.180015 -2.88741)
(18.6705 0.0854121 -2.80718)
(18.5839 0.0236495 -2.78118)
(18.52 -0.0105042 -2.85083)
(18.5239 -0.0322196 -3.02129)
(18.601 -0.0542114 -3.19478)
(18.721 -0.0820124 -3.30204)
(18.8405 -0.108816 -3.25862)
(18.9148 -0.115295 -2.94174)
(18.9231 -0.116141 -2.48388)
(18.8651 -0.121258 -2.03403)
(18.768 -0.125493 -1.57102)
(18.6791 -0.157474 -1.03237)
(18.5938 -0.261232 -0.380779)
(18.4819 -0.431842 0.29264)
(18.2571 -0.59769 0.91388)
(17.9527 -0.678569 1.62066)
(17.5926 -0.691695 2.39251)
(17.1673 -0.732934 3.17447)
(16.7327 -0.819596 3.90862)
(16.4283 -0.867698 4.52955)
(16.3248 -0.817662 5.09416)
(16.3591 -0.662513 5.47302)
(16.4276 -0.436832 5.73766)
(16.432 -0.198513 5.76074)
(16.3936 -0.00517763 5.93328)
(16.3027 0.0936256 5.58961)
(15.9936 0.00539007 -0.0806953)
(15.9876 -0.0521077 -0.166954)
(16.0003 -0.107977 -0.195537)
(16.0139 -0.155276 -0.245341)
(16.0266 -0.191892 -0.286336)
(16.034 -0.212628 -0.237515)
(16.0382 -0.227252 -0.39295)
(16.0511 -0.240984 -0.677585)
(16.0692 -0.254258 -0.771322)
(16.0839 -0.262947 -0.676709)
(16.0965 -0.264273 -0.59316)
(16.1119 -0.260154 -0.651277)
(16.1319 -0.256899 -0.855284)
(16.1559 -0.255633 -1.25197)
(16.1865 -0.256694 -1.93677)
(16.2277 -0.262176 -3.02054)
(16.2909 -0.270131 -4.59558)
(16.3946 -0.250547 -6.57599)
(16.5331 -0.14946 -8.36319)
(16.6864 0.0253194 -9.47506)
(16.8882 0.206626 -10.1466)
(17.2335 0.281722 -10.602)
(17.6799 0.276539 -10.8191)
(18.2612 -0.0865412 -10.6798)
(19.0534 -0.708627 -10.1836)
(19.7376 -0.909258 -9.51453)
(20.0241 -0.621194 -8.75784)
(20.0136 -0.0921242 -7.98009)
(19.9481 0.276299 -7.14575)
(19.9573 0.417947 -6.41013)
(20.0734 0.406128 -5.89141)
(20.2721 0.333505 -5.50147)
(20.4845 0.256607 -5.18551)
(20.6432 0.189906 -4.93656)
(20.7182 0.13756 -4.72018)
(20.7175 0.104684 -4.51759)
(20.6691 0.0889744 -4.35819)
(20.5955 0.0847133 -4.25829)
(20.4988 0.0923736 -4.14891)
(20.3711 0.112872 -3.99185)
(20.2079 0.146898 -3.72479)
(20.0086 0.192717 -3.2087)
(19.7797 0.227695 -2.58381)
(19.5347 0.243249 -1.98284)
(19.3025 0.235704 -1.39578)
(19.1172 0.18616 -0.774499)
(18.9993 0.0838467 -0.125092)
(18.8006 -0.0495413 0.484736)
(18.4301 -0.184762 1.11201)
(17.9231 -0.284343 1.90585)
(17.3102 -0.286316 2.87701)
(16.5806 -0.233327 4.04089)
(15.9667 -0.247689 5.3363)
(15.8014 -0.359198 6.56873)
(16.0339 -0.444411 7.64034)
(16.3903 -0.400021 8.31333)
(16.6977 -0.238208 8.67428)
(16.8614 -0.0379089 8.62203)
(16.9208 0.11065 8.56069)
(16.8226 0.202845 7.96275)
(15.9545 0.0873113 -0.0946739)
(15.9174 0.180068 -0.303796)
(15.9211 0.24947 -0.44899)
(15.9358 0.284703 -0.631823)
(15.9583 0.299726 -0.801528)
(15.976 0.307282 -0.806921)
(15.9856 0.308693 -1.00745)
(16.0055 0.306045 -1.34979)
(16.0335 0.300811 -1.51701)
(16.0582 0.296367 -1.48206)
(16.0791 0.295235 -1.40265)
(16.1001 0.296897 -1.40629)
(16.1242 0.298216 -1.54039)
(16.1529 0.300331 -1.85128)
(16.1881 0.304599 -2.41638)
(16.2321 0.310209 -3.34246)
(16.2935 0.31571 -4.76219)
(16.3996 0.326745 -6.64543)
(16.5532 0.350862 -8.38842)