/*--------------------------------*- C++ -*----------------------------------*\
  =========                 |
  \\      /  F ield         | OpenFOAM: The Open Source CFD Toolbox
   \\    /   O peration     | Website:  https://openfoam.org
    \\  /    A nd           | Version:  8
     \\/     M anipulation  |
\*---------------------------------------------------------------------------*/
FoamFile
{
    version     2.0;
    format      ascii;
    class       volScalarField;
    location    "100";
    object      alphat;
}
// * * * * * * * * * * * * * * * * * * * * * * * * * * * * * * * * * * * * * //

dimensions      [1 -1 -1 0 0 0 0];

internalField   nonuniform List<scalar> 
1200
(
0.00940186
0.00932455
0.00984589
0.0108537
0.0108099
0.0111348
0.0121451
0.0131873
0.0141082
0.0148646
0.0152681
0.0150885
0.0145415
0.0144347
0.0147092
0.0150122
0.0153616
0.00598621
0.00601531
0.00610874
0.0062576
0.00642561
0.00660851
0.0069003
0.00717615
0.00732586
0.00724072
0.00741873
0.012901
0.0142598
0.0156873
0.0163866
0.0164626
0.0170445
0.017668
0.0182568
0.0187853
0.0192146
0.0195294
0.0197461
0.019917
0.0200971
0.02067
0.0215899
0.0226279
0.0237153
0.0247501
0.02556
0.0263565
0.0271319
0.0280217
0.0290795
0.0303384
0.031853
0.0336708
0.0358236
0.0382725
0.0409782
0.0438208
0.0466943
0.0073106
0.00639247
0.0062705
0.00722592
0.00820191
0.0096567
0.0126946
0.0136791
0.0137933
0.0139348
0.0138992
0.0136715
0.0134199
0.0133583
0.0134226
0.0135727
0.0139276
0.0144681
0.0147487
0.0146995
0.0149026
0.0150377
0.0150773
0.0153841
0.0159719
0.0037702
0.00379506
0.00381892
0.00415115
0.00410448
0.00436169
0.00490367
0.00541532
0.00589825
0.00654428
0.00729842
0.00759489
0.00748439
0.00688895
0.00580395
0.00460543
0.00417242
0.00428822
0.00462685
0.00512771
0.00582738
0.00653929
0.00703225
0.00722573
0.00762393
0.00840002
0.00973563
0.0117324
0.0137191
0.0155957
0.0176328
0.0198783
0.0223298
0.0249975
0.0279969
0.00729901
0.00629698
0.00570537
0.00580744
0.00906156
0.0113931
0.0120128
0.0122569
0.0122842
0.0122309
0.0120507
0.0117806
0.0117928
0.0120954
0.0123701
0.0126814
0.0130553
0.0134299
0.0138045
0.0141398
0.0143695
0.0144072
0.0144012
0.0144381
0.0145425
0.0146626
0.0148067
0.0149114
0.0149154
0.0146912
0.0148832
0.0157617
0.00387226
0.00417127
0.00495967
0.00576627
0.00573367
0.00519611
0.0046509
0.00398472
0.0152222
0.0147139
0.0146912
0.0147503
0.0149268
0.0155269
0.0162074
0.00403365
0.00428296
0.00448028
0.00471685
0.00512004
0.00602198
0.00688959
0.00742745
0.00789478
0.0109048
0.0155437
0.019639
0.0256422
0.00729739
0.0062853
0.0054874
0.0051368
0.00651973
0.00927784
0.00996653
0.00969282
0.00942823
0.00954494
0.00935563
0.00933053
0.0101283
0.0108972
0.0110503
0.0114528
0.012159
0.0124345
0.0126217
0.0128196
0.0130186
0.0132017
0.0133455
0.0134465
0.0135383
0.0136546
0.0138092
0.0139358
0.0139075
0.0137908
0.0137447
0.0138142
0.0141223
0.0148756
0.00392928
0.00470229
0.00490608
0.00481946
0.0046399
0.00425439
0.00379752
0.015309
0.0149901
0.0149023
0.0152599
0.00392643
0.00384129
0.0157278
0.0154054
0.0153789
0.0154888
0.0160013
0.00402885
0.00426719
0.00396862
0.00432055
0.00569767
0.00816457
0.0105908
0.016669
0.00729674
0.00629164
0.00546063
0.00494665
0.00543845
0.00721263
0.00818265
0.00816575
0.00878847
0.00918506
0.00823832
0.00838398
0.00983224
0.0114648
0.0123051
0.0125936
0.0127233
0.0128725
0.0129304
0.0129082
0.0128749
0.0128613
0.0128491
0.0128472
0.0128671
0.0129517
0.013116
0.0132638
0.0132701
0.0131282
0.0130809
0.0132009
0.013459
0.0139951
0.014997
0.00412035
0.00439333
0.00458867
0.00468832
0.00457983
0.00408896
0.0161317
0.0153723
0.0150275
0.0153744
0.00434568
0.00444825
0.00415077
0.00381831
0.0155039
0.0150959
0.0148873
0.0149827
0.0155935
0.00364215
0.00372665
0.00456414
0.00653683
0.00923368
0.0128135
0.00729872
0.00629885
0.00546241
0.00487595
0.00488549
0.00580224
0.00652674
0.00665424
0.00670563
0.00649464
0.00602384
0.00562645
0.00606312
0.00873803
0.0112731
0.0121156
0.0125083
0.0127046
0.0127454
0.0126645
0.0125094
0.012304
0.0120674
0.0118465
0.0116525
0.0117143
0.0120055
0.0122931
0.0124165
0.0124917
0.0128504
0.0130414
0.0129661
0.0131939
0.0140305
0.00363468
0.00400619
0.00425656
0.00439739
0.00440951
0.00424275
0.00392177
0.0160598
0.0151434
0.00355063
0.00472369
0.00509924
0.00476382
0.00434682
0.00396684
0.00366204
0.0154097
0.0151854
0.0151079
0.0151191
0.0158215
0.00404261
0.00529231
0.00721188
0.00916047
0.00729968
0.00630381
0.00547188
0.00483741
0.00459143
0.00489159
0.00524257
0.00535789
0.00527091
0.00503359
0.00473166
0.00445865
0.00432801
0.00458029
0.00580723
0.0081808
0.0103371
0.0115037
0.0120052
0.0121792
0.0122551
0.0122174
0.0116527
0.0110942
0.0105072
0.0102958
0.0105161
0.0110458
0.011492
0.0120675
0.01295
0.0137179
0.0137242
0.0129727
0.012683
0.0140813
0.00366135
0.00380191
0.00387681
0.00388574
0.00381514
0.00367844
0.0154633
0.015125
0.00373232
0.0051509
0.00577767
0.0052321
0.00466605
0.00417486
0.00381401
0.015912
0.00363877
0.00351426
0.0152158
0.015263
0.003651
0.00433274
0.00550372
0.00639234
0.00730134
0.00630937
0.00548506
0.00482716
0.00443043
0.00436554
0.00440659
0.00439218
0.00427819
0.00408344
0.00386322
0.00365183
0.00345613
0.0032756
0.00326603
0.00395747
0.00543364
0.00701793
0.00826316
0.00912756
0.009839
0.0105122
0.0107767
0.0106711
0.0103699
0.00994939
0.00970421
0.00977568
0.0103254
0.0116013
0.0133264
0.0149196
0.0154699
0.0150894
0.0145212
0.0136924
0.0138945
0.0149357
0.0154845
0.0156213
0.0153976
0.0150314
0.0148588
0.0154179
0.00396854
0.00573446
0.00660002
0.00559107
0.00493803
0.00407404
0.00426835
0.0053218
0.00599912
0.00540804
0.00617408
0.00730253
0.00830732
0.00808359
0.00764853
0.00924317
0.00731144
0.00633923
0.0055359
0.00488891
0.00441976
0.0041582
0.00400805
0.00388311
0.0037452
0.00359307
0.00345291
0.00337164
0.00326351
0.00316986
0.00310641
0.0031887
0.00357569
0.00417895
0.00480631
0.00537292
0.00593481
0.00660096
0.0072213
0.00750159
0.00745199
0.00776961
0.00837962
0.00946748
0.011361
0.0141649
0.00374676
0.0039802
0.00403633
0.00385826
0.0154889
0.0146619
0.0141492
0.0139707
0.01394
0.0140129
0.0140973
0.0142275
0.0154043
0.00385533
0.00447467
0.00660512
0.00777438
0.0062178
0.00615824
0.00678387
0.00756091
0.0084716
0.00937731
0.0101785
0.010895
0.0118406
0.0131098
0.014884
0.0175198
0.0231976
0.0093847
0.00929078
0.00915499
0.00889291
0.00853647
0.00834811
0.00840117
0.00863662
0.00906906
0.00970335
0.0104626
0.0112747
0.0121494
0.01289
0.0133701
0.0135699
0.0136645
0.0138725
0.0142762
0.0148427
0.015648
0.00604676
0.00608723
0.00622388
0.00646285
0.00670091
0.00694203
0.00719965
0.0075023
0.00785792
0.00819675
0.00833902
0.00820533
0.00795232
0.00758209
0.00730112
0.00719299
0.00716255
0.00719754
0.00730696
0.00750406
0.00786282
0.00833721
0.00882797
0.00919214
0.0129621
0.0167615
0.0170859
0.0171156
0.017342
0.0179905
0.0189604
0.0200003
0.0209108
0.0218103
0.02302
0.0247142
0.0269701
0.0307385
0.0399513
0.00940348
0.00932957
0.00992731
0.0110063
0.0108975
0.0111071
0.0120589
0.0130946
0.0140229
0.0147972
0.0152347
0.0151052
0.0145683
0.0144302
0.0146909
0.0149859
0.0153361
0.00591192
0.015638
0.0060987
0.00623328
0.00639623
0.0065702
0.00684938
0.00713432
0.00729645
0.00722495
0.00743852
0.011009
0.0127689
0.0152604
0.016993
0.0167224
0.0171412
0.0177138
0.0182561
0.018749
0.0191514
0.019453
0.0196753
0.0198714
0.0200984
0.020685
0.0215823
0.022582
0.0236355
0.024669
0.0254772
0.0262737
0.0270514
0.0279342
0.0289987
0.0302982
0.0318495
0.0336785
0.035813
0.0382427
0.0409396
0.0437834
0.0466637
0.00732302
0.00640459
0.0062037
0.00699339
0.00801264
0.00949054
0.0125507
0.0136089
0.0137216
0.0138676
0.0138374
0.0136065
0.0133404
0.0132654
0.0133264
0.0134678
0.0138146
0.0143589
0.014645
0.0145966
0.0147971
0.0149403
0.0149755
0.0153118
0.016117
0.00376951
0.00381319
0.00387073
0.00422619
0.00426944
0.00470797
0.00530552
0.00554525
0.00588998
0.00650123
0.00718976
0.00743625
0.0072697
0.00663014
0.00553963
0.00441898
0.00410983
0.00425338
0.00459292
0.00509003
0.00578482
0.00650015
0.00700089
0.00720044
0.00762982
0.0085199
0.0100218
0.0119994
0.013748
0.0153676
0.0170711
0.0192872
0.0218363
0.0245824
0.0279994
0.00729861
0.0062937
0.00566072
0.00567264
0.00901074
0.011348
0.0119539
0.0121932
0.0122138
0.0121592
0.011976
0.0116977
0.0116815
0.0119827
0.0122534
0.0125657
0.012952
0.0133383
0.0137191
0.0140486
0.0142667
0.0143066
0.0143124
0.0143743
0.0145129
0.0146608
0.0148419
0.014979
0.0150605
0.0148643
0.0153186
0.00372349
0.00385487
0.00415129
0.00494032
0.00561591
0.00555412
0.00510007
0.00471631
0.00406562
0.01544
0.0147956
0.0147676
0.0148319
0.0149888
0.015412
0.0160168
0.0040559
0.00433754
0.00455761
0.00486493
0.00540369
0.00637028
0.00709334
0.00720365
0.00774123
0.0108451
0.0151883
0.0188911
0.0253155
0.00729715
0.00628322
0.0054887
0.00511765
0.00646347
0.00922179
0.00991046
0.00963471
0.0094887
0.00960799
0.00941323
0.00942534
0.010232
0.0109688
0.0111022
0.0115373
0.0122466
0.0125289
0.0127141
0.0129072
0.0131036
0.0132814
0.0134092
0.0134936
0.0135691
0.0136727
0.013823
0.0139599
0.0139608
0.0138755
0.0138377
0.013928
0.0142462
0.0149468
0.0038811
0.00470491
0.0049219
0.00492983
0.00476287
0.00434727
0.00384167
0.0153712
0.0150536
0.0149991
0.0153608
0.00390794
0.00380552
0.0155866
0.0153095
0.0152681
0.0153367
0.0157782
0.00405657
0.00427377
0.00389634
0.00369533
0.00429534
0.00570427
0.007864
0.0119981
0.00729923
0.00629286
0.00546582
0.00496735
0.00541707
0.00715691
0.00813471
0.00821639
0.0088695
0.0092561
0.00831345
0.00850001
0.00997548
0.0115832
0.0123902
0.012671
0.0128031
0.0129509
0.0130105
0.012989
0.0129529
0.012933
0.0129089
0.012893
0.0128993
0.0129746
0.0131383
0.0132964
0.0133289
0.0132075
0.0131972
0.0133212
0.0136085
0.0141683
0.0150479
0.00417892
0.00447856
0.00471745
0.00480873
0.0046598
0.00412489
0.00373267
0.0153902
0.0151251
0.0156082
0.0043665
0.00440102
0.00409154
0.00378383
0.0154498
0.0150867
0.0149071
0.0150099
0.0156534
0.0036669
0.00367045
0.00397398
0.00528287
0.00772015
0.0108837
0.00730147
0.00630131
0.00546553
0.00489301
0.00490281
0.00576917
0.00649217
0.00670228
0.00680464
0.00658801
0.00608431
0.00568711
0.00619039
0.00895334
0.011412
0.0121878
0.0125789
0.0127774
0.0128215
0.0127434
0.0125892
0.0123778
0.0121258
0.0118819
0.011665
0.0117269
0.0120201
0.0123101
0.012455
0.0126239
0.0129764
0.0131086
0.0130299
0.0133322
0.01421
0.01606
0.00411742
0.00438611
0.00452927
0.00451973
0.0043115
0.00396314
0.0159071
0.0152169
0.00367724
0.00481622
0.00509033
0.00472509
0.00430577
0.00393561
0.00371727
0.0154538
0.0152431
0.0151873
0.0152609
0.0155075
0.00381905
0.00472718
0.00656811
0.00830417
0.00730148
0.00630718
0.00547313
0.0048461
0.00461006
0.00489464
0.00524104
0.00538102
0.00530918
0.00507721
0.00477881
0.00450787
0.00439027
0.00469119
0.00605031
0.00849575
0.0105489
0.0116262
0.0120942
0.0122628
0.0123362
0.0122872
0.0117098
0.0111161
0.0105206
0.0103567
0.0106014
0.0111561
0.0117167
0.0123708
0.0132645
0.0138913
0.0137262
0.0129242
0.0127669
0.0143206
0.00374635
0.00391038
0.00399734
0.00401369
0.00392876
0.00375868
0.0156894
0.0151779
0.00377932
0.00529357
0.0057967
0.00520624
0.00463006
0.00415165
0.00379493
0.0158021
0.0036775
0.00363697
0.0154789
0.0153426
0.016062
0.00417018
0.00517153
0.00591805
0.00730122
0.00630906
0.00548415
0.00482864
0.00444046
0.00437724
0.00442247
0.00441398
0.00429689
0.00409224
0.00385809
0.00364142
0.00344131
0.00327647
0.00333666
0.0041206
0.00563057
0.00719259
0.00840202
0.00924666
0.009959
0.0106349
0.0108725
0.0107371
0.0103936
0.00997812
0.00979368
0.00999787
0.0107274
0.0121132
0.013862
0.0152868
0.0155912
0.0151002
0.0145262
0.0138275
0.0138847
0.0147986
0.0156719
0.0157201
0.0153727
0.0149443
0.0147452
0.0152581
0.00400674
0.00591557
0.0066246
0.00554831
0.00487802
0.00414098
0.00420721
0.00522524
0.00591243
0.00532484
0.00606694
0.00715647
0.00802253
0.00764007
0.00725536
0.00855788
0.0073121
0.00633909
0.005535
0.00488675
0.00441789
0.00415622
0.00400633
0.003879
0.00373558
0.00357697
0.00348855
0.00343413
0.00330308
0.00317856
0.00309814
0.00317662
0.00356528
0.00416894
0.00479662
0.00537208
0.00596233
0.00666337
0.00729137
0.0075441
0.00760049
0.00802999
0.00879457
0.0100818
0.0121866
0.0149953
0.00384207
0.00403741
0.00404258
0.00382267
0.0153293
0.0145543
0.014073
0.0139116
0.0138669
0.0138531
0.013836
0.0139499
0.0151831
0.00382857
0.00454391
0.00684228
0.00778144
0.00618662
0.00615182
0.00684974
0.00766596
0.00862361
0.0096129
0.0105482
0.011465
0.0125978
0.0140602
0.0160462
0.0190237
0.0242905
0.00939377
0.00930916
0.0091703
0.00887963
0.00854208
0.00836597
0.00841035
0.00867371
0.00913625
0.00979139
0.0105263
0.0113329
0.0122262
0.0129721
0.0134464
0.0136485
0.0137633
0.0140019
0.0144406
0.0150375
0.0157251
0.00608292
0.0061335
0.00627998
0.00651171
0.00674593
0.00698834
0.00726152
0.00759404
0.00797196
0.00829052
0.00836293
0.00818391
0.00793424
0.00756795
0.00731264
0.00721864
0.00718726
0.00721972
0.00733265
0.00754348
0.00793613
0.00844519
0.00894695
0.00928488
0.0134877
0.0170128
0.0173459
0.0173449
0.0175258
0.0181653
0.0191297
0.0201611
0.0210831
0.0220227
0.0232852
0.025048
0.0273878
0.0312376
0.040491
)
;

boundaryField
{
    wall
    {
        type            compressible::alphatJayatillekeWallFunction;
        Prt             0.85;
        value           uniform 0;
    }
    inlet
    {
        type            calculated;
        value           uniform 0.189515;
    }
    outlet
    {
        type            calculated;
        value           nonuniform List<scalar> 
20
(
8.06525
8.06525
8.06525
0.016669
0.0128136
0.00916056
0.00639233
0.00924296
8.06525
0.0399513
8.06525
8.06525
8.06525
0.0119977
0.0108836
0.00830412
0.00591799
0.00855768
8.06525
0.0404908
)
;
    }
    heatWall
    {
        type            compressible::alphatJayatillekeWallFunction;
        Prt             0.85;
        value           nonuniform List<scalar> 
240
(
0.000413446
0.000413726
0.000410216
0.000410871
0.000405565
0.000406148
0.000396484
0.000396049
0.000384043
0.000384254
0.000377406
0.000378042
0.000379412
0.000379718
0.000387885
0.000389202
0.00040324
0.000405578
0.000425321
0.000428276
0.000451052
0.000453123
0.000478046
0.000479978
0.000506577
0.000509116
0.000530041
0.000532639
0.000544812
0.000547181
0.000550905
0.000553379
0.000554209
0.000557375
0.000561286
0.000565466
0.000574389
0.000579625
0.000591996
0.000597728
0.000605932
0.000609668
0.000608807
0.000613023
0.000617186
0.000621969
0.000635468
0.000641406
0.000663637
0.000669132
0.000692127
0.000697812
0.000722071
0.000728966
0.000755757
0.00076526
0.000794864
0.000807306
0.000836248
0.000849184
0.000868104
0.000876415
0.00087337
0.000874277
0.000853782
0.00085202
0.000826033
0.000825122
0.00078486
0.000784952
0.000756752
0.000759515
0.00074578
0.000749486
0.000741473
0.000744835
0.000745141
0.000748349
0.000758321
0.000762201
0.000783411
0.000789433
0.000830443
0.000840805
0.000889326
0.000902905
0.000945319
0.000958952
0.000981356
0.000991001
0.0014583
0.00151252
0.00184701
0.00187405
0.00188623
0.001916
0.00188632
0.00191349
0.00190477
0.00192643
0.0019736
0.00199342
0.00207894
0.00209798
0.00219176
0.00220987
0.00229257
0.00231147
0.00239492
0.00241691
0.00253242
0.00255835
0.00272471
0.0027555
0.00297856
0.00301479
0.00339692
0.0034434
0.00439779
0.00445573
0.000414054
0.000414137
0.0004115
0.000411691
0.000431269
0.000434219
0.00046681
0.000471997
0.000464476
0.000467307
0.000475069
0.000474112
0.000507776
0.000504996
0.000540159
0.000537305
0.00056832
0.000565773
0.000591009
0.000589015
0.000602359
0.000601436
0.000595747
0.000596335
0.000579138
0.000579886
0.000576663
0.00057643
0.000585287
0.000584679
0.00059465
0.000593824
0.000605082
0.000604357
0.000607398
0.000605197
0.000608007
0.000609984
0.000620103
0.000618116
0.000638272
0.000635118
0.000658176
0.000654487
0.000680461
0.000675606
0.000714929
0.00070892
0.000745141
0.000740189
0.000760276
0.000756869
0.000748641
0.000746794
0.000723266
0.000719609
0.00104474
0.000879138
0.00117535
0.0010007
0.0013728
0.00123302
0.00158578
0.00154169
0.00171441
0.00173367
0.00179897
0.00181858
0.00188399
0.00189676
0.00196313
0.00196896
0.00203319
0.00203281
0.0020895
0.00208432
0.00212975
0.00212192
0.00215606
0.00214801
0.0021747
0.00216881
0.00219233
0.00219114
0.00224704
0.00224859
0.00234572
0.00234532
0.00246257
0.00245815
0.00258531
0.00257734
0.00269898
0.00269057
0.00278782
0.00277899
0.00287467
0.00286578
0.00295914
0.00295067
0.00305642
0.00304734
0.00317173
0.00316246
0.00330576
0.00329921
0.00346458
0.00346228
0.00365609
0.00365645
0.00388614
0.00388632
0.00414983
0.00414879
0.00444053
0.00443908
0.00474446
0.0047425
0.00504916
0.00504715
)
;
    }
}


// ************************************************************************* //
