/*--------------------------------*- C++ -*----------------------------------*\
  =========                 |
  \\      /  F ield         | OpenFOAM: The Open Source CFD Toolbox
   \\    /   O peration     | Website:  https://openfoam.org
    \\  /    A nd           | Version:  8
     \\/     M anipulation  |
\*---------------------------------------------------------------------------*/
FoamFile
{
    version     2.0;
    format      ascii;
    class       surfaceScalarField;
    location    "100";
    object      phi;
}
// * * * * * * * * * * * * * * * * * * * * * * * * * * * * * * * * * * * * * //

dimensions      [1 0 -1 0 0 0 0];

internalField   nonuniform List<scalar> 
2860
(
0.00792645
-2.87793e-05
-0.0096288
0.0077252
0.000346579
-0.0156415
0.00729426
0.000854606
-0.0424621
0.00800811
-0.000455473
-0.0458133
0.0107994
-0.00290858
-0.0223681
0.0136083
-0.00299307
0.00638142
0.0157571
-0.00238695
0.0258416
0.0170377
-0.0019134
0.0409402
0.0165218
0.000523159
0.0443939
0.0141364
0.00257326
0.0476935
0.0106955
0.00348141
0.0446775
0.00776157
0.00276528
0.0449087
0.00677706
0.000968529
0.0469778
0.00728001
-0.000144149
0.0626826
0.00846047
-0.00117029
0.0821486
0.0110267
-0.00297438
0.088953
0.0150584
-0.00460591
0.0932457
0.0196901
-0.00534996
0.108688
0.0245817
-0.00592507
0.125806
0.0295172
-0.00610572
0.132712
0.0339192
-0.00556515
0.129683
0.0375884
-0.00477511
0.122212
0.0414061
-0.00455337
0.115754
0.0418591
-0.00110468
0.123282
0.0359233
0.00471142
0.134796
0.0249456
0.00923767
0.136035
0.00945241
0.0136378
0.123899
-0.011364
0.0186608
0.0902057
-0.0260154
0.0143607
-0.00254504
-0.0322935
0.00856333
-0.0149073
-0.0360639
0.00790645
-0.0215734
-0.0412043
0.00827882
-0.0122694
-0.0483845
0.00696042
0.00184248
-0.053958
0.00482693
0.0160489
-0.0581882
0.00317642
0.0253762
-0.0632509
0.00403269
0.0373503
-0.0691579
0.00504995
0.0529702
-0.075262
0.00536954
0.066897
-0.0809531
0.00505197
0.0754878
-0.0847479
0.0030514
0.0741677
-0.0858514
0.000162299
0.0692173
-0.0840769
-0.00292164
0.0745697
-0.0805788
-0.00491742
0.0863176
-0.0773777
-0.00453112
0.101459
-0.0750223
-0.00367099
0.118443
-0.0742648
-0.00221351
0.13729
-0.0759121
1.26972e-05
0.16
-0.0787297
0.000832632
0.188406
-0.0813037
0.000301136
0.21905
-0.0828751
-0.000960036
0.250842
-0.0834851
-0.0021564
0.284608
-0.0831509
-0.00320215
0.322888
-0.0826277
-0.00384745
0.367942
-0.0829399
-0.00414386
0.423959
-0.083829
-0.00461475
0.492731
-0.0841271
-0.00532902
0.57552
-0.0835262
-0.00631436
0.670539
-0.083486
-0.00648754
0.786847
-0.0844291
-0.00502443
0.906929
-0.00292857
0.980481
0.00784888
0.000359483
0.00563678
0.00767268
0.00100139
0.0132437
0.00766347
0.0019916
0.0358505
0.00746639
0.000863862
0.0507549
0.00718925
-0.00235927
0.0634599
0.00501773
-0.000758233
0.103883
-0.000786267
0.00283467
0.186105
-0.00653794
0.00275955
0.200041
-0.00990189
0.00296196
0.185046
-0.0118701
0.00386102
0.186246
-0.0129187
0.00389814
0.190254
-0.0128938
0.00190136
0.194113
-0.0115486
-0.00139457
0.185357
-0.00966494
-0.00299483
0.172484
-0.00779767
-0.00394211
0.166043
-0.00564042
-0.00605731
0.155561
-0.00348695
-0.00754143
0.157043
-0.00197994
-0.00745569
0.188235
-0.000927472
-0.00752583
0.202356
0.000473482
-0.00776193
0.180126
0.000141557
-0.00564815
0.170741
-0.00430309
-0.00146891
0.16832
-0.0104403
0.00131852
0.126291
-0.0146377
0.00363903
0.119957
-0.0164978
0.00657214
0.146417
-0.0173392
0.00960094
0.155107
-0.0168133
0.013444
0.148275
-0.0155346
0.0187697
0.127105
-0.0148926
0.0153625
0.102938
-0.0146997
0.00834792
0.115583
-0.0140978
0.00780575
0.132189
-0.0122476
0.00854871
0.136978
-0.0108441
0.00837111
0.123066
-0.0121801
0.00799849
0.0910801
-0.0185069
0.00928119
0.079984
-0.0282258
0.0116192
0.0796452
-0.0370573
0.0118175
0.100592
-0.045272
0.0121457
0.1304
-0.0522338
0.0109631
0.148653
-0.0555266
0.00629449
0.144651
-0.0539798
0.000200076
0.118559
-0.0484142
-0.00617388
0.07918
-0.0413088
-0.0111292
0.0620446
-0.0348371
-0.0105952
0.08084
-0.0295451
-0.00946667
0.122487
-0.0283644
-0.00528222
0.174932
-0.0311334
0.00106093
0.213161
-0.034756
0.00395522
0.225197
-0.038802
0.00479289
0.227863
-0.0429283
0.00448463
0.215093
-0.0471852
0.00491949
0.195659
-0.0525001
0.00677028
0.152597
-0.0622296
0.00895626
0.0932171
-0.0762677
0.00766218
0.0655987
-0.0888362
0.00395509
0.0684176
-0.0995369
0.000463875
0.0791055
-0.11042
0.00111767
0.0864173
-0.125351
0.00826647
0.0945591
-0.140288
0.0113892
0.0950598
0.0311406
0.0721518
0.00788939
0.000540658
0.00908363
0.00760629
0.00138357
0.0110797
0.0071818
0.00293359
0.0244003
0.00283968
0.00551264
0.0378546
-0.0062655
0.00565015
0.114261
-0.0124792
0.0047864
0.138003
-0.0155663
0.00523852
0.137666
-0.0182204
0.00450541
0.147603
-0.0194278
0.00318799
0.146398
-0.0192084
0.00290889
0.143551
-0.0175977
0.00187238
0.135954
-0.0149888
-0.000971584
0.123781
-0.0126103
-0.0033788
0.113782
-0.0113773
-0.00379493
0.113278
-0.0111976
-0.00351203
0.111305
-0.0120304
-0.00429957
0.10952
-0.0139187
-0.00490482
0.112929
-0.0168021
-0.00439484
0.123408
-0.0204843
-0.00402753
0.136265
-0.0245645
-0.00387919
0.146426
-0.0284717
-0.00208575
0.148864
-0.0321061
0.00128726
0.139549
-0.0357077
0.00412167
0.133024
-0.038907
0.00595002
0.126153
-0.0400079
0.00681323
0.120263
-0.0382489
0.00755525
0.115643
-0.0342615
0.0104786
0.110982
-0.0291642
0.0160098
0.105112
-0.0264998
0.0148785
0.101739
-0.025068
0.00765943
0.101988
-0.020879
0.00256072
0.0919582
-0.014625
-0.000312084
0.0875859
-0.00857746
7.25217e-06
0.0914454
-0.00452667
0.00344614
0.0765533
-0.00516221
0.0110536
0.0534752
-0.0110466
0.0175624
0.0286198
-0.0174713
0.0189046
0.0282014
-0.0227045
0.0181848
0.00497787
-0.0279578
0.0133093
-0.0395576
-0.030836
0.00488765
-0.0844845
-0.0310837
-0.0038113
-0.111796
-0.0271634
-0.0115218
-0.109523
-0.0197871
-0.0185592
-0.11334
-0.0102963
-0.0202864
-0.124057
0.00461576
-0.024261
-0.115883
0.0206909
-0.0214184
-0.0935327
0.0290689
-0.00803555
-0.0701073
0.0312611
0.000604035
-0.0260164
0.0293211
0.00420845
0.00926402
0.0257302
0.00535285
0.0235941
0.0223444
0.00545133
0.0468711
0.0200992
0.00621466
0.0905246
0.0174997
0.0093133
0.109641
0.0135867
0.00870868
0.123848
0.00921561
0.00366254
0.158024
0.000282229
0.00294751
0.235413
-0.017025
0.00692282
0.266447
-0.0304485
0.00888982
0.293169
-0.0371483
0.00835917
0.328948
0.0257493
0.27102
0.00793521
0.0006245
0.00322605
0.00782205
0.00150173
-0.00511046
0.00758816
0.00317652
-0.0154397
0.00662277
0.00662424
-0.00563713
0.00203198
0.00982588
0.0366409
-0.00341935
0.00930307
0.0877271
-0.00650245
0.00763463
0.0519743
-0.00765454
0.00578175
0.0209368
-0.00812143
0.00284257
-0.0177025
-0.00625077
0.000940692
-0.0659271
-0.00344763
-0.0010153
-0.111166
-0.00139187
-0.00393925
-0.123146
0.000412825
-0.00603092
-0.114023
0.00247308
-0.00679734
-0.114684
0.00268274
-0.004733
-0.124581
-0.00201929
-0.000571482
-0.12668
-0.00885112
0.00128632
-0.119652
-0.0148495
0.00117173
-0.110267
-0.0205752
0.00119951
-0.101725
-0.0262506
0.00102447
-0.0969237
-0.0317296
0.00223841
-0.0964169
-0.0371083
0.00514419
-0.0953295
-0.0421521
0.00814781
-0.099811
-0.046459
0.00974147
-0.11204
-0.0478164
0.00882043
-0.121145
-0.0452922
0.0075875
-0.117638
-0.0402506
0.00996548
-0.104888
-0.033978
0.0150042
-0.090022
-0.0300789
0.0143524
-0.092022
-0.0269835
0.00592368
-0.112686
-0.0216498
-0.0028886
-0.126075
-0.0153278
-0.00783084
-0.121201
-0.00889219
-0.00814349
-0.109981
-0.00152716
-0.00466134
-0.0842839
0.00524995
0.00731986
-0.0286031
0.00380861
0.0186556
-0.0166001
0.000373271
0.0218218
-0.0229022
-0.00332569
0.0191938
-0.0598206
-0.00764678
0.0134729
-0.107196
-0.0121709
0.00514563
-0.15614
-0.014568
-0.00386269
-0.177542
-0.0110841
-0.014975
-0.15485
-0.0060537
-0.023463
-0.14285
-0.000412904
-0.0259716
-0.129774
0.0103354
-0.034352
-0.111028
0.024289
-0.0346415
-0.105145
0.0354715
-0.0189732
-0.103645
0.0419232
-0.00594306
-0.102213
0.0444931
0.00159835
-0.0924243
0.0450832
0.00498091
-0.0848691
0.045695
0.0055137
-0.0700005
0.0474541
0.00596086
-0.0538219
0.0481459
0.0090459
-0.0299365
0.0447109
0.0106739
-0.00970285
0.0403121
0.01236
-0.000989956
0.0369379
0.0191281
0.0239033
0.0323131
0.0284955
0.0269598
0.0275094
0.0353542
0.0300861
0.0273117
0.0431207
0.015902
0.042285
0.073732
0.00798949
0.000596746
-0.00133588
0.00806124
0.00142002
-0.00954109
0.00818268
0.00304141
-0.0226998
0.00813994
0.00661737
-0.0234278
0.00746389
0.0102589
0.00119053
0.00510333
0.0112138
0.0427901
0.003173
0.00904491
0.023875
0.00304746
0.0061841
-0.0176901
0.00296795
0.0027301
-0.113956
0.00240186
0.000531939
-0.148244
0.00210245
-0.00150297
-0.127342
0.000930528
-0.00326779
-0.143102
-0.00128586
-0.00450035
-0.168638
-0.00396997
-0.0053006
-0.182931
-0.00595654
-0.00388975
-0.17807
-0.00764709
0.000439515
-0.162297
-0.0108458
0.00384547
-0.15845
-0.0157299
0.00512269
-0.168754
-0.0207586
0.00520827
-0.175852
-0.0252595
0.00451002
-0.174266
-0.0293461
0.0051821
-0.170239
-0.0334291
0.00793511
-0.168716
-0.0373496
0.0109422
-0.165237
-0.0405453
0.0120144
-0.169165
-0.041268
0.00889288
-0.17189
-0.0391688
0.00529926
-0.159968
-0.0353907
0.00650313
-0.149307
-0.0297421
0.0102459
-0.143311
-0.0233628
0.00831232
-0.137415
-0.0168317
-0.00118985
-0.129479
-0.0111985
-0.00911913
-0.118953
-0.00761379
-0.0120924
-0.112166
-0.00547972
-0.0112074
-0.109441
-0.00303013
-0.00801597
-0.10318
0.00604723
-0.00037368
-0.0859501
0.0123686
0.0115629
-0.0475672
0.0120338
0.0217325
-0.0433532
0.01083
0.019246
-0.070905
0.00941757
0.0134348
-0.105335
0.00716523
0.00584273
-0.14061
0.00563947
-0.00310159
-0.146362
0.00645573
-0.0150696
-0.128633
0.00631729
-0.0229295
-0.123923
0.00686445
-0.0267534
-0.11618
0.0132549
-0.0400665
-0.0907713
0.0246733
-0.0453977
-0.0862108
0.0348101
-0.0286821
-0.0857832
0.0418132
-0.0126664
-0.0899485
0.0457864
-0.00235819
-0.0986417
0.047353
0.00338268
-0.110751
0.0482565
0.0048565
-0.123554
0.0500837
0.0047247
-0.135309
0.0516607
0.00751151
-0.127603
0.0514259
0.00968092
-0.101768
0.0499884
0.0124918
-0.0656291
0.0497813
0.021245
-0.0218402
0.0516633
0.0332802
0.00711074
0.0518438
0.0447967
0.0428796
0.0561646
0.0513422
0.0962716
0.0437355
0.131328
0.0080188
0.000466614
-0.00389043
0.00823846
0.00121281
-0.00817712
0.00867341
0.00265458
-0.0186058
0.00950275
0.00575301
-0.0252927
0.0103774
0.00931492
-0.0169053
0.0106691
0.0105947
0.0127671
0.0106509
0.00876992
0.0124743
0.0110423
0.00627329
-0.000736717
0.0117364
0.00328183
-0.0255338
0.012243
0.000870112
-0.0344334
0.0122761
-0.00140306
-0.0429376
0.0113816
-0.00236106
-0.0612195
0.00834639
-0.00145176
-0.0944123
0.00330185
-0.000458433
-0.13485
-0.000553952
-0.000694451
-0.159126
-0.0021557
0.000923507
-0.171206
-0.00354946
0.00423913
-0.171811
-0.00592854
0.00652531
-0.171156
-0.00895228
0.00724687
-0.172244
-0.0119675
0.00653832
-0.173211
-0.014591
0.00685681
-0.173855
-0.0169612
0.00944657
-0.167418
-0.0189751
0.0122116
-0.150995
-0.0200097
0.0117941
-0.16013
-0.0189007
0.00596318
-0.17388
-0.0167933
0.00119683
-0.169485
-0.0143832
0.00231775
-0.154059
-0.00977693
0.0041149
-0.145036
-0.00285781
-0.000116971
-0.134038
0.00340863
-0.00810045
-0.117307
0.00697633
-0.0129986
-0.10287
0.007793
-0.0130728
-0.101326
0.00555699
-0.00920949
-0.106891
0.0023702
-0.00567505
-0.113731
0.00513247
-0.00484489
-0.119358
0.0131099
0.00337854
-0.0916392
0.0179848
0.0158985
-0.0548446
0.0205404
0.0165425
-0.060526
0.0219642
0.0124663
-0.0713495
0.0223152
0.00655117
-0.0904307
0.0222167
-0.00151262
-0.107105
0.0204246
-0.0117468
-0.109537
0.0163126
-0.0184669
-0.101255
0.0137324
-0.0244737
-0.0781399
0.0164575
-0.0422299
-0.0603821
0.0237931
-0.0523158
-0.0679201
0.0306055
-0.0355191
-0.0708283
0.0357624
-0.017803
-0.0722998
0.0398505
-0.00648856
-0.0752084
0.0425806
0.00036387
-0.0841988
0.0446336
0.00234801
-0.0980937
0.0472904
0.00152634
-0.115329
0.0496387
0.00446932
-0.116236
0.0513947
0.00736809
-0.0904784
0.0530664
0.0101119
-0.0581285
0.0569801
0.0189019
-0.00428898
0.0632612
0.0315435
0.0240796
0.0712579
0.0428701
0.0327966
0.0815026
0.0471109
0.0552968
0.037079
0.0914297
0.00805172
0.000342587
-0.00029368
0.00839612
0.000938937
-0.000137666
0.00903616
0.00211767
-0.0062239
0.0103352
0.00449112
-0.0150628
0.0121974
0.0074712
-0.0164966
0.0140858
0.00855756
-0.00238137
0.0153839
0.00723735
0.00198857
0.0164711
0.00515837
0.00183724
0.017082
0.00271707
-0.00364973
0.0174798
0.000638421
-0.0126619
0.0174947
-0.00111003
-0.0223409
0.0173953
-0.00191945
-0.03459
0.0175481
-0.00114094
-0.0507312
0.0173641
5.72688e-05
-0.069619
0.0158045
0.00127799
-0.092474
0.013163
0.00383494
-0.112425
0.0107221
0.00639642
-0.121664
0.00893342
0.00771977
-0.127274
0.00760867
0.00789839
-0.130634
0.00621368
0.00734271
-0.133741
0.00505781
0.00751634
-0.144237
0.00449123
0.00915067
-0.170093
0.0046996
0.0115333
-0.100643
0.00651448
0.00892654
-0.0890312
0.00843679
0.00151386
-0.124812
0.00920603
-0.00174887
-0.119283
0.0110041
-0.00158469
-0.10326
0.0147465
-0.00174043
-0.0995078
0.0189177
-0.00538563
-0.0926532
0.0216018
-0.0114219
-0.0756612
0.0237726
-0.0154042
-0.064471
0.0256421
-0.0149452
-0.0622053
0.024975
-0.00842713
-0.0691376
0.0196379
-0.000494543
-0.0807931
0.0122293
0.00146749
-0.0927866
0.0142981
0.00110005
-0.106899
0.022173
0.00646896
-0.0559501
0.0280578
0.0110995
-0.0352461
0.0315753
0.01016
-0.0333721
0.0336274
0.00657599
-0.0428462
0.0336287
0.001063
-0.0475406
0.030138
-0.00675967
-0.037396
0.0252326
-0.0131164
-0.03109
0.0208396
-0.0204997
-0.0204072
0.0199869
-0.0407966
-0.0269398
0.0218497
-0.0537739
-0.0540369
0.0233888
-0.0373676
-0.0653175
0.0247831
-0.0194973
-0.0624753
0.027282
-0.00914225
-0.0480828
0.0303948
-0.00227763
-0.0412795
0.0330981
-0.000189713
-0.0562415
0.0360067
-0.00129932
-0.0914626
0.0390531
-0.000564724
-0.0925418
0.0426651
0.00121605
-0.0700963
0.0480091
0.00267454
-0.0410562
0.0568723
0.00804511
-0.0149202
0.0702838
0.0182021
-0.00784418
0.0858409
0.0290342
-0.0138667
0.104276
0.0307911
-0.00797078
0.0234813
0.00537054
0.00810492
0.00033634
0.00645402
0.00851667
0.00074234
0.0116039
0.00925178
0.00150773
0.00778594
0.0108236
0.00296282
6.96354e-05
0.0132848
0.00515477
-0.00499842
0.0159531
0.00595361
-0.00259234
0.0181162
0.00506092
-0.000868487
0.0197351
0.00367375
0.00223126
0.0207114
0.00199293
0.0049607
0.0211567
0.000495338
0.00671369
0.0210817
-0.000724439
0.00772568
0.0207833
-0.00120287
0.00743656
0.0207753
-0.000644558
0.00547347
0.0212559
0.000503402
0.00178814
0.0220485
0.00204654
-0.0035247
0.0230835
0.00421133
-0.0151207
0.0241779
0.00618022
-0.0313998
0.025219
0.00704312
-0.0471596
0.0261168
0.00699007
-0.0596297
0.0266676
0.00661057
-0.0684737
0.027145
0.00688622
-0.081207
0.0281987
0.00808356
-0.0989966
0.0304587
0.0089226
-0.0821108
0.0329937
0.00576427
-0.0679714
0.0332433
6.24596e-05
-0.0669315
0.0325276
-0.0019976
-0.0649992
0.0325567
-0.00263491
-0.057314
0.033764
-0.00376967
-0.0473519
0.0349
-0.00691362
-0.0373062
0.0349944
-0.0115011
-0.0322438
0.0351187
-0.0151079
-0.032943
0.0361078
-0.015591
-0.035745
0.0382609
-0.0107072
-0.0339711
0.0393123
-0.00235403
-0.0190267
0.0355142
0.00512907
0.0129762
0.031306
0.0093864
0.0570222
0.0314579
0.00920732
0.0477216
0.0350986
0.00904165
0.0387165
0.0389261
0.0073745
0.0328302
0.0413717
0.00470196
0.0270576
0.0413203
0.000979352
0.0287714
0.0378428
-0.00404988
0.0294056
0.0323763
-0.00865156
0.0302575
0.026798
-0.0156381
0.0241711
0.0224824
-0.0353462
-0.0101845
0.0173015
-0.0480296
-0.0536695
0.0114701
-0.0319399
-0.0725623
0.00692613
-0.0157765
-0.0548973
0.00520454
-0.00863524
-0.0137044
0.00724114
-0.00218948
0.0382148
0.00630646
0.00132592
0.178426
0.00314169
0.000862425
0.231121
0.0026304
-0.00175385
0.16571
0.00409908
-0.000847983
0.0633547
0.00568521
0.00244424
0.254735
0.00890431
0.00529836
0.378496
0.0211793
0.00898284
0.370418
0.0408324
0.0120758
0.236834
0.0602847
0.0116596
0.157863
0.013337
0.244622
0.008131
0.000246052
0.00418494
0.00857644
0.000408444
0.0048282
0.00946108
0.000730854
0.00517605
0.011115
0.00148687
0.00913312
0.0137887
0.00274167
0.00738338
0.0168531
0.00314672
0.00642368
0.0195115
0.00266728
0.00692152
0.0214405
0.00204385
0.00628399
0.0225611
0.00122319
0.00726396
0.0230281
0.000466088
0.00869025
0.0230438
9.23026e-06
0.0100902
0.0229614
-0.000135082
0.0112482
0.023187
0.000129146
0.0116105
0.0238985
0.000751978
0.0108819
0.0252289
0.00160805
0.0121739
0.0274788
0.00272663
0.0133156
0.0304953
0.00370597
0.0117949
0.0337424
0.00413115
0.00780524
0.0367857
0.00406266
0.0022848
0.0394657
0.00388275
-0.00303983
0.0422056
0.00409863
-0.00966706
0.045585
0.00477839
-0.0199311
0.0495926
0.00487925
-0.0227993
0.0521904
0.00275455
-0.020261
0.0520064
-7.54826e-05
-0.0201772
0.0510943
-0.00128649
-0.0242298
0.05032
-0.00184804
-0.0264118
0.049712
-0.00280531
-0.0274172
0.0483917
-0.00477
-0.0288896
0.0457645
-0.00755893
-0.0336165
0.0425941
-0.0102425
-0.0425182
0.0398488
-0.0115522
-0.0535893
0.0383865
-0.009388
-0.0625165
0.0378926
-0.00331582
-0.0608447
0.0383156
0.00312091
-0.0460464
0.0407253
0.00598877
-0.0196833
0.0433091
0.00620641
-0.00363532
0.0461268
0.00636743
0.0124087
0.0484758
0.00556676
0.02409
0.0496487
0.00404444
0.0308126
0.0485574
0.00228758
0.0360541
0.04479
3.54244e-05
0.04175
0.03964
-0.00310338
0.0405536
0.0331301
-0.00824327
0.0197499
0.0232732
-0.022898
-0.0344958
0.00770508
-0.0314467
-0.0750957
-0.00793537
-0.0173333
-0.0932357
-0.0212929
-0.00438611
-0.0447777
-0.0312257
-0.000624396
-0.0285223
-0.0364511
0.00147325
-0.0419477
-0.0393325
0.00317291
-0.0573362
-0.0425078
0.00323086
-0.078164
-0.0459274
0.00153303
-0.0910348
-0.0461161
0.001525
-0.0947257
-0.0418913
0.00422835
-0.0886694
-0.0360347
0.00761491
-0.0968372
-0.0296164
0.0104341
-0.121022
-0.0238113
0.00999039
-0.158388
-0.0197102
0.00733317
-0.176703
0.00833503
-0.189351
0.0081848
-0.00144623
0.00864993
-0.0110311
0.00951986
-0.0102485
0.0111501
0.00174806
0.013882
-2.78366e-05
0.0170663
-0.000372437
0.0198433
0.00249534
0.0218277
-0.00569157
0.0230348
-0.0136452
0.0236293
-0.0219291
0.0238004
-0.0307345
0.0238934
-0.0381677
0.024306
-0.0436129
0.0252611
-0.0454453
0.0269809
-0.0420794
0.0298151
-0.0351111
0.0336699
-0.0277409
0.0379518
-0.0224964
0.0421471
-0.0194103
0.0461438
-0.0168624
0.0503532
-0.0158483
0.0552347
-0.0185475
0.060238
-0.0183782
0.0631251
-0.017891
0.0632737
-0.0217776
0.0624991
-0.0281744
0.0614927
-0.0349
0.0599945
-0.0434979
0.057003
-0.0541053
0.0515283
-0.0668026
0.0435804
-0.0840465
0.0342783
-0.107534
0.0263861
-0.133547
0.0231039
-0.148947
0.0251285
-0.144387
0.0304479
-0.127258
0.0362485
-0.119113
0.0422161
-0.11207
0.0473629
-0.101647
0.0511527
-0.0962594
0.0536
-0.0965886
0.0544061
-0.108653
0.0523015
-0.120844
0.0446895
-0.12557
0.0219269
-0.123429
-0.00948431
-0.129205
-0.0273451
-0.150703
-0.0325208
-0.156538
-0.0338384
-0.147541
-0.0336109
-0.156539
-0.0320672
-0.183493
-0.0307968
-0.220835
-0.0313074
-0.246177
-0.0313835
-0.262429
-0.0280576
-0.271662
-0.0211371
-0.298277
-0.0116511
-0.342539
-0.00352472
-0.371673
0.00299645
-0.39812
-0.567548
0.00795936
0.000258714
0.00771844
0.000528312
0.007269
0.0010851
0.00793612
-0.000470738
0.0106273
-0.00292864
0.0135173
-0.00304175
0.0156946
-0.0025519
0.0170126
-0.00227202
0.0165951
0.000245991
0.0143199
0.00245573
0.0109262
0.00349248
0.00795839
0.00287058
0.00689247
0.00105882
0.00734694
-5.66169e-05
0.00842168
-0.00100848
0.0109165
-0.00280147
0.0149205
-0.00448217
0.0194894
-0.00520243
0.0243376
-0.00571525
0.0292493
-0.00591958
0.03363
-0.00541816
0.0372113
-0.00458961
0.0410697
-0.00481905
0.0418266
-0.00169687
0.0363805
0.00449115
0.0254649
0.00960387
0.00885874
0.0150361
-0.00941162
0.0204601
-0.0216052
0.0143384
-0.0276648
0.00852362
-0.033048
0.00904383
-0.0412748
0.0101273
-0.0505052
0.00762916
-0.0563142
0.00432438
-0.0599259
0.00253676
-0.0643771
0.00355699
-0.0697396
0.00459378
-0.0752641
0.00482096
-0.0805156
0.00442601
-0.0839832
0.00260072
-0.0849548
0.000256362
-0.0832289
-0.00230851
-0.0797613
-0.00409537
-0.0767275
-0.00393436
-0.0744486
-0.00337172
-0.073515
-0.00223836
-0.075161
5.71309e-05
-0.0780327
0.00103866
-0.0806559
0.000554677
-0.0821954
-0.000732586
-0.0826439
-0.00191599
-0.0820996
-0.00293324
-0.0816924
-0.00304279
-0.0824392
-0.00264062
-0.0834774
-0.00292233
-0.0834325
-0.00395152
-0.0820628
-0.00474904
-0.0813051
-0.00340068
-0.0818679
-0.000370935
0.00185316
0.00784078
0.000348378
0.00768255
0.000843933
0.00763432
0.0017583
0.00752712
0.000606813
0.00738153
-0.00249638
0.00527015
-0.000843021
-0.000509569
0.00278702
-0.00634469
0.00250781
-0.00974315
0.00255034
-0.0116438
0.00360221
-0.0126872
0.00389127
-0.0127015
0.00213678
-0.0113851
-0.00109926
-0.00947232
-0.00275508
-0.00758253
-0.00371791
-0.00538633
-0.00572061
-0.0031863
-0.00718106
-0.00168284
-0.00722997
-0.000600138
-0.00739169
0.000885106
-0.00767974
0.000821269
-0.00580849
-0.00320509
-0.00171944
-0.00893505
0.00129195
-0.0132073
0.00323722
-0.0151119
0.00588973
-0.0158877
0.00970893
-0.015901
0.014881
-0.01499
0.0211714
-0.014918
0.0167604
-0.0152136
0.010308
-0.014546
0.0106984
-0.0128856
0.0102139
-0.0121219
0.00698007
-0.0142221
0.00594535
-0.0204354
0.00755825
-0.0296563
0.0102087
-0.0380056
0.0106135
-0.0455722
0.0109464
-0.051774
0.0101201
-0.0542388
0.00549782
-0.0522653
-0.000242062
-0.0468888
-0.00612311
-0.0399572
-0.0111485
-0.033816
-0.0109846
-0.0287663
-0.00966649
-0.0273625
-0.0049876
-0.0301871
0.00161394
-0.0340781
0.00448746
-0.0385113
0.0051898
-0.0430887
0.00474051
-0.0480853
0.00533207
-0.0547889
0.00776707
-0.0659238
0.00969061
-0.0797673
0.0067473
-0.0898891
-0.000346096
-0.0986934
-0.006928
-0.10915
-0.00926556
-0.123067
-0.00642362
-0.135959
-0.00859862
0.0165931
0.00784585
0.000431885
0.00761013
0.00118335
0.00711273
0.00264812
0.00283217
0.00538017
-0.00613827
0.00554981
-0.0122288
0.00447921
-0.0152518
0.00508534
-0.0178775
0.00435173
-0.0190993
0.00317251
-0.0188645
0.00294966
-0.0172562
0.00189178
-0.0146362
-0.000969868
-0.0121812
-0.00337391
-0.0108313
-0.00374911
-0.0105648
-0.00345942
-0.0113554
-0.00428982
-0.0132386
-0.00489647
-0.0161508
-0.00437233
-0.0197972
-0.00400668
-0.023798
-0.0038458
-0.0276167
-0.00204496
-0.0311512
0.00129311
-0.034551
0.00408483
-0.0377089
0.0058246
-0.038742
0.00652952
-0.0367105
0.00718104
-0.0326383
0.010137
-0.0274524
0.0157982
-0.0250119
0.014799
-0.0236255
0.00806912
-0.0192578
0.00313761
-0.0132011
-3.99065e-05
-0.00753553
-0.000483552
-0.00446072
0.00268112
-0.00548736
0.0100328
-0.0112085
0.0171588
-0.0171474
0.0184297
-0.0224185
0.0179178
-0.0280286
0.0143277
-0.0313951
0.00645421
-0.0319408
-0.00230367
-0.0279666
-0.011121
-0.0204625
-0.0196949
-0.0103751
-0.0221218
0.00489746
-0.0254814
0.0202477
-0.0212215
0.0280703
-0.00760626
0.0302206
0.00077186
0.028309
0.00462548
0.0248117
0.00593463
0.0210018
0.00600621
0.0183455
0.00643102
0.0161379
0.00956186
0.0135686
0.00782723
0.00996484
0.000552838
0.00105956
-0.00154216
-0.0142574
0.000614218
-0.0253811
-0.00183803
-0.0312699
-0.00810009
0.013978
0.00787285
0.000511604
0.00776465
0.0015271
0.00760381
0.00329374
0.00655502
0.00679936
0.00212897
0.00980839
-0.00325244
0.00922526
-0.00625707
0.00776031
-0.00757507
0.00592557
-0.00805313
0.00310089
-0.00612108
0.00116335
-0.00334357
-0.000925019
-0.00130876
-0.00403286
0.000489479
-0.0062697
0.00255945
-0.00690681
0.00269861
-0.00448279
-0.00220986
-0.000316636
-0.00924364
0.00140726
-0.0153485
0.00133342
-0.0211281
0.00132068
-0.026821
0.00121806
-0.0323079
0.00267018
-0.037697
0.00580969
-0.0428937
0.00894771
-0.0471495
0.0103916
-0.0484157
0.00879936
-0.0460741
0.00670642
-0.0412526
0.00807283
-0.0352612
0.0123675
-0.0311842
0.0119477
-0.027888
0.00393152
-0.0228306
-0.00435519
-0.0168326
-0.00845839
-0.0105465
-0.0080301
-0.00268779
-0.00423843
0.00425894
0.00654783
0.00368897
0.0188026
0.000187021
0.0231244
-0.00369667
0.0212086
-0.0080135
0.0164578
-0.0126692
0.00792299
-0.015383
-0.00154191
-0.0117019
-0.0143188
-0.00622357
-0.0246932
-3.50399e-05
-0.0282157
0.0110775
-0.035934
0.0244969
-0.0344925
0.0352399
-0.0181902
0.0413713
-0.00557945
0.0438342
0.00159567
0.0444746
0.00479444
0.0449943
0.00493645
0.0461763
0.00500964
0.0468217
0.00869974
0.0455018
0.0112741
0.0433363
0.012975
0.0432281
0.0196223
0.0462436
0.0301177
0.0521251
0.0374233
0.0570595
0.0475121
0.0399811
0.00797084
0.000538114
0.00804427
0.0015167
0.00820426
0.00321578
0.00810882
0.00679966
0.00747485
0.0104503
0.00515451
0.011182
0.00316082
0.00923248
0.00303391
0.00694004
0.00299578
0.0032843
0.00235932
0.000827247
0.00201796
-0.00147606
0.000807472
-0.003303
-0.00147145
-0.00455421
-0.00417075
-0.00527802
-0.00614753
-0.00376037
-0.00788636
0.000618705
-0.0111644
0.00398559
-0.0161066
0.00523891
-0.0212089
0.00535544
-0.0257608
0.00478407
-0.0298628
0.00576959
-0.0339122
0.0088403
-0.0378612
0.0119655
-0.0408044
0.0125785
-0.0410838
0.00848379
-0.0389121
0.00391344
-0.0354603
0.00430773
-0.0303912
0.00712818
-0.0241573
0.00542482
-0.0177811
-0.00312205
-0.0126209
-0.010176
-0.00935409
-0.0122684
-0.00728233
-0.0107336
-0.0045975
-0.00766259
0.00471226
-0.00175808
0.0115869
0.0124185
0.0110517
0.0236473
0.0096907
0.0217082
0.00839964
0.016172
0.006209
0.00827529
0.0047897
-0.00105729
0.00621446
-0.0148272
0.00635573
-0.024409
0.00718161
-0.0287899
0.0138506
-0.0415897
0.0249894
-0.0451278
0.0349693
-0.0275209
0.0417402
-0.0120078
0.0454643
-0.00210582
0.0467801
0.00346946
0.0473446
0.00459939
0.0487687
0.00395045
0.0503935
0.00730343
0.0508024
0.0110083
0.0502006
0.0136701
0.0513304
0.0219891
0.0572977
0.0361471
0.0613821
0.0479825
0.0674372
0.0543413
0.0417437
0.00803481
0.00056146
0.00824098
0.0013652
0.00870088
0.00279828
0.0095336
0.00589881
0.0103277
0.00957447
0.0106702
0.0107513
0.0105011
0.00903833
0.010848
0.00666183
0.0116806
0.00338885
0.0122283
0.000850851
0.012311
-0.00139587
0.0113695
-0.00229718
0.00816362
-0.00135852
0.00301287
-0.000482678
-0.00080472
-0.000646779
-0.0024495
0.00121754
-0.00395464
0.00456163
-0.00637917
0.00674894
-0.00942138
0.00740138
-0.0124425
0.00675255
-0.0150586
0.00731501
-0.0173518
0.0101418
-0.0193396
0.013086
-0.0198863
0.011975
-0.0180829
0.00490463
-0.0157083
-0.000234479
-0.0134066
0.00022588
-0.00927029
0.00137511
-0.00318344
-0.00210035
0.00254833
-0.00927368
0.00585132
-0.0136955
0.00614705
-0.0130694
0.0035351
-0.00878816
0.000619884
-0.00541197
0.00339016
-0.00559479
0.0114314
0.00379847
0.0167268
0.0178112
0.0190423
0.019005
0.0206218
0.0146833
0.0211774
0.00850964
0.021565
3.44848e-05
0.0203741
-0.0113654
0.016081
-0.0191197
0.0135784
-0.0253978
0.0164498
-0.0431547
0.023655
-0.0521141
0.0306066
-0.0342579
0.0357596
-0.0171824
0.0396918
-0.00618675
0.0420929
0.000554773
0.043655
0.0022235
0.0458176
0.000627265
0.0482816
0.00353847
0.0505283
0.0068713
0.0528059
0.00973386
0.0573462
0.0171681
0.0658789
0.031104
0.0764232
0.0421518
0.0886023
0.046288
0.0364056
0.00806473
0.000495062
0.00839858
0.00104138
0.00906368
0.0021648
0.0103763
0.00457598
0.0121832
0.0076743
0.0140329
0.00878077
0.015283
0.0075531
0.0162905
0.00552612
0.0169873
0.00301619
0.0174821
0.000846047
0.0175494
-0.000934072
0.0174897
-0.00164725
0.0175916
-0.000791687
0.01726
0.000426324
0.0154694
0.00175861
0.0126498
0.00418096
0.0101682
0.00656324
0.0084013
0.00778847
0.00711543
0.00791467
0.00576438
0.00740608
0.00468533
0.00774055
0.00422805
0.0098085
0.00436931
0.0118941
0.00683986
0.00855859
0.0092376
0.000795209
0.00983984
-0.0026119
0.011611
-0.00290196
0.0148732
-0.00321747
0.0185815
-0.00645438
0.0212247
-0.012183
0.0231747
-0.0157471
0.0246264
-0.01458
0.0232358
-0.00756142
0.0173438
0.000115032
0.00995004
0.00162109
0.0125145
0.00170698
0.0210015
0.00763557
0.0265595
0.0120075
0.0301334
0.010904
0.0324306
0.00710888
0.0328238
0.00118192
0.0296932
-0.00704741
0.0246479
-0.0131364
0.0204688
-0.0201297
0.0195097
-0.0409358
0.0211407
-0.0536843
0.0230615
-0.0361605
0.0247236
-0.0189214
0.0272608
-0.00848395
0.0298959
-0.00187882
0.0318059
0.000456295
0.0340325
-0.000774245
0.0370226
-0.000187601
0.0411276
0.000726024
0.0468464
0.00252796
0.05582
0.00821171
0.0690882
0.0192077
0.0842843
0.029534
0.104454
0.0296425
0.02095
0.00808096
0.000342455
0.00848489
0.000675152
0.0092544
0.00151596
0.0108712
0.00314237
0.0132739
0.00526219
0.0159125
0.00605492
0.0180578
0.0052497
0.0196269
0.00370396
0.0205551
0.00190677
0.0209946
0.000383508
0.02092
-0.000818803
0.0206056
-0.0012383
0.0205941
-0.000600639
0.0211336
0.000639243
0.0219476
0.00218579
0.0229767
0.00436828
0.024052
0.00623764
0.0250794
0.00697778
0.025961
0.00682004
0.0264991
0.00641795
0.0269947
0.00679691
0.0281118
0.008117
0.030486
0.00881157
0.0332579
0.00523244
0.0337109
-0.000475213
0.032783
-0.00269504
0.0325886
-0.00359576
0.0335258
-0.00481842
0.0344659
-0.00780993
0.0344157
-0.0121905
0.0342868
-0.0155185
0.0350637
-0.0154612
0.0370885
-0.0101867
0.0388545
-0.0019839
0.0368393
0.00515155
0.0343202
0.00999204
0.0339599
0.010003
0.0366933
0.00911104
0.0398184
0.00701542
0.0419498
0.00414917
0.0417958
0.000208632
0.03831
-0.00452473
0.0331232
-0.00847411
0.0272076
-0.0149427
0.0219548
-0.0354904
0.0159762
-0.0479538
0.0107073
-0.030886
0.00676112
-0.01538
0.00582489
-0.00835058
0.00760127
-0.00244718
0.0071417
0.00101528
0.00459628
0.000738665
0.00475382
-0.00189671
0.00565156
-0.000894988
0.0070396
0.00141012
0.0113467
0.00363124
0.0258308
0.00703809
0.0479871
0.00992261
0.0687946
0.00901897
0.00997263
0.00809627
8.54109e-05
0.00855838
0.000179233
0.00945496
0.00066655
0.0110737
0.00162696
0.013766
0.00262309
0.0168195
0.00302955
0.0194344
0.00267022
0.0213573
0.00179665
0.0224534
0.000868354
0.0229073
9.09755e-05
0.0229072
-0.000332874
0.0227899
-0.000405706
0.0229975
-6.42965e-05
0.0237168
0.000620147
0.0250319
0.00148472
0.0272968
0.00256138
0.0303499
0.00346138
0.0336331
0.00378583
0.0367295
0.0036349
0.0394837
0.00343454
0.0423146
0.00366213
0.0457871
0.0043547
0.0498646
0.0044133
0.0525484
0.00218333
0.0524779
-0.000652585
0.0514717
-0.00187109
0.0504733
-0.00257192
0.0495569
-0.00366543
0.0478833
-0.00567522
0.0448488
-0.00845082
0.0411923