/*--------------------------------*- C++ -*----------------------------------*\
  =========                 |
  \\      /  F ield         | OpenFOAM: The Open Source CFD Toolbox
   \\    /   O peration     | Website:  https://openfoam.org
    \\  /    A nd           | Version:  8
     \\/     M anipulation  |
\*---------------------------------------------------------------------------*/
FoamFile
{
    version     2.0;
    format      ascii;
    class       volScalarField;
    location    "100";
    object      T;
}
// * * * * * * * * * * * * * * * * * * * * * * * * * * * * * * * * * * * * * //

dimensions      [0 0 0 1 0 0 0];

internalField   nonuniform List<scalar> 
1200
(
303.142
303.113
302.162
299.938
298.908
297.87
296.602
295.653
295.021
294.474
294.101
293.838
293.611
293.418
293.293
293.214
293.169
293.143
293.128
293.118
293.112
293.106
293.101
293.097
293.092
293.085
293.075
293.076
293.378
293.571
294.046
294.887
295.555
295.701
295.793
295.88
295.959
296.022
296.062
296.095
296.13
296.173
296.305
296.561
296.868
297.173
297.433
297.645
297.867
298.106
298.361
298.62
298.87
299.108
299.326
299.52
299.691
299.834
299.936
299.989
303.15
303.136
302.452
300.629
298.498
295.569
293.605
293.223
293.228
293.236
293.21
293.162
293.126
293.119
293.116
293.114
293.11
293.106
293.107
293.109
293.105
293.099
293.095
293.093
293.091
293.089
293.085
293.078
293.085
293.088
293.109
293.177
293.322
293.534
293.882
294.569
294.879
294.912
294.766
294.459
294.155
293.975
293.972
294.152
294.489
295.058
295.793
296.495
297.222
297.977
298.687
299.295
299.708
299.918
299.973
299.986
299.995
299.999
300
300
303.15
303.145
302.794
301.819
296.858
293.284
293.195
293.153
293.146
293.145
293.142
293.141
293.134
293.127
293.124
293.124
293.124
293.123
293.121
293.118
293.115
293.113
293.111
293.11
293.109
293.107
293.104
293.1
293.099
293.104
293.113
293.125
293.15
293.216
293.44
294.223
294.559
294.464
294.155
293.819
293.525
293.354
293.287
293.272
293.264
293.279
293.375
293.721
294.12
294.456
294.658
294.647
294.946
295.494
296.164
297.183
298.954
299.943
299.988
299.998
303.15
303.149
303.025
302.488
299.852
294.881
293.201
293.176
293.184
293.202
293.263
293.302
293.212
293.146
293.131
293.128
293.128
293.128
293.128
293.128
293.128
293.128
293.129
293.13
293.13
293.129
293.126
293.123
293.125
293.133
293.144
293.153
293.162
293.188
293.323
293.986
294.42
294.45
294.224
293.865
293.517
293.311
293.236
293.218
293.206
293.237
293.246
293.26
293.332
293.423
293.507
293.589
293.778
294.052
294.404
295.134
296.437
298.034
299.009
299.608
303.15
303.15
303.089
302.755
301.151
297.627
294.938
293.841
293.579
293.379
293.729
293.749
293.418
293.187
293.137
293.134
293.133
293.134
293.135
293.136
293.139
293.142
293.148
293.154
293.159
293.161
293.157
293.152
293.155
293.173
293.194
293.193
293.178
293.173
293.205
293.645
294.077
294.276
294.247
293.951
293.573
293.314
293.26
293.239
293.22
293.303
293.337
293.318
293.286
293.304
293.382
293.535
293.738
293.947
294.159
294.478
295.251
296.456
297.472
298.164
303.15
303.15
303.123
302.918
301.969
299.676
297.466
296.105
295.506
295.377
295.636
295.684
294.789
293.613
293.186
293.141
293.138
293.137
293.138
293.14
293.146
293.157
293.178
293.211
293.256
293.281
293.269
293.242
293.244
293.298
293.327
293.298
293.244
293.195
293.174
293.304
293.738
293.991
294.076
293.919
293.64
293.439
293.357
293.323
293.27
293.437
293.611
293.702
293.658
293.528
293.505
293.617
293.867
294.081
294.224
294.336
294.713
295.396
296.121
296.704
303.15
303.15
303.142
303.039
302.508
301.173
299.728
298.657
298.102
297.953
298.117
298.281
297.885
296.649
295.009
293.787
293.295
293.177
293.154
293.148
293.146
293.149
293.165
293.216
293.356
293.501
293.589
293.594
293.593
293.619
293.594
293.512
293.416
293.318
293.227
293.181
293.455
293.693
293.824
293.81
293.701
293.593
293.507
293.43
293.309
293.589
294.056
294.593
294.925
294.642
294.335
294.439
294.872
295.125
295.121
294.984
294.941
295.136
295.471
295.805
303.15
303.15
303.147
303.11
302.856
302.183
301.402
300.777
300.44
300.369
300.437
300.533
300.577
300.52
300.079
298.836
297.224
295.875
294.943
294.316
293.846
293.505
293.335
293.287
293.399
293.657
293.894
294.052
294.128
294.091
293.924
293.714
293.568
293.513
293.464
293.307
293.279
293.409
293.533
293.588
293.592
293.565
293.505
293.412
293.286
293.759
294.733
296.298
297.729
296.396
295.606
296.922
298.123
298.35
297.86
298.281
298.706
298.738
298.347
298.689
303.15
303.15
303.149
303.137
303.044
302.775
302.446
302.171
302.019
301.988
301.994
301.999
301.984
301.896
301.642
301.07
300.195
299.262
298.445
297.753
297.097
296.414
295.815
295.504
295.461
295.424
295.338
295.168
294.886
294.487
294.035
293.652
293.429
293.345
293.331
293.313
293.298
293.308
293.34
293.372
293.385
293.38
293.346
293.292
293.212
294.011
295.849
298.777
299.531
299.591
299.627
299.773
299.843
299.848
299.81
299.798
299.824
299.827
299.819
299.884
303.143
303.135
303.128
303.123
303.102
303.035
302.947
302.868
302.82
302.802
302.77
302.626
302.258
301.684
301.076
300.553
300.098
299.668
299.256
298.866
298.479
298.045
297.619
297.287
296.986
296.587
296.065
295.421
294.725
294.079
293.571
293.259
293.132
293.109
293.129
293.141
293.143
293.152
293.166
293.178
293.18
293.163
293.143
293.123
293.122
294.552
296.256
297.013
297.644
298.182
298.588
298.922
299.219
299.475
299.664
299.789
299.875
299.933
299.96
299.984
303.142
303.108
302.05
299.704
298.746
297.884
296.727
295.775
295.159
294.592
294.179
293.88
293.635
293.432
293.298
293.216
293.17
293.143
293.128
293.119
293.112
293.106
293.102
293.098
293.092
293.086
293.076
293.073
293.168
293.266
293.609
294.501
295.547
295.77
295.851
295.925
295.99
296.042
296.081
296.12
296.167
296.225
296.373
296.632
296.934
297.234
297.493
297.702
297.923
298.16
298.412
298.666
298.91
299.14
299.35
299.538
299.703
299.841
299.939
299.989
303.15
303.138
302.525
300.802
298.62
295.7
293.647
293.225
293.232
293.248
293.221
293.168
293.128
293.119
293.116
293.114
293.111
293.106
293.108
293.109
293.105
293.099
293.095
293.093
293.091
293.088
293.083
293.077
293.084
293.09
293.125
293.237
293.443
293.668
294.04
294.672
294.913
294.902
294.724
294.411
294.118
293.958
293.975
294.167
294.517
295.107
295.867
296.578
297.314
298.074
298.783
299.379
299.765
299.923
299.939
299.903
299.963
299.998
299.999
300
303.15
303.146
302.839
301.923
296.815
293.282
293.198
293.153
293.147
293.146
293.144
293.141
293.135
293.127
293.125
293.124
293.124
293.123
293.121
293.118
293.115
293.113
293.111
293.11
293.108
293.106
293.102
293.098
293.098
293.105
293.115
293.136
293.175
293.257
293.541
294.346
294.587
294.45
294.176
293.852
293.553
293.368
293.294
293.278
293.272
293.284
293.384
293.734
294.18
294.547
294.81
294.877
295.177
295.599
296.118
297.137
298.989
299.944
299.986
299.998
303.15
303.149
303.02
302.503
299.857
294.867
293.201
293.176
293.183
293.199
293.26
293.292
293.204
293.144
293.131
293.127
293.128
293.128
293.129
293.128
293.128
293.128
293.129
293.13
293.131
293.131
293.128
293.125
293.125
293.132
293.142
293.15
293.159
293.186
293.309
294.02
294.408
294.45
294.248
293.886
293.53
293.315
293.234
293.215
293.203
293.225
293.238
293.26
293.332
293.419
293.502
293.587
293.796
294.077
294.268
294.815
295.931
297.481
298.668
299.564
303.15
303.149
303.082
302.735
301.146
297.63
294.94
293.85
293.58
293.376
293.716
293.717
293.39
293.179
293.136
293.134
293.133
293.134
293.135
293.136
293.138
293.142
293.147
293.154
293.16
293.163
293.158
293.153
293.154
293.17
293.186
293.186
293.174
293.171
293.199
293.607
294.051
294.265
294.247
293.94
293.559
293.296
293.245
293.225
293.206
293.268
293.288
293.282
293.272
293.306
293.398
293.568
293.786
294.003
294.21
294.475
295.12
296.289
297.444
298.266
303.15
303.15
303.119
302.903
301.953
299.677
297.455
296.015
295.463
295.366
295.628
295.622
294.68
293.553
293.174
293.141
293.138
293.137
293.138
293.14
293.145
293.156
293.176
293.21
293.257
293.285
293.273
293.246
293.243
293.28
293.303
293.279
293.232
293.19
293.172
293.281
293.716
293.979
294.071
293.892
293.601
293.402
293.329
293.299
293.25
293.393
293.516
293.595
293.579
293.497
293.503
293.646
293.934
294.156
294.292
294.377
294.701
295.373
296.152
296.801
303.15
303.15
303.141
303.031
302.494
301.154
299.689
298.566
298.022
297.924
298.111
298.247
297.754
296.44
294.8
293.673
293.262
293.17
293.152
293.147
293.145
293.149
293.164
293.218
293.365
293.507
293.591
293.59
293.567
293.574
293.541
293.468
293.386
293.299
293.214
293.175
293.445
293.697
293.832
293.795
293.657
293.547
293.475
293.411
293.295
293.553
293.92
294.392
294.708
294.489
294.256
294.438
294.976
295.28
295.245
295.093
295.021
295.193
295.525
295.884
303.15
303.15
303.148
303.108
302.847
302.162
301.354
300.698
300.355
300.289
300.383
300.495
300.545
300.44
299.897
298.608
297.023
295.734
294.851
294.246
293.789
293.466
293.313
293.278
293.426
293.694
293.921
294.049
294.082
294.006
293.828
293.638
293.52
293.481
293.459
293.34
293.305
293.414
293.53
293.584
293.59
293.567
293.513
293.425
293.286
293.738
294.566
296.036
297.507
296.592
295.63
296.895
298.116
298.343
297.842
298.227
298.581
298.505
298.149
298.508
303.15
303.15
303.149
303.137
303.042
302.77
302.431
302.153
302.007
301.983
301.995
302.003
301.992
301.914
301.674
301.112
300.24
299.307
298.489
297.785
297.097
296.376
295.769
295.476
295.433
295.377
295.256
295.038
294.713
294.295
293.866
293.543
293.376
293.321
293.318
293.308
293.3
293.312
293.341
293.368
293.38
293.38
293.351
293.299
293.21
294.015
295.696
298.643
299.516
299.58
299.632
299.772
299.844
299.862
299.851
299.846
299.87
299.871
299.864
299.907
303.143
303.135
303.127
303.123
303.102
303.036
302.947
302.871
302.827
302.81
302.76
302.577
302.143
301.506
300.862
300.329
299.878
299.458
299.055
298.672
298.281
297.837
297.405
297.062
296.717
296.263
295.69
295.026
294.363
293.803
293.404
293.188
293.113
293.107
293.128
293.138
293.139
293.148
293.164
293.176
293.177
293.158
293.137
293.118
293.123
294.612
296.158
296.919
297.557
298.111
298.534
298.883
299.193
299.457
299.653
299.784
299.875
299.935
299.962
299.986
)
;

boundaryField
{
    wall
    {
        type            zeroGradient;
    }
    inlet
    {
        type            fixedValue;
        value           uniform 303.15;
    }
    outlet
    {
        type            inletOutlet;
        inletValue      uniform 300;
        value           nonuniform List<scalar> 
20
(
300
300
300
299.605
298.126
296.672
295.812
298.764
300
299.984
300
300
300
299.675
298.314
296.822
295.915
298.585
300
300
)
;
    }
    heatWall
    {
        type            fixedGradient;
        gradient        uniform -500;
    }
}


// ************************************************************************* //
