/*--------------------------------*- C++ -*----------------------------------*\
  =========                 |
  \\      /  F ield         | OpenFOAM: The Open Source CFD Toolbox
   \\    /   O peration     | Website:  https://openfoam.org
    \\  /    A nd           | Version:  8
     \\/     M anipulation  |
\*---------------------------------------------------------------------------*/
FoamFile
{
    version     2.0;
    format      ascii;
    class       volScalarField;
    location    "100";
    object      p;
}
// * * * * * * * * * * * * * * * * * * * * * * * * * * * * * * * * * * * * * //

dimensions      [1 -1 -2 0 0 0 0];

internalField   nonuniform List<scalar> 
1200
(
664.939
457.883
370.475
339.696
318.841
301.553
287.739
275.972
265.47
256.072
247.328
239.082
231.398
224.146
217.277
210.748
204.454
198.386
192.53
186.838
181.254
175.759
170.379
165.073
159.786
154.527
149.285
144.033
138.759
133.455
128.103
122.689
117.203
111.626
105.937
100.136
94.2364
88.2311
82.1085
75.8729
69.5085
63.012
56.375
49.5769
42.6407
35.5344
28.2362
20.7394
13.0159
5.11032
-3.03213
-11.4096
-20.0301
-28.9397
-38.1324
-47.6323
-57.4572
-67.6991
-78.5022
-89.7478
28.0108
53.3538
59.5408
65.5285
66.4554
63.6988
59.3366
54.1707
48.6548
42.9929
37.2309
31.4858
25.837
20.2904
14.8657
9.52636
4.24659
-0.935516
-6.03312
-11.0943
-16.1455
-21.1653
-26.1444
-31.1282
-36.1326
-41.1454
-46.1873
-51.2777
-56.4144
-61.6029
-66.8547
-72.1837
-77.6061
-83.133
-88.773
-94.5325
-100.403
-106.381
-112.481
-118.702
-125.052
-131.535
-138.157
-144.938
-151.875
-158.974
-166.264
-173.759
-181.456
-189.354
-197.497
-205.863
-214.478
-223.389
-232.587
-242.082
-251.912
-262.142
-272.883
-283.407
-95.7499
-38.3177
-32.0868
-45.1807
-60.2285
-74.8391
-88.8237
-101.756
-113.64
-124.63
-134.772
-144.184
-152.982
-161.186
-168.866
-176.156
-183.093
-189.68
-195.982
-202.079
-208.004
-213.744
-219.337
-224.851
-230.287
-235.651
-240.993
-246.333
-251.669
-257.02
-262.402
-267.836
-273.347
-278.948
-284.642
-290.442
-296.347
-302.351
-308.472
-314.712
-321.07
-327.56
-334.186
-340.965
-347.907
-355.007
-362.296
-369.788
-377.468
-385.365
-393.5
-401.86
-410.481
-419.384
-428.579
-438.08
-447.91
-458.101
-468.716
-478.927
-290.502
-268.385
-275.07
-292.69
-306.369
-316.912
-325.8
-333.639
-340.81
-347.395
-353.62
-359.637
-365.457
-371.073
-376.536
-381.898
-387.145
-392.294
-397.388
-402.444
-407.46
-412.425
-417.369
-422.332
-427.295
-432.261
-437.274
-442.335
-447.436
-452.596
-457.825
-463.128
-468.533
-474.049
-479.67
-485.41
-491.268
-497.236
-503.334
-509.556
-515.897
-522.383
-529.01
-535.788
-542.735
-549.843
-557.143
-564.644
-572.338
-580.257
-588.394
-596.778
-605.433
-614.345
-623.562
-633.1
-642.955
-653.131
-663.695
-673.713
-482.045
-462.864
-459.484
-468.97
-478.987
-488.563
-498.221
-507.912
-517.322
-526.189
-534.63
-542.676
-550.286
-557.512
-564.398
-570.961
-577.218
-583.252
-589.122
-594.824
-600.376
-605.809
-611.157
-616.454
-621.697
-626.91
-632.132
-637.362
-642.604
-647.891
-653.227
-658.62
-664.099
-669.677
-675.351
-681.133
-687.024
-693.025
-699.153
-705.398
-711.758
-718.266
-724.913
-731.706
-738.666
-745.79
-753.106
-760.618
-768.332
-776.27
-784.409
-792.813
-801.486
-810.41
-819.65
-829.2
-839.068
-849.238
-859.732
-869.65
-677.216
-658.049
-654.634
-664.118
-674.287
-683.665
-693.408
-703.173
-712.526
-721.468
-729.999
-738.033
-745.606
-752.836
-759.72
-766.26
-772.503
-778.529
-784.389
-790.062
-795.583
-801.002
-806.338
-811.605
-816.821
-822.022
-827.23
-832.433
-837.652
-842.923
-848.246
-853.623
-859.086
-864.651
-870.313
-876.081
-881.957
-887.949
-894.07
-900.3
-906.65
-913.148
-919.783
-926.566
-933.513
-940.627
-947.933
-955.432
-963.135
-971.061
-979.188
-987.581
-996.24
-1005.16
-1014.38
-1023.91
-1033.76
-1043.9
-1054.35
-1064.25
-876.091
-853.938
-860.484
-878.102
-892.047
-902.402
-911.413
-919.387
-926.511
-933.206
-939.58
-945.636
-951.464
-957.15
-962.658
-968.017
-973.267
-978.426
-983.518
-988.531
-993.501
-998.465
-1003.41
-1008.34
-1013.29
-1018.27
-1023.29
-1028.34
-1033.43
-1038.61
-1043.86
-1049.17
-1054.59
-1060.12
-1065.75
-1071.5
-1077.36
-1083.35
-1089.47
-1095.7
-1102.06
-1108.57
-1115.22
-1122.02
-1128.99
-1136.13
-1143.46
-1150.99
-1158.72
-1166.67
-1174.84
-1183.27
-1191.96
-1200.92
-1210.18
-1219.74
-1229.62
-1239.78
-1250.27
-1260.19
-1071.73
-1014.49
-1007.96
-1021.06
-1036.14
-1050.96
-1065.01
-1078
-1089.97
-1101.02
-1111.26
-1120.78
-1129.65
-1137.92
-1145.62
-1152.9
-1159.81
-1166.38
-1172.65
-1178.68
-1184.52
-1190.22
-1195.79
-1201.25
-1206.64
-1212
-1217.33
-1222.64
-1227.95
-1233.31
-1238.7
-1244.14
-1249.66
-1255.26
-1260.96
-1266.75
-1272.65
-1278.67
-1284.8
-1291.04
-1297.41
-1303.91
-1310.55
-1317.34
-1324.29
-1331.42
-1338.74
-1346.25
-1353.95
-1361.87
-1370.04
-1378.44
-1387.1
-1396.03
-1405.26
-1414.78
-1424.61
-1434.76
-1445.25
-1455.3
-1338.23
-1312.86
-1306.69
-1300.73
-1299.76
-1302.8
-1307.29
-1312.43
-1318.07
-1323.92
-1329.78
-1335.61
-1341.37
-1346.98
-1352.42
-1357.78
-1363.06
-1368.23
-1373.31
-1378.34
-1383.33
-1388.3
-1393.25
-1398.18
-1403.13
-1408.11
-1413.13
-1418.18
-1423.29
-1428.46
-1433.7
-1439.03
-1444.45
-1449.98
-1455.63
-1461.39
-1467.26
-1473.27
-1479.39
-1485.63
-1492.01
-1498.52
-1505.17
-1511.98
-1518.94
-1526.1
-1533.44
-1540.97
-1548.71
-1556.66
-1564.87
-1573.3
-1581.99
-1590.96
-1600.21
-1609.76
-1619.62
-1629.83
-1640.42
-1650.85
-1091.83
-1298.45
-1386.51
-1417.21
-1437.84
-1455.23
-1469.23
-1480.88
-1491.29
-1500.91
-1509.73
-1517.94
-1525.66
-1532.92
-1539.8
-1546.38
-1552.66
-1558.72
-1564.57
-1570.25
-1575.81
-1581.24
-1586.59
-1591.88
-1597.11
-1602.34
-1607.56
-1612.78
-1618.04
-1623.34
-1628.67
-1634.08
-1639.57
-1645.15
-1650.84
-1656.63
-1662.52
-1668.55
-1674.69
-1680.93
-1687.32
-1693.82
-1700.48
-1707.28
-1714.23
-1721.39
-1728.71
-1736.23
-1743.97
-1751.92
-1760.11
-1768.54
-1777.22
-1786.17
-1795.4
-1804.93
-1814.78
-1824.98
-1835.62
-1846.74
664.82
457.266
368.623
338.5
318.567
301.708
287.873
276.294
266.008
256.43
247.618
239.482
231.779
224.499
217.575
210.945
204.622
198.531
192.621
186.876
181.284
175.824
170.439
165.123
159.877
154.649
149.421
144.197
138.948
133.659
128.333
122.947
117.471
111.9
106.235
100.463
94.5777
88.5792
82.4678
76.2361
69.8767
63.385
56.7637
49.9952
43.0474
35.9347
28.6379
21.1457
13.4607
5.52833
-2.6136
-10.9951
-19.6271
-28.5086
-37.6951
-47.1955
-57.0588
-67.2884
-78.0822
-89.3175
27.5551
52.9703
58.9852
65.0039
66.2937
63.3293
58.8733
53.8948
48.4368
42.6941
36.9414
31.2347
25.5805
20.0174
14.535
9.17193
3.93623
-1.24337
-6.38764
-11.4747
-16.505
-21.5138
-26.5192
-31.4972
-36.4709
-41.4845
-46.5271
-51.5927
-56.7118
-61.8943
-67.1357
-72.4568
-77.8755
-83.3963
-89.0291
-94.7763
-100.636
-106.619
-112.718
-118.934
-125.284
-131.769
-138.389
-145.162
-152.098
-159.208
-166.504
-173.988
-181.689
-189.617
-197.747
-206.133
-214.773
-223.662
-232.855
-242.375
-252.243
-262.457
-273.196
-283.698
-96.0455
-38.404
-31.9146
-45.1019
-60.181
-75.0367
-88.9599
-101.86
-113.761
-124.703
-134.856
-144.294
-153.055
-161.269
-169.009
-176.276
-183.144
-189.716
-196.033
-202.107
-207.98
-213.722
-219.342
-224.823
-230.231
-235.62
-240.969
-246.286
-251.613
-256.965
-262.346
-267.784
-273.295
-278.888
-284.585
-290.382
-296.279
-302.295
-308.419
-314.646
-321.009
-327.501
-334.125
-340.907
-347.837
-354.945
-362.236
-369.707
-377.405
-385.312
-393.424
-401.795
-410.414
-419.302
-428.491
-437.997
-447.838
-458.015
-468.626
-478.873
-290.7
-268.2
-274.879
-292.613
-306.695
-317.04
-325.949
-333.934
-341.015
-347.641
-353.936
-359.91
-365.649
-371.248
-376.716
-382.041
-387.269
-392.424
-397.496
-402.507
-407.49
-412.476
-417.445
-422.373
-427.323
-432.328
-437.351
-442.399
-447.509
-452.681
-457.915
-463.237
-468.654
-474.171
-479.807
-485.556
-491.416
-497.407
-503.511
-509.725
-516.084
-522.571
-529.197
-535.989
-542.931
-550.057
-557.365
-564.855
-572.568
-580.481
-588.628
-597.014
-605.653
-614.59
-623.816
-633.352
-643.218
-653.407
-663.949
-674.005
-482.306
-462.73
-459.271
-468.761
-479.063
-488.445
-498.313
-508.115
-517.418
-526.349
-534.811
-542.795
-550.375
-557.566
-564.394
-570.926
-577.221
-583.274
-589.095
-594.76
-600.314
-605.774
-611.135
-616.407
-621.65
-626.89
-632.11
-637.331
-642.588
-647.876
-653.206
-658.61
-664.097
-669.67
-675.351
-681.137
-687.031
-693.049
-699.171
-705.404
-711.78
-718.276
-724.91
-731.714
-738.669
-745.807
-753.122
-760.624
-768.336
-776.247
-784.415
-792.806
-801.451
-810.409
-819.648
-829.201
-839.069
-849.245
-859.722
-869.615
-677.486
-657.899
-654.483
-663.987
-674.116
-683.714
-693.498
-703.244
-712.655
-721.563
-729.997
-738.037
-745.678
-752.869
-759.687
-766.217
-772.503
-778.539
-784.344
-790.005
-795.556
-800.995
-806.337
-811.605
-816.843
-822.064
-827.268
-832.489
-837.742
-843.019
-848.337
-853.732
-859.21
-864.776
-870.447
-876.224
-882.115
-888.124
-894.235
-900.465
-906.833
-913.318
-919.945
-926.739
-933.687
-940.817
-948.118
-955.608
-963.308
-971.206
-979.367
-987.746
-996.384
-1005.32
-1014.55
-1024.09
-1033.93
-1044.08
-1054.52
-1064.37
-876.161
-853.714
-860.531
-878.275
-892.141
-902.732
-911.538
-919.366
-926.583
-933.201
-939.449
-945.504
-951.362
-956.995
-962.484
-967.852
-973.111
-978.276
-983.355
-988.393
-993.399
-998.365
-1003.31
-1008.25
-1013.21
-1018.19
-1023.2
-1028.27
-1033.39
-1038.56
-1043.79
-1049.12
-1054.55
-1060.07
-1065.7
-1071.46
-1077.33
-1083.33
-1089.43
-1095.67
-1102.04
-1108.53
-1115.18
-1121.98
-1128.95
-1136.1
-1143.41
-1150.93
-1158.67
-1166.6
-1174.79
-1183.2
-1191.88
-1200.85
-1210.1
-1219.67
-1229.53
-1239.71
-1250.18
-1260.03
-1071.86
-1014.01
-1007.73
-1021.09
-1036.22
-1050.92
-1064.89
-1077.84
-1089.75
-1100.78
-1111
-1120.47
-1129.27
-1137.52
-1145.3
-1152.62
-1159.53
-1166.14
-1172.47
-1178.57
-1184.47
-1190.19
-1195.77
-1201.26
-1206.68
-1212.03
-1217.36
-1222.7
-1228.04
-1233.38
-1238.76
-1244.21
-1249.72
-1255.32
-1261.01
-1266.8
-1272.71
-1278.72
-1284.84
-1291.08
-1297.45
-1303.94
-1310.58
-1317.37
-1324.32
-1331.44
-1338.74
-1346.23
-1353.96
-1361.88
-1370.03
-1378.43
-1387.1
-1396.03
-1405.24
-1414.77
-1424.61
-1434.75
-1445.23
-1455.22
-1338.57
-1313.22
-1307.01
-1301.06
-1299.97
-1302.69
-1307.16
-1312.43
-1318.01
-1323.79
-1329.71
-1335.54
-1341.23
-1346.84
-1352.36
-1357.72
-1362.97
-1368.14
-1373.26
-1378.3
-1383.3
-1388.26
-1393.21
-1398.15
-1403.11
-1408.09
-1413.1
-1418.17
-1423.28
-1428.45
-1433.69
-1439.02
-1444.44
-1449.97
-1455.61
-1461.37
-1467.26
-1473.25
-1479.37
-1485.62
-1491.99
-1498.5
-1505.16
-1511.96
-1518.94
-1526.08
-1533.4
-1540.93
-1548.69
-1556.66
-1564.84
-1573.27
-1581.98
-1590.94
-1600.17
-1609.73
-1619.6
-1629.78
-1640.37
-1650.79
-1091.53
-1299.62
-1387.66
-1417.82
-1437.85
-1454.7
-1468.48
-1480.27
-1490.78
-1500.34
-1509.31
-1517.71
-1525.53
-1532.9
-1539.86
-1546.46
-1552.76
-1558.82
-1564.67
-1570.34
-1575.87
-1581.3
-1586.64
-1591.91
-1597.15
-1602.38
-1607.6
-1612.83
-1618.08
-1623.37
-1628.73
-1634.13
-1639.62
-1645.21
-1650.9
-1656.69
-1662.6
-1668.62
-1674.75
-1681.02
-1687.4
-1693.92
-1700.57
-1707.37
-1714.36
-1721.48
-1728.81
-1736.34
-1744.08
-1752.05
-1760.23
-1768.66
-1777.35
-1786.3
-1795.53
-1805.07
-1814.93
-1825.11
-1835.73
-1846.81
)
;

boundaryField
{
    wall
    {
        type            calculated;
        value           nonuniform List<scalar> 
1200
(
664.991
28.2426
-95.5997
-290.404
-481.912
-677.076
-876.059
-1071.67
-1338.06
-1091.99
458.189
53.5527
-38.2783
-268.481
-462.931
-658.123
-854.055
-1014.74
-1312.67
-1297.86
371.428
59.82
-32.1902
-275.169
-459.592
-654.709
-860.462
-1008.09
-1306.54
-1385.92
340.322
65.7963
-45.2413
-292.734
-469.08
-664.184
-878.017
-1021.06
-1300.56
-1416.88
319.006
66.5362
-60.2744
-306.205
-478.951
-674.38
-892.003
-1036.11
-1299.66
-1437.82
301.494
63.8916
-74.7559
-316.851
-488.631
-683.644
-902.23
-1050.99
-1302.86
-1455.48
287.687
59.5816
-88.7733
-325.73
-498.181
-693.366
-911.346
-1065.07
-1307.36
-1469.6
275.824
54.3197
-101.72
-333.49
-507.813
-703.139
-919.396
-1078.08
-1312.43
-1481.18
265.205
48.7755
-113.592
-340.706
-517.279
-712.461
-926.471
-1090.07
-1318.1
-1491.55
255.896
43.1552
-124.606
-347.268
-526.111
-721.421
-933.205
-1101.13
-1323.99
-1501.21
247.184
37.387
-134.743
-353.454
-534.541
-730.001
-939.645
-1111.39
-1329.82
-1509.95
238.879
31.6221
-144.138
-359.491
-542.616
-738.031
-945.704
-1120.94
-1335.65
-1518.06
231.203
25.9764
-152.953
-365.351
-550.24
-745.569
-951.515
-1129.84
-1341.44
-1525.73
223.962
20.4384
-161.149
-370.976
-557.485
-752.817
-957.23
-1138.13
-1347.05
-1532.94
217.119
15.0432
-168.796
-376.435
-564.4
-759.734
-962.747
-1145.79
-1352.46
-1539.77
210.64
9.71611
-176.096
-381.815
-570.979
-766.28
-968.104
-1153.05
-1357.81
-1546.33
204.361
4.41364
-183.067
-387.072
-577.217
-772.499
-973.349
-1159.96
-1363.1
-1552.61
198.305
-0.770105
-189.661
-392.218
-583.24
-778.521
-978.506
-1166.51
-1368.28
-1558.67
192.477
-5.84388
-195.955
-397.323
-589.135
-784.409
-983.607
-1172.76
-1373.35
-1564.51
186.813
-10.8915
-202.064
-402.401
-594.856
-790.089
-988.607
-1178.75
-1378.36
-1570.19
181.234
-15.9528
-208.016
-407.436
-600.408
-795.596
-993.559
-1184.56
-1383.35
-1575.77
175.722
-20.9776
-213.756
-412.391
-605.827
-801.006
-998.521
-1190.26
-1388.32
-1581.2
170.346
-25.9427
-219.336
-417.323
-611.168
-806.339
-1003.47
-1195.82
-1393.27
-1586.56
165.046
-30.9287
-224.866
-422.305
-616.479
-811.607
-1008.4
-1201.26
-1398.2
-1591.85
159.741
-35.9479
-230.317
-427.276
-621.723
-816.812
-1013.33
-1206.63
-1403.14
-1597.08
154.466
-40.9593
-235.669
-432.224
-626.921
-822.003
-1018.31
-1211.99
-1408.13
-1602.31
149.218
-46.0001
-241.008
-437.232
-632.145
-827.213
-1023.35
-1217.33
-1413.15
-1607.53
143.952
-51.1021
-246.36
-442.301
-637.379
-832.409
-1028.38
-1222.62
-1418.19
-1612.75
138.666
-56.247
-251.701
-447.398
-642.614
-837.609
-1033.46
-1227.92
-1423.29
-1618.02
133.355
-61.4377
-257.052
-452.554
-647.9
-842.878
-1038.64
-1233.28
-1428.48
-1623.32
127.99
-66.6939
-262.436
-457.78
-653.24
-848.204
-1043.89
-1238.68
-1433.71
-1628.64
122.562
-72.0261
-267.867
-463.075
-658.626
-853.572
-1049.21
-1244.12
-1439.04
-1634.05
117.07
-77.4494
-273.379
-468.475
-664.101
-859.028
-1054.62
-1249.63
-1444.47
-1639.54
111.49
-82.9785
-278.985
-473.99
-669.682
-864.592
-1060.15
-1255.24
-1449.99
-1645.12
105.79
-88.6212
-284.677
-479.604
-675.352
-870.25
-1065.78
-1260.94
-1455.64
-1650.81
99.9731
-94.386
-290.479
-485.34
-681.132
-876.013
-1071.52
-1266.73
-1461.4
-1656.6
94.0662
-100.26
-296.389
-491.198
-687.022
-881.882
-1077.38
-1272.62
-1467.26
-1662.48
88.0571
-106.236
-302.387
-497.155
-693.014
-887.865
-1083.36
-1278.64
-1473.28
-1668.52
81.9283
-112.335
-308.507
-503.249
-699.145
-893.99
-1089.49
-1284.79
-1479.41
-1674.65
75.6904
-118.559
-314.754
-509.476
-705.395
-900.221
-1095.72
-1291.02
-1485.64
-1680.87
69.3231
-124.907
-321.109
-515.808
-711.747
-906.56
-1102.08
-1297.39
-1492.03
-1687.27
62.8239
-131.389
-327.6
-522.293
-718.261
-913.065
-1108.6
-1303.9
-1498.54
-1693.78
56.1787
-138.011
-334.227
-528.921
-724.914
-919.704
-1115.24
-1310.54
-1505.19
-1700.42
49.3649
-144.795
-341.004
-535.692
-731.701
-926.48
-1122.05
-1317.34
-1512
-1707.23
42.4342
-151.73
-347.953
-542.641
-738.664
-933.427
-1129.01
-1324.29
-1518.95
-1714.16
35.3309
-158.824
-355.05
-549.741
-745.782
-940.531
-1136.15
-1331.41
-1526.11
-1721.33
28.0318
-166.11
-362.338
-557.037
-753.098
-947.841
-1143.49
-1338.74
-1533.46
-1728.66
20.5327
-173.61
-369.841
-564.542
-760.614
-955.344
-1151.03
-1346.26
-1541
-1736.17
12.789
-181.304
-377.513
-572.228
-768.33
-963.047
-1158.75
-1353.95
-1548.73
-1743.92
4.89665
-189.185
-385.405
-580.149
-776.282
-970.988
-1166.71
-1361.87
-1556.67
-1751.84
-3.24606
-197.335
-393.553
-588.281
-784.406
-979.097
-1174.88
-1370.05
-1564.89
-1760.04
-11.6217
-205.689
-401.907
-596.663
-792.815
-987.496
-1183.31
-1378.45
-1573.33
-1768.47
-20.2363
-214.29
-410.529
-605.327
-801.504
-996.167
-1192.01
-1387.1
-1582.01
-1777.14
-29.16
-223.212
-419.441
-614.225
-810.41
-1005.07
-1200.96
-1396.04
-1590.98
-1786.09
-38.3558
-232.411
-428.64
-623.437
-819.65
-1014.3
-1210.22
-1405.27
-1600.25
-1795.33
-47.8558
-241.894
-438.139
-632.976
-829.199
-1023.82
-1219.77
-1414.79
-1609.79
-1804.86
-57.661
-251.703
-447.964
-642.825
-839.067
-1033.67
-1229.66
-1424.62
-1619.64
-1814.7
-67.9086
-261.941
-458.162
-652.995
-849.234
-1043.81
-1239.82
-1434.78
-1629.86
-1824.91
-78.7163
-272.683
-468.778
-663.568
-859.736
-1054.26
-1250.32
-1445.28
-1640.46
-1835.56
-89.968
-283.222
-478.97
-673.566
-869.668
-1064.19
-1260.27
-1455.35
-1650.89
-1846.69
664.768
27.3233
-96.1956
-290.799
-482.439
-677.626
-876.194
-1071.92
-1338.73
-1091.37
456.959
52.7714
-38.4433
-268.104
-462.664
-657.825
-853.598
-1013.76
-1313.41
-1300.21
367.669
58.706
-31.8111
-274.78
-459.162
-654.408
-860.552
-1007.61
-1307.17
-1388.26
337.873
64.7363
-45.0414
-292.568
-468.652
-663.921
-878.361
-1021.09
-1301.23
-1418.15
318.402
66.2132
-60.1353
-306.859
-479.099
-674.023
-892.185
-1036.25
-1300.07
-1437.87
301.769
63.1367
-75.1204
-317.101
-488.377
-683.735
-902.904
-1050.9
-1302.63
-1454.45
287.926
58.6285
-89.011
-326.02
-498.353
-693.54
-911.605
-1064.83
-1307.1
-1468.11
276.444
53.7461
-101.897
-334.083
-508.214
-703.278
-919.357
-1077.76
-1312.43
-1479.97
266.275
48.3164
-113.81
-341.119
-517.461
-712.72
-926.622
-1089.65
-1317.98
-1490.52
256.609
42.5323
-124.728
-347.768
-526.426
-721.61
-933.202
-1100.66
-1323.72
-1500.04
247.764
36.7857
-134.886
-354.102
-534.901
-729.994
-939.384
-1110.87
-1329.67
-1509.09
239.687
31.0989
-144.341
-360.056
-542.855
-738.039
-945.437
-1120.31
-1335.5
-1517.58
231.976
25.4416
-153.086
-365.755
-550.421
-745.716
-951.31
-1129.08
-1341.16
-1525.46
224.685
19.87
-161.307
-371.345
-557.593
-752.889
-956.915
-1137.31
-1346.76
-1532.88
217.735
14.358
-169.08
-376.818
-564.392
-759.673
-962.395
-1145.13
-1352.32
-1539.89
211.055
8.98276
-176.337
-382.123
-570.907
-766.198
-967.766
-1152.47
-1357.69
-1546.5
204.717
3.76977
-183.17
-387.343
-577.223
-772.506
-973.029
-1159.38
-1362.93
-1552.82
198.613
-1.40817
-189.736
-392.5
-583.286
-778.547
-978.196
-1166
-1368.1
-1558.87
192.676
-6.57626
-196.06
-397.561
-589.081
-784.324
-983.267
-1172.36
-1373.22
-1564.73
186.902
-11.6769
-202.122
-402.55
-594.728
-789.978
-988.317
-1178.5
-1378.28
-1570.39
181.305
-16.6971
-207.969
-407.513
-600.282
-795.543
-993.342
-1184.42
-1383.27
-1575.9
175.862
-21.7009
-213.711
-412.509
-605.755
-800.992
-998.308
-1190.15
-1388.24
-1581.34
170.472
-26.7203
-219.344
-417.49
-611.124
-806.336
-1003.25
-1195.75
-1393.18
-1586.67
165.151
-31.6961
-224.809
-422.4
-616.382
-811.604
-1008.2
-1201.26
-1398.13
-1591.93
159.923
-36.655
-230.201
-427.342
-621.624
-816.853
-1013.17
-1206.69
-1403.1
-1597.18
154.71
-41.6698
-235.602
-432.365
-626.879
-822.083
-1018.14
-1212.04
-1408.07
-1602.4
149.49
-46.7136
-240.955
-437.392
-632.097
-827.285
-1023.14
-1217.37
-1413.08
-1607.62
144.279
-51.7676
-246.259
-442.433
-637.314
-832.513
-1028.22
-1222.72
-1418.16
-1612.86
139.041
-56.8785
-251.581
-447.547
-642.578
-837.785
-1033.37
-1228.07
-1423.27
-1618.1
133.759
-62.0588
-256.933
-452.723
-647.867
-843.064
-1038.53
-1233.41
-1428.44
-1623.39
128.447
-67.2958
-262.313
-457.96
-653.194
-848.379
-1043.76
-1238.79
-1433.68
-1628.76
123.075
-72.6137
-267.754
-463.29
-658.604
-853.783
-1049.09
-1244.24
-1439.01
-1634.17
117.604
-78.0314
-273.264
-468.712
-664.094
-859.269
-1054.52
-1249.75
-1444.43
-1639.65
112.037
-83.5499
-278.853
-474.229
-669.666
-864.835
-1060.04
-1255.35
-1449.96
-1645.25
106.383
-89.18
-284.55
-479.872
-675.35
-870.51
-1065.68
-1261.04
-1455.6
-1650.93
100.627
-94.922
-290.346
-485.625
-681.138
-876.292
-1071.43
-1266.83
-1461.36
-1656.72
94.7493
-100.778
-296.238
-491.486
-687.033
-882.19
-1077.32
-1272.75
-1467.25
-1662.65
88.7547
-106.763
-302.259
-497.488
-693.06
-888.209
-1083.32
-1278.75
-1473.24
-1668.65
82.6496
-112.863
-308.385
-503.595
-699.179
-894.316
-1089.41
-1284.86
-1479.35
-1674.79
76.4203
-119.076
-314.606
-509.805
-705.407
-900.544
-1095.65
-1291.1
-1485.61
-1681.08
70.0639
-125.428
-320.971
-516.172
-711.791
-906.923
-1102.02
-1297.47
-1491.98
-1687.44
63.5751
-131.915
-327.463
-522.661
-718.281
-913.401
-1108.51
-1303.96
-1498.49
-1693.96
56.9621
-138.534
-334.086
-529.285
-724.908
-920.024
-1115.15
-1310.59
-1505.14
-1700.62
50.2094
-145.304
-340.869
-536.085
-731.718
-926.825
-1121.96
-1317.38
-1511.94
-1707.42
43.2562
-152.242
-347.793
-543.025
-738.671
-933.774
-1128.92
-1324.33
-1518.93
-1714.43
36.1406
-159.357
-354.904
-550.158
-745.816
-940.912
-1136.08
-1331.45
-1526.07
-1721.54
28.8449
-166.658
-362.196
-557.471
-753.131
-948.21
-1143.39
-1338.74
-1533.38
-1728.86
21.3551
-174.137
-369.656
-564.957
-760.628
-955.697
-1150.89
-1346.22
-1540.91
-1736.4
13.6905
-181.84
-377.364
-572.679
-768.339
-963.396
-1158.64
-1353.96
-1548.67
-1744.14
5.74498
-189.785
-385.275
-580.59
-776.235
-971.279
-1166.56
-1361.89
-1556.64
-1752.12
-2.39654
-197.908
-393.375
-588.74
-784.419
-979.458
-1174.75
-1370.03
-1564.82
-1760.3
-10.7797
-206.307
-401.751
-597.129
-792.803
-987.831
-1183.16
-1378.42
-1573.25
-1768.73
-19.4175
-214.96
-410.37
-605.76
-801.434
-996.458
-1191.84
-1387.09
-1581.96
-1777.43
-28.2846
-223.838
-419.249
-614.71
-810.408
-1005.41
-1200.81
-1396.02
-1590.92
-1786.37
-37.4679
-233.029
-428.435
-623.941
-819.648
-1014.63
-1210.06
-1405.23
-1600.14
-1795.6
-46.9682
-242.563
-437.943
-633.475
-829.202
-1024.18
-1219.64
-1414.76
-1609.71
-1805.15
-56.8508
-252.452
-447.79
-643.348
-839.071
-1034.01
-1229.49
-1424.6
-1619.59
-1815.01
-67.0745
-262.658
-457.959
-653.544
-849.25
-1044.17
-1239.67
-1434.74
-1629.75
-1825.18
-77.8635
-273.396
-468.569
-664.076
-859.717
-1054.61
-1250.13
-1445.2
-1640.33
-1835.79
-89.0926
-283.883
-478.836
-674.153
-869.598
-1064.44
-1259.95
-1455.17
-1650.75
-1846.86
)
;
    }
    inlet
    {
        type            calculated;
        value           nonuniform List<scalar> 
20
(
664.939
28.0108
-95.7499
-290.502
-482.045
-677.216
-876.091
-1071.73
-1338.23
-1091.83
664.82
27.5551
-96.0455
-290.7
-482.306
-677.486
-876.161
-1071.86
-1338.57
-1091.53
)
;
    }
    outlet
    {
        type            calculated;
        value           nonuniform List<scalar> 
20
(
-97.6007
-292.94
-487.984
-683.121
-878.284
-1073.45
-1268.63
-1463.81
-1659.05
-1854.3
-97.6018
-292.898
-487.999
-683.117
-878.282
-1073.45
-1268.63
-1463.82
-1659.09
-1854.29
)
;
    }
    heatWall
    {
        type            calculated;
        value           nonuniform List<scalar> 
240
(
-1189.42
-1189.12
-1396.04
-1397.2
-1484.1
-1485.25
-1514.79
-1515.41
-1535.43
-1535.43
-1552.81
-1552.29
-1566.82
-1566.07
-1578.47
-1577.86
-1588.88
-1588.37
-1598.5
-1597.92
-1607.32
-1606.9
-1615.53
-1615.29
-1623.25
-1623.12
-1630.51
-1630.49
-1637.39
-1637.45
-1643.96
-1644.04
-1650.25
-1650.35
-1656.31
-1656.4
-1662.15
-1662.26
-1667.84
-1667.93
-1673.4
-1673.45
-1678.83
-1678.89
-1684.18
-1684.23
-1689.46
-1689.5
-1694.7
-1694.74
-1699.92
-1699.97
-1705.15
-1705.19
-1710.37
-1710.42
-1715.63
-1715.67
-1720.93
-1720.96
-1726.26
-1726.32
-1731.67
-1731.72
-1737.16
-1737.21
-1742.74
-1742.8
-1748.43
-1748.49
-1754.22
-1754.28
-1760.11
-1760.19
-1766.14
-1766.21
-1772.28
-1772.34
-1778.52
-1778.61
-1784.91
-1784.99
-1791.41
-1791.51
-1798.07
-1798.16
-1804.87
-1804.96
-1811.82
-1811.95
-1818.98
-1819.07
-1826.3
-1826.4
-1833.82
-1833.93
-1841.57
-1841.67
-1849.51
-1849.64
-1857.7
-1857.82
-1866.13
-1866.25
-1874.81
-1874.94
-1883.76
-1883.89
-1892.99
-1893.12
-1902.53
-1902.66
-1912.37
-1912.52
-1922.57
-1922.7
-1933.22
-1933.32
-1944.33
-1944.41
762.525
762.406
555.469
554.852
468.062
466.209
437.282
436.086
416.428
416.153
399.14
399.295
385.326
385.46
373.56
373.881
363.057
363.595
353.659
354.018
344.915
345.206
336.669
337.07
328.986
329.366
321.734
322.087
314.865
315.163
308.336
308.534
302.042
302.211
295.974
296.119
290.119
290.21
284.427
284.464
278.842
278.873
273.348
273.413
267.967
268.027
262.661
262.712
257.375
257.466
252.116
252.238
246.874
247.01
241.622
241.786
236.348
236.537
231.044
231.248
225.693
225.922
220.279
220.536
214.792
215.06
209.215
209.49
203.527
203.824
197.726
198.053
191.826
192.167
185.821
186.169
179.698
180.058
173.463
173.826
167.098
167.467
160.602
160.975
153.965
154.354
147.167
147.585
140.231
140.638
133.125
133.525
125.827
126.228
118.33
118.736
110.607
111.052
102.701
103.119
94.559
94.9776
86.1819
86.5965
77.5618
77.9648
68.6526
69.0839
59.4605
59.8981
49.9613
50.3984
40.1375
40.5363
29.8968
30.308
19.0953
19.5159
7.85143
8.2827
)
;
    }
}


// ************************************************************************* //
