/*--------------------------------*- C++ -*----------------------------------*\
  =========                 |
  \\      /  F ield         | OpenFOAM: The Open Source CFD Toolbox
   \\    /   O peration     | Website:  https://openfoam.org
    \\  /    A nd           | Version:  8
     \\/     M anipulation  |
\*---------------------------------------------------------------------------*/
FoamFile
{
    version     2.0;
    format      ascii;
    class       volScalarField;
    location    "900";
    object      epsilon;
}
// * * * * * * * * * * * * * * * * * * * * * * * * * * * * * * * * * * * * * //

dimensions      [0 2 -3 0 0 0 0];

internalField   nonuniform List<scalar> 
8400
(
0.0418151
0.0397364
0.0376878
0.0356916
0.0337634
0.0319825
0.0304579
0.0292024
0.0281758
0.0273221
0.0265834
0.0259034
0.0252328
0.024525
0.0237407
0.0228584
0.0218808
0.0208379
0.0198283
0.0188917
0.0180303
0.0172404
0.0165157
0.0158665
0.0153622
0.0150294
0.0148658
0.0148716
0.0150686
0.0155045
0.016271
0.0175402
0.0196246
0.0230367
0.0283716
0.0353913
0.0411198
0.0437466
0.0445805
0.0448722
0.0449345
0.0451066
0.0454593
0.0456898
0.0458407
0.04596
0.0460408
0.0460739
0.046054
0.0459744
0.00697569
0.00714502
0.007208
0.00725899
0.00737153
0.00754822
0.00773139
0.00789776
0.00804219
0.00816985
0.00829451
0.0084319
0.00859095
0.00877851
0.00900018
0.00925389
0.00953015
0.00981366
0.010014
0.0101108
0.0101373
0.0101502
0.0102398
0.0104665
0.0106961
0.0108876
0.0110182
0.0110775
0.0110592
0.0109466
0.0106999
0.0102583
0.00958728
0.00877852
0.0080619
0.00816857
0.00934627
0.0100855
0.0106157
0.011059
0.0114064
0.0116865
0.0120373
0.0123299
0.0122864
0.011929
0.0113312
0.010593
0.00980428
0.00903685
0.0120837
0.0114591
0.0112086
0.0112468
0.0114506
0.0116901
0.0118838
0.0120165
0.012093
0.0121374
0.0121418
0.0120949
0.0120036
0.0118696
0.0116904
0.011448
0.0111164
0.0106802
0.010199
0.00976135
0.00943022
0.00920674
0.00909073
0.00972421
0.0105934
0.0111415
0.0114196
0.0115516
0.0116058
0.0116155
0.0115945
0.0115424
0.0114471
0.0112698
0.00902476
0.00436212
0.00447139
0.00461182
0.00467258
0.00484079
0.00495543
0.00506261
0.00525255
0.0054476
0.00544181
0.00526919
0.00499379
0.00468285
0.00438503
0.00412944
0.0131381
0.0131035
0.0130693
0.0130361
0.0130048
0.0129749
0.0129458
0.0129177
0.0128898
0.0128614
0.012831
0.0127975
0.0127603
0.0127177
0.012668
0.0126106
0.0125466
0.012476
0.0123855
0.0122501
0.012059
0.0118816
0.011837
0.0118803
0.0119298
0.011972
0.0120006
0.0120136
0.0120101
0.0119882
0.011944
0.0118749
0.0118036
0.0117202
0.011454
0.0102586
0.00920457
0.00843908
0.00446821
0.00344252
0.00348041
0.00353911
0.00340951
0.00353945
0.00356871
0.00350235
0.00339157
0.00327595
0.00317719
0.00310351
0.0131569
0.0131426
0.0131281
0.0131134
0.0130986
0.0130832
0.0130678
0.0130519
0.0130358
0.0130194
0.013003
0.0129866
0.0129701
0.0129538
0.0129376
0.0129209
0.0129024
0.012882
0.0128601
0.0128387
0.0128209
0.0128021
0.0127817
0.0127593
0.0127347
0.0127077
0.0126784
0.0126469
0.0126134
0.0125775
0.0125384
0.0124925
0.0124214
0.0123245
0.0121866
0.0118768
0.0114025
0.0107301
0.00922209
0.00803535
0.00749339
0.0049179
0.00286
0.00290538
0.00294262
0.00291755
0.00286888
0.00282071
0.00278249
0.00275578
0.0131515
0.0131315
0.0131112
0.0130908
0.0130703
0.0130495
0.0130287
0.0130077
0.0129867
0.0129656
0.0129446
0.0129237
0.0129029
0.0128824
0.0128621
0.0128426
0.0128239
0.0128056
0.0127873
0.0127688
0.0127497
0.0127301
0.0127097
0.0126885
0.0126664
0.0126434
0.0126195
0.012595
0.0125702
0.0125442
0.012517
0.0124874
0.0124508
0.0124005
0.0123274
0.0121957
0.0119698
0.0115873
0.0108352
0.00993392
0.0090586
0.00762308
0.00625231
0.00314283
0.00269523
0.00268257
0.00265336
0.00262339
0.00259608
0.00257062
0.0131507
0.0131297
0.0131085
0.0130872
0.0130655
0.0130437
0.0130213
0.0129989
0.0129761
0.0129531
0.0129301
0.012907
0.0128842
0.0128616
0.0128391
0.0128166
0.0127943
0.0127722
0.0127503
0.0127283
0.012706
0.0126834
0.0126606
0.012637
0.0126127
0.0125878
0.0125627
0.0125369
0.0125105
0.0124846
0.0124598
0.0124355
0.0124099
0.012379
0.0123361
0.0122651
0.0121403
0.0119115
0.0114642
0.0108077
0.00999358
0.00879767
0.0073495
0.00513411
0.00288655
0.00259417
0.00257595
0.00255633
0.00253621
0.00251462
0.013147
0.0131221
0.0130969
0.0130715
0.0130457
0.0130199
0.0129935
0.012967
0.0129401
0.012913
0.012886
0.0128591
0.0128324
0.0128061
0.0127798
0.012754
0.0127287
0.0127037
0.0126791
0.0126544
0.0126292
0.0126034
0.0125772
0.0125507
0.0125237
0.0124961
0.0124678
0.0124398
0.0124133
0.0123893
0.0123683
0.0123501
0.0123338
0.0123163
0.0122922
0.0122514
0.0121758
0.0120275
0.0117283
0.01123
0.010513
0.00943307
0.00797717
0.00593367
0.00365785
0.00259908
0.00258593
0.00259366
0.0026018
0.00261036
0.0131422
0.013112
0.0130814
0.0130505
0.0130195
0.0129877
0.0129559
0.0129236
0.0128909
0.012858
0.0128251
0.0127924
0.0127601
0.0127277
0.0126961
0.0126653
0.0126353
0.0126058
0.0125767
0.0125478
0.0125188
0.0124893
0.0124588
0.0124274
0.0123957
0.0123645
0.012335
0.0123083
0.0122851
0.0122663
0.0122526
0.0122437
0.012238
0.0122331
0.0122242
0.0122034
0.0121565
0.0120535
0.0118331
0.0114305
0.0107875
0.00977385
0.00832166
0.00633019
0.00413622
0.00280092
0.0026439
0.00269792
0.00275273
0.00280715
0.0131333
0.0130932
0.013053
0.0130124
0.0129713
0.0129297
0.0128874
0.0128442
0.012801
0.0127581
0.0127152
0.0126725
0.0126302
0.0125894
0.01255
0.0125122
0.012476
0.0124416
0.0124083
0.0123757
0.0123431
0.0123102
0.0122772
0.0122446
0.0122131
0.0121839
0.0121584
0.0121379
0.012124
0.0121173
0.0121173
0.012123
0.0121319
0.012141
0.0121461
0.0121404
0.0121123
0.0120363
0.0118593
0.0115111
0.0109118
0.0099287
0.00847054
0.00650177
0.00439504
0.0030197
0.00273218
0.00282083
0.00292792
0.00302378
0.0131158
0.013055
0.012995
0.0129351
0.0128738
0.012812
0.0127483
0.0126831
0.0126165
0.0125496
0.0124838
0.0124208
0.0123608
0.0123048
0.0122533
0.0122067
0.0121656
0.0121286
0.0120941
0.0120622
0.0120321
0.0120033
0.0119766
0.0119527
0.0119322
0.011918
0.0119123
0.0119164
0.0119301
0.0119501
0.0119746
0.012001
0.0120271
0.0120506
0.0120685
0.0120741
0.0120577
0.0119965
0.011841
0.0115179
0.0109341
0.0099517
0.00847392
0.00652147
0.004513
0.00319393
0.0028385
0.00292186
0.00307154
0.0031989
0.013048
0.0129103
0.0127873
0.0126642
0.0125309
0.0123752
0.0121836
0.0118995
0.0114522
0.0113248
0.0112771
0.0112579
0.0112598
0.0112741
0.0112988
0.0113311
0.0113726
0.0114193
0.0114566
0.0114891
0.0115096
0.0115277
0.0115529
0.0115834
0.0116159
0.011651
0.0116885
0.0117291
0.011773
0.0118174
0.0118604
0.0119008
0.0119394
0.0119714
0.0119972
0.0120098
0.0119992
0.0119429
0.011792
0.0114701
0.0108755
0.00986847
0.00836159
0.00643347
0.00454378
0.00332939
0.00295535
0.00301326
0.00317734
0.00332921
0.0125037
0.012296
0.0120782
0.0118752
0.0116908
0.0115252
0.0113815
0.0112613
0.0111738
0.0111161
0.0110747
0.0110508
0.0110444
0.0110538
0.0110744
0.0110984
0.0111251
0.0111574
0.0111919
0.0112293
0.0112696
0.0113124
0.0113588
0.0114088
0.0114613
0.0115152
0.0115691
0.0116234
0.0116767
0.0117289
0.011779
0.0118246
0.0118663
0.0119013
0.0119279
0.0119401
0.0119272
0.0118657
0.0117082
0.0113785
0.010748
0.00968971
0.00815232
0.0062708
0.00452864
0.00344467
0.00308113
0.00311211
0.00326905
0.00343146
0.0117561
0.0115898
0.0114299
0.0112963
0.0111906
0.0111092
0.0110491
0.0110076
0.0109811
0.0109676
0.0109644
0.0109696
0.0109821
0.0110007
0.0110241
0.0110515
0.0110823
0.0111161
0.0111525
0.0111915
0.0112331
0.0112773
0.0113235
0.0113718
0.0114218
0.0114729
0.0115242
0.0115755
0.0116262
0.0116751
0.0117214
0.0117637
0.0118013
0.0118316
0.011851
0.0118528
0.0118239
0.0117389
0.0115511
0.0111869
0.0105286
0.00946355
0.00788307
0.00606349
0.00450193
0.00356121
0.00321962
0.00322003
0.0033547
0.0035165
0.0111801
0.0111004
0.0110315
0.0109801
0.0109452
0.0109242
0.0109148
0.0109144
0.0109214
0.0109342
0.0109518
0.0109731
0.0109976
0.0110246
0.0110537
0.0110848
0.0111176
0.0111519
0.0111875
0.0112243
0.0112622
0.0113013
0.0113414
0.0113825
0.0114244
0.0114666
0.0115089
0.0115508
0.0115918
0.0116312
0.0116679
0.0117
0.0117257
0.0117419
0.0117436
0.011722
0.0116609
0.0115333
0.0112939
0.0108749
0.0101827
0.00913171
0.00763558
0.00584373
0.00449403
0.00370031
0.00338359
0.00334941
0.00344705
0.00358979
0.010891
0.0108756
0.0108667
0.0108654
0.010871
0.0108822
0.010898
0.0109173
0.0109393
0.0109634
0.0109892
0.0110164
0.0110445
0.0110733
0.0111028
0.0111329
0.0111634
0.0111943
0.0112255
0.0112568
0.0112884
0.0113203
0.0113523
0.0113843
0.0114162
0.0114477
0.0114786
0.0115083
0.011536
0.011561
0.0115818
0.0115966
0.0116024
0.0115948
0.0115671
0.0115084
0.0114013
0.0112186
0.0109192
0.0104469
0.00973388
0.00872333
0.0073693
0.00567677
0.00453416
0.00388474
0.00359674
0.00352989
0.0035818
0.00368891
0.0108286
0.0108431
0.0108598
0.0108786
0.0108992
0.0109213
0.0109442
0.0109677
0.0109915
0.0110156
0.0110396
0.0110635
0.0110872
0.0111105
0.0111336
0.0111565
0.0111791
0.0112015
0.0112236
0.0112454
0.011267
0.0112881
0.0113087
0.0113287
0.011348
0.011366
0.0113821
0.0113958
0.0114062
0.0114121
0.0114116
0.0114018
0.0113794
0.011339
0.0112727
0.0111689
0.0110104
0.0107727
0.0104229
0.00992015
0.00922088
0.00829229
0.00711781
0.00556201
0.00464576
0.00413861
0.00389091
0.00380705
0.00382117
0.00389087
0.0108677
0.0108859
0.0109041
0.0109221
0.0109397
0.010957
0.0109736
0.0109896
0.011005
0.0110196
0.0110335
0.0110467
0.0110592
0.011071
0.0110823
0.011093
0.0111032
0.0111128
0.0111218
0.0111303
0.011138
0.0111448
0.0111507
0.0111553
0.011158
0.0111585
0.011156
0.0111498
0.0111385
0.0111203
0.011093
0.0110535
0.0109978
0.0109204
0.0108133
0.0106656
0.010463
0.0101868
0.00981431
0.00932048
0.0086812
0.00788151
0.00692439
0.00549838
0.00484564
0.00448523
0.00430009
0.00422982
0.00423432
0.00428739
0.0108572
0.0108662
0.0108741
0.0108807
0.0108862
0.0108904
0.0108935
0.0108954
0.0108962
0.0108959
0.0108948
0.0108926
0.0108897
0.0108859
0.0108813
0.010876
0.0108698
0.0108627
0.0108547
0.0108455
0.0108352
0.0108235
0.0108101
0.0107944
0.0107762
0.0107545
0.0107286
0.0106972
0.010659
0.0106122
0.0105545
0.010483
0.0103935
0.0102814
0.0101405
0.00996251
0.00973776
0.00945471
0.00910117
0.0086656
0.00813864
0.00751775
0.00682604
0.00550043
0.00514267
0.0049438
0.004852
0.00483485
0.00487001
0.00494206
0.0318824
0.0310033
0.0301871
0.0294158
0.0286785
0.0279668
0.027274
0.0265956
0.0259278
0.0252682
0.0246147
0.0239661
0.0233214
0.0226802
0.0220424
0.0214084
0.0207786
0.0201536
0.0195344
0.0189221
0.0183174
0.0177217
0.0171359
0.0165611
0.0159982
0.015448
0.0149112
0.0143882
0.0138786
0.013382
0.0128971
0.0124227
0.0119564
0.0114952
0.0110356
0.0105727
0.0101011
0.00961565
0.00911315
0.00859477
0.00806607
0.00753193
0.00695223
0.00611394
0.00602563
0.00611
0.00629263
0.00654614
0.00685514
0.00720855
9.32911e-06
9.21464e-06
9.10143e-06
8.98472e-06
8.86624e-06
8.74662e-06
8.62794e-06
8.511e-06
8.39612e-06
8.28359e-06
8.17381e-06
8.06694e-06
7.96308e-06
7.86217e-06
7.76416e-06
7.66908e-06
7.57709e-06
7.48844e-06
7.40339e-06
7.32207e-06
7.23737e-06
7.15235e-06
7.06763e-06
6.98371e-06
6.90045e-06
6.79624e-06
6.70001e-06
6.60851e-06
6.51949e-06
6.43163e-06
6.34446e-06
6.25782e-06
6.1726e-06
6.09023e-06
6.01226e-06
5.93975e-06
5.87312e-06
5.81223e-06
5.75635e-06
5.70417e-06
5.65404e-06
5.604e-06
5.55146e-06
5.49562e-06
5.43645e-06
5.37465e-06
5.31105e-06
5.24614e-06
5.17915e-06
5.108e-06
8.98773e-06
8.41478e-06
7.89679e-06
7.41851e-06
6.97315e-06
6.55884e-06
6.17331e-06
5.81522e-06
5.48336e-06
5.17643e-06
4.89305e-06
4.63189e-06
4.39152e-06
4.17051e-06
3.96746e-06
3.78098e-06
3.60986e-06
3.45296e-06
3.30962e-06
3.1781e-06
7.29174e-07
7.28149e-07
7.257e-07
7.22782e-07
7.19884e-07
7.23055e-07
7.26418e-07
7.28907e-07
7.30072e-07
7.29828e-07
7.28318e-07
7.25869e-07
7.22847e-07
7.19625e-07
7.16556e-07
7.13943e-07
7.11986e-07
7.10718e-07
7.10002e-07
7.09589e-07
7.09181e-07
7.08506e-07
7.07441e-07
7.05783e-07
7.03402e-07
7.00294e-07
6.96681e-07
6.93013e-07
6.89764e-07
6.86836e-07
8.98181e-06
8.39213e-06
7.8526e-06
7.35522e-06
6.89474e-06
6.46733e-06
6.07037e-06
5.70193e-06
5.36036e-06
5.04411e-06
4.75156e-06
4.48113e-06
4.23126e-06
4.00041e-06
3.78714e-06
3.59011e-06
3.40806e-06
3.24016e-06
3.1679e-06
7.31665e-07
7.22464e-07
7.15843e-07
7.10651e-07
7.0618e-07
7.02e-07
6.98069e-07
6.94065e-07
6.89847e-07
6.85333e-07
6.8051e-07
6.7543e-07
6.70202e-07
6.64985e-07
6.59955e-07
6.55282e-07
6.5109e-07
6.4743e-07
6.44272e-07
6.41525e-07
6.39036e-07
6.36608e-07
6.34051e-07
6.31205e-07
6.2796e-07
6.24245e-07
6.19995e-07
6.15178e-07
6.09965e-07
6.0506e-07
6.01815e-07
8.98362e-06
8.39872e-06
7.86207e-06
7.36534e-06
6.90451e-06
6.47654e-06
6.07914e-06
5.7104e-06
5.36871e-06
5.05247e-06
4.76008e-06
4.48991e-06
4.24029e-06
4.00961e-06
3.79632e-06
3.59898e-06
3.4163e-06
3.2471e-06
3.09102e-06
7.23553e-07
7.17077e-07
7.12076e-07
7.078e-07
7.0378e-07
6.99732e-07
6.9549e-07
6.90954e-07
6.8608e-07
6.80867e-07
6.75356e-07
6.69628e-07
6.63803e-07
6.5803e-07
6.52466e-07
6.4725e-07
6.4248e-07
6.38187e-07
6.34331e-07
6.30807e-07
6.27463e-07
6.24124e-07
6.20623e-07
6.16835e-07
6.12706e-07
6.08263e-07
6.03567e-07
5.98588e-07
5.93145e-07
5.87287e-07
5.82533e-07
8.98424e-06
8.40087e-06
7.86541e-06
7.36872e-06
6.90693e-06
6.47756e-06
6.07875e-06
5.70886e-06
5.36637e-06
5.04977e-06
4.75749e-06
4.48786e-06
4.23912e-06
4.00951e-06
3.79731e-06
3.60091e-06
3.41891e-06
3.25006e-06
3.09353e-06
7.23884e-07
7.17266e-07
7.1212e-07
7.07688e-07
7.03508e-07
6.99305e-07
6.9492e-07
6.90263e-07
6.85296e-07
6.80022e-07
6.74481e-07
6.68749e-07
6.62938e-07
6.57187e-07
6.51639e-07
6.4642e-07
6.41614e-07
6.37241e-07
6.33257e-07
6.29559e-07
6.26005e-07
6.22433e-07
6.18687e-07
6.14633e-07
6.10191e-07
6.0538e-07
6.00355e-07
5.95309e-07
5.90195e-07
5.84606e-07
5.79374e-07
8.98377e-06
8.40054e-06
7.86605e-06
7.37074e-06
6.91011e-06
6.48159e-06
6.08339e-06
5.71405e-06
5.37216e-06
5.0563e-06
4.76491e-06
4.49631e-06
4.24867e-06
4.0201e-06
3.80876e-06
3.61294e-06
3.43112e-06
3.26201e-06
3.10478e-06
7.25532e-07
7.18702e-07
7.1331e-07
7.08622e-07
7.04194e-07
6.99771e-07
6.95209e-07
6.90429e-07
6.85395e-07
6.80105e-07
6.7459e-07
6.68918e-07
6.63186e-07
6.57515e-07
6.52033e-07
6.46852e-07
6.42043e-07
6.37623e-07
6.33545e-07
6.29714e-07
6.26002e-07
6.22267e-07
6.18385e-07
6.14254e-07
6.09789e-07
6.04939e-07
5.99767e-07
5.94529e-07
5.89459e-07
5.84236e-07
5.79103e-07
8.9833e-06
8.39918e-06
7.8641e-06
7.36857e-06
6.90792e-06
6.47936e-06
6.08113e-06
5.71188e-06
5.37033e-06
5.05513e-06
4.76471e-06
4.49734e-06
4.25104e-06
4.02378e-06
3.81355e-06
3.61849e-06
3.437e-06
3.26773e-06
3.10991e-06
7.2629e-07
7.19387e-07
7.13837e-07
7.08909e-07
7.04213e-07
6.99534e-07
6.94755e-07
6.89814e-07
6.84685e-07
6.79366e-07
6.73884e-07
6.68291e-07
6.62668e-07
6.57116e-07
6.51742e-07
6.4664e-07
6.41867e-07
6.37434e-07
6.33299e-07
6.29372e-07
6.25537e-07
6.21669e-07
6.17664e-07
6.13458e-07
6.09015e-07
6.04295e-07
5.99269e-07
5.94053e-07
5.88959e-07
5.83924e-07
5.78973e-07
8.98314e-06
8.3982e-06
7.86222e-06
7.36604e-06
6.90503e-06
6.47639e-06
6.07835e-06
5.7096e-06
5.36892e-06
5.05495e-06
4.76608e-06
4.50044e-06
4.2559e-06
4.03025e-06
3.82131e-06
3.62708e-06
3.44589e-06
3.27639e-06
3.1179e-06
7.30919e-07
7.25038e-07
7.19191e-07
7.134e-07
7.07666e-07
7.01978e-07
6.96319e-07
6.90666e-07
6.85001e-07
6.7931e-07
6.73598e-07
6.67887e-07
6.62225e-07
6.56679e-07
6.51325e-07
6.46229e-07
6.41432e-07
6.36935e-07
6.32701e-07
6.28653e-07
6.24693e-07
6.20715e-07
6.16621e-07
6.12352e-07
6.07906e-07
6.0329e-07
5.9849e-07
5.93501e-07
5.88529e-07
5.83647e-07
5.78861e-07
8.98304e-06
8.39745e-06
7.86068e-06
7.36379e-06
6.90223e-06
6.47331e-06
6.0753e-06
5.70694e-06
5.36704e-06
5.05422e-06
4.76681e-06
4.50279e-06
4.25987e-06
4.03563e-06
3.82775e-06
3.63413e-06
3.45302e-06
3.28308e-06
3.12366e-06
7.31756e-07
7.25764e-07
7.19718e-07
7.1367e-07
7.07659e-07
7.01712e-07
6.9584e-07
6.9004e-07
6.84302e-07
6.7861e-07
6.72956e-07
6.67345e-07
6.61801e-07
6.56365e-07
6.51091e-07
6.46027e-07
6.41204e-07
6.36623e-07
6.32258e-07
6.28052e-07
6.23935e-07
6.19835e-07
6.15673e-07
6.11391e-07
6.06969e-07
6.02444e-07
5.97836e-07
5.93113e-07
5.88365e-07
5.83667e-07
5.79037e-07
8.98283e-06
8.39648e-06
7.85891e-06
7.3614e-06
6.89946e-06
6.47041e-06
6.07262e-06
5.70488e-06
5.36598e-06
5.05451e-06
4.76867e-06
4.50633e-06
4.265e-06
4.04211e-06
3.83519e-06
3.64203e-06
3.46087e-06
3.29035e-06
3.12988e-06
3.09117e-06
7.26314e-07
7.19993e-07
7.13665e-07
7.07397e-07
7.0124e-07
6.95223e-07
6.89354e-07
6.83621e-07
6.78001e-07
6.72466e-07
6.67e-07
6.61599e-07
6.5628e-07
6.51074e-07
6.46015e-07
6.41129e-07
6.36426e-07
6.31891e-07
6.27491e-07
6.23186e-07
6.18934e-07
6.14693e-07
6.10423e-07
6.06083e-07
6.01685e-07
5.97267e-07
5.92808e-07
5.88322e-07
5.83841e-07
5.79373e-07
8.98251e-06
8.39523e-06
7.85678e-06
7.35864e-06
6.8964e-06
6.46741e-06
6.07004e-06
5.70308e-06
5.36532e-06
5.05526e-06
4.77101e-06
4.51024e-06
4.27035e-06
4.0486e-06
3.84242e-06
3.64952e-06
3.4681e-06
3.29685e-06
3.13522e-06
3.09521e-06
7.26692e-07
7.20074e-07
7.13437e-07
7.06876e-07
7.00467e-07
6.94258e-07
6.88269e-07
6.82491e-07
6.76894e-07
6.71435e-07
6.66074e-07
6.60783e-07
6.55554e-07
6.50395e-07
6.45328e-07
6.40375e-07
6.35554e-07
6.30868e-07
6.26309e-07
6.21862e-07
6.17508e-07
6.13234e-07
6.09023e-07
6.04843e-07
6.00669e-07
5.9651e-07
5.92355e-07
5.88178e-07
5.83967e-07
5.79697e-07
8.98214e-06
8.39378e-06
7.85432e-06
7.35555e-06
6.89309e-06
6.46429e-06
6.0675e-06
5.70149e-06
5.36495e-06
5.05631e-06
4.77356e-06
4.51425e-06
4.27561e-06
4.0548e-06
3.84913e-06
3.65629e-06
3.47444e-06
3.30233e-06
3.13946e-06
3.09815e-06
7.26923e-07
7.20074e-07
7.13237e-07
7.06534e-07
7.00053e-07
6.93847e-07
6.87931e-07
6.82279e-07
6.76838e-07
6.71543e-07
6.66327e-07
6.6114e-07
6.55956e-07
6.50769e-07
6.45596e-07
6.40468e-07
6.35418e-07
6.30474e-07
6.25662e-07
6.20996e-07
6.16484e-07
6.12131e-07
6.07931e-07
6.03869e-07
5.99906e-07
5.96009e-07
5.92143e-07
5.88259e-07
5.84307e-07
5.80228e-07
8.98177e-06
8.39231e-06
7.85181e-06
7.35244e-06
6.88985e-06
6.46135e-06
6.06528e-06
5.70031e-06
5.36508e-06
5.05788e-06
4.77659e-06
4.51864e-06
4.28112e-06
4.06112e-06
3.85584e-06
3.66294e-06
3.48061e-06
3.30761e-06
3.14352e-06
3.10087e-06
7.27116e-07
7.20033e-07
7.12992e-07
7.06131e-07
6.99555e-07
6.9332e-07
6.87436e-07
6.81865e-07
6.76538e-07
6.71368e-07
6.66267e-07
6.61162e-07
6.56011e-07
6.50798e-07
6.45536e-07
6.40259e-07
6.35017e-07
6.29862e-07
6.24848e-07
6.2002e-07
6.15414e-07
6.11047e-07
6.06927e-07
6.0303e-07
5.99313e-07
5.95719e-07
5.92173e-07
5.88598e-07
5.84909e-07
5.81021e-07
8.98139e-06
8.39084e-06
7.84931e-06
7.34932e-06
6.88658e-06
6.45837e-06
6.06292e-06
5.69884e-06
5.36466e-06
5.05861e-06
4.77845e-06
4.52148e-06
4.28474e-06
4.06519e-06
3.86001e-06
3.66681e-06
3.4838e-06
3.30982e-06
3.14451e-06
3.10071e-06
7.26897e-07
7.19632e-07
7.12442e-07
7.0548e-07
6.98855e-07
6.92625e-07
6.86791e-07
6.81305e-07
6.76081e-07
6.71015e-07
6.66003e-07
6.60958e-07
6.5582e-07
6.5057e-07
6.45219e-07
6.39806e-07
6.34396e-07
6.29065e-07
6.2389e-07
6.18944e-07
6.14291e-07
6.09957e-07
6.05955e-07
6.02261e-07
5.98816e-07
5.95537e-07
5.92323e-07
5.89063e-07
5.85641e-07
5.81944e-07
8.98101e-06
8.38941e-06
7.84696e-06
7.34652e-06
6.88384e-06
6.45617e-06
6.06164e-06
5.69874e-06
5.3659e-06
5.0612e-06
4.7823e-06
4.52639e-06
4.29042e-06
4.07129e-06
3.86614e-06
3.67259e-06
3.48887e-06
3.31391e-06
3.14745e-06
3.10236e-06
7.26957e-07
7.19519e-07
7.12195e-07
7.05144e-07
6.9848e-07
6.92255e-07
6.86462e-07
6.8104e-07
6.75891e-07
6.70897e-07
6.65939e-07
6.60918e-07
6.55765e-07
6.50452e-07
6.44995e-07
6.39441e-07
6.33865e-07
6.28367e-07
6.23048e-07
6.18005e-07
6.13317e-07
6.09034e-07
6.05161e-07
6.01672e-07
5.98494e-07
5.95524e-07
5.92631e-07
5.89675e-07
5.86515e-07
5.83017e-07
8.98064e-06
8.38783e-06
7.84406e-06
7.34258e-06
6.87925e-06
6.45129e-06
6.05679e-06
5.69419e-06
5.36185e-06
5.05776e-06
4.77948e-06
4.52411e-06
4.28852e-06
4.06951e-06
3.86421e-06
3.67024e-06
3.48589e-06
3.31015e-06
3.14287e-06
3.09712e-06
7.26038e-07
7.18538e-07
7.11189e-07
7.04155e-07
6.97546e-07
6.91407e-07
6.8572e-07
6.80416e-07
6.75385e-07
6.70498e-07
6.65627e-07
6.60662e-07
6.55529e-07
6.50195e-07
6.44678e-07
6.39032e-07
6.33349e-07
6.27746e-07
6.22346e-07
6.17273e-07
6.12615e-07
6.08439e-07
6.04748e-07
6.01508e-07
5.98636e-07
5.96012e-07
5.93484e-07
5.90893e-07
5.88079e-07
5.84897e-07
8.98032e-06
8.38663e-06
7.84241e-06
7.34121e-06
6.87869e-06
6.45187e-06
6.05867e-06
5.69738e-06
5.36625e-06
5.06318e-06
4.78564e-06
4.53071e-06
4.29518e-06
4.07588e-06
3.86997e-06
3.67513e-06
3.48973e-06
3.31289e-06
3.14452e-06
3.09777e-06
7.26016e-07
7.1843e-07
7.11033e-07
7.03987e-07
6.97396e-07
6.91298e-07
6.85669e-07
6.80436e-07
6.75483e-07
6.70678e-07
6.65887e-07
6.60999e-07
6.55933e-07
6.50654e-07
6.45184e-07
6.39586e-07
6.33962e-07
6.28449e-07
6.23185e-07
6.1831e-07
6.13925e-07
6.10089e-07
6.06816e-07
6.04063e-07
6.01739e-07
5.99718e-07
5.97841e-07
5.95948e-07
5.93879e-07
5.91492e-07
8.98001e-06
8.38153e-06
7.83231e-06
7.3271e-06
6.86174e-06
6.4333e-06
6.03955e-06
5.67855e-06
5.34829e-06
5.04649e-06
4.77041e-06
4.51695e-06
4.28283e-06
4.0648e-06
3.86003e-06
3.66622e-06
3.48182e-06
3.30597e-06
3.13871e-06
3.09352e-06
7.25576e-07
7.1837e-07
7.11343e-07
7.04754e-07
6.98708e-07
6.93227e-07
6.88275e-07
6.83776e-07
6.79615e-07
6.75655e-07
6.71755e-07
6.67791e-07
6.6367e-07
6.59346e-07
6.54827e-07
6.50181e-07
6.45514e-07
6.40978e-07
6.36729e-07
6.32916e-07
6.29605e-07
6.26807e-07
6.24535e-07
6.22766e-07
6.21441e-07
6.20458e-07
6.19734e-07
6.19185e-07
6.18681e-07
6.18087e-07
8.98151e-06
8.38743e-06
7.8455e-06
7.34821e-06
6.89326e-06
6.47767e-06
6.09802e-06
5.75172e-06
5.4365e-06
5.14989e-06
4.88914e-06
4.65111e-06
4.43242e-06
4.22967e-06
4.03971e-06
3.85997e-06
3.68865e-06
3.52482e-06
3.36838e-06
3.21869e-06
3.12453e-06
3.12461e-06
3.11669e-06
3.10658e-06
3.0968e-06
3.08846e-06
7.31097e-07
7.30375e-07
7.29891e-07
7.29531e-07
7.2915e-07
7.28594e-07
7.27729e-07
7.2647e-07
7.24799e-07
7.22761e-07
7.20472e-07
7.18101e-07
7.15846e-07
7.13877e-07
7.11936e-07
7.09938e-07
7.07942e-07
7.06066e-07
7.04421e-07
7.03074e-07
7.02413e-07
7.02561e-07
7.03429e-07
7.04861e-07
9.33111e-06
9.2095e-06
9.0919e-06
8.97761e-06
8.86448e-06
8.75215e-06
8.64207e-06
8.53549e-06
8.43314e-06
8.33503e-06
8.24041e-06
8.14788e-06
8.05573e-06
7.96227e-06
7.8662e-06
7.76691e-06
7.66457e-06
7.5601e-06
7.45496e-06
7.35074e-06
7.22304e-06
7.10743e-06
6.99492e-06
6.88841e-06
6.78909e-06
6.69666e-06
6.60986e-06
6.52699e-06
6.44632e-06
6.36639e-06
6.2862e-06
6.20526e-06
6.12366e-06
6.04192e-06
5.96107e-06
5.88221e-06
5.80657e-06
5.73519e-06
5.6688e-06
5.60786e-06
5.55343e-06
5.50497e-06
5.4609e-06
5.41938e-06
5.37852e-06
5.33655e-06
5.29074e-06
5.23988e-06
5.18356e-06
5.12197e-06
3.68252e-07
3.15799e-07
2.46589e-07
1.95742e-07
1.68943e-07
1.56734e-07
1.50304e-07
1.45951e-07
1.42246e-07
1.38919e-07
1.359e-07
1.33288e-07
1.31425e-07
1.30989e-07
1.33403e-07
1.40063e-07
1.51402e-07
1.65451e-07
1.78774e-07
1.88775e-07
3.70788e-07
3.18547e-07
2.48536e-07
1.97422e-07
1.70621e-07
1.58436e-07
1.51993e-07
1.47622e-07
1.43924e-07
1.4063e-07
1.37657e-07
1.35104e-07
1.33289e-07
1.32925e-07
1.35467e-07
1.42387e-07
1.54173e-07
1.68833e-07
1.82749e-07
1.92417e-07
3.74103e-07
3.21392e-07
2.50567e-07
1.99159e-07
1.72326e-07
1.6013e-07
1.53651e-07
1.49255e-07
1.45562e-07
1.42297e-07
1.39363e-07
1.36836e-07
1.35033e-07
1.34706e-07
1.37343e-07
1.4451e-07
1.56744e-07
1.72055e-07
1.86627e-07
1.95862e-07
3.77009e-07
3.23992e-07
2.52417e-07
2.00778e-07
1.73948e-07
1.61779e-07
1.55327e-07
1.50982e-07
1.47365e-07
1.44178e-07
1.41306e-07
1.38795e-07
1.36976e-07
1.36637e-07
1.39315e-07
1.46649e-07
1.59259e-07
1.75193e-07
1.90481e-07
1.99458e-07
3.79976e-07
3.26435e-07
2.54161e-07
2.02329e-07
1.7553e-07
1.63417e-07
1.57047e-07
1.52817e-07
1.49324e-07
1.46232e-07
1.43392e-07
1.40847e-07
1.38942e-07
1.38522e-07
1.4117e-07
1.48587e-07
1.61487e-07
1.77971e-07
1.93993e-07
2.03005e-07
3.82926e-07
3.2862e-07
2.55722e-07
2.03766e-07
1.77046e-07
1.65041e-07
1.58812e-07
1.54736e-07
1.51373e-07
1.4835e-07
1.45487e-07
1.42847e-07
1.4081e-07
1.40279e-07
1.42876e-07
1.50369e-07
1.63553e-07
1.80562e-07
1.97269e-07
2.06482e-07
3.85755e-07
3.30492e-07
2.57072e-07
2.0508e-07
1.78496e-07
1.6664e-07
1.60567e-07
1.56636e-07
1.53372e-07
1.50366e-07
1.47439e-07
1.44679e-07
1.42513e-07
1.41872e-07
1.44403e-07
1.51962e-07
1.65443e-07
1.83011e-07
2.00378e-07
2.0986e-07
3.88403e-07
3.32107e-07
2.58263e-07
2.06315e-07
1.79904e-07
1.68191e-07
1.62241e-07
1.58402e-07
1.55178e-07
1.52146e-07
1.49158e-07
1.46326e-07
1.44104e-07
1.43411e-07
1.45882e-07
1.53451e-07
1.67165e-07
1.85267e-07
2.0328e-07
2.13091e-07
3.90912e-07
3.33636e-07
2.59394e-07
2.07516e-07
1.81271e-07
1.69657e-07
1.63767e-07
1.59957e-07
1.56731e-07
1.53671e-07
1.50656e-07
1.4783e-07
1.45637e-07
1.44955e-07
1.47376e-07
1.54884e-07
1.68714e-07
1.87245e-07
2.05881e-07
2.16129e-07
3.93409e-07
3.35254e-07
2.60551e-07
2.08717e-07
1.82596e-07
1.71017e-07
1.65124e-07
1.61303e-07
1.5807e-07
1.55028e-07
1.52059e-07
1.49307e-07
1.4718e-07
1.4651e-07
1.48847e-07
1.56203e-07
1.70017e-07
1.88858e-07
2.08115e-07
2.1897e-07
3.96041e-07
3.37068e-07
2.61771e-07
2.09932e-07
1.83887e-07
1.72299e-07
1.66366e-07
1.62517e-07
1.59298e-07
1.56323e-07
1.53467e-07
1.5083e-07
1.48765e-07
1.48054e-07
1.50217e-07
1.57311e-07
1.70986e-07
1.90068e-07
2.09992e-07
2.21669e-07
3.98907e-07
3.39113e-07
2.63077e-07
2.11181e-07
1.85185e-07
1.7357e-07
1.67591e-07
1.63724e-07
1.60541e-07
1.57653e-07
1.54919e-07
1.52383e-07
1.5034e-07
1.49518e-07
1.51419e-07
1.58154e-07
1.71606e-07
1.90914e-07
2.11607e-07
2.24307e-07
4.02035e-07
3.4138e-07
2.645e-07
2.12499e-07
1.86535e-07
1.74903e-07
1.68892e-07
1.65021e-07
1.61873e-07
1.59054e-07
1.56392e-07
1.53896e-07
1.51817e-07
1.50831e-07
1.52421e-07
1.58755e-07
1.71954e-07
1.91518e-07
2.13098e-07
2.26945e-07
4.05436e-07
3.43882e-07
2.66015e-07
2.13892e-07
1.87976e-07
1.76343e-07
1.70304e-07
1.6642e-07
1.63279e-07
1.60477e-07
1.5782e-07
1.55298e-07
1.53132e-07
1.51962e-07
1.5325e-07
1.59201e-07
1.72153e-07
1.92019e-07
2.14569e-07
2.29593e-07
4.09126e-07
3.46468e-07
2.67568e-07
2.15344e-07
1.89495e-07
1.77868e-07
1.71792e-07
1.67862e-07
1.64681e-07
1.61837e-07
1.59127e-07
1.56538e-07
1.54272e-07
1.52939e-07
1.5397e-07
1.59586e-07
1.7231e-07
1.92488e-07
2.16044e-07
2.32201e-07
4.13033e-07
3.48949e-07
2.69051e-07
2.16769e-07
1.91006e-07
1.79389e-07
1.73267e-07
1.69262e-07
1.65995e-07
1.63063e-07
1.60273e-07
1.57612e-07
1.55266e-07
1.53815e-07
1.54645e-07
1.59962e-07
1.72457e-07
1.92905e-07
2.17459e-07
2.34688e-07
4.1701e-07
3.51104e-07
2.70326e-07
2.18051e-07
1.92399e-07
1.80803e-07
1.74637e-07
1.7055e-07
1.67181e-07
1.64149e-07
1.61281e-07
1.58565e-07
1.56171e-07
1.54641e-07
1.55304e-07
1.60329e-07
1.72562e-07
1.93189e-07
2.187e-07
2.36982e-07
4.20869e-07
3.52754e-07
2.7128e-07
2.19111e-07
1.93612e-07
1.82065e-07
1.75877e-07
1.71725e-07
1.6827e-07
1.65159e-07
1.62233e-07
1.59481e-07
1.57051e-07
1.5545e-07
1.55944e-07
1.60656e-07
1.72566e-07
1.93257e-07
2.19672e-07
2.39057e-07
4.24465e-07
3.53876e-07
2.71921e-07
2.19969e-07
1.94676e-07
1.83218e-07
1.77044e-07
1.72863e-07
1.69361e-07
1.66202e-07
1.63237e-07
1.60446e-07
1.57961e-07
1.56261e-07
1.56551e-07
1.60903e-07
1.72431e-07
1.93096e-07
2.2034e-07
2.40949e-07
4.2779e-07
3.54659e-07
2.72399e-07
2.20745e-07
1.95699e-07
1.84365e-07
1.78245e-07
1.74077e-07
1.70564e-07
1.6738e-07
1.64371e-07
1.61514e-07
1.58931e-07
1.57083e-07
1.57121e-07
1.61079e-07
1.72179e-07
1.92745e-07
2.2078e-07
2.42726e-07
4.31009e-07
3.55435e-07
2.7293e-07
2.21592e-07
1.96803e-07
1.85612e-07
1.79573e-07
1.75448e-07
1.71944e-07
1.68732e-07
1.65654e-07
1.62689e-07
1.59964e-07
1.57922e-07
1.57685e-07
1.61244e-07
1.71911e-07
1.92328e-07
2.21113e-07
2.44454e-07
4.34389e-07
3.56533e-07
2.7369e-07
2.22617e-07
1.9806e-07
1.87007e-07
1.81054e-07
1.76974e-07
1.73472e-07
1.70212e-07
1.67033e-07
1.6393e-07
1.61035e-07
1.58789e-07
1.58293e-07
1.61489e-07
1.71748e-07
1.91988e-07
2.2146e-07
2.46168e-07
4.382e-07
3.58144e-07
2.74737e-07
2.23828e-07
1.99454e-07
1.88511e-07
1.82622e-07
1.78565e-07
1.75042e-07
1.7171e-07
1.68413e-07
1.65168e-07
1.62115e-07
1.59701e-07
1.58996e-07
1.6189e-07
1.71783e-07
1.91828e-07
2.2189e-07
2.47859e-07
4.42616e-07
3.60263e-07
2.76006e-07
2.25145e-07
2.00899e-07
1.90026e-07
1.84163e-07
1.80097e-07
1.76527e-07
1.7311e-07
1.69707e-07
1.66347e-07
1.63189e-07
1.60671e-07
1.59826e-07
1.6248e-07
1.7204e-07
1.91873e-07
2.22407e-07
2.49488e-07
4.47659e-07
3.62752e-07
2.77376e-07
2.26463e-07
2.02299e-07
1.91457e-07
1.85582e-07
1.81477e-07
1.77846e-07
1.74355e-07
1.70878e-07
1.67459e-07
1.64266e-07
1.6171e-07
1.60783e-07
1.63237e-07
1.72482e-07
1.92075e-07
2.22965e-07
2.51011e-07
4.53248e-07
3.65466e-07
2.78768e-07
2.27735e-07
2.0362e-07
1.92779e-07
1.86865e-07
1.82706e-07
1.79016e-07
1.75476e-07
1.71968e-07
1.68544e-07
1.65369e-07
1.62819e-07
1.61835e-07
1.64105e-07
1.73036e-07
1.92355e-07
2.23505e-07
2.52407e-07
4.59284e-07
3.68369e-07
2.80208e-07
2.29011e-07
2.04921e-07
1.94064e-07
1.88098e-07
1.8388e-07
1.80144e-07
1.76574e-07
1.73063e-07
1.69664e-07
1.66525e-07
1.63984e-07
1.6294e-07
1.65022e-07
1.73636e-07
1.92658e-07
2.23992e-07
2.53685e-07
4.65749e-07
3.71568e-07
2.81825e-07
2.30418e-07
2.06331e-07
1.95445e-07
1.89422e-07
1.85146e-07
1.81363e-07
1.77766e-07
1.74252e-07
1.70867e-07
1.67743e-07
1.65187e-07
1.64061e-07
1.6595e-07
1.74253e-07
1.92978e-07
2.24445e-07
2.54886e-07
4.72736e-07
3.7523e-07
2.83771e-07
2.32092e-07
2.07976e-07
1.97051e-07
1.90965e-07
1.86622e-07
1.82776e-07
1.79127e-07
1.75578e-07
1.72166e-07
1.69014e-07
1.6641e-07
1.65189e-07
1.66892e-07
1.74911e-07
1.93359e-07
2.24927e-07
2.5606e-07
4.80391e-07
3.79451e-07
2.86117e-07
2.34096e-07
2.09915e-07
1.98933e-07
1.92771e-07
1.88338e-07
1.84398e-07
1.80656e-07
1.77026e-07
1.73542e-07
1.70326e-07
1.67654e-07
1.66341e-07
1.67883e-07
1.7566e-07
1.93867e-07
2.25507e-07
2.5724e-07
4.88821e-07
3.84145e-07
2.88799e-07
2.36379e-07
2.12101e-07
2.01041e-07
1.94783e-07
1.90234e-07
1.86166e-07
1.82294e-07
1.78547e-07
1.74965e-07
1.71673e-07
1.68939e-07