/*--------------------------------*- C++ -*----------------------------------*\
  =========                 |
  \\      /  F ield         | OpenFOAM: The Open Source CFD Toolbox
   \\    /   O peration     | Website:  https://openfoam.org
    \\  /    A nd           | Version:  8
     \\/     M anipulation  |
\*---------------------------------------------------------------------------*/
FoamFile
{
    version     2.0;
    format      ascii;
    class       volScalarField;
    location    "900";
    object      p;
}
// * * * * * * * * * * * * * * * * * * * * * * * * * * * * * * * * * * * * * //

dimensions      [1 -1 -2 0 0 0 0];

internalField   nonuniform List<scalar> 
8400
(
9507.57
4243.66
4912.93
14914.8
34899
63912.1
99771.7
139522
179964
217907
250565
275868
292564
300225
299258
290736
276321
258609
240646
225460
216217
216062
227804
256697
309084
385209
475114
564054
640274
698613
739286
765249
780556
789276
794523
798388
801963
806168
811213
816903
823146
829641
835696
840796
844841
847902
850088
851514
852297
852545
9852
-2664.88
-3191.2
8496.08
31147.5
62355.4
99833.3
141226
183507
223254
257371
283604
300520
307536
305119
294567
277796
257119
235848
218383
208890
211470
226709
256064
307674
385817
479093
570398
648001
707580
749449
776001
790615
797011
798641
799432
801500
805374
810585
816199
822561
829749
836517
841890
845910
848812
850763
851912
852376
852250
6501.33
-970.282
694.206
12330.3
33618.2
63156.7
99273
139696
181480
221496
256821
284479
301943
308238
303920
290546
270695
247847
226310
210712
204917
212951
232471
264482
319384
400640
493258
579798
652091
709120
751670
780359
796564
802673
802385
799664
798759
803280
810282
815114
821082
830101
838793
844722
848685
851334
852938
853710
853799
853306
-12169.6
-11081
-3244.06
10536.4
32143.9
61459.4
97132.6
136843
177576
216192
249780
275673
291891
297598
292746
278154
257263
235041
215705
201861
194609
198510
219627
258890
319527
398930
482200
556206
618259
671653
717639
752863
777521
793497
799923
798327
798778
809668
813346
810892
816232
830985
842782
848882
852492
854583
855532
855631
855074
853996
-32926.5
-5375.19
24996.5
49724.5
75016.7
103271
133611
164094
192628
217364
236861
250078
256524
256468
251364
242977
232208
220613
210681
205408
210250
229176
261373
303959
353579
404974
451881
492363
530380
571601
618457
669126
717325
755866
780278
791589
798668
808730
808644
809542
825947
840653
848242
854163
857529
858882
858995
858286
856991
855266
6416.22
31739.9
60676.8
83601.3
103743
124159
144789
164445
182017
196701
207994
215650
219678
220329
217902
213696
209876
208230
210163
216749
228494
245736
268316
294697
323058
352113
381674
413226
449368
490838
536731
586257
636341
682435
720649
749958
773467
794571
809482
821117
835149
844203
854731
860795
863343
863613
862664
861015
858904
856482
6365.66
39058.6
68410
90606.7
109037
126462
143055
158159
171272
182157
190757
197136
201473
204077
205456
206223
207245
209498
213683
220225
229255
241081
256345
275219
297546
323413
353202
387013
423919
463162
504309
546809
589735
631705
671435
708467
743399
776362
804495
825872
841450
850755
859714
865525
868641
868207
866092
863541
860690
857650
20992.8
58422.3
88676.3
110604
127381
141748
154523
165416
174273
181154
186266
189896
192394
194171
195444
196588
198392
201520
206411
213347
222506
234050
248214
265471
286226
310417
337381
366436
397280
429849
464458
501392
540635
581847
624555
668226
711960
753970
791259
820924
841791
854221
862801
868995
871703
871368
868649
865481
862096
858579
26736.1
68512.6
98488
119437
135226
147767
157662
165331
170980
174771
177109
178517
179534
180418
181422
183112
185984
190358
196434
204338
214166
225989
239869
255883
274078
294388
316669
340877
367236
396157
428111
463422
502209
544391
589680
637314
685693
732500
775081
810688
837182
853841
863768
870262
873100
872626
870080
866682
863041
859242
33020.3
76981.2
106859
127698
143387
155404
164147
169940
173237
174565
174582
173981
173300
173076
173827
175888
179440
184555
191264
199575
209487
220979
234023
248627
264844
282782
302618
324634
349220
376820
407857
442630
481279
523777
569824
618563
668288
716700
761449
800193
830675
851245
863345
870315
873347
872884
870545
867279
863640
859760
34741.5
80405.6
110322
131477
147383
159131
167282
172496
175012
174950
173206
170917
168956
167975
168432
170549
174339
179726
186640
195028
204840
216031
228580
242516
257948
275080
294216
315752
340129
367770
398999
434011
472870
515499
561546
610225
659954
708453
753473
793055
825331
848429
862569
870302
873476
873090
870826
867711
864157
860282
38591.5
81501.2
110455
131707
147653
159234
167189
172416
174935
174862
172923
170385
168210
167093
167517
169692
173584
179066
186042
194444
204209
215293
227693
241465
256757
273814
292980
314673
339336
367359
399015
434425
473597
516403
562483
611017
660390
708294
752496
791311
823445
847335
862649
871092
874426
874053
871754
868627
865054
861157
37357.5
78255.3
107509
129224
145472
157344
165633
171113
173614
173546
172167
170360
168857
168256
169007
171357
175340
180890
187934
196410
206261
217455
230006
243999
259606
277098
296818
319166
344535
373254
405534
441460
481024
524100
570381
618935
667953
715105
758152
795510
826273
849394
864730
873443
876787
876287
873794
870486
866756
862728
32353.2
67830.5
96638
119054
136316
149358
158902
165548
169635
171642
172271
172218
172130
172576
174015
176757
180960
186670
193882
202570
212700
224254
237252
251782
268008
286177
306606
329664
355726
385111
418030
454566
494675
538161
584583
632899
681320
727580
769424
805226
834116
855411
869546
877937
880964
880088
877163
873408
869291
864967
29288.5
60057.2
87274.7
109744
127761
141837
152525
160339
165717
169138
171166
172387
173377
174662
176681
179774
184161
189965
197252
206060
216407
228315
241829
257042
274099
293211
314667
338817
366040
396681
430969
468954
510476
555128
602214
650583
698550
744029
784872
819381
846516
865719
877677
884800
887123
885550
881909
877428
872648
867772
28373.1
56203.7
81502.3
103121
121038
135488
146841
155507
161898
166458
169669
172032
174045
176175
178835
182361
187011
192969
200373
209330
219925
232231
246321
262286
280246
300370
322912
348215
376691
408743
444659
484461
527828
574061
622136
670739
718297
763008
802963
836433
862106
879292
888779
893918
895036
892472
887869
882448
876800
871165
27544.5
53191.5
76985.8
97764.8
115434
130078
141942
151340
158633
164213
168505
171947
174976
178007
181419
185538
190641
196956
204677
213978
225004
237876
252698
269556
288539
309772
333461
359924
389598
422952
460345
501822
546945
594726
643773
692544
739547
783333
822358
854918
879352
894633
901519
904472
904062
900270
894538
888067
881462
874972
27393.1
51143.8
73706.9
93742.3
111103
125790
137957
147851
155793
162134
167254
171554
175420
179233
183345
188067
193683
200455
208619
218394
229977
243536
259203
277070
297203
319690
344693
372488
403489
438184
476989
519993
566709
615930
665896
714756
761028
803677
841662
873384
896733
910173
914361
915089
913171
908058
901183
893702
886191
878886
27711.7
49739.7
71250
90636.7
107673
122293
134585
144752
153077
159884
165526
170370
174782
179114
183693
188822
194793
201878
210340
220429
232379
246389
262607
281140
302059
325446
351442
380300
412409
448264
488311
532696
580932
631659
682761
732007
777857
819759
857360
889180
912299
924295
925947
924102
920781
914327
906372
898006
889734
881752
28429.5
49396.9
70264.6
89238.1
106051
120590
132914
143202
151714
158759
164673
169810
174526
179156
184011
189394
195594
202891
211557
221857
234039
248317
264856
283773
305155
329102
355766
385402
418403
455278
496501
542255
592052
644404
696895
746940
792914
834680
872477
904751
927288
936437
935286
931106
926456
919104
910398
901394
892552
884021
845143
845143
845143
845143
845143
845143
845143
845143
845142
845142
845142
845141
845141
845140
845140
845140
845140
845140
845140
845140
845140
845140
845140
845140
845140
845140
845140
845140
845139
845138
845138
845137
845136
845135
845134
845133
845133
845132
845131
845131
845131
845130
845130
845129
845129
845128
845127
845126
845125
845125
845045
845045
845045
845045
845045
845045
845045
845045
845045
845044
845044
845044
845043
845043
845043
845042
845042
845042
845042
845042
845042
845043
845043
845043
845043
845043
845043
845042
845042
845041
845040
845039
845038
845037
845036
845036
845035
845034
845034
845033
845033
845033
845032
845032
845031
845030
845029
845028
845027
845026
844948
844948
844948
844948
844948
844948
844948
844947
844947
844947
844946
844946
844946
844945
844945
844945
844945
844945
844945
844945
844945
844945
844945
844945
844945
844945
844945
844944
844944
844943
844942
844941
844941
844940
844939
844938
844937
844937
844936
844936
844935
844935
844935
844934
844933
844933
844932
844931
844930
844929
844850
844850
844850
844850
844850
844850
844850
844850
844849
844849
844849
844848
844848
844848
844847
844847
844847
844847
844847
844847
844847
844848
844848
844848
844848
844848
844847
844847
844846
844846
844845
844844
844843
844842
844841
844840
844840
844839
844839
844838
844838
844837
844837
844836
844836
844835
844834
844833
844832
844831
844752
844752
844752
844752
844752
844752
844752
844752
844752
844751
844751
844751
844750
844750
844750
844750
844750
844750
844750
844750
844750
844750
844750
844750
844750
844750
844750
844749
844749
844748
844747
844746
844745
844744
844744
844743
844742
844742
844741
844741
844740
844740
844739
844739
844738
844737
844736
844736
844735
844734
844655
844655
844655
844655
844655
844655
844654
844654
844654
844654
844653
844653
844653
844653
844652
844652
844652
844652
844652
844652
844652
844652
844652
844652
844652
844652
844652
844651
844651
844650
844649
844648
844648
844647
844646
844645
844645
844644
844644
844643
844643
844642
844642
844641
844640
844640
844639
844638
844637
844636
844557
844557
844557
844557
844557
844557
844557
844557
844556
844556
844556
844555
844555
844555
844555
844555
844555
844555
844555
844555
844555
844555
844555
844555
844555
844554
844554
844554
844553
844552
844552
844551
844550
844549
844548
844548
844547
844546
844546
844546
844545
844545
844544
844543
844543
844542
844541
844540
844539
844538
844459
844459
844459
844459
844459
844459
844459
844459
844459
844458
844458
844458
844458
844457
844457
844457
844457
844457
844457
844457
844457
844457
844457
844457
844457
844457
844456
844456
844455
844455
844454
844453
844452
844451
844451
844450
844449
844449
844448
844448
844447
844447
844446
844446
844445
844444
844443
844443
844442
844441
844361
844361
844361
844361
844361
844361
844361
844361
844361
844361
844360
844360
844360
844360
844360
844360
844360
844360
844360
844360
844360
844360
844360
844359
844359
844359
844359
844358
844357
844357
844356
844355
844355
844354
844353
844352
844352
844351
844351
844350
844350
844349
844349
844348
844347
844347
844346
844345
844344
844343
844264
844264
844264
844264
844264
844264
844264
844263
844263
844263
844263
844263
844263
844262
844262
844262
844262
844262
844262
844262
844262
844262
844262
844262
844261
844261
844261
844260
844260
844259
844258
844258
844257
844256
844256
844255
844254
844254
844253
844253
844252
844252
844251
844250
844250
844249
844248
844247
844246
844245
844166
844166
844166
844166
844166
844166
844166
844166
844166
844165
844165
844165
844165
844165
844165
844165
844165
844165
844165
844165
844165
844164
844164
844164
844164
844163
844163
844162
844162
844161
844161
844160
844159
844159
844158
844157
844157
844156
844156
844155
844155
844154
844153
844153
844152
844151
844150
844149
844148
844148
844068
844068
844068
844068
844068
844068
844068
844068
844068
844068
844068
844068
844067
844067
844067
844067
844067
844067
844067
844067
844067
844067
844067
844066
844066
844066
844065
844065
844064
844064
844063
844062
844062
844061
844060
844060
844059
844059
844058
844057
844057
844056
844056
844055
844054
844053
844052
844052
844051
844050
843970
843970
843970
843970
843970
843970
843970
843970
843970
843970
843970
843970
843970
843970
843970
843970
843970
843970
843970
843969
843969
843969
843969
843969
843968
843968
843967
843967
843966
843966
843965
843965
843964
843964
843963
843962
843962
843961
843960
843960
843959
843959
843958
843957
843956
843955
843955
843954
843953
843952
843873
843873
843873
843873
843873
843873
843873
843873
843873
843872
843872
843872
843872
843872
843872
843872
843872
843872
843872
843872
843872
843871
843871
843871
843870
843870
843870
843869
843869
843868
843868
843867
843867
843866
843865
843865
843864
843864
843863
843862
843862
843861
843860
843859
843859
843858
843857
843856
843855
843855
843775
843775
843775
843775
843775
843775
843775
843775
843775
843775
843775
843775
843775
843775
843775
843775
843775
843775
843775
843774
843774
843774
843773
843773
843773
843772
843772
843771
843771
843770
843770
843769
843769
843768
843768
843767
843767
843766
843765
843765
843764
843763
843762
843762
843761
843760
843759
843758
843758
843757
843677
843677
843677
843677
843677
843677
843677
843677
843677
843677
843677
843677
843677
843677
843677
843677
843677
843677
843677
843677
843676
843676
843676
843675
843675
843675
843674
843674
843673
843673
843672
843672
843671
843671
843670
843670
843669
843668
843668
843667
843666
843665
843665
843664
843663
843662
843661
843661
843660
843659
843580
843580
843580
843580
843580
843580
843580
843580
843580
843580
843580
843580
843580
843580
843580
843580
843580
843580
843579
843579
843579
843579
843578
843578
843577
843577
843576
843576
843576
843575
843575
843574
843574
843573
843573
843572
843571
843571
843570
843569
843568
843568
843567
843566
843565
843564
843564
843563
843562
843562
843482
843482
843482
843482
843482
843482
843482
843482
843482
843482
843482
843482
843482
843482
843482
843482
843482
843482
843482
843482
843481
843481
843480
843480
843480
843479
843479
843478
843478
843478
843477
843477
843476
843476
843475
843475
843474
843473
843472
843472
843471
843470
843469
843468
843468
843467
843466
843465
843465
843464
843384
843384
843384
843384
843384
843384
843384
843384
843384
843384
843384
843385
843385
843385
843385
843385
843384
843384
843384
843384
843384
843383
843383
843382
843382
843382
843381
843381
843380
843380
843380
843379
843379
843378
843378
843377
843376
843375
843375
843374
843373
843372
843372
843371
843370
843369
843368
843368
843367
843366
843287
843287
843287
843287
843287
843287
843287
843287
843287
843287
843287
843287
843287
843287
843287
843287
843287
843287
843287
843286
843286
843286
843285
843285
843284
843284
843284
843283
843283
843282
843282
843282
843281
843281
843280
843279
843279
843278
843277
843276
843276
843275
843274
843273
843272
843272
843271
843270
843269
843269
854830
854830
854830
854829
854829
854829
854829
854829
854829
854829
854829
854829
854829
854828
854828
854828
854828
854828
854827
854827
854732
854731
854729
854728
854727
854726
854725
854724
854723
854722
854721
854720
854719
854718
854717
854716
854715
854713
854712
854711
854634
854631
854629
854627
854625
854623
854621
854619
854617
854615
854613
854611
854609
854607
854605
854603
854601
854599
854597
854594
854535
854532
854529
854526
854523
854520
854517
854514
854511
854508
854505
854502
854499
854497
854493
854490
854487
854484
854481
854478
854436
854432
854428
854424
854421
854417
854413
854409
854405
854401
854397
854393
854390
854386
854382
854378
854374
854370
854366
854361
854338
854333
854328
854323
854318
854313
854309
854304
854299
854294
854289
854284
854279
854275
854270
854265
854260
854255
854250
854245
854239
854233
854227
854222
854216
854210
854204
854199
854193
854187
854181
854175
854169
854164
854158
854152
854146
854140
854134
854128
854141
854134
854127
854120
854113
854107
854100
854093
854087
854080
854073
854066
854059
854053
854046
854039
854032
854025
854018
854011
854042
854034
854026
854019
854011
854003
853996
853988
853980
853973
853965
853957
853949
853942
853934
853926
853918
853910
853902
853895
853944
853935
853926
853917
853909
853900
853892
853883
853874
853866
853857
853848
853839
853831
853822
853813
853804
853795
853787
853778
853845
853835
853826
853816
853807
853797
853788
853778
853768
853759
853749
853739
853730
853720
853710
853700
853690
853681
853671
853661
853747
853736
853726
853715
853705
853694
853684
853673
853663
853652
853641
853631
853620
853609
853598
853587
853577
853566
853555
853544
853649
853637
853626
853614
853603
853591
853580
853568
853557
853545
853534
853522
853510
853498
853487
853475
853463
853451
853440
853428
853552
853539
853526
853514
853501
853489
853476
853464
853451
853439
853426
853414
853401
853388
853375
853363
853350
853337
853325
853312
853454
853441
853427
853414
853400
853387
853373
853360
853346
853333
853319
853305
853292
853278
853264
853251
853237
853223
853210
853196
853357
853343
853328
853314
853299
853285
853270
853256
853241
853227
853212
853197
853183
853168
853154
853139
853124
853110
853095
853080
853260
853245
853229
853214
853198
853183
853167
853152
853136
853121
853105
853090
853074
853059
853043
853028
853012
852996
852981
852965
853164
853147
853131
853114
853098
853081
853065
853048
853032
853015
852999
852983
852966
852950
852933
852916
852900
852883
852867
852850
853067
853050
853032
853015
852997
852980
852963
852945
852928
852910
852893
852876
852858
852841
852823
852806
852788
852771
852753
852736
852971
852953
852934
852916
852897
852879
852861
852842
852824
852806
852787
852769
852751
852732
852714
852695
852677
852658
852640
852621
852875
852856
852836
852817
852798
852779
852759
852740
852721
852701
852682
852663
852643
852624
852604
852585
852565
852546
852527
852507
852780
852759
852739
852719
852698
852678
852658
852638
852617
852597
852577
852557
852536
852516
852495
852475
852455
852434
852414
852394
852684
852663
852642
852621
852599
852578
852557
852536
852515
852493
852472
852451
852429
852408
852387
852365
852344
852323
852302
852280
852589
852567
852545
852523
852501
852478
852456
852434
852412
852390
852368
852345
852323
852301
852278
852256
852234
852212
852189
852167
852495
852472
852448
852425
852402
852379
852356
852333
852310
852287
852263
852240
852217
852194
852170
852147
852124
852101
852078
852055
852401
852376
852352
852328
852304
852280
852256
852232
852208
852184
852159
852135
852111
852087
852063
852039
852014
851990
851966
851942
852307
852282
852256
852231
852206
852181
852156
852131
852106
852081
852056
852031
852006
851980
851955
851930
851905
851880
851855
851830
852213
852187
852161
852135
852109
852083
852057
852031
852005
851979
851952
851926
851900
851874
851848
851822
851796
851771
851745
851719
852120
852093
852066
852039
852012
851985
851958
851931
851904
851876
851849
851823
851796
851769
851742
851715
851688
851661
851634
851607
852026
851999
851971
851943
851915
851887
851859
851831
851803
851775
851747
851719
851691
851663
851635
851608
851580
851552
851524
851497
851933
851905
851876
851847
851818
851789
851760
851731
851702
851673
851645
851616
851587
851558
851530
851501
851472
851444
851415
851386
851841
851811
851781
851751
851722
851692
851662
851632
851602
851572
851543
851513
851483
851454
851424
851394
851365
851335
851305
851276
851748
851718
851687
851656
851626
851595
851564
851533
851503
851472
851441
851411
851380
851349
851319
851288
851258
851227
851197
851166
851656
851625
851593
851562
851530
851498
851467
851435
851403
851372
851340
851308
851277
851245
851214
851183
851151
851120
851088
851056
851564
851532
851500
851467
851434
851402
851369
851337
851304
851272
851239
851207
851174
851142
851110
851077
851045
851012
850980
850947
851473
851440
851406
851373
851339
851306
851273
851239
851206
851172
851139
851106
851072
851039
851006
850972
850939
850906
850872
850839
851382
851348
851313
851279
851245
851210
851176
851142
851107
851073
851039
851005
850971
850936
850902
850868
850834
850799
850765
850731
851291
851256
851221
851185
851150
851115
851080
851045
851010
850975
850939
850904
850869
850834
850799
850764
850729
850694
850659
850624
851200
851164
851128
851092
851056
851020
850984
850948
850912
850876
850840
850804
850768
850732
850697
850661
850625
850589
850553
850517
851110
851073
851036
850999
850963
850926
850889
850852
850815
850778
850742
850705
850668
850631
850594
850558
850521
850484
850447
850410
851021
850983
850945
850907
850869
850832
850794
850756
850719
850681
850643
850606
850568
850530
850493
850455
850417
850380
850342
850304
850931
850893
850854
850815
850777
850738
850700
850661
850622
850584
850545
850507
850468
850430
850391
850353
850314
850276
850237
850199
850843
850803
850764
850724
850684
850645
850606
850566
850527
850487
850448
850409
850369
850330
850291
850251
850212
850172
850133
850093
850754
850714
850673
850633
850593
850552
850512
850472
850431
850391
850351
850311
850270
850230
850190
850150
850110
850069
850029
849988
850666
850625
850584
850543
850501
850460
850419
850378
850336
850295
850254
850213
850172
850131
850090
850049
850008
849966
849925
849884
850579
850537
850494
850452
850410
850368
850326
850284
850242
850200
850158
850116
850074
850032
849990
849948
849906
849864
849822
849779
850492
850449
850406
850363
850320
850277
850234
850191
850148
850105
850062
850020
849977
849934
849891
849848
849805
849762
849719
849676
850405
850361
850317
850273
850229
850186
850142
850098
850055
850011
849967
849923
849880
849836
849792
849748
849704
849660
849616
849572
850318
850274
850229
850184
850140
850095
850051
850006
849962
849917
849872
849828
849783
849738
849694
849649
849604
849559
849514
849469
850232
850187
850141
850096
850050
850005
849960
849914
849869
849824
849778
849733
849687
849641
849596
849550
849504
849459
849413
849367
850147
850101
850054
850008
849962
849915
849869
849823
849777
849731
849684
849638
849591
849545
849498
849452
849405
849359
849312
849266
850062
850015
849968
849920
849873
849826
849779
849732
849685
849638
849591
849544
849496
849449
849402
849354
849307
849259
849212
849164
849978
849930
849882
849834
849786
849738
849690
849642
849594
849546
849498
849450
849402
849353
849305
849257
849209
849160
849112
849064
849894
849845
849796
849747
849699
849650
849601
849552
849503
849455
849406
849357
849308
849258
849209
849160
849111
849062
849013
848964
849811
849761
849712
849662
849612
849562
849513
849463
849413
849363
849314
849264
849214
849164
849114
849064
849014
848964
848914
848864
849729
849678
849627
849577
849526
849476
849425
849374
849324
849273
849222
849172
849121
849070
849019
848969
848918
848867
848816
848766
849647
849595
849544
849492
849441
849389
849338
849286
849235
849183
849131
849080
849028
848977
848925
848874
848822
848771
848719
848667
849565
849513
849460
849408
849356
849303
849251
849198
849146
849094
849041
848989
848937
848884
848832
848779
848727
848675
848622
848570
849484
849431
849377
849324
849271
849218
849165
849111
849058
849005
848952
848899
848845
848792
848739
848686
848633
848579
848526
848473
849403
849349
849295
849241
849187
849133
849079
849025
848971
848917
848863
848809
848755
848701
848647
848593
848539
848485
848431
848377
849323
849268
849213
849158
849103
849049
848994
848939
848884
848829
848774
848720
848665
848610
848555
848500
848446
848391
848336
848281
849243
849187
849132
849076
849020
848965
848909
848853
848798
848742
848687
848631
848575
848520
848464
848409
848353
848298
848242
848187
849164
849107
849051
848994
848938
848882
848825
848769
848712
848656
848599
848543
848487
848431
848374
848318
848262
848206
848149
848093
849085
849028
848971
848913
848856
848799
848742
848685
848627
848570
848513
848456
848399
848342
848285
848228
848171
848114
848057
847999
849007
848949
848891
848833
848775
848717
848659
848601
848543
848485
848428
848370
848312
848254
848196
848139
848081
848023
847965
847907
848930
848871
848812
848753
848695
848636
848577
848519
848460
848401
848343
848284
848226
848167
848108
848050
847991
847932
847874
847815
848853
848794
848734
848674
848615
848555
848496
848437
848377
848318
848259
848199
848140
848080
848021
847962
847902
847843
847783
847724
848777
848717
848656
848596
848536
848476
848416
848355
848295
848235
848175
848115
848055
847995
847935
847874
847814
847754
847693
847633
848702
848641
848579
848518
848458
848397
848336
848275
848214
848153
848092
848031
847971
847910
847849
847788
847727
847666
847604
847543
848627
848565
848503
848442
848380
848318
848257
848195
848134
848072
848010
847949
847887
847825
847763
847702
847640
847578
847516
847455
848553
848490
848428
848365
848303
848241
848178
848116
848054
847991
847929
847866
847804
847742
847679
847617
847554
847492
847429
847366
848479
848416
848353
848290
848227
848164
848100
848037
847974
847911
847848
847785
847722
847659
847595
847532
847469
847406
847342
847279
848407
848343
848279
848215
848151
848087
848023
847960
847896
847832
847768
847704
847640
847577
847513
847449
847385
847321
847257
847193
848335
848270
848205
848141
848076
848012
847947
847882
847818
847753
847689
847624
847560
847495
847431
847366
847301
847237
847172
847107
848264
848198
848133
848067
848002
847937
847871
847806
847741
847675
847610
847545
847480
847414
847349
847284
847219
847153
847088
847022
848193
848127
848061
847995
847929
847863
847797
847730
847664
847598
847532
847466
847401
847335
847269
847203
847137
847071
847004
846938
848124
848057
847990
847923
847856
847789
847722
847656
847589
847522
847455
847389
847322
847255
847189
847122
847055
846989
846922
846855
848055
847987
847920
847852
847784
847717
847649
847582
847514
847447
847379
847312
847244
847177
847110
847042
846975
846907
846840
846772
847987
847918
847850
847782
847713
847645
847577
847508
847440
847372
847304
847236
847168
847100
847031
846963
846895
846827
846759
846691
847919
847850
847781
847712
847643
847574
847505
847436
847367
847298
847229
847160
847092
847023
846954
846885
846816
846747
846679
846610
847852
847783
847713
847643
847573
847504
847434
847364
847295
847225
847156
847086
847017
846947
846878
846808
846738
846669
846599
846530
847786
847716
847645
847575
847505
847434
847364
847294
847223
847153
847083
847013
846942
846872
846802
846732
846661
846591
846521
846450
847721
847650
847579
847508
847437
847366
847295
847224
847153
847082
847011
846940
846869
846798
846727
846656
846585
846514
846443
846372
847656
847584
847513
847441
847369
847298
847226
847154
847083
847011
846940
846868
846796
846725
846653
846581
846509
846438
846366
846294
847592
847520
847447
847375
847303
847231
847158
847086
847014
846941
846869
846797
846724
846652
846580
846507
846435
846362
846290
846218
847529
847456
847383
847310
847237
847164
847091
847018
846945
846872
846799
846726
846653
846580
846507
846434
846361
846288
846215
846142
847466
847393
847319
847246
847172
847099
847025
846951
846878
846804
846730
846657
846583
846509
846435
846362
846288
846214
846140
846067
847405
847330
847256
847182
847108
847034
846960
846885
846811
846737
846662
846588
846513
846439
846365
846290
846216
846141
846067
845993
847344
847269
847194
847119
847044
846970
846895
846820
846745
846670
846595
846520
846445
846370
846295
846220
846145
846070
845995
845920
847283
847208
847133
847057
846982
846906
846831
846755
846679
846604
846528
846452
846377
846301
846226
846150
846074
845999
845923
845848
847224
847148
847072
846996
846919
846843
846767
846691
846615
846539
846462
846386
846310
846234
846157
846081
846005
845929
845853
845777
847165
847088
847012
846935
846858
846781
846705
846628
846551
846474
846397
846321
846244
846167
846090
846013
845936
845860
845783
845706
847107
847030
846952
846875
846797
846720
846643
846565
846488
846411
846333
846256
846178
846101
846024
845946
845869
845791
845714
845637
847050
846972
846894
846816
846738
846660
846582
846504
846426
846348
846270
846192
846114
846036
845958
845880
845802
845724
845646
845568
846993
846915
846836
846757
846679
846600
846522
846443
846365
846286
846208
846129
846050
845972
845893
845815
845736
845658
845579
845500
846937
846858
846779
846700
846621
846542
846463
846383
846304
846225
846146
846067
845988
845908
845829
845750
845671
845592
845513
845434
846882
846803
846723
846643
846564
846484
846404
846324
846245
846165
846085
846005
845926
845846
845766
845686
845607
845527
845447
845368
846828
846748
846668
846588
846507
846427
846347
846266
846186
846105
846025
845945
845864
845784
845704
845624
845544
845463
845383
845303
846775
846694
846614
846533
846452
846371
846290
846209
846128
846047
845966
845885
845804
845723
845643
845562
845481
845401
845320
845239
846723
846641
846560
846478
846397
846315
846234
846152
846071
845989
845908
845826
845745
845664
845582
845501
845420
845339
845257
845176
846671
846589
846507
846425
846343
846261
846179
846097
846015
845933
845851
845769
845687
845605
845523
845441
845360
845278
845196
845114
846620
846537
846455
846372
846290
846207
846125
846042
845959
845877
845794
845712
845630
845547
845465
845383
845300
845218
845136
845053
846569
846486
846403
846320
846237
846154
846071
845988
845905
845822
845739
845656
845573
845490
845408
845325
845242
845159
845076
844993
846520
846436
846353
846269
846186
846102
846019
845935
845852
845768
845685
845601
845518
845435
845351
845268
845184
845101
845018
844934
846471
846387
846303
846219
846135
846051
845967
845883
845799
845715
845631
845547
845463
845380
845296
845212
845128
845044
844960
844876
846423
846339
846254
846170
846085
846001
845916
845832
845748
845663
845579
845494
845410
845325
845241
845157
845072
844988
844903
844819
846376
846291
846206
846121
846036
845952
845867
845782
845697
845612
845527
845442
845357
845272
845187
845103
845018
844933
844848
844763
846330
846244
846159
846074
845988
845903
845818
845733
845647
845562
845476
845391
845306
845220
845135
845049
844964
844879
844793
844708
846284
846199
846113
846027
845941
845856
845770
845684
845598
845512
845426
845341
845255
845169
845083
844997
844911