/*--------------------------------*- C++ -*----------------------------------*\
  =========                 |
  \\      /  F ield         | OpenFOAM: The Open Source CFD Toolbox
   \\    /   O peration     | Website:  https://openfoam.org
    \\  /    A nd           | Version:  8
     \\/     M anipulation  |
\*---------------------------------------------------------------------------*/
FoamFile
{
    version     2.0;
    format      ascii;
    class       volScalarField;
    location    "900";
    object      p_rgh;
}
// * * * * * * * * * * * * * * * * * * * * * * * * * * * * * * * * * * * * * //

dimensions      [1 -1 -2 0 0 0 0];

internalField   nonuniform List<scalar> 
8400
(
1692.44
2712.16
6487.98
15341.3
30761.4
53112.9
81697.8
114941
150726
186799
221080
251784
277364
296594
308635
313070
310151
301177
288235
273714
260547
252832
255884
276708
322627
395826
489844
591410
685853
763486
821413
861681
888235
904617
913378
917154
919027
920903
923388
926452
929961
933542
936661
938974
940412
941033
940942
940260
939110
937626
566.219
-1725.6
628.892
9048.21
24867.1
48112.1
77781.2
112227
149323
186753
222434
254557
281330
301224
313242
316965
312834
302222
287249
270494
254890
244990
246150
264630
308866
382177
477628
581381
678593
759582
821160
864546
892821
909226
916696
918575
919046
920386
922850
925947
929759
933890
937409
939810
941137
941555
941221
940282
938849
937026
3988.99
3371.34
3941.25
10439.2
24796.1
47090.4
76205.4
110331
147319
184938
221162
253986
281274
301311
313109
316343
311646
300739
286087
270297
255852
247301
248368
264914
307085
379760
475635
579050
675154
755572
818267
863998
894529
912121
919673
920326
918433
919224
922255
925002
929294
934926
939497
942076
943212
943310
942624
941353
939625
937528
-11906.7
-8862.77
-2317.43
7119.39
22738.6
45433.7
74508.1
108381
144965
182108
217843
250204
277176
297095
308726
311223
305452
294248
280323
265034
249824
239877
242207
261983
307661
381886
475318
571682
658367
731160
791239
839028
874768
899391
913173
916543
917040
921937
922576
921634
927166
936724
942737
945121
945733
945199
943874
942012
939763
937235
-44263.3
-14971
14042.6
35445.2
56408.6
80263.5
107085
135790
164920
193052
218922
241429
259641
272971
281448
285358
284749
280128
272729
265100
262086
268560
287255
320367
368877
429770
495440
557736
613028
663318
712322
761369
808137
848625
878919
897867
909313
917256
917519
921171
934451
943561
947080
949111
949051
947697
945604
943077
940276
937307
-8360.69
15089
43708.1
66517.1
86447.3
106862
128232
149847
170891
190654
208563
224177
237160
247259
254278
258775
261914
264689
268107
273455
282094
295706
315828
342980
376671
415179
455967
497112
538531
581246
626110
673456
722113
769244
811284
845808
872739
894074
909572
923017
937250
945666
951944
953706
952477
950063
947083
943838
940459
937038
-7762.95
21812.9
51441
74993
94834.9
113823
132515
150524
167503
183245
197642
210621
222138
232181
240833
248331
255171
261966
269297
277766
287913
300588
316856
337349
362268
391430
424385
460597
499423
540191
582483
626160
670849
715456
758328
798038
834177
866984
894940
917060
934346
945675
953384
955865
954978
951824
948067
944235
940401
936622
5258.48
38861.9
69347.6
93172.9
112517
129898
146109
161040
174631
186979
198223
208500
217925
226613
234622
242153
249656
257551
266190
275897
286977
299773
314846
332922
354551
379881
408579
439957
473284
508251
544984
583658
624295
666612
709996
753780
797241
838765
875344
904653
926396
941058
950727
955195
955012
952181
948149
944027
939930
935919
11068.8
49053.4
79647
102951
121801
138182
152627
165315
176461
186316
195170
203315
211005
218382
225627
233069
241004
249653
259184
269747
281506
294661
309487
326305
345378
366835
390666
416791
445167
475896
509231
545402
584532
626579
671298
718179
766052
812656
854896
889867
916100
934001
945624
951928
953089
950970
947341
943293
939181
935108
18216
58517.7
88899.8
111934
130596
146452
159914
171193
180619
188616
195629
202045
208187
214391
220986
228219
236245
245144
254964
265746
277542
290432
304535
320020
337089
355957
376842
399986
425662
454179
485849
520905
559460
601493
646792
694780
744159
792775
837855
876412
906312
927112
940435
947948
950296
949004
945988
942291
938346
934326
21390.7
63566.2
93689.4
116688
135384
150922
163783
174397
183080
190113
195988
201255
206393
211831
217924
224896
232820
241686
251464
262135
273695
286170
299639
314244
330201
347792
367362
389295
413998
441854
473171
508133
546784
589023
634543
682710
732259
781185
827004
867058
899107
922044
936760
945002
948015
947361
944861
941522
937779
933850
25942.5
66685.2
95829.8
118668
137253
152498
165015
175382
183859
190702
196334
201347
206262
211532
217516
224422
232296
241098
250782
261314
272679
284893
298029
312239
327764
344930
364130
385803
410396
438310
469836
505120
544152
586759
632547
680776
730107
778534
823761
863551
896006
919865
935404
944061
947336
946966
944709
941543
937906
934002
25053.7
64664.2
94237.6
117415
136105
151397
163990
174446
182968
189888
195777
201100
206300
211788
217913
224898
232813
241639
251336
261874
273243
285472
298653
312960
328655
346084
365659
387827
413027
441624
473864
509844
549511
592654
638860
687266
736351
784037
828097
866567
897976
921339
936837
945518
948743
948316
945998
942765
939040
935019
21936.4
57923.6
87444.6
111242
130648
146691
160051
171238
180610
188526
195398
201637
207646
213804
220434
227767
235930
244970
254895
265708
277421
290079
303786
318718
335132
353363
373805
396883
423007
452514
485613
522365
562670
606269
652675
700953
749528
796292
838998
875756
905290
926971
941366
949538
952362
951575
948897
945318
941282
936988
19086.9
51215.6
79782.7
103930
124186
141198
155527
167645
177944
186792
194570
201659
208433
215244
222397
230129
238602
247915
258129
269288
281440
294656
309052
324806
342162
361440
383020
407318
434738
465598
500070
538139
579606
624083
670963
719259
767425
813395
854905
890007
917448
936869
949232
956165
958185
956688
953328
949107
944501
939721
18215.2
47647.3
74745.6
98455.9
118895
136396
151358
164178
175222
184845
193400
201235
208695
216102
223744
231860
240639
250222
260715
272210
284795
298568
313657
330238
348543
368880
391627
417215
446074
478536
514748
554599
597718
643511
691201
739755
787722
833161
873824
907615
933138
950160
960051
965152
965954
963412
959074
953949
948540
943066
17841.4
45221.5
71027.6
94120
114471
132225
147650
161056
172763
183091
192365
200906
209029
217032
225187
233737
242887
252812
263661
275566
288650
303040
318874
336320
355592
376981
400859
427668
457868
491827
529706
571337
616185
663405
711989
760845
808669
853736
893863
926749
950685
965393
972660
975680
975001
971177
965662
959469
953111
946807
18113.7
43807
68555.8
91070.7
111243
129110
144844
158685
170911
181814
191691
200843
209559
218119
226785
235796
245373
255712
266996
279389
293047
308121
324758
343125
363425
385926
410978
439010
470482
505787
545111
588283
634660
683169
732524
781508
828996
873609
913337
945642
968321
980893
985577
986466
984293
979135
972436
965192
957899
950754
18576.3
42877.7
66751.4
88755.3
108708
126575
142462
156562
169118
180397
190678
200242
209364
218308
227328
236662
246537
257166
268750
281480
295533
311076
328275
347301
368360
391715
417701
446731
479253
515670
556195
600675
648419
698166
748334
797513
844757
889205
929184
961808
984000
994816
997205
995895
992180
985667
977848
969675
961574
953693
19210.1
42766.6
66130.5
87812.9
107603
125430
141368
155584
168301
179773
190265
200050
209396
218559
227785
237313
247374
258187
269964
282906
297207
313045
330597
350050
371623
395591
422295
452144
485588
523037
564725
610506
659646
710729
761922
811620
859005
903671
944205
977190
998318
1.00617e+06
1.00612e+06
1.00341e+06
998569
991065
982383
973483
964728
956197
963850
963850
963850
963850
963850
963850
963850
963850
963850
963850
963850
963849
963849
963849
963849
963849
963849
963849
963849
963849
963849
963850
963850
963850
963850
963850
963850
963850
963850
963850
963850
963850
963850
963850
963849
963849
963849
963849
963849
963849
963849
963849
963849
963849
963849
963849
963849
963849
963848
963848
963849
963850
963850
963850
963850
963850
963850
963850
963850
963850
963849
963849
963849
963849
963849
963849
963849
963849
963849
963849
963849
963849
963849
963849
963850
963850
963850
963850
963850
963850
963850
963849
963849
963849
963849
963849
963849
963849
963849
963849
963849
963849
963849
963849
963849
963849
963848
963848
963848
963848
963850
963850
963850
963850
963850
963850
963850
963850
963850
963850
963849
963849
963849
963849
963849
963849
963849
963849
963849
963849
963849
963849
963849
963849
963850
963850
963850
963850
963850
963850
963850
963849
963849
963849
963849
963849
963849
963849
963849
963849
963849
963849
963849
963849
963849
963848
963848
963848
963848
963848
963850
963850
963850
963850
963850
963850
963850
963850
963850
963849
963849
963849
963849
963849
963849
963849
963849
963849
963849
963849
963849
963849
963849
963849
963850
963850
963850
963850
963850
963850
963850
963849
963849
963849
963849
963849
963849
963849
963849
963849
963849
963849
963849
963849
963849
963848
963848
963848
963848
963848
963850
963850
963850
963850
963850
963850
963850
963850
963850
963849
963849
963849
963849
963849
963849
963849
963849
963849
963849
963849
963849
963849
963849
963849
963850
963850
963850
963850
963850
963850
963849
963849
963849
963849
963849
963849
963849
963849
963849
963849
963849
963849
963849
963849
963849
963848
963848
963848
963848
963848
963850
963850
963850
963850
963850
963850
963850
963850
963850
963849
963849
963849
963849
963849
963849
963849
963849
963849
963849
963849
963849
963849
963849
963849
963850
963850
963850
963850
963850
963850
963849
963849
963849
963849
963849
963849
963849
963849
963849
963849
963849
963849
963849
963849
963849
963848
963848
963848
963848
963848
963850
963850
963850
963850
963850
963850
963850
963850
963850
963849
963849
963849
963849
963849
963849
963849
963849
963849
963849
963849
963849
963849
963849
963849
963849
963850
963850
963850
963850
963849
963849
963849
963849
963849
963849
963849
963849
963849
963849
963849
963849
963849
963849
963849
963849
963848
963848
963848
963848
963848
963850
963850
963850
963850
963850
963850
963850
963850
963849
963849
963849
963849
963849
963849
963849
963849
963849
963849
963849
963849
963849
963849
963849
963849
963849
963850
963850
963850
963849
963849
963849
963849
963849
963849
963849
963849
963849
963849
963849
963849
963849
963849
963849
963849
963848
963848
963848
963848
963848
963848
963850
963850
963850
963850
963850
963850
963850
963850
963849
963849
963849
963849
963849
963849
963849
963849
963849
963849
963849
963849
963849
963849
963849
963849
963849
963849
963849
963849
963849
963849
963849
963849
963849
963849
963849
963849
963849
963849
963849
963849
963849
963849
963849
963849
963848
963848
963848
963848
963848
963848
963849
963849
963849
963850
963850
963850
963850
963849
963849
963849
963849
963849
963849
963849
963849
963849
963849
963849
963849
963849
963849
963849
963849
963849
963849
963849
963849
963849
963849
963849
963849
963849
963849
963849
963849
963849
963849
963849
963849
963849
963849
963849
963849
963848
963848
963848
963848
963848
963848
963848
963849
963849
963849
963849
963849
963849
963849
963849
963849
963849
963849
963849
963849
963849
963849
963849
963849
963849
963849
963849
963849
963849
963849
963849
963849
963849
963849
963849
963849
963849
963849
963849
963849
963849
963849
963849
963849
963849
963849
963849
963849
963849
963849
963848
963848
963848
963848
963848
963848
963848
963849
963849
963849
963849
963849
963849
963849
963849
963849
963849
963849
963849
963849
963849
963849
963849
963849
963849
963849
963849
963849
963849
963849
963849
963849
963849
963849
963849
963849
963849
963849
963849
963849
963849
963849
963849
963849
963849
963849
963849
963849
963849
963848
963848
963848
963848
963848
963848
963848
963848
963849
963849
963849
963849
963849
963849
963849
963849
963849
963849
963849
963849
963849
963849
963849
963849
963849
963849
963849
963849
963849
963849
963849
963849
963849
963849
963849
963849
963849
963849
963849
963849
963849
963849
963849
963849
963849
963849
963849
963849
963849
963849
963848
963848
963848
963848
963848
963848
963848
963848
963849
963849
963849
963849
963849
963849
963849
963849
963849
963849
963849
963849
963849
963849
963849
963849
963849
963849
963849
963849
963849
963849
963849
963849
963849
963849
963849
963849
963849
963849
963849
963849
963849
963849
963849
963849
963849
963849
963849
963849
963849
963848
963848
963848
963848
963848
963848
963848
963848
963848
963849
963849
963849
963849
963849
963849
963849
963849
963849
963849
963849
963849
963849
963849
963849
963849
963849
963849
963849
963849
963849
963849
963849
963849
963849
963849
963849
963849
963849
963849
963849
963849
963849
963849
963849
963849
963849
963849
963849
963849
963849
963848
963848
963848
963848
963848
963848
963848
963848
963848
963849
963849
963849
963849
963849
963849
963849
963849
963849
963849
963849
963849
963849
963849
963849
963849
963849
963849
963849
963849
963849
963849
963849
963849
963849
963849
963849
963849
963849
963849
963849
963849
963849
963849
963849
963849
963849
963849
963849
963849
963848
963848
963848
963848
963848
963848
963848
963848
963848
963848
963849
963849
963849
963849
963849
963849
963849
963849
963849
963849
963849
963849
963849
963849
963849
963849
963849
963849
963849
963849
963849
963849
963849
963849
963849
963849
963849
963849
963849
963849
963849
963849
963849
963849
963849
963849
963849
963849
963849
963849
963848
963848
963848
963848
963848
963848
963848
963848
963848
963848
963849
963849
963849
963849
963849
963849
963849
963849
963849
963849
963849
963849
963849
963849
963849
963849
963849
963849
963849
963849
963849
963849
963849
963849
963849
963849
963849
963849
963849
963849
963849
963849
963849
963849
963849
963849
963849
963849
963849
963849
963848
963848
963848
963848
963848
963848
963848
963848
963848
963848
963849
963849
963849
963849
963849
963849
963849
963849
963849
963849
963849
963849
963849
963849
963849
963849
963849
963849
963849
963849
963849
963849
963849
963849
963849
963849
963849
963849
963849
963849
963849
963849
963849
963849
963849
963849
963849
963849
963849
963849
963849
963848
963848
963848
963848
963848
963848
963848
963848
963848
963850
963849
963849
963849
963849
963849
963849
963849
963849
963849
963849
963849
963850
963850
963850
963850
963850
963850
963850
963850
963850
963850
963850
963850
963850
963850
963850
963850
963850
963850
963850
963850
963850
963850
963850
963850
963849
963849
963849
963849
963849
963849
963849
963849
963849
963848
963848
963848
963848
963848
963823
963823
963823
963823
963823
963823
963823
963823
963823
963824
963824
963824
963824
963824
963824
963825
963825
963825
963825
963825
963822
963822
963823
963823
963823
963823
963823
963823
963823
963823
963824
963824
963824
963824
963824
963824
963824
963825
963825
963825
963822
963822
963822
963822
963823
963823
963823
963823
963823
963823
963823
963824
963824
963824
963824
963824
963824
963824
963824
963825
963822
963822
963822
963822
963822
963822
963823
963823
963823
963823
963823
963823
963824
963824
963824
963824
963824
963824
963824
963824
963821
963822
963822
963822
963822
963822
963822
963823
963823
963823
963823
963823
963823
963823
963824
963824
963824
963824
963824
963824
963821
963821
963821
963822
963822
963822
963822
963822
963823
963823
963823
963823
963823
963823
963823
963824
963824
963824
963824
963824
963821
963821
963821
963821
963822
963822
963822
963822
963822
963822
963823
963823
963823
963823
963823
963823
963824
963824
963824
963824
963821
963821
963821
963821
963821
963822
963822
963822
963822
963822
963822
963823
963823
963823
963823
963823
963823
963824
963824
963824
963821
963821
963821
963821
963821
963821
963822
963822
963822
963822
963822
963823
963823
963823
963823
963823
963823
963823
963824
963824
963821
963821
963821
963821
963821
963821
963822
963822
963822
963822
963822
963822
963823
963823
963823
963823
963823
963823
963823
963824
963821
963821
963821
963821
963821
963821
963822
963822
963822
963822
963822
963822
963823
963823
963823
963823
963823
963823
963823
963823
963821
963821
963821
963821
963821
963821
963822
963822
963822
963822
963822
963822
963823
963823
963823
963823
963823
963823
963823
963823
963821
963821
963821
963821
963821
963821
963822
963822
963822
963822
963822
963822
963822
963823
963823
963823
963823
963823
963823
963823
963821
963821
963821
963821
963821
963821
963822
963822
963822
963822
963822
963822
963822
963823
963823
963823
963823
963823
963823
963823
963821
963821
963821
963821
963821
963822
963822
963822
963822
963822
963822
963822
963823
963823
963823
963823
963823
963823
963823
963823
963821
963821
963821
963821
963822
963822
963822
963822
963822
963822
963822
963822
963823
963823
963823
963823
963823
963823
963823
963823
963821
963822
963822
963822
963822
963822
963822
963822
963822
963822
963822
963823
963823
963823
963823
963823
963823
963823
963823
963823
963822
963822
963822
963822
963822
963822
963822
963822
963822
963822
963823
963823
963823
963823
963823
963823
963823
963823
963823
963823
963822
963822
963822
963822
963822
963822
963822
963822
963822
963823
963823
963823
963823
963823
963823
963823
963823
963823
963823
963823
963822
963822
963822
963822
963822
963822
963822
963822
963823
963823
963823
963823
963823
963823
963823
963823
963823
963823
963823
963824
963822
963822
963822
963822
963822
963822
963822
963823
963823
963823
963823
963823
963823
963823
963823
963823
963823
963823
963823
963824
963822
963822
963822
963822
963822
963823
963823
963823
963823
963823
963823
963823
963823
963823
963823
963823
963823
963823
963823
963824
963823
963823
963822
963823
963823
963823
963823
963823
963823
963823
963823
963823
963823
963823
963823
963823
963823
963823
963823
963824
963823
963823
963823
963823
963823
963823
963823
963823
963823
963823
963823
963823
963823
963823
963823
963823
963823
963823
963823
963824
963823
963823
963823
963823
963823
963823
963823
963823
963823
963823
963823
963823
963823
963823
963823
963823
963823
963823
963823
963824
963823
963823
963823
963823
963823
963823
963823
963823
963823
963823
963823
963823
963823
963823
963823
963823
963823
963823
963823
963824
963823
963823
963823
963823
963823
963823
963823
963823
963823
963823
963823
963823
963823
963823
963823
963823
963823
963823
963824
963824
963823
963823
963823
963823
963823
963823
963823
963823
963823
963823
963823
963823
963823
963823
963823
963823
963823
963823
963824
963824
963824
963823
963823
963823
963823
963823
963823
963823
963823
963823
963823
963823
963823
963823
963823
963823
963823
963824
963824
963824
963824
963824
963823
963823
963823
963823
963823
963823
963823
963823
963823
963823
963823
963823
963823
963823
963824
963824
963824
963824
963824
963824
963823
963823
963823
963823
963823
963823
963823
963823
963823
963823
963823
963823
963823
963824
963824
963824
963824
963824
963824
963824
963823
963823
963823
963823
963823
963823
963823
963823
963823
963823
963823
963824
963824
963824
963824
963824
963824
963824
963824
963824
963824
963824
963823
963823
963823
963823
963823
963823
963823
963824
963824
963824
963824
963824
963824
963824
963824
963824
963824
963824
963824
963824
963824
963824
963824
963824
963824
963824
963824
963824
963824
963824
963824
963824
963824
963824
963824
963825
963824
963824
963824
963824
963824
963824
963824
963824
963824
963824
963824
963824
963824
963824
963824
963824
963824
963824
963824
963825
963824
963824
963824
963824
963824
963824
963824
963824
963824
963824
963824
963824
963824
963824
963824
963824
963824
963824
963825
963825
963824
963824
963824
963824
963824
963824
963824
963824
963824
963824
963824
963824
963824
963824
963824
963824
963824
963825
963825
963825
963824
963824
963824
963824
963824
963824
963824
963824
963824
963824
963824
963824
963824
963824
963824
963825
963825
963825
963825
963825
963824
963824
963824
963824
963824
963824
963824
963824
963824
963824
963824
963824
963825
963825
963825
963825
963825
963825
963825
963826
963824
963824
963824
963824
963824
963824
963824
963824
963824
963825
963825
963825
963825
963825
963825
963825
963825
963825
963826
963826
963824
963824
963824
963824
963824
963824
963824
963825
963825
963825
963825
963825
963825
963825
963825
963825
963825
963826
963826
963826
963825
963824
963824
963824
963824
963825
963825
963825
963825
963825
963825
963825
963825
963825
963825
963826
963826
963826
963826
963826
963825
963825
963825
963825
963825
963825
963825
963825
963825
963825
963825
963825
963825
963826
963826
963826
963826
963826
963826
963827
963825
963825
963825
963825
963825
963825
963825
963825
963825
963825
963825
963825
963826
963826
963826
963826
963826
963826
963826
963827
963825
963825
963825
963825
963825
963825
963825
963825
963825
963825
963826
963826
963826
963826
963826
963826
963826
963826
963826
963827
963825
963825
963825
963825
963825
963825
963825
963825
963826
963826
963826
963826
963826
963826
963826
963826
963826
963826
963826
963827
963825
963825
963825
963825
963825
963825
963825
963826
963826
963826
963826
963826
963826
963826
963826
963826
963826
963826
963827
963827
963826
963825
963825
963825
963825
963825
963826
963826
963826
963826
963826
963826
963826
963826
963826
963826
963826
963826
963827
963827
963826
963825
963825
963825
963825
963826
963826
963826
963826
963826
963826
963826
963826
963826
963826
963826
963826
963827
963827
963827
963826
963826
963825
963826
963826
963826
963826
963826
963826
963826
963826
963826
963826
963827
963827
963827
963827
963827
963827
963827
963826
963826
963826
963826
963826
963826
963826
963826
963826
963826
963827
963827
963827
963827
963827
963827
963827
963827
963827
963827
963826
963826
963826
963826
963826
963826
963826
963826
963827
963827
963827
963827
963827
963827
963827
963827
963827
963827
963827
963828
963826
963826
963826
963826
963826
963826
963826
963827
963827
963827
963827
963827
963827
963827
963827
963827
963827
963827
963827
963828
963827
963826
963826
963826
963826
963827
963827
963827
963827
963827
963827
963827
963827
963827
963827
963827
963827
963827
963827
963828
963827
963827
963827
963827
963827
963827
963827
963827
963827
963827
963827
963827
963827
963827
963827
963827
963827
963827
963828
963828
963827
963827
963827
963827
963827
963827
963827
963827
963827
963827
963827
963827
963827
963827
963827
963827
963827
963828
963828
963828
963827
963827
963827
963827
963827
963827
963827
963827
963827
963827
963827
963827
963827
963827
963827
963827
963828
963828
963828
963828
963827
963827
963827
963827
963827
963827
963827
963827
963827
963827
963827
963827
963827
963827
963828
963828
963828
963828
963828
963828
963828
963827
963827
963827
963827
963827
963827
963827
963827
963827
963827
963827
963828
963828
963828
963828
963828
963828
963828
963828
963828
963827
963827
963827
963827
963827
963827
963827
963827
963827
963828
963828
963828
963828
963828
963828
963828
963828
963828
963829
963828
963827
963827
963827
963827
963827
963827
963827
963828
963828
963828
963828
963828
963828
963828
963828
963828
963828
963828
963829
963828
963828
963827
963827
963827
963827
963827
963828
963828
963828
963828
963828
963828
963828
963828
963828
963828
963828
963829
963829
963828
963828
963827
963827
963827
963828
963828
963828
963828
963828
963828
963828
963828
963828
963828
963828
963828
963829
963829
963829
963828
963828
963828
963828
963828
963828
963828
963828
963828
963828
963828
963828
963828
963828
963828
963829
963829
963829
963829
963829
963828
963828
963828
963828
963828
963828
963828
963828
963828
963828
963828
963828
963828
963828
963829
963829
963829
963829
963829
963830
963828
963828
963828
963828
963828
963828
963828
963828
963828
963828
963828
963828
963829
963829
963829
963829
963829
963829
963829
963830
963828
963828
963828
963828
963828
963828
963828
963828
963828
963828
963829
963829
963829
963829
963829
963829
963829
963829
963829
963830
963828
963828
963828
963828
963828
963828
963828
963828
963829
963829
963829
963829
963829
963829
963829
963829
963829
963829
963830
963830
963829
963828
963828
963828
963828
963828
963829
963829
963829
963829
963829
963829
963829
963829
963829
963829
963829
963830
963830
963830
963829
963828
963828
963828
963828
963829
963829
963829
963829
963829
963829
963829
963829
963829
963829
963830
963830
963830
963830
963830
963829
963829
963829
963829
963829
963829
963829
963829
963829
963829
963829
963829
963830
963830
963830
963830
963830
963830
963830
963831
963829
963829
963829
963829
963829
963829
963829
963829
963829
963829
963830
963830
963830
963830
963830
963830
963830
963830
963830
963831
963829
963829
963829
963829
963829
963829
963829
963829
963829
963830
963830
963830
963830
963830
963830
963830
963830
963831
963831
963831
963830
963829
963829
963829
963829
963829
963829
963829
963830
963830
963830
963830
963830
963830
963830
963830
963831
963831
963831
963831
963830
963830
963829
963829
963829
963830
963830
963830
963830
963830
963830
963830
963830
963830
963831
963831
963831
963831
963831
963832
963830
963830
963830
963830
963830
963830
963830
963830
963830
963830
963830
963830
963830
963831
963831
963831
963831
963831
963831
963832
963831
963830
963830
963830
963830
963830
963830
963830
963830
963830
963830
963831
963831
963831
963831
963831
963831
963831
963832
963832
963831
963831
963830
963830
963830
963830
963830
963830
963831
963831
963831
963831
963831
963831
963831
963831
963831
963832
963832
963832
963831
963831
963831
963831
963831
963831
963831
963831
963831
963831
963831
963831
963831
963831
963831
963832
963832
963832
963832
963833
963832
963831
963831
963831
963831
963831
963831
963831
963831
963831
963831
963831
963832
963832
963832
963832
963832
963832
963832
963833
963832
963832
963832
963831
963831
963831
963832
963832
963832
963832
963832
963832
963832
963832
963832
963832
963832
963832
963832
963833
963832
963832
963832
963832
963832
963832
963832
963832
963832
963832
963832
963832
963832
963832
963832
963832
963832
963832
963833
963833
963833
963832
963832
963832
963832
963832
963832
963832
963832
963832
963832
963833
963833
963833
963833
963833
963833
963833
963833
963833
963833
963833
963833
963833
963833
963833
963833
963833
963833
963833
963833
963833
963833
963833
963833
963833
963833
963833
963833
963834
963833
963833
963833
963833
963833
963833
963833
963833
963833
963833
963833
963833
963833
963833
963833
963833
963833
963833
963833
963834
963834
963833
963833
963833
963833
963833
963833
963833
963834
963834
963834
963834
963833
963833
963833
963833
963833
963833
963834
963834
963834
963834
963834
963834
963834
963834
963834
963834
963834
963834
963834
963834
963834
963834
963834
963834
963834
963834
963834
963834
963834
963834
963834
963834
963834
963834
963834
963834
963834
963834
963834
963834
963834
963834
963834
963834
963834
963834
963834
963835
963835
963834
963834
963834
963834
963834
963834
963834
963834
963834
963834
963834
963834
963834
963834
963834
963834
963834
963835
963835
963835
963835
963835
963835
963835
963835
963835
963835
963835
963835
963835
963835
963835
963835
963835
963835
963835
963835
963835
963835
963836
963835
963835
963835
963835
963835
963835
963835
963835
963835
963835
963835
963835
963835
963835
963835
963835
963835
963835
963836
963836
963835
963835
963835
963835
963835
963835
963835
963835
963835
963835
963835
963835
963835
963835
963835
963835
963835
963836
963836
963836
963836
963835
963835
963835
963835
963835
963835
963835
963835
963835
963836
963836
963836
963835
963836
963836
963836
963836
963836
963836
963836
963836
963836
963836
963836
963836
963836
963836
963836
963836
963836
963836
963836
963836
963836
963836
963836
963836
963837
963837
963836
963836
963836
963836
963836
963836
963836
963836
963836
963836
963836
963836
963836
963836
963836
963836
963836
963836
963837
963837
963837
963836
963836
963836
963836
963836
963836
963836
963836
963836
963836
963836
963836
963836
963836
963836
963836
963836
963837
963837
963837
963837
963837
963837
963837
963837
963836
963836
963836
963836
963836
963836
963836
963836
963836
963836
963836
963837
963837
963838
963837
963837
963837
963837
963837
963837
963837
963837
963837
963837
963837
963836
963836
963836
963836
963837
963837
963837
963837
963838
963838
963837
963837
963837
963837
963837
963837
963837
963837
963837
963837
963837
963837
963837
963837
963837
963837
963837
963838
963838
963838
963838
963837
963837
963837
963837
963837
963837
963837
963837
963837
963837
963837
963837
963837
963837
963837
963837
963838
963838
963838
963838
963838
963838
963837
963837
963837
963837
963837
963837
963837
963837
963837
963837
963837
963837
963837
963838
963838
963839
963838
963838
963838
963838
963838
963838
963837
963837
963837
963837
963837
963837
963837
963837
963837
963837
963838
963838
963838
963839
963838
963838
963838
963838
963838
963838
963838
963838
963838
963838
963838
963838
963838
963838
963838
963838
963838
963838
963839
963839
963839
963838
963838
963838
963838
963838
963838
963838
963838
963838
963838
963838
963838
963838
963838
963838
963838
963838
963839
963839
963839
963838
963838
963838
963838
963838
963838
963838
963838
963838
963838
963838
963838
963838
963838
963838
963838
963838
963839
963839
963839
963839
963839
963839
963839
963839
963838
963838
963838
963838
963838
963838
963838
963838
963838
963838
963838
963839
963839
963839
963839
963839
963839
963839
963839
963839
963839
963839
963839
963839
963839
963839
963839
963839
963839
963839
963839
963839
963839
963840
963839
963839
963839
963839
963839
963839
963839
963839
963839
963839
963839
963839
963839
963839
963839
963839
963839
963839
963840
963840
963840
963839
963839
963839
963839
963839
963839
963839
963839
963839
963839
963839