/*--------------------------------*- C++ -*----------------------------------*\
  =========                 |
  \\      /  F ield         | OpenFOAM: The Open Source CFD Toolbox
   \\    /   O peration     | Website:  https://openfoam.org
    \\  /    A nd           | Version:  8
     \\/     M anipulation  |
\*---------------------------------------------------------------------------*/
FoamFile
{
    version     2.0;
    format      ascii;
    class       volVectorField;
    location    "900";
    object      U;
}
// * * * * * * * * * * * * * * * * * * * * * * * * * * * * * * * * * * * * * //

dimensions      [0 1 -1 0 0 0 0];

internalField   nonuniform List<vector> 
8400
(
(-40.1204 0.0799318 2.10988e-15)
(-40.2204 0.099178 2.22626e-15)
(-40.335 0.0744918 2.36994e-15)
(-40.3522 0.0147109 2.54139e-15)
(-40.1992 -0.069715 2.74014e-15)
(-39.8591 -0.161311 2.95348e-15)
(-39.3691 -0.24384 3.15763e-15)
(-38.7576 -0.30837 3.34287e-15)
(-38.053 -0.351142 3.51186e-15)
(-37.289 -0.370647 3.67229e-15)
(-36.5014 -0.366456 3.83584e-15)
(-35.7285 -0.337887 4.01432e-15)
(-35.0138 -0.284302 4.21633e-15)
(-34.4003 -0.209014 4.45137e-15)
(-33.9248 -0.121002 4.72488e-15)
(-33.6119 -0.0331991 5.0365e-15)
(-33.4658 0.0404279 5.38485e-15)
(-33.4601 0.0900761 5.76645e-15)
(-33.6047 0.106658 6.16855e-15)
(-33.8456 0.0751931 6.58554e-15)
(-34.0792 -0.0204179 7.01059e-15)
(-34.1647 -0.196 7.43335e-15)
(-33.9236 -0.447933 7.84712e-15)
(-33.1916 -0.752782 8.24542e-15)
(-31.9508 -1.09551 8.59956e-15)
(-30.1295 -1.44728 8.86272e-15)
(-27.7025 -1.75066 8.99074e-15)
(-24.776 -1.94246 8.93268e-15)
(-21.5889 -1.98954 8.63213e-15)
(-18.4125 -1.91561 8.03952e-15)
(-15.46 -1.7739 7.09215e-15)
(-12.8282 -1.59313 5.72836e-15)
(-10.5183 -1.36221 3.93326e-15)
(-8.53262 -1.05673 1.8023e-15)
(-7.01019 -0.67545 -3.42537e-16)
(-6.18106 -0.30111 -1.92536e-15)
(-5.9696 -0.0862404 -2.57731e-15)
(-6.00414 -0.04336 -2.7375e-15)
(-6.04059 -0.0720799 -2.67055e-15)
(-6.00525 -0.11029 -2.53331e-15)
(-5.89614 -0.148141 -2.35659e-15)
(-5.73992 -0.170104 -2.1723e-15)
(-5.59256 -0.159082 -1.98788e-15)
(-5.51186 -0.123488 -1.80154e-15)
(-5.53061 -0.0848996 -1.61984e-15)
(-5.64734 -0.057728 -1.45116e-15)
(-5.84238 -0.0473578 -1.29696e-15)
(-6.09173 -0.0543462 -1.16091e-15)
(-6.37235 -0.0775354 -1.04449e-15)
(-6.66189 -0.117554 -9.41012e-16)
(-28.7288 -0.0132353 6.5397e-15)
(-27.6398 0.0112635 7.15556e-15)
(-26.7054 -0.0300119 7.80051e-15)
(-25.8276 -0.168393 8.44158e-15)
(-25.0923 -0.368865 8.9855e-15)
(-24.4745 -0.580417 9.36588e-15)
(-23.874 -0.764524 9.57778e-15)
(-23.2682 -0.903585 9.63166e-15)
(-22.6758 -0.992923 9.53273e-15)
(-22.1059 -1.03304 9.29783e-15)
(-21.5221 -1.02641 8.97499e-15)
(-20.8789 -0.970617 8.61709e-15)
(-20.195 -0.858891 8.26857e-15)
(-19.5063 -0.693013 7.95376e-15)
(-18.8342 -0.488091 7.72043e-15)
(-18.2135 -0.266587 7.60853e-15)
(-17.679 -0.0552605 7.6197e-15)
(-17.2512 0.121029 7.73035e-15)
(-16.7937 0.239014 7.93184e-15)
(-16.2267 0.274243 8.16998e-15)
(-15.5878 0.202619 8.37866e-15)
(-14.9806 -0.0112538 8.54316e-15)
(-14.7848 -0.368463 8.86953e-15)
(-14.9262 -0.9104 9.71033e-15)
(-14.3119 -1.65533 1.06091e-14)
(-13.1426 -2.52622 1.14292e-14)
(-11.8288 -3.30511 1.20737e-14)
(-10.4689 -3.73071 1.25338e-14)
(-9.13461 -3.6731 1.28038e-14)
(-7.97403 -3.22354 1.29575e-14)
(-7.16241 -2.62045 1.29124e-14)
(-6.7379 -2.06286 1.23961e-14)
(-6.56731 -1.60789 1.10784e-14)
(-6.34992 -1.2013 8.7538e-15)
(-5.90138 -0.772921 5.53675e-15)
(-5.60796 -0.339971 2.57577e-15)
(-5.77017 0.108429 2.09531e-15)
(-6.03087 0.184852 1.75899e-15)
(-6.14831 0.0678519 1.41086e-15)
(-6.11875 -0.0213132 1.07223e-15)
(-5.98836 -0.12763 7.73015e-16)
(-5.77958 -0.192372 5.53891e-16)
(-5.57832 -0.120754 4.2149e-16)
(-5.46877 0.0471469 3.97684e-16)
(-5.48607 0.226449 4.74656e-16)
(-5.62281 0.379611 6.03828e-16)
(-5.84568 0.494771 7.71875e-16)
(-6.12394 0.571765 9.55122e-16)
(-6.4345 0.614701 1.11649e-15)
(-6.7588 0.625677 1.24785e-15)
(3.62466 -1.19662 1.69789e-14)
(4.73498 -0.20845 1.69369e-14)
(5.76237 -0.0322975 1.76553e-14)
(6.43277 -0.176317 1.88547e-14)
(6.78341 -0.521287 2.03561e-14)
(7.12012 -0.957714 2.17404e-14)
(7.54432 -1.36137 2.26979e-14)
(8.02781 -1.66809 2.31917e-14)
(8.52299 -1.86816 2.32957e-14)
(8.99499 -1.97696 2.31539e-14)
(9.36362 -2.01381 2.28974e-14)
(9.52516 -1.98957 2.23873e-14)
(9.58227 -1.91492 2.18029e-14)
(9.65484 -1.80279 2.11434e-14)
(9.81556 -1.66315 2.021e-14)
(10.0397 -1.49173 1.88588e-14)
(10.312 -1.30203 1.67246e-14)
(10.6672 -1.14423 1.36971e-14)
(11.2281 -1.03685 9.92296e-15)
(11.9408 -0.922177 6.08486e-15)
(12.5055 -0.682741 2.31298e-15)
(12.768 -0.306895 -1.75348e-15)
(11.5746 0.143115 -6.50125e-15)
(10.68 -0.221133 -3.43163e-15)
(10.6015 -1.58321 3.69689e-15)
(10.1159 -3.09052 8.5016e-15)
(9.22586 -4.28771 1.08263e-14)
(8.36951 -4.928 1.19998e-14)
(7.68515 -4.85813 1.24726e-14)
(7.01092 -4.13794 1.2791e-14)
(6.07303 -3.0141 1.31241e-14)
(4.65899 -1.75832 1.34846e-14)
(2.51405 -0.616131 1.39353e-14)
(-0.528288 0.179965 1.45581e-14)
(-3.37656 0.688708 1.2246e-14)
(-4.42099 0.47032 2.88338e-15)
(-5.00751 0.221151 2.25609e-15)
(-5.72216 -0.042465 2.10493e-15)
(-5.93639 -0.0148612 1.99912e-15)
(-5.99374 -0.0794583 1.82653e-15)
(-5.83875 -0.401984 1.73424e-15)
(-5.48901 -0.646911 1.70953e-15)
(-5.15851 -0.493601 1.67081e-15)
(-4.99029 -0.152715 1.68111e-15)
(-4.99388 0.171315 1.72248e-15)
(-5.15197 0.419596 1.79998e-15)
(-5.40189 0.584693 1.89441e-15)
(-5.70182 0.675003 1.98768e-15)
(-6.02632 0.704055 2.05664e-15)
(-6.3602 0.685029 2.096e-15)
(25.3622 -2.30262 2.45558e-14)
(25.6452 -1.80877 2.44131e-14)
(26.1 -1.77206 2.43101e-14)
(26.6969 -1.98042 2.44056e-14)
(27.3278 -2.28671 2.4689e-14)
(27.9136 -2.60509 2.49649e-14)
(28.3968 -2.87578 2.51059e-14)
(28.7391 -3.05993 2.51238e-14)
(28.9146 -3.13555 2.50236e-14)
(28.9036 -3.09338 2.48369e-14)
(28.6888 -2.93188 2.46575e-14)
(28.2598 -2.65627 2.4618e-14)
(27.6134 -2.28176 2.47808e-14)
(26.7502 -1.83387 2.51377e-14)
(25.6921 -1.35157 2.55974e-14)
(24.5805 -0.881931 2.5951e-14)
(23.6969 -0.46572 2.64282e-14)
(23.0322 -0.147406 2.65121e-14)
(22.5379 0.0368144 2.67138e-14)
(22.1382 0.0387721 2.63321e-14)
(21.9353 -0.234964 2.50193e-14)
(22.6454 -0.810226 2.30529e-14)
(24.2478 -1.71015 2.15015e-14)
(26.0774 -2.8643 2.05055e-14)
(27.2484 -4.04744 1.95206e-14)
(27.5174 -5.03192 1.85337e-14)
(27.0253 -5.59786 1.7626e-14)
(26.0601 -5.58297 1.68816e-14)
(24.8138 -4.94161 1.63869e-14)
(23.289 -3.766 1.60025e-14)
(21.359 -2.2441 1.55687e-14)
(18.9685 -0.596162 1.50109e-14)
(16.7792 1.05977 1.46386e-14)
(14.611 2.51419 1.45188e-14)
(11.941 3.48471 1.45077e-14)
(9.05249 3.80826 1.32348e-14)
(6.41816 3.63733 1.18777e-14)
(4.52347 3.38199 1.08967e-14)
(-2.37722 1.02923 4.32653e-15)
(-5.25415 -0.813183 2.08861e-15)
(-5.25943 -1.37882 2.09795e-15)
(-4.47589 -1.10465 2.21049e-15)
(-4.37436 -0.734003 1.75847e-15)
(-4.17008 -0.141956 1.98315e-15)
(-4.21651 0.374178 2.11015e-15)
(-4.45143 0.750049 2.27549e-15)
(-4.77878 0.992108 2.44913e-15)
(-5.14625 1.12591 2.60356e-15)
(-5.52671 1.17664 2.73562e-15)
(-5.90565 1.16522 2.86213e-15)
(61.3798 0.828191 2.372e-14)
(60.7922 0.689965 2.37148e-14)
(60.2364 0.416016 2.37003e-14)
(59.7096 0.0424738 2.36767e-14)
(59.1203 -0.366263 2.36388e-14)
(58.4452 -0.761692 2.35842e-14)
(57.7033 -1.10361 2.35139e-14)
(56.9298 -1.35909 2.34372e-14)
(56.1642 -1.50528 2.33545e-14)
(55.4438 -1.52983 2.32694e-14)
(54.8022 -1.42934 2.31964e-14)
(54.2682 -1.2099 2.32211e-14)
(53.8638 -0.888775 2.33169e-14)
(53.6004 -0.493365 2.3448e-14)
(53.482 -0.0595882 2.35548e-14)
(53.4052 0.35906 2.37399e-14)
(53.2634 0.704228 2.39227e-14)
(53.0941 0.93542 2.41621e-14)
(52.9333 1.02136 2.4396e-14)
(52.8454 0.926439 2.45441e-14)
(52.8498 0.608815 2.45962e-14)
(52.5772 0.0395197 2.45677e-14)
(51.9054 -0.759122 2.43205e-14)
(50.7556 -1.71914 2.39299e-14)
(49.1207 -2.67142 2.34304e-14)
(47.1039 -3.38171 2.29494e-14)
(44.8922 -3.64413 2.26007e-14)
(42.6776 -3.3562 2.2345e-14)
(40.5803 -2.54137 2.21194e-14)
(38.628 -1.31093 2.18075e-14)
(36.6964 0.231594 2.16073e-14)
(34.6294 1.95799 2.1407e-14)
(32.0426 3.63111 2.10699e-14)
(29.0578 5.11029 2.05699e-14)
(25.7698 6.25166 2.00543e-14)
(22.3159 6.90372 1.92584e-14)
(18.8249 7.04651 1.82158e-14)
(15.4345 6.81541 1.68278e-14)
(11.5483 5.93771 1.43441e-14)
(7.9524 4.70052 1.22569e-14)
(5.33292 3.53111 1.10631e-14)
(0.145001 0.406669 5.57099e-15)
(-3.17356 -1.181 7.3241e-16)
(-3.04846 -0.287638 1.12225e-15)
(-3.20148 0.542883 1.52777e-15)
(-3.56633 1.06401 1.8576e-15)
(-4.00813 1.36112 2.16418e-15)
(-4.46093 1.50442 2.45495e-15)
(-4.90113 1.54122 2.71872e-15)
(-5.31931 1.50411 2.97504e-15)
(43.4311 -0.267181 2.26412e-14)
(42.86 -0.641865 2.26402e-14)
(42.2988 -0.989288 2.26386e-14)
(41.8379 -1.35249 2.26317e-14)
(41.408 -1.70478 2.2612e-14)
(40.9651 -2.01094 2.25769e-14)
(40.5105 -2.23983 2.25264e-14)
(40.0604 -2.3671 2.2463e-14)
(39.6321 -2.37896 2.23912e-14)
(39.2418 -2.27288 2.23163e-14)
(38.9039 -2.05661 2.22444e-14)
(38.6316 -1.74691 2.218e-14)
(38.4366 -1.36856 2.21264e-14)
(38.3301 -0.952009 2.20845e-14)
(38.3132 -0.529077 2.20521e-14)
(38.4612 -0.132207 2.20393e-14)
(38.7478 0.193512 2.20424e-14)
(39.0988 0.394121 2.20525e-14)
(39.4281 0.420127 2.20538e-14)
(39.6484 0.239475 2.20314e-14)
(39.6767 -0.137276 2.19711e-14)
(39.5314 -0.653021 2.18888e-14)
(39.1706 -1.2301 2.1794e-14)
(38.5582 -1.75617 2.16992e-14)
(37.694 -2.08365 2.16184e-14)
(36.6245 -2.07396 2.15568e-14)
(35.4278 -1.6544 2.14988e-14)
(34.1774 -0.840095 2.1393e-14)
(32.9247 0.295683 2.13443e-14)
(31.5936 1.70122 2.13231e-14)
(30.2824 3.26253 2.1287e-14)
(29.0524 4.87049 2.12583e-14)
(27.8109 6.45557 2.12117e-14)
(26.437 7.91736 2.10637e-14)
(24.8223 9.12269 2.0782e-14)
(22.9089 9.92956 2.04939e-14)
(20.6956 10.2535 1.98896e-14)
(18.2253 10.0679 1.91473e-14)
(15.3882 9.26615 1.79272e-14)
(12.2456 8.0551 1.63556e-14)
(9.22294 6.75453 1.44771e-14)
(6.03714 5.02527 1.14303e-14)
(3.60602 3.35762 8.17503e-15)
(-0.568124 0.425653 -3.79498e-16)
(-1.853 0.911524 -5.24106e-16)
(-2.48757 1.54556 7.57141e-17)
(-3.09488 1.86412 4.96337e-16)
(-3.65042 1.9907 8.31068e-16)
(-4.15382 2.00023 1.16595e-15)
(-4.60899 1.93516 1.52765e-15)
(41.5636 1.18344 2.15581e-14)
(40.9106 0.902701 2.15649e-14)
(40.316 0.62084 2.15646e-14)
(39.8236 0.327961 2.15629e-14)
(39.3754 0.0337785 2.15611e-14)
(38.9039 -0.237114 2.15535e-14)
(38.4134 -0.460373 2.15368e-14)
(37.9211 -0.615765 2.15116e-14)
(37.4429 -0.690743 2.14787e-14)
(36.9926 -0.681478 2.14418e-14)
(36.5825 -0.592501 2.14046e-14)
(36.2231 -0.435497 2.13696e-14)
(35.923 -0.228215 2.13397e-14)
(35.6875 0.00589321 2.13158e-14)
(35.5158 0.238243 2.12966e-14)
(35.3726 0.438152 2.12817e-14)
(35.2636 0.583856 2.12727e-14)
(35.1787 0.659454 2.12678e-14)
(35.0967 0.651133 2.12637e-14)
(34.9855 0.554329 2.12558e-14)
(34.8013 0.380158 2.1239e-14)
(34.5175 0.16059 2.12075e-14)
(34.1068 -0.0545913 2.11678e-14)
(33.513 -0.201097 2.11309e-14)
(32.7335 -0.210271 2.1101e-14)
(31.7899 -0.0255821 2.10792e-14)
(30.7247 0.382924 2.10675e-14)
(29.5293 1.01808 2.10606e-14)
(28.2118 1.87306 2.10591e-14)
(26.9091 2.90203 2.10631e-14)
(25.6776 4.10825 2.10541e-14)
(24.5464 5.50019 2.12128e-14)
(23.5198 7.04743 2.1273e-14)
(22.5618 8.65299 2.11992e-14)
(21.5853 10.1519 2.10554e-14)
(20.4697 11.3458 2.08539e-14)
(19.102 12.0577 2.05587e-14)
(17.4233 12.1837 2.01723e-14)
(15.3741 11.681 1.93838e-14)
(12.9537 10.7083 1.82777e-14)
(10.3897 9.48727 1.67031e-14)
(7.76039 7.92506 1.41612e-14)
(5.48968 6.1996 1.06791e-14)
(3.04028 4.05528 4.64799e-15)
(-0.075567 2.06363 -2.29541e-15)
(-1.33482 2.22693 -2.56216e-15)
(-2.11192 2.4755 -2.34429e-15)
(-2.76624 2.53282 -2.26917e-15)
(-3.31856 2.48213 -2.24489e-15)
(-3.79397 2.36634 -2.2498e-15)
(34.6523 1.25154 2.12129e-14)
(33.9952 0.882563 2.12195e-14)
(33.4134 0.511617 2.1222e-14)
(32.9149 0.146885 2.12231e-14)
(32.461 -0.204298 2.12237e-14)
(32.0475 -0.520575 2.12242e-14)
(31.6362 -0.777915 2.12211e-14)
(31.2314 -0.962476 2.12113e-14)
(30.8443 -1.06743 2.11953e-14)
(30.4821 -1.09225 2.1175e-14)
(30.1517 -1.04241 2.1153e-14)
(29.8598 -0.9282 2.11315e-14)
(29.6122 -0.763597 2.11133e-14)
(29.4136 -0.564653 2.1099e-14)
(29.2369 -0.347952 2.10877e-14)
(29.1082 -0.132356 2.10804e-14)
(29.0138 0.060134 2.10766e-14)
(28.9343 0.211117 2.10733e-14)
(28.8456 0.306936 2.1071e-14)
(28.7189 0.341413 2.10692e-14)
(28.5214 0.31748 2.10668e-14)
(28.2178 0.254046 2.10633e-14)
(27.786 0.187407 2.10588e-14)
(27.2328 0.16021 2.10493e-14)
(26.532 0.222779 2.10385e-14)
(25.669 0.426329 2.10306e-14)
(24.641 0.817183 2.10273e-14)
(23.5412 1.4247 2.10271e-14)
(22.4443 2.26829 2.10295e-14)
(21.4043 3.3478 2.10307e-14)
(20.4511 4.63973 2.10274e-14)
(19.601 6.10744 2.10453e-14)
(18.8583 7.70519 2.10153e-14)
(18.2069 9.36058 2.1271e-14)
(17.5935 10.951 2.13713e-14)
(16.92 12.3051 2.12403e-14)
(16.0754 13.2412 2.10283e-14)
(14.9877 13.6331 2.07228e-14)
(13.6013 13.4295 2.03542e-14)
(11.8782 12.7113 1.96119e-14)
(9.91662 11.6386 1.80864e-14)
(7.81362 10.2105 1.60207e-14)
(5.87347 8.50389 1.28789e-14)
(3.99219 6.50482 7.55697e-15)
(1.73085 4.30253 1.53343e-16)
(-0.297701 3.15945 -4.21333e-15)
(-1.16833 3.17928 -4.41453e-15)
(-1.86943 3.11223 -5.10103e-15)
(-2.43605 2.97139 -6.09598e-15)
(-2.90678 2.78855 -7.42979e-15)
(28.294 1.97948 2.10466e-14)
(27.5311 1.60323 2.10525e-14)
(26.9392 1.23261 2.10557e-14)
(26.4537 0.881829 2.10578e-14)
(26.0105 0.549779 2.10593e-14)
(25.5743 0.251102 2.10605e-14)
(25.1795 0.000511395 2.10616e-14)
(24.8274 -0.189164 2.10594e-14)
(24.4888 -0.30944 2.10526e-14)
(24.1701 -0.357942 2.10427e-14)
(23.8775 -0.337069 2.1031e-14)
(23.6166 -0.253065 2.10184e-14)
(23.3853 -0.115479 2.10074e-14)
(23.1569 0.0608982 2.09993e-14)
(22.9649 0.252052 2.09933e-14)
(22.81 0.437733 2.09905e-14)
(22.6801 0.603995 2.09907e-14)
(22.5603 0.741178 2.09926e-14)
(22.4316 0.843518 2.0996e-14)
(22.2705 0.910091 2.10013e-14)
(22.0501 0.945784 2.10088e-14)
(21.7408 0.963046 2.10173e-14)
(21.3156 0.986495 2.10278e-14)
(20.7596 1.05516 2.10329e-14)
(20.0758 1.21709 2.1035e-14)
(19.2879 1.51999 2.10383e-14)
(18.4359 2.00114 2.10429e-14)
(17.5669 2.67861 2.10498e-14)
(16.7229 3.54778 2.10553e-14)
(15.9368 4.59016 2.10562e-14)
(15.2298 5.78669 2.10484e-14)
(14.6156 7.11946 2.10391e-14)
(14.0999 8.56624 2.10127e-14)
(13.6756 10.0856 2.09909e-14)
(13.3086 11.594 2.09687e-14)
(12.9293 12.9566 2.1259e-14)
(12.4542 14.0088 2.14458e-14)
(11.8202 14.6022 2.13513e-14)
(10.9756 14.6394 2.10739e-14)
(9.86962 14.1373 2.05055e-14)
(8.51903 13.2128 1.96067e-14)
(6.97157 11.9124 1.77057e-14)
(5.45813 10.2834 1.45064e-14)
(4.02296 8.32702 1.00284e-14)
(2.40604 6.1596 3.78237e-15)
(0.687292 4.44867 -9.99616e-16)
(-0.362639 3.90709 -3.28048e-15)
(-1.02284 3.68153 -4.91471e-15)
(-1.55557 3.43489 -6.62735e-15)
(-1.99078 3.18061 -1.00314e-14)
(20.7459 2.35776 2.09674e-14)
(19.918 1.95829 2.09723e-14)
(19.3588 1.56419 2.09747e-14)
(18.9172 1.18716 2.09769e-14)
(18.5133 0.825737 2.09794e-14)
(18.115 0.496241 2.09817e-14)
(17.724 0.215974 2.09845e-14)
(17.3541 -0.00464559 2.09862e-14)
(17.0435 -0.159273 2.09825e-14)
(16.7732 -0.242577 2.09749e-14)
(16.525 -0.255665 2.09651e-14)
(16.2872 -0.204096 2.09529e-14)
(16.0635 -0.0971213 2.09417e-14)
(15.8886 0.0491166 2.09331e-14)
(15.7514 0.21614 2.09287e-14)
(15.6407 0.388872 2.09295e-14)
(15.5457 0.556259 2.09342e-14)
(15.4543 0.710988 2.09423e-14)
(15.3514 0.849333 2.09522e-14)
(15.2187 0.971615 2.09615e-14)
(15.036 1.08331 2.09706e-14)
(14.783 1.19657 2.09794e-14)
(14.4432 1.33226 2.09903e-14)
(14.0098 1.52027 2.10047e-14)
(13.4883 1.79559 2.10182e-14)
(12.8978 2.19199 2.10305e-14)
(12.2679 2.73582 2.10441e-14)
(11.6338 3.44112 2.10588e-14)
(11.0293 4.30611 2.10701e-14)
(10.481 5.31559 2.1078e-14)
(10.0066 6.45064 2.10752e-14)
(9.61733 7.69501 2.10632e-14)
(9.31851 9.03521 2.10342e-14)
(9.10665 10.4496 2.09957e-14)
(8.95941 11.8863 2.09413e-14)
(8.82953 13.2449 2.06583e-14)
(8.6566 14.38 2.1007e-14)
(8.38981 15.1301 2.13268e-14)
(7.98987 15.3628 2.1339e-14)
(7.41174 15.0454 2.10391e-14)
(6.63056 14.2542 2.0265e-14)
(5.64071 13.0592 1.88455e-14)
(4.60162 11.5142 1.65231e-14)
(3.60412 9.62655 1.22791e-14)
(2.50555 7.50024 6.9605e-15)
(1.27608 5.63044 3.38427e-15)
(0.343122 4.63752 1.26388e-15)
(-0.256763 4.17952 2.60806e-17)
(-0.699695 3.83382 -2.41124e-15)
(-1.06404 3.51642 -7.3236e-15)
(12.7997 2.85277 2.08984e-14)
(11.7304 2.40279 2.09065e-14)
(11.1447 1.98488 2.09113e-14)
(10.7074 1.59067 2.0916e-14)
(10.3044 1.21928 2.09211e-14)
(9.90216 0.890365 2.09265e-14)
(9.49874 0.616776 2.09327e-14)
(9.10555 0.397878 2.09402e-14)
(8.7388 0.236717 2.09498e-14)
(8.40807 0.137258 2.09627e-14)
(8.12092 0.100137 2.09797e-14)
(7.88861 0.118225 2.09933e-14)
(7.71491 0.181509 2.10085e-14)
(7.59052 0.278865 2.10196e-14)
(7.50023 0.39897 2.10264e-14)
(7.43255 0.531585 2.10343e-14)
(7.38183 0.669954 2.10426e-14)
(7.34288 0.810795 2.10469e-14)
(7.30588 0.953454 2.10487e-14)
(7.25581 1.10001 2.10499e-14)
(7.17518 1.25633 2.10517e-14)
(7.04761 1.43302 2.10552e-14)
(6.86163 1.64632 2.10604e-14)
(6.61526 1.9176 2.10694e-14)
(6.31791 2.27047 2.10823e-14)
(5.98912 2.72648 2.11059e-14)
(5.65387 3.30127 2.11332e-14)
(5.33664 4.00237 2.11597e-14)
(5.05621 4.8283 2.11755e-14)
(4.82428 5.7704 2.11761e-14)
(4.64846 6.81833 2.11547e-14)
(4.53639 7.9641 2.11244e-14)
(4.49578 9.20241 2.10826e-14)
(4.52958 10.5229 2.10205e-14)
(4.62535 11.8915 2.09411e-14)
(4.75096 13.2298 2.06911e-14)
(4.86477 14.4073 2.07392e-14)
(4.92974 15.2606 2.08907e-14)
(4.91951 15.6402 2.10826e-14)
(4.80023 15.4771 2.098e-14)
(4.53263 14.8094 2.03479e-14)
(4.07534 13.7073 1.88731e-14)
(3.52617 12.2366 1.6513e-14)
(2.97168 10.423 1.31427e-14)
(2.32911 8.37009 9.19543e-15)
(1.55936 6.47812 6.70704e-15)
(0.903528 5.26523 5.72799e-15)
(0.459576 4.59416 5.75041e-15)
(0.133249 4.11792 4.31698e-15)
(-0.132732 3.74347 1.6011e-16)
(2.938 3.94699 2.08546e-14)
(1.53139 3.03883 2.08688e-14)
(1.07502 2.39335 2.08904e-14)
(0.641473 1.85489 2.09169e-14)
(0.033821 1.39865 2.09507e-14)
(-0.797418 1.03109 2.09922e-14)
(-1.94928 0.745473 2.10586e-14)
(-3.63163 0.517441 2.11685e-14)
(-6.13734 0.355235 2.13318e-14)
(-6.12715 0.356306 2.13231e-14)
(-5.72858 0.366202 2.12978e-14)
(-5.32795 0.398197 2.13087e-14)
(-4.92786 0.458557 2.13363e-14)
(-4.50565 0.548278 2.13601e-14)
(-4.05843 0.662693 2.13768e-14)
(-3.61343 0.792463 2.13788e-14)
(-3.1959 0.931065 2.1374e-14)
(-2.7985 1.07851 2.1364e-14)
(-2.41928 1.23769 2.1347e-14)
(-2.07251 1.41311 2.13323e-14)
(-1.76851 1.61023 2.1323e-14)
(-1.51159 1.83571 2.13157e-14)
(-1.30943 2.09775 2.13061e-14)
(-1.16281 2.40756 2.12997e-14)
(-1.06571 2.77826 2.13064e-14)
(-1.00645 3.22363 2.13252e-14)
(-0.967508 3.75641 2.13404e-14)
(-0.930314 4.38685 2.13379e-14)
(-0.879099 5.12122 2.13065e-14)
(-0.801789 5.96105 2.1262e-14)
(-0.688079 6.90492 2.11965e-14)
(-0.525893 7.95041 2.11485e-14)
(-0.303098 9.09524 2.11042e-14)
(-0.0115535 10.3323 2.10386e-14)
(0.350654 11.6515 2.09457e-14)
(0.7558 12.9675 2.06832e-14)
(1.16878 14.1444 2.07141e-14)
(1.56712 15.0422 2.08466e-14)
(1.93016 15.5104 2.09902e-14)
(2.22953 15.4632 2.08432e-14)
(2.42319 14.9093 2.01752e-14)
(2.45487 13.9016 1.86337e-14)
(2.38199 12.5038 1.61422e-14)
(2.26584 10.763 1.26823e-14)
(2.04462 8.80051 8.9627e-15)
(1.68748 6.96265 6.75646e-15)
(1.34227 5.6639 5.89234e-15)
(1.10062 4.86452 6.2021e-15)
(0.931919 4.30607 5.90938e-15)
(0.792228 3.8817 3.25104e-15)
(-7.79785 3.29557 2.05565e-14)
(-7.93665 2.85531 2.05523e-14)
(-8.14009 2.34478 2.05498e-14)
(-8.46745 1.92785 2.05417e-14)
(-8.8577 1.61042 2.05171e-14)
(-9.2614 1.36405 2.04787e-14)
(-9.63741 1.16665 2.04224e-14)
(-9.92632 1.00911 2.03747e-14)
(-10.1547 0.882087 2.0342e-14)
(-10.1463 0.783437 2.03405e-14)
(-10.1335 0.699259 2.03554e-14)
(-10.1142 0.63969 2.03703e-14)
(-10.0674 0.612255 2.03911e-14)
(-9.97839 0.621062 2.04233e-14)
(-9.84313 0.666651 2.04564e-14)
(-9.66887 0.745459 2.0492e-14)
(-9.46487 0.851795 2.05371e-14)
(-9.23647 0.981347 2.05971e-14)
(-8.98912 1.13274 2.0664e-14)
(-8.72831 1.30711 2.0735e-14)
(-8.46057 1.50718 2.08099e-14)
(-8.19276 1.7375 2.08828e-14)
(-7.93081 2.00455 2.0954e-14)
(-7.67834 2.3168 2.10237e-14)
(-7.436 2.68394 2.10906e-14)
(-7.20117 3.11631 2.11429e-14)
(-6.96727 3.62427 2.11735e-14)
(-6.72402 4.21762 2.11817e-14)
(-6.45972 4.90458 2.11724e-14)
(-6.16274 5.69094 2.1142e-14)
(-5.82213 6.5797 2.10991e-14)
(-5.4271 7.57094 2.10586e-14)
(-4.96744 8.6621 2.10181e-14)
(-4.43564 9.84467 2.09512e-14)
(-3.82548 11.0988 2.08377e-14)
(-3.1475 12.3558 2.06377e-14)
(-2.42235 13.5055 2.06712e-14)
(-1.67179 14.4191 2.07892e-14)
(-0.921444 14.9552 2.09035e-14)
(-0.204945 15.02 2.07204e-14)
(0.439467 14.5772 1.99235e-14)
(0.917146 13.6667 1.82512e-14)
(1.28137 12.3543 1.56395e-14)
(1.58052 10.6931 1.2179e-14)
(1.75298 8.83861 8.65973e-15)
(1.76906 7.10389 6.65999e-15)
(1.72765 5.80874 5.88166e-15)
(1.70808 4.94415 6.04827e-15)
(1.71295 4.33776 5.82583e-15)
(1.71715 3.88746 3.72896e-15)
(-14.9792 2.97834 1.62639e-14)
(-14.5058 2.85512 1.62862e-14)
(-14.2928 2.54315 1.6216e-14)
(-14.188 2.2222 1.60892e-14)
(-14.1491 1.92771 1.59257e-14)
(-14.1417 1.66202 1.57319e-14)
(-14.1452 1.42266 1.55321e-14)
(-14.1467 1.20916 1.53506e-14)
(-14.1451 1.01584 1.51978e-14)
(-14.1557 0.841299 1.5069e-14)
(-14.1832 0.691528 1.49668e-14)
(-14.2197 0.57154 1.49014e-14)
(-14.2556 0.485889 1.48845e-14)
(-14.2798 0.437891 1.49254e-14)
(-14.2816 0.428223 1.50315e-14)
(-14.2533 0.453913 1.52064e-14)
(-14.192 0.509645 1.5448e-14)
(-14.099 0.590795 1.57501e-14)
(-13.9771 0.695564 1.61011e-14)
(-13.8296 0.825121 1.6492e-14)
(-13.6596 0.983203 1.69115e-14)
(-13.4699 1.1759 1.735e-14)
(-13.262 1.41121 1.7798e-14)
(-13.0363 1.69835 1.82357e-14)
(-12.7914 2.04704 1.86498e-14)
(-12.5237 2.46664 1.90298e-14)
(-12.2276 2.96566 1.93593e-14)
(-11.8952 3.55144 1.96683e-14)
(-11.5168 4.22975 1.99291e-14)
(-11.0822 5.00457 2.0137e-14)
(-10.5819 5.87772 2.02939e-14)
(-10.0068 6.84828 2.04065e-14)
(-9.34903 7.9115 2.04757e-14)
(-8.60094 9.05524 2.0491e-14)
(-7.75541 10.2519 2.04503e-14)
(-6.81269 11.4415 2.0387e-14)
(-5.78244 12.5336 2.04676e-14)
(-4.68598 13.4172 2.05784e-14)
(-3.55627 13.9742 2.06292e-14)
(-2.43709 14.1187 2.03844e-14)
(-1.38086 13.8068 1.95143e-14)
(-0.484295 13.0491 1.781e-14)
(0.303747 11.8217 1.50436e-14)
(0.986445 10.2426 1.1616e-14)
(1.52074 8.52272 8.37825e-15)
(1.87649 6.93097 6.62617e-15)
(2.12079 5.70514 5.92156e-15)
(2.32174 4.84086 5.98993e-15)
(2.50305 4.22328 5.92788e-15)
(2.65819 3.76682 4.60344e-15)
(-20.0316 2.65815 1.01174e-14)
(-19.4932 2.61011 9.98733e-15)
(-19.142 2.40177 9.72081e-15)
(-18.8709 2.13615 9.3756e-15)
(-18.6777 1.86186 9.00497e-15)
(-18.5424 1.60102 8.64383e-15)
(-18.4505 1.36146 8.31687e-15)
(-18.3928 1.14576 8.04081e-15)
(-18.3631 0.953601 7.81908e-15)
(-18.358 0.784948 7.65309e-15)
(-18.3733 0.641304 7.54686e-15)
(-18.4027 0.52461 7.50949e-15)
(-18.4383 0.436783 7.54512e-15)
(-18.4712 0.379094 7.66066e-15)
(-18.493 0.351478 7.86068e-15)
(-18.4966 0.352364 8.14742e-15)
(-18.4776 0.379382 8.5251e-15)
(-18.4339 0.430687 8.99706e-15)
(-18.3652 0.506003 9.56312e-15)
(-18.2716 0.607039 1.02196e-14)
(-18.1536 0.737549 1.0959e-14)
(-18.0109 0.903202 1.17684e-14)
(-17.8423 1.11111 1.26294e-14)
(-17.6452 1.36926 1.35181e-14)
(-17.4153 1.68593 1.44054e-14)
(-17.1462 2.06893 1.52504e-14)
(-16.8294 2.5253 1.60618e-14)
(-16.4549 3.06112 1.68085e-14)
(-16.011 3.68156 1.74742e-14)
(-15.4862 4.39086 1.80445e-14)
(-14.8702 5.19159 1.85144e-14)
(-14.1545 6.0836 1.88895e-14)
(-13.3317 7.0617 1.91804e-14)
(-12.3939 8.11164 1.9397e-14)
(-11.332 9.20358 1.9567e-14)
(-10.1402 10.2836 1.97598e-14)
(-8.82169 11.2744 2.0019e-14)
(-7.39648 12.0839 2.01816e-14)
(-5.90335 12.6193 2.01763e-14)
(-4.39833 12.8096 1.98344e-14)
(-2.95484 12.6113 1.89027e-14)
(-1.67178 12.0101 1.72267e-14)
(-0.534552 10.9588 1.45619e-14)
(0.545885 9.42594 1.113e-14)
(1.40036 7.87577 8.26293e-15)
(2.06415 6.46717 6.73057e-15)
(2.57413 5.3636 6.06905e-15)
(2.98856 4.5572 6.02558e-15)
(3.34268 3.97152 6.01782e-15)
(3.64688 3.53968 5.34305e-15)
(-24.2806 2.19093 7.26019e-15)
(-23.7606 2.1698 7.16009e-15)
(-23.3954 2.04812 6.99862e-15)
(-23.0864 1.87241 6.80377e-15)
(-22.8453 1.6765 6.60248e-15)
(-22.6632 1.4809 6.41136e-15)
(-22.5311 1.29563 6.24031e-15)
(-22.4407 1.12535 6.09261e-15)
(-22.385 0.971982 5.96863e-15)
(-22.3583 0.836667 5.86883e-15)
(-22.3547 0.720676 5.79236e-15)
(-22.3682 0.625356 5.74118e-15)
(-22.3918 0.551998 5.72128e-15)
(-22.4184 0.501405 5.73834e-15)
(-22.4409 0.473664 5.79886e-15)
(-22.453 0.46821 5.9106e-15)
(-22.4496 0.484151 6.08206e-15)
(-22.4269 0.520963 6.32359e-15)
(-22.3823 0.579126 6.64502e-15)
(-22.3136 0.660466 7.05556e-15)
(-22.219 0.7683 7.56325e-15)
(-22.0963 0.907342 8.17345e-15)
(-21.9425 1.08343 8.88919e-15)
(-21.7535 1.30307 9.70515e-15)
(-21.5232 1.57287 1.06095e-14)
(-21.2435 1.89907 1.15738e-14)
(-20.9038 2.2873 1.25628e-14)
(-20.4912 2.74264 1.35255e-14)
(-19.991 3.26963 1.44127e-14)
(-19.3883 3.87241 1.5226e-14)
(-18.6703 4.55429 1.59637e-14)
(-17.8267 5.3165 1.66246e-14)
(-16.8502 6.15545 1.72145e-14)
(-15.7336 7.05805 1.77423e-14)
(-14.4687 7.99595 1.82134e-14)
(-13.0468 8.92108 1.86646e-14)
(-11.4665 9.768 1.91019e-14)
(-9.74305 10.4633 1.94076e-14)
(-7.91634 10.9384 1.94172e-14)
(-6.05282 11.1414 1.90552e-14)
(-4.24556 11.0355 1.81314e-14)
(-2.60728 10.5894 1.65739e-14)
(-1.16589 9.72996 1.41491e-14)
(0.276988 8.29122 1.0799e-14)
(1.43411 6.92048 8.285e-15)
(2.37418 5.7305 6.96528e-15)
(3.12849 4.79207 6.32023e-15)
(3.74647 4.09151 6.12558e-15)
(4.26957 3.57757 6.06596e-15)
(4.7202 3.20113 5.7803e-15)
(-28.5096 1.74982 6.29158e-15)
(-27.9946 1.74538 6.26283e-15)
(-27.6283 1.6729 6.213e-15)
(-27.2993 1.55814 6.1504e-15)
(-27.0238 1.421 6.08442e-15)
(-26.799 1.27631 6.01989e-15)
(-26.6205 1.13334 5.95787e-15)
(-26.4828 0.997704 5.90039e-15)
(-26.3804 0.872565 5.84727e-15)
(-26.3082 0.760012 5.79936e-15)
(-26.2608 0.66165 5.75905e-15)
(-26.233 0.578847 5.72844e-15)
(-26.2188 0.512759 5.70905e-15)
(-26.2123 0.464132 5.70541e-15)
(-26.2074 0.433271 5.72185e-15)
(-26.1983 0.420153 5.76299e-15)
(-26.1798 0.424634 5.83612e-15)
(-26.147 0.446854 5.94914e-15)
(-26.096 0.487671 6.10918e-15)
(-26.0227 0.548928 6.32494e-15)
(-25.9234 0.633541 6.6063e-15)
(-25.7941 0.745444 6.96397e-15)
(-25.6303 0.889404 7.40901e-15)
(-25.4262 1.07061 7.9509e-15)
(-25.1749 1.29428 8.59569e-15)
(-24.8667 1.56529 9.3377e-15)
(-24.4895 1.88787 1.01687e-14)
(-24.0282 2.26558 1.10583e-14)
(-23.4653 2.70138 1.19681e-14)
(-22.7827 3.19768 1.28495e-14)
(-21.9642 3.75653 1.36527e-14)
(-20.9966 4.37902 1.43966e-14)
(-19.8716 5.06308 1.50935e-14)
(-18.5839 5.79908 1.57532e-14)
(-17.1282 6.56388 1.64049e-14)
(-15.497 7.31693 1.70803e-14)
(-13.6844 8.00373 1.77187e-14)
(-11.698 8.56723 1.81743e-14)
(-9.57222 8.96052 1.82677e-14)
(-7.37926 9.15323 1.79068e-14)
(-5.23246 9.12216 1.70316e-14)
(-3.27142 8.82862 1.56165e-14)
(-1.57147 8.17543 1.35615e-14)
(0.226636 6.84134 1.04622e-14)
(1.65113 5.68558 8.4311e-15)
(2.8341 4.73848 7.30864e-15)
(3.80783 3.99123 6.71926e-15)
(4.6155 3.42574 6.46553e-15)
(5.30201 3.00812 6.38282e-15)
(5.89713 2.70539 6.30639e-15)
(-33.1142 1.36477 6.5863e-15)
(-32.5398 1.37239 6.59439e-15)
(-32.1242 1.33273 6.59296e-15)
(-31.7327 1.26219 6.58459e-15)
(-31.3842 1.17298 6.57147e-15)
(-31.0795 1.07487 6.55498e-15)
(-30.8174 0.974854 6.535e-15)
(-30.5951 0.877548 6.51276e-15)
(-30.4087 0.785907 6.48872e-15)
(-30.2543 0.701952 6.464e-15)
(-30.1272 0.627203 6.44081e-15)
(-30.023 0.562858 6.4208e-15)
(-29.9365 0.509867 6.40465e-15)
(-29.8625 0.468922 6.39402e-15)
(-29.7957 0.44045 6.3918e-15)
(-29.7307 0.424687 6.40071e-15)
(-29.6621 0.421821 6.4254e-15)
(-29.5847 0.43227 6.47083e-15)
(-29.4934 0.456904 6.54147e-15)
(-29.3832 0.497237 6.64384e-15)
(-29.2487 0.555531 6.78554e-15)
(-29.0846 0.634746 6.97566e-15)
(-28.8848 0.738429 7.2256e-15)
(-28.6423 0.870527 7.54748e-15)
(-28.3485 1.03511 7.94969e-15)
(-27.9927 1.2361 8.43709e-15)
(-27.5613 1.47693 9.01161e-15)
(-27.0377 1.76027 9.67421e-15)
(-26.4028 2.08797 1.04069e-14)
(-25.6359 2.46103 1.11775e-14)
(-24.7174 2.88003 1.19393e-14)
(-23.631 3.34521 1.26438e-14)
(-22.3664 3.8554 1.32999e-14)
(-20.9197 4.40472 1.39278e-14)
(-19.2901 4.97685 1.45709e-14)
(-17.4739 5.53993 1.52719e-14)
(-15.4627 6.04898 1.59865e-14)
(-13.253 6.45924 1.65564e-14)
(-10.867 6.74313 1.6752e-14)
(-8.3759 6.89581 1.64209e-14)
(-5.91407 6.9179 1.56476e-14)
(-3.66123 6.77484 1.44363e-14)
(-1.7549 6.34226 1.2835e-14)
(0.465289 5.09929 1.00439e-14)
(2.06732 4.23545 8.6321e-15)
(3.44914 3.55993 7.84521e-15)
(4.60683 3.02925 7.39005e-15)
(5.58074 2.62408 7.20815e-15)
(6.41779 2.32397 7.18547e-15)
(7.15156 2.11049 7.24754e-15)
(-37.7398 0.846355 7.27654e-15)
(-37.0708 0.856341 7.28861e-15)
(-36.5666 0.838092 7.29825e-15)
(-36.0767 0.800059 7.30466e-15)
(-35.6222 0.74903 7.30801e-15)
(-35.2068 0.690678 7.30842e-15)
(-34.832 0.629308 7.30543e-15)
(-34.497 0.567945 7.2998e-15)
(-34.1998 0.508723 7.29243e-15)
(-33.9372 0.453131 7.28411e-15)
(-33.7058 0.402299 7.2764e-15)
(-33.5016 0.357107 7.27015e-15)
(-33.3202 0.318226 7.26565e-15)
(-33.1569 0.2862 7.26424e-15)
(-33.0068 0.261412 7.26738e-15)
(-32.8647 0.244089 7.27654e-15)
(-32.7253 0.234451 7.29468e-15)
(-32.5828 0.232837 7.32474e-15)
(-32.4318 0.239824 7.36901e-15)
(-32.2661 0.256319 7.43152e-15)
(-32.0797 0.283638 7.51673e-15)
(-31.8658 0.323541 7.62952e-15)
(-31.6172 0.378113 7.77581e-15)
(-31.3256 0.449764 7.9631e-15)
(-30.9809 0.541156 8.1991e-15)
(-30.571 0.654993 8.49216e-15)
(-30.0812 0.793872 8.85062e-15)
(-29.4937 0.95994 9.27979e-15)
(-28.7878 1.15467 9.77881e-15)
(-27.9414 1.37891 1.03366e-14)
(-26.9321 1.63319 1.09297e-14)
(-25.7409 1.91802 1.15193e-14)
(-24.355 2.23346 1.20695e-14)
(-22.7711 2.57701 1.2583e-14)
(-20.9931 2.93898 1.30828e-14)
(-19.0237 3.2975 1.36352e-14)
(-16.8532 3.61975 1.42275e-14)
(-14.4635 3.87617 1.47587e-14)
(-11.8545 4.06162 1.49997e-14)
(-9.08864 4.2024 1.47558e-14)
(-6.32509 4.33118 1.41629e-14)
(-3.80537 4.42019 1.3233e-14)
(-1.75014 4.26063 1.21392e-14)
(1.15337 3.00166 9.59539e-15)
(2.76061 2.48979 8.88141e-15)
(4.25875 2.08619 8.53306e-15)
(5.53695 1.77379 8.35921e-15)