/*--------------------------------*- C++ -*----------------------------------*\
  =========                 |
  \\      /  F ield         | OpenFOAM: The Open Source CFD Toolbox
   \\    /   O peration     | Website:  https://openfoam.org
    \\  /    A nd           | Version:  8
     \\/     M anipulation  |
\*---------------------------------------------------------------------------*/
FoamFile
{
    version     2.0;
    format      ascii;
    class       volScalarField;
    location    "1000";
    object      alphat;
}
// * * * * * * * * * * * * * * * * * * * * * * * * * * * * * * * * * * * * * //

dimensions      [1 -1 -1 0 0 0 0];

internalField   nonuniform List<scalar> 
1200
(
0.200897
0.184965
0.171674
0.160443
0.150844
0.142558
0.135345
0.129021
0.123437
0.11848
0.114055
0.110086
0.10651
0.103275
0.100339
0.097664
0.0952199
0.0929802
0.0909225
0.0890272
0.0872775
0.0856588
0.0841583
0.0827647
0.0814682
0.08026
0.0791323
0.0780783
0.0770917
0.076167
0.0752993
0.0744841
0.0737172
0.0729952
0.0723146
0.0716724
0.071066
0.0704927
0.0699503
0.0694367
0.0689499
0.0684883
0.06805
0.0676338
0.067238
0.0668616
0.0665032
0.0661618
0.0658364
0.0655259
0.0652296
0.0649465
0.064676
0.0644173
0.0641696
0.0639325
0.0637054
0.0634876
0.0632787
0.0630782
0.116417
0.0999852
0.0873785
0.0774623
0.069493
0.0629647
0.0575298
0.0529426
0.0490243
0.0456424
0.0426963
0.0401091
0.0378205
0.0357828
0.0339579
0.032315
0.0308289
0.0294787
0.0282471
0.0271196
0.026084
0.0251298
0.0242482
0.0234315
0.0226731
0.0219672
0.0213089
0.0206938
0.0201179
0.0195779
0.0190707
0.0185937
0.0181444
0.0177207
0.0173206
0.0169424
0.0165844
0.0162454
0.0159238
0.0156187
0.0153287
0.0150531
0.0147908
0.014541
0.014303
0.014076
0.0138595
0.0136528
0.0134553
0.0132666
0.0130861
0.0129135
0.0127482
0.01259
0.0124384
0.012293
0.0121536
0.0120193
0.0118889
0.0117494
0.11639
0.0998142
0.0870858
0.0770516
0.068969
0.0623382
0.056812
0.0521434
0.0481524
0.0447052
0.0417004
0.03906
0.0367228
0.0346406
0.0327747
0.0310936
0.0295718
0.0281879
0.0269245
0.0257666
0.0247018
0.0237196
0.0228107
0.0219675
0.0211831
0.0204516
0.0197681
0.0191279
0.0185272
0.0179624
0.0174304
0.0169286
0.0164545
0.0160057
0.0155805
0.015177
0.0147936
0.0144289
0.0140815
0.0137503
0.0134342
0.0131322
0.0128434
0.012567
0.0123022
0.0120483
0.0118047
0.0115708
0.0113459
0.0111297
0.0109215
0.0107211
0.0105279
0.0103416
0.0101619
0.00998834
0.0098207
0.00965864
0.00950182
0.00934958
0.11639
0.0998532
0.0871498
0.0771324
0.0690585
0.0624304
0.0569032
0.0522313
0.0482357
0.0447832
0.041773
0.0391271
0.0367848
0.0346976
0.0328271
0.0311417
0.0296159
0.0282283
0.0269615
0.0258005
0.0247329
0.023748
0.0228367
0.0219911
0.0212046
0.0204713
0.0197859
0.0191441
0.0185418
0.0179755
0.0174422
0.0169391
0.0164637
0.0160139
0.0155875
0.015183
0.0147986
0.014433
0.0140847
0.0137526
0.0134357
0.0131328
0.0128431
0.0125658
0.0123001
0.0120452
0.0118006
0.0115657
0.0113398
0.0111226
0.0109134
0.0107118
0.0105176
0.0103302
0.0101493
0.0099746
0.00980578
0.00964255
0.00948463
0.00933179
0.11639
0.0998533
0.0871435
0.07712
0.0690411
0.0624097
0.0568808
0.0522083
0.0482131
0.0447616
0.0417526
0.0391082
0.0367673
0.0346816
0.0328125
0.0311285
0.0296039
0.0282175
0.0269517
0.0257917
0.024725
0.0237409
0.0228303
0.0219854
0.0211995
0.0204667
0.0197818
0.0191404
0.0185385
0.0179726
0.0174396
0.0169368
0.0164617
0.0160121
0.015586
0.0151817
0.0147975
0.014432
0.0140839
0.013752
0.0134351
0.0131324
0.0128428
0.0125656
0.0123
0.0120452
0.0118007
0.0115658
0.01134
0.0111228
0.0109136
0.0107122
0.0105179
0.0103306
0.0101497
0.00997505
0.00980625
0.00964304
0.00948514
0.0093323
0.11639
0.0998533
0.0871435
0.07712
0.0690412
0.0624098
0.0568808
0.0522083
0.0482131
0.0447616
0.0417526
0.0391082
0.0367673
0.0346817
0.0328125
0.0311285
0.0296039
0.0282175
0.0269517
0.0257917
0.024725
0.0237409
0.0228303
0.0219854
0.0211995
0.0204667
0.0197818
0.0191404
0.0185385
0.0179726
0.0174396
0.0169368
0.0164617
0.0160121
0.015586
0.0151817
0.0147975
0.014432
0.0140839
0.013752
0.0134351
0.0131324
0.0128428
0.0125656
0.0122999
0.0120452
0.0118007
0.0115658
0.01134
0.0111228
0.0109136
0.0107121
0.0105179
0.0103305
0.0101497
0.00997503
0.00980623
0.00964302
0.00948512
0.00933228
0.11639
0.0998532
0.0871497
0.0771324
0.0690585
0.0624304
0.0569032
0.0522313
0.0482357
0.0447832
0.041773
0.0391271
0.0367848
0.0346976
0.0328271
0.0311417
0.0296159
0.0282283
0.0269615
0.0258005
0.0247329
0.023748
0.0228367
0.0219912
0.0212047
0.0204713
0.0197859
0.0191441
0.0185418
0.0179755
0.0174422
0.0169391
0.0164637
0.0160138
0.0155875
0.015183
0.0147986
0.014433
0.0140847
0.0137526
0.0134356
0.0131328
0.0128431
0.0125658
0.0123
0.0120452
0.0118006
0.0115657
0.0113398
0.0111225
0.0109133
0.0107118
0.0105175
0.0103301
0.0101492
0.00997451
0.00980569
0.00964245
0.00948453
0.00933167
0.11639
0.0998142
0.0870859
0.0770516
0.0689691
0.0623382
0.0568121
0.0521434
0.0481525
0.0447053
0.0417005
0.03906
0.0367229
0.0346407
0.0327747
0.0310936
0.0295718
0.0281879
0.0269245
0.0257666
0.0247019
0.0237196
0.0228107
0.0219675
0.0211831
0.0204516
0.0197681
0.0191279
0.0185272
0.0179624
0.0174304
0.0169286
0.0164544
0.0160057
0.0155805
0.015177
0.0147936
0.0144289
0.0140815
0.0137502
0.0134341
0.013132
0.0128431
0.0125665
0.0123014
0.0120473
0.0118034
0.0115692
0.011344
0.0111275
0.0109191
0.0107183
0.0105249
0.0103383
0.0101582
0.00998441
0.00981646
0.00965409
0.00949694
0.00934446
0.116417
0.0999852
0.0873786
0.0774625
0.0694932
0.0629651
0.0575303
0.0529432
0.0490251
0.0456433
0.0426974
0.0401103
0.0378217
0.0357841
0.0339593
0.0323165
0.0308303
0.0294801
0.0282486
0.0271211
0.0260854
0.0251312
0.0242496
0.0234329
0.0226745
0.0219686
0.0213103
0.0206951
0.0201192
0.0195792
0.019072
0.018595
0.0181457
0.0177219
0.0173217
0.0169434
0.0165854
0.0162462
0.0159246
0.0156194
0.0153294
0.0150537
0.0147914
0.0145417
0.0143038
0.014077
0.0138605
0.0136539
0.0134565
0.0132679
0.0130875
0.012915
0.0127498
0.0125916
0.0124401
0.0122949
0.0121555
0.0120213
0.0118908
0.011751
0.200897
0.184965
0.171674
0.160443
0.150844
0.142558
0.135345
0.12902
0.123437
0.11848
0.114055
0.110085
0.10651
0.103275
0.100339
0.0976637
0.0952196
0.0929799
0.0909222
0.0890269
0.0872772
0.0856585
0.084158
0.0827644
0.0814679
0.0802597
0.0791321
0.078078
0.0770914
0.0761668
0.0752991
0.0744838
0.073717
0.0729949
0.0723143
0.0716722
0.0710657
0.0704924
0.06995
0.0694364
0.0689497
0.068488
0.0680498
0.0676335
0.0672378
0.0668614
0.066503
0.0661616
0.0658361
0.0655257
0.0652293
0.0649462
0.0646757
0.0644169
0.0641693
0.0639322
0.063705
0.0634872
0.0632784
0.0630778
0.200897
0.184965
0.171673
0.160443
0.150843
0.142557
0.135344
0.12902
0.123437
0.118479
0.114054
0.110085
0.106509
0.103275
0.100338
0.0976635
0.0952194
0.0929798
0.0909221
0.0890268
0.0872771
0.0856585
0.084158
0.0827644
0.0814679
0.0802597
0.0791321
0.078078
0.0770914
0.0761668
0.075299
0.0744838
0.0737169
0.0729949
0.0723143
0.0716721
0.0710656
0.0704923
0.0699499
0.0694363
0.0689495
0.0684878
0.0680496
0.0676333
0.0672376
0.0668611
0.0665027
0.0661613
0.0658359
0.0655254
0.065229
0.064946
0.0646754
0.0644167
0.0641691
0.063932
0.0637048
0.063487
0.0632782
0.0630776
0.116417
0.0999853
0.0873787
0.0774624
0.069493
0.0629646
0.0575295
0.0529421
0.0490238
0.0456418
0.0426959
0.0401088
0.0378203
0.0357827
0.033958
0.0323152
0.0308291
0.0294789
0.0282473
0.0271198
0.0260842
0.0251301
0.0242485
0.0234318
0.0226734
0.0219676
0.0213094
0.0206943
0.0201185
0.0195785
0.0190714
0.0185944
0.0181451
0.0177214
0.0173213
0.0169431
0.0165852
0.0162461
0.0159246
0.0156194
0.0153296
0.015054
0.0147918
0.0145421
0.0143041
0.0140773
0.0138608
0.0136542
0.0134568
0.0132681
0.0130878
0.0129152
0.01275
0.0125919
0.0124403
0.0122951
0.0121556
0.0120215
0.0118911
0.0117515
0.11639
0.0998142
0.087086
0.0770518
0.0689691
0.0623382
0.056812
0.0521433
0.0481523
0.0447051
0.0417003
0.0390598
0.0367227
0.0346405
0.0327745
0.0310934
0.0295716
0.0281877
0.0269243
0.0257664
0.0247017
0.0237194
0.0228106
0.0219673
0.0211829
0.0204515
0.0197679
0.0191277
0.018527
0.0179622
0.0174303
0.0169285
0.0164543
0.0160056
0.0155803
0.0151768
0.0147934
0.0144287
0.0140813
0.0137501
0.013434
0.013132
0.0128432
0.0125668
0.012302
0.0120481
0.0118044
0.0115705
0.0113456
0.0111293
0.0109212
0.0107207
0.0105276
0.0103413
0.0101615
0.00998796
0.00982031
0.00965824
0.0095014
0.00934914
0.11639
0.0998532
0.0871498
0.0771323
0.0690584
0.0624304
0.0569031
0.0522312
0.0482356
0.0447831
0.0417729
0.039127
0.0367847
0.0346975
0.032827
0.0311416
0.0296158
0.0282283
0.0269614
0.0258004
0.0247328
0.0237479
0.0228366
0.0219911
0.0212046
0.0204712
0.0197859
0.019144
0.0185417
0.0179755
0.0174421
0.016939
0.0164637
0.0160138
0.0155875
0.015183
0.0147986
0.0144329
0.0140846
0.0137526
0.0134356
0.0131327
0.012843
0.0125657
0.0123
0.0120451
0.0118006
0.0115656
0.0113397
0.0111224
0.0109133
0.0107117
0.0105175
0.01033
0.0101492
0.00997446
0.00980564
0.0096424
0.00948448
0.00933162
0.11639
0.0998533
0.0871436
0.07712
0.0690412
0.0624097
0.0568807
0.0522083
0.048213
0.0447615
0.0417525
0.0391081
0.0367672
0.0346815
0.0328124
0.0311284
0.0296038
0.0282174
0.0269516
0.0257916
0.0247249
0.0237408
0.0228302
0.0219853
0.0211994
0.0204666
0.0197817
0.0191403
0.0185384
0.0179725
0.0174396
0.0169367
0.0164616
0.016012
0.0155859
0.0151816
0.0147974
0.0144319
0.0140838
0.0137519
0.013435
0.0131323
0.0128427
0.0125655
0.0122998
0.0120451
0.0118006
0.0115657
0.0113399
0.0111226
0.0109135
0.010712
0.0105178
0.0103304
0.0101496
0.00997488
0.00980608
0.00964286
0.00948496
0.00933212
0.11639
0.0998533
0.0871436
0.07712
0.0690412
0.0624098
0.0568808
0.0522083
0.048213
0.0447615
0.0417525
0.0391081
0.0367672
0.0346816
0.0328124
0.0311284
0.0296038
0.0282174
0.0269517
0.0257917
0.0247249
0.0237408
0.0228302
0.0219854
0.0211994
0.0204666
0.0197818
0.0191403
0.0185384
0.0179725
0.0174396
0.0169367
0.0164616
0.016012
0.0155859
0.0151816
0.0147974
0.0144319
0.0140838
0.0137519
0.013435
0.0131323
0.0128427
0.0125655
0.0122998
0.0120451
0.0118006
0.0115657
0.0113399
0.0111226
0.0109135
0.010712
0.0105178
0.0103304
0.0101495
0.00997487
0.00980607
0.00964285
0.00948495
0.00933211
0.11639
0.0998532
0.0871498
0.0771323
0.0690584
0.0624304
0.0569031
0.0522312
0.0482356
0.0447831
0.0417729
0.0391271
0.0367847
0.0346976
0.032827
0.0311416
0.0296158
0.0282283
0.0269614
0.0258005
0.0247328
0.0237479
0.0228366
0.0219911
0.0212046
0.0204712
0.0197859
0.019144
0.0185417
0.0179755
0.0174422
0.016939
0.0164637
0.0160138
0.0155875
0.015183
0.0147986
0.0144329
0.0140846
0.0137526
0.0134356
0.0131327
0.012843
0.0125657
0.0123
0.0120451
0.0118005
0.0115656
0.0113397
0.0111224
0.0109132
0.0107117
0.0105174
0.01033
0.0101491
0.00997442
0.00980559
0.00964235
0.00948442
0.00933156
0.11639
0.0998143
0.087086
0.0770518
0.0689692
0.0623383
0.0568121
0.0521434
0.0481524
0.0447052
0.0417004
0.0390599
0.0367227
0.0346405
0.0327746
0.0310935
0.0295716
0.0281878
0.0269243
0.0257665
0.0247017
0.0237195
0.0228106
0.0219673
0.0211829
0.0204515
0.0197679
0.0191278
0.018527
0.0179622
0.0174303
0.0169285
0.0164543
0.0160056
0.0155804
0.0151768
0.0147934
0.0144287
0.0140813
0.0137501
0.0134339
0.0131318
0.0128429
0.0125663
0.0123013
0.0120471
0.0118032
0.011569
0.0113438
0.0111273
0.0109189
0.0107182
0.0105247
0.0103381
0.0101581
0.00998423
0.00981628
0.0096539
0.00949675
0.00934428
0.116417
0.0999854
0.0873788
0.0774627
0.0694934
0.0629652
0.0575304
0.0529432
0.049025
0.0456431
0.0426972
0.0401101
0.0378216
0.035784
0.0339592
0.0323163
0.0308301
0.0294799
0.0282482
0.0271207
0.026085
0.0251309
0.0242492
0.0234325
0.0226741
0.0219683
0.02131
0.0206949
0.020119
0.019579
0.0190718
0.0185948
0.0181454
0.0177217
0.0173215
0.0169432
0.0165852
0.016246
0.0159244
0.0156192
0.0153293
0.0150537
0.0147914
0.0145417
0.0143038
0.014077
0.0138606
0.013654
0.0134567
0.013268
0.0130877
0.0129151
0.0127499
0.0125917
0.0124402
0.0122949
0.0121554
0.0120212
0.0118907
0.0117508
0.200897
0.184965
0.171673
0.160443
0.150843
0.142557
0.135344
0.12902
0.123437
0.118479
0.114054
0.110085
0.106509
0.103275
0.100338
0.0976633
0.0952192
0.0929796
0.0909219
0.0890266
0.0872769
0.0856582
0.0841577
0.0827642
0.0814677
0.0802595
0.0791318
0.0780778
0.0770912
0.0761665
0.0752988
0.0744835
0.0737167
0.0729946
0.072314
0.0716718
0.0710653
0.070492
0.0699496
0.069436
0.0689492
0.0684875
0.0680493
0.067633
0.0672373
0.0668608
0.0665024
0.066161
0.0658355
0.065525
0.0652286
0.0649456
0.064675
0.0644162
0.0641686
0.0639314
0.0637042
0.0634864
0.0632775
0.0630769
)
;

boundaryField
{
    wall
    {
        type            compressible::alphatJayatillekeWallFunction;
        Prt             0.85;
        value           uniform 0;
    }
    inlet
    {
        type            calculated;
        value           uniform 9.47574;
    }
    outlet
    {
        type            calculated;
        value           nonuniform List<scalar> 
20
(
0.0630782
0.0117494
0.00934958
0.00933179
0.0093323
0.00933228
0.00933167
0.00934446
0.011751
0.0630778
0.0630776
0.0117515
0.00934914
0.00933162
0.00933212
0.00933211
0.00933156
0.00934428
0.0117508
0.0630769
)
;
    }
    heatWall
    {
        type            compressible::alphatJayatillekeWallFunction;
        Prt             0.85;
        value           nonuniform List<scalar> 
240
(
0.0209458
0.0209458
0.0193322
0.0193322
0.0179825
0.0179824
0.0168393
0.0168392
0.01586
0.0158599
0.015013
0.015013
0.0142744
0.0142743
0.0136256
0.0136255
0.013052
0.0130519
0.0125419
0.0125418
0.0120859
0.0120859
0.0116765
0.0116764
0.0113071
0.0113071
0.0109726
0.0109726
0.0106687
0.0106687
0.0103916
0.0103915
0.0101381
0.0101381
0.00990565
0.00990561
0.0096919
0.00969187
0.00949487
0.00949484
0.00931285
0.00931282
0.00914435
0.00914432
0.00898804
0.00898802
0.00884279
0.00884277
0.00870758
0.00870756
0.00858152
0.00858149
0.00846379
0.00846376
0.0083537
0.00835367
0.0082506
0.00825057
0.00815393
0.0081539
0.00806318
0.00806315
0.00797788
0.00797785
0.00789762
0.00789759
0.00782202
0.00782198
0.00775073
0.0077507
0.00768345
0.00768341
0.00761989
0.00761985
0.00755979
0.00755975
0.00750291
0.00750286
0.00744903
0.00744899
0.00739796
0.00739791
0.00734951
0.00734946
0.00730351
0.00730346
0.0072598
0.00725975
0.00721824
0.00721818
0.0071787
0.00717864
0.00714105
0.00714098
0.00710517
0.00710511
0.00707096
0.0070709
0.00703833
0.00703826
0.00700717
0.0070071
0.0069774
0.00697733
0.00694895
0.00694888
0.00692173
0.00692166
0.00689568
0.00689561
0.00687073
0.00687065
0.00684683
0.00684675
0.0068239
0.00682382
0.00680192
0.00680183
0.0067808
0.00678072
0.0209458
0.0209458
0.0193322
0.0193322
0.0179825
0.0179824
0.0168393
0.0168392
0.01586
0.0158599
0.0150131
0.015013
0.0142744
0.0142743
0.0136256
0.0136255
0.013052
0.0130519
0.0125419
0.0125418
0.012086
0.0120859
0.0116765
0.0116764
0.0113071
0.0113071
0.0109727
0.0109726
0.0106687
0.0106687
0.0103916
0.0103915
0.0101381
0.0101381
0.00990568
0.00990564
0.00969193
0.00969189
0.0094949
0.00949486
0.00931288
0.00931285
0.00914438
0.00914434
0.00898807
0.00898804
0.00884283
0.00884279
0.00870761
0.00870758
0.00858155
0.00858152
0.00846382
0.00846379
0.00835373
0.0083537
0.00825063
0.0082506
0.00815396
0.00815393
0.00806321
0.00806318
0.00797791
0.00797788
0.00789765
0.00789761
0.00782204
0.00782201
0.00775076
0.00775072
0.00768348
0.00768344
0.00761991
0.00761988
0.00755981
0.00755977
0.00750293
0.00750289
0.00744906
0.00744902
0.00739799
0.00739794
0.00734953
0.00734949
0.00730353
0.00730349
0.00725982
0.00725978
0.00721827
0.00721822
0.00717872
0.00717867
0.00714107
0.00714102
0.0071052
0.00710514
0.00707099
0.00707094
0.00703836
0.0070383
0.0070072
0.00700714
0.00697743
0.00697738
0.00694898
0.00694892
0.00692177
0.00692171
0.00689572
0.00689566
0.00687077
0.00687071
0.00684686
0.0068468
0.00682394
0.00682388
0.00680196
0.0068019
0.00678085
0.00678078
)
;
    }
}


// ************************************************************************* //
