/*--------------------------------*- C++ -*----------------------------------*\
  =========                 |
  \\      /  F ield         | OpenFOAM: The Open Source CFD Toolbox
   \\    /   O peration     | Website:  https://openfoam.org
    \\  /    A nd           | Version:  8
     \\/     M anipulation  |
\*---------------------------------------------------------------------------*/
FoamFile
{
    version     2.0;
    format      ascii;
    class       volScalarField;
    location    "1000";
    object      k;
}
// * * * * * * * * * * * * * * * * * * * * * * * * * * * * * * * * * * * * * //

dimensions      [0 2 -2 0 0 0 0];

internalField   nonuniform List<scalar> 
1200
(
0.0505472
0.0428478
0.0369112
0.0322398
0.0284973
0.0254524
0.022942
0.0208478
0.0190825
0.0175806
0.0162918
0.0151775
0.0142075
0.0133576
0.0126088
0.0119455
0.0113551
0.0108272
0.0103532
0.00992607
0.00953973
0.00918914
0.00887
0.00857867
0.00831199
0.00806727
0.00784216
0.00763462
0.00744289
0.0072654
0.00710079
0.00694785
0.00680552
0.00667285
0.00654898
0.00643318
0.00632476
0.00622312
0.00612772
0.00603805
0.00595369
0.00587422
0.00579928
0.00572854
0.00566169
0.00559846
0.0055386
0.00548188
0.00542807
0.00537699
0.00532846
0.00528231
0.00523839
0.00519655
0.00515667
0.00511863
0.00508231
0.00504762
0.00501446
0.00498271
0.0434539
0.0320527
0.0244795
0.0192387
0.0154837
0.0127112
0.0106116
0.00898676
0.00770577
0.00667928
0.00584487
0.00515797
0.00458613
0.00410526
0.00369722
0.00334812
0.00304725
0.00278617
0.00255823
0.00235808
0.00218142
0.00202475
0.00188517
0.00176032
0.00164821
0.00154718
0.00145584
0.001373
0.00129765
0.00122892
0.00116608
0.00110847
0.00105555
0.00100682
0.000961873
0.000920323
0.000881846
0.000846154
0.000812991
0.000782129
0.000753362
0.000726509
0.00070141
0.000677919
0.000655907
0.000635257
0.000615863
0.000597628
0.000580466
0.000564296
0.000549049
0.000534657
0.000521061
0.000508205
0.000496039
0.000484515
0.000473584
0.00046318
0.000453181
0.000442611
0.0434334
0.0319432
0.0243158
0.0190352
0.0152511
0.0124595
0.0103484
0.00871751
0.00743412
0.00640782
0.00557539
0.00489168
0.0043238
0.00384738
0.00344406
0.00309982
0.00280381
0.00254753
0.00232428
0.00212867
0.00195638
0.00180388
0.00166829
0.00154723
0.0014387
0.00134106
0.00125292
0.00117308
0.00110055
0.00103448
0.000974115
0.000918833
0.000868081
0.000821382
0.000778319
0.000738527
0.000701685
0.000667512
0.000635758
0.000606202
0.000578649
0.000552927
0.000528877
0.000506358
0.000485245
0.000465424
0.000446792
0.000429257
0.000412736
0.000397152
0.000382437
0.000368528
0.000355367
0.000342902
0.000331086
0.000319875
0.000309228
0.000299107
0.000289473
0.000280271
0.0434334
0.0319682
0.0243515
0.0190751
0.0152907
0.0124964
0.0103817
0.00874692
0.00745985
0.0064302
0.00559481
0.00490851
0.0043384
0.00386005
0.00345508
0.00310941
0.00281217
0.00255484
0.00233067
0.00213428
0.0019613
0.0018082
0.00167209
0.00155056
0.00144164
0.00134364
0.00125518
0.00117507
0.00110229
0.00103599
0.000975431
0.000919971
0.000869059
0.000822215
0.000779021
0.000739111
0.000702162
0.000667891
0.000636047
0.000606408
0.000578777
0.000552977
0.000528852
0.00050626
0.000485075
0.000465184
0.000446483
0.000428882
0.000412294
0.000396646
0.000381866
0.000367894
0.000354671
0.000342144
0.000330267
0.000318996
0.000308289
0.000298111
0.000288426
0.000279205
0.0434334
0.0319682
0.024348
0.019069
0.015283
0.0124882
0.0103735
0.00873923
0.00745287
0.00642399
0.00558934
0.00490375
0.00433428
0.0038565
0.00345201
0.00310677
0.0028099
0.00255288
0.00232899
0.00213282
0.00196004
0.00180712
0.00167115
0.00154976
0.00144094
0.00134304
0.00125466
0.00117462
0.0011019
0.00103566
0.000975144
0.000919725
0.000868849
0.000822036
0.00077887
0.000738983
0.000702055
0.000667803
0.000635975
0.00060635
0.000578731
0.000552942
0.000528827
0.000506243
0.000485066
0.000465181
0.000446486
0.000428889
0.000412306
0.000396661
0.000381885
0.000367915
0.000354694
0.00034217
0.000330295
0.000319024
0.000308319
0.000298141
0.000288457
0.000279236
0.0434334
0.0319682
0.024348
0.019069
0.015283
0.0124882
0.0103735
0.00873924
0.00745287
0.00642399
0.00558935
0.00490376
0.00433428
0.0038565
0.00345201
0.00310677
0.0028099
0.00255289
0.00232899
0.00213282
0.00196004
0.00180712
0.00167116
0.00154976
0.00144094
0.00134304
0.00125466
0.00117462
0.0011019
0.00103566
0.000975144
0.000919725
0.000868848
0.000822036
0.000778869
0.000738983
0.000702055
0.000667802
0.000635974
0.000606349
0.00057873
0.000552941
0.000528825
0.000506242
0.000485065
0.00046518
0.000446485
0.000428888
0.000412305
0.00039666
0.000381884
0.000367914
0.000354693
0.000342169
0.000330293
0.000319023
0.000308317
0.00029814
0.000288456
0.000279235
0.0434334
0.0319682
0.0243515
0.0190751
0.0152907
0.0124964
0.0103817
0.00874691
0.00745985
0.0064302
0.00559481
0.00490851
0.0043384
0.00386006
0.00345508
0.00310941
0.00281218
0.00255484
0.00233068
0.00213428
0.0019613
0.0018082
0.00167209
0.00155056
0.00144164
0.00134364
0.00125518
0.00117507
0.00110229
0.00103599
0.00097543
0.00091997
0.000869058
0.000822214
0.00077902
0.00073911
0.000702161
0.000667889
0.000636045
0.000606406
0.000578775
0.000552975
0.000528849
0.000506257
0.000485072
0.000465181
0.00044648
0.000428878
0.000412291
0.000396642
0.000381862
0.000367889
0.000354666
0.000342139
0.000330262
0.00031899
0.000308283
0.000298104
0.00028842
0.000279198
0.0434334
0.0319432
0.0243158
0.0190352
0.0152511
0.0124596
0.0103484
0.00871752
0.00743414
0.00640783
0.0055754
0.00489169
0.00432381
0.00384739
0.00344407
0.00309982
0.00280381
0.00254754
0.00232428
0.00212867
0.00195638
0.00180388
0.00166829
0.00154723
0.0014387
0.00134107
0.00125292
0.00117308
0.00110055
0.00103448
0.000974115
0.000918833
0.00086808
0.000821381
0.000778317
0.000738525
0.000701683
0.00066751
0.000635755
0.000606197
0.000578641
0.000552909
0.000528847
0.000506313
0.000485182
0.000465342
0.000446691
0.000429138
0.000412599
0.000396998
0.000382265
0.000368339
0.000355162
0.000342681
0.00033085
0.000319623
0.000308961
0.000298824
0.000289175
0.000279964
0.0434539
0.0320528
0.0244796
0.0192387
0.0154838
0.0127114
0.0106117
0.00898698
0.00770602
0.00667955
0.00584516
0.00515828
0.00458644
0.00410557
0.00369752
0.00334842
0.00304754
0.00278645
0.0025585
0.00235834
0.00218167
0.00202498
0.00188539
0.00176053
0.00164842
0.00154738
0.00145603
0.00137318
0.00129782
0.00122909
0.00116624
0.00110862
0.00105569
0.00100696
0.000961996
0.000920436
0.00088195
0.000846247
0.000813074
0.000782201
0.000753428
0.000726573
0.000701475
0.000677989
0.000655984
0.000635343
0.000615956
0.000597728
0.000580573
0.00056441
0.000549169
0.000534782
0.000521191
0.000508341
0.00049618
0.00048466
0.000473732
0.000463329
0.000453327
0.000442729
0.0505472
0.0428478
0.0369111
0.0322397
0.0284972
0.0254523
0.0229419
0.0208477
0.0190825
0.0175805
0.0162917
0.0151775
0.0142074
0.0133576
0.0126087
0.0119454
0.011355
0.0108271
0.0103532
0.009926
0.00953966
0.00918907
0.00886994
0.00857861
0.00831193
0.00806721
0.0078421
0.00763457
0.00744283
0.00726535
0.00710074
0.0069478
0.00680547
0.0066728
0.00654894
0.00643314
0.00632472
0.00622308
0.00612767
0.00603801
0.00595365
0.00587418
0.00579924
0.0057285
0.00566165
0.00559842
0.00553856
0.00548184
0.00542803
0.00537695
0.00532842
0.00528226
0.00523834
0.0051965
0.00515662
0.00511858
0.00508226
0.00504756
0.00501439
0.00498265
0.0505472
0.0428477
0.0369109
0.0322394
0.0284969
0.0254521
0.0229417
0.0208475
0.0190823
0.0175803
0.0162916
0.0151773
0.0142073
0.0133575
0.0126087
0.0119454
0.011355
0.0108271
0.0103531
0.00992599
0.00953966
0.00918907
0.00886994
0.00857861
0.00831193
0.00806721
0.0078421
0.00763457
0.00744283
0.00726534
0.00710074
0.0069478
0.00680547
0.00667279
0.00654892
0.00643312
0.0063247
0.00622306
0.00612765
0.00603798
0.00595362
0.00587414
0.0057992
0.00572846
0.00566161
0.00559838
0.00553852
0.00548179
0.00542799
0.00537691
0.00532837
0.00528222
0.0052383
0.00519646
0.00515658
0.00511854
0.00508222
0.00504752
0.00501436
0.00498262
0.0434539
0.0320528
0.0244796
0.0192387
0.0154837
0.0127112
0.0106114
0.00898661
0.00770561
0.00667912
0.00584474
0.00515788
0.00458608
0.00410525
0.00369723
0.00334816
0.00304729
0.00278622
0.00255827
0.00235812
0.00218146
0.00202479
0.00188521
0.00176037
0.00164826
0.00154724
0.00145591
0.00137307
0.00129772
0.001229
0.00116616
0.00110855
0.00105563
0.0010069
0.000961951
0.0009204
0.000881923
0.000846231
0.000813068
0.000782208
0.000753445
0.000726598
0.000701504
0.00067802
0.000656015
0.00063537
0.000615981
0.000597752
0.000580595
0.000564431
0.000549188
0.000534801
0.000521209
0.000508358
0.000496196
0.000484675
0.000473746
0.000463344
0.000453346
0.000442767
0.0434334
0.0319432
0.0243159
0.0190353
0.0152512
0.0124596
0.0103484
0.00871749
0.00743409
0.00640778
0.00557535
0.00489164
0.00432376
0.00384734
0.00344402
0.00309978
0.00280377
0.0025475
0.00232425
0.00212864
0.00195635
0.00180385
0.00166827
0.0015472
0.00143868
0.00134104
0.0012529
0.00117306
0.00110053
0.00103446
0.000974097
0.000918815
0.000868064
0.000821365
0.000778302
0.00073851
0.000701668
0.000667495
0.000635741
0.000606184
0.000578631
0.000552908
0.000528857
0.000506338
0.000485224
0.000465403
0.000446771
0.000429236
0.000412714
0.00039713
0.000382415
0.000368505
0.000355344
0.000342879
0.000331063
0.000319851
0.000309203
0.000299082
0.000289447
0.000280244
0.0434334
0.0319682
0.0243515
0.0190751
0.0152907
0.0124964
0.0103816
0.00874688
0.00745982
0.00643017
0.00559478
0.00490848
0.00433837
0.00386003
0.00345506
0.00310939
0.00281216
0.00255483
0.00233066
0.00213426
0.00196129
0.00180819
0.00167208
0.00155056
0.00144163
0.00134364
0.00125517
0.00117506
0.00110228
0.00103599
0.000975425
0.000919964
0.000869052
0.000822209
0.000779015
0.000739105
0.000702156
0.000667885
0.000636041
0.000606402
0.00057877
0.00055297
0.000528845
0.000506253
0.000485068
0.000465177
0.000446476
0.000428874
0.000412287
0.000396638
0.000381858
0.000367886
0.000354662
0.000342136
0.000330259
0.000318987
0.00030828
0.000298101
0.000288417
0.000279195
0.0434334
0.0319683
0.0243481
0.019069
0.015283
0.0124882
0.0103735
0.00873921
0.00745285
0.00642396
0.00558932
0.00490373
0.00433425
0.00385647
0.00345199
0.00310675
0.00280988
0.00255287
0.00232897
0.00213281
0.00196003
0.00180711
0.00167114
0.00154974
0.00144093
0.00134303
0.00125465
0.00117461
0.00110189
0.00103565
0.000975134
0.000919715
0.000868839
0.000822027
0.00077886
0.000738974
0.000702046
0.000667793
0.000635965
0.000606341
0.000578722
0.000552933
0.000528817
0.000506234
0.000485056
0.000465171
0.000446477
0.000428879
0.000412296
0.000396651
0.000381875
0.000367905
0.000354684
0.00034216
0.000330284
0.000319014
0.000308308
0.00029813
0.000288446
0.000279225
0.0434334
0.0319683
0.0243481
0.019069
0.0152831
0.0124882
0.0103735
0.00873922
0.00745285
0.00642397
0.00558933
0.00490374
0.00433426
0.00385648
0.00345199
0.00310675
0.00280989
0.00255287
0.00232897
0.00213281
0.00196003
0.00180711
0.00167114
0.00154975
0.00144093
0.00134303
0.00125465
0.00117461
0.00110189
0.00103565
0.000975135
0.000919716
0.00086884
0.000822027
0.000778861
0.000738974
0.000702046
0.000667793
0.000635965
0.000606341
0.000578722
0.000552933
0.000528817
0.000506233
0.000485056
0.000465171
0.000446476
0.000428879
0.000412296
0.000396651
0.000381874
0.000367904
0.000354683
0.000342159
0.000330283
0.000319013
0.000308307
0.000298129
0.000288446
0.000279225
0.0434334
0.0319682
0.0243515
0.0190751
0.0152907
0.0124964
0.0103816
0.00874688
0.00745982
0.00643017
0.00559478
0.00490849
0.00433838
0.00386004
0.00345506
0.0031094
0.00281216
0.00255483
0.00233067
0.00213427
0.00196129
0.00180819
0.00167208
0.00155056
0.00144163
0.00134364
0.00125518
0.00117506
0.00110228
0.00103599
0.000975426
0.000919965
0.000869053
0.000822209
0.000779016
0.000739105
0.000702156
0.000667885
0.000636041
0.000606402
0.00057877
0.00055297
0.000528844
0.000506252
0.000485067
0.000465176
0.000446475
0.000428873
0.000412285
0.000396636
0.000381856
0.000367884
0.00035466
0.000342133
0.000330256
0.000318984
0.000308277
0.000298098
0.000288413
0.000279192
0.0434334
0.0319432
0.0243159
0.0190353
0.0152512
0.0124596
0.0103484
0.00871751
0.00743412
0.00640781
0.00557537
0.00489166
0.00432378
0.00384736
0.00344404
0.0030998
0.00280378
0.00254751
0.00232426
0.00212865
0.00195636
0.00180386
0.00166827
0.00154721
0.00143869
0.00134105
0.0012529
0.00117307
0.00110054
0.00103446
0.0009741
0.000918818
0.000868066
0.000821366
0.000778303
0.000738511
0.000701669
0.000667496
0.000635741
0.000606184
0.000578627
0.000552896
0.000528833
0.000506299
0.000485168
0.000465328
0.000446678
0.000429125
0.000412586
0.000396985
0.000382253
0.000368327
0.00035515
0.00034267
0.000330838
0.000319612
0.000308949
0.000298813
0.000289164
0.000279953
0.0434539
0.0320529
0.0244797
0.0192388
0.0154839
0.0127114
0.0106118
0.00898696
0.00770598
0.0066795
0.00584511
0.00515824
0.00458641
0.00410554
0.00369749
0.00334839
0.0030475
0.0027864
0.00255844
0.00235827
0.0021816
0.00202491
0.00188533
0.00176048
0.00164837
0.00154734
0.00145599
0.00137315
0.00129779
0.00122906
0.00116621
0.0011086
0.00105567
0.00100693
0.000961971
0.000920411
0.000881926
0.000846225
0.000813054
0.000782185
0.000753416
0.000726566
0.000701472
0.00067799
0.000655988
0.000635349
0.000615965
0.000597739
0.000580584
0.000564422
0.00054918
0.000534792
0.0005212
0.000508347
0.000496183
0.00048466
0.00047373
0.000463324
0.000453319
0.000442711
0.0505473
0.0428477
0.0369109
0.0322394
0.0284969
0.0254521
0.0229417
0.0208475
0.0190822
0.0175803
0.0162915
0.0151773
0.0142073
0.0133575
0.0126086
0.0119453
0.0113549
0.010827
0.0103531
0.00992594
0.0095396
0.00918902
0.00886989
0.00857855
0.00831188
0.00806716
0.00784205
0.00763451
0.00744278
0.00726529
0.00710068
0.00694775
0.00680541
0.00667274
0.00654887
0.00643307
0.00632465
0.00622301
0.0061276
0.00603793
0.00595357
0.0058741
0.00579915
0.00572841
0.00566156
0.00559833
0.00553847
0.00548174
0.00542793
0.00537684
0.00532831
0.00528215
0.00523823
0.00519639
0.0051565
0.00511845
0.00508213
0.00504743
0.00501426
0.00498252
)
;

boundaryField
{
    wall
    {
        type            kqRWallFunction;
        value           nonuniform List<scalar> 
1200
(
0.0505472
0.0434539
0.0434334
0.0434334
0.0434334
0.0434334
0.0434334
0.0434334
0.0434539
0.0505472
0.0428478
0.0320527
0.0319432
0.0319682
0.0319682
0.0319682
0.0319682
0.0319432
0.0320528
0.0428478
0.0369112
0.0244795
0.0243158
0.0243515
0.024348
0.024348
0.0243515
0.0243158
0.0244796
0.0369111
0.0322398
0.0192387
0.0190352
0.0190751
0.019069
0.019069
0.0190751
0.0190352
0.0192387
0.0322397
0.0284973
0.0154837
0.0152511
0.0152907
0.015283
0.015283
0.0152907
0.0152511
0.0154838
0.0284972
0.0254524
0.0127112
0.0124595
0.0124964
0.0124882
0.0124882
0.0124964
0.0124596
0.0127114
0.0254523
0.022942
0.0106116
0.0103484
0.0103817
0.0103735
0.0103735
0.0103817
0.0103484
0.0106117
0.0229419
0.0208478
0.00898676
0.00871751
0.00874692
0.00873923
0.00873924
0.00874691
0.00871752
0.00898698
0.0208477
0.0190825
0.00770577
0.00743412
0.00745985
0.00745287
0.00745287
0.00745985
0.00743414
0.00770602
0.0190825
0.0175806
0.00667928
0.00640782
0.0064302
0.00642399
0.00642399
0.0064302
0.00640783
0.00667955
0.0175805
0.0162918
0.00584487
0.00557539
0.00559481
0.00558934
0.00558935
0.00559481
0.0055754
0.00584516
0.0162917
0.0151775
0.00515797
0.00489168
0.00490851
0.00490375
0.00490376
0.00490851
0.00489169
0.00515828
0.0151775
0.0142075
0.00458613
0.0043238
0.0043384
0.00433428
0.00433428
0.0043384
0.00432381
0.00458644
0.0142074
0.0133576
0.00410526
0.00384738
0.00386005
0.0038565
0.0038565
0.00386006
0.00384739
0.00410557
0.0133576
0.0126088
0.00369722
0.00344406
0.00345508
0.00345201
0.00345201
0.00345508
0.00344407
0.00369752
0.0126087
0.0119455
0.00334812
0.00309982
0.00310941
0.00310677
0.00310677
0.00310941
0.00309982
0.00334842
0.0119454
0.0113551
0.00304725
0.00280381
0.00281217
0.0028099
0.0028099
0.00281218
0.00280381
0.00304754
0.011355
0.0108272
0.00278617
0.00254753
0.00255484
0.00255288
0.00255289
0.00255484
0.00254754
0.00278645
0.0108271
0.0103532
0.00255823
0.00232428
0.00233067
0.00232899
0.00232899
0.00233068
0.00232428
0.0025585
0.0103532
0.00992607
0.00235808
0.00212867
0.00213428
0.00213282
0.00213282
0.00213428
0.00212867
0.00235834
0.009926
0.00953973
0.00218142
0.00195638
0.0019613
0.00196004
0.00196004
0.0019613
0.00195638
0.00218167
0.00953966
0.00918914
0.00202475
0.00180388
0.0018082
0.00180712
0.00180712
0.0018082
0.00180388
0.00202498
0.00918907
0.00887
0.00188517
0.00166829
0.00167209
0.00167115
0.00167116
0.00167209
0.00166829
0.00188539
0.00886994
0.00857867
0.00176032
0.00154723
0.00155056
0.00154976
0.00154976
0.00155056
0.00154723
0.00176053
0.00857861
0.00831199
0.00164821
0.0014387
0.00144164
0.00144094
0.00144094
0.00144164
0.0014387
0.00164842
0.00831193
0.00806727
0.00154718
0.00134106
0.00134364
0.00134304
0.00134304
0.00134364
0.00134107
0.00154738
0.00806721
0.00784216
0.00145584
0.00125292
0.00125518
0.00125466
0.00125466
0.00125518
0.00125292
0.00145603
0.0078421
0.00763462
0.001373
0.00117308
0.00117507
0.00117462
0.00117462
0.00117507
0.00117308
0.00137318
0.00763457
0.00744289
0.00129765
0.00110055
0.00110229
0.0011019
0.0011019
0.00110229
0.00110055
0.00129782
0.00744283
0.0072654
0.00122892
0.00103448
0.00103599
0.00103566
0.00103566
0.00103599
0.00103448
0.00122909
0.00726535
0.00710079
0.00116608
0.000974115
0.000975431
0.000975144
0.000975144
0.00097543
0.000974115
0.00116624
0.00710074
0.00694785
0.00110847
0.000918833
0.000919971
0.000919725
0.000919725
0.00091997
0.000918833
0.00110862
0.0069478
0.00680552
0.00105555
0.000868081
0.000869059
0.000868849
0.000868848
0.000869058
0.00086808
0.00105569
0.00680547
0.00667285
0.00100682
0.000821382
0.000822215
0.000822036
0.000822036
0.000822214
0.000821381
0.00100696
0.0066728
0.00654898
0.000961873
0.000778319
0.000779021
0.00077887
0.000778869
0.00077902
0.000778317
0.000961996
0.00654894
0.00643318
0.000920323
0.000738527
0.000739111
0.000738983
0.000738983
0.00073911
0.000738525
0.000920436
0.00643314
0.00632476
0.000881846
0.000701685
0.000702162
0.000702055
0.000702055
0.000702161
0.000701683
0.00088195
0.00632472
0.00622312
0.000846154
0.000667512
0.000667891
0.000667803
0.000667802
0.000667889
0.00066751
0.000846247
0.00622308
0.00612772
0.000812991
0.000635758
0.000636047
0.000635975
0.000635974
0.000636045
0.000635755
0.000813074
0.00612767
0.00603805
0.000782129
0.000606202
0.000606408
0.00060635
0.000606349
0.000606406
0.000606197
0.000782201
0.00603801
0.00595369
0.000753362
0.000578649
0.000578777
0.000578731
0.00057873
0.000578775
0.000578641
0.000753428
0.00595365
0.00587422
0.000726509
0.000552927
0.000552977
0.000552942
0.000552941
0.000552975
0.000552909
0.000726573
0.00587418
0.00579928
0.00070141
0.000528877
0.000528852
0.000528827
0.000528825
0.000528849
0.000528847
0.000701475
0.00579924
0.00572854
0.000677919
0.000506358
0.00050626
0.000506243
0.000506242
0.000506257
0.000506313
0.000677989
0.0057285
0.00566169
0.000655907
0.000485245
0.000485075
0.000485066
0.000485065
0.000485072
0.000485182
0.000655984
0.00566165
0.00559846
0.000635257
0.000465424
0.000465184
0.000465181
0.00046518
0.000465181
0.000465342
0.000635343
0.00559842
0.0055386
0.000615863
0.000446792
0.000446483
0.000446486
0.000446485
0.00044648
0.000446691
0.000615956
0.00553856
0.00548188
0.000597628
0.000429257
0.000428882
0.000428889
0.000428888
0.000428878
0.000429138
0.000597728
0.00548184
0.00542807
0.000580466
0.000412736
0.000412294
0.000412306
0.000412305
0.000412291
0.000412599
0.000580573
0.00542803
0.00537699
0.000564296
0.000397152
0.000396646
0.000396661
0.00039666
0.000396642
0.000396998
0.00056441
0.00537695
0.00532846
0.000549049
0.000382437
0.000381866
0.000381885
0.000381884
0.000381862
0.000382265
0.000549169
0.00532842
0.00528231
0.000534657
0.000368528
0.000367894
0.000367915
0.000367914
0.000367889
0.000368339
0.000534782
0.00528226
0.00523839
0.000521061
0.000355367
0.000354671
0.000354694
0.000354693
0.000354666
0.000355162
0.000521191
0.00523834
0.00519655
0.000508205
0.000342902
0.000342144
0.00034217
0.000342169
0.000342139
0.000342681
0.000508341
0.0051965
0.00515667
0.000496039
0.000331086
0.000330267
0.000330295
0.000330293
0.000330262
0.00033085
0.00049618
0.00515662
0.00511863
0.000484515
0.000319875
0.000318996
0.000319024
0.000319023
0.00031899
0.000319623
0.00048466
0.00511858
0.00508231
0.000473584
0.000309228
0.000308289
0.000308319
0.000308317
0.000308283
0.000308961
0.000473732
0.00508226
0.00504762
0.00046318
0.000299107
0.000298111
0.000298141
0.00029814
0.000298104
0.000298824
0.000463329
0.00504756
0.00501446
0.000453181
0.000289473
0.000288426
0.000288457
0.000288456
0.00028842
0.000289175
0.000453327
0.00501439
0.00498271
0.000442611
0.000280271
0.000279205
0.000279236
0.000279235
0.000279198
0.000279964
0.000442729
0.00498265
0.0505472
0.0434539
0.0434334
0.0434334
0.0434334
0.0434334
0.0434334
0.0434334
0.0434539
0.0505473
0.0428477
0.0320528
0.0319432
0.0319682
0.0319683
0.0319683
0.0319682
0.0319432
0.0320529
0.0428477
0.0369109
0.0244796
0.0243159
0.0243515
0.0243481
0.0243481
0.0243515
0.0243159
0.0244797
0.0369109
0.0322394
0.0192387
0.0190353
0.0190751
0.019069
0.019069
0.0190751
0.0190353
0.0192388
0.0322394
0.0284969
0.0154837
0.0152512
0.0152907
0.015283
0.0152831
0.0152907
0.0152512
0.0154839
0.0284969
0.0254521
0.0127112
0.0124596
0.0124964
0.0124882
0.0124882
0.0124964
0.0124596
0.0127114
0.0254521
0.0229417
0.0106114
0.0103484
0.0103816
0.0103735
0.0103735
0.0103816
0.0103484
0.0106118
0.0229417
0.0208475
0.00898661
0.00871749
0.00874688
0.00873921
0.00873922
0.00874688
0.00871751
0.00898696
0.0208475
0.0190823
0.00770561
0.00743409
0.00745982
0.00745285
0.00745285
0.00745982
0.00743412
0.00770598
0.0190822
0.0175803
0.00667912
0.00640778
0.00643017
0.00642396
0.00642397
0.00643017
0.00640781
0.0066795
0.0175803
0.0162916
0.00584474
0.00557535
0.00559478
0.00558932
0.00558933
0.00559478
0.00557537
0.00584511
0.0162915
0.0151773
0.00515788
0.00489164
0.00490848
0.00490373
0.00490374
0.00490849
0.00489166
0.00515824
0.0151773
0.0142073
0.00458608
0.00432376
0.00433837
0.00433425
0.00433426
0.00433838
0.00432378
0.00458641
0.0142073
0.0133575
0.00410525
0.00384734
0.00386003
0.00385647
0.00385648
0.00386004
0.00384736
0.00410554
0.0133575
0.0126087
0.00369723
0.00344402
0.00345506
0.00345199
0.00345199
0.00345506
0.00344404
0.00369749
0.0126086
0.0119454
0.00334816
0.00309978
0.00310939
0.00310675
0.00310675
0.0031094
0.0030998
0.00334839
0.0119453
0.011355
0.00304729
0.00280377
0.00281216
0.00280988
0.00280989
0.00281216
0.00280378
0.0030475
0.0113549
0.0108271
0.00278622
0.0025475
0.00255483
0.00255287
0.00255287
0.00255483
0.00254751
0.0027864
0.010827
0.0103531
0.00255827
0.00232425
0.00233066
0.00232897
0.00232897
0.00233067
0.00232426
0.00255844
0.0103531
0.00992599
0.00235812
0.00212864
0.00213426
0.00213281
0.00213281
0.00213427
0.00212865
0.00235827
0.00992594
0.00953966
0.00218146
0.00195635
0.00196129
0.00196003
0.00196003
0.00196129
0.00195636
0.0021816
0.0095396
0.00918907
0.00202479
0.00180385
0.00180819
0.00180711
0.00180711
0.00180819
0.00180386
0.00202491
0.00918902
0.00886994
0.00188521
0.00166827
0.00167208
0.00167114
0.00167114
0.00167208
0.00166827
0.00188533
0.00886989
0.00857861
0.00176037
0.0015472
0.00155056
0.00154974
0.00154975
0.00155056
0.00154721
0.00176048
0.00857855
0.00831193
0.00164826
0.00143868
0.00144163
0.00144093
0.00144093
0.00144163
0.00143869
0.00164837
0.00831188
0.00806721
0.00154724
0.00134104
0.00134364
0.00134303
0.00134303
0.00134364
0.00134105
0.00154734
0.00806716
0.0078421
0.00145591
0.0012529
0.00125517
0.00125465
0.00125465
0.00125518
0.0012529
0.00145599
0.00784205
0.00763457
0.00137307
0.00117306
0.00117506
0.00117461
0.00117461
0.00117506
0.00117307
0.00137315
0.00763451
0.00744283
0.00129772
0.00110053
0.00110228
0.00110189
0.00110189
0.00110228
0.00110054
0.00129779
0.00744278
0.00726534
0.001229
0.00103446
0.00103599
0.00103565
0.00103565
0.00103599
0.00103446
0.00122906
0.00726529
0.00710074
0.00116616
0.000974097
0.000975425
0.000975134
0.000975135
0.000975426
0.0009741
0.00116621
0.00710068
0.0069478
0.00110855
0.000918815
0.000919964
0.000919715
0.000919716
0.000919965
0.000918818
0.0011086
0.00694775
0.00680547
0.00105563
0.000868064
0.000869052
0.000868839
0.00086884
0.000869053
0.000868066
0.00105567
0.00680541
0.00667279
0.0010069
0.000821365
0.000822209
0.000822027
0.000822027
0.000822209
0.000821366
0.00100693
0.00667274
0.00654892
0.000961951
0.000778302
0.000779015
0.00077886
0.000778861
0.000779016
0.000778303
0.000961971
0.00654887
0.00643312
0.0009204
0.00073851
0.000739105
0.000738974
0.000738974
0.000739105
0.000738511
0.000920411
0.00643307
0.0063247
0.000881923
0.000701668
0.000702156
0.000702046
0.000702046
0.000702156
0.000701669
0.000881926
0.00632465
0.00622306
0.000846231
0.000667495
0.000667885
0.000667793
0.000667793
0.000667885
0.000667496
0.000846225
0.00622301
0.00612765
0.000813068
0.000635741
0.000636041
0.000635965
0.000635965
0.000636041
0.000635741
0.000813054
0.0061276
0.00603798
0.000782208
0.000606184
0.000606402
0.000606341
0.000606341
0.000606402
0.000606184
0.000782185
0.00603793
0.00595362
0.000753445
0.000578631
0.00057877
0.000578722
0.000578722
0.00057877
0.000578627
0.000753416
0.00595357
0.00587414
0.000726598
0.000552908
0.00055297
0.000552933
0.000552933
0.00055297
0.000552896
0.000726566
0.0058741
0.0057992
0.000701504
0.000528857
0.000528845
0.000528817
0.000528817
0.000528844
0.000528833
0.000701472
0.00579915
0.00572846
0.00067802
0.000506338
0.000506253
0.000506234
0.000506233
0.000506252
0.000506299
0.00067799
0.00572841
0.00566161
0.000656015
0.000485224
0.000485068
0.000485056
0.000485056
0.000485067
0.000485168
0.000655988
0.00566156
0.00559838
0.00063537
0.000465403
0.000465177
0.000465171
0.000465171
0.000465176
0.000465328
0.000635349
0.00559833
0.00553852
0.000615981
0.000446771
0.000446476
0.000446477
0.000446476
0.000446475
0.000446678
0.000615965
0.00553847
0.00548179
0.000597752
0.000429236
0.000428874
0.000428879
0.000428879
0.000428873
0.000429125
0.000597739
0.00548174
0.00542799
0.000580595
0.000412714
0.000412287
0.000412296
0.000412296
0.000412285
0.000412586
0.000580584
0.00542793
0.00537691
0.000564431
0.00039713
0.000396638
0.000396651
0.000396651
0.000396636
0.000396985
0.000564422
0.00537684
0.00532837
0.000549188
0.000382415
0.000381858
0.000381875
0.000381874
0.000381856
0.000382253
0.00054918
0.00532831
0.00528222
0.000534801
0.000368505
0.000367886
0.000367905
0.000367904
0.000367884
0.000368327
0.000534792
0.00528215
0.0052383
0.000521209
0.000355344
0.000354662
0.000354684
0.000354683
0.00035466
0.00035515
0.0005212
0.00523823
0.00519646
0.000508358
0.000342879
0.000342136
0.00034216
0.000342159
0.000342133
0.00034267
0.000508347
0.00519639
0.00515658
0.000496196
0.000331063
0.000330259
0.000330284
0.000330283
0.000330256
0.000330838
0.000496183
0.0051565
0.00511854
0.000484675
0.000319851
0.000318987
0.000319014
0.000319013
0.000318984
0.000319612
0.00048466
0.00511845
0.00508222
0.000473746
0.000309203
0.00030828
0.000308308
0.000308307
0.000308277
0.000308949
0.00047373
0.00508213
0.00504752
0.000463344
0.000299082
0.000298101
0.00029813
0.000298129
0.000298098
0.000298813
0.000463324
0.00504743
0.00501436
0.000453346
0.000289447
0.000288417
0.000288446
0.000288446
0.000288413
0.000289164
0.000453319
0.00501426
0.00498262
0.000442767
0.000280244
0.000279195
0.000279225
0.000279225
0.000279192
0.000279953
0.000442711
0.00498252
)
;
    }
    inlet
    {
        type            turbulentIntensityKineticEnergyInlet;
        intensity       0.05;
        value           uniform 0.06;
    }
    outlet
    {
        type            inletOutlet;
        inletValue      uniform 0.003;
        value           nonuniform List<scalar> 
20
(
0.00498271
0.000442611
0.000280271
0.000279205
0.000279236
0.000279235
0.000279198
0.000279964
0.000442729
0.00498265
0.00498262
0.000442767
0.000280244
0.000279195
0.000279225
0.000279225
0.000279192
0.000279953
0.000442711
0.00498252
)
;
    }
    heatWall
    {
        type            kqRWallFunction;
        value           nonuniform List<scalar> 
240
(
0.0505472
0.0505473
0.0428478
0.0428477
0.0369111
0.0369109
0.0322397
0.0322394
0.0284972
0.0284969
0.0254523
0.0254521
0.0229419
0.0229417
0.0208477
0.0208475
0.0190825
0.0190822
0.0175805
0.0175803
0.0162917
0.0162915
0.0151775
0.0151773
0.0142074
0.0142073
0.0133576
0.0133575
0.0126087
0.0126086
0.0119454
0.0119453
0.011355
0.0113549
0.0108271
0.010827
0.0103532
0.0103531
0.009926
0.00992594
0.00953966
0.0095396
0.00918907
0.00918902
0.00886994
0.00886989
0.00857861
0.00857855
0.00831193
0.00831188
0.00806721
0.00806716
0.0078421
0.00784205
0.00763457
0.00763451
0.00744283
0.00744278
0.00726535
0.00726529
0.00710074
0.00710068
0.0069478
0.00694775
0.00680547
0.00680541
0.0066728
0.00667274
0.00654894
0.00654887
0.00643314
0.00643307
0.00632472
0.00632465
0.00622308
0.00622301
0.00612767
0.0061276
0.00603801
0.00603793
0.00595365
0.00595357
0.00587418
0.0058741
0.00579924
0.00579915
0.0057285
0.00572841
0.00566165
0.00566156
0.00559842
0.00559833
0.00553856
0.00553847
0.00548184
0.00548174
0.00542803
0.00542793
0.00537695
0.00537684
0.00532842
0.00532831
0.00528226
0.00528215
0.00523834
0.00523823
0.0051965
0.00519639
0.00515662
0.0051565
0.00511858
0.00511845
0.00508226
0.00508213
0.00504756
0.00504743
0.00501439
0.00501426
0.00498265
0.00498252
0.0505472
0.0505472
0.0428478
0.0428477
0.0369112
0.0369109
0.0322398
0.0322394
0.0284973
0.0284969
0.0254524
0.0254521
0.022942
0.0229417
0.0208478
0.0208475
0.0190825
0.0190823
0.0175806
0.0175803
0.0162918
0.0162916
0.0151775
0.0151773
0.0142075
0.0142073
0.0133576
0.0133575
0.0126088
0.0126087
0.0119455
0.0119454
0.0113551
0.011355
0.0108272
0.0108271
0.0103532
0.0103531
0.00992607
0.00992599
0.00953973
0.00953966
0.00918914
0.00918907
0.00887
0.00886994
0.00857867
0.00857861
0.00831199
0.00831193
0.00806727