/*--------------------------------*- C++ -*----------------------------------*\
  =========                 |
  \\      /  F ield         | OpenFOAM: The Open Source CFD Toolbox
   \\    /   O peration     | Website:  https://openfoam.org
    \\  /    A nd           | Version:  8
     \\/     M anipulation  |
\*---------------------------------------------------------------------------*/
FoamFile
{
    version     2.0;
    format      ascii;
    class       volVectorField;
    location    "1000";
    object      U;
}
// * * * * * * * * * * * * * * * * * * * * * * * * * * * * * * * * * * * * * //

dimensions      [0 1 -1 0 0 0 0];

internalField   nonuniform List<vector> 
1200
(
(4.00458 -0.295026 0.00249747)
(4.0291 -0.228063 0.00297023)
(4.03227 -0.190857 0.00323232)
(4.02771 -0.165206 0.00336198)
(4.0221 -0.14633 0.00329685)
(4.01621 -0.131979 0.00315288)
(4.01008 -0.120662 0.00294271)
(4.00388 -0.111482 0.00265511)
(3.99773 -0.103899 0.0023511)
(3.99165 -0.0975595 0.00208615)
(3.98565 -0.0922131 0.00184865)
(3.97974 -0.0876766 0.00163193)
(3.97392 -0.0838108 0.00146191)
(3.96818 -0.0805062 0.00134937)
(3.96253 -0.0776752 0.00127848)
(3.95696 -0.0752459 0.00122471)
(3.95146 -0.0731585 0.00117554)
(3.94604 -0.0713627 0.00113051)
(3.94069 -0.0698161 0.00108373)
(3.93541 -0.0684825 0.00103009)
(3.9302 -0.0673308 0.000977589)
(3.92504 -0.0663345 0.000936504)
(3.91996 -0.0654712 0.000902046)
(3.91493 -0.0647217 0.000862806)
(3.90996 -0.0640697 0.000823872)
(3.90505 -0.0635007 0.00079416)
(3.90019 -0.0630027 0.000767635)
(3.89539 -0.0625654 0.000739415)
(3.89064 -0.0621798 0.000713367)
(3.88593 -0.0618384 0.000687941)
(3.88128 -0.0615346 0.000658063)
(3.87667 -0.0612629 0.000623373)
(3.87211 -0.0610186 0.000582775)
(3.8676 -0.0607974 0.000533206)
(3.86313 -0.0605959 0.000475789)
(3.8587 -0.0604111 0.000415874)
(3.85431 -0.0602403 0.000358518)
(3.84996 -0.0600814 0.000302404)
(3.84565 -0.0599324 0.000241535)
(3.84138 -0.0597918 0.00017626)
(3.83714 -0.0596582 0.000110343)
(3.83294 -0.0595302 4.23454e-05)
(3.82878 -0.0594063 -2.588e-05)
(3.82464 -0.0592854 -8.71718e-05)
(3.82054 -0.0591666 -0.000138907)
(3.81648 -0.0590495 -0.000188305)
(3.81244 -0.0589336 -0.0002455)
(3.80844 -0.0588188 -0.000309867)
(3.80446 -0.0587046 -0.000370449)
(3.80051 -0.0585907 -0.000422644)
(3.79659 -0.058477 -0.000471757)
(3.7927 -0.0583634 -0.000522054)
(3.78884 -0.0582496 -0.000575173)
(3.785 -0.0581358 -0.000627079)
(3.78119 -0.0580217 -0.000671598)
(3.7774 -0.0579076 -0.000710919)
(3.77364 -0.0577947 -0.000757301)
(3.76992 -0.0576876 -0.000821318)
(3.76634 -0.0575997 -0.000894428)
(3.76238 -0.0577277 -0.000953244)
(4.00711 0.104073 -0.000787003)
(4.00323 0.13367 -0.00116998)
(4.00185 0.134052 -0.00107165)
(4.00115 0.12923 -0.00090621)
(4.00151 0.123077 -0.000841583)
(4.00247 0.116496 -0.000819816)
(4.00362 0.110205 -0.00083255)
(4.00481 0.104516 -0.000895266)
(4.00597 0.0994766 -0.000964325)
(4.00708 0.0950496 -0.000995836)
(4.00812 0.0911802 -0.00100606)
(4.00908 0.0878076 -0.00100526)
(4.00996 0.0848711 -0.000968944)
(4.01077 0.0823138 -0.000883127)
(4.0115 0.080085 -0.000758659)
(4.01217 0.0781402 -0.000617488)
(4.01278 0.0764409 -0.000471995)
(4.01334 0.0749536 -0.000322669)
(4.01386 0.0736491 -0.000174612)
(4.01432 0.0725026 -3.42286e-05)
(4.01475 0.0714928 0.000101903)
(4.01514 0.0706017 0.000242267)
(4.0155 0.069813 0.000383267)
(4.01583 0.0691127 0.000515306)
(4.01613 0.068489 0.00064311)
(4.01642 0.0679317 0.000774848)
(4.01667 0.0674318 0.000906028)
(4.01691 0.0669813 0.00103358)
(4.01714 0.0665736 0.00116158)
(4.01734 0.066203 0.00128906)
(4.01754 0.0658644 0.00141242)
(4.01772 0.0655533 0.00153193)
(4.01789 0.0652661 0.00164624)
(4.01805 0.0649997 0.0017522)
(4.0182 0.0647512 0.00185058)
(4.01834 0.0645184 0.00194586)
(4.01848 0.0642993 0.00204228)
(4.01861 0.0640922 0.00213819)
(4.01874 0.0638955 0.00222768)
(4.01886 0.0637079 0.00231069)
(4.01897 0.0635285 0.00238992)
(4.01908 0.0633557 0.00246442)
(4.01919 0.0631874 0.00253612)
(4.0193 0.0630233 0.00261173)
(4.0194 0.0628628 0.00269369)
(4.0195 0.0627055 0.00277562)
(4.01961 0.0625509 0.00284836)
(4.0197 0.0623985 0.00291279)
(4.0198 0.0622481 0.00297916)
(4.0199 0.0620995 0.00305159)
(4.01999 0.0619525 0.00312538)
(4.02009 0.0618067 0.00319669)
(4.02018 0.0616619 0.00326459)
(4.02027 0.0615179 0.00333295)
(4.02037 0.0613745 0.00340728)
(4.02046 0.061231 0.00348626)
(4.02056 0.0610848 0.0035588)
(4.02066 0.0609266 0.00361396)
(4.0208 0.0607274 0.00365681)
(4.02091 0.0602212 0.00369828)
(3.9898 -0.0197049 0.000679159)
(3.98181 -0.040734 0.00186194)
(3.98276 -0.0575987 0.00314583)
(3.98641 -0.0670337 0.00416927)
(3.99022 -0.0718361 0.00484618)
(3.99384 -0.0743412 0.00526161)
(3.99718 -0.0755165 0.00549302)
(4.0002 -0.0758787 0.00557739)
(4.00291 -0.0757837 0.00557317)
(4.00535 -0.0754474 0.00553328)
(4.00754 -0.0749894 0.00545903)
(4.00953 -0.074476 0.00535457)
(4.01132 -0.0739437 0.00525359)
(4.01295 -0.0734128 0.00518212)
(4.01444 -0.0728944 0.00514266)
(4.0158 -0.0723934 0.00512199)
(4.01705 -0.0719118 0.00511176)
(4.0182 -0.0714497 0.00511428)
(4.01927 -0.071007 0.00512826)
(4.02026 -0.0705826 0.00514852)
(4.02119 -0.0701751 0.00517477)
(4.02206 -0.0697825 0.00520991)
(4.02288 -0.0694038 0.00524959)
(4.02366 -0.0690381 0.00528539)
(4.02441 -0.0686845 0.00532036)
(4.02511 -0.0683419 0.00536008)
(4.02579 -0.0680096 0.00540087)
(4.02645 -0.0676873 0.00544132)
(4.02708 -0.0673741 0.00548483)
(4.0277 -0.0670697 0.0055303)
(4.0283 -0.0667737 0.00557592)
(4.02889 -0.0664857 0.00562272)
(4.02947 -0.0662053 0.00566899)
(4.03004 -0.0659323 0.00571177)
(4.0306 -0.0656662 0.00575189)
(4.03116 -0.0654066 0.00579299)
(4.03171 -0.065153 0.00583804)
(4.03226 -0.0649051 0.00588461)
(4.03281 -0.0646627 0.00592688)
(4.03335 -0.0644255 0.00596453)
(4.0339 -0.0641931 0.00599875)
(4.03444 -0.0639648 0.00602789)
(4.03499 -0.0637391 0.00605417)
(4.03554 -0.063516 0.00608388)
(4.03609 -0.0632955 0.00611899)
(4.03664 -0.0630777 0.00615385)
(4.03719 -0.0628628 0.00618068)
(4.03775 -0.0626508 0.00620134)
(4.03831 -0.0624414 0.00622522)
(4.03887 -0.0622344 0.00625538)
(4.03944 -0.0620296 0.00628733)
(4.04001 -0.061827 0.00631762)
(4.04058 -0.0616267 0.00634638)
(4.04116 -0.0614285 0.0063773)
(4.04174 -0.0612326 0.00641474)
(4.04232 -0.0610399 0.00645812)
(4.04291 -0.0608533 0.00649729)
(4.0435 -0.0606835 0.00652113)
(4.04407 -0.0605607 0.00653344)
(4.0445 -0.0606264 0.00654379)
(3.99816 -0.00163892 0.000148221)
(3.99613 0.00887531 0.000302757)
(3.99911 0.0201393 0.000405361)
(4.00298 0.0301089 0.000391053)
(4.00593 0.0384287 0.000249112)
(4.00822 0.0450387 5.95e-05)
(4.01017 0.0502959 -0.000116883)
(4.01187 0.0545421 -0.000273567)
(4.01336 0.0579963 -0.000398948)
(4.01471 0.0608102 -0.00048506)
(4.01594 0.063104 -0.000552635)
(4.01708 0.064971 -0.000615793)
(4.01815 0.0664849 -0.000660153)
(4.01915 0.0677037 -0.000667955)
(4.0201 0.0686742 -0.00063645)
(4.02099 0.0694353 -0.00057903)
(4.02185 0.0700198 -0.000506434)
(4.02266 0.0704552 -0.000418078)
(4.02344 0.0707649 -0.000314196)
(4.02418 0.0709687 -0.000200793)
(4.0249 0.0710842 -8.44978e-05)
(4.02559 0.0711262 3.15791e-05)
(4.02626 0.0711069 0.000142562)
(4.02691 0.0710365 0.00024314)
(4.02754 0.070924 0.000335815)
(4.02816 0.0707772 0.000424249)
(4.02876 0.0706023 0.000506723)
(4.02935 0.0704045 0.000584455)
(4.02993 0.0701885 0.000660653)
(4.0305 0.0699582 0.000734855)
(4.03106 0.0697166 0.000808)
(4.03162 0.0694663 0.000882672)
(4.03217 0.0692096 0.000957471)
(4.03272 0.0689484 0.00103022)
(4.03327 0.0686844 0.00110219)
(4.03381 0.0684189 0.0011762)
(4.03435 0.0681533 0.00125398)
(4.03489 0.0678885 0.00133248)
(4.03544 0.0676252 0.00140656)
(4.03598 0.0673639 0.00147588)
(4.03652 0.0671053 0.00154006)
(4.03707 0.0668495 0.00159584)
(4.03761 0.0665965 0.00164575)
(4.03816 0.0663464 0.00169552)
(4.03872 0.0660995 0.00174668)
(4.03927 0.0658557 0.00179465)
(4.03983 0.065615 0.00183367)
(4.04039 0.0653773 0.00186708)
(4.04096 0.0651426 0.00190382)
(4.04153 0.0649109 0.00194541)
(4.0421 0.064682 0.00198751)
(4.04268 0.0644558 0.00202719)
(4.04326 0.0642322 0.00206556)
(4.04385 0.0640113 0.00210586)
(4.04444 0.063793 0.00215115)
(4.04504 0.0635766 0.00220172)
(4.04564 0.0633602 0.0022485)
(4.04623 0.0631383 0.00228011)
(4.04679 0.0628984 0.00229807)
(4.04741 0.0626027 0.00231344)
(3.99793 -0.0010185 0.000199779)
(3.99505 -0.00120521 0.000544248)
(3.99581 -0.00451917 0.00100342)
(3.99828 -0.0103542 0.00141077)
(4.00074 -0.0173063 0.0016433)
(4.00311 -0.0245061 0.00174069)
(4.00548 -0.0314042 0.00179898)
(4.00774 -0.0377043 0.00184859)
(4.00985 -0.0432925 0.0018816)
(4.0118 -0.0481526 0.00189286)
(4.0136 -0.0523235 0.00187285)
(4.01524 -0.0558666 0.00181747)
(4.01676 -0.0588506 0.00174313)
(4.01815 -0.0613447 0.00167563)
(4.01943 -0.0634142 0.00163087)
(4.02062 -0.0651181 0.00160507)
(4.02172 -0.0665085 0.00159288)
(4.02275 -0.0676306 0.00159853)
(4.02371 -0.0685242 0.00162593)
(4.02462 -0.0692236 0.00167107)
(4.02547 -0.069758 0.00172488)
(4.02628 -0.0701523 0.0017817)
(4.02704 -0.0704284 0.00183748)
(4.02778 -0.0706049 0.0018878)
(4.02848 -0.0706975 0.00193317)
(4.02915 -0.0707195 0.00197446)
(4.02981 -0.0706828 0.00201079)
(4.03044 -0.0705973 0.00204461)
(4.03106 -0.0704713 0.00207767)
(4.03166 -0.070312 0.00210921)
(4.03225 -0.0701255 0.00214199)
(4.03283 -0.0699172 0.00217941)
(4.0334 -0.0696915 0.00222)
(4.03396 -0.0694521 0.00226207)
(4.03452 -0.0692023 0.00230681)
(4.03507 -0.0689445 0.00235595)
(4.03562 -0.0686808 0.00240958)
(4.03617 -0.0684131 0.00246394)
(4.03672 -0.068143 0.00251486)
(4.03727 -0.0678718 0.00256226)
(4.03781 -0.0676007 0.00260436)
(4.03836 -0.0673303 0.00263777)
(4.03891 -0.0670614 0.00266523)
(4.03946 -0.0667942 0.00269153)
(4.04002 -0.0665291 0.0027173)
(4.04058 -0.0662663 0.00273857)
(4.04114 -0.0660064 0.00275154)
(4.0417 -0.0657496 0.00276063)
(4.04227 -0.0654959 0.00277347)
(4.04284 -0.0652448 0.00279005)
(4.04341 -0.0649962 0.00280652)
(4.04399 -0.0647505 0.00282081)
(4.04457 -0.0645078 0.00283475)
(4.04516 -0.0642679 0.0028509)
(4.04575 -0.0640308 0.00287108)
(4.04635 -0.0637968 0.00289628)
(4.04695 -0.0635667 0.00291871)
(4.04753 -0.0633435 0.00292764)
(4.04808 -0.0631348 0.00292432)
(4.04861 -0.0629641 0.00292257)
(3.99793 0.00102205 0.00018498)
(3.99505 0.00121114 0.000516252)
(3.99581 0.00452753 0.000964793)
(3.99828 0.0103661 0.00136266)
(4.00074 0.0173235 0.00158536)
(4.00311 0.0245312 0.00167481)
(4.00548 0.031437 0.00173767)
(4.00774 0.0377415 0.00181098)
(4.00985 0.0433325 0.00187177)
(4.0118 0.0481973 0.00190389)
(4.0136 0.0523725 0.00190427)
(4.01524 0.0559188 0.00187021)
(4.01676 0.0589066 0.00181075)
(4.01815 0.0614051 0.00174969)
(4.01943 0.0634792 0.00170602)
(4.02062 0.0651873 0.00167823)
(4.02172 0.0665816 0.00166212)
(4.02275 0.0677077 0.00166239)
(4.02371 0.0686052 0.001684)
(4.02462 0.069308 0.00172402)
(4.02547 0.0698454 0.00177296)
(4.02628 0.0702427 0.00182416)
(4.02704 0.0705215 0.0018741)
(4.02778 0.0707001 0.00192002)
(4.02848 0.0707946 0.00196187)
(4.02915 0.0708187 0.0019992)
(4.02981 0.0707838 0.00203251)
(4.03044 0.0706998 0.00206501)
(4.03106 0.0705754 0.00209662)
(4.03166 0.0704177 0.00212592)
(4.03225 0.070233 0.00215688)
(4.03283 0.0700261 0.00219343)
(4.0334 0.0698016 0.00223436)
(4.03396 0.0695631 0.00227858)
(4.03452 0.0693137 0.0023274)
(4.03507 0.069056 0.00238187)
(4.03562 0.0687925 0.00244077)
(4.03617 0.068525 0.00249976)
(4.03672 0.0682549 0.00255612)
(4.03727 0.0679834 0.00261036)
(4.03782 0.0677117 0.00265988)
(4.03836 0.0674405 0.00270163)
(4.03891 0.0671707 0.00273837)
(4.03947 0.0669029 0.00277365)
(4.04002 0.0666376 0.00280678)
(4.04058 0.0663752 0.00283375)
(4.04114 0.0661154 0.00285249)
(4.0417 0.0658583 0.00286801)
(4.04227 0.0656041 0.00288596)
(4.04284 0.065353 0.00290505)
(4.04341 0.0651049 0.00292211)
(4.04399 0.0648598 0.00293625)
(4.04457 0.0646175 0.0029497)
(4.04516 0.0643784 0.00296408)
(4.04575 0.0641425 0.00298021)
(4.04635 0.0639102 0.00299924)
(4.04694 0.0636823 0.00301429)
(4.04753 0.0634614 0.00301589)
(4.04808 0.0632549 0.00300573)
(4.04861 0.0630844 0.00299814)
(3.99816 0.00164406 0.000106572)
(3.99613 -0.00886263 0.000230016)
(3.9991 -0.020118 0.000310816)
(4.00298 -0.0300811 0.000281291)
(4.00593 -0.038396 0.000122908)
(4.00822 -0.045002 -9.79361e-05)
(4.01018 -0.0502586 -0.000292547)
(4.01187 -0.0545085 -0.000416638)
(4.01336 -0.0579646 -0.000499221)
(4.01471 -0.060778 -0.000562983)
(4.01594 -0.0630705 -0.000608354)
(4.01709 -0.0649359 -0.000644736)
(4.01815 -0.0664463 -0.000678861)
(4.01916 -0.0676598 -0.000698684)
(4.0201 -0.0686239 -0.000692009)
(4.021 -0.0693783 -0.000664984)
(4.02185 -0.0699563 -0.000624483)
(4.02266 -0.0703857 -0.000568442)
(4.02344 -0.07069 -0.000493898)
(4.02419 -0.0708893 -0.000403995)
(4.02491 -0.0710009 -0.000307208)
(4.0256 -0.0710393 -0.000209422)
(4.02627 -0.0710169 -0.000113409)
(4.02692 -0.0709441 -2.08707e-05)
(4.02755 -0.0708296 6.70398e-05)
(4.02816 -0.0706808 0.000149154)
(4.02877 -0.0705042 0.000227272)
(4.02936 -0.0703049 0.00030454)
(4.02994 -0.0700873 0.000378551)
(4.03051 -0.0698551 0.000446758)
(4.03107 -0.0696115 0.00051363)
(4.03163 -0.0693593 0.000583457)
(4.03218 -0.0691008 0.000655483)
(4.03273 -0.0688381 0.000729186)
(4.03327 -0.0685728 0.000806084)
(4.03382 -0.0683062 0.000887187)
(4.03436 -0.0680393 0.00097054)
(4.0349 -0.0677731 0.00105166)
(4.03544 -0.0675085 0.00112967)
(4.03599 -0.0672462 0.00120613)
(4.03653 -0.0669867 0.00127832)
(4.03708 -0.0667304 0.0013441)
(4.03762 -0.0664777 0.00140625)
(4.03817 -0.0662285 0.00146723)
(4.03873 -0.0659828 0.00152515)
(4.03928 -0.0657401 0.00157585)
(4.03984 -0.0655007 0.00161902)
(4.0404 -0.0652644 0.00166046)
(4.04097 -0.0650313 0.00170461)
(4.04154 -0.064801 0.00174878)
(4.04211 -0.0645735 0.00179014)
(4.04269 -0.064349 0.00182886)
(4.04327 -0.0641273 0.00186698)
(4.04386 -0.0639082 0.00190496)
(4.04445 -0.0636913 0.00194268)
(4.04505 -0.063476 0.00198074)
(4.04565 -0.0632602 0.00201256)
(4.04624 -0.0630382 0.0020302)
(4.04681 -0.0627962 0.00203625)
(4.04742 -0.0624955 0.00204215)
(3.9898 0.0197081 0.000599546)
(3.98182 0.0407395 0.00173747)
(3.98276 0.05761 0.00298104)
(3.98641 0.0670535 0.00397838)
(3.99022 0.0718652 0.00462982)
(3.99384 0.0743794 0.00501347)
(3.99718 0.0755614 0.0052629)
(4.00019 0.0759288 0.00543885)
(4.00291 0.0758383 0.0055327)
(4.00535 0.0755066 0.00555307)
(4.00754 0.0750519 0.00553491)
(4.00952 0.0745401 0.00548996)
(4.01132 0.0740089 0.00541935)
(4.01295 0.0734796 0.0053399)
(4.01444 0.072963 0.00526819)
(4.0158 0.072464 0.00520325)
(4.01705 0.0719844 0.0051442)
(4.0182 0.0715243 0.00509674)
(4.01927 0.0710833 0.00506557)
(4.02026 0.0706603 0.00505056)
(4.02119 0.0702538 0.00504799)
(4.02206 0.0698623 0.00505554)
(4.02288 0.0694845 0.0050719)
(4.02366 0.0691195 0.00509601)
(4.0244 0.0687663 0.00512628)
(4.02511 0.068424 0.00516031)
(4.02579 0.068092 0.00519988)
(4.02645 0.0677695 0.00524662)
(4.02708 0.0674562 0.00529477)
(4.0277 0.0671518 0.00533959)
(4.0283 0.0668556 0.00538477)
(4.02889 0.0665673 0.00543412)
(4.02947 0.0662864 0.00548669)
(4.03004 0.0660124 0.00554169)
(4.0306 0.065745 0.00560021)
(4.03116 0.0654838 0.00566316)
(4.03171 0.0652285 0.0057279)
(4.03226 0.0649788 0.00578967)
(4.0328 0.0647344 0.0058491)
(4.03335 0.0644948 0.00590855)
(4.03389 0.0642598 0.00596537)
(4.03444 0.0640291 0.00601828)
(4.03499 0.0638027 0.00606977)
(4.03553 0.0635803 0.00612116)
(4.03608 0.063362 0.00616948)
(4.03664 0.0631459 0.00620992)
(4.03719 0.0629321 0.00624342)
(4.03775 0.0627206 0.0062759)
(4.03831 0.0625116 0.00631023)
(4.03888 0.0623053 0.00634256)
(4.03944 0.0621014 0.00637041)
(4.04001 0.0618998 0.00639512)
(4.04059 0.0617006 0.00641837)
(4.04117 0.0615037 0.00643977)
(4.04175 0.0613095 0.0064589)
(4.04234 0.0611189 0.00647588)
(4.04293 0.0609349 0.00648463)
(4.04352 0.0607679 0.00647963)
(4.04409 0.0606489 0.00646652)
(4.04452 0.0607177 0.00645646)
(4.00711 -0.104064 -0.000982719)
(4.00323 -0.133669 -0.00150278)
(4.00185 -0.134056 -0.0015302)
(4.00115 -0.129235 -0.00145182)
(4.00151 -0.123083 -0.00145464)
(4.00248 -0.1165 -0.0015025)
(4.00362 -0.110205 -0.00151914)
(4.00481 -0.104511 -0.00149677)
(4.00598 -0.0994636 -0.00147512)
(4.00709 -0.0950284 -0.00145887)
(4.00812 -0.0911516 -0.00141994)
(4.00908 -0.0877725 -0.00135907)
(4.00996 -0.0848301 -0.00129197)
(4.01077 -0.0822674 -0.00121802)
(4.0115 -0.0800336 -0.0011336)
(4.01218 -0.0780842 -0.00104704)
(4.01279 -0.0763808 -0.000962084)
(4.01335 -0.0748897 -0.000875566)
(4.01386 -0.0735818 -0.000785084)
(4.01433 -0.0724319 -0.000690265)
(4.01476 -0.0714189 -0.000591314)
(4.01515 -0.0705244 -0.000487455)
(4.01551 -0.0697324 -0.000378807)
(4.01584 -0.0690288 -0.00026584)
(4.01614 -0.0684018 -0.000150273)
(4.01642 -0.067841 -3.43578e-05)
(4.01668 -0.0673374 8.44415e-05)
(4.01692 -0.0668833 0.000207591)
(4.01715 -0.066472 0.000327873)
(4.01736 -0.0660974 0.000439763)
(4.01755 -0.0657548 0.000547045)
(4.01773 -0.0654399 0.000653919)
(4.0179 -0.065149 0.000760102)
(4.01806 -0.0648789 0.00086512)
(4.01821 -0.064627 0.000970418)
(4.01836 -0.0643909 0.00107774)
(4.0185 -0.0641687 0.00118471)
(4.01863 -0.0639585 0.00128681)
(4.01875 -0.0637589 0.00138615)
(4.01887 -0.0635687 0.00148601)
(4.01899 -0.0633868 0.0015841)
(4.0191 -0.0632121 0.00167999)
(4.01921 -0.0630439 0.00177595)
(4.01932 -0.0628813 0.00187254)
(4.01942 -0.0627235 0.00196601)
(4.01952 -0.0625682 0.00205115)
(4.01962 -0.0624154 0.00212966)
(4.01972 -0.062265 0.00220753)
(4.01982 -0.0621165 0.00228656)
(4.01991 -0.0619696 0.00236212)
(4.02001 -0.0618242 0.00243193)
(4.0201 -0.0616801 0.00249822)
(4.0202 -0.0615372 0.00256216)
(4.02029 -0.0613951 0.00262259)
(4.02038 -0.0612536 0.00267881)
(4.02048 -0.0611117 0.00273006)
(4.02057 -0.0609671 0.00276991)
(4.02068 -0.0608102 0.00279407)
(4.02082 -0.060611 0.00280967)
(4.02093 -0.0600987 0.00282812)
(4.00457 0.295038 0.00236735)
(4.02908 0.228075 0.00284234)
(4.03226 0.190871 0.00309445)
(4.0277 0.165221 0.00323011)
(4.02209 0.146344 0.00317765)
(4.0162 0.131991 0.00303458)
(4.01007 0.12067 0.00288366)
(4.00387 0.111483 0.00273273)
(3.99772 0.103893 0.00255408)
(3.99165 0.097546 0.00235872)
(3.98565 0.0921926 0.00218518)
(3.97974 0.0876497 0.00203675)
(3.97392 0.0837784 0.00189825)
(3.96818 0.0804698 0.00176888)
(3.96253 0.0776357 0.00165063)
(3.95696 0.0752042 0.00153591)
(3.95146 0.0731148 0.00142328)
(3.94604 0.0713172 0.00131719)
(3.94069 0.0697686 0.00122038)
(3.9354 0.0684327 0.00113433)
(3.93019 0.0672785 0.00106096)
(3.92504 0.0662794 0.00100228)
(3.91995 0.065413 0.000957764)
(3.91492 0.06466 0.000925865)
(3.90995 0.0640039 0.000903415)
(3.90504 0.0634308 0.000887021)
(3.90018 0.0629284 0.000878729)
(3.89538 0.0624864 0.000878302)
(3.89063 0.0620961 0.000876104)
(3.88593 0.0617501 0.000865267)
(3.88127 0.0614417 0.000849279)
(3.87667 0.0611654 0.000832331)
(3.87211 0.0609165 0.000814178)
(3.86759 0.0606907 0.000794216)
(3.86312 0.0604846 0.00077387)
(3.85869 0.0602952 0.000755156)
(3.8543 0.0601199 0.000735536)
(3.84995 0.0599566 0.000710463)
(3.84564 0.0598034 0.000682889)
(3.84137 0.0596587 0.000656566)
(3.83714 0.0595212 0.000629224)
(3.83294 0.0593897 0.000600766)
(3.82877 0.0592632 0.000573215)
(3.82464 0.0591411 0.000546556)
(3.82054 0.0590224 0.00051645)
(3.81647 0.0589061 0.000477358)
(3.81244 0.0587914 0.000431919)
(3.80843 0.0586778 0.000386616)
(3.80446 0.0585649 0.000342815)
(3.80051 0.0584525 0.000295297)
(3.79659 0.0583404 0.000241945)
(3.7927 0.0582285 0.00018579)
(3.78883 0.0581166 0.000127873)
(3.78499 0.0580047 6.67219e-05)
(3.78118 0.0578928 1.67833e-06)
(3.7774 0.0577812 -6.83413e-05)
(3.77364 0.057671 -0.000149781)
(3.76992 0.0575669 -0.000245357)
(3.76634 0.0574829 -0.000343911)
(3.7624 0.0576167 -0.000425309)
(4.0045 -0.295191 0.000452974)
(4.02897 -0.228246 0.000346396)
(4.03216 -0.191039 0.000452183)
(4.02761 -0.165398 0.000641048)
(4.022 -0.146533 0.000743238)
(4.01611 -0.132193 0.000804646)
(4.00999 -0.120882 0.000805154)
(4.00381 -0.1117 0.000719993)
(3.99766 -0.104111 0.000604647)
(3.99159 -0.097761 0.000512776)
(3.98561 -0.0924027 0.000432694)
(3.97971 -0.0878534 0.000358463)
(3.97389 -0.0839749 0.000317167)
(3.96816 -0.0806586 0.000320835)
(3.96251 -0.0778168 0.000354841)
(3.95694 -0.0753776 0.000395704)
(3.95145 -0.0732812 0.000431876)
(3.94603 -0.0714773 0.000463781)
(3.94068 -0.0699232 0.000486335)
(3.9354 -0.0685827 0.000495181)
(3.93019 -0.0674251 0.000498968)
(3.92504 -0.0664242 0.000508609)
(3.91995 -0.0655575 0.000519866)
(3.91492 -0.0648053 0.000521819)
(3.90995 -0.0641513 0.000519998)
(3.90504 -0.0635811 0.000523727)
(3.90019 -0.0630827 0.000527329)
(3.89538 -0.0626453 0.000526245)
(3.89063 -0.0622601 0.000524634)
(3.88593 -0.0619193 0.000521206)
(3.88128 -0.0616162 0.000511123)
(3.87667 -0.0613452 0.000494238)
(3.87211 -0.0611015 0.000469647)
(3.8676 -0.0608807 0.000434463)
(3.86312 -0.0606795 0.000389965)
(3.85869 -0.0604948 0.00034165)
(3.85431 -0.0603242 0.000294708)
(3.84996 -0.0601654 0.000247941)
(3.84565 -0.0600167 0.000195459)
(3.84138 -0.0598764 0.000137708)
(3.83714 -0.0597431 7.85376e-05)
(3.83294 -0.0596154 1.65875e-05)
(3.82878 -0.0594918 -4.62203e-05)
(3.82464 -0.0593712 -0.000102661)
(3.82055 -0.059253 -0.000150059)
(3.81648 -0.0591366 -0.000195582)
(3.81244 -0.0590214 -0.00024932)
(3.80844 -0.0589071 -0.00031061)
(3.80446 -0.0587934 -0.000368455)
(3.80051 -0.0586801 -0.000418224)
(3.7966 -0.058567 -0.000465188)
(3.7927 -0.058454 -0.000513588)
(3.78884 -0.0583409 -0.000565036)
(3.785 -0.0582275 -0.000615478)
(3.78119 -0.058114 -0.000658716)
(3.7774 -0.0580006 -0.00069692)
(3.77364 -0.0578882 -0.000742331)
(3.76992 -0.0577815 -0.000805394)
(3.76634 -0.057694 -0.000878634)
(3.76239 -0.0578242 -0.000933775)
(4.00711 0.103949 0.00112663)
(4.00323 0.133628 0.00171228)
(4.00186 0.134107 0.00225478)
(4.00114 0.129352 0.00258827)
(4.00149 0.123243 0.00267749)
(4.00245 0.116683 0.00264639)
(4.00359 0.110402 0.00253896)
(4.00478 0.104718 0.00236036)
(4.00595 0.099677 0.00216592)
(4.00706 0.0952435 0.00200603)
(4.0081 0.0913636 0.00186828)
(4.00906 0.0879774 0.00174474)
(4.00995 0.0850248 0.00166105)
(4.01076 0.0824507 0.0016317)
(4.0115 0.080206 0.00164602)
(4.01217 0.0782474 0.00168217)
(4.01278 0.0765363 0.00172777)
(4.01334 0.0750396 0.00178222)
(4.01385 0.0737283 0.00184026)
(4.01432 0.0725772 0.00189534)
(4.01475 0.0715643 0.00195066)
(4.01514 0.0706702 0.00201444)
(4.0155 0.0698788 0.00208287)
(4.01583 0.0691763 0.00214613)
(4.01613 0.0685505 0.00220873)
(4.01641 0.0679909 0.00227861)
(4.01667 0.0674886 0.00235106)
(4.01691 0.0670362 0.00242283)
(4.01713 0.0666269 0.0024978)
(4.01734 0.0662549 0.00257482)
(4.01753 0.0659155 0.00265014)
(4.01771 0.0656044 0.00272388)
(4.01788 0.065318 0.00279456)
(4.01804 0.0650529 0.0028589)
(4.0182 0.0648063 0.00291757)
(4.01834 0.0645758 0.00297494)
(4.01848 0.0643592 0.00303512)
(4.01861 0.0641546 0.00309637)
(4.01873 0.0639605 0.0031527)
(4.01885 0.0637754 0.00320396)
(4.01896 0.0635981 0.00325279)
(4.01908 0.0634265 0.00329816)
(4.01918 0.0632591 0.00334191)
(4.01929 0.0630955 0.00339067)
(4.01939 0.0629351 0.00344682)
(4.0195 0.0627776 0.00350393)
(4.01959 0.0626228 0.00355278)
(4.01969 0.0624703 0.00359423)
(4.01979 0.0623198 0.00363848)
(4.01989 0.062171 0.0036896)
(4.01998 0.0620235 0.00374284)
(4.02008 0.0618774 0.00379433)
(4.02017 0.0617324 0.00384311)
(4.02026 0.0615883 0.00389301)
(4.02036 0.0614448 0.0039495)
(4.02045 0.0613013 0.00401125)
(4.02055 0.0611553 0.00406712)
(4.02065 0.0609975 0.0041062)
(4.02078 0.0607984 0.0041335)
(4.02089 0.0602903 0.00416005)
(3.98982 -0.019701 -0.000126412)
(3.98186 -0.0407117 0.000317326)
(3.98279 -0.057588 0.00111937)
(3.98641 -0.0670401 0.00184577)
(3.9902 -0.071856 0.00235319)
(3.9938 -0.0743724 0.00268764)
(3.99713 -0.0755527 0.00289843)
(4.00014 -0.0759125 0.00300265)
(4.00285 -0.0758122 0.0030451)
(4.00529 -0.0754719 0.00306934)
(4.00749 -0.0750116 0.00307008)
(4.00947 -0.0744976 0.00304682)
(4.01127 -0.0739674 0.00303012)
(4.0129 -0.0734406 0.00304397)
(4.01439 -0.0729264 0.00308944)
(4.01576 -0.0724289 0.00315232)
(4.01701 -0.0719496 0.00322355)
(4.01817 -0.0714888 0.00330497)
(4.01924 -0.0710457 0.00339504)
(4.02023 -0.0706193 0.00348838)
(4.02116 -0.0702093 0.00358466)
(4.02204 -0.0698153 0.00368676)
(4.02286 -0.069436 0.00379038)
(4.02364 -0.0690702 0.00388715)
(4.02438 -0.0687172 0.00398019)
(4.02509 -0.0683762 0.00407521)
(4.02577 -0.0680463 0.00416864)
(4.02643 -0.0677265 0.00425918)
(4.02706 -0.0674162 0.00435036)
(4.02768 -0.0671147 0.00444123)
(4.02828 -0.0668213 0.00453006)
(4.02887 -0.0665353 0.00461802)
(4.02945 -0.0662564 0.0047035)
(4.03002 -0.0659841 0.00478363)
(4.03058 -0.065718 0.00485937)
(4.03114 -0.065458 0.00493442)
(4.03169 -0.0652038 0.00501187)
(4.03224 -0.0649552 0.00508938)
(4.03279 -0.064712 0.00516119)
(4.03333 -0.064474 0.00522706)
(4.03388 -0.064241 0.00528825)
(4.03442 -0.0640122 0.00534315)
(4.03497 -0.0637863 0.0053941)
(4.03552 -0.0635636 0.00544743)
(4.03607 -0.0633442 0.0055052)
(4.03662 -0.0631279 0.00556179)
(4.03717 -0.0629144 0.00560945)
(4.03773 -0.0627035 0.0056501)
(4.03829 -0.0624952 0.00569317)
(4.03885 -0.0622894 0.00574176)
(4.03942 -0.062086 0.00579142)
(4.03999 -0.0618848 0.00583875)
(4.04057 -0.0616857 0.00588389)
(4.04114 -0.0614887 0.00593057)
(4.04173 -0.061294 0.00598319)
(4.04231 -0.0611025 0.00604119)
(4.0429 -0.0609169 0.00609444)
(4.04349 -0.0607478 0.00613183)
(4.04406 -0.0606259 0.00615711)
(4.04448 -0.0606925 0.00617982)
(3.99816 -0.00164632 0.000259793)
(3.99613 0.00881875 0.000657252)
(3.99909 0.0200277 0.00103831)
(4.00296 0.0299618 0.00126375)
(4.00589 0.038262 0.00130334)
(4.00819 0.0448642 0.00124243)
(4.01014 0.0501271 0.00115133)
(4.01184 0.0543911 0.00104566)
(4.01334 0.0578673 0.000945115)
(4.01468 0.0607016 0.000864276)
(4.01592 0.0630137 0.000787728)
(4.01706 0.0648966 0.000705464)
(4.01813 0.0664223 0.000634862)
(4.01914 0.0676494 0.000595862)
(4.02009 0.0686267 0.000593096)
(4.02099 0.069394 0.000614441)
(4.02184 0.0699847 0.000649968)
(4.02266 0.0704266 0.000700937)
(4.02343 0.0707435 0.000767603)
(4.02418 0.0709554 0.000844315)
(4.0249 0.0710787 0.000924708)
(4.02559 0.0711275 0.00100585)
(4.02626 0.0711139 0.001083)
(4.02691 0.0710489 0.00115093)
(4.02754 0.070941 0.0012122)
(4.02815 0.0707976 0.00127048)
(4.02876 0.0706254 0.00132405)
(4.02934 0.07043 0.00137411)
(4.02992 0.070216 0.00142383)
(4.03049 0.0699872 0.0014727)
(4.03106 0.0697472 0.00152163)
(4.03162 0.0694989 0.00157314)
(4.03217 0.0692446 0.00162579)
(4.03272 0.0689864 0.00167735)
(4.03326 0.0687258 0.00172905)
(4.03381 0.0684641 0.00178365)
(4.03435 0.0682022 0.00184284)
(4.03489 0.0679408 0.00190352)
(4.03543 0.0676809 0.00196051)
(4.03597 0.0674231 0.00201344)
(4.03652 0.0671675 0.0020619)
(4.03706 0.0669143 0.0021026)
(4.03761 0.0666633 0.00213803)
(4.03816 0.0664148 0.00217389)
(4.03871 0.0661686 0.00221169)
(4.03926 0.0659251 0.00224681)
(4.03982 0.0656847 0.00227346)
(4.04038 0.0654475 0.00229498)
(4.04095 0.065213 0.00232028)
(4.04152 0.0649811 0.00235082)
(4.0421 0.0647517 0.00238228)
(4.04267 0.0645251 0.0024117)
(4.04326 0.0643013 0.00244015)
(4.04384 0.0640802 0.00247086)
(4.04444 0.0638614 0.00250689)
(4.04503 0.0636446 0.00254849)
(4.04563 0.0634279 0.0025866)
(4.04622 0.063206 0.00260981)
(4.04678 0.062966 0.00261972)
(4.0474 0.0626707 0.00262733)
(3.99793 -0.00102053 0.000199075)
(3.99506 -0.00120387 0.000488724)
(3.99582 -0.00449987 0.000872088)
(3.99828 -0.01031 0.00120118)
(4.00072 -0.0172415 0.00136345)
(4.00308 -0.0244285 0.00140491)
(4.00545 -0.0313158 0.00142224)
(4.00772 -0.0376038 0.00144387)
(4.00983 -0.0431831 0.00145939)
(4.01178 -0.0480409 0.00146143)
(4.01357 -0.0522138 0.00143849)
(4.01521 -0.055762 0.00138482)
(4.01673 -0.0587549 0.00131556)
(4.01812 -0.0612611 0.00125554)
(4.01941 -0.0633439 0.00121993)
(4.0206 -0.0650612 0.00120443)
(4.02171 -0.0664642 0.00120325)
(4.02274 -0.0675982 0.00122034)
(4.0237 -0.0685023 0.00125937)
(4.0246 -0.0692105 0.00131617)
(4.02546 -0.0697526 0.00138155)
(4.02626 -0.070154 0.00144976)
(4.02703 -0.0704364 0.00151666)
(4.02776 -0.0706183 0.00157778)
(4.02847 -0.0707156 0.00163361)
(4.02914 -0.0707423 0.00168498)
(4.02979 -0.0707099 0.00173103)
(4.03043 -0.0706282 0.00177417)
(4.03104 -0.0705058 0.00181618)
(4.03165 -0.0703501 0.00185629)
(4.03224 -0.0701668 0.00189729)
(4.03282 -0.0699612 0.00194258)
(4.03339 -0.0697376 0.00199073)
(4.03395 -0.0694998 0.00204002)
(4.03451 -0.0692508 0.00209171)
(4.03506 -0.0689936 0.00214749)
(4.03561 -0.0687304 0.00220751)
(4.03616 -0.0684632 0.002268)
(4.03671 -0.0681935 0.00232481)
(4.03726 -0.0679225 0.00237786)
(4.0378 -0.0676514 0.00242538)
(4.03835 -0.0673812 0.00246399)
(4.0389 -0.0671123 0.00249644)
(4.03945 -0.0668453 0.00252754)
(4.04001 -0.0665808 0.00255791)
(4.04056 -0.066319 0.00258361)
(4.04112 -0.06606 0.00260084)
(4.04169 -0.0658039 0.00261402)
(4.04225 -0.0655505 0.0026308)
(4.04283 -0.0652999 0.00265118)
(4.0434 -0.0650524 0.00267131)
(4.04398 -0.0648077 0.00268913)
(4.04456 -0.064566 0.00270648)
(4.04515 -0.0643273 0.00272593)
(4.04574 -0.0640918 0.00274931)
(4.04634 -0.0638598 0.00277761)
(4.04694 -0.0636317 0.00280302)
(4.04752 -0.0634103 0.00281484)
(4.04807 -0.0632033 0.00281433)
(4.0486 -0.0630337 0.00281523)
(3.99793 0.0010183 0.000184286)
(3.99506 0.00120053 0.000460784)
(3.99582 0.00449709 0.000833576)
(3.99828 0.0103098 0.00115324)
(4.00072 0.0172454 0.00130571)
(4.00309 0.0244377 0.0013392)
(4.00545 0.0313331 0.00136106)
(4.00772 0.0376339 0.00140632)
(4.00983 0.0432252 0.0014496)
(4.01178 0.0480925 0.00147251)
(4.01357 0.0522741 0.00146997)
(4.01522 0.0558301 0.00143764)
(4.01673 0.0588282 0.00138329)
(4.01812 0.0613367 0.00132974)
(4.01941 0.0634201 0.00129526)
(4.0206 0.065137 0.00127781)
(4.02171 0.0665395 0.00127275)
(4.02274 0.0676731 0.00128449)
(4.0237 0.0685775 0.00131777)
(4.0246 0.0692866 0.00136948)
(4.02546 0.0698299 0.00143001)
(4.02626 0.0702327 0.0014926)
(4.02703 0.0705167 0.00155367)
(4.02776 0.0707006 0.0016104)
(4.02847 0.0708003 0.00166271)
(4.02914 0.0708293 0.00171013)
(4.0298 0.0707992 0.00175315)