/*--------------------------------*- C++ -*----------------------------------*\
  =========                 |
  \\      /  F ield         | OpenFOAM: The Open Source CFD Toolbox
   \\    /   O peration     | Website:  https://openfoam.org
    \\  /    A nd           | Version:  8
     \\/     M anipulation  |
\*---------------------------------------------------------------------------*/
FoamFile
{
    version     2.0;
    format      ascii;
    class       volScalarField;
    location    "800";
    object      alphat;
}
// * * * * * * * * * * * * * * * * * * * * * * * * * * * * * * * * * * * * * //

dimensions      [1 -1 -1 0 0 0 0];

internalField   nonuniform List<scalar> 
1200
(
0.009399
0.00930144
0.00919615
0.00908732
0.00897433
0.00886597
0.00875555
0.00865481
0.00855556
0.00844161
0.00845296
0.00871508
0.00896576
0.0090843
0.00942367
0.00900401
0.00879629
0.00936029
0.0101501
0.0113331
0.0127888
0.0142827
0.0154368
0.00614052
0.00624589
0.00633604
0.00644489
0.00657888
0.00673666
0.00690377
0.00705227
0.00718562
0.00733262
0.00749903
0.0076821
0.00789193
0.00812289
0.00835006
0.00851049
0.00861611
0.0087612
0.00906433
0.0093651
0.00962291
0.0098133
0.00996788
0.0100844
0.0102641
0.0104643
0.0106598
0.0107075
0.0108675
0.0112206
0.0114301
0.0117022
0.0114739
0.0115682
0.012323
0.0137525
0.0153545
0.00731937
0.00633764
0.00549741
0.00478352
0.00417687
0.00366509
0.00323883
0.00292912
0.00274087
0.0025388
0.00372991
0.00451966
0.00398622
0.003647
0.00290959
0.00259713
0.0030367
0.00338055
0.00417315
0.00522047
0.00644682
0.00786219
0.00910483
0.0100467
0.0109885
0.0119054
0.012698
0.0134073
0.0137939
0.0138482
0.0140773
0.0147246
0.0151907
0.0154312
0.0156673
0.0158445
0.0157678
0.0154186
0.015603
0.00362567
0.00367778
0.0157148
0.00364945
0.0159084
0.0158757
0.0157949
0.0158728
0.00392695
0.00398296
0.00372209
0.00437674
0.00598166
0.00677227
0.00617103
0.00584352
0.00535877
0.00563696
0.00946593
0.0120469
0.011265
0.00730775
0.00629138
0.00541454
0.00466247
0.00401654
0.00346353
0.00299396
0.00260046
0.00229399
0.00213612
0.00292637
0.00332479
0.0024164
0.00199546
0.00263964
0.00362606
0.00445516
0.00580363
0.00617521
0.00844313
0.00994458
0.0119404
0.0139732
0.0145696
0.0149062
0.0156058
0.0037385
0.00389613
0.00398358
0.00401245
0.00401302
0.0040285
0.00409367
0.00420563
0.00433048
0.0044742
0.00463342
0.00478804
0.0049276
0.00503702
0.00509074
0.00505111
0.0050145
0.00504749
0.00509158
0.00508271
0.0053775
0.00578965
0.00449895
0.0038618
0.00556349
0.00829981
0.0094853
0.00894324
0.00892822
0.0124667
0.0153202
0.0181397
0.0211193
0.0247632
0.00730769
0.00629532
0.00541938
0.00466609
0.00401828
0.00346475
0.0029902
0.00257769
0.00222659
0.00201609
0.00249613
0.00283399
0.00250361
0.00200235
0.00249189
0.00455009
0.00789661
0.0124546
0.0135615
0.0145317
0.0152961
0.0159899
0.00392385
0.00413113
0.00433483
0.0044994
0.00465419
0.00477993
0.00486618
0.00491174
0.00491729
0.00488203
0.00479933
0.00467742
0.00460469
0.0047445
0.00496073
0.00518668
0.00543086
0.0056903
0.00598104
0.0063053
0.00663116
0.0071094
0.00770351
0.00825646
0.00877676
0.00934069
0.00992344
0.0105407
0.0115068
0.0124934
0.0132064
0.013759
0.0144283
0.0163794
0.018738
0.021088
0.0235839
0.0268557
0.00730811
0.00629526
0.00541738
0.00466445
0.00401822
0.00346272
0.00298809
0.00257983
0.00222642
0.00196085
0.00209826
0.00233673
0.00229754
0.00209161
0.00189969
0.00305706
0.00504225
0.00769369
0.0087921
0.0113442
0.0136404
0.0148023
0.0154923
0.00375638
0.00393779
0.00409263
0.00418088
0.00422006
0.00421833
0.00418048
0.00410841
0.00401152
0.00394187
0.00400985
0.00419078
0.0043725
0.0045909
0.00482701
0.00508183
0.00537471
0.00571087
0.00607066
0.00641948
0.00677237
0.00717451
0.00768952
0.00836063
0.00921163
0.0101919
0.011189
0.0121473
0.0131285
0.0140813
0.0150929
0.0162161
0.0176421
0.0195672
0.0217569
0.0242835
0.0273759
0.00730847
0.00629436
0.00541642
0.00466562
0.00402113
0.0034656
0.00298957
0.00258431
0.00223395
0.00194592
0.00186259
0.00191862
0.00190979
0.00182145
0.00169758
0.00203936
0.0031468
0.0044212
0.00504299
0.00681444
0.00960696
0.0115782
0.0125707
0.0144477
0.0157064
0.0159507
0.0159801
0.0159719
0.0159002
0.015912
0.0158085
0.0157017
0.0156322
0.0157006
0.0159239
0.0158837
0.0158011
0.0154348
0.00375643
0.00403693
0.0044553
0.00470028
0.00503481
0.00513392
0.00510852
0.00542244
0.00610415
0.00705247
0.00828119
0.00958917
0.0106593
0.0116231
0.0125888
0.0137434
0.0153048
0.016892
0.0186412
0.0207371
0.0234316
0.0269994
0.00730869
0.00629358
0.00541692
0.00466895
0.00402612
0.00347052
0.00299435
0.00258922
0.00224319
0.00195159
0.00176045
0.00167218
0.00159957
0.00151649
0.00143599
0.00153776
0.00207801
0.00269548
0.0031291
0.00399209
0.00563066
0.00752074
0.00940748
0.011472
0.0132187
0.0140474
0.0143269
0.0143428
0.0141403
0.013854
0.0136405
0.0135481
0.0133764
0.0134095
0.0137023
0.014284
0.0143916
0.0141343
0.0137747
0.0139109
0.0150244
0.0159439
0.00391553
0.00383229
0.0149978
0.0143274
0.0139695
0.0133368
0.00382917
0.00613482
0.00711522
0.00785628
0.00820731
0.00888341
0.0110157
0.0135295
0.015458
0.0171746
0.0201105
0.0251405
0.00730993
0.00629102
0.00541268
0.00466589
0.00402365
0.00346911
0.00299566
0.00259322
0.00224887
0.00195897
0.00173405
0.0015756
0.00144955
0.00134208
0.00125783
0.00126021
0.00146925
0.00173327
0.00197695
0.00234962
0.0029988
0.00397012
0.00532055
0.00732792
0.00935614
0.0107434
0.0115054
0.0118374
0.0118976
0.0118831
0.0119498
0.0120949
0.0122544
0.0124201
0.0126373
0.0128076
0.0128408
0.0127887
0.012709
0.0126404
0.0126684
0.012798
0.0131164
0.0130005
0.0128468
0.0127334
0.0124136
0.0120397
0.0117608
0.015741
0.00394835
0.00415986
0.00445741
0.00480972
0.0056564
0.00835338
0.0107569
0.0121058
0.0136682
0.0159666
0.0073234
0.00633687
0.00549148
0.00478092
0.00416624
0.00362758
0.00316705
0.00277353
0.00242971
0.00213019
0.00188122
0.00168843
0.00153827
0.00141623
0.00131222
0.00123392
0.00123431
0.00129172
0.00137615
0.00150458
0.00169174
0.00198127
0.00244684
0.00345904
0.00485376
0.0060994
0.00698974
0.00751122
0.00774409
0.00783698
0.00793845
0.00812158
0.00838262
0.00873618
0.00910912
0.00937493
0.00956639
0.00976103
0.00998678
0.0102328
0.0104915
0.0107516
0.0109856
0.0111075
0.0111448
0.0113717
0.0116435
0.0115719
0.0114136
0.0117421
0.0121281
0.0127574
0.0133637
0.0142191
0.0151504
0.00438883
0.00578979
0.00701758
0.00797826
0.00856521
0.00941653
0.00931208
0.00919887
0.00910192
0.00899787
0.00887687
0.00874059
0.00857492
0.00834312
0.00802701
0.00768877
0.0074825
0.00744685
0.00751928
0.0075634
0.00737367
0.00706775
0.00688939
0.00681008
0.00680057
0.00692667
0.00717641
0.00756886
0.00801191
0.00853532
0.00917117
0.00989431
0.0106827
0.0115219
0.0124123
0.0133509
0.0143382
0.015375
0.00619762
0.00637185
0.0065475
0.00674735
0.00697224
0.00721156
0.00744811
0.00766666
0.00787171
0.0080804
0.00833314
0.00864592
0.00900478
0.0093345
0.00963541
0.00986233
0.0100014
0.0102021
0.0104724
0.0108098
0.0111849
0.0115359
0.0118033
0.0120632
0.0123986
0.0127958
0.0132584
0.00940631
0.00930381
0.00919617
0.0090853
0.00896617
0.00885875
0.00875242
0.00865641
0.00855795
0.00846456
0.00846021
0.00870855
0.00894777
0.00906683
0.00941128
0.00897346
0.00875105
0.0093142
0.0101019
0.0112763
0.0127302
0.0142283
0.0154136
0.00613789
0.00624677
0.00633729
0.00644405
0.00657607
0.00673399
0.00690663
0.00706276
0.00719747
0.00733645
0.00749338
0.00767077
0.00788467
0.00812212
0.00835584
0.00853331
0.00865806
0.00882245
0.00912343
0.00940244
0.00962879
0.00979024
0.00993134
0.0100795
0.0102551
0.0104209
0.010584
0.0106582
0.0108502
0.0111921
0.0112584
0.0115007
0.0115657
0.0116354
0.012344
0.0135599
0.0151018
0.00731895
0.0063369
0.00549686
0.0047849
0.00418049
0.00366842
0.00323934
0.00292423
0.0027387
0.00253432
0.00370895
0.00450562
0.00398084
0.0036547
0.00291405
0.002618
0.00302083
0.00335576
0.00414285
0.00520752
0.00643526
0.00785485
0.00910966
0.0100469
0.0109607
0.0118656
0.012645
0.0133455
0.0137529
0.0138101
0.0139374
0.0145293
0.0150302
0.0153368
0.0156202
0.0157818
0.0156395
0.0152727
0.0153517
0.0160671
0.0161054
0.0158496
0.00374757
0.00375006
0.0158924
0.0158706
0.00373502
0.00392259
0.00403285
0.00385098
0.00430806
0.00586393
0.00670939
0.00614456
0.00581467
0.00538911
0.00549868
0.00930436
0.0118114
0.0114319
0.00730781
0.00629078
0.00541447
0.00466457
0.00401997
0.00346665
0.00299374
0.00259924
0.002293
0.00213145
0.00290748
0.00331577
0.00242249
0.00200441
0.00265454
0.00363578
0.00442736
0.00584017
0.00608241
0.00839385
0.00994245
0.0119419
0.0139947
0.0146603
0.0149276
0.015552
0.0158908
0.00387197
0.00395659
0.00398359
0.0039848
0.00400198
0.0040702
0.00418042
0.00430617
0.00445079
0.00460661
0.00475602
0.00489728
0.00500482
0.00505253
0.00499516
0.00494119
0.00496234
0.00501391
0.00505466
0.00545332
0.0059545
0.0048015
0.003887
0.00541678
0.00827777
0.00946621
0.00889135
0.0088985
0.0125337
0.015476
0.018395
0.0214102
0.0249294
0.00730839
0.00629353
0.00541791
0.00466863
0.00402282
0.00346643
0.00298937
0.00257748
0.00222658
0.00201195
0.00248063
0.00282339
0.00250065
0.00200289
0.00251556
0.00455013
0.00780212
0.0124698
0.0135623
0.0145349
0.0152811
0.00372857
0.00391693
0.00412219
0.00432394
0.00448587
0.0046363
0.00475768
0.00483944
0.00487917
0.00487744
0.00483461
0.00474535
0.00462327
0.00457691
0.00474424
0.00496486
0.00520366
0.00545243
0.00571116
0.00599625
0.00630935
0.00662694
0.00710559
0.00770041
0.00825971
0.00878558
0.00935534
0.00993722
0.0105404
0.0115172
0.0125241
0.0132438
0.0137937
0.0144466
0.0164197
0.0188324
0.0212793
0.0238233
0.0269497
0.00730856
0.00629161
0.00541594
0.00466803
0.0040237
0.00346665
0.00298904
0.00257938
0.00222617
0.00195896
0.00208851
0.00232682
0.00229145
0.00208777
0.00190355
0.0030961
0.00504066
0.00764926
0.00873054
0.011311
0.0136273
0.0147796
0.0154756
0.0160578
0.00392393
0.00407784
0.00416255
0.00419717
0.00418992
0.00414784
0.00407401
0.00397921
0.00392329
0.0040173
0.00418936
0.00437212
0.00459092
0.0048289
0.00509206
0.00539201
0.00572936
0.00609571
0.00642327
0.00677023
0.00716529
0.00767375
0.0083444
0.00920041
0.0101888
0.0111849
0.0121468
0.0131461
0.0141106
0.0151248
0.0162358
0.0176622
0.0195951
0.0217944
0.0243195
0.0273934
0.00730908
0.00629085
0.00541591
0.00466942
0.00402566
0.003469
0.0029916
0.00258359
0.00223261
0.0019452
0.00185784
0.00191235
0.00190503
0.00181852
0.0016968
0.0020329
0.00313492
0.00439151
0.00500343
0.00678717
0.00960298
0.0115867
0.0126508
0.0143529
0.0156651
0.0160632
0.0037136
0.00371672
0.0159555
0.0159107
0.0157855
0.0156662
0.0156042
0.0157136
0.0159475
0.0158926
0.0157269
0.0154557
0.0163131
0.00406805
0.00447155
0.0047764
0.00515028
0.00521725
0.00513241
0.00539951
0.00607914
0.00702875
0.00826747
0.00958008
0.0106687
0.0116501
0.0126421
0.013796
0.0153425
0.0169116
0.0186619
0.0207591
0.0234556
0.0270092
0.00731117
0.00629204
0.00541749
0.00467294
0.00402937
0.00347228
0.00299536
0.00258896
0.0022417
0.00195061
0.00175911
0.00166949
0.00159765
0.00151583
0.00143692
0.00154419
0.00206256
0.00267523
0.00310175
0.00396742
0.00561866
0.00753249
0.00946176
0.0115449
0.0132786
0.0140884
0.0142945
0.0143081
0.0141432
0.0138646
0.0136855
0.0136013
0.0134054
0.0134953
0.0136864
0.014177
0.0142886
0.0140436
0.0136858
0.0138095
0.0149525
0.00370179
0.00392394
0.0038458
0.015021
0.0143106
0.0139409
0.0133089
0.00382876
0.00617744
0.0071492
0.00791146
0.00825829
0.00890416
0.0110246
0.0135392
0.015466
0.0171665
0.0201006
0.0251245
0.00731406
0.00629046
0.00541337
0.00466844
0.0040243
0.00346972
0.00299749
0.00259427
0.0022483
0.00195783
0.00173293
0.00157519
0.00145053
0.00134331
0.00125956
0.0012648
0.00146155
0.00171964
0.00195799
0.00233044
0.00298536
0.00397783
0.00536654
0.00739624
0.00941621
0.0107809
0.01152
0.0118399
0.0118958
0.0118912
0.0119725
0.0121295
0.0122965
0.0124685
0.0126897
0.0128484
0.0128748
0.0128251
0.0127518
0.0126913
0.0127222
0.0128372
0.0131261
0.0129543
0.012693
0.0126024
0.0123523
0.0120368
0.0117447
0.00368115
0.00406342
0.00426983
0.00454541
0.00486777
0.00570595
0.0083971
0.0107677
0.012097
0.0136311
0.0158755
0.00732618
0.006336
0.00549259
0.00478436
0.00416981
0.00362962
0.00317047
0.00277605
0.00243003
0.00213039
0.00188185
0.00168895
0.00153904
0.00141732
0.00131315
0.00123398
0.00123061
0.00128498
0.00136561
0.00149233
0.00168013
0.00197945
0.00247195
0.00351536
0.00491438
0.00614269
0.00700882
0.00751101
0.00773058
0.007822
0.00793165
0.00812625
0.0083957
0.00876369
0.00913512
0.00939121
0.00958529
0.00979113
0.0100283
0.01028
0.0105378
0.0107973
0.0110236
0.0111311
0.0111674
0.0114637
0.01167
0.0115177
0.0114095
0.0117435
0.0120953
0.012809
0.013521
0.014398
0.0152846
0.00442581
0.00581929
0.00702592
0.00795861
0.00850246
0.00939997
0.00930133
0.00920202
0.00909894
0.0089917
0.00888382
0.00875658
0.00859289
0.00835853
0.00803514
0.00769153
0.00748632
0.00745929
0.00754145
0.00759173
0.00740948
0.00710583
0.00691703
0.00683135
0.00681469
0.00693825
0.00717989
0.00755413
0.0079817
0.00850783
0.00915019
0.00987794
0.0106667
0.0115044
0.0123928
0.013331
0.0143197
0.0153649
0.00619184
0.00635977
0.00653517
0.00673881
0.00696776
0.00720806
0.00744397
0.00766265
0.00786842
0.00808084
0.00833856
0.00866462
0.00901767
0.00933584
0.00962772
0.00983903
0.0100032
0.0102408
0.0105091
0.0108193
0.0111832
0.0115393
0.0118026
0.0120531
0.0123822
0.0127764
0.013238
)
;

boundaryField
{
    wall
    {
        type            compressible::alphatJayatillekeWallFunction;
        Prt             0.85;
        value           uniform 0;
    }
    inlet
    {
        type            calculated;
        value           uniform 0.189515;
    }
    outlet
    {
        type            calculated;
        value           nonuniform List<scalar> 
20
(
0.0153545
0.011265
8.06525
8.06525
8.06525
8.06525
8.06525
0.0159666
0.00856521
0.0132584
0.0151017
0.0114319
8.06525
8.06525
8.06525
8.06525
8.06525
0.0158755
0.00850247
0.013238
)
;
    }
    heatWall
    {
        type            compressible::alphatJayatillekeWallFunction;
        Prt             0.85;
        value           nonuniform List<scalar> 
240
(
0.000414048
0.000413873
0.000410588
0.00041052
0.000407023
0.000407072
0.000403571
0.000403483
0.000399921
0.000399805
0.000395914
0.000396141
0.000391383
0.000391803
0.000385611
0.000385967
0.000377216
0.000377484
0.000365648
0.000365898
0.000353354
0.000353594
0.000345974
0.00034627
0.000344952
0.000345481
0.000347854
0.000348639
0.000349669
0.000350652
0.000342964
0.00034418
0.000331709
0.000332923
0.000324673
0.000325534
0.000321371
0.000322031
0.000320794
0.000321195
0.000325586
0.000325775
0.000334919
0.000334736
0.000349056
0.000348399
0.000364614
0.000363807
0.000383173
0.000382531
0.000405509
0.000404977
0.000430384
0.000429901
0.000456837
0.000456323
0.000484352
0.000483783
0.000512937
0.000512311
0.000542526
0.000541876
0.000573088
0.000572501
0.000604714
0.000604347
0.000625927
0.000625097
0.000645254
0.000643899
0.000665598
0.000664418
0.000689019
0.000688297
0.000715115
0.000714689
0.000742409
0.000741952
0.000769236
0.000768679
0.000794181
0.000793632
0.000817805
0.000817155
0.0008423
0.000842163
0.000871672
0.000872845
0.000908074
0.000910992
0.000947678
0.0009493
0.000983683
0.000983861
0.0010166
0.00101593
0.00104064
0.0010395
0.00105919
0.001061
0.00108517
0.00108872
0.00111463
0.00111667
0.00114995
0.00115067
0.00119252
0.00119396
0.0012327
0.00123472
0.00126172
0.00126234
0.00128933
0.00128847
0.00132598
0.00132456
0.00136976
0.00136805
0.00142115
0.00141923
0.000413893
0.000414039
0.000410557
0.000410611
0.000407016
0.000407015
0.000403308
0.000403275
0.000399414
0.000399259
0.000395526
0.000395423
0.000391564
0.000391586
0.000387942
0.000388087
0.000384399
0.000384603
0.000380276
0.000380689
0.000381104
0.000380997
0.000390548
0.000390043
0.000399372
0.000398695
0.000403455
0.000402855
0.000415017
0.000414604
0.000400849
0.000400381
0.000393996
0.000392634
0.000413611
0.000412042
0.000440555
0.000438907
0.000479851
0.000477992
0.000526535
0.000524683
0.00057292
0.000571241
0.000607179
0.000606551
0.000620701
0.000620451
0.000632376
0.000632475
0.000642749
0.000642863
0.00065552
0.000655405
0.000671059
0.000670786
0.000688963
0.000688831
0.000707288
0.000707832
0.000723581
0.000724726
0.000739312
0.000740195
0.00075747
0.000757292
0.000777752
0.0007765
0.00079925
0.0007975
0.000822577
0.000821463
0.000847481
0.000847557
0.000871072
0.000872131
0.00088948
0.00089196
0.000904969
0.000908414
0.000926144
0.000931539
0.000960076
0.000964281
0.000990877
0.000992774
0.00101527
0.00101401
0.00103318
0.00102979
0.00104924
0.00104565
0.0010649
0.00106358
0.00108537
0.00108342
0.00110565
0.00110252
0.00111892
0.00112009
0.00113113
0.00113235
0.00114358
0.00114837
0.00117395
0.00117131
0.00119004
0.00117946
0.00121452
0.00120203
0.00120588
0.00121226
0.00123967
0.00123795
0.00132748
0.00132367
0.00151359
0.00148434
0.00168775
0.00166058
)
;
    }
}


// ************************************************************************* //
