/*--------------------------------*- C++ -*----------------------------------*\
  =========                 |
  \\      /  F ield         | OpenFOAM: The Open Source CFD Toolbox
   \\    /   O peration     | Website:  https://openfoam.org
    \\  /    A nd           | Version:  8
     \\/     M anipulation  |
\*---------------------------------------------------------------------------*/
FoamFile
{
    version     2.0;
    format      ascii;
    class       volScalarField;
    location    "800";
    object      nut;
}
// * * * * * * * * * * * * * * * * * * * * * * * * * * * * * * * * * * * * * //

dimensions      [0 2 -1 0 0 0 0];

internalField   nonuniform List<scalar> 
1200
(
9.44848e-06
9.35039e-06
9.24452e-06
9.13509e-06
9.02149e-06
8.91254e-06
8.80152e-06
8.70023e-06
8.60044e-06
8.48562e-06
8.49494e-06
8.75618e-06
9.00732e-06
9.12592e-06
9.4656e-06
9.03951e-06
8.82782e-06
9.39274e-06
1.01844e-05
1.13706e-05
1.28302e-05
1.43283e-05
1.54855e-05
6.15965e-06
6.26529e-06
6.35584e-06
6.4652e-06
6.59977e-06
6.75814e-06
6.92593e-06
7.07517e-06
7.20924e-06
7.35685e-06
7.52383e-06
7.7075e-06
7.91803e-06
8.14976e-06
8.37778e-06
8.53898e-06
8.64522e-06
8.79088e-06
9.09486e-06
9.39656e-06
9.65539e-06
9.84673e-06
1.00021e-05
1.01193e-05
1.02996e-05
1.05006e-05
1.06969e-05
1.07449e-05
1.09063e-05
1.1261e-05
1.14716e-05
1.17449e-05
1.15163e-05
1.16108e-05
1.23684e-05
1.38041e-05
1.54132e-05
7.35792e-06
6.37102e-06
5.52636e-06
4.80871e-06
4.19887e-06
3.68439e-06
3.25588e-06
2.94454e-06
2.75528e-06
2.55077e-06
3.74243e-06
4.53164e-06
3.9969e-06
3.65695e-06
2.91729e-06
2.60337e-06
3.04383e-06
3.38859e-06
4.18332e-06
5.23317e-06
6.46327e-06
7.88451e-06
9.13314e-06
1.00803e-05
1.10274e-05
1.19493e-05
1.27462e-05
1.34591e-05
1.38477e-05
1.39025e-05
1.41331e-05
1.47835e-05
1.52517e-05
1.54935e-05
1.57309e-05
1.59093e-05
1.58325e-05
1.5482e-05
1.56673e-05
3.64067e-06
3.693e-06
1.57793e-05
3.66419e-06
1.59728e-05
1.59407e-05
1.5859e-05
1.59364e-05
3.9425e-06
3.99856e-06
3.73681e-06
4.39439e-06
6.00647e-06
6.80052e-06
6.19639e-06
5.8673e-06
5.38047e-06
5.6595e-06
9.50532e-06
1.2098e-05
1.13129e-05
7.34624e-06
6.32452e-06
5.44306e-06
4.68703e-06
4.03769e-06
3.48177e-06
3.00973e-06
2.61415e-06
2.30606e-06
2.14635e-06
2.9366e-06
3.33382e-06
2.42249e-06
2.00046e-06
2.64591e-06
3.63434e-06
4.46572e-06
5.82025e-06
6.19477e-06
8.47032e-06
9.97883e-06
1.19872e-05
1.40312e-05
1.46309e-05
1.49693e-05
1.56721e-05
3.75441e-06
3.91273e-06
4.00057e-06
4.02957e-06
4.03014e-06
4.04568e-06
4.11112e-06
4.22355e-06
4.34893e-06
4.49324e-06
4.65313e-06
4.80839e-06
4.94853e-06
5.05838e-06
5.1123e-06
5.07247e-06
5.03569e-06
5.06887e-06
5.11317e-06
5.10416e-06
5.40004e-06
5.81371e-06
4.51739e-06
3.87766e-06
5.58701e-06
8.33522e-06
9.52565e-06
8.98082e-06
8.96508e-06
1.25189e-05
1.53853e-05
1.82176e-05
2.12102e-05
2.48698e-05
7.34618e-06
6.32848e-06
5.44793e-06
4.69067e-06
4.03945e-06
3.483e-06
3.00595e-06
2.59127e-06
2.23831e-06
2.02594e-06
2.50543e-06
2.84231e-06
2.51021e-06
2.00749e-06
2.49799e-06
4.56057e-06
7.91956e-06
1.25065e-05
1.36186e-05
1.45933e-05
1.53613e-05
1.60581e-05
3.94061e-06
4.14879e-06
4.35337e-06
4.51866e-06
4.67413e-06
4.80042e-06
4.88705e-06
4.93281e-06
4.93839e-06
4.90298e-06
4.81992e-06
4.69749e-06
4.62444e-06
4.76484e-06
4.98199e-06
5.20891e-06
5.45414e-06
5.71469e-06
6.00667e-06
6.33231e-06
6.65957e-06
7.13991e-06
7.73661e-06
8.29196e-06
8.8145e-06
9.38084e-06
9.96608e-06
1.05859e-05
1.15562e-05
1.25471e-05
1.32632e-05
1.3818e-05
1.44898e-05
1.64494e-05
1.88185e-05
2.11788e-05
2.36855e-05
2.69714e-05
7.3466e-06
6.32841e-06
5.44591e-06
4.68901e-06
4.03939e-06
3.48096e-06
3.00383e-06
2.59341e-06
2.23815e-06
1.97084e-06
2.10725e-06
2.34489e-06
2.30462e-06
2.09773e-06
1.90512e-06
3.06471e-06
5.05419e-06
7.7162e-06
8.81999e-06
1.13884e-05
1.36985e-05
1.48655e-05
1.55585e-05
3.77244e-06
3.95465e-06
4.11016e-06
4.1988e-06
4.23816e-06
4.23643e-06
4.19843e-06
4.12606e-06
4.02875e-06
3.9588e-06
4.02707e-06
4.20877e-06
4.39128e-06
4.61062e-06
4.84774e-06
5.10366e-06
5.39781e-06
5.73541e-06
6.09675e-06
6.44707e-06
6.80148e-06
7.20535e-06
7.72258e-06
8.39658e-06
9.25126e-06
1.02358e-05
1.12371e-05
1.21996e-05
1.3185e-05
1.41419e-05
1.51579e-05
1.62859e-05
1.77179e-05
1.96514e-05
2.18506e-05
2.43881e-05
2.74939e-05
7.34696e-06
6.32751e-06
5.44495e-06
4.6902e-06
4.04231e-06
3.48385e-06
3.00532e-06
2.59792e-06
2.24572e-06
1.95606e-06
1.87152e-06
1.92673e-06
1.91711e-06
1.82803e-06
1.70341e-06
2.04571e-06
3.15548e-06
4.43302e-06
5.05614e-06
6.83343e-06
9.64017e-06
1.16239e-05
1.26237e-05
1.45094e-05
1.57736e-05
1.6019e-05
1.60485e-05
1.60404e-05
1.59683e-05
1.59802e-05
1.58763e-05
1.57691e-05
1.56993e-05
1.5768e-05
1.59923e-05
1.59519e-05
1.58689e-05
1.55011e-05
3.77254e-06
4.05423e-06
4.4744e-06
4.72044e-06
5.05639e-06
5.15592e-06
5.13038e-06
5.44563e-06
6.13027e-06
7.08268e-06
8.31675e-06
9.63043e-06
1.07053e-05
1.16731e-05
1.2643e-05
1.38026e-05
1.53708e-05
1.69648e-05
1.87215e-05
2.08264e-05
2.35325e-05
2.71158e-05
7.34718e-06
6.32672e-06
5.44545e-06
4.69354e-06
4.04733e-06
3.4888e-06
3.01012e-06
2.60286e-06
2.25501e-06
1.96184e-06
1.76942e-06
1.68025e-06
1.6069e-06
1.52318e-06
1.44209e-06
1.54373e-06
2.08514e-06
2.70398e-06
3.13833e-06
4.00351e-06
5.64778e-06
7.54598e-06
9.44215e-06
1.15174e-05
1.32734e-05
1.41067e-05
1.43879e-05
1.4404e-05
1.42008e-05
1.39133e-05
1.36988e-05
1.3606e-05
1.34335e-05
1.34669e-05
1.3761e-05
1.43452e-05
1.44533e-05
1.41949e-05
1.38337e-05
1.39706e-05
1.50888e-05
1.60123e-05
3.9323e-06
3.84868e-06
1.50618e-05
1.43884e-05
1.40288e-05
1.33933e-05
3.8454e-06
6.161e-06
7.14573e-06
7.88999e-06
8.24251e-06
8.92151e-06
1.10631e-05
1.35877e-05
1.55245e-05
1.72486e-05
2.01971e-05
2.52488e-05
7.34842e-06
6.32415e-06
5.44119e-06
4.69047e-06
4.04484e-06
3.48738e-06
3.01144e-06
2.60688e-06
2.26072e-06
1.96928e-06
1.74311e-06
1.58369e-06
1.45685e-06
1.34872e-06
1.2639e-06
1.26595e-06
1.47538e-06
1.74e-06
1.98416e-06
2.35772e-06
3.00887e-06
3.98345e-06
5.33887e-06
7.35434e-06
9.39149e-06
1.07853e-05
1.1551e-05
1.18847e-05
1.19452e-05
1.19305e-05
1.19975e-05
1.21434e-05
1.23039e-05
1.24707e-05
1.26892e-05
1.28605e-05
1.28939e-05
1.28417e-05
1.27619e-05
1.26931e-05
1.27214e-05
1.28517e-05
1.31716e-05
1.30553e-05
1.2901e-05
1.2787e-05
1.24655e-05
1.209e-05
1.181e-05
1.58072e-05
3.96495e-06
4.17734e-06
4.47616e-06
4.82989e-06
5.68021e-06
8.38875e-06
1.08027e-05
1.21575e-05
1.37268e-05
1.6035e-05
7.36197e-06
6.37024e-06
5.5204e-06
4.8061e-06
4.18818e-06
3.64668e-06
3.18373e-06
2.78814e-06
2.4425e-06
2.1414e-06
1.8911e-06
1.69727e-06
1.54628e-06
1.42357e-06
1.31897e-06
1.24013e-06
1.24026e-06
1.29767e-06
1.38222e-06
1.51094e-06
1.69866e-06
1.98917e-06
2.45637e-06
3.47222e-06
4.8721e-06
6.12244e-06
7.01619e-06
7.53965e-06
7.77332e-06
7.86647e-06
7.96825e-06
8.15207e-06
8.41415e-06
8.76918e-06
9.1437e-06
9.41067e-06
9.603e-06
9.79855e-06
1.00254e-05
1.02725e-05
1.05325e-05
1.07938e-05
1.10289e-05
1.11513e-05
1.11888e-05
1.14165e-05
1.16894e-05
1.16175e-05
1.14586e-05
1.17885e-05
1.2176e-05
1.28077e-05
1.34163e-05
1.42751e-05
1.52101e-05
4.40627e-06
5.81306e-06
7.04603e-06
8.01082e-06
8.60027e-06
9.4661e-06
9.36108e-06
9.24726e-06
9.14977e-06
9.04516e-06
8.9235e-06
8.78649e-06
8.61992e-06
8.3869e-06
8.06913e-06
7.72911e-06
7.52174e-06
7.48587e-06
7.55864e-06
7.60294e-06
7.41204e-06
7.10411e-06
6.92431e-06
6.84399e-06
6.83378e-06
6.95993e-06
7.21036e-06
7.60423e-06
8.04874e-06
8.57374e-06
9.2116e-06
9.93711e-06
1.07283e-05
1.15704e-05
1.24641e-05
1.34062e-05
1.43973e-05
1.54381e-05
6.22295e-06
6.39777e-06
6.57404e-06
6.77464e-06
7.00042e-06
7.24067e-06
7.47814e-06
7.69752e-06
7.90334e-06
8.1128e-06
8.36649e-06
8.68048e-06
9.04071e-06
9.37167e-06
9.67371e-06
9.90144e-06
1.0041e-05
1.02424e-05
1.05137e-05
1.08524e-05
1.12288e-05
1.1581e-05
1.18494e-05
1.21103e-05
1.24469e-05
1.28458e-05
1.33101e-05
9.45583e-06
9.35276e-06
9.24454e-06
9.13307e-06
9.01329e-06
8.90528e-06
8.79837e-06
8.70184e-06
8.60284e-06
8.5087e-06
8.50225e-06
8.74964e-06
8.98931e-06
9.10844e-06
9.45325e-06
9.00891e-06
8.78238e-06
9.34645e-06
1.0136e-05
1.13135e-05
1.27714e-05
1.42736e-05
1.54622e-05
6.15703e-06
6.2662e-06
6.35713e-06
6.4644e-06
6.59698e-06
6.75549e-06
6.92878e-06
7.08564e-06
7.22109e-06
7.36072e-06
7.51824e-06
7.69624e-06
7.91082e-06
8.14904e-06
8.38359e-06
8.56184e-06
8.68725e-06
8.85221e-06
9.15406e-06
9.434e-06
9.66134e-06
9.8237e-06
9.96553e-06
1.01143e-05
1.02906e-05
1.04571e-05
1.06208e-05
1.06954e-05
1.08887e-05
1.12323e-05
1.12993e-05
1.15428e-05
1.16083e-05
1.16784e-05
1.23895e-05
1.36107e-05
1.51595e-05
7.3575e-06
6.37027e-06
5.52581e-06
4.8101e-06
4.2025e-06
3.68773e-06
3.25639e-06
2.93962e-06
2.7531e-06
2.5463e-06
3.72145e-06
4.51759e-06
3.99151e-06
3.6647e-06
2.9218e-06
2.62432e-06
3.02793e-06
3.36375e-06
4.15295e-06
5.22021e-06
6.4517e-06
7.87718e-06
9.13803e-06
1.00805e-05
1.09995e-05
1.19094e-05
1.26929e-05
1.33971e-05
1.38067e-05
1.38644e-05
1.39925e-05
1.45873e-05
1.50905e-05
1.53987e-05
1.56837e-05
1.58463e-05
1.57036e-05
1.53354e-05
1.54149e-05
1.61335e-05
1.6172e-05
1.59145e-05
3.76269e-06
3.76527e-06
1.59575e-05
1.5935e-05
3.74996e-06
3.9381e-06
4.04863e-06
3.86627e-06
4.32542e-06
5.88818e-06
6.73735e-06
6.16983e-06
5.83833e-06
5.41096e-06
5.52073e-06
9.34303e-06
1.18614e-05
1.14806e-05
7.3463e-06
6.32391e-06
5.44298e-06
4.68914e-06
4.04114e-06
3.48491e-06
3.00951e-06
2.61293e-06
2.30507e-06
2.1417e-06
2.9177e-06
3.3248e-06
2.42861e-06
2.00944e-06
2.66084e-06
3.64408e-06
4.43782e-06
5.85688e-06
6.10159e-06
8.42091e-06
9.97674e-06
1.19887e-05
1.40528e-05
1.47219e-05
1.49908e-05
1.5618e-05
1.59585e-05
3.88847e-06
3.97346e-06
4.00059e-06
4.0018e-06
4.01904e-06
4.08755e-06
4.19824e-06
4.32451e-06
4.46973e-06
4.62621e-06
4.77623e-06
4.91808e-06
5.02605e-06
5.07393e-06
5.01627e-06
4.96205e-06
4.98334e-06
5.03515e-06
5.07598e-06
5.47619e-06
5.97933e-06
4.82116e-06
3.90291e-06
5.43964e-06
8.31308e-06
9.50648e-06
8.92872e-06
8.93523e-06
1.25862e-05
1.55418e-05
1.8474e-05
2.15024e-05
2.50367e-05
7.34688e-06
6.32668e-06
5.44645e-06
4.69322e-06
4.04401e-06
3.48469e-06
3.00511e-06
2.59106e-06
2.23831e-06
2.02181e-06
2.48993e-06
2.83171e-06
2.50726e-06
2.00804e-06
2.52171e-06
4.56059e-06
7.82457e-06
1.25218e-05
1.36194e-05
1.45965e-05
1.53462e-05
3.74448e-06
3.93366e-06
4.13982e-06
4.34244e-06
4.50508e-06
4.65616e-06
4.77807e-06
4.86019e-06
4.9001e-06
4.89836e-06
4.85535e-06
4.76571e-06
4.6431e-06
4.59654e-06
4.76458e-06
4.98614e-06
5.22596e-06
5.4758e-06
5.73564e-06
6.02195e-06
6.33638e-06
6.65534e-06
7.13608e-06
7.7335e-06
8.29522e-06
8.82336e-06
9.39556e-06
9.97992e-06
1.05857e-05
1.15667e-05
1.25779e-05
1.33007e-05
1.38528e-05
1.45082e-05
1.64899e-05
1.89134e-05
2.13709e-05
2.3926e-05
2.70658e-05
7.34705e-06
6.32475e-06
5.44447e-06
4.69261e-06
4.04489e-06
3.4849e-06
3.00478e-06
2.59296e-06
2.23789e-06
1.96896e-06
2.0975e-06
2.33498e-06
2.29853e-06
2.09388e-06
1.909e-06
3.10382e-06
5.05256e-06
7.6715e-06
8.75806e-06
1.1355e-05
1.36853e-05
1.48427e-05
1.55417e-05
1.61264e-05
3.94073e-06
4.09531e-06
4.18039e-06
4.21517e-06
4.2079e-06
4.16565e-06
4.0915e-06
3.9963e-06
3.94014e-06
4.03455e-06
4.20735e-06
4.3909e-06
4.61064e-06
4.84964e-06
5.11394e-06
5.41518e-06
5.75398e-06
6.12191e-06
6.45087e-06
6.79933e-06
7.19609e-06
7.70674e-06
8.38028e-06
9.23999e-06
1.02327e-05
1.12331e-05
1.21991e-05
1.32027e-05
1.41714e-05
1.51899e-05
1.63057e-05
1.77381e-05
1.96795e-05
2.18883e-05
2.44242e-05
2.75114e-05
7.34757e-06
6.32399e-06
5.44444e-06
4.69401e-06
4.04687e-06
3.48727e-06
3.00736e-06
2.5972e-06
2.24436e-06
1.95534e-06
1.86676e-06
1.92046e-06
1.91235e-06
1.82509e-06
1.70264e-06
2.03923e-06
3.14357e-06
4.40322e-06
5.01644e-06
6.80601e-06
9.63613e-06
1.16325e-05
1.27042e-05
1.44142e-05
1.57321e-05
1.6132e-05
3.72951e-06
3.73265e-06
1.60239e-05
1.59789e-05
1.58532e-05
1.57334e-05
1.56712e-05
1.57811e-05
1.6016e-05
1.59608e-05
1.57944e-05
1.5522e-05
1.63831e-05
4.08549e-06
4.49072e-06
4.79688e-06
5.17236e-06
5.2396e-06
5.15438e-06
5.42261e-06
6.10516e-06
7.05886e-06
8.30296e-06
9.6213e-06
1.07146e-05
1.17003e-05
1.26965e-05
1.38554e-05
1.54086e-05
1.69844e-05
1.87423e-05
2.08486e-05
2.35567e-05
2.71256e-05
7.34968e-06
6.32518e-06
5.44602e-06
4.69756e-06
4.05059e-06
3.49057e-06
3.01113e-06
2.6026e-06
2.25351e-06
1.96086e-06
1.76809e-06
1.67756e-06
1.60498e-06
1.52252e-06
1.44302e-06
1.55017e-06
2.06966e-06
2.68367e-06
3.11091e-06
3.97877e-06
5.63573e-06
7.55778e-06
9.49667e-06
1.15907e-05
1.33336e-05
1.41479e-05
1.43554e-05
1.43692e-05
1.42037e-05
1.39239e-05
1.3744e-05
1.36594e-05
1.34627e-05
1.3553e-05
1.3745e-05
1.42377e-05
1.43498e-05
1.41038e-05
1.37445e-05
1.38687e-05
1.50166e-05
3.71765e-06
3.94075e-06
3.86224e-06
1.50851e-05
1.43715e-05
1.40001e-05
1.33652e-05
3.84498e-06
6.2038e-06
7.17985e-06
7.9454e-06
8.29371e-06
8.94235e-06
1.1072e-05
1.35974e-05
1.55327e-05
1.72404e-05
2.01872e-05
2.52327e-05
7.35258e-06
6.32359e-06
5.44188e-06
4.69303e-06
4.0455e-06
3.488e-06
3.01327e-06
2.60793e-06
2.26014e-06
1.96813e-06
1.74198e-06
1.58328e-06
1.45785e-06
1.34996e-06
1.26564e-06
1.27055e-06
1.46766e-06
1.72634e-06
1.96515e-06
2.33849e-06
2.99538e-06
3.99118e-06
5.38503e-06
7.42291e-06
9.45179e-06
1.08229e-05
1.15657e-05
1.18871e-05
1.19432e-05
1.19386e-05
1.20203e-05
1.21782e-05
1.23461e-05
1.25193e-05
1.27418e-05
1.29014e-05
1.29281e-05
1.28782e-05
1.28049e-05
1.27442e-05
1.27755e-05
1.28911e-05
1.31814e-05
1.30089e-05
1.27466e-05
1.26554e-05
1.2404e-05
1.2087e-05
1.17938e-05
3.69662e-06
4.08049e-06
4.28778e-06
4.56453e-06
4.88819e-06
5.72997e-06
8.43265e-06
1.08136e-05
1.21488e-05
1.36895e-05
1.59436e-05
7.36477e-06
6.36937e-06
5.52152e-06
4.80955e-06
4.19176e-06
3.64874e-06
3.18717e-06
2.79067e-06
2.44283e-06
2.1416e-06
1.89175e-06
1.69779e-06
1.54706e-06
1.42467e-06
1.3199e-06
1.24019e-06
1.23655e-06
1.29091e-06
1.37164e-06
1.49865e-06
1.68701e-06
1.98734e-06
2.48156e-06
3.52874e-06
4.93292e-06
6.16587e-06
7.03532e-06
7.5394e-06
7.75973e-06
7.8514e-06
7.9614e-06
8.15673e-06
8.42726e-06
8.79679e-06
9.16979e-06
9.42699e-06
9.62197e-06
9.82878e-06
1.00671e-05
1.03199e-05
1.05789e-05
1.08397e-05
1.1067e-05
1.1175e-05
1.12114e-05
1.15089e-05
1.17159e-05
1.15631e-05
1.14545e-05
1.17898e-05
1.2143e-05
1.28595e-05
1.35742e-05
1.44547e-05
1.53448e-05
4.4434e-06
5.84267e-06
7.05441e-06
7.99108e-06
8.53725e-06
9.44945e-06
9.35027e-06
9.25042e-06
9.14677e-06
9.03896e-06
8.93048e-06
8.80256e-06
8.638e-06
8.40239e-06
8.0773e-06
7.73189e-06
7.52557e-06
7.49837e-06
7.58093e-06
7.63141e-06
7.44804e-06
7.1424e-06
6.9521e-06
6.86539e-06
6.848e-06
6.97159e-06
7.21388e-06
7.58943e-06
8.01837e-06
8.54608e-06
9.19045e-06
9.92058e-06
1.0712e-05
1.15527e-05
1.24445e-05
1.33862e-05
1.43787e-05
1.5428e-05
6.21714e-06
6.38563e-06
6.56165e-06
6.76607e-06
6.99592e-06
7.23716e-06
7.47398e-06
7.69349e-06
7.90002e-06
8.11324e-06
8.37193e-06
8.69924e-06
9.05363e-06
9.373e-06
9.66596e-06
9.87803e-06
1.00428e-05
1.02812e-05
1.05505e-05
1.08619e-05
1.12271e-05
1.15845e-05
1.18487e-05
1.21001e-05
1.24304e-05
1.28263e-05
1.32896e-05
)
;

boundaryField
{
    wall
    {
        type            nutkWallFunction;
        Cmu             0.09;
        kappa           0.41;
        E               9.8;
        value           nonuniform List<scalar> 
1200
(
0
0
0
0
0
0
0
0
0
0
0
0
0
0
0
0
0
0
0
0
0
0
0
0
0
0
0
0
0
0
0
0
0
0
0
0
0
0
0
0
0
0
0
0
0
0
0
0
0
0
0
0
0
0
0
0
0
0
0
0
0
0
0
0
0
0
0
0
0
0
0
0
0
0
0
0
0
0
0
0
0
0
0
0
0
0
0
0
0
0
0
0
0
0
0
0
0
0
0
0
0
0
0
0
0
0
0
0
0
0
0
0
0
0
0
0
0
0
0
0
0
0
0
0
0
0
0
0
0
0
0
0
0
0
0
0
0
0
0
0
0
0
0
0
0
0
0
0
0
0
0
0
0
0
0
0
0
0
0
0
0
0
0
0
0
0
0
0
0
0
0
0
0
0
0
0
0
0
0
0
0
0
0
0
0
0
0
0
0
0
0
0
0
0
0
0
0
0
0
0
0
0
0
0
0
0
0
0
0
0
0
0
0
6.86115e-10
0
0
0
0
0
0
0
0
0
2.66701e-08
0
0
0
0
0
0
1.11486e-08
0
0
6.15868e-08
0
0
0
0
0
0
2.17475e-08
0
0
9.53392e-08
3.03297e-08
0
0
0
0
0
3.11493e-08
0
0
1.22869e-07
5.62565e-08
2.47346e-10
0
0
0
0
4.27033e-08
0
0
1.48846e-07
7.15399e-08
5.21778e-10
0
0
0
0
5.67318e-08
0
2.56936e-08
1.69988e-07
7.89502e-08
4.6001e-10
0
0
0
0
7.28534e-08
0
4.08942e-08
1.8485e-07
7.97189e-08
0
0
0
0
0
8.93118e-08
0
4.62015e-08
1.93437e-07
7.43679e-08
0
0
0
0
0
1.03911e-07
0
4.63586e-08
1.95759e-07
6.30911e-08
0
0
0
0
0
1.17976e-07
0
4.8394e-08
1.91462e-07
4.7477e-08
0
0
0
0
0
1.34171e-07
0
5.83587e-08
1.79524e-07
3.47593e-08
0
0
0
0
0
1.5221e-07
0
7.68138e-08
1.60968e-07
3.96407e-08
0
0
0
0
1.59046e-08
1.71279e-07
0
9.7376e-08
1.47033e-07
6.85313e-08
0
0
0
0
3.34424e-08
1.91912e-07
0
1.20796e-07
1.63077e-07
9.9241e-08
0
0
0
0
5.18445e-08
2.13874e-07
0
1.46855e-07
1.98322e-07
1.34916e-07
0
0
0
0
7.29583e-08
2.34621e-07
0
1.72286e-07
2.35262e-07
1.73723e-07
0
0
0
0
9.63991e-08
2.50773e-07
0
1.95183e-07
2.73852e-07
2.15843e-07
1.39415e-10
0
0
0
1.20823e-07
2.64341e-07
0
2.13198e-07
3.15062e-07
2.64343e-07
3.87692e-08
0
0
0
1.44739e-07
2.82842e-07
0
2.22891e-07
3.59758e-07
3.17963e-07
1.09767e-07
0
0
0
1.669e-07
3.12393e-07
0
2.19986e-07
4.07727e-07
3.73723e-07
1.72542e-07
7.60426e-11
0
0
1.87822e-07
3.39127e-07
0
2.18547e-07
4.57997e-07
4.24997e-07
2.24096e-07
2.27405e-08
0
0
2.09449e-07
3.60246e-07
0
2.26775e-07
5.31085e-07
4.77898e-07
2.35235e-07
8.66345e-09
0
0
2.35297e-07
3.75732e-07
0
2.35253e-07
6.20217e-07
5.37517e-07
2.21897e-07
0
0
0
2.67211e-07
3.89589e-07
0
2.25893e-07
7.02922e-07
6.14649e-07
2.62483e-07
0
0
0
3.01784e-07
4.03079e-07
0
2.45012e-07
7.81655e-07
7.15423e-07
3.69788e-07
0
0
0
3.33087e-07
4.20675e-07
1.12304e-08
2.60769e-07
8.65966e-07
8.41863e-07
5.1653e-07
0
0
0
3.61603e-07
4.38084e-07
2.96739e-08
8.42954e-08
9.5141e-07
9.86084e-07
7.04412e-07
9.88368e-09
0
0
3.8237e-07
4.49454e-07
1.57613e-08
3.63974e-08
1.03774e-06
1.13012e-06
8.97018e-07
3.80601e-07
0
0
3.98353e-07
4.59914e-07
1.29698e-07
3.23349e-07
1.17711e-06
1.26735e-06
1.05542e-06
5.32354e-07
4.47088e-08
0
4.20698e-07
4.70584e-07
3.74023e-07
7.13584e-07
1.3218e-06
1.40772e-06
1.19628e-06
6.51457e-07
8.29849e-08
0
4.45974e-07
4.96507e-07
4.7601e-07
8.83647e-07
1.42326e-06
1.54265e-06
1.33721e-06
7.04475e-07
1.30799e-07
0
4.76183e-07
5.10221e-07
3.81534e-07
8.00133e-07
1.50023e-06
1.68287e-06
1.49869e-06
7.99092e-07
1.81536e-07
0
5.12476e-07
5.31035e-07
3.26221e-07
7.9676e-07
1.58977e-06
1.83483e-06
1.71203e-06
1.10672e-06
3.14645e-07
0
5.46606e-07
5.23733e-07
2.50573e-07
1.31739e-06
1.8573e-06
2.02741e-06
1.92609e-06
1.46241e-06
7.23257e-07
1.08072e-07
5.71175e-07
5.52407e-07
3.48812e-07
1.72889e-06
2.18041e-06
2.28566e-06
2.1613e-06
1.72884e-06
1.06963e-06
3.30653e-07
5.94504e-07
6.26564e-07
9.08596e-07
2.11998e-06
2.50273e-06
2.57564e-06
2.43933e-06
1.95905e-06
1.25794e-06
5.15395e-07
6.25399e-07
7.82231e-07
1.29157e-06
2.53428e-06
2.83878e-06
2.90453e-06
2.79152e-06
2.34863e-06
1.47001e-06
6.53761e-07
6.62194e-07
9.26189e-07
1.18315e-06
2.98589e-06
3.24648e-06
3.2991e-06
3.24921e-06
3.00452e-06
1.77645e-06
7.33692e-07
7.05217e-07
0
0
0
0
0
0
0
0
0
0
0
0
0
0
0
0
0
0
0
0
0
0
0
0
0
0
0
0
0
0
0
0
0
0
0
0
0
0
0
0
0
0
0
0
0
0
0
0
0
0
0
0
0
0
0
0
0
0
0
0
0
0
0
0
0
0
0
0
0
0
0
0
0
0
0
0
0
0
0
0
0
0
0
0
0
0
0
0
0
0
0
0
0
0
0
0
0
0
0
0
0
0
0
0
0
0
0
0
0
0
0
0
0
0
0
0
0
0
0
0
0
0
0
0
0
0
0
0
0
0
0
0
0
0
0
0
0
0
0
0
0
0
0
0
0
0
0
0
0
0
0
0
0
0
0
0
0
0
0
0
0
0
0
0
0
0
0
0
0
0
0
0
0
0
0
0
0
0
0
0
0
0
0
0
0
0
0
0
0
0
0
0
0
0
0
0
0
0
0
0
0
0
0
0
0
0
0
0
0
0
0
0
0
0
0
0
0
0
0
0
0
0
0
2.55747e-08
0
0
0
0
0
0
1.09208e-08
0
0
6.00902e-08
1.03456e-09
0
0
0
0
0
2.18376e-08
0
0
9.36081e-08
2.81261e-08
0
0
0
0
0
3.1253e-08
0
0
1.20661e-07
5.38845e-08
0
0
0
0
0
4.25996e-08
0
0
1.45952e-07
6.86215e-08
0
0
0
0
0
5.64853e-08
0
2.16969e-08
1.66464e-07
7.52797e-08
0
0
0
0
0
7.27351e-08
0
3.64097e-08
1.80613e-07
7.5173e-08
2.58178e-11
0
0
0
0
8.97994e-08
0
4.13523e-08
1.8824e-07
6.91363e-08
0
0
0
0
0
1.04934e-07
0
4.1515e-08
1.8941e-07
5.74928e-08
0
0
0
0
0
1.18764e-07
0
4.39088e-08
1.83983e-07
4.18153e-08
0
0
0
0
0
1.34012e-07
0
5.44962e-08
1.71009e-07
3.02935e-08
0
0
0
0
0
1.511e-07
0
7.27602e-08
1.52133e-07
3.89211e-08
0
0
0
0
1.51504e-08
1.69731e-07
0
9.34135e-08
1.41455e-07
6.7735e-08
3.03197e-10
0
0
0
3.22137e-08
1.9093e-07
0
1.16899e-07
1.63304e-07
9.88034e-08
0
0
0
0
5.07777e-08
2.13942e-07
0
1.42813e-07
1.99479e-07
1.34309e-07
0
0
0
0
7.23089e-08
2.3555e-07
0
1.67579e-07
2.3772e-07
1.73197e-07
0
0
0
0
9.60172e-08
2.52945e-07
0
1.90503e-07
2.77142e-07
2.16339e-07
3.91139e-09
0
0
0
1.20414e-07
2.67351e-07
4.47812e-10
2.0814e-07
3.18575e-07
2.65987e-07
4.3002e-08
0
0
0
1.44243e-07
2.87544e-07
1.15971e-09
2.16686e-07
3.6282e-07
3.19712e-07
1.13729e-07
0
0
0
1.66413e-07
3.16044e-07
0
2.1067e-07
4.09572e-07
3.7505e-07
1.78061e-07
0
0
0
1.87246e-07
3.4077e-07
8.94236e-10
2.06358e-07
4.59603e-07
4.25207e-07
2.30617e-07
2.41324e-08
0
0
2.09328e-07
3.59159e-07
0
2.12691e-07
5.32312e-07
4.77178e-07
2.41175e-07
1.01595e-08
0
0
2.36327e-07
3.72809e-07
0
2.21492e-07
6.20702e-07
5.35818e-07
2.2677e-07
0
0
0
2.69763e-07
3.86498e-07
0
2.2028e-07
7.03544e-07
6.1332e-07
2.61091e-07
0
0
0
3.03197e-07
4.01948e-07
0
2.6233e-07
7.83115e-07
7.13968e-07
3.66799e-07
0
0
0
3.33242e-07
4.1901e-07
1.49051e-08
3.11515e-07
8.68201e-07
8.40287e-07
5.12493e-07
0
0
0
3.61021e-07
4.35405e-07
4.38456e-08
1.19235e-07
9.54213e-07
9.85086e-07
7.00768e-07
7.5905e-09
0
0
3.81387e-07
4.50461e-07
3.79615e-08
3.28591e-08
1.04038e-06
1.12917e-06
8.95176e-07
3.82873e-07
0
0
3.99918e-07
4.60949e-07
1.17868e-07
2.95248e-07
1.18033e-06
1.26739e-06
1.05561e-06
5.33295e-07
5.22464e-08
0
4.23747e-07
4.74662e-07
3.55779e-07
7.18472e-07
1.32648e-06
1.40954e-06
1.19846e-06
6.57722e-07
9.71279e-08
0
4.47721e-07
4.94251e-07
4.67957e-07
8.84069e-07
1.42904e-06
1.54627e-06
1.34324e-06
7.11327e-07
1.44689e-07
0
4.76804e-07
5.01223e-07
3.75342e-07
7.97804e-07
1.50598e-06
1.68704e-06
1.50479e-06
8.0159e-07
1.90356e-07
0
5.13701e-07
5.20436e-07
3.19167e-07
8.03536e-07
1.59393e-06
1.83783e-06
1.71629e-06
1.10739e-06
3.22308e-07
0
5.48316e-07
5.29149e-07
2.5359e-07
1.32641e-06
1.86278e-06
2.03037e-06
1.92872e-06
1.46328e-06
7.28523e-07
1.13299e-07
5.71709e-07
5.50947e-07
3.16201e-07
1.74559e-06
2.19123e-06
2.28946e-06
2.16412e-06
1.72971e-06
1.07103e-06
3.3531e-07
5.93784e-07
6.23353e-07
8.83789e-07
2.1521e-06
2.52412e-06
2.58031e-06
2.44239e-06
1.958e-06
1.25657e-06
5.16625e-07
6.24203e-07
7.57883e-07
1.2562e-06
2.56965e-06
2.86666e-06
2.90897e-06
2.79468e-06
2.34779e-06
1.46428e-06
6.50306e-07
6.60764e-07
9.03819e-07
1.20619e-06
3.01366e-06
3.26297e-06
3.30162e-06
3.2506e-06
3.00293e-06
1.76149e-06
7.22433e-07
7.03616e-07
)
;
    }
    inlet
    {
        type            calculated;
        value           uniform 0.000190513;
    }
    outlet
    {
        type            calculated;
        value           nonuniform List<scalar> 
20
(
1.54132e-05
1.13129e-05
0.0081
0.0081
0.0081
0.0081
0.0081
1.6035e-05
8.60027e-06
1.33101e-05
1.51595e-05
1.14806e-05
0.0081
0.0081
0.0081
0.0081
0.0081
1.59436e-05
8.53725e-06
1.32896e-05
)
;
    }
    heatWall
    {
        type            nutkWallFunction;
        Cmu             0.09;
        kappa           0.41;
        E               9.8;
        value           nonuniform List<scalar> 
240
(
1.08904e-06
1.08851e-06
1.07836e-06
1.07815e-06
1.06733e-06
1.06749e-06
1.05665e-06
1.05638e-06
1.04535e-06
1.04499e-06
1.03293e-06
1.03364e-06
1.01888e-06
1.02019e-06
1.00097e-06
1.00207e-06
9.74875e-07
9.75708e-07
9.38843e-07
9.39622e-07
9.00451e-07
9.01204e-07
8.77355e-07
8.7828e-07
8.74149e-07
8.75806e-07
8.83231e-07
8.85691e-07
8.88907e-07
8.91984e-07
8.67889e-07
8.71699e-07
8.32522e-07
8.36335e-07
8.10332e-07
8.13044e-07
7.99867e-07
8.01947e-07
7.97974e-07
7.9924e-07
8.12988e-07
8.13586e-07
8.42252e-07
8.4168e-07
8.86496e-07
8.84443e-07
9.35009e-07
9.3249e-07
9.92652e-07
9.90652e-07
1.06174e-06
1.06009e-06
1.13834e-06
1.13685e-06
1.21942e-06
1.21784e-06
1.30338e-06
1.30163e-06
1.3902e-06
1.3883e-06
1.47967e-06
1.47771e-06
1.57168e-06
1.56991e-06
1.66647e-06
1.66537e-06
1.72982e-06
1.72734e-06
1.78737e-06
1.78333e-06
1.8478e-06
1.84429e-06
1.9172e-06
1.91507e-06
1.99432e-06
1.99306e-06
2.07473e-06
2.07339e-06
2.15353e-06
2.15189e-06
2.22659e-06
2.22498e-06
2.29561e-06
2.29371e-06
2.367e-06
2.36659e-06
2.45238e-06
2.45578e-06
2.55788e-06
2.56632e-06
2.67228e-06
2.67695e-06
2.77593e-06
2.77644e-06
2.87042e-06
2.86849e-06
2.93928e-06
2.93601e-06
2.99228e-06
2.99747e-06
3.06643e-06
3.07655e-06
3.15035e-06
3.15615e-06
3.25071e-06
3.25277e-06
3.37137e-06
3.37544e-06
3.48491e-06
3.4906e-06
3.56669e-06
3.56846e-06
3.64438e-06
3.64198e-06
3.74733e-06
3.74334e-06
3.87002e-06
3.86525e-06
4.01357e-06
4.00823e-06
1.08857e-06
1.08902e-06
1.07826e-06
1.07843e-06
1.06731e-06
1.06731e-06
1.05584e-06
1.05573e-06
1.04378e-06
1.0433e-06
1.03173e-06
1.03142e-06
1.01945e-06
1.01952e-06
1.00821e-06
1.00865e-06
9.97201e-07
9.97836e-07
9.84359e-07
9.85643e-07
9.86689e-07
9.8636e-07
1.01575e-06
1.01419e-06
1.04301e-06
1.04092e-06
1.05558e-06
1.05374e-06
1.09116e-06
1.08989e-06
1.04686e-06
1.04542e-06
1.02529e-06
1.02107e-06
1.08575e-06
1.08091e-06
1.1685e-06
1.16344e-06
1.28851e-06
1.28284e-06
1.43007e-06
1.42447e-06
1.56973e-06
1.56469e-06
1.67227e-06
1.6704e-06
1.71258e-06
1.71184e-06
1.74736e-06
1.74766e-06
1.77826e-06
1.77861e-06
1.81626e-06
1.81593e-06
1.8624e-06
1.8616e-06
1.91543e-06
1.91505e-06
1.9696e-06
1.97121e-06
2.01772e-06
2.02108e-06
2.0641e-06
2.06669e-06
2.11749e-06
2.11697e-06
2.17695e-06
2.17331e-06
2.23984e-06
2.23475e-06
2.30792e-06
2.3047e-06
2.38044e-06
2.38068e-06
2.449e-06
2.45208e-06
2.50244e-06
2.50962e-06
2.54736e-06
2.5573e-06
2.60858e-06
2.62411e-06
2.70636e-06
2.71844e-06
2.79491e-06
2.80034e-06
2.86493e-06
2.86133e-06
2.91633e-06
2.90665e-06
2.96234e-06
2.9521e-06
3.00713e-06
3.00338e-06
3.06555e-06
3.06002e-06
3.12336e-06
3.11447e-06
3.16115e-06
3.16448e-06
3.19592e-06
3.19935e-06
3.2315e-06
3.24502e-06
3.31772e-06
3.31019e-06
3.36337e-06
3.33346e-06
3.43264e-06
3.3974e-06
3.40843e-06
3.42644e-06
3.50384e-06
3.49899e-06
3.75086e-06
3.74016e-06
4.27057e-06
4.18919e-06
4.75234e-06
4.67741e-06
)
;
    }
}


// ************************************************************************* //
