/*--------------------------------*- C++ -*----------------------------------*\
  =========                 |
  \\      /  F ield         | OpenFOAM: The Open Source CFD Toolbox
   \\    /   O peration     | Website:  https://openfoam.org
    \\  /    A nd           | Version:  8
     \\/     M anipulation  |
\*---------------------------------------------------------------------------*/
FoamFile
{
    version     2.0;
    format      ascii;
    class       volScalarField;
    location    "300";
    object      alphat;
}
// * * * * * * * * * * * * * * * * * * * * * * * * * * * * * * * * * * * * * //

dimensions      [1 -1 -1 0 0 0 0];

internalField   nonuniform List<scalar> 
8400
(
0.347611
0.347284
0.346955
0.346625
0.346294
0.345962
0.345628
0.345291
0.344953
0.344613
0.34427
0.343924
0.343575
0.343222
0.342866
0.342507
0.342143
0.341775
0.341403
0.341026
0.340644
0.340257
0.339865
0.339467
0.339064
0.338655
0.338242
0.337829
0.337416
0.337004
0.336596
0.336193
0.335797
0.335409
0.335033
0.334671
0.334327
0.334005
0.33371
0.333447
0.333222
0.333045
0.332923
0.33287
0.332899
0.33303
0.333288
0.333707
0.334331
0.335219
0.147052
0.147132
0.147207
0.147278
0.147349
0.147419
0.147488
0.147555
0.147623
0.147689
0.147754
0.147818
0.147882
0.147945
0.148007
0.14807
0.148132
0.148195
0.148258
0.148324
0.148391
0.14846
0.148534
0.148612
0.148695
0.148786
0.148882
0.148982
0.149085
0.149192
0.149303
0.14942
0.149543
0.149673
0.149812
0.14996
0.150119
0.150291
0.150477
0.150681
0.150905
0.151151
0.151424
0.151729
0.152071
0.152456
0.152895
0.153399
0.153983
0.154668
0.092749
0.0929319
0.0931149
0.0932979
0.0934806
0.093663
0.0938449
0.0940265
0.0942075
0.0943881
0.0945682
0.0947478
0.0949271
0.0951059
0.0952844
0.0954627
0.0956409
0.0958191
0.0959976
0.0961764
0.0963559
0.0965363
0.096718
0.0969015
0.0970873
0.0972759
0.0974656
0.0976556
0.0978461
0.098037
0.0982286
0.0984209
0.0986142
0.0988085
0.0990042
0.0992015
0.0994007
0.0996022
0.0998062
0.100013
0.100224
0.100439
0.10066
0.100886
0.101119
0.101361
0.101613
0.101877
0.102156
0.102454
0.0874238
0.0875919
0.0877604
0.0879293
0.0880985
0.0882682
0.0884384
0.088609
0.0887801
0.0889517
0.0891238
0.0892964
0.0894695
0.0896432
0.0898174
0.0899922
0.0901676
0.0903436
0.0905203
0.0906977
0.0908758
0.0910546
0.0912342
0.0914145
0.0915953
0.0917768
0.091959
0.0921417
0.0923252
0.0925092
0.092694
0.0928794
0.0930655
0.0932523
0.0934398
0.093628
0.0938169
0.0940067
0.0941971
0.0943884
0.0945806
0.0947736
0.0949676
0.0951626
0.0953586
0.0955559
0.0957545
0.0959547
0.0961567
0.0963608
0.0875912
0.0877553
0.0879201
0.0880854
0.0882513
0.0884177
0.0885847
0.0887522
0.0889205
0.0890893
0.0892589
0.0894291
0.0896
0.0897716
0.089944
0.0901171
0.090291
0.0904656
0.090641
0.0908171
0.090994
0.0911717
0.0913501
0.0915292
0.0917091
0.0918897
0.092071
0.0922529
0.0924355
0.0926188
0.0928026
0.0929869
0.0931717
0.093357
0.0935425
0.0937283
0.0939143
0.0941003
0.0942861
0.0944717
0.0946568
0.0948412
0.0950246
0.0952067
0.0953871
0.0955653
0.0957409
0.095913
0.096081
0.0962437
0.0890958
0.089267
0.0894387
0.0896109
0.0897836
0.0899569
0.0901306
0.090305
0.0904799
0.0906555
0.0908317
0.0910085
0.0911859
0.0913641
0.0915429
0.0917224
0.0919026
0.0920835
0.092265
0.0924474
0.0926304
0.0928142
0.0929987
0.093184
0.09337
0.0935567
0.0937442
0.0939324
0.0941213
0.0943108
0.094501
0.0946919
0.0948833
0.0950753
0.0952678
0.0954608
0.0956541
0.0958477
0.0960415
0.0962355
0.0964294
0.0966231
0.0968165
0.0970094
0.0972015
0.0973927
0.0975827
0.0977711
0.0979576
0.0981419
0.0900976
0.0902725
0.090448
0.0906239
0.0908004
0.0909774
0.091155
0.0913332
0.091512
0.0916914
0.0918714
0.0920521
0.0922336
0.0924157
0.0925985
0.092782
0.0929662
0.0931512
0.093337
0.0935235
0.0937107
0.0938987
0.0940875
0.094277
0.0944673
0.0946583
0.0948499
0.0950423
0.0952353
0.095429
0.0956232
0.095818
0.0960132
0.0962089
0.0964048
0.096601
0.0967972
0.0969934
0.0971894
0.0973851
0.0975801
0.0977743
0.0979673
0.0981588
0.0983484
0.0985356
0.09872
0.0989009
0.0990775
0.0992491
0.0914465
0.0916279
0.0918098
0.0919922
0.0921752
0.0923586
0.0925426
0.0927271
0.0929123
0.0930981
0.0932845
0.0934715
0.0936592
0.0938476
0.0940367
0.0942265
0.094417
0.0946083
0.0948003
0.094993
0.0951865
0.0953807
0.0955757
0.0957715
0.095968
0.0961652
0.0963632
0.0965618
0.0967612
0.0969612
0.0971618
0.097363
0.0975648
0.097767
0.0979696
0.0981725
0.0983756
0.0985788
0.098782
0.098985
0.0991876
0.0993896
0.0995908
0.0997909
0.0999896
0.100187
0.100381
0.100573
0.100763
0.100948
0.0925651
0.0927516
0.0929386
0.0931262
0.0933143
0.0935028
0.093692
0.0938817
0.094072
0.0942629
0.0944544
0.0946466
0.0948395
0.0950331
0.0952273
0.0954223
0.095618
0.0958145
0.0960117
0.0962096
0.0964084
0.0966079
0.0968081
0.0970091
0.0972109
0.0974134
0.0976166
0.0978205
0.0980251
0.0982303
0.0984361
0.0986425
0.0988493
0.0990566
0.0992641
0.0994719
0.0996798
0.0998876
0.100095
0.100302
0.100509
0.100715
0.100919
0.101122
0.101323
0.101522
0.101718
0.101911
0.102099
0.102283
0.0938047
0.0939974
0.0941906
0.0943843
0.0945784
0.094773
0.0949682
0.095164
0.0953603
0.0955572
0.0957548
0.095953
0.0961519
0.0963515
0.0965518
0.0967528
0.0969545
0.097157
0.0973603
0.0975643
0.097769
0.0979745
0.0981808
0.0983879
0.0985957
0.0988043
0.0990136
0.0992236
0.0994343
0.0996456
0.0998576
0.10007
0.100283
0.100496
0.10071
0.100924
0.101138
0.101352
0.101566
0.101779
0.101992
0.102204
0.102415
0.102624
0.102831
0.103035
0.103237
0.103435
0.10363
0.103819
0.0950084
0.0952074
0.095407
0.095607
0.0958076
0.0960086
0.0962102
0.0964124
0.0966151
0.0968184
0.0970223
0.0972269
0.0974322
0.0976381
0.0978447
0.0980521
0.0982602
0.098469
0.0986786
0.0988889
0.0991
0.0993119
0.0995246
0.099738
0.0999522
0.100167
0.100383
0.100599
0.100817
0.101034
0.101253
0.101472
0.101691
0.101911
0.102132
0.102353
0.102573
0.102794
0.103015
0.103235
0.103455
0.103674
0.103892
0.104109
0.104324
0.104537
0.104747
0.104954
0.105158
0.105357
0.0961585
0.0963638
0.0965694
0.0967754
0.0969819
0.0971889
0.0973963
0.0976043
0.0978129
0.0980221
0.0982318
0.0984422
0.0986533
0.098865
0.0990774
0.0992905
0.0995044
0.0997189
0.0999343
0.10015
0.100367
0.100585
0.100803
0.101022
0.101242
0.101463
0.101685
0.101907
0.10213
0.102353
0.102577
0.102802
0.103027
0.103253
0.103478
0.103704
0.103931
0.104157
0.104382
0.104607
0.104832
0.105055
0.105277
0.105497
0.105715
0.105929
0.10614
0.106347
0.106549
0.106745
0.0974504
0.097663
0.0978763
0.0980899
0.098304
0.0985186
0.0987337
0.0989493
0.0991655
0.0993822
0.0995995
0.0998174
0.100036
0.100255
0.100475
0.100696
0.100917
0.101139
0.101362
0.101586
0.10181
0.102035
0.102261
0.102488
0.102715
0.102944
0.103173
0.103403
0.103633
0.103864
0.104096
0.104329
0.104562
0.104796
0.10503
0.105265
0.1055
0.105735
0.10597
0.106206
0.10644
0.106675
0.106908
0.107141
0.107372
0.107601
0.107828
0.108053
0.108275
0.108493
0.0985023
0.0987217
0.0989415
0.0991616
0.0993821
0.0996029
0.0998242
0.100046
0.100268
0.100491
0.100714
0.100938
0.101163
0.101388
0.101613
0.10184
0.102067
0.102295
0.102523
0.102752
0.102982
0.103213
0.103444
0.103676
0.103909
0.104143
0.104377
0.104612
0.104848
0.105084
0.105321
0.105559
0.105797
0.106035
0.106273
0.106512
0.106751
0.106989
0.107227
0.107464
0.107701
0.107936
0.108169
0.1084
0.108629
0.108854
0.109075
0.109291
0.1095
0.109703
0.100107
0.100337
0.100566
0.100796
0.101027
0.101257
0.101488
0.10172
0.101951
0.102184
0.102416
0.10265
0.102883
0.103118
0.103352
0.103588
0.103824
0.10406
0.104298
0.104536
0.104774
0.105013
0.105253
0.105494
0.105735
0.105977
0.10622
0.106463
0.106707
0.106951
0.107197
0.107442
0.107688
0.107934
0.108181
0.108428
0.108675
0.108921
0.109168
0.109414
0.109659
0.109904
0.110147
0.110389
0.110629
0.110868
0.111103
0.111337
0.111567
0.111795
0.101926
0.102174
0.10242
0.102667
0.102913
0.103159
0.103405
0.103651
0.103896
0.104141
0.104386
0.104631
0.104876
0.105121
0.105366
0.105611
0.105856
0.106101
0.106347
0.106592
0.106837
0.107083
0.107329
0.107574
0.10782
0.108066
0.108312
0.108558
0.108803
0.109048
0.109293
0.109537
0.10978
0.110021
0.110262
0.1105
0.110737
0.11097
0.1112
0.111426
0.111648
0.111864
0.112073
0.112275
0.112468
0.11265
0.11282
0.112977
0.113119
0.113242
0.108848
0.109142
0.109435
0.109727
0.110018
0.110306
0.110593
0.110878
0.111162
0.111443
0.111723
0.112002
0.112278
0.112553
0.112827
0.113099
0.113369
0.113639
0.113906
0.114173
0.114438
0.114702
0.114964
0.115225
0.115484
0.115741
0.115996
0.116249
0.1165
0.116748
0.116992
0.117233
0.11747
0.117701
0.117926
0.118145
0.118355
0.118556
0.118746
0.118923
0.119085
0.11923
0.119354
0.119455
0.119529
0.119572
0.119578
0.119543
0.119459
0.119321
0.130965
0.131403
0.131833
0.132258
0.132677
0.133091
0.1335
0.133904
0.134302
0.134695
0.135082
0.135465
0.135842
0.136214
0.136581
0.136943
0.137301
0.137653
0.138001
0.138344
0.138683
0.139017
0.139346
0.139669
0.139987
0.1403
0.140605
0.140904
0.141195
0.141477
0.141749
0.14201
0.142258
0.14249
0.142705
0.1429
0.143071
0.143215
0.143327
0.1434
0.14343
0.143408
0.143325
0.143168
0.142925
0.142577
0.142102
0.14147
0.140644
0.13957
0.197428
0.197992
0.198566
0.199143
0.19972
0.200298
0.200875
0.201452
0.20203
0.202606
0.203183
0.203759
0.204335
0.20491
0.205485
0.206059
0.206634
0.207207
0.20778
0.208353
0.208925
0.209495
0.210065
0.210632
0.211197
0.211759
0.212316
0.212869
0.213415
0.213953
0.214481
0.214997
0.215498
0.215982
0.216445
0.216882
0.217288
0.217659
0.217985
0.21826
0.218472
0.218609
0.218656
0.218594
0.218398
0.218035
0.217461
0.216612
0.215406
0.213727
0.377371
0.377815
0.378265
0.378718
0.379174
0.379635
0.380099
0.380569
0.381044
0.381524
0.382011
0.382503
0.383002
0.383508
0.384021
0.38454
0.385067
0.385601
0.386143
0.386692
0.387248
0.387811
0.388382
0.38896
0.389546
0.390139
0.390738
0.391345
0.391959
0.39258
0.393208
0.393842
0.394482
0.395128
0.395779
0.396435
0.397095
0.397758
0.398425
0.399092
0.39976
0.400426
0.401088
0.401746
0.402394
0.403032
0.403653
0.404254
0.404828
0.405365
1.08355
1.06874
1.05457
1.04097
1.02789
1.01526
1.00302
0.991132
0.979585
0.968364
0.957455
0.946845
0.936524
0.926481
0.916706
0.907189
0.897922
0.888895
0.880102
0.871533
0.863182
0.855041
0.847103
0.839362
0.831811
0.824445
0.817258
0.810244
0.803398
0.796715
0.79019
0.783819
0.777598
0.771523
0.765589
0.759794
0.754135
0.748608
0.7432
0.737895
0.732686
0.727568
0.722532
0.717569
0.712668
0.707813
0.702982
0.698138
0.693212
0.688076
1.07683
1.05216
1.02859
1.00603
0.984429
0.963764
0.944006
0.9251
0.906993
0.889635
0.872982
0.85699
0.841621
0.826839
0.812612
0.798907
0.785698
0.772956
0.760658
0.74878
0.737301
0.726201
0.715461
0.705064
0.694992
0.68523
0.675764
0.66658
0.657664
0.649004
0.640587
0.632403
0.624441
0.616687
0.609132
0.601765
0.594575
0.587552
0.580699
0.574021
0.567513
0.561168
0.554979
0.54894
0.543044
0.537284
0.531653
0.526142
0.52074
0.51543
1.0768
1.05207
1.02836
1.00568
0.983955
0.963152
0.943214
0.924088
0.905725
0.88808
0.871111
0.854779
0.839049
0.823888
0.809265
0.795152
0.781522
0.768352
0.755619
0.743301
0.731379
0.719833
0.708648
0.697805
0.68729
0.677088
0.667186
0.65757
0.648229
0.639152
0.630326
0.621743
0.613393
0.605267
0.597357
0.589656
0.582155
0.574848
0.567728
0.560788
0.554024
0.547429
0.541
0.53473
0.528616
0.522654
0.516841
0.511174
0.505649
0.500263
1.0768
1.05225
1.02876
1.00628
0.984746
0.964102
0.944292
0.925267
0.906979
0.889389
0.872456
0.856145
0.840423
0.825259
0.810625
0.796494
0.782841
0.769642
0.756875
0.744521
0.732559
0.720972
0.709742
0.698854
0.688293
0.678044
0.668095
0.658432
0.649043
0.639918
0.631046
0.622417
0.614021
0.60585
0.597895
0.590148
0.582602
0.57525
0.568085
0.561101
0.554293
0.547654
0.541181
0.534867
0.52871
0.522704
0.516847
0.511135
0.505565
0.500131
1.0768
1.05225
1.02875
1.00625
0.984678
0.963996
0.944148
0.925089
0.906775
0.889164
0.872218
0.8559
0.840176
0.825016
0.810389
0.796268
0.782628
0.769444
0.756694
0.744358
0.732415
0.720847
0.709637
0.698769
0.688227
0.677997
0.668066
0.658422
0.649051
0.639943
0.631087
0.622474
0.614093
0.605936
0.597994
0.59026
0.582725
0.575384
0.568229
0.561254
0.554453
0.54782
0.541351
0.535041
0.528885
0.522878
0.517018
0.511299
0.505718
0.500271
1.0768
1.05226
1.02879
1.00633
0.984802
0.964168
0.944369
0.925358
0.907088
0.889517
0.872607
0.85632
0.840623
0.825485
0.810876
0.79677
0.783141
0.769965
0.757221
0.744888
0.732947
0.721378
0.710167
0.699295
0.688749
0.678514
0.668577
0.658925
0.649546
0.64043
0.631565
0.622942
0.614551
0.606383
0.59843
0.590684
0.583138
0.575783
0.568614
0.561625
0.554809
0.54816
0.541674
0.535345
0.529169
0.523141
0.517256
0.511511
0.505902
0.500422
1.0768
1.05227
1.0288
1.00634
0.984815
0.964177
0.944371
0.925349
0.907066
0.889482
0.872558
0.856258
0.840548
0.825399
0.81078
0.796665
0.783029
0.769847
0.757099
0.744762
0.732819
0.721249
0.710037
0.699166
0.688621
0.678388
0.668453
0.658804
0.649428
0.640315
0.631454
0.622834
0.614447
0.606283
0.598333
0.59059
0.583047
0.575695
0.568528
0.561541
0.554725
0.548077
0.54159
0.535259
0.529079
0.523046
0.517155
0.511401
0.50578
0.500288
1.0768
1.05227
1.02881
1.00635
0.984836
0.964207
0.944411
0.925401
0.907131
0.889559
0.872648
0.856361
0.840664
0.825526
0.810918
0.796814
0.783187
0.770013
0.757272
0.744942
0.733003
0.721438
0.710229
0.699361
0.688818
0.678585
0.66865
0.659
0.649623
0.640508
0.631643
0.62302
0.614628
0.606459
0.598504
0.590755
0.583204
0.575845
0.568669
0.561672
0.554846
0.548185
0.541685
0.53534
0.529144
0.523093
0.517182
0.511406
0.505762
0.500243
1.0768
1.05227
1.02881
1.00636
0.984842
0.964215
0.94442
0.925409
0.907137
0.889563
0.872648
0.856357
0.840655
0.825512
0.8109
0.79679
0.783158
0.76998
0.757234
0.744899
0.732957
0.721388
0.710176
0.699305
0.688759
0.678524
0.668587
0.658935
0.649556
0.640439
0.631574
0.622949
0.614556
0.606385
0.598429
0.590678
0.583125
0.575762
0.568584
0.561583
0.554753
0.548087
0.541581
0.535229
0.529025
0.522964
0.517042
0.511254
0.505595
0.50006
1.0768
1.05227
1.02881
1.00636
0.984846
0.96422
0.944427
0.925418
0.907148
0.889576
0.872664
0.856375
0.840676
0.825536
0.810926
0.796819
0.78319
0.770014
0.757271
0.744938
0.732998
0.72143
0.71022
0.699349
0.688804
0.678569
0.668632
0.65898
0.6496
0.640482
0.631615
0.622988
0.614593
0.606419
0.598459
0.590704
0.583147
0.575779
0.568595
0.561587
0.554748
0.548074
0.541558
0.535194
0.528978
0.522903
0.516965
0.51116
0.505481
0.499925
1.0768
1.05227
1.02881
1.00636
0.984846
0.96422
0.944426
0.925417
0.907148
0.889576
0.872664
0.856374
0.840675
0.825535
0.810925
0.796818
0.783188
0.770012
0.757268
0.744935
0.732994
0.721426
0.710215
0.699344
0.688797
0.678562
0.668623
0.65897
0.649589
0.640469
0.6316
0.622971
0.614573
0.606396
0.598433
0.590674
0.583112
0.57574
0.56855
0.561535
0.55469
0.548008
0.541482
0.535108
0.52888
0.522793
0.51684
0.511019
0.505323
0.499747
1.0768
1.05227
1.02881
1.00636
0.984842
0.964215
0.944419
0.925408
0.907136
0.889562
0.872647
0.856355
0.840653
0.82551
0.810896
0.796786
0.783153
0.769974
0.757227
0.744891
0.732947
0.721377
0.710163
0.69929
0.688741
0.678504
0.668564
0.658908
0.649525
0.640404
0.631533
0.622902
0.614502
0.606323
0.598357
0.590596
0.583031
0.575655
0.568461
0.561442
0.554591
0.547903
0.54137
0.534988
0.528751
0.522653
0.516689
0.510854
0.505143
0.49955
1.0768
1.05227
1.02881
1.00635
0.984836
0.964206
0.944411
0.9254
0.90713
0.889558
0.872646
0.856358
0.84066
0.825521
0.810913
0.796807
0.783178
0.770004
0.75726
0.744928
0.732987
0.721419
0.710207
0.699334
0.688787
0.678549
0.668609
0.658953
0.649568
0.640445
0.631571
0.622937
0.614534
0.606351
0.59838
0.590613
0.583042
0.575659
0.568458
0.56143
0.55457
0.547871
0.541327
0.534932
0.52868
0.522566
0.516585
0.510731
0.504999
0.499384
1.0768
1.05227
1.0288
1.00634
0.984815
0.964176
0.94437
0.925347
0.907065
0.88948
0.872555
0.856254
0.840544
0.825393
0.810773
0.796656
0.783018
0.769835
0.757084
0.744745
0.732798
0.721225
0.710008
0.699133
0.688582
0.678343
0.668401
0.658743
0.649359
0.640235
0.631361
0.622727
0.614324
0.606141
0.598171
0.590404
0.582833
0.57545
0.568248
0.561219
0.554357
0.547656
0.541109
0.534709
0.528452
0.522332
0.516343
0.510479
0.504736
0.499108
1.0768
1.05226
1.02879
1.00633
0.984802
0.964167
0.944368
0.925357
0.907086
0.889515
0.872603
0.856315
0.840617
0.825477
0.810867
0.796758
0.783127
0.769948
0.757201
0.744864
0.732918
0.721345
0.710127
0.699249
0.688696
0.678453
0.668506
0.658843
0.649452
0.640322
0.631441
0.622799
0.614388
0.606196
0.598217
0.59044
0.582859
0.575465
0.568251
0.56121
0.554335
0.547619
0.541057
0.534641
0.528367
0.522227
0.516217
0.510331
0.504563
0.498909
1.0768
1.05225
1.02875
1.00625
0.984678
0.963995
0.944147
0.925088
0.906773
0.889161
0.872214
0.855895
0.84017
0.825007
0.810379
0.796255
0.782612
0.769425
0.756672
0.744332
0.732384
0.720811
0.709594
0.698719
0.688169
0.67793
0.667989
0.658332
0.648947
0.639823
0.630949
0.622314
0.613909
0.605725
0.597751
0.589981
0.582406
0.575017
0.567808
0.560772
0.553901
0.547188
0.540628
0.534214
0.52794
0.521799
0.515786
0.509896
0.504123
0.498461
1.0768
1.05225
1.02876
1.00628
0.984745
0.964101
0.944291
0.925265
0.906977
0.889385
0.872451
0.856138
0.840415
0.825249
0.810613
0.796478
0.782822
0.769619
0.756848
0.744489
0.732521
0.720928
0.709691
0.698794
0.688224
0.677964
0.668002
0.658325
0.64892
0.639777
0.630884
0.622231
0.613808
0.605606
0.597616
0.58983
0.582239
0.574835
0.567612
0.560562
0.553678
0.546953
0.540382
0.533957
0.527674
0.521526
0.515509
0.509617
0.503847
0.498196
1.0768
1.05207
1.02836
1.00567
0.983955
0.963151
0.943212
0.924086
0.905722
0.888076
0.871106
0.854773
0.839041
0.823878
0.809253
0.795137
0.781505
0.768332
0.755595
0.743273
0.731346
0.719795
0.708604
0.697755
0.687233
0.677024
0.667114
0.657489
0.648139
0.639051
0.630215
0.62162
0.613256
0.605116
0.597189
0.589468
0.581945
0.574613
0.567465
0.560495
0.553696
0.547065
0.540595
0.534282
0.528125
0.52212
0.516267
0.51057
0.505037
0.499683
1.07683
1.05216
1.02859
1.00602
0.984428
0.963763
0.944005
0.925099
0.906992
0.889635
0.872982
0.856991
0.841623
0.826843
0.812617
0.798914
0.785707
0.772969
0.760675
0.748803
0.737331
0.726239
0.71551
0.705125
0.69507
0.685328
0.675886
0.666731
0.65785
0.649233
0.640869
0.632747
0.62486
0.617199
0.609756
0.602525
0.5955
0.588676
0.582047
0.575612
0.569367
0.563312
0.557447
0.551775
0.5463
0.541034
0.535992
0.531206
0.526732
0.522687
1.08355
1.06874
1.05457
1.04097
1.02789
1.01526
1.00302
0.99113
0.979583
0.96836
0.957449
0.946838
0.936515
0.926468
0.91669
0.907169
0.897897
0.888865
0.880065
0.871489
0.863129
0.854978
0.847029
0.839274
0.831708
0.824324
0.817115
0.810077
0.803202
0.796486
0.789924
0.783509
0.777238
0.771104
0.765102
0.759229
0.753479
0.747847
0.742328
0.736918
0.731612
0.726403
0.721288
0.71626
0.711314
0.706442
0.701637
0.69689
0.69219
0.68752
0.463741
0.251437
0.19436
0.186921
0.183057
0.181797
0.179062
0.177379
0.175033
0.173066
0.171047
0.168841
0.167138
0.164671
0.163294
0.160467
0.160185
0.163125
0.207971
0.388751
0.464312
0.252042
0.195053
0.187635
0.18378
0.182511
0.179778
0.178086
0.175741
0.173767
0.171746
0.169534
0.167828
0.165356
0.163974
0.161144
0.160856
0.163796
0.208641
0.389303
0.464889
0.252628
0.195747
0.188354
0.18451
0.18323
0.1805
0.1788
0.176454
0.174473
0.172451
0.170234
0.168524
0.166047
0.16466
0.161827
0.161533
0.164472
0.209306
0.389804
0.465471
0.253208
0.196445
0.189079
0.185246
0.183956
0.181228
0.179519
0.177173
0.175186
0.173161
0.170939
0.169225
0.166745
0.165353
0.162517
0.162216
0.165152
0.209926
0.390312
0.466058
0.253789
0.197148
0.18981
0.185987
0.184688
0.181962
0.180245
0.177899
0.175905
0.173878
0.171651
0.169933
0.167449
0.166051
0.163213
0.162904
0.16583
0.210529
0.390827
0.466649
0.254371
0.197856
0.190546
0.186735
0.185426
0.182703
0.180977
0.178631
0.17663
0.174602
0.172369
0.170648
0.16816
0.166756
0.163916
0.163599
0.166511
0.211127
0.391349
0.467246
0.254958
0.19857
0.191289
0.18749
0.18617
0.18345
0.181715
0.179369
0.177361
0.175331
0.173093
0.171368
0.168877
0.167468
0.164625
0.164299
0.167195
0.211722
0.391877
0.467847
0.25555
0.19929
0.192038
0.18825
0.186921
0.184203
0.182459
0.180114
0.178099
0.176067
0.173824
0.172096
0.169601
0.168186
0.165341
0.165006
0.167884
0.212319
0.392412
0.468454
0.256146
0.200016
0.192794
0.189017
0.187677
0.184962
0.18321
0.180865
0.178844
0.17681
0.174562
0.172829
0.170331
0.168911
0.166064
0.165719
0.168577
0.212918
0.392953
0.469065
0.256749
0.200749
0.193555
0.189791
0.188441
0.185728
0.183968
0.181623
0.179595
0.177559
0.175306
0.17357
0.171068
0.169642
0.166792
0.166439
0.169276
0.213521
0.3935
0.469682
0.257357
0.201489
0.194324
0.190571
0.189211
0.186501
0.184732
0.182387
0.180352
0.178315
0.176057
0.174316
0.171812
0.17038
0.167528
0.167165
0.169982
0.214128
0.394054
0.470304
0.257971
0.202236
0.195099
0.191358
0.189987
0.187281
0.185502
0.183159
0.181117
0.179078
0.176814
0.17507
0.172563
0.171125
0.16827
0.167898
0.170693
0.214741
0.394614
0.470931
0.25859
0.202989
0.19588
0.192151
0.19077
0.188067
0.18628
0.183937
0.181888
0.179847
0.177579
0.175831
0.17332
0.171876
0.16902
0.168638
0.171411
0.215359
0.395181
0.471564
0.259216
0.203749
0.196668
0.192952
0.19156
0.18886
0.187064
0.184721
0.182666
0.180623
0.17835
0.176598
0.174084
0.172635
0.169776
0.169384
0.172135
0.215983
0.395755
0.472202
0.259848
0.204517
0.197464
0.193759
0.192357
0.18966
0.187855
0.185513
0.183451
0.181406
0.179128
0.177373
0.174856
0.1734
0.170539
0.170137
0.172867
0.216614
0.396336
0.472845
0.260485
0.205291
0.198266
0.194574
0.19316
0.190467
0.188653
0.186312
0.184243
0.182197
0.179914
0.178155
0.175634
0.174173
0.171309
0.170898
0.173605
0.21725
0.396923
0.473494
0.261129
0.206073
0.199074
0.195395
0.193971
0.191282
0.189459
0.187118
0.185042
0.182994
0.180706
0.178943
0.17642
0.174953
0.172087
0.171665
0.17435
0.217894
0.397517
0.474149
0.261779
0.206862
0.19989
0.196224
0.194789
0.192103
0.190271
0.187931
0.185848
0.183799
0.181506
0.17974
0.177213
0.17574
0.172872
0.17244
0.175103
0.218544
0.398118
0.474809
0.262435
0.207658
0.200714
0.19706
0.195614
0.192932
0.191091
0.188752
0.186662
0.184611
0.182313
0.180543
0.178014
0.176534
0.173664
0.173222
0.175863
0.219201
0.398727
0.475475
0.263097
0.208461
0.201544
0.197903
0.196446
0.193768
0.191918
0.18958
0.187483
0.18543
0.183128
0.181354
0.178821
0.177336
0.174464
0.174012
0.17663
0.219865
0.399342
0.476147
0.263766
0.209272
0.202382
0.198754
0.197286
0.194612
0.192753
0.190415
0.188312
0.186257
0.183951
0.182172
0.179637
0.178145
0.175271
0.174809
0.177405
0.220537
0.399965
0.476825
0.26444
0.210091
0.203227
0.199612
0.198133
0.195463
0.193595
0.191258
0.189148
0.187092
0.18478
0.182998
0.18046
0.178962
0.176086
0.175614
0.178188
0.221215
0.400595
0.477508
0.265121
0.210917
0.204079
0.200478
0.198988
0.196321
0.194444
0.192109
0.189992
0.187934
0.185618
0.183832
0.181291
0.179787
0.176909
0.176426
0.178978
0.221902
0.401232
0.478197
0.265809
0.21175
0.20494
0.201352
0.19985
0.197188
0.195302
0.192967
0.190844
0.188784
0.186464
0.184674
0.18213
0.18062
0.17774
0.177247
0.179777
0.222596
0.401877
0.478893
0.266502
0.212592
0.205807
0.202234
0.20072
0.198062
0.196167
0.193834
0.191703
0.189642
0.187317
0.185523
0.182977
0.18146
0.178579
0.178075
0.180584
0.223297
0.40253
0.479594
0.267202
0.213441
0.206683
0.203123
0.201598
0.198945
0.19704
0.194708
0.192571
0.190508
0.188179
0.186381
0.183831
0.182309
0.179426
0.178911
0.181398
0.224007
0.403191
0.480302
0.267909
0.214298
0.207566
0.20402
0.202484
0.199835
0.197921
0.19559
0.193447
0.191383
0.189049
0.187247
0.184694
0.183166
0.180281
0.179756
0.182221
0.224724
0.403859
0.481015
0.268622
0.215163
0.208458
0.204926
0.203378
0.200734
0.198811
0.196481
0.194331
0.192265
0.189927
0.18812
0.185566
0.184031
0.181144
0.180608
0.183053
0.22545
0.404535
0.481735
0.269342
0.216036
0.209357
0.20584
0.20428
0.20164
0.199708
0.19738
0.195223
0.193156
0.190813
0.189003
0.186446
0.184904
0.182016
0.18147
0.183893
0.226184
0.40522
0.482461
0.270068
0.216918
0.210265
0.206762
0.205191
0.202555
0.200614
0.198287
0.196124
0.194055
0.191708
0.189894
0.187334
0.185786
0.182897
0.182339
0.184742
0.226926
0.405912
0.483194
0.270802
0.217808
0.211181
0.207692
0.20611
0.203479
0.201529
0.199203
0.197033
0.194962
0.192611
0.190793
0.188231
0.186677
0.183786
0.183218
0.185599
0.227676
0.406613
0.483932
0.271542
0.218706
0.212105
0.208631
0.207037
0.204411
0.202452
0.200127
0.197951
0.195879
0.193523
0.191701
0.189137
0.187576
0.184684
0.184105
0.186465
0.228436
0.407322
0.484678
0.272289
0.219612
0.213038
0.209579
0.207973
0.205352
0.203383
0.20106
0.198877
0.196804
0.194444
0.192618
0.190051
0.188484
0.185591
0.185001
0.187341
0.229204
0.40804
0.485429
0.273043
0.220528
0.213979
0.210535
0.208917
0.206302
0.204324
0.202002
0.199813
0.197738
0.195374
0.193544
0.190975
0.189402
0.186507
0.185906
0.188225
0.22998
0.408767
0.486188
0.273804
0.221452
0.214929
0.2115
0.209871
0.20726
0.205273
0.202953
0.200757
0.198681
0.196314
0.194479
0.191908
0.190328
0.187433
0.18682
0.189119
0.230766
0.409502
0.486953
0.274572
0.222384
0.215888
0.212474
0.210833
0.208228
0.206232
0.203913
0.201711
0.199633
0.197262
0.195423
0.19285
0.191263
0.188367
0.187743
0.190023
0.231561
0.410246
0.487724
0.275348
0.223326
0.216856
0.213458
0.211805
0.209204
0.207199
0.204882
0.202674
0.200594
0.19822
0.196377
0.193802
0.192208
0.189312
0.188676
0.190936
0.232365
0.411
0.488503
0.276131
0.224277
0.217833
0.21445
0.212785
0.21019
0.208176
0.205861
0.203646
0.201565
0.199187
0.19734
0.194763
0.193163
0.190265
0.189619
0.191858
0.233179
0.411762
0.489288
0.276922
0.225237
0.218819
0.215452
0.213775
0.211186
0.209163
0.206849
0.204628
0.202546
0.200164
0.198312
0.195734
0.194127
0.191229
0.190571
0.192791
0.234002
0.412534
0.49008
0.27772
0.226206
0.219814
0.216463
0.214775
0.212191
0.210159
0.207847
0.20562
0.203536
0.20115
0.199295
0.196714
0.195101
0.192203
0.191533
0.193734
0.234835
0.413315
0.490879
0.278525
0.227185
0.220819
0.217484
0.215784
0.213205
0.211165
0.208854
0.206621
0.204536
0.202147
0.200287
0.197705
0.196085
0.193186
0.192505
0.194686
0.235678
0.414106
0.491685
0.279339
0.228173
0.221834
0.218515
0.216802
0.21423
0.21218
0.209872
0.207633
0.205546
0.203153
0.201289
0.198706
0.197079
0.19418
0.193487
0.195649
0.23653
0.414907
0.492498
0.28016
0.229171
0.222858
0.219555
0.217831
0.215264
0.213206
0.210899
0.208654
0.206566
0.20417
0.202302
0.199717
0.198083
0.195184
0.194479
0.196623
0.237393
0.415717
0.493318
0.28099
0.230179
0.223892
0.220606
0.21887
0.216309
0.214241
0.211937
0.209686
0.207596
0.205197
0.203325
0.200739
0.199098
0.196199
0.195482
0.197607
0.238266
0.416537
0.494146
0.281827
0.231197
0.224936
0.221666
0.219918
0.217364
0.215287
0.212985
0.210728
0.208637
0.206235
0.204358
0.201771
0.200123
0.197224
0.196496
0.198602
0.23915
0.417368
0.494981
0.282673
0.232225
0.22599
0.222737
0.220977
0.218429
0.216344
0.214043
0.211781
0.209688
0.207283
0.205402
0.202814
0.20116
0.19826
0.19752
0.199608
0.240044
0.418209
0.495823
0.283527
0.233263
0.227054
0.223819
0.222047
0.219504
0.217411
0.215112
0.212844
0.21075
0.208342
0.206457
0.203867
0.202207
0.199307
0.198556
0.200626
0.240949
0.419061
0.496673
0.284389
0.234312
0.228129
0.224911
0.223127
0.220591
0.218489
0.216192
0.213918
0.211823
0.209412
0.207523
0.204932
0.203265
0.200366
0.199602
0.201654
0.241865
0.419923
0.49753
0.28526
0.235371
0.229215
0.226013
0.224218
0.221688
0.219577
0.217283
0.215004
0.212908
0.210494
0.208601
0.206009
0.204334
0.201436
0.20066
0.202694
0.242792
0.420796
0.498395
0.28614
0.236441
0.230311
0.227127
0.22532
0.222796
0.220677
0.218385
0.2161
0.214003
0.211586
0.209689
0.207096
0.205415
0.202517
0.20173
0.203746
0.243731
0.42168
0.499268
0.287029
0.237521
0.231418
0.228251
0.226432
0.223915
0.221788
0.219498
0.217208
0.21511
0.21269
0.210789
0.208196
0.206507
0.20361
0.202811
0.20481
0.244681
0.422575
0.500149
0.287927
0.238613
0.232536
0.229387
0.227557
0.225046
0.22291
0.220623
0.218328
0.216228
0.213806
0.211901
0.209307
0.207611
0.204715
0.203904
0.205886
0.245643
0.423482
0.501037
0.288833
0.239716
0.233665
0.230534
0.228692
0.226188
0.224044
0.221759
0.219459
0.217358
0.214934
0.213024
0.21043
0.208728
0.205832
0.205009
0.206974
0.246617
0.4244
0.501934
0.289749
0.24083
0.234806
0.231693
0.229839
0.227342
0.22519
0.222907
0.220602
0.2185
0.216074
0.21416
0.211565
0.209856
0.206962
0.206126
0.208075
0.247603
0.42533
0.502838
0.290675
0.241956
0.235958
0.232863
0.230998
0.228508
0.226348
0.224067
0.221757
0.219654
0.217226
0.215308
0.212713
0.210997
0.208104
0.207256
0.209188
0.248602
0.426272
0.503751
0.29161
0.243093
0.237122
0.234046
0.232169
0.229686
0.227518
0.22524
0.222925
0.220821
0.218391
0.216469
0.213873
0.21215
0.209259
0.208398
0.210315
0.249613
0.427226
0.504672
0.292555
0.244242
0.238298
0.23524
0.233352
0.230876
0.2287
0.226425
0.224105
0.222
0.219568
0.217642
0.215046
0.213316
0.210426
0.209554
0.211454
0.250636
0.428193
0.505601
0.293509
0.245403
0.239486
0.236447
0.234547
0.232078
0.229895
0.227622
0.225298
0.223192
0.220758
0.218828
0.216233
0.214496
0.211607
0.210723
0.212607
0.251673
0.429172
0.506539
0.294474
0.246577
0.240687
0.237666
0.235755
0.233293
0.231102
0.228832
0.226504
0.224397
0.221961
0.220027
0.217432
0.215688
0.212801
0.211905
0.213773
0.252723
0.430164
0.507486
0.295449
0.247762
0.2419
0.238898
0.236975
0.234521
0.232323
0.230055
0.227723
0.225615
0.223177
0.221239
0.218645
0.216894
0.214009
0.2131
0.214954
0.253787
0.431168
0.508441
0.296434
0.248961
0.243125
0.240142
0.238209
0.235762
0.233556
0.231291
0.228955
0.226846
0.224407
0.222465
0.219871
0.218114
0.215231
0.214309
0.216148
0.254864
0.432186
0.509405
0.297429
0.250172
0.244363
0.2414
0.239455
0.237016
0.234803
0.232541
0.230201
0.228091
0.225651
0.223705
0.221112
0.219347
0.216467
0.215533
0.217356
0.255955
0.433218
0.510378
0.298436
0.251396
0.245615
0.24267
0.240715
0.238283
0.236063
0.233804
0.23146
0.22935
0.226909
0.224959
0.222366
0.220595
0.217717
0.216771
0.21858
0.257061
0.434263
0.511359
0.299453
0.252633
0.24688