/*--------------------------------*- C++ -*----------------------------------*\
  =========                 |
  \\      /  F ield         | OpenFOAM: The Open Source CFD Toolbox
   \\    /   O peration     | Website:  https://openfoam.org
    \\  /    A nd           | Version:  8
     \\/     M anipulation  |
\*---------------------------------------------------------------------------*/
FoamFile
{
    version     2.0;
    format      ascii;
    class       volScalarField;
    location    "300";
    object      epsilon;
}
// * * * * * * * * * * * * * * * * * * * * * * * * * * * * * * * * * * * * * //

dimensions      [0 2 -3 0 0 0 0];

internalField   nonuniform List<scalar> 
8400
(
2.39371
2.38696
2.38018
2.3734
2.36661
2.3598
2.35296
2.3461
2.33921
2.33229
2.32533
2.31832
2.31127
2.30417
2.29701
2.28979
2.2825
2.27515
2.26772
2.26021
2.25263
2.24496
2.2372
2.22935
2.22142
2.21339
2.2053
2.19722
2.18918
2.18118
2.17327
2.16547
2.15781
2.15035
2.14312
2.13618
2.12961
2.12346
2.11783
2.11282
2.10856
2.10519
2.10289
2.10188
2.10243
2.10491
2.10981
2.11778
2.12967
2.14669
0.181252
0.181549
0.181824
0.18209
0.182351
0.18261
0.182866
0.183119
0.183369
0.183615
0.183859
0.184099
0.184337
0.184572
0.184806
0.185039
0.185273
0.185509
0.185748
0.185993
0.186245
0.186508
0.186785
0.187079
0.187395
0.187736
0.188103
0.188481
0.188872
0.189278
0.189703
0.190148
0.190618
0.191116
0.191647
0.192216
0.192828
0.193491
0.194213
0.195003
0.195872
0.196833
0.197903
0.1991
0.200448
0.201977
0.203727
0.205748
0.208106
0.210897
0.0454794
0.0457489
0.0460198
0.0462916
0.0465641
0.0468372
0.0471106
0.0473845
0.0476588
0.0479334
0.0482083
0.0484835
0.0487592
0.0490352
0.0493119
0.0495892
0.0498674
0.0501467
0.0504274
0.0507098
0.0509942
0.0512812
0.0515713
0.0518654
0.0521643
0.0524688
0.0527764
0.0530857
0.0533969
0.0537101
0.0540256
0.0543435
0.0546643
0.0549882
0.0553156
0.0556469
0.0559828
0.0563239
0.0566708
0.0570245
0.0573859
0.0577563
0.058137
0.0585298
0.0589369
0.0593607
0.0598045
0.0602724
0.0607694
0.0613023
0.0380871
0.0383073
0.0385287
0.0387516
0.0389758
0.0392014
0.0394286
0.0396572
0.0398874
0.0401191
0.0403524
0.0405873
0.0408238
0.041062
0.0413019
0.0415435
0.0417869
0.0420321
0.0422791
0.0425282
0.0427792
0.0430323
0.0432874
0.0435445
0.0438035
0.0440644
0.0443272
0.0445921
0.0448589
0.0451278
0.0453987
0.0456716
0.0459467
0.046224
0.0465033
0.0467849
0.0470688
0.0473549
0.0476434
0.0479343
0.0482276
0.0485236
0.0488221
0.0491235
0.0494278
0.0497353
0.0500461
0.0503607
0.0506795
0.0510031
0.0383063
0.0385221
0.0387395
0.0389584
0.0391789
0.0394009
0.0396246
0.0398499
0.0400769
0.0403057
0.0405362
0.0407685
0.0410027
0.0412388
0.0414768
0.0417167
0.0419586
0.0422026
0.0424485
0.0426965
0.0429465
0.0431985
0.0434526
0.0437087
0.0439669
0.0442271
0.0444894
0.0447537
0.04502
0.0452883
0.0455584
0.0458305
0.0461043
0.0463798
0.0466569
0.0469356
0.0472155
0.0474966
0.0477786
0.0480613
0.0483444
0.0486275
0.0489102
0.049192
0.0494722
0.0497501
0.0500248
0.0502952
0.0505599
0.0508174
0.0403145
0.0405473
0.0407817
0.0410177
0.0412554
0.0414946
0.0417356
0.0419783
0.0422227
0.042469
0.042717
0.042967
0.0432188
0.0434726
0.0437283
0.0439861
0.0442458
0.0445075
0.0447714
0.0450373
0.0453054
0.0455756
0.0458479
0.0461225
0.0463992
0.0466782
0.0469594
0.0472427
0.0475283
0.047816
0.048106
0.048398
0.0486922
0.0489883
0.0492865
0.0495866
0.0498885
0.0501921
0.0504972
0.0508037
0.0511115
0.0514202
0.0517296
0.0520395
0.0523494
0.052659
0.0529677
0.0532752
0.0535808
0.0538839
0.0416898
0.041933
0.042178
0.0424247
0.042673
0.042923
0.0431749
0.0434285
0.043684
0.0439415
0.0442008
0.0444622
0.0447256
0.044991
0.0452586
0.0455282
0.0457999
0.0460739
0.04635
0.0466284
0.0469091
0.047192
0.0474772
0.0477646
0.0480544
0.0483464
0.0486407
0.0489373
0.0492361
0.0495371
0.0498402
0.0501453
0.0504525
0.0507615
0.0510723
0.0513847
0.0516986
0.0520136
0.0523296
0.0526463
0.0529632
0.05328
0.0535962
0.0539112
0.0542243
0.0545347
0.0548415
0.0551435
0.0554396
0.0557282
0.0435905
0.0438504
0.0441121
0.0443755
0.0446407
0.0449078
0.0451767
0.0454475
0.0457203
0.0459951
0.046272
0.0465509
0.0468319
0.047115
0.0474004
0.0476879
0.0479778
0.0482699
0.0485644
0.0488612
0.0491603
0.0494619
0.0497659
0.0500723
0.0503812
0.0506924
0.0510061
0.0513223
0.0516408
0.0519617
0.0522849
0.0526104
0.0529381
0.0532679
0.0535998
0.0539335
0.054269
0.0546061
0.0549444
0.0552839
0.0556241
0.0559647
0.0563053
0.0566455
0.0569845
0.057322
0.057657
0.0579888
0.0583166
0.0586394
0.0452097
0.0454835
0.0457593
0.0460369
0.0463163
0.0465977
0.046881
0.0471664
0.0474538
0.0477432
0.0480349
0.0483287
0.0486247
0.0489231
0.0492237
0.0495267
0.049832
0.0501398
0.05045
0.0507628
0.051078
0.0513957
0.051716
0.0520388
0.0523641
0.0526921
0.0530225
0.0533555
0.053691
0.0540289
0.0543692
0.0547119
0.0550568
0.0554038
0.0557528
0.0561036
0.0564561
0.05681
0.057165
0.0575207
0.0578769
0.058233
0.0585886
0.0589429
0.0592954
0.0596451
0.0599912
0.0603326
0.0606682
0.0609967
0.0470505
0.0473411
0.0476336
0.047928
0.0482243
0.0485227
0.0488231
0.0491256
0.0494302
0.0497371
0.0500463
0.0503577
0.0506715
0.0509877
0.0513063
0.0516274
0.051951
0.0522772
0.0526059
0.0529373
0.0532713
0.053608
0.0539473
0.0542894
0.0546341
0.0549816
0.0553317
0.0556845
0.05604
0.0563981
0.0567588
0.0571219
0.0574874
0.0578552
0.0582251
0.058597
0.0589706
0.0593458
0.0597222
0.0600994
0.0604771
0.0608548
0.0612319
0.0616077
0.0619815
0.0623525
0.0627196
0.0630817
0.0634375
0.0637857
0.0488851
0.0491929
0.0495029
0.049815
0.0501291
0.0504454
0.0507638
0.0510844
0.0514073
0.0517325
0.0520601
0.0523901
0.0527226
0.0530576
0.0533952
0.0537354
0.0540782
0.0544237
0.0547719
0.0551229
0.0554767
0.0558333
0.0561928
0.0565551
0.0569203
0.0572883
0.0576592
0.058033
0.0584097
0.0587891
0.0591713
0.0595561
0.0599436
0.0603335
0.0607258
0.0611203
0.0615169
0.0619151
0.0623149
0.0627158
0.0631174
0.0635194
0.0639211
0.064322
0.0647213
0.0651183
0.0655121
0.0659017
0.066286
0.066664
0.0506821
0.0510072
0.0513345
0.0516637
0.0519951
0.0523287
0.0526646
0.0530027
0.0533432
0.0536861
0.0540315
0.0543794
0.0547299
0.055083
0.0554388
0.0557973
0.0561586
0.0565227
0.0568896
0.0572595
0.0576322
0.058008
0.0583867
0.0587684
0.0591531
0.0595408
0.0599315
0.0603251
0.0607218
0.0611213
0.0615237
0.0619288
0.0623366
0.0627469
0.0631596
0.0635745
0.0639912
0.0644096
0.0648292
0.0652497
0.0656705
0.0660911
0.0665107
0.0669286
0.0673437
0.067755
0.0681612
0.0685606
0.0689516
0.0693322
0.0527524
0.0530984
0.053447
0.0537977
0.0541508
0.0545062
0.0548639
0.0552241
0.0555868
0.0559521
0.0563199
0.0566904
0.0570636
0.0574396
0.0578185
0.0582002
0.0585848
0.0589724
0.059363
0.0597567
0.0601535
0.0605535
0.0609566
0.0613629
0.0617725
0.0621853
0.0626014
0.0630207
0.0634432
0.063869
0.064298
0.0647301
0.0651653
0.0656034
0.0660444
0.0664881
0.0669344
0.067383
0.0678337
0.0682862
0.0687401
0.069195
0.0696504
0.0701058
0.0705605
0.0710138
0.0714648
0.0719127
0.0723567
0.0727957
0.0544792
0.0548441
0.0552111
0.0555804
0.0559519
0.0563257
0.056702
0.0570807
0.057462
0.0578458
0.0582323
0.0586215
0.0590134
0.0594082
0.0598059
0.0602065
0.0606101
0.0610167
0.0614265
0.0618394
0.0622554
0.0626747
0.0630972
0.063523
0.063952
0.0643844
0.06482
0.0652589
0.065701
0.0661463
0.0665947
0.0670461
0.0675004
0.0679575
0.0684171
0.068879
0.0693429
0.0698086
0.0702755
0.0707432
0.0712111
0.0716784
0.0721445
0.0726082
0.0730683
0.0735236
0.0739723
0.0744124
0.0748416
0.0752572
0.0571862
0.0575797
0.057976
0.0583746
0.0587756
0.0591791
0.059585
0.0599935
0.0604046
0.0608184
0.0612349
0.0616541
0.0620762
0.0625012
0.0629292
0.0633602
0.0637942
0.0642314
0.0646717
0.0651152
0.0655621
0.0660122
0.0664657
0.0669225
0.0673828
0.0678464
0.0683135
0.0687839
0.0692578
0.0697349
0.0702154
0.070699
0.0711857
0.0716754
0.0721679
0.072663
0.0731604
0.07366
0.0741612
0.0746639
0.0751674
0.0756714
0.0761753
0.0766784
0.0771801
0.0776798
0.0781766
0.07867
0.0791595
0.0796449
0.06036
0.0608004
0.0612422
0.0616855
0.0621304
0.062577
0.0630253
0.0634754
0.0639273
0.0643811
0.0648368
0.0652944
0.0657541
0.0662159
0.0666798
0.067146
0.0676144
0.0680852
0.0685583
0.0690339
0.0695119
0.0699923
0.0704751
0.0709604
0.071448
0.0719378
0.0724298
0.0729238
0.0734196
0.0739169
0.0744154
0.0749148
0.0754145
0.075914
0.0764127
0.0769096
0.077404
0.0778947
0.0783805
0.0788599
0.0793311
0.0797923
0.0802412
0.0806753
0.0810916
0.0814868
0.0818573
0.0821992
0.0825081
0.0827792
0.0735104
0.074108
0.0747074
0.075307
0.0759064
0.0765055
0.0771039
0.0777018
0.0782991
0.0788957
0.0794917
0.080087
0.0806819
0.0812763
0.0818703
0.0824639
0.0830572
0.0836503
0.0842431
0.0848357
0.0854279
0.0860198
0.0866111
0.0872016
0.0877911
0.0883792
0.0889654
0.0895492
0.0901297
0.0907061
0.0912774
0.0918422
0.092399
0.092946
0.0934809
0.0940013
0.0945043
0.0949863
0.0954434
0.0958709
0.0962634
0.0966148
0.096918
0.0971647
0.0973457
0.09745
0.0974654
0.0973786
0.0971753
0.0968387
0.128043
0.129331
0.130605
0.131871
0.13313
0.13438
0.135622
0.136856
0.138081
0.139296
0.140502
0.141698
0.142885
0.144062
0.145229
0.146388
0.147537
0.148677
0.149807
0.150928
0.152039
0.153139
0.154228
0.155305
0.156369
0.157418
0.158449
0.159461
0.160451
0.161415
0.162348
0.163245
0.1641
0.164907
0.165654
0.166334
0.166932
0.167436
0.167828
0.168088
0.168193
0.168115
0.167821
0.167273
0.166422
0.16521
0.163564
0.161391
0.158581
0.154977
0.438623
0.442395
0.446255
0.450153
0.454079
0.458029
0.462002
0.465997
0.470013
0.474051
0.478109
0.482187
0.486285
0.490404
0.494543
0.498702
0.502882
0.507082
0.511301
0.515539
0.519795
0.524066
0.52835
0.532643
0.53694
0.541235
0.545522
0.549791
0.554033
0.558233
0.562377
0.566446
0.570419
0.574269
0.577967
0.581476
0.584752
0.587745
0.590394
0.592627
0.594358
0.59548
0.595867
0.595361
0.593761
0.590807
0.586148
0.579309
0.569694
0.556473
3.06267
3.07351
3.08449
3.09558
3.10678
3.11812
3.12958
3.1412
3.15297
3.16491
3.17703
3.18933
3.20183
3.21452
3.22743
3.24055
3.25389
3.26745
3.28124
3.29525
3.30948
3.32395
3.33865
3.35358
3.36875
3.38415
3.39978
3.41565
3.43175
3.44808
3.46464
3.48143
3.49843
3.51564
3.53305
3.55064
3.56841
3.58633
3.60438
3.62253
3.64074
3.65897
3.67717
3.69527
3.71321
3.73088
3.74817
3.76494
3.78101
3.79607
73.1773
70.2179
67.461
64.8858
62.4703
60.1955
58.0434
56.004
54.0693
52.2323
50.4868
48.8269
47.2474
45.7435
44.3107
42.9449
41.6421
40.3988
39.2116
38.0773
36.9931
35.9562
34.964
34.0141
33.1044
32.2326
31.3969
30.5954
29.8263
29.0881
28.3793
27.6984
27.044
26.415
25.8102
25.2285
24.6689
24.1304
23.6112
23.1092
22.6232
22.1524
21.6955
21.2515
20.819
20.3964
19.9816
19.5713
19.16
18.7372
71.8241
67.0004
62.5981
58.5672
54.8759
51.4921
48.3897
45.5401
42.918
40.5008
38.2687
36.2039
34.2908
32.5156
30.8658
29.3303
27.8993
26.5639
25.316
24.1485
23.0548
22.0292
21.0662
20.161
19.3093
18.507
17.7506
17.0366
16.3621
15.7242
15.1203
14.5482
14.0055
13.4903
13.0005
12.5345
12.0906
11.6672
11.2636
10.8795
10.5137
10.1649
9.83231
9.51481
9.21149
8.92149
8.64391
8.37788
8.12245
7.87651
71.8183
66.982
62.5556
58.5062
54.7967
51.3941
48.268
45.3908
42.7383
40.2889
38.0233
35.9245
33.9775
32.1687
30.486
28.9187
27.457
26.0922
24.8163
23.6223
22.5038
21.4548
20.4701
19.5448
18.6744
17.8551
17.0832
16.3552
15.668
15.019
14.4054
13.8249
13.2753
12.7547
12.2611
11.793
11.3487
10.9267
10.5256
10.1444
9.7817
9.43654
9.10792
8.79491
8.49668
8.21243
7.94144
7.68305
7.43661
7.2015
71.8184
67.0163
62.6275
58.6113
54.9289
51.5463
48.4337
45.5648
42.9162
40.4672
38.1996
36.0969
34.1446
32.3296
30.64
29.0654
27.5962
26.2237
24.9403
23.7388
22.6129
21.5567
20.5651
19.6331
18.7564
17.9309
17.1531
16.4195
15.7271
15.0731
14.4548
13.8699
13.3161
12.7916
12.2943
11.8225
11.3748
10.9496
10.5455
10.1614
9.79594
9.44817
9.11707
8.8017
8.50121
8.2148
7.94174
7.68132
7.4329
7.19583
71.8184
67.0171
62.6267
58.6058
54.9176
51.5292
48.4116
45.5386
42.8872
40.4366
38.1684
36.066
34.1146
32.301
30.6132
29.0407
27.5736
26.2035
24.9224
23.7232
22.5995
21.5455
20.5559
19.6259
18.751
17.9272
17.1509
16.4188
15.7277
15.0748
14.4576
13.8737
13.3208
12.797
12.3004
11.8293
11.382
10.9573
10.5535
10.1696
9.80441
9.45676
9.12569
8.81027
8.50964
8.223
7.94959
7.68871
7.43969
7.20187
71.8184
67.0197
62.6344
58.6198
54.9384
51.5569
48.4456
45.5783
42.9316
40.4848
38.2194
36.1191
34.169
32.3561
30.6685
29.0956
27.6279
26.2568
24.9745
23.774
22.6488
21.5932
20.602
19.6703
18.7937
17.9682
17.1903
16.4565
15.7637
15.1093
14.4905
13.905
13.3506
12.8254
12.3273
11.8548
11.4062
10.9801
10.575
10.1899
9.82333
9.47439
9.14203
8.82532
8.52338
8.2354
7.96061
7.69829
7.44777
7.20838
71.8184
67.0203
62.6359
58.6219
54.9405
51.5583
48.4458
45.5769
42.9285
40.48
38.213
36.1112
34.1599
32.3459
30.6576
29.0841
27.6161
26.2447
24.9624
23.7619
22.6369
21.5816
20.5907
19.6594
18.7832
17.9582
17.1807
16.4474
15.7551
15.1011
14.4828
13.8978
13.3439
12.819
12.3213
11.8492
11.4009
10.975
10.5702
10.1853
9.81889
9.47006
9.13776
8.82105
8.51904
8.23093
7.95593
7.69333
7.44243
7.20258
71.8184
67.0207
62.6371
58.6241
54.944
51.5631
48.452
45.5846
42.9376
40.4905
38.2249
36.1242
34.174
32.3609
30.6733
29.1004
27.6328
26.2617
24.9795
23.7791
22.6541
21.5986
20.6075
19.6758
18.7993
17.9739
17.1959
16.4621
15.7693
15.1148
14.4959
13.9102
13.3557
12.8302
12.3319
11.8591
11.4101
10.9836
10.5781
10.1924
9.82528
9.47568
9.14258
8.82504
8.52216
8.23313
7.95717
7.69356
7.4416
7.20063
71.8184
67.0208
62.6375
58.6249
54.9451
51.5644
48.4533
45.5858
42.9386
40.491
38.2249
36.1237
34.1729
32.3593
30.6711
29.0978
27.6297
26.2583
24.9758
23.775
22.6498
21.5941
20.6028
19.6711
18.7944
17.969
17.191
16.4572
15.7644
15.1099
14.4911
13.9055
13.351
12.8255
12.3272
11.8544
11.4055
10.9789
10.5734
10.1876
9.82034
9.4706
9.13732
8.81955
8.5164
8.22705
7.95072
7.68668
7.43424
7.19273
71.8184
67.0208
62.6377
58.6253
54.9457
51.5652
48.4544
45.5871
42.9401
40.4928
38.227
36.1261
34.1755
32.3621
30.6742
29.101
27.6331
26.2618
24.9794
23.7788
22.6535
21.5979
20.6066
19.6748
18.7981
17.9726
17.1945
16.4606
15.7677
15.113
14.4939
13.9081
13.3534
12.8277
12.3291
11.856
11.4067
10.9798
10.5739
10.1878
9.82012
9.46992
9.13615
8.81785
8.51413
8.22417
7.94717
7.68242
7.42923
7.18692
71.8184
67.0208
62.6377
58.6253
54.9457
51.5652
48.4544
45.5871
42.9401
40.4928
38.2269
36.126
34.1754
32.362
30.674
29.1008
27.6329
26.2616
24.9792
23.7785
22.6532
21.5976
20.6062
19.6743
18.7976
17.972
17.1939
16.4598
15.7668
15.112
14.4929
13.9069
13.3521
12.8262
12.3275
11.8542
11.4047
10.9776
10.5714
10.185
9.81701
9.46647
9.13232
8.8136
8.50943
8.21896
7.94142
7.67607
7.42225
7.17927
71.8184
67.0208
62.6375
58.6249
54.9451
51.5644
48.4533
45.5857
42.9385
40.4909
38.2247
36.1235
34.1727
32.359
30.6708
29.0974
27.6292
26.2577
24.9751
23.7743
22.6489
21.5931
20.6017
19.6698
18.793
17.9674
17.1892
16.4552
15.7622
15.1074
14.4883
13.9023
13.3474
12.8216
12.3228
11.8495
11.3999
10.9727
10.5665
10.1799
9.81177
9.46104
9.12667
8.80768
8.50319
8.21237
7.93443
7.66863
7.41431
7.17078
71.8184
67.0207
62.637
58.6241
54.9439
51.563
48.4519
45.5845
42.9375
40.4903
38.2246
36.1239
34.1735
32.3604
30.6726
29.0996
27.6319
26.2607
24.9784
23.7778
22.6525
21.5969
20.6055
19.6736
18.7968
17.971
17.1927
16.4585
15.7653
15.1103
14.4909
13.9047
13.3495
12.8233
12.3242
11.8505
11.4006
10.973
10.5663
10.1793
9.81065
9.4594
9.12447
8.8049
8.49978
8.20829
7.92964
7.6631
7.40798
7.16362
71.8184
67.0203
62.6359
58.6219
54.9405
51.5582
48.4457
45.5767
42.9283
40.4797
38.2126
36.1107
34.1593
32.3453
30.6568
29.0832
27.615
26.2435
24.9609
23.7602
22.635
21.5795
20.5882
19.6566
18.78
17.9546
17.1767
16.4429
15.7501
15.0955
14.4764
13.8906
13.3359
12.81
12.3113
11.838
11.3884
10.961
10.5546
10.1678
9.79936
9.44825
9.11343
8.79391
8.4888
8.19725
7.91849
7.65178
7.39642
7.15175
71.8184
67.0197
62.6344
58.6197
54.9383
51.5568
48.4455
45.5781
42.9313
40.4844
38.2189
36.1185
34.1683
32.3552
30.6674
29.0943
27.6264
26.2551
24.9725
23.7717
22.6462
21.5902
20.5986
19.6664
18.7893
17.9633
17.1848
16.4503
15.7569
15.1016
14.4819
13.8955
13.34
12.8135
12.3141
11.8401
11.3899
10.9619
10.5548
10.1673
9.79817
9.44637
9.11082
8.79055
8.48467
8.19233
7.91272
7.64512
7.38883
7.14318
71.8184
67.0171
62.6267
58.6058
54.9175
51.5291
48.4114
45.5384
42.8869
40.4362
38.1678
36.0653
34.1138
32.3
30.612
29.0393
27.572
26.2016
24.9202
23.7207
22.5967
21.5423
20.5522
19.6217
18.7463
17.9219
17.1449
16.4121
15.7201
15.0663
14.4481
13.863
13.3089
12.7836
12.2854
11.8125
11.3633
10.9363
10.5301
10.1435
9.77517
9.42408
9.08918
8.76949
8.46411
8.17218
7.89292
7.62559
7.36949
7.12397
71.8184
67.0163
62.6275
58.6112
54.9288
51.5462
48.4336
45.5645
42.9158
40.4667
38.1989
36.0961
34.1436
32.3284
30.6386
29.0637
27.5942
26.2214
24.9376
23.7357
22.6094
21.5528
20.5606
19.628
18.7507
17.9246
17.146
16.4115
15.7182
15.0631
14.4436
13.8574
13.3023
12.7761
12.2771
11.8034
11.3536
10.9259
10.5192
10.1321
9.76337
9.41193
9.07675
8.75685
8.45133
8.15937
7.88018
7.61307
7.3574
7.1126
71.8183
66.982
62.5556
58.5061
54.7966
51.394
48.2677
45.3905
42.7379
40.2883
38.0226
35.9237
33.9765
32.1675
30.4846
28.9171
27.4551
26.09
24.8139
23.6196
22.5007
21.4514
20.4663
19.5406
18.6698
17.8501
17.0776
16.3491
15.6615
15.0119
14.3977
13.8166
13.2664
12.7451
12.2508
11.7817
11.3364
10.9133
10.511
10.1284
9.76435
9.41768
9.08748
8.77285
8.47301
8.18726
7.91502
7.65587
7.40963
7.1765
71.8241
67.0004
62.598
58.5672
54.8758
51.492
48.3896
45.54
42.918
40.5008
38.2687
36.204
34.2911
32.516
30.8663
29.3311
27.9004
26.5652
25.3177
24.1507
23.0576
22.0326
21.0705
20.1663
19.3158
18.5149
17.7602
17.0482
16.376
15.7409
15.1403
14.5719
14.0338
13.5239
13.0405
12.5821
12.1471
11.7342
11.3423
10.9702
10.617
10.2819
9.96405
9.66295
9.37819
9.10956
8.85726
8.62208
8.40607
8.21387
73.1773
70.2179
67.461
64.8858
62.4703
60.1955
58.0433
56.0038
54.0689
52.2317
50.4859
48.8257
47.2459
45.7417
44.3084
42.9421
41.6387
40.3947
39.2067
38.0716
36.9864
35.9483
34.9548
34.0035
33.0921
32.2184
31.3805
30.5765
29.8046
29.0632
28.3506
27.6655
27.0064
26.372
25.761
25.1723
24.6046
24.0569
23.5283
23.0175
22.5238
22.0462
21.5837
21.1354
20.7005
20.2781
19.8671
19.4665
19.0753
18.6918
5.72239
0.914298
0.422325
0.375669
0.352846
0.345609
0.330247
0.32102
0.308453
0.298169
0.287858
0.276863
0.26857
0.256848
0.25046
0.237677
0.236427
0.249681
0.517369
3.3847
5.74285
0.920923
0.426856
0.379988
0.357048
0.349697
0.334225
0.324877
0.312208
0.301805
0.291399
0.280287
0.271907
0.260068
0.253602
0.240697
0.239409
0.252774
0.522388
3.3987
5.76355
0.927362
0.431432
0.384373
0.361318
0.353852
0.338268
0.328798
0.316026
0.305502
0.295001
0.283769
0.275303
0.263345
0.2568
0.243772
0.242443
0.255917
0.527401
3.41141
5.7845
0.933765
0.436064
0.388828
0.365657
0.358073
0.342378
0.332784
0.319908
0.309262
0.298663
0.287312
0.278756
0.266679
0.260053
0.246902
0.24553
0.259102
0.532098
3.42435
5.80569
0.940198
0.44076
0.393353
0.370067
0.362364
0.346556
0.336836
0.323855
0.313085
0.302389
0.290915
0.28227
0.270072
0.263364
0.250089
0.24867
0.26231
0.536701
3.4375
5.82711
0.946689
0.445525
0.397951
0.374549
0.366725
0.350804
0.340956
0.327869
0.316973
0.306178
0.294582
0.285845
0.273526
0.266732
0.253334
0.251864
0.265553
0.541281
3.45086
5.84878
0.953256
0.450365
0.402623
0.379105
0.371158
0.355123
0.345145
0.331951
0.320927
0.310032
0.298311
0.289482
0.27704
0.270161
0.256637
0.255114
0.268839
0.545875
3.46443
5.8707
0.959907
0.455282
0.407372
0.383738
0.375665
0.359515
0.349404
0.336103
0.324949
0.313954
0.302106
0.293182
0.280617
0.273651
0.259999
0.258421
0.272174
0.550502
3.47822
5.89287
0.966648
0.460279
0.412198
0.388447
0.380246
0.36398
0.353736
0.340325
0.329041
0.317943
0.305968
0.296948
0.284257
0.277203
0.263422
0.261786
0.275562
0.555176
3.49221
5.91529
0.973483
0.465358
0.417104
0.393236
0.384904
0.368522
0.358141
0.344621
0.333203
0.322001
0.309897
0.30078
0.287963
0.28082
0.266906
0.265211
0.279005
0.559907
3.50642
5.93797
0.980416
0.470522
0.42209
0.398105
0.389641
0.373141
0.362621
0.348991
0.337438
0.326131
0.313896
0.30468
0.291736
0.284501
0.270453
0.268698
0.282506
0.5647
3.52084
5.96092
0.987449
0.475771
0.42716
0.403056
0.394457
0.37784
0.367179
0.353436
0.341746
0.330333
0.317965
0.308649
0.295576
0.288248
0.274064
0.272247
0.286068
0.569562
3.53549
5.98413
0.994583
0.481108
0.432314
0.408092
0.399355
0.382619
0.371815
0.357959
0.34613
0.334609
0.322107
0.31269
0.299485
0.292063
0.277741
0.275861
0.289692
0.574495
3.55035
6.00761
1.00182
0.486535
0.437554
0.413214
0.404336
0.38748
0.37653
0.36256
0.35059
0.338961
0.326322
0.316803
0.303465
0.295947
0.281486
0.279541
0.293381
0.579505
3.56544
6.03137
1.00916
0.492053
0.442883
0.418423
0.409402
0.392425
0.381328
0.367243
0.35513
0.343389
0.330613
0.320989
0.307517
0.299901
0.285299
0.283287
0.297136
0.584594
3.58076
6.05541
1.01661
0.497665
0.448301
0.423722
0.414555
0.397457
0.38621
0.372007
0.359749
0.347897
0.334981
0.325252
0.311643
0.303928
0.289183
0.287103
0.300959
0.589764
3.59631
6.07973
1.02417
0.503371
0.453811
0.429112
0.419797
0.402576
0.391176
0.376856
0.364451
0.352485
0.339428
0.329592
0.315844
0.308028
0.293138
0.290989
0.304852
0.595019
3.61211
6.10434
1.03183
0.509174
0.459414
0.434595
0.425129
0.407785
0.39623
0.381791
0.369237
0.357156
0.343956
0.33401
0.320123
0.312204
0.297167
0.294947
0.308817
0.600362
3.62814
6.12925
1.03961
0.515075
0.465113
0.440173
0.430554
0.413086
0.401374
0.386814
0.374108
0.361911
0.348566
0.338509
0.32448
0.316457
0.301272
0.298978
0.312855
0.605793
3.64442
6.15445
1.0475
0.521077
0.47091
0.445849
0.436073
0.41848
0.406608
0.391926
0.379067
0.366752
0.35326
0.343091
0.328918
0.320789
0.305453
0.303085
0.316969
0.611317
3.66094
6.17995
1.05551
0.527182
0.476806
0.451624
0.441689
0.423969
0.411935
0.39713
0.384115
0.371681
0.35804
0.347757
0.333438
0.325202
0.309714
0.307269
0.32116
0.616935
3.67773
6.20575
1.06363
0.533391
0.482804
0.457501
0.447404
0.429557
0.417358
0.402428
0.389256
0.376699
0.362908
0.352509
0.338043
0.329697
0.314055
0.311532
0.325429
0.622649
3.69477
6.23187
1.07186
0.539707
0.488906
0.463481
0.453219
0.435243
0.422877
0.407822
0.394489
0.38181
0.367867
0.357349
0.342734
0.334276
0.318478
0.315876
0.32978
0.628462
3.71207
6.2583
1.08022
0.546132
0.495114
0.469567
0.459137
0.441032
0.428496
0.413314
0.399818
0.387015
0.372917
0.36228
0.347513
0.338942
0.322986
0.320303
0.334214
0.634377
3.72965
6.28505
1.0887
0.552668
0.501431
0.475761
0.46516
0.446925
0.434216
0.418905
0.405245
0.392315
0.378061
0.367302
0.352383
0.343696
0.32758
0.324814
0.338733
0.640395
3.7475
6.31212
1.0973
0.559318
0.507858
0.482066
0.471291
0.452925
0.440041
0.4246
0.410773
0.397714
0.383302
0.372419
0.357345
0.348541
0.332263
0.329412
0.343339
0.646519
3.76563
6.33951
1.10603
0.566083
0.514398
0.488484
0.477532
0.459033
0.445971
0.430398
0.416402
0.403214
0.388641
0.377633
0.362402
0.353478
0.337037
0.334099
0.348033
0.652752
3.78404
6.36724
1.11489
0.572967
0.521054
0.495017
0.483885
0.465253
0.45201
0.436304
0.422136
0.408816
0.394081
0.382946
0.367556
0.35851
0.341903
0.338876
0.35282
0.659095
3.80274
6.39531
1.12388
0.579971
0.527828
0.501668
0.490353
0.471587
0.45816
0.44232
0.427977
0.414524
0.399624
0.388359
0.372808
0.363639
0.346864
0.343747
0.357699
0.665553
3.82174
6.42371
1.13299
0.587099
0.534722
0.50844
0.496939
0.478036
0.464424
0.448447
0.433928
0.42034
0.405273
0.393876
0.378163
0.368867
0.351923
0.348713
0.362675
0.672126
3.84103
6.45246
1.14225
0.594353
0.541741
0.515335
0.503644
0.484605
0.470803
0.454689
0.439991
0.426265
0.41103
0.399499
0.383621
0.374197
0.357081
0.353777
0.367748
0.678818
3.86064
6.48157
1.15164
0.601736
0.548885
0.522356
0.510472
0.491296
0.477302
0.461048
0.446169
0.432304
0.416898
0.405231
0.389186
0.379631
0.362342
0.35894
0.372922
0.685632
3.88055
6.51102
1.16117
0.609251
0.556158
0.529506
0.517426
0.49811
0.483922
0.467527
0.452464
0.438458
0.422878
0.411074
0.394859
0.385172
0.367707
0.364206
0.378199
0.692571
3.90079
6.54084
1.17085
0.6169
0.563563
0.536788
0.524508
0.505053
0.490666
0.474129
0.458879
0.44473
0.428975
0.41703
0.400645
0.390823
0.373179
0.369578
0.383582
0.699637
3.92134
6.57103
1.18067
0.624687
0.571103
0.544204
0.531722
0.512125
0.497538
0.480857
0.465418
0.451124
0.435191
0.423103
0.406545
0.396585
0.378761
0.375056
0.389073
0.706833
3.94223
6.60158
1.19063
0.632614
0.578781
0.551759
0.53907
0.519331
0.50454
0.487713
0.472082
0.457641
0.441528
0.429296
0.412562
0.402462
0.384456
0.380646
0.394676
0.714163
3.96346
6.63251
1.20075
0.640685
0.5866
0.559454
0.546556
0.526674
0.511675
0.494701
0.478875
0.464285
0.44799
0.435611
0.418699
0.408457
0.390266
0.386348
0.400392
0.72163
3.98504
6.66383
1.21103
0.648904
0.594563
0.567294
0.554183
0.534156
0.518948
0.501824
0.485801
0.471059
0.45458
0.442051
0.42496
0.414572
0.396195
0.392166
0.406224
0.729237
4.00696
6.69553
1.22146
0.657272
0.602675
0.575282
0.561954
0.541781
0.526359
0.509084
0.492862
0.477967
0.461301
0.448619
0.431346
0.420811
0.402245
0.398104
0.412177
0.736987
4.02924
6.72763
1.23205
0.665795
0.610937
0.583421
0.569872
0.549552
0.533915
0.516486
0.500062
0.485011
0.468156
0.45532
0.437862
0.427177
0.408419
0.404163
0.418252
0.744884
4.05189
6.76012
1.2428
0.674475
0.619354
0.591714
0.577942
0.557473
0.541616
0.524034
0.507404
0.492194
0.475148
0.462155
0.444511
0.433672
0.414721
0.410348
0.424453
0.752932
4.07491
6.79302
1.25373
0.683316
0.627929
0.600166
0.586166
0.565548
0.549468
0.531729
0.514891
0.499522
0.482281
0.469128
0.451296
0.440301
0.421154
0.416661
0.430784
0.761134
4.09832
6.82633
1.26482
0.692322
0.636666
0.60878
0.594549
0.57378
0.557474
0.539576
0.522528
0.506996
0.489558
0.476244
0.45822
0.447067
0.427721
0.423105
0.437247
0.769494
4.12211
6.86006
1.27609
0.701496
0.645569
0.617561
0.603094
0.582172
0.565638
0.54758
0.530317
0.51462
0.496984
0.483504
0.465287
0.453973
0.434426
0.429685
0.443846
0.778016
4.1463
6.89422
1.28753
0.710843
0.654642
0.626511
0.611805
0.59073
0.573963
0.555743
0.538264
0.522399
0.504562
0.490915
0.472501
0.461023
0.441273
0.436404
0.450585
0.786705
4.1709
6.9288
1.29916
0.720367
0.663889
0.635635
0.620686
0.599457
0.582454
0.564069
0.546371
0.530336
0.512295
0.498478
0.479866
0.46822
0.448265
0.443265
0.457468
0.795563
4.19591
6.96383
1.31097
0.730071
0.673314
0.644938
0.629742
0.608357
0.591115
0.572563
0.554642
0.538436
0.520188
0.506198
0.487385
0.475569
0.455406
0.450272
0.464498
0.804597
4.22134
6.9993
1.32297
0.739961
0.682921
0.654423
0.638976
0.617434
0.599949
0.581229
0.563083
0.546702
0.528245
0.514079
0.495063
0.483074
0.4627
0.45743
0.471679
0.813809
4.24721
7.03522
1.33516
0.750041
0.692716
0.664095
0.648394
0.626693
0.608962
0.590072
0.571698
0.555139
0.53647
0.522125
0.502904
0.490738
0.470151
0.464741
0.479016
0.823205
4.27352
7.0716
1.34756
0.760315
0.702701
0.67396
0.657999
0.636138
0.618158
0.599095
0.58049
0.563751
0.544868
0.530341
0.510912
0.498567
0.477764
0.472211
0.486512
0.83279
4.30028
7.10844
1.36015
0.770788
0.712883
0.68402
0.667797
0.645775
0.627542
0.608304
0.589464
0.572543
0.553443
0.538732
0.519091
0.506563
0.485542
0.479844
0.494172
0.842569
4.32751
7.14576
1.37295
0.781464
0.723267
0.694283
0.677792
0.655607
0.637118
0.617703
0.598626
0.581519
0.562199
0.547301
0.527446
0.514733
0.49349
0.487644
0.502001
0.852546
4.35521
7.18356
1.38597
0.79235
0.733856
0.704751
0.687989
0.66564
0.646891
0.627297
0.607979
0.590685
0.571143
0.556053
0.535983
0.52308
0.501614
0.495615
0.510003
0.862726
4.38338
7.22185
1.3992
0.803449
0.744656
0.715431
0.698394
0.675879
0.656866
0.637091
0.61753
0.600045
0.580277
0.564994
0.544705
0.531609
0.509917
0.503763
0.518183
0.873117
4.41206
7.26064
1.41265
0.814768
0.755673
0.726328
0.709012
0.68633
0.66705
0.647091
0.627283
0.609604
0.589609
0.574129
0.553618
0.540326
0.518405
0.512093
0.526545
0.883722
4.44124
7.29993
1.42632
0.826312
0.766912
0.737448
0.719848
0.696997
0.677446
0.657301
0.637244
0.619369
0.599142
0.583462
0.562728
0.549236
0.527083
0.520609
0.535097
0.894547
4.47093
7.33974
1.44023
0.838086
0.778379
0.748796
0.730907
0.707887
0.688061
0.667728
0.647418
0.629344
0.608883
0.593
0.572039
0.558343
0.535956
0.529316
0.543841
0.9056
4.50115
7.38007
1.45437
0.850096
0.790079
0.760377
0.742197
0.719005
0.698901
0.678377
0.657811
0.639534
0.618838
0.602748
0.581557
0.567654
0.545029
0.538221
0.552785
0.916885
4.53192
7.42094
1.46876
0.862349
0.802019
0.772199
0.753722
0.730357
0.709972
0.689254
0.668429
0.649947
0.629011
0.612711
0.591288
0.577175
0.554309
0.547329
0.561933
0.92841
4.56324
7.46234
1.48339
0.874849
0.814205
0.784267
0.765489
0.74195
0.721279
0.700366
0.679278
0.660588
0.639409
0.622896
0.601238
0.58691
0.563801
0.556645
0.571292
0.940181
4.59512
7.5043
1.49828
0.887605
0.826642
0.796588
0.777504
0.753789
0.732829
0.711717
0.690364
0.671463
0.650039
0.633309
0.611413
0.596867
0.573512
0.566176
0.580867
0.952205
4.62758
7.54681
1.51343
0.900622
0.839339
0.809167
0.789774
0.765881
0.744628
0.723316
0.701694
0.682578
0.660907
0.643956
0.621819
0.607051
0.583447
0.575928
0.590666
0.964488
4.66064
7.58989
1.52884
0.913906
0.8523
0.822013
0.802306
0.778234
0.756684
0.735169
0.713275
0.693942
0.672019
0.654844
0.632463
0.617469
0.593614
0.585907
0.600694
0.977039
4.69431
7.63356
1.54453
0.927466
0.865534
0.835132
0.815106
0.790854
0.769004
0.747283
0.725113
0.705559
0.683382
0.66598
0.643353
0.628128
0.604018
0.59612
0.610959
0.989865
4.7286
7.67781
1.56049
0.941307
0.879048
0.848532
0.828183
0.803748
0.781594
0.759664
0.737216
0.717438
0.695004
0.67737
0.654494
0.639035
0.614667
0.606574
0.621467
1.00297
4.76352
7.72266
1.57675
0.955439
0.892849
0.862219
0.841543
0.816924
0.794462
0.772321
0.749591
0.729586
0.706892
0.689023
0.665895
0.650197
0.625568
0.617275
0.632226
1.01637
4.7991
7.76812
1.59329
0.969867
0.906945
0.876202
0.855194
0.830389
0.807616
0.785261
0.762246
0.74201
0.719053
0.700946
0.677562
0.661622
0.636729
0.628233
0.643242
1.03007
4.83535
7.81421
1.61013
0.9846
0.921343
0.890488
0.869144
0.844152
0.821063
0.798492
0.775188
0.754719
0.731496
0.713146
0.689504
0.673317