/*--------------------------------*- C++ -*----------------------------------*\
  =========                 |
  \\      /  F ield         | OpenFOAM: The Open Source CFD Toolbox
   \\    /   O peration     | Website:  https://openfoam.org
    \\  /    A nd           | Version:  8
     \\/     M anipulation  |
\*---------------------------------------------------------------------------*/
FoamFile
{
    version     2.0;
    format      ascii;
    class       volScalarField;
    location    "300";
    object      k;
}
// * * * * * * * * * * * * * * * * * * * * * * * * * * * * * * * * * * * * * //

dimensions      [0 2 -2 0 0 0 0];

internalField   nonuniform List<scalar> 
8400
(
0.0962561
0.0960751
0.0958933
0.0957111
0.0955283
0.0953449
0.0951608
0.0949757
0.0947897
0.0946026
0.0944143
0.0942246
0.0940334
0.0938406
0.0936461
0.0934498
0.0932514
0.093051
0.0928483
0.0926433
0.0924359
0.092226
0.0920134
0.0917981
0.0915802
0.0913594
0.0911367
0.090914
0.0906919
0.0904709
0.090252
0.0900358
0.0898236
0.0896163
0.0894154
0.0892224
0.0890391
0.0888677
0.0887105
0.0885707
0.0884515
0.0883572
0.0882928
0.0882645
0.08828
0.0883495
0.0884864
0.0887091
0.0890409
0.0895147
0.0172281
0.0172469
0.0172643
0.0172811
0.0172977
0.017314
0.0173302
0.0173462
0.0173619
0.0173775
0.0173929
0.017408
0.017423
0.0174378
0.0174526
0.0174672
0.0174819
0.0174968
0.0175118
0.0175272
0.017543
0.0175596
0.0175769
0.0175954
0.0176151
0.0176365
0.0176595
0.0176831
0.0177076
0.017733
0.0177595
0.0177873
0.0178166
0.0178476
0.0178806
0.017916
0.017954
0.0179952
0.0180399
0.0180888
0.0181425
0.0182018
0.0182677
0.0183412
0.0184239
0.0185175
0.0186243
0.0187473
0.0188903
0.0190588
0.0068537
0.00688074
0.00690787
0.00693505
0.00696224
0.00698943
0.00701661
0.00704378
0.00707093
0.00709806
0.00712518
0.00715227
0.00717936
0.00720643
0.00723351
0.0072606
0.00728773
0.00731492
0.00734219
0.00736958
0.00739711
0.00742483
0.00745281
0.00748112
0.00750983
0.00753903
0.00756847
0.00759801
0.00762767
0.00765747
0.00768742
0.00771756
0.00774789
0.00777847
0.00780931
0.00784047
0.00787199
0.00790393
0.00793635
0.00796934
0.00800297
0.00803737
0.00807266
0.00810898
0.00814653
0.00818554
0.00822629
0.00826913
0.00831453
0.00836307
0.00608929
0.00611273
0.00613627
0.00615991
0.00618364
0.00620749
0.00623145
0.00625551
0.00627969
0.00630399
0.00632841
0.00635294
0.0063776
0.00640238
0.00642729
0.00645233
0.00647751
0.00650282
0.00652828
0.00655389
0.00657965
0.00660558
0.00663166
0.00665789
0.00668426
0.00671078
0.00673744
0.00676425
0.00679121
0.00681832
0.00684558
0.00687299
0.00690056
0.00692829
0.00695618
0.00698423
0.00701245
0.00704084
0.00706941
0.00709816
0.00712709
0.00715621
0.00718554
0.00721508
0.00724484
0.00727485
0.00730513
0.00733572
0.00736664
0.00739796
0.00611263
0.00613557
0.00615863
0.00618181
0.00620511
0.00622853
0.00625208
0.00627576
0.00629957
0.00632352
0.00634761
0.00637184
0.00639622
0.00642074
0.00644542
0.00647025
0.00649525
0.0065204
0.0065457
0.00657117
0.00659679
0.00662258
0.00664852
0.00667462
0.00670088
0.0067273
0.00675387
0.00678059
0.00680746
0.00683447
0.00686163
0.00688891
0.00691633
0.00694386
0.00697149
0.00699921
0.00702702
0.00705488
0.00708278
0.00711069
0.00713858
0.00716643
0.00719417
0.00722178
0.00724918
0.0072763
0.00730306
0.00732935
0.00735505
0.00738
0.00632445
0.00634876
0.00637321
0.00639778
0.00642246
0.00644727
0.00647221
0.00649727
0.00652247
0.0065478
0.00657328
0.00659889
0.00662465
0.00665056
0.00667662
0.00670283
0.00672919
0.0067557
0.00678237
0.0068092
0.00683619
0.00686335
0.00689067
0.00691815
0.00694579
0.00697361
0.00700158
0.00702972
0.00705802
0.00708648
0.00711509
0.00714386
0.00717278
0.00720183
0.00723103
0.00726035
0.00728979
0.00731933
0.00734897
0.00737868
0.00740844
0.00743825
0.00746806
0.00749785
0.00752759
0.00755723
0.00758675
0.00761608
0.00764517
0.00767398
0.00646747
0.0064926
0.00651787
0.00654325
0.00656876
0.0065944
0.00662016
0.00664607
0.00667211
0.0066983
0.00672463
0.00675111
0.00677775
0.00680454
0.00683148
0.00685859
0.00688586
0.00691329
0.00694088
0.00696865
0.00699658
0.00702468
0.00705296
0.0070814
0.00711001
0.00713878
0.00716773
0.00719683
0.00722609
0.00725551
0.00728508
0.00731479
0.00734463
0.00737459
0.00740466
0.00743482
0.00746507
0.00749536
0.00752569
0.00755602
0.00758632
0.00761654
0.00764664
0.00767657
0.00770627
0.00773565
0.00776463
0.00779311
0.00782098
0.00784811
0.00666258
0.00668903
0.00671562
0.00674233
0.00676917
0.00679614
0.00682325
0.00685049
0.00687787
0.00690541
0.00693309
0.00696092
0.0069889
0.00701704
0.00704535
0.00707381
0.00710245
0.00713125
0.00716022
0.00718937
0.00721868
0.00724817
0.00727784
0.00730768
0.0073377
0.00736789
0.00739826
0.0074288
0.0074595
0.00749037
0.0075214
0.00755259
0.00758392
0.00761539
0.00764698
0.00767869
0.0077105
0.00774239
0.00777434
0.00780633
0.00783832
0.00787029
0.00790219
0.00793398
0.00796562
0.00799703
0.00802816
0.00805893
0.00808927
0.00811909
0.00682657
0.0068541
0.00688178
0.00690958
0.00693752
0.00696559
0.00699379
0.00702214
0.00705064
0.00707928
0.00710808
0.00713704
0.00716615
0.00719543
0.00722488
0.0072545
0.00728429
0.00731425
0.00734439
0.00737471
0.0074052
0.00743588
0.00746674
0.00749778
0.007529
0.0075604
0.00759198
0.00762373
0.00765565
0.00768774
0.00771999
0.00775239
0.00778494
0.00781761
0.00785041
0.00788331
0.00791629
0.00794934
0.00798242
0.00801551
0.00804856
0.00808154
0.0081144
0.00814709
0.00817953
0.00821166
0.0082434
0.00827464
0.0083053
0.00833526
0.00701063
0.00703947
0.00706844
0.00709753
0.00712676
0.00715612
0.00718563
0.00721528
0.00724508
0.00727504
0.00730515
0.00733542
0.00736587
0.00739648
0.00742726
0.00745821
0.00748935
0.00752066
0.00755216
0.00758384
0.00761571
0.00764776
0.00768
0.00771243
0.00774504
0.00777785
0.00781083
0.007844
0.00787735
0.00791087
0.00794456
0.00797841
0.00801241
0.00804655
0.00808081
0.00811518
0.00814964
0.00818417
0.00821874
0.00825331
0.00828785
0.00832232
0.00835667
0.00839083
0.00842473
0.00845832
0.00849148
0.00852413
0.00855616
0.00858744
0.00719171
0.00722187
0.00725218
0.00728262
0.00731321
0.00734393
0.00737481
0.00740583
0.007437
0.00746834
0.00749983
0.00753149
0.00756332
0.00759533
0.00762751
0.00765987
0.00769242
0.00772515
0.00775806
0.00779117
0.00782447
0.00785797
0.00789166
0.00792554
0.00795962
0.0079939
0.00802837
0.00806303
0.00809788
0.00813291
0.00816812
0.00820349
0.00823904
0.00827473
0.00831056
0.00834652
0.00838257
0.00841872
0.00845491
0.00849114
0.00852735
0.00856352
0.00859959
0.0086355
0.00867121
0.00870663
0.0087417
0.00877632
0.00881041
0.00884387
0.00736689
0.00739837
0.00742998
0.00746171
0.00749359
0.0075256
0.00755777
0.00759008
0.00762256
0.00765519
0.00768799
0.00772095
0.00775409
0.00778741
0.00782091
0.00785459
0.00788846
0.00792252
0.00795677
0.00799122
0.00802586
0.00806071
0.00809575
0.008131
0.00816644
0.00820208
0.00823793
0.00827396
0.00831019
0.0083466
0.0083832
0.00841996
0.00845688
0.00849395
0.00853115
0.00856847
0.00860587
0.00864334
0.00868084
0.00871834
0.00875578
0.00879312
0.00883031
0.00886725
0.00890388
0.0089401
0.00897579
0.00901082
0.00904505
0.0090783
0.00756617
0.00759922
0.00763244
0.0076658
0.0076993
0.00773295
0.00776675
0.00780071
0.00783482
0.00786911
0.00790356
0.00793818
0.00797299
0.00800797
0.00804314
0.0080785
0.00811406
0.00814981
0.00818576
0.00822191
0.00825826
0.00829483
0.0083316
0.00836859
0.00840578
0.00844319
0.00848081
0.00851864
0.00855667
0.00859491
0.00863335
0.00867199
0.00871081
0.00874982
0.00878898
0.00882831
0.00886777
0.00890735
0.00894702
0.00898676
0.00902654
0.00906632
0.00910606
0.00914571
0.00918521
0.0092245
0.00926352
0.00930219
0.00934043
0.00937817
0.0077304
0.00776487
0.00779948
0.00783422
0.00786909
0.0079041
0.00793926
0.00797458
0.00801004
0.00804567
0.00808147
0.00811744
0.00815358
0.00818991
0.00822641
0.00826311
0.0083
0.00833708
0.00837436
0.00841185
0.00844953
0.00848743
0.00852553
0.00856384
0.00860236
0.00864109
0.00868002
0.00871916
0.00875849
0.00879802
0.00883774
0.00887763
0.00891769
0.0089579
0.00899824
0.0090387
0.00907924
0.00911984
0.00916046
0.00920106
0.00924158
0.00928197
0.00932216
0.00936206
0.00940158
0.00944059
0.00947896
0.00951652
0.00955308
0.00958841
0.0079844
0.00802099
0.00805774
0.00809464
0.00813167
0.00816884
0.00820615
0.00824361
0.00828123
0.008319
0.00835694
0.00839504
0.00843331
0.00847176
0.00851039
0.0085492
0.0085882
0.00862739
0.00866677
0.00870636
0.00874614
0.00878613
0.00882632
0.00886672
0.00890732
0.00894814
0.00898916
0.00903038
0.0090718
0.00911342
0.00915523
0.00919723
0.00923939
0.00928171
0.00932418
0.00936678
0.00940948
0.00945226
0.00949509
0.00953795
0.00958079
0.00962356
0.00966624
0.00970875
0.00975106
0.00979309
0.00983481
0.00987615
0.00991707
0.00995757
0.00827715
0.00831736
0.0083576
0.00839788
0.00843822
0.00847861
0.00851905
0.00855957
0.00860014
0.00864079
0.00868151
0.00872232
0.00876321
0.00880419
0.00884526
0.00888644
0.00892772
0.00896912
0.00901062
0.00905224
0.00909398
0.00913583
0.0091778
0.00921988
0.00926207
0.00930435
0.00934673
0.00938918
0.00943169
0.00947423
0.00951678
0.00955931
0.00960177
0.00964412
0.00968631
0.00972826
0.0097699
0.00981115
0.0098519
0.00989203
0.0099314
0.00996985
0.0100072
0.0100433
0.0100778
0.0101105
0.0101411
0.0101693
0.0101948
0.0102171
0.00943946
0.00949055
0.00954165
0.00959264
0.00964348
0.00969415
0.00974464
0.00979495
0.00984508
0.00989502
0.00994479
0.00999439
0.0100438
0.0100931
0.0101422
0.0101912
0.01024
0.0102887
0.0103372
0.0103856
0.0104339
0.0104821
0.01053
0.0105779
0.0106255
0.0106729
0.01072
0.0107669
0.0108133
0.0108594
0.0109049
0.0109499
0.0109941
0.0110374
0.0110797
0.0111208
0.0111605
0.0111984
0.0112343
0.0112678
0.0112985
0.011326
0.0113497
0.011369
0.0113831
0.0113912
0.0113924
0.0113856
0.0113698
0.0113435
0.0136653
0.0137567
0.013847
0.0139363
0.0140248
0.0141125
0.0141994
0.0142853
0.0143704
0.0144546
0.0145379
0.0146203
0.0147018
0.0147825
0.0148622
0.0149412
0.0150193
0.0150965
0.0151729
0.0152485
0.0153233
0.0153971
0.01547
0.015542
0.0156128
0.0156826
0.015751
0.015818
0.0158834
0.0159469
0.0160083
0.0160672
0.0161233
0.0161761
0.0162249
0.0162693
0.0163083
0.0163411
0.0163666
0.0163835
0.0163903
0.0163852
0.0163661
0.0163304
0.016275
0.0161959
0.0160881
0.0159453
0.0157597
0.01552
0.0310534
0.0312311
0.0314126
0.0315952
0.0317787
0.0319627
0.0321472
0.0323323
0.0325178
0.0327038
0.0328901
0.0330769
0.0332641
0.0334516
0.0336396
0.0338279
0.0340167
0.0342058
0.0343953
0.0345851
0.0347752
0.0349654
0.0351557
0.0353459
0.0355357
0.035725
0.0359134
0.0361005
0.0362859
0.0364691
0.0366493
0.0368259
0.0369979
0.0371642
0.0373236
0.0374745
0.0376151
0.0377434
0.0378567
0.0379521
0.0380259
0.0380738
0.0380903
0.0380687
0.0380005
0.0378743
0.037675
0.0373813
0.0369666
0.0363924
0.113444
0.113712
0.113982
0.114255
0.114531
0.114809
0.11509
0.115375
0.115663
0.115955
0.116251
0.11655
0.116855
0.117164
0.117477
0.117795
0.118118
0.118446
0.118779
0.119117
0.11946
0.119808
0.120161
0.120519
0.120882
0.12125
0.121623
0.122001
0.122384
0.122772
0.123165
0.123562
0.123964
0.12437
0.124781
0.125195
0.125612
0.126032
0.126455
0.126879
0.127304
0.127728
0.128151
0.128572
0.128987
0.129396
0.129796
0.130183
0.130553
0.130899
0.941092
0.915545
0.891422
0.868589
0.846896
0.82621
0.806399
0.787397
0.769157
0.751636
0.734795
0.7186
0.703018
0.68802
0.673577
0.659663
0.646254
0.633325
0.620856
0.608825
0.597212
0.585999
0.575169
0.564704
0.55459
0.54481
0.535352
0.526201
0.517346
0.508774
0.500475
0.492437
0.484651
0.477106
0.469796
0.46271
0.455842
0.449185
0.442718
0.43642
0.43028
0.424289
0.418435
0.412706
0.407087
0.40156
0.396097
0.390656
0.385163
0.379476
0.929455
0.887359
0.848051
0.811243
0.776787
0.744518
0.714304
0.685979
0.659388
0.634391
0.610863
0.588687
0.567762
0.547994
0.529297
0.511595
0.494816
0.478897
0.46378
0.449409
0.435735
0.422714
0.410303
0.398464
0.387162
0.376362
0.366035
0.356153
0.346689
0.337619
0.328919
0.320568
0.312546
0.304833
0.29741
0.290259
0.283365
0.27671
0.270292
0.264112
0.258157
0.252417
0.24688
0.241536
0.236375
0.231387
0.226563
0.22189
0.217357
0.212946
0.929404
0.887197
0.847667
0.810679
0.77604
0.743573
0.713106
0.684479
0.657546
0.632176
0.608248
0.585655
0.564298
0.544089
0.524946
0.506796
0.489572
0.473211
0.457656
0.442857
0.428764
0.415334
0.402526
0.390303
0.378628
0.367471
0.356802
0.346591
0.336815
0.327447
0.318467
0.309853
0.301586
0.293648
0.286024
0.278696
0.271651
0.264874
0.258353
0.252076
0.246032
0.240209
0.2346
0.229193
0.223982
0.218959
0.214115
0.209445
0.204942
0.2006
0.929405
0.8875
0.848317
0.81165
0.777288
0.74504
0.714738
0.686227
0.659369
0.63404
0.610127
0.587527
0.566147
0.545902
0.526713
0.508509
0.491225
0.4748
0.459179
0.444311
0.430149
0.416649
0.403771
0.391478
0.379735
0.368511
0.357775
0.3475
0.337661
0.328233
0.319195
0.310525
0.302204
0.294214
0.286539
0.279161
0.272068
0.265245
0.258678
0.252357
0.24627
0.240407
0.234757
0.229311
0.224062
0.219001
0.214121
0.209414
0.204874
0.200494
0.929405
0.887507
0.848309
0.811599
0.777181
0.744876
0.71452
0.685964
0.659072
0.633721
0.609795
0.587191
0.565815
0.54558
0.526406
0.508221
0.490958
0.474556
0.45896
0.444117
0.429979
0.416504
0.403651
0.391382
0.379662
0.368459
0.357744
0.34749
0.337669
0.328259
0.319236
0.310581
0.302275
0.294298
0.286634
0.279267
0.272183
0.265368
0.258809
0.252495
0.246412
0.240552
0.234905
0.22946
0.22421
0.219147
0.214262
0.209548
0.204999
0.200606
0.929405
0.88753
0.848379
0.811728
0.777377
0.745142
0.714854
0.686362
0.659527
0.634224
0.610339
0.587768
0.566417
0.5462
0.527039
0.508861
0.491602
0.4752
0.459599
0.44475
0.430604
0.417119
0.404254
0.391972
0.380238
0.369021
0.358291
0.348021
0.338185
0.328758
0.31972
0.311049
0.302726
0.294732
0.287052
0.279669
0.272568
0.265737
0.259161
0.252829
0.246729
0.240851
0.235185
0.229722
0.224452
0.219367
0.21446
0.209722
0.205147
0.200727
0.929405
0.887535
0.848393
0.811748
0.777397
0.745156
0.714856
0.686348
0.659495
0.634174
0.61027
0.587682
0.566316
0.546086
0.526914
0.508728
0.491461
0.475054
0.459451
0.4446
0.430454
0.41697
0.404106
0.391827
0.380097
0.368884
0.358159
0.347893
0.338062
0.328641
0.319607
0.310941
0.302623
0.294635
0.286959
0.27958
0.272484
0.265655
0.259083
0.252753
0.246655
0.240778
0.235112
0.229647
0.224375
0.219287
0.214376
0.209632
0.205049
0.20062
0.929405
0.887538
0.848403
0.811769
0.77743
0.745202
0.714917
0.686425
0.659589
0.634284
0.610396
0.587824
0.566472
0.546255
0.527094
0.508917
0.491659
0.475259
0.459661
0.444814
0.430671
0.417188
0.404325
0.392045
0.380314
0.369098
0.35837
0.3481
0.338265
0.328838
0.319799
0.311127
0.302802
0.294806
0.287123
0.279736
0.272631
0.265794
0.259211
0.252871
0.246762
0.240873
0.235195
0.229717
0.22443
0.219327
0.214398
0.209636
0.205034
0.200583
0.929405
0.887539
0.848407
0.811776
0.777441
0.745214
0.71493
0.686437
0.659598
0.634289
0.610397
0.587818
0.56646
0.546237
0.52707
0.508887
0.491623
0.475217
0.459614
0.444763
0.430616
0.41713
0.404265
0.391982
0.380249
0.369032
0.358302
0.348032
0.338195
0.328768
0.319729
0.311056
0.302731
0.294735
0.287051
0.279663
0.272556
0.265718
0.259133
0.252791
0.246679
0.240787
0.235104
0.229621
0.224329
0.219219
0.214282
0.209511
0.204899
0.200437
0.929405
0.88754
0.848409
0.81178
0.777446
0.745222
0.714941
0.68645
0.659614
0.634308
0.610419
0.587843
0.566489
0.546268
0.527104
0.508924
0.491663
0.47526
0.459659
0.44481
0.430664
0.417179
0.404314
0.392032
0.380299
0.369081
0.358351
0.348079
0.338241
0.328812
0.319771
0.311095
0.302767
0.294768
0.28708
0.279688
0.272577
0.265733
0.259143
0.252794
0.246675
0.240775
0.235084
0.229592
0.224289
0.219167
0.214218
0.209434
0.204806
0.200329
0.929405
0.88754
0.848409
0.81178
0.777446
0.745222
0.714941
0.68645
0.659614
0.634307
0.610418
0.587843
0.566488
0.546267
0.527103
0.508923
0.491661
0.475257
0.459656
0.444806
0.43066
0.417174
0.404309
0.392026
0.380291
0.369073
0.358341
0.348069
0.338229
0.328799
0.319755
0.311078
0.302747
0.294745
0.287054
0.279659
0.272545
0.265697
0.259102
0.252748
0.246623
0.240717
0.235019
0.229518
0.224206
0.219075
0.214115
0.209318
0.204678
0.200186
0.929405
0.887539
0.848407
0.811776
0.77744
0.745214
0.71493
0.686437
0.659597
0.634288
0.610395
0.587816
0.566457
0.546233
0.527065
0.508882
0.491617
0.47521
0.459606
0.444754
0.430605
0.417118
0.40425
0.391966
0.38023
0.36901
0.358277
0.348003
0.338163
0.328732
0.319687
0.311009
0.302677
0.294674
0.286982
0.279585
0.272469
0.265618
0.259021
0.252664
0.246536
0.240625
0.234921
0.229415
0.224097
0.218958
0.213989
0.209183
0.204532
0.200029
0.929405
0.887538
0.848403
0.811769
0.77743
0.745201
0.714917
0.686424
0.659587
0.634281
0.610393
0.58782
0.566467
0.546249
0.527087
0.508909
0.491649
0.475247
0.459647
0.444797
0.430651
0.417166
0.404299
0.392016
0.38028
0.36906
0.358326
0.34805
0.338208
0.328774
0.319726
0.311045
0.302709
0.294701
0.287004
0.279602
0.272479
0.265623
0.259018
0.252653
0.246517
0.240597
0.234884
0.229367
0.224037
0.218885
0.213903
0.209082
0.204416
0.199895
0.929405
0.887535
0.848393
0.811748
0.777397
0.745155
0.714855
0.686346
0.659493
0.634171
0.610266
0.587677
0.56631
0.546079
0.526905
0.508716
0.491448
0.475039
0.459433
0.444579
0.430429
0.416941
0.404074
0.39179
0.380054
0.368835
0.358103
0.347829
0.337989
0.328558
0.319514
0.310835
0.302502
0.294497
0.286803
0.279404
0.272284
0.265429
0.258827
0.252463
0.246328
0.240408
0.234694
0.229176
0.223844
0.218689
0.213703
0.208876
0.204203
0.199675
0.929405
0.88753
0.848379
0.811728
0.777377
0.745141
0.714853
0.68636
0.659524
0.63422
0.610333
0.587761
0.566409
0.54619
0.527026
0.508846
0.491584
0.475178
0.459575
0.444721
0.430571
0.41708
0.404209
0.39192
0.38018
0.368954
0.358215
0.347935
0.338087
0.328647
0.319594
0.310907
0.302565
0.294551
0.286847
0.279438
0.272308
0.265443
0.25883
0.252455
0.246308
0.240376
0.234649
0.229118
0.223771
0.218601
0.213599
0.208755
0.204063
0.199515
0.929405
0.887507
0.848309
0.811599
0.777181
0.744875
0.714518
0.685961
0.659069
0.633716
0.609789
0.587184
0.565806
0.545569
0.526392
0.508204
0.490938
0.474533
0.458933
0.444085
0.429943
0.416463
0.403603
0.391326
0.379598
0.368387
0.357661
0.347395
0.337561
0.328136
0.319096
0.310422
0.302094
0.294093
0.286401
0.279004
0.271885
0.26503
0.258427
0.252061
0.245922
0.239998
0.234278
0.228752
0.22341
0.218243
0.213242
0.2084
0.203707
0.199157
0.929405
0.8875
0.848317
0.811649
0.777287
0.745039
0.714736
0.686224
0.659365
0.634035
0.61012
0.587518
0.566136
0.545888
0.526696
0.508489
0.491201
0.474772
0.459146
0.444273
0.430105
0.416598
0.403712
0.391411
0.379658
0.368423
0.357675
0.347387
0.337533
0.328088
0.319031
0.310339
0.301994
0.293977
0.286272
0.278861
0.271729
0.264863
0.258248
0.251872
0.245724
0.239792
0.234064
0.228532
0.223185
0.218015
0.213013
0.208171
0.203484
0.198945
0.929404
0.887197
0.847667
0.810679
0.77604
0.743571
0.713104
0.684476
0.657542
0.63217
0.608241
0.585646
0.564287
0.544076
0.52493
0.506778
0.48955
0.473185
0.457627
0.442823
0.428725
0.41529
0.402477
0.390247
0.378566
0.367402
0.356725
0.346506
0.336721
0.327344
0.318354
0.30973
0.301452
0.293501
0.285862
0.278518
0.271455
0.264657
0.258114
0.251812
0.24574
0.239889
0.234249
0.22881
0.223566
0.218511
0.21364
0.208951
0.204446
0.200135
0.929455
0.887359
0.848051
0.811243
0.776787
0.744517
0.714303
0.685978
0.659388
0.634391
0.610863
0.588689
0.567765
0.547998
0.529303
0.511603
0.494828
0.478914
0.463801
0.449436
0.43577
0.422759
0.410359
0.398534
0.387248
0.376469
0.366167
0.356314
0.346886
0.337857
0.329208
0.320917
0.312967
0.305339
0.29802
0.290993
0.284247
0.277769
0.271549
0.265577
0.259846
0.254349
0.24908
0.244036
0.239218
0.234628
0.230275
0.226181
0.222387
0.218984
0.941092
0.915545
0.891422
0.868589
0.846896
0.82621
0.806398
0.787395
0.769154
0.75163
0.734787
0.718589
0.703004
0.688001
0.673554
0.659634
0.646219
0.633283
0.620805
0.608764
0.59714
0.585914
0.575068
0.564586
0.554452
0.544649
0.535165
0.525984
0.517095
0.508483
0.500138
0.492048
0.484201
0.476588
0.469199
0.462022
0.45505
0.448272
0.44168
0.435265
0.429019
0.422932
0.416996
0.411202
0.405542
0.400005
0.394582
0.38926
0.384027
0.378863
0.172159
0.0506726
0.0302793
0.028006
0.0268599
0.0264914
0.0257005
0.0252195
0.0245569
0.024008
0.0234513
0.0228503
0.0223916
0.0217353
0.0213734
0.0206398
0.0205674
0.021329
0.0346669
0.121226
0.172573
0.0509171
0.0304955
0.0282203
0.0270728
0.0266999
0.0259064
0.0254211
0.0247558
0.0242028
0.0236432
0.0230383
0.0225768
0.0219166
0.0215518
0.0208143
0.02074
0.0215048
0.0348908
0.121563
0.172991
0.0511542
0.0307131
0.028437
0.0272882
0.0269109
0.0261149
0.0256252
0.0249572
0.0244001
0.0238376
0.0232287
0.0227643
0.0221003
0.0217326
0.0209912
0.0209148
0.0216828
0.0351136
0.121868
0.173414
0.0513894
0.0309325
0.0286563
0.0275062
0.0271246
0.026326
0.0258319
0.0251612
0.0245998
0.0240346
0.0234216
0.0229543
0.0222864
0.0219157
0.0211705
0.021092
0.0218623
0.0353218
0.122179
0.17384
0.0516251
0.0311541
0.0288782
0.0277269
0.0273408
0.0265398
0.0260412
0.0253677
0.0248021
0.024234
0.0236171
0.0231468
0.0224751
0.0221013
0.0213523
0.0212714
0.0220423
0.0355252
0.122494
0.174271
0.0518624
0.0313783
0.0291028
0.0279503
0.0275597
0.0267562
0.0262531
0.0255769
0.0250071
0.024436
0.0238151
0.0233418
0.0226663
0.0222894
0.0215366
0.0214532
0.0222236
0.035727
0.122814
0.174707
0.052102
0.0316051
0.0293301
0.0281766
0.0277814
0.0269753
0.0264676
0.0257888
0.0252146
0.0246407
0.0240157
0.0235394
0.02286
0.02248
0.0217234
0.0216374
0.0224066
0.0359288
0.123138
0.175146
0.052344
0.0318348
0.0295603
0.0284056
0.0280058
0.0271973
0.026685
0.0260033
0.0254249
0.024848
0.0242189
0.0237396
0.0230563
0.0226732
0.0219127
0.0218239
0.0225915
0.0361316
0.123467
0.17559
0.0525888
0.0320673
0.0297933
0.0286375
0.0282331
0.0274221
0.0269051
0.0262207
0.0256378
0.025058
0.0244248
0.0239424
0.0232553
0.022869
0.0221046
0.022013
0.0227786
0.0363358
0.1238
0.176039
0.0528364
0.0323028
0.0300292
0.0288724
0.0284632
0.0276497
0.027128
0.0264409
0.0258536
0.0252708
0.0246335
0.024148
0.023457
0.0230674
0.0222991
0.0222046
0.022968
0.036542
0.124138
0.176492
0.053087
0.0325413
0.0302681
0.0291103
0.0286962
0.0278803
0.0273538
0.0266639
0.0260722
0.0254864
0.024845
0.0243563
0.0236614
0.0232686
0.0224962
0.0223988
0.0231597
0.0367502
0.124481
0.17695
0.0533406
0.0327828
0.03051
0.0293512
0.0289322
0.0281138
0.0275825
0.0268899
0.0262936
0.0257049
0.0250592
0.0245673
0.0238686
0.0234725
0.022696
0.0225956
0.023354
0.0369608
0.124828
0.177412
0.0535972
0.0330276
0.0307549
0.0295951
0.0291712
0.0283504
0.0278141
0.0271188
0.026518
0.0259263
0.0252764
0.0247813
0.0240786
0.0236791
0.0228986
0.0227951
0.0235508
0.037174
0.12518
0.177879
0.0538569
0.0332755
0.0310029
0.0298422
0.0294132
0.02859
0.0280488
0.0273507
0.0267453
0.0261505
0.0254964
0.0249981
0.0242915
0.0238886
0.0231039
0.0229974
0.0237503
0.0373898
0.125537
0.178351
0.0541197
0.0335266
0.0312541
0.0300925
0.0296584
0.0288328
0.0282866
0.0275857
0.0269757
0.0263778
0.0257194
0.0252179
0.0245072
0.0241009
0.0233121
0.0232024
0.0239525
0.0376083
0.125899
0.178828
0.0543857
0.033781
0.0315085
0.030346
0.0299068
0.0290787
0.0285275
0.0278237
0.0272091
0.0266082
0.0259455
0.0254406
0.0247259
0.0243162
0.0235232
0.0234103
0.0241575
0.0378298
0.126265
0.17931
0.0546549
0.0340387
0.0317661
0.0306028
0.0301583
0.0293278
0.0287715
0.028065
0.0274457
0.0268416
0.0261746
0.0256664
0.0249477
0.0245344
0.0237372
0.023621
0.0243654
0.0380542
0.126637
0.179797
0.0549273
0.0342998
0.0320271
0.030863
0.0304132
0.0295803
0.0290188
0.0283095
0.0276854
0.0270782
0.0264068
0.0258953
0.0251725
0.0247556
0.0239542
0.0238347
0.0245762
0.0382816
0.127013
0.180288
0.0552029
0.0345644
0.0322914
0.0311265
0.0306714
0.0298361
0.0292694
0.0285572
0.0279284
0.027318
0.0266423
0.0261273
0.0254004
0.0249799
0.0241743
0.0240514
0.02479
0.0385121
0.127395
0.180785
0.0554819
0.0348323
0.0325592
0.0313935
0.0309329
0.0300952
0.0295233
0.0288083
0.0281747
0.0275611
0.0268809
0.0263626
0.0256314
0.0252074
0.0243975
0.0242712
0.0250068
0.0387459
0.127782
0.181287
0.0557641
0.0351039
0.0328304
0.031664
0.0311979
0.0303578
0.0297806
0.0290628
0.0284243
0.0278075
0.0271229
0.026601
0.0258657
0.025438
0.0246238
0.0244941
0.0252268
0.0389829
0.128175
0.181795
0.0560498
0.035379
0.0331051
0.0319381
0.0314664
0.030624
0.0300414
0.0293207
0.0286773
0.0280572
0.0273682
0.0268428
0.0261033
0.0256719
0.0248533
0.0247201
0.0254499
0.0392232
0.128573
0.182307
0.0563388
0.0356577
0.0333835
0.0322158
0.0317385
0.0308937
0.0303057
0.0295821
0.0289337
0.0283104
0.0276169
0.027088
0.0263443
0.0259091
0.0250862
0.0249494
0.0256762
0.039467
0.128976
0.182826
0.0566313
0.0359401
0.0336655
0.0324972
0.0320142
0.031167
0.0305735
0.029847
0.0291937
0.0285671
0.0278691
0.0273366
0.0265886
0.0261496
0.0253223
0.0251819
0.0259058
0.0397142
0.129385
0.183349
0.0569273
0.0362263
0.0339512
0.0327824
0.0322936
0.031444
0.0308451
0.0301156
0.0294573
0.0288274
0.0281248
0.0275887
0.0268364
0.0263935
0.0255619
0.0254178
0.0261388
0.039965
0.129799
0.183878
0.0572268
0.0365163
0.0342407
0.0330714
0.0325767
0.0317248
0.0311203
0.0303879
0.0297246
0.0290912
0.0283841
0.0278443
0.0270878
0.026641
0.0258049
0.0256571
0.0263752
0.0402194
0.13022
0.184412
0.0575298
0.0368102
0.034534
0.0333643
0.0328637
0.0320094
0.0313992
0.030664
0.0299955
0.0293588
0.0286471
0.0281036
0.0273427
0.026892
0.0260515
0.0258999
0.0266151
0.0404775
0.130646
0.184953
0.0578365
0.037108
0.0348313
0.0336611
0.0331545
0.0322979
0.0316821
0.0309438
0.0302703
0.0296301
0.0289138
0.0283665
0.0276013
0.0271466
0.0263017
0.0261462
0.0268586
0.0407393
0.131078
0.185498
0.0581469
0.0374098
0.0351325
0.0339619
0.0334493
0.0325903
0.0319688
0.0312276
0.0305489
0.0299053
0.0291843
0.0286332
0.0278637
0.0274049
0.0265555
0.0263962
0.0271057
0.0410049
0.131516
0.18605
0.058461
0.0377157
0.0354378
0.0342669
0.0337481
0.0328868
0.0322595
0.0315153
0.0308314
0.0301843
0.0294587
0.0289038
0.0281298
0.0276669
0.0268131
0.0266498
0.0273564
0.0412745
0.13196
0.186607
0.058779
0.0380258
0.0357472
0.034576
0.034051
0.0331874
0.0325542
0.0318071
0.0311179
0.0304674
0.029737
0.0291782
0.0283999
0.0279328
0.0270744
0.0269071
0.027611
0.041548
0.132411
0.187171
0.0591007
0.03834
0.0360608
0.0348893
0.0343581
0.0334922
0.0328531
0.032103
0.0314085
0.0307544
0.0300193
0.0294566
0.0286738
0.0282026
0.0273397
0.0271683
0.0278693
0.0418256
0.132867
0.18774
0.0594264
0.0386585
0.0363787
0.035207
0.0346694
0.0338012
0.0331562
0.0324031
0.0317033
0.0310456
0.0303058
0.0297391
0.0289518
0.0284764
0.0276089
0.0274334
0.0281317
0.0421073
0.133331
0.188315
0.059756
0.0389814
0.0367009
0.035529
0.0349851
0.0341145
0.0334636
0.0327074
0.0320022
0.031341
0.0305963
0.0300257
0.029234
0.0287542
0.0278821
0.0277025
0.028398
0.0423932
0.133801
0.188897
0.0600896
0.0393088
0.0370275
0.0358555
0.0353051
0.0344323
0.0337753
0.033016
0.0323055
0.0316406
0.0308912
0.0303165
0.0295203
0.0290361
0.0281595
0.0279756
0.0286683
0.0426834
0.134277
0.189484
0.0604274
0.0396406
0.0373586
0.0361866
0.0356297
0.0347545
0.0340914
0.0333291
0.0326132
0.0319446
0.0311904
0.0306116
0.0298108
0.0293223
0.0284411
0.0282528
0.0289429
0.042978
0.134761
0.190078
0.0607693
0.0399771
0.0376943
0.0365223
0.0359588
0.0350813
0.0344121
0.0336467
0.0329253
0.0322531
0.031494
0.030911
0.0301057
0.0296127
0.0287269
0.0285343
0.0292216
0.043277
0.135251
0.190678
0.0611154
0.0403182
0.0380347
0.0368627
0.0362925
0.0354128
0.0347374
0.0339689
0.033242
0.032566
0.031802
0.031215
0.0304051
0.0299076
0.0290171
0.0288201
0.0295047
0.0435806
0.135748
0.191285
0.0614658
0.0406641
0.0383798
0.0372079
0.036631
0.035749
0.0350674
0.0342958
0.0335633
0.0328836
0.0321147
0.0315234
0.030709
0.0302069
0.0293117
0.0291102
0.0297923
0.0438889
0.136253
0.191898
0.0618206
0.0410149
0.0387298
0.037558
0.0369743
0.03609
0.0354021
0.0346275
0.0338894
0.0332059
0.0324321
0.0318365
0.0310175
0.0305108
0.0296109
0.0294049
0.0300843
0.0442018
0.136764
0.192518
0.0621799
0.0413706
0.0390847
0.0379131
0.0373225
0.036436
0.0357418
0.034964
0.0342203
0.033533
0.0327542
0.0321543
0.0313307
0.0308193
0.0299147
0.0297041
0.0303809
0.0445197
0.137283
0.193144
0.0625436
0.0417313
0.0394447
0.0382733
0.0376757
0.036787
0.0360864
0.0353054
0.0345561
0.033865
0.0330812
0.032477
0.0316487
0.0311325
0.0302233
0.0300079
0.0306823
0.0448424
0.13781
0.193777
0.062912
0.0420972
0.0398097
0.0386386
0.0380341
0.0371431
0.0364361
0.035652
0.034897
0.0342019
0.0334132
0.0328046
0.0319716
0.0314507
0.0305367
0.0303166
0.0309884
0.0451702
0.138345
0.194417
0.0632851
0.0424683
0.04018
0.0390093
0.0383976
0.0375044
0.0367909
0.0360036
0.0352429
0.034544
0.0337502
0.0331371
0.0322995
0.0317737
0.030855
0.0306301
0.0312994
0.045503
0.138887
0.195064
0.0636629
0.0428447
0.0405556
0.0393853
0.0387665
0.0378711
0.037151
0.0363605
0.0355941
0.0348912
0.0340924
0.0334748
0.0326325
0.0321018
0.0311783
0.0309486
0.0316154
0.0458412
0.139437
0.195718
0.0640455
0.0432265
0.0409366
0.0397667
0.0391408
0.0382431
0.0375165
0.0367228
0.0359506
0.0352438
0.0344399
0.0338178
0.0329707
0.0324351
0.0315068
0.0312721
0.0319366
0.0461847
0.139995
0.196378
0.0644331
0.0436139
0.0413231
0.0401538
0.0395205
0.0386207
0.0378875
0.0370906
0.0363125
0.0356017
0.0347927
0.034166
0.0333142
0.0327736
0.0318405
0.0316008
0.0322629
0.0465336
0.140562
0.197047
0.0648258
0.0440069
0.0417153
0.0405465
0.039906
0.0390039
0.0382641
0.0374639
0.03668
0.0359651
0.0351511
0.0345198
0.0336632
0.0331175
0.0321796
0.0319348
0.0325946
0.0468881
0.141137
0.197722
0.0652235
0.0444056
0.0421132
0.0409451
0.0402971
0.0393929
0.0386463
0.0378429
0.0370532
0.0363342
0.035515
0.034879
0.0340177
0.0334668
0.0325242
0.0322742
0.0329317
0.0472484
0.14172
0.198405
0.0656265
0.0448102
0.0425169
0.0413495
0.0406941
0.0397877
0.0390344
0.0382277
0.0374321
0.036709
0.0358847
0.035244
0.0343778
0.0338218
0.0328743
0.0326191
0.0332744
0.0476144
0.142313
0.199095
0.0660348
0.0452208
0.0429267
0.04176
0.0410971
0.0401885
0.0394285
0.0386185
0.0378169
0.0370897