/*--------------------------------*- C++ -*----------------------------------*\
  =========                 |
  \\      /  F ield         | OpenFOAM: The Open Source CFD Toolbox
   \\    /   O peration     | Website:  https://openfoam.org
    \\  /    A nd           | Version:  8
     \\/     M anipulation  |
\*---------------------------------------------------------------------------*/
FoamFile
{
    version     2.0;
    format      ascii;
    class       volScalarField;
    location    "300";
    object      nut;
}
// * * * * * * * * * * * * * * * * * * * * * * * * * * * * * * * * * * * * * //

dimensions      [0 2 -1 0 0 0 0];

internalField   nonuniform List<scalar> 
8400
(
0.00034836
0.000348033
0.000347703
0.000347373
0.000347041
0.000346708
0.000346373
0.000346036
0.000345697
0.000345355
0.000345011
0.000344665
0.000344315
0.000343962
0.000343605
0.000343244
0.00034288
0.000342511
0.000342138
0.00034176
0.000341377
0.00034099
0.000340596
0.000340198
0.000339794
0.000339384
0.00033897
0.000338556
0.000338142
0.00033773
0.000337321
0.000336916
0.000336519
0.000336131
0.000335754
0.000335391
0.000335046
0.000334724
0.000334428
0.000334164
0.000333939
0.000333761
0.000333639
0.000333586
0.000333615
0.000333746
0.000334005
0.000334425
0.00033505
0.00033594
0.000147378
0.000147458
0.000147533
0.000147605
0.000147675
0.000147745
0.000147814
0.000147882
0.00014795
0.000148016
0.000148081
0.000148146
0.000148209
0.000148273
0.000148335
0.000148398
0.00014846
0.000148523
0.000148587
0.000148652
0.000148719
0.000148789
0.000148863
0.000148941
0.000149024
0.000149115
0.000149212
0.000149312
0.000149415
0.000149522
0.000149634
0.000149751
0.000149874
0.000150005
0.000150143
0.000150292
0.000150451
0.000150623
0.00015081
0.000151015
0.000151239
0.000151486
0.000151759
0.000152065
0.000152407
0.000152794
0.000153234
0.000153739
0.000154324
0.000155011
9.29559e-05
9.31391e-05
9.33226e-05
9.3506e-05
9.36891e-05
9.38718e-05
9.40542e-05
9.42361e-05
9.44176e-05
9.45985e-05
9.47791e-05
9.49591e-05
9.51387e-05
9.53179e-05
9.54968e-05
9.56755e-05
9.58541e-05
9.60327e-05
9.62116e-05
9.63908e-05
9.65707e-05
9.67515e-05
9.69336e-05
9.71175e-05
9.73037e-05
9.74927e-05
9.76829e-05
9.78733e-05
9.80642e-05
9.82556e-05
9.84475e-05
9.86403e-05
9.8834e-05
9.90288e-05
9.9225e-05
9.94227e-05
9.96224e-05
9.98242e-05
0.000100029
0.000100236
0.000100448
0.000100663
0.000100884
0.000101111
0.000101345
0.000101587
0.00010184
0.000102104
0.000102384
0.000102683
8.76189e-05
8.77874e-05
8.79563e-05
8.81255e-05
8.82951e-05
8.84652e-05
8.86357e-05
8.88067e-05
8.89782e-05
8.91502e-05
8.93227e-05
8.94956e-05
8.96691e-05
8.98432e-05
9.00178e-05
9.0193e-05
9.03688e-05
9.05452e-05
9.07223e-05
9.09e-05
9.10785e-05
9.12578e-05
9.14378e-05
9.16184e-05
9.17997e-05
9.19816e-05
9.21641e-05
9.23473e-05
9.25312e-05
9.27157e-05
9.29008e-05
9.30866e-05
9.32732e-05
9.34604e-05
9.36483e-05
9.38369e-05
9.40263e-05
9.42165e-05
9.44074e-05
9.45991e-05
9.47917e-05
9.49852e-05
9.51797e-05
9.53751e-05
9.55716e-05
9.57694e-05
9.59685e-05
9.61691e-05
9.63716e-05
9.65763e-05
8.77867e-05
8.79512e-05
8.81163e-05
8.8282e-05
8.84482e-05
8.8615e-05
8.87823e-05
8.89503e-05
8.91189e-05
8.92881e-05
8.94581e-05
8.96286e-05
8.97999e-05
8.99719e-05
9.01447e-05
9.03182e-05
9.04924e-05
9.06675e-05
9.08433e-05
9.10198e-05
9.11971e-05
9.13751e-05
9.15539e-05
9.17335e-05
9.19137e-05
9.20947e-05
9.22764e-05
9.24588e-05
9.26418e-05
9.28254e-05
9.30097e-05
9.31944e-05
9.33797e-05
9.35653e-05
9.37513e-05
9.39375e-05
9.41239e-05
9.43103e-05
9.44966e-05
9.46826e-05
9.48682e-05
9.5053e-05
9.52368e-05
9.54194e-05
9.56002e-05
9.57789e-05
9.59548e-05
9.61274e-05
9.62958e-05
9.6459e-05
8.92947e-05
8.94662e-05
8.96383e-05
8.98109e-05
8.9984e-05
9.01576e-05
9.03318e-05
9.05066e-05
9.06819e-05
9.08578e-05
9.10344e-05
9.12116e-05
9.13894e-05
9.1568e-05
9.17472e-05
9.19271e-05
9.21077e-05
9.22889e-05
9.24709e-05
9.26537e-05
9.28371e-05
9.30213e-05
9.32063e-05
9.33919e-05
9.35784e-05
9.37655e-05
9.39534e-05
9.4142e-05
9.43313e-05
9.45213e-05
9.47119e-05
9.49032e-05
9.50951e-05
9.52875e-05
9.54805e-05
9.56738e-05
9.58676e-05
9.60617e-05
9.6256e-05
9.64503e-05
9.66447e-05
9.68389e-05
9.70327e-05
9.72261e-05
9.74187e-05
9.76104e-05
9.78008e-05
9.79896e-05
9.81766e-05
9.83614e-05
9.02988e-05
9.0474e-05
9.06499e-05
9.08262e-05
9.10031e-05
9.11805e-05
9.13585e-05
9.1537e-05
9.17162e-05
9.1896e-05
9.20765e-05
9.22576e-05
9.24394e-05
9.26219e-05
9.28051e-05
9.29891e-05
9.31737e-05
9.33591e-05
9.35453e-05
9.37322e-05
9.39199e-05
9.41083e-05
9.42975e-05
9.44874e-05
9.46781e-05
9.48695e-05
9.50616e-05
9.52544e-05
9.54479e-05
9.5642e-05
9.58367e-05
9.60319e-05
9.62275e-05
9.64236e-05
9.662e-05
9.68166e-05
9.70133e-05
9.721e-05
9.74064e-05
9.76025e-05
9.7798e-05
9.79926e-05
9.81861e-05
9.83781e-05
9.85681e-05
9.87558e-05
9.89407e-05
9.9122e-05
9.92991e-05
9.94711e-05
9.16507e-05
9.18325e-05
9.20148e-05
9.21976e-05
9.23809e-05
9.25648e-05
9.27492e-05
9.29341e-05
9.31197e-05
9.33059e-05
9.34927e-05
9.36802e-05
9.38683e-05
9.40571e-05
9.42466e-05
9.44368e-05
9.46278e-05
9.48194e-05
9.50118e-05
9.5205e-05
9.53989e-05
9.55936e-05
9.5789e-05
9.59852e-05
9.61822e-05
9.63798e-05
9.65782e-05
9.67774e-05
9.69771e-05
9.71776e-05
9.73787e-05
9.75803e-05
9.77825e-05
9.79852e-05
9.81883e-05
9.83916e-05
9.85952e-05
9.87989e-05
9.90026e-05
9.9206e-05
9.94091e-05
9.96116e-05
9.98133e-05
0.000100014
0.000100213
0.00010041
0.000100606
0.000100798
0.000100988
0.000101174
9.27718e-05
9.29587e-05
9.31461e-05
9.33341e-05
9.35226e-05
9.37116e-05
9.39011e-05
9.40913e-05
9.4282e-05
9.44733e-05
9.46653e-05
9.48579e-05
9.50512e-05
9.52452e-05
9.54399e-05
9.56353e-05
9.58314e-05
9.60283e-05
9.6226e-05
9.64244e-05
9.66236e-05
9.68235e-05
9.70242e-05
9.72256e-05
9.74279e-05
9.76308e-05
9.78345e-05
9.80389e-05
9.82439e-05
9.84496e-05
9.86559e-05
9.88627e-05
9.907e-05
9.92777e-05
9.94857e-05
9.9694e-05
9.99023e-05
0.000100111
0.000100319
0.000100526
0.000100733
0.00010094
0.000101145
0.000101348
0.00010155
0.000101749
0.000101945
0.000102138
0.000102327
0.000102512
9.40141e-05
9.42073e-05
9.44009e-05
9.4595e-05
9.47896e-05
9.49846e-05
9.51802e-05
9.53764e-05
9.55732e-05
9.57706e-05
9.59686e-05
9.61672e-05
9.63666e-05
9.65666e-05
9.67673e-05
9.69688e-05
9.7171e-05
9.73739e-05
9.75776e-05
9.7782e-05
9.79872e-05
9.81932e-05
9.84e-05
9.86075e-05
9.88158e-05
9.90248e-05
9.92346e-05
9.94451e-05
9.96563e-05
9.98681e-05
0.00010008
0.000100293
0.000100507
0.000100721
0.000100935
0.000101149
0.000101364
0.000101579
0.000101793
0.000102007
0.00010222
0.000102432
0.000102643
0.000102853
0.000103061
0.000103266
0.000103468
0.000103667
0.000103861
0.000104051
9.52205e-05
9.542e-05
9.562e-05
9.58205e-05
9.60215e-05
9.6223e-05
9.6425e-05
9.66276e-05
9.68308e-05
9.70346e-05
9.72389e-05
9.7444e-05
9.76497e-05
9.78561e-05
9.80632e-05
9.8271e-05
9.84795e-05
9.86888e-05
9.88988e-05
9.91096e-05
9.93212e-05
9.95336e-05
9.97467e-05
9.99606e-05
0.000100175
0.000100391
0.000100607
0.000100824
0.000101042
0.00010126
0.000101479
0.000101698
0.000101918
0.000102139
0.00010236
0.000102581
0.000102802
0.000103024
0.000103245
0.000103466
0.000103686
0.000103906
0.000104125
0.000104342
0.000104557
0.000104771
0.000104981
0.000105189
0.000105393
0.000105593
9.63733e-05
9.65789e-05
9.6785e-05
9.69915e-05
9.71985e-05
9.74059e-05
9.76138e-05
9.78223e-05
9.80313e-05
9.82409e-05
9.84511e-05
9.8662e-05
9.88735e-05
9.90857e-05
9.92986e-05
9.95122e-05
9.97265e-05
9.99415e-05
0.000100157
0.000100374
0.000100591
0.000100809
0.000101028
0.000101248
0.000101468
0.00010169
0.000101912
0.000102134
0.000102358
0.000102582
0.000102806
0.000103031
0.000103257
0.000103483
0.000103709
0.000103936
0.000104163
0.000104389
0.000104615
0.000104841
0.000105066
0.00010529
0.000105512
0.000105733
0.000105951
0.000106166
0.000106378
0.000106585
0.000106787
0.000106984
9.7668e-05
9.78811e-05
9.80948e-05
9.8309e-05
9.85236e-05
9.87386e-05
9.89542e-05
9.91703e-05
9.93869e-05
9.96041e-05
9.98219e-05
0.00010004
0.000100259
0.000100479
0.0001007
0.000100921
0.000101142
0.000101365
0.000101588
0.000101812
0.000102037
0.000102263
0.000102489
0.000102717
0.000102945
0.000103173
0.000103403
0.000103633
0.000103864
0.000104096
0.000104329
0.000104562
0.000104796
0.00010503
0.000105265
0.0001055
0.000105736
0.000105971
0.000106207
0.000106443
0.000106678
0.000106913
0.000107147
0.00010738
0.000107612
0.000107842
0.000108069
0.000108295
0.000108517
0.000108736
9.87223e-05
9.89422e-05
9.91625e-05
9.9383e-05
9.9604e-05
9.98253e-05
0.000100047
0.000100269
0.000100492
0.000100715
0.000100939
0.000101164
0.000101389
0.000101614
0.00010184
0.000102067
0.000102295
0.000102523
0.000102752
0.000102982
0.000103212
0.000103443
0.000103675
0.000103908
0.000104141
0.000104376
0.00010461
0.000104846
0.000105082
0.000105319
0.000105557
0.000105794
0.000106033
0.000106272
0.000106511
0.00010675
0.000106989
0.000107228
0.000107466
0.000107704
0.000107941
0.000108177
0.000108411
0.000108643
0.000108872
0.000109097
0.000109319
0.000109535
0.000109745
0.000109948
0.000100331
0.000100561
0.000100791
0.000101021
0.000101252
0.000101483
0.000101715
0.000101947
0.000102179
0.000102412
0.000102645
0.000102879
0.000103113
0.000103348
0.000103583
0.000103819
0.000104056
0.000104293
0.000104531
0.000104769
0.000105008
0.000105248
0.000105488
0.000105729
0.000105971
0.000106214
0.000106457
0.000106701
0.000106945
0.00010719
0.000107436
0.000107682
0.000107928
0.000108175
0.000108423
0.00010867
0.000108917
0.000109165
0.000109412
0.000109658
0.000109904
0.000110149
0.000110393
0.000110636
0.000110877
0.000111115
0.000111352
0.000111586
0.000111817
0.000112045
0.000102154
0.000102402
0.000102649
0.000102896
0.000103143
0.00010339
0.000103636
0.000103882
0.000104128
0.000104374
0.000104619
0.000104865
0.00010511
0.000105356
0.000105601
0.000105847
0.000106093
0.000106338
0.000106584
0.00010683
0.000107076
0.000107322
0.000107568
0.000107814
0.000108061
0.000108307
0.000108554
0.0001088
0.000109046
0.000109292
0.000109537
0.000109781
0.000110025
0.000110267
0.000110508
0.000110747
0.000110984
0.000111218
0.000111449
0.000111675
0.000111897
0.000112114
0.000112324
0.000112526
0.000112719
0.000112902
0.000113073
0.00011323
0.000113372
0.000113496
0.000109091
0.000109386
0.00010968
0.000109972
0.000110263
0.000110553
0.00011084
0.000111126
0.00011141
0.000111692
0.000111973
0.000112252
0.000112529
0.000112805
0.000113079
0.000113351
0.000113622
0.000113892
0.000114161
0.000114428
0.000114693
0.000114958
0.00011522
0.000115482
0.000115741
0.000115999
0.000116255
0.000116509
0.00011676
0.000117008
0.000117254
0.000117495
0.000117732
0.000117964
0.00011819
0.000118409
0.000118619
0.000118821
0.000119011
0.000119188
0.000119351
0.000119496
0.000119621
0.000119722
0.000119796
0.000119839
0.000119846
0.00011981
0.000119727
0.000119588
0.000131257
0.000131696
0.000132127
0.000132553
0.000132973
0.000133388
0.000133798
0.000134202
0.000134601
0.000134995
0.000135383
0.000135767
0.000136145
0.000136517
0.000136885
0.000137248
0.000137606
0.00013796
0.000138309
0.000138653
0.000138992
0.000139327
0.000139656
0.00013998
0.000140299
0.000140612
0.000140919
0.000141218
0.00014151
0.000141792
0.000142065
0.000142326
0.000142574
0.000142808
0.000143023
0.000143218
0.00014339
0.000143534
0.000143646
0.00014372
0.00014375
0.000143728
0.000143644
0.000143487
0.000143244
0.000142895
0.000142419
0.000141785
0.000140958
0.000139882
0.000197865
0.00019843
0.000199006
0.000199584
0.000200162
0.000200741
0.00020132
0.000201898
0.000202477
0.000203055
0.000203633
0.00020421
0.000204787
0.000205363
0.00020594
0.000206515
0.000207091
0.000207666
0.00020824
0.000208814
0.000209387
0.000209959
0.000210529
0.000211098
0.000211664
0.000212227
0.000212786
0.000213339
0.000213887
0.000214426
0.000214955
0.000215472
0.000215975
0.00021646
0.000216923
0.000217361
0.000217769
0.00021814
0.000218467
0.000218742
0.000218955
0.000219093
0.00021914
0.000219078
0.000218881
0.000218518
0.000217942
0.000217091
0.000215883
0.0002142
0.000378186
0.000378632
0.000379082
0.000379536
0.000379993
0.000380454
0.00038092
0.000381391
0.000381867
0.000382348
0.000382835
0.000383329
0.000383829
0.000384336
0.000384849
0.00038537
0.000385898
0.000386434
0.000386976
0.000387526
0.000388084
0.000388648
0.00038922
0.0003898
0.000390386
0.00039098
0.000391581
0.00039219
0.000392805
0.000393427
0.000394056
0.000394691
0.000395333
0.00039598
0.000396632
0.00039729
0.000397951
0.000398617
0.000399284
0.000399953
0.000400622
0.00040129
0.000401954
0.000402613
0.000403263
0.000403902
0.000404525
0.000405127
0.000405703
0.000406241
0.00108926
0.00107437
0.00106012
0.00104646
0.00103331
0.00102061
0.0010083
0.000996349
0.000984741
0.00097346
0.000962493
0.000951827
0.000941451
0.000931354
0.000921527
0.00091196
0.000902643
0.000893569
0.000884728
0.000876114
0.000867718
0.000859534
0.000851554
0.000843772
0.000836181
0.000828776
0.00082155
0.000814499
0.000807616
0.000800898
0.000794339
0.000787934
0.00078168
0.000775572
0.000769607
0.000763781
0.000758092
0.000752535
0.000747099
0.000741765
0.000736529
0.000731384
0.000726321
0.000721332
0.000716405
0.000711524
0.000706667
0.000701797
0.000696846
0.000691683
0.0010825
0.0010577
0.00103401
0.00101132
0.000989613
0.00096884
0.000948978
0.000929972
0.000911769
0.00089432
0.000877579
0.000861503
0.000846053
0.000831194
0.000816891
0.000803114
0.000789835
0.000777026
0.000764663
0.000752723
0.000741184
0.000730025
0.000719229
0.000708776
0.000698651
0.000688839
0.000679323
0.00067009
0.000661127
0.000652421
0.00064396
0.000635733
0.000627728
0.000619934
0.000612339
0.000604933
0.000597705
0.000590645
0.000583756
0.000577043
0.000570501
0.000564123
0.000557901
0.00055183
0.000545903
0.000540112
0.000534452
0.000528912
0.000523481
0.000518143
0.00108247
0.00105761
0.00103378
0.00101097
0.000989138
0.000968225
0.000948181
0.000928955
0.000910495
0.000892757
0.000875699
0.000859281
0.000843468
0.000828227
0.000813527
0.00079934
0.000785638
0.000772399
0.000759599
0.000747216
0.000735231
0.000723625
0.00071238
0.00070148
0.000690909
0.000680654
0.000670699
0.000661033
0.000651643
0.000642518
0.000633646
0.000625018
0.000616623
0.000608455
0.000600503
0.000592761
0.000585221
0.000577876
0.000570718
0.000563742
0.000556942
0.000550313
0.000543849
0.000537546
0.0005314
0.000525407
0.000519563
0.000513866
0.000508312
0.000502898
0.00108247
0.00105779
0.00103417
0.00101158
0.000989932
0.00096918
0.000949266
0.00093014
0.000911756
0.000894073
0.000877051
0.000860654
0.000844849
0.000829606
0.000814895
0.000800689
0.000786964
0.000773695
0.000760861
0.000748442
0.000736417
0.000724769
0.00071348
0.000702535
0.000691918
0.000681616
0.000671613
0.000661899
0.000652462
0.000643289
0.00063437
0.000625695
0.000617255
0.000609041
0.000601044
0.000593256
0.00058567
0.00057828
0.000571077
0.000564056
0.000557212
0.000550539
0.000544031
0.000537684
0.000531494
0.000525457
0.00051957
0.000513827
0.000508227
0.000502766
0.00108247
0.00105779
0.00103417
0.00101155
0.000989864
0.000969073
0.000949121
0.000929962
0.000911551
0.000893847
0.000876812
0.000860408
0.000844601
0.000829361
0.000814657
0.000800462
0.00078675
0.000773496
0.000760679
0.000748278
0.000736272
0.000724643
0.000713374
0.000702449
0.000691852
0.000681568
0.000671585
0.000661889
0.000652469
0.000643313
0.000634411
0.000625752
0.000617327
0.000609127
0.000601144
0.000593369
0.000585794
0.000578414
0.000571222
0.00056421
0.000557373
0.000550705
0.000544202
0.000537859
0.00053167
0.000525632
0.000519741
0.000513992
0.000508382
0.000502906
0.00108247
0.00105781
0.00103421
0.00101163
0.000989989
0.000969246
0.000949343
0.000930232
0.000911865
0.000894202
0.000877203
0.00086083
0.00084505
0.000829832
0.000815147
0.000800966
0.000787265
0.000774021
0.000761209
0.000748811
0.000736807
0.000725178
0.000713907
0.000702978
0.000692377
0.000682088
0.000672098
0.000662395
0.000652967
0.000643803
0.000634891
0.000626223
0.000617787
0.000609577
0.000601582
0.000593795
0.000586209
0.000578816
0.000571609
0.000564583
0.000557731
0.000551047
0.000544527
0.000538165
0.000531956
0.000525896
0.000519981
0.000514205
0.000508566
0.000503058
0.00108247
0.00105781
0.00103422
0.00101164
0.000990002
0.000969255
0.000949344
0.000930222
0.000911844
0.000894167
0.000877153
0.000860767
0.000844975
0.000829746
0.00081505
0.000800861
0.000787153
0.000773902
0.000761086
0.000748685
0.000736678
0.000725048
0.000713777
0.000702848
0.000692248
0.000681961
0.000671974
0.000662274
0.000652849
0.000643688
0.00063478
0.000626115
0.000617683
0.000609476
0.000601484
0.000593701
0.000586118
0.000578727
0.000571523
0.000564498
0.000557647
0.000550963
0.000544442
0.000538078
0.000531866
0.000525801
0.000519879
0.000514095
0.000508444
0.000502923
0.00108247
0.00105781
0.00103423
0.00101165
0.000990023
0.000969285
0.000949385
0.000930275
0.000911908
0.000894245
0.000877244
0.000860871
0.000845091
0.000829874
0.000815189
0.00080101
0.000787311
0.000774069
0.000761261
0.000748865
0.000736864
0.000725238
0.00071397
0.000703044
0.000692445
0.000682159
0.000672172
0.000662471
0.000653044
0.000643881
0.00063497
0.000626301
0.000617866
0.000609653
0.000601656
0.000593867
0.000586276
0.000578878
0.000571664
0.00056463
0.000557768
0.000551072
0.000544538
0.000538159
0.000531931
0.000525848
0.000519906
0.0005141
0.000508425
0.000502877
0.00108247
0.00105781
0.00103423
0.00101166
0.000990029
0.000969293
0.000949394
0.000930283
0.000911915
0.000894248
0.000877244
0.000860867
0.000845083
0.00082986
0.00081517
0.000800986
0.000787282
0.000774035
0.000761222
0.000748823
0.000736817
0.000725187
0.000713916
0.000702988
0.000692386
0.000682097
0.000672108
0.000662405
0.000652977
0.000643812
0.0006349
0.00062623
0.000617793
0.000609579
0.00060158
0.000593789
0.000586196
0.000578795
0.000571579
0.000564541
0.000557674
0.000550974
0.000544433
0.000538047
0.000531811
0.000525718
0.000519765
0.000513947
0.000508258
0.000502693
0.00108247
0.00105781
0.00103423
0.00101166
0.000990033
0.000969298
0.000949401
0.000930292
0.000911926
0.000894262
0.00087726
0.000860885
0.000845104
0.000829884
0.000815197
0.000801016
0.000787315
0.00077407
0.000761259
0.000748862
0.000736858
0.00072523
0.00071396
0.000703032
0.000692432
0.000682143
0.000672154
0.000662451
0.000653022
0.000643856
0.000634942
0.00062627
0.00061783
0.000609613
0.000601611
0.000593815
0.000586218
0.000578812
0.000571589
0.000564544
0.00055767
0.000550961
0.00054441
0.000538013
0.000531764
0.000525657
0.000519688
0.000513852
0.000508143
0.000502558
0.00108247
0.00105781
0.00103423
0.00101166
0.000990033
0.000969298
0.000949401
0.000930291
0.000911926
0.000894261
0.00087726
0.000860885
0.000845103
0.000829883
0.000815196
0.000801014
0.000787313
0.000774068
0.000761257
0.000748859
0.000736855
0.000725226
0.000713955
0.000703027
0.000692425
0.000682136
0.000672145
0.00066244
0.00065301
0.000643842
0.000634926
0.000626252
0.000617809
0.00060959
0.000601584
0.000593785
0.000586183
0.000578772
0.000571544
0.000564493
0.000557611
0.000550894
0.000544334
0.000537927
0.000531666
0.000525546
0.000519562
0.00051371
0.000507984
0.000502379
0.00108247
0.00105781
0.00103423
0.00101166
0.000990029
0.000969293
0.000949393
0.000930282
0.000911914
0.000894247
0.000877243
0.000860865
0.000845081
0.000829858
0.000815167
0.000800982
0.000787278
0.000774029
0.000761215
0.000748815
0.000736808
0.000725176
0.000713904
0.000702973
0.000692369
0.000682077
0.000672085
0.000662379
0.000652946
0.000643777
0.000634859
0.000626183
0.000617738
0.000609516
0.000601509
0.000593706
0.000586101
0.000578687
0.000571455
0.000564399
0.000557512
0.000550788
0.000544222
0.000537806
0.000531536
0.000525406
0.00051941
0.000513544
0.000507803
0.000502181
0.00108247
0.00105781
0.00103423
0.00101165
0.000990022
0.000969285
0.000949385
0.000930274
0.000911907
0.000894243
0.000877242
0.000860868
0.000845088
0.000829869
0.000815184
0.000801003
0.000787303
0.000774059
0.000761249
0.000748851
0.000736847
0.000725218
0.000713947
0.000703018
0.000692414
0.000682123
0.00067213
0.000662423
0.000652989
0.000643818
0.000634898
0.000626218
0.00061777
0.000609544
0.000601532
0.000593724
0.000586113
0.000578691
0.000571452
0.000564387
0.000557491
0.000550757
0.000544178
0.000537749
0.000531465
0.000525319
0.000519306
0.000513421
0.000507659
0.000502014
0.00108247
0.00105781
0.00103422
0.00101164
0.000990002
0.000969254
0.000949344
0.000930221
0.000911842
0.000894165
0.000877151
0.000860764
0.000844971
0.00082974
0.000815043
0.000800852
0.000787142
0.000773889
0.000761071
0.000748667
0.000736657
0.000725023
0.000713748
0.000702815
0.000692209
0.000681916
0.000671921
0.000662213
0.000652779
0.000643607
0.000634686
0.000626007
0.000617559
0.000609334
0.000601321
0.000593514
0.000585903
0.000578481
0.00057124
0.000564175
0.000557277
0.00055054
0.000543958
0.000537526
0.000531236
0.000525083
0.000519062
0.000513168
0.000507394
0.000501737
0.00108247
0.00105781
0.00103421
0.00101163
0.000989989
0.000969245
0.000949342
0.00093023
0.000911863
0.000894199
0.000877199
0.000860825
0.000845044
0.000829825
0.000815137
0.000800955
0.000787251
0.000774003
0.000761189
0.000748787
0.000736778
0.000725144
0.000713867
0.000702932
0.000692323
0.000682026
0.000672027
0.000662313
0.000652873
0.000643694
0.000634767
0.00062608
0.000617624
0.000609389
0.000601367
0.00059355
0.000585929
0.000578496
0.000571244
0.000564166
0.000557254
0.000550503
0.000543907
0.000537457
0.00053115
0.000524978
0.000518936
0.000513019
0.000507221
0.000501536
0.00108247
0.00105779
0.00103417
0.00101155
0.000989864
0.000969072
0.00094912
0.00092996
0.000911549
0.000893844
0.000876808
0.000860402
0.000844595
0.000829353
0.000814647
0.000800449
0.000786734
0.000773478
0.000760657
0.000748252
0.000736241
0.000724607
0.000713332
0.000702399
0.000691794
0.000681501
0.000671507
0.000661799
0.000652365
0.000643193
0.000634272
0.000625592
0.000617143
0.000608915
0.0006009
0.000593088
0.000585473
0.000578046
0.000570799
0.000563725
0.000556818
0.00055007
0.000543476
0.000537028
0.00053072
0.000524547
0.000518503
0.000512582
0.000506778
0.000501086
0.00108247
0.00105779
0.00103417
0.00101158
0.000989932
0.000969179
0.000949265
0.000930138
0.000911754
0.000894069
0.000877046
0.000860647
0.000844841
0.000829595
0.000814882
0.000800673
0.000786945
0.000773672
0.000760834
0.00074841
0.000736379
0.000724725
0.000713429
0.000702475
0.000691848
0.000681535
0.00067152
0.000661792
0.000652338
0.000643146
0.000634206
0.000625508
0.000617041
0.000608796
0.000600764
0.000592936
0.000585305
0.000577863
0.000570602
0.000563514
0.000556594
0.000549834
0.000543228
0.000536769
0.000530453
0.000524273
0.000518224
0.000512301
0.000506501
0.00050082
0.00108247
0.00105761
0.00103378
0.00101097
0.000989137
0.000968224
0.00094818
0.000928953
0.000910492
0.000892754
0.000875694
0.000859275
0.00084346
0.000828217
0.000813515
0.000799325
0.000785621
0.000772378
0.000759574
0.000747187
0.000735198
0.000723586
0.000712336
0.00070143
0.000690853
0.00068059
0.000670627
0.000660952
0.000651552
0.000642417
0.000633534
0.000624893
0.000616486
0.000608302
0.000600334
0.000592572
0.00058501
0.000577639
0.000570453
0.000563446
0.000556612
0.000549946
0.000543442
0.000537096
0.000530906
0.000524869
0.000518986
0.000513259
0.000507696
0.000502315
0.0010825
0.0010577
0.00103401
0.00101132
0.000989613
0.000968839
0.000948977
0.000929971
0.000911769
0.00089432
0.00087758
0.000861504
0.000846055
0.000831197
0.000816896
0.000803121
0.000789845
0.000777039
0.000764681
0.000752746
0.000741213
0.000730064
0.000719278
0.000708838
0.00069873
0.000688937
0.000679445
0.000670241
0.000661314
0.000652651
0.000644243
0.000636079
0.00062815
0.000620449
0.000612967
0.000605698
0.000598635
0.000591775
0.000585111
0.000578642
0.000572364
0.000566277
0.000560381
0.000554679
0.000549176
0.000543882
0.000538813
0.000534001
0.000529504
0.000525438
0.00108926
0.00107437
0.00106012
0.00104646
0.00103331
0.00102061
0.0010083
0.000996348
0.000984739
0.000973457
0.000962488
0.00095182
0.000941441
0.000931342
0.000921511
0.00091194
0.000902619
0.000893539
0.000884692
0.00087607
0.000867666
0.000859471
0.000851479
0.000843684
0.000836077
0.000828654
0.000821407
0.000814331
0.00080742
0.000800669
0.000794071
0.000787623
0.000781317
0.000775151
0.000769118
0.000763213
0.000757432
0.000751771
0.000746223
0.000740784
0.000735449
0.000730213
0.000725071
0.000720016
0.000715043
0.000710145
0.000705315
0.000700543
0.000695818
0.000691123
0.000466149
0.000252756
0.000195383
0.000187906
0.000184021
0.000182754
0.000180005
0.000178313
0.000175955
0.000173977
0.000171948
0.000169731
0.000168019
0.000165538
0.000164154
0.000161312
0.000161029
0.000163983
0.00020906
0.000390765
0.000466724
0.000253365
0.00019608
0.000188623
0.000184748
0.000183472
0.000180725
0.000179024
0.000176666
0.000174682
0.000172651
0.000170427
0.000168712
0.000166227
0.000164838
0.000161993
0.000161703
0.000164658
0.000209734
0.00039132
0.000467304
0.000253954
0.000196778
0.000189346
0.000185482
0.000184195
0.000181451
0.000179741
0.000177383
0.000175392
0.000173359
0.00017113
0.000169411
0.000166922
0.000165527
0.00016268
0.000162383
0.000165338
0.000210403
0.000391823
0.000467889
0.000254537
0.000197479
0.000190075
0.000186221
0.000184925
0.000182183
0.000180465
0.000178107
0.000176109
0.000174073
0.000171839
0.000170117
0.000167623
0.000166224
0.000163373
0.00016307
0.000166021
0.000211026
0.000392334
0.000468479
0.00025512
0.000198186
0.000190809
0.000186967
0.000185661
0.000182921
0.000181194
0.000178836
0.000176831
0.000174794
0.000172555
0.000170828
0.000168331
0.000166926
0.000164073
0.000163762
0.000166703
0.000211633
0.000392852
0.000469074
0.000255706
0.000198897
0.00019155
0.000187719
0.000186403
0.000183665
0.00018193
0.000179572
0.00017756
0.000175521
0.000173277
0.000171546
0.000169046
0.000167635
0.000164779
0.00016446
0.000167387
0.000212233
0.000393376
0.000469673
0.000256296
0.000199615
0.000192297
0.000188477
0.000187151
0.000184416
0.000182672
0.000180314
0.000178296
0.000176255
0.000174005
0.000172271
0.000169767
0.00016835
0.000165493
0.000165164
0.000168075
0.000212832
0.000393908
0.000470278
0.000256891
0.000200339
0.00019305
0.000189242
0.000187905
0.000185173
0.00018342
0.000181063
0.000179037
0.000176995
0.00017474
0.000173002
0.000170494
0.000169072
0.000166212
0.000165875
0.000168767
0.000213431
0.000394445
0.000470888
0.000257491
0.000201069
0.000193809
0.000190013
0.000188666
0.000185936
0.000184175
0.000181818
0.000179786
0.000177741
0.000175481
0.00017374
0.000171228
0.0001698
0.000166938
0.000166592
0.000169464
0.000214034
0.000394989
0.000471503
0.000258096
0.000201806
0.000194575
0.00019079
0.000189433
0.000186707
0.000184937
0.00018258
0.000180541
0.000178494
0.000176229
0.000174484
0.000171969
0.000170535
0.000167671
0.000167315
0.000170167
0.00021464
0.000395539
0.000472123
0.000258707
0.00020255
0.000195347
0.000191574
0.000190207
0.000187483
0.000185705
0.000183348
0.000181302
0.000179254
0.000176984
0.000175235
0.000172717
0.000171277
0.00016841
0.000168045
0.000170876
0.000215251
0.000396096
0.000472748
0.000259324
0.0002033
0.000196126
0.000192365
0.000190988
0.000188267
0.000186479
0.000184123
0.000182071
0.000180021
0.000177745
0.000175992
0.000173472
0.000172026
0.000169157
0.000168782
0.000171591
0.000215867
0.00039666
0.000473379
0.000259947
0.000204058
0.000196912
0.000193163
0.000191775
0.000189057
0.000187261
0.000184905
0.000182846
0.000180794
0.000178514
0.000176757
0.000174233
0.000172781
0.00016991
0.000169526
0.000172313
0.000216488
0.00039723
0.000474015
0.000260576
0.000204822
0.000197704
0.000193968
0.000192569
0.000189855
0.000188049
0.000185694
0.000183628
0.000181575
0.000179289
0.000177528
0.000175001
0.000173544
0.00017067
0.000170276
0.000173041
0.000217116
0.000397807
0.000474656
0.000261211
0.000205593
0.000198503
0.00019478
0.00019337
0.000190659
0.000188845
0.00018649
0.000184417
0.000182362
0.000180072
0.000178307
0.000175777
0.000174314
0.000171437
0.000171033
0.000173776
0.000217749
0.00039839
0.000475303
0.000261853
0.000206372
0.00019931
0.000195598
0.000194178
0.00019147
0.000189647
0.000187293
0.000185213
0.000183156
0.000180861
0.000179093
0.000176559
0.00017509
0.000172212
0.000171798
0.000174518
0.000218389
0.000398981
0.000475956
0.0002625
0.000207158
0.000200123
0.000196424
0.000194993
0.000192289
0.000190457
0.000188104
0.000186017
0.000183958
0.000181658
0.000179886
0.000177349
0.000175874
0.000172993
0.000172569
0.000175268
0.000219036
0.000399578
0.000476614
0.000263153
0.000207951
0.000200943
0.000197257
0.000195815
0.000193115
0.000191273
0.000188921
0.000186827
0.000184767
0.000182462
0.000180686
0.000178147
0.000176665
0.000173782
0.000173348
0.000176024
0.00021969
0.000400183
0.000477278
0.000263813
0.000208751
0.000201771
0.000198098
0.000196644
0.000193948
0.000192097
0.000189746
0.000187645
0.000185583
0.000183274
0.000181494
0.000178951
0.000177464
0.000174579
0.000174135
0.000176788
0.00022035
0.000400794
0.000477947
0.000264478
0.000209559
0.000202605
0.000198946
0.000197481
0.000194788
0.000192929
0.000190578
0.000188471
0.000186407
0.000184093
0.000182309
0.000179763
0.00017827
0.000175383
0.000174928
0.00017756
0.000221018
0.000401413
0.000478623
0.00026515
0.000210374
0.000203448
0.000199801
0.000198325
0.000195637
0.000193768
0.000191418
0.000189304
0.000187238
0.000184919
0.000183132
0.000180583
0.000179084
0.000176194
0.00017573
0.000178339
0.000221693
0.000402039
0.000479304
0.000265828
0.000211197
0.000204297
0.000200664
0.000199177
0.000196492
0.000194614
0.000192265
0.000190144
0.000188077
0.000185754
0.000183962
0.000181411
0.000179905
0.000177014
0.000176539
0.000179126
0.000222375
0.000402672
0.000479991
0.000266513
0.000212027
0.000205154
0.000201534
0.000200036
0.000197356
0.000195468
0.000193121
0.000190993
0.000188924
0.000186596
0.0001848
0.000182246
0.000180734
0.000177841
0.000177355
0.00017992
0.000223065
0.000403313
0.000480684
0.000267204
0.000212865
0.000206019
0.000202413
0.000200903
0.000198227
0.00019633
0.000193984
0.000191849
0.000189779