/*--------------------------------*- C++ -*----------------------------------*\
  =========                 |
  \\      /  F ield         | OpenFOAM: The Open Source CFD Toolbox
   \\    /   O peration     | Website:  https://openfoam.org
    \\  /    A nd           | Version:  8
     \\/     M anipulation  |
\*---------------------------------------------------------------------------*/
FoamFile
{
    version     2.0;
    format      ascii;
    class       volScalarField;
    location    "300";
    object      p;
}
// * * * * * * * * * * * * * * * * * * * * * * * * * * * * * * * * * * * * * //

dimensions      [1 -1 -2 0 0 0 0];

internalField   nonuniform List<scalar> 
8400
(
11698.6
11717.2
11732.9
11748.1
11763.2
11778.3
11793.6
11809.1
11825
11841.4
11858.4
11876
11894.5
11913.9
11934.4
11956.2
11979.4
12004.5
12031.5
12060.9
12093
12128.3
12167.3
12210.5
12258.9
12313
12373.6
12441.6
12518.4
12605.2
12703.8
12815.8
12943.6
13089.4
13256.3
13447.4
13666.6
13918.4
14208
14541.5
14926.1
15370.3
15884.7
16483.2
17182.2
17995.7
18938.8
20072.2
21561.7
23501.3
11590.2
11603.8
11617.3
11631.3
11645.5
11659.8
11674.2
11688.9
11703.9
11719.3
11735.3
11751.8
11769.1
11787.2
11806.3
11826.6
11848.2
11871.5
11896.5
11923.8
11953.5
11986.2
12022.2
12062.1
12106.6
12156.2
12212
12274.9
12345.9
12426.4
12517.8
12621.8
12740.5
12876.1
13031.2
13208.9
13412.8
13646.8
13915.6
14224.6
14579.9
14988.8
15459.6
16002.7
16629.5
17348.1
18165.9
19113.6
20274.2
21698.2
11523.5
11541.4
11557.3
11572.5
11587.6
11602.9
11618.4
11634.3
11650.6
11667.4
11684.8
11702.9
11721.9
11741.7
11762.7
11784.9
11808.7
11834.1
11861.5
11891.2
11923.6
11959.1
11998.1
12041.1
12088.6
12141.5
12200.6
12266.9
12341.4
12425.6
12520.7
12628.6
12751.2
12890.8
13049.9
13231.7
13439.6
13677.6
13950.3
14262.9
14621.4
15032.6
15504.3
16045.6
16665.5
17371.1
18168.2
19071.7
20112.1
21284.5
11388.7
11392.8
11402.6
11414.6
11427.3
11440.3
11453.6
11467.2
11481.1
11495.3
11510
11525.2
11540.9
11557.4
11574.7
11592.9
11612.3
11633
11655.3
11679.3
11705.5
11734.1
11765.7
11800.7
11839.6
11883
11931.7
11986.5
12048.4
12118.5
12198.1
12288.6
12391.9
12509.9
12644.9
12799.6
12977
13180.6
13414.4
13682.9
13991.3
14345.3
14751.4
15216.9
15749.1
16354
17037.1
17807.6
18680
19650.8
11343
11364.4
11381.3
11396.3
11411
11425.8
11440.9
11456.3
11472.1
11488.4
11505.2
11522.5
11540.6
11559.5
11579.2
11600.1
11622.2
11645.6
11670.8
11697.7
11726.7
11758.2
11792.4
11830
11871.2
11916.9
11967.5
12024
12087.2
12158
12237.7
12327.6
12429.3
12544.5
12675.3
12824
12993.2
13185.9
13405.5
13655.7
13940.6
14264.6
14632.6
15049.4
15519.6
16046.4
16631.2
17276.1
17987.3
18763.5
11184.6
11184.9
11192.9
11203.7
11215.6
11227.8
11240.4
11253.1
11266.2
11279.6
11293.3
11307.4
11322
11337.1
11352.9
11369.5
11387
11405.5
11425.3
11446.6
11469.6
11494.6
11521.9
11551.7
11584.7
11621.2
11661.8
11707.3
11758.3
11815.7
11880.5
11954
12037.4
12132.4
12240.6
12364.2
12505.4
12666.9
12851.5
13062.6
13303.7
13578.5
13891.3
14245.8
14645.6
15093.2
15588.5
16130.8
16722
17362.8
11154.5
11178.2
11195.4
11209.9
11223.8
11237.6
11251.6
11265.9
11280.4
11295.2
11310.4
11325.9
11341.9
11358.4
11375.5
11393.3
11411.8
11431.2
11451.6
11473.3
11496.4
11521
11547.6
11576.3
11607.5
11641.6
11679.1
11720.5
11766.3
11817.2
11874.2
11938
12009.7
12090.5
12181.8
12285.2
12402.5
12535.6
12686.8
12858.5
13053.5
13274.6
13524.7
13806.6
14123.1
14475.5
14863.8
15286.5
15745.2
16242.4
10984.4
10982.8
10990
11000.3
11011.6
11023.4
11035.4
11047.7
11060.1
11072.8
11085.7
11099
11112.6
11126.6
11141.1
11156.1
11171.7
11188
11205.2
11223.3
11242.5
11262.9
11284.8
11308.4
11334
11361.7
11392.1
11425.5
11462.3
11503.1
11548.5
11599.3
11656.2
11720.1
11792.1
11873.5
11965.6
12069.8
12188
12322
12473.8
12645.5
12839.2
13057
13300.7
13571.4
13868.7
14191.5
14541.1
14920.8
10961
10985.1
11001.8
11015.4
11028.3
11041
11053.7
11066.5
11079.4
11092.4
11105.6
11118.9
11132.3
11146
11159.8
11174
11188.4
11203.2
11218.4
11234.1
11250.4
11267.4
11285.2
11304
11323.8
11344.9
11367.4
11391.7
11418.1
11446.7
11478.1
11512.7
11550.9
11593.5
11640.9
11694.1
11753.9
11821.4
11897.5
11983.7
12081.2
12191.6
12316.3
12456.8
12614.7
12790.8
12985.3
13197.9
13430.5
13686.8
10787.5
10785.3
10791.9
10801.7
10812.5
10823.8
10835.2
10846.7
10858.4
10870.2
10882.1
10894.2
10906.4
10918.7
10931.3
10944
10956.9
10970.1
10983.6
10997.4
11011.5
11026
11041
11056.5
11072.6
11089.3
11106.7
11125
11144.3
11164.7
11186.3
11209.3
11234
11260.6
11289.3
11320.4
11354.5
11391.7
11432.8
11478.2
11528.6
11584.8
11647.5
11717.8
11796.7
11885
11983.6
12093.2
12216.2
12357.3
10764.2
10787.7
10803.6
10816.5
10828.4
10840.1
10851.8
10863.4
10875
10886.5
10897.9
10909.3
10920.7
10931.9
10943
10953.9
10964.8
10975.4
10985.9
10996.2
11006.3
11016.1
11025.6
11034.7
11043.6
11052
11060
11067.4
11074.3
11080.6
11086.2
11091
11094.9
11097.9
11099.8
11100.6
11100.2
11098.5
11095.4
11091
11085.2
11078.3
11070.4
11062
11054
11047.2
11043
11043.5
11052
11073.9
10592.9
10590.6
10596.7
10605.8
10615.9
10626.3
10636.7
10647.2
10657.7
10668.1
10678.4
10688.6
10698.8
10708.7
10718.5
10728.1
10737.5
10746.5
10755.2
10763.5
10771.4
10778.6
10785.2
10791.1
10796
10799.9
10802.6
10803.9
10803.6
10801.3
10796.8
10789.8
10779.7
10766.3
10748.9
10726.9
10699.8
10666.9
10627.3
10580.3
10525.2
10461.3
10387.9
10305
10212.6
10111.5
10003.4
9891.34
9779.78
9675.96
10565.1
10587.3
10602.3
10614.6
10626
10637.1
10648.1
10658.9
10669.7
10680.2
10690.6
10700.7
10710.6
10720.1
10729.2
10737.8
10745.9
10753.4
10760.1
10766
10771
10774.8
10777.3
10778.4
10777.7
10775
10769.9
10762.3
10751.5
10737.1
10718.7
10695.5
10666.9
10632
10589.9
10539.7
10480.1
10409.9
10327.7
10232.1
10121.7
9994.85
9850.46
9687.59
9505.94
9306.08
9090.04
8861.94
8628.28
8398.23
10400.7
10398.8
10404.5
10413
10422.2
10431.6
10440.9
10450.1
10459.1
10467.9
10476.3
10484.5
10492.2
10499.4
10506.1
10512.2
10517.5
10521.9
10525.4
10527.7
10528.7
10528.1
10525.8
10521.5
10514.8
10505.3
10492.8
10476.5
10456.1
10430.8
10400
10362.7
10317.9
10264.6
10201.4
10126.8
10039.3
9936.9
9817.59
9679.08
9518.94
9334.64
9123.69
8883.89
8613.59
8312.06
7980.2
7621.85
7244.86
6863.33
10362.5
10382.6
10396.7
10408.4
10419.5
10430.2
10440.8
10451.2
10461.4
10471.3
10480.9
10490.1
10498.9
10507.1
10514.7
10521.6
10527.6
10532.6
10536.5
10539
10540
10539.1
10536.1
10530.6
10522.2
10510.5
10494.9
10474.8
10449.5
10418.1
10379.7
10333
10277
10209.9
10130.2
10035.9
9924.66
9793.98
9641
9462.54
9255.11
9015.01
8738.43
8421.85
8062.43
7658.37
7209.54
6719.68
6199.95
5670.73
10211.5
10211.4
10217.5
10225.7
10234.4
10243.1
10251.7
10259.9
10267.8
10275.2
10282.2
10288.6
10294.3
10299.2
10303.3
10306.3
10308.2
10308.6
10307.6
10304.7
10299.7
10292.3
10282.2
10268.8
10251.8
10230.5
10204.2
10172.3
10133.8
10087.8
10032.9
9967.99
9891.41
9801.35
9695.77
9572.29
9428.16
9260.29
9065.16
8838.77
8576.71
8274.06
7925.51
7525.76
7069.95
6553.74
5972.7
5324.71
4618.6
3885.28
10154
10171.7
10184.6
10195.9
10206.6
10216.9
10227.1
10236.9
10246.4
10255.6
10264.3
10272.5
10280.1
10287
10293
10298.1
10302.2
10304.8
10306
10305.4
10302.8
10297.8
10290
10278.9
10264.1
10245
10220.8
10190.6
10153.7
10108.8
10054.7
9989.86
9912.6
9820.92
9712.47
9584.57
9434.05
9257.28
9050.02
8807.39
8523.74
8192.55
7806.29
7356.73
6835.65
6234.66
5542.88
4748.65
3858.47
2922.8
10023.7
10028.5
10036.5
10045.5
10054.5
10063.3
10071.7
10079.7
10087.2
10094.2
10100.6
10106.3
10111.1
10115
10117.8
10119.3
10119.4
10117.8
10114.3
10108.5
10100.1
10088.8
10074
10055.2
10031.8
10003.1
9968.13
9926.05
9875.7
9815.75
9744.69
9660.76
9561.9
9445.71
9309.41
9149.75
8962.9
8744.43
8489.11
8190.85
7842.55
7435.8
6960.64
6405.61
5758.94
5009.29
4141.29
3129.73
1961.63
700.795
9936.66
9955.99
9968.39
9979.38
9989.67
9999.52
10009
10018.1
10026.7
10034.9
10042.4
10049.4
10055.6
10060.9
10065.2
10068.4
10070.2
10070.5
10068.9
10065.2
10059.1
10050.1
10037.8
10021.6
10001.1
9975.32
9943.61
9904.95
9858.26
9802.24
9735.39
9655.98
9562
9451.08
9320.51
9167.06
8987
8775.93
8528.69
8239.18
7900.25
7503.34
7037.83
6490.7
5847.94
5096.83
4218.04
3157.86
1830.65
261.593
9836.65
9846.73
9856.8
9866.8
9876.46
9885.75
9894.64
9903.08
9911.02
9918.41
9925.17
9931.21
9936.42
9940.67
9943.82
9945.68
9946.06
9944.72
9941.38
9935.75
9927.45
9916.06
9901.09
9881.96
9858.04
9828.55
9792.61
9749.18
9697.06
9634.9
9561.05
9473.64
9370.47
9248.96
9106.11
8938.36
8741.54
8510.67
8239.81
7921.83
7548.1
7107.95
6587.55
5968.63
5229.35
4347.12
3286.44
1943.64
110.088
-2258.64
18900.6
10738.5
6705.49
5187.04
4352.61
3743.79
3320.13
3035.83
2835.64
2684.55
2564.84
2466.63
2383.4
2310.65
2245.33
2185.31
2129.04
2075.36
2023.31
1972.1
1921.06
1869.54
1816.92
1762.57
1705.84
1646.01
1582.31
1513.84
1439.62
1358.47
1269.07
1169.9
1059.22
935.035
794.859
635.743
454.262
246.409
7.36126
-268.818
-589.283
-962.646
-1399.58
-1913.57
-2522.13
-3248.7
-4126.24
-5204
-6562.4
-8338.1
-6731.96
-2142.76
-641.031
-74.7661
359.523
685.131
909.514
1069.61
1188.46
1277.29
1343.34
1392.08
1427.39
1452
1467.85
1476.38
1478.65
1475.42
1467.26
1454.52
1437.45
1416.12
1390.51
1360.48
1325.77
1286.02
1240.72
1189.24
1130.77
1064.29
988.562
902.205
803.51
690.439
560.767
411.786
240.232
42.1896
-186.931
-452.561
-761.37
-1121.53
-1543.03
-2038.2
-2622.48
-3315.44
-4142.02
-5133.74
-6328.12
-7759.05
499.92
2669.96
3853.1
3955.76
3799.12
3627.48
3441.18
3249.98
3071.59
2912.47
2771.68
2646.74
2535.26
2435.02
2344
2260.47
2182.92
2110.1
2040.93
1974.45
1909.82
1846.25
1782.99
1719.31
1654.46
1587.68
1518.16
1445.05
1367.41
1284.15
1194.03
1095.55
986.95
866.154
730.866
578.463
405.832
209.281
-15.5847
-273.922
-571.793
-916.45
-1316.57
-1782.52
-2326.7
-2963.82
-3710.89
-4586.44
-5607.71
-6782.96
750.97
1160.04
1351.52
1279.87
1177.65
1134.27
1122.65
1120.41
1124.67
1134.54
1147.16
1159.93
1171.31
1180.47
1186.88
1190.26
1190.41
1187.28
1180.81
1170.96
1157.66
1140.81
1120.27
1095.81
1067.14
1033.83
995.414
951.267
900.695
842.959
777.113
701.94
616.023
517.746
405.093
275.697
126.79
-44.8858
-243.153
-472.469
-738.04
-1045.96
-1403.34
-1818.33
-2300.15
-2858.84
-3504.56
-4246.02
-5087.09
-6020.94
1192.41
1441.5
1758.13
1989.8
2129.69
2218.97
2271.29
2290.23
2283.86
2260.89
2227.15
2186.22
2140.6
2092.06
2041.77
1990.5
1938.69
1886.57
1834.21
1781.58
1728.55
1674.92
1620.41
1564.75
1507.54
1448.34
1386.56
1321.5
1252.37
1178.3
1098.28
1011.18
915.709
810.326
693.207
562.236
414.972
248.578
59.7708
-155.24
-400.805
-681.883
-1004.06
-1373.47
-1796.64
-2280.04
-2829.3
-3447.77
-4134.08
-4879.44
1298.54
1384.17
1492.29
1554.32
1556.97
1528.87
1490.45
1448.18
1405.05
1363.78
1325.84
1291.43
1260.16
1231.51
1204.9
1179.77
1155.59
1131.86
1108.16
1084.08
1059.23
1033.25
1005.77
976.4
944.777
910.514
873.133
832.12
786.878
736.679
680.697
617.997
547.489
467.898
377.731
275.259
158.481
25.0952
-127.545
-302.449
-503.008
-732.992
-996.491
-1297.79
-1641.13
-2030.2
-2467.48
-2953.01
-3482.78
-4047.24
1314.08
1358.47
1430.2
1502.42
1557.77
1598.67
1630.27
1653.27
1667.33
1673.16
1671.96
1664.71
1652.25
1635.3
1614.52
1590.46
1563.58
1534.25
1502.75
1469.29
1434.01
1396.98
1358.18
1317.51
1274.83
1229.92
1182.55
1132.4
1079.03
1021.93
960.497
893.997
821.594
742.297
654.949
558.206
450.52
330.117
194.984
42.8593
-128.76
-322.586
-541.464
-788.228
-1065.46
-1375.1
-1717.88
-2092.58
-2495.03
-2917.93
1275.01
1297.21
1335
1374.98
1403.14
1416.03
1416.19
1406.24
1388.2
1364.12
1335.97
1305.34
1273.34
1240.74
1208.07
1175.64
1143.59
1111.96
1080.71
1049.75
1018.92
988.058
956.938
925.35
893.026
859.671
824.973
788.584
750.108
709.095
665.037
617.362
565.419
508.461
445.634
375.965
298.347
211.534
114.134
4.61335
-118.685
-257.499
-413.573
-588.527
-783.661
-999.665
-1236.22
-1491.5
-1761.55
-2040.22
1208.85
1222.45
1247.51
1278.15
1305.64
1325.92
1339.13
1346.29
1348.14
1345.31
1338.46
1328.23
1315.1
1299.47
1281.67
1261.95
1240.53
1217.6
1193.3
1167.73
1140.99
1113.13
1084.17
1054.14
1023
990.698
957.138
922.206
885.746
847.559
807.404
764.988
719.97
671.946
620.448
564.936
504.797
439.342
367.811
289.381
203.186
108.356
4.07099
-110.341
-235.275
-370.668
-515.769
-668.877
-827.082
-986.526
1125.38
1135.47
1154.66
1179.21
1202.13
1218.82
1228.09
1230.3
1226.14
1216.43
1202.13
1184.2
1163.5
1140.76
1116.54
1091.28
1065.32
1038.92
1012.24
985.406
958.486
931.52
904.523
877.488
850.391
823.19
795.838
768.274
740.427
712.215
683.545
654.313
624.401
593.682
562.013
529.239
495.196
459.712
422.615
383.743
342.961
300.183
255.405
208.755
160.55
111.38
62.198
14.4265
-29.927
-68.33
1028.97
1039.09
1058.32
1082.95
1105.98
1122.83
1132.28
1134.73
1130.86
1121.5
1107.61
1090.18
1070.08
1048.04
1024.64
1000.36
975.548
950.484
925.371
900.362
875.572
851.087
826.977
803.3
780.108
757.451
735.382
713.963
693.263
673.365
654.367
636.389
619.571
604.084
590.132
577.956
567.844
560.14
555.247
553.643
555.884
562.615
574.573
592.587
617.569
650.492
692.356
744.136
806.7
880.794
919.594
933.257
958.464
989.336
1017.16
1037.89
1051.65
1059.5
1062.18
1060.32
1054.64
1045.78
1034.27
1020.55
1004.97
987.864
969.508
950.159
930.049
909.398
888.414
867.298
846.249
825.468
805.159
785.534
766.818
749.255
733.112
718.686
706.309
696.359
689.266
685.524
685.701
690.448
700.517
716.767
740.18
771.865
813.065
865.145
929.571
1007.87
1101.53
1211.93
1340.12
1486.67
1651.41
1833.52
792.825
815.129
853.145
893.524
922.237
935.855
936.928
928.119
911.464
889.046
862.885
834.604
805.381
776.055
747.223
719.29
692.52
667.081
643.078
620.58
599.64
580.312
562.661
546.772
532.76
520.773
511.003
503.692
499.137
497.701
499.82
506.015
516.902
533.209
555.787
585.626
623.877
671.861
731.09
803.271
890.307
994.28
1117.41
1261.97
1430.14
1623.84
1844.39
2092.17
2366.2
2664.48
638.823
683.355
755.394
828.146
884.257
926.154
958.989
983.504
999.396
1007.43
1008.84
1004.7
995.894
983.257
967.543
949.435
929.532
908.369
886.425
864.135
841.904
820.114
799.137
779.344
761.117
744.859
731.004
720.028
712.463
708.91
710.052
716.671
729.666
750.072
779.082
818.071
868.617
932.528
1011.86
1108.94
1226.34
1366.91
1533.68
1729.77
1958.2
2221.62
2521.84
2859.27
3232.08
3636.33
430.01
515.812
624.323
687.016
690.608
663.741
626.9
586.563
545.778
507.336
472.758
442.313
415.721
392.566
372.409
354.839
339.504
326.131
314.535
304.61
296.325
289.722
284.913
282.075
281.454
283.367
288.208
296.454
308.672
325.537
347.839
376.506
412.62
457.439
512.425
579.271
659.932
756.654
872.01
1008.92
1170.67
1360.9
1583.57
1842.87
2142.99
2487.8
2880.31
3321.85
3810.92
4343.45
130.366
379.662
696.761
929.206
1070.2
1160.93
1215.08
1236.2
1232.48
1212.72
1182.82
1146.45
1106.21
1064.01
1021.18
978.668
937.12
897.021
858.742
822.585
788.821
757.708
729.521
704.556
683.158
665.722
652.715
644.686
642.283
646.269
657.543
677.158
706.348
746.558
799.471
867.044
951.551
1055.62
1182.28
1335.01
1517.75
1734.95
1991.54
2292.89
2644.59
3052.14
3520.31
4052
4646.37
5297.99
-504.878
-95.5779
96.4165
25.6189
-75.3857
-117.137
-126.718
-126.443
-119.117
-105.586
-88.6198
-70.7098
-53.2621
-36.9767
-22.1914
-9.00868
2.64528
12.9676
22.2384
30.7963
39.0252
47.3489
56.2305
66.1752
77.7373
91.5288
108.231
128.608
153.523
183.958
221.032
266.031
320.432
385.936
464.51
558.423
670.3
803.173
960.542
1146.44
1365.5
1623.03
1925.05
2278.32
2690.28
3168.84
3721.83
4355.91
5074.26
5875.31
-950.037
1220.25
2403.96
2507.56
2352.23
2182.29
1998.13
1809.72
1634.69
1479.56
1343.51
1224.19
1119.33
1026.88
945.011
872.2
807.219
749.113
697.156
650.815
609.728
573.682
542.597
516.517
495.61
480.164
470.59
467.436
471.393
483.311
504.219
535.352
578.172
634.407
706.092
795.609
905.751
1039.78
1201.5
1395.35
1626.5
1901
2225.86
2609.24
3060.56
3590.58
4211.21
4934.71
5771.19
6725.93
-8376.39
-3786.94
-2284.62
-1717.38
-1281.71
-954.352
-727.686
-564.775
-442.501
-349.563
-278.611
-224.074
-181.912
-149.237
-123.906
-104.256
-88.9581
-76.9211
-67.2232
-59.0567
-51.6889
-44.4312
-36.6136
-27.5626
-16.5808
-2.92773
14.2002
35.6894
62.5313
95.846
136.909
187.18
248.34
322.328
411.387
518.12
645.551
797.199
977.167
1190.26
1442.1
1739.33
2089.8
2502.92
2989.99
3564.78
4244.17
5048.7
6002.04
7130.3
17061.3
8899.41
4867.02
3349.57
2516.58
1909.74
1488.53
1207.16
1010.54
863.728
749.114
656.941
580.821
516.438
460.941
412.444
369.681
331.8
298.242
268.672
242.925
220.978
202.93
188.995
179.496
174.867
175.664
182.569
196.41
218.175
249.036
290.377
343.823
411.282
494.989
597.559
722.054
872.063
1051.79
1266.2
1521.13
1823.54
2181.81
2606.11
3109.12
3707.05
4421.62
5283.59
6339.9
7672.68
-20732.2
-16117.1
-14546.6
-10588.9
-8622.32
-5204.74
-3103.34
-48.1416
2056.73
4865.51
6896.3
9539.91
11438.5
13986.2
15693.6
18216.9
19648.9
22232.7
23233.3
25867
-20758.4
-16156.3
-14595.8
-10640.1
-8680.48
-5261.46
-3165.81
-108.461
1991.99
4802.9
6830.2
9476.36
11372.3
13923.8
15630
18160.3
19595.1
22193.8
23208.2
25880.6
-20792.8
-16193.5
-14642.6
-10688.1
-8735.28
-5315.32
-3224.9
-165.81
1930.56
4743.62
6767.77
9416.67
11310.6
13866
15572.1
18108.5
19547
22156.3
23180.5
25870.2
-20831.6
-16231.3
-14688.3
-10734.1
-8787.68
-5366.72
-3281.35
-220.551
1871.85
4687.11
6708.27
9359.98
11252.1
13811.2
15517.3
18058.9
19500.3
22116.7
23145.9
25843.4
-20872.6
-16269.8
-14733.4
-10778.7
-8838.29
-5416.13
-3335.65
-273.092
1815.43
4632.9
6651.12
9305.59
11195.9
13758.4
15464.2
18010
19453
22074.1
23105.2
25807
-20914.5
-16308.6
-14778
-10822.3
-8887.53
-5463.96
-3388.22
-323.833
1760.84
4580.51
6595.78
9252.86
11141.2
13706.7
15411.8
17960.9
19404.2
22028.5
23059.6
25764.4
-20957
-16347.6
-14822.2
-10865.2
-8935.7
-5510.52
-3439.4
-373.133
1707.72
4529.53
6541.78
9201.29
11087.4
13655.6
15359.4
17911.2
19353.7
21980.4
23010.4
25717.6
-20999.4
-16386.4
-14865.9
-10907.4
-8983.01
-5556.07
-3489.48
-421.295
1655.74
4479.62
6488.77
9150.5
11034.2
13604.7
15306.9
17860.6
19301.8
21930.1
22958.4
25667.7
-21041.8
-16425.1
-14909.3
-10949.1
-9029.61
-5600.81
-3538.68
-468.571
1604.63
4430.49
6436.44
9100.2
10981.3
13553.7
15253.9
17809.3
19248.5
21878.2
22904.4
25615.6
-21084
-16463.5
-14952.4
-10990.3
-9075.62
-5644.89
-3587.2
-515.166
1554.18
4381.93
6384.59
9050.18
10928.5
13502.6
15200.4
17757.2
19194.2
21824.9
22848.7
25561.7
-21125.9
-16501.6
-14995.1
-11031
-9121.15
-5688.45
-3635.17
-561.242
1504.21
4333.75
6333.04
9000.28
10875.7
13451.2
15146.5
17704.5
19138.8
21770.4
22791.7
25506.4
-21167.6
-16539.4
-15037.4
-11071.4
-9166.28
-5731.59
-3682.72
-606.929
1454.6
4285.84
6281.68
8950.44
10822.8
13399.6
15092.1
17651.1
19082.7
21715
22733.7
25450.1
-21209
-16576.9
-15079.5
-11111.4
-9211.08
-5774.39
-3729.93
-652.328
1405.25
4238.1
6230.42
8900.56
10769.8
13347.7
15037.3
17597.1
19025.9
21658.9
22674.9
25393
-21250.1
-16614.1
-15121.3
-11151.2
-9255.6
-5816.93
-3776.9
-697.517
1356.09
4190.45
6179.2
8850.62
10716.7
13295.5
14982.1
17542.8
18968.6
21602.1
22615.3
25335.1
-21291.1
-16651.1
-15162.9
-11190.7
-9299.9
-5859.25
-3823.66
-742.558
1307.04
4142.85
6128
8800.58
10663.4
13243.1
14926.6
17488
18910.7
21544.8
22555.2
25276.7
-21331.8
-16687.9
-15204.3
-11230
-9344.02
-5901.41
-3870.28
-787.494
1258.08
4095.26
6076.77
8750.44
10609.9
13190.5
14870.8
17432.8
18852.5
21487
22494.7
25217.9
-21372.4
-16724.5
-15245.5
-11269.2
-9387.99
-5943.43
-3916.78
-832.361
1209.18
4047.66
6025.52
8700.19
10556.3
13137.6
14814.8
17377.4
18793.9
21428.9
22433.7
25158.6
-21412.8
-16760.9
-15286.6
-11308.2
-9431.83
-5985.36
-3963.19
-877.182
1160.31
4000.03
5974.23
8649.84
10502.6
13084.6
14758.6
17321.7
18735.1
21370.5
22372.5
25099
-21453
-16797.2
-15327.6
-11347.1
-9475.58
-6027.2
-4009.52
-921.974
1111.47
3952.37
5922.9
8599.38
10448.8
13031.4
14702.2
17265.8
18676
21311.9
22311
25039.2
-21493.2
-16833.3
-15368.5
-11385.9
-9519.24
-6068.99
-4055.8
-966.75
1062.65
3904.67
5871.55
8548.83
10394.9
12978.1
14645.6
17209.7
18616.8
21253
22249.2
24979.2
-21533.3
-16869.4
-15409.3
-11424.6
-9562.85
-6110.72
-4102.04
-1011.52
1013.85
3856.93
5820.16
8498.2
10340.9
12924.6
14588.9
17153.4
18557.3
21194
22187.3
24919
-21573.3
-16905.3
-15450
-11463.3
-9606.39
-6152.42
-4148.23
-1056.28
965.057
3809.16
5768.76
8447.5
10286.8
12871
14532.1
17097
18497.8
21134.8
22125.2
24858.7
-21613.3
-16941.2
-15490.7
-11501.9
-9649.89
-6194.09
-4194.39
-1101.05
916.281
3761.36
5717.34
8396.73
10232.7
12817.4
14475.3
17040.6
18438.1
21075.6
22063
24798.3
-21653.2
-16977
-15531.4
-11540.4
-9693.34
-6235.73
-4240.52
-1145.82
867.52
3713.52
5665.91
8345.9
10178.5
12763.6
14418.3
16984
18378.4
21016.2
22000.8
24737.8
-21693.1
-17012.8
-15572
-11578.9
-9736.76
-6277.35
-4286.61
-1190.59
818.777
3665.66
5614.48
8295.03
10124.4
12709.9
14361.4
16927.4
18318.6
20956.8
21938.4
24677.3
-21732.9
-17048.5
-15612.6
-11617.4
-9780.14
-6318.96
-4332.67
-1235.37
770.054
3617.77
5563.06
8244.12
10070.2
12656
14304.4
16870.7
18258.8
20897.4
21876.1
24616.7
-21772.8
-17084.1
-15653.2
-11655.8
-9823.49
-6360.54
-4378.7
-1280.15
721.358
3569.86
5511.66
8193.19
10016
12602.2
14247.4
16814
18199
20837.9
21813.7
24556.2
-21812.5
-17119.7
-15693.7
-11694.2
-9866.8
-6402.11
-4424.7
-1324.92
672.694
3521.94
5460.28
8142.24
9961.91
12548.3
14190.4
16757.3
18139.2
20778.4
21751.3
24495.7
-21852.3
-17155.3
-15734.2
-11732.6
-9910.07
-6443.66
-4470.65
-1369.7
624.072
3474.02
5408.95
8091.28
9907.8
12494.4
14133.5
16700.6
18079.4
20719
21688.9
24435.2
-21892
-17190.8
-15774.7
-11770.9
-9953.31
-6485.19
-4516.56
-1414.46
575.499
3426.11
5357.66
8040.33
9853.73
12440.6
14076.6
16643.9
18019.6
20659.6
21626.6
24374.7
-21931.7
-17226.2
-15815.1
-11809.2
-9996.5
-6526.68
-4562.42
-1459.19
526.986
3378.22
5306.43
7989.39
9799.73
12386.7
14019.7
16587.3
17959.9
20600.2
21564.3
24314.3
-21971.4
-17261.7
-15855.5
-11847.4
-10039.6
-6568.15
-4608.21
-1503.9
478.541
3330.34
5255.27
7938.48
9745.79
12332.9
13962.9
16530.7
17900.2
20540.9
21502.1
24254
-22011.1
-17297
-15895.9
-11885.6
-10082.7
-6609.57
-4653.94
-1548.58
430.172
3282.5
5204.2
7887.6
9691.93
12279.1
13906.2
16474.1
17840.7
20481.7
21439.9
24193.8
-22050.7
-17332.3
-15936.2
-11923.8
-10125.8
-6650.95
-4699.58
-1593.22
381.888
3234.69
5153.21
7836.76
9638.16
12225.4
13849.6
16417.7
17781.2
20422.6
21377.8
24133.6
-22090.3
-17367.5
-15976.4
-11961.9
-10168.7
-6692.28
-4745.15
-1637.81
333.698
3186.94
5102.31
7785.97
9584.49
12171.7
13793.1
16361.3
17721.8
20363.5
21315.9
24073.6
-22129.8
-17402.7
-16016.6
-11999.9
-10211.6
-6733.55
-4790.62
-1682.35
285.608
3139.23
5051.53
7735.24
9530.93
12118.2
13736.7
16304.9
17662.5
20304.6
21254
24013.7
-22169.3
-17437.8
-16056.8
-12037.8
-10254.4
-6774.76
-4835.99
-1726.83
237.629
3091.58
5000.86
7684.58
9477.5
12064.6
13680.4
16248.7
17603.3
20245.7
21192.2
23954
-22208.7
-17472.8
-16096.8
-12075.7
-10297.1
-6815.9
-4881.26
-1771.25
189.767
3044.01
4950.32
7634
9424.19
12011.2
13624.2
16192.6
17544.3
20187
21130.6
23894.3
-22248
-17507.7
-16136.8
-12113.5
-10339.7
-6856.97
-4926.42
-1815.59
142.034
2996.51
4899.92
7583.5
9371.03
11957.9
13568.2
16136.6
17485.4
20128.5
21069.1
23834.9
-22287.3
-17542.6
-16176.8
-12151.3
-10382.2
-6897.96
-4971.45
-1859.85
94.4369
2949.09
4849.67
7533.1
9318.01
11904.7
13512.3
16080.8
17426.7
20070.1
21007.8
23775.6
-22326.5
-17577.3
-16216.6
-12188.9
-10424.6
-6938.86
-5016.36
-1904.03
46.9864
2901.76
4799.57
7482.79
9265.16
11851.6
13456.6
16025
17368.1
20011.8
20946.6
23716.5
-22365.6
-17611.9
-16256.3
-12226.4
-10466.9
-6979.67
-5061.12
-1948.11
-0.308439
2854.54
4749.63
7432.6
9212.48
11798.7
13401.1
15969.5
17309.7
19953.7
20885.6
23657.6
-22404.7
-17646.5
-16296
-12263.9
-10509
-7020.38
-5105.74
-1992.09
-47.4385
2807.42
4699.88
7382.53
9159.99
11745.8
13345.8
15914
17251.5
19895.8
20824.8
23598.8
-22443.6
-17680.9
-16335.5
-12301.2
-10551
-7060.98
-5150.19
-2035.96
-94.3947
2760.42
4650.3
7332.59
9107.68
11693.1
13290.6
15858.8
17193.4
19838.1
20764.2
23540.3
-22482.5
-17715.2
-16374.9
-12338.4
-10592.9
-7101.46
-5194.49
-2079.72
-141.168
2713.54
4600.92
7282.77
9055.57
11640.6
13235.7
15803.7
17135.6
19780.6
20703.7
23482
-22521.2
-17749.3
-16414.2
-12375.5
-10634.6
-7141.82
-5238.6
-2123.35
-187.751
2666.79
4551.74
7233.1
9003.66
11588.2
13180.9
15748.8
17078
19723.3
20643.5
23423.9
-22559.8
-17783.4
-16453.3
-12412.4
-10676.2
-7182.06
-5282.54
-2166.85
-234.135
2620.17
4502.77
7183.58
8951.98
11536
13126.4
15694
17020.6
19666.1
20583.5
23366.1
-22598.3
-17817.2
-16492.3
-12449.2
-10717.6
-7222.16
-5326.29
-2210.22
-280.312
2573.7
4454.02
7134.22
8900.52
11484
13072.1
15639.5
16963.4
19609.2
20523.7
23308.5
-22636.6
-17851
-16531.2
-12485.9
-10758.8
-7262.12
-5369.84
-2253.45
-326.274
2527.38
4405.5
7085.01
8849.29
11432.1
13018
15585.2
16906.5
19552.6
20464.1
23251.1
-22674.9
-17884.6
-16569.9
-12522.4
-10799.9
-7301.94
-5413.19
-2296.53
-372.013
2481.2
4357.22
7035.98
8798.31
11380.5
12964.2
15531.1
16849.8
19496.2
20404.8
23194
-22712.9
-17918
-16608.5
-12558.8
-10840.7
-7341.61
-5456.32
-2339.47
-417.523
2435.19
4309.18
6987.12
8747.58
11329
12910.6
15477.2
16793.3
19440
20345.8
23137.2
-22750.9
-17951.2
-16646.9
-12595
-10881.4
-7381.12
-5499.24
-2382.24
-462.794
2389.35
4261.39
6938.44
8697.1
11277.8
12857.3
15423.6
16737.2
19384.1
20287
23080.7
-22788.6
-17984.3
-16685.1
-12631
-10921.8
-7420.47
-5541.92
-2424.85
-507.817
2343.68
4213.86
6889.96
8646.9
11226.7
12804.3
15370.2
16681.3
19328.4
20228.5
23024.4
-22826.2
-18017.2
-16723.1
-12666.9
-10962.1
-7459.65
-5584.37
-2467.29
-552.582
2298.19
4166.6
6841.67
8596.98
11175.9
12751.6
15317
16625.6
19273.1
20170.2
22968.5
-22863.7
-18049.9
-16760.9
-12702.6
-11002.1
-7498.65
-5626.58
-2509.54
-597.08
2252.89
4119.62
6793.59
8547.33
11125.3
12699.1
15264.1
16570.3
19218
20112.2
22912.8
-22900.9
-18082.4
-16798.6
-12738.1
-11041.9
-7537.47
-5668.52
-2551.61
-641.302
2207.79
4072.93
6745.72
8497.99
11074.9
12646.9
15211.4
16515.2
19163.2
20054.6
22857.4
-22938
-18114.7
-16836
-12773.4
-11081.4
-7576.09
-5710.2
-2593.49
-685.239
2162.89
4026.54
6698.07
8448.94
11024.8
12595.1
15159
16460.5
19108.6
19997.2
22802.4
-22974.8
-18146.8
-16873.2
-12808.5
-11120.7
-7614.52
-5751.6
-2635.16
-728.883
2118.2
3980.45
6650.65
8400.21
10974.9
12543.5
15106.9
16406.1
19054.4
19940.1
22747.7
-23011.5
-18178.7
-16910.2
-12843.3
-11159.8
-7652.74
-5792.73
-2676.64
-772.227
2073.72
3934.67
6603.45
8351.79
10925.3
12492.3
15055.1
16352
19000.5
19883.4
22693.3
-23047.9
-18210.3
-16946.9
-12878
-11198.6
-7690.76
-5833.56
-2717.9
-815.263
2029.46
3889.21
6556.5
8303.7
10875.9
12441.4
15003.5
16298.2
18946.9
19826.9
22639.3
-23084.2
-18241.7
-16983.5
-12912.5
-11237.1
-7728.56
-5874.1
-2758.95
-857.983
1985.43
3844.08
6509.78
8255.94
10826.8
12390.8
14952.3
16244.7
18893.7
19770.9
22585.6
-23120.2
-18272.9
-17019.7
-12946.7
-11275.3
-7766.14
-5914.34
-2799.77
-900.378
1941.63
3799.29
6463.33
8208.53
10778
12340.6
14901.3
16191.6
18840.8
19715.1
22532.3
-23156
-18303.9
-17055.8
-12980.7
-11313.3
-7803.5
-5954.26
-2840.37
-942.439
1898.07
3754.85
6417.13
8161.48
10729.5
12290.7
14850.7
16138.9
18788.2
19659.7
22479.4
-23191.5
-18334.6
-17091.5
-13014.5
-11351
-7840.63
-5993.86
-2880.73
-984.156
1854.76
3710.77
6371.2
8114.79
10681.3
12241.2
14800.4
16086.5
18736
19604.7
22426.8
-23226.8
-18365
-17127.1
-13048
-11388.3
-7877.52
-6033.13
-2920.85
-1025.52
1811.71
3667.05
6325.55
8068.47
10633.4
12192.1
14750.5
16034.5
18684.1
19550.1
22374.6
-23261.9
-18395.2
-17162.3
-13081.3
-11425.4
-7914.18
-6072.06
-2960.73
-1066.53
1768.91
3623.71
6280.18
8022.53
10585.7
12143.4
14700.9
15982.9
18632.7
19495.8
22322.9
-23296.7
-18425.2
-17197.3
-13114.3
-11462.1
-7950.58
-6110.64
-3000.35
-1107.16
1726.38
3580.74
6235.09
7976.98
10538.4
12095
14651.6
15931.7
18581.6
19441.9
22271.5
-23331.2
-18454.8
-17231.9
-13147.1
-11498.5
-7986.73
-6148.87
-3039.72
-1147.42
1684.13
3538.17
6190.31
7931.83
10491.5
12047.1
14602.7
15880.8
18530.9
19388.4
22220.6
-23365.5
-18484.2
-17266.3
-13179.6
-11534.6
-8022.62
-6186.74
-3078.82
-1187.3
1642.15
3496
6145.82
7887.08
10444.8
11999.5
14554.1
15830.4
18480.6
19335.3
22170.1
-23399.5
-18513.3
-17300.4
-13211.8
-11570.4
-8058.25
-6224.23
-3117.65
-1226.78
1600.45
3454.23
6101.64
7842.75
10398.5
11952.4
14505.9
15780.4
18430.7
19282.7
22120
-23433.2
-18542.1
-17334.2
-13243.8
-11605.8
-8093.61
-6261.35
-3156.21
-1265.86
1559.04
3412.88
6057.77
7798.83
10352.5
11905.7
14458.1
15730.8
18381.2
19230.4
22070.3
-23466.6
-18570.6
-17367.6
-13275.5
-11640.8
-8128.69
-6298.08
-3194.49
-1304.53
1517.93
3371.95
6014.23
7755.35
10306.9
11859.4
14410.7
15681.7
18332.1
19178.6
22021.1
-23499.8
-18598.9
-17400.7
-13306.9
-11675.5
-8163.5
-6334.4
-3232.49
-1342.78
1477.12
3331.45
5971.02
7712.31
10261.7
11813.6
14363.7
15633
18283.5
19127.3
21972.4
-23532.6
-18626.8
-17433.5
-13338
-11709.8
-8198.01
-6370.32
-3270.19
-1380.59
1436.63
3291.4
5928.14
7669.71
10216.8
11768.2
14317.1
15584.7
18235.3
19076.3
21924.1
-23565.1
-18654.4
-17466
-13368.8
-11743.7
-8232.23
-6405.83
-3307.59
-1417.98
1396.45
3251.8
5885.6
7627.58
10172.3
11723.3
14270.8
15536.9
18187.5
19025.9
21876.3
-23597.2
-18681.6
-17498.1
-13399.3
-11777.2
-8266.15
-6440.9
-3344.68
-1454.91
1356.59
3212.66
5843.42
7585.91
10128.2
11678.9
14225.1
15489.6
18140.2
18975.9
21829
-23629.1
-18708.6
-17529.8
-13429.5
-11810.3
-8299.77
-6475.54
-3381.46
-1491.38
1317.07
3173.99
5801.6
7544.71
10084.4
11634.9
14179.7
15442.8
18093.4
18926.3
21782.2
-23660.6
-18735.2
-17561.2
-13459.3
-11843
-8333.07
-6509.74
-3417.93
-1527.39
1277.88
3135.8
5760.14
7504
10041.1
11591.4
14134.8
15396.4
18047
18877.3
21735.9
-23691.7
-18761.4
-17592.2
-13488.9
-11875.3
-8366.06
-6543.48
-3454.07
-1562.93
1239.04
3098.09
5719.05
7463.78
9998.18
11548.4
14090.3
15350.5
18001.1
18828.7
21690
-23722.5
-18787.3
-17622.8
-13518.1
-11907.1
-8398.73
-6576.77
-3489.88
-1597.98
1200.54
3060.88
5678.33
7424.05
9955.66
11505.9
14046.2
15305.1
17955.7
18780.7
21644.7
-23753
-18812.9
-17653
-13547
-11938.6
-8431.08
-6609.58
-3525.36
-1632.55
1162.39
3024.16
5638
7384.83
9913.55
11463.9
14002.6
15260.3
17910.8
18733.1
21599.9
-23783.1
-18838.1
-17682.8
-13575.5
-11969.5
-8463.1
-6641.92
-3560.51