/*--------------------------------*- C++ -*----------------------------------*\
  =========                 |
  \\      /  F ield         | OpenFOAM: The Open Source CFD Toolbox
   \\    /   O peration     | Website:  https://openfoam.org
    \\  /    A nd           | Version:  8
     \\/     M anipulation  |
\*---------------------------------------------------------------------------*/
FoamFile
{
    version     2.0;
    format      ascii;
    class       volScalarField;
    location    "300";
    object      p_rgh;
}
// * * * * * * * * * * * * * * * * * * * * * * * * * * * * * * * * * * * * * //

dimensions      [1 -1 -2 0 0 0 0];

internalField   nonuniform List<scalar> 
8400
(
1.01146
19.7317
35.5347
50.8214
65.8887
80.9607
96.179
111.659
127.503
143.809
160.682
178.236
196.598
215.907
236.326
258.04
281.259
306.23
333.232
362.598
394.709
430
468.981
512.281
560.651
614.839
675.536
743.697
820.572
907.556
1006.25
1118.49
1246.4
1392.45
1559.48
1750.79
1970.22
2222.23
2512.03
2845.75
3230.54
3674.91
4189.47
4788.09
5487.13
6300.67
7243.81
8377.08
9866.47
11805.9
-8.76518
4.8807
18.4938
32.561
46.7109
60.9497
75.3439
89.9721
104.919
120.275
136.131
152.595
169.78
187.816
206.855
227.067
248.651
271.833
296.871
324.074
353.806
386.47
422.517
462.478
506.962
556.685
612.551
675.534
746.696
827.311
918.861
1023.06
1141.9
1277.66
1432.99
1610.91
1814.94
2049.12
2318.12
2627.32
2982.88
3391.89
3862.82
4406.09
5032.91
5751.63
6569.4
7517.04
8677.54
10101.5
22.5176
40.5115
56.534
71.7426
86.8637
102.12
117.622
133.453
149.693
166.429
183.756
201.779
220.618
240.407
261.303
283.484
307.156
332.551
359.934
389.628
422.009
457.489
496.489
539.498
587.117
640.064
699.23
765.597
840.262
924.498
1019.78
1127.81
1250.57
1390.31
1549.67
1731.65
1939.73
2177.89
2450.74
2763.51
3122.18
3533.53
4005.4
4546.79
5166.81
5872.48
6669.61
7573.07
8613.36
9785.72
-14.4071
-10.175
-0.310479
11.6499
24.3435
37.3811
50.6655
64.2001
78.0237
92.1963
106.789
121.882
137.57
153.961
171.181
189.382
208.729
229.405
251.634
275.663
301.799
330.431
362.016
397.027
435.965
479.459
528.238
583.133
645.109
715.289
794.968
885.646
989.057
1107.2
1242.37
1397.23
1574.8
1778.57
2012.54
2281.23
2589.76
2943.89
3350.16
3815.81
4348.07
4953.05
5636.21
6406.63
7279.03
8249.78
37.743
59.2464
76.148
91.1731
105.881
120.695
135.759
151.143
166.908
183.114
199.834
217.15
235.152
253.952
273.675
294.472
316.511
339.966
365.039
391.968
420.998
452.444
486.706
524.241
565.554
611.232
661.948
718.47
781.68
852.597
932.39
1022.41
1124.2
1239.55
1370.47
1519.29
1688.64
1881.51
2101.23
2351.56
2636.57
2960.74
3328.84
3745.78
4216.06
4742.86
5327.73
5972.66
6683.88
7460.03
-22.7387
-22.4028
-14.3716
-3.52016
8.29606
20.5387
33.0535
45.8112
58.83
72.1431
85.8037
99.8702
114.412
129.514
145.271
161.798
179.24
197.769
217.572
238.853
261.848
286.811
314.056
343.952
376.923
413.461
454.138
499.613
550.646
608.117
673.04
746.587
830.106
925.147
1033.49
1157.16
1298.47
1460.03
1644.78
1855.96
2097.14
2372.14
2684.95
3039.55
3439.5
3887.11
4382.55
4924.85
5516.07
6156.84
45.0088
68.7913
85.9674
100.462
114.35
128.202
142.201
156.419
170.898
185.675
200.793
216.302
232.262
248.736
265.796
283.524
302.016
321.398
341.823
363.461
386.504
411.171
437.715
466.434
497.666
531.801
569.291
610.657
656.496
707.499
764.461
828.296
900.054
980.941
1072.33
1175.8
1293.12
1426.3
1577.56
1749.39
1944.47
2165.62
2415.78
2697.82
3014.32
3366.85
3755.18
4177.93
4636.67
5133.84
-27.2545
-28.7619
-21.6011
-11.2976
0.0395444
11.8042
23.8203
36.0432
48.4749
61.1373
74.059
87.2815
100.854
114.832
129.28
144.268
159.874
176.189
193.327
211.412
230.59
251.032
272.931
296.513
322.041
349.819
380.194
413.568
450.403
491.234
536.678
587.439
644.329
708.276
780.344
861.74
953.826
1058.13
1176.37
1310.39
1462.21
1633.94
1827.7
2045.57
2289.35
2560.1
2857.46
3180.26
3529.91
3909.66
47.2358
71.397
88.0861
101.732
114.589
127.278
139.989
152.782
165.675
178.684
191.816
205.089
218.524
232.148
245.997
260.11
274.53
289.311
304.518
320.226
336.519
353.497
371.275
389.987
409.79
430.868
453.432
477.725
504.034
532.69
564.074
598.628
636.866
679.375
726.836
780.028
839.835
907.262
983.438
1069.61
1167.15
1277.52
1402.24
1542.81
1700.68
1876.83
2071.38
2284.04
2516.61
2773
-28.3839
-30.6074
-23.9782
-14.1653
-3.33635
7.88045
19.2936
30.8464
42.5213
54.3182
66.2405
78.2941
90.4895
102.844
115.373
128.094
141.033
154.214
167.669
181.433
195.548
210.058
225.016
240.48
256.519
273.212
290.647
308.924
328.165
348.501
370.085
393.097
417.743
444.259
472.924
504.059
538.035
575.285
616.307
661.678
712.056
768.192
830.926
901.203
980.053
1068.44
1167.05
1276.64
1399.69
1540.78
46.2283
69.7278
85.6337
98.4516
110.416
122.133
133.776
145.384
156.962
168.496
179.971
191.376
202.694
213.914
225.02
235.995
246.823
257.486
267.964
278.234
288.272
298.05
307.534
316.693
325.488
333.875
341.806
349.228
356.082
362.303
367.819
372.555
376.427
379.344
381.218
381.956
381.47
379.686
376.553
372.052
366.228
359.212
351.277
342.889
334.777
327.962
323.799
324.264
332.805
354.686
-27.2347
-29.608
-23.4867
-14.341
-4.27068
6.10172
16.5712
27.0601
37.5306
47.9549
58.3079
68.5672
78.7063
88.6968
98.5103
108.11
117.457
126.508
135.21
143.502
151.313
158.56
165.147
170.967
175.889
179.763
182.419
183.655
183.239
180.906
176.349
169.216
159.105
145.559
128.06
106.035
78.8383
45.7732
6.09693
-40.9602
-96.1617
-160.201
-233.614
-316.654
-409.146
-510.293
-618.385
-730.479
-842.042
-945.852
42.7869
64.9811
80.0479
92.252
103.649
114.778
125.78
136.672
147.432
158.028
168.421
178.571
188.431
197.948
207.065
215.716
223.824
231.305
238.059
243.971
248.909
252.719
255.225
256.227
255.488
252.738
247.664
239.909
229.058
214.638
196.104
172.831
144.107
109.122
66.959
16.5938
-43.1192
-113.446
-195.747
-291.465
-402.079
-529.017
-673.533
-836.515
-1018.27
-1218.22
-1434.34
-1662.5
-1896.19
-2126.26
-23.747
-25.6723
-19.9359
-11.5106
-2.30881
7.07846
16.4354
25.6658
34.707
43.5081
52.0158
60.1741
67.9242
75.1955
81.9098
87.98
93.3046
97.7663
101.231
103.544
104.526
103.971
101.641
97.2611
90.5133
81.0314
68.3914
52.1047
31.6087
6.25608
-24.7012
-62.1246
-107
-160.456
-223.786
-298.455
-386.123
-488.658
-608.125
-746.791
-907.085
-1091.54
-1302.63
-1542.58
-1813.01
-2114.67
-2446.63
-2805.08
-3182.14
-3563.71
35.9525
56.0376
70.0875
81.7857
92.8133
103.587
114.194
124.628
134.847
144.804
154.442
163.698
172.5
180.768
188.408
195.314
201.362
206.41
210.292
212.816
213.757
212.86
209.828
204.312
195.909
184.154
168.506
148.341
122.932
91.4407
52.897
6.17637
-50.0186
-117.18
-197.024
-291.518
-402.911
-533.75
-686.897
-865.532
-1073.13
-1313.41
-1590.17
-1906.94
-2266.52
-2670.74
-3119.72
-3609.7
-4129.54
-4658.86
-17.1727
-17.3514
-11.296
-3.13778
5.56042
14.2853
22.8374
31.1131
39.0366
46.5376
53.5438
59.9746
65.7378
70.728
74.8263
77.8969
79.7821
80.2998
79.242
76.3686
71.4004
64.0168
53.8487
40.4681
23.3814
2.01773
-24.2826
-56.279
-94.8497
-141.011
-195.934
-260.973
-337.686
-427.871
-533.597
-657.24
-801.525
-969.559
-1164.87
-1391.43
-1653.68
-1956.52
-2305.26
-2705.21
-3161.2
-3677.59
-4258.79
-4906.94
-5613.19
-6346.63
23.1572
40.7103
53.595
64.8363
75.5208
85.9149
96.0647
105.949
115.522
124.724
133.489
141.744
149.398
156.346
162.47
167.63
171.668
174.397
175.602
175.033
172.401
167.369
159.545
148.481
133.653
114.449
90.1626
59.9775
22.9448
-22.0394
-76.2552
-141.188
-218.563
-310.38
-418.968
-547.032
-697.711
-874.653
-1082.09
-1324.9
-1608.74
-1940.13
-2326.59
-2776.35
-3297.63
-3898.82
-4590.78
-5385.19
-6275.54
-7211.38
-9.37185
-4.70046
3.27019
12.2192
21.221
30.0051
38.4578
46.5104
54.0976
61.1473
67.5783
73.2964
78.1924
82.1397
84.9908
86.5764
86.7037
85.1471
81.6436
75.8928
67.548
56.2051
41.3973
22.5868
-0.851081
-29.6414
-64.6231
-106.768
-157.202
-217.235
-288.39
-372.429
-471.408
-587.724
-724.163
-883.981
-1070.98
-1289.62
-1545.11
-1843.54
-2192.04
-2598.98
-3074.34
-3629.57
-4276.44
-5026.28
-5894.48
-6906.23
-8074.52
-9335.54
1.33757
20.5575
32.8811
43.8253
54.1019
63.9656
73.4629
82.5791
91.2721
99.4817
107.134
114.144
120.408
125.804
130.193
133.412
135.273
135.557
134.009
130.336
124.2
115.206
102.897
86.7442
66.1352
40.3597
8.59171
-30.125
-76.8951
-133.004
-199.947
-279.46
-373.56
-484.598
-615.315
-768.908
-949.121
-1160.35
-1407.76
-1697.44
-2036.55
-2433.66
-2899.36
-3446.69
-4089.65
-4840.96
-5719.96
-6780.33
-8107.75
-9677.01
-1.3042
8.63686
18.6221
28.5738
38.2267
47.5256
56.4354
64.9163
72.9158
80.3686
87.1963
93.3046
98.5813
102.896
106.099
108.016
108.442
107.141
103.843
98.2316
89.9416
78.5512
63.5706
44.4313
20.4758
-9.05795
-45.0559
-88.5487
-140.73
-202.983
-276.926
-364.444
-467.733
-589.366
-732.352
-900.239
-1097.21
-1328.24
-1599.26
-1917.42
-2291.34
-2731.68
-3252.28
-3871.4
-4610.87
-5493.32
-6554.21
-7897.24
-9731.03
-12100
28844
20681.9
16648.9
15130.5
14296.1
13687.3
13263.6
12979.3
12779.1
12628
12508.3
12410.1
12326.9
12254.2
12188.9
12128.8
12072.6
12018.9
11966.9
11915.7
11864.6
11813.1
11760.5
11706.2
11649.4
11589.6
11525.9
11457.5
11383.3
11302.1
11212.7
11113.6
11002.9
10878.7
10738.5
10579.4
10397.9
10190.1
9951.06
9674.89
9354.43
8981.07
8544.15
8030.16
7421.61
6695.04
5817.51
4739.75
3381.36
1605.67
3309.07
7898.28
9400
9966.27
10400.6
10726.2
10950.6
11110.7
11229.5
11318.3
11384.4
11433.1
11468.4
11493
11508.9
11517.4
11519.7
11516.5
11508.3
11495.6
11478.5
11457.2
11431.6
11401.6
11366.9
11327.1
11281.8
11230.3
11171.9
11105.4
11029.7
10943.3
10844.6
10731.5
10601.9
10452.9
10281.3
10083.3
9854.17
9588.55
9279.74
8919.58
8498.08
8002.92
7418.64
6725.69
5899.11
4907.39
3713.01
2282.09
10638.5
12808.6
13991.7
14094.4
13937.7
13766.1
13579.8
13388.6
13210.2
13051.1
12910.3
12785.4
12673.9
12573.6
12482.6
12399.1
12321.6
12248.7
12179.6
12113.1
12048.5
11984.9
11921.6
11858
11793.1
11726.3
11656.8
11583.7
11506.1
11422.8
11332.7
11234.2
11125.6
11004.8
10869.5
10717.1
10544.5
10348
10123.1
9864.75
9566.88
9222.23
8822.12
8356.17
7811.98
7174.87
6427.81
5552.25
4530.99
3355.73
10987.2
11396.2
11587.7
11516.1
11413.9
11370.5
11358.9
11356.6
11360.9
11370.8
11383.4
11396.1
11407.5
11416.7
11423.1
11426.5
11426.6
11423.5
11417
11407.2
11393.9
11377
11356.5
11332
11303.4
11270.1
11231.7
11187.5
11136.9
11079.2
11013.4
10938.2
10852.3
10754
10641.3
10512
10363
10191.4
9993.11
9763.79
9498.23
9190.3
8832.93
8417.94
7936.12
7377.44
6731.72
5990.26
5149.19
4215.34
11526.2
11775.3
12091.9
12323.6
12463.5
12552.8
12605.1
12624
12617.7
12594.7
12560.9
12520
12474.4
12425.9
12375.6
12324.3
12272.5
12220.4
12168
12115.4
12062.4
12008.7
11954.2
11898.6
11841.4
11782.2
11720.4
11655.3
11586.2
11512.1
11432.1
11345
11249.5
11144.2
11027
10896.1
10748.8
10582.4
10393.6
10178.6
9933.05
9651.97
9329.8
8960.39
8537.23
8053.82
7504.56
6886.1
6199.79
5454.44
11729.9
11815.5
11923.7
11985.7
11988.4
11960.2
11921.8
11879.6
11836.4
11795.2
11757.2
11722.8
11691.5
11662.9
11636.3
11611.2
11587
11563.2
11539.5
11515.5
11490.6
11464.6
11437.2
11407.8
11376.2
11341.9
11304.5
11263.5
11218.3
11168.1
11112.1
11049.4
10978.9
10899.3
10809.2
10706.7
10589.9
10456.5
10303.9
10129
9928.44
9698.46
9434.96
9133.66
8790.33
8401.25
7963.98
7478.45
6948.68
6384.22
11843.1
11887.4
11959.2
12031.4
12086.7
12127.6
12159.2
12182.2
12196.3
12202.1
12200.9
12193.7
12181.2
12164.3
12143.5
12119.4
12092.5
12063.2
12031.7
11998.3
11963
11926
11887.2
11846.5
11803.8
11758.9
11711.5
11661.4
11608
11550.9
11489.5
11423
11350.6
11271.3
11184
11087.2
10979.5
10859.1
10724
10571.9
10400.3
10206.5
9987.58
9740.82
9463.59
9153.95
8811.17
8436.47
8034.01
7611.12
11901.6
11923.8
11961.6
12001.5
12029.7
12042.6
12042.7
12032.8
12014.8
11990.7
11962.5
11931.9
11899.9
11867.3
11834.6
11802.2
11770.1
11738.5
11707.3
11676.3
11645.5
11614.6
11583.5
11551.9
11519.6
11486.2
11451.6
11415.2
11376.7
11335.7
11291.6
11244
11192
11135.1
11072.2
11002.6
10925
10838.2
10740.8
10631.2
10507.9
10369.1
10213.1
10038.1
9842.98
9626.97
9390.42
9135.14
8865.09
8586.42
11933
11946.6
11971.7
12002.3
12029.8
12050.1
12063.3
12070.4
12072.3
12069.4
12062.6
12052.4
12039.2
12023.6
12005.8
11986.1
11964.7
11941.7
11917.4
11891.9
11865.1
11837.3
11808.3
11778.3
11747.2
11714.9
11681.3
11646.4
11609.9
11571.7
11531.6
11489.2
11444.2
11396.1
11344.6
11289.1
11229
11163.6
11092
11013.6
10927.4
10832.6
10728.3
10613.9
10489
10353.6
10208.5
10055.4
9897.15
9737.7
11947.1
11957.2
11976.4
12000.9
12023.9
12040.6
12049.8
12052
12047.9
12038.2
12023.8
12005.9
11985.2
11962.5
11938.2
11913
11887
11860.6
11834
11807.1
11780.2
11753.2
11726.2
11699.2
11672.1
11644.9
11617.6
11590
11562.2
11534
11505.3
11476.1
11446.2
11415.5
11383.8
11351
11317
11281.5
11244.4
11205.6
11164.8
11122
11077.2
11030.6
10982.4
10933.2
10884
10836.2
10791.9
10753.5
11948.3
11958.4
11977.6
12002.3
12025.3
12042.1
12051.6
12054
12050.2
12040.8
12026.9
12009.5
11989.4
11967.3
11943.9
11919.6
11894.8
11869.8
11844.7
11819.7
11794.9
11770.4
11746.3
11722.6
11699.4
11676.8
11654.7
11633.3
11612.6
11592.7
11573.7
11555.8
11538.9
11523.5
11509.5
11497.3
11487.2
11479.5
11474.6
11473
11475.3
11482
11494
11512
11537
11569.9
11611.8
11663.5
11726.1
11800.2
11936.5
11950.2
11975.4
12006.3
12034.1
12054.8
12068.6
12076.4
12079.1
12077.2
12071.5
12062.7
12051.2
12037.4
12021.8
12004.7
11986.4
11967
11946.9
11926.3
11905.3
11884.2
11863.1
11842.4
11822.1
11802.4
11783.7
11766.2
11750
11735.6
11723.3
11713.3
11706.2
11702.5
11702.7
11707.4
11717.5
11733.8
11757.2
11788.9
11830.1
11882.1
11946.6
12024.9
12118.5
12228.9
12357.1
12503.7
12668.4
12850.5
11907.3
11929.6
11967.7
12008
12036.7
12050.4
12051.4
12042.6
12025.9
12003.5
11977.4
11949.1
11919.8
11890.5
11861.7
11833.7
11807
11781.5
11757.5
11735
11714.1
11694.8
11677.1
11661.3
11647.2
11635.3
11625.5
11618.2
11613.7
11612.2
11614.4
11620.6
11631.5
11647.8
11670.4
11700.2
11738.5
11786.4
11845.7
11917.9
12004.9
12108.9
12232
12376.6
12544.7
12738.4
12959
13206.8
13480.8
13779.1
11850.9
11895.5
11967.5
12040.2
12096.3
12138.2
12171.1
12195.6
12211.5
12219.5
12220.9
12216.7
12207.9
12195.3
12179.6
12161.5
12141.6
12120.4
12098.5
12076.2
12053.9
12032.2
12011.2
11991.4
11973.2
11956.9
11943.1
11932.1
11924.6
11921
11922.2
11928.8
11941.8
11962.2
11991.2
12030.2
12080.8
12144.7
12224
12321.1
12438.5
12579.1
12745.9
12942
13170.4
13433.8
13734
14071.4
14444.3
14848.5
11739.7
11825.5
11934
11996.7
12000.3
11973.4
11936.6
11896.2
11855.4
11817
11782.4
11751.9
11725.3
11702.2
11682
11664.5
11649.1
11635.7
11624.2
11614.2
11605.9
11599.4
11594.5
11591.7
11591.1
11593
11597.9
11606.1
11618.4
11635.2
11657.6
11686.2
11722.4
11767.2
11822.2
11889
11969.7
12066.4
12181.8
12318.7
12480.4
12670.7
12893.3
13152.6
13452.8
13797.6
14190.1
14631.6
15120.7
15653.2
11537.6
11786.9
12104
12336.5
12477.5
12568.2
12622.3
12643.4
12639.7
12620
12590
12553.7
12513.4
12471.2
12428.4
12385.9
12344.3
12304.2
12265.9
12229.8
12196
12164.9
12136.7
12111.8
12090.4
12073
12060
12052
12049.6
12053.6
12064.8
12084.5
12113.7
12153.9
12206.8
12274.4
12358.9
12463
12589.6
12742.4
12925.1
13142.3
13398.9
13700.3
14052
14459.5
14927.7
15459.4
16053.7
16705.3
11000
11409.3
11601.3
11530.5
11429.5
11387.7
11378.1
11378.4
11385.7
11399.2
11416.2
11434.1
11451.5
11467.8
11482.6
11495.8
11507.4
11517.7
11527
11535.6
11543.8
11552.1
11561
11571
11582.6
11596.4
11613.1
11633.5
11658.4
11688.8
11725.9
11770.9
11825.3
11890.9
11969.4
12063.4
12175.2
12308.1
12465.5
12651.4
12870.5
13128
13430
13783.3
14195.2
14673.8
15226.8
15860.9
16579.2
17380.2
10652.4
12822.7
14006.4
14110
13954.7
13784.7
13600.6
13412.1
13237.1
13082
12945.9
12826.6
12721.7
12629.3
12547.4
12474.6
12409.6
12351.5
12299.5
12253.2
12212.1
12176.1
12145
12118.9
12098
12082.6
12073
12069.9
12073.8
12085.8
12106.7
12137.8
12180.7
12236.9
12308.6
12398.1
12508.3
12642.3
12804
12997.9
13229
13503.5
13828.4
14211.8
14663.1
15193.1
15813.7
16537.2
17373.7
18328.5
3323.64
7913.11
9415.42
9982.66
10418.3
10745.7
10972.3
11135.2
11257.5
11350.4
11421.4
11475.9
11518.1
11550.7
11576.1
11595.7
11611
11623
11632.7
11640.9
11648.3
11655.5
11663.4
11672.4
11683.4
11697.1
11714.2
11735.7
11762.6
11795.9
11837
11887.3
11948.4
12022.4
12111.5
12218.2
12345.7
12497.3
12677.3
12890.4
13142.3
13439.5
13790
14203.1
14690.1
15264.9
15944.3
16748.9
17702.2
18830.5
28858.9
20697
16664.6
15147.2
14314.2
13707.4
13286.2
13004.8
12808.2
12661.3
12546.7
12454.6
12378.4
12314.1
12258.6
12210.1
12167.3
12129.4
12095.9
12066.3
12040.6
12018.7
12000.6
11986.7
11977.2
11972.6
11973.4
11980.4
11994.2
12016
12046.9
12088.2
12141.7
12209.2
12292.9
12395.5
12520
12670
12849.7
13064.1
13319.1
13621.5
13979.8
14404.1
14907.1
15505
16219.6
17081.6
18137.9
19470.7
-20547.8
-15932.2
-14361.3
-10403.1
-8436.02
-5017.95
-2916.07
139.621
2244.99
5054.26
7085.54
9729.63
11628.8
14176.9
15884.8
18408.5
19841
22425.3
23426.4
26060.6
-20477.8
-15874.2
-14312.3
-10355.1
-8394.07
-4973.61
-2876.51
182.299
2284.21
5096.57
7125.32
9772.93
11670.4
14223.3
15931
18462.7
19898.9
22499
23514.9
26188.7
-20415.9
-15814.2
-14260.9
-10304
-8348.78
-4926.4
-2833.57
227.933
2326.72
5142.19
7168.76
9820.07
11716.4
14274.2
15982.8
18521.6
19962.4
22574.2
23600.8
26292.9
-20358.5
-15754.8
-14208.5
-10250.8
-8301.1
-4876.77
-2788.02
276.15
2371.93
5190.56
7215.1
9870.19
11765.7
14328.2
16037.7
18582.6
20027.3
22647.2
23679.7
26380.6
-20303.2
-15696.1
-14155.4
-10196.4
-8251.67
-4825.18
-2740.36
326.532
2419.39
5241.2
7263.76
9922.56
11817.2
14384.1
16094.2
18644.3
20091.6
22717
23752.4
26458.6
-20249
-15637.8
-14101.9
-10141
-8200.92
-4772.05
-2691.01
378.67
2468.64
5293.61
7314.18
9976.55
11870.2
14441
16151.3
18705.8
20154.3
22783.9
23820.3
26530.5
-20195.3
-15579.7
-14048.1
-10084.9
-8149.14
-4717.71
-2640.33
432.195
2519.31
5347.38
7365.89
10031.6
11924
14498.5
16208.5
18766.5
20215.3
22848.2
23884.5
26598
-20141.8
-15521.6
-13993.9
-10028.2
-8096.56
-4662.41
-2588.61
486.793
2571.04
5402.14
7418.51
10087.5
11978.4
14556
16265.5
18826.4
20274.8
22910.3
23945.8
26662.4
-20088.2
-15463.3
-13939.4
-9971.02
-8043.35
-4606.38
-2536.08
542.201
2623.58
5457.61
7471.74
10143.7
12033
14613.5
16321.9
18885.4
20332.8
22970.7
24005
26724.4
-20034.4
-15404.9
-13884.6
-9913.42
-7989.63
-4549.78
-2482.95
598.205
2676.68
5513.56
7525.35
10200.1
12087.5
14670.7
16377.7
18943.6
20389.7
23029.5
24062.5
26784.6
-19980.6
-15346.2
-13829.6
-9855.48
-7935.52
-4492.75
-2429.38
654.633
2730.17
5569.8
7579.17
10256.5
12142
14727.6
16433
19001
20445.5
23087.1
24118.5
26843.4
-19926.5
-15287.3
-13774.3
-9797.26
-7881.12
-4435.39
-2375.48
711.346
2783.92
5626.2
7633.07
10312.9
12196.3
14784.1
16487.6
19057.7
20500.3
23143.7
24173.4
26901
-19872.3
-15228.2
-13718.9
-9738.83
-7826.49
-4377.82
-2321.37
768.232
2837.81
5682.65
7686.96
10369.1
12250.4
14840.2
16541.8
19113.7
20554.4
23199.4
24227.4
26957.5
-19817.9
-15169
-13663.3
-9680.24
-7771.71
-4320.09
-2267.12
825.206
2891.76
5739.07
7740.77
10425.1
12304.2
14895.9
16595.5
19169.1
20607.8
23254.3
24280.5
27013.3
-19763.5
-15109.7
-13607.6
-9621.54
-7716.83
-4262.29
-2212.81
882.197
2945.69
5795.4
7794.45
10480.9
12357.6
14951.3
16648.7
19223.9
20660.6
23308.5
24332.9
27068.4
-19709
-15050.3
-13551.8
-9562.77
-7661.91
-4204.46
-2158.48
939.151
2999.58
5851.61
7847.97
10536.5
12410.8
15006.2
16701.4
19278.3
20712.8
23362.2
24384.7
27122.8
-19654.4
-14990.8
-13496.1
-9503.99
-7606.99
-4146.64
-2104.19
996.024
3053.36
5907.64
7901.31
10591.8
12463.7
15060.8
16753.8
19332.2
20764.5
23415.3
24435.9
27176.7
-19599.9
-14931.4
-13440.3
-9445.22
-7552.11
-4088.89
-2049.97
1052.78
3107.02
5963.49
7954.44
10646.8
12516.3
15115
16805.8
19385.6
20815.8
23468
24486.7
27230.1
-19545.4
-14871.9
-13384.7
-9386.51
-7497.29
-4031.22
-1995.85
1109.39
3160.54
6019.13
8007.36
10701.5
12568.6
15168.9
16857.4
19438.7
20866.6
23520.2
24537
27283.1
-19491
-14812.5
-13329.1
-9327.87
-7442.57
-3973.68
-1941.86
1165.84
3213.88
6074.54
8060.06
10756
12620.6
15222.5
16908.7
19491.4
20917.1
23572
24586.9
27335.6
-19436.6
-14753.2
-13273.6
-9269.33
-7387.97
-3916.27
-1888
1222.1
3267.05
6129.72
8112.53
10810.2
12672.4
15275.7
16959.6
19543.7
20967.2
23623.4
24636.3
27387.8
-19382.4
-14694
-13218.2
-9210.92
-7333.52
-3859.02
-1834.31
1278.16
3320.03
6184.66
8164.78
10864
12723.9
15328.6
17010.2
19595.7
21016.9
23674.5
24685.5
27439.6
-19328.3
-14634.9
-13163
-9152.66
-7279.22
-3801.95
-1780.79
1334.01
3372.8
6239.34
8216.79
10917.6
12775.1
15381.2
17060.6
19647.3
21066.4
23725.3
24734.3
27491.1
-19274.4
-14575.9
-13107.9
-9094.56
-7225.09
-3745.08
-1727.46
1389.63
3425.37
6293.77
8268.57
10971
12826
15433.5
17110.6
19698.7
21115.5
23775.7
24782.7
27542.3
-19220.7
-14517.1
-13053.1
-9036.65
-7171.15
-3688.41
-1674.33
1445.02
3477.72
6347.94
8320.11
11024
12876.7
15485.5
17160.4
19749.7
21164.3
23825.8
24830.8
27593.2
-19167.1
-14458.5
-12998.4
-8978.92
-7117.4
-3631.95
-1621.41
1500.17
3529.86
6401.84
8371.41
11076.7
12927.1
15537.2
17209.8
19800.4
21212.8
23875.7
24878.7
27643.8
-19113.8
-14400
-12943.9
-8921.4
-7063.87
-3575.73
-1568.69
1555.06
3581.77
6455.48
8422.48
11129.2
12977.3
15588.6
17259.1
19850.9
21261.1
23925.2
24926.2
27694.1
-19060.6
-14341.8
-12889.7
-8864.09
-7010.55
-3519.74
-1516.2
1609.7
3633.45
6508.84
8473.31
11181.4
13027.2
15639.7
17308
19901
21309
23974.4
24973.5
27744.1
-19007.7
-14283.8
-12835.7
-8807.01
-6957.46
-3463.99
-1463.93
1664.09
3684.91
6561.92
8523.91
11233.3
13076.9
15690.6
17356.7
19950.9
21356.7
24023.4
25020.5
27793.9
-18955.1
-14225.9
-12781.9
-8750.16
-6904.59
-3408.49
-1411.89
1718.2
3736.14
6614.73
8574.26
11284.9
13126.3
15741.1
17405.1
20000.5
21404.1
24072.1
25067.2
27843.4
-18902.6
-14168.4
-12728.3
-8693.55
-6851.96
-3353.24
-1360.08
1772.05
3787.13
6667.26
8624.38
11336.2
13175.5
15791.4
17453.3
20049.8
21451.3
24120.6
25113.6
27892.7
-18850.4
-14111
-12675.1
-8637.18
-6799.57
-3298.26
-1308.5
1825.63
3837.89
6719.51
8674.27
11387.3
13224.4
15841.4
17501.2
20098.8
21498.2
24168.7
25159.7
27941.7
-18798.5
-14053.9
-12622
-8581.06
-6747.43
-3243.53
-1257.16
1878.93
3888.42
6771.48
8723.91
11438.1
13273.1
15891.1
17548.9
20147.6
21544.8
24216.6
25205.6
27990.4
-18746.9
-13997
-12569.2
-8525.19
-6695.52
-3189.07
-1206.06
1931.95
3938.71
6823.16
8773.32
11488.5
13321.6
15940.5
17596.3
20196
21591.2
24264.2
25251.2
28038.9
-18695.5
-13940.3
-12516.7
-8469.58
-6643.87
-3134.89
-1155.2
1984.69
3988.76
6874.55
8822.49
11538.7
13369.8
15989.6
17643.5
20244.2
21637.3
24311.6
25296.6
28087.1
-18644.3
-13883.9
-12464.4
-8414.24
-6592.47
-3080.98
-1104.58
2037.15
4038.57
6925.66
8871.42
11588.6
13417.8
16038.4
17690.4
20292.2
21683.2
24358.7
25341.7
28135.1
-18593.5
-13827.8
-12412.5
-8359.16
-6541.33
-3027.34
-1054.21
2089.32
4088.15
6976.47
8920.12
11638.2
13465.5
16087
17737.1
20339.8
21728.8
24405.6
25386.5
28182.8
-18542.9
-13771.9
-12360.7
-8304.35
-6490.44
-2973.99
-1004.09
2141.2
4137.48
7026.99
8968.57
11687.5
13513
16135.3
17783.5
20387.2
21774.1
24452.2
25431.1
28230.3
-18492.6
-13716.3
-12309.3
-8249.82
-6439.81
-2920.92
-954.209
2192.79
4186.57
7077.21
9016.79
11736.5
13560.2
16183.3
17829.7
20434.3
21819.2
24498.5
25475.4
28277.5
-18442.5
-13660.9
-12258.1
-8195.56
-6389.44
-2868.14
-904.581
2244.08
4235.42
7127.13
9064.76
11785.2
13607.2
16231
17875.6
20481.1
21864.1
24544.5
25519.4
28324.5
-18392.8
-13605.8
-12207.2
-8141.58
-6339.34
-2815.65
-855.203
2295.07
4284.03
7176.75
9112.5
11833.7
13654
16278.4
17921.3
20527.7
21908.7
24590.3
25563.2
28371.2
-18343.3
-13551
-12156.6
-8087.88
-6289.49
-2763.46
-806.075
2345.77
4332.4
7226.08
9160
11881.8
13700.5
16325.5
17966.8
20573.9
21953
24635.9
25606.7
28417.7
-18294.2
-13496.4
-12106.3
-8034.46
-6239.92
-2711.55
-757.199
2396.16
4380.52
7275.09
9207.25
11929.6
13746.8
16372.3
18012
20619.9
21997.1
24681.2
25649.9
28463.9
-18245.3
-13442.2
-12056.2
-7981.33
-6190.6
-2659.95
-708.574
2446.25
4428.4
7323.81
9254.27
11977.1
13792.8
16418.9
18056.9
20665.6
22040.9
24726.2
25692.9
28509.9
-18196.7
-13388.1
-12006.5
-7928.49
-6141.56
-2608.64
-660.201
2496.03
4476.04
7372.21
9301.05
12024.4
13838.6
16465.1
18101.6
20711.1
22084.5
24770.9
25735.6
28555.6
-18148.4
-13334.4
-11957
-7875.94
-6092.78
-2557.63
-612.081
2545.51
4523.43
7420.31
9347.59
12071.3
13884.2
16511.1
18146.1
20756.2
22127.8
24815.4
25778
28601.1
-18100.4
-13281
-11907.8
-7823.67
-6044.27
-2506.93
-564.215
2594.67
4570.58
7468.09
9393.88
12117.9
13929.5
16556.7
18190.3
20801.1
22170.8
24859.6
25820.2
28646.3
-18052.7
-13227.8
-11858.9
-7771.71
-5996.02
-2456.53
-516.604
2643.52
4617.49
7515.56
9439.94
12164.2
13974.5
16602.1
18234.2
20845.7
22213.6
24903.6
25862.1
28691.2
-18005.3
-13174.9
-11810.3
-7720.04
-5948.05
-2406.44
-469.247
2692.06
4664.15
7562.71
9485.75
12210.2
14019.4
16647.1
18277.9
20890
22256.2
24947.2
25903.8
28735.9
-17958.2
-13122.3
-11761.9
-7668.67
-5900.35
-2356.67
-422.147
2740.27
4710.56
7609.54
9531.32
12255.8
14063.9
16691.9
18321.4
20934
22298.5
24990.6
25945.2
28780.4
-17911.3
-13070
-11713.9
-7617.6
-5852.92
-2307.2
-375.303
2788.17
4756.72
7656.05
9576.65
12301.2
14108.3
16736.3
18364.6
20977.8
22340.5
25033.8
25986.3
28824.6
-17864.8
-13017.9
-11666.2
-7566.83
-5805.76
-2258.05
-328.715
2835.74
4802.64
7702.24
9621.74
12346.3
14152.4
16780.5
18407.5
21021.2
22382.3
25076.7
26027.1
28868.5
-17818.6
-12966.2
-11618.7
-7516.37
-5758.88
-2209.22
-282.383
2882.99
4848.32
7748.11
9666.59
12391
14196.2
16824.3
18450.2
21064.4
22423.8
25119.3
26067.7
28912.2
-17772.7
-12914.7
-11571.5
-7466.21
-5712.26
-2160.71
-236.306
2929.91
4893.75
7793.65
9711.19
12435.4
14239.8
16867.9
18492.7
21107.2
22465
25161.6
26108
28955.6
-17727.1
-12863.5
-11524.7
-7416.36
-5665.92
-2112.52
-190.485
2976.51
4938.93
7838.86
9755.55
12479.5
14283.2
16911.1
18534.9
21149.8
22506
25203.7
26148
28998.8
-17681.7
-12812.7
-11478.1
-7366.82
-5619.85
-2064.65
-144.918
3022.78
4983.87
7883.75
9799.67
12523.2
14326.3
16954
18576.8
21192.1
22546.7
25245.4
26187.7
29041.7
-17636.7
-12762.1
-11431.8
-7317.59
-5574.05
-2017.1
-99.6054
3068.71
5028.56
7928.3
9843.55
12566.7
14369.2
16996.6
18618.5
21234.1
22587.2
25286.9
26227.2
29084.3
-17592
-12711.8
-11385.8
-7268.67
-5528.52
-1969.88
-54.5481
3114.31
5073.01
7972.52
9887.18
12609.8
14411.8
17038.9
18659.9
21275.8
22627.4
25328.2
26266.4
29126.7
-17547.6
-12661.8
-11340.1
-7220.06
-5483.27
-1922.99
-9.74593
3159.58
5117.22
8016.4
9930.58
12652.6
14454.2
17080.9
18701.1
21317.2
22667.3
25369.1
26305.3
29168.8
-17503.5
-12612.1
-11294.7
-7171.77
-5438.28
-1876.43
34.8012
3204.5
5161.18
8059.94
9973.73
12695.1
14496.3
17122.6
18742.1
21358.3
22706.9
25409.8
26343.9
29210.6
-17459.7
-12562.7
-11249.6
-7123.8
-5393.57
-1830.2
79.0936
3249.09
5204.89
8103.15
10016.6
12737.2
14538.2
17163.9
18782.7
21399.1
22746.3
25450.2
26382.3
29252.2
-17416.2
-12513.6
-11204.8
-7076.15
-5349.14
-1784.31
123.131
3293.33
5248.36
8146.01
10059.3
12779
14579.8
17205
18823.2
21439.6
22785.5
25490.3
26420.4
29293.5
-17373.1
-12464.8
-11160.3
-7028.82
-5304.97
-1738.76
166.915
3337.23
5291.59
8188.53
10101.7
12820.4
14621.2
17245.7
18863.3
21479.8
22824.4
25530.1
26458.2
29334.6
-17330.2
-12416.3
-11116.1
-6981.81
-5261.07
-1693.54
210.445
3380.78
5334.57
8230.7
10143.9
12861.6
14662.4
17286.1
18903.2
21519.7
22863
25569.7
26495.7
29375.4
-17287.6
-12368.1
-11072.2
-6935.13
-5217.45
-1648.67
253.722
3423.99
5377.31
8272.53
10185.9
12902.4
14703.3
17326.2
18942.9
21559.3
22901.3
25608.9
26533
29415.9
-17245.4
-12320.2
-11028.5
-6888.77
-5174.1
-1604.13
296.747
3466.84
5419.81
8314.01
10227.6
12942.8
14743.9
17365.9
18982.3
21598.6
22939.4
25647.9
26569.9
29456.1
-17203.4
-12272.6
-10985.2
-6842.75
-5131.02
-1559.95
339.519
3509.34
5462.07
8355.14
10269
12982.9
14784.4
17405.3
19021.5
21637.6
22977.2
25686.7
26606.6
29496.1
-17161.8
-12225.3
-10942.2
-6797.06
-5088.21
-1516.11
382.04
3551.49
5504.08
8395.92
10310.3
13022.7
14824.5
17444.5
19060.4
21676.3
23014.7
25725.1
26643
29535.8
-17120.4
-12178.3
-10899.4
-6751.69
-5045.67
-1472.62
424.309
3593.28
5545.85
8436.35
10351.3
13062.1
14864.4
17483.2
19099
21714.6
23052
25763.2
26679.2
29575.3
-17079.4
-12131.7
-10857
-6706.67
-5003.4
-1429.49
466.328
3634.71
5587.39
8476.41
10392
13101.2
14904.1
17521.7
19137.4
21752.7
23089
25801.1
26715
29614.5
-17038.7
-12085.3
-10814.9
-6661.98
-4961.4
-1386.7
508.098
3675.78
5628.68
8516.12
10432.5
13140
14943.6
17559.8
19175.5
21790.5
23125.8
25838.7
26750.6
29653.4
-16998.3
-12039.3
-10773
-6617.62
-4919.66
-1344.28
549.62
3716.48
5669.73
8555.48
10472.8
13178.3
14982.8
17597.6
19213.4
21828
23162.3
25876
26785.9
29692
-16958.2
-11993.5
-10731.5
-6573.61
-4878.19
-1302.21
590.895
3756.82
5710.55
8594.47
10512.8
13216.4
15021.7
17635.1
19251
21865.1
23198.5
25913
26820.9
29730.4
-16918.4
-11948.1
-10690.2
-6529.94
-4836.99
-1260.5
631.924
3796.8
5751.13
8633.09
10552.6
13254.1
15060.4
17672.2
19288.4
21902
23234.4
25949.7
26855.6
29768.5
-16878.9
-11903
-10649.3
-6486.61
-4796.05
-1219.15
672.71
3836.41
5791.48
8671.36
10592.2
13291.4
15098.9
17709.1
19325.5
21938.5
23270.1
25986.1
26890.1
29806.3
-16839.7
-11858.2
-10608.6
-6443.62
-4755.37
-1178.16
713.252
3875.65
5831.59
8709.26
10631.5
13328.4
15137.1
17745.5
19362.4
21974.8
23305.5
26022.3
26924.2
29843.9
-16800.9
-11813.7
-10568.2
-6400.98
-4714.95
-1137.54
753.553
3914.51
5871.46
8746.79
10670.6
13365.1
15175.1
17781.7
19399
22010.7
23340.6
26058.1
26958.1
29881.2
-16762.3
-11769.6
-10528.1
-6358.68
-4674.8
-1097.29
793.613
3953
5911.11
8783.96
10709.5
13401.4
15212.8
17817.5
19435.4
22046.3
23375.5
26093.7
26991.7
29918.2
-16724
-11725.7
-10488.3
-6316.74
-4634.9
-1057.41
833.434
3991.12
5950.52
8820.76
10748.1
13437.3
15250.3
17853
19471.5
22081.6
23410.1
26129
27025
29954.9
-16686.1
-11682.2
-10448.8
-6275.15
-4595.26
-1017.9
873.017
4028.86
5989.7
8857.18
10786.5
13472.9
15287.5
17888.1
19507.3
22116.6
23444.4
26164
27058
29991.4
-16648.5
-11639
-10409.6
-6233.91
-4555.88
-978.765
912.362
4066.21
6028.66
8893.23
10824.6
13508.1
15324.6
17922.9
19542.9
22151.2
23478.5
26198.7
27090.7
30027.6
-16611.1
-11596.1
-10370.6
-6193.03
-4516.75
-940.008
951.473
4103.19
6067.38
8928.9
10862.6
13543
15361.3