/*--------------------------------*- C++ -*----------------------------------*\
  =========                 |
  \\      /  F ield         | OpenFOAM: The Open Source CFD Toolbox
   \\    /   O peration     | Website:  https://openfoam.org
    \\  /    A nd           | Version:  8
     \\/     M anipulation  |
\*---------------------------------------------------------------------------*/
FoamFile
{
    version     2.0;
    format      ascii;
    class       volVectorField;
    location    "300";
    object      U;
}
// * * * * * * * * * * * * * * * * * * * * * * * * * * * * * * * * * * * * * //

dimensions      [0 1 -1 0 0 0 0];

internalField   nonuniform List<vector> 
8400
(
(-13.6972 -0.0751639 -3.69418e-16)
(-13.7003 -0.0758941 -3.71475e-16)
(-13.7029 -0.0768311 -3.73292e-16)
(-13.7056 -0.0778533 -3.7912e-16)
(-13.7083 -0.0789248 -3.82254e-16)
(-13.7111 -0.0800343 -3.80653e-16)
(-13.7138 -0.081179 -3.81429e-16)
(-13.7165 -0.0823585 -3.8241e-16)
(-13.7192 -0.083574 -3.83833e-16)
(-13.7219 -0.0848273 -3.88884e-16)
(-13.7246 -0.0861205 -3.90944e-16)
(-13.7271 -0.087456 -3.88971e-16)
(-13.7297 -0.0888368 -3.89452e-16)
(-13.7321 -0.0902662 -3.90278e-16)
(-13.7345 -0.0917478 -3.93141e-16)
(-13.7368 -0.0932858 -3.99058e-16)
(-13.739 -0.0948846 -3.97054e-16)
(-13.7411 -0.0965496 -3.95172e-16)
(-13.743 -0.0982864 -3.95603e-16)
(-13.7448 -0.100102 -3.96338e-16)
(-13.7464 -0.102003 -3.97385e-16)
(-13.7477 -0.103999 -3.98517e-16)
(-13.7488 -0.106098 -3.99698e-16)
(-13.7497 -0.108312 -4.00893e-16)
(-13.7501 -0.110657 -4.01971e-16)
(-13.7502 -0.113152 -4.03385e-16)
(-13.7498 -0.115821 -4.00896e-16)
(-13.7488 -0.118686 -4.00687e-16)
(-13.7471 -0.121759 -4.05105e-16)
(-13.7446 -0.125065 -4.07327e-16)
(-13.7412 -0.12863 -4.0936e-16)
(-13.7367 -0.132485 -4.11504e-16)
(-13.731 -0.136669 -4.09511e-16)
(-13.7238 -0.141225 -4.09934e-16)
(-13.715 -0.146204 -4.15124e-16)
(-13.7042 -0.151665 -4.18226e-16)
(-13.6912 -0.15768 -4.21246e-16)
(-13.6756 -0.164334 -4.24342e-16)
(-13.657 -0.171732 -4.27584e-16)
(-13.6348 -0.179999 -4.29939e-16)
(-13.6085 -0.189296 -4.33398e-16)
(-13.5774 -0.199825 -4.34864e-16)
(-13.5406 -0.211848 -4.3803e-16)
(-13.4969 -0.22572 -4.45803e-16)
(-13.445 -0.24194 -4.52425e-16)
(-13.3834 -0.261223 -4.58331e-16)
(-13.3105 -0.28454 -4.61089e-16)
(-13.2226 -0.313222 -4.68271e-16)
(-13.1102 -0.349818 -4.84759e-16)
(-12.9616 -0.400219 -4.98734e-16)
(-15.6805 0.0784263 1.38689e-16)
(-15.6836 0.0794683 1.39265e-16)
(-15.6858 0.0804953 1.39812e-16)
(-15.688 0.0815349 1.37002e-16)
(-15.6902 0.0825772 1.35465e-16)
(-15.6924 0.0836263 1.37392e-16)
(-15.6946 0.0846864 1.39134e-16)
(-15.6968 0.0857605 1.41205e-16)
(-15.699 0.0868509 1.40559e-16)
(-15.7011 0.0879591 1.36823e-16)
(-15.7032 0.0890861 1.36233e-16)
(-15.7053 0.090233 1.39292e-16)
(-15.7073 0.0914 1.42878e-16)
(-15.7093 0.0925877 1.48233e-16)
(-15.7112 0.093796 1.45227e-16)
(-15.7131 0.0950249 1.30039e-16)
(-15.7148 0.0962742 1.29751e-16)
(-15.7164 0.0975433 1.33653e-16)
(-15.7179 0.0988313 1.36815e-16)
(-15.7193 0.100137 1.39813e-16)
(-15.7205 0.101458 1.42753e-16)
(-15.7214 0.102792 1.45693e-16)
(-15.7222 0.104138 1.48675e-16)
(-15.7227 0.105488 1.51711e-16)
(-15.7229 0.106833 1.54748e-16)
(-15.7227 0.108158 1.57325e-16)
(-15.7221 0.109455 1.62839e-16)
(-15.7211 0.110726 1.67756e-16)
(-15.7195 0.111966 1.69952e-16)
(-15.7174 0.113163 1.7295e-16)
(-15.7146 0.114306 1.76328e-16)
(-15.711 0.115379 1.79895e-16)
(-15.7066 0.116362 1.86108e-16)
(-15.701 0.117232 1.91631e-16)
(-15.6943 0.11796 1.94577e-16)
(-15.6862 0.118513 1.98469e-16)
(-15.6764 0.118851 2.02781e-16)
(-15.6648 0.118922 2.07301e-16)
(-15.6511 0.118667 2.14353e-16)
(-15.6348 0.118005 2.19843e-16)
(-15.6157 0.116836 2.23212e-16)
(-15.5932 0.115026 2.31229e-16)
(-15.5669 0.112393 2.38696e-16)
(-15.536 0.108675 2.43552e-16)
(-15.5 0.103464 2.51928e-16)
(-15.458 0.0961333 2.58986e-16)
(-15.4094 0.0858455 2.66647e-16)
(-15.353 0.0714815 2.76396e-16)
(-15.2849 0.0504504 2.83378e-16)
(-15.2005 0.0157229 2.89579e-16)
(-16.0777 -0.0663037 -2.12905e-16)
(-16.0758 -0.0667056 -2.12782e-16)
(-16.0748 -0.0674042 -2.12581e-16)
(-16.074 -0.0682239 -2.14213e-16)
(-16.0731 -0.0691135 -2.15069e-16)
(-16.0722 -0.0700527 -2.13429e-16)
(-16.0714 -0.0710332 -2.12124e-16)
(-16.0705 -0.0720523 -2.11033e-16)
(-16.0696 -0.0731092 -2.10092e-16)
(-16.0686 -0.0742048 -2.10923e-16)
(-16.0676 -0.0753407 -2.10887e-16)
(-16.0666 -0.0765195 -2.08306e-16)
(-16.0655 -0.0777443 -2.05813e-16)
(-16.0644 -0.0790188 -2.03012e-16)
(-16.0632 -0.0803476 -2.00239e-16)
(-16.0619 -0.0817358 -2.00582e-16)
(-16.0606 -0.0831892 -2.00333e-16)
(-16.0591 -0.0847147 -1.98045e-16)
(-16.0575 -0.0863202 -1.95781e-16)
(-16.0557 -0.0880147 -1.93643e-16)
(-16.0538 -0.0898093 -1.91549e-16)
(-16.0517 -0.0917164 -1.89441e-16)
(-16.0494 -0.0937503 -1.87276e-16)
(-16.0468 -0.0959307 -1.85051e-16)
(-16.0439 -0.0982734 -1.8276e-16)
(-16.0406 -0.100798 -1.80509e-16)
(-16.0369 -0.103532 -1.7628e-16)
(-16.0328 -0.106511 -1.725e-16)
(-16.0281 -0.109768 -1.70998e-16)
(-16.0228 -0.113341 -1.6911e-16)
(-16.0168 -0.117275 -1.66952e-16)
(-16.01 -0.121619 -1.64726e-16)
(-16.0022 -0.126432 -1.60483e-16)
(-15.9933 -0.131781 -1.56683e-16)
(-15.9832 -0.137742 -1.55206e-16)
(-15.9716 -0.144405 -1.53405e-16)
(-15.9582 -0.151875 -1.51423e-16)
(-15.9429 -0.160271 -1.49359e-16)
(-15.9253 -0.169733 -1.47253e-16)
(-15.9051 -0.180428 -1.44236e-16)
(-15.8818 -0.192551 -1.41964e-16)
(-15.8549 -0.206334 -1.3917e-16)
(-15.824 -0.222059 -1.36863e-16)
(-15.7883 -0.240072 -1.37153e-16)
(-15.7472 -0.26083 -1.37285e-16)
(-15.6998 -0.284928 -1.36704e-16)
(-15.6456 -0.313044 -1.34964e-16)
(-15.5836 -0.345924 -1.35169e-16)
(-15.5119 -0.385033 -1.39981e-16)
(-15.429 -0.434081 -1.45446e-16)
(-16.5257 0.0690672 6.44796e-17)
(-16.5269 0.0697059 6.48226e-17)
(-16.5268 0.0704576 6.51525e-17)
(-16.5266 0.0712397 6.37185e-17)
(-16.5262 0.0720188 6.28442e-17)
(-16.5259 0.0727876 6.42062e-17)
(-16.5255 0.0735449 6.52292e-17)
(-16.5251 0.0742906 6.60271e-17)
(-16.5247 0.0750243 6.67202e-17)
(-16.5243 0.0757452 6.57411e-17)
(-16.5238 0.0764515 6.55459e-17)
(-16.5233 0.0771405 6.77021e-17)
(-16.5228 0.0778092 6.97498e-17)
(-16.5223 0.0784534 7.14252e-17)
(-16.5217 0.0790682 7.23811e-17)
(-16.521 0.0796478 7.2363e-17)
(-16.5203 0.0801853 7.27853e-17)
(-16.5195 0.0806727 7.52709e-17)
(-16.5186 0.0811003 7.75027e-17)
(-16.5176 0.0814561 7.95591e-17)
(-16.5164 0.0817257 8.15227e-17)
(-16.5151 0.0818964 8.34364e-17)
(-16.5137 0.0819493 8.53319e-17)
(-16.512 0.0818701 8.72349e-17)
(-16.5102 0.081638 8.91504e-17)
(-16.5081 0.0812296 9.09755e-17)
(-16.5057 0.080618 9.46452e-17)
(-16.503 0.0797697 9.78498e-17)
(-16.4999 0.0786455 9.8839e-17)
(-16.4964 0.0771999 1.00158e-16)
(-16.4923 0.0753803 1.01733e-16)
(-16.4877 0.0731253 1.03375e-16)
(-16.4824 0.0703638 1.06969e-16)
(-16.4764 0.0670124 1.0997e-16)
(-16.4694 0.0629736 1.10647e-16)
(-16.4613 0.0581333 1.11674e-16)
(-16.4521 0.0523573 1.1283e-16)
(-16.4414 0.0454875 1.13844e-16)
(-16.4291 0.0373364 1.16583e-16)
(-16.415 0.0276808 1.17714e-16)
(-16.3987 0.0162528 1.16627e-16)
(-16.38 0.00272995 1.187e-16)
(-16.3584 -0.0132791 1.20061e-16)
(-16.3336 -0.0322571 1.18577e-16)
(-16.3052 -0.0548098 1.18677e-16)
(-16.2728 -0.0816829 1.16433e-16)
(-16.236 -0.113739 1.13333e-16)
(-16.1945 -0.151971 1.10723e-16)
(-16.1476 -0.197773 1.04508e-16)
(-16.0949 -0.25329 9.75309e-17)
(-16.3784 -0.0555329 3.42853e-16)
(-16.3752 -0.0559378 3.44065e-16)
(-16.3738 -0.0564599 3.45275e-16)
(-16.3726 -0.0570394 3.44662e-16)
(-16.3715 -0.0576553 3.44561e-16)
(-16.3704 -0.0583007 3.46611e-16)
(-16.3692 -0.0589729 3.48241e-16)
(-16.3681 -0.059671 3.4953e-16)
(-16.3669 -0.0603949 3.50651e-16)
(-16.3657 -0.0611452 3.49987e-16)
(-16.3645 -0.0619234 3.49862e-16)
(-16.3632 -0.0627314 3.52046e-16)
(-16.3619 -0.0635717 3.54119e-16)
(-16.3605 -0.0644478 3.5613e-16)
(-16.3591 -0.0653635 3.58129e-16)
(-16.3577 -0.0663238 3.58125e-16)
(-16.3562 -0.0673346 3.58432e-16)
(-16.3546 -0.0684023 3.61036e-16)
(-16.3529 -0.0695375 3.63173e-16)
(-16.3511 -0.0707489 3.65095e-16)
(-16.3491 -0.0720464 3.66903e-16)
(-16.347 -0.0734484 3.68665e-16)
(-16.3448 -0.0749722 3.70434e-16)
(-16.3423 -0.0766397 3.72234e-16)
(-16.3397 -0.0784763 3.74089e-16)
(-16.3367 -0.0805096 3.75903e-16)
(-16.3335 -0.0827719 3.79623e-16)
(-16.3299 -0.0853006 3.82959e-16)
(-16.3258 -0.0881387 3.84155e-16)
(-16.3213 -0.0913358 3.85768e-16)
(-16.3163 -0.0949494 3.87743e-16)
(-16.3106 -0.0990463 3.89898e-16)
(-16.3042 -0.103704 3.94136e-16)
(-16.297 -0.109011 3.98101e-16)
(-16.2888 -0.115074 4.00003e-16)
(-16.2795 -0.122011 4.0244e-16)
(-16.2689 -0.129965 4.05329e-16)
(-16.2568 -0.1391 4.0861e-16)
(-16.243 -0.149608 4.12318e-16)
(-16.2273 -0.161714 4.17418e-16)
(-16.2093 -0.175686 4.22308e-16)
(-16.1889 -0.19184 4.28321e-16)
(-16.1655 -0.210553 4.34715e-16)
(-16.1389 -0.232285 4.39424e-16)
(-16.1087 -0.257599 4.45311e-16)
(-16.0744 -0.287178 4.5318e-16)
(-16.036 -0.321828 4.63674e-16)
(-15.9929 -0.362533 4.74281e-16)
(-15.9448 -0.410609 4.82479e-16)
(-15.8912 -0.467799 4.92975e-16)
(-16.5251 0.0530991 1.70303e-17)
(-16.5266 0.0534517 1.72366e-17)
(-16.5265 0.0538795 1.74823e-17)
(-16.526 0.0543183 1.5924e-17)
(-16.5255 0.0547424 1.4846e-17)
(-16.5249 0.0551424 1.59863e-17)
(-16.5243 0.0555139 1.67756e-17)
(-16.5237 0.0558537 1.72359e-17)
(-16.5231 0.0561584 1.75682e-17)
(-16.5224 0.0564243 1.60665e-17)
(-16.5217 0.0566469 1.50544e-17)
(-16.521 0.0568206 1.62324e-17)
(-16.5203 0.056939 1.73062e-17)
(-16.5196 0.0569947 1.82217e-17)
(-16.5188 0.0569786 1.92498e-17)
(-16.5179 0.0568801 1.82882e-17)
(-16.517 0.0566886 1.79304e-17)
(-16.5161 0.0563902 1.95201e-17)
(-16.5151 0.0559723 2.07648e-17)
(-16.514 0.0554186 2.17907e-17)
(-16.5128 0.0547103 2.26633e-17)
(-16.5115 0.0538269 2.3465e-17)
(-16.5101 0.0527453 2.42077e-17)
(-16.5085 0.0514382 2.49354e-17)
(-16.5068 0.0498733 2.56396e-17)
(-16.5049 0.0480134 2.62431e-17)
(-16.5028 0.0458159 2.86328e-17)
(-16.5004 0.0432312 3.0515e-17)
(-16.4977 0.0402028 3.01503e-17)
(-16.4947 0.0366656 3.01095e-17)
(-16.4912 0.0325448 3.02791e-17)
(-16.4873 0.0277547 3.04815e-17)
(-16.4829 0.0221963 3.25929e-17)
(-16.4779 0.0157562 3.42692e-17)
(-16.4721 0.00830383 3.36503e-17)
(-16.4655 -0.000310744 3.33049e-17)
(-16.458 -0.0102598 3.3092e-17)
(-16.4493 -0.0217414 3.27827e-17)
(-16.4394 -0.0349827 3.41982e-17)
(-16.4281 -0.0502447 3.4084e-17)
(-16.4151 -0.0678259 3.18567e-17)
(-16.4002 -0.0880681 3.28734e-17)
(-16.3833 -0.111362 3.30139e-17)
(-16.364 -0.138154 3.02284e-17)
(-16.3422 -0.168951 2.91443e-17)
(-16.3176 -0.204321 2.57592e-17)
(-16.2902 -0.244878 2.17334e-17)
(-16.2601 -0.29129 1.82783e-17)
(-16.2272 -0.344324 1.1357e-17)
(-16.1913 -0.404893 1.70996e-18)
(-16.4423 -0.0404705 1.88933e-16)
(-16.4387 -0.0407097 1.89239e-16)
(-16.4373 -0.0409998 1.89552e-16)
(-16.4362 -0.0413166 1.87948e-16)
(-16.4352 -0.0416514 1.86794e-16)
(-16.4343 -0.0420023 1.87901e-16)
(-16.4333 -0.0423692 1.8867e-16)
(-16.4323 -0.0427524 1.89194e-16)
(-16.4313 -0.0431528 1.89602e-16)
(-16.4303 -0.0435719 1.8742e-16)
(-16.4293 -0.0440111 1.85949e-16)
(-16.4283 -0.044473 1.87233e-16)
(-16.4272 -0.0449603 1.8797e-16)
(-16.4261 -0.045478 1.88533e-16)
(-16.425 -0.0460306 1.88992e-16)
(-16.4238 -0.0466237 1.87723e-16)
(-16.4226 -0.0472663 1.86836e-16)
(-16.4213 -0.0479684 1.88158e-16)
(-16.42 -0.0487419 1.89166e-16)
(-16.4186 -0.0496009 1.89938e-16)
(-16.4171 -0.0505622 1.90597e-16)
(-16.4155 -0.0516451 1.91187e-16)
(-16.4138 -0.052872 1.91771e-16)
(-16.412 -0.0542686 1.92364e-16)
(-16.41 -0.0558655 1.93002e-16)
(-16.4079 -0.0576979 1.93589e-16)
(-16.4055 -0.0598074 1.9607e-16)
(-16.4029 -0.062242 1.98152e-16)
(-16.4001 -0.0650582 1.981e-16)
(-16.3969 -0.0683217 1.98501e-16)
(-16.3934 -0.0721088 1.99302e-16)
(-16.3895 -0.0765082 2.00341e-16)
(-16.385 -0.0816232 2.03532e-16)
(-16.3801 -0.0875737 2.06554e-16)
(-16.3744 -0.094499 2.07634e-16)
(-16.3681 -0.10256 2.09373e-16)
(-16.3609 -0.111945 2.11734e-16)
(-16.3527 -0.122868 2.14651e-16)
(-16.3434 -0.135581 2.18198e-16)
(-16.3328 -0.150371 2.2248e-16)
(-16.3207 -0.16757 2.28176e-16)
(-16.307 -0.187558 2.36092e-16)
(-16.2914 -0.210768 2.43436e-16)
(-16.2737 -0.237694 2.50535e-16)
(-16.2536 -0.268889 2.58994e-16)
(-16.2311 -0.304967 2.6794e-16)
(-16.2059 -0.346583 2.80916e-16)
(-16.1779 -0.394416 2.96214e-16)
(-16.1471 -0.449164 3.11092e-16)
(-16.1132 -0.511557 3.28786e-16)
(-16.499 0.0336348 -2.18449e-16)
(-16.5008 0.0337924 -2.18396e-16)
(-16.5007 0.033964 -2.18265e-16)
(-16.5002 0.0341221 -2.20225e-16)
(-16.4996 0.0342546 -2.21698e-16)
(-16.4989 0.0343558 -2.2072e-16)
(-16.4982 0.0344214 -2.20102e-16)
(-16.4976 0.0344475 -2.19705e-16)
(-16.4969 0.0344297 -2.19458e-16)
(-16.4961 0.0343633 -2.21188e-16)
(-16.4954 0.034243 -2.22771e-16)
(-16.4947 0.0340622 -2.22137e-16)
(-16.4939 0.0338132 -2.21742e-16)
(-16.4931 0.0334885 -2.21965e-16)
(-16.4923 0.0330786 -2.21985e-16)
(-16.4915 0.0325726 -2.23713e-16)
(-16.4906 0.0319586 -2.25096e-16)
(-16.4897 0.0312228 -2.24351e-16)
(-16.4888 0.0303494 -2.24029e-16)
(-16.4878 0.0293201 -2.24016e-16)
(-16.4867 0.0281136 -2.24235e-16)
(-16.4856 0.0267054 -2.2462e-16)
(-16.4844 0.0250674 -2.25147e-16)
(-16.4831 0.0231675 -2.2579e-16)
(-16.4817 0.0209686 -2.26546e-16)
(-16.4802 0.0184281 -2.27511e-16)
(-16.4785 0.0154974 -2.26754e-16)
(-16.4767 0.0121205 -2.26617e-16)
(-16.4747 0.00823309 -2.28855e-16)
(-16.4725 0.00376149 -2.30886e-16)
(-16.47 -0.00137879 -2.32805e-16)
(-16.4672 -0.00728478 -2.34827e-16)
(-16.4641 -0.0140677 -2.35033e-16)
(-16.4606 -0.0218549 -2.35857e-16)
(-16.4566 -0.0307926 -2.39145e-16)
(-16.4521 -0.0410479 -2.42329e-16)
(-16.4471 -0.0528121 -2.45553e-16)
(-16.4413 -0.0663031 -2.4897e-16)
(-16.4348 -0.0817694 -2.52782e-16)
(-16.4274 -0.099493 -2.5419e-16)
(-16.419 -0.119792 -2.58188e-16)
(-16.4094 -0.143026 -2.63982e-16)
(-16.3985 -0.169594 -2.67153e-16)
(-16.3863 -0.199939 -2.74834e-16)
(-16.3725 -0.234543 -2.84941e-16)
(-16.357 -0.273923 -2.9385e-16)
(-16.3398 -0.318612 -3.0272e-16)
(-16.3209 -0.369129 -3.12553e-16)
(-16.3003 -0.42596 -3.28013e-16)
(-16.2778 -0.489578 -3.47714e-16)
(-16.4653 -0.0231405 1.0101e-16)
(-16.4616 -0.0232255 1.02758e-16)
(-16.4603 -0.0233276 1.04639e-16)
(-16.4594 -0.0234451 1.04501e-16)
(-16.4585 -0.023578 1.04684e-16)
(-16.4577 -0.0237272 1.07262e-16)
(-16.4568 -0.0238938 1.09603e-16)
(-16.456 -0.0240796 1.11751e-16)
(-16.4552 -0.0242865 1.13855e-16)
(-16.4543 -0.0245171 1.14032e-16)
(-16.4535 -0.0247753 1.1437e-16)
(-16.4526 -0.025065 1.16945e-16)
(-16.4518 -0.0253915 1.19146e-16)
(-16.4509 -0.0257611 1.21064e-16)
(-16.45 -0.0261815 1.23152e-16)
(-16.4491 -0.0266618 1.23277e-16)
(-16.4482 -0.0272125 1.23811e-16)
(-16.4473 -0.0278461 1.2655e-16)
(-16.4463 -0.0285768 1.28888e-16)
(-16.4453 -0.0294217 1.30942e-16)
(-16.4443 -0.0304002 1.32806e-16)
(-16.4432 -0.0315355 1.34536e-16)
(-16.4421 -0.032854 1.36181e-16)
(-16.441 -0.0343869 1.37756e-16)
(-16.4397 -0.0361705 1.39289e-16)
(-16.4384 -0.0382469 1.40679e-16)
(-16.4371 -0.0406652 1.43885e-16)
(-16.4356 -0.0434825 1.4657e-16)
(-16.434 -0.0467652 1.47018e-16)
(-16.4322 -0.0505902 1.47807e-16)
(-16.4303 -0.0550468 1.4888e-16)
(-16.4282 -0.0602385 1.50052e-16)
(-16.4259 -0.066285 1.53255e-16)
(-16.4233 -0.0733246 1.56098e-16)
(-16.4205 -0.081517 1.56812e-16)
(-16.4172 -0.0910461 1.58049e-16)
(-16.4136 -0.102123 1.59714e-16)
(-16.4096 -0.11499 1.61625e-16)
(-16.405 -0.129921 1.65713e-16)
(-16.3997 -0.147232 1.68799e-16)
(-16.3938 -0.167273 1.70353e-16)
(-16.387 -0.190442 1.7581e-16)
(-16.3794 -0.217176 1.81705e-16)
(-16.3706 -0.247953 1.86096e-16)
(-16.3608 -0.283289 1.93535e-16)
(-16.3496 -0.323726 2.00444e-16)
(-16.337 -0.369811 2.08757e-16)
(-16.3231 -0.422063 2.20473e-16)
(-16.3076 -0.480949 2.32275e-16)
(-16.2902 -0.546907 2.48076e-16)
(-16.4738 0.0129601 -1.62409e-16)
(-16.4756 0.0129805 -1.6126e-16)
(-16.4754 0.0129806 -1.60003e-16)
(-16.4749 0.0129564 -1.60672e-16)
(-16.4743 0.0129066 -1.60959e-16)
(-16.4736 0.0128291 -1.58807e-16)
(-16.4729 0.0127215 -1.56865e-16)
(-16.4722 0.0125809 -1.55085e-16)
(-16.4715 0.0124039 -1.53214e-16)
(-16.4708 0.0121864 -1.53245e-16)
(-16.4701 0.0119238 -1.5298e-16)
(-16.4694 0.0116105 -1.50606e-16)
(-16.4686 0.0112402 -1.48543e-16)
(-16.4679 0.0108052 -1.46692e-16)
(-16.4671 0.010297 -1.44852e-16)
(-16.4664 0.00970526 -1.45003e-16)
(-16.4656 0.00901808 -1.44713e-16)
(-16.4648 0.00822175 -1.42264e-16)
(-16.464 0.00730043 -1.40235e-16)
(-16.4632 0.00623556 -1.3853e-16)
(-16.4624 0.00500564 -1.3706e-16)
(-16.4615 0.00358605 -1.35772e-16)
(-16.4606 0.0019482 -1.34653e-16)
(-16.4597 5.90072e-05 -1.33671e-16)
(-16.4588 -0.00211962 -1.32852e-16)
(-16.4578 -0.00463168 -1.32268e-16)
(-16.4568 -0.00752817 -1.30044e-16)
(-16.4557 -0.0108679 -1.28489e-16)
(-16.4546 -0.0147185 -1.29392e-16)
(-16.4534 -0.0191583 -1.30129e-16)
(-16.4521 -0.0242776 -1.30865e-16)
(-16.4508 -0.0301801 -1.31767e-16)
(-16.4493 -0.0369858 -1.31003e-16)
(-16.4477 -0.0448323 -1.30967e-16)
(-16.446 -0.0538779 -1.33541e-16)
(-16.4442 -0.0643045 -1.36105e-16)
(-16.4422 -0.0763199 -1.38868e-16)
(-16.4399 -0.0901617 -1.42004e-16)
(-16.4375 -0.1061 -1.45577e-16)
(-16.4347 -0.124441 -1.48702e-16)
(-16.4316 -0.145528 -1.53284e-16)
(-16.4281 -0.169746 -1.58053e-16)
(-16.4242 -0.197519 -1.64036e-16)
(-16.4197 -0.229307 -1.73788e-16)
(-16.4145 -0.265602 -1.84636e-16)
(-16.4087 -0.306917 -1.9637e-16)
(-16.402 -0.35376 -2.08921e-16)
(-16.3943 -0.406597 -2.25643e-16)
(-16.3855 -0.465823 -2.50446e-16)
(-16.3752 -0.531774 -2.80192e-16)
(-16.4776 -0.00534583 2.22414e-16)
(-16.4741 -0.0053065 2.24815e-16)
(-16.4729 -0.00527192 2.27245e-16)
(-16.472 -0.00525342 2.27778e-16)
(-16.4713 -0.00525578 2.28807e-16)
(-16.4706 -0.00528175 2.32216e-16)
(-16.4699 -0.00533393 2.35479e-16)
(-16.4692 -0.00541526 2.38631e-16)
(-16.4685 -0.00552932 2.41855e-16)
(-16.4678 -0.00568034 2.43179e-16)
(-16.4671 -0.00587342 2.4496e-16)
(-16.4664 -0.00611452 2.49003e-16)
(-16.4657 -0.00641053 2.52773e-16)
(-16.4651 -0.00676937 2.56423e-16)
(-16.4644 -0.00720036 2.60086e-16)
(-16.4638 -0.00771417 2.61894e-16)
(-16.4631 -0.00832311 2.64208e-16)
(-16.4625 -0.00904143 2.68795e-16)
(-16.4619 -0.00988551 2.73066e-16)
(-16.4613 -0.0108743 2.77139e-16)
(-16.4607 -0.0120298 2.81113e-16)
(-16.4601 -0.0133772 2.8503e-16)
(-16.4596 -0.0149457 2.88955e-16)
(-16.4591 -0.0167689 2.92874e-16)
(-16.4585 -0.0188856 2.96853e-16)
(-16.4581 -0.0213408 3.00736e-16)
(-16.4576 -0.0241862 3.07235e-16)
(-16.4572 -0.0274817 3.12845e-16)
(-16.4568 -0.0312962 3.15738e-16)
(-16.4565 -0.0357096 3.1956e-16)
(-16.4562 -0.0408138 3.23876e-16)
(-16.456 -0.0467148 3.28419e-16)
(-16.4558 -0.0535353 3.35291e-16)
(-16.4557 -0.0614161 3.4201e-16)
(-16.4557 -0.0705198 3.46944e-16)
(-16.4557 -0.0810331 3.5273e-16)
(-16.4559 -0.0931705 3.59431e-16)
(-16.4561 -0.107178 3.66854e-16)
(-16.4564 -0.123336 3.7717e-16)
(-16.4567 -0.141963 3.87153e-16)
(-16.4572 -0.16342 3.96422e-16)
(-16.4578 -0.188112 4.10886e-16)
(-16.4584 -0.216487 4.27079e-16)
(-16.4591 -0.249039 4.43208e-16)
(-16.4597 -0.286297 4.64531e-16)
(-16.4602 -0.328819 4.87923e-16)
(-16.4606 -0.377169 5.16157e-16)
(-16.4607 -0.431881 5.51966e-16)
(-16.4603 -0.493425 5.92786e-16)
(-16.4591 -0.562211 6.41035e-16)
(-16.4432 -0.00731682 -5.66292e-16)
(-16.4448 -0.00741372 -5.67357e-16)
(-16.4446 -0.00755259 -5.68311e-16)
(-16.4441 -0.0077186 -5.71243e-16)
(-16.4435 -0.00790462 -5.73487e-16)
(-16.4428 -0.00810921 -5.73225e-16)
(-16.4421 -0.0083329 -5.73311e-16)
(-16.4414 -0.00857731 -5.73544e-16)
(-16.4407 -0.00884472 -5.73746e-16)
(-16.44 -0.00913821 -5.75813e-16)
(-16.4393 -0.00946151 -5.77332e-16)
(-16.4386 -0.00981905 -5.76563e-16)
(-16.4379 -0.0102161 -5.76106e-16)
(-16.4373 -0.010659 -5.75839e-16)
(-16.4366 -0.0111551 -5.75547e-16)
(-16.436 -0.0117132 -5.77146e-16)
(-16.4353 -0.0123435 -5.78249e-16)
(-16.4347 -0.0130583 -5.77164e-16)
(-16.4341 -0.0138716 -5.7648e-16)
(-16.4335 -0.0148001 -5.76089e-16)
(-16.433 -0.0158632 -5.75931e-16)
(-16.4325 -0.0170835 -5.75947e-16)
(-16.432 -0.0184878 -5.76169e-16)
(-16.4315 -0.0201068 -5.76553e-16)
(-16.4311 -0.0219767 -5.77198e-16)
(-16.4308 -0.0241396 -5.78155e-16)
(-16.4305 -0.0266447 -5.77596e-16)
(-16.4303 -0.0295489 -5.77866e-16)
(-16.4301 -0.0329187 -5.80907e-16)
(-16.4301 -0.0368315 -5.83973e-16)
(-16.4302 -0.0413768 -5.87436e-16)
(-16.4304 -0.0466588 -5.91429e-16)
(-16.4308 -0.0527985 -5.94311e-16)
(-16.4313 -0.0599357 -5.9851e-16)
(-16.432 -0.0682322 -6.06069e-16)
(-16.4329 -0.077875 -6.14301e-16)
(-16.4341 -0.0890793 -6.23718e-16)
(-16.4356 -0.102092 -6.34544e-16)
(-16.4374 -0.117198 -6.47102e-16)
(-16.4395 -0.134718 -6.60616e-16)
(-16.4419 -0.15502 -6.77392e-16)
(-16.4448 -0.178515 -6.96338e-16)
(-16.448 -0.205661 -7.18937e-16)
(-16.4516 -0.236964 -7.48128e-16)
(-16.4555 -0.272968 -7.81819e-16)
(-16.4597 -0.314247 -8.2049e-16)
(-16.4638 -0.361386 -8.64863e-16)
(-16.4677 -0.414945 -9.19445e-16)
(-16.4711 -0.475413 -9.89197e-16)
(-16.4733 -0.543174 -1.07323e-15)
(-16.488 0.0116192 8.36287e-16)
(-16.4848 0.011784 8.39561e-16)
(-16.4838 0.0119601 8.42802e-16)
(-16.4831 0.0121237 8.44233e-16)
(-16.4825 0.0122654 8.46308e-16)
(-16.4819 0.0123808 8.50704e-16)
(-16.4813 0.0124664 8.54902e-16)
(-16.4808 0.0125186 8.5898e-16)
(-16.4802 0.0125329 8.63179e-16)
(-16.4797 0.0125042 8.65562e-16)
(-16.4791 0.0124266 8.6862e-16)
(-16.4786 0.0122935 8.74063e-16)
(-16.4781 0.0120972 8.79283e-16)
(-16.4776 0.0118291 8.84444e-16)
(-16.4772 0.0114791 8.89746e-16)
(-16.4768 0.011036 8.93312e-16)
(-16.4764 0.0104867 8.9757e-16)
(-16.476 0.00981651 9.04315e-16)
(-16.4757 0.00900826 9.10894e-16)
(-16.4755 0.00804261 9.17479e-16)
(-16.4753 0.0068973 9.24186e-16)
(-16.4752 0.00554675 9.31076e-16)
(-16.4751 0.00396172 9.38233e-16)
(-16.4752 0.0021087 9.45654e-16)
(-16.4754 -5.09593e-05 9.53435e-16)
(-16.4757 -0.00256147 9.61416e-16)
(-16.4761 -0.00547355 9.71723e-16)
(-16.4767 -0.00884559 9.81844e-16)
(-16.4775 -0.0127447 9.9023e-16)
(-16.4785 -0.0172481 9.99454e-16)
(-16.4798 -0.0224446 1.00961e-15)
(-16.4814 -0.0284361 1.0204e-15)
(-16.4833 -0.0353404 1.03397e-15)
(-16.4856 -0.0432928 1.04783e-15)
(-16.4883 -0.0524494 1.06054e-15)
(-16.4916 -0.0629896 1.07478e-15)
(-16.4954 -0.0751203 1.09069e-15)
(-16.4999 -0.0890795 1.10812e-15)
(-16.5051 -0.105141 1.12946e-15)
(-16.5112 -0.123619 1.1515e-15)
(-16.5183 -0.144874 1.17418e-15)
(-16.5263 -0.169317 1.20358e-15)
(-16.5356 -0.197415 1.23668e-15)
(-16.546 -0.229697 1.272e-15)
(-16.5577 -0.266747 1.31542e-15)
(-16.5706 -0.309207 1.36435e-15)
(-16.5848 -0.357765 1.42239e-15)
(-16.6 -0.413129 1.49319e-15)
(-16.6159 -0.475979 1.57528e-15)
(-16.6322 -0.546889 1.67506e-15)
(-16.3939 -0.0259049 -9.67335e-16)
(-16.3952 -0.0261548 -9.70487e-16)
(-16.3949 -0.0264736 -9.73589e-16)
(-16.3943 -0.0268261 -9.78492e-16)
(-16.3936 -0.0271962 -9.82796e-16)
(-16.3929 -0.0275796 -9.84666e-16)
(-16.3922 -0.0279758 -9.86831e-16)
(-16.3914 -0.028386 -9.89092e-16)
(-16.3907 -0.0288123 -9.91325e-16)
(-16.39 -0.0292572 -9.95336e-16)
(-16.3893 -0.029724 -9.98722e-16)
(-16.3886 -0.030216 -9.9976e-16)
(-16.388 -0.0307378 -1.00107e-15)
(-16.3874 -0.0312945 -1.00253e-15)
(-16.3868 -0.0318921 -1.00391e-15)
(-16.3862 -0.0325378 -1.00717e-15)
(-16.3857 -0.0332399 -1.00983e-15)
(-16.3852 -0.0340084 -1.01017e-15)
(-16.3848 -0.0348549 -1.01083e-15)
(-16.3844 -0.0357931 -1.01174e-15)
(-16.3842 -0.0368393 -1.01278e-15)
(-16.384 -0.0380123 -1.01395e-15)
(-16.3838 -0.0393345 -1.01523e-15)
(-16.3838 -0.0408319 -1.01665e-15)
(-16.384 -0.0425352 -1.01827e-15)
(-16.3842 -0.0444801 -1.02021e-15)
(-16.3847 -0.0467085 -1.02061e-15)
(-16.3853 -0.0492695 -1.02189e-15)
(-16.3861 -0.0522202 -1.026e-15)
(-16.3872 -0.0556277 -1.03025e-15)
(-16.3886 -0.0595705 -1.03502e-15)
(-16.3903 -0.0641398 -1.04053e-15)
(-16.3924 -0.0694426 -1.04512e-15)
(-16.395 -0.0756039 -1.05133e-15)
(-16.398 -0.0827699 -1.06132e-15)
(-16.4016 -0.0911111 -1.07254e-15)
(-16.4059 -0.100827 -1.08558e-15)
(-16.411 -0.112152 -1.10083e-15)
(-16.4168 -0.125357 -1.11884e-15)
(-16.4237 -0.140761 -1.13903e-15)
(-16.4316 -0.158736 -1.16396e-15)
(-16.4406 -0.179714 -1.19278e-15)
(-16.451 -0.204196 -1.2275e-15)
(-16.4627 -0.23276 -1.27127e-15)
(-16.4757 -0.266063 -1.32271e-15)
(-16.4902 -0.30484 -1.38284e-15)
(-16.5058 -0.349892 -1.45328e-15)
(-16.5222 -0.402086 -1.5396e-15)
(-16.539 -0.462295 -1.6484e-15)
(-16.555 -0.53124 -1.78022e-15)
(-16.5025 0.0264007 1.52651e-15)
(-16.5001 0.0267106 1.53167e-15)
(-16.4994 0.027071 1.53679e-15)
(-16.4989 0.0274411 1.54001e-15)
(-16.4985 0.0278038 1.54387e-15)
(-16.4981 0.0281523 1.55003e-15)
(-16.4978 0.0284819 1.55596e-15)
(-16.4975 0.0287884 1.56175e-15)
(-16.4971 0.0290672 1.56764e-15)
(-16.4968 0.0293136 1.57175e-15)
(-16.4965 0.0295221 1.57679e-15)
(-16.4963 0.0296868 1.58441e-15)
(-16.496 0.029801 1.59171e-15)
(-16.4958 0.0298568 1.59909e-15)
(-16.4957 0.0298458 1.60666e-15)
(-16.4956 0.0297578 1.61264e-15)
(-16.4955 0.0295817 1.61938e-15)
(-16.4955 0.0293043 1.62874e-15)
(-16.4956 0.0289108 1.63798e-15)
(-16.4957 0.0283841 1.64736e-15)
(-16.496 0.0277045 1.65691e-15)
(-16.4964 0.0268496 1.6668e-15)
(-16.4969 0.0257934 1.67705e-15)
(-16.4976 0.024506 1.68776e-15)
(-16.4984 0.0229531 1.69896e-15)
(-16.4995 0.0210954 1.71062e-15)
(-16.5008 0.0188871 1.72477e-15)
(-16.5024 0.0162758 1.73899e-15)
(-16.5043 0.013201 1.75167e-15)
(-16.5067 0.00959274 1.76555e-15)
(-16.5094 0.00537029 1.78062e-15)
(-16.5127 0.00044044 1.79677e-15)
(-16.5166 -0.00530476 1.81622e-15)
(-16.5211 -0.0119903 1.83665e-15)
(-16.5265 -0.0197608 1.85656e-15)
(-16.5328 -0.0287843 1.87892e-15)
(-16.5402 -0.0392558 1.90397e-15)
(-16.5488 -0.0514018 1.93182e-15)
(-16.5588 -0.0654863 1.96498e-15)
(-16.5704 -0.0818167 2.0006e-15)
(-16.5839 -0.100752 2.03888e-15)
(-16.5994 -0.12271 2.08611e-15)
(-16.6173 -0.148181 2.13974e-15)
(-16.6379 -0.177739 2.19857e-15)
(-16.6612 -0.21205 2.26943e-15)
(-16.6877 -0.251876 2.35029e-15)
(-16.7173 -0.298081 2.4459e-15)
(-16.75 -0.351686 2.56071e-15)
(-16.7856 -0.413876 2.69498e-15)
(-16.8232 -0.485786 2.85648e-15)
(-16.2757 -0.0410289 -1.94631e-15)
(-16.2764 -0.0415164 -1.95744e-15)
(-16.2759 -0.0420876 -1.96889e-15)
(-16.2751 -0.0426984 -1.98251e-15)
(-16.2743 -0.0433263 -1.9959e-15)
(-16.2734 -0.0439676 -2.00724e-15)
(-16.2725 -0.0446235 -2.01926e-15)
(-16.2717 -0.0452965 -2.03184e-15)
(-16.2709 -0.0459894 -2.04474e-15)
(-16.27 -0.0467055 -2.05993e-15)
(-16.2693 -0.0474481 -2.07473e-15)
(-16.2685 -0.0482211 -2.0875e-15)
(-16.2678 -0.0490288 -2.10076e-15)
(-16.2671 -0.0498758 -2.11446e-15)
(-16.2665 -0.0507677 -2.12816e-15)
(-16.2659 -0.0517109 -2.14398e-15)
(-16.2654 -0.0527128 -2.1591e-15)
(-16.2649 -0.053782 -2.17187e-15)
(-16.2646 -0.0549283 -2.18486e-15)
(-16.2643 -0.0561635 -2.19803e-15)
(-16.2641 -0.057501 -2.21114e-15)
(-16.2641 -0.0589563 -2.22423e-15)
(-16.2643 -0.0605478 -2.23719e-15)
(-16.2646 -0.0622965 -2.25007e-15)
(-16.265 -0.064227 -2.2628e-15)
(-16.2658 -0.0663678 -2.27556e-15)
(-16.2668 -0.0687521 -2.28627e-15)
(-16.268 -0.0714184 -2.29756e-15)
(-16.2697 -0.0744115 -2.31136e-15)
(-16.2717 -0.0777836 -2.32502e-15)
(-16.2742 -0.0815953 -2.339e-15)
(-16.2772 -0.0859173 -2.35373e-15)
(-16.2808 -0.0908321 -2.36683e-15)
(-16.2852 -0.096436 -2.3823e-15)
(-16.2903 -0.102842 -2.40268e-15)
(-16.2964 -0.110182 -2.42434e-15)
(-16.3036 -0.118613 -2.44857e-15)
(-16.3119 -0.12832 -2.47589e-15)
(-16.3217 -0.139523 -2.50696e-15)
(-16.3331 -0.152485 -2.54151e-15)
(-16.3462 -0.167524 -2.58205e-15)
(-16.3615 -0.185027 -2.62808e-15)
(-16.379 -0.205468 -2.68188e-15)
(-16.399 -0.229436 -2.7472e-15)
(-16.4217 -0.257669 -2.8228e-15)
(-16.4472 -0.291068 -2.91082e-15)
(-16.4757 -0.330737 -3.01355e-15)
(-16.507 -0.378106 -3.13793e-15)
(-16.5405 -0.435073 -3.29165e-15)
(-16.5745 -0.503678 -3.47701e-15)
(-16.4545 0.037169 2.34488e-15)
(-16.4536 0.0375635 2.35839e-15)
(-16.4538 0.0381053 2.3725e-15)
(-16.4541 0.0387072 2.38513e-15)
(-16.4545 0.0393353 2.3989e-15)
(-16.4549 0.0399752 2.41557e-15)
(-16.4553 0.0406194 2.43238e-15)
(-16.4558 0.0412632 2.44958e-15)
(-16.4562 0.0419029 2.46721e-15)
(-16.4567 0.0425352 2.48348e-15)
(-16.4572 0.0431568 2.50075e-15)
(-16.4577 0.043764 2.52091e-15)
(-16.4583 0.044353 2.541e-15)
(-16.4589 0.0449192 2.56137e-15)
(-16.4596 0.0454577 2.58206e-15)
(-16.4604 0.0459624 2.60121e-15)
(-16.4612 0.0464266 2.62131e-15)
(-16.4621 0.0468424 2.64428e-15)
(-16.4631 0.0472006 2.66722e-15)
(-16.4642 0.0474907 2.69048e-15)
(-16.4655 0.0477001 2.7141e-15)
(-16.467 0.0478145 2.73826e-15)
(-16.4686 0.0478171 2.76299e-15)
(-16.4704 0.0476882 2.7884e-15)
(-16.4726 0.0474052 2.81455e-15)
(-16.475 0.0469415 2.84145e-15)
(-16.4777 0.0462661 2.87124e-15)
(-16.4809 0.045343 2.90156e-15)
(-16.4846 0.0441299 2.93075e-15)
(-16.4887 0.0425777 2.96184e-15)
(-16.4936 0.0406285 2.99475e-15)
(-16.4991 0.0382147 3.02952e-15)
(-16.5055 0.0352568 3.06827e-15)
(-16.5129 0.0316611 3.1086e-15)
(-16.5214 0.0273169 3.14861e-15)
(-16.5313 0.0220929 3.19124e-15)
(-16.5427 0.0158326 3.23627e-15)
(-16.5558 0.00834863 3.2835e-15)
(-16.5711 -0.000584759 3.33497e-15)
(-16.5887 -0.0112417 3.38724e-15)
(-16.6091 -0.023957 3.43978e-15)
(-16.6327 -0.0391424 3.49873e-15)
(-16.6601 -0.0573093 3.56061e-15)
(-16.6917 -0.0791031 3.62377e-15)
(-16.7282 -0.105345 3.69526e-15)
(-16.7703 -0.137054 3.77051e-15)
(-16.8186 -0.175444 3.85374e-15)
(-16.8741 -0.222038 3.94923e-15)
(-16.9372 -0.279026 4.05525e-15)
(-17.0065 -0.349197 4.17924e-15)
(-15.6743 -0.0497113 -3.36228e-16)
(-15.6748 -0.0505841 -3.44604e-16)
(-15.6745 -0.0514131 -3.53451e-16)
(-15.6739 -0.0522653 -3.64917e-16)
(-15.6734 -0.0531315 -3.76106e-16)
(-15.6728 -0.0540153 -3.8502e-16)
(-15.6723 -0.0549205 -3.94949e-16)
(-15.6717 -0.0558514 -4.05504e-16)
(-15.6712 -0.0568116 -4.16491e-16)
(-15.6707 -0.0578049 -4.30163e-16)
(-15.6702 -0.0588353 -4.43475e-16)
(-15.6698 -0.0599067 -4.54654e-16)
(-15.6694 -0.0610237 -4.66861e-16)
(-15.669 -0.0621912 -4.79816e-16)
(-15.6687 -0.0634147 -4.93242e-16)
(-15.6685 -0.0647005 -5.09505e-16)
(-15.6684 -0.0660556 -5.25511e-16)
(-15.6683 -0.0674881 -5.3946e-16)
(-15.6684 -0.0690071 -5.54647e-16)
(-15.6685 -0.070623 -5.70754e-16)
(-15.6689 -0.0723478 -5.87686e-16)
(-15.6694 -0.0741952 -6.05439e-16)