/*--------------------------------*- C++ -*----------------------------------*\
  =========                 |
  \\      /  F ield         | OpenFOAM: The Open Source CFD Toolbox
   \\    /   O peration     | Website:  https://openfoam.org
    \\  /    A nd           | Version:  8
     \\/     M anipulation  |
\*---------------------------------------------------------------------------*/
FoamFile
{
    version     2.0;
    format      ascii;
    class       volScalarField;
    location    "500";
    object      alphat;
}
// * * * * * * * * * * * * * * * * * * * * * * * * * * * * * * * * * * * * * //

dimensions      [1 -1 -1 0 0 0 0];

internalField   nonuniform List<scalar> 
8400
(
0.144999
0.144487
0.143991
0.143504
0.143024
0.142549
0.142074
0.141599
0.141123
0.140642
0.14016
0.139674
0.139185
0.138692
0.138197
0.1377
0.1372
0.136701
0.136202
0.135706
0.135213
0.134723
0.13424
0.133762
0.133293
0.132833
0.132383
0.131941
0.131509
0.131086
0.130673
0.13027
0.129875
0.129487
0.129103
0.128724
0.12835
0.127979
0.12761
0.127241
0.126873
0.126507
0.126142
0.12578
0.125421
0.125071
0.124731
0.124408
0.124111
0.123852
0.0737236
0.0738203
0.0739202
0.0740239
0.0741318
0.0742448
0.0743629
0.0744858
0.0746149
0.0747496
0.0748904
0.075038
0.075192
0.0753525
0.0755191
0.075691
0.0758677
0.0760494
0.0762358
0.0764265
0.0766207
0.0768179
0.0770177
0.07722
0.0774247
0.0776314
0.0778392
0.0780471
0.0782552
0.0784639
0.0786738
0.0788844
0.079094
0.0793015
0.079508
0.0797154
0.0799236
0.0801312
0.0803372
0.0805417
0.080746
0.0809495
0.0811508
0.0813495
0.0815464
0.0817404
0.0819299
0.0821161
0.0822968
0.0824665
0.0770919
0.0772022
0.0773146
0.0774289
0.0775446
0.0776623
0.077782
0.0779046
0.0780276
0.0781562
0.0782866
0.0784213
0.07856
0.0787018
0.0788464
0.0789937
0.0791442
0.0792981
0.0794552
0.0796151
0.0797777
0.0799427
0.0801099
0.0802794
0.080452
0.0806276
0.0808046
0.0809825
0.0811621
0.081344
0.081528
0.081713
0.0818982
0.0820841
0.0822721
0.0824623
0.0826537
0.0828452
0.0830366
0.0832284
0.0834206
0.0836123
0.0838031
0.0839936
0.084183
0.0843702
0.0845571
0.0847447
0.0849286
0.0851125
0.0770225
0.0771852
0.0773497
0.0775144
0.0776768
0.0778362
0.0779911
0.0781424
0.0782893
0.0784318
0.0785705
0.0787058
0.0788371
0.078965
0.0790901
0.0792129
0.0793343
0.0794555
0.0795772
0.0796999
0.0798238
0.0799493
0.0800778
0.080211
0.0803492
0.0804916
0.0806382
0.0807899
0.080947
0.08111
0.0812785
0.0814519
0.0816297
0.0818124
0.0819999
0.0821915
0.0823856
0.0825814
0.0827797
0.0829807
0.0831832
0.0833868
0.0835928
0.0838016
0.0840126
0.0842268
0.0844463
0.08467
0.0849007
0.0851443
0.0724839
0.0727069
0.0729326
0.0731567
0.073375
0.0735848
0.0737857
0.073973
0.0741494
0.0743125
0.0744632
0.0746019
0.0747289
0.0748453
0.0749522
0.0750511
0.0751446
0.0752345
0.0753221
0.075409
0.075497
0.0755881
0.0756845
0.075788
0.0758996
0.0760201
0.0761496
0.0762887
0.0764381
0.0765982
0.0767684
0.0769476
0.0771348
0.0773291
0.0775296
0.0777351
0.0779444
0.0781574
0.0783741
0.0785937
0.0788153
0.0790396
0.0792669
0.079498
0.0797347
0.079981
0.0802378
0.0805054
0.0807969
0.081107
0.0656769
0.0658938
0.0661149
0.066334
0.0665471
0.0667488
0.0669376
0.0671121
0.0672713
0.0674145
0.0675423
0.0676551
0.0677536
0.0678387
0.0679129
0.0679789
0.0680387
0.0680945
0.0681485
0.0682036
0.0682622
0.0683262
0.0683981
0.0684799
0.0685728
0.068677
0.0687927
0.0689206
0.0690613
0.0692141
0.0693779
0.069551
0.0697322
0.0699203
0.070114
0.0703115
0.0705123
0.0707164
0.0709227
0.0711302
0.0713385
0.0715484
0.0717609
0.0719773
0.0722014
0.0724358
0.0726828
0.0729497
0.0732392
0.0735557
0.0603237
0.0604383
0.0605589
0.0606787
0.0607952
0.0609065
0.0610093
0.061104
0.0611886
0.0612637
0.0613292
0.0613851
0.0614325
0.0614726
0.0615066
0.0615366
0.0615649
0.0615937
0.0616241
0.0616563
0.0616918
0.061733
0.0617822
0.0618404
0.061907
0.0619815
0.0620646
0.0621571
0.0622589
0.0623688
0.0624851
0.0626068
0.0627336
0.0628649
0.0629986
0.0631335
0.0632695
0.0634066
0.0635446
0.0636829
0.0638219
0.0639615
0.0641024
0.0642463
0.0643952
0.0645504
0.0647141
0.0648963
0.0650947
0.0653188
0.0583217
0.0583058
0.0582992
0.0583005
0.058308
0.0583175
0.0583303
0.058344
0.0583578
0.0583718
0.0583847
0.0583958
0.0584051
0.0584144
0.0584254
0.0584379
0.0584504
0.0584621
0.0584735
0.0584865
0.0585025
0.0585217
0.0585442
0.05857
0.0585987
0.0586307
0.0586663
0.0587051
0.0587464
0.05879
0.0588368
0.0588868
0.0589388
0.058991
0.0590431
0.0590966
0.0591527
0.0592109
0.0592694
0.0593273
0.0593834
0.0594381
0.0594937
0.0595515
0.0596093
0.059672
0.0597429
0.059817
0.0599016
0.0599974
0.0586862
0.0585689
0.0584678
0.0583839
0.0583142
0.0582551
0.0582084
0.0581691
0.0581358
0.0581067
0.0580807
0.058058
0.0580395
0.0580239
0.0580096
0.0579952
0.0579819
0.0579713
0.0579631
0.0579564
0.0579506
0.0579461
0.0579446
0.0579463
0.0579495
0.0579533
0.0579586
0.0579659
0.0579751
0.0579861
0.0579993
0.0580153
0.0580331
0.0580517
0.0580704
0.0580897
0.0581099
0.0581301
0.0581505
0.058171
0.0581922
0.0582152
0.0582378
0.0582554
0.0582717
0.0582885
0.0583045
0.0583186
0.0583347
0.058353
0.0598703
0.0597016
0.0595779
0.0594505
0.0593347
0.0592339
0.0591406
0.0590593
0.0589844
0.0589096
0.0588389
0.0587639
0.0586955
0.058632
0.058566
0.0585032
0.0584483
0.0583989
0.0583524
0.0583112
0.0582778
0.0582513
0.0582297
0.058209
0.0581858
0.0581645
0.0581498
0.0581385
0.0581285
0.0581231
0.0581263
0.0581384
0.0581541
0.0581678
0.0581811
0.0581992
0.0582206
0.0582419
0.0582614
0.0582798
0.0583003
0.0583251
0.0583449
0.0583549
0.0583727
0.0583836
0.0583904
0.0583972
0.0583901
0.0583966
0.0608454
0.0606017
0.060577
0.0604097
0.0603178
0.06027
0.0601331
0.0600549
0.0600132
0.0599852
0.0599526
0.059813
0.0596808
0.0596694
0.0596428
0.0595137
0.0593513
0.0592408
0.0591714
0.059104
0.0590354
0.0589769
0.0589347
0.0588928
0.0588316
0.0587676
0.0587069
0.0586243
0.0585244
0.058445
0.0584114
0.0584191
0.0584424
0.0584623
0.0584891
0.0585363
0.0585817
0.0586099
0.0586262
0.0586369
0.0586658
0.058707
0.0587073
0.0587004
0.0587423
0.0587466
0.0587338
0.0587248
0.0587002
0.0586681
0.0611478
0.0610667
0.0609932
0.0609193
0.0608504
0.0607794
0.0607116
0.0606501
0.0605913
0.060535
0.0604749
0.0604121
0.0603509
0.0602915
0.0602258
0.0601543
0.0600864
0.0600229
0.0599577
0.05989
0.0598231
0.0597613
0.059706
0.0596525
0.0596008
0.0595549
0.0595116
0.0594633
0.0594079
0.0593522
0.0593056
0.0592693
0.0592385
0.05921
0.0591857
0.0591682
0.05916
0.0591562
0.0591438
0.0591217
0.0591187
0.0591279
0.0591025
0.0591084
0.0591347
0.059101
0.0590769
0.0591105
0.0590704
0.0590338
0.0611901
0.0611423
0.0610985
0.0610523
0.0610064
0.0609604
0.0609159
0.0608724
0.0608274
0.0607825
0.0607378
0.0606911
0.0606459
0.0606051
0.0605656
0.0605244
0.0604815
0.0604378
0.0603954
0.0603548
0.0603142
0.0602724
0.0602296
0.0601864
0.0601436
0.0601014
0.0600591
0.0600163
0.0599736
0.0599327
0.0598936
0.0598557
0.0598195
0.0597859
0.0597549
0.0597259
0.0596992
0.0596733
0.0596449
0.0596199
0.0596032
0.0595799
0.0595579
0.0595547
0.0595304
0.0595206
0.0595015
0.0594892
0.0594809
0.059468
0.0612047
0.0611733
0.0611409
0.0611089
0.0610761
0.0610433
0.0610111
0.0609779
0.0609455
0.0609131
0.0608802
0.0608472
0.0608142
0.0607822
0.0607516
0.0607208
0.0606886
0.0606565
0.0606253
0.0605938
0.0605612
0.0605282
0.0604952
0.0604622
0.0604297
0.0603984
0.0603675
0.0603363
0.0603047
0.0602725
0.0602402
0.0602079
0.060176
0.0601452
0.0601156
0.060087
0.0600605
0.0600343
0.0600088
0.0599873
0.0599658
0.0599412
0.0599226
0.0599024
0.0598797
0.0598672
0.0598506
0.0598376
0.0598224
0.0598133
0.0612123
0.0611877
0.0611632
0.061138
0.0611127
0.0610877
0.0610625
0.0610379
0.0610136
0.0609896
0.0609646
0.0609385
0.0609128
0.0608885
0.0608647
0.0608402
0.0608153
0.0607906
0.0607655
0.0607396
0.0607135
0.0606873
0.0606607
0.0606338
0.060607
0.0605805
0.0605544
0.0605285
0.0605023
0.0604759
0.0604493
0.0604223
0.0603955
0.060369
0.0603432
0.0603184
0.0602951
0.0602731
0.060253
0.0602349
0.060215
0.0601964
0.0601807
0.0601591
0.0601477
0.0601321
0.060124
0.0601143
0.0601089
0.0601059
0.0612167
0.0611973
0.0611776
0.0611572
0.061137
0.0611175
0.0610973
0.0610765
0.0610558
0.061035
0.0610143
0.0609943
0.0609747
0.0609547
0.0609341
0.0609134
0.0608929
0.060872
0.0608508
0.0608299
0.0608092
0.0607882
0.0607672
0.0607462
0.0607252
0.0607041
0.0606829
0.0606614
0.0606395
0.0606169
0.0605936
0.0605704
0.0605479
0.0605266
0.0605065
0.0604877
0.0604699
0.0604529
0.0604375
0.0604228
0.0604087
0.0603994
0.0603913
0.0603866
0.0603875
0.060389
0.0603958
0.0604025
0.0604161
0.0604268
0.0612193
0.0612026
0.0611854
0.0611679
0.0611504
0.0611329
0.0611163
0.0610998
0.0610828
0.0610655
0.0610487
0.0610326
0.061017
0.0610018
0.0609867
0.0609712
0.0609553
0.0609395
0.060924
0.0609086
0.0608925
0.0608759
0.0608594
0.0608435
0.0608281
0.0608126
0.0607963
0.0607786
0.0607592
0.0607383
0.0607165
0.0606951
0.0606758
0.0606601
0.0606491
0.0606437
0.0606436
0.0606483
0.0606568
0.0606671
0.0606814
0.0607004
0.0607218
0.0607559
0.0607914
0.0608357
0.0608832
0.0609323
0.0609894
0.0610444
0.0612232
0.061211
0.0611979
0.0611862
0.0611753
0.061164
0.0611538
0.0611486
0.0611478
0.0611481
0.061148
0.0611492
0.0611539
0.0611626
0.0611739
0.0611854
0.0611949
0.0612014
0.0612047
0.0612054
0.0612029
0.0611994
0.0611994
0.0612084
0.0612275
0.0612513
0.0612693
0.0612696
0.0612455
0.0612172
0.0612045
0.0612056
0.0612158
0.0612298
0.0612435
0.0613088
0.0614142
0.0615442
0.0616824
0.0618137
0.0619332
0.0620423
0.0621535
0.0622742
0.0624009
0.0625301
0.0626552
0.0627722
0.0628831
0.0629853
0.061528
0.0616605
0.0615476
0.0615063
0.0616659
0.0618139
0.0619616
0.0624112
0.0629935
0.0634522
0.0636568
0.0636704
0.063626
0.0636253
0.0636845
0.0637497
0.0637583
0.0636898
0.0635966
0.0636907
0.0639435
0.0642843
0.0645444
0.0647832
0.0650378
0.0652901
0.0655396
0.0657922
0.066043
0.0662608
0.0664452
0.066664
0.0668688
0.0670695
0.0672694
0.0674557
0.0676339
0.0682062
0.0690612
0.0698825
0.0704558
0.0706612
0.0706243
0.0706113
0.0706971
0.0708374
0.0708875
0.0707653
0.0705089
0.070169
0.161479
0.163483
0.165617
0.166066
0.164516
0.162922
0.16222
0.161733
0.161215
0.160563
0.159693
0.158583
0.15721
0.15555
0.153578
0.151277
0.148642
0.14568
0.142404
0.138896
0.135637
0.132922
0.131122
0.130097
0.129559
0.128974
0.127761
0.125829
0.123488
0.121357
0.120047
0.119921
0.121371
0.124267
0.127995
0.131776
0.134689
0.135557
0.135147
0.134004
0.132334
0.130531
0.128744
0.126855
0.124929
0.123059
0.121233
0.119349
0.117436
0.115431
0.27115
0.267826
0.264636
0.261565
0.258603
0.255735
0.252948
0.250238
0.247604
0.245043
0.242552
0.240128
0.237769
0.235471
0.23323
0.231045
0.228913
0.226832
0.224801
0.222818
0.220883
0.218995
0.217152
0.215353
0.213597
0.211882
0.210206
0.208568
0.206967
0.205401
0.203871
0.202377
0.200918
0.199493
0.198103
0.196747
0.195426
0.194138
0.192883
0.191655
0.190449
0.189262
0.18809
0.186929
0.185777
0.184629
0.18348
0.182319
0.181129
0.179875
0.269218
0.263076
0.257197
0.251557
0.246154
0.240984
0.236044
0.231323
0.226808
0.222488
0.21835
0.214383
0.210574
0.206914
0.203391
0.199998
0.196727
0.193572
0.190528
0.187588
0.184749
0.182005
0.179352
0.176784
0.174295
0.171881
0.169536
0.167259
0.165046
0.162895
0.160804
0.158772
0.156796
0.154877
0.15301
0.151196
0.149431
0.147711
0.146032
0.144396
0.142802
0.141245
0.139723
0.138233
0.136774
0.135344
0.133942
0.132566
0.131215
0.129884
0.269208
0.263043
0.257122
0.251445
0.246003
0.240788
0.235789
0.230997
0.226401
0.221989
0.217751
0.213676
0.209753
0.205972
0.202325
0.198804
0.195402
0.192115
0.188936
0.18586
0.182884
0.180003
0.177212
0.174506
0.17188
0.169331
0.166854
0.164447
0.162106
0.15983
0.157616
0.155464
0.153371
0.151337
0.14936
0.14744
0.145574
0.14376
0.141995
0.140277
0.138602
0.136968
0.135372
0.133812
0.132287
0.130797
0.129341
0.127921
0.126535
0.125183
0.269208
0.263087
0.257219
0.251594
0.246199
0.241024
0.236059
0.231292
0.226715
0.222316
0.218086
0.214014
0.210091
0.206307
0.202654
0.199126
0.195717
0.19242
0.189231
0.186145
0.183158
0.180265
0.177461
0.174742
0.172104
0.169541
0.167051
0.164629
0.162275
0.159985
0.157759
0.155593
0.153488
0.151441
0.149452
0.14752
0.145641
0.143815
0.142037
0.140306
0.138619
0.136972
0.135363
0.13379
0.132252
0.130749
0.129281
0.127848
0.12645
0.125087
0.269208
0.263087
0.257216
0.251584
0.246181
0.240998
0.236024
0.23125
0.226667
0.222264
0.21803
0.213955
0.21003
0.206245
0.202593
0.199067
0.19566
0.192366
0.189182
0.186101
0.183119
0.180231
0.177433
0.17472
0.172086
0.169528
0.167042
0.164625
0.162275
0.15999
0.157767
0.155605
0.153504
0.151461
0.149476
0.147547
0.145671
0.143847
0.142072
0.140343
0.138656
0.13701
0.135401
0.133828
0.13229
0.130786
0.129317
0.127882
0.126482
0.125116
0.269208
0.263089
0.257226
0.251603
0.246212
0.241042
0.236081
0.23132
0.226749
0.222355
0.218129
0.214061
0.210141
0.206361
0.202712
0.199188
0.195783
0.192491
0.189308
0.186228
0.183248
0.180361
0.177563
0.174849
0.172214
0.169655
0.167167
0.164749
0.162396
0.160109
0.157884
0.15572
0.153617
0.151572
0.149585
0.147653
0.145774
0.143947
0.142168
0.140434
0.138743
0.137092
0.135478
0.133899
0.132356
0.130846
0.129371
0.127929
0.126522
0.125148
0.269207
0.263089
0.257227
0.251606
0.246215
0.241045
0.236084
0.231321
0.226747
0.222349
0.218119
0.214047
0.210122
0.206338
0.202685
0.199158
0.19575
0.192457
0.189273
0.186193
0.183213
0.180326
0.177529
0.174815
0.172181
0.169622
0.167135
0.164717
0.162366
0.160079
0.157856
0.155694
0.153592
0.151548
0.149562
0.14763
0.145752
0.143925
0.142146
0.140413
0.138721
0.137069
0.135454
0.133874
0.132329
0.130818
0.129341
0.127897
0.126488
0.125111
0.269207
0.263089
0.257227
0.251608
0.246221
0.241054
0.236097
0.231338
0.226766
0.222371
0.218144
0.214073
0.210151
0.206368
0.202717
0.199191
0.195785
0.192494
0.189312
0.186235
0.183256
0.180371
0.177575
0.174862
0.172228
0.16967
0.167183
0.164765
0.162413
0.160126
0.157903
0.15574
0.153637
0.151593
0.149605
0.147672
0.145792
0.143962
0.14218
0.140443
0.138748
0.137092
0.135473
0.133889
0.132339
0.130824
0.129342
0.127893
0.126478
0.125096
0.269207
0.263088
0.257227
0.251609
0.246224
0.241058
0.236101
0.231342
0.22677
0.222375
0.218146
0.214074
0.210149
0.206363
0.202709
0.199182
0.195774
0.192482
0.189299
0.186221
0.183241
0.180356
0.177559
0.174846
0.172212
0.169653
0.167166
0.164748
0.162396
0.160109
0.157886
0.155723
0.15362
0.151575
0.149587
0.147654
0.145773
0.143942
0.142159
0.14042
0.138722
0.137064
0.135443
0.133856
0.132304
0.130786
0.129302
0.127851
0.126433
0.125047
0.269207
0.263088
0.257227
0.25161
0.246225
0.241061
0.236105
0.231347
0.226776
0.222381
0.218152
0.21408
0.210154
0.206368
0.202714
0.199186
0.195779
0.192487
0.189305
0.186227
0.183249
0.180364
0.177568
0.174855
0.172222
0.169663
0.167176
0.164758
0.162407
0.16012
0.157896
0.155733
0.15363
0.151584
0.149596
0.147661
0.145779
0.143946
0.14216
0.140418
0.138718
0.137057
0.135432
0.133843
0.132287
0.130766
0.129278
0.127823
0.126401
0.125011
0.269207
0.263087
0.257227
0.25161
0.246226
0.241062
0.236107
0.231349
0.226778
0.222383
0.218154
0.214081
0.210154
0.206367
0.202712
0.199184
0.195776
0.192484
0.189301
0.186223
0.183245
0.18036
0.177564
0.174851
0.172218
0.16966
0.167173
0.164755
0.162403
0.160116
0.157892
0.155729
0.153625
0.15158
0.14959
0.147655
0.145771
0.143936
0.142148
0.140403
0.138701
0.137037
0.135409
0.133816
0.132258
0.130733
0.129242
0.127784
0.126358
0.124965
0.269207
0.263087
0.257226
0.25161
0.246226
0.241062
0.236107
0.23135
0.226778
0.222383
0.218152
0.214077
0.210149
0.20636
0.202704
0.199174
0.195765
0.192472
0.189288
0.186209
0.18323
0.180344
0.177548
0.174836
0.172202
0.169644
0.167157
0.164738
0.162387
0.1601
0.157875
0.155712
0.153609
0.151563
0.149573
0.147636
0.145751
0.143915
0.142125
0.140379
0.138674
0.137007
0.135377
0.133782
0.132221
0.130694
0.1292
0.12774
0.126311
0.124915
0.269206
0.263087
0.257225
0.251609
0.246225
0.241062
0.236107
0.23135
0.226779
0.222384
0.218154
0.214079
0.210151
0.206363
0.202708
0.199179
0.19577
0.192477
0.189293
0.186215
0.183236
0.180351
0.177556
0.174844
0.172211
0.169653
0.167166
0.164748
0.162396
0.160109
0.157885
0.155722
0.153618
0.151571
0.149579
0.147641
0.145754
0.143916
0.142123
0.140374
0.138665
0.136995
0.135361
0.133763
0.132198
0.130668
0.12917
0.127706
0.126274
0.124873
0.269206
0.263086
0.257223
0.251606
0.24622
0.241055
0.236099
0.231339
0.226765
0.222366
0.218133
0.214055
0.210124
0.206332
0.202674
0.199141
0.195729
0.192433
0.189247
0.186167
0.183186
0.180301
0.177505
0.174792
0.172159
0.1696
0.167113
0.164695
0.162344
0.160057
0.157834
0.155671
0.153567
0.15152
0.149529
0.147591
0.145704
0.143865
0.142071
0.140321
0.138611
0.136939
0.135303
0.133703
0.132137
0.130606
0.129108
0.127642
0.126208
0.124805
0.269206
0.263085
0.257221
0.251602
0.246218
0.241054
0.2361
0.231343
0.226772
0.222377
0.218147
0.214072
0.210144
0.206355
0.202698
0.199166
0.195755
0.192459
0.189274
0.186194
0.183214
0.180328
0.177532
0.174819
0.172184
0.169625
0.167137
0.164718
0.162366
0.160078
0.157853
0.155688
0.153583
0.151535
0.149542
0.147601
0.145711
0.143869
0.142071
0.140316
0.138602
0.136925
0.135286
0.133681
0.132111
0.130576
0.129073
0.127603
0.126164
0.124755
0.269206
0.263081
0.25721
0.251582
0.246187
0.241012
0.236045
0.231277
0.226696
0.222291
0.218052
0.21397
0.210035
0.20624
0.202577
0.199041
0.195627
0.192329
0.189142
0.186061
0.18308
0.180195
0.177398
0.174685
0.172052
0.169494
0.167008
0.164591
0.16224
0.159954
0.157731
0.155569
0.153466
0.15142
0.149429
0.14749
0.145601
0.143759
0.141962
0.140208
0.138493
0.136817
0.135177
0.133572
0.132003
0.130467
0.128965
0.127495
0.126056
0.124647
0.269206
0.263079
0.257211
0.25159
0.246204
0.241039
0.236082
0.231323
0.226748
0.222349
0.218113
0.214032
0.210097
0.206301
0.202636
0.199097
0.195679
0.192376
0.189185
0.186099
0.183113
0.180222
0.17742
0.174702
0.172064
0.169501
0.16701
0.164588
0.162233
0.159943
0.157716
0.15555
0.153443
0.151393
0.149398
0.147456
0.145563
0.143717
0.141916
0.140158
0.138439
0.136759
0.135117
0.133511
0.13194
0.130404
0.128903
0.127435
0.126
0.124597
0.269206
0.263034
0.257113
0.25144
0.246007
0.240803
0.235815
0.231031
0.226439
0.222027
0.217783
0.213698
0.209761
0.205966
0.202305
0.198772
0.195361
0.192068
0.188887
0.185812
0.182838
0.179959
0.17717
0.174466
0.171842
0.169294
0.166818
0.164412
0.162073
0.1598
0.15759
0.155442
0.153353
0.151322
0.149346
0.147423
0.145551
0.143726
0.141948
0.140213
0.13852
0.136868
0.135256
0.133684
0.132152
0.130661
0.12921
0.127803
0.126441
0.125131
0.269214
0.263063
0.257182
0.251547
0.246155
0.240998
0.236072
0.231362
0.226854
0.222535
0.218392
0.214415
0.210593
0.206917
0.20338
0.199974
0.196695
0.193536
0.190491
0.187554
0.18472
0.181982
0.179337
0.176776
0.174296
0.171892
0.169559
0.167297
0.165101
0.162972
0.160906
0.158902
0.156958
0.155073
0.153246
0.151473
0.149754
0.148085
0.146466
0.144894
0.14337
0.141892
0.140463
0.139082
0.137754
0.136482
0.135272
0.134135
0.133086
0.132161
0.271155
0.267822
0.264624
0.261554
0.258596
0.255736
0.252957
0.250255
0.247626
0.245066
0.242572
0.240141
0.237772
0.235463
0.233212
0.231018
0.22888
0.226796
0.224765
0.222783
0.22085
0.218964
0.217121
0.215321
0.213561
0.21184
0.210157
0.208513
0.206905
0.205334
0.203799
0.202298
0.200831
0.199397
0.197994
0.19662
0.195274
0.193955
0.19266
0.191389
0.19014
0.188912
0.187706
0.186518
0.185349
0.184197
0.18306
0.181936
0.180821
0.179709
0.178595
0.0955093
0.0883128
0.101473
0.11561
0.12551
0.129821
0.128834
0.123795
0.11651
0.108748
0.101411
0.0938275
0.0822035
0.0707098
0.0612569
0.0588769
0.0668799
0.0997742
0.251314
0.17729
0.095218
0.0886841
0.102173
0.116456
0.126382
0.130628
0.129516
0.124332
0.116934
0.109148
0.10194
0.0952461
0.0830242
0.0718538
0.0622126
0.0583624
0.0647839
0.0965163
0.249264
0.175977
0.094888
0.0890473
0.102881
0.117316
0.127266
0.131438
0.130185
0.124835
0.117298
0.109452
0.102245
0.0936964
0.0838746
0.0726532
0.0628186
0.0582877
0.0639064
0.0951441
0.248734
0.174667
0.0945223
0.0894043
0.103597
0.118191
0.128165
0.132254
0.130844
0.125306
0.117616
0.109727
0.102677
0.0951838
0.0849829
0.0734685
0.0634334
0.0582748
0.063083
0.0937997
0.248221
0.173357
0.0941207
0.0897543
0.104321
0.119081
0.129078
0.133072
0.131482
0.125727
0.117851
0.109886
0.102941
0.0958626
0.086033
0.0742834
0.0640547
0.0583193
0.0623154
0.0924859
0.247726
0.172049
0.0936829
0.0900976
0.105053
0.119985
0.130003
0.133892
0.132102
0.126102
0.118012
0.109952
0.103097
0.0961945
0.0869987
0.075096
0.0646828
0.0584177
0.0616038
0.0912015
0.247245
0.170742
0.0932073
0.0904334
0.105792
0.120902
0.130937
0.134706
0.132691
0.126417
0.118085
0.109914
0.103161
0.096563
0.0878749
0.0759023
0.0653182
0.0585665
0.0609491
0.0899484
0.246782
0.169437
0.0926929
0.0907617
0.106537
0.121832
0.13188
0.135514
0.133247
0.126663
0.118056
0.109755
0.103114
0.0970036
0.0886598
0.0766963
0.0659589
0.0587613
0.0603518
0.0887291
0.24634
0.168135
0.0921391
0.0910825
0.107287
0.12277
0.132828
0.136311
0.133764
0.126832
0.117914
0.109458
0.10293
0.0973581
0.0893579
0.0774738
0.0666033
0.0589981
0.0598122
0.0875456
0.245924
0.166835
0.0915465
0.0913957
0.10804
0.123716
0.133779
0.137093
0.134234
0.126916
0.117644
0.109005
0.102585
0.0975289
0.089949
0.0782291
0.0672493
0.059273
0.0593299
0.0863996
0.245535
0.165539
0.0909162
0.0917014
0.108796
0.124668
0.134729
0.137856
0.134652
0.126903
0.117232
0.108378
0.102056
0.0975192
0.0904166
0.078954
0.0678944
0.0595818
0.0589041
0.0852929
0.245177
0.164247
0.0902493
0.0919996
0.10955
0.125622
0.135674
0.138594
0.135011
0.126782
0.116662
0.107558
0.101323
0.0972994
0.0907471
0.0796402
0.0685358
0.0599201
0.0585333
0.0842269
0.244851
0.16296
0.0895468
0.0922895
0.110301
0.126572
0.13661
0.139302
0.135302
0.126542
0.11592
0.106523
0.100366
0.0968592
0.0909419
0.0802816
0.0691706
0.0602835
0.0582158
0.0832031
0.24456
0.161678
0.0888105
0.0925701
0.111044
0.127516
0.137531
0.139973
0.135518
0.126172
0.114987
0.105253
0.0991613
0.0961905
0.0910025
0.0808711
0.0697951
0.0606675
0.0579492
0.0822229
0.244306
0.160401
0.0880436
0.0928406
0.111774
0.128447
0.138431
0.140602
0.135649
0.125661
0.11385
0.103729
0.097686
0.0952818
0.090918
0.0813986
0.0704044
0.0610674
0.0577308
0.0812875
0.244093
0.159129
0.0872513
0.0931
0.112489
0.129359
0.139305
0.141181
0.135691
0.125
0.112495
0.101934
0.0959152
0.0941103
0.0906664
0.081851
0.0709926
0.0614782
0.0575573
0.0803981
0.243923
0.157862
0.0864399
0.0933478
0.113184
0.130247
0.140146
0.141705
0.135635
0.124181
0.110913
0.099854
0.093828
0.0926543
0.0902271
0.0822134
0.0715526
0.0618946
0.0574251
0.0795559
0.243799
0.156601
0.0856159
0.0935825
0.113852
0.131105
0.140946
0.142168
0.135479
0.123202
0.1091
0.0974838
0.091412
0.0909011
0.089588
0.0824725
0.0720764
0.062311
0.05733
0.0787617
0.243726
0.155348
0.0847858
0.0938022
0.114489
0.131924
0.1417
0.142565
0.13522
0.122063
0.107061
0.0948283
0.0886673
0.0888507
0.0887461
0.0826177
0.0725561
0.0627214
0.0572675
0.0780166
0.243707
0.154105
0.0839556
0.0940038
0.115087
0.132696
0.142401
0.142892
0.134861
0.120772
0.104807
0.0919051
0.0856078
0.0865156
0.0877068
0.0826426
0.0729836
0.0631199
0.0572327
0.077321
0.243746
0.152871
0.0831317
0.0941839
0.11564
0.133415
0.143041
0.143149
0.134407
0.119345
0.102361
0.0887458
0.0822626
0.083919
0.0864824
0.0825451
0.0733521
0.0635002
0.0572203
0.0766752
0.243845
0.151646
0.0823212
0.0943386
0.11614
0.134071
0.143617
0.143336
0.133867
0.117801
0.0997565
0.0853983
0.0786798
0.0810943
0.0850905
0.082327
0.0736558
0.0638563
0.057225
0.0760789
0.244009
0.150432
0.0815313
0.0944642
0.116581
0.13466
0.144124
0.143455
0.133256
0.116168
0.0970384
0.0819283
0.0749312
0.0780862
0.0835542
0.0819942
0.0738904
0.0641825
0.0572412
0.0755313
0.244238
0.149227
0.0807694
0.0945569
0.116957
0.135174
0.14456
0.143511
0.132588
0.114481
0.0942616
0.0784181
0.0711156
0.0749547
0.0819051
0.0815572
0.0740541
0.0644742
0.0572637
0.0750314
0.244535
0.148034
0.080042
0.0946131
0.117263
0.13561
0.144924
0.14351
0.131885
0.112777
0.0914891
0.0749639
0.0673616
0.0717807
0.080185
0.0810318
0.0741475
0.0647276
0.0572878
0.0745783
0.244901
0.146852
0.0793547
0.0946294
0.117495
0.135962
0.145215
0.14346
0.131165
0.111098
0.0887884
0.0716693
0.06382
0.0686644
0.0784438
0.0804378
0.074174
0.0649405
0.0573096
0.0741706
0.245339
0.145681
0.0787117
0.094603
0.11765
0.13623
0.145433
0.143369
0.130451
0.109483
0.0862264
0.068634
0.0606454
0.0657123
0.0767339
0.0797978
0.0741388
0.0651118
0.0573255
0.0738072
0.245848
0.144523
0.0781163
0.0945317
0.117726
0.136412
0.145582
0.143245
0.129762
0.107971
0.0838629
0.065941
0.0579665
0.0630199
0.0751031
0.0791341
0.0740487
0.0652413
0.0573326
0.0734865
0.24643
0.143377
0.0775708
0.0944145
0.117724
0.136509
0.145663
0.143096
0.129116
0.106592
0.0817456
0.0636461
0.0558561
0.0606557
0.0735896
0.0784667
0.0739104
0.0653295
0.0573284
0.073207
0.247084
0.142244
0.0770762
0.0942511
0.117643
0.136522
0.145682
0.142931
0.128526
0.10537
0.0799073
0.0617724
0.0543141
0.0586516
0.0722215
0.0778125
0.0737308
0.0653776
0.0573107
0.0729668
0.247809
0.141125
0.0766325
0.0940424
0.117488
0.136455
0.145641
0.142755
0.128003
0.104318
0.0783655
0.0603138
0.0532768
0.0570026
0.0710196
0.0771855
0.0735155
0.0653869
0.0572784
0.072764
0.248602
0.140018
0.0762386
0.0937901
0.11726
0.136312
0.145546
0.142574
0.127551
0.103443
0.0771248
0.0592436
0.0526531
0.0556811
0.0700018
0.0765973
0.0732698
0.0653597
0.0572308
0.0725966
0.249461
0.138925
0.0758925
0.0934967
0.116965
0.136097
0.145401
0.142392
0.127174
0.102746
0.0761808
0.0585254
0.0523576
0.0546378
0.069183
0.0760563
0.0729988
0.065299
0.057168
0.0724626
0.250383
0.137845
0.075592
0.0931655
0.116608
0.135816
0.14521
0.142209
0.126869
0.10222
0.0755225
0.05812
0.0523251
0.0537927
0.0685745
0.0755646
0.0727075
0.0652088
0.0570912
0.0723599
0.251361
0.136777
0.0753347
0.0928003
0.116194
0.135475
0.144977
0.142027
0.126632
0.101858
0.0751326
0.0579844
0.0525
0.0531057
0.0681169
0.0751136
0.0724002
0.0650942
0.0570026
0.0722866
0.25239
0.135722
0.0751183
0.0924053
0.11573
0.135079
0.144705
0.141845
0.126457
0.101646
0.0749858
0.0580689
0.0528247
0.052509
0.067757
0.0746918
0.0720806
0.06496
0.0569041
0.0722404
0.253465
0.134684
0.0749071
0.0919576
0.115207
0.134644
0.144423
0.141682
0.126335
0.10153
0.0749745
0.0583109
0.0533501
0.0518073
0.0675522
0.0742943
0.0717513
0.0648098
0.0567977
0.0722198
0.254581
0.133689
0.0746642
0.0914681
0.114634
0.134169
0.144127
0.141541
0.126273
0.101501
0.0750389
0.0585864
0.0539136
0.0518248
0.0673344
0.0739222
0.0714122
0.0646472
0.0566849
0.0722234
0.255733
0.132723
0.0744095
0.0909431
0.114015
0.133657
0.143818
0.141421
0.126266
0.101548
0.0751643
0.0588827
0.0545108
0.0524024
0.0671536
0.0735387
0.0710685
0.064472
0.0565649
0.0722631
0.256918
0.131786
0.074147
0.0903882
0.113356
0.133111
0.143497
0.14132
0.126311
0.101665
0.0753465
0.0591971
0.0551347
0.053357
0.0669951
0.0731327
0.0707218
0.0642906
0.0564349
0.0724836
0.258094
0.130875
0.0738798
0.0898086
0.112661
0.132533
0.143164
0.141238
0.126406
0.101852
0.0755859
0.0595294
0.0557777
0.0545212
0.0668508
0.0727042
0.0703584
0.0640999
0.0563232
0.0728662
0.259262
0.129989
0.0736108
0.0892085
0.111933
0.131926
0.14282
0.141175
0.126553
0.102111
0.0758845
0.0598785
0.0564262
0.0557625
0.0667144
0.0722543
0.0699789
0.0638998
0.056237
0.0734055
0.260425
0.129127
0.0733423
0.0885917
0.111176
0.131291
0.142466
0.141131
0.126752
0.102444
0.0762444
0.060242
0.0570612
0.0569872
0.0665797
0.0717839
0.0695842
0.0636907
0.0561782
0.0741014
0.261585
0.128287
0.0730762
0.0879611
0.110392
0.130629
0.142101
0.141106
0.127006
0.102855
0.0766676
0.0606161
0.0576616
0.058134
0.0664406
0.0712936
0.0691752
0.0634732
0.0561495
0.0749545
0.262746
0.127469
0.072814
0.0873191
0.109582
0.129941
0.141726
0.141103
0.127317
0.103345
0.0771572
0.0609981
0.0582083
0.0591626
0.0662924
0.0707845
0.0687526
0.0632482
0.0561544
0.0759661
0.263908
0.126671
0.072557
0.0866678
0.108748
0.129225
0.141341
0.141121
0.127688
0.103921
0.0777177
0.0613872
0.0586881
0.0600446
0.066131
0.070258
0.0683178
0.0630167
0.0561972
0.0771376
0.265076
0.125895
0.0723063
0.0860087
0.10789
0.128483
0.140946
0.141162
0.128121
0.104586
0.0783556
0.0617853
0.0590948
0.0607634
0.0659529
0.0697162
0.0678722
0.0627802
0.0562829
0.0784698
0.266251
0.12514
0.0720626
0.0853429
0.107008
0.127714
0.140538
0.141225
0.128618
0.105347
0.0790792
0.0621974
0.0594277
0.0613167
0.0657548
0.0691613
0.0674174
0.0625403
0.0564172
0.0799624
0.267436
0.124406
0.0718264
0.0846711
0.106102
0.126914
0.140117
0.14131
0.129184
0.106211
0.0798988
0.0626309
0.0596892
0.0617144
0.0655338
0.0685959
0.0669553
0.0622991
0.0566063
0.0816134
0.268633
0.123694
0.0715978
0.0839932
0.105171
0.126084
0.13968
0.141418
0.12982
0.107184
0.0808264
0.0630964
0.0598841
0.0619724
0.0652875
0.0680227
0.066488
0.0620592
0.0568573
0.0834193
0.269844
0.123005
0.071377
0.083309
0.104213
0.125218
0.139225
0.141546
0.13053
0.108276
0.0818759
0.0636075
0.0600193
0.0621074
0.0650147
0.0674448
0.0660179
0.0618236
0.0571776
0.0853763
0.27107
0.122339
0.0711637
0.0826177
0.103225
0.124314
0.138747
0.141692
0.131315
0.109494
0.0830624
0.0641816
0.0601055
0.0621376
0.064716
0.0668654
0.0655472
0.0615958
0.057576
0.0874811
0.272313
0.121697
0.0709576
0.0819181
0.102204
0.123366
0.138241
0.141855
0.132176
0.110847
0.0844026
0.0648392
0.0601564
0.0620817
0.0643918
0.0662876
0.0650785
0.06138
0.0580623
0.0897321
0.273575
0.121082
0.0707584
0.0812089
0.101148
0.122369
0.137701
0.14203
0.133117
0.112343
0.0859143
0.0656043
0.0601868
0.0619572
0.0640432
0.0657143
0.0646145
0.0611815
0.0586482
0.0921299
0.274858
0.120494
0.0705658
0.0804882
0.10005
0.121315
0.137121
0.142212
0.134136
0.113991
0.0876169
0.0665039
0.0602112
0.0617767
0.0636727
0.0651483
0.064158
0.0610067
0.059348
0.0946793
0.276162
0.119935
0.0703794
0.079754
0.0989061
0.120198
0.136491
0.142396
0.135233
0.115799
0.0895318
0.0675693
0.0602463
0.0615508
0.0632835
0.0645925
0.0637125
0.0608636
0.0601793
0.0973897
0.277489
0.119409
0.0701991