/*--------------------------------*- C++ -*----------------------------------*\
  =========                 |
  \\      /  F ield         | OpenFOAM: The Open Source CFD Toolbox
   \\    /   O peration     | Website:  https://openfoam.org
    \\  /    A nd           | Version:  8
     \\/     M anipulation  |
\*---------------------------------------------------------------------------*/
FoamFile
{
    version     2.0;
    format      ascii;
    class       volScalarField;
    location    "500";
    object      epsilon;
}
// * * * * * * * * * * * * * * * * * * * * * * * * * * * * * * * * * * * * * //

dimensions      [0 2 -3 0 0 0 0];

internalField   nonuniform List<scalar> 
8400
(
0.152445
0.1505
0.148608
0.146755
0.144937
0.143148
0.141385
0.139646
0.13793
0.136237
0.134566
0.13292
0.131295
0.129695
0.128118
0.126565
0.125035
0.123529
0.122046
0.120587
0.119153
0.117743
0.116359
0.115002
0.113672
0.112371
0.111099
0.109858
0.10865
0.107473
0.106329
0.105217
0.104139
0.103094
0.102082
0.101102
0.100153
0.0992336
0.0983446
0.0974839
0.0966501
0.0958434
0.0950644
0.094314
0.093593
0.092905
0.0922571
0.0916595
0.0911249
0.0906755
0.0219733
0.0220341
0.0220978
0.0221648
0.0222355
0.0223101
0.0223889
0.0224723
0.0225603
0.0226532
0.0227511
0.0228541
0.0229622
0.0230754
0.0231938
0.0233176
0.0234467
0.0235811
0.0237209
0.0238661
0.0240167
0.0241726
0.0243336
0.0244997
0.0246706
0.0248461
0.025026
0.0252103
0.0253985
0.02559
0.0257849
0.0259828
0.0261839
0.0263878
0.026594
0.0268021
0.0270122
0.0272241
0.0274377
0.0276522
0.0278675
0.0280837
0.0283008
0.0285182
0.028735
0.0289512
0.0291662
0.0293787
0.0295873
0.0297903
0.0255899
0.0256764
0.0257648
0.0258552
0.0259477
0.0260426
0.0261398
0.0262397
0.0263428
0.0264483
0.0265573
0.0266693
0.0267845
0.0269033
0.0270257
0.0271519
0.0272819
0.0274156
0.0275533
0.027695
0.0278409
0.0279909
0.028145
0.028303
0.0284649
0.0286308
0.0288007
0.0289746
0.0291521
0.0293332
0.0295177
0.0297057
0.0298974
0.0300924
0.0302901
0.0304908
0.0306947
0.0309014
0.0311105
0.0313217
0.0315353
0.0317513
0.0319693
0.032189
0.0324102
0.0326329
0.0328559
0.0330786
0.0333006
0.0335201
0.0261945
0.0263339
0.0264754
0.0266179
0.0267605
0.0269026
0.0270439
0.0271839
0.0273228
0.0274607
0.0275972
0.0277326
0.0278672
0.0280007
0.0281335
0.0282658
0.0283975
0.0285288
0.0286602
0.0287919
0.0289241
0.0290574
0.0291921
0.0293285
0.0294673
0.0296091
0.0297546
0.029904
0.0300576
0.0302159
0.0303794
0.0305485
0.0307237
0.0309048
0.0310924
0.0312866
0.0314878
0.0316957
0.0319101
0.032131
0.032359
0.0325936
0.0328345
0.033082
0.0333367
0.0335986
0.033868
0.0341464
0.0344342
0.0347326
0.0223589
0.0225355
0.0227165
0.0228992
0.0230814
0.0232616
0.0234386
0.0236124
0.0237816
0.0239465
0.0241065
0.0242615
0.0244113
0.0245561
0.0246956
0.0248299
0.0249591
0.0250834
0.0252034
0.0253196
0.0254331
0.0255443
0.0256541
0.0257635
0.0258737
0.0259861
0.0261017
0.0262218
0.0263472
0.0264789
0.0266181
0.0267657
0.0269225
0.0270889
0.0272657
0.0274532
0.0276516
0.0278608
0.0280809
0.0283123
0.0285549
0.0288084
0.0290734
0.0293508
0.029641
0.0299446
0.0302644
0.0306026
0.0309603
0.0313437
0.0167765
0.016922
0.0170736
0.0172281
0.017383
0.0175368
0.0176882
0.0178362
0.0179804
0.0181199
0.0182545
0.0183836
0.018507
0.0186246
0.0187359
0.0188409
0.0189398
0.0190331
0.0191214
0.0192051
0.019285
0.019362
0.0194374
0.0195122
0.0195878
0.0196655
0.0197466
0.0198324
0.0199239
0.0200222
0.0201283
0.0202431
0.0203674
0.0205018
0.0206467
0.0208024
0.0209691
0.0211469
0.0213362
0.021537
0.0217494
0.0219736
0.0222104
0.0224604
0.0227237
0.0230021
0.0232979
0.0236131
0.023952
0.0243197
0.0128752
0.0129435
0.0130167
0.013093
0.013171
0.0132493
0.0133274
0.0134042
0.0134795
0.0135526
0.0136232
0.0136909
0.0137555
0.0138166
0.0138742
0.0139284
0.0139792
0.0140267
0.0140715
0.0141142
0.0141553
0.0141953
0.0142348
0.0142746
0.0143156
0.0143585
0.0144041
0.0144531
0.014506
0.0145636
0.0146264
0.014695
0.0147696
0.0148505
0.0149382
0.0150328
0.0151344
0.0152434
0.0153601
0.0154845
0.0156165
0.0157566
0.0159053
0.0160625
0.0162288
0.0164061
0.0165955
0.0167979
0.0170172
0.0172562
0.0114967
0.0114898
0.0114883
0.0114913
0.0114986
0.0115093
0.0115223
0.0115374
0.0115538
0.0115711
0.0115889
0.0116068
0.0116248
0.0116426
0.0116599
0.0116766
0.0116929
0.0117088
0.0117247
0.0117404
0.0117559
0.0117713
0.0117868
0.0118028
0.0118194
0.0118369
0.0118554
0.0118753
0.0118968
0.01192
0.0119451
0.0119721
0.0120014
0.0120332
0.0120674
0.012104
0.0121434
0.0121859
0.0122316
0.0122801
0.012332
0.0123875
0.0124464
0.0125088
0.012576
0.0126477
0.0127236
0.0128062
0.0128956
0.012993
0.011639
0.0115681
0.0115091
0.0114586
0.0114166
0.0113824
0.0113545
0.0113325
0.0113149
0.0113011
0.0112907
0.0112833
0.0112777
0.0112738
0.0112714
0.0112703
0.0112705
0.0112716
0.0112733
0.0112753
0.0112779
0.011281
0.0112844
0.0112878
0.0112915
0.0112956
0.0113001
0.0113051
0.0113105
0.0113164
0.0113227
0.0113297
0.0113373
0.0113455
0.011354
0.0113628
0.0113723
0.0113824
0.0113926
0.0114032
0.0114151
0.0114278
0.0114412
0.0114557
0.011471
0.0114869
0.0115044
0.0115235
0.0115434
0.0115651
0.0123381
0.0122206
0.0121272
0.0120445
0.0119683
0.0119008
0.011841
0.0117885
0.0117427
0.0117028
0.0116654
0.0116319
0.0116016
0.0115754
0.011553
0.0115325
0.0115133
0.0114956
0.0114795
0.0114649
0.0114527
0.0114432
0.011435
0.0114276
0.0114215
0.0114164
0.0114122
0.0114096
0.0114086
0.0114087
0.0114098
0.011412
0.0114148
0.0114176
0.0114202
0.0114232
0.0114279
0.0114331
0.0114379
0.0114431
0.0114483
0.0114513
0.0114536
0.0114573
0.0114601
0.0114624
0.0114648
0.0114666
0.0114687
0.0114688
0.0129132
0.012824
0.0127338
0.0126775
0.0126083
0.012536
0.0124789
0.0124186
0.01236
0.0123111
0.0122608
0.0122076
0.0121597
0.0121138
0.0120692
0.0120274
0.0119923
0.0119569
0.0119152
0.0118713
0.0118353
0.0118115
0.0117901
0.0117652
0.0117411
0.0117179
0.0116976
0.0116852
0.011677
0.0116673
0.0116572
0.0116497
0.0116445
0.0116377
0.0116284
0.0116233
0.0116286
0.0116354
0.0116368
0.0116424
0.011652
0.0116529
0.0116533
0.0116607
0.0116634
0.0116626
0.0116625
0.0116651
0.0116589
0.0116573
0.013118
0.0130624
0.0130087
0.0129602
0.0129116
0.0128648
0.0128201
0.0127758
0.0127335
0.0126928
0.012653
0.0126141
0.0125762
0.0125389
0.0125028
0.0124684
0.0124346
0.0124006
0.0123666
0.0123332
0.0123018
0.0122725
0.0122439
0.0122152
0.0121867
0.0121585
0.0121317
0.0121072
0.0120844
0.0120618
0.0120393
0.012019
0.0120014
0.0119841
0.0119665
0.0119518
0.0119411
0.0119302
0.0119192
0.0119152
0.0119135
0.0119061
0.0119035
0.0119037
0.0118969
0.0118941
0.011896
0.0118894
0.0118844
0.0118841
0.0131413
0.0131106
0.01308
0.01305
0.0130199
0.0129906
0.0129617
0.0129327
0.0129039
0.0128758
0.0128479
0.0128202
0.0127927
0.0127653
0.0127378
0.0127107
0.0126841
0.0126579
0.012632
0.0126062
0.0125809
0.012556
0.0125315
0.0125072
0.0124829
0.012459
0.0124356
0.0124127
0.0123902
0.0123678
0.0123459
0.0123249
0.0123047
0.0122845
0.0122647
0.0122465
0.0122295
0.0122128
0.0121984
0.012187
0.012175
0.0121645
0.0121564
0.0121465
0.0121389
0.0121308
0.0121243
0.0121159
0.0121075
0.0121001
0.0131503
0.0131292
0.013108
0.0130867
0.0130658
0.013045
0.0130239
0.0130029
0.0129821
0.0129616
0.0129412
0.0129206
0.0129001
0.0128798
0.0128593
0.0128391
0.012819
0.012799
0.0127789
0.0127588
0.0127389
0.012719
0.0126991
0.0126794
0.0126597
0.01264
0.0126205
0.0126012
0.012582
0.012563
0.0125443
0.012526
0.0125079
0.01249
0.0124728
0.0124566
0.0124407
0.0124253
0.0124113
0.0123978
0.0123845
0.012373
0.012362
0.0123515
0.0123426
0.0123335
0.0123249
0.0123163
0.0123084
0.0122994
0.013155
0.013139
0.0131228
0.0131066
0.0130904
0.0130744
0.0130585
0.0130424
0.0130262
0.0130099
0.0129937
0.0129776
0.0129615
0.0129455
0.0129294
0.0129134
0.0128975
0.0128815
0.0128655
0.0128495
0.0128335
0.0128175
0.0128015
0.0127855
0.0127695
0.0127535
0.0127376
0.0127217
0.0127059
0.0126902
0.0126747
0.0126595
0.0126444
0.0126295
0.0126152
0.0126014
0.0125879
0.0125751
0.0125634
0.012552
0.0125419
0.0125331
0.0125247
0.0125182
0.012512
0.0125072
0.0125029
0.0124993
0.0124963
0.0124927
0.0131583
0.0131454
0.0131326
0.0131197
0.0131067
0.0130935
0.0130803
0.0130673
0.0130542
0.0130409
0.0130276
0.0130144
0.0130012
0.012988
0.0129749
0.0129619
0.0129489
0.0129358
0.0129227
0.0129095
0.0128963
0.0128832
0.0128701
0.012857
0.012844
0.0128311
0.0128184
0.0128058
0.0127933
0.012781
0.012769
0.0127573
0.012746
0.0127352
0.012725
0.0127154
0.0127067
0.0126994
0.0126934
0.0126889
0.0126866
0.0126859
0.0126872
0.0126906
0.0126957
0.0127025
0.0127109
0.0127202
0.0127305
0.0127409
0.01316
0.013149
0.013138
0.013127
0.0131159
0.0131047
0.0130935
0.0130825
0.0130717
0.013061
0.0130503
0.0130397
0.0130292
0.013019
0.0130089
0.0129991
0.0129895
0.01298
0.0129706
0.0129613
0.012952
0.012943
0.0129343
0.0129258
0.0129177
0.01291
0.0129027
0.0128959
0.0128897
0.012884
0.012879
0.0128749
0.0128717
0.01287
0.01287
0.0128721
0.0128769
0.012885
0.0128966
0.0129125
0.0129329
0.0129574
0.0129868
0.0130194
0.0130562
0.0130957
0.0131381
0.0131821
0.0132268
0.0132712
0.0131627
0.0131547
0.0131463
0.0131378
0.0131296
0.0131223
0.0131163
0.0131119
0.0131089
0.0131076
0.0131084
0.0131118
0.0131181
0.0131272
0.0131384
0.0131509
0.0131648
0.01318
0.0131964
0.0132134
0.0132303
0.013247
0.0132639
0.0132802
0.0132958
0.0133113
0.0133276
0.0133461
0.0133673
0.0133905
0.0134148
0.0134393
0.0134644
0.0134909
0.01352
0.0135537
0.0135943
0.0136442
0.0137051
0.0137778
0.0138614
0.0139551
0.0140576
0.0141666
0.0142806
0.0143981
0.0145193
0.0146434
0.0147699
0.0148983
0.0133765
0.0133965
0.0134251
0.0134491
0.0134692
0.0135089
0.013628
0.0137828
0.0139399
0.0140968
0.0142788
0.0145052
0.0147779
0.0150747
0.0153632
0.0156269
0.0158749
0.0161225
0.0163675
0.0165905
0.0167756
0.0169244
0.0170882
0.0172551
0.0174129
0.0175655
0.0177126
0.0178509
0.0179804
0.018108
0.0182336
0.0183353
0.018431
0.0185243
0.0186201
0.0187114
0.0187968
0.0188802
0.0189655
0.0190555
0.0191522
0.0192835
0.0194761
0.0196949
0.019915
0.0201146
0.0203091
0.0205184
0.0207488
0.0209952
0.182052
0.180057
0.179191
0.181834
0.185711
0.188281
0.188884
0.18901
0.188993
0.188881
0.188695
0.188365
0.187829
0.187012
0.185824
0.184173
0.181981
0.179183
0.175711
0.171504
0.166514
0.160733
0.154219
0.14753
0.141002
0.135148
0.130279
0.126225
0.122749
0.119558
0.116503
0.113581
0.110707
0.108195
0.106297
0.105044
0.104427
0.104554
0.105282
0.106256
0.107061
0.107281
0.106856
0.106036
0.104755
0.102993
0.100856
0.0984687
0.0958642
0.0930998
1.14672
1.1048
1.0656
1.0289
0.994384
0.961783
0.930823
0.901374
0.873328
0.846591
0.821076
0.79671
0.773426
0.751165
0.729872
0.7095
0.690002
0.671333
0.653451
0.636316
0.619887
0.604129
0.589006
0.574486
0.56054
0.547142
0.53427
0.5219
0.510012
0.498585
0.487596
0.477026
0.466854
0.457061
0.44763
0.438542
0.429779
0.421324
0.413163
0.405244
0.397546
0.390054
0.382756
0.375637
0.368679
0.361857
0.355132
0.348442
0.341679
0.334639
1.12221
1.04676
0.977958
0.915029
0.857465
0.804765
0.75651
0.712224
0.671494
0.633954
0.599285
0.567209
0.537483
0.509893
0.484249
0.46038
0.438134
0.417372
0.397969
0.379811
0.362795
0.34683
0.331832
0.31773
0.304457
0.291957
0.280176
0.269065
0.258578
0.24867
0.2393
0.23043
0.222022
0.214042
0.206453
0.199223
0.192322
0.185723
0.179402
0.173367
0.167609
0.162113
0.156864
0.15185
0.14706
0.142479
0.138095
0.13389
0.129849
0.12595
1.12212
1.04644
0.977203
0.913909
0.855972
0.802863
0.754096
0.709227
0.667865
0.629664
0.59432
0.561567
0.53117
0.502923
0.476641
0.452156
0.429319
0.407993
0.388056
0.369395
0.351909
0.335505
0.320101
0.305622
0.292004
0.279186
0.267114
0.255736
0.245005
0.234877
0.225311
0.216268
0.207712
0.199608
0.191927
0.184639
0.177715
0.171132
0.164868
0.158904
0.153223
0.147811
0.142655
0.137743
0.133064
0.128606
0.124359
0.120311
0.116451
0.112769
1.12212
1.04698
0.978339
0.915565
0.858048
0.805247
0.756681
0.711928
0.670613
0.632406
0.597018
0.564195
0.533709
0.505358
0.478964
0.454361
0.431403
0.409955
0.389894
0.371111
0.353504
0.336982
0.321463
0.306875
0.293151
0.280232
0.268064
0.256594
0.245776
0.235567
0.225923
0.216807
0.208183
0.200016
0.192274
0.184928
0.177949
0.171313
0.165
0.158989
0.153264
0.147812
0.142617
0.13767
0.132958
0.12847
0.124193
0.120117
0.11623
0.112521
1.12212
1.047
0.978334
0.915489
0.857881
0.804986
0.756335
0.711512
0.670145
0.631907
0.596505
0.563684
0.533212
0.504886
0.478523
0.453957
0.431038
0.409629
0.389608
0.370862
0.35329
0.336801
0.321314
0.306755
0.293059
0.280166
0.268022
0.256575
0.245778
0.235587
0.225961
0.21686
0.20825
0.200094
0.192361
0.185022
0.17805
0.17142
0.16511
0.159103
0.153381
0.14793
0.142737
0.13779
0.133077
0.128586
0.124305
0.120223
0.116327
0.112608
1.12212
1.04705
0.978463
0.915717
0.858214
0.805419
0.756861
0.712116
0.670816
0.63263
0.59727
0.564479
0.534029
0.505717
0.479359
0.454793
0.431867
0.410447
0.390409
0.371643
0.354049
0.337535
0.322022
0.307436
0.293714
0.280795
0.268625
0.257153
0.246331
0.236116
0.226465
0.217341
0.208706
0.200526
0.19277
0.185408
0.178413
0.171761
0.165431
0.159403
0.153661
0.14819
0.142978
0.138012
0.13328
0.12877
0.12447
0.120367
0.11645
0.112707
1.12212
1.04706
0.978496
0.91576
0.858252
0.805441
0.756855
0.712078
0.670744
0.632528
0.59714
0.564326
0.533858
0.505532
0.479167
0.454597
0.43167
0.41025
0.390214
0.37145
0.353859
0.337349
0.321841
0.307262
0.293546
0.280635
0.268472
0.257008
0.246195
0.235987
0.226343
0.217224
0.208595
0.20042
0.192669
0.185311
0.178321
0.171672
0.165345
0.15932
0.153581
0.148113
0.142903
0.137939
0.133207
0.128697
0.124394
0.120288
0.116367
0.112618
1.12213
1.04707
0.978522
0.915802
0.85831
0.805512
0.756941
0.712181
0.670865
0.632666
0.597296
0.5645
0.534049
0.505741
0.479391
0.454834
0.431917
0.410505
0.390473
0.371712
0.35412
0.337608
0.322096
0.307512
0.293791
0.280873
0.268704
0.257232
0.24641
0.236192
0.226539
0.21741
0.20877
0.200584
0.192822
0.185453
0.178451
0.171791
0.165453
0.159418
0.153668
0.148189
0.142968
0.137993
0.13325
0.128727
0.124411
0.120291
0.116355
0.11259
1.12213
1.04708
0.978535
0.91582
0.858328
0.805529
0.756952
0.712185
0.670859
0.63265
0.59727
0.564464
0.534006
0.505692
0.479338
0.454777
0.431857
0.410442
0.390407
0.371642
0.354047
0.337533
0.322019
0.307433
0.293711
0.280793
0.268624
0.257152
0.246329
0.236112
0.226458
0.21733
0.208689
0.200503
0.192739
0.185369
0.178366
0.171706
0.165367
0.159331
0.153581
0.148102
0.14288
0.137903
0.133158
0.128632
0.124312
0.120187
0.116245
0.112473
1.12213
1.04708
0.978543
0.91583
0.858338
0.805538
0.75696
0.712192
0.670865
0.632655
0.597276
0.564474
0.53402
0.505713
0.479366
0.454811
0.431896
0.410485
0.390454
0.371692
0.354099
0.337586
0.322072
0.307487
0.293764
0.280845
0.268674
0.257199
0.246374
0.236154
0.226497
0.217364
0.208719
0.200527
0.192758
0.185382
0.178374
0.171708
0.165364
0.159324
0.153568
0.148084
0.142857
0.137873
0.133121
0.128587
0.12426
0.120125
0.116172
0.112388
1.12213
1.04709
0.978547
0.915833
0.858338
0.805534
0.756952
0.712178
0.670846
0.632632
0.59725
0.564446
0.533994
0.505688
0.479343
0.454789
0.431877
0.410467
0.390438
0.371677
0.354085
0.337573
0.32206
0.307475
0.293751
0.280831
0.268659
0.257183
0.246357
0.236135
0.226475
0.21734
0.208691
0.200496
0.192723
0.185344
0.178331
0.171662
0.165315
0.159271
0.153512
0.148025
0.142793
0.137806
0.133049
0.128509
0.124174
0.120032
0.116069
0.112275
1.12213
1.04709
0.978547
0.915829
0.858329
0.805518
0.756927
0.712144
0.670803
0.632581
0.597193
0.564384
0.533928
0.505619
0.47927
0.454715
0.4318
0.41039
0.390361
0.371601
0.35401
0.337498
0.321985
0.3074
0.293676
0.280756
0.268584
0.257109
0.246282
0.23606
0.2264
0.217263
0.208614
0.200417
0.192643
0.185262
0.178248
0.171578
0.165229
0.159184
0.153425
0.147936
0.142703
0.137714
0.132954
0.128411
0.124071
0.119922
0.115952
0.112149
1.12213
1.04709
0.978543
0.915819
0.858312
0.805495
0.756899
0.712113
0.670772
0.632553
0.59717
0.564369
0.53392
0.505618
0.479277
0.454729
0.431822
0.41042
0.390398
0.371644
0.354057
0.337548
0.322037
0.307452
0.293729
0.280808
0.268634
0.257157
0.246328
0.236102
0.226437
0.217295
0.20864
0.200438
0.192657
0.185269
0.178249
0.171572
0.165217
0.159166
0.153401
0.147906
0.142668
0.137672
0.132904
0.128352
0.124003
0.119843
0.11586
0.112044
1.12213
1.04708
0.97853
0.915789
0.85826
0.805418
0.756796
0.711983
0.670617
0.632374
0.596969
0.564147
0.53368
0.505363
0.479009
0.454453
0.431541
0.410137
0.390115
0.371362
0.353777
0.337271
0.321764
0.307184
0.293467
0.280552
0.268385
0.256914
0.246091
0.235871
0.226212
0.217076
0.208426
0.200229
0.192452
0.185069
0.178053
0.17138
0.16503
0.158983
0.153223
0.147733
0.142498
0.137506
0.132741
0.128189
0.123839
0.119676
0.11569
0.111869
1.12213
1.04708
0.97851
0.915759
0.85823
0.805396
0.756791
0.712
0.670657
0.632438
0.597055
0.564252
0.533801
0.505496
0.479154
0.454607
0.431702
0.410302
0.390281
0.371527
0.353939
0.337429
0.321916
0.30733
0.293605
0.280682
0.268506
0.257026
0.246193
0.235964
0.226295
0.217148
0.208487
0.200278
0.19249
0.185095
0.178068
0.171385
0.165025
0.158969
0.1532
0.147702
0.142459
0.137458
0.132683
0.12812
0.123758
0.119582
0.115581
0.111744
1.12213
1.04704
0.978395
0.915546
0.857909
0.804967
0.756261
0.71138
0.669962
0.631681
0.59625
0.563412
0.532939
0.504624
0.47828
0.453739
0.430846
0.409462
0.38946
0.370728
0.353164
0.336679
0.321193
0.306634
0.292936
0.28004
0.267891
0.256436
0.245628
0.235422
0.225775
0.216649
0.208007
0.199816
0.192045
0.184666
0.177655
0.170987
0.164642
0.1586
0.152845
0.14736
0.14213
0.13714
0.132375
0.127821
0.123464
0.119293
0.115296
0.111461
1.12213
1.04703
0.978413
0.915636
0.85809
0.805239
0.75661
0.71179
0.670411
0.632151
0.596726
0.563881
0.533392
0.505053
0.478681
0.454107
0.431179
0.409758
0.38972
0.370951
0.353352
0.336835
0.321318
0.306729
0.293004
0.280082
0.267908
0.256431
0.245602
0.235377
0.225712
0.216568
0.20791
0.199704
0.191919
0.184529
0.177506
0.17083
0.164477
0.158431
0.152673
0.147186
0.141955
0.136966
0.132202
0.127652
0.1233
0.119137
0.115151
0.111333
1.12213
1.0465
0.977293
0.914
0.856034
0.802871
0.754034
0.709089
0.667653
0.629389
0.594001
0.561224
0.530825
0.502592
0.476336
0.451884
0.429082
0.407788
0.387877
0.369235
0.351761
0.335366
0.319968
0.305494
0.29188
0.279065
0.266996
0.255619
0.244887
0.234753
0.225177
0.216119
0.207545
0.19942
0.191715
0.184402
0.177458
0.170859
0.164585
0.158619
0.152944
0.147543
0.142404
0.137511
0.132852
0.128416
0.124194
0.12018
0.116371
0.112773
1.12224
1.04685
0.978089
0.915168
0.857574
0.804815
0.75648
0.712106
0.67129
0.633679
0.59896
0.56686
0.537134
0.509565
0.483958
0.460136
0.43794
0.417227
0.397869
0.379751
0.362773
0.346843
0.331881
0.317815
0.304582
0.292124
0.280389
0.269325
0.258886
0.249029
0.239713
0.230901
0.22256
0.214657
0.207163
0.200053
0.193306
0.186902
0.180823
0.175056
0.169586
0.164404
0.159499
0.154863
0.150492
0.146384
0.142542
0.138983
0.135745
0.132918
1.14669
1.10482
1.06567
1.02899
0.994481
0.961852
0.93084
0.901327
0.873212
0.846412
0.820849
0.796454
0.77316
0.750906
0.729632
0.709283
0.689805
0.671149
0.65327
0.636127
0.619682
0.6039
0.588751
0.574206
0.560239
0.546822
0.533929
0.521532
0.509606
0.498126
0.487068
0.476411
0.466131
0.456211
0.446631
0.437376
0.428432
0.419785
0.41142
0.403324
0.395483
0.387884
0.380512
0.373351
0.366385
0.359597
0.35297
0.346486
0.340124
0.333858
0.326537
0.0464171
0.0355209
0.054476
0.082359
0.107516
0.120518
0.118198
0.104267
0.0858024
0.0686066
0.0547763
0.0427022
0.0304086
0.0216021
0.0147225
0.0112578
0.0131494
0.0401779
0.810696
0.319464
0.046097
0.0360353
0.0556608
0.0841998
0.109759
0.12277
0.12013
0.105743
0.0868826
0.0694713
0.0556291
0.0424889
0.0309152
0.0222379
0.0153303
0.011258
0.0122284
0.0364605
0.79167
0.312479
0.0457352
0.036557
0.0568875
0.0861125
0.112086
0.125088
0.122088
0.107199
0.0879137
0.0702961
0.0565429
0.0459433
0.0319536
0.0226799
0.0156846
0.0113425
0.0118964
0.0350845
0.788174
0.305577
0.0453387
0.0370862
0.0581579
0.0881006
0.114499
0.127473
0.124066
0.108619
0.0888589
0.0709854
0.0571529
0.0461094
0.0327927
0.0231199
0.0160362
0.0114462
0.0115999
0.0337977
0.785138
0.298763
0.0449085
0.0376229
0.0594737
0.0901678
0.117002
0.129925
0.12606
0.110004
0.0897408
0.0716246
0.0578161
0.046732
0.0335706
0.023563
0.0163851
0.0115672
0.0113366
0.0325937
0.782518
0.292037
0.0444439
0.038167
0.0608369
0.0923176
0.119598
0.132441
0.128057
0.111321
0.0905066
0.0721343
0.058381
0.0475798
0.0343476
0.0240166
0.0167334
0.0117048
0.0111044
0.0314649
0.780221
0.285403
0.0439442
0.0387186
0.0622494
0.094554
0.122291
0.135022
0.130053
0.112565
0.0911457
0.0724985
0.0588062
0.0482721
0.0351168
0.024485
0.0170825
0.0118578
0.0109016
0.0304067
0.778215
0.278862
0.0434085
0.0392778
0.0637126
0.0968795
0.125081
0.137662
0.132035
0.113714
0.0916365
0.0727
0.059087
0.0487752
0.035863
0.0249683
0.0174332
0.012025
0.0107263
0.0294157
0.776493
0.272416
0.042836
0.0398447
0.0652282
0.0992971
0.12797
0.140356
0.133986
0.114745
0.0919505
0.0727122
0.0592083
0.0491557
0.0365731
0.0254646
0.0177858
0.012205
0.010577
0.0284888
0.77505
0.266068
0.0422262
0.0404195
0.0667972
0.101808
0.130957
0.143097
0.13589
0.115631
0.092058
0.0725053
0.0591457
0.0494476
0.0372467
0.0259719
0.0181407
0.0123965
0.0104519
0.0276226
0.773878
0.259819
0.0415794
0.0410023
0.0684199
0.104414
0.13404
0.145876
0.137729
0.116346
0.0919275
0.0720469
0.0588671
0.0496146
0.0378787
0.0264883
0.0184982
0.0125984
0.0103495
0.026814
0.772966
0.25367
0.040897
0.0415934
0.0700968
0.107113
0.137215
0.148683
0.139482
0.116861
0.0915266
0.0713041
0.0583381
0.0496291
0.0384586
0.0270106
0.0188582
0.0128094
0.0102683
0.0260602
0.772308
0.247623
0.0401812
0.0421933
0.0718271
0.109906
0.140479
0.151504
0.141127
0.117145
0.0908211
0.0702434
0.0575243
0.0494473
0.0389621
0.0275324
0.0192201
0.0130282
0.0102067
0.0253585
0.771901
0.241679
0.0394351
0.0428021
0.0736094
0.112788
0.143822
0.154324
0.142638
0.117167
0.0897782
0.0688326
0.0563918
0.0490287
0.0393562
0.0280435
0.0195825
0.0132534
0.0101633
0.0247065
0.771743
0.235841
0.0386617
0.0434196
0.0754402
0.115753
0.147235
0.157127
0.14399
0.116896
0.0883665
0.0670437
0.0549127
0.0483391
0.0396081
0.028531
0.0199429
0.0134832
0.0101366
0.0241018
0.771838
0.230112
0.0378651
0.044045
0.0773142
0.118792
0.150703
0.15989
0.145156
0.1163
0.086559
0.0648546
0.0530651
0.0473576
0.0396919
0.0289803
0.0202979
0.0137159
0.0101248
0.0235424
0.772196
0.224491
0.0370496
0.044677
0.0792246
0.121893
0.154211
0.162593
0.146108
0.115353
0.0843351
0.0622519
0.0508339
0.0460679
0.0395865
0.0293762
0.0206431
0.0139493
0.0101263
0.0230261
0.772827
0.218977
0.0362211
0.0453136
0.0811623
0.125043
0.157739
0.16521
0.146819
0.114032
0.0816836
0.0592352
0.0482142
0.0444584
0.0392737
0.0297029
0.020973
0.0141809
0.0101394
0.0225511
0.773748
0.213569
0.0353866
0.0459526
0.0831168
0.128222
0.161263
0.167717
0.147267
0.112323
0.0786068
0.0558201
0.0452151
0.0425245
0.0387386
0.0299449
0.0212815
0.0144082
0.0101622
0.0221154
0.77498
0.208269
0.0345537
0.0465911
0.0850754
0.131409
0.164757
0.170087
0.147433
0.110223
0.0751243
0.0520442
0.0418667
0.040272
0.0379715
0.0300875
0.0215618
0.0146281
0.0101928
0.0217174
0.776546
0.203079
0.0337303
0.0472251
0.0870227
0.13458
0.168193
0.172294
0.147304
0.107744
0.0712761
0.0479695
0.0382247
0.037724
0.0369719
0.0301189
0.0218069
0.0148376
0.0102293
0.0213554
0.778478
0.197998
0.0329239
0.0478494
0.088941
0.137706
0.171539
0.174318
0.146879
0.104915
0.0671248
0.0436835
0.034373
0.034927
0.0357519
0.0300315
0.0220105
0.0150336
0.0102697
0.0210279
0.780813
0.19303
0.0321418
0.0484576
0.0908102
0.140755
0.174761
0.176138
0.146169
0.101784
0.0627548
0.0392962
0.030421
0.0319512
0.0343382
0.0298236
0.0221671
0.0152131
0.010312
0.0207335
0.783591
0.188175
0.031391
0.0490423
0.0926083
0.143693
0.177829
0.177745
0.145198
0.0984159
0.0582691
0.0349337
0.0264975
0.0288861
0.0327711
0.0295
0.0222728
0.0153736
0.0103544
0.020471
0.786861
0.183431
0.030678
0.0495953
0.0943127
0.146487
0.180713
0.179132
0.144004
0.0948947
0.0537839
0.0307281
0.0227408
0.0258319
0.0311007
0.0290714
0.0223256
0.0155124
0.0103952
0.0202392
0.79067
0.1788
0.0300088
0.0501077
0.0959004
0.149103
0.183384
0.180304
0.142635
0.0913149
0.04942
0.0268054
0.0192858
0.0228911
0.0293831
0.028554
0.0223252
0.0156279
0.0104325
0.020037
0.795066
0.174281
0.0293883
0.0505707
0.0973489
0.151509
0.18582
0.181269
0.141151
0.0877776
0.0452938
0.0232721
0.0162493
0.0201604
0.0276767
0.0279677
0.0222733
0.0157184
0.0104649
0.0198632
0.800098
0.169874
0.0288203
0.0509753
0.0986372
0.153674
0.188001
0.182046
0.139616
0.0843833
0.0415074
0.0202042
0.0137135
0.017721
0.0260376
0.0273349
0.022173
0.0157832
0.010491
0.0197168
0.805812
0.165579
0.0283073
0.0513132
0.0997468
0.155574
0.189915
0.182656
0.138098
0.0812249
0.0381405
0.0176409
0.0117139
0.0156294
0.0245156
0.0266788
0.0220292
0.0158222
0.0105098
0.0195968
0.812248
0.161395
0.0278504
0.051577
0.100662
0.157187
0.191553
0.183125
0.13666
0.0783809
0.0352456
0.0155842
0.0102372
0.0139103
0.0231508
0.0260211
0.0218476
0.015836
0.0105206
0.0195025
0.819446
0.157322
0.0274496
0.0517606
0.101371
0.1585
0.192912
0.183477
0.135357
0.075911
0.032847
0.0140063
0.00922952
0.0125579
0.0219711
0.0253811
0.0216343
0.0158258
0.0105232
0.0194329
0.827434
0.153358
0.0271037
0.05186
0.101867
0.159504
0.193993
0.183737
0.134235
0.0738534
0.0309437
0.0128599
0.00861378
0.0115415
0.0209923
0.0247733
0.0213957
0.0157936
0.0105174
0.0193872
0.836229
0.149502
0.0268103
0.0518728
0.102147
0.160195
0.194803
0.183928
0.133325
0.0722257
0.0295159
0.0120903
0.00830697
0.0108141
0.0202188
0.0242065
0.0211375
0.0157418
0.0105039
0.0193646
0.845832
0.145753
0.0265665
0.0517986
0.102212
0.160577
0.195349
0.184068
0.132646
0.0710262
0.0285309
0.0116441
0.00823485
0.0103174
0.0196334
0.0236818
0.0208652
0.0156735
0.0104835
0.0193638
0.856224
0.14211
0.0263686
0.0516389
0.102067
0.160659
0.195645
0.18417
0.132202
0.0702367
0.0279474
0.0114724
0.00833974
0.00997148
0.0191854
0.023193
0.0205835
0.0155921
0.0104574
0.0193838
0.867376
0.138571
0.0262123
0.0513968
0.10172
0.160454
0.195705
0.184242
0.131984
0.0698247
0.0277169
0.0115281
0.00857961
0.00962986
0.0188505
0.0227318
0.0202961
0.0155007
0.0104267
0.0194233
0.879252
0.135134
0.0260815
0.051055
0.10116
0.159998
0.195607
0.184367
0.13202
0.0697267
0.0276984
0.0116615
0.00881481
0.00953134
0.0185321
0.0222933
0.0200058
0.015402
0.0103925
0.0194814
0.891823
0.13186
0.0259232
0.0505964
0.100391
0.159321
0.195417
0.184596
0.132285
0.0698395
0.027784
0.0118216
0.00906597
0.00965383
0.0182225
0.0218595
0.0197142
0.0152979
0.0103556
0.0195574
0.905075
0.128753
0.0257322
0.0500304
0.0994282
0.158435
0.19513
0.184907
0.132746
0.0701283
0.0279529
0.012001
0.009332
0.00991568
0.017922
0.0214181
0.0194264
0.0151898
0.0103165
0.0196607
0.91898
0.1258
0.0255122
0.049367
0.0982846
0.157349
0.194745
0.185286
0.13338
0.0705752
0.0281962
0.0121968
0.00960664
0.0102616
0.0176276
0.0209711
0.0191333
0.0150782
0.0102813
0.0198847
0.933224
0.122992
0.0252669
0.0486164
0.0969739
0.156072
0.194259
0.185722
0.134179
0.0711755
0.0285136
0.0124085
0.00988305
0.0106515
0.017338
0.0205207
0.0188363
0.0149629
0.0102564
0.0202211
0.947843
0.120317
0.0250001
0.0477881
0.0955091
0.154611
0.193672
0.18621
0.135141
0.0719337
0.0289093
0.0126365
0.0101552
0.0110549
0.0170527
0.0200692
0.0185366
0.0148443
0.0102419
0.0206741
0.962873
0.117769
0.0247155
0.0468912
0.0939016
0.152973
0.19298
0.186749
0.136272
0.0728604
0.0293908
0.0128821
0.010418
0.0114481
0.0167718
0.0196186
0.0182351
0.0147227
0.0102387
0.0212504
0.978347
0.115341
0.0244163
0.0459341
0.092162
0.151162
0.192184
0.187339
0.137582
0.0739707
0.0299676
0.013147
0.010667
0.0118125
0.0164955
0.0191709
0.0179328
0.0145984
0.0102476
0.0219597
0.994302
0.113027
0.0241057
0.0449243
0.090299
0.149183
0.191281
0.187983
0.139086
0.0752834
0.0306517
0.0134338
0.0108985
0.0121341
0.0162237
0.0187279
0.0176307
0.0144718
0.01027
0.0228139
1.01077
0.110822
0.0237864
0.0438686
0.0883208
0.147036
0.190266
0.188683
0.140799
0.0768206
0.0314575
0.0137461
0.0111094
0.0124037
0.0159571
0.0182916
0.0173296
0.0143433
0.0103075
0.0238276
1.02778
0.108723
0.023461
0.0427731
0.0862342
0.144724
0.189135
0.189439
0.142738
0.0786076
0.0324026
0.0140888
0.0112974
0.0126171
0.0156961
0.0178639
0.0170303
0.0142131
0.0103623
0.0250176
1.04537
0.106727
0.0231317
0.0416437
0.0840455
0.142244
0.18788
0.190251
0.144921
0.0806728
0.0335078
0.0144689
0.0114615
0.0127737
0.0154412
0.0174463
0.0167336
0.014082
0.010437
0.0264032
1.06357
0.10483
0.0228007
0.0404854
0.0817605
0.139596
0.186494
0.191119
0.147367
0.0830483
0.0347986
0.0148957
0.0116023
0.0128759
0.0151925
0.0170406
0.0164402
0.0139506
0.0105348
0.0280062
1.08241
0.103032
0.0224702
0.0393033
0.0793842
0.136777
0.184963
0.192035
0.150092
0.0857695
0.0363051
0.0153816
0.0117223
0.0129276
0.0149495
0.016648
0.0161509
0.0138198
0.0106598
0.0298518
1.10193
0.101332
0.0221419
0.0381017
0.0769214
0.133783
0.183272
0.192991
0.153114
0.0888757
0.0380633
0.0159428
0.0118264
0.0129343
0.0147119
0.0162697
0.0158665
0.0136909
0.0108169
0.0319692
1.12214
0.0997292
0.0218177
0.0368849
0.0743759
0.130608
0.181404
0.193971
0.156447
0.0924098
0.0401161
0.0166004
0.0119218
0.0129035
0.0144795
0.0159065
0.0155875
0.0135653
0.0110124
0.0343933
1.14308
0.0982242
0.021499
0.0356566
0.0717514
0.127244
0.179334
0.194957
0.160102
0.0964199
0.0425153
0.0173814
0.0120184
0.0128435
0.0142529
0.0155592
0.0153147
0.013445
0.0112543
0.0371663
1.16476
0.0968179
0.0211876
0.0344202
0.0690506
0.123683
0.177034
0.195919
0.164088
0.100959
0.0453228
0.0183202
0.0121285
0.0127638
0.0140329
0.015228
0.0150487
0.0133324
0.0115529
0.0403406
1.18722
0.0955123
0.0208846
0.0331789
0.0662762
0.119913
0.17447
0.196823
0.16841
0.106087
0.0486143
0.0194607
0.0122673
0.0126732
0.0138207
0.0149132
0.0147902
0.0132308
0.0119218
0.0439819
1.21046
0.0943098
0.0205917
0.0319357
0.0634304
0.115921
0.171603
0.197622
0.173066
0.111871
0.0524825
0.0208603
0.012453
0.0125786
0.0136171
0.0146146
0.0145399
0.0131445