/*--------------------------------*- C++ -*----------------------------------*\
  =========                 |
  \\      /  F ield         | OpenFOAM: The Open Source CFD Toolbox
   \\    /   O peration     | Website:  https://openfoam.org
    \\  /    A nd           | Version:  8
     \\/     M anipulation  |
\*---------------------------------------------------------------------------*/
FoamFile
{
    version     2.0;
    format      ascii;
    class       volScalarField;
    location    "500";
    object      k;
}
// * * * * * * * * * * * * * * * * * * * * * * * * * * * * * * * * * * * * * //

dimensions      [0 2 -2 0 0 0 0];

internalField   nonuniform List<scalar> 
8400
(
0.0157061
0.015578
0.0154531
0.0153305
0.0152098
0.0150905
0.0149723
0.014855
0.0147386
0.014623
0.0145081
0.014394
0.0142807
0.0141683
0.0140568
0.0139462
0.0138365
0.0137279
0.0136203
0.013514
0.013409
0.0133053
0.0132031
0.0131026
0.0130038
0.0129068
0.0128118
0.0127189
0.012628
0.0125393
0.0124527
0.0123684
0.0122863
0.0122062
0.0121282
0.0120522
0.011978
0.0119058
0.0118353
0.0117664
0.0116991
0.0116334
0.0115694
0.0115071
0.0114467
0.0113887
0.0113336
0.0112822
0.0112359
0.0111965
0.00425192
0.00426059
0.00426963
0.00427909
0.00428903
0.0042995
0.00431051
0.00432211
0.00433431
0.00434715
0.00436064
0.00437481
0.00438965
0.00440515
0.00442133
0.00443816
0.00445564
0.00447375
0.0044925
0.00451187
0.00453184
0.00455239
0.00457348
0.0045951
0.00461722
0.00463981
0.00466284
0.00468624
0.00470998
0.00473404
0.0047584
0.00478304
0.00480791
0.00483295
0.00485815
0.0048835
0.00490903
0.00493468
0.00496039
0.00498611
0.00501186
0.00503763
0.00506338
0.00508904
0.00511456
0.00513989
0.00516495
0.00518964
0.00521379
0.00523706
0.00469227
0.00470355
0.00471507
0.00472682
0.00473881
0.00475107
0.0047636
0.00477646
0.00478962
0.00480316
0.00481708
0.00483138
0.0048461
0.00486123
0.00487676
0.00489272
0.0049091
0.00492592
0.00494318
0.00496088
0.00497902
0.00499761
0.0050166
0.00503601
0.00505585
0.00507612
0.00509677
0.00511779
0.00513917
0.00516091
0.00518299
0.00520541
0.00522813
0.00525113
0.00527442
0.00529802
0.0053219
0.00534601
0.0053703
0.00539475
0.0054194
0.0054442
0.00546913
0.00549416
0.00551925
0.00554436
0.00556947
0.00559453
0.00561939
0.005644
0.0047454
0.00476303
0.00478091
0.00479886
0.00481673
0.00483446
0.00485197
0.00486924
0.00488626
0.00490304
0.00491957
0.00493589
0.00495199
0.00496789
0.00498362
0.00499922
0.00501471
0.00503016
0.00504561
0.00506112
0.00507669
0.0050924
0.00510833
0.00512454
0.0051411
0.00515806
0.00517546
0.00519334
0.00521176
0.00523077
0.00525038
0.00527062
0.00529151
0.00531307
0.0053353
0.00535823
0.00538181
0.005406
0.00543079
0.00545621
0.00548224
0.00550885
0.00553603
0.00556382
0.00559225
0.00562135
0.00565122
0.00568194
0.00571363
0.00574658
0.00425324
0.00427656
0.00430037
0.00432426
0.00434792
0.00437111
0.0043937
0.00441557
0.00443665
0.00445692
0.00447634
0.0044949
0.00451262
0.00452952
0.00454564
0.00456101
0.00457573
0.00458988
0.00460355
0.00461685
0.00462991
0.00464285
0.00465581
0.00466895
0.0046824
0.00469631
0.00471079
0.00472595
0.00474191
0.00475876
0.00477658
0.00479543
0.00481533
0.0048363
0.00485838
0.00488155
0.00490578
0.00493105
0.00495738
0.00498476
0.00501315
0.00504254
0.00507298
0.00510457
0.0051374
0.00517164
0.00520754
0.0052453
0.00528543
0.00532826
0.00350697
0.00352798
0.0035497
0.00357164
0.00359343
0.00361477
0.00363549
0.00365544
0.00367455
0.00369273
0.00370994
0.00372616
0.00374139
0.00375563
0.00376893
0.00378133
0.00379293
0.00380385
0.00381419
0.0038241
0.00383371
0.00384319
0.00385271
0.00386245
0.00387258
0.00388322
0.00389453
0.00390663
0.00391965
0.00393368
0.00394878
0.00396499
0.00398235
0.00400087
0.00402056
0.0040414
0.00406337
0.00408648
0.00411074
0.0041361
0.00416255
0.00419012
0.00421891
0.004249
0.00428049
0.00431364
0.0043487
0.00438607
0.00442621
0.00446969
0.00294429
0.00295491
0.00296622
0.00297786
0.0029896
0.00300123
0.00301262
0.00302365
0.00303424
0.00304435
0.00305391
0.0030629
0.00307132
0.00307915
0.00308644
0.00309323
0.00309959
0.00310561
0.00311135
0.0031169
0.00312235
0.00312782
0.00313343
0.00313931
0.00314552
0.00315215
0.00315929
0.00316703
0.00317544
0.00318456
0.00319442
0.00320503
0.00321643
0.00322862
0.0032416
0.00325534
0.00326986
0.00328518
0.00330134
0.0033183
0.00333607
0.00335469
0.00337421
0.00339466
0.00341616
0.00343892
0.00346312
0.0034891
0.00351719
0.00354791
0.0027355
0.00273432
0.00273399
0.0027344
0.00273544
0.00273695
0.00273882
0.00274093
0.00274322
0.00274561
0.00274804
0.00275044
0.0027528
0.00275513
0.00275745
0.00275974
0.00276197
0.00276414
0.00276629
0.00276846
0.00277068
0.00277297
0.00277534
0.00277784
0.00278049
0.00278332
0.00278636
0.00278963
0.00279315
0.00279692
0.00280099
0.00280536
0.00281005
0.00281503
0.00282028
0.00282585
0.0028318
0.00283817
0.00284491
0.00285195
0.00285933
0.0028671
0.00287527
0.00288389
0.00289305
0.00290283
0.00291328
0.00292455
0.00293684
0.0029503
0.00276086
0.00274968
0.0027403
0.00273232
0.00272569
0.00272023
0.00271581
0.00271226
0.00270939
0.00270707
0.00270522
0.0027038
0.00270271
0.00270188
0.00270126
0.00270081
0.00270053
0.00270041
0.00270043
0.00270053
0.00270071
0.00270098
0.00270135
0.0027018
0.00270232
0.00270291
0.00270359
0.00270436
0.00270523
0.00270619
0.00270727
0.00270848
0.00270982
0.00271124
0.0027127
0.00271422
0.00271584
0.00271752
0.00271923
0.00272099
0.00272291
0.00272499
0.00272713
0.00272928
0.0027315
0.00273381
0.00273628
0.0027389
0.00274167
0.00274469
0.00287106
0.00285334
0.00283946
0.00282673
0.00281504
0.0028047
0.00279545
0.00278733
0.00278014
0.00277365
0.00276756
0.00276181
0.00275661
0.00275201
0.0027478
0.00274389
0.00274032
0.00273706
0.00273405
0.00273135
0.00272911
0.00272736
0.00272588
0.00272451
0.00272325
0.00272214
0.0027213
0.00272073
0.00272038
0.00272026
0.00272047
0.00272102
0.00272173
0.00272239
0.00272301
0.0027238
0.00272486
0.00272599
0.00272702
0.00272807
0.00272918
0.00273013
0.00273087
0.00273155
0.00273231
0.00273286
0.0027333
0.0027337
0.00273379
0.00273396
0.00296103
0.00294487
0.0029339
0.00292336
0.00291316
0.00290364
0.00289372
0.00288485
0.00287703
0.00287067
0.00286402
0.00285447
0.00284572
0.00284007
0.0028342
0.00282623
0.00281825
0.00281146
0.00280491
0.00279815
0.00279228
0.00278809
0.00278457
0.00278064
0.00277634
0.00277209
0.00276826
0.00276484
0.00276152
0.0027585
0.00275651
0.00275581
0.00275575
0.00275542
0.00275495
0.00275546
0.00275715
0.00275862
0.00275917
0.00276009
0.00276191
0.00276299
0.00276305
0.00276377
0.00276507
0.00276508
0.00276477
0.00276487
0.00276356
0.00276263
0.00299183
0.0029835
0.00297557
0.00296822
0.00296098
0.00295388
0.0029471
0.00294051
0.00293421
0.00292816
0.00292212
0.0029161
0.00291025
0.00290449
0.00289873
0.00289302
0.00288747
0.002882
0.00287647
0.00287097
0.00286571
0.00286082
0.00285615
0.00285153
0.00284697
0.00284258
0.00283841
0.0028344
0.0028304
0.00282643
0.00282269
0.00281945
0.00281665
0.00281395
0.00281129
0.00280915
0.00280771
0.00280634
0.00280475
0.00280375
0.00280349
0.00280283
0.00280192
0.00280209
0.00280191
0.00280079
0.00280045
0.00280047
0.00279893
0.00279803
0.00299553
0.00299085
0.00298628
0.00298174
0.00297718
0.0029727
0.00296831
0.00296393
0.00295953
0.00295521
0.00295093
0.00294661
0.00294236
0.00293821
0.00293409
0.00292998
0.00292587
0.00292179
0.00291777
0.00291382
0.00290991
0.00290603
0.00290215
0.00289829
0.00289446
0.00289067
0.00288693
0.00288325
0.00287961
0.00287602
0.00287254
0.00286919
0.00286597
0.00286281
0.00285977
0.00285695
0.00285433
0.00285176
0.00284941
0.00284747
0.00284568
0.00284389
0.00284243
0.0028412
0.00283972
0.00283855
0.00283734
0.00283605
0.00283489
0.00283371
0.00299691
0.00299373
0.00299053
0.00298731
0.00298412
0.00298095
0.00297775
0.00297453
0.00297136
0.00296823
0.00296509
0.00296193
0.00295878
0.00295567
0.00295258
0.0029495
0.00294642
0.00294334
0.00294027
0.0029372
0.00293412
0.00293103
0.00292794
0.00292486
0.0029218
0.00291877
0.00291578
0.0029128
0.00290982
0.00290684
0.0029039
0.002901
0.00289813
0.00289532
0.00289262
0.00289005
0.00288757
0.00288516
0.00288292
0.00288083
0.00287878
0.00287685
0.00287512
0.00287342
0.00287184
0.00287049
0.0028691
0.00286779
0.0028665
0.00286523
0.00299763
0.0029952
0.00299275
0.00299029
0.00298783
0.00298538
0.00298295
0.00298052
0.00297807
0.00297563
0.00297316
0.00297068
0.00296822
0.00296579
0.00296336
0.00296094
0.00295851
0.00295608
0.00295363
0.00295116
0.00294869
0.00294622
0.00294374
0.00294125
0.00293875
0.00293627
0.0029338
0.00293134
0.00292889
0.00292645
0.00292402
0.00292161
0.00291922
0.00291687
0.00291459
0.00291239
0.00291027
0.00290827
0.00290643
0.00290468
0.00290302
0.00290157
0.00290022
0.00289895
0.00289795
0.00289702
0.00289633
0.00289568
0.00289522
0.00289473
0.00299811
0.00299617
0.00299423
0.00299226
0.00299028
0.0029883
0.00298631
0.00298431
0.0029823
0.00298028
0.00297826
0.00297626
0.00297427
0.00297227
0.00297027
0.00296828
0.00296629
0.00296429
0.00296227
0.00296025
0.00295823
0.00295621
0.0029542
0.00295219
0.00295019
0.0029482
0.00294622
0.00294425
0.00294228
0.00294032
0.00293837
0.00293647
0.00293463
0.00293287
0.00293121
0.00292965
0.00292822
0.00292696
0.00292591
0.00292503
0.00292442
0.00292412
0.00292408
0.00292436
0.00292497
0.00292579
0.00292693
0.00292817
0.00292969
0.00293114
0.00299837
0.00299671
0.00299503
0.00299335
0.00299166
0.00298995
0.00298827
0.00298661
0.00298496
0.00298332
0.00298169
0.00298008
0.0029785
0.00297696
0.00297545
0.00297395
0.00297246
0.00297099
0.00296954
0.00296809
0.00296664
0.00296521
0.0029638
0.00296245
0.00296114
0.00295989
0.00295866
0.00295745
0.00295625
0.0029551
0.002954
0.002953
0.00295218
0.0029516
0.00295134
0.00295145
0.002952
0.00295304
0.00295458
0.00295666
0.00295935
0.00296261
0.0029665
0.00297105
0.00297612
0.00298171
0.00298771
0.00299392
0.00300039
0.00300679
0.00299878
0.00299757
0.00299629
0.00299504
0.00299384
0.00299273
0.0029918
0.00299117
0.00299081
0.00299067
0.00299076
0.00299117
0.002992
0.00299326
0.00299481
0.00299652
0.00299833
0.00300023
0.00300218
0.00300412
0.00300598
0.0030078
0.00300971
0.00301179
0.00301403
0.00301637
0.00301867
0.00302076
0.00302257
0.0030245
0.00302693
0.00302973
0.00303281
0.00303615
0.00303977
0.00304518
0.00305236
0.0030612
0.00307147
0.0030829
0.00309523
0.00310841
0.0031226
0.00313774
0.00315354
0.00316977
0.00318628
0.00320286
0.00321951
0.0032361
0.00303054
0.00303608
0.00303654
0.00303824
0.00304445
0.00305259
0.00306968
0.00309825
0.00313037
0.00315938
0.00318484
0.00321034
0.00323926
0.00327161
0.00330431
0.00333426
0.00336085
0.00338516
0.00340829
0.00343399
0.00345995
0.00348452
0.00350843
0.00353205
0.00355515
0.00357763
0.00359944
0.00362043
0.00364048
0.0036594
0.00367719
0.00369351
0.00370884
0.00372381
0.00373899
0.00375336
0.00376689
0.00379119
0.0038235
0.0038553
0.0038809
0.00389987
0.00391828
0.00393988
0.00396426
0.00398803
0.00400869
0.00402583
0.00404103
0.00405515
0.0181174
0.0181294
0.0182035
0.0183621
0.0184701
0.0185072
0.0184969
0.0184753
0.0184449
0.0184022
0.0183433
0.0182636
0.0181586
0.0180232
0.0178517
0.0176386
0.0173801
0.0170733
0.016716
0.01631
0.0158814
0.0154464
0.0150274
0.0146404
0.0142832
0.0139521
0.0136339
0.0133184
0.013011
0.0127295
0.0124979
0.0123337
0.01225
0.0122539
0.0123268
0.0124337
0.0125333
0.0125814
0.012606
0.0126105
0.0125792
0.012506
0.0123955
0.0122569
0.0120898
0.0118977
0.0116859
0.0114568
0.0112133
0.0109557
0.0589322
0.0574892
0.0561229
0.054827
0.0535935
0.0524145
0.0512822
0.0501934
0.0491456
0.0481365
0.047164
0.0462262
0.0453214
0.044448
0.0436045
0.0427898
0.0420025
0.0412417
0.0405061
0.0397948
0.0391068
0.0384411
0.0377968
0.0371731
0.0365691
0.0359841
0.0354174
0.0348683
0.0343363
0.0338208
0.0333212
0.032837
0.0323677
0.0319127
0.0314715
0.0310436
0.0306284
0.0302256
0.0298345
0.029453
0.02908
0.0287147
0.0283566
0.0280048
0.0276586
0.0273167
0.0269773
0.0266374
0.0262914
0.0259288
0.0580911
0.0554606
0.0530045
0.0507055
0.0485547
0.0465424
0.0446605
0.042898
0.0412448
0.0396918
0.0382307
0.0368541
0.0355553
0.0343284
0.033168
0.0320694
0.0310281
0.0300402
0.029102
0.0282102
0.0273616
0.0265534
0.0257829
0.0250478
0.0243458
0.0236751
0.0230338
0.0224204
0.0218332
0.0212708
0.0207319
0.020215
0.019719
0.0192425
0.0187841
0.0183425
0.0179165
0.0175048
0.0171063
0.0167217
0.0163506
0.0159924
0.0156464
0.015312
0.0149888
0.0146762
0.0143736
0.0140802
0.0137952
0.0135175
0.0580875
0.0554485
0.0529763
0.0506632
0.0484975
0.0464684
0.0445651
0.0427775
0.0410963
0.039513
0.0380198
0.0366098
0.0352769
0.0340153
0.0328201
0.0316866
0.0306108
0.0295887
0.028617
0.0276923
0.0268116
0.0259722
0.0251715
0.0244071
0.023677
0.0229792
0.0223119
0.0216734
0.0210623
0.0204771
0.0199164
0.0193789
0.0188635
0.0183688
0.0178939
0.0174376
0.016999
0.0165769
0.0161705
0.015779
0.0154016
0.0150377
0.0146868
0.0143483
0.014022
0.0137072
0.0134038
0.0131112
0.0128291
0.0125571
0.0580875
0.0554674
0.053017
0.050724
0.0485756
0.0465601
0.0446669
0.0428863
0.0412093
0.0396281
0.0381353
0.0367244
0.0353895
0.0341252
0.0329267
0.0317895
0.0307096
0.0296833
0.028707
0.0277777
0.0268924
0.0260482
0.0252428
0.0244737
0.0237389
0.0230365
0.0223647
0.0217218
0.0211065
0.0205171
0.0199525
0.0194112
0.0188921
0.0183939
0.0179156
0.017456
0.0170141
0.0165889
0.0161794
0.0157849
0.0154046
0.015038
0.0146844
0.0143434
0.0140145
0.0136974
0.0133917
0.0130969
0.0128126
0.0125384
0.0580876
0.0554679
0.0530167
0.050721
0.0485692
0.04655
0.0446534
0.0428698
0.0411906
0.0396078
0.038114
0.0367027
0.035368
0.0341042
0.0329066
0.0317707
0.0306922
0.0296674
0.0286928
0.0277651
0.0268814
0.0260388
0.0252349
0.0244673
0.0237339
0.0230329
0.0223624
0.0217207
0.0211065
0.0205183
0.0199546
0.0194143
0.018896
0.0183987
0.0179211
0.0174621
0.0170207
0.0165959
0.0161868
0.0157926
0.0154126
0.0150461
0.0146926
0.0143516
0.0140228
0.0137056
0.0133996
0.0131044
0.0128196
0.0125447
0.0580876
0.0554694
0.0530211
0.0507292
0.0485816
0.0465668
0.0446743
0.0428945
0.0412186
0.0396386
0.0381471
0.0367377
0.0354044
0.0341418
0.032945
0.0318095
0.0307313
0.0297066
0.0287319
0.0278039
0.0269197
0.0260765
0.0252719
0.0245035
0.0237693
0.0230673
0.0223959
0.0217533
0.0211382
0.0205489
0.0199843
0.019443
0.0189237
0.0184253
0.0179466
0.0174865
0.0170441
0.0166182
0.016208
0.0158126
0.0154315
0.0150638
0.0147092
0.0143671
0.014037
0.0137185
0.0134112
0.0131147
0.0128284
0.0125519
0.0580876
0.0554698
0.0530221
0.0507307
0.048583
0.0465678
0.0446744
0.0428935
0.0412162
0.0396348
0.0381421
0.0367315
0.0353971
0.0341337
0.0329362
0.0318003
0.0307218
0.0296969
0.028722
0.0277941
0.0269099
0.0260669
0.0252624
0.0244942
0.0237602
0.0230585
0.0223874
0.0217451
0.0211303
0.0205414
0.0199771
0.0194361
0.0189171
0.018419
0.0179405
0.0174807
0.0170384
0.0166126
0.0162025
0.0158073
0.0154262
0.0150586
0.014704
0.0143619
0.0140317
0.0137131
0.0134056
0.0131088
0.0128221
0.012545
0.0580876
0.0554701
0.0530229
0.0507321
0.0485852
0.0465707
0.0446782
0.0428981
0.0412217
0.0396411
0.0381492
0.0367394
0.0354059
0.0341432
0.0329465
0.0318112
0.0307333
0.029709
0.0287346
0.0278069
0.026923
0.0260801
0.0252757
0.0245075
0.0237734
0.0230715
0.0224002
0.0217577
0.0211426
0.0205534
0.0199887
0.0194473
0.0189279
0.0184292
0.0179502
0.0174898
0.0170469
0.0166205
0.0162098
0.0158139
0.0154321
0.0150638
0.0147084
0.0143655
0.0140345
0.013715
0.0134066
0.0131087
0.0128209
0.0125427
0.0580876
0.0554702
0.0530232
0.0507327
0.048586
0.0465716
0.0446789
0.0428986
0.0412219
0.0396409
0.0381486
0.0367383
0.0354043
0.0341412
0.0329441
0.0318085
0.0307303
0.0297057
0.0287311
0.0278033
0.0269192
0.0260761
0.0252715
0.0245032
0.023769
0.0230671
0.0223958
0.0217532
0.0211381
0.0205488
0.0199841
0.0194426
0.0189231
0.0184244
0.0179453
0.0174848
0.0170417
0.0166152
0.0162043
0.0158082
0.0154263
0.0150578
0.0147022
0.0143591
0.0140278
0.013708
0.0133992
0.0131009
0.0128126
0.0125337
0.0580876
0.0554703
0.0530234
0.050733
0.0485864
0.0465721
0.0446795
0.0428993
0.0412226
0.0396416
0.0381493
0.0367391
0.0354052
0.0341423
0.0329454
0.03181
0.0307321
0.0297077
0.0287333
0.0278056
0.0269217
0.0260787
0.0252743
0.024506
0.0237718
0.0230699
0.0223985
0.0217559
0.0211407
0.0205513
0.0199864
0.0194448
0.0189251
0.0184261
0.0179467
0.0174859
0.0170424
0.0166155
0.0162043
0.0158078
0.0154254
0.0150565
0.0147005
0.0143568
0.014025
0.0137046
0.0133951
0.013096
0.0128069
0.0125272
0.0580876
0.0554703
0.0530235
0.0507331
0.0485865
0.0465721
0.0446795
0.0428991
0.0412222
0.0396411
0.0381487
0.0367383
0.0354044
0.0341414
0.0329444
0.0318091
0.0307312
0.0297068
0.0287324
0.0278048
0.0269209
0.0260779
0.0252735
0.0245052
0.0237711
0.0230691
0.0223977
0.021755
0.0211397
0.0205502
0.0199853
0.0194435
0.0189236
0.0184244
0.0179448
0.0174836
0.0170399
0.0166127
0.0162011
0.0158043
0.0154216
0.0150524
0.0146959
0.0143519
0.0140196
0.0136987
0.0133887
0.013089
0.0127991
0.0125186
0.0580876
0.0554703
0.0530234
0.050733
0.0485862
0.0465716
0.0446788
0.0428981
0.0412209
0.0396395
0.0381466
0.036736
0.0354017
0.0341385
0.0329413
0.0318057
0.0307276
0.0297031
0.0287286
0.0278009
0.0269169
0.0260739
0.0252694
0.0245011
0.0237669
0.023065
0.0223935
0.0217508
0.0211354
0.0205459
0.0199809
0.019439
0.018919
0.0184197
0.01794
0.0174787
0.0170348
0.0166074
0.0161956
0.0157986
0.0154157
0.0150462
0.0146896
0.0143452
0.0140126
0.0136914
0.0133809
0.0130807
0.0127903
0.012509
0.0580876
0.0554703
0.0530233
0.0507326
0.0485857
0.0465709
0.0446779
0.0428972
0.04122
0.0396387
0.0381461
0.0367357
0.0354017
0.0341387
0.0329419
0.0318066
0.0307288
0.0297046
0.0287303
0.0278029
0.0269192
0.0260764
0.025272
0.0245038
0.0237697
0.0230677
0.0223962
0.0217535
0.021138
0.0205484
0.0199832
0.019441
0.0189208
0.0184212
0.017941
0.0174794
0.0170351
0.0166072
0.016195
0.0157975
0.0154141
0.0150441
0.0146869
0.014342
0.0140088
0.0136869
0.0133757
0.0130747
0.0127833
0.0125011
0.0580876
0.0554701
0.0530227
0.0507314
0.0485837
0.0465681
0.0446741
0.0428922
0.041214
0.0396315
0.0381378
0.0367264
0.0353914
0.0341275
0.0329299
0.0317939
0.0307156
0.0296909
0.0287164
0.0277887
0.0269049
0.026062
0.0252577
0.0244895
0.0237554
0.0230536
0.0223822
0.0217397
0.0211244
0.020535
0.01997
0.019428
0.0189079
0.0184085
0.0179285
0.0174669
0.0170227
0.016595
0.0161828
0.0157854
0.0154021
0.0150321
0.014675
0.0143301
0.013997
0.013675
0.0133636
0.0130623
0.0127706
0.0124879
0.0580877
0.0554698
0.0530219
0.0507303
0.0485826
0.0465673
0.044674
0.0428931
0.0412159
0.0396345
0.0381418
0.0367313
0.0353971
0.0341339
0.0329368
0.0318013
0.0307233
0.0296989
0.0287246
0.0277969
0.026913
0.0260701
0.0252655
0.0244971
0.0237628
0.0230607
0.0223889
0.021746
0.0211303
0.0205403
0.0199748
0.0194323
0.0189117
0.0184116
0.017931
0.0174687
0.0170239
0.0165954
0.0161825
0.0157845
0.0154004
0.0150298
0.014672
0.0143264
0.0139925
0.0136697
0.0133574
0.0130552
0.0127624
0.0124785
0.0580877
0.0554684
0.0530177
0.0507224
0.0485705
0.0465508
0.0446532
0.0428683
0.0411876
0.0396031
0.0381078
0.0366951
0.0353593
0.0340949
0.032897
0.031761
0.0306828
0.0296584
0.0286843
0.0277571
0.0268737
0.0260314
0.0252276
0.0244601
0.0237266
0.0230254
0.0223546
0.0217126
0.0210978
0.0205088
0.0199442
0.0194026
0.0188827
0.0183834
0.0179035
0.0174419
0.0169977
0.0165699
0.0161576
0.01576
0.0153766
0.0150065
0.0146492
0.0143041
0.0139705
0.0136481
0.013336
0.0130339
0.0127411
0.0124572
0.0580877
0.055468
0.0530182
0.0507257
0.0485773
0.0465613
0.044667
0.0428849
0.0412061
0.039623
0.0381283
0.0367158
0.0353796
0.0341144
0.0329155
0.0317783
0.0306987
0.0296728
0.0286971
0.0277683
0.0268833
0.0260395
0.0252341
0.0244651
0.0237302
0.0230276
0.0223554
0.0217122
0.0210962
0.0205061
0.0199404
0.0193977
0.0188769
0.0183766
0.0178958
0.0174334
0.0169884
0.0165598
0.0161469
0.0157488
0.0153649
0.0149945
0.0146369
0.0142917
0.0139581
0.0136357
0.013324
0.0130223
0.0127303
0.0124476
0.0580876
0.0554492
0.0529777
0.0506652
0.0484997
0.04647
0.0445657
0.0427764
0.0410932
0.0395077
0.0380124
0.0366005
0.0352661
0.0340036
0.032808
0.0316746
0.0305991
0.0295777
0.0286067
0.0276826
0.0268026
0.0259636
0.0251633
0.0243992
0.0236694
0.0229717
0.0223045
0.0216662
0.0210551
0.0204698
0.0199088
0.0193709
0.0188548
0.0183592
0.0178831
0.0174255
0.0169853
0.0165617
0.0161539
0.0157613
0.015383
0.0150186
0.0146676
0.0143294
0.0140036
0.0136899
0.0133881
0.013098
0.0128199
0.0125546
0.0580913
0.0554615
0.0530065
0.0507083
0.0485578
0.0465452
0.0446622
0.042898
0.0412427
0.0396874
0.038224
0.0368455
0.0355453
0.0343176
0.0331571
0.032059
0.0310187
0.0300321
0.0290955
0.0282054
0.0273586
0.0265522
0.0257836
0.0250506
0.0243509
0.0236826
0.0230441
0.0224337
0.0218499
0.0212912
0.0207563
0.020244
0.019753
0.0192823
0.0188308
0.0183975
0.0179817
0.0175825
0.0171994
0.0168319
0.0164794
0.0161419
0.0158189
0.0155106
0.0152169
0.0149383
0.0146755
0.0144301
0.0142052
0.0140075
0.0589321
0.0574893
0.0561236
0.0548284
0.0535954
0.0524165
0.0512836
0.0501938
0.0491445
0.0481337
0.0471594
0.04622
0.0453139
0.0444396
0.0435957
0.0427808
0.0419935
0.0412328
0.0404972
0.0397858
0.0390974
0.0384311
0.037786
0.0371613
0.0365562
0.03597
0.035402
0.0348514
0.0343175
0.0337997
0.0332973
0.0328095
0.0323357
0.0318753
0.0314277
0.0309923
0.0305686
0.0301561
0.0297543
0.0293627
0.0289809
0.0286083
0.0282444
0.0278888
0.0275406
0.0271994
0.0268643
0.0265345
0.0262091
0.0258866
0.0255217
0.00703687
0.00591933
0.00785766
0.0103124
0.0122763
0.013218
0.0130393
0.0120037
0.010563
0.00912469
0.00787314
0.00668641
0.00528114
0.00412823
0.00317216
0.00271955
0.00313251
0.00668795
0.04768
0.0251514
0.00700186
0.00597455
0.00797002
0.0104651
0.0124468
0.0133823
0.0131801
0.0121146
0.0106486
0.00919891
0.00795487
0.00671993
0.00535147
0.00422227
0.00326211
0.00270764
0.00297309
0.00626616
0.0469246
0.0247827
0.00696223
0.00602995
0.0080852
0.0106223
0.0126219
0.0135499
0.0133214
0.0122224
0.0107282
0.00926624
0.00803192
0.00693069
0.0054684
0.00428768
0.00331562
0.00271603
0.00291252
0.00610292
0.046771
0.024416
0.00691861
0.00608561
0.00820338
0.0107842
0.012802
0.0137209
0.0134628
0.0123263
0.0108004
0.00932327
0.00809216
0.00699811
0.00557622
0.00435328
0.00336893
0.00272812
0.0028574
0.00594747
0.0466327
0.0240516
0.00687107
0.00614147
0.00832461
0.010951
0.0129872
0.013895
0.0136037
0.0124254
0.0108647
0.00937193
0.00814947
0.00707029
0.00567673
0.0044191
0.003422
0.00274353
0.00280754
0.00579952
0.0465083
0.0236894
0.00681952
0.00619753
0.00844896
0.0111228
0.0131774
0.014072
0.0137432
0.0125182
0.0109184
0.00940806
0.00819537
0.00714648
0.00577419
0.00448577
0.00347508
0.00276211
0.00276272
0.00565849
0.0463949
0.0233297
0.00676384
0.00625378
0.00857649
0.0112997
0.0133728
0.0142516
0.0138808
0.0126037
0.0109603
0.00943014
0.00822771
0.00721206
0.00586783
0.00455355
0.00352834
0.00278364
0.00272278
0.00552417
0.0462917
0.0229725
0.0067039
0.0063102
0.0087072
0.0114816
0.0135731
0.0144333
0.0140154
0.0126802
0.0109884
0.0094364
0.00824546
0.00726606
0.00595627
0.00462226
0.00358179
0.00280784
0.00268753
0.00539645
0.0461991
0.022618
0.00663963
0.0063668
0.00884111
0.0116687
0.0137782
0.0146166
0.0141459
0.012746
0.0110005
0.0094244
0.00824656
0.00730766
0.00603859
0.00469156
0.00363545
0.00283446
0.00265679
0.00527519
0.0461171
0.0222664
0.00657097
0.00642357
0.00897816
0.0118608
0.0139878
0.0148009
0.0142711
0.0127993
0.0109943
0.00939148
0.00822836
0.00733575
0.00611407
0.0047611
0.0036893
0.00286325
0.00263035
0.00516026
0.0460457
0.0219177
0.00649796
0.00648053
0.00911826
0.0120577
0.0142016
0.0149854
0.0143896
0.0128381
0.0109673
0.00933476
0.00818773
0.00734775
0.00618173
0.00483042
0.00374328
0.00289397
0.00260802
0.0050515
0.045985
0.0215721
0.00642074
0.00653768
0.00926127
0.0122592
0.0144192
0.0151693
0.0145001
0.0128603
0.0109167
0.00925126
0.00812155
0.00734052
0.00624025
0.00489897
0.00379733
0.00292637
0.00258957
0.00494876
0.0459348
0.0212298
0.00633949
0.00659502
0.00940694
0.0124648
0.0146398
0.0153516
0.014601
0.0128637
0.0108398
0.00913787
0.00802647
0.00731046
0.0062877
0.00496593
0.0038513
0.00296018
0.00257478
0.00485192
0.0458954
0.0208908
0.00625448
0.00665252
0.00955494
0.0126741
0.0148628
0.015531
0.0146906
0.012846
0.0107339
0.00899154
0.00789922
0.00725425
0.00632152
0.00503018
0.00390494
0.00299513
0.0025634
0.00476083
0.0458669
0.0205553
0.00616605
0.00671011
0.00970481
0.0128864
0.0150872
0.0157065
0.0147672
0.012805
0.0105963
0.00880941
0.0077367
0.00716893
0.00633877
0.00509023
0.00395786
0.00303092
0.00255519
0.00467539
0.0458497
0.0202234
0.00607468
0.0067677
0.00985597
0.0131008
0.015312
0.0158766
0.014829
0.0127386
0.0104247
0.00858902
0.00753614
0.00705198
0.00633668
0.00514438
0.00400957
0.00306721
0.00254985
0.00459545
0.0458443
0.0198952
0.0059809
0.00682514
0.0100077
0.0133161
0.0155357
0.0160398
0.0148744
0.0126449
0.0102172
0.00832855
0.00729526
0.00690125
0.0063129
0.00519085
0.00405942
0.00310364
0.00254711
0.00452091
0.0458514
0.0195707
0.0058854
0.00688223
0.0101592
0.0135313
0.0157572
0.0161946
0.0149019
0.0125225
0.00997271
0.00802717
0.00701267
0.00671513
0.00626558
0.00522785
0.00410668
0.0031398
0.00254664
0.00445164
0.0458718
0.0192501
0.00578894
0.00693872
0.0103095
0.013745
0.0159747
0.0163397
0.0149102
0.0123706
0.0096911
0.0076854
0.00668828
0.00649293
0.00619342
0.00525372
0.0041505
0.00317526
0.0025481
0.00438753
0.0459065
0.0189335
0.00569233
0.00699426
0.0104575
0.0139554
0.0161866
0.0164735
0.0148985
0.0121893
0.00937361
0.00730555
0.00632379
0.00623499
0.00609577
0.005267
0.00419002
0.00320953
0.00255116
0.00432844
0.0459565
0.0186211
0.00559643
0.00704842
0.0106018
0.0141609
0.0163912
0.0165948
0.0148668
0.0119799
0.00902308
0.00689205
0.00592319
0.00594323
0.00597284
0.00526663
0.00422439
0.00324215
0.00255543
0.00427424
0.0460231
0.0183129
0.00550211
0.00710068
0.0107412
0.0143596
0.0165866
0.0167026
0.0148153
0.0117447
0.00864414
0.00645163
0.0054931
0.00562155
0.00582598
0.00525202
0.00425283
0.00327262
0.00256057
0.00422481
0.0461074
0.0180092
0.00541022
0.00715041
0.010874
0.0145494
0.0167711
0.0167964
0.0147454
0.0114874
0.00824325
0.00599339
0.00504301
0.00527603
0.00565783
0.00522321
0.00427471
0.00330049
0.0025662
0.00418001
0.0462111
0.0177099
0.00532162
0.00719695
0.0109988
0.0147285
0.0169431
0.016876
0.0146593
0.0112133
0.00782857
0.00552846
0.00458513
0.00491491
0.00547237
0.00518092
0.00428963
0.00332537
0.00257197
0.00413969
0.0463355
0.0174152
0.0052371
0.00723955
0.0111141
0.0148949
0.0171012
0.0169415
0.0145599
0.0109284
0.00740969
0.00506947
0.004134
0.00454831
0.00527477
0.00512654
0.00429741
0.00334691
0.00257756
0.00410373
0.0464823
0.0171251
0.00515737
0.00727748
0.0112183
0.0150467
0.0172443
0.0169936
0.0144507
0.01064
0.006997
0.00462957
0.00370557
0.00418758
0.00507105
0.00506204
0.00429813
0.00336485
0.00258267
0.004072
0.046653
0.0168398
0.00508305
0.00731
0.0113101
0.0151825
0.0173713
0.0170334
0.0143359
0.0103556
0.00660108
0.00422129
0.00331565
0.00384444
0.00486764
0.00498982
0.0042921
0.00337902
0.00258703
0.00404435
0.046849
0.0165594
0.00501462
0.00733641
0.0113884
0.0153007
0.0174817
0.0170622
0.0142198
0.0100829
0.00623185
0.00385524
0.00297791
0.00352972
0.00467083
0.00491248
0.00427981
0.00338933
0.00259041
0.00402066
0.0470716
0.0162837
0.0049524
0.00735611
0.0114521
0.0154003
0.0175752
0.0170817
0.0141068
0.00982888
0.00589779
0.00353912
0.00270168
0.00325208
0.00448634
0.00483263
0.00426192
0.00339581
0.00259263
0.00400078
0.0473218
0.0160131
0.00489659
0.0073686
0.0115006
0.0154806
0.0176518
0.0170934
0.0140008
0.0095996
0.00560538
0.00327708
0.00249053
0.0030169
0.00431894
0.00475275
0.00423914
0.00339852
0.00259357
0.00398458
0.0476007
0.0157473
0.00484721
0.00737352
0.0115333
0.0155412
0.0177116
0.0170991
0.0139053
0.00939975
0.00535877
0.00306983
0.00234209
0.0028259
0.00417228
0.00467497
0.00421223
0.00339767
0.00259314
0.00397193
0.0479087
0.0154866
0.00480417
0.00737068
0.0115503
0.015582
0.0177552
0.0171001
0.0138229
0.00923243
0.00515983
0.0029153
0.00224933
0.00267753
0.00404894
0.00460101
0.00418192
0.00339349
0.00259135
0.00396269
0.0482458
0.0152309
0.00476725
0.00736004
0.0115515
0.0156033
0.0177831
0.0170978
0.0137554
0.0090992
0.00500842
0.00280954
0.0022027
0.00256739
0.00395033
0.00453197
0.00414891
0.00338634
0.00258826
0.00395671
0.0486115
0.0149801
0.00473612
0.00734172
0.0115374
0.0156057
0.0177961
0.0170931
0.0137037
0.00900015
0.0049028
0.00274763
0.00219244
0.00248826
0.00387556
0.00446805
0.00411385
0.00337665
0.00258401
0.00395383
0.0490047
0.0147343
0.0047104
0.007316
0.0115087
0.0155899
0.0177951
0.0170867
0.0136678
0.00893403
0.00483986
0.00272412
0.00221004
0.00243052
0.00381827
0.00440847
0.00407734
0.00336491
0.00257878
0.00395386
0.0494237
0.0144935
0.00468967
0.00728326
0.0114661
0.015557
0.0177809
0.0170788
0.013647
0.00889847
0.00481514
0.00273272
0.00224852
0.00237506
0.00377478
0.00435214
0.00403983
0.00335157
0.00257276
0.00395662
0.0498667
0.0142578
0.00467137
0.00724138
0.0114086
0.0155098
0.017759
0.0170746
0.0136421
0.00888714
0.00481316
0.00275421
0.00229044
0.00234704
0.00373709
0.00429846
0.00400165
0.00333702
0.00256614
0.00396197
0.0503323
0.0140319
0.00464961
0.00718956
0.0113368
0.0154495
0.0177319
0.0170766
0.0136524
0.00889301
0.00482266
0.00277959
0.00233508
0.00236247
0.00369976
0.00424575
0.00396298
0.00332154
0.00255902
0.00396979
0.0508196
0.0138154
0.00462454
0.00712867
0.0112518
0.0153769
0.0176997
0.0170835
0.0136757
0.00891338
0.00484133
0.00280767
0.00238217
0.0024076
0.00366419
0.00419174
0.00392447
0.00330529
0.00255149
0.00398135
0.0513269
0.0136078
0.00459659
0.0070596
0.0111544
0.0152927
0.0176623
0.0170948
0.0137107
0.00894686
0.00486824
0.00283803
0.00243076
0.00247145
0.00362967
0.0041363
0.00388524
0.00328849
0.0025442
0.00401007
0.0518414
0.0134085
0.00456619
0.00698321
0.0110457
0.0151973
0.0176197
0.0171098
0.0137567
0.00899309
0.00490333
0.00287057
0.00247982
0.00254528
0.00359584
0.00407963
0.00384504
0.00327103
0.00253859
0.00405451
0.0523639
0.0132169
0.00453374
0.00690029