/*--------------------------------*- C++ -*----------------------------------*\
  =========                 |
  \\      /  F ield         | OpenFOAM: The Open Source CFD Toolbox
   \\    /   O peration     | Website:  https://openfoam.org
    \\  /    A nd           | Version:  8
     \\/     M anipulation  |
\*---------------------------------------------------------------------------*/
FoamFile
{
    version     2.0;
    format      ascii;
    class       volScalarField;
    location    "500";
    object      nut;
}
// * * * * * * * * * * * * * * * * * * * * * * * * * * * * * * * * * * * * * //

dimensions      [0 2 -1 0 0 0 0];

internalField   nonuniform List<scalar> 
8400
(
0.000145635
0.000145121
0.000144622
0.000144133
0.000143651
0.000143174
0.000142697
0.00014222
0.000141742
0.00014126
0.000140776
0.000140287
0.000139796
0.000139302
0.000138805
0.000138305
0.000137804
0.000137303
0.000136803
0.000136305
0.000135809
0.000135319
0.000134833
0.000134354
0.000133884
0.000133422
0.000132971
0.000132528
0.000132094
0.000131671
0.000131257
0.000130853
0.000130457
0.000130068
0.000129683
0.000129304
0.000128929
0.000128558
0.000128189
0.00012782
0.000127451
0.000127085
0.00012672
0.000126356
0.000125998
0.000125647
0.000125307
0.000124984
0.000124687
0.000124427
7.40486e-05
7.41456e-05
7.42459e-05
7.43501e-05
7.44585e-05
7.45721e-05
7.46908e-05
7.48144e-05
7.49442e-05
7.50797e-05
7.52213e-05
7.53697e-05
7.55247e-05
7.56861e-05
7.58538e-05
7.60268e-05
7.62046e-05
7.63874e-05
7.6575e-05
7.6767e-05
7.69625e-05
7.71611e-05
7.73623e-05
7.75661e-05
7.77723e-05
7.79805e-05
7.81899e-05
7.83995e-05
7.86092e-05
7.88197e-05
7.90314e-05
7.92437e-05
7.94551e-05
7.96645e-05
7.98729e-05
8.00822e-05
8.02924e-05
8.05019e-05
8.07098e-05
8.09164e-05
8.11226e-05
8.13281e-05
8.15314e-05
8.1732e-05
8.19308e-05
8.21266e-05
8.2318e-05
8.25059e-05
8.26884e-05
8.28597e-05
7.74354e-05
7.7546e-05
7.76589e-05
7.77737e-05
7.78901e-05
7.80084e-05
7.81288e-05
7.82521e-05
7.8376e-05
7.85054e-05
7.86367e-05
7.87724e-05
7.89121e-05
7.9055e-05
7.92007e-05
7.93492e-05
7.95009e-05
7.9656e-05
7.98146e-05
7.99758e-05
8.01398e-05
8.03064e-05
8.04751e-05
8.06461e-05
8.08205e-05
8.09977e-05
8.11764e-05
8.13562e-05
8.15376e-05
8.17213e-05
8.19072e-05
8.20942e-05
8.22813e-05
8.24692e-05
8.26592e-05
8.28515e-05
8.30449e-05
8.32384e-05
8.34319e-05
8.36258e-05
8.382e-05
8.40137e-05
8.42066e-05
8.4399e-05
8.45904e-05
8.47794e-05
8.49682e-05
8.51575e-05
8.53432e-05
8.55287e-05
7.7371e-05
7.75344e-05
7.76997e-05
7.78652e-05
7.80285e-05
7.81889e-05
7.83447e-05
7.8497e-05
7.8645e-05
7.87886e-05
7.89284e-05
7.90648e-05
7.91972e-05
7.93263e-05
7.94526e-05
7.95766e-05
7.96994e-05
7.9822e-05
7.99451e-05
8.00692e-05
8.01945e-05
8.03215e-05
8.04516e-05
8.05864e-05
8.07262e-05
8.08704e-05
8.10188e-05
8.11723e-05
8.13313e-05
8.14962e-05
8.16666e-05
8.1842e-05
8.20218e-05
8.22065e-05
8.23961e-05
8.25898e-05
8.2786e-05
8.29839e-05
8.31843e-05
8.33874e-05
8.35919e-05
8.37976e-05
8.40056e-05
8.42164e-05
8.44292e-05
8.46454e-05
8.48667e-05
8.50923e-05
8.53249e-05
8.55703e-05
7.28167e-05
7.30409e-05
7.32678e-05
7.34932e-05
7.37128e-05
7.39239e-05
7.41262e-05
7.43148e-05
7.44925e-05
7.4657e-05
7.48089e-05
7.49489e-05
7.50772e-05
7.51948e-05
7.5303e-05
7.54032e-05
7.54979e-05
7.55891e-05
7.56781e-05
7.57664e-05
7.58557e-05
7.59482e-05
7.60461e-05
7.61511e-05
7.62643e-05
7.63864e-05
7.65176e-05
7.66584e-05
7.68095e-05
7.69715e-05
7.71436e-05
7.73247e-05
7.75139e-05
7.77102e-05
7.79127e-05
7.81203e-05
7.83316e-05
7.85466e-05
7.87654e-05
7.89869e-05
7.92106e-05
7.94368e-05
7.96661e-05
7.98991e-05
8.01377e-05
8.03859e-05
8.06447e-05
8.09143e-05
8.12077e-05
8.152e-05
6.59793e-05
6.61976e-05
6.64202e-05
6.66407e-05
6.68553e-05
6.70585e-05
6.72487e-05
6.74247e-05
6.75853e-05
6.77298e-05
6.78589e-05
6.79729e-05
6.80727e-05
6.8159e-05
6.82343e-05
6.83014e-05
6.83624e-05
6.84192e-05
6.84744e-05
6.85306e-05
6.85903e-05
6.86556e-05
6.87287e-05
6.88119e-05
6.89061e-05
6.90117e-05
6.91289e-05
6.92584e-05
6.94007e-05
6.95552e-05
6.97206e-05
6.98955e-05
7.00784e-05
7.02684e-05
7.04638e-05
7.06631e-05
7.08658e-05
7.10716e-05
7.12797e-05
7.14891e-05
7.16991e-05
7.19108e-05
7.21251e-05
7.23432e-05
7.25691e-05
7.28053e-05
7.30541e-05
7.3323e-05
7.36145e-05
7.39331e-05
6.05971e-05
6.07127e-05
6.08344e-05
6.09553e-05
6.1073e-05
6.11854e-05
6.12894e-05
6.13851e-05
6.14708e-05
6.1547e-05
6.16134e-05
6.16703e-05
6.17186e-05
6.17596e-05
6.17945e-05
6.18253e-05
6.18545e-05
6.18842e-05
6.19154e-05
6.19486e-05
6.1985e-05
6.20271e-05
6.20774e-05
6.21366e-05
6.22042e-05
6.22799e-05
6.23641e-05
6.24578e-05
6.25609e-05
6.2672e-05
6.27896e-05
6.29126e-05
6.30408e-05
6.31735e-05
6.33086e-05
6.34448e-05
6.35822e-05
6.37207e-05
6.38601e-05
6.39998e-05
6.41402e-05
6.42812e-05
6.44235e-05
6.45689e-05
6.47191e-05
6.48758e-05
6.50411e-05
6.5225e-05
6.5425e-05
6.5651e-05
5.85792e-05
5.85635e-05
5.85574e-05
5.85592e-05
5.85672e-05
5.85772e-05
5.85906e-05
5.86048e-05
5.86191e-05
5.86338e-05
5.86472e-05
5.86589e-05
5.86687e-05
5.86786e-05
5.86901e-05
5.87032e-05
5.87163e-05
5.87285e-05
5.87405e-05
5.87541e-05
5.87706e-05
5.87905e-05
5.88136e-05
5.884e-05
5.88694e-05
5.89022e-05
5.89385e-05
5.8978e-05
5.902e-05
5.90645e-05
5.91121e-05
5.91629e-05
5.92157e-05
5.92688e-05
5.93218e-05
5.93762e-05
5.94332e-05
5.94923e-05
5.95519e-05
5.96107e-05
5.96678e-05
5.97235e-05
5.97801e-05
5.9839e-05
5.98979e-05
5.99617e-05
6.00339e-05
6.01092e-05
6.01951e-05
6.02924e-05
5.89405e-05
5.88228e-05
5.87215e-05
5.86374e-05
5.85677e-05
5.85085e-05
5.84618e-05
5.84225e-05
5.83893e-05
5.83603e-05
5.83344e-05
5.83118e-05
5.82934e-05
5.8278e-05
5.82639e-05
5.82497e-05
5.82365e-05
5.8226e-05
5.82181e-05
5.82116e-05
5.8206e-05
5.82017e-05
5.82005e-05
5.82024e-05
5.82059e-05
5.82101e-05
5.82157e-05
5.82234e-05
5.8233e-05
5.82443e-05
5.8258e-05
5.82744e-05
5.82927e-05
5.83117e-05
5.8331e-05
5.83508e-05
5.83715e-05
5.83924e-05
5.84133e-05
5.84345e-05
5.84563e-05
5.848e-05
5.85034e-05
5.85217e-05
5.85388e-05
5.85564e-05
5.85733e-05
5.85883e-05
5.86054e-05
5.86247e-05
6.01284e-05
5.9959e-05
5.98348e-05
5.97069e-05
5.95906e-05
5.94894e-05
5.93958e-05
5.93141e-05
5.9239e-05
5.91639e-05
5.90929e-05
5.90177e-05
5.8949e-05
5.88852e-05
5.8819e-05
5.8756e-05
5.8701e-05
5.86514e-05
5.86048e-05
5.85634e-05
5.85299e-05
5.85034e-05
5.84818e-05
5.8461e-05
5.84378e-05
5.84166e-05
5.84019e-05
5.83906e-05
5.83807e-05
5.83753e-05
5.83787e-05
5.8391e-05
5.84069e-05
5.84208e-05
5.84344e-05
5.84527e-05
5.84744e-05
5.8496e-05
5.85158e-05
5.85346e-05
5.85554e-05
5.85806e-05
5.86008e-05
5.86111e-05
5.86294e-05
5.86408e-05
5.8648e-05
5.86554e-05
5.86488e-05
5.86558e-05
6.11075e-05
6.08628e-05
6.0838e-05
6.067e-05
6.05777e-05
6.05297e-05
6.03922e-05
6.03137e-05
6.02718e-05
6.02438e-05
6.0211e-05
6.00708e-05
5.99381e-05
5.99266e-05
5.98999e-05
5.97703e-05
5.96073e-05
5.94962e-05
5.94265e-05
5.93589e-05
5.929e-05
5.92313e-05
5.9189e-05
5.91469e-05
5.90855e-05
5.90212e-05
5.89603e-05
5.88773e-05
5.87771e-05
5.86973e-05
5.86637e-05
5.86714e-05
5.86948e-05
5.87149e-05
5.87419e-05
5.87893e-05
5.88349e-05
5.88634e-05
5.88799e-05
5.88906e-05
5.89198e-05
5.89612e-05
5.89616e-05
5.89549e-05
5.89971e-05
5.90015e-05
5.89889e-05
5.898e-05
5.89555e-05
5.89236e-05
6.14114e-05
6.13299e-05
6.12561e-05
6.11819e-05
6.11126e-05
6.10414e-05
6.09733e-05
6.09115e-05
6.08525e-05
6.07959e-05
6.07356e-05
6.06725e-05
6.06111e-05
6.05515e-05
6.04855e-05
6.04137e-05
6.03456e-05
6.02817e-05
6.02162e-05
6.01483e-05
6.00811e-05
6.00191e-05
5.99635e-05
5.99099e-05
5.9858e-05
5.98119e-05
5.97684e-05
5.972e-05
5.96643e-05
5.96084e-05
5.95616e-05
5.95252e-05
5.94944e-05
5.94658e-05
5.94414e-05
5.94239e-05
5.94156e-05
5.94119e-05
5.93995e-05
5.93773e-05
5.93744e-05
5.93837e-05
5.93583e-05
5.93642e-05
5.93908e-05
5.93571e-05
5.93329e-05
5.93668e-05
5.93267e-05
5.92901e-05
6.14539e-05
6.14058e-05
6.13618e-05
6.13155e-05
6.12693e-05
6.12232e-05
6.11785e-05
6.11348e-05
6.10897e-05
6.10446e-05
6.09997e-05
6.09528e-05
6.09074e-05
6.08664e-05
6.08268e-05
6.07855e-05
6.07424e-05
6.06985e-05
6.06559e-05
6.06151e-05
6.05744e-05
6.05325e-05
6.04895e-05
6.04461e-05
6.04032e-05
6.03608e-05
6.03184e-05
6.02754e-05
6.02325e-05
6.01915e-05
6.01523e-05
6.01142e-05
6.00779e-05
6.00442e-05
6.00131e-05
5.9984e-05
5.99572e-05
5.99313e-05
5.99028e-05
5.98778e-05
5.9861e-05
5.98377e-05
5.98157e-05
5.98125e-05
5.97882e-05
5.97785e-05
5.97594e-05
5.97472e-05
5.9739e-05
5.97262e-05
6.14685e-05
6.1437e-05
6.14045e-05
6.13723e-05
6.13394e-05
6.13065e-05
6.12742e-05
6.12408e-05
6.12083e-05
6.11758e-05
6.11428e-05
6.11096e-05
6.10765e-05
6.10444e-05
6.10136e-05
6.09827e-05
6.09505e-05
6.09183e-05
6.08869e-05
6.08553e-05
6.08226e-05
6.07895e-05
6.07564e-05
6.07232e-05
6.06906e-05
6.06592e-05
6.06282e-05
6.05968e-05
6.05651e-05
6.05329e-05
6.05004e-05
6.04681e-05
6.0436e-05
6.04052e-05
6.03754e-05
6.03468e-05
6.03203e-05
6.0294e-05
6.02684e-05
6.02468e-05
6.02254e-05
6.02007e-05
6.01821e-05
6.01619e-05
6.01392e-05
6.01267e-05
6.01102e-05
6.00972e-05
6.00821e-05
6.00731e-05
6.14762e-05
6.14515e-05
6.14269e-05
6.14016e-05
6.13762e-05
6.13511e-05
6.13258e-05
6.13011e-05
6.12768e-05
6.12526e-05
6.12276e-05
6.12014e-05
6.11756e-05
6.11512e-05
6.11273e-05
6.11027e-05
6.10778e-05
6.1053e-05
6.10278e-05
6.10018e-05
6.09756e-05
6.09493e-05
6.09227e-05
6.08957e-05
6.08687e-05
6.08422e-05
6.0816e-05
6.079e-05
6.07637e-05
6.07373e-05
6.07106e-05
6.06835e-05
6.06566e-05
6.06301e-05
6.06042e-05
6.05793e-05
6.0556e-05
6.05339e-05
6.05138e-05
6.04957e-05
6.04758e-05
6.04572e-05
6.04415e-05
6.04199e-05
6.04086e-05
6.0393e-05
6.0385e-05
6.03754e-05
6.03701e-05
6.03673e-05
6.14807e-05
6.14612e-05
6.14415e-05
6.14211e-05
6.14008e-05
6.13812e-05
6.1361e-05
6.13401e-05
6.13193e-05
6.12984e-05
6.12777e-05
6.12576e-05
6.12379e-05
6.12178e-05
6.11972e-05
6.11764e-05
6.11558e-05
6.11348e-05
6.11136e-05
6.10926e-05
6.10718e-05
6.10508e-05
6.10297e-05
6.10086e-05
6.09875e-05
6.09664e-05
6.09452e-05
6.09236e-05
6.09016e-05
6.08789e-05
6.08556e-05
6.08323e-05
6.08098e-05
6.07885e-05
6.07684e-05
6.07496e-05
6.07318e-05
6.07147e-05
6.06994e-05
6.06847e-05
6.06706e-05
6.06614e-05
6.06533e-05
6.06488e-05
6.06498e-05
6.06514e-05
6.06584e-05
6.06653e-05
6.0679e-05
6.06899e-05
6.14832e-05
6.14664e-05
6.14493e-05
6.14316e-05
6.14141e-05
6.13966e-05
6.13799e-05
6.13634e-05
6.13463e-05
6.1329e-05
6.13121e-05
6.12959e-05
6.12803e-05
6.12651e-05
6.12498e-05
6.12343e-05
6.12184e-05
6.12025e-05
6.1187e-05
6.11715e-05
6.11554e-05
6.11388e-05
6.11222e-05
6.11062e-05
6.10908e-05
6.10753e-05
6.10589e-05
6.10412e-05
6.10217e-05
6.10008e-05
6.0979e-05
6.09577e-05
6.09384e-05
6.09227e-05
6.09117e-05
6.09064e-05
6.09065e-05
6.09114e-05
6.09199e-05
6.09304e-05
6.0945e-05
6.09642e-05
6.09858e-05
6.10202e-05
6.10561e-05
6.11008e-05
6.11486e-05
6.11981e-05
6.12556e-05
6.1311e-05
6.14873e-05
6.14751e-05
6.14621e-05
6.14503e-05
6.14394e-05
6.14282e-05
6.1418e-05
6.14128e-05
6.1412e-05
6.14124e-05
6.14122e-05
6.14135e-05
6.14183e-05
6.14269e-05
6.14383e-05
6.14499e-05
6.14595e-05
6.1466e-05
6.14694e-05
6.147e-05
6.14676e-05
6.14642e-05
6.14642e-05
6.14733e-05
6.14925e-05
6.15165e-05
6.15347e-05
6.1535e-05
6.15109e-05
6.14827e-05
6.14701e-05
6.14714e-05
6.14817e-05
6.14961e-05
6.15101e-05
6.15759e-05
6.1682e-05
6.18128e-05
6.19519e-05
6.2084e-05
6.22043e-05
6.23141e-05
6.24261e-05
6.25476e-05
6.26751e-05
6.28051e-05
6.29309e-05
6.30487e-05
6.31602e-05
6.32631e-05
6.17933e-05
6.19267e-05
6.18134e-05
6.1772e-05
6.19324e-05
6.20812e-05
6.22297e-05
6.26815e-05
6.32665e-05
6.37275e-05
6.39332e-05
6.39471e-05
6.39028e-05
6.39024e-05
6.39622e-05
6.40281e-05
6.40371e-05
6.39687e-05
6.38756e-05
6.39706e-05
6.42249e-05
6.45677e-05
6.48295e-05
6.50699e-05
6.53261e-05
6.558e-05
6.58311e-05
6.60852e-05
6.63375e-05
6.65568e-05
6.67425e-05
6.69628e-05
6.71691e-05
6.73713e-05
6.75727e-05
6.77604e-05
6.79399e-05
6.85153e-05
6.93747e-05
7.02003e-05
7.07766e-05
7.09835e-05
7.09469e-05
7.09342e-05
7.10209e-05
7.11621e-05
7.12126e-05
7.109e-05
7.08327e-05
7.04914e-05
0.000162271
0.000164285
0.000166431
0.000166882
0.000165327
0.000163726
0.000163021
0.000162534
0.000162014
0.00016136
0.000160487
0.000159372
0.000157994
0.000156327
0.000154347
0.000152036
0.000149389
0.000146413
0.000143122
0.000139597
0.000136323
0.000133595
0.000131788
0.000130758
0.000130218
0.000129632
0.000128414
0.000126473
0.000124121
0.00012198
0.000120663
0.000120538
0.000121995
0.000124906
0.000128654
0.000132455
0.000135383
0.000136257
0.000135845
0.000134696
0.000133019
0.000131207
0.000129411
0.000127512
0.000125577
0.000123697
0.000121862
0.000119969
0.000118046
0.000116031
0.000272578
0.000269236
0.000266028
0.000262942
0.000259963
0.00025708
0.000254278
0.000251554
0.000248906
0.000246331
0.000243827
0.00024139
0.000239018
0.000236707
0.000234455
0.000232258
0.000230114
0.000228022
0.00022598
0.000223987
0.000222041
0.000220143
0.00021829
0.000216482
0.000214717
0.000212992
0.000211308
0.000209661
0.000208051
0.000206477
0.000204939
0.000203436
0.000201969
0.000200537
0.000199139
0.000197776
0.000196448
0.000195153
0.000193892
0.000192657
0.000191445
0.000190251
0.000189072
0.000187906
0.000186748
0.000185594
0.000184438
0.000183271
0.000182075
0.000180814
0.000270636
0.000264462
0.000258552
0.000252882
0.000247451
0.000242254
0.000237288
0.000232541
0.000228002
0.000223659
0.0002195
0.000215512
0.000211683
0.000208003
0.000204462
0.000201051
0.000197763
0.000194592
0.000191531
0.000188576
0.000185722
0.000182964
0.000180296
0.000177714
0.000175212
0.000172785
0.000170429
0.000168139
0.000165914
0.000163752
0.00016165
0.000159607
0.000157622
0.000155692
0.000153816
0.000151992
0.000150217
0.000148488
0.000146801
0.000145156
0.000143553
0.000141988
0.000140458
0.000138961
0.000137494
0.000136056
0.000134647
0.000133264
0.000131905
0.000130567
0.000270626
0.000264428
0.000258477
0.00025277
0.000247299
0.000242056
0.000237031
0.000232214
0.000227593
0.000223159
0.000218898
0.000214801
0.000210857
0.000207057
0.00020339
0.000199851
0.000196431
0.000193127
0.000189931
0.000186839
0.000183847
0.000180951
0.000178145
0.000175425
0.000172786
0.000170223
0.000167733
0.000165313
0.000162959
0.000160671
0.000158446
0.000156283
0.000154179
0.000152134
0.000150147
0.000148216
0.00014634
0.000144517
0.000142743
0.000141016
0.000139332
0.000137689
0.000136085
0.000134517
0.000132984
0.000131486
0.000130023
0.000128594
0.000127201
0.000125843
0.000270626
0.000264472
0.000258574
0.000252919
0.000247496
0.000242294
0.000237302
0.00023251
0.000227909
0.000223487
0.000219235
0.000215141
0.000211197
0.000207393
0.000203722
0.000200175
0.000196747
0.000193433
0.000190227
0.000187125
0.000184122
0.000181214
0.000178396
0.000175663
0.00017301
0.000170434
0.00016793
0.000165497
0.00016313
0.000160828
0.00015859
0.000156413
0.000154296
0.000152239
0.00015024
0.000148297
0.000146408
0.000144572
0.000142786
0.000141045
0.000139349
0.000137693
0.000136075
0.000134494
0.000132949
0.000131438
0.000129962
0.000128521
0.000127116
0.000125746
0.000270626
0.000264472
0.000258571
0.00025291
0.000247478
0.000242267
0.000237267
0.000232468
0.000227861
0.000223434
0.000219178
0.000215082
0.000211136
0.000207332
0.00020366
0.000200115
0.00019669
0.000193379
0.000190178
0.000187081
0.000184083
0.000181181
0.000178368
0.00017564
0.000172993
0.000170421
0.000167922
0.000165492
0.00016313
0.000160832
0.000158598
0.000156425
0.000154312
0.000152259
0.000150263
0.000148324
0.000146439
0.000144605
0.00014282
0.000141082
0.000139387
0.000137732
0.000136114
0.000134533
0.000132987
0.000131475
0.000129998
0.000128556
0.000127148
0.000125775
0.000270625
0.000264475
0.00025858
0.000252929
0.000247509
0.000242311
0.000237324
0.000232539
0.000227943
0.000223526
0.000219278
0.000215188
0.000211248
0.000207447
0.000203779
0.000200237
0.000196814
0.000193505
0.000190305
0.000187209
0.000184213
0.000181311
0.000178498
0.00017577
0.000173121
0.000170548
0.000168048
0.000165616
0.000163252
0.000160952
0.000158715
0.000156541
0.000154426
0.000152371
0.000150373
0.00014843
0.000146542
0.000144705
0.000142916
0.000141174
0.000139474
0.000137814
0.000136191
0.000134605
0.000133053
0.000131535
0.000130052
0.000128603
0.000127189
0.000125808
0.000270625
0.000264475
0.000258581
0.000252931
0.000247512
0.000242315
0.000237327
0.00023254
0.000227941
0.00022352
0.000219268
0.000215174
0.000211229
0.000207424
0.000203752
0.000200207
0.000196781
0.000193471
0.00019027
0.000187174
0.000184178
0.000181276
0.000178464
0.000175736
0.000173088
0.000170516
0.000168015
0.000165585
0.000163221
0.000160922
0.000158687
0.000156514
0.000154401
0.000152346
0.000150349
0.000148408
0.00014652
0.000144683
0.000142895
0.000141152
0.000139452
0.000137791
0.000136167
0.000134579
0.000133026
0.000131507
0.000130022
0.000128571
0.000127154
0.00012577
0.000270625
0.000264474
0.000258582
0.000252934
0.000247518
0.000242324
0.00023734
0.000232556
0.00022796
0.000223543
0.000219293
0.000215201
0.000211258
0.000207455
0.000203784
0.00020024
0.000196816
0.000193508
0.000190309
0.000187216
0.000184221
0.000181321
0.00017851
0.000175783
0.000173136
0.000170563
0.000168063
0.000165632
0.000163269
0.00016097
0.000158734
0.00015656
0.000154446
0.000152391
0.000150393
0.00014845
0.00014656
0.000144721
0.000142929
0.000141183
0.000139479
0.000137814
0.000136186
0.000134594
0.000133036
0.000131513
0.000130023
0.000128567
0.000127144
0.000125755
0.000270625
0.000264474
0.000258582
0.000252935
0.000247521
0.000242328
0.000237345
0.000232561
0.000227965
0.000223546
0.000219295
0.000215201
0.000211256
0.00020745
0.000203777
0.000200231
0.000196805
0.000193496
0.000190296
0.000187202
0.000184207
0.000181306
0.000178495
0.000175767
0.000173119
0.000170547
0.000168046
0.000165615
0.000163252
0.000160953
0.000158717
0.000156543
0.000154429
0.000152373
0.000150375
0.000148431
0.000146541
0.0001447
0.000142907
0.000141159
0.000139453
0.000137786
0.000136156
0.000134561
0.000133001
0.000131475
0.000129983
0.000128524
0.000127098
0.000125706
0.000270625
0.000264473
0.000258582
0.000252935
0.000247522
0.000242331
0.000237349
0.000232565
0.00022797
0.000223552
0.000219301
0.000215207
0.000211261
0.000207455
0.000203782
0.000200235
0.00019681
0.000193501
0.000190302
0.000187208
0.000184214
0.000181314
0.000178503
0.000175776
0.000173129
0.000170557
0.000168057
0.000165626
0.000163262
0.000160963
0.000158727
0.000156553
0.000154439
0.000152383
0.000150383
0.000148439
0.000146546
0.000144704
0.000142909
0.000141158
0.000139449
0.000137779
0.000136146
0.000134548
0.000132984
0.000131455
0.000129958
0.000128496
0.000127066
0.000125669
0.000270625
0.000264473
0.000258582
0.000252936
0.000247523
0.000242332
0.000237351
0.000232568
0.000227973
0.000223555
0.000219303
0.000215208
0.000211261
0.000207454
0.00020378
0.000200233
0.000196807
0.000193498
0.000190298
0.000187204
0.00018421
0.00018131
0.000178499
0.000175772
0.000173125
0.000170553
0.000168053
0.000165622
0.000163258
0.000160959
0.000158723
0.000156549
0.000154435
0.000152378
0.000150378
0.000148432
0.000146538
0.000144694
0.000142896
0.000141143
0.000139431
0.000137758
0.000136122
0.000134521
0.000132955
0.000131422
0.000129923
0.000128457
0.000127024
0.000125623
0.000270624
0.000264473
0.000258581
0.000252935
0.000247523
0.000242332
0.000237351
0.000232568
0.000227973
0.000223554
0.000219301
0.000215205
0.000211256
0.000207447
0.000203772
0.000200223
0.000196797
0.000193486
0.000190285
0.00018719
0.000184195
0.000181294
0.000178483
0.000175756
0.000173109
0.000170537
0.000168037
0.000165606
0.000163242
0.000160943
0.000158707
0.000156533
0.000154418
0.000152361
0.000150361
0.000148414
0.000146519
0.000144673
0.000142873
0.000141118
0.000139404
0.000137729
0.00013609
0.000134487
0.000132917
0.000131382
0.000129881
0.000128412
0.000126977
0.000125573
0.000270624
0.000264472
0.00025858
0.000252934
0.000247522
0.000242331
0.000237351
0.000232568
0.000227974
0.000223555
0.000219303
0.000215207
0.000211258
0.00020745
0.000203776
0.000200228
0.000196801
0.000193491
0.00019029
0.000187196
0.000184201
0.000181301
0.000178491
0.000175765
0.000173118
0.000170547
0.000168047
0.000165616
0.000163252
0.000160953
0.000158717
0.000156542
0.000154427
0.000152369
0.000150367
0.000148419
0.000146522
0.000144674
0.000142872
0.000141113
0.000139396
0.000137717
0.000136074
0.000134467
0.000132895
0.000131356
0.000129851
0.000128379
0.000126939
0.000125531
0.000270624
0.000264471
0.000258578
0.000252931
0.000247517
0.000242325
0.000237342
0.000232557
0.000227959
0.000223537
0.000219281
0.000215182
0.00021123
0.000207419
0.000203741
0.00020019
0.00019676
0.000193446
0.000190244
0.000187147
0.000184151
0.00018125
0.000178439
0.000175713
0.000173065
0.000170493
0.000167993
0.000165563
0.000163199
0.0001609
0.000158665
0.00015649
0.000154376
0.000152318
0.000150317
0.000148369
0.000146471
0.000144623
0.00014282
0.00014106
0.000139341
0.00013766
0.000136016
0.000134407
0.000132833
0.000131294
0.000129788
0.000128314
0.000126873
0.000125462
0.000270624
0.00026447
0.000258576
0.000252927
0.000247514
0.000242324
0.000237343
0.000232561
0.000227966
0.000223548
0.000219296
0.000215199
0.000211251
0.000207442
0.000203765
0.000200215
0.000196786
0.000193473
0.000190271
0.000187174
0.000184179
0.000181278
0.000178467
0.000175739
0.000173091
0.000170518
0.000168017
0.000165586
0.000163221
0.000160921
0.000158684
0.000156508
0.000154392
0.000152333
0.000150329
0.000148379
0.000146478
0.000144626
0.000142819
0.000141055
0.000139332
0.000137647
0.000135998
0.000134385
0.000132807
0.000131263
0.000129753
0.000128275
0.000126829
0.000125412
0.000270624
0.000264466
0.000258565
0.000252907
0.000247483
0.000242281
0.000237289
0.000232495
0.00022789
0.000223461
0.0002192
0.000215096
0.000211141
0.000207326
0.000203644
0.00020009
0.000196657
0.000193342
0.000190138
0.000187041
0.000184045
0.000181144
0.000178332
0.000175605
0.000172958
0.000170387
0.000167888
0.000165458
0.000163095
0.000160797
0.000158562
0.000156388
0.000154274
0.000152218
0.000150216
0.000148267
0.000146368
0.000144516
0.00014271
0.000140946
0.000139222
0.000137537
0.000135889
0.000134276
0.000132698
0.000131155
0.000129645
0.000128167
0.00012672
0.000125303
0.000270624
0.000264465
0.000258566
0.000252915
0.000247501
0.000242308
0.000237326
0.000232541
0.000227943
0.00022352
0.000219262
0.00021516
0.000211204
0.000207387
0.000203703
0.000200145
0.000196709
0.00019339
0.000190181
0.000187079
0.000184078
0.000181171
0.000178355
0.000175622
0.00017297
0.000170394
0.000167889
0.000165455
0.000163087
0.000160785
0.000158546
0.000156369
0.000154251
0.000152191
0.000150185
0.000148232
0.00014633
0.000144474
0.000142664
0.000140896
0.000139168
0.00013748
0.000135828
0.000134214
0.000132635
0.000131091
0.000129582
0.000128106
0.000126664
0.000125253
0.000270623
0.00026442
0.000258467
0.000252764
0.000247303
0.000242071
0.000237057
0.000232248
0.000227631
0.000223196
0.00021893
0.000214823
0.000210866
0.000207051
0.00020337
0.000199819
0.00019639
0.00019308
0.000189882
0.000186791
0.000183801
0.000180907
0.000178103
0.000175385
0.000172747
0.000170186
0.000167697
0.000165278
0.000162926
0.000160641
0.00015842
0.00015626
0.000154161
0.000152119
0.000150132
0.000148199
0.000146317
0.000144483
0.000142695
0.000140951
0.000139249
0.000137589
0.000135968
0.000134388
0.000132848
0.000131349
0.000129891
0.000128476
0.000127107
0.000125789
0.000270632
0.000264449
0.000258536
0.000252872
0.000247451
0.000242268
0.000237315
0.00023258
0.000228048
0.000223707
0.000219542
0.000215544
0.000211702
0.000208006
0.000204451
0.000201027
0.000197731
0.000194555
0.000191494
0.000188541
0.000185692
0.000182941
0.000180281
0.000177707
0.000175214
0.000172797
0.000170452
0.000168177
0.000165971
0.00016383
0.000161753
0.000159738
0.000157784
0.000155889
0.000154052
0.00015227
0.000150542
0.000148865
0.000147237
0.000145657
0.000144124
0.000142639
0.000141202
0.000139814
0.000138479
0.0001372
0.000135984
0.00013484
0.000133786
0.000132856
0.000272583
0.000269232
0.000266017
0.00026293
0.000259957
0.000257081
0.000254287
0.000251571
0.000248928
0.000246354
0.000243846
0.000241403
0.000239021
0.000236699
0.000234436
0.000232231
0.000230081
0.000227986
0.000225944
0.000223952
0.000222009
0.000220112
0.00021826
0.000216449
0.00021468
0.00021295
0.000211258
0.000209605
0.000207989
0.00020641
0.000204866
0.000203357
0.000201882
0.00020044
0.00019903
0.000197649
0.000196296
0.000194969
0.000193667
0.000192389
0.000191134
0.0001899
0.000188686
0.000187493
0.000186317
0.000185159
0.000184016
0.000182886
0.000181764
0.000180647
0.000179527
9.60114e-05
8.87774e-05
0.000102005
0.000116212
0.000126156
0.000130474
0.000129461
0.000124374
0.000117035
0.000109223
0.000101846
9.42276e-05
8.25471e-05
7.10025e-05
6.15137e-05
5.91263e-05
6.71616e-05
0.000100194
0.000252381
0.000178215
9.57186e-05
8.91506e-05
0.00010271
0.000117063
0.000127032
0.000131284
0.000130146
0.000124914
0.000117461
0.000109625
0.000102378
9.56526e-05
8.33711e-05
7.21508e-05
6.24728e-05
5.8609e-05
6.50563e-05
9.6922e-05
0.000250323
0.000176896
9.53868e-05
8.95158e-05
0.000103421
0.000117927
0.000127921
0.000132099
0.000130819
0.00012542
0.000117826
0.000109931
0.000102684
9.40966e-05
8.42254e-05
7.29534e-05
6.30808e-05
5.85335e-05
6.41748e-05
9.55437e-05
0.00024979
0.000175579
9.50192e-05
8.98747e-05
0.000104141
0.000118807
0.000128825
0.000132919
0.000131481
0.000125893
0.000118146
0.000110207
0.000103118
9.55906e-05
8.53386e-05
7.37718e-05
6.36978e-05
5.85201e-05
6.33475e-05
9.41933e-05
0.000249274
0.000174262
9.46155e-05
9.02266e-05
0.000104868
0.000119702
0.000129742
0.000133742
0.000132123
0.000126316
0.000118382
0.000110367
0.000103384
9.62725e-05
8.63934e-05
7.45899e-05
6.43212e-05
5.85644e-05
6.25764e-05
9.28736e-05
0.000248776
0.000172947
9.41754e-05
9.05716e-05
0.000105604
0.000120611
0.000130671
0.000134565
0.000132745
0.000126693
0.000118544
0.000110433
0.00010354
9.6606e-05
8.73633e-05
7.54057e-05
6.49514e-05
5.86627e-05
6.18615e-05
9.15835e-05
0.000248293
0.000171633
9.36973e-05
9.09092e-05
0.000106347
0.000121533
0.00013161
0.000135383
0.000133337
0.000127009
0.000118617
0.000110395
0.000103604
9.69761e-05
8.82434e-05
7.62153e-05
6.5589e-05
5.88117e-05
6.12036e-05
9.03249e-05
0.000247828
0.000170322
9.31802e-05
9.12393e-05
0.000107096
0.000122467
0.000132558
0.000136195
0.000133895
0.000127256
0.000118588
0.000110235
0.000103557
9.74186e-05
8.90318e-05
7.70124e-05
6.62319e-05
5.90068e-05
6.06035e-05
8.91002e-05
0.000247384
0.000169013
9.26235e-05
9.15617e-05
0.00010785
0.00012341
0.000133511
0.000136996
0.000134414
0.000127426
0.000118445
0.000109937
0.000103373
9.77744e-05
8.9733e-05
7.7793e-05
6.68786e-05
5.92442e-05
6.00613e-05
8.79114e-05
0.000246965
0.000167706
9.20278e-05
9.18766e-05
0.000108607
0.000124361
0.000134466
0.000137781
0.000134886
0.000127509
0.000118173
0.000109481
0.000103026
9.79458e-05
9.03267e-05
7.85513e-05
6.75268e-05
5.95198e-05
5.95766e-05
8.67604e-05
0.000246575
0.000166403
9.13942e-05
9.21839e-05
0.000109367
0.000125318
0.000135421
0.000138547
0.000135306
0.000127495
0.000117759
0.000108851
0.000102494
9.79359e-05
9.07963e-05
7.92791e-05
6.81741e-05
5.98294e-05
5.91487e-05
8.56488e-05
0.000246215
0.000165105
9.07238e-05
9.24836e-05
0.000110125
0.000126276
0.00013637
0.000139288
0.000135665
0.000127373
0.000117186
0.000108026
0.000101758
9.77147e-05
9.11282e-05
7.99681e-05
6.88178e-05
6.01686e-05
5.8776e-05
8.45781e-05
0.000245887
0.000163811
9.00177e-05
9.2775e-05
0.000110879
0.000127231
0.000137311
0.000139999
0.000135957
0.000127131
0.000116439
0.000106986
0.000100795
9.72722e-05
9.13238e-05
8.0612e-05
6.94548e-05
6.0533e-05
5.84568e-05
8.35498e-05
0.000245595
0.000162522
8.92775e-05
9.30571e-05
0.000111626
0.000128179
0.000138236
0.000140672
0.000136172
0.000126758
0.000115501
0.00010571
9.95852e-05
9.66e-05
9.13845e-05
8.12039e-05
7.00815e-05
6.09182e-05
5.81888e-05
8.25653e-05
0.00024534
0.000161239
8.85066e-05
9.33289e-05
0.00011236
0.000129114
0.00013914
0.000141303
0.000136303
0.000126243
0.000114357
0.000104178
9.81027e-05
9.56868e-05
9.12995e-05
8.17335e-05
7.06929e-05
6.13193e-05
5.79692e-05
8.16257e-05
0.000245126
0.00015996
8.77101e-05
9.35897e-05
0.000113079
0.000130031
0.000140017
0.000141884
0.000136343
0.000125576
0.000112994
0.000102374
9.63233e-05
9.45095e-05
9.10466e-05
8.21876e-05
7.12832e-05
6.17313e-05
5.77946e-05
8.07325e-05
0.000244955
0.000158686
8.68945e-05
9.38387e-05
0.000113777
0.000130924
0.000140861
0.000142409
0.000136285
0.000124752
0.000111403
0.000100283
9.4226e-05
9.30464e-05
9.06051e-05
8.25514e-05
7.18451e-05
6.2149e-05
5.76616e-05
7.98865e-05
0.000244831
0.000157419
8.60662e-05
9.40747e-05
0.000114449
0.000131785
0.000141665
0.000142872
0.000136126
0.000123765
0.000109581
9.79011e-05
9.17984e-05
9.12847e-05
8.99629e-05
8.28114e-05
7.23708e-05
6.25667e-05
5.75657e-05
7.90889e-05
0.000244757
0.00015616
8.52317e-05
9.42954e-05
0.000115088
0.000132608
0.000142421
0.000143269
0.000135863
0.000122619
0.00010753
9.52324e-05
8.90405e-05
8.92245e-05
8.91169e-05
8.2957e-05
7.2852e-05
6.29784e-05
5.75026e-05
7.83405e-05
0.000244738
0.00015491
8.43972e-05
9.4498e-05
0.000115689
0.000133384
0.000143124
0.000143596
0.000135499
0.000121319
0.000105263
9.22946e-05
8.59665e-05
8.68783e-05
8.80727e-05
8.29818e-05
7.3281e-05
6.33781e-05
5.74674e-05
7.76419e-05
0.000244776
0.00015367
8.3569e-05
9.4679e-05
0.000116245
0.000134105
0.000143766
0.000143851
0.00013504
0.000119882
0.000102804
8.91197e-05
8.26056e-05
8.42696e-05
8.68425e-05
8.28837e-05
7.36506e-05
6.37595e-05
5.74547e-05
7.69932e-05
0.000244876
0.000152439
8.27542e-05
9.48344e-05
0.000116747
0.000134764
0.000144342
0.000144036
0.000134494
0.000118328
0.000100185
8.57559e-05
7.90061e-05
8.14317e-05
8.5444e-05
8.26643e-05
7.39552e-05
6.41167e-05
5.74591e-05
7.63943e-05
0.00024504
0.000151218
8.19602e-05
9.49605e-05
0.00011719
0.000135354
0.00014485
0.000144153
0.000133876
0.000116684
9.74523e-05
8.22691e-05
7.524e-05
7.84096e-05
8.39005e-05
8.23298e-05
7.41904e-05
6.44439e-05
5.74751e-05
7.58443e-05
0.000245271
0.000150007
8.11942e-05
9.50536e-05