/*--------------------------------*- C++ -*----------------------------------*\
  =========                 |
  \\      /  F ield         | OpenFOAM: The Open Source CFD Toolbox
   \\    /   O peration     | Website:  https://openfoam.org
    \\  /    A nd           | Version:  8
     \\/     M anipulation  |
\*---------------------------------------------------------------------------*/
FoamFile
{
    version     2.0;
    format      ascii;
    class       volScalarField;
    location    "500";
    object      p;
}
// * * * * * * * * * * * * * * * * * * * * * * * * * * * * * * * * * * * * * //

dimensions      [1 -1 -2 0 0 0 0];

internalField   nonuniform List<scalar> 
8400
(
42235.5
78757.3
115724
150735
183529
213999
242343
268940
294297
318952
343363
367909
392790
418038
443539
469049
494272
518911
542699
565491
587307
608307
628755
649001
669408
690295
711910
734391
757733
781809
806401
831243
856077
880726
905118
929290
953393
977701
1.00258e+06
1.02846e+06
1.05574e+06
1.08474e+06
1.1157e+06
1.14877e+06
1.18406e+06
1.22156e+06
1.26124e+06
1.30394e+06
1.35256e+06
1.40886e+06
41556.2
77927
114881
149962
182900
213560
242122
268938
294490
319265
343737
368242
392987
418040
443297
468550
493528
517936
541534
564201
585956
606950
627438
647735
668167
689036
710575
732909
756036
779838
804110
828614
853138
877533
901723
925718
949640
973739
998367
1.02391e+06
1.05073e+06
1.07907e+06
1.10914e+06
1.14106e+06
1.17486e+06
1.21044e+06
1.24761e+06
1.28658e+06
1.3287e+06
1.3752e+06
41361.9
78029.4
115189
150492
183724
214759
243749
270990
296941
321994
346607
371104
395680
420440
445335
470191
494774
518836
542193
564758
586555
607713
628461
649064
669790
690894
712582
734956
758006
781635
805690
830001
854415
878813
903131
927377
951663
976212
1.00133e+06
1.02735e+06
1.05456e+06
1.08319e+06
1.11345e+06
1.14546e+06
1.17925e+06
1.21478e+06
1.25188e+06
1.29052e+06
1.33128e+06
1.37436e+06
40094.3
77044.8
114447
150001
183519
214905
244302
271975
298290
323608
348319
372705
396982
421269
445541
469681
493537
516945
539773
561969
583585
604741
625600
646353
667213
688382
710008
732154
754805
777891
801309
824953
848730
872568
896424
920312
944331
968661
993522
1.01914e+06
1.04574e+06
1.07351e+06
1.10262e+06
1.13318e+06
1.16523e+06
1.19876e+06
1.23369e+06
1.27001e+06
1.30807e+06
1.34823e+06
39417.6
77387.6
115350
151271
185076
216782
246533
274620
301334
326989
351895
376309
400432
424363
448118
471650
494875
517716
540128
562111
583708
605010
626144
647251
668477
689954
711775
733976
756539
779409
802520
825821
849280
872873
896594
920474
944599
969099
994119
1.01981e+06
1.04633e+06
1.07387e+06
1.10252e+06
1.13237e+06
1.16345e+06
1.19575e+06
1.22918e+06
1.26374e+06
1.29955e+06
1.33709e+06
38045.5
77272.7
115838
152001
185829
217516
247300
275470
302296
328057
352997
377328
401216
424757
447986
470904
493503
515774
537724
559380
580797
602057
623255
644483
665838
687408
709248
731366
753730
776294
799019
821887
844891
868032
891331
914842
938649
962847
987530
1.01283e+06
1.03889e+06
1.06585e+06
1.09378e+06
1.12275e+06
1.15281e+06
1.18396e+06
1.21615e+06
1.2493e+06
1.28353e+06
1.3192e+06
37876.9
79361
118766
155123
188845
220323
249925
277959
304713
330414
355273
379473
403137
426354
449180
471644
493771
515587
537138
558489
579706
600858
622009
643236
664620
686232
708107
730234
752573
775082
797728
820493
843360
866334
889453
912790
936428
960434
984885
1.0099e+06
1.03562e+06
1.06215e+06
1.08954e+06
1.11788e+06
1.14722e+06
1.17754e+06
1.20884e+06
1.24101e+06
1.2741e+06
1.30832e+06
38856.1
83060
123021
159255
192596
223639
252829
280517
306985
332434
357047
380978
404337
427192
449588
471574
493210
514559
535676
556620
577455
598256
619100
640071
661252
682706
704457
726497
748787
771274
793898
816610
839384
862229
885195
908341
931719
955385
979443
1.00404e+06
1.02932e+06
1.05537e+06
1.08228e+06
1.11014e+06
1.13898e+06
1.16878e+06
1.19955e+06
1.23123e+06
1.26372e+06
1.29716e+06
41867.4
88766.6
128750
164830
197876
228573
257424
284805
310999
336207
360581
384232
407262
429750
451758
473348
494570
515467
536097
556531
576855
597155
617528
638079
658915
680115
701712
723693
746011
768597
791365
814234
837153
860109
883131
906258
929531
953022
976850
1.00115e+06
1.02604e+06
1.05162e+06
1.07801e+06
1.10533e+06
1.13362e+06
1.1629e+06
1.19316e+06
1.22438e+06
1.25645e+06
1.28938e+06
43948.1
92177.4
131840
168332
201696
232631
261710
289309
315701
341068
365544
389233
412233
434622
456472
477839
498767
519293
539464
559337
578982
598495
618007
637664
657612
677967
698797
720125
741933
764164
786727
809525
832492
855604
878858
902256
925818
949611
973737
998299
1.0234e+06
1.04914e+06
1.07566e+06
1.10305e+06
1.13133e+06
1.16056e+06
1.19075e+06
1.22188e+06
1.25387e+06
1.28659e+06
40624.3
90174.8
130932
167957
201706
232940
262269
290089
316675
342211
366832
390648
413742
436198
458107
479542
500549
521160
541412
561344
581006
600472
619854
639281
658886
678790
699086
719832
741050
762718
784772
807140
829772
852651
875766
899108
922697
946608
970932
995745
1.02114e+06
1.04723e+06
1.07413e+06
1.10188e+06
1.13055e+06
1.16017e+06
1.19075e+06
1.22226e+06
1.25466e+06
1.28779e+06
33990.6
84668
127753
165585
199916
231660
261404
289571
316453
342257
367125
391153
414420
437024
459070
480643
501802
522590
543041
563188
583066
602738
622287
641801
661367
681070
700999
721235
741841
762845
784241
806012
828150
850648
873477
896606
920054
943886
968172
992980
1.01843e+06
1.04466e+06
1.07175e+06
1.09974e+06
1.12874e+06
1.15875e+06
1.18974e+06
1.22169e+06
1.25461e+06
1.28828e+06
20993.3
71539.2
118468
158385
194183
227440
258652
288140
316203
343080
368942
393875
417924
441179
463775
485841
507479
528770
549777
570552
591144
611587
631891
652040
672004
691764
711337
730792
750242
769817
789652
809873
830577
851802
873524
895705
918336
941428
965004
989155
1.01405e+06
1.03983e+06
1.06658e+06
1.09441e+06
1.12343e+06
1.15358e+06
1.1849e+06
1.21733e+06
1.25077e+06
1.28506e+06
7682.88
54891.4
103667
145247
182394
217347
250553
282085
312145
340978
368730
395416
421014
445566
469199
492098
514452
536429
558186
579872
601611
623457
645366
667173
688616
709413
729367
748424
766705
784473
802090
819933
838305
857372
877156
897591
918571
939984
961796
984121
1.00717e+06
1.03115e+06
1.05627e+06
1.08275e+06
1.11065e+06
1.14e+06
1.17086e+06
1.20312e+06
1.23669e+06
1.2714e+06
4675.99
46668.6
96876.5
140382
178874
215293
250327
283989
316433
347856
378291
407587
435544
462074
487248
511251
534331
556765
578851
600902
623225
646037
669341
692834
715946
737990
758373
776784
793310
808431
822895
837521
852993
869709
887743
906892
926779
947018
967400
987965
1.00892e+06
1.0306e+06
1.05342e+06
1.07764e+06
1.10334e+06
1.13073e+06
1.15971e+06
1.1903e+06
1.22227e+06
1.25556e+06
-23109.2
20879.2
73694.5
118751
158467
196392
233458
269716
305379
340637
375347
409090
441405
471979
500724
527757
553309
577659
601149
624243
647510
671438
696146
721189
745597
768096
787459
802941
814624
823451
830961
838879
848679
861256
876795
894837
914528
934965
955527
976023
996671
1.01806e+06
1.0408e+06
1.06517e+06
1.09134e+06
1.11943e+06
1.14918e+06
1.18046e+06
1.21264e+06
1.24553e+06
-3221.44
32164.9
84598.2
129594
167552
203428
239397
276090
313830
352610
391896
430768
468305
503917
537457
569124
599215
627953
655577
682573
709742
737900
767243
796923
825115
849340
867069
876655
878112
873220
865050
857181
852764
853723
860487
872220
887317
903990
920845
937342
954004
972133
992831
1.01666e+06
1.04403e+06
1.07478e+06
1.10868e+06
1.1451e+06
1.18265e+06
1.22034e+06
-56535.5
-8062.43
57386.3
110083
148898
180297
210652
243660
280629
321314
364341
407873
450345
490877
529325
566040
601511
636141
670336
704815
740854
780073
823159
868756
913501
952293
979475
991139
986754
969255
944031
917701
896445
884027
881023
885647
894943
905418
914003
919455
923073
927773
936024
949292
968222
993255
1.02445e+06
1.06096e+06
1.10068e+06
1.14162e+06
-15161.8
11725.3
73033.2
139374
187891
218909
243987
270701
301668
338029
378923
421592
462824
500497
534700
567027
598734
629958
660730
692352
727730
770978
824206
885529
950343
1.01006e+06
1.05308e+06
1.07083e+06
1.0617e+06
1.03093e+06
988062
944960
912923
898250
900331
914383
934608
953927
965419
965951
958203
948653
942276
940846
944829
956184
976199
1.00391e+06
1.03662e+06
1.07218e+06
8934.02
30003.2
86084.1
153131
200079
228322
254493
285537
318901
354672
393779
435559
477601
516867
551882
583845
615013
646370
677657
709440
744516
787280
842111
907912
977704
1.04082e+06
1.0828e+06
1.09311e+06
1.07056e+06
1.02296e+06
964247
909397
872474
861308
873252
900395
934174
964762
982836
984573
973099
957335
946817
944162
947952
958215
975273
998600
1.02699e+06
1.05863e+06
3.51998e+06
3.51947e+06
3.51922e+06
3.51913e+06
3.51909e+06
3.51907e+06
3.51906e+06
3.51907e+06
3.51908e+06
3.5191e+06
3.51912e+06
3.51914e+06
3.51917e+06
3.51919e+06
3.51921e+06
3.51923e+06
3.51926e+06
3.51928e+06
3.5193e+06
3.51931e+06
3.51933e+06
3.51934e+06
3.51935e+06
3.51935e+06
3.51936e+06
3.51935e+06
3.51935e+06
3.51935e+06
3.51934e+06
3.51932e+06
3.51931e+06
3.51929e+06
3.51926e+06
3.51923e+06
3.51919e+06
3.51915e+06
3.5191e+06
3.51904e+06
3.51897e+06
3.5189e+06
3.51883e+06
3.51876e+06
3.51868e+06
3.5186e+06
3.51851e+06
3.51843e+06
3.51833e+06
3.51823e+06
3.51811e+06
3.51797e+06
3.51828e+06
3.51857e+06
3.51867e+06
3.51871e+06
3.51875e+06
3.51878e+06
3.51882e+06
3.51885e+06
3.51889e+06
3.51892e+06
3.51895e+06
3.51898e+06
3.51901e+06
3.51904e+06
3.51907e+06
3.5191e+06
3.51912e+06
3.51915e+06
3.51917e+06
3.51919e+06
3.51921e+06
3.51922e+06
3.51923e+06
3.51924e+06
3.51924e+06
3.51924e+06
3.51924e+06
3.51923e+06
3.51922e+06
3.51921e+06
3.5192e+06
3.51918e+06
3.51915e+06
3.51912e+06
3.51909e+06
3.51904e+06
3.51899e+06
3.51893e+06
3.51887e+06
3.5188e+06
3.51873e+06
3.51865e+06
3.51858e+06
3.5185e+06
3.51842e+06
3.51833e+06
3.51824e+06
3.51814e+06
3.51804e+06
3.51792e+06
3.51864e+06
3.51878e+06
3.51885e+06
3.51887e+06
3.51887e+06
3.51887e+06
3.51888e+06
3.51889e+06
3.51891e+06
3.51893e+06
3.51895e+06
3.51897e+06
3.51899e+06
3.51901e+06
3.51903e+06
3.51905e+06
3.51907e+06
3.51909e+06
3.51911e+06
3.51913e+06
3.51914e+06
3.51915e+06
3.51916e+06
3.51916e+06
3.51917e+06
3.51916e+06
3.51916e+06
3.51915e+06
3.51915e+06
3.51913e+06
3.51912e+06
3.5191e+06
3.51907e+06
3.51904e+06
3.519e+06
3.51896e+06
3.51891e+06
3.51885e+06
3.51879e+06
3.51872e+06
3.51865e+06
3.51858e+06
3.5185e+06
3.51842e+06
3.51834e+06
3.51826e+06
3.51818e+06
3.51809e+06
3.518e+06
3.51789e+06
3.51856e+06
3.51859e+06
3.51861e+06
3.51861e+06
3.51861e+06
3.51862e+06
3.51864e+06
3.51867e+06
3.51869e+06
3.51872e+06
3.51875e+06
3.51878e+06
3.51881e+06
3.51884e+06
3.51886e+06
3.51889e+06
3.51892e+06
3.51894e+06
3.51896e+06
3.51898e+06
3.519e+06
3.51901e+06
3.51902e+06
3.51903e+06
3.51904e+06
3.51904e+06
3.51903e+06
3.51903e+06
3.51902e+06
3.51901e+06
3.519e+06
3.51898e+06
3.51896e+06
3.51893e+06
3.51889e+06
3.51885e+06
3.5188e+06
3.51874e+06
3.51868e+06
3.51861e+06
3.51855e+06
3.51848e+06
3.5184e+06
3.51833e+06
3.51826e+06
3.51818e+06
3.51811e+06
3.51803e+06
3.51794e+06
3.51785e+06
3.5185e+06
3.51851e+06
3.51854e+06
3.51856e+06
3.51858e+06
3.5186e+06
3.51862e+06
3.51864e+06
3.51867e+06
3.5187e+06
3.51872e+06
3.51875e+06
3.51877e+06
3.5188e+06
3.51882e+06
3.51885e+06
3.51887e+06
3.51889e+06
3.51891e+06
3.51893e+06
3.51894e+06
3.51895e+06
3.51896e+06
3.51897e+06
3.51897e+06
3.51897e+06
3.51896e+06
3.51896e+06
3.51895e+06
3.51894e+06
3.51892e+06
3.5189e+06
3.51888e+06
3.51885e+06
3.51881e+06
3.51877e+06
3.51872e+06
3.51866e+06
3.5186e+06
3.51854e+06
3.51847e+06
3.51841e+06
3.51834e+06
3.51827e+06
3.5182e+06
3.51813e+06
3.51806e+06
3.51799e+06
3.51792e+06
3.51784e+06
3.51841e+06
3.51842e+06
3.51843e+06
3.51844e+06
3.51845e+06
3.51846e+06
3.51848e+06
3.5185e+06
3.51852e+06
3.51854e+06
3.51857e+06
3.51859e+06
3.51862e+06
3.51865e+06
3.51867e+06
3.5187e+06
3.51873e+06
3.51875e+06
3.51877e+06
3.51879e+06
3.5188e+06
3.51882e+06
3.51883e+06
3.51883e+06
3.51884e+06
3.51884e+06
3.51884e+06
3.51883e+06
3.51883e+06
3.51882e+06
3.5188e+06
3.51878e+06
3.51876e+06
3.51873e+06
3.51869e+06
3.51865e+06
3.51861e+06
3.51855e+06
3.5185e+06
3.51844e+06
3.51837e+06
3.51831e+06
3.51825e+06
3.51819e+06
3.51813e+06
3.51806e+06
3.518e+06
3.51794e+06
3.51788e+06
3.51781e+06
3.51832e+06
3.51832e+06
3.51833e+06
3.51834e+06
3.51835e+06
3.51837e+06
3.51839e+06
3.51841e+06
3.51844e+06
3.51846e+06
3.51849e+06
3.51852e+06
3.51855e+06
3.51858e+06
3.5186e+06
3.51863e+06
3.51865e+06
3.51868e+06
3.5187e+06
3.51872e+06
3.51873e+06
3.51874e+06
3.51875e+06
3.51876e+06
3.51876e+06
3.51876e+06
3.51876e+06
3.51875e+06
3.51875e+06
3.51874e+06
3.51872e+06
3.5187e+06
3.51868e+06
3.51865e+06
3.51861e+06
3.51857e+06
3.51853e+06
3.51848e+06
3.51842e+06
3.51836e+06
3.51831e+06
3.51825e+06
3.51819e+06
3.51813e+06
3.51808e+06
3.51802e+06
3.51797e+06
3.51792e+06
3.51786e+06
3.51781e+06
3.51822e+06
3.51822e+06
3.51823e+06
3.51824e+06
3.51825e+06
3.51826e+06
3.51828e+06
3.5183e+06
3.51832e+06
3.51835e+06
3.51837e+06
3.5184e+06
3.51843e+06
3.51845e+06
3.51848e+06
3.51851e+06
3.51853e+06
3.51855e+06
3.51857e+06
3.51859e+06
3.51861e+06
3.51862e+06
3.51863e+06
3.51863e+06
3.51864e+06
3.51864e+06
3.51864e+06
3.51864e+06
3.51863e+06
3.51862e+06
3.51861e+06
3.51859e+06
3.51856e+06
3.51854e+06
3.5185e+06
3.51846e+06
3.51842e+06
3.51837e+06
3.51832e+06
3.51827e+06
3.51821e+06
3.51816e+06
3.51811e+06
3.51806e+06
3.51801e+06
3.51797e+06
3.51792e+06
3.51787e+06
3.51783e+06
3.51778e+06
3.51812e+06
3.51813e+06
3.51813e+06
3.51814e+06
3.51815e+06
3.51816e+06
3.51818e+06
3.5182e+06
3.51822e+06
3.51825e+06
3.51827e+06
3.5183e+06
3.51833e+06
3.51836e+06
3.51839e+06
3.51841e+06
3.51844e+06
3.51846e+06
3.51848e+06
3.5185e+06
3.51852e+06
3.51853e+06
3.51854e+06
3.51854e+06
3.51855e+06
3.51855e+06
3.51855e+06
3.51855e+06
3.51854e+06
3.51853e+06
3.51852e+06
3.5185e+06
3.51847e+06
3.51845e+06
3.51841e+06
3.51837e+06
3.51833e+06
3.51829e+06
3.51824e+06
3.51819e+06
3.51814e+06
3.51809e+06
3.51805e+06
3.51801e+06
3.51796e+06
3.51792e+06
3.51789e+06
3.51785e+06
3.51781e+06
3.51777e+06
3.51802e+06
3.51803e+06
3.51803e+06
3.51803e+06
3.51804e+06
3.51806e+06
3.51807e+06
3.51809e+06
3.51811e+06
3.51814e+06
3.51817e+06
3.51819e+06
3.51822e+06
3.51825e+06
3.51828e+06
3.5183e+06
3.51833e+06
3.51835e+06
3.51837e+06
3.51839e+06
3.51841e+06
3.51842e+06
3.51843e+06
3.51843e+06
3.51844e+06
3.51844e+06
3.51844e+06
3.51844e+06
3.51843e+06
3.51842e+06
3.51841e+06
3.51839e+06
3.51837e+06
3.51834e+06
3.51831e+06
3.51827e+06
3.51823e+06
3.51819e+06
3.51815e+06
3.5181e+06
3.51806e+06
3.51802e+06
3.51798e+06
3.51794e+06
3.51791e+06
3.51788e+06
3.51784e+06
3.51781e+06
3.51778e+06
3.51775e+06
3.51792e+06
3.51793e+06
3.51793e+06
3.51793e+06
3.51794e+06
3.51795e+06
3.51797e+06
3.51799e+06
3.51801e+06
3.51803e+06
3.51806e+06
3.51809e+06
3.51812e+06
3.51814e+06
3.51817e+06
3.5182e+06
3.51823e+06
3.51825e+06
3.51827e+06
3.51829e+06
3.5183e+06
3.51831e+06
3.51832e+06
3.51833e+06
3.51833e+06
3.51834e+06
3.51834e+06
3.51833e+06
3.51833e+06
3.51832e+06
3.51831e+06
3.51829e+06
3.51827e+06
3.51824e+06
3.51821e+06
3.51818e+06
3.51814e+06
3.5181e+06
3.51806e+06
3.51802e+06
3.51798e+06
3.51795e+06
3.51791e+06
3.51788e+06
3.51786e+06
3.51783e+06
3.51781e+06
3.51778e+06
3.51776e+06
3.51773e+06
3.51782e+06
3.51782e+06
3.51783e+06
3.51783e+06
3.51784e+06
3.51785e+06
3.51787e+06
3.51789e+06
3.51791e+06
3.51793e+06
3.51796e+06
3.51799e+06
3.51801e+06
3.51804e+06
3.51807e+06
3.5181e+06
3.51813e+06
3.51815e+06
3.51817e+06
3.51819e+06
3.5182e+06
3.51822e+06
3.51823e+06
3.51823e+06
3.51824e+06
3.51824e+06
3.51824e+06
3.51824e+06
3.51823e+06
3.51822e+06
3.51821e+06
3.51819e+06
3.51817e+06
3.51815e+06
3.51812e+06
3.51808e+06
3.51805e+06
3.51801e+06
3.51798e+06
3.51794e+06
3.51791e+06
3.51788e+06
3.51785e+06
3.51783e+06
3.51781e+06
3.51779e+06
3.51777e+06
3.51775e+06
3.51774e+06
3.51772e+06
3.51772e+06
3.51772e+06
3.51773e+06
3.51773e+06
3.51774e+06
3.51775e+06
3.51776e+06
3.51778e+06
3.5178e+06
3.51782e+06
3.51785e+06
3.51787e+06
3.5179e+06
3.51793e+06
3.51796e+06
3.51798e+06
3.51801e+06
3.51803e+06
3.51805e+06
3.51807e+06
3.51809e+06
3.5181e+06
3.51811e+06
3.51812e+06
3.51812e+06
3.51812e+06
3.51813e+06
3.51812e+06
3.51812e+06
3.51811e+06
3.5181e+06
3.51808e+06
3.51806e+06
3.51804e+06
3.51801e+06
3.51798e+06
3.51795e+06
3.51791e+06
3.51788e+06
3.51785e+06
3.51782e+06
3.5178e+06
3.51778e+06
3.51776e+06
3.51775e+06
3.51774e+06
3.51773e+06
3.51771e+06
3.5177e+06
3.51769e+06
3.51762e+06
3.51762e+06
3.51763e+06
3.51763e+06
3.51764e+06
3.51766e+06
3.51767e+06
3.51769e+06
3.51771e+06
3.51773e+06
3.51776e+06
3.51779e+06
3.51781e+06
3.51784e+06
3.51787e+06
3.5179e+06
3.51793e+06
3.51795e+06
3.51797e+06
3.51799e+06
3.518e+06
3.51802e+06
3.51803e+06
3.51803e+06
3.51804e+06
3.51804e+06
3.51804e+06
3.51804e+06
3.51803e+06
3.51803e+06
3.51801e+06
3.518e+06
3.51798e+06
3.51795e+06
3.51792e+06
3.51789e+06
3.51786e+06
3.51783e+06
3.5178e+06
3.51778e+06
3.51775e+06
3.51773e+06
3.51772e+06
3.51771e+06
3.5177e+06
3.51769e+06
3.51769e+06
3.51769e+06
3.51768e+06
3.51767e+06
3.51751e+06
3.51752e+06
3.51753e+06
3.51753e+06
3.51754e+06
3.51754e+06
3.51755e+06
3.51757e+06
3.51758e+06
3.5176e+06
3.51763e+06
3.51765e+06
3.51768e+06
3.51771e+06
3.51774e+06
3.51776e+06
3.51779e+06
3.51782e+06
3.51784e+06
3.51786e+06
3.51787e+06
3.51789e+06
3.5179e+06
3.5179e+06
3.51791e+06
3.51791e+06
3.51792e+06
3.51791e+06
3.51791e+06
3.5179e+06
3.51789e+06
3.51788e+06
3.51786e+06
3.51784e+06
3.51781e+06
3.51778e+06
3.51775e+06
3.51773e+06
3.5177e+06
3.51768e+06
3.51766e+06
3.51765e+06
3.51764e+06
3.51763e+06
3.51763e+06
3.51763e+06
3.51763e+06
3.51764e+06
3.51764e+06
3.51764e+06
3.5174e+06
3.51742e+06
3.51744e+06
3.51745e+06
3.51747e+06
3.51748e+06
3.5175e+06
3.51751e+06
3.51753e+06
3.51755e+06
3.51758e+06
3.5176e+06
3.51763e+06
3.51765e+06
3.51768e+06
3.51771e+06
3.51773e+06
3.51775e+06
3.51777e+06
3.51779e+06
3.51781e+06
3.51782e+06
3.51783e+06
3.51783e+06
3.51784e+06
3.51784e+06
3.51784e+06
3.51784e+06
3.51783e+06
3.51783e+06
3.51781e+06
3.5178e+06
3.51778e+06
3.51776e+06
3.51773e+06
3.5177e+06
3.51768e+06
3.51765e+06
3.51763e+06
3.51761e+06
3.51759e+06
3.51758e+06
3.51758e+06
3.51758e+06
3.51758e+06
3.51759e+06
3.51759e+06
3.5176e+06
3.51761e+06
3.51761e+06
3.51727e+06
3.5173e+06
3.51731e+06
3.51731e+06
3.5173e+06
3.51731e+06
3.51732e+06
3.51733e+06
3.51735e+06
3.51737e+06
3.5174e+06
3.51743e+06
3.51746e+06
3.51749e+06
3.51752e+06
3.51755e+06
3.51758e+06
3.5176e+06
3.51763e+06
3.51765e+06
3.51766e+06
3.51768e+06
3.51769e+06
3.5177e+06
3.5177e+06
3.51771e+06
3.51771e+06
3.51771e+06
3.51771e+06
3.5177e+06
3.51769e+06
3.51768e+06
3.51766e+06
3.51764e+06
3.51761e+06
3.51759e+06
3.51756e+06
3.51754e+06
3.51752e+06
3.5175e+06
3.51749e+06
3.51749e+06
3.51749e+06
3.51749e+06
3.5175e+06
3.51751e+06
3.51752e+06
3.51754e+06
3.51755e+06
3.51757e+06
3.51715e+06
3.51729e+06
3.51736e+06
3.51737e+06
3.51736e+06
3.51736e+06
3.51736e+06
3.51736e+06
3.51737e+06
3.51738e+06
3.5174e+06
3.51741e+06
3.51744e+06
3.51746e+06
3.51748e+06
3.51751e+06
3.51753e+06
3.51755e+06
3.51757e+06
3.51759e+06
3.5176e+06
3.51761e+06
3.51762e+06
3.51763e+06
3.51763e+06
3.51764e+06
3.51764e+06
3.51764e+06
3.51763e+06
3.51762e+06
3.51761e+06
3.5176e+06
3.51758e+06
3.51755e+06
3.51753e+06
3.51751e+06
3.51748e+06
3.51746e+06
3.51744e+06
3.51743e+06
3.51742e+06
3.51742e+06
3.51742e+06
3.51743e+06
3.51744e+06
3.51745e+06
3.51747e+06
3.51749e+06
3.51751e+06
3.51753e+06
3.5166e+06
3.51688e+06
3.51698e+06
3.51701e+06
3.51705e+06
3.51707e+06
3.5171e+06
3.51712e+06
3.51715e+06
3.51717e+06
3.5172e+06
3.51723e+06
3.51726e+06
3.51729e+06
3.51732e+06
3.51735e+06
3.51738e+06
3.51741e+06
3.51743e+06
3.51745e+06
3.51747e+06
3.51748e+06
3.51749e+06
3.5175e+06
3.51751e+06
3.51751e+06
3.51752e+06
3.51752e+06
3.51751e+06
3.51751e+06
3.51749e+06
3.51748e+06
3.51746e+06
3.51744e+06
3.51742e+06
3.51739e+06
3.51737e+06
3.51735e+06
3.51734e+06
3.51733e+06
3.51732e+06
3.51732e+06
3.51732e+06
3.51733e+06
3.51735e+06
3.51736e+06
3.51738e+06
3.51741e+06
3.51743e+06
3.51747e+06
3.5181e+06
3.51758e+06
3.51733e+06
3.51724e+06
3.51719e+06
3.51716e+06
3.51715e+06
3.51714e+06
3.51715e+06
3.51716e+06
3.51718e+06
3.5172e+06
3.51722e+06
3.51724e+06
3.51727e+06
3.51729e+06
3.51732e+06
3.51734e+06
3.51736e+06
3.51738e+06
3.51739e+06
3.5174e+06
3.51741e+06
3.51742e+06
3.51743e+06
3.51743e+06
3.51743e+06
3.51743e+06
3.51743e+06
3.51742e+06
3.51741e+06
3.51739e+06
3.51737e+06
3.51735e+06
3.51733e+06
3.51731e+06
3.51728e+06
3.51726e+06
3.51725e+06
3.51724e+06
3.51723e+06
3.51723e+06
3.51724e+06
3.51725e+06
3.51726e+06
3.51728e+06
3.5173e+06
3.51733e+06
3.51736e+06
3.51741e+06
3.39812e+06
3.40351e+06
3.40426e+06
3.40864e+06
3.41004e+06
3.41321e+06
3.41477e+06
3.41677e+06
3.41792e+06
3.4189e+06
3.41939e+06
3.41964e+06
3.41966e+06
3.41973e+06
3.41964e+06
3.42012e+06
3.42011e+06
3.42164e+06
3.42175e+06
3.42465e+06
3.39649e+06
3.40192e+06
3.40266e+06
3.40708e+06
3.4085e+06
3.41169e+06
3.41327e+06
3.41528e+06
3.41644e+06
3.41741e+06
3.41791e+06
3.41815e+06
3.41818e+06
3.41823e+06
3.41813e+06
3.41861e+06
3.41861e+06
3.42015e+06
3.42029e+06
3.42329e+06
3.39478e+06
3.40027e+06
3.401e+06
3.40546e+06
3.40689e+06
3.4101e+06
3.4117e+06
3.41371e+06
3.41488e+06
3.41585e+06
3.41635e+06
3.41659e+06
3.41662e+06
3.41666e+06
3.41657e+06
3.41709e+06
3.41714e+06
3.41874e+06
3.41899e+06
3.42216e+06
3.39299e+06
3.39855e+06
3.39927e+06
3.40377e+06
3.40521e+06
3.40844e+06
3.41006e+06
3.41208e+06
3.41326e+06
3.41423e+06
3.41473e+06
3.41496e+06
3.41499e+06
3.41503e+06
3.41497e+06
3.41552e+06
3.41562e+06
3.41731e+06
3.41764e+06
3.42093e+06
3.39113e+06
3.39675e+06
3.39746e+06
3.40201e+06
3.40346e+06
3.40671e+06
3.40834e+06
3.41037e+06
3.41156e+06
3.41254e+06
3.41303e+06
3.41327e+06
3.41329e+06
3.41333e+06
3.41326e+06
3.41382e+06
3.41392e+06
3.41562e+06
3.41593e+06
3.41926e+06
3.38919e+06
3.39488e+06
3.39558e+06
3.40017e+06
3.40163e+06
3.4049e+06
3.40656e+06
3.40859e+06
3.4098e+06
3.41077e+06
3.41127e+06
3.41151e+06
3.41153e+06
3.41157e+06
3.41149e+06
3.41203e+06
3.41212e+06
3.41381e+06
3.4141e+06
3.41747e+06
3.38717e+06
3.39294e+06
3.39362e+06
3.39826e+06
3.39974e+06
3.40303e+06
3.4047e+06
3.40675e+06
3.40796e+06
3.40893e+06
3.40944e+06
3.40968e+06
3.40971e+06
3.40974e+06
3.40964e+06
3.41017e+06
3.41026e+06
3.41197e+06
3.41225e+06
3.41567e+06
3.38509e+06
3.39092e+06
3.3916e+06
3.39628e+06
3.39777e+06
3.40108e+06
3.40277e+06
3.40482e+06
3.40604e+06
3.40702e+06
3.40752e+06
3.40776e+06
3.40779e+06
3.40782e+06
3.40772e+06
3.40824e+06
3.40833e+06
3.41006e+06
3.41035e+06
3.41382e+06
3.38293e+06
3.38884e+06
3.38951e+06
3.39423e+06
3.39574e+06
3.39907e+06
3.40077e+06
3.40283e+06
3.40405e+06
3.40502e+06
3.40552e+06
3.40575e+06
3.40579e+06
3.40582e+06
3.40571e+06
3.40624e+06
3.40632e+06
3.40808e+06
3.40838e+06
3.4119e+06
3.3807e+06
3.38669e+06
3.38735e+06
3.39212e+06
3.39363e+06
3.39698e+06
3.3987e+06
3.40075e+06
3.40197e+06
3.40293e+06
3.40343e+06
3.40366e+06
3.40369e+06
3.40372e+06
3.40362e+06
3.40415e+06
3.40424e+06
3.40602e+06
3.40633e+06
3.40991e+06
3.37841e+06
3.38447e+06
3.38513e+06
3.38994e+06
3.39146e+06
3.39482e+06
3.39654e+06
3.39858e+06
3.3998e+06
3.40075e+06
3.40124e+06
3.40146e+06
3.4015e+06
3.40153e+06
3.40143e+06
3.40197e+06
3.40208e+06
3.40389e+06
3.40421e+06
3.40785e+06
3.37607e+06
3.3822e+06
3.38285e+06
3.3877e+06
3.38923e+06
3.3926e+06
3.39431e+06
3.39634e+06
3.39754e+06
3.39847e+06
3.39895e+06
3.39917e+06
3.39921e+06
3.39924e+06
3.39915e+06
3.39972e+06
3.39984e+06
3.40169e+06
3.40201e+06
3.40572e+06
3.37367e+06
3.37988e+06
3.38052e+06
3.38541e+06
3.38693e+06
3.3903e+06
3.392e+06
3.39401e+06
3.39519e+06
3.39611e+06
3.39657e+06
3.39678e+06
3.39682e+06
3.39686e+06
3.39678e+06
3.39737e+06
3.39751e+06
3.39941e+06
3.39975e+06
3.40353e+06
3.37123e+06
3.37752e+06
3.37815e+06
3.38307e+06
3.38458e+06
3.38795e+06
3.38962e+06
3.39161e+06
3.39277e+06
3.39366e+06
3.39411e+06
3.3943e+06
3.39434e+06
3.39438e+06
3.39432e+06
3.39495e+06
3.39511e+06
3.39705e+06
3.39741e+06
3.40126e+06
3.36877e+06
3.37513e+06
3.37575e+06
3.3807e+06
3.38219e+06
3.38554e+06
3.38719e+06
3.38915e+06
3.39027e+06
3.39114e+06
3.39156e+06
3.39174e+06
3.39177e+06
3.39182e+06
3.39178e+06
3.39244e+06
3.39263e+06
3.39462e+06
3.395e+06
3.39893e+06
3.36629e+06
3.37272e+06
3.37334e+06
3.3783e+06
3.37977e+06
3.3831e+06
3.38471e+06
3.38663e+06
3.38771e+06
3.38854e+06
3.38894e+06
3.3891e+06
3.38913e+06
3.38918e+06
3.38917e+06
3.38986e+06
3.39008e+06
3.39213e+06
3.39253e+06
3.39653e+06
3.36381e+06
3.3703e+06
3.37091e+06
3.37588e+06
3.37733e+06
3.38063e+06
3.38219e+06
3.38408e+06
3.38511e+06
3.3859e+06
3.38626e+06
3.38639e+06
3.38642e+06
3.38648e+06
3.3865e+06
3.38723e+06
3.38748e+06
3.38958e+06
3.39001e+06
3.39409e+06
3.36133e+06
3.36788e+06
3.36849e+06
3.37345e+06
3.37487e+06
3.37814e+06
3.37966e+06
3.3815e+06
3.38248e+06
3.38322e+06
3.38353e+06
3.38365e+06
3.38367e+06
3.38374e+06
3.38379e+06
3.38456e+06
3.38484e+06
3.387e+06
3.38745e+06
3.39162e+06
3.35887e+06
3.36547e+06
3.36607e+06
3.37103e+06
3.37242e+06
3.37566e+06
3.37712e+06
3.37891e+06
3.37983e+06
3.38052e+06
3.38079e+06
3.38088e+06
3.38089e+06
3.38098e+06
3.38105e+06
3.38187e+06
3.38219e+06
3.3844e+06
3.38488e+06
3.38913e+06
3.35642e+06
3.36307e+06
3.36366e+06
3.36862e+06
3.36998e+06
3.37319e+06
3.3746e+06
3.37634e+06
3.37719e+06
3.37782e+06
3.37804e+06
3.37811e+06
3.37812e+06
3.37821e+06
3.37832e+06
3.37919e+06
3.37953e+06
3.38181e+06
3.38231e+06
3.38665e+06
3.35401e+06
3.3607e+06
3.3613e+06
3.36625e+06
3.36758e+06
3.37076e+06
3.37212e+06
3.3738e+06
3.37458e+06
3.37516e+06
3.37533e+06
3.37536e+06
3.37537e+06
3.37547e+06
3.37562e+06
3.37653e+06
3.37691e+06
3.37924e+06
3.37977e+06
3.38419e+06
3.35165e+06
3.35838e+06
3.35899e+06
3.36392e+06
3.36524e+06
3.36839e+06
3.36969e+06
3.37132e+06
3.37203e+06
3.37255e+06
3.37267e+06
3.37268e+06
3.37267e+06
3.3728e+06
3.37298e+06
3.37393e+06
3.37434e+06
3.37673e+06
3.37728e+06
3.38179e+06
3.34937e+06
3.35612e+06
3.35675e+06
3.36167e+06
3.36297e+06
3.36609e+06
3.36734e+06
3.36891e+06
3.36956e+06
3.37003e+06
3.3701e+06
3.37009e+06
3.37007e+06
3.37021e+06
3.37042e+06
3.37142e+06
3.37186e+06
3.37431e+06
3.37488e+06
3.37947e+06
3.34718e+06
3.35395e+06
3.3546e+06
3.35951e+06
3.3608e+06
3.36388e+06
3.36509e+06
3.36661e+06
3.3672e+06
3.36762e+06
3.36765e+06
3.36761e+06
3.36759e+06
3.36774e+06
3.36798e+06
3.36902e+06
3.36949e+06
3.37199e+06
3.37259e+06
3.37726e+06
3.3451e+06
3.35189e+06
3.35257e+06
3.35745e+06
3.35874e+06
3.36179e+06
3.36295e+06
3.36443e+06
3.36498e+06
3.36535e+06
3.36535e+06
3.36529e+06
3.36526e+06
3.36543e+06
3.36569e+06
3.36676e+06
3.36725e+06
3.36981e+06
3.37043e+06
3.37517e+06
3.34315e+06
3.34995e+06
3.35065e+06
3.35552e+06
3.3568e+06
3.35982e+06
3.36096e+06
3.3624e+06
3.3629e+06
3.36325e+06
3.36322e+06
3.36314e+06
3.3631e+06
3.36328e+06
3.36357e+06
3.36467e+06
3.36518e+06
3.36778e+06
3.36842e+06
3.37324e+06
3.34135e+06
3.34814e+06
3.34888e+06
3.35372e+06
3.35502e+06
3.35801e+06
3.35912e+06
3.36054e+06
3.36101e+06
3.36133e+06
3.36128e+06
3.36119e+06
3.36114e+06
3.36133e+06
3.36164e+06
3.36276e+06
3.36328e+06
3.36593e+06
3.36658e+06
3.37146e+06
3.3397e+06
3.34649e+06
3.34727e+06
3.35209e+06
3.35339e+06
3.35636e+06
3.35746e+06
3.35885e+06
3.35931e+06
3.35961e+06
3.35954e+06
3.35945e+06
3.35939e+06
3.35959e+06
3.3599e+06
3.36104e+06
3.36157e+06
3.36426e+06
3.36492e+06
3.36987e+06
3.33822e+06
3.34501e+06
3.34582e+06
3.35062e+06
3.35194e+06
3.35489e+06
3.35598e+06
3.35736e+06
3.35781e+06
3.35809e+06
3.35802e+06
3.35792e+06
3.35785e+06
3.35805e+06
3.35836e+06
3.35952e+06
3.36006e+06
3.36278e+06
3.36346e+06
3.36846e+06
3.33691e+06
3.34369e+06
3.34455e+06
3.34932e+06
3.35066e+06
3.35359e+06
3.3547e+06
3.35606e+06
3.35651e+06
3.35679e+06
3.35671e+06
3.3566e+06
3.35652e+06
3.35672e+06
3.35703e+06
3.3582e+06
3.35875e+06
3.3615e+06
3.36219e+06
3.36724e+06
3.33578e+06
3.34255e+06
3.34345e+06
3.34819e+06
3.34957e+06
3.35248e+06
3.3536e+06
3.35497e+06
3.35542e+06
3.35569e+06
3.3556e+06
3.35549e+06
3.3554e+06
3.3556e+06
3.35591e+06
3.35709e+06
3.35765e+06
3.36042e+06
3.36112e+06
3.36621e+06
3.33484e+06
3.34158e+06
3.34252e+06
3.34724e+06
3.34865e+06
3.35155e+06
3.3527e+06
3.35407e+06
3.35453e+06
3.3548e+06
3.3547e+06
3.35458e+06
3.35448e+06
3.35469e+06
3.35499e+06
3.35618e+06
3.35674e+06
3.35953e+06
3.36025e+06
3.36537e+06
3.33406e+06
3.34078e+06
3.34177e+06
3.34645e+06
3.3479e+06
3.35079e+06
3.35198e+06
3.35335e+06
3.35384e+06
3.3541e+06
3.35401e+06
3.35388e+06
3.35378e+06
3.35399e+06
3.35429e+06
3.35548e+06
3.35603e+06
3.35884e+06
3.35956e+06
3.36471e+06
3.33346e+06
3.34016e+06
3.34117e+06
3.34582e+06
3.34731e+06
3.35019e+06
3.35143e+06
3.35281e+06
3.35333e+06
3.35361e+06
3.35353e+06
3.3534e+06
3.35332e+06
3.35352e+06
3.3538e+06
3.35498e+06
3.35552e+06
3.35832e+06
3.35905e+06
3.36422e+06
3.33301e+06
3.33969e+06
3.34073e+06
3.34535e+06
3.34687e+06
3.34975e+06
3.35103e+06
3.35243e+06
3.35299e+06
3.3533e+06
3.35326e+06
3.35316e+06
3.35311e+06
3.35326e+06
3.35351e+06
3.35466e+06
3.35517e+06
3.35796e+06
3.35869e+06
3.36387e+06
3.33273e+06
3.33938e+06
3.34044e+06
3.34503e+06
3.34659e+06
3.34945e+06
3.35078e+06
3.35219e+06
3.3528e+06
3.35314e+06
3.35315e+06
3.3531e+06
3.35305e+06
3.35316e+06
3.35336e+06
3.35448e+06
3.35497e+06
3.35775e+06
3.35848e+06
3.36366e+06
3.3326e+06
3.33923e+06
3.34031e+06
3.34485e+06
3.34645e+06
3.34929e+06
3.35066e+06
3.35208e+06
3.35273e+06
3.3531e+06
3.35314e+06
3.35312e+06
3.35303e+06
3.35314e+06
3.35333e+06
3.35442e+06
3.35488e+06
3.35765e+06
3.35838e+06
3.36357e+06
3.33263e+06
3.33922e+06
3.34031e+06
3.34481e+06
3.34644e+06
3.34926e+06
3.35066e+06
3.35208e+06
3.35275e+06
3.35313e+06
3.35319e+06
3.35316e+06
3.35305e+06
3.35318e+06
3.35336e+06
3.35444e+06
3.35489e+06
3.35765e+06
3.35839e+06
3.36358e+06
3.3328e+06
3.33935e+06
3.34046e+06
3.34491e+06
3.34657e+06
3.34935e+06
3.35077e+06
3.35217e+06
3.35285e+06
3.35324e+06
3.3533e+06
3.35326e+06
3.35314e+06
3.35329e+06
3.35345e+06
3.35455e+06
3.35498e+06
3.35774e+06
3.35849e+06
3.36368e+06
3.33312e+06
3.33962e+06
3.34075e+06
3.34514e+06
3.34681e+06
3.34956e+06
3.35098e+06
3.35236e+06
3.35304e+06
3.35342e+06