/*--------------------------------*- C++ -*----------------------------------*\
  =========                 |
  \\      /  F ield         | OpenFOAM: The Open Source CFD Toolbox
   \\    /   O peration     | Website:  https://openfoam.org
    \\  /    A nd           | Version:  8
     \\/     M anipulation  |
\*---------------------------------------------------------------------------*/
FoamFile
{
    version     2.0;
    format      ascii;
    class       volScalarField;
    location    "500";
    object      p_rgh;
}
// * * * * * * * * * * * * * * * * * * * * * * * * * * * * * * * * * * * * * //

dimensions      [1 -1 -2 0 0 0 0];

internalField   nonuniform List<scalar> 
8400
(
30179.7
65975.6
102007
136295
168942
200050
229844
258582
286525
313877
340790
367308
393426
419052
444090
468436
492029
514849
536954
558460
579565
600487
621442
642657
664285
686403
709042
732163
755675
779484
803505
827654
851898
876281
900921
925990
951696
978238
1.0058e+06
1.03458e+06
1.06471e+06
1.0963e+06
1.12938e+06
1.16401e+06
1.2003e+06
1.23831e+06
1.27814e+06
1.32078e+06
1.36929e+06
1.42556e+06
29724.6
65535.4
101723
136216
169071
200358
230281
259087
287036
314334
341138
367512
393447
418886
443741
467921
491366
514065
536079
557529
578590
599472
620394
641544
663066
685051
707522
730435
753718
777300
801093
825022
849065
873269
897739
922633
948120
974375
1.00159e+06
1.02993e+06
1.05952e+06
1.09042e+06
1.12265e+06
1.15623e+06
1.19118e+06
1.22746e+06
1.26499e+06
1.30418e+06
1.34655e+06
1.3934e+06
29710
66038.4
102700
137657
170939
202586
232783
261760
289762
317013
343667
369815
395473
420625
445211
469159
492421
515021
537010
558497
579650
600650
621687
642928
664502
686489
708903
731719
754896
778379
802103
826027
850146
874507
899206
924369
950134
976667
1.00415e+06
1.03274e+06
1.06253e+06
1.0936e+06
1.12598e+06
1.15972e+06
1.19484e+06
1.23129e+06
1.26902e+06
1.30816e+06
1.34938e+06
1.39306e+06
28684.9
65558.8
102795
138317
172087
204123
234581
263686
291675
318757
345116
370858
396040
420688
444767
468245
491117
513420
535201
556562
577645
598605
619586
640723
662127
683856
705924
728327
751043
774039
797285
820767
844499
868527
892923
917781
943215
969356
996351
1.02431e+06
1.05332e+06
1.08342e+06
1.11469e+06
1.14714e+06
1.1808e+06
1.21568e+06
1.25172e+06
1.28896e+06
1.32785e+06
1.36886e+06
28253.3
66384.2
104523
140774
175106
207561
238303
267550
295548
322501
348600
373986
398753
422941
446564
469636
492193
514285
535967
557336
578497
599566
620661
641885
663312
684991
706941
729166
751664
774430
797459
820766
844386
868367
892770
917668
943155
969339
996320
1.02417e+06
1.05296e+06
1.08275e+06
1.11359e+06
1.14548e+06
1.17842e+06
1.2124e+06
1.24736e+06
1.28324e+06
1.3203e+06
1.35896e+06
27251.7
66852
105969
142896
177643
210320
241131
270330
298158
324844
350580
375517
399772
423406
446477
469041
491170
512913
534333
555512
576540
597510
618510
639613
660875
682330
703998
725897
748032
770407
793038
815959
839211
862844
886915
911491
936662
962517
989115
1.01653e+06
1.04483e+06
1.07407e+06
1.10427e+06
1.13544e+06
1.16761e+06
1.20074e+06
1.23477e+06
1.26962e+06
1.30539e+06
1.34243e+06
27169.7
68951
109247
146829
181874
214631
245391
274449
302073
328491
353904
378470
402310
425514
448172
470349
492120
513554
534727
555718
576601
597451
618340
639325
660450
681748
703247
724962
746898
769066
791485
814185
837207
860602
884433
908776
933715
959313
985629
1.01273e+06
1.04068e+06
1.06953e+06
1.09927e+06
1.12994e+06
1.16153e+06
1.194e+06
1.2273e+06
1.26134e+06
1.29611e+06
1.33182e+06
27574.8
71640.5
112902
150865
185933
218509
248996
277737
305024
331091
356141
380336
403802
426633
448920
470753
492203
513351
534269
555025
575691
596332
617008
637781
658697
679791
701088
722600
744329
766282
788475
810933
833692
856799
880329
904358
928953
954181
980113
1.00683e+06
1.03442e+06
1.06289e+06
1.09227e+06
1.12258e+06
1.15379e+06
1.18586e+06
1.21875e+06
1.25235e+06
1.28657e+06
1.32149e+06
28887.4
74940.1
116865
155079
190095
222471
252698
281164
308179
333985
358775
382703
405909
428503
450573
472201
493458
514412
535130
555684
576145
596571
617026
637571
658258
679128
700210
721517
743055
764830
786850
809133
831708
854625
877952
901759
926113
951087
976772
1.00325e+06
1.03058e+06
1.05879e+06
1.08792e+06
1.11799e+06
1.14895e+06
1.18079e+06
1.21343e+06
1.24679e+06
1.28074e+06
1.31523e+06
30140.7
77247.5
119126
157386
192315
224589
254748
283190
310210
336030
360837
384785
408003
430600
452667
474279
495504
516404
537038
557466
577745
597932
618094
638296
658597
679046
699684
720540
741638
762997
784632
806564
828828
851484
874599
898237
922463
947356
973003
999477
1.02683e+06
1.05511e+06
1.08435e+06
1.11454e+06
1.14565e+06
1.17764e+06
1.21046e+06
1.24401e+06
1.27814e+06
1.3127e+06
28089.6
76995
119185
157433
192323
224558
254692
283131
310168
336025
360880
384877
408145
430797
452923
474604
495908
516893
537618
558138
578504
598766
618983
639213
659501
679891
700422
721129
742043
763189
784587
806265
828273
850678
873552
896962
920981
945701
971218
997599
1.0249e+06
1.05318e+06
1.08247e+06
1.11276e+06
1.14402e+06
1.17622e+06
1.20929e+06
1.24313e+06
1.27764e+06
1.3126e+06
22669
73056.9
116954
155618
190747
223193
253496
282063
309203
335148
360087
384163
407504
430225
452422
474177
495566
516651
537494
558149
578665
599094
619492
639900
660349
680869
701487
722232
743133
764218
785512
807053
828907
851144
873834
897043
920856
945373
970683
996857
1.02397e+06
1.05211e+06
1.08128e+06
1.11149e+06
1.14274e+06
1.17498e+06
1.20814e+06
1.24215e+06
1.2769e+06
1.31218e+06
11518.2
62827.4
110006
149900
185606
218711
249693
278839
306458
332810
358125
382567
406252
429284
451757
473760
495376
516687
537775
558719
579587
600447
621344
642303
663328
684411
705538
726701
747902
769153
790482
811948
833629
855603
877941
900723
924051
948025
972726
998253
1.02473e+06
1.05222e+06
1.08077e+06
1.11043e+06
1.1412e+06
1.17305e+06
1.20593e+06
1.23976e+06
1.27442e+06
1.30968e+06
98.4949
49223.6
98134.2
138926
174847
208317
239884
269638
297813
324711
350592
375626
399908
423509
446490
468921
490899
512532
533933
555217
576512
597938
619581
641476
663613
685923
708313
730698
753009
775204
797293
819323
841367
863504
885805
908360
931266
954598
978449
1.00295e+06
1.02824e+06
1.05441e+06
1.08158e+06
1.10984e+06
1.13922e+06
1.16973e+06
1.2014e+06
1.23413e+06
1.2678e+06
1.30223e+06
-2306.98
42634.5
93236.9
135624
172076
205764
237504
267397
295721
322882
349192
374802
399741
424001
447580
470509
492873
514775
536336
557715
579118
600755
622802
645354
668402
691834
715474
739123
762608
785832
808779
831496
854067
876573
899098
921722
944488
967435
990656
1.01428e+06
1.03842e+06
1.06322e+06
1.08888e+06
1.11547e+06
1.14308e+06
1.17175e+06
1.20152e+06
1.23233e+06
1.26403e+06
1.29645e+06
-29353.1
17696.5
70976.7
114872
152239
186648
218892
249025
277515
305045
332081
358770
385041
410767
435882
460401
484351
507735
530608
553140
575597
598281
621445
645219
669608
694468
719502
744337
768663
792329
815357
837884
860066
882056
903987
925937
947925
969968
992150
1.01459e+06
1.03746e+06
1.06102e+06
1.0855e+06
1.11103e+06
1.13771e+06
1.16565e+06
1.19478e+06
1.22507e+06
1.25617e+06
1.28771e+06
-10016.4
27974.4
80580.4
124611
160789
193288
223348
251325
278043
304449
331045
357796
384376
410527
436272
461806
487220
512430
537356
562121
587050
612531
638801
665901
693730
721959
749964
777000
802472
826121
848069
868699
888432
907600
926425
945014
963364
981466
999331
1.01705e+06
1.03495e+06
1.05354e+06
1.07326e+06
1.09444e+06
1.1174e+06
1.1424e+06
1.16953e+06
1.19872e+06
1.22944e+06
1.26085e+06
-63092.5
-14016.7
50536.5
103259
143957
176041
202261
225391
248064
272036
297616
324113
350679
376818
402628
428461
454434
480446
506616
533376
561297
591001
622936
657246
693769
731646
769265
805000
837703
866807
892363
914955
935427
954520
972563
989550
1.00547e+06
1.02023e+06
1.03355e+06
1.0453e+06
1.05592e+06
1.06623e+06
1.07696e+06
1.0888e+06
1.10242e+06
1.11856e+06
1.13784e+06
1.16043e+06
1.18576e+06
1.2127e+06
-24378.7
-1572.21
50585.9
113036
168710
208715
234219
251682
267670
286767
309579
333847
357137
378574
399610
421996
445268
467677
488862
510407
534243
561411
592085
626638
666282
710489
755941
799166
837952
871728
901365
927764
951856
975193
998248
1.02022e+06
1.04075e+06
1.05948e+06
1.07528e+06
1.0872e+06
1.09581e+06
1.10253e+06
1.10834e+06
1.11377e+06
1.11954e+06
1.12729e+06
1.13854e+06
1.15373e+06
1.17242e+06
1.19316e+06
-1619.25
12442
52508.9
109998
165512
206928
233787
252549
268478
286552
308797
333691
358571
381240
402131
423859
447357
470955
493212
514953
538727
566351
598548
635108
676048
721441
768134
811636
849238
880099
905726
928569
950448
972997
996865
1.02075e+06
1.04342e+06
1.06407e+06
1.08118e+06
1.09339e+06
1.10089e+06
1.10571e+06
1.11007e+06
1.11457e+06
1.11935e+06
1.12545e+06
1.13445e+06
1.14747e+06
1.16474e+06
1.18527e+06
3.5298e+06
3.52929e+06
3.52903e+06
3.52894e+06
3.52889e+06
3.52885e+06
3.52883e+06
3.52882e+06
3.52881e+06
3.52881e+06
3.52881e+06
3.52881e+06
3.52882e+06
3.52882e+06
3.52883e+06
3.52884e+06
3.52884e+06
3.52885e+06
3.52886e+06
3.52886e+06
3.52887e+06
3.52888e+06
3.52889e+06
3.52889e+06
3.5289e+06
3.52891e+06
3.52892e+06
3.52892e+06
3.52893e+06
3.52894e+06
3.52894e+06
3.52895e+06
3.52895e+06
3.52895e+06
3.52895e+06
3.52894e+06
3.52893e+06
3.52892e+06
3.5289e+06
3.52887e+06
3.52884e+06
3.52881e+06
3.52877e+06
3.52873e+06
3.52868e+06
3.52862e+06
3.52855e+06
3.52847e+06
3.52838e+06
3.52826e+06
3.5282e+06
3.52849e+06
3.52858e+06
3.52861e+06
3.52864e+06
3.52866e+06
3.52868e+06
3.5287e+06
3.52871e+06
3.52873e+06
3.52874e+06
3.52875e+06
3.52877e+06
3.52878e+06
3.52879e+06
3.5288e+06
3.52881e+06
3.52882e+06
3.52883e+06
3.52884e+06
3.52885e+06
3.52886e+06
3.52887e+06
3.52888e+06
3.52888e+06
3.52889e+06
3.5289e+06
3.52891e+06
3.52892e+06
3.52892e+06
3.52893e+06
3.52894e+06
3.52894e+06
3.52894e+06
3.52894e+06
3.52893e+06
3.52892e+06
3.52891e+06
3.52889e+06
3.52887e+06
3.52884e+06
3.52881e+06
3.52877e+06
3.52872e+06
3.52868e+06
3.52862e+06
3.52856e+06
3.52849e+06
3.5284e+06
3.5283e+06
3.52866e+06
3.52879e+06
3.52887e+06
3.52887e+06
3.52886e+06
3.52885e+06
3.52885e+06
3.52884e+06
3.52884e+06
3.52883e+06
3.52884e+06
3.52884e+06
3.52884e+06
3.52884e+06
3.52885e+06
3.52885e+06
3.52886e+06
3.52886e+06
3.52887e+06
3.52888e+06
3.52888e+06
3.52889e+06
3.5289e+06
3.5289e+06
3.52891e+06
3.52892e+06
3.52892e+06
3.52893e+06
3.52894e+06
3.52894e+06
3.52895e+06
3.52895e+06
3.52896e+06
3.52896e+06
3.52895e+06
3.52895e+06
3.52894e+06
3.52893e+06
3.52891e+06
3.52888e+06
3.52886e+06
3.52882e+06
3.52879e+06
3.52875e+06
3.5287e+06
3.52865e+06
3.52859e+06
3.52853e+06
3.52845e+06
3.52837e+06
3.52868e+06
3.5287e+06
3.52872e+06
3.52871e+06
3.5287e+06
3.5287e+06
3.52871e+06
3.52871e+06
3.52872e+06
3.52873e+06
3.52874e+06
3.52875e+06
3.52876e+06
3.52877e+06
3.52878e+06
3.52879e+06
3.5288e+06
3.52881e+06
3.52882e+06
3.52883e+06
3.52884e+06
3.52885e+06
3.52886e+06
3.52887e+06
3.52888e+06
3.52889e+06
3.52889e+06
3.5289e+06
3.52891e+06
3.52892e+06
3.52893e+06
3.52893e+06
3.52894e+06
3.52894e+06
3.52894e+06
3.52894e+06
3.52893e+06
3.52892e+06
3.5289e+06
3.52888e+06
3.52885e+06
3.52882e+06
3.52879e+06
3.52875e+06
3.52871e+06
3.52866e+06
3.52861e+06
3.52856e+06
3.52849e+06
3.52843e+06
3.52871e+06
3.52873e+06
3.52875e+06
3.52876e+06
3.52877e+06
3.52878e+06
3.52878e+06
3.52879e+06
3.5288e+06
3.5288e+06
3.52881e+06
3.52882e+06
3.52882e+06
3.52883e+06
3.52884e+06
3.52884e+06
3.52885e+06
3.52886e+06
3.52887e+06
3.52887e+06
3.52888e+06
3.52889e+06
3.5289e+06
3.5289e+06
3.52891e+06
3.52892e+06
3.52892e+06
3.52893e+06
3.52894e+06
3.52895e+06
3.52895e+06
3.52896e+06
3.52896e+06
3.52896e+06
3.52896e+06
3.52896e+06
3.52895e+06
3.52894e+06
3.52892e+06
3.5289e+06
3.52888e+06
3.52885e+06
3.52882e+06
3.52878e+06
3.52874e+06
3.5287e+06
3.52866e+06
3.52861e+06
3.52856e+06
3.52851e+06
3.52872e+06
3.52873e+06
3.52873e+06
3.52874e+06
3.52874e+06
3.52874e+06
3.52874e+06
3.52874e+06
3.52875e+06
3.52875e+06
3.52876e+06
3.52876e+06
3.52877e+06
3.52878e+06
3.52879e+06
3.5288e+06
3.52881e+06
3.52882e+06
3.52883e+06
3.52884e+06
3.52885e+06
3.52885e+06
3.52886e+06
3.52887e+06
3.52888e+06
3.52889e+06
3.5289e+06
3.52891e+06
3.52891e+06
3.52892e+06
3.52893e+06
3.52894e+06
3.52894e+06
3.52895e+06
3.52895e+06
3.52894e+06
3.52894e+06
3.52893e+06
3.52891e+06
3.52889e+06
3.52887e+06
3.52885e+06
3.52882e+06
3.52879e+06
3.52876e+06
3.52873e+06
3.52869e+06
3.52865e+06
3.52861e+06
3.52857e+06
3.52873e+06
3.52873e+06
3.52874e+06
3.52874e+06
3.52874e+06
3.52875e+06
3.52875e+06
3.52876e+06
3.52877e+06
3.52877e+06
3.52878e+06
3.52879e+06
3.5288e+06
3.52881e+06
3.52882e+06
3.52883e+06
3.52884e+06
3.52885e+06
3.52886e+06
3.52886e+06
3.52887e+06
3.52888e+06
3.52889e+06
3.5289e+06
3.52891e+06
3.52891e+06
3.52892e+06
3.52893e+06
3.52894e+06
3.52895e+06
3.52895e+06
3.52896e+06
3.52896e+06
3.52897e+06
3.52897e+06
3.52896e+06
3.52896e+06
3.52895e+06
3.52893e+06
3.52892e+06
3.5289e+06
3.52888e+06
3.52885e+06
3.52883e+06
3.5288e+06
3.52877e+06
3.52874e+06
3.52871e+06
3.52868e+06
3.52865e+06
3.52873e+06
3.52873e+06
3.52873e+06
3.52874e+06
3.52874e+06
3.52874e+06
3.52874e+06
3.52875e+06
3.52875e+06
3.52876e+06
3.52876e+06
3.52877e+06
3.52878e+06
3.52879e+06
3.5288e+06
3.52881e+06
3.52882e+06
3.52882e+06
3.52883e+06
3.52884e+06
3.52885e+06
3.52886e+06
3.52887e+06
3.52888e+06
3.52889e+06
3.52889e+06
3.5289e+06
3.52891e+06
3.52892e+06
3.52893e+06
3.52894e+06
3.52895e+06
3.52895e+06
3.52896e+06
3.52896e+06
3.52896e+06
3.52895e+06
3.52894e+06
3.52893e+06
3.52892e+06
3.5289e+06
3.52888e+06
3.52887e+06
3.52885e+06
3.52882e+06
3.5288e+06
3.52878e+06
3.52876e+06
3.52874e+06
3.52871e+06
3.52873e+06
3.52873e+06
3.52873e+06
3.52874e+06
3.52874e+06
3.52874e+06
3.52874e+06
3.52875e+06
3.52875e+06
3.52876e+06
3.52877e+06
3.52878e+06
3.52879e+06
3.52879e+06
3.5288e+06
3.52881e+06
3.52883e+06
3.52884e+06
3.52885e+06
3.52886e+06
3.52886e+06
3.52887e+06
3.52888e+06
3.52889e+06
3.5289e+06
3.52891e+06
3.52892e+06
3.52893e+06
3.52893e+06
3.52894e+06
3.52895e+06
3.52896e+06
3.52897e+06
3.52897e+06
3.52897e+06
3.52897e+06
3.52897e+06
3.52896e+06
3.52895e+06
3.52894e+06
3.52893e+06
3.52891e+06
3.5289e+06
3.52888e+06
3.52887e+06
3.52885e+06
3.52884e+06
3.52882e+06
3.52881e+06
3.52879e+06
3.52873e+06
3.52873e+06
3.52873e+06
3.52873e+06
3.52874e+06
3.52874e+06
3.52874e+06
3.52874e+06
3.52875e+06
3.52876e+06
3.52876e+06
3.52877e+06
3.52878e+06
3.52879e+06
3.5288e+06
3.52881e+06
3.52882e+06
3.52883e+06
3.52884e+06
3.52885e+06
3.52886e+06
3.52887e+06
3.52888e+06
3.52888e+06
3.52889e+06
3.5289e+06
3.52891e+06
3.52892e+06
3.52893e+06
3.52894e+06
3.52895e+06
3.52896e+06
3.52896e+06
3.52897e+06
3.52897e+06
3.52897e+06
3.52897e+06
3.52896e+06
3.52896e+06
3.52895e+06
3.52894e+06
3.52893e+06
3.52892e+06
3.52891e+06
3.5289e+06
3.52889e+06
3.52888e+06
3.52887e+06
3.52887e+06
3.52886e+06
3.52873e+06
3.52873e+06
3.52873e+06
3.52873e+06
3.52873e+06
3.52874e+06
3.52874e+06
3.52874e+06
3.52875e+06
3.52875e+06
3.52876e+06
3.52877e+06
3.52878e+06
3.52879e+06
3.5288e+06
3.52881e+06
3.52882e+06
3.52883e+06
3.52884e+06
3.52885e+06
3.52886e+06
3.52887e+06
3.52887e+06
3.52888e+06
3.52889e+06
3.5289e+06
3.52891e+06
3.52892e+06
3.52893e+06
3.52894e+06
3.52895e+06
3.52896e+06
3.52897e+06
3.52897e+06
3.52897e+06
3.52897e+06
3.52897e+06
3.52897e+06
3.52897e+06
3.52896e+06
3.52895e+06
3.52895e+06
3.52894e+06
3.52894e+06
3.52893e+06
3.52893e+06
3.52893e+06
3.52893e+06
3.52893e+06
3.52893e+06
3.52873e+06
3.52873e+06
3.52873e+06
3.52873e+06
3.52873e+06
3.52874e+06
3.52874e+06
3.52874e+06
3.52875e+06
3.52875e+06
3.52876e+06
3.52877e+06
3.52878e+06
3.52879e+06
3.5288e+06
3.52881e+06
3.52882e+06
3.52883e+06
3.52884e+06
3.52885e+06
3.52886e+06
3.52887e+06
3.52888e+06
3.52889e+06
3.5289e+06
3.52891e+06
3.52892e+06
3.52893e+06
3.52894e+06
3.52895e+06
3.52896e+06
3.52897e+06
3.52897e+06
3.52898e+06
3.52898e+06
3.52898e+06
3.52898e+06
3.52898e+06
3.52898e+06
3.52898e+06
3.52897e+06
3.52897e+06
3.52897e+06
3.52897e+06
3.52897e+06
3.52897e+06
3.52898e+06
3.52898e+06
3.52899e+06
3.529e+06
3.52873e+06
3.52873e+06
3.52873e+06
3.52873e+06
3.52873e+06
3.52873e+06
3.52874e+06
3.52874e+06
3.52874e+06
3.52875e+06
3.52875e+06
3.52876e+06
3.52877e+06
3.52878e+06
3.52879e+06
3.5288e+06
3.52881e+06
3.52882e+06
3.52883e+06
3.52884e+06
3.52885e+06
3.52886e+06
3.52887e+06
3.52888e+06
3.52889e+06
3.5289e+06
3.52891e+06
3.52892e+06
3.52893e+06
3.52894e+06
3.52895e+06
3.52896e+06
3.52897e+06
3.52897e+06
3.52898e+06
3.52898e+06
3.52898e+06
3.52898e+06
3.52898e+06
3.52898e+06
3.52898e+06
3.52898e+06
3.52898e+06
3.52899e+06
3.529e+06
3.52901e+06
3.52902e+06
3.52903e+06
3.52905e+06
3.52906e+06
3.52872e+06
3.52873e+06
3.52873e+06
3.52873e+06
3.52874e+06
3.52874e+06
3.52874e+06
3.52875e+06
3.52875e+06
3.52876e+06
3.52876e+06
3.52877e+06
3.52878e+06
3.52879e+06
3.5288e+06
3.52881e+06
3.52882e+06
3.52884e+06
3.52885e+06
3.52886e+06
3.52887e+06
3.52888e+06
3.52889e+06
3.52889e+06
3.5289e+06
3.52891e+06
3.52892e+06
3.52893e+06
3.52894e+06
3.52895e+06
3.52896e+06
3.52897e+06
3.52898e+06
3.52899e+06
3.52899e+06
3.529e+06
3.529e+06
3.529e+06
3.529e+06
3.529e+06
3.529e+06
3.52901e+06
3.52902e+06
3.52903e+06
3.52904e+06
3.52905e+06
3.52907e+06
3.52909e+06
3.52911e+06
3.52913e+06
3.52872e+06
3.52872e+06
3.52873e+06
3.52873e+06
3.52873e+06
3.52873e+06
3.52873e+06
3.52873e+06
3.52873e+06
3.52873e+06
3.52873e+06
3.52874e+06
3.52875e+06
3.52876e+06
3.52877e+06
3.52878e+06
3.52879e+06
3.5288e+06
3.52882e+06
3.52883e+06
3.52884e+06
3.52885e+06
3.52886e+06
3.52887e+06
3.52888e+06
3.52889e+06
3.5289e+06
3.52891e+06
3.52892e+06
3.52893e+06
3.52895e+06
3.52896e+06
3.52897e+06
3.52897e+06
3.52898e+06
3.52898e+06
3.52899e+06
3.52899e+06
3.52899e+06
3.529e+06
3.52901e+06
3.52901e+06
3.52902e+06
3.52904e+06
3.52906e+06
3.52908e+06
3.5291e+06
3.52913e+06
3.52916e+06
3.52919e+06
3.5287e+06
3.52872e+06
3.52874e+06
3.52875e+06
3.52876e+06
3.52876e+06
3.52877e+06
3.52877e+06
3.52878e+06
3.52878e+06
3.52878e+06
3.52879e+06
3.5288e+06
3.5288e+06
3.52881e+06
3.52882e+06
3.52883e+06
3.52884e+06
3.52885e+06
3.52886e+06
3.52887e+06
3.52888e+06
3.52889e+06
3.5289e+06
3.52891e+06
3.52892e+06
3.52893e+06
3.52894e+06
3.52895e+06
3.52896e+06
3.52897e+06
3.52898e+06
3.52899e+06
3.52899e+06
3.529e+06
3.529e+06
3.52901e+06
3.52901e+06
3.52902e+06
3.52902e+06
3.52903e+06
3.52904e+06
3.52906e+06
3.52907e+06
3.5291e+06
3.52912e+06
3.52915e+06
3.52918e+06
3.52922e+06
3.52926e+06
3.52867e+06
3.5287e+06
3.52871e+06
3.5287e+06
3.52869e+06
3.52869e+06
3.52869e+06
3.52869e+06
3.5287e+06
3.5287e+06
3.52871e+06
3.52872e+06
3.52873e+06
3.52874e+06
3.52875e+06
3.52877e+06
3.52878e+06
3.52879e+06
3.52881e+06
3.52882e+06
3.52883e+06
3.52884e+06
3.52885e+06
3.52886e+06
3.52888e+06
3.52889e+06
3.5289e+06
3.52891e+06
3.52892e+06
3.52893e+06
3.52895e+06
3.52896e+06
3.52897e+06
3.52898e+06
3.52898e+06
3.52899e+06
3.52899e+06
3.529e+06
3.52901e+06
3.52902e+06
3.52903e+06
3.52904e+06
3.52906e+06
3.52908e+06
3.52911e+06
3.52914e+06
3.52917e+06
3.52921e+06
3.52925e+06
3.5293e+06
3.52865e+06
3.52878e+06
3.52886e+06
3.52886e+06
3.52885e+06
3.52884e+06
3.52883e+06
3.52882e+06
3.52881e+06
3.52881e+06
3.5288e+06
3.5288e+06
3.52881e+06
3.52881e+06
3.52882e+06
3.52883e+06
3.52884e+06
3.52884e+06
3.52885e+06
3.52886e+06
3.52887e+06
3.52888e+06
3.52889e+06
3.5289e+06
3.52891e+06
3.52892e+06
3.52893e+06
3.52894e+06
3.52895e+06
3.52896e+06
3.52897e+06
3.52898e+06
3.52899e+06
3.52899e+06
3.529e+06
3.52901e+06
3.52901e+06
3.52902e+06
3.52903e+06
3.52904e+06
3.52905e+06
3.52906e+06
3.52908e+06
3.52911e+06
3.52914e+06
3.52917e+06
3.52921e+06
3.52926e+06
3.52931e+06
3.52936e+06
3.52819e+06
3.52848e+06
3.52857e+06
3.5286e+06
3.52863e+06
3.52865e+06
3.52867e+06
3.52868e+06
3.52869e+06
3.5287e+06
3.52871e+06
3.52872e+06
3.52873e+06
3.52875e+06
3.52876e+06
3.52877e+06
3.52879e+06
3.5288e+06
3.52881e+06
3.52882e+06
3.52884e+06
3.52885e+06
3.52886e+06
3.52887e+06
3.52888e+06
3.52889e+06
3.5289e+06
3.52892e+06
3.52893e+06
3.52894e+06
3.52895e+06
3.52896e+06
3.52897e+06
3.52898e+06
3.52899e+06
3.52899e+06
3.529e+06
3.52901e+06
3.52902e+06
3.52903e+06
3.52904e+06
3.52906e+06
3.52908e+06
3.52911e+06
3.52914e+06
3.52918e+06
3.52922e+06
3.52927e+06
3.52933e+06
3.52939e+06
3.52979e+06
3.52928e+06
3.52902e+06
3.52893e+06
3.52887e+06
3.52884e+06
3.52881e+06
3.52879e+06
3.52878e+06
3.52878e+06
3.52878e+06
3.52878e+06
3.52879e+06
3.52879e+06
3.5288e+06
3.52881e+06
3.52882e+06
3.52883e+06
3.52884e+06
3.52885e+06
3.52886e+06
3.52887e+06
3.52888e+06
3.52889e+06
3.5289e+06
3.52891e+06
3.52892e+06
3.52893e+06
3.52894e+06
3.52895e+06
3.52896e+06
3.52897e+06
3.52898e+06
3.52899e+06
3.529e+06
3.529e+06
3.52901e+06
3.52902e+06
3.52903e+06
3.52904e+06
3.52905e+06
3.52907e+06
3.52909e+06
3.52912e+06
3.52915e+06
3.52919e+06
3.52924e+06
3.52929e+06
3.52936e+06
3.52943e+06
3.39506e+06
3.40047e+06
3.4012e+06
3.40558e+06
3.40694e+06
3.41011e+06
3.41163e+06
3.41362e+06
3.41473e+06
3.41567e+06
3.41613e+06
3.41635e+06
3.41637e+06
3.41642e+06
3.41633e+06
3.41682e+06
3.41684e+06
3.41841e+06
3.41854e+06
3.42153e+06
3.3937e+06
3.39915e+06
3.39986e+06
3.40429e+06
3.40567e+06
3.40886e+06
3.41041e+06
3.41241e+06
3.41353e+06
3.41448e+06
3.41494e+06
3.41516e+06
3.41518e+06
3.41521e+06
3.41511e+06
3.4156e+06
3.41562e+06
3.41718e+06
3.41734e+06
3.42044e+06
3.39226e+06
3.39777e+06
3.39848e+06
3.40295e+06
3.40434e+06
3.40756e+06
3.40913e+06
3.41113e+06
3.41227e+06
3.41322e+06
3.41368e+06
3.4139e+06
3.41392e+06
3.41396e+06
3.41387e+06
3.41438e+06
3.41444e+06
3.41608e+06
3.41635e+06
3.41962e+06
3.39076e+06
3.39633e+06
3.39703e+06
3.40154e+06
3.40296e+06
3.40619e+06
3.40778e+06
3.4098e+06
3.41095e+06
3.4119e+06
3.41237e+06
3.41259e+06
3.41261e+06
3.41265e+06
3.41259e+06
3.41314e+06
3.41325e+06
3.41498e+06
3.41534e+06
3.41873e+06
3.38919e+06
3.39482e+06
3.39552e+06
3.40008e+06
3.40151e+06
3.40476e+06
3.40638e+06
3.40841e+06
3.40957e+06
3.41053e+06
3.411e+06
3.41121e+06
3.41123e+06
3.41128e+06
3.41122e+06
3.41177e+06
3.41188e+06
3.41362e+06
3.41396e+06
3.4174e+06
3.38755e+06
3.39325e+06
3.39395e+06
3.39855e+06
3.39999e+06
3.40328e+06
3.40491e+06
3.40695e+06
3.40812e+06
3.40908e+06
3.40956e+06
3.40978e+06
3.4098e+06
3.40985e+06
3.40978e+06
3.41033e+06
3.41042e+06
3.41215e+06
3.41246e+06
3.41594e+06
3.38585e+06
3.39162e+06
3.39231e+06
3.39695e+06
3.39842e+06
3.40172e+06
3.40338e+06
3.40542e+06
3.40661e+06
3.40757e+06
3.40805e+06
3.40827e+06
3.40829e+06
3.40834e+06
3.40827e+06
3.40881e+06
3.4089e+06
3.41064e+06
3.41094e+06
3.41447e+06
3.38407e+06
3.38991e+06
3.3906e+06
3.39529e+06
3.39677e+06
3.4001e+06
3.40177e+06
3.40382e+06
3.40502e+06
3.40598e+06
3.40646e+06
3.40668e+06
3.40671e+06
3.40676e+06
3.40668e+06
3.40722e+06
3.40731e+06
3.40907e+06
3.40938e+06
3.41296e+06
3.38222e+06
3.38814e+06
3.38882e+06
3.39356e+06
3.39505e+06
3.3984e+06
3.40009e+06
3.40215e+06
3.40335e+06
3.40431e+06
3.40479e+06
3.40501e+06
3.40504e+06
3.40509e+06
3.40501e+06
3.40555e+06
3.40564e+06
3.40743e+06
3.40774e+06
3.41137e+06
3.38029e+06
3.38629e+06
3.38697e+06
3.39175e+06
3.39326e+06
3.39662e+06
3.39833e+06
3.40039e+06
3.40159e+06
3.40255e+06
3.40303e+06
3.40325e+06
3.40328e+06
3.40333e+06
3.40325e+06
3.4038e+06
3.40389e+06
3.4057e+06
3.40601e+06
3.4097e+06
3.3783e+06
3.38437e+06
3.38504e+06
3.38987e+06
3.39139e+06
3.39477e+06
3.39648e+06
3.39854e+06
3.39975e+06
3.4007e+06
3.40118e+06
3.40139e+06
3.40143e+06
3.40148e+06
3.4014e+06
3.40196e+06
3.40205e+06
3.40389e+06
3.40421e+06
3.40796e+06
3.37623e+06
3.38238e+06
3.38305e+06
3.38792e+06
3.38945e+06
3.39284e+06
3.39455e+06
3.3966e+06
3.39781e+06
3.39875e+06
3.39923e+06
3.39944e+06
3.39947e+06
3.39953e+06
3.39945e+06
3.40002e+06
3.40013e+06
3.402e+06
3.40233e+06
3.40614e+06
3.3741e+06
3.38033e+06
3.381e+06
3.3859e+06
3.38743e+06
3.39083e+06
3.39254e+06
3.39458e+06
3.39577e+06
3.39671e+06
3.39717e+06
3.39738e+06
3.39742e+06
3.39747e+06
3.39741e+06
3.398e+06
3.39811e+06
3.40002e+06
3.40037e+06
3.40424e+06
3.37192e+06
3.37823e+06
3.37888e+06
3.38382e+06
3.38535e+06
3.38874e+06
3.39044e+06
3.39247e+06
3.39365e+06
3.39457e+06
3.39502e+06
3.39522e+06
3.39526e+06
3.39531e+06
3.39526e+06
3.39588e+06
3.39601e+06
3.39796e+06
3.39832e+06
3.40227e+06
3.36968e+06
3.37606e+06
3.37672e+06
3.38168e+06
3.3832e+06
3.38659e+06
3.38827e+06
3.39028e+06
3.39144e+06
3.39233e+06
3.39277e+06
3.39296e+06
3.39299e+06
3.39306e+06
3.39302e+06
3.39367e+06
3.39382e+06
3.39582e+06
3.3962e+06
3.40022e+06
3.3674e+06
3.37386e+06
3.37451e+06
3.37949e+06
3.381e+06
3.38437e+06
3.38603e+06
3.38802e+06
3.38915e+06
3.39001e+06
3.39042e+06
3.3906e+06
3.39063e+06
3.3907e+06
3.39068e+06
3.39137e+06
3.39155e+06
3.3936e+06
3.394e+06
3.3981e+06
3.36509e+06
3.37161e+06
3.37225e+06
3.37725e+06
3.37874e+06
3.38211e+06
3.38373e+06
3.38569e+06
3.38678e+06
3.38761e+06
3.38799e+06
3.38815e+06
3.38818e+06
3.38826e+06
3.38826e+06
3.38898e+06
3.38919e+06
3.39131e+06
3.39173e+06
3.39591e+06
3.36274e+06
3.36933e+06
3.36997e+06
3.37498e+06
3.37645e+06
3.37979e+06
3.38139e+06
3.3833e+06
3.38434e+06
3.38513e+06
3.38548e+06
3.38562e+06
3.38565e+06
3.38574e+06
3.38577e+06
3.38653e+06
3.38678e+06
3.38895e+06
3.3894e+06
3.39366e+06
3.36038e+06
3.36703e+06
3.36766e+06
3.37268e+06
3.37413e+06
3.37745e+06
3.379e+06
3.38087e+06
3.38186e+06
3.3826e+06
3.38291e+06
3.38303e+06
3.38306e+06
3.38315e+06
3.38322e+06
3.38403e+06
3.38431e+06
3.38655e+06
3.38703e+06
3.39138e+06
3.35802e+06
3.36472e+06
3.36536e+06
3.37037e+06
3.37181e+06
3.3751e+06
3.3766e+06
3.37842e+06
3.37934e+06
3.38003e+06
3.3803e+06
3.3804e+06
3.38042e+06
3.38053e+06
3.38063e+06
3.38149e+06
3.38181e+06
3.38412e+06
3.38463e+06
3.38907e+06
3.35568e+06
3.36242e+06
3.36306e+06
3.36808e+06
3.36949e+06
3.37274e+06
3.37419e+06
3.37596e+06
3.37682e+06
3.37745e+06
3.37768e+06
3.37774e+06
3.37776e+06
3.37789e+06
3.37802e+06
3.37894e+06
3.3793e+06
3.38168e+06
3.38222e+06
3.38675e+06
3.35337e+06
3.36016e+06
3.36081e+06
3.36581e+06
3.3672e+06
3.37042e+06
3.37181e+06
3.37351e+06
3.37431e+06
3.37488e+06
3.37506e+06
3.3751e+06
3.37512e+06
3.37526e+06
3.37543e+06
3.3764e+06
3.37681e+06
3.37926e+06
3.37984e+06
3.38445e+06
3.35112e+06
3.35794e+06
3.3586e+06
3.36359e+06
3.36496e+06
3.36814e+06
3.36947e+06
3.37111e+06
3.37184e+06
3.37236e+06
3.37248e+06
3.3725e+06
3.37251e+06
3.37267e+06
3.37288e+06
3.3739e+06
3.37435e+06
3.37688e+06
3.37749e+06
3.3822e+06
3.34895e+06
3.3558e+06
3.35647e+06
3.36144e+06
3.36279e+06
3.36592e+06
3.3672e+06
3.36879e+06
3.36944e+06
3.36991e+06
3.36999e+06
3.36998e+06
3.36998e+06
3.37016e+06
3.37041e+06
3.37148e+06
3.37197e+06
3.37457e+06
3.37522e+06
3.38001e+06
3.34688e+06
3.35375e+06
3.35444e+06
3.35939e+06
3.36071e+06
3.36381e+06
3.36503e+06
3.36656e+06
3.36715e+06
3.36756e+06
3.3676e+06
3.36757e+06
3.36756e+06
3.36776e+06
3.36804e+06
3.36917e+06
3.3697e+06
3.37236e+06
3.37304e+06
3.37792e+06
3.34492e+06
3.3518e+06
3.35252e+06
3.35744e+06
3.35876e+06
3.36181e+06
3.36299e+06
3.36446e+06
3.365e+06
3.36536e+06
3.36536e+06
3.36531e+06
3.36529e+06
3.3655e+06
3.36582e+06
3.36699e+06
3.36756e+06
3.37028e+06
3.37099e+06
3.37595e+06
3.3431e+06
3.34999e+06
3.35074e+06
3.35563e+06
3.35694e+06
3.35995e+06
3.36109e+06
3.36252e+06
3.36301e+06
3.36333e+06
3.36329e+06
3.36322e+06
3.3632e+06
3.36343e+06
3.36377e+06
3.36498e+06
3.36557e+06
3.36836e+06
3.36909e+06
3.37412e+06
3.34143e+06
3.34832e+06
3.3491e+06
3.35396e+06
3.35527e+06
3.35825e+06
3.35936e+06
3.36075e+06
3.36121e+06
3.3615e+06
3.36143e+06
3.36135e+06
3.36132e+06
3.36156e+06
3.36192e+06
3.36316e+06
3.36378e+06
3.36661e+06
3.36736e+06
3.37246e+06
3.33993e+06
3.34681e+06
3.34763e+06
3.35246e+06
3.35378e+06
3.35673e+06
3.35782e+06
3.35918e+06
3.35962e+06
3.35988e+06
3.3598e+06
3.3597e+06
3.35966e+06
3.35991e+06
3.36029e+06
3.36155e+06
3.36218e+06
3.36506e+06
3.36583e+06
3.37098e+06
3.33859e+06
3.34547e+06
3.34633e+06
3.35113e+06
3.35247e+06
3.35539e+06
3.35649e+06
3.35783e+06
3.35825e+06
3.3585e+06
3.3584e+06
3.3583e+06
3.35825e+06
3.3585e+06
3.35888e+06
3.36016e+06
3.3608e+06
3.36372e+06
3.3645e+06
3.3697e+06
3.33744e+06
3.34431e+06
3.34521e+06
3.34998e+06
3.35134e+06
3.35425e+06
3.35536e+06
3.35669e+06
3.35711e+06
3.35735e+06
3.35725e+06
3.35713e+06
3.35707e+06
3.35733e+06
3.35772e+06
3.35901e+06
3.35965e+06
3.36259e+06
3.36338e+06
3.36863e+06
3.33647e+06
3.34332e+06
3.34426e+06
3.34901e+06
3.35041e+06
3.3533e+06
3.35444e+06
3.35577e+06
3.35621e+06
3.35644e+06
3.35634e+06
3.35622e+06
3.35616e+06
3.35642e+06
3.3568e+06
3.35809e+06
3.35874e+06
3.36169e+06
3.36249e+06
3.36777e+06
3.33568e+06
3.34252e+06
3.3435e+06
3.34822e+06
3.34966e+06
3.35255e+06
3.35372e+06
3.35507e+06
3.35553e+06
3.35578e+06
3.35569e+06
3.35556e+06
3.3555e+06
3.35576e+06
3.35613e+06
3.35742e+06
3.35806e+06
3.36101e+06
3.36181e+06
3.36711e+06
3.33508e+06
3.34189e+06
3.34291e+06
3.34761e+06
3.34909e+06
3.35198e+06
3.3532e+06
3.35457e+06
3.35507e+06
3.35535e+06
3.35529e+06
3.35517e+06
3.35513e+06
3.35538e+06
3.35572e+06
3.35699e+06
3.3576e+06
3.36054e+06
3.36133e+06
3.36665e+06
3.33465e+06
3.34144e+06
3.3425e+06
3.34717e+06
3.3487e+06
3.35159e+06
3.35286e+06
3.35425e+06
3.35481e+06
3.35513e+06
3.35513e+06
3.35506e+06
3.35504e+06
3.35525e+06
3.35554e+06
3.35676e+06
3.35734e+06
3.36026e+06
3.36104e+06
3.36636e+06
3.3344e+06
3.34116e+06
3.34225e+06
3.34689e+06
3.34847e+06
3.35136e+06
3.35269e+06
3.35411e+06
3.35473e+06
3.35511e+06
3.35516e+06
3.35514e+06
3.35512e+06
3.35529e+06
3.35553e+06
3.35671e+06
3.35725e+06
3.36014e+06
3.36092e+06
3.36624e+06
3.33432e+06
3.34105e+06
3.34217e+06
3.34678e+06
3.34841e+06
3.35129e+06
3.35267e+06
3.35412e+06
3.35479e+06
3.35522e+06
3.35531e+06
3.35532e+06
3.35526e+06
3.35542e+06
3.35563e+06
3.35679e+06
3.3573e+06
3.36017e+06
3.36094e+06
3.36625e+06
3.33441e+06
3.34112e+06
3.34226e+06
3.34683e+06
3.34851e+06
3.35137e+06
3.35279e+06
3.35425e+06
3.35497e+06
3.35541e+06
3.35552e+06
3.35553e+06
3.35545e+06
3.35562e+06
3.35581e+06
3.35697e+06
3.35745e+06
3.36031e+06
3.36107e+06
3.36639e+06
3.33467e+06
3.34134e+06
3.34251e+06
3.34703e+06
3.34874e+06
3.35158e+06
3.35304e+06
3.35449e+06
3.35523e+06
3.35567e+06
3.35579e+06
3.35579e+06
3.35571e+06
3.3559e+06
3.35606e+06
3.35723e+06
3.35769e+06