/*--------------------------------*- C++ -*----------------------------------*\
  =========                 |
  \\      /  F ield         | OpenFOAM: The Open Source CFD Toolbox
   \\    /   O peration     | Website:  https://openfoam.org
    \\  /    A nd           | Version:  8
     \\/     M anipulation  |
\*---------------------------------------------------------------------------*/
FoamFile
{
    version     2.0;
    format      ascii;
    class       surfaceScalarField;
    location    "500";
    object      phi;
}
// * * * * * * * * * * * * * * * * * * * * * * * * * * * * * * * * * * * * * //

dimensions      [1 0 -1 0 0 0 0];

internalField   nonuniform List<scalar> 
16360
(
-7.40734
-0.0482706
-7.3597
-0.0476264
-7.31292
-0.0467691
-7.26725
-0.0456468
-7.22294
-0.0443037
-7.1802
-0.0427955
-7.13906
-0.0411979
-7.09956
-0.0395806
-7.06166
-0.0380029
-7.02523
-0.0364765
-6.99021
-0.0350677
-6.95647
-0.0337616
-6.92389
-0.032577
-6.89235
-0.0315419
-6.8617
-0.0306468
-6.83182
-0.0299019
-6.80257
-0.0293115
-6.77378
-0.0288456
-6.74534
-0.0284973
-6.71713
-0.0282686
-6.68904
-0.0281488
-6.66095
-0.0281333
-6.63276
-0.0282148
-6.60437
-0.0283819
-6.57571
-0.0286241
-6.54672
-0.0289334
-6.51735
-0.0293076
-6.48756
-0.0297486
-6.45728
-0.0302509
-6.42646
-0.0307972
-6.39505
-0.0313726
-6.36302
-0.0319791
-6.33037
-0.0326358
-6.29705
-0.0333555
-6.26298
-0.0341244
-6.22809
-0.0349185
-6.19231
-0.0357402
-6.15563
-0.0366271
-6.11799
-0.0376214
-6.07926
-0.0387441
-6.03927
-0.0400069
-5.99781
-0.0414452
-5.95466
-0.043129
-5.90951
-0.0451518
-5.86188
-0.0476395
-5.81113
-0.0507978
-5.75633
-0.0548794
-5.69629
-0.0600647
-5.6294
-0.0668263
-0.0780525
-5.55132
-7.31285
-0.0955798
-7.2656
-0.0948734
-7.21907
-0.0933179
-7.17366
-0.0910835
-7.12966
-0.0883459
-7.08727
-0.0852822
-7.04655
-0.0820522
-7.00749
-0.0787732
-6.97003
-0.0755869
-6.93408
-0.0725231
-6.89952
-0.0696618
-6.86623
-0.0670514
-6.83411
-0.0647056
-6.80301
-0.0626458
-6.7728
-0.0608929
-6.74335
-0.0594344
-6.7145
-0.0582503
-6.68609
-0.0573155
-6.65802
-0.0566232
-6.63017
-0.0561705
-6.60242
-0.0559382
-6.57467
-0.0559058
-6.5468
-0.0560629
-6.51873
-0.056396
-6.49039
-0.0568793
-6.46173
-0.0574956
-6.43272
-0.0582445
-6.4033
-0.0591162
-6.37341
-0.0600806
-6.343
-0.0611144
-6.31204
-0.062222
-6.28055
-0.0634174
-6.24849
-0.0647001
-6.21582
-0.0660549
-6.18244
-0.0674657
-6.14831
-0.0689384
-6.11342
-0.0705119
-6.07776
-0.0722349
-6.04127
-0.0741349
-6.00383
-0.0762245
-5.9653
-0.0785442
-5.92558
-0.0811794
-5.88451
-0.0842311
-5.84189
-0.0878135
-5.79744
-0.092105
-5.75085
-0.0973772
-5.70171
-0.103945
-5.64946
-0.11222
-5.59317
-0.123189
-0.138782
-5.53252
-7.1462
-0.14228
-7.09994
-0.141111
-7.05458
-0.138671
-7.0105
-0.135197
-6.96795
-0.130944
-6.92712
-0.126206
-6.88802
-0.121239
-6.85066
-0.116267
-6.81485
-0.111412
-6.78057
-0.106826
-6.74765
-0.102582
-6.71594
-0.0987211
-6.68535
-0.0953024
-6.65573
-0.0923301
-6.62691
-0.0897902
-6.59875
-0.0876728
-6.57109
-0.0859674
-6.54379
-0.0846559
-6.51676
-0.0837092
-6.48985
-0.0831006
-6.46297
-0.0828261
-6.43601
-0.0828719
-6.40887
-0.0831935
-6.38145
-0.083749
-6.35371
-0.0845229
-6.32562
-0.0855073
-6.29714
-0.0866786
-6.26821
-0.0880004
-6.23879
-0.0894433
-6.20883
-0.0909942
-6.17835
-0.0926509
-6.14734
-0.0944121
-6.11575
-0.0962719
-6.08354
-0.0982236
-6.05062
-0.100272
-6.01699
-0.102448
-5.98262
-0.104806
-5.94747
-0.107391
-5.91145
-0.110217
-5.87443
-0.113308
-5.8363
-0.116739
-5.79694
-0.120627
-5.75616
-0.12509
-5.71377
-0.130266
-5.66954
-0.136376
-5.62321
-0.143694
-5.5745
-0.152548
-5.52328
-0.163418
-5.46936
-0.17705
-0.195164
-5.41304
-6.84861
-0.185856
-6.8049
-0.1848
-6.76206
-0.181487
-6.7207
-0.176593
-6.68108
-0.170611
-6.64335
-0.164035
-6.60746
-0.157209
-6.57333
-0.15047
-6.54077
-0.14399
-6.50968
-0.137935
-6.47986
-0.132381
-6.45118
-0.127403
-6.42349
-0.123029
-6.3966
-0.119243
-6.37035
-0.116048
-6.34461
-0.11344
-6.31922
-0.111368
-6.29403
-0.109806
-6.26894
-0.108754
-6.24388
-0.108182
-6.21872
-0.108033
-6.19336
-0.108257
-6.16772
-0.108819
-6.14173
-0.109687
-6.1154
-0.110827
-6.0887
-0.112202
-6.06159
-0.113775
-6.03406
-0.115513
-6.00609
-0.117387
-5.97768
-0.119374
-5.94884
-0.121461
-5.91959
-0.123645
-5.88989
-0.125929
-5.85972
-0.128322
-5.82904
-0.130849
-5.79785
-0.133561
-5.76612
-0.136506
-5.73381
-0.139705
-5.70083
-0.143184
-5.6671
-0.147003
-5.63255
-0.151272
-5.59708
-0.156106
-5.56054
-0.161633
-5.5228
-0.168024
-5.4837
-0.175508
-5.44308
-0.184352
-5.40081
-0.194891
-5.35674
-0.207575
-5.31082
-0.22292
-0.242032
-5.26388
-6.38152
-0.22648
-6.34148
-0.224825
-6.30287
-0.220062
-6.26622
-0.213255
-6.23172
-0.205153
-6.19931
-0.196462
-6.1689
-0.1877
-6.14022
-0.179191
-6.11306
-0.17117
-6.08722
-0.163799
-6.06246
-0.15715
-6.03861
-0.151273
-6.01545
-0.146174
-5.99281
-0.141861
-5.97053
-0.138307
-5.94844
-0.135479
-5.9264
-0.133343
-5.90429
-0.131867
-5.88204
-0.130999
-5.85953
-0.130678
-5.83671
-0.130847
-5.81352
-0.131451
-5.78991
-0.132428
-5.76588
-0.133714
-5.74144
-0.135264
-5.71661
-0.137043
-5.6914
-0.13901
-5.66583
-0.141114
-5.63991
-0.143315
-5.61367
-0.145595
-5.58715
-0.147959
-5.56037
-0.150414
-5.53332
-0.152967
-5.50597
-0.155635
-5.47829
-0.158461
-5.45028
-0.161514
-5.42187
-0.164845
-5.393
-0.168479
-5.36359
-0.172463
-5.33359
-0.176894
-5.30294
-0.181884
-5.27151
-0.18752
-5.23922
-0.193911
-5.20598
-0.201234
-5.17174
-0.2097
-5.13643
-0.219567
-5.10015
-0.231174
-5.06278
-0.244777
-5.02475
-0.260944
-0.280428
-4.98631
-5.71673
-0.26185
-5.68186
-0.259694
-5.64909
-0.252818
-5.61892
-0.243389
-5.59139
-0.232717
-5.56618
-0.2217
-5.54298
-0.210954
-5.52138
-0.200808
-5.50107
-0.191504
-5.48174
-0.183131
-5.46312
-0.175749
-5.44497
-0.169388
-5.42709
-0.164023
-5.40929
-0.159629
-5.39139
-0.156165
-5.37326
-0.153566
-5.35479
-0.151766
-5.3359
-0.150699
-5.31656
-0.15029
-5.29673
-0.150472
-5.27642
-0.151165
-5.25561
-0.15227
-5.23435
-0.153689
-5.21269
-0.155355
-5.19073
-0.157226
-5.16854
-0.159258
-5.14616
-0.1614
-5.12365
-0.163606
-5.10107
-0.165853
-5.07847
-0.168146
-5.05591
-0.170501
-5.03339
-0.172933
-5.01088
-0.175459
-4.98837
-0.17812
-4.96582
-0.180992
-4.94316
-0.184155
-4.9203
-0.187665
-4.89712
-0.191567
-4.87358
-0.195932
-4.84962
-0.200851
-4.82513
-0.206397
-4.79999
-0.212638
-4.77416
-0.219697
-4.7476
-0.227743
-4.7203
-0.236955
-4.69231
-0.247531
-4.66371
-0.259737
-4.6347
-0.273805
-4.60565
-0.290092
-0.309059
-4.57709
-4.8692
-0.293104
-4.8399
-0.288958
-4.81431
-0.278421
-4.79227
-0.265427
-4.77325
-0.251743
-4.75658
-0.238406
-4.74161
-0.225938
-4.72782
-0.214628
-4.71473
-0.204589
-4.70199
-0.195849
-4.68933
-0.188402
-4.67648
-0.182213
-4.66326
-0.177234
-4.64953
-0.173367
-4.63518
-0.170496
-4.62013
-0.168531
-4.60439
-0.16741
-4.58796
-0.167059
-4.57091
-0.167354
-4.55331
-0.168149
-4.53523
-0.169307
-4.51679
-0.170727
-4.49812
-0.172336
-4.47938
-0.174083
-4.46073
-0.175916
-4.44226
-0.177786
-4.42401
-0.179656
-4.40606
-0.181525
-4.38846
-0.183422
-4.37124
-0.185375
-4.3544
-0.187395
-4.3379
-0.189501
-4.32166
-0.191753
-4.30561
-0.19425
-4.28965
-0.19709
-4.27365
-0.200325
-4.25743
-0.203975
-4.24087
-0.208101
-4.22391
-0.212815
-4.20648
-0.218211
-4.18846
-0.224333
-4.16978
-0.231234
-4.15047
-0.239012
-4.13057
-0.247752
-4.11008
-0.257541
-4.08919
-0.268526
-4.06806
-0.280867
-4.04708
-0.294822
-4.02653
-0.310472
-0.328322
-4.00712
-3.85632
-0.322569
-3.83223
-0.313012
-3.81432
-0.296315
-3.80078
-0.278936
-3.79031
-0.262228
-3.78174
-0.24697
-3.77421
-0.233462
-3.76708
-0.221763
-3.75981
-0.211812
-3.75211
-0.203541
-3.74377
-0.196807
-3.7346
-0.191433
-3.72453
-0.187296
-3.71351
-0.184279
-3.70162
-0.182281
-3.68895
-0.181187
-3.67563
-0.180833
-3.66178
-0.181037
-3.64756
-0.181649
-3.63319
-0.182559
-3.61887
-0.183654
-3.60479
-0.184831
-3.59116
-0.186018
-3.57812
-0.187178
-3.56578
-0.188307
-3.55419
-0.189418
-3.54336
-0.190533
-3.53325
-0.191681
-3.52382
-0.192905
-3.51495
-0.194259
-3.50652
-0.195796
-3.49841
-0.197578
-3.49047
-0.199684
-3.48257
-0.202192
-3.47451
-0.205169
-3.46606
-0.208663
-3.45704
-0.212747
-3.44738
-0.217522
-3.43705
-0.223057
-3.42595
-0.229337
-3.41401
-0.236319
-3.40127
-0.244015
-3.38784
-0.252479
-3.37382
-0.261771
-3.35933
-0.271928
-3.34472
-0.28307
-3.33034
-0.295255
-3.3165
-0.308574
-3.30378
-0.323183
-0.339294
-3.29294
-2.68241
-0.357748
-2.66382
-0.331601
-2.65323
-0.306957
-2.64665
-0.285504
-2.64252
-0.266382
-2.63947
-0.249969
-2.63666
-0.23623
-2.63357
-0.22486
-2.62986
-0.215561
-2.62539
-0.208055
-2.6201
-0.202083
-2.61406
-0.19746
-2.6074
-0.193993
-2.60026
-0.191502
-2.59283
-0.189833
-2.58525
-0.188845
-2.5777
-0.188394
-2.57037
-0.188351
-2.56346
-0.188586
-2.55714
-0.188941
-2.55157
-0.189265
-2.54689
-0.189493
-2.54325
-0.189633
-2.54073
-0.189722
-2.5393
-0.189809
-2.53886
-0.189954
-2.53924
-0.190227
-2.54028
-0.190712
-2.54175
-0.191496
-2.54339
-0.192645
-2.54493
-0.194206
-2.54617
-0.196243
-2.54691
-0.198848
-2.547
-0.202096
-2.54621
-0.206003
-2.54436
-0.210555
-2.54135
-0.215793
-2.53721
-0.221779
-2.53192
-0.228492
-2.52546
-0.235843
-2.5179
-0.243817
-2.5095
-0.252439
-2.50052
-0.261649
-2.49112
-0.271383
-2.48166
-0.281596
-2.47253
-0.292334
-2.46422
-0.303674
-2.45725
-0.315632
-2.45216
-0.328288
-0.341556
-2.44983
-1.35775
-0.395411
-1.35733
-0.332138
-1.35351
-0.310805
-1.35116
-0.287945
-1.34973
-0.267778
-1.3486
-0.251098
-1.3474
-0.237424
-1.34603
-0.226241
-1.34459
-0.217039
-1.34331
-0.209394
-1.3424
-0.203091
-1.34208
-0.197985
-1.34254
-0.193739
-1.34392
-0.190145
-1.34641
-0.187254
-1.35002
-0.185163
-1.35466
-0.183768
-1.36019
-0.18288
-1.36644
-0.182385
-1.37323
-0.182139
-1.38043
-0.181956
-1.38802
-0.181745
-1.39607
-0.18148
-1.4047
-0.181108
-1.41398
-0.180629
-1.42388
-0.180155
-1.43437
-0.179864
-1.44528
-0.179949
-1.45636
-0.180573
-1.46725
-0.181844
-1.47759
-0.183854
-1.48711
-0.186725
-1.49554
-0.190545
-1.5026
-0.195283
-1.50801
-0.200797
-1.51162
-0.206966
-1.51347
-0.213836
-1.51369
-0.221463
-1.51238
-0.229697
-1.5097
-0.238335
-1.50596
-0.24737
-1.50155
-0.256816
-1.49681
-0.266474
-1.49195
-0.276125
-1.48763
-0.285845
-1.48432
-0.295639
-1.48258
-0.305424
-1.48317
-0.315201
-1.48651
-0.325035
-0.334529
-1.49379
-0.0277316
-0.417476
-0.0284611
-0.331416
-0.028199
-0.31113
-0.02956
-0.286563
-0.0313945
-0.265987
-0.0329403
-0.24975
-0.0339726
-0.236451
-0.0348207
-0.225468
-0.0358311
-0.21621
-0.0373392
-0.208317
-0.0395869
-0.20151
-0.042525
-0.19544
-0.0464945
-0.189908
-0.0520963
-0.184935
-0.0594397
-0.18056
-0.0683262
-0.176784
-0.0787365
-0.173602
-0.0907343
-0.171048
-0.104198
-0.169099
-0.11878
-0.167649
-0.134054
-0.166645
-0.149717
-0.166065
-0.165551
-0.165779
-0.181366
-0.165542
-0.197166
-0.165092
-0.213226
-0.16432
-0.229891
-0.163388
-0.247337
-0.16264
-0.265442
-0.162449
-0.283851
-0.163172
-0.302091
-0.165167
-0.319584
-0.168792
-0.335626
-0.174227
-0.349433
-0.181279
-0.360427
-0.189469
-0.368576
-0.19839
-0.374329
-0.207869
-0.378167
-0.21771
-0.380386
-0.227528
-0.381448
-0.237146
-0.382156
-0.246787
-0.383024
-0.256426
-0.384063
-0.265697
-0.3857
-0.27448
-0.388913
-0.283066
-0.393932
-0.291145
-0.401225
-0.298378
-0.412016
-0.304821
-0.426645
-0.310593
-0.315256
-0.445857
1.23641
-0.392379
1.23301
-0.328155
1.21968
-0.297867
1.2079
-0.274985
1.19762
-0.255842
1.18823
-0.240415
1.17976
-0.228095
1.17221
-0.218074
1.16536
-0.209648
1.15895
-0.202304
1.15284
-0.195756
1.14693
-0.189801
1.14098
-0.184257
1.13482
-0.17906
1.12833
-0.174239
1.1213
-0.169813
1.11347
-0.16578
1.10462
-0.162145
1.09463
-0.158923
1.08348
-0.156176
1.07113
-0.153974
1.05761
-0.152313
1.04308
-0.15107
1.02778
-0.15004
1.01193
-0.149021
0.995622
-0.14789
0.978876
-0.146664
0.961678
-0.145529
0.944042
-0.144832
0.925976
-0.145024
0.90747
-0.146606
0.888582
-0.150018
0.869603
-0.155477
0.851075
-0.162894
0.83355
-0.171952
0.817347
-0.182277
0.802643
-0.193458
0.789662
-0.204972
0.778462
-0.216332
0.768657
-0.227373
0.759705
-0.238095
0.751419
-0.248257
0.743562
-0.257635
0.735143
-0.266295
0.725906
-0.274145
0.715697
-0.280629
0.703487
-0.286058
0.688377
-0.290039
0.670337
-0.292095
-0.29218
0.647584
2.60713
-0.341877
2.57691
-0.297942
2.5497
-0.270745
2.52558
-0.250925
2.50451
-0.23476
2.48574
-0.221672
2.46889
-0.211325
2.45374
-0.202973
2.44
-0.195896
2.42734
-0.189651
2.41555
-0.183954
2.40451
-0.178614
2.39394
-0.173544
2.38358
-0.168669
2.37324
-0.163926
2.36273
-0.159314
2.35181
-0.154857
2.34029
-0.150601
2.32797
-0.146632
2.31477
-0.143059
2.30063
-0.139981
2.28563
-0.137448
2.26989
-0.135416
2.25352
-0.133725
2.23663
-0.132147
2.21921
-0.130486
2.20121
-0.128688
2.18256
-0.126903
2.16321
-0.125491
2.14316
-0.124974
2.12245
-0.125943
2.10124
-0.128917
2.07984
-0.134198
2.05868
-0.141781
2.03812
-0.151404
2.01839
-0.16262
1.99969
-0.174834
1.98216
-0.187389
1.96572
-0.199778
1.95001
-0.211739
1.93487
-0.223043
1.92019
-0.233452
1.90549
-0.242918
1.89031
-0.25136
1.87469
-0.258334
1.85778
-0.26377
1.8393
-0.267499
1.81864
-0.26921
1.79518
-0.268688
-0.265591
1.76848
3.95729
-0.285951
3.91782
-0.25855
3.88316
-0.23612
3.85226
-0.220054
3.82463
-0.207173
3.79978
-0.196864
3.77735
-0.188885
3.75707
-0.182618
3.73855
-0.177351
3.72145
-0.172573
3.70554
-0.168028
3.69064
-0.163613
3.67647
-0.159255
3.66276
-0.154872
3.64923
-0.15038
3.63564
-0.145736
3.62178
-0.140985
3.60743
-0.13624
3.59241
-0.131624
3.57661
-0.12727
3.55999
-0.123344
3.54261
-0.120014
3.5246
-0.117327
3.50609
-0.115121
3.48711
-0.113093
3.46757
-0.11094
3.44733
-0.108501
3.42619
-0.105862
3.40401
-0.103411
3.38072
-0.101785
3.35641
-0.101747
3.33138
-0.103996
3.3061
-0.108986
3.28107
-0.116797
3.25674
-0.127134
3.23339
-0.139391
3.21123
-0.152754
3.19026
-0.166413
3.17021
-0.179773
3.15078
-0.192428
3.1318
-0.204062
3.11294
-0.214551
3.09383
-0.223888
3.07433
-0.231801
3.05407
-0.237908
3.03243
-0.242256
3.00928
-0.244245
2.98398
-0.243886
2.95594
-0.240596
-0.234161
2.92444
5.28125
-0.242436
5.23852
-0.215863
5.20234
-0.199951
5.16931
-0.186993
5.13919
-0.177045
5.11193
-0.169623
5.08725
-0.164247
5.06473
-0.160133
5.0439
-0.15656
5.02439
-0.153112
5.00599
-0.149641
4.98858
-0.146136
4.97192
-0.14256
4.95574
-0.138745
4.93975
-0.134493
4.92367
-0.129766
4.90727
-0.124696
4.89034
-0.119441
4.87275
-0.114121
4.85436
-0.108912
4.8351
-0.104111
4.8151
-0.10003
4.79459
-0.0967897
4.77376
-0.094204
4.75265
-0.0918597
4.73111
-0.0892909
4.70884
-0.0861576
4.68547
-0.0824318
4.66063
-0.0785297
4.63412
-0.0752668
4.60605
-0.0736668
4.57681
-0.0747291
4.54707
-0.0791569
4.51753
-0.0871385
4.4888
-0.0982962
4.46132
-0.111796
4.43528
-0.12657
4.41052
-0.141575
4.38668
-0.155987
4.36343
-0.169244
4.34046
-0.181082
4.31736
-0.191544
4.29401
-0.200575
4.27035
-0.207866
4.24573
-0.213292
4.2202
-0.216503
4.19314
-0.217212
4.16453
-0.215138
4.13347
-0.20966
-0.20028
4.09948
6.69999
-0.173601
6.64842
-0.164325
6.59789
-0.149483
6.55108
-0.140151
6.50795
-0.133885
6.46864
-0.130335
6.43315
-0.128761
6.40097
-0.127949
6.37141
-0.12695
6.34386
-0.125461
6.31796
-0.123652
6.29352
-0.121686
6.27036
-0.119444
6.24817
-0.116594
6.22652
-0.112872
6.20502
-0.108323
6.18349
-0.10322
6.16179
-0.0977614
6.13973
-0.0920145
6.11705
-0.0861665
6.09366
-0.0806832
6.06978
-0.0761378
6.04579
-0.0727934
6.02198
-0.0703823
5.99842
-0.0682903
5.9749
-0.0657877
5.95092
-0.0622156
5.92576
-0.0573161
5.89873
-0.0515254
5.86941
-0.0459399
5.83782
-0.0420433
5.80451
-0.0413784
5.77046
-0.0450723
5.73672
-0.0534147
5.70423
-0.065833
5.67358
-0.0811445
5.64491
-0.097884
5.61794
-0.114612
5.5921
-0.13016
5.56681
-0.14384
5.54143
-0.155595
5.5156
-0.165743
5.48938
-0.174277
5.46251
-0.180939
5.43467
-0.185569
5.40594
-0.187646
5.37585
-0.187224
5.34481
-0.183891
5.31199
-0.177043
-0.165798
5.27762
7.80352
-0.134094
7.75134
-0.112167
7.70687
-0.105019
7.66497
-0.0982248
7.62572
-0.0945466
7.5899
-0.0944008
7.55789
-0.0967261
7.52932
-0.0994388
7.50333
-0.10101
7.47923
-0.101336
7.45678
-0.10115
7.43604
-0.100906
7.41687
-0.100282
7.39872
-0.0984735
7.38073
-0.0949296
7.36234
-0.0899346
7.34344
-0.0842703
7.32408
-0.0783278
7.30407
-0.0719288
7.28303
-0.0650359
7.26079
-0.0583418
7.23784
-0.0530497
7.21496
-0.0497967
7.19277
-0.0481112
7.1715
-0.0469929
7.151
-0.0452707
7.13052
-0.0417059
7.10888
-0.0356056
7.08482
-0.0273922
7.05749
-0.0185291
7.02667
-0.0111583
6.99312
-0.00776394
6.95837
-0.0102777
6.92413
-0.0191581
6.89177
-0.033462
6.86209
-0.0514544
6.8353
-0.0711089
6.81097
-0.0903325
6.78816
-0.107347
6.76562
-0.121253
6.74227
-0.132308
6.71787
-0.141348
6.69245
-0.14874
6.6656
-0.154286
6.63734
-0.157301
6.60728
-0.157748
6.57558
-0.155695
6.54296
-0.151082
6.50922
-0.143538
-0.132304
6.47572
9.07953
-0.0556475
9.02362
-0.0562168
8.96582
-0.0470874
8.91453
-0.0468621
8.87075
-0.0507665
8.83347
-0.0571411
8.80217
-0.0654495
8.77548
-0.0727864
8.75143
-0.0770295
8.72902
-0.0789975
8.70849
-0.0806262
8.69031
-0.0827054
8.67426
-0.0842445
8.65923
-0.0834888
8.64391
-0.0796655
8.62774
-0.0737901
8.61094
-0.0674664
8.59371
-0.0610767
8.5756
-0.0537978
8.55579
-0.0452111
8.53382
-0.0363596
8.51033
-0.0295463
8.48657
-0.0260222
8.46352
-0.0250554
8.44211
-0.0256104
8.42287
-0.0260604
8.40496
-0.0238063
8.38641
-0.0170463
8.36502
-0.00598741
8.3392
0.00729955
8.30834
0.0196943
8.27323
0.0273457
8.23612
0.0268358
8.19976
0.0172233
8.16608
0.00025002
8.13602
-0.0213496
8.10994
-0.0449774
8.08731
-0.0676061
8.06639
-0.086297
8.04477
-0.0996
8.02071
-0.108301
7.99409
-0.114638
7.96513
-0.119803
7.93387
-0.123049
7.8999
-0.123256
7.86312
-0.12094
7.82404
-0.116777
7.78382
-0.110808
7.74319
-0.102977
-0.0937055
7.70476
11.7495
-0.0238922
11.6988
-0.00552114
11.6459
0.00580958
11.5983
0.000754015
11.5516
-0.00413904
11.5008
-0.0064095
11.4482
-0.0130267
11.3984
-0.0231724
11.35
-0.0286265
11.2994
-0.0283356
11.2443
-0.0255212
11.1849
-0.0233655
11.1233
-0.0226898
11.0618
-0.0220246
11.0016
-0.0195345
10.9427
-0.015002
10.8849
-0.00972858
10.8284
-0.0046097
10.7738
0.000774167
10.7216
0.00703561
10.6713
0.013965
10.6207
0.0211037
10.5698
0.0250128
10.5209
0.0238673
10.4754
0.0200095
10.4337
0.0157152
10.3944
0.0155023
10.3541
0.0232887
10.3087
0.0395076
10.2554
0.0606273
10.1954
0.0796733
10.1306
0.0922352
10.0629
0.0944836
9.9963
0.0838547
9.93337
0.0631272
9.87521
0.0367198
9.82167
0.00848146
9.77132
-0.0173024
9.7209
-0.0359402
9.66629
-0.0450841
9.60264
-0.0446139
9.52653
-0.0384245
9.44131
-0.0347646
9.35365
-0.0351488
9.26645
-0.0361538
9.18014
-0.0346167
9.09254
-0.0292212
9.00245
-0.0207559
8.91085
-0.0115448
-0.00142951
8.81849
-2.72993
-2.73529
-2.72944
-2.72876
-2.73293
-2.73928
-2.75223
-2.77537
-2.80395
-2.83223
-2.8577
-2.88102
-2.90369
-2.92572
-2.9453
-2.96035
-2.9701
-2.97471
-2.97393
-2.96689
-2.95293
-2.93182
-2.9068
-2.88292
-2.86289
-2.84716
-2.83164
-2.80835
-2.76884
-2.70821
-2.62851
-2.53624
-2.44174
-2.35789
-2.29478
-2.25807
-2.24961
-2.26698
-2.30304
-2.34818
-2.39273
-2.43131
-2.46603
-2.50121
-2.53737
-2.57182
-2.60121
-2.62179
-2.63342
-2.63491
0.406421
-0.00851646
0.40939
-0.00297134
0.411533
-0.00214572
0.412571
-0.0010406
0.412895
-0.000326196
0.41285
4.31236e-05
0.412606
0.000240831
0.412246
0.000357394
0.411814
0.000428349
0.41134
0.000470952
0.410842
0.000495901
0.41033
0.000509888
0.409811
0.000516827
0.409291
0.00051902
0.408773
0.000517883
0.408259
0.000514334
0.407752
0.000509003
0.407252
0.000502341
0.406762
0.000494664
0.406281
0.000486186
0.40581
0.000477038
0.40535
0.000467283
0.404902
0.000456924
0.404465
0.000445889
0.404041
0.000434046
0.40363
0.000421218
0.403234
0.000407195
0.402853
0.000391752
0.40249
0.000374641
0.402147
0.00035559
0.401825
0.000334289
0.401527
0.000310366
0.401257
0.00028334
0.401017
0.000252746
0.400813
0.000217582
0.400648
0.000177145
0.40053
0.000130511
0.400466
7.65519e-05
0.400464
1.38914e-05
0.400535
-5.95259e-05
0.400693
-0.00014634
0.400954
-0.000249759
0.401339
-0.000374103
0.401876
-0.000525663
0.4026
-0.000713867
0.403563
-0.000953538
0.404843
-0.00127017
0.406564
-0.00171179
0.40895
-0.00237734
-0.00348146
0.412441
0.393843
-0.00445725
0.392994
-0.002127
0.391574
-0.000729808
0.390825
-0.000296585
0.390466
2.77751e-05
0.390277
0.00022762
0.390191
0.000321044
0.390179
0.000364166
0.390218
0.000384642
0.390292
0.00039307
0.390389
0.000394645
0.390504
0.000392507
0.39063
0.000388379
0.390766
0.000383096
0.390909
0.000377044
0.391056
0.00037039
0.391208
0.0003632
0.391363
0.000355472
0.391521
0.000347156
0.391682
0.000338181
0.391845
0.00032844
0.39201
0.000317781
0.392179
0.000306011
0.392351
0.000292905
0.392527
0.000278202
0.392707
0.000261591
0.392894
0.000242679
0.393087
0.000220989
0.393289
0.000195935
0.393501
0.000166849
0.393726
0.000133063
0.393966
9.39063e-05
0.394225
4.82869e-05
0.394506
-5.10349e-06
0.394814
-6.7649e-05
0.395154
-0.000140885
0.395532
-0.0002267
0.395957
-0.000327412
0.396436
-0.000445888
0.396982
-0.000586119
0.397608
-0.000752684
0.398328
-0.00095146
0.399163
-0.00119038
0.400135
-0.00148037
0.401274
-0.00183682
0.402619
-0.00228225
0.404216
-0.00285104
0.406117
-0.00359738
0.408365
-0.00460808
-0.00601965
0.410922
0.39441
-0.000964951
0.393255
-0.000976034
0.393049
-0.000527276
0.393068
-0.000319373
0.393289
-0.000197067
0.393589
-7.76899e-05
0.393888
1.72901e-05
0.394162
8.5405e-05
0.394407
0.000135667
0.394622
0.000173447
0.394812
0.000201581
0.394979
0.000222177
0.395129
0.000236915
0.395265
0.000247008
0.39539
0.000253325
0.395507
0.000256475
0.395618
0.00025689
0.395725
0.000254871
0.39583
0.000250622
0.395935
0.000244261
0.396039
0.000235814
0.396145
0.000225222
0.396254
0.000212354
0.396365
0.00019701
0.396481
0.000178904
0.396603
0.000157651
0.396731
0.000132753
0.396867
0.000103618
0.397013
6.94052e-05
0.39717
2.91781e-05
0.397342
-1.80694e-05
0.397529
-7.3573e-05
0.397737
-0.000138794
0.397967
-0.000215498
0.398225
-0.000305359
0.398514
-0.000410822
0.398841
-0.000534651
0.399212
-0.000680218
0.399636
-0.000851688
0.400121
-0.00105424
0.40068
-0.0012942
0.401325
-0.00157956
0.402072
-0.00192072
0.402939
-0.00233138
0.403947
-0.00282993
0.405121
-0.00344176
0.406487
-0.00420217
0.408064
-0.00516046
0.409856
-0.00638509
-0.00796551
0.411817
0.397501
-0.000563453
0.397315
-0.000794253
0.397381
-0.000596522
0.397436
-0.000378428
0.397453
-0.00021837
0.397454
-8.28966e-05
0.397439
2.77157e-05
0.397411
0.000108753
0.397377
0.000165358
0.397342
0.000204423
0.39731
0.00023072
0.397282
0.000247493
0.39726
0.000257174
0.397245
0.00026152
0.397238
0.000261746
0.397239
0.000258659
0.397248
0.000252788
0.397265
0.000244484
0.397291
0.000233959
0.397325
0.000221303
0.397366
0.000206493
0.397416
0.000189401
0.397473
0.000169804
0.397539
0.000147367
0.397613
0.000121614
0.397697
9.20074e-05
0.39779
5.78767e-05
0.397894
1.83359e-05
0.39801
-2.75679e-05
0.39814
-8.08997e-05
0.398284
-0.000143005
0.398446
-0.000215641
0.398628
-0.000300641
0.398831
-0.000400158
0.399062
-0.00051663
0.399322
-0.000653032
0.399618
-0.000812893
0.399955
-0.00100045
0.400342
-0.00122082
0.400784
-0.00148023
0.401293
-0.00178625
0.401878
-0.00214834
0.402552
-0.00257831
0.403327
-0.00309106
0.404217
-0.00370574
0.405237
-0.00444726
0.406396
-0.00534743
0.407696
-0.0064463
0.409118
-0.00779328
-0.00944245
0.41061
0.397554
-0.000214649
0.397106
-0.000350661
0.396793
-0.00028691
0.396583
-0.000172194
0.396445
-8.50974e-05
0.396376
-1.81854e-05
0.396363
3.68125e-05
0.396388
7.92428e-05
0.396439
0.000109953
0.396508
0.000131763
0.396588
0.000147008
0.396675
0.00015714
0.396768
0.000163153
0.396863
0.000165756
0.396961
0.000165421
0.39706
0.000162437
0.397161
0.000156966
0.397263
0.000149097
0.397367
0.000138863
0.397472
0.000126227
0.39758
0.000111061
0.39769
9.31458e-05
0.397802
7.21865e-05
0.397918
4.77804e-05
0.398037
1.93247e-05
0.39816
-1.38801e-05
0.398289
-5.27203e-05
0.398424
-9.82307e-05
0.398567
-0.000151472
0.398719
-0.000213717
0.398882
-0.000286617
0.399058
-0.000372117
0.39925
-0.000472428
0.399459
-0.000590102
0.399689
-0.000728076
0.399943
-0.000889806
0.400227
-0.00107939
0.400546
-0.00130172
0.400904
-0.00156261
0.40131
-0.00186905
0.40177
-0.0022295
0.402292
-0.00265418
0.402886
-0.00315549
0.403559
-0.0037486
0.40432
-0.00445214
0.405175
-0.00528891
0.406128
-0.00628611
0.407171
-0.00747601
0.408287
-0.00889432
-0.0105772
0.409437
0.397788
-0.000100364
0.397632
-0.000197808
0.39755
-0.00020882
0.397541
-0.000167108
0.397569
-0.000117652
0.397617
-7.04216e-05
0.397675
-2.53625e-05
0.397735
1.49834e-05
0.397792
4.8468e-05
0.397845
7.49216e-05
0.397893
9.50593e-05
0.397938
0.000109635
0.39798
0.000119306
0.398021
0.000124657
0.398062
0.000126138
0.398104
0.000124084
0.398147
0.00011875
0.398193
0.000110328
0.398242
9.89324e-05
0.398294
8.45615e-05
0.398351
6.71034e-05
0.398411
4.63722e-05
0.398477
2.20579e-05
0.398547
-6.25753e-06
0.398623
-3.91519e-05
0.398704
-7.74651e-05
0.398792
-0.000122207
0.398886
-0.000174467
0.398989
-0.00023551
0.399102
-0.000306858
0.399224
-0.000390364
0.39936
-0.0004882
0.399509
-0.000602866
0.399674
-0.000737227
0.399859
-0.000894586
0.400065
-0.0010788
0.400297
-0.0012944
0.400559
-0.00154675
0.400855
-0.00184217
0.401191
-0.00218817
0.401572
-0.00259368
0.402003
-0.00306921
0.402491
-0.00362722
0.403041
-0.00428258
0.403657
-0.00505279
0.40434
-0.00595802
0.405089
-0.00702117
0.405894
-0.00826763
0.406737
-0.00972303
-0.0114108
0.407586
0.397839
-3.72633e-05
0.397728
-8.94924e-05
0.397622
-0.000107603
0.397541
-8.97833e-05
0.397479
-5.94646e-05
0.397433
-2.84557e-05
0.397403
3.73623e-07
0.397388
2.54824e-05
0.397386
4.56371e-05
0.397396
6.06149e-05
0.397417
7.08763e-05
0.397447
7.70348e-05
0.397485
7.96008e-05
0.397531
7.89566e-05
0.397583
7.53523e-05
0.397641
6.89591e-05
0.397705
5.99043e-05
0.397775
4.82549e-05
0.397849
3.3982e-05
0.397927
1.69607e-05
0.39801
-3.03356e-06
0.398097
-2.63038e-05
0.398188
-5.32463e-05
0.398282
-8.44103e-05
0.398381
-0.000120474
0.398484
-0.000162364
0.398591
-0.000211156
0.398703
-0.000268084
0.398821
-0.000334598
0.398945
-0.000412417
0.399077
-0.000503574
0.399218
-0.000610426
0.399369
-0.000735676
0.399532
-0.000882429
0.39971
-0.00105426
0.399903
-0.00125531
0.400116
-0.00149044
0.40035
-0.00176531
0.400611
-0.00208659
0.400902
-0.00246209
0.401225
-0.00290092
0.401587
-0.00341361
0.401988
-0.00401238
0.402433
-0.0047115
0.402923
-0.00552709
0.403456
-0.0064769
0.40403
-0.00758069
0.404635
-0.00885858
0.405256
-0.0103303
-0.0120134
0.405874
0.397871
-5.36226e-06
0.397809
-3.1858e-05
0.39775
-5.22568e-05
0.39771
-5.32997e-05
0.397691
-4.42462e-05
0.39769
-3.20693e-05
0.397705
-1.92734e-05
0.397733
-6.91304e-06
0.39777
3.95608e-06
0.397814
1.26852e-05
0.397863
1.90645e-05
0.397914
2.30744e-05
0.397967
2.46807e-05
0.398022
2.38272e-05
0.398079
2.04605e-05
0.398136
1.4533e-05
0.398196
6.00006e-06
0.398256
-5.20458e-06
0.398319
-1.92003e-05
0.398383
-3.61697e-05
0.39845
-5.63632e-05
0.398518
-8.01276e-05
0.398588
-0.000107898
0.398661
-0.000140265
0.398736
-0.000177984
0.398813
-0.000221996
0.398894
-0.000273427
0.398978
-0.000333599
0.399066
-0.00040407
0.399158
-0.000486673
0.399257
-0.000583539
0.399362
-0.00069713
0.399474
-0.000830275
0.399596
-0.000986229
0.399727
-0.00116874
0.39987
-0.00138213
0.400027
-0.00163144
0.4002
-0.0019225
0.400392
-0.00226215
0.400604
-0.0026583
0.40084
-0.00312007
0.401101
-0.0036579
0.401389
-0.00428368
0.401705
-0.00501089
0.402048
-0.00585431
0.402416
-0.00683
0.402805
-0.00795495
0.403206
-0.00924561
0.403607
-0.0107174
-0.0123826
0.403991
0.397883
1.41984e-05
0.397841
6.38586e-06
0.397795
-9.64615e-06
0.397755
-1.72735e-05
0.397725
-1.88297e-05
0.397706
-1.72867e-05
0.397697
-1.43288e-05
0.397697
-1.08903e-05
0.397704
-7.77857e-06
0.397718
-5.6585e-06
0.397739
-4.92447e-06
0.397765
-5.78598e-06
0.397797
-8.41182e-06
0.397834
-1.29612e-05
0.397875
-1.95669e-05
0.397922
-2.83427e-05
0.397973
-3.93961e-05
0.398028
-5.28515e-05
0.398087
-6.88755e-05
0.39815
-8.76992e-05
0.398217
-0.000109619
0.398286
-0.000135014
0.398359
-0.000164374
0.398434
-0.000198342
0.398511
-0.000237729
0.398591
-0.000283524
0.398672
-0.000336915
0.398756
-0.000399299
0.398843
-0.000472313
0.398932
-0.000557857
0.399025
-0.000658128
0.399121
-0.000775657
0.399221
-0.000913358
0.399326
-0.00107458
0.399437
-0.00126316
0.399554
-0.00148353
0.399679
-0.00174077
0.399812
-0.0020408
0.399956
-0.00239048
0.400112
-0.00279768
0.40028
-0.00327141
0.400461
-0.00382196
0.400655
-0.00446093
0.400862
-0.00520106
0.401081
-0.00605615
0.401307
-0.00704111
0.401538
-0.00817073
0.401766
-0.00945966
0.401984
-0.0109209
-0.0125656
0.402182
0.397889
2.79049e-05
0.397857
3.4532e-05
0.39782
2.35339e-05
0.397787
1.1764e-05
0.397764
8.27438e-07
0.397751
-8.61532e-06
0.397748
-1.64647e-05
0.397756
-2.30353e-05
0.397773
-2.86684e-05
0.397797
-3.37908e-05
0.397827
-3.88316e-05
0.397863
-4.41788e-05
0.397903
-5.02008e-05
0.397948
-5.72513e-05
0.397996
-6.56501e-05
0.398046
-7.56693e-05
0.3981
-8.75434e-05
0.398157
-0.000101508
0.398215
-0.000117827
0.398276
-0.000136804
0.398339
-0.000158786
0.398403
-0.000184192
0.398469
-0.000213552
0.398535
-0.000247541
0.398602
-0.000287005
0.39867
-0.000332965
0.398738
-0.000386627
0.398806
-0.000449411
0.398875
-0.000522965
0.398944
-0.000609198
0.399014
-0.000710311
0.399084
-0.000828852
0.399155
-0.000967752
0.399227
-0.00113037
0.3993
-0.00132054
0.399374
-0.00154266
0.39945
-0.00180179
0.399528
-0.00210379
0.399609
-0.00245547
0.399692
-0.00286458
0.399777
-0.00333997
0.399864
-0.00389172
0.399952
-0.00453109
0.400038
-0.00527028
0.400122
-0.00612258
0.400199
-0.00710198
0.400266
-0.00822222
0.400318
-0.00949689
0.400349
-0.0109375
-0.0125535
0.400353
0.39789
4.0552e-05
0.397859
6.14486e-05
0.397823
5.59514e-05
0.397791
4.0465e-05
0.397767
2.0553e-05
0.397754
4.52388e-07
0.397751
-1.8028e-05
0.397758
-3.44213e-05
0.397773
-4.86674e-05
0.397797
-6.09341e-05
0.397826
-7.16388e-05
0.397861
-8.13372e-05
0.3979
-9.05995e-05
0.397942
-9.99697e-05
0.397988
-0.000109939
0.398037
-0.000120925
0.398089
-0.000133294
0.398143
-0.000147394
0.398199
-0.000163579
0.398256
-0.000182216
0.398315
-0.000203692
0.398375
-0.000228456
0.398435