/*--------------------------------*- C++ -*----------------------------------*\
  =========                 |
  \\      /  F ield         | OpenFOAM: The Open Source CFD Toolbox
   \\    /   O peration     | Website:  https://openfoam.org
    \\  /    A nd           | Version:  8
     \\/     M anipulation  |
\*---------------------------------------------------------------------------*/
FoamFile
{
    version     2.0;
    format      ascii;
    class       volScalarField;
    location    "500";
    object      T;
}
// * * * * * * * * * * * * * * * * * * * * * * * * * * * * * * * * * * * * * //

dimensions      [0 0 0 1 0 0 0];

internalField   nonuniform List<scalar> 
8400
(
300.257
300.25
300.25
300.25
300.251
300.253
300.255
300.258
300.262
300.266
300.27
300.275
300.28
300.286
300.292
300.299
300.306
300.314
300.323
300.333
300.344
300.356
300.369
300.383
300.399
300.415
300.433
300.452
300.472
300.493
300.516
300.54
300.566
300.593
300.621
300.65
300.681
300.712
300.745
300.778
300.812
300.846
300.88
300.915
300.949
300.984
301.018
301.051
301.084
301.115
300.328
300.321
300.322
300.322
300.324
300.328
300.332
300.338
300.345
300.352
300.361
300.37
300.381
300.392
300.404
300.418
300.432
300.448
300.465
300.483
300.503
300.523
300.546
300.57
300.595
300.621
300.65
300.679
300.71
300.742
300.776
300.811
300.847
300.885
300.924
300.963
301.004
301.045
301.086
301.128
301.169
301.211
301.252
301.292
301.332
301.371
301.409
301.445
301.48
301.512
300.483
300.475
300.476
300.478
300.481
300.486
300.494
300.502
300.513
300.525
300.539
300.554
300.571
300.589
300.609
300.63
300.653
300.677
300.703
300.731
300.76
300.79
300.822
300.856
300.891
300.927
300.965
301.004
301.044
301.085
301.128
301.171
301.215
301.26
301.305
301.351
301.397
301.442
301.488
301.533
301.577
301.62
301.663
301.703
301.743
301.781
301.816
301.85
301.882
301.911
300.713
300.708
300.712
300.716
300.723
300.731
300.743
300.756
300.771
300.789
300.808
300.83
300.853
300.879
300.906
300.935
300.965
300.998
301.031
301.067
301.104
301.142
301.182
301.223
301.265
301.308
301.352
301.397
301.442
301.488
301.535
301.582
301.628
301.675
301.722
301.769
301.815
301.86
301.904
301.947
301.989
302.03
302.069
302.106
302.141
302.174
302.205
302.234
302.26
302.284
300.931
300.935
300.946
300.958
300.972
300.989
301.007
301.027
301.049
301.074
301.1
301.128
301.158
301.19
301.224
301.259
301.295
301.333
301.373
301.413
301.455
301.498
301.542
301.586
301.631
301.676
301.721
301.767
301.813
301.859
301.904
301.95
301.995
302.039
302.082
302.125
302.167
302.208
302.247
302.286
302.322
302.358
302.391
302.423
302.453
302.481
302.508
302.532
302.554
302.574
300.972
300.99
301.014
301.039
301.064
301.091
301.12
301.15
301.181
301.213
301.247
301.282
301.318
301.355
301.393
301.433
301.473
301.514
301.556
301.598
301.641
301.685
301.729
301.772
301.817
301.861
301.904
301.948
301.991
302.034
302.076
302.118
302.159
302.199
302.238
302.277
302.315
302.351
302.387
302.422
302.456
302.488
302.52
302.55
302.579
302.606
302.633
302.658
302.682
302.705
300.732
300.76
300.792
300.825
300.859
300.893
300.928
300.963
300.999
301.036
301.072
301.11
301.148
301.186
301.224
301.263
301.302
301.341
301.381
301.421
301.461
301.501
301.541
301.581
301.621
301.661
301.701
301.74
301.78
301.819
301.858
301.896
301.935
301.973
302.01
302.047
302.085
302.121
302.158
302.194
302.231
302.267
302.303
302.339
302.375
302.411
302.447
302.482
302.518
302.554
300.346
300.368
300.394
300.42
300.447
300.475
300.503
300.531
300.559
300.587
300.616
300.644
300.673
300.702
300.731
300.759
300.788
300.817
300.846
300.875
300.905
300.934
300.964
300.995
301.025
301.056
301.088
301.12
301.152
301.184
301.217
301.251
301.285
301.319
301.354
301.39
301.426
301.463
301.501
301.54
301.58
301.621
301.663
301.707
301.752
301.798
301.846
301.896
301.947
302
300.084
300.092
300.102
300.113
300.124
300.136
300.148
300.159
300.171
300.184
300.196
300.208
300.221
300.234
300.246
300.259
300.272
300.285
300.298
300.312
300.326
300.34
300.355
300.37
300.386
300.403
300.42
300.438
300.457
300.476
300.497
300.518
300.54
300.563
300.587
300.612
300.638
300.665
300.694
300.725
300.757
300.791
300.827
300.865
300.905
300.948
300.993
301.04
301.09
301.144
300.009
300.009
300.011
300.013
300.015
300.017
300.02
300.022
300.024
300.027
300.029
300.032
300.035
300.038
300.04
300.043
300.046
300.05
300.053
300.056
300.06
300.064
300.068
300.072
300.076
300.081
300.086
300.092
300.098
300.105
300.112
300.119
300.127
300.136
300.146
300.156
300.167
300.179
300.192
300.205
300.221
300.237
300.255
300.274
300.296
300.318
300.343
300.37
300.399
300.43
300.001
300.001
300.001
300.001
300.002
300.003
300.004
300.004
300.005
300.006
300.007
300.008
300.009
300.009
300.01
300.011
300.012
300.013
300.014
300.015
300.016
300.017
300.018
300.02
300.021
300.023
300.025
300.026
300.028
300.03
300.032
300.034
300.037
300.039
300.042
300.046
300.049
300.053
300.057
300.062
300.068
300.074
300.08
300.088
300.096
300.105
300.114
300.125
300.137
300.15
300.003
300.003
300.003
300.004
300.004
300.004
300.005
300.006
300.006
300.007
300.008
300.009
300.009
300.01
300.011
300.012
300.013
300.014
300.015
300.016
300.017
300.018
300.019
300.02
300.021
300.023
300.024
300.026
300.027
300.029
300.031
300.032
300.034
300.036
300.038
300.04
300.042
300.045
300.047
300.05
300.054
300.057
300.062
300.066
300.072
300.078
300.084
300.092
300.1
300.108
300.005
300.006
300.005
300.006
300.006
300.006
300.007
300.007
300.008
300.009
300.01
300.011
300.011
300.012
300.013
300.014
300.015
300.016
300.017
300.018
300.019
300.02
300.021
300.023
300.024
300.025
300.027
300.028
300.03
300.032
300.034
300.036
300.037
300.039
300.041
300.044
300.046
300.048
300.051
300.054
300.057
300.06
300.064
300.069
300.074
300.079
300.085
300.092
300.099
300.107
300.007
300.008
300.008
300.008
300.009
300.009
300.01
300.011
300.012
300.012
300.013
300.014
300.015
300.016
300.017
300.018
300.019
300.02
300.021
300.022
300.024
300.025
300.026
300.027
300.029
300.03
300.032
300.033
300.035
300.037
300.039
300.041
300.043
300.045
300.047
300.05
300.052
300.055
300.058
300.061
300.064
300.068
300.072
300.077
300.082
300.088
300.094
300.1
300.108
300.115
300.008
300.009
300.009
300.01
300.011
300.012
300.013
300.014
300.015
300.016
300.017
300.018
300.019
300.02
300.021
300.022
300.024
300.025
300.026
300.028
300.029
300.03
300.032
300.033
300.034
300.036
300.037
300.039
300.041
300.043
300.045
300.047
300.05
300.052
300.055
300.058
300.061
300.064
300.067
300.071
300.075
300.079
300.084
300.089
300.095
300.101
300.108
300.115
300.123
300.13
300.013
300.015
300.016
300.018
300.019
300.021
300.022
300.023
300.025
300.026
300.027
300.027
300.028
300.028
300.029
300.03
300.031
300.032
300.033
300.034
300.035
300.036
300.037
300.038
300.039
300.041
300.042
300.044
300.045
300.048
300.05
300.053
300.056
300.06
300.063
300.067
300.071
300.075
300.079
300.084
300.089
300.094
300.1
300.106
300.113
300.12
300.128
300.136
300.144
300.152
300.008
300.01
300.01
300.011
300.013
300.014
300.016
300.017
300.018
300.019
300.02
300.02
300.021
300.021
300.022
300.022
300.023
300.024
300.025
300.026
300.027
300.029
300.03
300.032
300.033
300.035
300.037
300.04
300.043
300.046
300.051
300.056
300.061
300.067
300.074
300.08
300.086
300.093
300.1
300.108
300.115
300.124
300.132
300.141
300.15
300.159
300.168
300.177
300.186
300.195
300.021
300.025
300.027
300.029
300.032
300.034
300.037
300.039
300.042
300.044
300.045
300.045
300.045
300.046
300.047
300.048
300.049
300.05
300.051
300.052
300.055
300.057
300.06
300.063
300.066
300.07
300.073
300.078
300.084
300.091
300.1
300.11
300.121
300.133
300.145
300.158
300.171
300.184
300.197
300.211
300.225
300.24
300.254
300.268
300.281
300.293
300.305
300.315
300.325
300.334
300.015
300.024
300.032
300.037
300.043
300.051
300.064
300.076
300.088
300.098
300.109
300.122
300.137
300.155
300.174
300.192
300.211
300.232
300.255
300.28
300.305
300.331
300.358
300.385
300.41
300.434
300.456
300.476
300.498
300.521
300.546
300.572
300.599
300.628
300.658
300.686
300.712
300.738
300.762
300.786
300.808
300.831
300.853
300.873
300.89
300.903
300.914
300.924
300.931
300.94
301.95
301.968
301.982
302.006
302.033
302.057
302.079
302.104
302.129
302.155
302.181
302.208
302.236
302.265
302.294
302.323
302.352
302.381
302.409
302.437
302.465
302.491
302.516
302.543
302.57
302.599
302.63
302.661
302.687
302.708
302.723
302.735
302.743
302.751
302.76
302.772
302.785
302.801
302.818
302.834
302.848
302.858
302.865
302.874
302.884
302.892
302.899
302.905
302.911
302.916
303.147
303.143
303.139
303.135
303.131
303.127
303.123
303.12
303.116
303.112
303.109
303.105
303.102
303.098
303.095
303.092
303.088
303.085
303.082
303.079
303.075
303.072
303.069
303.066
303.063
303.06
303.057
303.054
303.051
303.048
303.045
303.043
303.04
303.037
303.034
303.032
303.029
303.026
303.024
303.021
303.018
303.016
303.013
303.011
303.009
303.007
303.004
303.003
303.001
303
303.15
303.15
303.15
303.15
303.15
303.149
303.149
303.149
303.149
303.149
303.148
303.148
303.148
303.147
303.147
303.147
303.146
303.146
303.146
303.145
303.145
303.144
303.144
303.143
303.143
303.142
303.142
303.141
303.141
303.141
303.14
303.14
303.139
303.139
303.138
303.138
303.137
303.137
303.136
303.136
303.135
303.135
303.135
303.134
303.134
303.133
303.133
303.133
303.133
303.132
303.15
303.15
303.15
303.15
303.15
303.15
303.15
303.15
303.15
303.15
303.15
303.15
303.15
303.15
303.15
303.15
303.15
303.15
303.15
303.15
303.15
303.15
303.15
303.15
303.15
303.15
303.15
303.15
303.149
303.149
303.149
303.149
303.149
303.149
303.149
303.149
303.149
303.149
303.149
303.149
303.149
303.149
303.149
303.149
303.149
303.149
303.149
303.149
303.149
303.149
303.15
303.15
303.15
303.15
303.15
303.15
303.15
303.15
303.15
303.15
303.15
303.15
303.15
303.15
303.15
303.15
303.15
303.15
303.15
303.15
303.15
303.15
303.15
303.15
303.15
303.15
303.15
303.15
303.15
303.15
303.15
303.15
303.15
303.15
303.15
303.15
303.15
303.15
303.15
303.15
303.15
303.15
303.15
303.15
303.15
303.15
303.15
303.15
303.15
303.15
303.15
303.15
303.15
303.15
303.15
303.15
303.15
303.15
303.15
303.15
303.15
303.15
303.15
303.15
303.15
303.15
303.15
303.15
303.15
303.15
303.15
303.15
303.15
303.15
303.15
303.15
303.15
303.15
303.15
303.15
303.15
303.15
303.15
303.15
303.15
303.15
303.15
303.15
303.15
303.15
303.15
303.15
303.15
303.15
303.15
303.15
303.15
303.15
303.15
303.15
303.15
303.15
303.15
303.15
303.15
303.15
303.15
303.15
303.15
303.15
303.15
303.15
303.15
303.15
303.15
303.15
303.15
303.15
303.15
303.15
303.15
303.15
303.15
303.15
303.15
303.15
303.15
303.15
303.15
303.15
303.15
303.15
303.15
303.15
303.15
303.15
303.15
303.15
303.15
303.15
303.15
303.15
303.15
303.15
303.15
303.15
303.15
303.15
303.15
303.15
303.15
303.15
303.15
303.15
303.15
303.15
303.15
303.15
303.15
303.15
303.15
303.15
303.15
303.15
303.15
303.15
303.15
303.15
303.15
303.15
303.15
303.15
303.15
303.15
303.15
303.15
303.15
303.15
303.15
303.15
303.15
303.15
303.15
303.15
303.15
303.15
303.15
303.15
303.15
303.15
303.15
303.15
303.15
303.15
303.15
303.15
303.15
303.15
303.15
303.15
303.15
303.15
303.15
303.15
303.15
303.15
303.15
303.15
303.15
303.15
303.15
303.15
303.15
303.15
303.15
303.15
303.15
303.15
303.15
303.15
303.15
303.15
303.15
303.15
303.15
303.15
303.15
303.15
303.15
303.15
303.15
303.15
303.15
303.15
303.15
303.15
303.15
303.15
303.15
303.15
303.15
303.15
303.15
303.15
303.15
303.15
303.15
303.15
303.15
303.15
303.15
303.15
303.15
303.15
303.15
303.15
303.15
303.15
303.15
303.15
303.15
303.15
303.15
303.15
303.15
303.15
303.15
303.15
303.15
303.15
303.15
303.15
303.15
303.15
303.15
303.15
303.15
303.15
303.15
303.15
303.15
303.15
303.15
303.15
303.15
303.15
303.15
303.15
303.15
303.15
303.15
303.15
303.15
303.15
303.15
303.15
303.15
303.15
303.15
303.15
303.15
303.15
303.15
303.15
303.15
303.15
303.15
303.15
303.15
303.15
303.15
303.15
303.15
303.15
303.15
303.15
303.15
303.15
303.15
303.15
303.15
303.15
303.15
303.15
303.15
303.15
303.15
303.15
303.15
303.15
303.15
303.15
303.15
303.15
303.15
303.15
303.15
303.15
303.15
303.15
303.15
303.15
303.15
303.15
303.15
303.15
303.15
303.15
303.15
303.15
303.15
303.15
303.15
303.15
303.15
303.15
303.15
303.15
303.15
303.15
303.15
303.15
303.15
303.15
303.15
303.15
303.15
303.15
303.15
303.15
303.15
303.15
303.15
303.15
303.15
303.15
303.15
303.15
303.15
303.15
303.15
303.15
303.15
303.15
303.15
303.15
303.15
303.15
303.15
303.15
303.15
303.15
303.15
303.15
303.15
303.15
303.15
303.15
303.15
303.15
303.15
303.15
303.15
303.15
303.15
303.15
303.15
303.15
303.15
303.15
303.15
303.15
303.15
303.15
303.15
303.15
303.15
303.15
303.15
303.15
303.15
303.15
303.15
303.15
303.15
303.15
303.15
303.15
303.15
303.15
303.15
303.15
303.15
303.15
303.15
303.15
303.15
303.15
303.15
303.15
303.15
303.15
303.15
303.15
303.15
303.15
303.15
303.15
303.15
303.15
303.15
303.15
303.15
303.15
303.15
303.15
303.15
303.15
303.15
303.15
303.15
303.15
303.15
303.15
303.15
303.15
303.15
303.15
303.15
303.15
303.15
303.15
303.15
303.15
303.15
303.15
303.15
303.15
303.15
303.15
303.15
303.15
303.15
303.15
303.15
303.15
303.15
303.15
303.15
303.15
303.15
303.15
303.15
303.15
303.15
303.15
303.15
303.15
303.15
303.15
303.15
303.15
303.15
303.15
303.15
303.15
303.15
303.15
303.15
303.15
303.15
303.15
303.15
303.15
303.15
303.15
303.15
303.15
303.15
303.15
303.15
303.15
303.15
303.15
303.15
303.15
303.15
303.15
303.15
303.15
303.15
303.15
303.15
303.15
303.15
303.15
303.15
303.15
303.15
303.15
303.15
303.15
303.15
303.15
303.15
303.15
303.15
303.15
303.15
303.15
303.15
303.15
303.15
303.15
303.15
303.15
303.15
303.15
303.15
303.15
303.15
303.15
303.15
303.15
303.15
303.15
303.15
303.15
303.15
303.15
303.15
303.15
303.15
303.15
303.15
303.15
303.15
303.15
303.15
303.15
303.15
303.15
303.15
303.15
303.15
303.15
303.15
303.15
303.15
303.15
303.15
303.15
303.15
303.15
303.15
303.15
303.15
303.15
303.15
303.15
303.15
303.15
303.15
303.15
303.15
303.15
303.15
303.15
303.15
303.15
303.15
303.15
303.15
303.15
303.15
303.15
303.15
303.15
303.15
303.15
303.15
303.15
303.15
303.15
303.15
303.15
303.15
303.15
303.15
303.15
303.15
303.15
303.15
303.15
303.15
303.15
303.15
303.15
303.15
303.15
303.15
303.15
303.15
303.15
303.15
303.15
303.15
303.15
303.15
303.15
303.15
303.15
303.15
303.15
303.15
303.15
303.15
303.15
303.15
303.15
303.15
303.15
303.15
303.15
303.15
303.15
303.15
303.15
303.15
303.15
303.15
303.15
303.15
303.15
303.15
303.15
303.15
303.15
303.15
303.15
303.15
303.15
303.15
303.15
303.15
303.15
303.15
303.15
303.15
303.15
303.15
303.15
303.15
303.15
303.15
303.15
303.15
303.15
303.15
303.15
303.15
303.15
303.15
303.15
303.15
303.15
303.15
303.15
303.15
303.15
303.15
303.15
303.15
303.15
303.15
303.15
303.15
303.15
303.15
303.15
303.15
303.15
303.15
303.15
303.15
303.15
303.15
303.149
303.149
303.149
303.149
303.149
303.149
303.149
303.149
303.149
303.149
303.149
303.149
303.149
303.149
303.149
303.148
303.148
303.148
303.148
303.148
303.147
303.147
303.147
303.15
303.15
303.15
303.15
303.15
303.149
303.149
303.149
303.149
303.149
303.148
303.148
303.148
303.147
303.147
303.147
303.146
303.146
303.145
303.145
303.145
303.144
303.144
303.143
303.143
303.142
303.142
303.141
303.141
303.14
303.14
303.139
303.139
303.138
303.137
303.137
303.136
303.136
303.135
303.134
303.134
303.133
303.132
303.131
303.13
303.129
303.128
303.127
303.126
303.124
303.147
303.143
303.139
303.135
303.131
303.127
303.123
303.12
303.116
303.112
303.109
303.105
303.102
303.098
303.095
303.092
303.088
303.085
303.082
303.079
303.075
303.072
303.069
303.066
303.063
303.06
303.057
303.054
303.051
303.048
303.045
303.043
303.04
303.037
303.034
303.031
303.029
303.026
303.023
303.021
303.018
303.015
303.013
303.01
303.008
303.005
303.002
303
302.997
302.995
302.994
303.117
303.132
303.089
302.973
302.74
302.355
301.826
301.215
300.633
300.19
299.935
299.854
299.576
299.446
299.616
299.759
299.686
299.672
299.799
302.995
303.118
303.132
303.09
302.975
302.743
302.361
301.834
301.225
300.644
300.201
299.946
299.866
299.574
299.427
299.584
299.726
299.66
299.654
299.791
302.995
303.118
303.132
303.091
302.976
302.745
302.365
301.84
301.232
300.652
300.209
299.955
299.876
299.585
299.418
299.559
299.701
299.642
299.642
299.786
302.996
303.118
303.132
303.091
302.977
302.746
302.367
301.843
301.237
300.657
300.216
299.962
299.885
299.595
299.409
299.535
299.676
299.623
299.63
299.78
302.997
303.119
303.132
303.091
302.976
302.746
302.367
301.844
301.239
300.661
300.22
299.968
299.893
299.604
299.402
299.511
299.65
299.604
299.618
299.776
302.998
303.119
303.132
303.09
302.976
302.745
302.366
301.843
301.238
300.661
300.222
299.972
299.899
299.613
299.396
299.488
299.625
299.585
299.607
299.771
302.999
303.119
303.132
303.09
302.974
302.742
302.362
301.838
301.234
300.658
300.221
299.973
299.901
299.621
299.39
299.466
299.599
299.565
299.595
299.767
303
303.12
303.132
303.089
302.972
302.738
302.356
301.831
301.227
300.652
300.217
299.972
299.9
299.628
299.385
299.444
299.573
299.546
299.584
299.763
303.001
303.12
303.132
303.088
302.969
302.733
302.347
301.821
301.216
300.642
300.21
299.968
299.896
299.634
299.381
299.423
299.547
299.526
299.574
299.759
303.002
303.121
303.132
303.086
302.965
302.725
302.337
301.807
301.2
300.628
300.199
299.961
299.89
299.638
299.377
299.402
299.521
299.506
299.563
299.756
303.003
303.121
303.131
303.084
302.96
302.717
302.323
301.789
301.181
300.609
300.183
299.95
299.881
299.641
299.374
299.382
299.495
299.486
299.553
299.753
303.005
303.122
303.131
303.082
302.954
302.706
302.306
301.767
301.156
300.585
300.163
299.935
299.869
299.642
299.37
299.363
299.47
299.467
299.543
299.75
303.006
303.122
303.13
303.079
302.948
302.693
302.286
301.741
301.126
300.556
300.137
299.916
299.853
299.641
299.367
299.344
299.445
299.447
299.534
299.748
303.007
303.123
303.129
303.076
302.94
302.678
302.263
301.709
301.09
300.52
300.105
299.891
299.833
299.637
299.364
299.326
299.42
299.428
299.525
299.746
303.008
303.123
303.128
303.072
302.93
302.66
302.235
301.672
301.048
300.477
300.067
299.86
299.809
299.631
299.36
299.309
299.396
299.409
299.516
299.744
303.01
303.124
303.127
303.067
302.919
302.64
302.203
301.63
300.998
300.427
300.022
299.824
299.781
299.621
299.356
299.292
299.372
299.39
299.507
299.743
303.011
303.124
303.126
303.062
302.907
302.617
302.167
301.581
300.941
300.369
299.97
299.781
299.748
299.608
299.351
299.275
299.349
299.371
299.499
299.741
303.012
303.125
303.124
303.056
302.893
302.59
302.125
301.525
300.877
300.304
299.911
299.731
299.711
299.592
299.345
299.26
299.326
299.353
299.492
299.74
303.013
303.125
303.122
303.049
302.877
302.56
302.078
301.463
300.804
300.23
299.843
299.674
299.668
299.572
299.337
299.244
299.304
299.335
299.484
299.739
303.015
303.126
303.12
303.041
302.859
302.527
302.026
301.393
300.723
300.147
299.769
299.611
299.62
299.549
299.328
299.229
299.282
299.318
299.477
299.739
303.016
303.126
303.117
303.032
302.838
302.489
301.968
301.315
300.634
300.057
299.688
299.541
299.567
299.523
299.317
299.214
299.261
299.301
299.471
299.738
303.017
303.126
303.114
303.022
302.815
302.447
301.903
301.231
300.537
299.961
299.601
299.466
299.51
299.493
299.305
299.199
299.241
299.285
299.464
299.738
303.019
303.127
303.11
303.011
302.79
302.401
301.833
301.139
300.434
299.859
299.511
299.387
299.45
299.46
299.29
299.184
299.221
299.269
299.458
299.738
303.02
303.127
303.106
302.998
302.761
302.35
301.757
301.041
300.325
299.753
299.419
299.308
299.389
299.425
299.274
299.169
299.202
299.254
299.453
299.738
303.021
303.127
303.101
302.984
302.73
302.295
301.675
300.938
300.212
299.646
299.33
299.23
299.327
299.389
299.257
299.154
299.184
299.239
299.448
299.738
303.022
303.126
303.096
302.968
302.696
302.235
301.589
300.831
300.097
299.541
299.245
299.157
299.267
299.352
299.238
299.139
299.167
299.225
299.442
299.738
303.024
303.126
303.09
302.95
302.659
302.172
301.498
300.721
299.983
299.44
299.168
299.093
299.211
299.315
299.218
299.124
299.15
299.211
299.438
299.738
303.025
303.125
303.083
302.931
302.619
302.105
301.405
300.611
299.873
299.347
299.102
299.041
299.161
299.28
299.198
299.109
299.134
299.198
299.433
299.739
303.026
303.124
303.075
302.91
302.576
302.035
301.309
300.501
299.767
299.264
299.048
299.003
299.119
299.247
299.177
299.094
299.119
299.186
299.429
299.739
303.027
303.122
303.066
302.887
302.531
301.962
301.213
300.395
299.67
299.193
299.008
298.979
299.086
299.217
299.156
299.079
299.105
299.174
299.425
299.739
303.029
303.121
303.057
302.863
302.483
301.887
301.117
300.293
299.583
299.134
298.98
298.966
299.061
299.19
299.136
299.065
299.092
299.163
299.422
299.739
303.03
303.119
303.047
302.837
302.433
301.812
301.023
300.198
299.506
299.088
298.962
298.961
299.044
299.167
299.116
299.051
299.08
299.153
299.418
299.739
303.031
303.116
303.036
302.81
302.382
301.736
300.932
300.11
299.44
299.054
298.953
298.962
299.033
299.146
299.096
299.038
299.069
299.143
299.415
299.739
303.032
303.113
303.024
302.781
302.329
301.66
300.845
300.031
299.385
299.03
298.949
298.964
299.027
299.129
299.077
299.026
299.059
299.133
299.412
299.739
303.033
303.11
303.011
302.75
302.276
301.586
300.763
299.959
299.339
299.013
298.949
298.966
299.025
299.113
299.059
299.015
299.05
299.124
299.409
299.739
303.034
303.106
302.998
302.719
302.222
301.513
300.686
299.895
299.302
299.003
298.951
298.968
299.022
299.098
299.041
299.005
299.042
299.116
299.406
299.738
303.035
303.102
302.984
302.688
302.169
301.443
300.614
299.839
299.272
298.996
298.953
298.968
299.021
299.083
299.024
298.997
299.035
299.108
299.402
299.737
303.036
303.098
302.97
302.656
302.117
301.376
300.547
299.787
299.245
298.99
298.956
298.968
299.018
299.067
299.008
298.99
299.03
299.1
299.399
299.736
303.037
303.094
302.956
302.626
302.066
301.313
300.484
299.74
299.221
298.986
298.958
298.967
299.015
299.052
298.994
298.985
299.026
299.092
299.396
299.735
303.037
303.09
302.942
302.596
302.018
301.253
300.426
299.698
299.201
298.982
298.961
298.967
299.009
299.035
298.98
298.981
299.022
299.084
299.392
299.733
303.038
303.086
302.929
302.567
301.972
301.197
300.373
299.66
299.183
298.98
298.964
298.967
299.001
299.019
298.969
298.98
299.02
299.076
299.388
299.731
303.038
303.082
302.916
302.54
301.93
301.146
300.325
299.627
299.169
298.979
298.968
298.966
298.992
299.004
298.959
298.981
299.019
299.069
299.384
299.729
303.039
303.079
302.904
302.515
301.891
301.1
300.284
299.599
299.157
298.979
298.971
298.967
298.981
298.989
298.952
298.983
299.019
299.062
299.379
299.726
303.039
303.076
302.894
302.493
301.857
301.06
300.248
299.576
299.148
298.98
298.975
298.968
298.969
298.975
298.947
298.987
299.019
299.054
299.374
299.723
303.039
303.073
302.884
302.473
301.828
301.026
300.219
299.558
299.142
298.982
298.979
298.969
298.958
298.963
298.945
298.994
299.02
299.047
299.368
299.719
303.039
303.07
302.877
302.458
301.804
301
300.197
299.546
299.14
298.985
298.984
298.973
298.949
298.954
298.946
299.001
299.021
299.039
299.362
299.715
303.04
303.069
302.871
302.446
301.788
300.982
300.182
299.539
299.14
298.989
298.989
298.978
298.942
298.948
298.95
299.01
299.023
299.032
299.356
299.711
303.04
303.068
302.868
302.44
301.778
300.972
300.176
299.538
299.144
298.993
298.994
298.985
298.94
298.945
298.957
299.021
299.025
299.024
299.349
299.706
303.04
303.068
302.867
302.438
301.776
300.971
300.178
299.544
299.151
298.999
298.999
298.994
298.942
298.947
298.967
299.031
299.027
299.017
299.343
299.701
303.04
303.068
302.869
302.442
301.782
300.98
300.19
299.557
299.162
299.006
299.005
299.004
298.949
298.953
298.979
299.043
299.028
299.01
299.336
299.695
303.04
303.07
302.874
302.451
301.797
300.999
300.211
299.576
299.177
299.014
299.01
299.015
298.961
298.963
298.994
299.054
299.029
299.002
299.328
299.689
303.04
303.072
302.881
302.467
301.821
301.03
300.242
299.604
299.196
299.023
299.015
299.027
298.977
298.977
299.01
299.064
299.03
298.995
299.321
299.683
303.039
303.075
302.891
302.488
301.854
301.071
300.285
299.64
299.22
299.034
299.019
299.039
298.996
298.994
299.026
299.074
299.03
298.989
299.313
299.676
303.039
303.079
302.904
302.515
301.896
301.124
300.338
299.684
299.25
299.048
299.023
299.049
299.018
299.013
299.043
299.082
299.029
298.983
299.306
299.669
303.039
303.084
302.919
302.547
301.948
301.188
300.403
299.739
299.285
299.064
299.026
299.058
299.039
299.033
299.059
299.088
299.027
298.977
299.298
299.661
303.039
303.089
302.936
302.584
302.008
301.263
300.481
299.803
299.328
299.083
299.029
299.063
299.059
299.052
299.074
299.092
299.024
298.973
299.291
299.654
303.038
303.094
302.955
302.626
302.075
301.35
300.571
299.879
299.379
299.107
299.033
299.065
299.077
299.07
299.086
299.094
299.021
298.969
299.285
299.645
303.038
303.1
302.975
302.671
302.15
301.448
300.673
299.966
299.439
299.136
299.037
299.063
299.09
299.085
299.094
299.093
299.016
298.967
299.278
299.637
303.037
303.106
302.996
302.718
302.231
301.555
300.789
300.067
299.509
299.171
299.044
299.058
299.096
299.095
299.099
299.089
299.011
298.967
299.273
299.628
303.036
303.111
303.017
302.768
302.317
301.672
300.917
300.181
299.591
299.215
299.054
299.049
299.094
299.099
299.099
299.082
299.006
298.968
299.268
299.619
303.034
303.117
303.037
302.817
302.406
301.796
301.057
300.31
299.686
299.268
299.069
299.04
299.084
299.097
299.094
299.072
299
298.971
299.265
299.61
303.033
303.121
303.057
302.866
302.496
301.927
301.208
300.454
299.797
299.333
299.092
299.033
299.067
299.088
299.085
299.06
298.994
298.977
299.263
299.601
303.031
303.126
303.075
302.913
302.585
302.061
301.37
300.614
299.924
299.413
299.125
299.03
299.048
299.073
299.071
299.046
298.99
298.986
299.262
299.592
303.029
303.129
303.091
302.957
302.673
302.196
301.541
300.789
300.07
299.509
299.17
299.034
299.028
299.053
299.053
299.032
298.987
298.999
299.264
299.583
303.026
303.132
303.105
302.997
302.755
302.331
301.717
300.978
300.236
299.625
299.23
299.049
299.013
299.032
299.035
299.019
298.988
299.015
299.267
299.574
303.024
303.134
303.117
303.032
302.832
302.461
301.897
301.181
300.423
299.764
299.309
299.077
299.008
299.013
299.018
299.009
298.993
299.035
299.273
299.564
303.02
303.136
303.127
303.062
302.901
302.585
302.076
301.395
300.631
299.928
299.41
299.123
299.015
299.001
299.006
299.004
299.003
299.058
299.28
299.556
303.017
303.137
303.134
303.087
302.961
302.699
302.252
301.616
300.86
300.119
299.538
299.188
299.039
299
299.004
299.008
299.019
299.085
299.29
299.547
303.013
303.137
303.14
303.107
303.011
302.8
302.418
301.84
301.107
300.341
299.695
299.277
299.081
299.017
299.013
299.021
299.043
299.115
299.301
299.538
303.009
303.137
303.144
303.121
303.052
302.889
302.572
302.061
301.369
300.592
299.888
299.394
299.142
299.052
299.036
299.045
299.073
299.147
299.314
299.53
303.005
303.137
303.147
303.132
303.084
302.962
302.71
302.273
301.639
300.873
300.121
299.544
299.223
299.101
299.072
299.078
299.108
299.181
299.328
299.521
303.001
303.136
303.148
303.14
303.108
303.021
302.828
302.469
301.91
301.179
300.397
299.738
299.329
299.16
299.117
299.119
299.148
299.214
299.342
299.513
302.996
303.135
303.149
303.145
303.125
303.066
302.926
302.645
302.172
301.502
300.717
299.984
299.473
299.233
299.167
299.165
299.189
299.247
299.356
299.505
302.991
303.134
303.15
303.148
303.136
303.099
303.002
302.794
302.414
301.829
301.077
300.293
299.669
299.328
299.221
299.212
299.229
299.279
299.37
299.497
302.985
303.133
303.15
303.149
303.143
303.121
303.059
302.915
302.628
302.146
301.463
300.666
299.939
299.466
299.283
299.258
299.269
299.308
299.383
299.488
302.98
303.131
303.15
303.15
303.147
303.135
303.098
303.006
302.805
302.435
301.855
301.097
300.299
299.675
299.366
299.301
299.305
299.334
299.394
299.48
302.974
303.13
303.149
303.151
303.149
303.143
303.124
303.069
302.941
302.68
302.227
301.561
300.755
299.996
299.505
299.346
299.339
299.359
299.404
299.472
302.968
303.128
303.149
303.151
303.15
303.148
303.138
303.11
303.036
302.871
302.552
302.023
301.286
300.457
299.764
299.416
299.371
299.38
299.413
299.464
302.962
303.127
303.149
303.151
303.151
303.149
303.146
303.132
303.095
303.004
302.806
302.435
301.841
301.048
300.214
299.611
299.411
299.401
299.42
299.455
302.956
303.125
303.149
303.151
303.151
303.15
303.149
303.144
303.128
303.084
302.979
302.758
302.349
301.704
300.862
300.024
299.508
299.429
299.428
299.447
302.95
303.123
303.148
303.15
303.151
303.15
303.15
303.148
303.142
303.125
303.08
302.972
302.743
302.318
301.642
300.759
299.913
299.503
299.447
299.442
302.943
303.121
303.148
303.15
303.15
303.15
303.15
303.15
303.148
303.142
303.126
303.084
302.986
302.775
302.368
301.687
300.752
299.832
299.524
299.456
302.937
303.119
303.148
303.15
303.15
303.15
303.15
303.15
303.15
303.148
303.143
303.129
303.097
303.023
302.86
302.525
301.907
300.947
299.889
299.564
302.932
303.118
303.148
303.15
303.15
303.15
303.15
303.15
303.15
303.149
303.147
303.143
303.132
303.11
303.064
302.97
302.772
302.356
301.514
300.217
302.926
303.116
303.147
303.15
303.15
303.15
303.15
303.15
303.15
303.15
303.149
303.147
303.142
303.132
303.112
303.078
303.025
302.945
302.823
302.573
302.921
303.114
303.147
303.15
303.15
303.15
303.15
303.15
303.15
303.15
303.15
303.149
303.146
303.14
303.128
303.105
303.066
303.004
302.916
302.794
302.916
303.112
303.147
303.15
303.15
303.15
303.15
303.15
303.15
303.15
303.15
303.149
303.148
303.145
303.137
303.121
303.091
303.036
302.945
302.801
302.912
303.111
303.146
303.15
303.15
303.15
303.15
303.15
303.15
303.15
303.15
303.15
303.149
303.147
303.142
303.131
303.107
303.058
302.968
302.805
302.908
303.109
303.146
303.15
303.15
303.15
303.15
303.15
303.15
303.15
303.15
303.15
303.15
303.148
303.145
303.137
303.118
303.075
302.985
302.809
302.904
303.108
303.146
303.15
303.15
303.15
303.15
303.15
303.15
303.15
303.15
303.15
303.15
303.149
303.147
303.141
303.126
303.088
303
302.812
302.901
303.107
303.146
303.15
303.15
303.15
303.15
303.15
303.15
303.15