/*--------------------------------*- C++ -*----------------------------------*\
  =========                 |
  \\      /  F ield         | OpenFOAM: The Open Source CFD Toolbox
   \\    /   O peration     | Website:  https://openfoam.org
    \\  /    A nd           | Version:  8
     \\/     M anipulation  |
\*---------------------------------------------------------------------------*/
FoamFile
{
    version     2.0;
    format      ascii;
    class       volScalarField;
    location    "500";
    object      k;
}
// * * * * * * * * * * * * * * * * * * * * * * * * * * * * * * * * * * * * * //

dimensions      [0 2 -2 0 0 0 0];

internalField   nonuniform List<scalar> 
8400
(
0.0963452
0.09617
0.0959936
0.0958164
0.0956381
0.0954587
0.095278
0.0950959
0.0949123
0.094727
0.09454
0.0943511
0.0941602
0.0939672
0.0937719
0.0935744
0.0933744
0.0931718
0.0929667
0.0927589
0.0925484
0.092335
0.0921189
0.0918999
0.0916781
0.0914534
0.0912266
0.0909998
0.0907738
0.0905492
0.0903268
0.0901074
0.0898921
0.089682
0.0894784
0.0892831
0.0890976
0.0889242
0.0887654
0.088624
0.0885035
0.088408
0.0883427
0.0883137
0.0883287
0.0883978
0.0885345
0.0887572
0.0890893
0.0895637
0.017367
0.0173827
0.0173968
0.01741
0.0174228
0.0174351
0.0174472
0.0174589
0.0174703
0.0174814
0.0174923
0.017503
0.0175136
0.017524
0.0175344
0.0175448
0.0175554
0.0175662
0.0175773
0.0175889
0.0176012
0.0176142
0.0176283
0.0176436
0.0176604
0.017679
0.0176995
0.0177207
0.0177429
0.0177661
0.0177905
0.0178163
0.0178437
0.0178729
0.0179043
0.0179381
0.0179747
0.0180145
0.018058
0.0181057
0.0181584
0.0182167
0.0182818
0.0183546
0.0184366
0.0185296
0.0186358
0.0187583
0.0189009
0.0190691
0.00689472
0.00692101
0.00694732
0.0069736
0.00699982
0.00702599
0.00705211
0.00707817
0.0071042
0.00713019
0.00715614
0.00718207
0.00720799
0.00723392
0.00725986
0.00728584
0.00731188
0.007338
0.00736424
0.00739063
0.0074172
0.007444
0.00747107
0.00749852
0.00752641
0.00755482
0.00758355
0.00761239
0.00764137
0.0076705
0.0076998
0.00772929
0.00775901
0.00778899
0.00781925
0.00784986
0.00788086
0.00791229
0.00794424
0.00797678
0.00800999
0.00804399
0.00807891
0.00811489
0.00815212
0.00819083
0.00823132
0.00827392
0.0083191
0.00836744
0.00609362
0.00611695
0.00614039
0.00616392
0.00618755
0.00621129
0.00623514
0.0062591
0.00628318
0.00630738
0.00633169
0.00635613
0.00638069
0.00640538
0.00643021
0.00645517
0.00648026
0.00650551
0.0065309
0.00655644
0.00658215
0.00660802
0.00663406
0.00666025
0.00668658
0.00671305
0.00673967
0.00676644
0.00679336
0.00682043
0.00684765
0.00687502
0.00690256
0.00693025
0.00695811
0.00698613
0.00701432
0.00704268
0.00707122
0.00709994
0.00712885
0.00715795
0.00718726
0.00721678
0.00724653
0.00727653
0.0073068
0.00733738
0.00736829
0.00739961
0.00611091
0.00613379
0.00615682
0.00617997
0.00620326
0.00622668
0.00625023
0.00627393
0.00629777
0.00632175
0.00634588
0.00637016
0.00639459
0.00641918
0.00644393
0.00646883
0.0064939
0.00651914
0.00654454
0.00657009
0.00659581
0.00662169
0.00664773
0.00667392
0.00670028
0.00672679
0.00675345
0.00678027
0.00680723
0.00683433
0.00686157
0.00688895
0.00691644
0.00694405
0.00697176
0.00699956
0.00702743
0.00705536
0.00708333
0.0071113
0.00713926
0.00716716
0.00719496
0.00722261
0.00725006
0.00727723
0.00730403
0.00733037
0.00735611
0.00738109
0.00632355
0.00634776
0.00637212
0.00639662
0.00642125
0.00644602
0.00647092
0.00649596
0.00652115
0.00654648
0.00657195
0.00659758
0.00662336
0.0066493
0.00667539
0.00670163
0.00672804
0.0067546
0.00678132
0.00680821
0.00683526
0.00686247
0.00688986
0.00691741
0.00694512
0.00697301
0.00700105
0.00702927
0.00705764
0.00708618
0.00711487
0.00714371
0.0071727
0.00720184
0.0072311
0.0072605
0.00729001
0.00731962
0.00734933
0.0073791
0.00740894
0.0074388
0.00746867
0.00749852
0.00752832
0.00755802
0.00758759
0.00761697
0.00764611
0.00767496
0.00646617
0.0064912
0.00651638
0.00654169
0.00656714
0.00659273
0.00661846
0.00664434
0.00667037
0.00669656
0.0067229
0.0067494
0.00677606
0.00680289
0.00682988
0.00685704
0.00688436
0.00691185
0.00693951
0.00696734
0.00699535
0.00702353
0.00705188
0.0070804
0.0071091
0.00713796
0.00716699
0.00719618
0.00722554
0.00725504
0.0072847
0.00731449
0.00734442
0.00737447
0.00740462
0.00743487
0.00746519
0.00749557
0.00752597
0.00755638
0.00758675
0.00761704
0.00764721
0.00767721
0.00770696
0.0077364
0.00776544
0.00779397
0.0078219
0.00784907
0.00666222
0.00668852
0.00671499
0.0067416
0.00676835
0.00679524
0.00682228
0.00684947
0.00687682
0.00690432
0.00693198
0.0069598
0.00698778
0.00701592
0.00704424
0.00707272
0.00710138
0.00713021
0.00715922
0.00718841
0.00721777
0.00724731
0.00727703
0.00730693
0.00733701
0.00736727
0.0073977
0.00742831
0.00745908
0.00749002
0.00752113
0.00755238
0.00758379
0.00761533
0.007647
0.00767878
0.00771066
0.00774262
0.00777464
0.0078067
0.00783876
0.00787079
0.00790275
0.00793461
0.0079663
0.00799777
0.00802895
0.00805978
0.00809017
0.00812004
0.00682644
0.00685381
0.00688135
0.00690903
0.00693686
0.00696483
0.00699296
0.00702124
0.00704968
0.00707828
0.00710704
0.00713597
0.00716507
0.00719434
0.00722379
0.00725341
0.00728322
0.00731321
0.00734338
0.00737373
0.00740427
0.00743499
0.0074659
0.007497
0.00752828
0.00755974
0.00759138
0.0076232
0.00765519
0.00768735
0.00771967
0.00775215
0.00778477
0.00781752
0.00785039
0.00788336
0.00791641
0.00794953
0.00798268
0.00801584
0.00804896
0.00808201
0.00811493
0.00814768
0.00818018
0.00821237
0.00824416
0.00827546
0.00830617
0.00833618
0.00701127
0.0070399
0.0070687
0.00709764
0.00712673
0.00715597
0.00718537
0.00721492
0.00724464
0.00727452
0.00730458
0.0073348
0.0073652
0.00739578
0.00742655
0.00745749
0.00748862
0.00751994
0.00755145
0.00758315
0.00761504
0.00764712
0.0076794
0.00771187
0.00774453
0.00777738
0.00781042
0.00784365
0.00787705
0.00791063
0.00794438
0.00797829
0.00801236
0.00804656
0.00808089
0.00811532
0.00814985
0.00818444
0.00821907
0.00825371
0.00828831
0.00832284
0.00835724
0.00839146
0.00842543
0.00845906
0.00849228
0.00852498
0.00855705
0.00858838
0.00719328
0.00722321
0.00725332
0.00728358
0.007314
0.00734457
0.0073753
0.00740619
0.00743725
0.00746848
0.00749988
0.00753147
0.00756323
0.00759518
0.00762731
0.00765964
0.00769215
0.00772486
0.00775777
0.00779087
0.00782418
0.00785768
0.00789139
0.0079253
0.0079594
0.00799371
0.00802822
0.00806292
0.00809781
0.00813288
0.00816814
0.00820357
0.00823917
0.00827491
0.0083108
0.00834681
0.00838292
0.00841912
0.00845538
0.00849166
0.00852793
0.00856415
0.00860027
0.00863624
0.008672
0.00870748
0.00874259
0.00877726
0.0088114
0.0088449
0.0073691
0.0074003
0.00743168
0.00746319
0.00749486
0.00752668
0.00755867
0.00759083
0.00762315
0.00765565
0.00768833
0.00772119
0.00775423
0.00778747
0.0078209
0.00785452
0.00788834
0.00792236
0.00795658
0.00799101
0.00802565
0.00806049
0.00809553
0.00813079
0.00816625
0.00820192
0.00823778
0.00827385
0.00831012
0.00834657
0.0083832
0.00842001
0.00845698
0.0084941
0.00853136
0.00856872
0.00860618
0.00864371
0.00868126
0.00871881
0.00875631
0.00879371
0.00883094
0.00886794
0.00890462
0.00894089
0.00897663
0.00901171
0.00904598
0.00907927
0.00757007
0.00760281
0.00763575
0.00766884
0.00770209
0.00773551
0.00776909
0.00780284
0.00783677
0.00787088
0.00790517
0.00793964
0.00797431
0.00800917
0.00804423
0.00807948
0.00811495
0.00815062
0.0081865
0.00822259
0.0082589
0.00829542
0.00833216
0.00836912
0.00840629
0.00844369
0.0084813
0.00851913
0.00855717
0.00859542
0.00863387
0.00867253
0.00871137
0.0087504
0.0087896
0.00882895
0.00886845
0.00890806
0.00894777
0.00898755
0.00902737
0.00906719
0.00910697
0.00914665
0.0091862
0.00922553
0.00926459
0.0093033
0.00934158
0.00937936
0.00773523
0.00776932
0.00780358
0.00783798
0.00787254
0.00790725
0.00794213
0.00797718
0.0080124
0.0080478
0.00808339
0.00811915
0.00815511
0.00819127
0.00822762
0.00826418
0.00830094
0.00833791
0.00837509
0.00841249
0.0084501
0.00848793
0.00852598
0.00856424
0.00860273
0.00864143
0.00868034
0.00871947
0.0087588
0.00879833
0.00883806
0.00887797
0.00891804
0.00895828
0.00899865
0.00903913
0.00907971
0.00912034
0.009161
0.00920164
0.0092422
0.00928264
0.00932287
0.00936281
0.00940237
0.00944142
0.00947983
0.00951743
0.00955403
0.00958939
0.00799225
0.00802838
0.0080647
0.00810117
0.0081378
0.00817459
0.00821153
0.00824864
0.00828591
0.00832336
0.00836099
0.0083988
0.0084368
0.00847499
0.00851338
0.00855196
0.00859075
0.00862974
0.00866894
0.00870836
0.00874799
0.00878784
0.0088279
0.00886819
0.00890869
0.00894942
0.00899036
0.00903151
0.00907288
0.00911445
0.00915622
0.00919819
0.00924033
0.00928264
0.0093251
0.00936769
0.00941039
0.00945319
0.00949603
0.00953891
0.00958177
0.00962457
0.00966728
0.00970983
0.00975217
0.00979424
0.009836
0.00987738
0.00991835
0.00995889
0.00829214
0.00833143
0.00837079
0.00841019
0.00844967
0.00848922
0.00852885
0.00856857
0.00860839
0.00864831
0.00868833
0.00872847
0.00876872
0.00880911
0.00884962
0.00889027
0.00893106
0.00897199
0.00901307
0.0090543
0.00909568
0.00913721
0.00917889
0.0092207
0.00926266
0.00930474
0.00934694
0.00938924
0.00943162
0.00947405
0.00951652
0.00955898
0.0096014
0.00964372
0.00968589
0.00972785
0.00976951
0.00981078
0.00985157
0.00989174
0.00993116
0.00996968
0.0100071
0.0100432
0.0100778
0.0101106
0.0101413
0.0101696
0.0101952
0.0102176
0.00947815
0.00952709
0.00957606
0.00962491
0.00967361
0.00972217
0.00977059
0.00981887
0.00986703
0.00991507
0.009963
0.0100108
0.0100586
0.0101062
0.0101538
0.0102014
0.0102489
0.0102963
0.0103437
0.010391
0.0104383
0.0104855
0.0105327
0.0105797
0.0106266
0.0106734
0.01072
0.0107664
0.0108125
0.0108582
0.0109035
0.0109482
0.0109922
0.0110354
0.0110776
0.0111186
0.0111582
0.0111962
0.0112321
0.0112657
0.0112965
0.0113241
0.0113479
0.0113673
0.0113815
0.0113898
0.0113912
0.0113846
0.011369
0.0113429
0.0137773
0.0138626
0.0139466
0.0140297
0.014112
0.0141935
0.0142742
0.0143542
0.0144335
0.014512
0.0145899
0.0146671
0.0147436
0.0148195
0.0148949
0.0149696
0.0150438
0.0151174
0.0151904
0.0152629
0.0153347
0.0154059
0.0154765
0.0155462
0.0156152
0.0156832
0.0157501
0.0158157
0.01588
0.0159425
0.0160031
0.0160614
0.0161169
0.0161692
0.0162178
0.0162619
0.0163008
0.0163336
0.0163591
0.0163761
0.0163831
0.0163782
0.0163593
0.0163239
0.0162687
0.0161899
0.0160824
0.0159399
0.0157545
0.0155151
0.0311798
0.0313508
0.0315255
0.0317012
0.0318777
0.0320548
0.0322324
0.0324106
0.0325895
0.0327689
0.0329491
0.0331299
0.0333114
0.0334936
0.0336766
0.0338603
0.0340447
0.0342299
0.0344158
0.0346023
0.0347894
0.0349769
0.0351647
0.0353527
0.0355407
0.0357283
0.0359152
0.036101
0.0362854
0.0364677
0.0366472
0.0368232
0.0369947
0.0371607
0.0373199
0.0374706
0.0376113
0.0377396
0.037853
0.0379486
0.0380227
0.0380708
0.0380876
0.0380663
0.0379983
0.0378725
0.0376734
0.03738
0.0369653
0.0363912
0.113525
0.113788
0.114054
0.114323
0.114596
0.114872
0.115151
0.115435
0.115722
0.116014
0.11631
0.11661
0.116915
0.117224
0.117538
0.117857
0.11818
0.118508
0.118841
0.119179
0.119522
0.11987
0.120223
0.120581
0.120944
0.121312
0.121685
0.122063
0.122445
0.122833
0.123226
0.123623
0.124024
0.12443
0.12484
0.125254
0.125671
0.126091
0.126514
0.126938
0.127362
0.127787
0.12821
0.12863
0.129046
0.129455
0.129854
0.130241
0.130611
0.130958
0.941093
0.915547
0.891425
0.868593
0.846901
0.826215
0.806405
0.787404
0.769165
0.751644
0.734804
0.718609
0.703028
0.68803
0.673588
0.659675
0.646266
0.633338
0.620869
0.608839
0.597226
0.586014
0.575184
0.56472
0.554606
0.544826
0.535369
0.526218
0.517364
0.508792
0.500493
0.492455
0.484669
0.477125
0.469815
0.46273
0.455862
0.449205
0.442738
0.43644
0.430301
0.42431
0.418456
0.412727
0.407109
0.401581
0.396118
0.390678
0.385185
0.379498
0.929455
0.887359
0.848051
0.811243
0.776787
0.744518
0.714304
0.685979
0.659388
0.634391
0.610863
0.588687
0.567762
0.547994
0.529297
0.511595
0.494816
0.478898
0.46378
0.449409
0.435735
0.422714
0.410303
0.398464
0.387162
0.376362
0.366036
0.356154
0.34669
0.337619
0.328919
0.320569
0.312547
0.304833
0.29741
0.29026
0.283365
0.27671
0.270293
0.264112
0.258158
0.252417
0.24688
0.241536
0.236376
0.231388
0.226563
0.221891
0.217358
0.212947
0.929404
0.887197
0.847667
0.810679
0.77604
0.743573
0.713106
0.684479
0.657546
0.632176
0.608248
0.585655
0.564298
0.544089
0.524946
0.506796
0.489572
0.473211
0.457656
0.442857
0.428764
0.415334
0.402526
0.390302
0.378628
0.367471
0.356801
0.346591
0.336814
0.327447
0.318467
0.309853
0.301586
0.293648
0.286023
0.278696
0.271651
0.264874
0.258353
0.252076
0.246031
0.240209
0.234599
0.229193
0.223982
0.218959
0.214115
0.209445
0.204942
0.200599
0.929405
0.8875
0.848317
0.81165
0.777288
0.74504
0.714738
0.686227
0.659369
0.63404
0.610127
0.587527
0.566147
0.545902
0.526713
0.508509
0.491225
0.4748
0.459179
0.444311
0.430149
0.416649
0.403771
0.391478
0.379735
0.36851
0.357775
0.3475
0.337661
0.328233
0.319195
0.310525
0.302204
0.294214
0.286538
0.279161
0.272068
0.265245
0.258678
0.252357
0.24627
0.240407
0.234757
0.229311
0.224062
0.219001
0.21412
0.209414
0.204874
0.200494
0.929405
0.887507
0.848309
0.811599
0.777181
0.744876
0.71452
0.685964
0.659072
0.633721
0.609795
0.587191
0.565815
0.54558
0.526406
0.508221
0.490958
0.474556
0.458959
0.444116
0.429979
0.416504
0.403651
0.391382
0.379662
0.368459
0.357744
0.347489
0.337669
0.328258
0.319236
0.310581
0.302274
0.294297
0.286634
0.279267
0.272183
0.265368
0.258809
0.252494
0.246412
0.240552
0.234905
0.22946
0.22421
0.219146
0.214262
0.209548
0.204999
0.200606
0.929405
0.88753
0.848379
0.811728
0.777377
0.745142
0.714854
0.686362
0.659527
0.634224
0.610339
0.587768
0.566417
0.5462
0.527039
0.508861
0.491602
0.475199
0.459599
0.44475
0.430604
0.417119
0.404254
0.391972
0.380238
0.369021
0.358291
0.348021
0.338185
0.328758
0.31972
0.311049
0.302726
0.294732
0.287052
0.279669
0.272568
0.265737
0.259161
0.252829
0.246729
0.240851
0.235185
0.229721
0.224451
0.219367
0.214459
0.209722
0.205147
0.200727
0.929405
0.887535
0.848393
0.811748
0.777397
0.745156
0.714856
0.686348
0.659495
0.634174
0.61027
0.587682
0.566316
0.546086
0.526914
0.508727
0.491461
0.475054
0.459451
0.4446
0.430454
0.416969
0.404106
0.391827
0.380097
0.368884
0.358159
0.347893
0.338062
0.328641
0.319607
0.310941
0.302623
0.294635
0.286959
0.27958
0.272484
0.265655
0.259082
0.252753
0.246655
0.240778
0.235112
0.229647
0.224375
0.219287
0.214375
0.209632
0.205049
0.200619
0.929405
0.887538
0.848403
0.811769
0.77743
0.745202
0.714917
0.686425
0.659589
0.634284
0.610396
0.587824
0.566472
0.546255
0.527094
0.508917
0.491659
0.475259
0.459661
0.444814
0.430671
0.417188
0.404325
0.392045
0.380314
0.369098
0.35837
0.3481
0.338264
0.328838
0.319799
0.311127
0.302802
0.294806
0.287123
0.279736
0.272631
0.265793
0.259211
0.252871
0.246762
0.240873
0.235194
0.229716
0.22443
0.219326
0.214398
0.209636
0.205034
0.200583
0.929405
0.887539
0.848407
0.811776
0.777441
0.745214
0.71493
0.686437
0.659598
0.634289
0.610397
0.587818
0.56646
0.546237
0.527069
0.508887
0.491623
0.475217
0.459614
0.444763
0.430616
0.41713
0.404264
0.391982
0.380249
0.369032
0.358302
0.348032
0.338195
0.328768
0.319729
0.311056
0.302731
0.294734
0.28705
0.279663
0.272556
0.265718
0.259133
0.252791
0.246679
0.240787
0.235104
0.229621
0.224329
0.219218
0.214282
0.209511
0.204898
0.200437
0.929405
0.88754
0.848409
0.81178
0.777446
0.745222
0.714941
0.68645
0.659614
0.634308
0.610419
0.587843
0.566489
0.546268
0.527104
0.508924
0.491663
0.47526
0.459659
0.44481
0.430664
0.417179
0.404314
0.392032
0.380299
0.369081
0.358351
0.348079
0.338241
0.328812
0.319771
0.311095
0.302767
0.294768
0.28708
0.279688
0.272577
0.265733
0.259143
0.252794
0.246675
0.240775
0.235084
0.229592
0.224289
0.219167
0.214218
0.209434
0.204806
0.200329
0.929405
0.88754
0.848409
0.81178
0.777446
0.745222
0.714941
0.68645
0.659614
0.634307
0.610418
0.587843
0.566488
0.546267
0.527103
0.508923
0.491661
0.475257
0.459656
0.444806
0.43066
0.417174
0.404309
0.392026
0.380291
0.369073
0.358341
0.348068
0.338229
0.328798
0.319755
0.311078
0.302747
0.294745
0.287054
0.279659
0.272545
0.265696
0.259102
0.252748
0.246623
0.240717
0.235018
0.229518
0.224206
0.219075
0.214115
0.209318
0.204678
0.200186
0.929405
0.887539
0.848407
0.811776
0.77744
0.745214
0.71493
0.686437
0.659597
0.634288
0.610395
0.587816
0.566457
0.546233
0.527065
0.508882
0.491617
0.47521
0.459606
0.444754
0.430605
0.417117
0.40425
0.391966
0.38023
0.36901
0.358277
0.348003
0.338163
0.328731
0.319687
0.311009
0.302677
0.294674
0.286982
0.279585
0.272469
0.265618
0.259021
0.252664
0.246535
0.240625
0.234921
0.229415
0.224097
0.218958
0.213989
0.209183
0.204532
0.200029
0.929405
0.887538
0.848403
0.811769
0.77743
0.745201
0.714917
0.686424
0.659587
0.634281
0.610393
0.58782
0.566467
0.546249
0.527087
0.508909
0.491649
0.475247
0.459647
0.444797
0.430651
0.417166
0.404299
0.392016
0.38028
0.36906
0.358326
0.34805
0.338207
0.328774
0.319726
0.311044
0.302709
0.294701
0.287004
0.279602
0.272479
0.265622
0.259018
0.252653
0.246517
0.240597
0.234884
0.229367
0.224037
0.218885
0.213903
0.209082
0.204416
0.199895
0.929405
0.887535
0.848393
0.811748
0.777397
0.745155
0.714855
0.686346
0.659493
0.63417
0.610266
0.587677
0.56631
0.546079
0.526905
0.508716
0.491448
0.475038
0.459432
0.444579
0.430429
0.416941
0.404074
0.39179
0.380054
0.368835
0.358103
0.347829
0.337989
0.328558
0.319513
0.310835
0.302502
0.294497
0.286803
0.279404
0.272284
0.265429
0.258826
0.252463
0.246327
0.240408
0.234694
0.229176
0.223844
0.218689
0.213702
0.208876
0.204203
0.199674
0.929405
0.88753
0.848379
0.811728
0.777377
0.745141
0.714853
0.68636
0.659524
0.63422
0.610333
0.587761
0.566409
0.54619
0.527026
0.508846
0.491584
0.475178
0.459574
0.444721
0.430571
0.41708
0.404209
0.39192
0.380179
0.368954
0.358215
0.347934
0.338086
0.328647
0.319594
0.310907
0.302565
0.294551
0.286847
0.279438
0.272308
0.265443
0.258829
0.252455
0.246307
0.240376
0.234649
0.229118
0.223771
0.218601
0.213598
0.208755
0.204063
0.199515
0.929405
0.887507
0.848309
0.811599
0.777181
0.744875
0.714518
0.685961
0.659069
0.633716
0.609789
0.587184
0.565806
0.545569
0.526392
0.508204
0.490938
0.474533
0.458933
0.444085
0.429943
0.416462
0.403603
0.391326
0.379598
0.368387
0.357661
0.347395
0.337561
0.328135
0.319096
0.310422
0.302094
0.294092
0.286401
0.279004
0.271885
0.26503
0.258426
0.252061
0.245922
0.239998
0.234278
0.228751
0.22341
0.218243
0.213242
0.208399
0.203707
0.199157
0.929405
0.8875
0.848317
0.811649
0.777287
0.745039
0.714736
0.686224
0.659365
0.634035
0.61012
0.587518
0.566136
0.545888
0.526696
0.508489
0.491201
0.474772
0.459146
0.444273
0.430105
0.416598
0.403712
0.391411
0.379658
0.368423
0.357675
0.347387
0.337533
0.328088
0.31903
0.310339
0.301994
0.293977
0.286271
0.27886
0.271729
0.264862
0.258248
0.251872
0.245724
0.239791
0.234064
0.228532
0.223185
0.218014
0.213013
0.208171
0.203484
0.198945
0.929404
0.887197
0.847667
0.810679
0.77604
0.743571
0.713104
0.684476
0.657542
0.63217
0.608241
0.585646
0.564287
0.544076
0.52493
0.506778
0.48955
0.473185
0.457627
0.442823
0.428725
0.41529
0.402477
0.390247
0.378566
0.367402
0.356724
0.346506
0.33672
0.327344
0.318354
0.30973
0.301451
0.293501
0.285862
0.278518
0.271454
0.264657
0.258114
0.251812
0.24574
0.239889
0.234248
0.22881
0.223566
0.218511
0.21364
0.208951
0.204446
0.200135
0.929455
0.887359
0.848051
0.811243
0.776787
0.744517
0.714303
0.685978
0.659388
0.634391
0.610863
0.588689
0.567765
0.547998
0.529303
0.511603
0.494828
0.478914
0.463801
0.449436
0.43577
0.422759
0.410359
0.398534
0.387248
0.376469
0.366167
0.356315
0.346886
0.337858
0.329208
0.320918
0.312967
0.30534
0.29802
0.290994
0.284247
0.27777
0.27155
0.265578
0.259847
0.254349
0.249081
0.244037
0.239219
0.234629
0.230277
0.226182
0.222389
0.218986
0.941093
0.915547
0.891425
0.868593
0.846901
0.826215
0.806404
0.787402
0.769161
0.751638
0.734796
0.718598
0.703014
0.688012
0.673565
0.659646
0.646231
0.633296
0.620818
0.608778
0.597154
0.585928
0.575083
0.564602
0.554468
0.544666
0.535182
0.526001
0.517112
0.508501
0.500156
0.492066
0.48422
0.476607
0.469218
0.462042
0.455069
0.448292
0.4417
0.435286
0.429039
0.422953
0.417017
0.411224
0.405563
0.400027
0.394604
0.389283
0.384049
0.378885
0.172182
0.0506654
0.0302739
0.0280014
0.0268557
0.0264872
0.0256964
0.0252155
0.0245532
0.0240044
0.0234477
0.0228468
0.0223883
0.021732
0.0213702
0.0206367
0.0205642
0.021325
0.034662
0.121251
0.172596
0.0509104
0.0304903
0.0282158
0.0270686
0.0266958
0.0259025
0.0254173
0.0247522
0.0241993
0.0236398
0.0230349
0.0225735
0.0219134
0.0215487
0.0208112
0.0207369
0.0215009
0.0348863
0.121587
0.173014
0.0511479
0.0307081
0.0284327
0.0272842
0.026907
0.0261112
0.0256216
0.0249537
0.0243967
0.0238343
0.0232255
0.0227612
0.0220972
0.0217296
0.0209882
0.0209119
0.0216791
0.0351095
0.121892
0.173437
0.0513836
0.0309278
0.0286522
0.0275024
0.0271208
0.0263225
0.0258284
0.0251578
0.0245966
0.0240314
0.0234186
0.0229513
0.0222835
0.0219129
0.0211677
0.0210892
0.0218587
0.0353181
0.122203
0.173864
0.0516198
0.0311497
0.0288743
0.0277233
0.0273372
0.0265364
0.0260378
0.0253645
0.024799
0.024231
0.0236141
0.0231439
0.0224723
0.0220986
0.0213496
0.0212687
0.022039
0.0355219
0.122518
0.174295
0.0518576
0.031374
0.0290991
0.0279469
0.0275563
0.0267529
0.0262499
0.0255738
0.0250041
0.0244331
0.0238123
0.0233391
0.0226636
0.0222868
0.021534
0.0214506
0.0222205
0.0357241
0.122838
0.174731
0.0520976
0.0316011
0.0293266
0.0281732
0.0277782
0.0269723
0.0264646
0.0257858
0.0252118
0.0246379
0.024013
0.0235368
0.0228574
0.0224775
0.0217209
0.0216349
0.0224036
0.0359264
0.123162
0.175171
0.0523402
0.031831
0.029557
0.0284025
0.0280028
0.0271943
0.0266821
0.0260006
0.0254222
0.0248454
0.0242164
0.0237371
0.0230539
0.0226708
0.0219104
0.0218216
0.0225888
0.0361295
0.123491
0.175615
0.0525854
0.0320637
0.0297901
0.0286346
0.0282302
0.0274193
0.0269023
0.0262181
0.0256353
0.0250556
0.0244224
0.0239401
0.023253
0.0228667
0.0221024
0.0220108
0.022776
0.0363341
0.123824
0.176064
0.0528335
0.0322994
0.0300262
0.0288696
0.0284604
0.0276471
0.0271254
0.0264384
0.0258512
0.0252685
0.0246312
0.0241458
0.0234548
0.0230653
0.022297
0.0222025
0.0229655
0.0365406
0.124162
0.176517
0.0530845
0.0325381
0.0302653
0.0291076
0.0286936
0.0278778
0.0273513
0.0266616
0.0260699
0.0254842
0.0248428
0.0243542
0.0236594
0.0232666
0.0224942
0.0223968
0.0231575
0.0367492
0.124505
0.176976
0.0533385
0.0327799
0.0305073
0.0293487
0.0289298
0.0281115
0.0275802
0.0268877
0.0262915
0.0257028
0.0250572
0.0245654
0.0238667
0.0234706
0.0226941
0.0225937
0.0233519
0.0369602
0.124852
0.177438
0.0535956
0.0330248
0.0307524
0.0295928
0.0291689
0.0283482
0.027812
0.0271167
0.026516
0.0259243
0.0252745
0.0247794
0.0240768
0.0236773
0.0228968
0.0227934
0.0235489
0.0371737
0.125205
0.177906
0.0538557
0.0332729
0.0310006
0.02984
0.0294111
0.0285879
0.0280468
0.0273487
0.0267435
0.0261487
0.0254946
0.0249964
0.0242898
0.0238869
0.0231023
0.0229957
0.0237485
0.0373898
0.125562
0.178378
0.0541189
0.0335243
0.031252
0.0300904
0.0296564
0.0288308
0.0282847
0.0275839
0.0269739
0.0263761
0.0257178
0.0252162
0.0245056
0.0240994
0.0233106
0.0232009
0.0239509
0.0376086
0.125923
0.178855
0.0543853
0.0337788
0.0315065
0.0303441
0.0299049
0.0290769
0.0285257
0.0278221
0.0272075
0.0266066
0.0259439
0.0254391
0.0247245
0.0243147
0.0235217
0.0234089
0.0241561
0.0378304
0.12629
0.179338
0.0546548
0.0340367
0.0317643
0.030601
0.0301566
0.0293262
0.0287699
0.0280634
0.0274442
0.0268401
0.0261732
0.025665
0.0249463
0.024533
0.0237359
0.0236197
0.0243641
0.038055
0.126662
0.179825
0.0549275
0.034298
0.0320254
0.0308613
0.0304116
0.0295787
0.0290173
0.028308
0.027684
0.0270768
0.0264055
0.025894
0.0251712
0.0247544
0.023953
0.0238335
0.024575
0.0382827
0.127039
0.180317
0.0552035
0.0345627
0.0322898
0.031125
0.0306699
0.0298346
0.029268
0.0285559
0.0279271
0.0273167
0.026641
0.0261261
0.0253992
0.0249788
0.0241731
0.0240503
0.0247889
0.0385135
0.127421
0.180814
0.0554828
0.0348308
0.0325577
0.0313921
0.0309316
0.0300939
0.029522
0.028807
0.0281734
0.0275599
0.0268798
0.0263614
0.0256303
0.0252063
0.0243964
0.0242702
0.0250059
0.0387475
0.127808
0.181317
0.0557653
0.0351025
0.032829
0.0316627
0.0311967
0.0303566
0.0297794
0.0290616
0.0284231
0.0278064
0.0271218
0.0266
0.0258647
0.025437
0.0246228
0.0244931
0.0252259
0.0389847
0.128201
0.181824
0.0560512
0.0353777
0.0331039
0.0319369
0.0314653
0.0306228
0.0300403
0.0293196
0.0286762
0.0280562
0.0273672
0.0268419
0.0261024
0.025671
0.0248524
0.0247192
0.0254491
0.0392253
0.128599
0.182337
0.0563405
0.0356566
0.0333823
0.0322147
0.0317375
0.0308926
0.0303047
0.0295811
0.0289328
0.0283095
0.027616
0.0270871
0.0263434
0.0259082
0.0250853
0.0249486
0.0256755
0.0394692
0.129002
0.182855
0.0566332
0.0359391
0.0336644
0.0324962
0.0320132
0.031166
0.0305726
0.0298461
0.0291929
0.0285662
0.0278682
0.0273358
0.0265878
0.0261488
0.0253215
0.0251812
0.0259053
0.0397166
0.129411
0.183379
0.0569294
0.0362254
0.0339502
0.0327815
0.0322927
0.0314431
0.0308442
0.0301148
0.0294565
0.0288266
0.028124
0.0275879
0.0268357
0.0263928
0.0255612
0.0254171
0.0261383
0.0399675
0.129826
0.183908
0.0572291
0.0365155
0.0342398
0.0330705
0.0325759
0.031724
0.0311195
0.0303872
0.0297238
0.0290905
0.0283834
0.0278436
0.0270871
0.0266403
0.0258043
0.0256565
0.0263748
0.0402221
0.130246
0.184443
0.0575324
0.0368095
0.0345332
0.0333635
0.0328629
0.0320086
0.0313985
0.0306633
0.0299948
0.0293581
0.0286464
0.0281029
0.0273421
0.0268914
0.0260509
0.0258993
0.0266148
0.0404803
0.130672
0.184983
0.0578392
0.0371074
0.0348306
0.0336603
0.0331538
0.0322972
0.0316814
0.0309432
0.0302696
0.0296295
0.0289132
0.0283659
0.0276007
0.027146
0.0263011
0.0261457
0.0268583
0.0407422
0.131105
0.185529
0.0581498
0.0374093
0.0351319
0.0339612
0.0334487
0.0325897
0.0319682
0.031227
0.0305483
0.0299047
0.0291837
0.0286327
0.0278631
0.0274044
0.026555
0.0263957
0.0271054
0.041008
0.131543
0.186081
0.058464
0.0377152
0.0354372
0.0342662
0.0337476
0.0328862
0.0322589
0.0315148
0.0308309
0.0301838
0.0294582
0.0289033
0.0281293
0.0276665
0.0268126
0.0266494
0.0273562
0.0412776
0.131987
0.186639
0.0587821
0.0380253
0.0357467
0.0345754
0.0340505
0.0331869
0.0325537
0.0318066
0.0311174
0.0304669
0.0297365
0.0291778
0.0283994
0.0279324
0.027074
0.0269068
0.0276108
0.0415512
0.132438
0.187202
0.0591039
0.0383396
0.0360603
0.0348888
0.0343576
0.0334917
0.0328527
0.0321025
0.0314081
0.030754
0.0300189
0.0294562
0.0286734
0.0282022
0.0273393
0.027168
0.0278692
0.0418289
0.132895
0.187772
0.0594297
0.0386582
0.0363782
0.0352065
0.034669
0.0338007
0.0331558
0.0324026
0.0317028
0.0310452
0.0303054
0.0297387
0.0289515
0.028476
0.0276085
0.0274331
0.0281316
0.0421107
0.133358
0.188347
0.0597594
0.0389812
0.0367004
0.0355285
0.0349847
0.0341141
0.0334632
0.032707
0.0320018
0.0313406
0.030596
0.0300253
0.0292336
0.0287539
0.0278818
0.0277022
0.0283979
0.0423966
0.133828
0.188928
0.0600931
0.0393085
0.0370271
0.0358551
0.0353047
0.0344319
0.0337749
0.0330157
0.0323052
0.0316403
0.0308908
0.0303162
0.0295199
0.0290358
0.0281592
0.0279753
0.0286683
0.0426869
0.134305
0.189516
0.0604309
0.0396404
0.0373583
0.0361862
0.0356293
0.0347541
0.0340911
0.0333288
0.0326128
0.0319443
0.03119
0.0306113
0.0298105
0.029322
0.0284407
0.0282526
0.0289429
0.0429815
0.134788
0.19011
0.0607729
0.0399769
0.037694
0.0365219
0.0359584
0.035081
0.0344118
0.0336464
0.032925
0.0322528
0.0314937
0.0309108
0.0301055
0.0296125
0.0287266
0.0285341
0.0292217
0.0432806
0.135278
0.19071
0.061119
0.0403181
0.0380344
0.0368623
0.0362922
0.0354125
0.0347371
0.0339686
0.0332417
0.0325658
0.0318018
0.0312147
0.0304048
0.0299073
0.0290168
0.0288199
0.0295048
0.0435842
0.135776
0.191317
0.0614695
0.040664
0.0383796
0.0372076
0.0366307
0.0357487
0.0350671
0.0342955
0.0335631
0.0328834
0.0321145
0.0315232
0.0307087
0.0302067
0.0293115
0.02911
0.0297924
0.0438925
0.13628
0.19193
0.0618243
0.0410148
0.0387295
0.0375577
0.036974
0.0360897
0.0354019
0.0346272
0.0338891
0.0332057
0.0324318
0.0318363
0.0310172
0.0305105
0.0296107
0.0294047
0.0300844
0.0442055
0.136792
0.19255
0.0621836
0.0413705
0.0390845
0.0379128
0.0373222
0.0364357
0.0357415
0.0349637
0.0342201
0.0335328
0.032754
0.0321541
0.0313304
0.0308191
0.0299145
0.0297039
0.0303811
0.0445233
0.137311
0.193176
0.0625474
0.0417313
0.0394444
0.038273
0.0376755
0.0367867
0.0360861
0.0353052
0.0345559
0.0338648
0.033081
0.0324768
0.0316484
0.0311324
0.0302231
0.0300078
0.0306824
0.0448461
0.137838
0.193809
0.0629158
0.0420972
0.0398095
0.0386384
0.0380339
0.0371429
0.0364358
0.0356517
0.0348967
0.0342017
0.033413
0.0328044
0.0319714
0.0314505
0.0305365
0.0303165
0.0309885
0.0451739
0.138372
0.194449
0.0632888
0.0424683
0.0401798
0.039009
0.0383974
0.0375042
0.0367907
0.0360034
0.0352427
0.0345438
0.03375
0.033137
0.0322993
0.0317735
0.0308548
0.03063
0.0312996
0.0455068
0.138914
0.195096
0.0636667
0.0428447
0.0405554
0.039385
0.0387663
0.0378708
0.0371508
0.0363603
0.0355939
0.034891
0.0340922
0.0334747
0.0326323
0.0321017
0.0311781
0.0309484
0.0316156
0.0458449
0.139465
0.19575
0.0640493
0.0432265
0.0409364
0.0397665
0.0391406
0.0382429
0.0375163
0.0367226
0.0359504
0.0352436
0.0344397
0.0338176
0.0329705
0.0324349
0.0315066
0.031272
0.0319367
0.0461884
0.140023
0.196411
0.0644369
0.0436139
0.0413229
0.0401536
0.0395204
0.0386205
0.0378873
0.0370904
0.0363124
0.0356015
0.0347925
0.0341659
0.033314
0.0327734
0.0318404
0.0316007
0.0322631
0.0465373
0.14059
0.197079
0.0648296
0.0440069
0.0417151
0.0405463
0.0399058
0.0390037
0.0382639
0.0374637
0.0366799
0.035965
0.0351509
0.0345196
0.033663
0.0331173
0.0321794
0.0319347
0.0325948
0.0468919
0.141165
0.197754
0.0652273
0.0444056
0.042113
0.0409449
0.0402969
0.0393927
0.0386462
0.0378427
0.037053
0.036334
0.0355148
0.0348789
0.0340175
0.0334667
0.032524
0.0322741
0.0329319
0.0472521
0.141748
0.198437
0.0656303
0.0448102
0.0425167
0.0413493
0.0406939
0.0397875
0.0390342
0.0382276
0.0374319
0.0367089
0.0358845
0.0352438
0.0343777
0.0338217
0.0328741
0.032619
0.0332746
0.0476181
0.142341
0.199127
0.0660386
0.0452208
0.0429265
0.0417598
0.0410969
0.0401883
0.0394283