/*--------------------------------*- C++ -*----------------------------------*\
  =========                 |
  \\      /  F ield         | OpenFOAM: The Open Source CFD Toolbox
   \\    /   O peration     | Website:  https://openfoam.org
    \\  /    A nd           | Version:  8
     \\/     M anipulation  |
\*---------------------------------------------------------------------------*/
FoamFile
{
    version     2.0;
    format      ascii;
    class       volScalarField;
    location    "500";
    object      p;
}
// * * * * * * * * * * * * * * * * * * * * * * * * * * * * * * * * * * * * * //

dimensions      [1 -1 -2 0 0 0 0];

internalField   nonuniform List<scalar> 
8400
(
11663.1
11682.2
11698.1
11713.6
11728.8
11743.9
11759.2
11774.7
11790.6
11806.9
11823.8
11841.4
11859.7
11879
11899.4
11921.1
11944.4
11969.3
11996.4
12025.7
12057.9
12093.2
12132.3
12175.7
12224.1
12278.5
12339.3
12407.7
12484.7
12572
12671
12783.5
12911.8
13058.3
13225.8
13417.7
13637.8
13890.5
14181.2
14515.9
14901.8
15347.5
15863.5
16463.9
17165
17981
18926.9
20063.7
21557.9
23503.8
11554.9
11568.9
11582.7
11596.9
11611.2
11625.5
11639.9
11654.6
11669.6
11684.9
11700.8
11717.3
11734.4
11752.5
11771.5
11791.7
11813.3
11836.4
11861.5
11888.7
11918.5
11951.2
11987.3
12027.3
12071.9
12121.7
12177.7
12240.8
12312.2
12393
12484.8
12589.3
12708.5
12844.6
13000.4
13178.8
13383.4
13618.3
13888.1
14198.1
14554.7
14964.9
15437.1
15981.9
16610.6
17331.3
18151.5
19101.8
20265.8
21694.2
11488.7
11507.1
11523.2
11538.6
11553.8
11569.2
11584.7
11600.6
11616.9
11633.6
11651
11669
11687.8
11707.6
11728.5
11750.7
11774.4
11799.8
11827.2
11856.9
11889.3
11924.9
11963.9
12007
12054.7
12107.8
12167.1
12233.7
12308.5
12393
12488.6
12596.9
12720
12860.2
13020
13202.5
13411.2
13650.1
13923.7
14237.4
14597.2
15009.7
15483
16025.9
16647.8
17355.5
18155
19061.1
20104.5
21280.3
11354.1
11358.5
11368.5
11380.5
11393.3
11406.4
11419.7
11433.3
11447.1
11461.3
11475.9
11491
11506.7
11523.1
11540.3
11558.5
11577.8
11598.5
11620.7
11644.7
11670.9
11699.5
11731.1
11766.2
11805.2
11848.8
11897.7
11952.7
12014.8
12085.1
12165
12256
12359.6
12478.1
12613.7
12769
12947
13151.4
13386
13655.5
13964.9
14320.1
14727.5
15194.5
15728.4
16335.1
17020.3
17793
18668
19641.7
11309
11330.7
11347.7
11362.9
11377.7
11392.6
11407.7
11423.1
11438.9
11455.2
11471.9
11489.2
11507.2
11526
11545.8
11566.6
11588.6
11612.1
11637.2
11664.1
11693.2
11724.7
11759
11796.6
11838
11883.7
11934.6
11991.2
12054.6
12125.7
12205.7
12295.9
12398
12513.7
12645
12794.2
12964
13157.5
13377.8
13628.9
13914.7
14239.9
14609
15027.2
15498.9
16027.2
16613.8
17260.7
17974
18752.5
11150.7
11151.1
11159.2
11170.1
11182
11194.3
11206.8
11219.6
11232.6
11246
11259.6
11273.7
11288.2
11303.3
11319.1
11335.6
11353
11371.5
11391.3
11412.6
11435.6
11460.6
11487.8
11517.8
11550.8
11587.4
11628.1
11673.7
11724.8
11782.4
11847.5
11921.2
12004.9
12100.2
12208.8
12332.9
12474.6
12636.6
12821.9
13033.7
13275.6
13551.4
13865.1
14220.8
14622
15070.9
15567.9
16111.8
16704.8
17347.5
11121.1
11145.1
11162.4
11177
11191
11204.9
11219
11233.2
11247.7
11262.5
11277.7
11293.2
11309.2
11325.7
11342.7
11360.4
11378.9
11398.3
11418.7
11440.4
11463.4
11488.1
11514.7
11543.4
11574.7
11608.9
11646.4
11687.8
11733.8
11784.9
11841.9
11905.9
11977.8
12058.9
12150.5
12254.3
12371.9
12505.5
12657.2
12829.5
13025.1
13246.9
13497.8
13780.7
14098.2
14451.8
14841.3
15265.3
15725.5
16224.2
10950.9
10949.5
10956.7
10967.1
10978.5
10990.3
11002.3
11014.6
11027
11039.7
11052.6
11065.8
11079.4
11093.4
11107.8
11122.8
11138.4
11154.7
11171.8
11189.9
11209.1
11229.5
11251.4
11275
11300.5
11328.3
11358.7
11392.1
11429
11469.9
11515.5
11566.3
11623.3
11687.4
11759.6
11841.2
11933.6
12038.2
12156.7
12291.1
12443.4
12615.6
12810
13028.5
13273.1
13544.6
13842.9
14166.8
14517.5
14898.5
10928.2
10952.6
10969.4
10983.1
10996
11008.8
11021.5
11034.4
11047.3
11060.3
11073.5
11086.8
11100.2
11113.8
11127.7
11141.8
11156.2
11171
11186.2
11201.9
11218.1
11235.1
11252.9
11271.6
11291.4
11312.4
11335
11359.3
11385.6
11414.3
11445.7
11480.3
11518.6
11561.1
11608.7
11662
11721.9
11789.5
11865.9
11952.3
12050.1
12160.8
12285.8
12426.8
12585.2
12761.9
12957.1
13170.5
13403.8
13661.1
10754.6
10752.5
10759.1
10769
10779.9
10791.1
10802.6
10814.2
10825.8
10837.7
10849.6
10861.6
10873.8
10886.2
10898.7
10911.4
10924.3
10937.5
10950.9
10964.7
10978.8
10993.3
11008.2
11023.6
11039.6
11056.3
11073.7
11092
11111.2
11131.6
11153.1
11176.1
11200.8
11227.3
11256
11287.2
11321.2
11358.5
11399.6
11445.1
11495.6
11551.9
11614.8
11685.3
11764.4
11853.1
11952.1
12062.1
12185.6
12327.2
10732
10755.7
10771.7
10784.6
10796.6
10808.4
10820.1
10831.8
10843.4
10854.9
10866.4
10877.8
10889.1
10900.4
10911.5
10922.4
10933.2
10943.9
10954.3
10964.6
10974.6
10984.3
10993.8
11002.9
11011.7
11020
11027.9
11035.3
11042.1
11048.2
11053.7
11058.3
11062.2
11065
11066.8
11067.5
11066.9
11065.1
11061.9
11057.3
11051.5
11044.4
11036.4
11028
11019.9
11013.1
11009
11009.6
11018.2
11040.3
10560.6
10558.3
10564.5
10573.7
10583.8
10594.2
10604.7
10615.2
10625.6
10636.1
10646.4
10656.7
10666.8
10676.8
10686.6
10696.2
10705.5
10714.5
10723.2
10731.4
10739.2
10746.4
10753
10758.7
10763.6
10767.4
10770
10771.2
10770.7
10768.2
10763.6
10756.4
10746.1
10732.5
10714.9
10692.7
10665.4
10632.1
10592.3
10545
10489.6
10425.4
10351.7
10268.4
10175.7
10074.3
9965.89
9853.52
9741.7
9637.68
10533.4
10555.7
10570.9
10583.2
10594.6
10605.8
10616.8
10627.7
10638.5
10649.1
10659.5
10669.7
10679.6
10689.1
10698.2
10706.9
10715
10722.4
10729.2
10735.1
10740
10743.7
10746.2
10747.1
10746.3
10743.5
10738.4
10730.5
10719.6
10705
10686.4
10662.9
10634.1
10598.9
10556.5
10506
10446
10375.4
10292.8
10196.7
10085.7
9958.4
9813.43
9649.95
9467.66
9267.14
9050.42
8821.65
8587.35
8356.73
10368.9
10367.1
10372.9
10381.4
10390.6
10400
10409.3
10418.6
10427.6
10436.4
10444.9
10453
10460.8
10468
10474.7
10480.8
10486
10490.5
10493.9
10496.2
10497.1
10496.5
10494.1
10489.6
10482.8
10473.2
10460.4
10444
10423.4
10397.9
10366.7
10329.1
10284
10230.3
10166.7
10091.8
10003.8
9900.87
9780.98
9641.85
9481.03
9295.99
9084.23
8843.56
8572.31
8269.76
7936.83
7577.35
7199.22
6816.57
10331.5
10351.6
10365.7
10377.4
10388.4
10399.2
10409.9
10420.3
10430.6
10440.5
10450.2
10459.5
10468.3
10476.6
10484.2
10491.1
10497.2
10502.2
10506.1
10508.6
10509.5
10508.6
10505.5
10499.9
10491.4
10479.6
10463.8
10443.6
10418
10386.4
10347.7
10300.8
10244.3
10176.9
10096.8
10002
9890.18
9758.9
9605.25
9426.05
9217.79
8976.76
8699.16
8381.44
8020.77
7615.35
7165.06
6673.65
6152.32
5621.5
10180.5
10180.4
10186.5
10194.6
10203.3
10212
10220.5
10228.8
10236.7
10244.2
10251.2
10257.6
10263.3
10268.3
10272.4
10275.4
10277.3
10277.7
10276.6
10273.7
10268.6
10261.2
10250.9
10237.4
10220.2
10198.8
10172.3
10140.1
10101.4
10055
9999.85
9934.54
9857.53
9767
9660.88
9536.8
9392.01
9223.41
9027.46
8800.16
8537.08
8233.29
7883.48
7482.31
7024.95
6507.01
5924.07
5273.99
4565.65
3830.03
10123.7
10141.1
10153.9
10165.1
10175.8
10186.1
10196.3
10206.2
10215.8
10225
10233.8
10242.1
10249.7
10256.7
10262.8
10268
10272
10274.8
10276
10275.4
10272.7
10267.7
10259.8
10248.7
10233.8
10214.5
10190.1
10159.8
10122.6
10077.5
10023.1
9957.9
9880.27
9788.15
9679.21
9550.75
9399.6
9222.12
9014.06
8770.52
8485.84
8153.47
7765.88
7314.79
6791.98
6189.03
5495.02
4698.26
3805.27
2866.66
9993.54
9998.07
10005.9
10014.8
10023.8
10032.5
10040.9
10049
10056.5
10063.6
10070
10075.7
10080.6
10084.5
10087.3
10088.9
10089
10087.4
10083.9
10078.1
10069.6
10058.2
10043.3
10024.4
10000.9
9971.94
9936.8
9894.48
9843.83
9783.56
9712.14
9627.79
9528.46
9411.74
9274.84
9114.49
8926.87
8707.53
8451.23
8151.85
7802.27
7394.06
6917.24
6360.31
5711.47
4959.33
4088.48
3073.64
1901.79
636.939
9906.86
9925.87
9938.1
9948.99
9959.22
9969.06
9978.54
9987.65
9996.34
10004.6
10012.2
10019.2
10025.5
10030.9
10035.3
10038.5
10040.4
10040.7
10039.1
10035.4
10029.3
10020.2
10007.9
9991.64
9970.95
9945.07
9913.19
9874.33
9827.4
9771.11
9703.94
9624.18
9529.78
9418.4
9287.29
9133.24
8952.49
8740.64
8492.51
8201.99
7861.9
7463.65
6996.61
6447.7
5802.88
5049.4
4167.85
3104.35
1772.95
198.906
9806.94
9816.84
9826.77
9836.67
9846.27
9855.53
9864.42
9872.88
9880.86
9888.31
9895.13
9901.24
9906.51
9910.82
9914.02
9915.93
9916.33
9915.01
9911.68
9906.04
9897.7
9886.25
9871.19
9851.97
9827.91
9798.25
9762.11
9718.45
9666.08
9603.6
9529.4
9441.58
9337.95
9215.92
9072.48
8904.06
8706.47
8474.73
8202.87
7883.74
7508.68
7066.99
6544.8
5923.78
5182
4296.79
3232.53
1885.15
45.2202
-2331.84
19426.8
11264.8
7231.95
5713.6
4879.2
4270.35
3846.64
3562.33
3362.18
3211.11
3091.42
2993.24
2910.02
2837.29
2771.98
2711.98
2655.74
2602.07
2550.04
2498.85
2447.83
2396.32
2343.72
2289.39
2232.67
2172.86
2109.18
2040.73
1966.52
1885.39
1796
1696.85
1586.18
1462.02
1321.86
1162.76
981.296
773.461
534.434
258.275
-62.1677
-435.508
-872.416
-1386.39
-1994.92
-2721.47
-3598.98
-4676.72
-6035.1
-7810.79
-6205.62
-1616.35
-114.567
451.741
886.047
1211.65
1436.02
1596.13
1715
1803.85
1869.92
1918.67
1954
1978.62
1994.5
2003.04
2005.33
2002.12
1993.98
1981.26
1964.2
1942.89
1917.3
1887.29
1852.6
1812.86
1767.58
1716.12
1657.67
1591.2
1515.49
1429.15
1330.47
1217.41
1087.76
938.792
767.256
569.232
340.132
74.5233
-234.264
-594.404
-1015.88
-1511.03
-2095.29
-2788.22
-3614.78
-4606.47
-5800.83
-7231.74
1026.33
3196.39
4379.56
4482.26
4325.63
4154.01
3967.71
3776.51
3598.15
3439.04
3298.26
3173.34
3061.88
2961.65
2870.66
2787.14
2709.61
2636.81
2567.65
2501.19
2436.58
2373.03
2309.79
2246.13
2181.3
2114.53
2045.03
1971.93
1894.31
1811.07
1720.97
1622.5
1513.92
1393.14
1257.87
1105.48
932.866
736.334
511.487
253.17
-44.6794
-389.315
-789.409
-1255.34
-1799.5
-2436.6
-3183.64
-4059.17
-5080.42
-6255.66
1277.42
1686.5
1878
1806.37
1704.17
1660.79
1649.18
1646.95
1651.22
1661.1
1673.74
1686.52
1697.92
1707.09
1713.53
1716.91
1717.09
1713.97
1707.52
1697.69
1684.4
1667.57
1647.05
1622.62
1593.96
1560.67
1522.27
1478.14
1427.58
1369.87
1304.04
1228.88
1142.98
1044.72
932.084
802.706
653.816
482.159
283.913
54.6168
-210.932
-518.833
-876.186
-1291.15
-1772.95
-2331.62
-2977.32
-3718.76
-4559.81
-5493.64
1718.88
1967.97
2284.62
2516.31
2656.21
2745.49
2797.82
2816.77
2810.41
2787.46
2753.73
2712.82
2667.22
2618.68
2568.42
2517.16
2465.37
2413.26
2360.92
2308.32
2255.3
2201.69
2147.2
2091.56
2034.36
1975.18
1913.42
1848.38
1779.27
1705.22
1625.21
1538.13
1442.68
1337.31
1220.21
1089.25
942.007
775.632
586.845
371.854
126.31
-154.746
-476.898
-846.289
-1269.44
-1752.82
-2302.06
-2920.5
-3606.79
-4352.13
1825.03
1910.66
2018.79
2080.83
2083.49
2055.39
2016.99
1974.73
1931.61
1890.35
1852.43
1818.02
1786.77
1758.13
1731.53
1706.42
1682.25
1658.55
1634.86
1610.8
1585.97
1560
1532.55
1503.2
1471.59
1437.35
1399.98
1358.99
1313.77
1263.59
1207.62
1144.94
1074.45
994.876
904.727
802.273
685.514
552.148
399.528
224.645
24.1065
-205.855
-469.333
-770.615
-1113.93
-1502.98
-1940.24
-2425.75
-2955.5
-3519.94
1840.59
1884.98
1956.71
2028.93
2084.29
2125.2
2156.81
2179.82
2193.89
2199.73
2198.54
2191.31
2178.85
2161.92
2141.15
2117.1
2090.24
2060.93
2029.45
1996
1960.74
1923.73
1884.95
1844.3
1801.64
1756.76
1709.41
1659.27
1605.92
1548.85
1487.43
1420.95
1348.56
1269.28
1181.95
1085.23
977.561
857.178
722.066
569.962
398.363
204.559
-14.2984
-261.042
-538.253
-847.871
-1190.63
-1565.31
-1967.75
-2390.63
1801.53
1823.73
1861.52
1901.51
1929.67
1942.57
1942.73
1932.79
1914.76
1890.69
1862.55
1831.93
1799.94
1767.36
1734.7
1702.27
1670.24
1638.63
1607.4
1576.45
1545.65
1514.8
1483.7
1452.13
1419.83
1386.5
1351.82
1315.45
1276.99
1236
1191.96
1144.31
1092.38
1035.45
972.638
902.989
825.391
738.599
641.219
531.72
408.443
269.649
113.596
-61.3382
-256.453
-472.436
-708.971
-964.23
-1234.26
-1512.91
1735.37
1748.97
1774.04
1804.68
1832.17
1852.47
1865.68
1872.85
1874.71
1871.88
1865.04
1854.81
1841.7
1826.08
1808.29
1788.58
1767.18
1744.26
1719.98
1694.43
1667.71
1639.86
1610.93
1580.92
1549.81
1517.52
1483.98
1449.07
1412.63
1374.47
1334.33
1291.94
1246.94
1198.94
1147.46
1091.97
1031.85
966.415
894.905
816.496
730.322
635.511
531.247
416.854
291.94
156.565
11.4829
-141.607
-299.794
-459.22
1651.91
1662
1681.19
1705.74
1728.67
1745.37
1754.64
1756.86
1752.71
1743
1728.7
1710.78
1690.09
1667.36
1643.15
1617.9
1591.96
1565.57
1538.91
1512.09
1485.19
1458.25
1431.27
1404.26
1377.18
1350.01
1322.68
1295.14
1267.31
1239.12
1210.47
1181.26
1151.37
1120.68
1089.03
1056.28
1022.25
986.791
949.715
910.865
870.103
827.345
782.587
735.956
687.77
638.618
589.454
541.7
497.364
458.978
1555.51
1565.62
1584.86
1609.49
1632.53
1649.38
1658.84
1661.28
1657.42
1648.06
1634.18
1616.75
1596.66
1574.63
1551.25
1526.97
1502.18
1477.13
1452.03
1427.04
1402.27
1377.81
1353.72
1330.06
1306.9
1284.26
1262.22
1240.82
1220.14
1200.27
1181.3
1163.34
1146.55
1131.08
1117.15
1105
1094.91
1087.23
1082.35
1080.77
1083.03
1089.78
1101.76
1119.79
1144.79
1177.73
1219.61
1271.41
1333.99
1408.1
1446.14
1459.8
1485.01
1515.88
1543.71
1564.45
1578.21
1586.06
1588.73
1586.89
1581.21
1572.35
1560.85
1547.14
1531.57
1514.47
1496.13
1476.8
1456.7
1436.07
1415.1
1394.01
1372.98
1352.23
1331.94
1312.34
1293.65
1276.11
1259.99
1245.59
1233.24
1223.31
1216.25
1212.53
1212.73
1217.5
1227.59
1243.86
1267.3
1299
1340.22
1392.32
1456.77
1535.08
1628.76
1739.17
1867.38
2013.95
2178.71
2360.83
1319.37
1341.67
1379.69
1420.07
1448.79
1462.41
1463.48
1454.67
1438.02
1415.6
1389.45
1361.17
1331.96
1302.64
1273.81
1245.89
1219.13
1193.71
1169.72
1147.24
1126.32
1107.01
1089.39
1073.52
1059.53
1047.57
1037.83
1030.54
1026.01
1024.6
1026.75
1032.97
1043.88
1060.22
1082.82
1112.68
1150.95
1198.96
1258.21
1330.41
1417.47
1521.46
1644.61
1789.18
1957.37
2151.09
2371.65
2619.45
2893.49
3191.79
1165.36
1209.9
1281.94
1354.7
1410.81
1452.71
1485.54
1510.06
1525.95
1533.99
1535.4
1531.26
1522.47
1509.83
1494.13
1476.03
1456.14
1434.99
1413.06
1390.79
1368.58
1346.81
1325.86
1306.09
1287.89
1271.66
1257.83
1246.88
1239.34
1235.82
1236.99
1243.63
1256.66
1277.09
1306.12
1345.13
1395.7
1459.64
1538.99
1636.09
1753.51
1894.1
2060.89
2256.99
2485.44
2748.87
3049.11
3386.55
3759.37
4163.64
956.547
1042.35
1150.87
1213.57
1217.16
1190.29
1153.45
1113.11
1072.33
1033.89
999.314
968.872
942.285
919.136
898.987
881.426
866.102
852.743
841.162
831.255
822.99
816.409
811.623
808.81
808.215
810.156
815.025
823.299
835.546
852.44
874.771
903.466
939.607
984.452
1039.46
1106.33
1187.02
1283.76
1399.14
1536.07
1697.83
1888.08
2110.77
2370.09
2670.22
3015.05
3407.57
3849.13
4338.21
4870.76
656.895
906.193
1223.3
1455.76
1596.76
1687.48
1741.63
1762.75
1759.03
1739.28
1709.37
1673.01
1632.78
1590.58
1547.76
1505.26
1463.72
1423.63
1385.37
1349.23
1315.49
1284.4
1256.23
1231.29
1209.92
1192.52
1179.54
1171.54
1169.16
1173.18
1184.48
1204.13
1233.35
1273.58
1326.52
1394.12
1478.65
1582.74
1709.42
1862.17
2044.92
2262.14
2518.75
2820.11
3171.83
3579.4
4047.58
4579.28
5173.66
5825.3
21.6322
430.944
622.946
552.166
451.172
409.421
399.833
400.102
407.427
420.959
437.928
455.841
473.293
489.584
504.376
517.567
529.232
539.568
548.854
557.43
565.679
574.025
582.931
592.902
604.491
618.311
635.043
655.45
680.396
710.861
747.966
792.994
847.422
912.953
991.552
1085.49
1197.39
1330.28
1487.67
1673.59
1892.67
2150.22
2452.25
2805.53
3217.51
3696.08
4249.09
4883.18
5601.54
6402.61
-423.561
1746.75
2930.48
3034.1
2878.79
2708.85
2524.68
2336.26
2161.24
2006.11
1870.07
1750.75
1645.89
1553.44
1471.59
1398.78
1333.81
1275.72
1223.78
1177.46
1136.39
1100.37
1069.31
1043.25
1022.37
1006.95
997.411
994.288
998.276
1010.22
1031.16
1062.32
1105.17
1161.43
1233.14
1322.69
1432.85
1566.9
1728.64
1922.51
2153.68
2428.19
2753.07
3136.46
3587.8
4117.83
4738.47
5461.99
6298.48
7253.23
-7849.98
-3260.46
-1758.09
-1190.81
-755.14
-427.801
-201.155
-38.2514
84.0287
176.974
247.93
302.47
344.638
377.319
402.656
422.315
437.625
449.675
459.389
467.574
474.962
482.243
490.085
499.162
510.172
523.854
541.012
562.532
589.405
622.751
663.844
714.145
775.333
849.347
938.432
1045.19
1172.64
1324.31
1504.3
1717.41
1969.27
2266.51
2617
3030.13
3517.21
4092.02
4771.41
5575.96
6529.31
7657.59
17587.5
9425.82
5393.55
3876.19
3043.23
2436.33
2015.06
1733.67
1537.07
1390.27
1275.66
1183.5
1107.38
1043.01
987.516
939.028
896.276
858.408
824.866
795.314
769.588
747.663
729.64
715.731
706.259
701.659
702.486
709.422
723.294
745.09
775.981
817.351
870.824
938.31
1022.04
1124.64
1249.15
1399.18
1578.93
1793.35
2048.3
2350.73
2709.02
3133.33
3636.35
4234.3
4948.88
5810.86
6867.19
8199.98
-20201.2
-15585.6
-14015.4
-10057.4
-8091.07
-4673.36
-2572.08
483.21
2588.01
5396.85
7427.58
10071.2
11969.8
14517.5
16224.9
18748.2
20180.1
22764.1
23764.5
26398.5
-20227.4
-15624.8
-14064.5
-10108.7
-8149.24
-4730.1
-2634.56
422.881
2523.25
5334.24
7361.46
10007.7
11903.6
14455.1
16161.3
18691.6
20126.3
22725.2
23739.4
26412.1
-20261.8
-15662
-14111.4
-10156.7
-8204.06
-4783.97
-2693.66
365.521
2461.81
5274.94
7299.03
9948
11841.9
14397.3
16103.4
18639.9
20078.2
22687.7
23711.7
26401.8
-20300.6
-15699.9
-14157.1
-10202.7
-8256.47
-4835.38
-2750.12
310.768
2403.1
5218.43
7239.53
9891.31
11783.4
14342.6
16048.6
18590.3
20031.5
22648.1
23677.1
26374.9
-20341.6
-15738.3
-14202.2
-10247.3
-8307.09
-4884.81
-2804.43
258.216
2346.66
5164.2
7182.37
9836.9
11727.1
14289.7
15995.4
18541.4
19984.2
22605.4
23636.3
26338.5
-20383.6
-15777.2
-14246.8
-10291
-8356.35
-4932.65
-2857.01
207.462
2292.06
5111.8
7127.01
9784.16
11672.4
14238
15943
18492.2
19935.3
22559.8
23590.7
26295.9
-20426
-15816.2
-14291
-10333.9
-8404.53
-4979.23
-2908.21
158.149
2238.93
5060.81
7073
9732.58
11618.6
14186.9
15890.6
18442.5
19884.9
22511.6
23541.5
26249.1
-20468.5
-15855.1
-14334.8
-10376.1
-8451.85
-5024.79
-2958.3
109.972
2186.93
5010.89
7019.97
9681.77
11565.4
14135.9
15838
18391.9
19832.9
22461.4
23489.5
26199.1
-20510.9
-15893.7
-14378.2
-10417.8
-8498.46
-5069.54
-3007.52
62.6779
2135.8
4961.74
6967.62
9631.45
11512.5
14084.9
15785
18340.5
19779.6
22409.4
23435.5
26147
-20553.1
-15932.1
-14421.3
-10459
-8544.49
-5113.64
-3056.05
16.0631
2085.33
4913.15
6915.74
9581.39
11459.7
14033.8
15731.5
18288.4
19725.2
22356.1
23379.8
26093.1
-20595
-15970.2
-14463.9
-10499.7
-8590.03
-5157.22
-3104.04
-30.0353
2035.34
4864.95
6864.16
9531.47
11406.8
13982.4
15677.6
18235.6
19669.9
22301.6
23322.8
26037.8
-20636.7
-16008
-14506.3
-10540.1
-8635.17
-5200.37
-3151.61
-75.7457
1985.7
4817.01
6812.77
9481.59
11353.9
13930.7
15623.1
18182.2
19613.7
22246.2
23264.7
25981.5
-20678.1
-16045.6
-14548.4
-10580.2
-8679.99
-5243.19
-3198.85
-121.168
1936.33
4769.24
6761.48
9431.69
11300.9
13878.8
15568.3
18128.3
19556.9
22190
23205.8
25924.3
-20719.3
-16082.8
-14590.2
-10619.9
-8724.53
-5285.75
-3245.84
-166.38
1887.14
4721.57
6710.24
9381.72
11247.7
13826.6
15513.1
18073.8
19499.5
22133.2
23146.3
25866.4
-20760.2
-16119.8
-14631.8
-10659.5
-8768.85
-5328.09
-3292.62
-211.441
1838.07
4673.94
6659.01
9331.66
11194.4
13774.2
15457.6
18019
19441.7
22075.9
23086.2
25808
-20800.9
-16156.6
-14673.2
-10698.8
-8812.98
-5370.26
-3339.25
-256.395
1789.09
4626.33
6607.77
9281.5
11140.9
13721.5
15401.8
17963.9
19383.4
22018.1
23025.6
25749.1
-20841.5
-16193.2
-14714.5
-10738
-8856.97
-5412.31
-3385.77
-301.278
1740.17
4578.71
6556.5
9231.23
11087.3
13668.7
15345.7
17908.4
19324.8
21960
22964.6
25689.8
-20881.9
-16229.6
-14755.6
-10777
-8900.83
-5454.25
-3432.19
-346.114
1691.29
4531.07
6505.2
9180.86
11033.6
13615.6
15289.5
17852.7
19266
21901.5
22903.3
25630.2
-20922.2
-16265.9
-14796.6
-10815.9
-8944.6
-5496.11
-3478.55
-390.921
1642.44
4483.39
6453.86
9130.39
10979.7
13562.4
15233.1
17796.8
19206.9
21842.9
22841.8
25570.4
-20962.4
-16302.1
-14837.5
-10854.8
-8988.28
-5537.91
-3524.85
-435.712
1593.6
4435.68
6402.49
9079.83
10925.8
13509
15176.5
17740.6
19147.6
21784
22780
25510.4
-21002.6
-16338.2
-14878.3
-10893.5
-9031.9
-5579.67
-3571.1
-480.497
1544.78
4387.93
6351.08
9029.18
10871.7
13455.6
15119.8
17684.4
19088.2
21725
22718.1
25450.2
-21042.6
-16374.2
-14919.1
-10932.2
-9075.46
-5621.38
-3617.31
-525.282
1495.97
4340.14
6299.66
8978.46
10817.7
13402
15063
17628
19028.6
21665.8
22656
25389.9
-21082.6
-16410.1
-14959.8
-10970.8
-9118.97
-5663.07
-3663.49
-570.068
1447.17
4292.31
6248.22
8927.67
10763.6
13348.3
15006.1
17571.5
18969
21606.5
22593.8
25329.4
-21122.5
-16445.9
-15000.5
-11009.4
-9162.45
-5704.73
-3709.63
-614.858
1398.39
4244.45
6196.77
8876.83
10709.4
13294.6
14949.2
17514.9
18909.2
21547.2
22531.6
25269
-21162.4
-16481.7
-15041.1
-11047.9
-9205.88
-5746.37
-3755.74
-659.649
1349.63
4196.57
6145.33
8825.94
10655.2
13240.8
14892.2
17458.3
18849.4
21487.8
22469.2
25208.4
-21202.3
-16517.4
-15081.7
-11086.4
-9249.28
-5787.99
-3801.82
-704.442
1300.89
4148.67
6093.9
8775.03
10601
13186.9
14835.2
17401.6
18789.6
21428.3
22406.9
25147.9
-21242.1
-16553
-15122.3
-11124.8
-9292.64
-5829.59
-3847.87
-749.232
1252.19
4100.76
6042.49
8724.08
10546.9
13133.1
14778.2
17344.9
18729.8
21368.9
22344.5
25087.3
-21281.9
-16588.6
-15162.8
-11163.2
-9335.96
-5871.17
-3893.87
-794.017
1203.52
4052.83
5991.11
8673.13
10492.7
13079.2
14721.3
17288.2
18670
21309.4
22282.1
25026.8
-21321.7
-16624.2
-15203.4
-11201.6
-9379.24
-5912.72
-3939.83
-838.791
1154.89
4004.91
5939.77
8622.17
10438.6
13025.3
14664.3
17231.5
18610.2
21250
22219.7
24966.3
-21361.4
-16659.7
-15243.8
-11239.9
-9422.49
-5954.25
-3985.74
-883.55
1106.32
3957
5888.48
8571.21
10384.6
12971.5
14607.4
17174.9
18550.4
21190.5
22157.4
24905.8
-21401.1
-16695.2
-15284.3
-11278.2
-9465.68
-5995.75
-4031.59
-928.289
1057.81
3909.1
5837.25
8520.27
10330.5
12917.6
14550.5
17118.2
18490.7
21131.2
22095.1
24845.4
-21440.8
-16730.6
-15324.7
-11316.4
-9508.82
-6037.21
-4077.39
-973.002
1009.36
3861.22
5786.08
8469.35
10276.6
12863.8
14493.7
17061.6
18431
21071.9
22032.8
24785.1
-21480.5
-16766
-15365.1
-11354.7
-9551.91
-6078.64
-4123.11
-1017.68
960.987
3813.38
5735
8418.46
10222.7
12810
14437
17005
18371.4
21012.6
21970.7
24724.8
-21520.1
-16801.3
-15405.4
-11392.8
-9594.94
-6120.02
-4168.77
-1062.33
912.698
3765.57
5684
8367.62
10169
12756.3
14380.4
16948.5
18311.9
20953.5
21908.6
24664.7
-21559.7
-16836.5
-15445.6
-11430.9
-9637.9
-6161.36
-4214.34
-1106.92
864.5
3717.8
5633.11
8316.82
10115.3
12702.6
14323.8
16892.1
18252.5
20894.4
21846.6
24604.7
-21599.2
-16871.7
-15485.9
-11468.9
-9680.79
-6202.64
-4259.82
-1151.47
816.403
3670.09
5582.31
8266.08
10061.7
12649
14267.4
16835.8
18193.2
20835.4
21784.7
24544.7
-21638.7
-16906.8
-15526
-11506.9
-9723.59
-6243.86
-4305.21
-1195.96
768.413
3622.43
5531.64
8215.41
10008.3
12595.5
14211.1
16779.6
18134
20776.6
21722.9
24485
-21678.1
-16941.8
-15566.1
-11544.8
-9766.31
-6285.02
-4350.49
-1240.39
720.541
3574.84
5481.09
8164.82
9954.93
12542
14154.9
16723.4
18075
20717.9
21661.3
24425.3
-21717.5
-16976.8
-15606.1
-11582.6
-9808.93
-6326.1
-4395.66
-1284.75
672.795
3527.33
5430.67
8114.3
9901.75
12488.7
14098.9
16667.4
18016.1
20659.3
21599.8
24365.8
-21756.8
-17011.6
-15646.1
-11620.4
-9851.46
-6367.1
-4440.71
-1329.02
625.182
3479.89
5380.4
8063.88
9848.72
12435.5
14043
16611.5
17957.3
20600.8
21538.4
24306.5
-21796
-17046.4
-15685.9
-11658
-9893.87
-6408.02
-4485.63
-1373.22
577.713
3432.55
5330.28
8013.56
9795.84
12382.4
13987.3
16555.8
17898.7
20542.5
21477.2
24247.4
-21835.1
-17081
-15725.7
-11695.6
-9936.17
-6448.85
-4530.41
-1417.32
530.396
3385.3
5280.32
7963.34
9743.14
12329.4
13931.7
16500.1
17840.2
20484.4
21416.2
24188.4
-21874.2
-17115.6
-15765.3
-11733
-9978.34
-6489.58
-4575.05
-1461.33
483.24
3338.16
5230.53
7913.24
9690.61
12276.5
13876.3
16444.7
17782
20426.5
21355.3
24129.6
-21913.2
-17150
-15804.9
-11770.4
-10020.4
-6530.21
-4619.54
-1505.23
436.253
3291.12
5180.93
7863.26
9638.27
12223.8
13821.2
16389.4
17723.9
20368.7
21294.6
24071.1
-21952
-17184.3
-15844.3
-11807.6
-10062.3
-6570.72
-4663.86
-1549.02
389.444
3244.21
5131.51
7813.41
9586.12
12171.2
13766.2
16334.3
17666.1
20311.2
21234.1
24012.7
-21990.8
-17218.5
-15883.6
-11844.7
-10104
-6611.12
-4708.02
-1592.69
342.822
3197.42
5082.29
7763.7
9534.18
12118.8
13711.4
16279.3
17608.4
20253.8
21173.9
23954.6
-22029.4
-17252.6
-15922.8
-11881.7
-10145.6
-6651.4
-4751.99
-1636.23
296.396
3150.76
5033.28
7714.14
9482.45
12066.5
13656.8
16224.5
17550.9
20196.6
21113.8
23896.7
-22068
-17286.5
-15961.8
-11918.5
-10187.1
-6691.54
-4795.78
-1679.65
250.174
3104.24
4984.49
7664.73
9430.95
12014.5
13602.5
16170
17493.7
20139.7
21054
23839.1
-22106.3
-17320.3
-16000.7
-11955.3
-10228.3
-6731.54
-4839.38
-1722.92
204.166
3057.87
4935.92
7615.48
9379.67
11962.6
13548.4
16115.6
17436.7
20083
20994.4
23781.7
-22144.6
-17353.9
-16039.5
-11991.8
-10269.4
-6771.41
-4882.77
-1766.05
158.381
3011.65
4887.59
7566.39
9328.64
11910.9
13494.5
16061.5
17380
20026.5
20935
23724.5
-22182.7
-17387.4
-16078.1
-12028.2
-10310.3
-6811.12
-4925.95
-1809.03
112.826
2965.59
4839.5
7517.49
9277.87
11859.4
13440.9
16007.5
17323.5
19970.3
20875.9
23667.7
-22220.7
-17420.6
-16116.5
-12064.5
-10351
-6850.67
-4968.91
-1851.84
67.512
2919.7
4791.66
7468.77
9227.35
11808
13387.5
15953.8
17267.3
19914.4
20817.1
23611.1
-22258.5
-17453.8
-16154.7
-12100.5
-10391.5
-6890.06
-5011.64
-1894.5
22.4463
2873.99
4744.09
7420.24
9177.09
11757
13334.5
15900.4
17211.3
19858.7
20758.5
23554.8
-22296.1
-17486.7
-16192.8
-12136.5
-10431.8
-6929.28
-5054.13
-1936.97
-22.3619
2828.46
4696.78
7371.9
9127.12
11706.1
13281.7
15847.2
17155.7
19803.2
20700.2
23498.8
-22333.6
-17519.4
-16230.7
-12172.2
-10471.9
-6968.33
-5096.37
-1979.27
-66.9037
2783.11
4649.76
7323.77
9077.43
11655.4
13229.2
15794.2
17100.3
19748.1
20642.2
23443.1
-22370.9
-17552
-16268.4
-12207.7
-10511.7
-7007.19
-5138.36
-2021.39
-111.17
2737.97
4603.02
7275.86
9028.04
11605
13176.9
15741.5
17045.2
19693.2
20584.5
23387.7
-22408
-17584.3
-16305.8
-12243.1
-10551.3
-7045.86
-5180.08
-2063.31
-155.153
2693.02
4556.59
7228.16
8978.95
11554.9
13125
15689.1
16990.4
19638.7
20527.1
23332.6
-22444.9
-17616.5
-16343.1
-12278.2
-10590.6
-7084.33
-5221.54
-2105.03
-198.844
2648.28
4510.45
7180.7
8930.18
11504.9
13073.5
15636.9
16936
19584.5
20470
23277.9
-22481.6
-17648.4
-16380.1
-12313.1
-10629.7
-7122.61
-5262.71
-2146.55
-242.233
2603.76
4464.63
7133.46
8881.72
11455.3
13022.2
15585.1
16881.8
19530.5
20413.2
23223.5
-22518.1
-17680.1
-16416.9
-12347.9
-10668.6
-7160.67
-5303.59
-2187.86
-285.311
2559.46
4419.14
7086.47
8833.6
11405.9
12971.3
15533.5
16828
19476.9
20356.8
23169.4
-22554.4
-17711.6
-16453.5
-12382.4
-10707.2
-7198.52
-5344.17
-2228.95
-328.071
2515.39
4373.98
7039.73
8785.82
11356.8
12920.7
15482.2
16774.6
19423.6
20300.7
23115.7
-22590.5
-17742.8
-16489.9
-12416.7
-10745.4
-7236.15
-5384.45
-2269.82
-370.504
2471.56
4329.16
6993.24
8738.38
11307.9
12870.4
15431.3
16721.4
19370.7
20244.9
23062.4
-22626.3
-17773.8
-16525.9
-12450.7
-10783.4
-7273.55
-5424.41
-2310.45
-412.6
2427.97
4284.68
6947.01
8691.3
11259.4
12820.5
15380.6
16668.7
19318.1
20189.5
23009.5
-22661.9
-17804.6
-16561.8
-12484.5
-10821.2
-7310.72
-5464.05
-2350.85
-454.352
2384.63
4240.57
6901.06
8644.58
11211.1
12771
15330.3
16616.3
19265.9
20134.5
22956.9
-22697.3
-17835.1
-16597.3
-12518.1
-10858.6
-7347.66
-5503.36
-2391.01
-495.75
2341.54
4196.82
6855.38
8598.24
11163.2
12721.9
15280.3
16564.3
19214
20079.8
22904.7
-22732.4
-17865.3
-16632.6
-12551.4
-10895.7
-7384.34
-5542.32
-2430.92
-536.786
2298.71
4153.45
6809.98
8552.28
11115.6
12673.1
15230.7
16512.6
19162.6
20025.5
22853
-22767.2
-17895.3
-16667.6
-12584.5
-10932.4
-7420.78
-5580.94
-2470.57
-577.451
2256.16
4110.46
6764.88
8506.71
11068.2
12624.8
15181.4
16461.4
19111.5
19971.7
22801.6
-22801.8
-17925
-16702.3
-12617.3
-10968.9
-7456.96
-5619.2
-2509.97
-617.737
2213.87
4067.87
6720.07
8461.54
11021.3
12576.8
15132.5
16410.6
19060.7
19918.2
22750.6
-22836.1
-17954.4
-16736.7
-12649.8
-11005
-7492.88
-5657.09
-2549.09
-657.635
2171.87
4025.67
6675.56
8416.77
10974.6
12529.2
15083.9
16360.1
19010.4
19865.1
22700.1
-22870.1
-17983.5
-16770.8
-12682.1
-11040.8
-7528.53
-5694.61
-2587.95
-697.137
2130.15
3983.89
6631.36
8372.42
10928.3
12482.1
15035.7
16310.1
18960.5
19812.4
22650
-22903.8
-18012.3
-16804.6
-12714.1
-11076.2
-7563.91
-5731.74
-2626.53
-736.234
2088.73
3942.52
6587.48
8328.5
10882.3
12435.4
14987.9
16260.5
18911
19760.2
22600.4
-22937.3
-18040.9
-16838.1
-12745.8
-11111.2
-7599.01
-5768.49
-2664.83
-774.918
2047.61
3901.58
6543.93
8285
10836.7
12389.1
14940.5
16211.4
18861.9
19708.3
22551.1
-22970.4
-18069.1
-16871.2
-12777.2
-11145.9
-7633.83
-5804.83
-2702.83
-813.179
2006.79
3861.07
6500.7
8241.95
10791.4
12343.3
14893.4
16162.7
18813.3
19656.9
22502.4
-23003.2
-18097
-16904
-12808.3
-11180.2
-7668.36
-5840.76
-2740.54
-851.011
1966.28
3821.01
6457.81
8199.34
10746.5
12297.9
14846.8
16114.4
18765.1
19606
22454.1
-23035.7
-18124.6
-16936.5
-12839.1
-11214.1
-7702.59
-5876.28
-2777.96
-888.404
1926.09
3781.39
6415.26
8157.19
10702
12252.9
14800.6
16066.6
18717.3
19555.5
22406.3
-23067.9
-18151.9
-16968.6
-12869.6
-11247.7
-7736.53
-5911.36
-2815.06
-925.35
1886.22
3742.24
6373.06
8115.5
10657.8
12208.5
14754.8
16019.2
18670
19505.5
22358.9
-23099.8
-18178.9
-17000.3
-12899.8
-11280.8
-7770.16
-5946.02
-2851.86
-961.84
1846.68
3703.55
6331.22
8074.29
10614.1
12164.5
14709.4
15972.4
18623.1
19455.9
22312.1
-23131.3
-18205.5
-17031.7
-12929.7
-11313.5
-7803.48
-5980.23
-2888.34
-997.867
1807.47
3665.34
6289.74
8033.55
10570.7
12121
14664.4
15926
18576.7
19406.9
22265.7
-23162.5
-18231.8
-17062.7
-12959.3
-11345.8
-7836.48
-6013.99
-2924.5
-1033.42
1768.61
3627.61
6248.63
7993.31
10527.8
12077.9
14619.9
15880
18530.8
19358.3
22219.9
-23193.3
-18257.7
-17093.4
-12988.5
-11377.7
-7869.17
-6047.29
-2960.33
-1068.5
1730.09
3590.37
6207.89
7953.56
10485.2
12035.4
14575.8
15834.6
18485.3
19310.2
22174.5
-23223.7
-18283.3
-17123.6
-13017.4
-11409.1
-7901.54
-6080.13
-2995.84
-1103.08
1691.92
3553.64
6167.53
7914.31
10443.1
11993.4
14532.2
15789.7
18440.4
19262.6
22129.7
-23253.8
-18308.5
-17153.4
-13046
-11440.1
-7933.58
-6112.48
-3031
-1137.17
1654.11
3517.4
6127.56
7875.57
10401.4
11951.9
14489