/*--------------------------------*- C++ -*----------------------------------*\
  =========                 |
  \\      /  F ield         | OpenFOAM: The Open Source CFD Toolbox
   \\    /   O peration     | Website:  https://openfoam.org
    \\  /    A nd           | Version:  8
     \\/     M anipulation  |
\*---------------------------------------------------------------------------*/
FoamFile
{
    version     2.0;
    format      ascii;
    class       volScalarField;
    location    "500";
    object      p_rgh;
}
// * * * * * * * * * * * * * * * * * * * * * * * * * * * * * * * * * * * * * //

dimensions      [1 -1 -2 0 0 0 0];

internalField   nonuniform List<scalar> 
8400
(
0.530001
19.6803
35.7168
51.2034
66.432
81.6339
96.9572
112.52
128.426
144.781
161.691
179.273
197.654
216.98
237.413
259.141
282.377
307.368
334.399
363.802
395.962
431.315
470.372
513.762
562.24
616.565
677.429
745.781
822.875
910.111
1009.09
1121.66
1249.96
1396.45
1563.98
1755.86
1975.94
2228.68
2519.34
2854.03
3239.95
3685.62
4201.68
4802.06
5503.17
6319.13
7265.11
8401.87
9896.06
11842
-9.55272
4.51615
18.3391
32.5941
46.896
61.2583
75.75
90.4549
105.461
120.859
136.747
153.231
170.429
188.475
207.522
227.741
249.334
272.526
297.582
324.812
354.58
387.292
423.401
463.439
508.018
557.853
613.853
676.999
748.349
829.184
920.99
1025.49
1144.67
1280.82
1436.59
1615.02
1819.63
2054.48
2324.25
2634.33
2990.9
3401.07
3873.34
4418.15
5046.76
5767.53
6587.66
7538.05
8702.01
10130.4
22.0423
40.4468
56.6795
72.0698
87.3408
102.721
118.323
134.235
150.54
167.327
184.694
202.747
221.61
241.42
262.334
284.534
308.226
333.642
361.056
390.787
423.215
458.757
497.835
540.936
588.667
641.745
701.061
767.606
842.476
926.949
1022.51
1130.86
1253.97
1394.14
1553.97
1736.49
1945.18
2184.05
2457.7
2771.4
3131.12
3543.68
4016.94
4559.91
5181.76
5889.5
6688.98
7595.1
8638.45
9814.28
-14.9516
-10.4752
-0.463474
11.6428
24.4629
37.6061
50.9764
64.5783
78.454
92.6645
107.283
122.393
138.092
154.49
171.715
189.917
209.264
229.946
252.182
276.227
302.385
331.046
362.671
397.735
436.743
480.324
529.207
584.229
646.357
716.715
796.603
887.526
991.221
1109.69
1245.25
1400.54
1578.62
1782.98
2017.62
2287.09
2596.51
2951.67
3359.13
3826.13
4359.95
4966.72
5651.9
6424.61
7299.61
8273.28
37.5785
59.3485
76.4136
91.59
106.432
121.361
136.523
151.99
167.822
184.085
200.85
218.202
236.236
255.063
274.809
295.626
317.683
341.162
366.262
393.223
422.293
453.787
488.104
525.706
567.099
612.872
663.701
720.356
783.722
854.821
934.826
1025.09
1127.17
1242.83
1374.13
1523.38
1693.22
1886.65
2107.02
2358.07
2643.93
2969.05
3338.23
3756.4
4228.07
4756.44
5343.03
5989.87
6703.19
7481.66
-23.2015
-22.7125
-14.5748
-3.6073
8.31478
20.6492
33.2405
46.0605
59.127
72.4786
86.1666
100.253
114.809
129.919
145.681
162.209
179.651
198.181
217.988
239.277
262.284
287.267
314.54
344.472
377.489
414.086
454.836
500.4
551.541
609.141
674.218
747.947
831.681
926.975
1035.61
1159.63
1301.34
1463.36
1648.65
1860.45
2102.35
2378.16
2691.91
3047.58
3448.74
3897.7
4394.65
4938.6
5531.61
6174.33
44.8623
68.937
86.2716
100.907
114.918
128.878
142.971
157.269
171.814
186.646
201.81
217.357
233.347
249.845
266.925
284.67
303.176
322.571
343.01
364.663
387.722
412.407
438.977
467.726
498.995
533.178
570.727
612.163
658.087
709.191
766.273
830.251
902.179
983.266
1074.89
1178.63
1296.27
1429.82
1581.51
1753.84
1949.47
2171.28
2422.18
2705.07
3022.53
3376.13
3765.64
4189.69
4649.85
5148.56
-27.7558
-29.1101
-21.8467
-11.4365
-0.00408758
11.8438
23.9302
36.2129
48.6939
61.3936
74.345
87.5885
101.176
115.163
129.617
144.608
160.216
176.533
193.672
211.759
230.942
251.388
273.296
296.892
322.439
350.241
380.648
414.064
450.953
491.852
537.376
588.236
645.247
709.34
781.582
863.183
955.511
1060.1
1178.67
1313.08
1465.34
1637.58
1831.93
2050.47
2295
2566.6
2864.89
3188.71
3539.47
3920.44
47.0598
71.5302
88.3825
102.167
115.142
127.932
140.731
153.599
166.557
179.618
192.794
206.103
219.565
233.211
247.074
261.195
275.619
290.403
305.609
321.313
337.601
354.573
372.344
391.051
410.852
431.928
454.493
478.793
505.114
533.788
565.198
599.791
638.078
680.655
728.201
781.497
841.434
909.019
985.385
1071.79
1169.6
1280.29
1405.37
1546.38
1704.74
1881.46
2076.65
2290.01
2523.38
2780.63
-28.9128
-30.9743
-24.2473
-14.3318
-3.41242
7.88187
19.3601
30.9659
42.6854
54.518
66.4686
78.5451
90.7586
103.124
115.66
128.385
141.323
154.5
167.949
181.704
195.807
210.303
225.246
240.695
256.719
273.397
290.818
309.085
328.316
348.644
370.226
393.24
417.895
444.43
473.123
504.297
538.325
575.642
616.75
662.226
712.735
769.026
831.946
902.443
981.55
1070.24
1169.19
1279.18
1402.68
1544.3
46.0684
69.8555
85.9132
98.8596
110.932
122.741
134.463
146.14
157.773
169.355
180.871
192.308
203.652
214.891
226.009
236.992
247.822
258.482
268.951
279.207
289.226
298.98
308.437
317.564
326.322
334.668
342.554
349.928
356.731
362.898
368.357
373.033
376.841
379.696
381.505
382.179
381.631
379.787
376.595
372.04
366.167
359.11
351.143
342.737
334.623
327.828
323.716
324.266
332.944
355.022
-27.7596
-29.949
-23.732
-14.4949
-4.34723
6.09016
16.614
27.1484
37.6558
48.1097
58.4865
68.7626
78.9132
88.9108
98.7253
108.322
117.662
126.699
135.381
143.648
151.428
158.639
165.187
170.961
175.831
179.649
182.242
183.409
182.919
180.505
175.859
168.63
158.415
144.756
127.136
104.977
77.6363
44.4166
4.57197
-42.6694
-98.0708
-162.327
-235.975
-319.265
-412.024
-513.448
-621.819
-734.186
-846.001
-950.018
42.6473
65.0718
80.2672
92.5793
104.067
115.275
126.346
137.299
148.112
158.755
169.189
179.373
189.261
198.801
207.936
216.598
224.712
232.192
238.938
244.834
249.749
253.529
255.998
256.952
256.157
253.341
248.193
240.351
229.404
214.873
196.213
172.799
143.918
108.758
66.4012
15.8177
-44.1413
-114.739
-197.341
-293.394
-404.377
-531.725
-676.693
-840.168
-1022.46
-1222.98
-1439.69
-1668.47
-1902.76
-2133.39
-24.2154
-25.9309
-20.1102
-11.6168
-2.36114
7.06907
16.4619
25.7216
34.787
43.6062
52.1272
60.2947
68.0474
75.3168
82.0248
88.0826
93.3882
97.8246
101.257
103.53
104.464
103.853
101.458
97.0029
90.1698
80.5913
67.8432
51.4362
30.8057
5.30128
-25.8262
-63.4382
-108.524
-162.216
-225.808
-300.772
-388.773
-491.677
-611.561
-750.693
-911.51
-1096.55
-1308.3
-1548.98
-1820.23
-2122.77
-2455.7
-2815.18
-3193.31
-3575.95
35.8942
56.0825
70.2062
81.9744
93.0646
103.897
114.56
125.046
135.315
145.318
154.999
164.293
173.13
181.427
189.093
196.018
202.079
207.132
211.012
213.525
214.449
213.525
210.454
204.887
196.422
184.592
168.855
148.584
123.052
91.417
52.7054
5.79171
-50.6234
-118.038
-198.172
-293.002
-404.777
-536.054
-689.702
-868.908
-1077.16
-1318.19
-1595.79
-1913.51
-2274.17
-2679.59
-3129.88
-3621.29
-4142.62
-4673.44
-17.4683
-17.4798
-11.3852
-3.19976
5.51655
14.2575
22.824
31.1126
39.0479
46.5593
53.5727
60.0064
65.7681
70.753
74.8412
77.8951
79.7567
80.244
79.1473
76.2251
71.1987
63.7463
53.4968
40.0215
22.8254
1.33673
-25.1048
-57.2622
-96.0164
-142.385
-197.544
-262.848
-339.862
-430.388
-536.501
-660.582
-805.364
-973.963
-1169.92
-1397.21
-1660.29
-1964.08
-2313.88
-2715.05
-3172.42
-3690.35
-4273.29
-4923.37
-5631.71
-6367.32
23.3466
40.7338
53.5899
64.8362
75.5422
85.9678
96.1547
106.078
115.692
124.937
133.746
142.041
149.731
156.713
162.866
168.052
172.109
174.85
176.06
175.486
172.84
167.783
159.925
148.812
133.919
114.636
90.2549
59.9558
22.7862
-22.3593
-76.7634
-141.915
-219.545
-311.66
-420.594
-549.058
-700.2
-877.679
-1085.74
-1329.28
-1613.95
-1946.32
-2333.91
-2785
-3307.81
-3910.76
-4604.76
-5401.52
-6294.51
-7233.12
-9.3314
-4.74185
3.18534
12.1096
21.0994
29.8788
38.3339
46.3929
53.989
61.0493
67.4908
73.2175
78.1189
82.0674
84.9156
86.4938
86.6056
85.0246
81.489
75.6968
67.2984
55.8896
41.003
22.0976
-1.45316
-30.3747
-65.5078
-107.827
-158.464
-218.729
-290.148
-374.493
-473.823
-590.54
-727.44
-887.788
-1075.4
-1294.74
-1551.04
-1850.41
-2199.99
-2608.19
-3085.01
-3641.95
-4290.78
-5042.92
-5913.76
-6928.6
-8100.44
-9365.29
1.4181
20.4819
32.7617
43.6886
53.9651
63.8385
73.3539
82.4942
91.2155
99.4568
107.143
114.186
120.481
125.906
130.32
133.559
135.434
135.725
134.177
130.495
124.339
115.314
102.96
86.7491
66.0654
40.197
8.31822
-30.5284
-77.4537
-133.747
-200.905
-280.668
-375.06
-486.436
-617.545
-771.594
-952.337
-1164.18
-1412.31
-1702.83
-2042.92
-2441.16
-2908.2
-3457.1
-4101.92
-4855.4
-5736.95
-6800.44
-8131.84
-9705.88
-1.25293
8.70016
18.6753
28.6141
38.2607
47.5601
56.4768
64.9699
72.9864
80.4594
87.3081
93.4363
98.7315
103.063
106.277
108.199
108.624
107.316
104.002
98.3643
90.0379
78.5981
63.554
44.3362
20.285
-9.36461
-45.5002
-89.1524
-141.518
-203.989
-278.186
-365.997
-469.625
-591.648
-735.09
-903.503
-1101.09
-1332.82
-1604.68
-1923.81
-2298.87
-2740.55
-3262.74
-3883.76
-4625.53
-5510.74
-6575
-7922.38
-9762.3
-12139.4
29234.5
21072.6
17039.7
15521.4
14687
14078.1
13654.4
13370.1
13170
13018.9
12899.2
12801
12717.8
12645.1
12579.8
12519.8
12463.6
12409.9
12357.9
12306.7
12255.7
12204.2
12151.6
12097.2
12040.5
11980.7
11917
11848.6
11774.4
11693.2
11603.9
11504.7
11394
11269.9
11129.7
10970.6
10789.2
10581.3
10342.3
10066.2
9745.71
9372.37
8935.47
8421.5
7812.97
7086.42
6208.91
5131.17
3772.8
1997.11
3699.76
8289.02
9790.81
10357.1
10791.4
11117
11341.4
11501.5
11620.4
11709.2
11775.3
11824
11859.4
11884
11899.9
11908.4
11910.7
11907.5
11899.4
11886.6
11869.6
11848.3
11822.7
11792.7
11758
11718.2
11673
11621.5
11563
11496.6
11420.9
11334.5
11235.8
11122.8
10993.1
10844.2
10672.6
10474.6
10245.5
9979.91
9671.12
9310.98
8889.5
8394.36
7810.1
7117.17
6290.61
5298.92
4104.56
2673.65
11029.3
13199.4
14382.5
14485.2
14328.6
14157
13970.7
13779.5
13601.1
13442
13301.2
13176.3
13064.8
12964.6
12873.6
12790.1
12712.6
12639.8
12570.6
12504.2
12439.5
12376
12312.7
12249.1
12184.3
12117.5
12048
11974.9
11897.3
11814
11723.9
11625.5
11516.9
11396.1
11260.8
11108.4
10935.8
10739.3
10514.4
10256.1
9958.28
9613.65
9213.55
8747.62
8203.46
7566.37
6819.32
5943.79
4922.55
3747.31
11378
11787
11978.5
11906.9
11804.7
11761.3
11749.7
11747.5
11751.8
11761.7
11774.3
11787.1
11798.5
11807.6
11814.1
11817.5
11817.6
11814.5
11808.1
11798.2
11784.9
11768.1
11747.6
11723.2
11694.5
11661.2
11622.8
11578.7
11528.1
11470.4
11404.6
11329.4
11243.5
11145.3
11032.6
10903.3
10754.4
10582.7
10384.5
10155.2
9889.61
9581.71
9224.36
8809.39
8327.59
7768.93
7123.23
6381.78
5540.74
4606.91
11917
12166.1
12482.8
12714.4
12854.3
12943.6
12996
13014.9
13008.5
12985.6
12951.9
12911
12865.3
12816.8
12766.5
12715.3
12663.5
12611.4
12559.1
12506.4
12453.4
12399.8
12345.3
12289.7
12232.5
12173.3
12111.6
12046.5
11977.4
11903.3
11823.3
11736.3
11640.8
11535.4
11418.3
11287.4
11140.1
10973.8
10785
10570
10324.4
10043.4
9721.23
9351.84
8928.7
8445.31
7896.07
7277.63
6591.34
5846
12120.7
12206.4
12314.5
12376.6
12379.2
12351.1
12312.7
12270.4
12227.3
12186.1
12148.1
12113.7
12082.5
12053.8
12027.3
12002.1
11978
11954.3
11930.6
11906.5
11881.7
11855.7
11828.3
11798.9
11767.3
11733.1
11695.7
11654.7
11609.5
11559.3
11503.3
11440.7
11370.2
11290.6
11200.4
11098
10981.2
10847.9
10695.2
10520.4
10319.8
10089.9
9826.38
9525.1
9181.79
8792.74
8355.48
7869.97
7340.22
6775.77
12233.9
12278.3
12350
12422.2
12477.6
12518.5
12550.1
12573.1
12587.2
12593
12591.8
12584.6
12572.2
12555.2
12534.5
12510.4
12483.5
12454.2
12422.7
12389.3
12354
12317
12278.3
12237.6
12194.9
12150.1
12102.7
12052.6
11999.2
11942.2
11880.7
11814.2
11741.9
11662.6
11575.3
11478.5
11370.9
11250.5
11115.4
10963.3
10791.7
10597.9
10379
10132.3
9855.05
9545.43
9202.67
8827.99
8425.56
8002.68
12292.4
12314.6
12352.4
12392.4
12420.6
12433.5
12433.6
12423.7
12405.6
12381.6
12353.4
12322.8
12290.8
12258.2
12225.6
12193.2
12161.1
12129.5
12098.3
12067.3
12036.5
12005.7
11974.6
11943
11910.7
11877.4
11842.7
11806.3
11767.9
11726.9
11682.9
11635.2
11583.3
11526.3
11463.5
11393.9
11316.3
11229.5
11132.1
11022.6
10899.3
10760.5
10604.5
10429.6
10234.4
10018.5
9781.92
9526.66
9256.63
8977.98
12323.8
12337.4
12362.5
12393.2
12420.6
12440.9
12454.2
12461.3
12463.2
12460.4
12453.5
12443.3
12430.2
12414.6
12396.8
12377.1
12355.7
12332.7
12308.5
12282.9
12256.2
12228.3
12199.4
12169.4
12138.3
12106
12072.5
12037.5
12001.1
11962.9
11922.8
11880.4
11835.4
11787.4
11735.9
11680.4
11620.3
11554.9
11483.4
11405
11318.8
11224
11119.7
11005.3
10880.4
10745
10600
10446.9
10288.7
10129.3
12338
12348.1
12367.3
12391.8
12414.7
12431.4
12440.7
12442.9
12438.8
12429.1
12414.8
12396.8
12376.2
12353.4
12329.2
12304
12278
12251.6
12225
12198.2
12171.3
12144.3
12117.3
12090.3
12063.2
12036.1
12008.7
11981.2
11953.4
11925.2
11896.5
11867.3
11837.4
11806.7
11775.1
11742.3
11708.3
11672.9
11635.8
11596.9
11556.2
11513.4
11468.6
11422
11373.8
11324.7
11275.5
11227.8
11183.4
11145
12339.2
12349.3
12368.5
12393.1
12416.2
12433
12442.5
12444.9
12441.1
12431.7
12417.8
12400.4
12380.3
12358.3
12334.9
12310.6
12285.8
12260.8
12235.7
12210.7
12185.9
12161.5
12137.4
12113.7
12090.5
12067.9
12045.9
12024.5
12003.8
11983.9
11964.9
11947
11930.2
11914.7
11900.8
11888.6
11878.6
11870.9
11866
11864.4
11866.7
11873.4
11885.4
11903.4
11928.4
11961.4
12003.3
12055.1
12117.6
12191.8
12327.4
12341
12366.2
12397.1
12424.9
12445.7
12459.4
12467.3
12470
12468.1
12462.4
12453.6
12442.1
12428.4
12412.8
12395.7
12377.4
12358
12337.9
12317.3
12296.3
12275.2
12254.2
12233.5
12213.2
12193.6
12174.9
12157.3
12141.2
12126.8
12114.5
12104.5
12097.5
12093.8
12094
12098.7
12108.8
12125.1
12148.5
12180.2
12221.5
12273.6
12338
12416.3
12510
12620.4
12748.6
12895.2
13059.9
13242.1
12298.2
12320.5
12358.5
12398.9
12427.6
12441.2
12442.3
12433.5
12416.8
12394.4
12368.3
12340
12310.8
12281.5
12252.6
12224.7
12198
12172.5
12148.5
12126.1
12105.1
12085.8
12068.2
12052.3
12038.4
12026.4
12016.6
12009.4
12004.8
12003.4
12005.6
12011.8
12022.7
12039
12061.6
12091.5
12129.8
12177.8
12237
12309.2
12396.3
12500.3
12623.4
12768
12936.2
13129.9
13350.5
13598.3
13872.3
14170.6
12241.8
12286.3
12358.3
12431.1
12487.2
12529.1
12561.9
12586.5
12602.4
12610.4
12611.8
12607.7
12598.9
12586.2
12570.5
12552.4
12532.5
12511.4
12489.5
12467.2
12445
12423.2
12402.3
12382.5
12364.3
12348.1
12334.2
12323.3
12315.8
12312.2
12313.4
12320
12333.1
12353.5
12382.5
12421.5
12472.1
12536
12615.4
12712.5
12829.9
12970.5
13137.3
13333.4
13561.8
13825.3
14125.5
14463
14835.8
15240
12130.5
12216.3
12324.9
12387.6
12391.2
12364.3
12327.4
12287.1
12246.3
12207.9
12173.3
12142.9
12116.3
12093.1
12073
12055.4
12040.1
12026.7
12015.2
12005.2
11997
11990.4
11985.6
11982.8
11982.2
11984.1
11989
11997.3
12009.5
12026.4
12048.8
12077.5
12113.6
12158.4
12213.5
12280.3
12361
12457.8
12573.1
12710.1
12871.8
13062.1
13284.8
13544.1
13844.2
14189
14581.6
15023.1
15512.2
16044.8
11928.5
12177.8
12494.9
12727.3
12868.3
12959.1
13013.2
13034.3
13030.6
13010.9
12981
12944.6
12904.4
12862.2
12819.3
12776.8
12735.3
12695.2
12656.9
12620.8
12587.1
12556
12527.8
12502.9
12481.5
12464.1
12451.1
12443.1
12440.7
12444.8
12456.1
12475.7
12504.9
12545.2
12598.1
12665.7
12750.2
12854.3
12981
13133.7
13316.5
13533.7
13790.3
14091.7
14443.4
14851
15319.2
15850.9
16445.2
17096.9
11390.8
11800.1
11992.1
11921.3
11820.3
11778.6
11769
11769.3
11776.6
11790.1
11807.1
11825
11842.5
11858.7
11873.5
11886.7
11898.4
11908.7
11918
11926.6
11934.8
11943.2
11952.1
11962.1
11973.7
11987.5
12004.2
12024.6
12049.6
12080
12117.1
12162.2
12216.6
12282.1
12360.7
12454.7
12566.6
12699.4
12856.8
13042.8
13261.8
13519.4
13821.4
14174.7
14586.7
15065.2
15618.3
16252.3
16970.7
17771.8
11043.2
13213.5
14397.2
14500.9
14345.5
14175.6
13991.4
13803
13628
13472.9
13336.8
13217.5
13112.6
13020.2
12938.3
12865.5
12800.6
12742.5
12690.5
12644.2
12603.1
12567.1
12536.1
12510
12489.1
12473.7
12464.2
12461
12465
12477
12497.9
12529.1
12571.9
12628.2
12699.9
12789.4
12899.6
13033.6
13195.4
13389.3
13620.4
13894.9
14219.8
14603.2
15054.5
15584.6
16205.2
16928.7
17765.2
18720
3714.35
8303.88
9806.25
10373.5
10809.2
11136.5
11363.2
11526.1
11648.4
11741.3
11812.3
11866.8
11909
11941.7
11967
11986.7
12002
12014
12023.7
12031.9
12039.3
12046.6
12054.4
12063.5
12074.5
12088.2
12105.4
12126.9
12153.7
12187.1
12228.2
12278.5
12339.7
12413.7
12502.8
12609.5
12737
12888.7
13068.6
13281.8
13533.6
13830.9
14181.4
14594.5
15081.6
15656.4
16335.8
17140.3
18093.7
19221.9
29249.4
21087.7
17055.5
15538.1
14705.1
14098.3
13677
13395.6
13199
13052.2
12937.6
12845.4
12769.3
12705
12649.5
12601
12558.2
12520.4
12486.8
12457.3
12431.6
12409.6
12391.6
12377.7
12368.2
12363.6
12364.5
12371.4
12385.3
12407.1
12438
12479.4
12532.8
12600.3
12684.1
12786.7
12911.2
13061.2
13241
13455.4
13710.3
14012.8
14371.1
14795.4
15298.4
15896.3
16610.9
17472.9
18529.2
19862
-20152.6
-15536.6
-13965.9
-10007.5
-8040.62
-4622.43
-2520.67
535.102
2640.38
5449.71
7480.91
10125.1
12024.1
14572.3
16280.1
18804
20236.3
22820.8
23821.6
26456.2
-20082.6
-15478.6
-13916.9
-9959.54
-7998.68
-4578.1
-2481.12
577.767
2679.58
5492.01
7520.67
10168.3
12065.7
14618.7
16326.3
18858.1
20294.1
22894.5
23910.1
26584.3
-20020.7
-15418.6
-13865.5
-9908.41
-7953.39
-4530.91
-2438.2
623.387
2722.08
5537.61
7564.1
10215.5
12111.8
14669.6
16378.1
18916.9
20357.7
22969.5
23996
26688.5
-19963.3
-15359.2
-13813.1
-9855.3
-7905.73
-4481.28
-2392.66
671.59
2767.28
5585.97
7610.43
10265.6
12161
14723.5
16432.9
18978
20422.6
23042.5
24074.9
26776.1
-19908.1
-15300.5
-13760.1
-9800.88
-7856.32
-4429.71
-2345.01
721.959
2814.72
5636.59
7659.08
10317.9
12212.5
14779.4
16489.4
19039.7
20486.8
23112.4
24147.6
26854.1
-19853.9
-15242.3
-13706.6
-9745.51
-7805.58
-4376.6
-2295.68
774.081
2863.96
5688.99
7709.48
10371.9
12265.4
14836.4
16546.6
19101.1
20549.5
23179.2
24215.4
26925.9
-19800.2
-15184.2
-13652.8
-9689.41
-7753.82
-4322.27
-2245.01
827.591
2914.61
5742.74
7761.17
10427
12319.3
14893.8
16603.8
19161.8
20610.5
23243.5
24279.6
26993.4
-19746.7
-15126.1
-13598.6
-9632.73
-7701.25
-4266.99
-2193.3
882.172
2966.33
5797.49
7813.77
10482.8
12373.6
14951.3
16660.6
19221.7
20669.9
23305.6
24340.9
27057.8
-19693.1
-15067.8
-13544.1
-9575.55
-7648.05
-4210.98
-2140.8
937.562
3018.84
5852.94
7866.99
10539
12428.2
15008.8
16717
19280.7
20727.9
23365.9
24400.1
27119.8
-19639.4
-15009.3
-13489.4
-9517.96
-7594.35
-4154.39
-2087.69
993.548
3071.93
5908.87
7920.58
10595.3
12482.7
15066
16772.8
19338.8
20784.8
23424.7
24457.5
27180
-19585.5
-14950.7
-13434.3
-9460.04
-7540.26
-4097.37
-2034.13
1049.96
3125.4
5965.09
7974.37
10651.8
12537.2
15122.8
16828.1
19396.2
20840.5
23482.3
24513.6
27238.7
-19531.5
-14891.8
-13379.1
-9401.83
-7485.87
-4040.04
-1980.25
1106.65
3179.13
6021.46
8028.25
10708.1
12591.5
15179.3
16882.7
19452.8
20895.4
23538.9
24568.4
27296.2
-19477.3
-14832.8
-13323.6
-9343.42
-7431.26
-3982.48
-1926.15
1163.51
3233
6077.89
8082.12
10764.3
12645.5
15235.4
16936.9
19508.8
20949.4
23594.5
24622.4
27352.8
-19422.9
-14773.6
-13268
-9284.85
-7376.5
-3924.77
-1871.93
1220.47
3286.92
6134.29
8135.9
10820.3
12699.3
15291.1
16990.5
19564.2
21002.8
23649.4
24675.5
27408.6
-19368.5
-14714.3
-13212.4
-9226.17
-7321.64
-3866.99
-1817.63
1277.44
3340.84
6190.6
8189.57
10876.1
12752.7
15346.4
17043.7
19619
21055.6
23703.6
24727.9
27463.6
-19314
-14654.9
-13156.7
-9167.42
-7266.74
-3809.18
-1763.33
1334.37
3394.7
6246.78
8243.07
10931.6
12805.9
15401.3
17096.5
19673.4
21107.8
23757.3
24779.6
27518
-19259.5
-14595.4
-13100.9
-9108.66
-7211.84
-3751.39
-1709.06
1391.23
3448.47
6302.8
8296.38
10986.9
12858.8
15455.9
17148.8
19727.2
21159.5
23810.4
24830.8
27571.9
-19205
-14536
-13045.2
-9049.92
-7156.98
-3693.65
-1654.86
1447.96
3502.11
6358.63
8349.5
11041.9
12911.3
15510.1
17200.7
19780.7
21210.7
23863
24881.6
27625.2
-19150.5
-14476.6
-12989.5
-8991.22
-7102.18
-3636.01
-1600.76
1504.56
3555.6
6414.25
8402.4
11096.6
12963.6
15564
17252.3
19833.7
21261.5
23915.2
24931.8
27678.2
-19096.1
-14417.2
-12934
-8932.6
-7047.49
-3578.48
-1546.78
1560.98
3608.93
6469.64
8455.08
11151.1
13015.6
15617.5
17303.6
19886.4
21312
23967
24981.7
27730.7
-19041.8
-14357.9
-12878.5
-8874.09
-6992.91
-3521.1
-1492.95
1617.22
3662.08
6524.8
8507.53
11205.2
13067.3
15670.7
17354.5
19938.7
21362.1
24018.5
25031.2
27782.9
-18987.6
-14298.7
-12823.1
-8815.71
-6938.47
-3463.87
-1439.28
1673.26
3715.03
6579.71
8559.75
11259.1
13118.8
15723.6
17405.1
19990.7
21411.8
24069.5
25080.3
27834.7
-18933.6
-14239.6
-12768
-8757.47
-6884.19
-3406.83
-1385.79
1729.09
3767.79
6634.38
8611.75
11312.7
13170
15776.2
17455.5
20042.3
21461.2
24120.3
25129.1
27886.2
-18879.7
-14180.7
-12712.9
-8699.39
-6830.09
-3349.98
-1332.48
1784.69
3820.33
6688.79
8663.5
11366
13220.9
15828.5
17505.5
20093.6
21510.3
24170.7
25177.5
27937.4
-18825.9
-14121.9
-12658.1
-8641.5
-6776.17
-3293.33
-1279.37
1840.05
3872.66
6742.94
8715.03
11419
13271.6
15880.5
17555.2
20144.7
21559.1
24220.8
25225.6
27988.2
-18772.4
-14063.3
-12603.4
-8583.79
-6722.45
-3236.89
-1226.47
1895.18
3924.78
6796.82
8766.31
11471.7
13322
15932.2
17604.7
20195.4
21607.6
24270.6
25273.4
28038.8
-18719.1
-14004.9
-12549
-8526.29
-6668.93
-3180.69
-1173.77
1950.06
3976.67
6850.44
8817.36
11524.2
13372.1
15983.5
17653.9
20245.8
21655.8
24320.1
25321
28089.1
-18666
-13946.7
-12494.8
-8469.01
-6615.64
-3124.72
-1121.3
2004.68
4028.34
6903.78
8868.18
11576.3
13422.1
16034.6
17702.8
20295.9
21703.8
24369.3
25368.2
28139.1
-18613.1
-13888.7
-12440.8
-8411.94
-6562.56
-3068.98
-1069.04
2059.05
4079.78
6956.85
8918.76
11628.2
13471.7
16085.5
17751.5
20345.8
21751.5
24418.3
25415.2
28188.8
-18560.5
-13830.9
-12387
-8355.11
-6509.71
-3013.5
-1017.02
2113.15
4130.99
7009.64
8969.1
11679.8
13521.1
16136
17799.9
20395.3
21798.9
24467
25461.8
28238.3
-18508
-13773.3
-12333.5
-8298.51
-6457.1
-2958.27
-965.223
2166.98
4181.97
7062.16
9019.2
11731.1
13570.3
16186.2
17848.1
20444.6
21846
24515.4
25508.2
28287.5
-18455.9
-13715.9
-12280.2
-8242.16
-6404.73
-2903.3
-913.663
2220.54
4232.71
7114.39
9069.06
11782.1
13619.2
16236.2
17896
20493.6
21892.9
24563.5
25554.4
28336.5
-18404
-13658.8
-12227.2
-8186.06
-6352.6
-2848.59
-862.34
2273.82
4283.22
7166.34
9118.69
11832.9
13667.9
16285.9
17943.6
20542.4
21939.5
24611.4
25600.2
28385.2
-18352.3
-13601.9
-12174.4
-8130.21
-6300.71
-2794.16
-811.257
2326.83
4333.49
7218
9168.08
11883.3
13716.3
16335.3
17991
20590.8
21985.8
24659
25645.8
28433.7
-18301
-13545.3
-12121.9
-8074.62
-6249.08
-2739.99
-760.416
2379.55
4383.52
7269.37
9217.23
11933.5
13764.5
16384.4
18038.2
20639
22031.9
24706.4
25691.2
28481.9
-18249.8
-13489
-12069.7
-8019.3
-6197.7
-2686.1
-709.82
2431.99
4433.32
7320.46
9266.14
11983.4
13812.4
16433.2
18085.1
20686.9
22077.8
24753.5
25736.2
28529.8
-18199
-13432.8
-12017.7
-7964.24
-6146.57
-2632.48
-659.468
2484.13
4482.87
7371.25
9314.81
12032.9
13860.1
16481.7
18131.7
20734.5
22123.4
24800.3
25781
28577.5
-18148.4
-13377
-11966
-7909.45
-6095.71
-2579.15
-609.364
2535.99
4532.18
7421.74
9363.25
12082.2
13907.6
16530
18178.1
20781.9
22168.7
24846.8
25825.5
28625
-18098.2
-13321.4
-11914.6
-7854.94
-6045.1
-2526.11
-559.509
2587.56
4581.25
7471.94
9411.44
12131.2
13954.8
16577.9
18224.3
20829
22213.8
24893.1
25869.8
28672.2
-18048.2
-13266
-11863.4
-7800.7
-5994.75
-2473.35
-509.903
2638.83
4630.08
7521.84
9459.39
12179.9
14001.8
16625.6
18270.2
20875.8
22258.6
24939.2
25913.8
28719.1
-17998.4
-13211
-11812.6
-7746.75
-5944.67
-2420.88
-460.547
2689.8
4678.67
7571.44
9507.11
12228.3
14048.6
16673
18315.9
20922.3
22303.1
24985
25957.6
28765.8
-17949
-13156.2
-11762
-7693.07
-5894.85
-2368.71
-411.443
2740.47
4727.01
7620.74
9554.58
12276.4
14095
16720.1
18361.3
20968.5
22347.5
25030.5
26001
28812.2
-17899.9
-13101.6
-11711.7
-7639.68
-5845.3
-2316.83
-362.591
2790.84
4775.11
7669.73
9601.81
12324.2
14141.3
16766.9
18406.4
21014.5
22391.5
25075.7
26044.3
28858.4
-17851
-13047.4
-11661.6
-7586.57
-5796.01
-2265.25
-313.992
2840.9
4822.96
7718.42
9648.8
12371.7
14187.3
16813.4
18451.4
21060.2
22435.3
25120.7
26087.2
28904.4
-17802.4
-12993.4
-11611.9
-7533.76
-5746.99
-2213.97
-265.647
2890.66
4870.57
7766.8
9695.55
12418.9
14233.1
16859.6
18496
21105.6
22478.8
25165.4
26129.9
28950.1
-17754.2
-12939.7
-11562.5
-7481.23
-5698.24
-2162.99
-217.555
2940.1
4917.94
7814.86
9742.06
12465.8
14278.6
16905.6
18540.5
21150.7
22522.1
25209.9
26172.3
28995.5
-17706.2
-12886.3
-11513.3
-7429
-5649.75
-2112.31
-169.718
2989.24
4965.06
7862.62
9788.33
12512.4
14323.9
16951.2
18584.6
21195.6
22565.2
25254.1
26214.5
29040.7
-17658.5
-12833.1
-11464.4
-7377.06
-5601.54
-2061.95
-122.136
3038.06
5011.93
7910.06
9834.36
12558.7
14368.9
16996.5
18628.6
21240.1
22607.9
25298
26256.3
29085.6
-17611.1
-12780.2
-11415.8
-7325.42
-5553.6
-2011.89
-74.8094
3086.56
5058.56
7957.18
9880.14
12604.6
14413.7
17041.5
18672.2
21284.4
22650.5
25341.6
26298
29130.3
-17564
-12727.7
-11367.5
-7274.08
-5505.93
-1962.14
-27.7379
3134.75
5104.95
8003.98
9925.69
12650.3
14458.3
17086.3
18715.7
21328.4
22692.7
25385
26339.3
29174.7
-17517.3
-12675.4
-11319.5
-7223.04
-5458.53
-1912.7
19.078
3182.62
5151.08
8050.47
9970.99
12695.6
14502.6
17130.7
18758.8
21372.1
22734.7
25428.1
26380.4
29218.9
-17470.8
-12623.4
-11271.8
-7172.3
-5411.4
-1863.58
65.6382
3230.16
5196.98
8096.63
10016
12740.6
14546.7
17174.8
18801.8
21415.5
22776.4
25471
26421.2
29262.8
-17424.6
-12571.6
-11224.4
-7121.87
-5364.54
-1814.78
111.943
3277.38
5242.62
8142.47
10060.9
12785.3
14590.5
17218.6
18844.4
21458.7
22817.9
25513.5
26461.7
29306.4
-17378.7
-12520.2
-11177.2
-7071.74
-5317.95
-1766.3
157.991
3324.28
5288.02
8187.98
10105.4
12829.7
14634
17262.1
18886.9
21501.5
22859.1
25555.8
26502
29349.8
-17333.1
-12469.1
-11130.4
-7021.92
-5271.64
-1718.14
203.784
3370.84
5333.18
8233.16
10149.8
12873.8
14677.4
17305.3
18929
21544
22900.1
25597.9
26542
29393
-17287.8
-12418.2
-11083.8
-6972.41
-5225.6
-1670.3
249.321
3417.08
5378.09
8278.02
10193.9
12917.5
14720.5
17348.2
18970.9
21586.3
22940.8
25639.6
26581.7
29435.8
-17242.8
-12367.7
-11037.6
-6923.21
-5179.83
-1622.78
294.603
3462.99
5422.75
8322.54
10237.7
12960.9
14763.3
17390.8
19012.6
21628.3
22981.2
25681.1
26621.2
29478.4
-17198.2
-12317.4
-10991.6
-6874.32
-5134.34
-1575.59
339.629
3508.56
5467.17
8366.73
10281.3
13004
14805.9
17433.1
19054
21669.9
23021.4
25722.3
26660.3
29520.8
-17153.8
-12267.4
-10946
-6825.75
-5089.11
-1528.73
384.4
3553.79
5511.35
8410.58
10324.7
13046.8
14848.3
17475.1
19095.2
21711.3
23061.3
25763.2
26699.2
29562.9
-17109.7
-12217.8
-10900.6
-6777.49
-5044.16
-1482.21
428.916
3598.69
5555.28
8454.09
10367.8
13089.2
14890.4
17516.7
19136.1
21752.4
23101
25803.9
26737.8
29604.7
-17066
-12168.4
-10855.5
-6729.55
-4999.49
-1436.01
473.177
3643.24
5598.96
8497.27
10410.7
13131.3
14932.2
17558
19176.8
21793.2
23140.3
25844.3
26776.2
29646.3
-17022.5
-12119.3
-10810.8
-6681.93
-4955.08
-1390.15
517.185
3687.46
5642.41
8540.11
10453.3
13173.1
14973.8
17599
19217.2
21833.6
23179.4
25884.4
26814.3
29687.5
-16979.4
-12070.6
-10766.3
-6634.64
-4910.94
-1344.63
560.938
3731.33
5685.6
8582.6
10495.7
13214.5
15015.2
17639.7
19257.3
21873.8
23218.3
25924.2
26852
29728.6
-16936.5
-12022.1
-10722.1
-6587.66
-4867.08
-1299.44
604.438
3774.85
5728.56
8624.75
10537.9
13255.6
15056.3
17680.1
19297.2
21913.7
23256.9
25963.7
26889.6
29769.3
-16894
-11973.9
-10678.2
-6541.01
-4823.49
-1254.6
647.686
3818.02
5771.27
8666.55
10579.8
13296.4
15097.2
17720.2
19336.8
21953.3
23295.2
26003
26926.8
29809.8
-16851.8
-11926.1
-10634.6
-6494.69
-4780.17
-1210.1
690.681
3860.85
5813.74
8708
10621.5
13336.8
15137.9
17759.9
19376.2
21992.6
23333.3
26041.9
26963.7
29850.1
-16809.8
-11878.5
-10591.3
-6448.7
-4737.12
-1165.94
733.425
3903.32
5855.97
8749.11
10662.9
13376.9
15178.2
17799.3
19415.4
22031.5
23371.1
26080.6
27000.4
29890
-16768.2
-11831.3
-10548.3
-6403.03
-4694.34
-1122.13
775.918
3945.44
5897.96
8789.86
10704.1
13416.6
15218.4
17838.4
19454.2
22070.2
23408.6
26119
27036.8
29929.7
-16726.9
-11784.3
-10505.6
-6357.7
-4651.82
-1078.67
818.161
3987.2
5939.71
8830.26
10745.1
13456
15258.3
17877.2
19492.9
22108.6
23445.8
26157.2
27072.9
29969.2
-16685.9
-11737.7
-10463.2
-6312.7
-4609.58
-1035.56
860.154
4028.61
5981.21
8870.3
10785.8
13495.1
15297.9
17915.6
19531.2
22146.6
23482.8
26195
27108.7
30008.3
-16645.2
-11691.3
-10421.1
-6268.04
-4567.6
-992.804
901.899
4069.65
6022.48
8909.98
10826.3
13533.8
15337.4
17953.7
19569.3
22184.4
23519.5
26232.6
27144.3
30047.2
-16604.9
-11645.3
-10379.3
-6223.71
-4525.89
-950.402
943.397
4110.33
6063.51
8949.31
10866.6
13572.2
15376.5
17991.5
19607.2
22221.8
23556
26269.8
27179.6
30085.8
-16564.8
-11599.6
-10337.8
-6179.72
-4484.45
-908.358
984.647
4150.65
6104.31
8988.28
10906.6
13610.2
15415.5
18028.9
19644.8
22259
23592.2
26306.8
27214.5
30124.2
-16525
-11554.2
-10296.5
-6136.07
-4443.27
-866.673
1025.65
4190.6
6144.86
9026.88
10946.3
13647.9
15454.1
18066
19682.1
22295.8
23628.1
26343.5
27249.2
30162.2
-16485.6
-11509.2
-10255.6
-6092.77
-4402.35
-825.35
1066.41
4230.18
6185.18
9065.12
10985.9
13685.2
15492.6
18102.8
19719.2
22332.3
23663.8
26379.9
27283.7
30200
-16446.4
-11464.4
-10214.9
-6049.8
-4361.7
-784.39
1106.93
4269.39
6225.27
9102.99
11025.2
13722.2
15530.8
18139.3
19756.1
22368.5
23699.1
26416
27317.8
30237.6
-16407.6
-11419.9
-10174.6
-6007.19
-4321.31
-743.796
1147.2
4308.23
6265.12
9140.5
11064.2
13758.8
15568.7
18175.4
19792.6
22404.4
23734.2
26451.9
27351.6
30274.8
-16369
-11375.8
-10134.5
-5964.92
-4281.18
-703.571
1187.24
4346.7
6304.74
9177.64
11103.1
13795
15606.4
18211.2
19829
22440
23769.1
26487.4
27385.2
30311.8
-16330.8
-11332
-10094.7
-5923.01
-4241.31
-663.715
1227.03
4384.79
6344.12
9214.41
11141.7
13830.9
15643.9
18246.6
19865
22475.2
23803.7
26522.7
27418.5
30348.5
-16292.9
-11288.5
-10055.3
-5881.44
-4201.7
-624.233
1266.59
4422.5
6383.28
9250.8
11180
13866.5
15681.1
18281.7
19900.9
22510.2
23838
26557.6
27451.4
30384.9
-16255.3
-11245.3
-10016.1
-5840.23
-4162.34
-585.125
1305.91
4459.83
6422.2
9286.82
11218.2
13901.7
15718.1
18316.5
19936.4
22544.8
23872
26592.3
27484.1
30421.1
-16218
-11202.5
-9977.15
-5799.38
-4123.24
-546.395
1344.99
4496.77
6460.9
9322.47
11256.1
13936.5
15754.8
18350.9
19971.7
22579.1
23905.8
26626.7
27516.5
30457
-16181