/*--------------------------------*- C++ -*----------------------------------*\
  =========                 |
  \\      /  F ield         | OpenFOAM: The Open Source CFD Toolbox
   \\    /   O peration     | Website:  https://openfoam.org
    \\  /    A nd           | Version:  8
     \\/     M anipulation  |
\*---------------------------------------------------------------------------*/
FoamFile
{
    version     2.0;
    format      ascii;
    class       volScalarField;
    location    "1000";
    object      k;
}
// * * * * * * * * * * * * * * * * * * * * * * * * * * * * * * * * * * * * * //

dimensions      [0 2 -2 0 0 0 0];

internalField   nonuniform List<scalar> 
1200
(
0.803292
0.676281
0.578873
0.502557
0.441645
0.392245
0.351625
0.317825
0.2894
0.265276
0.244638
0.226839
0.211371
0.197842
0.185941
0.175427
0.166107
0.157819
0.150413
0.143743
0.137698
0.132196
0.127171
0.122584
0.118403
0.114586
0.111114
0.107921
0.104986
0.102263
0.0997293
0.0973763
0.0951939
0.0931749
0.0913087
0.0895836
0.0879833
0.0864908
0.0850896
0.0837611
0.0824797
0.0812106
0.0799184
0.078606
0.0773382
0.0762017
0.0752414
0.0744372
0.0737784
0.0734154
0.0736944
0.0750137
0.0773782
0.0797711
0.0815952
0.0821976
0.0812409
0.0789021
0.0757399
0.0723178
0.695244
0.512723
0.39146
0.307512
0.247342
0.202853
0.169119
0.142998
0.122417
0.105951
0.0925669
0.081552
0.0723699
0.064634
0.0580511
0.0523993
0.0475099
0.0432514
0.0395234
0.0362564
0.0333832
0.0308467
0.028598
0.0265915
0.0247882
0.0231717
0.0217218
0.0204269
0.01924
0.0181468
0.0171485
0.0162349
0.0153971
0.0146275
0.0139194
0.013267
0.012665
0.0121083
0.0115924
0.0111127
0.0106649
0.0102445
0.00984755
0.00947253
0.00912113
0.0087987
0.00852875
0.00843174
0.00888567
0.0104366
0.0132058
0.0167261
0.0204677
0.0239155
0.0261477
0.0266906
0.0255641
0.0231682
0.0201269
0.016907
0.694934
0.511045
0.388986
0.304495
0.243956
0.199288
0.165498
0.139389
0.118848
0.102427
0.0891144
0.0781833
0.0691047
0.0614876
0.0550379
0.0495319
0.0447977
0.0407011
0.0371355
0.0340141
0.0312668
0.0288363
0.0266763
0.0247484
0.023021
0.0214673
0.0200647
0.0187943
0.0176403
0.0165893
0.0156297
0.0147521
0.0139476
0.0132089
0.0125292
0.0119026
0.0113237
0.0107878
0.0102909
0.00982912
0.00939955
0.00899962
0.00862729
0.00828093
0.00795918
0.00766066
0.00738407
0.00713021
0.00691308
0.00679649
0.00695123
0.00761947
0.00891229
0.0105736
0.01207
0.0129168
0.0129288
0.0122134
0.0110548
0.0097517
0.694934
0.51147
0.389597
0.305167
0.24461
0.199899
0.166056
0.139887
0.11928
0.102797
0.0894309
0.0784557
0.0693409
0.0616937
0.0552182
0.0496896
0.0449356
0.0408216
0.0372407
0.0341063
0.0313478
0.0289079
0.0267401
0.0248057
0.0230726
0.0215139
0.0201069
0.0188327
0.0176757
0.0166223
0.0156608
0.0147808
0.0139737
0.0132324
0.0125501
0.011921
0.0113398
0.0108016
0.0103023
0.0098383
0.00940646
0.00900424
0.00862956
0.00828074
0.00795642
0.00765523
0.00737565
0.0071161
0.00687547
0.00665505
0.00646842
0.00636665
0.00645121
0.00680305
0.00734432
0.00784203
0.00809147
0.00802052
0.00769888
0.00722009
0.694933
0.511468
0.389529
0.305054
0.244471
0.199749
0.165908
0.139749
0.119158
0.102694
0.089343
0.0783805
0.0692758
0.0616366
0.0551678
0.0496454
0.0448971
0.0407883
0.0372119
0.0340814
0.0313264
0.0288897
0.0267246
0.0247928
0.023062
0.0215052
0.0201001
0.0188281
0.0176735
0.0166225
0.0156634
0.0147859
0.0139812
0.0132417
0.0125607
0.0119325
0.011352
0.0108144
0.0103159
0.00985278
0.00942166
0.00901963
0.00864429
0.0082939
0.00796881
0.00766772
0.00738866
0.00712924
0.00688705
0.00666025
0.00644741
0.00624907
0.00607774
0.00596316
0.00593689
0.00598731
0.00605674
0.00607687
0.00602719
0.00589269
0.694933
0.511469
0.389524
0.305045
0.244459
0.199735
0.165895
0.139738
0.119149
0.102687
0.0893379
0.0783763
0.069272
0.0616332
0.0551651
0.0496436
0.0448965
0.0407889
0.0372136
0.0340842
0.0313301
0.0288943
0.0267301
0.024799
0.0230689
0.0215128
0.0201083
0.0188372
0.0176836
0.0166339
0.0156762
0.0148003
0.0139977
0.0132606
0.0125826
0.0119579
0.0113813
0.0108485
0.0103553
0.009898
0.00947319
0.00907794
0.0087104
0.00837002
0.00805714
0.00777081
0.00750762
0.00726253
0.00703368
0.00681937
0.00661525
0.00641553
0.00621508
0.00602712
0.00585802
0.0057152
0.0055993
0.00549886
0.00540545
0.00530042
0.694933
0.511482
0.389601
0.305169
0.244611
0.199898
0.16606
0.139896
0.119292
0.10281
0.0894417
0.0784639
0.0693469
0.0616977
0.0552201
0.0496895
0.0449335
0.0408179
0.0372357
0.0341007
0.0313421
0.0289028
0.0267361
0.0248033
0.0230722
0.0215156
0.0201113
0.0188407
0.017688
0.0166396
0.0156835
0.0148096
0.0140094
0.0132752
0.0126007
0.0119801
0.0114085
0.0108815
0.0103951
0.00994533
0.00952863
0.00914215
0.00878725
0.00847494
0.00822516
0.00804332
0.00791193
0.00780424
0.00770983
0.00762453
0.00753671
0.00742326
0.00724657
0.00697324
0.00669458
0.00643094
0.00618934
0.00597334
0.00578055
0.00560817
0.694933
0.511059
0.388988
0.304483
0.243931
0.199263
0.165483
0.139386
0.118851
0.102435
0.0891251
0.0781953
0.0691171
0.0614999
0.0550505
0.049546
0.0448142
0.0407204
0.0371571
0.0340376
0.0312911
0.0288606
0.0267008
0.0247738
0.0230474
0.0214947
0.0200932
0.0188247
0.0176732
0.0166251
0.0156686
0.0147935
0.0139911
0.013254
0.0125758
0.0119504
0.0113726
0.0108385
0.0103451
0.00989029
0.00947439
0.00910689
0.00884033
0.00881921
0.00918237
0.00984214
0.0105901
0.0112455
0.0117312
0.012058
0.0122427
0.0122564
0.0120395
0.011546
0.0107955
0.00998958
0.00929777
0.0087232
0.00824771
0.00785214
0.695243
0.512636
0.391275
0.307249
0.247019
0.202545
0.168846
0.14273
0.12212
0.105611
0.0922113
0.0812017
0.0720426
0.0643353
0.0577879
0.0521837
0.0473597
0.0431832
0.0395393
0.0363281
0.0334691
0.0309099
0.0286347
0.0266099
0.0248038
0.0231886
0.0217406
0.020426
0.0192729
0.0182681
0.017382
0.0165884
0.015866
0.0151974
0.01456
0.0139564
0.0133831
0.0128276
0.0122766
0.0117535
0.0113142
0.0113285
0.0126878
0.015984
0.020313
0.0241514
0.0265579
0.0275698
0.027788
0.0276871
0.0273089
0.0264501
0.0249432
0.0227989
0.0202251
0.0175263
0.0150535
0.0130322
0.0115249
0.0104256
0.803264
0.676307
0.578902
0.502592
0.441685
0.392299
0.351709
0.317937
0.289536
0.265423
0.244778
0.226969
0.211495
0.197964
0.186072
0.175585
0.166331
0.158171
0.150963
0.144547
0.138772
0.133503
0.128613
0.12404
0.11977
0.115822
0.112221
0.108931
0.105936
0.10323
0.100799
0.0986272
0.0966994
0.0949959
0.0934966
0.0921796
0.0910193
0.0899857
0.0890508
0.0881922
0.0874887
0.0872409
0.0884246
0.0921607
0.0975046
0.10189
0.10366
0.102565
0.0990381
0.0936262
0.0868441
0.0792422
0.071464
0.0641945
0.0579867
0.0531448
0.0496725
0.0473111
0.0456801
0.0442414
0.803295
0.676322
0.578879
0.502528
0.44158
0.392162
0.351561
0.317804
0.289424
0.265319
0.244665
0.226839
0.21135
0.197809
0.185907
0.175401
0.166093
0.157815
0.150416
0.143743
0.137695
0.132193
0.12717
0.122579
0.118399
0.114586
0.111103
0.10791
0.10498
0.102266
0.0997295
0.0973733
0.0951904
0.0931721
0.0913071
0.0895831
0.0879842
0.0864938
0.0850959
0.0837721
0.0824974
0.0812378
0.0799568
0.0786521
0.0773837
0.0762385
0.0752663
0.0744536
0.0737867
0.0733962
0.0736051
0.0748048
0.0770823
0.079489
0.0814015
0.0821789
0.0814349
0.0792722
0.0762062
0.0728011
0.695244
0.512712
0.391388
0.3074
0.24723
0.202786
0.16909
0.142981
0.122388
0.105894
0.0924938
0.0814829
0.0723172
0.0645953
0.0580187
0.0523685
0.0474787
0.04322
0.0394934
0.0362331
0.0333653
0.0308307
0.0285806
0.0265743
0.024778
0.0231657
0.0217356
0.0204561
0.0192781
0.0181785
0.0171702
0.0162478
0.015404
0.014631
0.0139212
0.0132679
0.0126654
0.0121085
0.0115924
0.0111128
0.0106651
0.0102448
0.0098481
0.00947308
0.00912122
0.00879747
0.00852231
0.00840207
0.00878539
0.0102158
0.0128703
0.0163239
0.0200389
0.0235453
0.0259344
0.026677
0.0257406
0.0234826
0.0205102
0.0172744
0.694934
0.511085
0.389015
0.304501
0.243934
0.199244
0.165453
0.139363
0.118842
0.102432
0.0891187
0.078182
0.0690985
0.0614784
0.0550282
0.0495241
0.044793
0.0406992
0.0371354
0.0340149
0.0312678
0.0288374
0.0266775
0.0247498
0.023022
0.0214673
0.0200639
0.0187934
0.0176399
0.0165897
0.0156307
0.0147528
0.0139479
0.0132086
0.0125285
0.0119015
0.0113225
0.0107865
0.0102895
0.00982776
0.00939819
0.0089982
0.00862572
0.00827914
0.00795712
0.00765833
0.00738145
0.00712689
0.00690651
0.00677694
0.00689626
0.00750452
0.00873498
0.0103732
0.0119071
0.0128367
0.0129434
0.012303
0.0111864
0.00988985
0.694934
0.511497
0.389615
0.305169
0.244598
0.199874
0.166029
0.139872
0.119283
0.102811
0.0894438
0.0784618
0.0693401
0.0616878
0.0552103
0.0496828
0.0449313
0.0408197
0.0372404
0.0341068
0.0313486
0.0289088
0.0267411
0.0248068
0.0230734
0.0215141
0.0201066
0.0188326
0.0176761
0.0166231
0.0156617
0.0147818
0.0139746
0.0132328
0.01255
0.0119203
0.0113386
0.0108002
0.0103009
0.00983692
0.0094052
0.00900302
0.00862823
0.00827919
0.00795459
0.00765307
0.00737316
0.00711332
0.00687238
0.00665124
0.00646145
0.00634923
0.00641141
0.00673629
0.00726603
0.00777851
0.0080608
0.00802425
0.00772818
0.00726135
0.694933
0.511493
0.389555
0.305069
0.244473
0.199736
0.165887
0.139736
0.11916
0.102705
0.0893534
0.0783852
0.0692747
0.0616312
0.0551611
0.0496398
0.0448937
0.0407869
0.0372118
0.0340819
0.0313271
0.0288904
0.0267254
0.0247936
0.0230626
0.0215056
0.0201004
0.0188286
0.0176742
0.0166234
0.0156644
0.0147869
0.0139822
0.0132427
0.0125618
0.0119336
0.011353
0.0108156
0.0103172
0.00985425
0.00942335
0.00902158
0.00864656
0.00829658
0.00797076
0.00766819
0.00738757
0.00712699
0.00688405
0.00665676
0.00644365
0.00624475
0.00607095
0.00595026
0.00591552
0.00596074
0.00603222
0.00606001
0.00601973
0.00589228
0.694933
0.511489
0.38955
0.305062
0.244466
0.19973
0.165881
0.139729
0.119153
0.102697
0.0893478
0.078381
0.0692714
0.0616289
0.0551596
0.049639
0.0448937
0.0407877
0.0372136
0.0340846
0.0313308
0.028895
0.0267308
0.0247997
0.0230695
0.0215133
0.0201089
0.0188379
0.0176845
0.0166349
0.0156773
0.0148016
0.0139991
0.0132622
0.0125843
0.0119597
0.0113833
0.0108507
0.0103577
0.00990061
0.00947602
0.00908108
0.00871405
0.00837451
0.00806274
0.00777747
0.00751502
0.00727036
0.00703972
0.00682122
0.00661345
0.00641209
0.00621038
0.00602145
0.00585088
0.00570606
0.00558855
0.00548769
0.00539501
0.0052912
0.694933
0.511503
0.389636
0.305202
0.244637
0.199913
0.166061
0.139895
0.1193
0.102824
0.0894549
0.0784717
0.069348
0.0616933
0.0552135
0.0496836
0.0449298
0.0408163
0.0372355
0.034101
0.0313427
0.0289034
0.0267367
0.024804
0.0230728
0.0215163
0.020112
0.0188415
0.0176891
0.0166408
0.0156849
0.0148112
0.0140112
0.0132773
0.0126031
0.0119829
0.0114116
0.010885
0.0103989
0.00994965
0.00953347
0.00914781
0.00879475
0.00848562
0.00823883
0.008058
0.00792485
0.00781206
0.00770648
0.00761433
0.00752612
0.00741725
0.00724941
0.00698279
0.0067023
0.00643646
0.00619241
0.00597403
0.00577914
0.00560513
0.694933
0.511063
0.389002
0.304497
0.243944
0.199271
0.16548
0.139382
0.118856
0.102445
0.0891346
0.0782004
0.0691176
0.0614974
0.0550472
0.0495434
0.0448128
0.04072
0.0371574
0.0340381
0.0312915
0.0288609
0.0267013
0.0247744
0.023048
0.0214953
0.0200939
0.0188254
0.0176741
0.0166261
0.0156697
0.0147947
0.0139924
0.0132551
0.0125763
0.0119502
0.0113716
0.0108375
0.0103447
0.0098912
0.00947729
0.0091127
0.00884568
0.0087889
0.00909569
0.0097238
0.0104777
0.0111608
0.0116778
0.0120308
0.0122364
0.0122687
0.0120705
0.0115965
0.0108579
0.0100445
0.00934033
0.00875496
0.00827042
0.00786834
0.695243
0.512666
0.391357
0.307362
0.247131
0.202611
0.168854
0.142725
0.122143
0.105665
0.0922731
0.0812437
0.0720602
0.0643382
0.0577865
0.0521844
0.0473628
0.0431857
0.0395385
0.0363228
0.0334588
0.0308965
0.0286235
0.0265997
0.0247906
0.023167
0.0217047
0.0203836
0.0192293
0.0182266
0.0173432
0.0165497
0.0158246
0.0151526
0.0145191
0.013922
0.0133608
0.012826
0.0123052
0.0118042
0.0113863
0.0113336
0.0124715
0.0155224
0.0197814
0.0237418
0.0263447
0.0275123
0.0278107
0.0277435
0.0273897
0.0265625
0.0250921
0.02298
0.0204243
0.0177244
0.0152263
0.0131696
0.0116288
0.0105062
0.803276
0.676338
0.578966
0.502661
0.44175
0.39235
0.351733
0.317953
0.289561
0.265457
0.244809
0.226985
0.211493
0.197949
0.186052
0.175569
0.166322
0.158169
0.150966
0.144553
0.138779
0.133508
0.128609
0.124022
0.119735
0.11576
0.112111
0.108851
0.105893
0.103207
0.100784
0.0986144
0.0966849
0.0949783
0.0934755
0.0921549
0.0909914
0.0899559
0.0890209
0.0881646
0.0874467
0.0871349
0.0881263
0.0916112
0.0969089
0.101502
0.103577
0.102761
0.0994435
0.0941733
0.0874748
0.0799038
0.0721071
0.0647774
0.0584822
0.0535448
0.0499853
0.0475576
0.0458865
0.0444338
)
;

boundaryField
{
    wall
    {
        type            kqRWallFunction;
        value           nonuniform List<scalar> 
1200
(
0.803292
0.695244
0.694934
0.694934
0.694933
0.694933
0.694933
0.694933
0.695243
0.803264
0.676281
0.512723
0.511045
0.51147
0.511468
0.511469
0.511482
0.511059
0.512636
0.676307
0.578873
0.39146
0.388986
0.389597
0.389529
0.389524
0.389601
0.388988
0.391275
0.578902
0.502557
0.307512
0.304495
0.305167
0.305054
0.305045
0.305169
0.304483
0.307249
0.502592
0.441645
0.247342
0.243956
0.24461
0.244471
0.244459
0.244611
0.243931
0.247019
0.441685
0.392245
0.202853
0.199288
0.199899
0.199749
0.199735
0.199898
0.199263
0.202545
0.392299
0.351625
0.169119
0.165498
0.166056
0.165908
0.165895
0.16606
0.165483
0.168846
0.351709
0.317825
0.142998
0.139389
0.139887
0.139749
0.139738
0.139896
0.139386
0.14273
0.317937
0.2894
0.122417
0.118848
0.11928
0.119158
0.119149
0.119292
0.118851
0.12212
0.289536
0.265276
0.105951
0.102427
0.102797
0.102694
0.102687
0.10281
0.102435
0.105611
0.265423
0.244638
0.0925669
0.0891144
0.0894309
0.089343
0.0893379
0.0894417
0.0891251
0.0922113
0.244778
0.226839
0.081552
0.0781833
0.0784557
0.0783805
0.0783763
0.0784639
0.0781953
0.0812017
0.226969
0.211371
0.0723699
0.0691047
0.0693409
0.0692758
0.069272
0.0693469
0.0691171
0.0720426
0.211495
0.197842
0.064634
0.0614876
0.0616937
0.0616366
0.0616332
0.0616977
0.0614999
0.0643353
0.197964
0.185941
0.0580511
0.0550379
0.0552182
0.0551678
0.0551651
0.0552201
0.0550505
0.0577879
0.186072
0.175427
0.0523993
0.0495319
0.0496896
0.0496454
0.0496436
0.0496895
0.049546
0.0521837
0.175585
0.166107
0.0475099
0.0447977
0.0449356
0.0448971
0.0448965
0.0449335
0.0448142
0.0473597
0.166331
0.157819
0.0432514
0.0407011
0.0408216
0.0407883
0.0407889
0.0408179
0.0407204
0.0431832
0.158171
0.150413
0.0395234
0.0371355
0.0372407
0.0372119
0.0372136
0.0372357
0.0371571
0.0395393
0.150963
0.143743
0.0362564
0.0340141
0.0341063
0.0340814
0.0340842
0.0341007
0.0340376
0.0363281
0.144547
0.137698
0.0333832
0.0312668
0.0313478
0.0313264
0.0313301
0.0313421
0.0312911
0.0334691
0.138772
0.132196
0.0308467
0.0288363
0.0289079
0.0288897
0.0288943
0.0289028
0.0288606
0.0309099
0.133503
0.127171
0.028598
0.0266763
0.0267401
0.0267246
0.0267301
0.0267361
0.0267008
0.0286347
0.128613
0.122584
0.0265915
0.0247484
0.0248057
0.0247928
0.024799
0.0248033
0.0247738
0.0266099
0.12404
0.118403
0.0247882
0.023021
0.0230726
0.023062
0.0230689
0.0230722
0.0230474
0.0248038
0.11977
0.114586
0.0231717
0.0214673
0.0215139
0.0215052
0.0215128
0.0215156
0.0214947
0.0231886
0.115822
0.111114
0.0217218
0.0200647
0.0201069
0.0201001
0.0201083
0.0201113
0.0200932
0.0217406
0.112221
0.107921
0.0204269
0.0187943
0.0188327
0.0188281
0.0188372
0.0188407
0.0188247
0.020426
0.108931
0.104986
0.01924
0.0176403
0.0176757
0.0176735
0.0176836
0.017688
0.0176732
0.0192729
0.105936
0.102263
0.0181468
0.0165893
0.0166223
0.0166225
0.0166339
0.0166396
0.0166251
0.0182681
0.10323
0.0997293
0.0171485
0.0156297
0.0156608
0.0156634
0.0156762
0.0156835
0.0156686
0.017382
0.100799
0.0973763
0.0162349
0.0147521
0.0147808
0.0147859
0.0148003
0.0148096
0.0147935
0.0165884
0.0986272
0.0951939
0.0153971
0.0139476
0.0139737
0.0139812
0.0139977
0.0140094
0.0139911
0.015866
0.0966994
0.0931749
0.0146275
0.0132089
0.0132324
0.0132417
0.0132606
0.0132752
0.013254
0.0151974
0.0949959
0.0913087
0.0139194
0.0125292
0.0125501
0.0125607
0.0125826
0.0126007
0.0125758
0.01456
0.0934966
0.0895836
0.013267
0.0119026
0.011921
0.0119325
0.0119579
0.0119801
0.0119504
0.0139564
0.0921796
0.0879833
0.012665
0.0113237
0.0113398
0.011352
0.0113813
0.0114085
0.0113726
0.0133831
0.0910193
0.0864908
0.0121083
0.0107878
0.0108016
0.0108144
0.0108485
0.0108815
0.0108385
0.0128276
0.0899857
0.0850896
0.0115924
0.0102909
0.0103023
0.0103159
0.0103553
0.0103951
0.0103451
0.0122766
0.0890508
0.0837611
0.0111127
0.00982912
0.0098383
0.00985278
0.009898
0.00994533
0.00989029
0.0117535
0.0881922
0.0824797
0.0106649
0.00939955
0.00940646
0.00942166
0.00947319
0.00952863
0.00947439
0.0113142
0.0874887
0.0812106
0.0102445
0.00899962
0.00900424
0.00901963
0.00907794
0.00914215
0.00910689
0.0113285
0.0872409
0.0799184
0.00984755
0.00862729
0.00862956
0.00864429
0.0087104
0.00878725
0.00884033
0.0126878
0.0884246
0.078606
0.00947253
0.00828093
0.00828074
0.0082939
0.00837002
0.00847494
0.00881921
0.015984
0.0921607
0.0773382
0.00912113
0.00795918
0.00795642
0.00796881
0.00805714
0.00822516
0.00918237
0.020313
0.0975046
0.0762017
0.0087987
0.00766066
0.00765523
0.00766772
0.00777081
0.00804332
0.00984214
0.0241514
0.10189
0.0752414
0.00852875
0.00738407
0.00737565
0.00738866
0.00750762
0.00791193
0.0105901
0.0265579
0.10366
0.0744372
0.00843174
0.00713021
0.0071161
0.00712924
0.00726253
0.00780424
0.0112455
0.0275698
0.102565
0.0737784
0.00888567
0.00691308
0.00687547
0.00688705
0.00703368
0.00770983
0.0117312
0.027788
0.0990381
0.0734154
0.0104366
0.00679649
0.00665505
0.00666025
0.00681937
0.00762453
0.012058
0.0276871
0.0936262
0.0736944
0.0132058
0.00695123
0.00646842
0.00644741
0.00661525
0.00753671
0.0122427
0.0273089
0.0868441
0.0750137
0.0167261
0.00761947
0.00636665
0.00624907
0.00641553
0.00742326
0.0122564
0.0264501
0.0792422
0.0773782
0.0204677
0.00891229
0.00645121
0.00607774
0.00621508
0.00724657
0.0120395
0.0249432
0.071464
0.0797711
0.0239155
0.0105736
0.00680305
0.00596316
0.00602712
0.00697324
0.011546
0.0227989
0.0641945
0.0815952
0.0261477
0.01207
0.00734432
0.00593689
0.00585802
0.00669458
0.0107955
0.0202251
0.0579867
0.0821976
0.0266906
0.0129168
0.00784203
0.00598731
0.0057152
0.00643094
0.00998958
0.0175263
0.0531448
0.0812409
0.0255641
0.0129288
0.00809147
0.00605674
0.0055993
0.00618934
0.00929777
0.0150535
0.0496725
0.0789021
0.0231682
0.0122134
0.00802052
0.00607687
0.00549886
0.00597334
0.0087232
0.0130322
0.0473111
0.0757399
0.0201269
0.0110548
0.00769888
0.00602719
0.00540545
0.00578055
0.00824771
0.0115249
0.0456801
0.0723178
0.016907
0.0097517
0.00722009
0.00589269
0.00530042
0.00560817
0.00785214
0.0104256
0.0442414
0.803295
0.695244
0.694934
0.694934
0.694933
0.694933
0.694933
0.694933
0.695243
0.803276
0.676322
0.512712
0.511085
0.511497
0.511493
0.511489
0.511503
0.511063
0.512666
0.676338
0.578879
0.391388
0.389015
0.389615
0.389555
0.38955
0.389636
0.389002
0.391357
0.578966
0.502528
0.3074
0.304501
0.305169
0.305069
0.305062
0.305202
0.304497
0.307362
0.502661
0.44158
0.24723
0.243934
0.244598
0.244473
0.244466
0.244637
0.243944
0.247131
0.44175
0.392162
0.202786
0.199244
0.199874
0.199736
0.19973
0.199913
0.199271
0.202611
0.39235
0.351561
0.16909
0.165453
0.166029
0.165887
0.165881
0.166061
0.16548
0.168854
0.351733
0.317804
0.142981
0.139363
0.139872
0.139736
0.139729
0.139895
0.139382
0.142725
0.317953
0.289424
0.122388
0.118842
0.119283
0.11916
0.119153
0.1193
0.118856
0.122143
0.289561
0.265319
0.105894
0.102432
0.102811
0.102705
0.102697
0.102824
0.102445
0.105665
0.265457
0.244665
0.0924938
0.0891187
0.0894438
0.0893534
0.0893478
0.0894549
0.0891346
0.0922731
0.244809
0.226839
0.0814829
0.078182
0.0784618
0.0783852
0.078381
0.0784717
0.0782004
0.0812437
0.226985
0.21135
0.0723172
0.0690985
0.0693401
0.0692747
0.0692714
0.069348
0.0691176
0.0720602
0.211493
0.197809
0.0645953
0.0614784
0.0616878
0.0616312
0.0616289
0.0616933
0.0614974
0.0643382
0.197949
0.185907
0.0580187
0.0550282
0.0552103
0.0551611
0.0551596
0.0552135
0.0550472
0.0577865
0.186052
0.175401
0.0523685
0.0495241
0.0496828
0.0496398
0.049639
0.0496836
0.0495434
0.0521844
0.175569
0.166093
0.0474787
0.044793
0.0449313
0.0448937
0.0448937
0.0449298
0.0448128
0.0473628
0.166322
0.157815
0.04322
0.0406992
0.0408197
0.0407869
0.0407877
0.0408163
0.04072
0.0431857
0.158169
0.150416
0.0394934
0.0371354
0.0372404
0.0372118
0.0372136
0.0372355
0.0371574
0.0395385
0.150966
0.143743
0.0362331
0.0340149
0.0341068
0.0340819
0.0340846
0.034101
0.0340381
0.0363228
0.144553
0.137695
0.0333653
0.0312678
0.0313486
0.0313271
0.0313308
0.0313427
0.0312915
0.0334588
0.138779
0.132193
0.0308307
0.0288374
0.0289088
0.0288904
0.028895
0.0289034
0.0288609
0.0308965
0.133508
0.12717
0.0285806
0.0266775
0.0267411
0.0267254
0.0267308
0.0267367
0.0267013
0.0286235
0.128609
0.122579
0.0265743
0.0247498
0.0248068
0.0247936
0.0247997
0.024804
0.0247744
0.0265997
0.124022
0.118399
0.024778
0.023022
0.0230734
0.0230626
0.0230695
0.0230728
0.023048
0.0247906
0.119735
0.114586
0.0231657
0.0214673
0.0215141
0.0215056
0.0215133
0.0215163
0.0214953
0.023167
0.11576
0.111103
0.0217356
0.0200639
0.0201066
0.0201004
0.0201089
0.020112
0.0200939
0.0217047
0.112111
0.10791
0.0204561
0.0187934
0.0188326
0.0188286
0.0188379
0.0188415
0.0188254
0.0203836
0.108851
0.10498
0.0192781
0.0176399
0.0176761
0.0176742
0.0176845
0.0176891
0.0176741
0.0192293
0.105893
0.102266
0.0181785
0.0165897
0.0166231
0.0166234
0.0166349
0.0166408
0.0166261
0.0182266
0.103207
0.0997295
0.0171702
0.0156307
0.0156617
0.0156644
0.0156773
0.0156849
0.0156697
0.0173432
0.100784
0.0973733
0.0162478
0.0147528
0.0147818
0.0147869
0.0148016
0.0148112
0.0147947
0.0165497
0.0986144
0.0951904
0.015404
0.0139479
0.0139746
0.0139822
0.0139991
0.0140112
0.0139924
0.0158246
0.0966849
0.0931721
0.014631
0.0132086
0.0132328
0.0132427
0.0132622
0.0132773
0.0132551
0.0151526
0.0949783
0.0913071
0.0139212
0.0125285
0.01255
0.0125618
0.0125843
0.0126031
0.0125763
0.0145191
0.0934755
0.0895831
0.0132679
0.0119015
0.0119203
0.0119336
0.0119597
0.0119829
0.0119502
0.013922
0.0921549
0.0879842
0.0126654
0.0113225
0.0113386
0.011353
0.0113833
0.0114116
0.0113716
0.0133608
0.0909914
0.0864938
0.0121085
0.0107865
0.0108002
0.0108156
0.0108507
0.010885
0.0108375
0.012826
0.0899559
0.0850959
0.0115924
0.0102895
0.0103009
0.0103172
0.0103577
0.0103989
0.0103447
0.0123052
0.0890209
0.0837721
0.0111128
0.00982776
0.00983692
0.00985425
0.00990061
0.00994965
0.0098912
0.0118042
0.0881646
0.0824974
0.0106651
0.00939819
0.0094052
0.00942335
0.00947602
0.00953347
0.00947729
0.0113863
0.0874467
0.0812378
0.0102448
0.0089982
0.00900302
0.00902158
0.00908108
0.00914781
0.0091127
0.0113336
0.0871349
0.0799568
0.0098481
0.00862572
0.00862823
0.00864656
0.00871405
0.00879475
0.00884568
0.0124715
0.0881263
0.0786521
0.00947308
0.00827914
0.00827919
0.00829658
0.00837451
0.00848562
0.0087889
0.0155224
0.0916112
0.0773837
0.00912122
0.00795712
0.00795459
0.00797076
0.00806274
0.00823883
0.00909569
0.0197814
0.0969089
0.0762385
0.00879747
0.00765833
0.00765307
0.00766819
0.00777747
0.008058
0.0097238
0.0237418
0.101502
0.0752663
0.00852231
0.00738145
0.00737316
0.00738757
0.00751502
0.00792485
0.0104777
0.0263447
0.103577
0.0744536
0.00840207
0.00712689
0.00711332
0.00712699
0.00727036
0.00781206
0.0111608
0.0275123
0.102761
0.0737867
0.00878539
0.00690651
0.00687238
0.00688405
0.00703972
0.00770648
0.0116778
0.0278107
0.0994435
0.0733962
0.0102158
0.00677694
0.00665124
0.00665676
0.00682122
0.00761433
0.0120308
0.0277435
0.0941733
0.0736051
0.0128703
0.00689626
0.00646145
0.00644365
0.00661345
0.00752612
0.0122364
0.0273897
0.0874748
0.0748048
0.0163239
0.00750452
0.00634923
0.00624475
0.00641209
0.00741725
0.0122687
0.0265625
0.0799038
0.0770823
0.0200389
0.00873498
0.00641141
0.00607095
0.00621038
0.00724941
0.0120705
0.0250921
0.0721071
0.079489
0.0235453
0.0103732
0.00673629
0.00595026
0.00602145
0.00698279
0.0115965
0.02298
0.0647774
0.0814015
0.0259344
0.0119071
0.00726603
0.00591552
0.00585088
0.0067023
0.0108579
0.0204243
0.0584822
0.0821789
0.026677
0.0128367
0.00777851
0.00596074
0.00570606
0.00643646
0.0100445
0.0177244
0.0535448
0.0814349
0.0257406
0.0129434
0.0080608
0.00603222
0.00558855
0.00619241
0.00934033
0.0152263
0.0499853
0.0792722
0.0234826
0.012303
0.00802425
0.00606001
0.00548769
0.00597403
0.00875496
0.0131696
0.0475576
0.0762062
0.0205102
0.0111864
0.00772818
0.00601973
0.00539501
0.00577914
0.00827042
0.0116288
0.0458865
0.0728011
0.0172744
0.00988985
0.00726135
0.00589228
0.0052912
0.00560513
0.00786834
0.0105062
0.0444338
)
;
    }
    inlet
    {
        type            turbulentIntensityKineticEnergyInlet;
        intensity       0.05;
        value           uniform 0.96;
    }
    outlet
    {
        type            inletOutlet;
        inletValue      uniform 0.003;
        value           nonuniform List<scalar> 
20
(
0.0723178
0.016907
0.0097517
0.00722009
0.00589269
0.00530042
0.00560817
0.00785214
0.0104256
0.0442414
0.0728011
0.0172744
0.00988985
0.00726135
0.00589228
0.0052912
0.00560513
0.00786834
0.0105062
0.0444338
)
;
    }
    heatWall
    {
        type            kqRWallFunction;
        value           nonuniform List<scalar> 
240
(
0.803264
0.803276
0.676307
0.676338
0.578902
0.578966
0.502592
0.502661
0.441685
0.44175
0.392299
0.39235
0.351709
0.351733
0.317937
0.317953
0.289536
0.289561
0.265423
0.265457
0.244778
0.244809
0.226969
0.226985
0.211495
0.211493
0.197964
0.197949
0.186072
0.186052
0.175585
0.175569
0.166331
0.166322
0.158171
0.158169
0.150963
0.150966
0.144547
0.144553
0.138772
0.138779
0.133503
0.133508
0.128613
0.128609
0.12404
0.124022
0.11977
0.119735
0.115822
0.11576
0.112221
0.112111
0.108931
0.108851
0.105936
0.105893
0.10323
0.103207
0.100799
0.100784
0.0986272
0.0986144
0.0966994
0.0966849
0.0949959
0.0949783
0.0934966
0.0934755
0.0921796
0.0921549
0.0910193
0.0909914
0.0899857
0.0899559
0.0890508
0.0890209
0.0881922
0.0881646
0.0874887
0.0874467
0.0872409
0.0871349
0.0884246
0.0881263
0.0921607
0.0916112
0.0975046
0.0969089
0.10189
0.101502
0.10366
0.103577
0.102565
0.102761
0.0990381
0.0994435
0.0936262
0.0941733
0.0868441
0.0874748
0.0792422
0.0799038
0.071464
0.0721071
0.0641945
0.0647774
0.0579867
0.0584822
0.0531448
0.0535448
0.0496725
0.0499853
0.0473111
0.0475576
0.0456801
0.0458865
0.0442414
0.0444338
0.803292
0.803295
0.676281
0.676322
0.578873
0.578879
0.502557
0.502528
0.441645
0.44158
0.392245
0.392162
0.351625
0.351561
0.317825
0.317804
0.2894
0.289424
0.265276
0.265319
0.244638
0.244665
0.226839
0.226839
0.211371
0.21135
0.197842
0.197809
0.185941
0.185907
0.175427
0.175401
0.166107
0.166093
0.157819
0.157815
0.150413
0.150416
0.143743
0.143743
0.137698
0.137695
0.132196
0.132193
0.127171
0.12717
0.122584
0.122579
0.118403
0.118399
0.114586
0.114586
0.111114
0.111103
0.107921
0.10791
0.104986
0.10498
0.102263
0.102266
0.0997293
0.0997295
0.0973763
0.0973733
0.0951939
0.0951904
0.0931749
0.0931721
0.0913087
0.0913071
0.0895836
0.0895831
0.0879833
0.0879842
0.0864908
0.0864938
0.0850896
0.0850959
0.0837611
0.0837721
0.0824797
0.0824974
0.0812106
0.0812378
0.0799184
0.0799568
0.078606
0.0786521
0.0773382
0.0773837
0.0762017
0.0762385
0.0752414
0.0752663
0.0744372
0.0744536
0.0737784
0.0737867
0.0734154
0.0733962
0.0736944
0.0736051
0.0750137
0.0748048
0.0773782
0.0770823
0.0797711
0.079489
0.0815952
0.0814015
0.0821976
0.0821789
0.0812409
0.0814349
0.0789021
0.0792722
0.0757399
0.0762062
0.0723178
0.0728011
)
;
    }
}


// ************************************************************************* //
