/*--------------------------------*- C++ -*----------------------------------*\
  =========                 |
  \\      /  F ield         | OpenFOAM: The Open Source CFD Toolbox
   \\    /   O peration     | Website:  https://openfoam.org
    \\  /    A nd           | Version:  8
     \\/     M anipulation  |
\*---------------------------------------------------------------------------*/
FoamFile
{
    version     2.0;
    format      ascii;
    class       volScalarField;
    location    "1000";
    object      p;
}
// * * * * * * * * * * * * * * * * * * * * * * * * * * * * * * * * * * * * * //

dimensions      [1 -1 -2 0 0 0 0];

internalField   nonuniform List<scalar> 
1200
(
39882.7
36698.1
35255.5
34740
34410
34125.8
33930.4
33908.7
33972.3
33894.4
33644.8
33394.9
33205.4
33007.5
32767.5
32503
32262.3
32115.5
32124.4
32229.2
32314.2
32392.6
32471
32394.4
31977.7
31322.6
30766.5
30419.3
30244.5
30005.9
29589.6
29027.2
28348.1
27557.1
26678.9
25739.5
24734.6
23710.1
22702.6
21720.5
20740.1
19709.6
18516.6
17063.8
15295.3
13275.6
11186.6
9102.5
7036.64
4872
2518.87
110.533
-2061.96
-2893.83
-3008.01
-3098.97
-2411.37
-3420.68
-807.045
-7442.02
32609.9
33036.8
33166.9
33302.1
33338.2
33233.8
33163
33256.8
33434.7
33447.1
33246.6
33033.2
32857.2
32671.1
32440.9
32182.3
31941.5
31789.2
31790.9
31892.2
31979.1
32061.4
32149.1
32095.3
31720.6
31093.1
30527.2
30188.6
30042.6
29850.5
29479.8
28956.5
28312.8
27550.7
26695.3
25770.9
24773.4
23751.7
22749.2
21779.7
20822.2
19823.1
18663.1
17238.7
15494.9
13512
11498.2
9555.38
7714.72
5716.03
3336.04
916.318
-1133.12
-2240.3
-2350.79
-2328.72
-1472.55
-2355.89
125.03
-5630.15
33572.1
34614.4
34750.3
34496.9
34215.4
33977.2
33775.8
33695.6
33708.5
33613.5
33364.9
33103.7
32890.7
32666.9
32393.8
32083.5
31784
31573.9
31531.8
31610.4
31693.2
31782.4
31887.6
31869.9
31541.4
30936.1
30368.6
30024.5
29870.5
29666.7
29276.9
28723.3
28044.3
27244.6
26360.5
25415.3
24405.5
23377.5
22373.8
21407.6
20463.2
19491.2
18372.4
16973.9
15194.5
13106.6
10951.3
8821.08
6707.12
4561.67
2464.23
557.494
-858.599
-1823.5
-2227.93
-2739.14
-2537.38
-3788.34
-1646.97
-6893.48
33376.7
33787.1
33684.5
33412.8
33203.4
33015.4
32859.5
32876.1
33022.9
33052.2
32887.3
32667.9
32481.4
32281.5
32032.5
31744.3
31459
31253.7
31209.9
31286.3
31368.3
31454.3
31559.5
31560.5
31270.1
30695.4
30129.9
29771.8
29606.7
29408.7
29039.3
28517.5
27878.8
27110.9
26247.3
25312.1
24307
23283.5
22292.8
21352.3
20447.3
19521.2
18446.4
17067.6
15267.3
13152.4
11008.3
8904.26
6774.91
4518.54
2252
176.43
-1275.12
-2142.3
-2364.45
-2588.31
-2093.63
-2881.07
-917.57
-4809.57
33227.6
33591.2
33680.7
33547.1
33403.2
33241.1
33066.5
33012
33072.8
33050.5
32869.2
32635.5
32426.3
32202.5
31926.6
31601.7
31268.4
31011
30924.3
30975.6
31048.1
31130.9
31240.2
31266.8
31031.7
30517.8
29979.4
29607.4
29407.6
29179.4
28797.7
28275.2
27634.9
26862.7
25998.4
25055.3
24035.9
22994.1
21993.2
21065.7
20215.7
19400.8
18490.4
17233.7
15351.4
12975.3
10581.1
8289.93
6011.34
3795.98
1780.93
67.5977
-1297.14
-2282.07
-2662.1
-3053.89
-2794.6
-3537.71
-1852.18
-4196.71
33016.4
33375.1
33480.7
33360.5
33226.6
33077.7
32895.4
32817.2
32861.3
32846.8
32685.7
32457.8
32237.2
31997.2
31700.6
31344.3
30966.5
30658.9
30527.7
30549.5
30606.9
30681.3
30789.7
30840.1
30667.8
30236.5
29750.5
29383.8
29160.3
28902.7
28503.4
27974.9
27330.9
26568.5
25718.1
24783.4
23770.1
22728.5
21726.6
20810.5
20001.2
19274.5
18506.8
17410.8
15561
13071
10492.1
7992.61
5443.34
2870.66
629.094
-1241.06
-2630.56
-3698.48
-3979.45
-3971.78
-3228.51
-3388.35
-1703.35
-2992.7
32740
33121.8
33056.7
32804.5
32617
32467.2
32293.8
32242.2
32342.4
32403.4
32312.9
32128.7
31928.1
31704
31424.6
31082.1
30710.9
30405.2
30279
30312.9
30386.6
30474.4
30593.5
30665.4
30547
30195
29761.3
29394.7
29135.5
28826.7
28384
27830.3
27167.3
26395.6
25538.3
24594.6
23574.1
22523.5
21511.9
20595
19801.8
19129.7
18471.4
17564.7
15827.9
13206
10465.9
7837.36
5338.56
2989.13
842.541
-1049.59
-2668.28
-3967.86
-4299.01
-4270.86
-3344.86
-3215.77
-1488.87
-2557.32
32536.3
33523.7
33687.7
33500.3
33285.8
33070
32815.1
32641
32593.9
32542.4
32389.1
32163.8
31920.6
31651.8
31321.8
30915.6
30467.7
30085.9
29901.8
29907.5
29980.3
30087.5
30243.7
30376.6
30352.9
30115.7
29767.7
29434.6
29187.8
28868
28405.3
27836.8
27158.9
26376.5
25510.6
24543
23510.3
22443.2
21409.7
20477.6
19695.2
19111.5
18666.2
17995.4
15925
12663.7
9336.63
6381.43
3716.4
1263.37
-765.245
-2606.43
-4259.65
-5720.47
-6250.78
-5861.45
-4419.31
-3954.35
-2021.32
-2791.75
31114.8
31554.1
31750.2
31898.8
31968.5
31966.2
31857
31810.7
31895.7
31965.8
31909.2
31748.8
31545.1
31308.6
31013.2
30646.6
30243.3
29911.6
29783.1
29846.1
29972.2
30126.1
30320.8
30492.2
30516.4
30333.8
30009.2
29619.4
29328.6
28962.1
28463.3
27880.1
27199.9
26427.1
25574.5
24661.3
23668.5
22623.1
21612.5
20729.1
20038.2
19662.8
19551.8
19167.3
17189.6
13988.7
10886.3
8124.62
5557.88
3203.06
1124.56
-870.987
-2764.89
-4469.86
-5218.36
-5332.01
-3868.48
-3172.64
-945.274
-2575.13
38066.7
34739.5
33404.1
32965.1
32691.1
32466.4
32219.6
32061.6
32040.4
32028.2
31920.1
31728.3
31502.2
31250
30943.8
30567.4
30156.1
29823
29704.3
29788.5
29943.1
30128.7
30359.9
30561.6
30605.3
30426.8
30089
29679.6
29321.5
28863.9
28278.6
27627.1
26891.8
26074.1
25180.3
24209.2
23175.9
22105.7
21067.4
20139.2
19416.2
18998.8
18944.2
18731.4
16480
12753.1
9194.09
6199.48
3616.77
1311.35
-692.784
-2598.6
-4356.6
-5932.48
-6554.74
-6504.48
-5073.12
-4541.29
-2315.86
-3658.13
39860.9
36533.6
35195.7
34802.4
34588.7
34428.4
34227.5
33951
33671.7
33534
33537
33526.4
33454.4
33357.9
33257
33130.1
32961.6
32751.8
32488.4
32210.8
31985.2
31753
31474.5
31172.5
30952
30826.8
30656.1
30315.1
29826
29355.1
28921.4
28415.9
27808.8
27113.6
26349.9
25537.4
24699.2
23797.3
22792.9
21687.1
20488.9
19204.2
17847.9
16336.3
14524.5
12421.5
10239.9
8138.27
6107.36
3975.56
1731.59
-438.908
-2337.78
-2892.9
-2851.51
-2711.2
-2028.47
-2637.82
-682.585
-6183.55
32600
32950.2
33139.9
33356.9
33482.1
33479.1
33428.4
33312.6
33172.4
33119.6
33149.5
33166.7
33115.5
33054.3
33004.5
32941.8
32843.5
32698
32476.9
32211.7
31975.4
31713.9
31390.6
31035.1
30754.3
30600.4
30412.3
30072.5
29608.3
29169.4
28756.8
28260.9
27652.8
26952.1
26180.1
25358.5
24510.6
23600.2
22589.8
21481.4
20282.3
18993.5
17629
16101.6
14262.7
12137.3
9968.13
7917.51
5943.06
3730.83
1217.95
-1126.35
-2905.74
-3659.2
-3555.22
-3279.86
-2448.1
-2940.68
-1056.24
-5629.17
33572.2
34489.3
34660.8
34518.4
34363.2
34287.6
34159.7
33859.9
33498.4
33281.2
33234.5
33216
33149.6
33068.8
32985.4
32872.7
32715.7
32513.4
32249.6
31960.3
31717.4
31465.6
31166
30839.6
30579.9
30434.8
30257.7
29936
29484.9
29040.5
28605
28090.8
27466.3
26748.9
25959.1
25121.8
24259.5
23337.9
22321.2
21215.6
20031
18769.8
17448.3
15951
14081.4
11862.8
9584.75
7411.29
5275.71
3019.23
797.641
-1139.3
-2440.67
-3089.5
-3163.32
-3242.25
-2891.42
-3659.34
-2108.13
-5995.98
33396.2
33732.5
33667.8
33467.5
33326.7
33224.4
33126.2
32978.9
32817.2
32746.3
32760.4
32766
32723
32669.9
32620.5
32554.3
32453
32303.2
32075.5
31800.4
31555.2
31292.6
30979.3
30637.7
30356.8
30185.3
29996.2
29683.2
29255.4
28826.3
28393.2
27888.9
27297
26613.1
25844.6
25018
24158.1
23238.9
22232.3
21151.5
20007.9
18799.2
17534
16058.7
14146.1
11864.6
9577.89
7442.46
5343.4
3085.61
845.435
-1142.77
-2500.49
-3230.81
-3380.67
-3427.63
-2957.04
-3361.71
-1878.64
-4407.86
33271.5
33574.5
33666.5
33582.5
33501.3
33438.1
33379.4
33207.9
32953.4
32784.8
32733.4
32715.4
32672.4
32623.8
32573.7
32500.6
32389.3
32227.3
31989
31704.8
31454.2
31191.1
30880.9
30539.4
30249.4
30063.9
29876.2
29568.8
29142.5
28699.6
28243.6
27721
27123
26440.8
25674.7
24840.8
23963.7
23028.6
22019.6
20960.4
19871.5
18760.6
17641.6
16268.8
14281.9
11781.2
9296.23
7026.71
4810.06
2524.83
439.465
-1230.74
-2441.42
-3184.33
-3392.97
-3553.37
-3291.88
-3702.27
-2458.65
-3649.94
33085.6
33402.6
33493
33412.7
33328.9
33259.6
33210.8
33054.8
32805.2
32625.6
32553.8
32524.3
32481.9
32432.6
32376.1
32295.3
32175.8
32002.3
31747
31441.8
31172.7
30899.8
30591.1
30259.6
29976.7
29789
29610.3
29318.5
28920.6
28501.6
28059.8
27547.3
26961.3
26292.3
25537.6
24705
23822.3
22881.3
21869.1
20816.9
19758
18719.9
17733.7
16496.5
14519.6
11886.4
9219.55
6757.54
4309.58
1769.19
-445.796
-2211.33
-3449.91
-4310.72
-4486.54
-4347.84
-3682.81
-3594.9
-2293.77
-2584.66
32830
33175.1
33057.6
32818.4
32655.8
32556.8
32520.7
32436
32291.5
32196.6
32171.2
32170.4
32158.1
32139.7
32118.5
32085
32024.9
31912.6
31709.2
31436.8
31184.3
30915.6
30601.4
30253.3
29942.3
29719.3
29517.8
29198.1
28779
28340.9
27884.1
27365.4
26783.2
26122.5
25372.4
24536
23641.7
22692
21679
20638
19599.4
18604.7
17720.1
16663.4
14843
12153.7
9363.04
6716.63
4160.52
1674.52
-522.715
-2316.13
-3748.28
-4810.62
-4990.22
-4770.37
-3894.11
-3508.92
-2132.2
-2171.85
32662.2
33684.6
33802.3
33612.7
33398.7
33211.3
33125.1
32955.5
32660.2
32411
32274.3
32212
32169.3
32122.6
32060.7
31969.4
31833.9
31635.4
31347.9
31006.8
30708.5
30419.8
30111
29789.3
29512.4
29315.8
29152.5
28862.2
28482.2
28076.6
27636.3
27121.8
26541.6
25885.5
25142.4
24299.8
23399.9
22434.8
21400.7
20347.7
19325.1
18438.4
17838.5
17115.2
15029.9
11712.4
8271.18
5216.04
2516.75
43.1152
-1980.23
-3697.06
-5154.96
-6342.36
-6733.62
-6205.64
-4843.64
-4083.88
-2531.34
-2290.4
31192.2
31620
31776.6
31934.5
32005.5
32023.7
32074.4
32058.2
31944
31843.2
31800.3
31794.9
31796.3
31791.5
31781.4
31764.4
31727
31635.6
31441.5
31162
30893.8
30606.8
30272.2
29904.1
29567.4
29306.3
29096
28753
28322.9
27886.2
27432.8
26925.3
26365.5
25729.3
24988
24176.2
23297.8
22350.1
21346.4
20362.5
19466.7
18816.6
18535.2
17998.4
15808.9
12321.9
8900.33
5899.95
3194.29
738.021
-1318.82
-3112.11
-4694.93
-6017.21
-6498.19
-6302.75
-4925.65
-3913.15
-2133.69
-2366.87
38260.8
34872.3
33460.9
33018.3
32727.7
32506.7
32422.3
32292.5
32060.1
31861.9
31753.1
31706.3
31676.4
31632.6
31565
31465.9
31322.7
31112.6
30809.2
30450.4
30138.1
29842.8
29542.9
29242.2
28993.2
28824.8
28702.4
28434.5
28076.1
27681.5
27230.7
26697.2
26098.2
25423.8
24656.8
23818.4
22925.7
21981.8
20994.5
20038.1
19217.9
18641.2
18423.6
17910.5
15394.7
11563.4
8043.83
5150.86
2638.46
341.24
-1627.19
-3381.94
-4908.22
-6176.6
-6641.75
-6393.39
-5093.32
-4244.43
-2579.46
-2751.26
)
;

boundaryField
{
    wall
    {
        type            calculated;
        value           nonuniform List<scalar> 
1200
(
39893.1
32614.8
33571.8
33366.7
33205.4
32981.6
32694.8
32473.1
31075.9
37969.4
36781.5
33080.7
34677.6
33814.8
33599.7
33361.2
33094.9
33442.6
31520.8
34672.3
35286.1
33180.8
34795.8
33693.2
33688
33474.5
33056.2
33630
31736.8
33375.4
34709.5
33275
34486.9
33385.7
33529.7
33334.5
32797.5
33443.6
31880.7
32938
34320.9
33266.4
34142.2
33141.9
33354.6
33175.8
32597.9
33229.2
31950
32672.6
33973.9
33110.6
33822
32910.7
33142.8
32987.1
32422.9
32999.8
31938
32446.8
33780.5
33029.1
33582.8
32725.1
32909.3
32737.1
32180.1
32659.8
31748.3
32118.3
33886.7
33228
33612.4
32823.7
32913
32697.3
32144.3
32482.6
31686.1
31945.4
34123.3
33566.4
33813.9
33125.9
33132.4
32888.9
32367.4
32559.9
31870.8
32029.9
34075.9
33612.2
33781
33206.1
33184.1
32957.7
32507
32607.8
32026.8
32111.2
33699.6
33296.1
33431.2
32951.5
32937.9
32752.2
32384.2
32446.5
31963.9
32003.9
33329.5
32966.9
33048.1
32619.4
32596.1
32425
32108.3
32139.8
31726
31739.7
33081
32728.4
32761.7
32361.1
32303.8
32115.3
31813.4
31796.3
31419.7
31415.5
32832.3
32479.7
32466.4
32087.7
31992.3
31779.7
31486.3
31416.3
31067.1
31059
32522.7
32159.3
32098.3
31738.5
31603
31362.6
31077.3
30951.8
30628.7
30633.1
32189.2
31802.8
31689
31338.9
31151.7
30867.9
30579.5
30387.3
30086.6
30117.4
31912.5
31490.7
31318.2
30961.4
30706.8
30359.9
30051.6
29782
29499.2
29571.2
31797.2
31335.1
31104.2
30728
30400.9
29984.3
29648
29307.2
29046.2
29175.9
31943
31448.9
31173.5
30776.5
30390.1
29914.8
29559.9
29174.5
28950.5
29150.1
32239.8
31734.5
31437
31029.5
30609.8
30100.4
29747
29353.9
29185.8
29457.3
32479.8
31983
31682.8
31275.1
30843.6
30320.5
29983.2
29612.1
29509.6
29846.4
32713.1
32237.1
31942.3
31535.2
31098.9
30567.6
30248.4
29916.9
29884.3
30273.1
32970.2
32530.7
32250.5
31850.2
31418.2
30884.3
30583.5
30305.4
30344.5
30770.8
33007.1
32628.8
32388.3
32023.8
31629.9
31126
30865.5
30666.2
30787.2
31224.8
32492.3
32207.6
32025.8
31729.3
31423
31009.5
30843.6
30769.8
30993.5
31415.8
31570.6
31341.4
31188.8
30951.7
30744
30455.5
30426.3
30512.2
30851.4
31232.4
30820
30584.4
30424.1
30196.4
30028.9
29814.3
29875.2
30071.3
30469.1
30785.1
30469.1
30245.7
30068
29814.8
29623.8
29409
29484.4
29717.1
30057.6
30303.8
30452.8
30259.7
30063.5
29781.8
29537.6
29272.6
29305
29537.8
29837.9
29946.2
30331.4
30191.8
29980.7
29700
29417.3
29095.6
29060.4
29261.2
29507.1
29457.1
29924.2
29842.3
29613.7
29362.9
29073.2
28717.4
28623.9
28787.1
28985.2
28804.1
29333.4
29305.5
29040.5
28832.6
28550.9
28180.7
28051.9
28191.6
28363.8
28093.6
28618.3
28644
28334.4
28170.7
27889.8
27507.6
27347.8
27464.8
27622.7
27289.9
27779.3
27851.2
27493.5
27361
27072.9
26698.4
26519.9
26618.7
26780.8
26400
26843.7
26954
26562.3
26449.8
26159.9
25800.3
25608.3
25690.6
25871.9
25442
25840.8
25978.2
25563.2
25460.5
25162.3
24814.8
24610.9
24660.4
24907.4
24404.6
24752.1
24905.5
24479.3
24382.4
24071.5
23736.2
23527
23561.3
23857.3
23300.7
23665.7
23827.7
23397.7
23306.3
22975.9
22644.4
22425.7
22443.3
22762.9
22165.9
22656.4
22828.8
22400.4
22323.4
21978.7
21647.9
21415
21410.6
21748.8
21099.9
21736.2
21928.6
21504.1
21453.2
21117
20800.2
20560.7
20539.9
20915.5
20183.1
20864.9
21092.2
20680.3
20668.1
20386.6
20116.3
19891.4
19879
20327.5
19507.5
19961.9
20238.5
19853.9
19884.5
19720.5
19546.5
19382.7
19447.3
20090.1
19176.3
18850.6
19181
18836.9
18905.9
18915.1
18889.3
18839.1
19078.2
20063.2
19219.1
17426.7
17807.8
17486.9
17575.5
17716.7
17865.1
18008.7
18433.7
19756.7
19163.3
15679.5
16111.3
15752
15830.6
15888.3
16079.7
16313.4
16368.9
17885.9
17029.6
13701.7
14199.8
13729.8
13798.8
13575.5
13662.5
13725.7
13135.4
14829.5
13336.1
11659.7
12265.5
11637.2
11726.1
11227
11128.4
11011.5
9866.13
11885.4
9750.6
9585.1
10382.1
9530.66
9637.46
8924.8
8610.68
8392.61
6961.98
9239.45
6708.4
7501.36
8615.23
7430.61
7491.76
6614.52
6011.3
5922.23
4317.66
6737.75
4096.97
5318.21
6723.85
5344.41
5235.1
4433.62
3422.51
3643.38
1875.13
4430.53
1793.27
2907.49
4403
3310.06
2956.33
2453.27
1166.95
1523.12
-156.809
2339.7
-225.587
381.183
1935.97
1415.38
841.629
716.765
-755.263
-419.103
-2061.06
242.235
-2205.6
-1917.16
-253.579
-68.0803
-652.895
-725.499
-2220.28
-2131.64
-3813.74
-1807.58
-4079.42
-2884.52
-1530.93
-1202.02
-1588.93
-1832.93
-3390.62
-3548.49
-5413.01
-3704.74
-5808.88
-3077.9
-1745.21
-1779.6
-1851.67
-2301.13
-3723.06
-3956.9
-6007.94
-4588
-6509.02
-3289.77
-1849.56
-2508.31
-2168.92
-2810.11
-3781.15
-4023.2
-5687.35
-4850.69
-6557.37
-2608.13
-986.601
-2380.26
-1667.87
-2553.36
-3000.55
-3071.4
-4207.35
-3339.22
-5059.84
-3815.09
-2063.46
-3863.98
-2646.4
-3459.93
-3284.26
-3068.38
-3889.41
-2801.07
-4685.23
-885.792
701.181
-1432.15
-448.632
-1554.58
-1409.18
-1166.82
-1765.56
-350.693
-2177.96
-8055.49
-5622.08
-7333.41
-5009.86
-4467.87
-3197.01
-2748.85
-3044.8
-2683.79
-4109.18
39850.5
32595.2
33572.5
33406.2
33293.7
33120.5
32875.2
32725.4
31231
38358.2
36450.2
32906.3
34426.1
33704.8
33566.1
33416.5
33202
33765.7
31653.3
34939.5
35165
33126
34615.3
33659.1
33659.2
33499.2
33058
33860
31790
33489.6
34832.9
33383.9
34528.3
33494.6
33599.9
33438.7
32825.3
33669.3
31952.6
33045.3
34677.8
33553.9
34436.5
33388.1
33549.9
33379.8
32674.9
33455.2
32024.1
32746.1
34580.5
33602.3
34442.9
33329.1
33536.4
33350.2
32601.1
33281.4
32051.8
32526.1
34377.4
33562.3
34352.8
33260.6
33536.6
33369.1
32634.4
33280.2
32183.2
32523.5
33973.1
33341.4
33943.3
33031.4
33307
33174.8
32533.9
33113.8
32182.8
32408.7
33520.7
33040.6
33393
32714.2
32893.9
32777.5
32266.5
32694
31968.8
32070.4
33352.4
32954.5
33113.8
32592.3
32651.2
32514.6
32092.9
32345.2
31782
31778.8
33482.3
33100.1
33168.2
32696.1
32664.7
32487.3
32099.9
32216.5
31745.5
31669.1
33591.9
33233
33271.7
32814.6
32754.8
32557
32190.8
32235.7
31817.5
31694.7
33578.9
33244.3
33278.7
32843.4
32795
32603.8
32272.8
32293.2
31921.5
31762.9
33533.2
33245.7
33269.6
32863.9
32834.2
32650.1
32357.4
32357.9
32032.9
31823.6
33502
33286.3
33281.2
32914.6
32897.4
32714.1
32465.8
32430.5
32165.8
31875.7
33444.1
33321.7
33267.7
32959.9
32950.9
32771.8
32587.6
32497.3
32324.3
31915.8
33311.6
33294.7
33182.2
32950.9
32951.1
32782.2
32684.1
32519.1
32470.8
31907.5
33070.3
33152.5
32983.7
32828.9
32837.3
32676.4
32669.2
32412.9
32500.1
31759.2
32669.9
32819.3
32608.4
32508.8
32522.8
32358.9
32426.9
32073.3
32272.6
31362.6
32200.4
32370.1
32134.3
32057
32069.8
31889.2
32000.5
31557.6
31820.3
30780.4
31819.9
31972.4
31728.6
31648.2
31657.6
31456.8
31584.8
31073.4
31354.1
30233.8
31433
31539.5
31306.7
31211.6
31221.8
31010.6
31138.1
30586.8
30846.4
29697.9
30975.9
31010.4
30804.4
30688.5
30701.5
30493.1
30607
30045.2
30246.5
29132
30560.1
30503
30322.5
30174.5
30174.7
29969.7
30048.1
29495.4
29607.7
28579.6
30437.5
30268.8
30096.9
29898
29856.7
29630.8
29640
29091
29089.7
28183.8
30578.9
30353.5
30183.7
29929.6
29836.6
29565.7
29481.9
28914.9
28789
28020.7
30602.6
30356.3
30203.6
29930.5
29825.7
29542
29397.4
28844.5
28637.3
28007.6
30265.3
30016.4
29893.6
29640.7
29551.2
29288.1
29101.1
28575.2
28316.5
27810.4
29617.8
29392
29293
29080.6
29010.9
28802.3
28601.3
28127.8
27816.1
27451.4
29029.6
28828.4
28727.1
28535
28459.7
28301.9
28098.3
27679.1
27344.5
27088.4
28586.8
28394.4
28268.5
28069.7
27966.2
27838.6
27634.5
27250.4
26914.7
26705.2
28109.8
27911.9
27773.6
27573.8
27443.4
27333.9
27133.4
26763.1
26445.5
26230.8
27538.6
27321.6
27176.3
27005.1
26866.3
26776.8
26591.6
26232.1
25946.2
25700.1
26891.5
26651.5
26500
26363.1
26228.9
26154.2
25986.4
25639.8
25378.4
25097.9
26185.1
25921.3
25757.3
25642.1
25511.7
25447
25289.8
24958.9
24692.5
24395.2
25436.1
25151.1
24973.9
24869.7
24732.4
24664.9
24506.4
24178.7
23930.5
23622.9
24681.7
24378.5
24185.6
24082.7
23926.8
23847.5
23675.1
23344.9
23109
22801
23841.7
23524.3
23317.6
23216.1
23045.6
22956.7
22775.9
22430.4
22210.4
21921.6
22839.2
22510.3
22294.6
22201.8
22032.9
21939.2
21762
21395.4
21210.2
20962.1
21671.5
21332.5
21119.1
21050.6
20907.7
20818.8
20658.8
20281.1
20176.1
19994.2
20364.2
20012.2
19813.9
19787.2
19699.1
19634.6
19497.2
19137.7
19177.4
19126.6
18951.8
18578
18407
18435.9
18439.2
18440
18341.3
18100.1
18389.3
18463.6
17513.9
17111
16983.8
17074.6
17215.3
17343.8
17345.4
17426.1
18023.3
18148.6
15973.3
15532.4
15438
15550.9
15784.6
16035.5
16216.1
16678.4
17407.1
17478.3
14140.3
13646.2
13523.9
13582.8
13745
13995.1
14356.3
14585.4
15109.7
14844.8
11995.4
11449.4
11239.6
11218.4
11181.2
11290.2
11633.1
11238.3
11478.7
10980.2
9766.7
9200.68
8898.82
8860.23
8650.45
8579.7
8815.9
7738.97
7899.67
7487.18
7655.46
7090.6
6701.63
6709.32
6391.99
6137.12
6159.14
4633.04
4784.26
4641.87
5642.19
5042.24
4552.12
4626.57
4207.01
3740.7
3575.04
1913.69
2013.98
2158.25
3528.67
2722.6
2236.37
2369.01
1887.27
1217.53
1020.13
-569.683
-489.611
-140.656
1342.32
150.592
-48.3435
141.042
-232.817
-983.426
-1203.32
-2589.02
-2533.86
-2094.33
-709.934
-2146.28
-1997.39
-1808.06
-1879.9
-2696.94
-2946.47
-4242.22
-4224.98
-3774.87
-2482.7
-3785.37
-3231.39
-3122.85
-3013.08
-3860.14
-4284.68
-5600.27
-5651.7
-5185.3
-2902.31
-4368.55
-3711.12
-3784.37
-3633.52
-4618.58
-5229.88
-6649.08
-6781.67
-6300.1
-2781.73
-4160.73
-3611.69
-3893.6
-3754
-4742.93
-5332.28
-6975.89
-7127.92
-6687.36
-2520.47
-3758.95
-3473.02
-3847.1
-3797.22
-4538.48
-5018.01
-6379.53
-6783.57
-6340.42
-1831.75
-2933.98
-3048.4
-3382.78
-3533.16
-3910.78
-4167.55
-5055.47
-5454.53
-5106.56
-2243.42
-3233.04
-3583.51
-3596.29
-3780.08
-3699
-3656.29
-4148.72
-4284.45
-4100.5
-603.815
-1632.29
-2322.71
-2347.43
-2756.24
-2587.94
-2454.23
-2787.02
-2728.05
-2717.4
-5570.07
-5637.13
-5555.85
-4207.41
-3378.76
-2380.35
-1980.3
-2037.27
-2258.03
-2300.26
)
;
    }
    inlet
    {
        type            calculated;
        value           nonuniform List<scalar> 
20
(
39882.7
32609.9
33572.1
33376.7
33227.6
33016.4
32740
32536.3
31114.8
38066.7
39860.9
32600
33572.2
33396.2
33271.5
33085.6
32830
32662.2
31192.2
38260.8
)
;
    }
    outlet
    {
        type            calculated;
        value           nonuniform List<scalar> 
20
(
-97.7429
-292.947
-488.081
-683.199
-878.343
-1073.6
-1269.04
-1464.83
-1661.22
-1858.54
-97.7423
-292.948
-488.083
-683.201
-878.344
-1073.6
-1269.04
-1464.82
-1661.21
-1858.54
)
;
    }
    heatWall
    {
        type            calculated;
        value           nonuniform List<scalar> 
240
(
37969.1
38163.3
34641.9
34774.8
33306.6
33363.3
32867.5
32920.7
32593.6
32630.2
32368.8
32409.1
32122
32324.7
31964
32195
31942.8
31962.5
31930.6
31764.3
31822.5
31655.5
31630.7
31608.7
31404.6
31578.8
31152.5
31535
30846.2
31467.4
30469.8
31368.3
30058.5
31225.1
29725.4
31015
29606.7
30711.6
29690.9
30352.8
29845.5
30040.5
30031.1
29745.2
30262.4
29445.3
30464
29144.7
30507.7
28895.6
30329.2
28727.3
29991.4
28604.8
29582
28336.9
29223.9
27978.5
28766.3
27583.9
28181
27133.1
27529.5
26599.6
26794.2
26000.6
25976.5
25326.2
25082.7
24559.2
24111.6
23720.8
23078.4
22828.1
22008.2
21884.2
20969.8
20896.9
20041.6
19940.5
19318.6
19120.3
18901.2
18543.6
18846.6
18325.9
18633.7
17812.8
16382.3
15297
12655.3
11465.7
9096.31
7946.05
6101.68
5053.06
3518.96
2540.66
1213.53
243.427
-790.602
-1725
-2696.43
-3479.76
-4454.42
-5006.04
-6030.3
-6274.43
-6652.56
-6739.57
-6602.3
-6491.21
-5170.94
-5191.15
-4639.11
-4342.25
-2413.67
-2677.28
-3755.95
-2849.07
39980.2
39958.5
36795.7
36631.1
35353
35293.3
34837.6
34899.9
34507.6
34686.3
34223.4
34526
34028
34325
34006.3
34048.6
34069.9
33769.3
33992
33631.6
33742.4
33634.6
33492.5
33624
33303
33552
33105.1
33455.5
32865.1
33354.6
32600.6
33227.7
32359.9
33059.1
32213.1
32849.4
32222
32586
32326.8
32308.4
32411.8
32082.8
32490.2
31850.6
32568.6
31572.1
32491.9
31270.1
32075.3
31049.6
31420.2
30924.4
30864
30753.7
30516.9
30412.7
30342.1
29923.6
30103.5
29452.7
29687.2
29019
29124.8
28513.5
28445.7
27906.3
27654.7
27211.2
26776.5
26447.5
25837.1
25634.9
24832.2
24796.8
23807.7
23894.9
22800.2
22890.5
21818.1
21784.7
20837.7
20586.5
19807.2
19301.8
18614.2
17945.5
17161.4
16433.9
15392.9
14622.1
13373.2
12519.1
11284.2
10337.5
9200.09
8235.86
7134.24
6204.95
4969.6
4073.16
2616.48
1829.2
208.155
-341.288
-1964.32
-2240.15
-2796.16
-2795.24
-2910.32
-2753.83
-3001.26
-2613.5
-2313.65
-1930.76
-3322.95
-2540.09
-709.308
-584.849
-7344.27
-6085.81
)
;
    }
}


// ************************************************************************* //
