/*--------------------------------*- C++ -*----------------------------------*\
  =========                 |
  \\      /  F ield         | OpenFOAM: The Open Source CFD Toolbox
   \\    /   O peration     | Website:  https://openfoam.org
    \\  /    A nd           | Version:  8
     \\/     M anipulation  |
\*---------------------------------------------------------------------------*/
FoamFile
{
    version     2.0;
    format      ascii;
    class       volVectorField;
    location    "1000";
    object      U;
}
// * * * * * * * * * * * * * * * * * * * * * * * * * * * * * * * * * * * * * //

dimensions      [0 1 -1 0 0 0 0];

internalField   nonuniform List<vector> 
1200
(
(16.021 -1.18061 0.015592)
(16.123 -0.902776 0.11995)
(16.1436 -0.748886 0.158127)
(16.1312 -0.647398 0.119847)
(16.1131 -0.576541 0.00865846)
(16.0915 -0.521919 -0.181384)
(16.0657 -0.47681 -0.36922)
(16.0384 -0.439579 -0.39729)
(16.0145 -0.410839 -0.208549)
(15.9983 -0.388586 0.0189774)
(15.987 -0.369687 0.0876582)
(15.9737 -0.354875 0.00536046)
(15.9577 -0.342174 -0.151262)
(15.9417 -0.331005 -0.371957)
(15.9258 -0.320544 -0.680345)
(15.9102 -0.309923 -1.07551)
(15.8955 -0.298728 -1.51596)
(15.8827 -0.287185 -1.91624)
(15.8728 -0.27585 -2.14304)
(15.8652 -0.265199 -2.1264)
(15.8581 -0.255549 -1.91341)
(15.8507 -0.247202 -1.50523)
(15.8444 -0.240928 -0.872155)
(15.8447 -0.237955 -0.0967366)
(15.8617 -0.233749 0.554936)
(15.8822 -0.229051 0.869019)
(15.893 -0.223237 0.936845)
(15.8929 -0.21765 0.998777)
(15.8911 -0.21223 1.26006)
(15.8984 -0.207051 1.66869)
(15.9172 -0.20193 2.0881)
(15.946 -0.196617 2.47106)
(15.9837 -0.191106 2.80809)
(16.0294 -0.185322 3.08431)
(16.0814 -0.179325 3.28831)
(16.1384 -0.173112 3.41288)
(16.1988 -0.166891 3.43265)
(16.2598 -0.160884 3.37478)
(16.3204 -0.155267 3.31334)
(16.3821 -0.150035 3.32655)
(16.4491 -0.144992 3.47173)
(16.5297 -0.13969 3.77052)
(16.6345 -0.133745 4.16542)
(16.7714 -0.126834 4.59025)
(16.939 -0.118752 5.03347)
(17.125 -0.110865 5.51844)
(17.3183 -0.107991 6.05456)
(17.5206 -0.118626 6.61)
(17.7504 -0.145714 7.17039)
(18.0197 -0.170211 7.73898)
(18.304 -0.169719 8.24751)
(18.54 -0.138948 8.61187)
(18.6916 -0.0554701 8.8827)
(18.7561 0.0665864 9.23602)
(18.692 0.203447 9.71126)
(18.4168 0.328755 10.1321)
(17.9289 0.424235 10.4621)
(17.1915 0.483588 10.4041)
(16.4959 0.527919 10.4973)
(15.4605 0.493405 9.87498)
(16.0281 0.415544 0.00130152)
(16.0113 0.535087 0.0548385)
(16.0036 0.532639 0.0722477)
(15.9985 0.510419 0.038786)
(16.0003 0.48553 -0.0504389)
(16.004 0.458708 -0.203362)
(16.0022 0.4324 -0.369392)
(15.9965 0.409667 -0.404072)
(15.9938 0.391769 -0.23807)
(16.0003 0.377286 -0.0306992)
(16.013 0.363651 0.0316997)
(16.0241 0.351249 -0.0509466)
(16.0321 0.340617 -0.211471)
(16.0384 0.331222 -0.449832)
(16.0423 0.322117 -0.80079)
(16.0439 0.312394 -1.27418)
(16.0451 0.301572 -1.8364)
(16.0488 0.28971 -2.40204)
(16.0575 0.27736 -2.82581)
(16.0706 0.26549 -3.01654)
(16.0859 0.254751 -3.00313)
(16.1027 0.245765 -2.77465)
(16.1221 0.238812 -2.2901)
(16.1458 0.233252 -1.61818)
(16.1739 0.227687 -1.00676)
(16.2013 0.222161 -0.693255)
(16.2199 0.219139 -0.617137)
(16.2311 0.216463 -0.541772)
(16.2425 0.211817 -0.270112)
(16.2602 0.203859 0.154431)
(16.2891 0.193843 0.606453)
(16.3275 0.183096 1.04306)
(16.3742 0.172212 1.45919)
(16.4286 0.161897 1.83905)
(16.4893 0.151951 2.16916)
(16.5555 0.142443 2.43792)
(16.6255 0.133355 2.61602)
(16.6964 0.12454 2.72597)
(16.7668 0.115207 2.83945)
(16.8376 0.103919 3.03475)
(16.9128 0.0882457 3.37239)
(17.0007 0.065197 3.87891)
(17.1128 0.0329643 4.49919)
(17.2582 -0.00485363 5.16862)
(17.4358 -0.0391634 5.88294)
(17.6327 -0.062474 6.68145)
(17.84 -0.0728625 7.62273)
(18.0848 -0.0702466 8.83135)
(18.4454 -0.0585813 10.5551)
(18.9462 -0.0523533 12.8659)
(19.4455 -0.0540147 15.3179)
(19.7595 -0.0391901 17.3141)
(19.8183 0.029819 18.5539)
(19.6603 0.14291 19.0738)
(19.3704 0.265419 19.1922)
(18.9924 0.354552 19.0707)
(18.5996 0.384482 18.9165)
(18.1603 0.338882 18.5748)
(17.8736 0.250263 18.4705)
(17.4164 0.0767808 17.8436)
(15.9563 -0.079427 0.000765411)
(15.92 -0.167103 0.0817322)
(15.9242 -0.236081 0.13987)
(15.9409 -0.272941 0.127735)
(15.9567 -0.290536 0.0357159)
(15.9678 -0.301347 -0.160043)
(15.9739 -0.30534 -0.403953)
(15.9786 -0.304164 -0.509762)
(15.986 -0.301348 -0.377808)
(15.9986 -0.2996 -0.16735)
(16.0145 -0.300451 -0.0837321)
(16.0278 -0.300838 -0.153144)
(16.0376 -0.300268 -0.314717)
(16.0456 -0.298709 -0.565805)
(16.0522 -0.296383 -0.935297)
(16.0576 -0.293377 -1.42786)
(16.0632 -0.289683 -2.00868)
(16.0709 -0.285464 -2.5935)
(16.0826 -0.280758 -3.03797)
(16.0972 -0.275529 -3.25002)
(16.113 -0.269802 -3.25775)
(16.1294 -0.263719 -3.05346)
(16.1481 -0.257925 -2.59777)
(16.1705 -0.253598 -1.95037)
(16.1965 -0.251371 -1.34725)
(16.2214 -0.249661 -1.03298)
(16.2385 -0.246493 -0.963448)
(16.2507 -0.242369 -0.90947)
(16.2652 -0.238471 -0.672254)
(16.2865 -0.234522 -0.287073)
(16.3165 -0.229777 0.125696)
(16.3561 -0.225178 0.514892)
(16.4042 -0.22095 0.871283)
(16.4593 -0.216368 1.17802)
(16.5195 -0.211289 1.42805)
(16.5842 -0.205498 1.61343)
(16.6517 -0.199257 1.70969)
(16.7192 -0.193063 1.7415)
(16.7851 -0.188054 1.78107)
(16.8502 -0.185751 1.9044)
(16.9174 -0.188311 2.17144)
(16.9942 -0.19792 2.61042)
(17.092 -0.215811 3.16519)
(17.2223 -0.237321 3.76712)
(17.3865 -0.251159 4.40852)
(17.5727 -0.24893 5.11804)
(17.7691 -0.227901 5.90381)
(17.9769 -0.180251 6.7458)
(18.2115 -0.0980785 7.67916)
(18.4927 -0.00635734 8.82262)
(18.8346 0.0527244 10.2362)
(19.2324 0.0801814 11.836)
(19.6469 0.123154 13.3973)
(19.9904 0.233395 14.6266)
(20.1886 0.397367 15.4049)
(20.2005 0.555299 15.6853)
(20.069 0.665542 15.6536)
(19.7635 0.692048 15.2279)
(19.4641 0.685189 14.9357)
(18.8316 0.565762 13.9533)
(15.9914 -0.00553258 -0.0120236)
(15.9816 0.0422469 0.0222958)
(15.993 0.0925696 0.0330376)
(16.0074 0.133208 -0.000957208)
(16.0185 0.162958 -0.0777519)
(16.0271 0.187923 -0.208554)
(16.0297 0.212298 -0.37651)
(16.0267 0.233874 -0.442209)
(16.0248 0.249962 -0.313488)
(16.0302 0.26021 -0.121051)
(16.0421 0.26579 -0.0408839)
(16.0536 0.269667 -0.101826)
(16.0624 0.273567 -0.252442)
(16.0694 0.277322 -0.494757)
(16.0744 0.279956 -0.862089)
(16.0771 0.28014 -1.36888)
(16.0793 0.276522 -1.99189)
(16.0839 0.268668 -2.65136)
(16.0937 0.257537 -3.19696)
(16.1079 0.244981 -3.52253)
(16.1241 0.232517 -3.64425)
(16.1418 0.22122 -3.54995)
(16.162 0.211386 -3.19555)
(16.1851 0.202459 -2.62712)
(16.2101 0.193646 -2.06433)
(16.2327 0.185339 -1.75368)
(16.2493 0.179206 -1.67893)
(16.264 0.175702 -1.63437)
(16.2825 0.173362 -1.42828)
(16.3077 0.171364 -1.08011)
(16.3396 0.169498 -0.693351)
(16.3771 0.167012 -0.317714)
(16.4211 0.163133 0.029144)
(16.4727 0.157001 0.323386)
(16.5299 0.149184 0.558005)
(16.5918 0.141113 0.725273)
(16.6564 0.133722 0.80319)
(16.7204 0.127364 0.816942)
(16.782 0.120616 0.839149)
(16.8415 0.110206 0.943301)
(16.9021 0.0907097 1.18468)
(16.9711 0.0553448 1.5833)
(17.06 -0.00146627 2.07429)
(17.1806 -0.0720999 2.59426)
(17.3344 -0.132874 3.15382)
(17.5078 -0.166151 3.79639)
(17.689 -0.173464 4.52311)
(17.8799 -0.159108 5.28683)
(18.0927 -0.124599 6.0681)
(18.334 -0.081847 6.90292)
(18.5981 -0.0431472 7.8172)
(18.8806 -0.00469124 8.84308)
(19.2085 0.0578423 10.024)
(19.5996 0.15123 11.284)
(20.0093 0.263841 12.4652)
(20.3351 0.357326 13.3221)
(20.5359 0.404336 13.8648)
(20.5358 0.367874 13.9361)
(20.4608 0.314976 14.0038)
(20.1017 0.0804075 13.3228)
(15.9903 -0.00246301 -0.0257977)
(15.9763 -0.00152644 -0.015107)
(15.9777 -0.0166468 -0.00579301)
(15.9863 -0.0433393 -0.0276017)
(15.9951 -0.0756258 -0.0887151)
(16.0037 -0.110539 -0.212133)
(16.0087 -0.143967 -0.40946)
(16.0102 -0.172305 -0.533953)
(16.0136 -0.193852 -0.45955)
(16.0226 -0.210715 -0.292187)
(16.0357 -0.226501 -0.20614)
(16.0477 -0.241184 -0.255525)
(16.0568 -0.253128 -0.409041)
(16.0639 -0.262694 -0.672234)
(16.069 -0.270489 -1.07697)
(16.0727 -0.276469 -1.64)
(16.0764 -0.280512 -2.34361)
(16.0827 -0.28263 -3.11029)
(16.0941 -0.282754 -3.78556)
(16.1094 -0.280773 -4.25323)
(16.1265 -0.276973 -4.52191)
(16.1451 -0.271921 -4.57834)
(16.1662 -0.266618 -4.3753)
(16.1898 -0.2623 -3.94176)
(16.2133 -0.259759 -3.47175)
(16.2336 -0.258329 -3.20599)
(16.2512 -0.256683 -3.16057)
(16.2711 -0.253895 -3.15873)
(16.2966 -0.250915 -3.01858)
(16.328 -0.248014 -2.74646)
(16.3644 -0.245068 -2.42894)
(16.4055 -0.242055 -2.11168)
(16.4516 -0.239027 -1.82089)
(16.5026 -0.236712 -1.58635)
(16.5579 -0.235354 -1.4134)
(16.6168 -0.233774 -1.30882)
(16.6782 -0.231288 -1.29275)
(16.7408 -0.227454 -1.34348)
(16.8043 -0.223122 -1.39163)
(16.8687 -0.220995 -1.36406)
(16.9339 -0.225794 -1.19993)
(17.0016 -0.24375 -0.871125)
(17.0804 -0.280943 -0.439752)
(17.1854 -0.33257 0.0307963)
(17.3331 -0.37727 0.527723)
(17.5038 -0.391563 1.07702)
(17.6781 -0.372196 1.675)
(17.8534 -0.321808 2.27207)
(18.0316 -0.240732 2.85719)
(18.2108 -0.139287 3.50991)
(18.3865 -0.0397565 4.23444)
(18.5585 0.0485367 4.9973)
(18.7445 0.145703 5.77593)
(18.9748 0.266949 6.56976)
(19.2818 0.399124 7.42495)
(19.638 0.510386 8.23353)
(20.0105 0.588042 8.99381)
(20.2903 0.603022 9.45096)
(20.5317 0.613598 9.96471)
(20.5508 0.458261 9.74856)
(15.9902 0.0065164 -0.0402422)
(15.9758 0.0116373 -0.0575709)
(15.9764 0.0286927 -0.0650966)
(15.9842 0.0550585 -0.0975271)
(15.9924 0.085281 -0.161256)
(16.0009 0.115991 -0.27487)
(16.0067 0.148327 -0.473377)
(16.0093 0.17979 -0.623976)
(16.0135 0.205394 -0.589491)
(16.0225 0.223087 -0.450343)
(16.0351 0.234161 -0.366892)
(16.0469 0.242209 -0.407817)
(16.056 0.249751 -0.560296)
(16.0632 0.256664 -0.832215)
(16.0691 0.261971 -1.25487)
(16.0739 0.264578 -1.85125)
(16.079 0.263143 -2.61238)
(16.0868 0.256957 -3.46316)
(16.0998 0.246911 -4.24338)
(16.1166 0.23507 -4.82541)
(16.1348 0.223139 -5.21085)
(16.1542 0.212089 -5.38796)
(16.1756 0.201944 -5.31161)
(16.1986 0.192123 -4.99943)
(16.2209 0.182188 -4.61755)
(16.2403 0.17303 -4.38879)
(16.2588 0.165745 -4.35669)
(16.2813 0.161705 -4.37863)
(16.3096 0.159231 -4.29767)
(16.3434 0.157205 -4.11975)
(16.3826 0.154999 -3.91746)
(16.427 0.151972 -3.72619)
(16.4773 0.147721 -3.57176)
(16.5336 0.141384 -3.4762)
(16.596 0.133395 -3.44094)
(16.6638 0.125337 -3.46942)
(16.7361 0.117923 -3.57905)
(16.8125 0.111378 -3.75136)
(16.892 0.104784 -3.91849)
(16.973 0.0954435 -4.0041)
(17.0541 0.0783331 -3.94045)
(17.1369 0.0452882 -3.69215)
(17.2347 -0.0149826 -3.317)
(17.3707 -0.103147 -2.85905)
(17.5474 -0.194601 -2.3214)
(17.7352 -0.259113 -1.69138)
(17.9077 -0.290801 -1.00133)
(18.0645 -0.289977 -0.32233)
(18.2226 -0.266755 0.306185)
(18.3824 -0.231747 0.915393)
(18.5325 -0.185487 1.50227)
(18.6661 -0.123602 2.01965)
(18.783 -0.0360288 2.48055)
(18.8885 0.0755638 2.90733)
(19.0021 0.189105 3.37958)
(19.1371 0.270136 3.87477)
(19.3271 0.298732 4.46175)
(19.5213 0.259745 4.90778)
(19.7642 0.21043 5.51004)
(19.9167 0.0659959 5.48734)
(15.9919 0.0078968 -0.0524634)
(15.982 -0.0354372 -0.086969)
(15.9921 -0.0832661 -0.0886146)
(16.0059 -0.125551 -0.0984562)
(16.0161 -0.161002 -0.123668)
(16.0251 -0.190426 -0.18039)
(16.0304 -0.214035 -0.323766)
(16.0294 -0.231372 -0.447239)
(16.0276 -0.242938 -0.417091)
(16.0309 -0.2513 -0.288517)
(16.0399 -0.259257 -0.200542)
(16.0505 -0.266837 -0.22748)
(16.0596 -0.27249 -0.372452)
(16.0664 -0.276376 -0.646345)
(16.0704 -0.278946 -1.0826)
(16.0718 -0.28014 -1.71425)
(16.0725 -0.279804 -2.54496)
(16.076 -0.277783 -3.50443)
(16.0858 -0.273783 -4.42486)
(16.1011 -0.267546 -5.16204)
(16.1189 -0.259343 -5.70444)
(16.1389 -0.249985 -6.03469)
(16.1616 -0.240764 -6.10383)
(16.1864 -0.233111 -5.91609)
(16.2103 -0.227898 -5.60998)
(16.2317 -0.224201 -5.38774)
(16.2538 -0.221189 -5.3177)
(16.281 -0.21692 -5.28569)
(16.314 -0.21307 -5.16094)
(16.3522 -0.209863 -4.9609)
(16.3954 -0.207098 -4.75695)
(16.444 -0.204949 -4.57941)
(16.4989 -0.203613 -4.45701)
(16.5611 -0.203685 -4.40905)
(16.6311 -0.205328 -4.43308)
(16.708 -0.207042 -4.52682)
(16.7905 -0.208702 -4.69907)
(16.8773 -0.209271 -4.93292)
(16.9667 -0.208792 -5.1626)
(17.0555 -0.209577 -5.305)
(17.1401 -0.217305 -5.2696)
(17.2194 -0.244043 -4.98471)
(17.3055 -0.306523 -4.48411)
(17.4264 -0.39923 -3.81217)
(17.5939 -0.465262 -3.03897)
(17.7799 -0.470754 -2.2087)
(17.9546 -0.423092 -1.34782)
(18.1128 -0.342887 -0.482852)
(18.2664 -0.252987 0.394001)
(18.4281 -0.169733 1.30772)
(18.593 -0.0981359 2.201)
(18.7542 -0.0205285 2.96718)
(18.8993 0.0889234 3.51661)
(19.0099 0.242114 3.79279)
(19.1002 0.398295 3.97162)
(19.1748 0.507175 4.07465)
(19.2713 0.555575 4.23924)
(19.3662 0.551502 4.30677)
(19.5125 0.525138 4.57205)
(19.6252 0.465923 4.32045)
(15.9568 0.0849607 -0.0708405)
(15.9207 0.175072 -0.171743)
(15.922 0.243941 -0.243978)
(15.9353 0.280945 -0.315393)
(15.9493 0.297991 -0.387073)
(15.963 0.304391 -0.47604)
(15.9739 0.306056 -0.67196)
(15.9818 0.305834 -0.871793)
(15.9908 0.304488 -0.915167)
(16.0027 0.301767 -0.833315)
(16.0159 0.297387 -0.761199)
(16.0276 0.292276 -0.791142)
(16.0365 0.287619 -0.94677)
(16.0435 0.283177 -1.24201)
(16.0499 0.278315 -1.70634)
(16.0565 0.272459 -2.37048)
(16.0641 0.264932 -3.2357)
(16.0749 0.255467 -4.22485)
(16.0909 0.24487 -5.15962)
(16.1105 0.234698 -5.88542)
(16.1308 0.226092 -6.38646)
(16.1516 0.219541 -6.64723)
(16.1737 0.214732 -6.6228)
(16.1964 0.210903 -6.31522)
(16.2179 0.207513 -5.84614)
(16.2369 0.204985 -5.39879)
(16.2568 0.203248 -5.06558)
(16.2812 0.204862 -4.75724)
(16.3101 0.207006 -4.36281)
(16.3438 0.208945 -3.9117)
(16.382 0.210163 -3.47203)
(16.4245 0.209619 -3.06357)
(16.4717 0.206906 -2.71363)
(16.5237 0.201956 -2.44035)
(16.5811 0.195617 -2.24204)
(16.6431 0.186601 -2.11923)
(16.7084 0.175951 -2.0771)
(16.7762 0.164864 -2.09595)
(16.8446 0.152311 -2.1109)
(16.91 0.133441 -2.04401)
(16.9671 0.0989914 -1.81422)
(17.0099 0.0320728 -1.36846)
(17.0503 -0.0839922 -0.76855)
(17.1388 -0.237319 -0.0367875)
(17.3288 -0.368293 0.82171)
(17.5811 -0.446131 1.82364)
(17.8444 -0.486585 2.97688)
(18.1004 -0.50459 4.23079)
(18.3483 -0.507788 5.50803)
(18.5864 -0.504316 6.76528)
(18.8154 -0.500502 7.94988)
(19.038 -0.480001 8.93116)
(19.2531 -0.423026 9.57816)
(19.4401 -0.315252 9.75924)
(19.588 -0.180013 9.50973)
(19.7099 -0.0574672 9.02415)
(19.8463 -0.0071783 8.63061)
(19.9775 -0.0207584 8.18227)
(20.1483 -0.0818823 8.01037)
(20.2776 -0.108077 7.41294)
(16.0269 -0.416287 -0.0489711)
(16.0073 -0.530077 -0.0932709)
(15.9973 -0.527168 -0.11175)
(15.9914 -0.504726 -0.13561)
(15.99 -0.47813 -0.15975)
(15.9934 -0.451112 -0.195735)
(15.9967 -0.424043 -0.332097)
(15.9953 -0.397943 -0.488105)
(15.9934 -0.375335 -0.519266)
(15.9959 -0.35763 -0.442858)
(16.0035 -0.344365 -0.374616)
(16.013 -0.333661 -0.403404)
(16.0211 -0.323612 -0.560708)
(16.0267 -0.313582 -0.863547)
(16.0295 -0.303357 -1.346)
(16.0301 -0.292726 -2.04962)
(16.0299 -0.281703 -2.98702)
(16.0328 -0.270368 -4.0822)
(16.0428 -0.258626 -5.14301)
(16.0588 -0.246319 -5.99128)
(16.0777 -0.233521 -6.59182)
(16.0989 -0.220803 -6.91347)
(16.1228 -0.209114 -6.89722)
(16.1481 -0.199618 -6.53325)
(16.1724 -0.193272 -5.9321)
(16.194 -0.190084 -5.27216)
(16.2168 -0.189814 -4.68034)
(16.2432 -0.190079 -4.11318)
(16.2718 -0.191194 -3.45499)
(16.3034 -0.192131 -2.75233)
(16.3377 -0.191995 -2.08093)
(16.3749 -0.191014 -1.4612)
(16.4165 -0.1892 -0.920969)
(16.4635 -0.186793 -0.469408)
(16.5165 -0.183484 -0.0907299)
(16.5751 -0.18021 0.227644)
(16.6384 -0.176957 0.479049)
(16.7029 -0.173716 0.673329)
(16.7628 -0.170558 0.865842)
(16.8126 -0.168973 1.12558)
(16.8453 -0.175121 1.52558)
(16.8586 -0.20177 2.1439)
(16.8947 -0.275197 3.00631)
(17.0705 -0.380381 4.25032)
(17.4254 -0.438494 5.96197)
(17.8445 -0.426145 8.10591)
(18.232 -0.371815 10.584)
(18.5604 -0.30493 13.1803)
(18.8067 -0.248952 15.5981)
(18.9425 -0.222207 17.6198)
(18.9566 -0.217053 19.1132)
(18.8637 -0.213651 20.0219)
(18.7023 -0.190012 20.3738)
(18.5182 -0.131182 20.2242)
(18.36 -0.0381424 19.7462)
(18.2376 0.0657859 19.0376)
(18.1499 0.126182 18.4169)
(18.0194 0.152415 17.7682)
(17.866 0.147855 17.5198)
(17.6245 0.184632 16.5684)
(16.0238 1.17537 -0.108006)
(16.127 0.905164 -0.190518)
(16.1436 0.755106 -0.226215)
(16.1296 0.651407 -0.260183)
(16.1111 0.574972 -0.283697)
(16.0921 0.516435 -0.308661)
(16.0714 0.468744 -0.435488)
(16.0475 0.429069 -0.580874)
(16.0242 0.397386 -0.593998)
(16.0045 0.372904 -0.489954)
(15.9886 0.353587 -0.384851)
(15.9744 0.337655 -0.370603)
(15.9597 0.324077 -0.479741)
(15.9443 0.311903 -0.720324)
(15.9292 0.300204 -1.11184)
(15.9149 0.288299 -1.67953)
(15.9024 0.275877 -2.41917)
(15.8933 0.263067 -3.24043)
(15.8894 0.250394 -3.94726)
(15.8888 0.238493 -4.37179)
(15.8883 0.227678 -4.4969)
(15.8866 0.21789 -4.31377)
(15.8839 0.208776 -3.79154)
(15.8805 0.200723 -2.94975)
(15.8769 0.193977 -1.92353)
(15.8753 0.188628 -0.906987)
(15.8826 0.18587 -0.0315132)
(15.8919 0.179078 0.758283)
(15.9042 0.171303 1.5546)
(15.9255 0.164445 2.31898)
(15.9549 0.15879 3.00625)
(15.9914 0.153533 3.62777)
(16.0359 0.148426 4.17192)
(16.0884 0.14348 4.63275)
(16.1485 0.139277 5.01664)
(16.215 0.138539 5.3208)
(16.2851 0.139772 5.53687)
(16.354 0.142423 5.66481)
(16.4134 0.146735 5.74026)
(16.4538 0.151537 5.80776)
(16.4719 0.150835 5.94605)
(16.5027 0.126061 6.358)
(16.6996 0.0389328 7.44032)
(17.2119 -0.0910358 9.58311)
(17.8165 -0.172941 12.2992)
(18.1618 -0.191151 14.7132)
(18.1581 -0.190487 16.4367)
(17.8814 -0.214636 17.54)
(17.409 -0.274929 18.251)
(16.7762 -0.352537 18.77)
(15.9962 -0.425161 19.1561)
(15.0895 -0.476205 19.347)
(14.1065 -0.496367 19.2778)
(13.13 -0.480981 18.9041)
(12.2792 -0.438774 18.3988)
(11.6348 -0.376241 17.8288)
(11.2598 -0.308567 17.5797)
(11.0489 -0.257749 17.3081)
(11.0247 -0.252615 17.777)
(10.9203 -0.301004 17.2207)
(16.0234 -1.18173 0.00741905)
(16.1249 -0.911605 0.110004)
(16.1395 -0.761489 0.148203)
(16.1227 -0.659535 0.110405)
(16.101 -0.584081 -0.000446411)
(16.0808 -0.519368 -0.18914)
(16.0648 -0.464799 -0.375245)
(16.0507 -0.423135 -0.401966)
(16.0326 -0.395225 -0.212623)
(16.0076 -0.377006 0.0150551)
(15.9817 -0.361888 0.0841611)
(15.9599 -0.347545 0.00209467)
(15.942 -0.333076 -0.154018)
(15.9261 -0.318993 -0.373966)
(15.912 -0.305565 -0.681543)
(15.9009 -0.292822 -1.07602)
(15.8927 -0.2807 -1.51599)
(15.8875 -0.269121 -1.91597)
(15.8839 -0.25814 -2.14243)
(15.8787 -0.247781 -2.12535)
(15.8719 -0.238217 -1.9121)
(15.8663 -0.229878 -1.504)
(15.8623 -0.223648 -0.871388)
(15.8566 -0.220167 -0.0972522)
(15.8511 -0.221784 0.55342)
(15.8564 -0.22292 0.867039)
(15.8692 -0.221069 0.934434)
(15.8834 -0.21817 0.99659)
(15.8933 -0.216388 1.25831)
(15.9009 -0.215145 1.66732)
(15.9154 -0.212865 2.08672)
(15.9413 -0.209167 2.46948)
(15.9775 -0.20431 2.8063)
(16.0223 -0.198706 3.08233)
(16.0737 -0.192675 3.28623)
(16.13 -0.186385 3.41075)
(16.1902 -0.180032 3.43068)
(16.2525 -0.173866 3.37328)
(16.3156 -0.168092 3.31258)
(16.3798 -0.162781 3.32665)
(16.4479 -0.157765 3.47268)
(16.5267 -0.152559 3.77222)
(16.6272 -0.14674 4.16794)
(16.7596 -0.139921 4.59395)
(16.9243 -0.131806 5.03873)
(17.109 -0.123707 5.52524)
(17.3013 -0.120252 6.06204)
(17.5019 -0.129382 6.6164)
(17.7282 -0.154553 7.17427)
(17.9932 -0.178726 7.74152)
(18.2757 -0.179946 8.25239)
(18.516 -0.153315 8.61812)
(18.6734 -0.0786401 8.87056)
(18.7455 0.0366736 9.186)
(18.6982 0.170043 9.62992)
(18.451 0.296021 10.0399)
(17.9947 0.395198 10.3824)
(17.2864 0.459171 10.3467)
(16.6021 0.50724 10.4688)
(15.5735 0.474233 9.85459)
(16.0298 0.414206 0.00904414)
(16.0129 0.531529 0.0660528)
(16.001 0.531758 0.0846772)
(15.9917 0.512486 0.0516114)
(15.9892 0.489416 -0.0377405)
(15.9921 0.461323 -0.192072)
(15.998 0.42926 -0.36032)
(16.0058 0.400551 -0.396965)
(16.0111 0.379288 -0.232088)
(16.0112 0.3647 -0.0250846)
(16.0097 0.354487 0.037061)
(16.0109 0.344876 -0.0458749)
(16.0147 0.335149 -0.207041)
(16.0186 0.324652 -0.446307)
(16.0226 0.313335 -0.798242)
(16.0283 0.301392 -1.27242)
(16.0367 0.288885 -1.83511)
(16.0489 0.276028 -2.40089)
(16.0648 0.263362 -2.82436)
(16.081 0.251717 -3.01435)
(16.097 0.241586 -3.00022)
(16.1154 0.233158 -2.77136)
(16.1364 0.226548 -2.2866)
(16.1559 0.221934 -1.61438)
(16.169 0.220407 -1.0024)
(16.1796 0.220494 -0.688465)
(16.196 0.221052 -0.611991)
(16.2208 0.220057 -0.536627)
(16.2482 0.216062 -0.265375)
(16.2725 0.209423 0.157368)
(16.297 0.200741 0.606494)
(16.3295 0.190509 1.04023)
(16.3719 0.179636 1.45401)
(16.4234 0.169023 1.83212)
(16.4822 0.159007 2.16093)
(16.5469 0.14958 2.42865)
(16.6162 0.140771 2.60602)
(16.6885 0.132326 2.71562)
(16.762 0.123417 2.8291)
(16.836 0.112498 3.02465)
(16.9128 0.0972519 3.36271)
(16.9992 0.0748647 3.86973)
(17.1069 0.0432674 4.49068)
(17.2476 0.00553971 5.16087)
(17.4222 -0.0294159 5.87551)
(17.6177 -0.0539851 6.67225)
(17.8238 -0.0661716 7.60394)
(18.0636 -0.0654898 8.78277)
(18.4122 -0.0547129 10.4534)
(18.9027 -0.0476018 12.7209)
(19.4063 -0.0491632 15.1775)
(19.7377 -0.0374343 17.2192)
(19.8167 0.0247628 18.5168)
(19.6734 0.13338 19.0762)
(19.3927 0.255071 19.2095)
(19.0207 0.34782 19.0893)
(18.6303 0.38455 18.9343)
(18.1915 0.346548 18.5913)
(17.8996 0.264324 18.4951)
(17.4357 0.0895202 17.8695)
(15.9591 -0.0811437 -0.00252058)
(15.9245 -0.170431 0.0756666)
(15.9239 -0.239324 0.132357)
(15.9345 -0.275513 0.119444)
(15.9432 -0.29119 0.0266695)
(15.9509 -0.299188 -0.168736)
(15.9652 -0.30351 -0.411115)
(15.9858 -0.30545 -0.515347)
(16.0033 -0.305893 -0.382583)
(16.011 -0.305138 -0.171964)
(16.013 -0.303382 -0.0881744)
(16.0161 -0.300898 -0.157099)
(16.0212 -0.299134 -0.317776)
(16.0271 -0.298107 -0.567665)
(16.0341 -0.297113 -0.935902)
(16.0435 -0.295593 -1.42744)
(16.0558 -0.293465 -2.00764)
(16.0713 -0.290589 -2.59219)
(16.0896 -0.286808 -3.0364)
(16.1071 -0.281916 -3.24795)
(16.1233 -0.276101 -3.25523)
(16.1411 -0.270044 -3.05074)
(16.161 -0.264603 -2.59491)
(16.1795 -0.260113 -1.94718)
(16.1925 -0.255617 -1.34351)
(16.2031 -0.249941 -1.02866)
(16.2195 -0.244401 -0.958992)
(16.2444 -0.240996 -0.905367)
(16.2726 -0.24029 -0.668883)
(16.2999 -0.240172 -0.284929)
(16.3281 -0.237769 0.125943)
(16.3615 -0.232937 0.5131)
(16.4035 -0.227996 0.867665)
(16.4541 -0.223157 1.17285)
(16.5116 -0.217795 1.42162)
(16.5742 -0.211666 1.60596)
(16.6407 -0.20489 1.70142)
(16.71 -0.198088 1.7327)
(16.7802 -0.192364 1.77196)
(16.8502 -0.189356 1.89507)
(16.9207 -0.191115 2.16183)
(16.9966 -0.199717 2.60039)
(17.0896 -0.216665 3.15494)
(17.2143 -0.237619 3.7573)
(17.3746 -0.251533 4.3995)
(17.5585 -0.250166 5.10925)
(17.753 -0.231316 5.89332)
(17.9587 -0.187707 6.72982)
(18.1905 -0.110195 7.65132)
(18.4669 -0.0196269 8.77477)
(18.8015 0.04218 10.1642)
(19.1919 0.0722773 11.7478)
(19.6035 0.112301 13.3131)
(19.953 0.216183 14.5679)
(20.1639 0.376335 15.382)
(20.1915 0.536164 15.6964)
(20.0746 0.652616 15.6934)
(19.784 0.686608 15.2874)
(19.4938 0.685711 15.013)
(18.876 0.565418 14.0318)
(15.9932 -0.00803291 -0.0115725)
(15.9842 0.0334487 0.0236673)
(15.9923 0.0808462 0.035405)
(16.0031 0.122818 0.00229571)
(16.0109 0.158107 -0.0739568)
(16.0175 0.191472 -0.204697)
(16.0253 0.219232 -0.37316)
(16.0345 0.237426 -0.439494)
(16.0409 0.247768 -0.311185)
(16.042 0.254487 -0.11892)
(16.0412 0.261544 -0.0387271)
(16.0427 0.268542 -0.0997501)
(16.0462 0.273766 -0.250619)
(16.05 0.276618 -0.493333)
(16.0545 0.276935 -0.861171)
(16.0607 0.274043 -1.36851)
(16.0697 0.267399 -1.99206)
(16.0826 0.257333 -2.65208)
(16.0994 0.245063 -3.198)
(16.1167 0.232323 -3.52348)
(16.1336 0.22021 -3.64508)
(16.1524 0.209089 -3.55082)
(16.1735 0.198973 -3.19645)
(16.1935 0.190198 -2.62767)
(16.2083 0.183955 -2.06408)
(16.2206 0.181023 -1.75255)
(16.2376 0.178992 -1.67748)
(16.2622 0.175876 -1.63335)
(16.2902 0.170809 -1.42811)
(16.3181 0.165633 -1.08098)
(16.348 0.162178 -0.695387)
(16.3824 0.15953 -0.321223)
(16.4218 0.155127 0.0232669)
(16.4678 0.14933 0.31627)
(16.5205 0.142419 0.550484)
(16.5787 0.135443 0.717723)
(16.6411 0.129294 0.795724)
(16.707 0.123828 0.809545)
(16.7745 0.117538 0.831838)
(16.842 0.107372 0.936224)
(16.9089 0.0886958 1.17821)
(16.9785 0.0552955 1.57791)
(17.0623 0.00102694 2.07032)
(17.1768 -0.0674986 2.59172)
(17.3262 -0.127971 3.1523)
(17.4964 -0.163059 3.79445)
(17.6743 -0.173483 4.51863)
(17.8619 -0.162758 5.27789)
(18.0717 -0.131296 6.05405)
(18.3097 -0.0895802 6.88293)
(18.5701 -0.051267 7.78596)
(18.8481 -0.0145553 8.79389)
(19.1679 0.0450322 9.95147)
(19.5507 0.13619 11.1996)
(19.9589 0.248901 12.3929)
(20.2932 0.346474 13.2802)
(20.5083 0.400548 13.8596)
(20.527 0.372018 13.962)
(20.4664 0.323795 14.0553)
(20.1251 0.0917151 13.3855)
(15.992 -0.00531873 -0.0258026)
(15.9794 -0.0091559 -0.0153762)
(15.9791 -0.0249483 -0.0064308)
(15.9846 -0.0500701 -0.028561)
(15.9896 -0.079622 -0.0898533)
(15.9942 -0.111535 -0.213288)
(16.002 -0.146956 -0.410539)
(16.0153 -0.181352 -0.534978)
(16.0279 -0.208513 -0.460687)
(16.0343 -0.226876 -0.293507)
(16.0364 -0.238681 -0.207448)
(16.0386 -0.248031 -0.256648)
(16.042 -0.257528 -0.409879)
(16.0458 -0.267225 -0.672743)
(16.0506 -0.276148 -1.07723)
(16.0574 -0.283579 -1.64026)
(16.0672 -0.289115 -2.34429)
(16.081 -0.292271 -3.1118)
(16.0987 -0.292751 -3.78792)
(16.1169 -0.290479 -4.2561)
(16.1343 -0.286089 -4.52525)
(16.1536 -0.280723 -4.5823)
(16.1754 -0.275547 -4.37976)
(16.1966 -0.270979 -3.94612)
(16.2132 -0.266188 -3.47544)
(16.2272 -0.260329 -3.20915)
(16.2456 -0.255518 -3.16396)
(16.2719 -0.252482 -3.16299)
(16.3027 -0.251691 -3.02371)
(16.3347 -0.251506 -2.75222)
(16.3694 -0.250411 -2.43514)
(16.4086 -0.248449 -2.11817)
(16.4527 -0.246689 -1.82769)
(16.5021 -0.245767 -1.59347)
(16.5562 -0.245528 -1.42083)
(16.6138 -0.244518 -1.31648)
(16.6746 -0.241718 -1.30049)
(16.7396 -0.237327 -1.35126)
(16.8084 -0.232739 -1.3996)
(16.8794 -0.230794 -1.37253)
(16.9516 -0.235982 -1.20942)
(17.0248 -0.254285 -0.882368)
(17.1073 -0.2919 -0.453881)
(17.2167 -0.342313 0.0135759)
(17.3575 -0.382912 0.515296)
(17.5153 -0.395767 1.07218)
(17.6757 -0.378833 1.67535)
(17.8406 -0.332831 2.27339)
(18.0143 -0.255526 2.85671)
(18.1916 -0.15499 3.50658)
(18.3645 -0.0541896 4.22717)
(18.5326 0.0352221 4.98097)
(18.7129 0.130661 5.74886)
(18.9341 0.249216 6.52752)
(19.2305 0.380114 7.37101)
(19.5807 0.493255 8.17958)
(19.9536 0.574975 8.95341)
(20.2429 0.595422 9.4294)
(20.4925 0.608853 9.9639)
(20.5268 0.458988 9.75919)
(15.9917 0.00387778 -0.0402643)
(15.9788 0.00513318 -0.0578858)
(15.9785 0.0225132 -0.0658032)
(15.9839 0.0515994 -0.0985862)
(15.9892 0.0865371 -0.16254)
(15.9936 0.123565 -0.276156)
(16.0006 0.15841 -0.474594)
(16.0133 0.186574 -0.625188)
(16.0263 0.20628 -0.590739)
(16.0337 0.220223 -0.451574)
(16.0368 0.232121 -0.367934)
(16.0393 0.242654 -0.408601)
(16.0427 0.250732 -0.560868)
(16.0467 0.256351 -0.832619)
(16.0519 0.259594 -1.25525)
(16.0593 0.259635 -1.85193)
(16.0698 0.25555 -2.61388)
(16.0847 0.247502 -3.46606)
(16.1037 0.236766 -4.24781)
(16.1233 0.225264 -4.83109)
(16.1418 0.21418 -5.21777)
(16.1617 0.203882 -5.39635)
(16.1835 0.194188 -5.32145)
(16.2047 0.185183 -5.01018)
(16.222 0.177859 -4.62868)
(16.2368 0.173405 -4.40049)
(16.2557 0.169815 -4.36975)
(16.2825 0.167047 -4.39363)
(16.3142 0.163501 -4.3145)
(16.3482 0.159386 -4.13811)
(16.3863 0.155267 -3.93714)
(16.4299 0.150857 -3.747)
(16.4795 0.145238 -3.59356)
(16.5357 0.137935 -3.49886)
(16.5984 0.129443 -3.46423)
(16.6664 0.121414 -3.49296)
(16.7392 0.114538 -3.60253)
(16.8174 0.108395 -3.77454)
(16.8998 0.101746 -3.94109)
(16.9837 0.0919295 -4.02593)
(17.0673 0.0739324 -3.96147)
(17.1519 0.0394557 -3.71232)
(17.2516 -0.0233559 -3.33613)
(17.3912 -0.112636 -2.87645)
(17.5723 -0.203895 -2.33667)
(17.7629 -0.269007 -1.70478)
(17.9344 -0.303494 -1.01349)
(18.0859 -0.3065 -0.333689)
(18.2317 -0.281217 0.298866)
(18.3768 -0.240048 0.915147)
(18.5142 -0.190915 1.50874)
(18.6395 -0.130126 2.03061)
(18.7519 -0.0458406 2.48681)
(18.8547 0.0641071 2.90487)
(18.9645 0.177745 3.36571)
(19.0951 0.262187 3.85074)
(19.2786 0.296566 4.43323)
(19.4707 0.263972 4.88043)
(19.7073 0.217006 5.48934)
(19.8632 0.0767236 5.4732)
(15.9935 0.00473139 -0.0519929)
(15.9859 -0.0459663 -0.085622)
(15.9966 -0.0976724 -0.0863829)
(16.0088 -0.140428 -0.0955799)
(16.0168 -0.173029 -0.120373)
(16.0212 -0.196693 -0.176871)
(16.0252 -0.217652 -0.320482)
(16.0322 -0.237517 -0.444574)
(16.0391 -0.2535 -0.415195)
(16.0423 -0.263854 -0.28734)
(16.0428 -0.269314 -0.19979)
(16.0434 -0.272536 -0.226927)
(16.0449 -0.275895 -0.372093)
(16.0468 -0.279482 -0.646319)
(16.0495 -0.282581 -1.08307)
(16.0537 -0.284694 -1.71546)
(16.0605 -0.285305 -2.54732)
(16.0721 -0.283645 -3.50846)
(16.0888 -0.279189 -4.43069)
(16.1071 -0.271829 -5.16937)
(16.1255 -0.262261 -5.71325)
(16.1459 -0.251679 -6.04526)
(16.1691 -0.241426 -6.11624)
(16.1925 -0.232431 -5.92999)
(16.2128 -0.224573 -5.62498)
(16.2306 -0.216739 -5.40409)
(16.2527 -0.21069 -5.33603)
(16.283 -0.205237 -5.30623)
(16.3184 -0.201808 -5.18343)
(16.3565 -0.199941 -4.98518)
(16.3989 -0.198615 -4.78313)
(16.4471 -0.197514 -4.6076)
(16.5018 -0.197282 -4.48727)
(16.5644 -0.198486 -4.44149)
(16.6352 -0.201315 -4.46771)
(16.7128 -0.20417 -4.56294)
(16.7959 -0.206459 -4.73561)
(16.8842 -0.207453 -4.96919)
(16.9756 -0.207492 -5.19771)
(17.0663 -0.209056 -5.33744)
(17.1525 -0.218135 -5.29697)
(17.2325 -0.247415 -5.00419)
(17.3202 -0.314338 -4.49457)
(17.445 -0.409935 -3.81692)
(17.6163 -0.476901 -3.04384)
(17.8041 -0.483814 -2.21654)
(17.9784 -0.43827 -1.35944)
(18.1351 -0.36003 -0.497661)
(18.2805 -0.269118 0.382305)
(18.4263 -0.181873 1.31155)
(18.5765 -0.107513 2.2228)
(18.7288 -0.0303793 3.0052)
(18.8709 0.0760287 3.5711)
(18.9809 0.224876 3.85717)
(19.0693 0.381158 4.03306)
(19.1427 0.493395 4.13036)
(19.2352 0.546552 4.28839)
(19.3284 0.546045 4.34965)
(19.4659 0.522839 4.6108)
(19.579 0.464636 4.35554)
(15.9569 0.0857179 -0.0740458)
(15.9217 0.17485 -0.177424)
(15.9246 0.242243 -0.25075)
(15.9378 0.278432 -0.32232)
(15.9509 0.296273 -0.393546)
(15.9601 0.305062 -0.481667)
(15.9689 0.307202 -0.676583)
(15.9838 0.304093 -0.8755)
(16.0007 0.298766 -0.918171)
(16.0125 0.294082 -0.835801)
(16.0186 0.290936 -0.763258)
(16.0222 0.288258 -0.792884)
(16.0255 0.284576 -0.948297)
(16.0297 0.279873 -1.24344)