/*--------------------------------*- C++ -*----------------------------------*\
  =========                 |
  \\      /  F ield         | OpenFOAM: The Open Source CFD Toolbox
   \\    /   O peration     | Website:  https://openfoam.org
    \\  /    A nd           | Version:  8
     \\/     M anipulation  |
\*---------------------------------------------------------------------------*/
FoamFile
{
    version     2.0;
    format      ascii;
    class       volScalarField;
    location    "200";
    object      alphat;
}
// * * * * * * * * * * * * * * * * * * * * * * * * * * * * * * * * * * * * * //

dimensions      [1 -1 -1 0 0 0 0];

internalField   nonuniform List<scalar> 
8400
(
0.043651
0.0430009
0.0422035
0.041267
0.0401967
0.0390204
0.0377693
0.0365078
0.0353481
0.0344593
0.0340301
0.0341529
0.0346432
0.0350659
0.0351409
0.035004
0.0348259
0.0346832
0.0347172
0.0350455
0.0356926
0.036493
0.0371903
0.0377142
0.0380132
0.0380939
0.0378167
0.0375441
0.0372789
0.0370155
0.0367563
0.0365027
0.0362525
0.0360072
0.0357133
0.0354602
0.0352546
0.0350942
0.0349747
0.0348902
0.0348348
0.0348007
0.0347823
0.0347759
0.0347763
0.0347785
0.0347812
0.0347836
0.034786
0.0347918
0.0511367
0.0503941
0.0494664
0.048292
0.046787
0.0449265
0.0426254
0.0398103
0.0364721
0.0327183
0.0288075
0.0252346
0.0227367
0.0218458
0.0218059
0.0213694
0.0211142
0.0208196
0.0201891
0.0190902
0.0180892
0.0180837
0.0181918
0.0183006
0.0183345
0.0182821
0.0184779
0.0183843
0.0181147
0.017763
0.0173888
0.0170371
0.01674
0.0165207
0.0165081
0.0165168
0.016527
0.0165386
0.0165513
0.0165659
0.0165821
0.0165987
0.0166164
0.0166355
0.0166554
0.0166761
0.0166975
0.0167191
0.0167409
0.0167641
0.0586589
0.0584255
0.0583543
0.0579808
0.0574683
0.0565898
0.055148
0.0529355
0.0498778
0.0460676
0.0416882
0.0371476
0.0332355
0.0313054
0.0323922
0.0297024
0.0290923
0.0288852
0.0279343
0.0249622
0.0184366
0.0171389
0.0165246
0.0164515
0.0164377
0.0164445
0.0164808
0.0164729
0.0164437
0.0164142
0.0163967
0.0163933
0.0164006
0.0164142
0.0164366
0.0164543
0.0164681
0.0164798
0.0164916
0.016505
0.0165224
0.0165458
0.0165741
0.016606
0.0166404
0.0166772
0.0167149
0.0167523
0.0167905
0.0168307
0.0611328
0.0610136
0.0608893
0.0607615
0.0606307
0.0604907
0.0603403
0.0601837
0.0600159
0.0598335
0.0596254
0.0593767
0.0590731
0.0586901
0.0636963
0.0404268
0.0412662
0.042238
0.0426672
0.0421812
0.0237854
0.0206835
0.0172742
0.0168255
0.0166343
0.016665
0.0166933
0.0167216
0.0167489
0.0167758
0.0167993
0.0168174
0.0168278
0.0168276
0.0168779
0.016886
0.0168517
0.0167858
0.0167035
0.0166202
0.0165509
0.016505
0.0164846
0.016488
0.0165109
0.016547
0.016591
0.0166395
0.0166916
0.0167466
0.0611659
0.0610857
0.0610041
0.0609199
0.0608338
0.0607458
0.0606547
0.0605576
0.0604545
0.0603425
0.060217
0.0600707
0.0598922
0.0596642
0.0598539
0.0570217
0.0554936
0.0551661
0.0551339
0.0681406
0.0321653
0.0332889
0.0195448
0.0185497
0.018368
0.0183622
0.0184514
0.0185853
0.0187355
0.0188812
0.019006
0.0190991
0.0191513
0.0191508
0.0192909
0.0192735
0.019106
0.0188107
0.0184224
0.0179852
0.0175486
0.0171552
0.0168359
0.0166062
0.0164623
0.0163877
0.0163634
0.0163725
0.0164014
0.0164408
0.0611455
0.0610413
0.0609352
0.0608271
0.060717
0.0606054
0.0604927
0.0603806
0.0602693
0.0601595
0.0600507
0.05994
0.05982
0.0596785
0.0595767
0.0588733
0.0580905
0.0574444
0.05699
0.0570137
0.0541199
0.0724295
0.0217752
0.0214692
0.0213839
0.0215196
0.0219027
0.0223957
0.0229242
0.0234377
0.0238981
0.0242756
0.0245461
0.0246852
0.0249374
0.0249179
0.0246374
0.0241105
0.0233654
0.0224428
0.0214018
0.020316
0.0192692
0.0183437
0.0175994
0.0170619
0.0167206
0.016537
0.0164614
0.0164502
0.0611365
0.0610191
0.060899
0.0607753
0.0606493
0.0605199
0.0603881
0.0602558
0.0601242
0.0599937
0.0598692
0.0597508
0.0596382
0.059524
0.0594096
0.0591175
0.0586806
0.0581771
0.0577198
0.0573384
0.0562684
0.0573725
0.0622784
0.0328464
0.0236235
0.0244444
0.0254978
0.0266236
0.0277392
0.0287866
0.0297254
0.0305217
0.0311511
0.0315914
0.0318923
0.0319348
0.0317282
0.0312645
0.0305371
0.0295463
0.0283021
0.0268306
0.0251776
0.0234178
0.0216613
0.0200441
0.0186971
0.0177017
0.0170609
0.0167116
0.06112
0.0609815
0.0608412
0.0606964
0.0605499
0.0604017
0.0602518
0.0601012
0.0599525
0.0598054
0.0596661
0.0595354
0.0594181
0.0593085
0.0592033
0.0590312
0.0587529
0.0583788
0.0579806
0.0575545
0.0568995
0.0568305
0.0576815
0.0552798
0.0244029
0.0261254
0.0280344
0.0298148
0.0314189
0.0328268
0.0340321
0.0350316
0.0358371
0.0364623
0.0366956
0.0368252
0.0368512
0.0367345
0.0364352
0.0359174
0.0351545
0.0341269
0.0328121
0.031195
0.0292849
0.0271238
0.0248003
0.0224678
0.0203335
0.0185969
0.0610977
0.0609282
0.060758
0.0605852
0.0604112
0.0602386
0.0600656
0.0598931
0.0597255
0.059564
0.0594106
0.0592725
0.0591531
0.059048
0.0589535
0.0588319
0.0586366
0.0583501
0.0580096
0.057593
0.0570422
0.0565944
0.0562296
0.0531075
0.032776
0.0268134
0.0295134
0.0317837
0.0336301
0.0350784
0.0361793
0.0369853
0.0375637
0.0380016
0.0380661
0.0382816
0.0385998
0.0388922
0.0390727
0.0390952
0.0389381
0.0385958
0.0380594
0.0372999
0.0362915
0.0350051
0.0334113
0.0314998
0.0292806
0.0267706
0.0610627
0.0608422
0.0606247
0.0604113
0.0602007
0.0599938
0.0597935
0.0595998
0.0594101
0.0592388
0.0590798
0.0589415
0.0588265
0.0587347
0.0586585
0.058572
0.0584334
0.0582092
0.0579107
0.057506
0.0569592
0.0562651
0.0551306
0.0512197
0.0375366
0.0279102
0.0302209
0.0328363
0.0347765
0.0360966
0.0368946
0.0372684
0.0373397
0.0372302
0.0368442
0.0373204
0.0381241
0.0389213
0.039562
0.0399994
0.0402335
0.040295
0.0402155
0.0399648
0.0395437
0.0389611
0.0382294
0.0373844
0.0364867
0.0355814
0.0610022
0.060686
0.0603951
0.0601232
0.0598631
0.0596169
0.0593846
0.0591722
0.0589759
0.0588
0.0586508
0.0585327
0.0584406
0.0583767
0.058328
0.0582762
0.0581798
0.0579989
0.0577323
0.0573309
0.0567464
0.0558338
0.0540998
0.0496066
0.0392226
0.0302161
0.0303752
0.0330009
0.0351758
0.0363667
0.0368646
0.0369386
0.0366278
0.0335022
0.0334458
0.0349227
0.0366654
0.0381838
0.0393626
0.0401952
0.0407281
0.0410384
0.0412191
0.0412071
0.0410303
0.0407315
0.0403507
0.0399042
0.0393931
0.0387951
0.0608699
0.0603272
0.0599392
0.0596043
0.0592954
0.059027
0.058783
0.0585683
0.0583897
0.0582466
0.0581309
0.0580478
0.0579956
0.0579735
0.0579718
0.0579579
0.0578957
0.0577477
0.0575003
0.0570884
0.0564386
0.0553164
0.0531098
0.0482724
0.0396821
0.0321753
0.0308723
0.0327572
0.0347873
0.036042
0.0365995
0.036387
0.0351688
0.0300742
0.0305237
0.0331685
0.0357173
0.0377971
0.0393857
0.0405377
0.0413261
0.041818
0.0420725
0.0421396
0.0420593
0.0418693
0.0416025
0.04127
0.0408762
0.0404287
0.0601674
0.0595763
0.0591575
0.0587961
0.0584766
0.0582187
0.0579946
0.0578275
0.0577025
0.057618
0.0575602
0.0575314
0.0575435
0.0575715
0.0576111
0.0576355
0.0575967
0.0574642
0.0572192
0.0567801
0.0560478
0.0547294
0.0521747
0.0472506
0.0399204
0.0336681
0.0315357
0.0323092
0.0337631
0.0347952
0.0351334
0.0347027
0.0335027
0.0319795
0.0321663
0.0338713
0.0359995
0.0379794
0.039599
0.0408256
0.0416966
0.0422686
0.0425977
0.0427355
0.0427267
0.0426062
0.0424014
0.042128
0.0417996
0.041431
0.0590162
0.058483
0.0580816
0.0577579
0.057501
0.0573082
0.0571673
0.0570768
0.0570281
0.057018
0.0570381
0.0570794
0.057136
0.0571999
0.0572626
0.0572961
0.0572604
0.057129
0.0569063
0.0564073
0.0555729
0.0540758
0.051306
0.0465528
0.0403367
0.0351122
0.0325717
0.0322198
0.0327499
0.0332778
0.0334482
0.0332197
0.0326664
0.0325071
0.0333706
0.0350253
0.0369129
0.0386802
0.0401641
0.0413205
0.0421644
0.0427353
0.0430791
0.0432412
0.0432625
0.0431738
0.0429981
0.0427545
0.0424611
0.0421332
0.0576232
0.057233
0.0569414
0.0567292
0.0565871
0.056502
0.056465
0.0564662
0.0564979
0.0565511
0.0566171
0.0566923
0.0567735
0.0568476
0.0569033
0.0569178
0.0568617
0.056708
0.0564434
0.0559116
0.0551238
0.0533515
0.0505057
0.0461499
0.0410305
0.0367736
0.0342499
0.0332171
0.0329976
0.0330641
0.0331654
0.0332727
0.0334043
0.0340182
0.0352347
0.0368052
0.0384251
0.0399006
0.041138
0.0421108
0.0428288
0.0433201
0.0436189
0.0437596
0.0437732
0.0436847
0.0435144
0.0432802
0.0429988
0.0426829
0.0563663
0.0561619
0.0560275
0.0559515
0.0559221
0.0559311
0.0559671
0.0560212
0.0560892
0.0561673
0.0562518
0.0563316
0.0564021
0.0564532
0.0564743
0.0564476
0.0563508
0.056156
0.055829
0.0552616
0.0544361
0.0527413
0.0497776
0.0459935
0.0419648
0.0386688
0.036509
0.0353472
0.0348529
0.0347548
0.0349069
0.0352652
0.03579
0.0366599
0.0378272
0.0391119
0.0403575
0.0414669
0.0423924
0.0431214
0.0436611
0.0440294
0.0442489
0.0443422
0.0443295
0.0442277
0.0440524
0.0438164
0.0435324
0.0432108
0.0554803
0.0554235
0.055404
0.0554128
0.0554441
0.0554916
0.0555514
0.0556186
0.0556886
0.0557563
0.0558202
0.0558736
0.0559104
0.0559209
0.0558942
0.0558146
0.0556635
0.0554151
0.0550315
0.0544406
0.0535903
0.0521521
0.0490745
0.0460154
0.0430439
0.0406751
0.0390676
0.0381328
0.0377086
0.0376566
0.0378861
0.0383376
0.0389513
0.0397319
0.0406264
0.041533
0.0423804
0.0431253
0.043747
0.0442407
0.0446101
0.0448637
0.0450125
0.0450677
0.0450397
0.0449365
0.0447662
0.0445358
0.0442531
0.0439256
0.0548119
0.0548192
0.0548404
0.0548715
0.0549113
0.054956
0.0550018
0.0550483
0.0550931
0.0551306
0.0551577
0.0551687
0.0551599
0.0551222
0.0550454
0.054915
0.0547131
0.054418
0.0540002
0.0534136
0.0526079
0.0515445
0.0483438
0.0461391
0.0441543
0.0426298
0.0416075
0.0410249
0.0407956
0.0408397
0.0410922
0.0414974
0.0420175
0.04257
0.0431466
0.0437125
0.0442431
0.0447229
0.0451422
0.0454951
0.0457788
0.0459925
0.0461365
0.0462121
0.0462205
0.0461618
0.0460376
0.0458498
0.0456013
0.0452939
0.0539652
0.0539752
0.0539874
0.0540021
0.0540185
0.0540357
0.0540509
0.0540626
0.0540684
0.0540664
0.0540527
0.0540216
0.0539687
0.0538862
0.0537653
0.0535952
0.0533631
0.0530532
0.0526448
0.0521156
0.0514403
0.0506403
0.047755
0.0463106
0.0451801
0.0443679
0.0438552
0.0435969
0.0435436
0.0436474
0.0438629
0.0441483
0.044441
0.044813
0.0452523
0.0457333
0.0462309
0.0467237
0.0471943
0.0476279
0.0480128
0.0483417
0.0486095
0.0488123
0.0489474
0.0490126
0.0490074
0.0489317
0.0487846
0.0485601
0.0623668
0.0618961
0.061418
0.0609233
0.060412
0.0598858
0.059347
0.0587994
0.0582441
0.0576846
0.0571225
0.0565569
0.0559882
0.0554142
0.054831
0.0542338
0.0536158
0.0529694
0.0522904
0.0515869
0.0508828
0.0501938
0.0474681
0.0470552
0.0469655
0.0470852
0.0473709
0.0477951
0.0483341
0.0489678
0.049679
0.050457
0.0513238
0.0521493
0.05293
0.053664
0.0543504
0.0549878
0.055575
0.0561109
0.0565935
0.0570219
0.0573954
0.0577131
0.0579752
0.0581829
0.0583388
0.0584464
0.0585097
0.0585329
0.00545344
0.00543018
0.00540735
0.00538481
0.00536246
0.00534001
0.00531757
0.00529526
0.00527317
0.00525131
0.00522961
0.005208
0.00518642
0.00516492
0.00514358
0.0051225
0.00510173
0.00508122
0.00506089
0.00504071
0.00502403
0.00498567
0.00495483
0.00492888
0.00491487
0.00489519
0.00487297
0.00484993
0.00482691
0.00480435
0.00478255
0.00476173
0.00474193
0.00472302
0.00470479
0.00468709
0.00466988
0.00465317
0.00463696
0.00462129
0.0046062
0.00459153
0.00457728
0.0045633
0.00454944
0.00453559
0.00452164
0.00450744
0.00449274
0.00447715
0.00538508
0.00526393
0.00514771
0.00503609
0.00492951
0.00482827
0.00473215
0.00464087
0.00455402
0.00447119
0.00439199
0.00431613
0.00424351
0.00417409
0.00410782
0.00404453
0.00398398
0.0039259
0.00387016
0.00381704
0.0164033
0.0163423
0.0162892
0.0162209
0.0160779
0.0159748
0.0159108
0.0158753
0.0158566
0.0158456
0.0158362
0.0158246
0.0158079
0.0157849
0.0157553
0.0157201
0.0156803
0.0156368
0.0155899
0.0155402
0.0154878
0.0154344
0.0153796
0.0153226
0.0152629
0.0151999
0.0151328
0.0150608
0.0149828
0.0148976
0.0053846
0.00526219
0.00514417
0.00503066
0.00492177
0.00481743
0.00471749
0.00462169
0.00452973
0.0044413
0.00435618
0.00427421
0.00419533
0.00411949
0.00404658
0.00397642
0.00390877
0.00384345
0.00378047
0.0158648
0.0157462
0.0156319
0.0155167
0.0154007
0.0152835
0.0151688
0.0150575
0.0149499
0.014846
0.0147459
0.0146492
0.0145552
0.0144629
0.0143715
0.0142806
0.0141903
0.0141008
0.0140121
0.0139247
0.0138386
0.0137541
0.0136709
0.0135885
0.0135067
0.0134252
0.0133436
0.0132619
0.0131798
0.0130967
0.0130116
0.00538457
0.00526298
0.00514604
0.0050337
0.00492589
0.00482243
0.00472306
0.00462751
0.00453554
0.00444694
0.00436159
0.00427942
0.00420038
0.00412436
0.00405116
0.00398058
0.0039124
0.0038465
0.00378295
0.0158793
0.0157538
0.0156287
0.0155039
0.0153793
0.0152553
0.015132
0.0150097
0.0148886
0.0147692
0.0146517
0.0145364
0.0144226
0.01431
0.014198
0.014087
0.013977
0.0138682
0.0137605
0.013654
0.0135489
0.0134452
0.0133429
0.013242
0.0131422
0.0130435
0.0129458
0.0128491
0.0127533
0.0126585
0.0125638
0.00538456
0.00526297
0.00514607
0.00503376
0.00492593
0.00482235
0.00472274
0.00462685
0.00453453
0.00444567
0.00436021
0.00427809
0.00419919
0.00412332
0.00405023
0.00397967
0.00391151
0.00384568
0.00378226
0.0158746
0.0157502
0.0156257
0.0155009
0.0153762
0.015252
0.0151284
0.0150059
0.0148844
0.0147644
0.0146459
0.0145287
0.0144124
0.0142967
0.0141816
0.0140675
0.0139546
0.0138428
0.0137319
0.013622
0.0135132
0.0134056
0.0132993
0.0131943
0.0130906
0.0129883
0.012887
0.0127867
0.0126871
0.0125882
0.0124899
0.00538454
0.00526299
0.00514629
0.00503426
0.00492669
0.00482329
0.00472377
0.00462793
0.00453568
0.00444697
0.00436175
0.00427991
0.00420127
0.00412555
0.00405251
0.00398194
0.00391376
0.00384793
0.00378455
0.0158928
0.0157675
0.0156419
0.0155161
0.0153905
0.0152656
0.0151415
0.0150184
0.0148963
0.0147752
0.0146551
0.0145359
0.0144171
0.014299
0.0141819
0.0140662
0.0139519
0.0138388
0.0137268
0.0136157
0.0135059
0.0133974
0.0132905
0.0131849
0.0130807
0.012978
0.0128764
0.0127758
0.0126756
0.0125758
0.0124766
0.00538451
0.00526292
0.00514625
0.00503424
0.00492664
0.00482313
0.00472346
0.00462752
0.00453523
0.00444657
0.00436144
0.00427969
0.00420107
0.0041253
0.00405214
0.00398146
0.0039132
0.00384734
0.00378393
0.0158883
0.0157633
0.0156381
0.0155128
0.015388
0.0152641
0.0151411
0.015019
0.0148978
0.0147775
0.0146581
0.0145393
0.0144211
0.0143038
0.0141876
0.0140727
0.0139591
0.0138465
0.0137345
0.0136232
0.013513
0.0134041
0.0132966
0.0131903
0.0130853
0.0129816
0.012879
0.0127773
0.012676
0.0125751
0.012475
0.00538447
0.00526282
0.00514614
0.00503412
0.00492649
0.00482296
0.00472333
0.00462751
0.00453541
0.00444695
0.004362
0.00428035
0.00420176
0.00412596
0.00405276
0.00398203
0.00391375
0.00384788
0.00378446
0.015893
0.0157677
0.0156424
0.0155174
0.015393
0.0152694
0.0151462
0.0150236
0.0149014
0.0147798
0.0146587
0.0145382
0.0144183
0.0142993
0.0141817
0.0140656
0.013951
0.0138373
0.0137245
0.0136128
0.0135024
0.0133936
0.0132863
0.0131803
0.0130756
0.0129721
0.0128698
0.0127684
0.0126675
0.0125671
0.0124675
0.00538443
0.00526274
0.00514605
0.005034
0.00492634
0.00482282
0.00472327
0.00462756
0.00453558
0.00444718
0.00436223
0.00428052
0.00420182
0.0041259
0.00405259
0.00398177
0.00391342
0.00384751
0.00378407
0.0158908
0.0157659
0.0156412
0.0155168
0.0153929
0.0152694
0.0151462
0.0150234
0.0149009
0.0147791
0.0146577
0.0145368
0.0144164
0.0142969
0.0141789
0.0140624
0.0139473
0.0138332
0.01372
0.013608
0.0134974
0.0133884
0.0132808
0.0131747
0.0130697
0.0129662
0.0128638
0.0127624
0.0126615
0.0125613
0.012462
0.00538441
0.00526275
0.00514606
0.005034
0.00492636
0.0048229
0.00472345
0.00462783
0.00453588
0.00444747
0.00436245
0.00428066
0.00420189
0.00412591
0.00405255
0.00398172
0.0039134
0.00384754
0.00378418
0.015892
0.0157674
0.0156427
0.0155183
0.0153941
0.0152703
0.0151469
0.0150239
0.0149016
0.0147798
0.0146585
0.0145375
0.0144169
0.0142974
0.0141793
0.0140628
0.0139476
0.0138333
0.0137199
0.0136076
0.0134967
0.0133874
0.0132794
0.0131728
0.0130675
0.0129636
0.0128609
0.0127591
0.012658
0.0125576
0.0124581
0.00538442
0.00526284
0.00514619
0.00503414
0.00492652
0.00482311
0.00472368
0.00462804
0.00453603
0.00444752
0.00436242
0.00428057
0.00420176
0.00412575
0.00405239
0.0039816
0.00391336
0.00384762
0.00378436
0.0158929
0.0157681
0.0156431
0.0155181
0.0153935
0.0152694
0.015146
0.0150234
0.0149014
0.0147799
0.0146586
0.0145376
0.0144171
0.0142977
0.01418
0.0140637
0.0139486
0.0138342
0.0137205
0.0136079
0.0134968
0.0133871
0.0132789
0.0131721
0.0130665
0.0129622
0.0128592
0.012757
0.0126556
0.0125549
0.012455
0.00538446
0.00526297
0.00514636
0.00503432
0.00492669
0.00482324
0.00472375
0.004628
0.00453589
0.00444731
0.00436218
0.00428032
0.0042015
0.0041255
0.00405218
0.00398148
0.00391339
0.00384777
0.00378454
0.0158925
0.0157671
0.0156413
0.0155158
0.015391
0.0152672
0.0151443
0.0150221
0.0149005
0.0147791
0.014658
0.0145371
0.0144169
0.014298
0.0141806
0.0140646
0.0139495
0.013835
0.0137212
0.0136085
0.0134974
0.0133879
0.0132798
0.0131729
0.0130673
0.0129629
0.0128596
0.0127573
0.0126557
0.0125547
0.0124545
0.00538451
0.00526309
0.00514648
0.0050344
0.0049267
0.00482316
0.00472356
0.00462774
0.0045356
0.00444705
0.00436198
0.00428019
0.00420143
0.0041255
0.00405231
0.00398179
0.00391385
0.0038483
0.00378497
0.0158939
0.0157673
0.0156408
0.015515
0.0153904
0.015267
0.0151444
0.0150223
0.0149006
0.0147791
0.014658
0.0145374
0.0144175
0.014299
0.0141818
0.0140658
0.0139506
0.0138362
0.0137227
0.0136105
0.0134999
0.0133908
0.013283
0.0131764
0.0130708
0.0129664
0.012863
0.0127605
0.0126586
0.0125575
0.012457
0.00538454
0.00526313
0.00514646
0.00503428
0.00492645
0.00482276
0.00472305
0.00462718
0.00453505
0.00444654
0.00436148
0.00427967
0.00420089
0.00412498
0.00405186
0.00398141
0.00391348
0.00384779
0.00378421
0.0158868
0.01576
0.0156338
0.0155087
0.015385
0.015262
0.0151394
0.0150169
0.0148947
0.014773
0.0146518
0.0145312
0.0144115
0.0142931
0.0141761
0.0140605
0.013946
0.0138326
0.0137204
0.0136096
0.0135003
0.0133923
0.0132855
0.0131796
0.0130746
0.0129706
0.0128674
0.0127651
0.0126633
0.012562
0.0124612
0.00538455
0.00526308
0.00514632
0.00503404
0.00492612
0.00482242
0.00472278
0.00462705
0.00453508
0.00444671
0.00436175
0.00428
0.0042013
0.0041255
0.00405249
0.0039821
0.00391408
0.00384821
0.00378444
0.0158889
0.0157618
0.0156359
0.0155112
0.0153871
0.0152629
0.0151383
0.0150135
0.0148889
0.014765
0.0146417
0.0145193
0.0143981
0.0142786
0.0141612
0.0140458
0.0139322
0.0138201
0.0137094
0.0136001
0.0134923
0.0133857
0.01328
0.0131752
0.0130712
0.012968
0.0128658
0.0127643
0.0126633
0.0125626
0.0124623
0.00538454
0.00526294
0.00514597
0.00503346
0.00492533
0.00482146
0.0047217
0.00462586
0.00453376
0.00444522
0.00436007
0.00427816
0.00419936
0.00412351
0.00405041
0.00397987
0.00391166
0.0038456
0.00378175
0.0158691
0.0157437
0.0156194
0.015496
0.0153726
0.0152487
0.0151243
0.0149998
0.0148757
0.0147523
0.0146295
0.0145076
0.0143871
0.0142688
0.014153
0.0140397
0.0139283
0.0138183
0.0137096
0.0136024
0.0134965
0.0133919
0.0132881
0.013185
0.0130826
0.0129813
0.012881
0.0127816
0.0126827
0.0125844
0.0124868
0.00538451
0.00526284
0.0051459
0.00503353
0.00492565
0.00482209
0.00472261
0.00462698
0.00453497
0.00444645
0.00436129
0.00427937
0.00420055
0.00412462
0.00405139
0.00398064
0.00391224
0.00384606
0.00378221
0.0158738
0.0157482
0.0156237
0.0154997
0.0153755
0.0152512
0.0151269
0.015003
0.0148798
0.0147574
0.0146359
0.0145157
0.0143975
0.0142819
0.0141693
0.0140592
0.0139512
0.0138449
0.0137403
0.0136378
0.0135373
0.0134384
0.0133407
0.0132442
0.0131491
0.0130558
0.0129642
0.0128743
0.0127858
0.012699
0.0126145
0.00538449
0.00526195
0.00514401
0.00503073
0.0049221
0.00481794
0.00471798
0.00462196
0.00452967
0.004441
0.00435585
0.00427407
0.00419545
0.00411976
0.0040468
0.00397642
0.00390851
0.00384296
0.00377983
0.0158605
0.0157364
0.0156173
0.0154957
0.015373
0.0152561
0.0151468
0.0150422
0.0149402
0.0148394
0.0147395
0.0146408
0.0145438
0.0144492
0.0143572
0.0142674
0.0141796
0.014094
0.0140109
0.0139309
0.0138536
0.0137786
0.0137053
0.0136339
0.0135649
0.0134986
0.0134351
0.0133741
0.0133158
0.013261
0.0132118
0.00538484
0.00526337
0.00514725
0.00503607
0.00493007
0.00482932
0.00473336
0.00464185
0.00455454
0.00447128
0.00439192
0.00431624
0.00424395
0.00417481
0.0041086
0.00404519
0.00398443
0.0039262
0.00387042
0.00381698
0.00373407
0.0159144
0.0158994
0.0158131
0.015706
0.0157015
0.0157376
0.0157822
0.01582
0.0158448
0.0158556
0.0158539
0.0158419
0.0158214
0.0157941
0.0157619
0.0157264
0.0156899
0.0156532
0.0156168
0.0155802
0.0155434
0.0155071
0.0154722
0.0154392
0.0154081
0.0153786
0.0153513
0.0153284
0.0153145
0.00545388
0.00543013
0.00540699
0.00538456
0.00536253
0.00534038
0.00531812
0.0052958
0.00527353
0.00525142
0.0052295
0.00520775
0.00518617
0.00516478
0.00514361
0.00512267
0.00510195
0.0050814
0.00506103
0.00504085
0.00503124
0.00501515
0.00499887
0.00498099
0.00494032
0.00490578
0.0048757
0.00484888
0.00482444
0.00480177
0.00478045
0.00476021
0.00474077
0.00472189
0.00470343
0.0046854
0.00466782
0.00465067
0.00463381
0.00461711
0.00460049
0.00458405
0.0045679
0.00455204
0.00453636
0.00452065
0.00450474
0.00448861
0.00447226
0.00445564
0.0206718
0.0117388
0.0100214
0.00956194
0.00901228
0.00830286
0.00756369
0.00690683
0.00639446
0.00604088
0.00579725
0.00577423
0.00579986
0.00583375
0.00590062
0.00602832
0.00620899
0.00641528
0.00688252
0.0143966
0.0204807
0.0116395
0.0100035
0.00956499
0.0090065
0.00827932
0.00752313
0.00685423
0.00633601
0.00598265
0.00574727
0.00574416
0.00578009
0.00581961
0.00588977
0.00602105
0.0062043
0.00640846
0.0068775
0.0145373
0.0202897
0.0115395
0.00998719
0.00956834
0.00899999
0.00825431
0.00748058
0.00679933
0.00627489
0.0059201
0.00567682
0.00568711
0.00574106
0.00579259
0.00586759
0.00600086
0.0061855
0.00638952
0.00686635
0.0146723
0.0200946
0.0114407
0.00997247
0.00957202
0.00899275
0.00822777
0.00743604
0.00674227
0.00621172
0.00585579
0.00560995
0.00562994
0.00570105
0.00576517
0.00584559
0.00598093
0.00616682
0.0063705
0.00685503
0.0148059
0.0198981
0.0113432
0.00995938
0.00957598
0.0089847
0.00819959
0.00738929
0.00668277
0.00614614
0.00578931
0.00554137
0.00557249
0.00566022
0.00573734
0.00582375
0.00596126
0.00614826
0.00635141
0.00684354
0.0149381
0.0197004
0.0112468
0.00994785
0.00958017
0.00897575
0.00816961
0.00734015
0.00662065
0.00607802
0.00572088
0.00547251
0.00551505
0.00561873
0.00570911
0.00580205
0.00594187
0.00612983
0.00633227
0.00683189
0.0150691
0.0195015
0.0111514
0.00993782
0.0095845
0.00896578
0.00813764
0.00728839
0.00655567
0.00600714
0.0056505
0.00540444
0.00545803
0.00557667
0.00568047
0.00578049
0.00592276
0.00611155
0.00631309
0.0068201
0.0151989
0.0193014
0.0110571
0.00992922
0.00958889
0.00895465
0.0081035
0.00723376
0.00648755
0.00593321
0.0055779
0.00533719
0.00540152
0.00553411
0.00565141
0.00575905
0.00590395
0.00609345
0.00629389
0.00680819
0.0153276
0.0191005
0.0109635
0.00992197
0.00959324
0.00894223
0.00806699
0.007176
0.00641599
0.00585588
0.00550264
0.0052701
0.00534523
0.005491
0.00562189
0.00573767
0.00588541
0.0060755
0.00627466
0.00679618
0.0154553
0.0188988
0.0108707
0.00991602
0.00959749
0.00892839
0.00802793
0.0071149
0.00634074
0.00577485
0.00542415
0.00520204
0.00528865
0.00544723
0.00559186
0.0057163
0.00586711
0.0060577
0.00625541
0.00678409
0.0155823
0.0186963
0.0107786
0.00991134
0.00960157
0.00891305
0.00798617
0.00705027
0.0062616
0.00568982
0.00534192
0.00513149
0.00523111
0.00540266
0.00556124
0.00569487
0.00584903
0.00604007
0.00623615
0.00677195
0.0157086
0.0184934
0.0106874
0.00990797
0.00960548
0.00889614
0.00794163
0.00698197
0.00617845
0.00560063
0.00525558
0.00505756
0.00517206
0.00535717
0.00553002
0.00567336
0.00583116
0.00602258
0.00621691
0.0067598
0.0158345
0.01829
0.0105972
0.00990593
0.00960921
0.00887764
0.00789424
0.00690997
0.00609128
0.00550725
0.00516487
0.00497949
0.00511106
0.00531068
0.00549818
0.00565173
0.00581346
0.00600526
0.00619767
0.00674766
0.0159601
0.0180866
0.0105081
0.0099053
0.00961276
0.00885755
0.00784404
0.00683432
0.00600021
0.0054098
0.00506976
0.00489672
0.00504774
0.00526312
0.00546573
0.00562999
0.00579594
0.00598808
0.00617845
0.00673554
0.0160857
0.0178831
0.0104205
0.0099061
0.00961613
0.0088359
0.00779108
0.00675517
0.00590549
0.00530857
0.00497039
0.00480901
0.00498178
0.00521443
0.0054327
0.0056081
0.00577857
0.00597105
0.00615924
0.00672347
0.0162113
0.0176799
0.0103345
0.00990839
0.00961933
0.00881275
0.00773552
0.00667278
0.00580754
0.00520403
0.00486711
0.00471603
0.00491283
0.00516452
0.00539907
0.00558606
0.00576133
0.00595416
0.00614005
0.00671149
0.0163372
0.017477
0.0102505
0.00991217
0.00962236
0.00878819
0.00767762
0.00658757
0.00570696
0.00509689
0.00476045
0.00461733
0.00484057
0.00511332
0.00536488
0.00556387
0.00574421
0.0059374
0.00612088
0.00669963
0.0164636
0.0172746
0.0101689
0.00991744
0.00962522
0.00876239
0.0076177
0.00650009
0.00560453
0.00498804
0.00465129
0.00451209
0.00476492
0.00506083
0.00533015
0.00554155
0.00572721
0.00592077
0.00610174
0.00668793
0.0165907
0.0170728
0.01009
0.00992417
0.00962792
0.00873554
0.00755622
0.00641105
0.00550122
0.00487865
0.00454087
0.00440223
0.00468634
0.00500714
0.00529495
0.00551912
0.00571034
0.0059043
0.00608264
0.00667643
0.0167188
0.0168717
0.0100142
0.00993232
0.00963048
0.00870791
0.00749373
0.00632131
0.00539818
0.00477005
0.00443079
0.00429139
0.00460565
0.00495249
0.00525938
0.00549663
0.00569363
0.00588799
0.00606361
0.0066652
0.0168481
0.0166715
0.009942
0.00994181
0.00963293
0.00867981
0.00743089
0.00623185
0.00529666
0.00466372
0.0043229
0.00417858
0.0045235
0.00489719
0.00522361
0.00547415
0.00567709
0.00587186
0.00604465
0.00665431
0.0169788
0.0164721
0.00987383
0.00995254
0.00963535
0.00865164
0.00736843
0.00614372
0.00519798
0.00456118
0.00421931
0.00406619
0.00444095
0.00484166
0.00518781
0.00545178
0.00566077
0.00585595
0.00602582
0.00664382
0.0171114
0.0162738
0.00981008
0.00996439
0.00963779
0.0086238
0.00730712
0.00605804
0.00510345
0.00446391
0.00412218
0.00395694
0.00435937
0.00478641
0.00515221
0.00542962
0.00564473
0.0058403
0.00600714
0.00663383
0.0172461
0.0160766
0.0097511
0.00997723
0.00964036
0.00859671
0.00724776
0.00597586
0.00501428
0.00437323
0.00403361
0.00385391
0.00428022
0.004732
0.00511709
0.0054078
0.00562903
0.00582494
0.00598865
0.00662441
0.0173832
0.0158806
0.00969716
0.0099909
0.00964313
0.0085708
0.00719108
0.00589818
0.0049315
0.00429023
0.00395547
0.00375943
0.00420484
0.004679
0.00508269
0.00538645
0.00561373
0.00580992
0.00597036
0.00661564
0.0175229
0.0156859
0.00964844
0.0100052
0.0096462
0.00854646
0.00713778
0.00582585
0.00485594
0.00421568
0.0038892
0.00367555
0.00413435
0.00462791
0.00504927
0.00536568
0.00559887
0.00579524
0.0059523
0.00660758
0.0176656
0.0154927
0.00960503
0.0100201
0.00964965
0.00852404
0.00708844
0.00575957
0.00478814
0.00415001
0.00383568
0.00360344
0.00406954
0.00457916
0.00501703
0.00534558
0.00558447
0.0057809
0.00593445
0.00660028
0.0178114
0.0153009
0.00956688
0.0100352
0.00965355
0.00850383
0.0070435
0.0056998
0.00472835
0.00409335
0.00379501
0.00354515
0.00401088
0.00453307
0.00498612
0.0053262
0.00557054
0.00576691
0.00591682
0.00659381
0.0179604
0.0151107
0.00953385
0.0100505
0.00965794
0.00848603
0.00700328
0.00564681
0.00467656
0.00404548
0.00376626
0.0162189
0.00398701
0.00449125
0.0049567
0.00530758
0.00555708
0.00575324
0.0058994
0.0065882
0.0181129
0.0149221
0.00950572
0.0100658
0.00966287
0.00847078
0.00696793
0.00560062
0.0046325
0.00400593
0.00374597
0.0159342
0.00395594
0.0044519
0.00492867
0.00528972
0.00554408
0.00573988
0.00588218
0.00658349
0.0182687
0.0147352
0.00948219
0.010081
0.00966835
0.00845814
0.00693745
0.00556105
0.00459565
0.00397384
0.00372805
0.015666
0.00392002
0.00441463
0.00490201
0.00527259
0.00553151
0.0057268
0.00586513
0.0065797
0.0184279
0.0145498
0.00946289
0.0100959
0.00967439
0.00844806
0.00691169
0.0055278
0.00456548
0.00394849
0.00370511
0.0153883
0.0038863
0.00438007
0.0048768
0.0052562
0.00551934
0.00571397
0.00584824
0.00657687
0.0185906
0.0143661
0.00944744
0.0101106
0.00968099
0.00844046
0.0068904
0.00550043
0.00454147
0.00393134
0.0156925
0.0151759
0.00385454
0.00434773
0.00485295
0.00524051
0.00550754
0.00570136
0.00583148
0.00657501
0.0187567
0.014184
0.00943543
0.0101249
0.00968812
0.00843516
0.00687321
0.00547833
0.00452283
0.00391904
0.0155614
0.0148988
0.00382321
0.00431722
0.00483035
0.00522545
0.00549607
0.00568895
0.00581485
0.00657416
0.0189262
0.0140034
0.00942647
0.0101389
0.00969575
0.00843195
0.00685965
0.0054608
0.00450859
0.00391095
0.0154646
0.014647
0.00379219
0.00428851
0.00480896
0.00521101
0.00548491
0.00567673
0.00579835
0.00657436
0.0190991
0.0138244
0.00942015
0.0101526
0.00970385
0.00843059
0.00684925
0.00544712
0.00449795
0.00390622
0.0153944
0.0144401
0.00376176
0.00426165
0.00478872
0.00519715
0.00547407
0.0056647
0.00578199
0.00657566
0.0192753
0.013647
0.00941611
0.010166
0.00971235
0.00843085
0.00684156
0.00543668
0.00449017
0.00390402
0.0153428
0.0142979
0.00373294
0.00423628
0.00476941
0.00518381
0.00546353
0.00565287
0.00576579
0.00657812
0.019455
0.013471
0.00941402
0.0101791
0.00972121
0.00843249
0.00683617
0.00542892
0.00448467
0.00390358
0.0153027
0.0142093
0.015747
0.00421117
0.00475092
0.00517094
0.00545328
0.00564124
0.00574975
0.00658179
0.0196382
0.0132964
0.00941359
0.0101919
0.00973039
0.00843534
0.0068328
0.00542345
0.00448102
0.00390449
0.0152692
0.0140568
0.0156854
0.00418931
0.00473323
0.00515852
0.00544332
0.00562981
0.00573388
0.00658675
0.0198251
0.0131231
0.00941459
0.0102044
0.00973983
0.00843923
0.00683123
0.00542005
0.00447907
0.00390662
0.0152412
0.0138961
0.0156199
0.00416795
0.00471616
0.00514658
0.00543366
0.00561859
0.00571819
0.00659307
0.0200157
0.012951
0.00941681
0.0102166
0.00974956
0.00844397
0.00683139
0.0054186
0.00447884
0.00391008
0.015219
0.0137237
0.015556
0.00414711
0.00469971
0.00513517
0.00542437
0.0056076
0.00570269
0.00660084
0.0202102
0.0127801
0.00941984
0.0102289
0.00976008
0.00844951
0.00683223
0.00541778
0.00448137
0.00391524
0.0152055
0.0135096
0.0155001
0.00412689
0.00468407
0.00512436
0.00541545
0.00559686
0.00568738
0.00661015
0.0204089
0.0126102
0.00942355
0.0102414
0.00977133
0.00845617
0.00683433
0.00541819
0.00448355