/*--------------------------------*- C++ -*----------------------------------*\
  =========                 |
  \\      /  F ield         | OpenFOAM: The Open Source CFD Toolbox
   \\    /   O peration     | Website:  https://openfoam.org
    \\  /    A nd           | Version:  8
     \\/     M anipulation  |
\*---------------------------------------------------------------------------*/
FoamFile
{
    version     2.0;
    format      ascii;
    class       volScalarField;
    location    "200";
    object      nut;
}
// * * * * * * * * * * * * * * * * * * * * * * * * * * * * * * * * * * * * * //

dimensions      [0 2 -1 0 0 0 0];

internalField   nonuniform List<scalar> 
8400
(
4.37656e-05
4.3113e-05
4.23132e-05
4.13742e-05
4.03014e-05
3.91224e-05
3.78682e-05
3.66032e-05
3.54398e-05
3.45471e-05
3.41148e-05
3.42352e-05
3.47242e-05
3.51461e-05
3.52203e-05
3.50826e-05
3.49039e-05
3.47606e-05
3.47946e-05
3.51234e-05
3.57718e-05
3.65739e-05
3.72727e-05
3.77978e-05
3.80974e-05
3.81783e-05
3.79004e-05
3.76273e-05
3.73615e-05
3.70975e-05
3.68378e-05
3.65836e-05
3.63329e-05
3.60871e-05
3.57925e-05
3.55388e-05
3.53328e-05
3.51721e-05
3.50523e-05
3.49676e-05
3.49121e-05
3.48779e-05
3.48595e-05
3.4853e-05
3.48534e-05
3.48557e-05
3.48583e-05
3.48608e-05
3.48632e-05
3.4869e-05
5.13089e-05
5.05629e-05
4.96317e-05
4.84537e-05
4.69444e-05
4.50784e-05
4.27697e-05
3.99443e-05
3.65929e-05
3.28234e-05
2.88957e-05
2.5307e-05
2.27972e-05
2.19002e-05
2.1858e-05
2.14197e-05
2.11634e-05
2.08677e-05
2.02353e-05
1.91334e-05
1.81298e-05
1.81242e-05
1.82325e-05
1.83414e-05
1.83754e-05
1.83229e-05
1.85192e-05
1.84254e-05
1.81552e-05
1.78027e-05
1.74277e-05
1.70752e-05
1.67776e-05
1.65578e-05
1.65452e-05
1.65539e-05
1.65641e-05
1.65758e-05
1.65886e-05
1.66031e-05
1.66194e-05
1.66361e-05
1.66538e-05
1.66729e-05
1.66928e-05
1.67135e-05
1.67351e-05
1.67567e-05
1.67785e-05
1.68017e-05
5.89061e-05
5.86701e-05
5.85981e-05
5.82226e-05
5.77078e-05
5.68256e-05
5.53773e-05
5.31541e-05
5.0081e-05
4.62505e-05
4.18466e-05
3.72796e-05
3.33429e-05
3.13962e-05
3.24779e-05
2.9779e-05
2.91664e-05
2.89578e-05
2.80028e-05
2.50211e-05
1.8479e-05
1.7178e-05
1.65621e-05
1.64887e-05
1.64748e-05
1.64817e-05
1.65182e-05
1.65103e-05
1.64811e-05
1.64516e-05
1.64342e-05
1.64309e-05
1.64383e-05
1.64521e-05
1.64746e-05
1.64924e-05
1.65064e-05
1.65181e-05
1.65299e-05
1.65434e-05
1.65608e-05
1.65842e-05
1.66126e-05
1.66445e-05
1.66789e-05
1.67158e-05
1.67535e-05
1.6791e-05
1.68293e-05
1.68696e-05
6.13962e-05
6.12765e-05
6.11516e-05
6.10233e-05
6.08919e-05
6.07513e-05
6.06002e-05
6.04429e-05
6.02744e-05
6.00911e-05
5.98821e-05
5.96322e-05
5.93272e-05
5.89423e-05
6.39388e-05
4.05479e-05
4.13901e-05
4.23654e-05
4.27903e-05
4.22897e-05
2.38425e-05
2.07324e-05
1.73146e-05
1.68647e-05
1.66731e-05
1.67039e-05
1.67324e-05
1.6761e-05
1.67886e-05
1.68159e-05
1.68397e-05
1.68581e-05
1.68688e-05
1.68688e-05
1.69195e-05
1.69278e-05
1.68936e-05
1.68276e-05
1.6745e-05
1.66615e-05
1.6592e-05
1.65459e-05
1.65254e-05
1.65287e-05
1.65516e-05
1.65877e-05
1.66317e-05
1.66803e-05
1.67324e-05
1.67876e-05
6.14295e-05
6.1349e-05
6.12669e-05
6.11825e-05
6.10959e-05
6.10076e-05
6.09161e-05
6.08186e-05
6.0715e-05
6.06026e-05
6.04766e-05
6.03296e-05
6.01503e-05
5.99213e-05
6.01063e-05
5.72532e-05
5.57166e-05
5.53881e-05
5.53523e-05
6.83505e-05
3.22472e-05
3.33737e-05
1.95928e-05
1.85951e-05
1.8413e-05
1.84074e-05
1.84972e-05
1.86319e-05
1.8783e-05
1.89298e-05
1.90555e-05
1.91495e-05
1.92024e-05
1.92024e-05
1.93433e-05
1.93261e-05
1.91582e-05
1.88621e-05
1.84728e-05
1.80342e-05
1.75964e-05
1.72017e-05
1.68814e-05
1.6651e-05
1.65065e-05
1.64316e-05
1.64072e-05
1.64162e-05
1.6445e-05
1.64845e-05
6.14089e-05
6.13043e-05
6.11978e-05
6.10892e-05
6.09786e-05
6.08665e-05
6.07534e-05
6.06407e-05
6.05289e-05
6.04187e-05
6.03095e-05
6.01983e-05
6.00778e-05
5.99357e-05
5.9832e-05
5.91227e-05
5.8334e-05
5.76832e-05
5.72224e-05
5.72328e-05
5.43204e-05
7.26482e-05
2.1832e-05
2.15249e-05
2.14396e-05
2.15763e-05
2.19613e-05
2.24566e-05
2.29878e-05
2.35041e-05
2.39671e-05
2.43469e-05
2.46193e-05
2.47597e-05
2.50132e-05
2.49939e-05
2.47126e-05
2.41839e-05
2.34362e-05
2.25105e-05
2.14658e-05
2.03764e-05
1.93262e-05
1.83976e-05
1.76509e-05
1.71117e-05
1.67693e-05
1.6585e-05
1.65091e-05
1.64977e-05
6.13999e-05
6.1282e-05
6.11614e-05
6.10371e-05
6.09106e-05
6.07807e-05
6.06483e-05
6.05155e-05
6.03832e-05
6.02523e-05
6.01271e-05
6.00083e-05
5.98952e-05
5.97805e-05
5.96652e-05
5.93705e-05
5.89301e-05
5.84223e-05
5.79591e-05
5.7568e-05
5.64837e-05
5.75723e-05
6.2468e-05
3.29365e-05
2.3689e-05
2.45136e-05
2.55717e-05
2.67029e-05
2.78242e-05
2.88773e-05
2.98216e-05
3.06227e-05
3.12561e-05
3.16991e-05
3.20017e-05
3.20446e-05
3.18369e-05
3.13709e-05
3.064e-05
2.96448e-05
2.83952e-05
2.69177e-05
2.52583e-05
2.3492e-05
2.17293e-05
2.01064e-05
1.87549e-05
1.77562e-05
1.71133e-05
1.67628e-05
6.13833e-05
6.12442e-05
6.11034e-05
6.09579e-05
6.08108e-05
6.0662e-05
6.05114e-05
6.03601e-05
6.02109e-05
6.00631e-05
5.99232e-05
5.97919e-05
5.96741e-05
5.95641e-05
5.94582e-05
5.92847e-05
5.90041e-05
5.86266e-05
5.82233e-05
5.77891e-05
5.7122e-05
5.70372e-05
5.78703e-05
5.54425e-05
2.44745e-05
2.62046e-05
2.81225e-05
2.99121e-05
3.15255e-05
3.29422e-05
3.41555e-05
3.51617e-05
3.59725e-05
3.66014e-05
3.68361e-05
3.69661e-05
3.69917e-05
3.68735e-05
3.65717e-05
3.60502e-05
3.52825e-05
3.4249e-05
3.29273e-05
3.13023e-05
2.93837e-05
2.72137e-05
2.48813e-05
2.25402e-05
2.03984e-05
1.86559e-05
6.1361e-05
6.11907e-05
6.10198e-05
6.08462e-05
6.06715e-05
6.04981e-05
6.03244e-05
6.01512e-05
5.99829e-05
5.98206e-05
5.96666e-05
5.95279e-05
5.9408e-05
5.93024e-05
5.92074e-05
5.90849e-05
5.88879e-05
5.85986e-05
5.82538e-05
5.78302e-05
5.72689e-05
5.68061e-05
5.64225e-05
5.32739e-05
3.28768e-05
2.68995e-05
2.96127e-05
3.18958e-05
3.3754e-05
3.52125e-05
3.63215e-05
3.71337e-05
3.77162e-05
3.81567e-05
3.82217e-05
3.84379e-05
3.8757e-05
3.90498e-05
3.92301e-05
3.92514e-05
3.90921e-05
3.87466e-05
3.82059e-05
3.74411e-05
3.64261e-05
3.5132e-05
3.35296e-05
3.16087e-05
2.93797e-05
2.68597e-05
6.13258e-05
6.11044e-05
6.08859e-05
6.06715e-05
6.046e-05
6.02523e-05
6.00511e-05
5.98566e-05
5.96661e-05
5.94941e-05
5.93344e-05
5.91955e-05
5.908e-05
5.89878e-05
5.89112e-05
5.8824e-05
5.86841e-05
5.84576e-05
5.81553e-05
5.77444e-05
5.71882e-05
5.64804e-05
5.53272e-05
5.13891e-05
3.76571e-05
2.80033e-05
3.03274e-05
3.29581e-05
3.4911e-05
3.62408e-05
3.70452e-05
3.74225e-05
3.7495e-05
3.73854e-05
3.6998e-05
3.74762e-05
3.8283e-05
3.90832e-05
3.9726e-05
4.01645e-05
4.03986e-05
4.04593e-05
4.03781e-05
4.0125e-05
3.97005e-05
3.91138e-05
3.8377e-05
3.75263e-05
3.66223e-05
3.57104e-05
6.12651e-05
6.09475e-05
6.06553e-05
6.03823e-05
6.01211e-05
5.98738e-05
5.96404e-05
5.94272e-05
5.92301e-05
5.90534e-05
5.89035e-05
5.87849e-05
5.86924e-05
5.86282e-05
5.85793e-05
5.8527e-05
5.84296e-05
5.82467e-05
5.79766e-05
5.75696e-05
5.69766e-05
5.60513e-05
5.42992e-05
4.97788e-05
3.93546e-05
3.03198e-05
3.04843e-05
3.31256e-05
3.5314e-05
3.65136e-05
3.70159e-05
3.70916e-05
3.67803e-05
3.36419e-05
3.35857e-05
3.5069e-05
3.68192e-05
3.83438e-05
3.95273e-05
4.03628e-05
4.08972e-05
4.12079e-05
4.13883e-05
4.13749e-05
4.1196e-05
4.08944e-05
4.05103e-05
4.00603e-05
3.95453e-05
3.8943e-05
6.11321e-05
6.05872e-05
6.01975e-05
5.98611e-05
5.95509e-05
5.92813e-05
5.90362e-05
5.88207e-05
5.86413e-05
5.84976e-05
5.83813e-05
5.82979e-05
5.82455e-05
5.82233e-05
5.82215e-05
5.82074e-05
5.81443e-05
5.79945e-05
5.77439e-05
5.73268e-05
5.66692e-05
5.55352e-05
5.3311e-05
4.84474e-05
3.98222e-05
3.22895e-05
3.09851e-05
3.28815e-05
3.49238e-05
3.61867e-05
3.67486e-05
3.65366e-05
3.5314e-05
3.01989e-05
3.0651e-05
3.33075e-05
3.58672e-05
3.79558e-05
3.95509e-05
4.07073e-05
4.14984e-05
4.19915e-05
4.22461e-05
4.23124e-05
4.22305e-05
4.20382e-05
4.17688e-05
4.14333e-05
4.10362e-05
4.0585e-05
6.04266e-05
5.9833e-05
5.94124e-05
5.90494e-05
5.87285e-05
5.84695e-05
5.82445e-05
5.80767e-05
5.79511e-05
5.78662e-05
5.78082e-05
5.77793e-05
5.77914e-05
5.78195e-05
5.78592e-05
5.78835e-05
5.78439e-05
5.77097e-05
5.74617e-05
5.70177e-05
5.62781e-05
5.49485e-05
5.23772e-05
4.74283e-05
4.00675e-05
3.37922e-05
3.16538e-05
3.24331e-05
3.38956e-05
3.49342e-05
3.52755e-05
3.48442e-05
3.36403e-05
3.21119e-05
3.23004e-05
3.40132e-05
3.61508e-05
3.81391e-05
3.97654e-05
4.09968e-05
4.1871e-05
4.24447e-05
4.27743e-05
4.29116e-05
4.29016e-05
4.27793e-05
4.25722e-05
4.22961e-05
4.19647e-05
4.15928e-05
5.92705e-05
5.8735e-05
5.83318e-05
5.80067e-05
5.77488e-05
5.75551e-05
5.74136e-05
5.73227e-05
5.72738e-05
5.72636e-05
5.72838e-05
5.73253e-05
5.73821e-05
5.74462e-05
5.75091e-05
5.75424e-05
5.7506e-05
5.73729e-05
5.71475e-05
5.66436e-05
5.58023e-05
5.42946e-05
5.1509e-05
4.67332e-05
4.04911e-05
3.52465e-05
3.26974e-05
3.23458e-05
3.288e-05
3.34117e-05
3.35842e-05
3.33558e-05
3.28013e-05
3.26424e-05
3.35103e-05
3.51725e-05
3.70684e-05
3.88432e-05
4.03332e-05
4.14942e-05
4.23411e-05
4.29138e-05
4.32582e-05
4.342e-05
4.34403e-05
4.335e-05
4.31722e-05
4.29261e-05
4.26299e-05
4.22989e-05
5.78715e-05
5.74796e-05
5.71867e-05
5.69736e-05
5.68309e-05
5.67454e-05
5.67083e-05
5.67094e-05
5.67412e-05
5.67947e-05
5.68609e-05
5.69365e-05
5.70179e-05
5.70922e-05
5.7148e-05
5.71622e-05
5.71051e-05
5.69498e-05
5.66825e-05
5.61462e-05
5.53521e-05
5.35692e-05
5.07087e-05
4.6333e-05
4.11922e-05
3.69187e-05
3.43858e-05
3.33501e-05
3.3131e-05
3.3199e-05
3.33018e-05
3.34105e-05
3.35435e-05
3.41608e-05
3.53829e-05
3.69604e-05
3.85873e-05
4.00691e-05
4.13116e-05
4.22881e-05
4.30087e-05
4.35014e-05
4.38007e-05
4.39411e-05
4.39537e-05
4.38636e-05
4.36913e-05
4.34546e-05
4.31706e-05
4.28517e-05
5.66091e-05
5.64039e-05
5.62689e-05
5.61926e-05
5.6163e-05
5.6172e-05
5.62081e-05
5.62625e-05
5.63307e-05
5.64091e-05
5.64939e-05
5.6574e-05
5.66447e-05
5.66958e-05
5.67167e-05
5.66895e-05
5.65916e-05
5.6395e-05
5.60653e-05
5.54937e-05
5.46624e-05
5.2958e-05
4.99802e-05
4.61794e-05
4.2134e-05
3.8825e-05
3.66572e-05
3.54916e-05
3.49963e-05
3.48987e-05
3.50522e-05
3.54128e-05
3.59404e-05
3.68144e-05
3.7987e-05
3.92773e-05
4.05283e-05
4.16423e-05
4.25715e-05
4.33032e-05
4.38448e-05
4.4214e-05
4.44337e-05
4.45265e-05
4.45128e-05
4.44094e-05
4.42321e-05
4.39936e-05
4.37069e-05
4.33824e-05
5.57192e-05
5.56623e-05
5.56426e-05
5.56514e-05
5.56828e-05
5.57306e-05
5.57905e-05
5.5858e-05
5.59282e-05
5.59962e-05
5.60602e-05
5.61137e-05
5.61505e-05
5.61608e-05
5.61337e-05
5.60533e-05
5.5901e-05
5.56507e-05
5.52644e-05
5.46695e-05
5.38139e-05
5.23677e-05
4.92762e-05
4.62041e-05
4.32204e-05
4.08424e-05
3.92289e-05
3.8291e-05
3.78658e-05
3.78143e-05
3.80453e-05
3.84992e-05
3.91159e-05
3.99001e-05
4.07986e-05
4.17091e-05
4.256e-05
4.3308e-05
4.39321e-05
4.44274e-05
4.4798e-05
4.50521e-05
4.52007e-05
4.52554e-05
4.52263e-05
4.51215e-05
4.49492e-05
4.47165e-05
4.44313e-05
4.41008e-05
5.50479e-05
5.50551e-05
5.50764e-05
5.51076e-05
5.51476e-05
5.51924e-05
5.52383e-05
5.5285e-05
5.53298e-05
5.53675e-05
5.53945e-05
5.54055e-05
5.53964e-05
5.53583e-05
5.52809e-05
5.51495e-05
5.49462e-05
5.46492e-05
5.42287e-05
5.36385e-05
5.28281e-05
5.17588e-05
4.85441e-05
4.63303e-05
4.43376e-05
4.28073e-05
4.17814e-05
4.1197e-05
4.09672e-05
4.1012e-05
4.12659e-05
4.16732e-05
4.21957e-05
4.27507e-05
4.33298e-05
4.38981e-05
4.44308e-05
4.49124e-05
4.53333e-05
4.56874e-05
4.59718e-05
4.61858e-05
4.63297e-05
4.64048e-05
4.64124e-05
4.63523e-05
4.62264e-05
4.60365e-05
4.57855e-05
4.54754e-05
5.41969e-05
5.42069e-05
5.42192e-05
5.42339e-05
5.42504e-05
5.42677e-05
5.42829e-05
5.42946e-05
5.43003e-05
5.42983e-05
5.42844e-05
5.4253e-05
5.41998e-05
5.41167e-05
5.3995e-05
5.38238e-05
5.35904e-05
5.32785e-05
5.28678e-05
5.23355e-05
5.16564e-05
5.0852e-05
4.79542e-05
4.65041e-05
4.53694e-05
4.45544e-05
4.404e-05
4.3781e-05
4.37279e-05
4.38325e-05
4.40491e-05
4.43358e-05
4.46299e-05
4.50035e-05
4.54446e-05
4.59276e-05
4.64272e-05
4.69219e-05
4.73941e-05
4.78292e-05
4.82153e-05
4.8545e-05
4.88132e-05
4.90161e-05
4.91509e-05
4.92153e-05
4.92088e-05
4.91316e-05
4.89824e-05
4.87555e-05
6.26319e-05
6.21595e-05
6.16796e-05
6.11829e-05
6.06697e-05
6.01414e-05
5.96004e-05
5.90506e-05
5.8493e-05
5.79311e-05
5.73666e-05
5.67986e-05
5.62273e-05
5.56508e-05
5.50649e-05
5.44649e-05
5.3844e-05
5.31945e-05
5.25121e-05
5.18051e-05
5.10972e-05
5.04045e-05
4.76671e-05
4.72531e-05
4.71635e-05
4.72842e-05
4.75715e-05
4.79978e-05
4.85393e-05
4.9176e-05
4.98903e-05
5.06716e-05
5.15421e-05
5.23711e-05
5.3155e-05
5.3892e-05
5.4581e-05
5.52209e-05
5.58103e-05
5.6348e-05
5.6832e-05
5.72616e-05
5.7636e-05
5.79541e-05
5.82163e-05
5.84238e-05
5.85791e-05
5.86857e-05
5.87477e-05
5.87693e-05
5.48216e-06
5.45877e-06
5.43581e-06
5.41315e-06
5.39068e-06
5.3681e-06
5.34554e-06
5.32311e-06
5.3009e-06
5.27892e-06
5.2571e-06
5.23537e-06
5.21368e-06
5.19205e-06
5.1706e-06
5.14941e-06
5.12852e-06
5.1079e-06
5.08746e-06
5.06717e-06
5.0504e-06
5.01183e-06
4.98082e-06
4.95473e-06
4.94064e-06
4.92086e-06
4.89852e-06
4.87536e-06
4.85221e-06
4.82953e-06
4.80762e-06
4.78668e-06
4.76677e-06
4.74776e-06
4.72943e-06
4.71164e-06
4.69433e-06
4.67753e-06
4.66124e-06
4.64548e-06
4.63031e-06
4.61556e-06
4.60123e-06
4.58718e-06
4.57325e-06
4.55932e-06
4.5453e-06
4.53102e-06
4.51624e-06
4.50057e-06
5.41344e-06
5.29166e-06
5.17483e-06
5.06262e-06
4.95547e-06
4.8537e-06
4.75708e-06
4.66531e-06
4.57801e-06
4.49474e-06
4.41512e-06
4.33886e-06
4.26586e-06
4.19607e-06
4.12945e-06
4.06583e-06
4.00496e-06
3.94657e-06
3.89054e-06
3.83714e-06
1.64897e-05
1.64284e-05
1.6375e-05
1.63063e-05
1.61625e-05
1.60589e-05
1.59946e-05
1.59589e-05
1.594e-05
1.5929e-05
1.59196e-05
1.59078e-05
1.58911e-05
1.58679e-05
1.58382e-05
1.58028e-05
1.57628e-05
1.57191e-05
1.5672e-05
1.56219e-05
1.55692e-05
1.55156e-05
1.54605e-05
1.54032e-05
1.53432e-05
1.52798e-05
1.52124e-05
1.514e-05
1.50616e-05
1.49759e-05
5.41296e-06
5.28991e-06
5.17126e-06
5.05716e-06
4.94769e-06
4.84281e-06
4.74234e-06
4.64603e-06
4.55358e-06
4.46469e-06
4.37912e-06
4.29672e-06
4.21743e-06
4.14119e-06
4.0679e-06
3.99736e-06
3.92936e-06
3.86369e-06
3.80038e-06
1.59484e-05
1.58291e-05
1.57142e-05
1.55984e-05
1.54818e-05
1.5364e-05
1.52487e-05
1.51368e-05
1.50286e-05
1.49242e-05
1.48235e-05
1.47263e-05
1.46318e-05
1.45391e-05
1.44471e-05
1.43558e-05
1.42651e-05
1.41751e-05
1.40859e-05
1.3998e-05
1.39115e-05
1.38265e-05
1.37428e-05
1.36601e-05
1.35779e-05
1.34959e-05
1.34139e-05
1.33318e-05
1.32492e-05
1.31657e-05
1.30801e-05
5.41293e-06
5.2907e-06
5.17315e-06
5.06021e-06
4.95183e-06
4.84783e-06
4.74793e-06
4.65188e-06
4.55942e-06
4.47036e-06
4.38456e-06
4.30196e-06
4.22251e-06
4.14608e-06
4.0725e-06
4.00154e-06
3.93301e-06
3.86676e-06
3.80287e-06
1.59629e-05
1.58368e-05
1.57111e-05
1.55855e-05
1.54603e-05
1.53356e-05
1.52117e-05
1.50888e-05
1.4967e-05
1.48469e-05
1.47289e-05
1.46129e-05
1.44986e-05
1.43853e-05
1.42728e-05
1.41611e-05
1.40506e-05
1.39412e-05
1.3833e-05
1.37259e-05
1.36202e-05
1.3516e-05
1.34132e-05
1.33117e-05
1.32114e-05
1.31122e-05
1.3014e-05
1.29168e-05
1.28205e-05
1.27251e-05
1.26299e-05
5.41292e-06
5.29069e-06
5.17317e-06
5.06027e-06
4.95188e-06
4.84775e-06
4.74761e-06
4.65122e-06
4.55841e-06
4.46908e-06
4.38317e-06
4.30062e-06
4.22131e-06
4.14504e-06
4.07156e-06
4.00063e-06
3.93211e-06
3.86593e-06
3.80218e-06
1.59582e-05
1.58331e-05
1.57079e-05
1.55826e-05
1.54572e-05
1.53323e-05
1.52081e-05
1.50849e-05
1.49628e-05
1.48422e-05
1.4723e-05
1.46052e-05
1.44883e-05
1.4372e-05
1.42563e-05
1.41416e-05
1.40281e-05
1.39157e-05
1.38043e-05
1.36937e-05
1.35843e-05
1.34762e-05
1.33693e-05
1.32638e-05
1.31596e-05
1.30567e-05
1.29549e-05
1.28541e-05
1.27539e-05
1.26545e-05
1.25557e-05
5.4129e-06
5.29071e-06
5.17339e-06
5.06077e-06
4.95264e-06
4.84869e-06
4.74864e-06
4.6523e-06
4.55957e-06
4.47039e-06
4.38472e-06
4.30245e-06
4.22339e-06
4.14728e-06
4.07385e-06
4.00291e-06
3.93437e-06
3.8682e-06
3.80448e-06
1.59765e-05
1.58505e-05
1.57242e-05
1.55978e-05
1.54716e-05
1.5346e-05
1.52213e-05
1.50975e-05
1.49748e-05
1.4853e-05
1.47323e-05
1.46124e-05
1.44931e-05
1.43744e-05
1.42566e-05
1.41403e-05
1.40254e-05
1.39117e-05
1.37991e-05
1.36874e-05
1.3577e-05
1.3468e-05
1.33604e-05
1.32543e-05
1.31496e-05
1.30463e-05
1.29442e-05
1.28431e-05
1.27423e-05
1.2642e-05
1.25423e-05
5.41287e-06
5.29064e-06
5.17335e-06
5.06076e-06
4.95259e-06
4.84853e-06
4.74834e-06
4.65189e-06
4.55912e-06
4.46999e-06
4.38441e-06
4.30223e-06
4.22319e-06
4.14702e-06
4.07348e-06
4.00243e-06
3.93381e-06
3.8676e-06
3.80386e-06
1.5972e-05
1.58464e-05
1.57204e-05
1.55945e-05
1.5469e-05
1.53444e-05
1.52208e-05
1.50981e-05
1.49762e-05
1.48553e-05
1.47353e-05
1.46159e-05
1.44971e-05
1.43791e-05
1.42623e-05
1.41468e-05
1.40327e-05
1.39194e-05
1.38068e-05
1.36949e-05
1.35842e-05
1.34747e-05
1.33666e-05
1.32598e-05
1.31542e-05
1.30499e-05
1.29468e-05
1.28446e-05
1.27428e-05
1.26414e-05
1.25407e-05
5.41283e-06
5.29054e-06
5.17325e-06
5.06064e-06
4.95244e-06
4.84836e-06
4.74821e-06
4.65188e-06
4.55929e-06
4.47037e-06
4.38497e-06
4.30289e-06
4.22389e-06
4.1477e-06
4.0741e-06
4.003e-06
3.93436e-06
3.86815e-06
3.80439e-06
1.59767e-05
1.58508e-05
1.57248e-05
1.55992e-05
1.54741e-05
1.53498e-05
1.5226e-05
1.51027e-05
1.49799e-05
1.48576e-05
1.47359e-05
1.46148e-05
1.44942e-05
1.43746e-05
1.42564e-05
1.41397e-05
1.40244e-05
1.39102e-05
1.37968e-05
1.36845e-05
1.35736e-05
1.34642e-05
1.33563e-05
1.32497e-05
1.31444e-05
1.30404e-05
1.29376e-05
1.28357e-05
1.27342e-05
1.26333e-05
1.25332e-05
5.41279e-06
5.29046e-06
5.17315e-06
5.06051e-06
4.95228e-06
4.84822e-06
4.74815e-06
4.65194e-06
4.55946e-06
4.4706e-06
4.3852e-06
4.30306e-06
4.22395e-06
4.14763e-06
4.07393e-06
4.00274e-06
3.93404e-06
3.86778e-06
3.804e-06
1.59745e-05
1.5849e-05
1.57236e-05
1.55985e-05
1.54739e-05
1.53498e-05
1.5226e-05
1.51025e-05
1.49794e-05
1.48569e-05
1.47349e-05
1.46133e-05
1.44923e-05
1.43722e-05
1.42536e-05
1.41365e-05
1.40207e-05
1.3906e-05
1.37922e-05
1.36796e-05
1.35685e-05
1.34589e-05
1.33508e-05
1.3244e-05
1.31386e-05
1.30345e-05
1.29316e-05
1.28296e-05
1.27282e-05
1.26275e-05
1.25276e-05
5.41277e-06
5.29047e-06
5.17316e-06
5.06051e-06
4.9523e-06
4.8483e-06
4.74833e-06
4.6522e-06
4.55977e-06
4.47089e-06
4.38542e-06
4.30321e-06
4.22402e-06
4.14764e-06
4.0739e-06
4.00269e-06
3.93401e-06
3.86781e-06
3.80411e-06
1.59757e-05
1.58504e-05
1.57251e-05
1.56e-05
1.54752e-05
1.53508e-05
1.52267e-05
1.51031e-05
1.49801e-05
1.48577e-05
1.47357e-05
1.4614e-05
1.44928e-05
1.43727e-05
1.4254e-05
1.41369e-05
1.40211e-05
1.39062e-05
1.37922e-05
1.36793e-05
1.35678e-05
1.34579e-05
1.33494e-05
1.32422e-05
1.31364e-05
1.30319e-05
1.29286e-05
1.28263e-05
1.27247e-05
1.26238e-05
1.25237e-05
5.41278e-06
5.29056e-06
5.17329e-06
5.06065e-06
4.95247e-06
4.84851e-06
4.74856e-06
4.65242e-06
4.55992e-06
4.47095e-06
4.3854e-06
4.30312e-06
4.22389e-06
4.14748e-06
4.07373e-06
4.00257e-06
3.93397e-06
3.86789e-06
3.80429e-06
1.59766e-05
1.58511e-05
1.57254e-05
1.55998e-05
1.54745e-05
1.53498e-05
1.52258e-05
1.51025e-05
1.49799e-05
1.48577e-05
1.47358e-05
1.46141e-05
1.4493e-05
1.4373e-05
1.42546e-05
1.41378e-05
1.4022e-05
1.3907e-05
1.37928e-05
1.36796e-05
1.35678e-05
1.34576e-05
1.33489e-05
1.32414e-05
1.31353e-05
1.30305e-05
1.29269e-05
1.28242e-05
1.27223e-05
1.2621e-05
1.25206e-05
5.41282e-06
5.29069e-06
5.17346e-06
5.06083e-06
4.95264e-06
4.84865e-06
4.74863e-06
4.65238e-06
4.55978e-06
4.47073e-06
4.38515e-06
4.30286e-06
4.22363e-06
4.14723e-06
4.07352e-06
4.00245e-06
3.934e-06
3.86804e-06
3.80447e-06
1.59762e-05
1.58501e-05
1.57237e-05
1.55975e-05
1.54721e-05
1.53476e-05
1.52241e-05
1.51013e-05
1.4979e-05
1.4857e-05
1.47352e-05
1.46136e-05
1.44928e-05
1.43733e-05
1.42553e-05
1.41387e-05
1.40229e-05
1.39078e-05
1.37934e-05
1.36802e-05
1.35685e-05
1.34584e-05
1.33497e-05
1.32423e-05
1.31361e-05
1.30312e-05
1.29274e-05
1.28245e-05
1.27223e-05
1.26208e-05
1.25201e-05
5.41287e-06
5.29081e-06
5.17358e-06
5.06092e-06
4.95265e-06
4.84856e-06
4.74843e-06
4.65211e-06
4.55948e-06
4.47048e-06
4.38496e-06
4.30273e-06
4.22356e-06
4.14723e-06
4.07365e-06
4.00276e-06
3.93446e-06
3.86856e-06
3.80491e-06
1.59776e-05
1.58504e-05
1.57231e-05
1.55967e-05
1.54715e-05
1.53474e-05
1.52242e-05
1.51015e-05
1.49791e-05
1.4857e-05
1.47352e-05
1.46139e-05
1.44935e-05
1.43743e-05
1.42565e-05
1.41398e-05
1.40241e-05
1.39091e-05
1.3795e-05
1.36822e-05
1.3571e-05
1.34613e-05
1.3353e-05
1.32458e-05
1.31397e-05
1.30347e-05
1.29307e-05
1.28277e-05
1.27253e-05
1.26236e-05
1.25226e-05
5.4129e-06
5.29085e-06
5.17357e-06
5.0608e-06
4.9524e-06
4.84816e-06
4.74793e-06
4.65155e-06
4.55894e-06
4.46996e-06
4.38445e-06
4.30221e-06
4.22301e-06
4.14671e-06
4.0732e-06
4.00238e-06
3.93409e-06
3.86805e-06
3.80415e-06
1.59705e-05
1.5843e-05
1.57161e-05
1.55904e-05
1.5466e-05
1.53424e-05
1.52191e-05
1.5096e-05
1.49732e-05
1.48508e-05
1.4729e-05
1.46078e-05
1.44875e-05
1.43684e-05
1.42508e-05
1.41345e-05
1.40195e-05
1.39055e-05
1.37927e-05
1.36813e-05
1.35714e-05
1.34629e-05
1.33555e-05
1.3249e-05
1.31435e-05
1.30389e-05
1.29352e-05
1.28323e-05
1.273e-05
1.26282e-05
1.25269e-05
5.41291e-06
5.2908e-06
5.17343e-06
5.06055e-06
4.95207e-06
4.84782e-06
4.74766e-06
4.65142e-06
4.55897e-06
4.47013e-06
4.38472e-06
4.30254e-06
4.22343e-06
4.14723e-06
4.07384e-06
4.00307e-06
3.9347e-06
3.86848e-06
3.80437e-06
1.59726e-05
1.58449e-05
1.57183e-05
1.55929e-05
1.54682e-05
1.53433e-05
1.52181e-05
1.50926e-05
1.49674e-05
1.48428e-05
1.47189e-05
1.45958e-05
1.4474e-05
1.43538e-05
1.42357e-05
1.41198e-05
1.40056e-05
1.38929e-05
1.37816e-05
1.36717e-05
1.35633e-05
1.34562e-05
1.335e-05
1.32446e-05
1.314e-05
1.30363e-05
1.29335e-05
1.28315e-05
1.27299e-05
1.26288e-05
1.25279e-05
5.41289e-06
5.29066e-06
5.17307e-06
5.05997e-06
4.95127e-06
4.84685e-06
4.74657e-06
4.65023e-06
4.55764e-06
4.46863e-06
4.38303e-06
4.3007e-06
4.22148e-06
4.14522e-06
4.07175e-06
4.00083e-06
3.93226e-06
3.86586e-06
3.80167e-06
1.59526e-05
1.58266e-05
1.57017e-05
1.55776e-05
1.54535e-05
1.5329e-05
1.5204e-05
1.50788e-05
1.49541e-05
1.483e-05
1.47065e-05
1.4584e-05
1.44629e-05
1.4344e-05
1.42276e-05
1.41136e-05
1.40016e-05
1.38911e-05
1.37818e-05
1.3674e-05
1.35676e-05
1.34624e-05
1.33581e-05
1.32544e-05
1.31515e-05
1.30497e-05
1.29489e-05
1.28489e-05
1.27495e-05
1.26507e-05
1.25525e-05
5.41287e-06
5.29056e-06
5.173e-06
5.06004e-06
4.9516e-06
4.84749e-06
4.74749e-06
4.65135e-06
4.55886e-06
4.46987e-06
4.38426e-06
4.30191e-06
4.22267e-06
4.14635e-06
4.07272e-06
4.00161e-06
3.93284e-06
3.86632e-06
3.80213e-06
1.59574e-05
1.58311e-05
1.5706e-05
1.55813e-05
1.54565e-05
1.53315e-05
1.52065e-05
1.5082e-05
1.49582e-05
1.48352e-05
1.4713e-05
1.45922e-05
1.44733e-05
1.43571e-05
1.42439e-05
1.41333e-05
1.40247e-05
1.39178e-05
1.38127e-05
1.37096e-05
1.36086e-05
1.35092e-05
1.3411e-05
1.3314e-05
1.32184e-05
1.31245e-05
1.30325e-05
1.29421e-05
1.28531e-05
1.27658e-05
1.26809e-05
5.41285e-06
5.28966e-06
5.1711e-06
5.05723e-06
4.94802e-06
4.84331e-06
4.74283e-06
4.6463e-06
4.55353e-06
4.46439e-06
4.37879e-06
4.29658e-06
4.21755e-06
4.14146e-06
4.06812e-06
3.99737e-06
3.92909e-06
3.8632e-06
3.79974e-06
1.5944e-05
1.58192e-05
1.56995e-05
1.55774e-05
1.5454e-05
1.53365e-05
1.52265e-05
1.51214e-05
1.50188e-05
1.49176e-05
1.48172e-05
1.47179e-05
1.46204e-05
1.45253e-05
1.44328e-05
1.43425e-05
1.42543e-05
1.41682e-05
1.40847e-05
1.40042e-05
1.39266e-05
1.38511e-05
1.37775e-05
1.37057e-05
1.36363e-05
1.35697e-05
1.35058e-05
1.34445e-05
1.33859e-05
1.33309e-05
1.32813e-05
5.4132e-06
5.29109e-06
5.17436e-06
5.06259e-06
4.95604e-06
4.85476e-06
4.75829e-06
4.66629e-06
4.57852e-06
4.49483e-06
4.41505e-06
4.33897e-06
4.2663e-06
4.19679e-06
4.13024e-06
4.06649e-06
4.00541e-06
3.94687e-06
3.8908e-06
3.83708e-06
3.75374e-06
1.59982e-05
1.59831e-05
1.58963e-05
1.57887e-05
1.57842e-05
1.58205e-05
1.58653e-05
1.59032e-05
1.59282e-05
1.59391e-05
1.59374e-05
1.59252e-05
1.59046e-05
1.58772e-05
1.58448e-05
1.58092e-05
1.57724e-05
1.57356e-05
1.56989e-05
1.56621e-05
1.56251e-05
1.55886e-05
1.55536e-05
1.55204e-05
1.54892e-05
1.54595e-05
1.5432e-05
1.5409e-05
1.5395e-05
5.48261e-06
5.45872e-06
5.43545e-06
5.4129e-06
5.39074e-06
5.36848e-06
5.34609e-06
5.32365e-06
5.30126e-06
5.27903e-06
5.25699e-06
5.23512e-06
5.21342e-06
5.19191e-06
5.17063e-06
5.14958e-06
5.12874e-06
5.10808e-06
5.0876e-06
5.06731e-06
5.05764e-06
5.04146e-06
5.02509e-06
5.00711e-06
4.96624e-06
4.9315e-06
4.90126e-06
4.8743e-06
4.84973e-06
4.82694e-06
4.80551e-06
4.78516e-06
4.76561e-06
4.74662e-06
4.72807e-06
4.70994e-06
4.69226e-06
4.67502e-06
4.65807e-06
4.64128e-06
4.62458e-06
4.60805e-06
4.5918e-06
4.57586e-06
4.5601e-06
4.5443e-06
4.52831e-06
4.51209e-06
4.49565e-06
4.47894e-06
2.07211e-05
1.1766e-05
1.00442e-05
9.58337e-06
9.03231e-06
8.32124e-06
7.58041e-06
6.9221e-06
6.4086e-06
6.05424e-06
5.81007e-06
5.787e-06
5.81268e-06
5.84665e-06
5.91369e-06
6.04169e-06
6.22277e-06
6.42954e-06
6.89784e-06
1.44285e-05
2.05299e-05
1.16667e-05
1.00264e-05
9.58647e-06
9.02654e-06
8.29766e-06
7.53977e-06
6.86939e-06
6.35002e-06
5.99588e-06
5.75998e-06
5.75686e-06
5.79287e-06
5.83249e-06
5.90281e-06
6.0344e-06
6.21808e-06
6.42271e-06
6.89281e-06
1.45695e-05
2.03389e-05
1.15666e-05
1.00101e-05
9.58987e-06
9.02003e-06
8.2726e-06
7.49713e-06
6.81437e-06
6.28878e-06
5.9332e-06
5.68938e-06
5.69969e-06
5.75375e-06
5.8054e-06
5.88058e-06
6.01417e-06
6.19924e-06
6.40373e-06
6.88164e-06
1.47048e-05
2.01437e-05
1.14678e-05
9.99539e-06
9.59359e-06
9.01279e-06
8.24601e-06
7.45249e-06
6.75718e-06
6.22547e-06
5.86875e-06
5.62237e-06
5.64239e-06
5.71365e-06
5.77792e-06
5.85854e-06
5.9942e-06
6.18052e-06
6.38467e-06
6.87029e-06
1.48386e-05
1.99472e-05
1.13702e-05
9.98236e-06
9.59761e-06
9.00475e-06
8.21777e-06
7.40564e-06
6.69755e-06
6.15974e-06
5.80213e-06
5.55364e-06
5.58481e-06
5.67274e-06
5.75003e-06
5.83664e-06
5.97448e-06
6.16191e-06
6.36554e-06
6.85878e-06
1.49712e-05
1.97495e-05
1.12737e-05
9.97089e-06
9.60185e-06
8.9958e-06
8.18774e-06
7.3564e-06
6.63531e-06
6.09147e-06
5.73354e-06
5.48462e-06
5.52726e-06
5.63116e-06
5.72174e-06
5.8149e-06
5.95504e-06
6.14344e-06
6.34636e-06
6.8471e-06
1.51025e-05
1.95506e-05
1.11783e-05
9.96093e-06
9.60624e-06
8.98582e-06
8.15571e-06
7.30453e-06
6.57019e-06
6.02044e-06
5.66301e-06
5.4164e-06
5.47011e-06
5.58901e-06
5.69303e-06
5.79329e-06
5.9359e-06
6.12513e-06
6.32714e-06
6.83529e-06
1.52325e-05
1.93506e-05
1.10839e-05
9.95241e-06
9.61068e-06
8.97469e-06
8.1215e-06
7.24978e-06
6.50191e-06
5.94635e-06
5.59026e-06
5.34901e-06
5.41348e-06
5.54635e-06
5.66391e-06
5.7718e-06
5.91704e-06
6.10698e-06
6.30789e-06
6.82335e-06
1.53615e-05
1.91497e-05
1.09903e-05
9.94524e-06
9.61509e-06
8.96225e-06
8.08491e-06
7.1919e-06
6.4302e-06
5.86886e-06
5.51483e-06
5.28177e-06
5.35706e-06
5.50315e-06
5.63433e-06
5.75038e-06
5.89846e-06
6.08899e-06
6.28861e-06
6.81131e-06
1.54895e-05
1.8948e-05
1.08975e-05
9.93937e-06
9.61939e-06
8.9484e-06
8.04577e-06
7.13067e-06
6.35478e-06
5.78764e-06
5.43617e-06
5.21356e-06
5.30036e-06
5.45928e-06
5.60423e-06
5.72896e-06
5.88013e-06
6.07116e-06
6.26932e-06
6.79919e-06
1.56167e-05
1.87457e-05
1.08054e-05
9.93479e-06
9.62354e-06
8.93304e-06
8.00393e-06
7.06589e-06
6.27547e-06
5.70243e-06
5.35377e-06
5.14287e-06
5.2427e-06
5.41461e-06
5.57355e-06
5.70748e-06
5.86201e-06
6.05348e-06
6.25003e-06
6.78703e-06
1.57434e-05
1.85428e-05
1.07142e-05
9.93151e-06
9.6275e-06
8.91611e-06
7.95929e-06
6.99745e-06
6.19214e-06
5.61305e-06
5.26723e-06
5.06877e-06
5.18352e-06
5.36903e-06
5.54225e-06
5.68592e-06
5.84409e-06
6.03596e-06
6.23074e-06
6.77485e-06
1.58695e-05
1.83395e-05
1.06239e-05
9.92958e-06
9.63128e-06
8.89758e-06
7.9118e-06
6.92529e-06
6.10478e-06
5.51946e-06
5.17633e-06
4.99053e-06
5.12239e-06
5.32244e-06
5.51035e-06
5.66425e-06
5.82636e-06
6.0186e-06
6.21146e-06
6.76268e-06
1.59954e-05
1.81362e-05
1.05349e-05
9.92905e-06
9.63488e-06
8.87746e-06
7.86149e-06
6.84948e-06
6.01351e-06
5.4218e-06
5.08101e-06
4.90758e-06
5.05893e-06
5.27477e-06
5.47783e-06
5.64245e-06
5.80879e-06
6.00139e-06
6.1922e-06
6.75053e-06
1.61213e-05
1.79328e-05
1.04472e-05
9.92996e-06
9.6383e-06
8.85578e-06
7.80842e-06
6.77015e-06
5.91858e-06
5.32034e-06
4.98143e-06
4.81968e-06
4.99282e-06
5.22597e-06
5.44472e-06
5.62052e-06
5.79138e-06
5.98432e-06
6.17295e-06
6.73844e-06
1.62472e-05
1.77297e-05
1.03613e-05
9.93235e-06
9.64155e-06
8.83258e-06
7.75274e-06
6.68758e-06
5.82042e-06
5.21558e-06
4.87792e-06
4.7265e-06
4.92372e-06
5.17595e-06
5.41102e-06
5.59843e-06
5.7741e-06
5.96739e-06
6.15371e-06
6.72643e-06
1.63733e-05
1.75269e-05
1.02773e-05
9.93624e-06
9.64462e-06
8.80798e-06
7.69471e-06
6.60218e-06
5.71962e-06
5.1082e-06
4.77102e-06
4.62758e-06
4.85131e-06
5.12465e-06
5.37675e-06
5.57619e-06
5.75695e-06
5.95059e-06
6.1345e-06
6.71454e-06
1.65e-05
1.73246e-05
1.01957e-05
9.94161e-06
9.64752e-06
8.78212e-06
7.63465e-06
6.51451e-06
5.61697e-06
4.99912e-06
4.66162e-06
4.52211e-06
4.77549e-06
5.07204e-06
5.34195e-06
5.55382e-06
5.73991e-06
5.93393e-06
6.11532e-06
6.70281e-06
1.66274e-05
1.71229e-05
1.01167e-05
9.94846e-06
9.65025e-06
8.75521e-06
7.57303e-06
6.42527e-06
5.51343e-06
4.88948e-06
4.55096e-06
4.41201e-06
4.69674e-06
5.01824e-06
5.30667e-06
5.53134e-06
5.72301e-06
5.91742e-06
6.09618e-06
6.6913e-06
1.67557e-05
1.69219e-05
1.0041e-05
9.95671e-06
9.65283e-06
8.72752e-06
7.5104e-06
6.33533e-06
5.41016e-06
4.78064e-06
4.44063e-06
4.30092e-06
4.61587e-06
4.96347e-06
5.27103e-06
5.5088e-06
5.70626e-06
5.90107e-06
6.0771e-06
6.68004e-06
1.68853e-05
1.67217e-05
9.96881e-06
9.9663e-06
9.65531e-06
8.69936e-06
7.44742e-06
6.24567e-06
5.30842e-06
4.67408e-06
4.33251e-06
4.18786e-06
4.53354e-06
4.90805e-06
5.23517e-06
5.48628e-06
5.68968e-06
5.88491e-06
6.05811e-06
6.66912e-06
1.70163e-05
1.65224e-05
9.90065e-06
9.97713e-06
9.65774e-06
8.67112e-06
7.38482e-06
6.15736e-06
5.20952e-06
4.57131e-06
4.22869e-06
4.07523e-06
4.45081e-06
4.85239e-06
5.1993e-06
5.46385e-06
5.67332e-06
5.86896e-06
6.03923e-06
6.65861e-06
1.71492e-05
1.63241e-05
9.83692e-06
9.98908e-06
9.6602e-06
8.64321e-06
7.32338e-06
6.07148e-06
5.11478e-06
4.47383e-06
4.13134e-06
3.96574e-06
4.36905e-06
4.79702e-06
5.16363e-06
5.44164e-06
5.65725e-06
5.85327e-06
6.02051e-06
6.6486e-06
1.72842e-05
1.61269e-05
9.77796e-06
1.0002e-05
9.66277e-06
8.61605e-06
7.26387e-06