/*--------------------------------*- C++ -*----------------------------------*\
  =========                 |
  \\      /  F ield         | OpenFOAM: The Open Source CFD Toolbox
   \\    /   O peration     | Website:  https://openfoam.org
    \\  /    A nd           | Version:  8
     \\/     M anipulation  |
\*---------------------------------------------------------------------------*/
FoamFile
{
    version     2.0;
    format      ascii;
    class       volScalarField;
    location    "200";
    object      p;
}
// * * * * * * * * * * * * * * * * * * * * * * * * * * * * * * * * * * * * * //

dimensions      [1 -1 -2 0 0 0 0];

internalField   nonuniform List<scalar> 
8400
(
15042.5
19846.7
25042.6
30368.7
35756.4
41176.5
46588
51894.3
56954.9
61621.7
65785.6
69396.5
72419.9
74769.5
76495.5
77948.4
79605.5
81776.2
84307.6
86726.4
88670.4
90097.9
91093.7
91744.5
92132.2
92327.3
92384.9
92345
92239.2
92093.9
91933.4
91779.3
91649.5
91557.9
91513.3
91518.7
91572.4
91668.4
91798.8
91954.7
92127.5
92309.3
92493.5
92675
92850.3
93017.5
93174.8
93323.2
93468.8
93617.6
14458.5
19404.5
24550.5
29846
35157.1
40518.6
45914.7
51254.1
56389.1
61161.4
65443.4
69170.1
72347.6
74894.8
76647.3
77837.7
79041.9
80927.1
83633.7
86514.4
88754.5
90271.3
91279.9
91895.4
92227.5
92368.6
92382
92306.3
92171.1
92001.4
91820.9
91650.3
91507.8
91407.8
91359
91364.2
91420
91519.9
91655.6
91817.5
91996.1
92183
92371.3
92555.7
92732.7
92899.8
93055.2
93198.8
93334
93464.5
14294.5
19452.2
24508.3
29847.5
35176.3
40577.6
46043.1
51481.8
56733
61623.7
66024.1
69862.7
73149.2
75851.7
77490.4
77984.8
77849.4
78996.9
82399.5
86546.5
89262.2
90773.6
91756.9
92281.5
92504.7
92549.2
92480.5
92335.7
92143.9
91928.5
91710.7
91510.6
91347.2
91235.5
91183.6
91192.2
91256.6
91368.5
91518
91694.4
91887.1
92086.6
92285.5
92478.8
92662.8
92834.9
92993.7
93139.2
93272.8
93396
12658
18040.2
23361.5
28801.4
34200.7
39638.6
45118.8
50549
55810.9
60815.1
65495.9
69759.3
73437.4
76494.9
78321.3
77453.3
75299.6
76600
82054.8
87785.8
90273.2
91460
92436.5
92811.5
92878.6
92791.1
92609.8
92372.7
92105.7
91828.1
91558.8
91317.7
91124.8
90995.9
90938
90950
91025.4
91153.6
91321.9
91517.5
91728
91943.2
92155.2
92358.7
92549.7
92726
92886.7
93031.6
93161.9
93279.1
3070.41
12488.3
21054.7
27541.5
33078.5
38252.5
43235
48124.1
52982.5
57819.8
62613.1
67255
71500.5
75026.1
77015.5
75301.8
74609.4
79001.8
86185.7
90031.8
90927.4
92145.8
93274.1
93428.7
93315.8
93073.9
92764.3
92425
92075.3
91728.5
91400.8
91112.7
90886.8
90740
90678.2
90698.5
90791.5
90943.3
91138
91359.9
91594.7
91831.2
92061.3
92279
92480.5
92664
92828.7
92974.7
93102.9
93215.2
10215.3
17089.6
24426.1
29981
34446.4
38524.4
42455.7
46342.4
50254.7
54237.3
58307.7
62434.9
66483.5
70222.1
73347.3
75429.8
77965.8
81910.7
86443.5
89042.1
91552.2
93482.9
94017.6
93981.8
93700.7
93299.7
92863.4
92425.6
91996.9
91583.1
91195.9
90857.6
90596.1
90430.6
90366.3
90398.1
90513.4
90694.2
90920.4
91172.9
91435.6
91696
91945.5
92178
92390.4
92581.2
92750
92897.1
93023.7
93131.8
9209.12
16189.8
22831.9
27874.2
32035.3
35916.3
39716.7
43494
47270.5
51051.7
54844.8
58673.5
62551.6
66466.2
70350.9
74034.3
77742.3
81714.4
85720.3
88775.9
91549.4
93392.7
94319.5
94395.2
93948.3
93410.6
92871.6
92358.1
91871.4
91406.5
90968.3
90581.3
90282.9
90098.5
90033.1
90080.4
90224.3
90441.5
90706.4
90995.7
91291
91578.6
91849.7
92098.7
92322.9
92521.2
92694
92842.4
92967.6
93072
10952.3
17606.4
23717.5
28383.5
32300.1
35969.6
39540.4
43039
46470.8
49846.7
53200.4
56601
60132.6
63869.6
67825.2
71915.1
76119.4
80386.7
84457.7
87771.3
90502.1
92629.2
94029.1
94286.9
93928
93322.5
92730.8
92180.5
91669.1
91179.7
90705.5
90270.5
89928.4
89719.5
89652.5
89720.5
89902.2
90165.5
90477
90808.7
91139.9
91456.4
91749.6
92014.8
92250.1
92455.2
92631.3
92780.2
92903.7
93004.4
11618.6
18287.4
23942.4
28245.6
31941.5
35421.5
38779.6
42033.9
45202.4
48318.2
51438.6
54643
58023.5
61667.3
65624.7
69867.2
74300.9
78738.4
82912.1
86435.7
89243.2
91435.6
93067.8
93706.6
93544.7
93029.4
92454.2
91917.7
91422.2
90939
90438.6
89941.4
89536.2
89297
89234.5
89335.4
89567.8
89887.2
90251.6
90628.8
90996.8
91341.7
91655.7
91935.5
92180.3
92391.3
92570.5
92720.1
92842.5
92940.6
12493.3
19113.4
24336
28341.9
31864.8
35173.5
38324.6
41350.6
44295.3
47212.8
50175.1
53260.4
56551.5
60129.8
64054.5
68314.4
72792.3
77271.2
81506.2
85179.8
88100
90310.5
91968.9
92860.6
92933.6
92579.9
92078.3
91583.4
91109
90625.7
90089.5
89528.5
89091.1
88866.4
88834.7
88979.5
89264.1
89635.6
90045.8
90460.6
90858.1
91225.1
91554.5
91844.1
92094.6
92308.1
92487.4
92635.7
92756.6
92853.7
13236.2
19822.4
24634
28435.6
31848.5
35025.8
38021.7
40894
43706.5
46526.1
49422.8
52466.2
55726.6
59273.1
63160.7
67382.6
71826.1
76277.4
80506.6
84239.7
87249.4
89495.8
91115.6
92071.3
92306.8
92088
91688
91232.7
90765
90283.5
89765.2
89240
88851.7
88635.5
88597.2
88748
89053.5
89450
89882.8
90315.1
90726.2
91103.6
91440.9
91736.1
91990.4
92206.2
92386.8
92536
92657.7
92755.7
14196.2
20232.4
24679.5
28434.3
31819.4
34930.6
37850.1
40657.2
43425.7
46225.1
49121.2
52175.6
55450.8
59007.4
62889.6
67080.9
71486.5
75889.4
80066.4
83779
86812.4
89076
90647.8
91569
91855.2
91710.9
91373.9
90949.3
90494.7
90026.1
89554.9
89090.7
88713.6
88482
88434.5
88583.2
88895.2
89301.3
89744.3
90185.9
90603.7
90985.3
91325.2
91621.9
91877
92093.1
92273.8
92423.3
92545.6
92644.6
14575.3
20214.1
24547.3
28356.9
31762.1
34872.9
37794
40613.3
43407.7
46245.4
49188.1
52294.6
55624.9
59238.2
63171
67402.1
71812.1
76175.1
80270.6
83897.1
86874.5
89098.1
90600.2
91441.8
91695.6
91549.9
91214.3
90790.7
90331.4
89861.6
89402.8
88965.9
88615.6
88400.1
88365.8
88519
88825.8
89223.3
89657.4
90090.9
90501.5
90877.2
91212.4
91505.6
91758
91972.4
92152.2
92301.5
92424.3
92524.4
14429.6
19815
24299.1
28219.2
31699
34880.8
37876.1
40775
43653
46576.5
49605.1
52797.2
56212.9
59911.1
63931.2
68257.5
72722.5
77085.7
81113.2
84619.4
87468.6
89586.8
90980.8
91707.6
91873.4
91664.9
91272.9
90802
90304.5
89808.5
89337.1
88914.5
88606.4
88435.4
88425.3
88578.4
88863.5
89230.4
89633.3
90039.1
90427.1
90785.4
91107.7
91391.7
91637.7
91847.7
92025
92173
92295.5
92395.8
14225.5
19440.5
24034.8
28048.9
31642.2
34949.6
38076.6
41110.9
44127.5
47193.5
50369.3
53711.4
57273.3
61106.7
65243.1
69651.4
74160.7
78539.7
82536.7
85909
88556.6
90513.9
91767.1
92351.5
92391.3
92074.6
91582.5
91026.3
90463.4
89924.8
89435
89024.7
88739.8
88592
88589.8
88727.3
88976.4
89297.6
89654.6
90019.9
90374.9
90707.7
91011.3
91282
91518.8
91722.7
91896.1
92041.7
92162.8
92262.5
14098.9
19172.7
23794.8
27885.7
31597.3
35042.1
38319.3
41514
44703.2
47955.3
51330.1
54880.8
58651.2
62676.1
66964.4
71464.3
76021.1
80424.2
84410.2
87685.2
90093.7
91798.3
92887.5
93313.6
93204.8
92751.5
92131.7
91463.4
90811.5
90211.6
89689.5
89274.3
88992.4
88845.6
88830.3
88934.1
89132.9
89397.1
89699.1
90016.7
90333.4
90637.1
90919.6
91175.6
91402.4
91599.8
91768.7
91911.3
92030.2
92128.3
13986.6
18932.3
23566.8
27735.8
31564.6
35150.2
38584.9
41952.3
45329.5
48785.5
52380.2
56162.2
60165.7
64406
68865.9
73474.6
78092.7
82529.2
86522.1
89741.2
91956.1
93352.5
94215.7
94481
94213.8
93608.8
92844.9
92046.1
91285
90603.1
90028.9
89587.2
89289.4
89126.7
89084.2
89144.7
89287.7
89491.8
89737.4
90007
90286
90561.8
90824.7
91067.4
91285.6
91477.3
91642.4
91782.2
91898.6
91994.2
13960.8
18815.9
23466.4
27711.1
31652.8
35376.1
38966.4
42504
46065.6
49719
53521.4
57516.6
61729.1
66158
70767.1
75476.3
80156.8
84629.8
88637
91831
93915.7
95002.2
95594.4
95703.6
95279.3
94522.6
93618
92690.9
91817.3
91045.4
90409
89929.8
89607.7
89422.3
89347.5
89361.3
89446.6
89589.5
89777.8
89999.3
90240.9
90489.7
90734
90964.6
91175.2
91362.2
91524
91661
91774.4
91866.5
13915.6
18677.3
23323.2
27615.5
31637.8
35464
39174.2
42846.5
46555.6
50367.7
54336.7
58500.1
62874
67447.5
72177.1
76983.3
81748
86302
90387.1
93631.7
95670.6
96502.6
96825.1
96779.9
96185
95261.1
94216.7
93172.7
92196.7
91340
90643.1
90127.6
89784.6
89582.6
89486
89467.7
89512
89610.5
89757.2
89943.8
90159.3
90390.3
90623.7
90848.4
91056.3
91242.4
91403.9
91540.1
91651.8
91740.6
13970.9
18701.6
23345
27661.4
31730.8
35622.8
39414.3
43182.1
47000.5
50933.8
55033.7
59333.3
63841.4
68540.2
73383.1
78292.1
83155.6
87808.4
91981.8
95255.3
97156.9
97633.8
97720.8
97666.1
96988.5
95921.1
94746.5
93594.1
92522.3
91582.7
90821.8
90263.1
89893.9
89673.9
89559.2
89518.2
89534.9
89603.6
89721.8
89884.2
90080.8
90298.5
90523.3
90743
90948.4
91133.3
91294.1
91429.4
91538.9
91622.7
75817.5
75817.3
75817.2
75817.1
75817.1
75817.1
75817.1
75817.2
75817.2
75817.2
75817.2
75817.3
75817.3
75817.3
75817.4
75817.4
75817.4
75817.5
75817.5
75817.5
75817.6
75817.6
75817.6
75817.6
75817.7
75817.7
75817.7
75817.7
75817.7
75817.8
75817.8
75817.8
75817.8
75817.8
75817.9
75817.9
75817.9
75817.9
75818
75818
75818
75818
75818.1
75818.1
75818.1
75818.2
75818.2
75818.2
75818.3
75818.3
75719.2
75719.4
75719.4
75719.4
75719.4
75719.5
75719.5
75719.5
75719.6
75719.6
75719.6
75719.7
75719.7
75719.7
75719.8
75719.8
75719.8
75719.9
75719.9
75719.9
75720
75720
75720
75720
75720.1
75720.1
75720.1
75720.1
75720.1
75720.2
75720.2
75720.2
75720.2
75720.2
75720.3
75720.3
75720.3
75720.3
75720.4
75720.4
75720.4
75720.5
75720.5
75720.5
75720.6
75720.6
75720.6
75720.7
75720.7
75720.7
75621.8
75621.9
75621.9
75621.9
75621.9
75622
75622
75622
75622
75622
75622.1
75622.1
75622.1
75622.2
75622.2
75622.2
75622.3
75622.3
75622.3
75622.4
75622.4
75622.4
75622.5
75622.5
75622.5
75622.5
75622.5
75622.6
75622.6
75622.6
75622.6
75622.6
75622.6
75622.7
75622.7
75622.7
75622.7
75622.8
75622.8
75622.8
75622.8
75622.9
75622.9
75622.9
75623
75623
75623.1
75623.1
75623.1
75623.1
75524.3
75524.3
75524.3
75524.3
75524.3
75524.3
75524.3
75524.4
75524.4
75524.4
75524.5
75524.5
75524.5
75524.5
75524.6
75524.6
75524.7
75524.7
75524.7
75524.8
75524.8
75524.8
75524.9
75524.9
75524.9
75524.9
75524.9
75525
75525
75525
75525
75525
75525.1
75525.1
75525.1
75525.1
75525.1
75525.2
75525.2
75525.2
75525.3
75525.3
75525.3
75525.4
75525.4
75525.4
75525.5
75525.5
75525.5
75525.6
75426.7
75426.7
75426.7
75426.7
75426.7
75426.8
75426.8
75426.8
75426.8
75426.9
75426.9
75426.9
75427
75427
75427
75427.1
75427.1
75427.1
75427.2
75427.2
75427.2
75427.3
75427.3
75427.3
75427.3
75427.4
75427.4
75427.4
75427.4
75427.4
75427.4
75427.5
75427.5
75427.5
75427.5
75427.5
75427.6
75427.6
75427.6
75427.6
75427.7
75427.7
75427.8
75427.8
75427.8
75427.9
75427.9
75427.9
75428
75428
75329.1
75329.1
75329.1
75329.1
75329.1
75329.2
75329.2
75329.2
75329.2
75329.3
75329.3
75329.3
75329.3
75329.4
75329.4
75329.4
75329.5
75329.5
75329.6
75329.6
75329.6
75329.7
75329.7
75329.7
75329.7
75329.8
75329.8
75329.8
75329.8
75329.8
75329.9
75329.9
75329.9
75329.9
75329.9
75330
75330
75330
75330
75330.1
75330.1
75330.1
75330.2
75330.2
75330.3
75330.3
75330.3
75330.4
75330.4
75330.5
75231.5
75231.5
75231.5
75231.5
75231.5
75231.6
75231.6
75231.6
75231.7
75231.7
75231.7
75231.7
75231.8
75231.8
75231.8
75231.9
75231.9
75231.9
75232
75232
75232.1
75232.1
75232.1
75232.1
75232.2
75232.2
75232.2
75232.2
75232.2
75232.3
75232.3
75232.3
75232.3
75232.3
75232.3
75232.4
75232.4
75232.4
75232.4
75232.5
75232.5
75232.6
75232.6
75232.6
75232.7
75232.7
75232.8
75232.8
75232.9
75232.9
75133.9
75133.9
75133.9
75133.9
75134
75134
75134
75134
75134.1
75134.1
75134.1
75134.2
75134.2
75134.2
75134.2
75134.3
75134.3
75134.3
75134.4
75134.4
75134.5
75134.5
75134.5
75134.6
75134.6
75134.6
75134.6
75134.6
75134.7
75134.7
75134.7
75134.7
75134.7
75134.7
75134.8
75134.8
75134.8
75134.8
75134.9
75134.9
75134.9
75135
75135
75135.1
75135.1
75135.2
75135.2
75135.3
75135.3
75135.3
75036.3
75036.3
75036.4
75036.4
75036.4
75036.4
75036.4
75036.4
75036.5
75036.5
75036.5
75036.6
75036.6
75036.6
75036.7
75036.7
75036.7
75036.8
75036.8
75036.8
75036.9
75036.9
75036.9
75037
75037
75037
75037
75037.1
75037.1
75037.1
75037.1
75037.1
75037.1
75037.2
75037.2
75037.2
75037.2
75037.3
75037.3
75037.3
75037.4
75037.4
75037.4
75037.5
75037.5
75037.6
75037.6
75037.7
75037.7
75037.8
74938.8
74938.8
74938.8
74938.8
74938.8
74938.8
74938.8
74938.9
74938.9
74938.9
74939
74939
74939
74939
74939.1
74939.1
74939.1
74939.2
74939.2
74939.3
74939.3
74939.3
74939.4
74939.4
74939.4
74939.4
74939.5
74939.5
74939.5
74939.5
74939.5
74939.5
74939.6
74939.6
74939.6
74939.6
74939.6
74939.7
74939.7
74939.7
74939.8
74939.8
74939.9
74939.9
74940
74940
74940.1
74940.1
74940.2
74940.2
74841.2
74841.2
74841.2
74841.2
74841.2
74841.2
74841.2
74841.3
74841.3
74841.3
74841.4
74841.4
74841.4
74841.5
74841.5
74841.5
74841.6
74841.6
74841.6
74841.7
74841.7
74841.7
74841.8
74841.8
74841.8
74841.9
74841.9
74841.9
74841.9
74841.9
74841.9
74842
74842
74842
74842
74842
74842.1
74842.1
74842.1
74842.2
74842.2
74842.3
74842.3
74842.4
74842.4
74842.5
74842.5
74842.6
74842.6
74842.7
74743.6
74743.6
74743.6
74743.6
74743.6
74743.6
74743.7
74743.7
74743.7
74743.8
74743.8
74743.8
74743.8
74743.9
74743.9
74743.9
74744
74744
74744
74744.1
74744.1
74744.2
74744.2
74744.2
74744.3
74744.3
74744.3
74744.3
74744.3
74744.4
74744.4
74744.4
74744.4
74744.4
74744.4
74744.4
74744.5
74744.5
74744.5
74744.6
74744.6
74744.7
74744.7
74744.8
74744.8
74744.9
74745
74745
74745.1
74745.1
74646
74646
74646
74646
74646
74646.1
74646.1
74646.1
74646.1
74646.2
74646.2
74646.2
74646.2
74646.3
74646.3
74646.3
74646.4
74646.4
74646.5
74646.5
74646.5
74646.6
74646.6
74646.7
74646.7
74646.7
74646.7
74646.7
74646.8
74646.8
74646.8
74646.8
74646.8
74646.8
74646.8
74646.9
74646.9
74646.9
74647
74647
74647.1
74647.1
74647.2
74647.2
74647.3
74647.3
74647.4
74647.4
74647.5
74647.5
74548.4
74548.4
74548.4
74548.4
74548.5
74548.5
74548.5
74548.5
74548.6
74548.6
74548.6
74548.6
74548.7
74548.7
74548.7
74548.8
74548.8
74548.8
74548.9
74548.9
74549
74549
74549
74549.1
74549.1
74549.1
74549.1
74549.2
74549.2
74549.2
74549.2
74549.2
74549.2
74549.2
74549.3
74549.3
74549.3
74549.3
74549.4
74549.4
74549.5
74549.5
74549.6
74549.6
74549.7
74549.8
74549.8
74549.9
74549.9
74550
74450.8
74450.8
74450.8
74450.9
74450.9
74450.9
74450.9
74450.9
74451
74451
74451
74451
74451.1
74451.1
74451.1
74451.2
74451.2
74451.2
74451.3
74451.3
74451.4
74451.4
74451.4
74451.5
74451.5
74451.5
74451.6
74451.6
74451.6
74451.6
74451.6
74451.6
74451.6
74451.7
74451.7
74451.7
74451.7
74451.8
74451.8
74451.9
74451.9
74452
74452
74452.1
74452.1
74452.2
74452.2
74452.3
74452.4
74452.4
74353.2
74353.2
74353.3
74353.3
74353.3
74353.3
74353.3
74353.4
74353.4
74353.4
74353.4
74353.5
74353.5
74353.5
74353.6
74353.6
74353.6
74353.7
74353.7
74353.7
74353.8
74353.8
74353.9
74353.9
74353.9
74354
74354
74354
74354
74354
74354
74354
74354.1
74354.1
74354.1
74354.1
74354.2
74354.2
74354.2
74354.3
74354.3
74354.4
74354.4
74354.5
74354.6
74354.6
74354.7
74354.7
74354.8
74354.9
74255.6
74255.7
74255.7
74255.7
74255.7
74255.7
74255.7
74255.7
74255.8
74255.8
74255.8
74255.9
74255.9
74255.9
74255.9
74256
74256
74256.1
74256.1
74256.1
74256.2
74256.2
74256.3
74256.3
74256.3
74256.4
74256.4
74256.4
74256.4
74256.4
74256.4
74256.5
74256.5
74256.5
74256.5
74256.5
74256.6
74256.6
74256.6
74256.7
74256.7
74256.8
74256.9
74256.9
74257
74257
74257.1
74257.2
74257.2
74257.3
74158.1
74158.1
74158.1
74158.2
74158.2
74158.2
74158.2
74158.2
74158.2
74158.3
74158.3
74158.3
74158.3
74158.4
74158.4
74158.4
74158.5
74158.5
74158.5
74158.6
74158.6
74158.7
74158.7
74158.7
74158.8
74158.8
74158.8
74158.8
74158.8
74158.9
74158.9
74158.9
74158.9
74158.9
74158.9
74159
74159
74159
74159.1
74159.1
74159.2
74159.2
74159.3
74159.3
74159.4
74159.5
74159.5
74159.6
74159.7
74159.7
74060.3
74060.4
74060.4
74060.5
74060.5
74060.5
74060.5
74060.6
74060.6
74060.6
74060.7
74060.7
74060.7
74060.7
74060.8
74060.8
74060.9
74060.9
74060.9
74061
74061
74061.1
74061.1
74061.1
74061.2
74061.2
74061.2
74061.2
74061.2
74061.3
74061.3
74061.3
74061.3
74061.3
74061.3
74061.4
74061.4
74061.4
74061.5
74061.5
74061.6
74061.6
74061.7
74061.8
74061.8
74061.9
74061.9
74062
74062.1
74062.1
73963.3
73963.1
73963
73963
73963
73963
73963
73963
73963.1
73963.1
73963.1
73963.1
73963.2
73963.2
73963.2
73963.2
73963.3
73963.3
73963.4
73963.4
73963.5
73963.5
73963.5
73963.6
73963.6
73963.6
73963.6
73963.7
73963.7
73963.7
73963.7
73963.7
73963.7
73963.7
73963.8
73963.8
73963.8
73963.9
73963.9
73963.9
73964
73964.1
73964.1
73964.2
73964.2
73964.3
73964.4
73964.4
73964.5
73964.6
84911.1
84932.8
84934
84949.6
84951.9
84960.1
84962
84964.7
84965.1
84965
84964.5
84964.1
84964.1
84965.3
84966.6
84970.3
84972.5
84980.2
84981.8
84994.2
84808
84829
84829.2
84844.2
84845.6
84853
84853.9
84855.7
84855.2
84854.1
84852.7
84851.3
84850.4
84850.6
84850.9
84853.8
84854.9
84861.9
84862.7
84874.6
84704.6
84725.1
84724.3
84738.7
84739.1
84745.8
84745.8
84746.7
84745.2
84743.2
84740.8
84738.5
84736.5
84735.7
84735.1
84737.1
84737.4
84743.7
84743.8
84755.4
84601.2
84621.1
84619.4
84633
84632.6
84638.4
84637.6
84637.6
84635.1
84632.2
84628.8
84625.5
84622.5
84620.7
84619.2
84620.3
84619.8
84625.4
84624.6
84635.7
84497.7
84517
84514.3
84527.3
84526
84531
84529.2
84528.4
84525
84521.1
84516.7
84512.5
84508.5
84505.8
84503.2
84503.5
84502.1
84506.8
84505.2
84515.5
84394
84412.8
84409.1
84421.5
84419.2
84423.5
84420.8
84419
84414.7
84409.9
84404.5
84399.3
84394.5
84390.8
84387.3
84386.7
84384.4
84388.3
84385.7
84395.3
84290.3
84308.5
84303.9
84315.6
84312.4
84315.9
84312.2
84309.6
84304.3
84298.5
84292.3
84286.1
84280.3
84275.8
84271.4
84269.9
84266.7
84269.8
84266.3
84275.2
84186.5
84204.2
84198.6
84209.6
84205.5
84208.2
84203.6
84200.1
84193.9
84187.1
84179.9
84172.8
84166.1
84160.6
84155.4
84153.1
84149
84151.3
84146.9
84155.1
84082.7
84099.9
84093.3
84103.6
84098.6
84100.5
84094.9
84090.5
84083.3
84075.6
84067.4
84059.3
84051.7
84045.4
84039.3
84036.2
84031.2
84032.8
84027.4
84035
83979
83995.5
83988
83997.6
83991.6
83992.7
83986.2
83980.9
83972.7
83964
83954.9
83945.8
83937.3
83930.1
83923.1
83919.2
83913.3
83914.2
83907.9
83914.8
83875.3
83891.3
83882.8
83891.7
83884.7
83885
83877.5
83871.2
83862
83852.4
83842.3
83832.3
83822.8
83814.7
83806.9
83802.1
83795.3
83795.5
83788.3
83794.5
83771.7
83787.1
83777.7
83785.8
83777.8
83777.2
83768.7
83761.5
83751.3
83740.7
83729.6
83718.7
83708.3
83699.3
83690.5
83685
83677.3
83676.7
83668.7
83674.2
83668.2
83683
83672.6
83680
83671
83669.5
83660
83651.8
83640.7
83629.1
83617
83605.1
83593.8
83583.9
83574.3
83567.9
83559.3
83558
83549.1
83553.9
83564.8
83579
83567.6
83574.2
83564.3
83561.9
83551.4
83542.2
83530.1
83517.5
83504.5
83491.6
83479.4
83468.6
83458
83450.8
83441.4
83439.4
83429.5
83433.7
83461.5
83475.1
83462.8
83468.6
83457.7
83454.4
83442.8
83432.7
83419.5
83406
83392
83378.2
83365
83353.4
83341.9
83333.9
83323.6
83320.8
83310.1
83313.7
83358.4
83371.4
83358.1
83363.1
83351.2
83347
83334.4
83323.4
83309.2
83294.7
83279.7
83265
83250.9
83238.4
83226
83217.2
83206.1
83202.6
83191
83193.8
83255.5
83267.8
83253.7
83257.8
83245
83239.9
83226.2
83214.2
83199
83183.5
83167.6
83151.9
83136.9
83123.6
83110.4
83100.8
83088.8
83084.5
83072.1
83074.3
83152.8
83164.5
83149.4
83152.8
83138.9
83132.9
83118.3
83105.3
83089.1
83072.6
83055.8
83039.2
83023.3
83009.1
82995
82984.6
82971.8
82966.9
82953.5
82955.1
83050.5
83061.5
83045.5
83048
83033.2
83026.3
83010.6
82996.8
82979.5
82962.1
82944.3
82926.7
82910
82894.9
82880
82868.9
82855.2
82849.6
82835.4
82836.2
82948.5
82958.8
82942
82943.6
82927.8
82920
82903.3
82888.5
82870.2
82851.9
82833.1
82814.6
82797
82781.1
82765.4
82753.5
82739.1
82732.7
82717.7
82717.8
82847
82856.5
82838.8
82839.6
82822.9
82814.2
82796.5
82780.7
82761.4
82742.1
82722.4
82703
82684.5
82667.8
82651.2
82638.6
82623.3
82616.3
82600.4
82599.9
82745.9
82754.7
82736.2
82736
82718.4
82708.8
82690.1
82673.4
82653.1
82632.8
82612.2
82591.8
82572.5
82555
82537.6
82524.1
82508.1
82500.3
82483.5
82482.4
82645.3
82653.4
82634
82632.9
82614.5
82603.9
82584.2
82566.6
82545.3
82524.1
82502.5
82481.2
82461
82442.6
82424.4
82410.2
82393.3
82384.8
82367.2
82365.3
82545.3
82552.6
82532.4
82530.4
82511.1
82499.6
82479
82460.5
82438.1
82416
82393.4
82371.2
82350.1
82330.9
82311.8
82296.8
82279
82269.8
82251.3
82248.7
82446
82452.4
82431.5
82428.5
82408.4
82395.9
82374.3
82354.9
82331.6
82308.5
82285
82261.8
82239.9
82219.8
82199.8
82184
82165.3
82155.4
82136
82132.7
82347.2
82352.8
82331.2
82327.3
82306.3
82292.9
82270.4
82250
82225.7
82201.7
82177.3
82153.2
82130.3
82109.3
82088.4
82071.8
82052.3
82041.5
82021.2
82017.2
82249.2
82253.9
82231.5
82226.7
82204.9
82190.6
82167.2
82145.9
82120.6
82095.7
82070.3
82045.3
82021.5
81999.6
81977.8
81960.3
81939.8
81928.3
81907.1
81902.4
82151.9
82155.7
82132.6
82126.8
82104.2
82089
82064.7
82042.5
82016.3
81990.4
81964.1
81938.1
81913.5
81890.6
81867.8
81849.5
81828.1
81815.8
81793.6
81788.2
82055.3
82058.3
82034.4
82027.7
82004.3
81988.1
81963
81939.8
81912.7
81886
81858.7
81831.9
81806.3
81782.4
81758.7
81739.5
81717.1
81703.9
81680.9
81674.7
81959.4
81961.5
81936.9
81929.2
81905.1
81888
81862
81838
81810
81782.3
81754.2
81726.5
81699.9
81675.1
81650.3
81630.2
81606.8
81592.9
81568.8
81561.9
81864.2
81865.4
81840.1
81831.5
81806.7
81788.6
81761.9
81737
81708.1
81679.6
81650.5
81621.9
81594.3
81568.5
81542.7
81521.7
81497.4
81482.5
81457.6
81449.8
81769.8
81770.1
81744
81734.5
81709
81690
81662.5
81636.8
81607.1
81577.8
81547.8
81518.1
81489.5
81462.7
81435.9
81414
81388.6
81372.9
81347
81338.5
81676
81675.4
81648.7
81638.2
81611.9
81592.1
81563.9
81537.3
81506.9
81476.7
81445.7
81415.1
81385.4
81357.6
81329.9
81307
81280.6
81264.1
81237.2
81227.9
81582.9
81581.4
81553.9
81542.6
81515.6
81494.9
81465.9
81438.5
81407.4
81376.2
81344.3
81312.8
81282.1
81253.3
81224.5
81200.7
81173.3
81155.9
81128.1
81117.9
81490.5
81488
81459.8
81447.6
81419.9
81398.3
81368.6
81340.3
81308.4
81276.4
81243.6
81211.1
81179.5
81149.7
81119.8
81095.1
81066.7
81048.4
81019.6
81008.7
81398.6
81395.3
81366.3
81353.2
81324.7
81302.3
81271.9
81242.7
81210
81177
81143.3
81110
81077.3
81046.6
81015.7
80990
80960.7
80941.5
80911.8
80900
81307.4
81303.2
81273.4
81259.4
81230.2
81206.8
81175.6
81145.6
81112
81078.2
81043.5
81009.2
80975.7
80944
80912.2
80885.6
80855.3
80835.2
80804.6
80792
81216.8
81211.6
81181.1
81166.1
81136.2
81111.9
81079.9
81049
81014.5
80979.7
80944.2
80909
80874.6
80841.9
80809.2
80781.7
80750.4
80729.5
80698
80684.6
81126.8
81120.6
81089.3
81073.4
81042.7
81017.5
80984.8
80952.9
80917.6
80881.8
80845.3
80809.3
80773.9
80740.3
80706.6
80678.3
80646.1
80624.4
80592
80577.8
81037.3
81030.3
80998.1
80981.3
80949.7
80923.6
80890.1
80857.3
80821.1
80784.3
80746.9
80710
80673.6
80639.2
80604.6
80575.5
80542.4
80519.9
80486.6
80471.6
80948.5
80940.5
80907.5
80889.7
80857.3
80830.3
80795.9
80762.2
80725.1
80687.3
80649.1
80611.3
80574
80538.7
80503.2
80473.2
80439.3
80415.9
80381.8
80366
80860.2
80851.3
80817.4
80798.7
80765.5
80737.5
80702.2
80667.6
80629.6
80590.9
80551.9
80513.2
80475
80438.8
80402.4
80371.6
80336.7
80312.6
80277.6
80260.9
80772.6
80762.8
80728
80708.3
80674.2
80645.2
80609.2
80573.5
80534.7
80495.2
80455.3
80415.7
80376.6
80339.6
80302.3
80270.6
80234.8
80209.9
80174
80156.5
80685.7
80674.8
80639.2
80618.5
80583.6
80553.6
80516.8
80480.2
80440.5
80400.1
80359.4
80319
80278.9
80241
80202.8
80170.3
80133.6
80107.8
80071.1
80052.8
80599.4
80587.6
80551.1
80529.3
80493.6
80462.7
80425
80387.5
80347
80305.8
80264.2
80222.9
80181.9
80143.1
80104
80070.6
80033
80006.4
79968.8
79949.7
80513.8
80501
80463.6
80440.8
80404.3
80372.3
80333.8
80295.4
80254.1
80212.1
80169.6
80127.4
80085.4
80045.8
80005.8
79971.5
79933.1
79905.7
79867.3
79847.3
80428.9
80415.1
80376.9
80353
80315.6
80282.7
80243.2
80203.8
80161.7
80118.8
80075.4
80032.3
79989.5
79949.1
79908.2
79873.2
79833.9
79805.6
79766.5
79745.7
80344.9
80330
80290.9
80266
80227.7
80193.7
80153.3
80112.9
80069.8
80025.9
79981.7
79937.7
79894.1
79853
79811.3
79775.5
79735.4
79706.4
79666.4
79644.8
80261.6
80245.7
80205.8
80179.7
80140.5
80105.4
80064.1
80022.6
79978.5
79933.6
79888.6
79843.6
79799.2
79757.5
79715
79678.6
79637.7
79607.9
79567.1
79544.6
80179.2
80162.3
80121.4
80094.2
80054.1
80017.9
79975.6
79933.1
79888
79842.1
79796.1
79750.5
79705.2
79662.8
79619.6
79582.4
79540.8
79510.2
79468.7
79445.3
80097.8
80079.7
80038
80009.6
79968.6
79931.2
79887.9
79844.4
79798.3
79751.2
79704.4
79658
79612
79569
79525
79487.1
79444.7
79413.4
79371.1
79346.9
80017.2
79998.1
79955.5
79925.9
79883.9
79845.4
79801.2
79756.6
79709.6
79661.6
79613.8
79566.6
79519.8
79476.1
79431.3
79392.8
79349.6
79317.5
79274.3
79249.4
79937.7
79917.4
79873.9
79843.2
79800.3
79760.6
79715.4
79669.8
79621.8
79572.9
79524.4
79476.3
79428.7
79384.3
79338.7
79299.4
79255.4
79222.6
79178.6
79152.8
79859.1
79837.8
79793.4
79761.5
79717.6
79676.9
79630.7
79584
79535.1
79485.4
79436
79387.1
79338.7
79293.6
79247.1
79207.2
79162.3
79128.7
79083.9
79057.3
79781.6
79759.1
79713.9
79680.8
79636.1
79594.2
79547.1
79499.4
79449.6
79399.1
79348.8
79299.1
79249.9
79204
79156.7
79116
79070.3
79036
78990.3
78962.9
79705.2
79681.5
79635.4
79601.2
79555.6
79512.6
79464.7
79416.1
79365.4
79314
79262.9
79212.4
79162.3
79115.7
79067.5
79026.1
78979.5
78944.4
78897.8
78869.6
79629.9
79605
79558.1
79522.7
79476.2
79432.2
79383.4
79333.9
79282.4
79230.2
79178.2
79126.9
79076
79028.5
78979.5
78937.3
78889.9
78854
78806.5
78777.5
79555.7
79529.7
79481.9
79445.3
79398
79353
79303.3
79252.9
79200.6
79147.6
79094.8
79042.6
78991
78942.6
78892.8
78849.8
78801.5
78764.8
78716.4
78686.5
79482.7
79455.4
79406.9
79369.1
79321
79274.9
79224.4
79173.1
79119.9
79066.1
79012.6
78959.7
78907.2
78858
78807.2
78763.5
78714.3
78676.8
78627.5
78596.7
79410.8
79382.4
79333
79294
79245.1
79198
79146.7
79094.4
79040.5
78985.9
78931.6
78877.9
78824.5
78774.5
78722.9
78678.4
78628.2
78590
78539.7
78508.1
79340.2
79310.5
79260.3
79220.2
79170.4
79122.3
79070.1
79017
78962.2
78906.8
78851.8
78797.2
78743.1
78692.2
78639.8
78594.4
78543.4
78504.3
78453.1
78420.7
79270.7
79239.8
79188.8
79147.5
79096.9
79047.7
78994.6
78940.6
78885.1
78828.9
78773
78717.7
78662.8
78611.1
78557.8
78511.6
78459.6
78419.8
78367.7
78334.4
79202.5
79170.3
79118.5
79075.9
79024.5
78974.2
78920.3
78865.4
78809
78752.1
78695.4
78639.3
78583.6
78531
78477
78429.9
78377.1
78336.4
78283.4
78249.2
79135.6
79102
79049.4
79005.6
78953.2
78901.9
78847.1
78791.2
78734
78676.3
78618.8
78561.9
78505.5
78452
78397.2
78349.4
78295.7
78254.2
78200.3
78165.2
79069.9
79035
78981.5
78936.4
78883.1
78830.7
78775
78718.2
78660.1
78601.6
78543.3
78485.6
78428.4
78374.2
78318.7
78270
78215.4
78173.2
78118.4
78082.4
79005.5
78969.2
78914.9
78868.4
78814.2
78760.7
78704
78646.3
78587.3
78527.9
78468.9
78410.4
78352.5
78297.5
78241.2
78191.7
78136.4
78093.4
78037.7
78000.8
78942.5
78904.8
78849.6
78801.8
78746.6
78691.9
78634.2
78575.5
78515.6
78455.4
78395.6
78336.3
78277.8
78221.9
78165
78114.7
78058.6
78014.8
77958.2
77920.5
78880.9
78841.8
78785.6
78736.4
78680.2
78624.3
78565.6
78505.9
78445.1
78384.1
78323.5
78263.4
78204.2
78147.6
78090
78038.9
77982.1
77937.5
77880.1
77841.5
78820.8
78780.1
78723
78672.4
78615.1
78558
78498.2
78437.5
78375.8
78313.9
78252.5
78191.8
78131.9
78074.5
78016.3
77964.4
77906.9
77861.6
77803.4
77763.8
78762.2
78720
78662
78609.9
78551.5
78493.1
78432.2
78370.4
78307.8
78245.1
78182.9
78121.4
78060.9
78002.7
77944
77891.3
77833.2
77787.1
77728.1
77687.6
78705.2
78661.5
78602.4
78548.8
78489.2
78429.5
78367.5
78304.7
78241.1
78177.5
78114.6
78052.3
77991.2
77932.3
77873
77819.5
77760.8
77714
77654.2
77612.8
78649.8
78604.5
78544.4
78489.2
78428.5
78367.5
78304.3
78240.4
78175.8
78111.4
78047.6
77984.7
77922.9
77863.3
77803.5
77749.3
77690
77642.3
77581.9
77539.4
78596.1
78549.1
78488
78431.3
78369.3
78306.9
78242.6
78177.5
78112
78046.7
77982.2
77918.5
77856.1
77795.8
77735.5
77680.5
77620.7
77572.3
77511.1
77467.7
78544.2
78495.5
78433.3
78374.9
78311.7
78247.9
78182.4
78116.2
78049.7
77983.5
77918.2
77853.9
77790.9
77729.9
77669.1
77613.3
77553.1
77503.8
77441.9
77397.5
78493.9
78443.6
78380.3
78320.3
78255.7
78190.5
78123.8
78056.5
77989
77921.9
77855.8
77790.9
77727.2
77665.5
77604.3
77547.8
77487.1
77437
77374.5
77329
78445.5
78393.3
78329
78267.4
78201.4
78134.9
78066.8
77998.4
77929.9
77861.9
77795.1
77729.5
77665.2
77602.9
77541.3
77484
77422.9
77372
77308.8
77262.2
78398.8
78344.9
78279.4
78216.2
78148.9
78080.9
78011.6
77942
77872.5
77803.7
77736.1
77669.8
77605
77542
77480
77421.9
77360.5
77308.7
77245
77197.3
78353.9
78298.2
78231.6
78166.7
78098.1
78028.7
77958.1
77887.4
77816.9
77747.1
77678.8
77611.9
77546.5
77483
77420.5
77361.8
77300
77247.4
77183.1
77134.2
78310.7
78253.2
78185.5
78119
78049.1
77978.2
77906.4
77834.5
77763
77692.4
77623.3
77555.8
77489.8
77425.7
77362.9
77303.5
77241.5
77187.9
77123.2
77073
78269.3
78210
78141.2
78073.1
78001.8
77929.5
77856.5
77783.4
77710.9
77639.5
77569.7
77501.5
77435
77370.4
77307.3
77247.2
77184.9
77130.5
77065.2
77013.8
78229.5
78168.4
78098.4
78028.8
77956.2
77882.6
77808.4
77734.2
77660.7
77588.4
77517.9
77449.1
77382.1
77317
77253.5
77192.8
77130.3
77075
77009.3
76956.5
78191.2
78128.3
78057.3
77986.2
77912.3
77837.5
77762
77686.8
77612.3
77539.2
77467.9
77398.6
77331.1
77265.5
77201.7
77140.4
77077.6
77021.4
76955.3
76901.1
78154.3
78089.6
78017.5
77945
77870
77793.9
77717.3
77641.1
77565.7
77491.8
77419.8
77349.9
77281.9
77215.9
77151.7
77089.8
77026.9
76969.7
76903.2
76847.6
78118.5
78052.1
77979
77905.2
77829
77751.9
77674.3
77597.1
77520.8
77446.1
77373.5
77303.1
77234.6
77168.1
77103.6
77041.1
76977.9
76919.8
76852.9
76795.7
78083.6
78015.6
77941.6
77866.6
77789.4
77711.2
77632.7
77554.6
77477.6
77402.2
77328.9
77257.9
77188.9
77122
77057.1
76994
76930.6
76871.5
76804.2
76745.3
78049.3
77979.8
77904.9
77828.9
77750.8
77671.7
77592.4
77513.6
77435.8
77359.7
77285.8
77214.3
77144.8
77077.5
77012.2
76948.5
76884.8
76824.6
76756.8
76696.3
78015.2
77944.3
77868.7
77791.8
77713
77633.2
77553.2
77473.7
77395.3
77318.7
77244.2
77172.2
77102.2
77034.4
76968.5
76904.2
76840.2
76778.8
76710.6
76648.3
77981.1
77908.8
77832.6
77755
77675.6
77595.3
77514.7
77434.7
77355.9
77278.7
77203.7
77131.1
77060.6
76992.3
76925.9
76861
76796.4
76733.9
76665.1