/*--------------------------------*- C++ -*----------------------------------*\
  =========                 |
  \\      /  F ield         | OpenFOAM: The Open Source CFD Toolbox
   \\    /   O peration     | Website:  https://openfoam.org
    \\  /    A nd           | Version:  8
     \\/     M anipulation  |
\*---------------------------------------------------------------------------*/
FoamFile
{
    version     2.0;
    format      ascii;
    class       volScalarField;
    location    "200";
    object      T;
}
// * * * * * * * * * * * * * * * * * * * * * * * * * * * * * * * * * * * * * //

dimensions      [0 0 0 1 0 0 0];

internalField   nonuniform List<scalar> 
8400
(
294.451
294.392
294.363
294.365
294.389
294.42
294.437
294.419
294.345
294.203
293.995
293.746
293.508
293.332
293.238
293.197
293.174
293.155
293.137
293.121
293.11
293.104
293.1
293.098
293.098
293.098
293.098
293.099
293.1
293.101
293.102
293.103
293.104
293.106
293.107
293.108
293.109
293.11
293.11
293.11
293.11
293.11
293.11
293.11
293.11
293.11
293.11
293.11
293.11
293.11
296.906
296.845
296.816
296.84
296.891
296.942
296.958
296.897
296.719
296.389
295.891
295.252
294.568
294
293.675
293.554
293.482
293.415
293.336
293.252
293.199
293.174
293.161
293.156
293.154
293.155
293.157
293.161
293.165
293.17
293.175
293.181
293.187
293.193
293.199
293.204
293.208
293.211
293.212
293.212
293.212
293.211
293.21
293.208
293.206
293.205
293.204
293.202
293.201
293.2
299.689
299.598
299.572
299.548
299.539
299.532
299.502
299.415
299.228
298.886
298.329
297.513
296.462
295.361
294.515
294.291
294.198
294.087
293.878
293.565
293.378
293.305
293.267
293.252
293.251
293.257
293.267
293.28
293.297
293.316
293.336
293.359
293.381
293.404
293.424
293.441
293.452
293.459
293.462
293.462
293.46
293.455
293.449
293.443
293.437
293.43
293.424
293.419
293.414
293.409
300
300
300
299.999
299.999
299.998
299.997
299.995
299.994
299.992
299.989
299.985
299.979
299.961
298.349
295.671
295.702
295.744
295.314
294.275
293.714
293.595
293.506
293.477
293.48
293.497
293.526
293.565
293.611
293.663
293.719
293.775
293.831
293.883
293.926
293.959
293.98
293.991
293.994
293.989
293.98
293.968
293.953
293.937
293.922
293.907
293.893
293.88
293.868
293.858
300.002
300.002
300.002
300.002
300.003
300.003
300.003
300.004
300.004
300.005
300.005
300.005
300.004
300
299.7
299.178
299.045
299.066
298.86
295.959
294.191
294.198
293.9
293.864
293.875
293.916
293.982
294.067
294.166
294.274
294.385
294.493
294.593
294.679
294.746
294.789
294.812
294.817
294.809
294.791
294.767
294.74
294.712
294.684
294.658
294.634
294.612
294.593
294.576
294.561
300.001
300
300
300
300
300.001
300.001
300.001
300.001
300.002
300.002
300.003
300.003
300.002
299.924
299.759
299.618
299.498
299.237
298.469
298.012
295.754
294.389
294.362
294.389
294.477
294.605
294.763
294.94
295.127
295.311
295.481
295.628
295.744
295.821
295.857
295.859
295.834
295.788
295.729
295.666
295.603
295.544
295.492
295.449
295.413
295.384
295.36
295.342
295.328
300.001
300.001
300.001
300.001
300.001
300.001
300.001
300.001
300.001
300.001
300.001
300.001
300.002
300.001
299.976
299.907
299.811
299.692
299.464
298.998
298.412
297.283
295.839
294.841
294.944
295.121
295.349
295.614
295.902
296.194
296.47
296.713
296.906
297.042
297.113
297.128
297.094
297.019
296.912
296.784
296.644
296.501
296.364
296.242
296.139
296.057
295.995
295.95
295.919
295.897
300
300
300
300
300.001
300.001
300.001
300.001
300.001
300.001
300.001
300.001
300.001
300.001
299.99
299.955
299.89
299.788
299.594
299.236
298.693
297.79
296.592
295.5
295.464
295.786
296.156
296.562
296.983
297.388
297.75
298.043
298.253
298.373
298.421
298.416
298.366
298.276
298.149
297.99
297.802
297.592
297.367
297.139
296.919
296.721
296.555
296.424
296.33
296.264
300
300
300
300
300
300.001
300.001
300.001
300.001
300.001
300.001
300.001
300.001
300
299.995
299.974
299.926
299.839
299.672
299.374
298.896
298.136
297.11
296.128
295.932
296.383
296.9
297.43
297.941
298.395
298.761
299.024
299.185
299.253
299.269
299.258
299.222
299.163
299.081
298.974
298.841
298.682
298.493
298.274
298.026
297.755
297.472
297.197
296.955
296.766
300
300
300
300
300
300
300
300
300.001
300.001
300.001
300.001
300
300
299.996
299.981
299.943
299.867
299.72
299.464
299.05
298.412
297.552
296.702
296.381
296.798
297.427
298.025
298.554
298.968
299.254
299.426
299.515
299.545
299.556
299.556
299.542
299.513
299.467
299.406
299.33
299.239
299.133
299.01
298.871
298.713
298.53
298.312
298.05
297.754
300
300
300
300
300
300
300
300
300
300
300
300
300
300
299.996
299.984
299.95
299.881
299.749
299.525
299.171
298.642
297.946
297.247
296.892
297.109
297.631
298.259
298.758
299.11
299.327
299.454
299.521
299.543
299.583
299.614
299.624
299.615
299.588
299.545
299.486
299.412
299.325
299.224
299.11
298.983
298.844
298.694
298.534
298.365
300
300
300
300
300
300
300
300
300
300
300
300
300
299.999
299.996
299.984
299.951
299.886
299.765
299.568
299.267
298.837
298.292
297.751
297.434
297.501
297.837
298.309
298.732
299.039
299.228
299.348
299.412
299.465
299.548
299.608
299.636
299.639
299.621
299.588
299.539
299.477
299.402
299.315
299.214
299.102
298.978
298.844
298.701
298.55
300
300
300
300
300
300
300
300
300
300
300
300
300
299.999
299.995
299.981
299.947
299.883
299.77
299.596
299.343
299.001
298.59
298.196
297.954
297.956
298.145
298.441
298.735
298.969
299.133
299.245
299.333
299.442
299.545
299.614
299.651
299.66
299.65
299.623
299.582
299.528
299.461
299.383
299.292
299.189
299.076
298.952
298.819
298.678
300
300
300
300
300
300
300
300
300
300
299.999
299.999
299.997
299.994
299.987
299.97
299.935
299.873
299.769
299.612
299.403
299.138
298.84
298.572
298.413
298.406
298.518
298.697
298.889
299.059
299.197
299.309
299.413
299.515
299.598
299.653
299.681
299.688
299.678
299.653
299.616
299.566
299.505
299.432
299.348
299.252
299.146
299.029
298.902
298.766
300.001
300
300
300
300
300
299.999
299.999
299.998
299.997
299.996
299.994
299.99
299.983
299.971
299.95
299.913
299.853
299.76
299.629
299.451
299.25
299.046
298.88
298.793
298.8
298.879
298.998
299.128
299.251
299.361
299.455
299.54
299.612
299.666
299.7
299.716
299.716
299.703
299.678
299.642
299.596
299.538
299.47
299.391
299.3
299.199
299.086
298.965
298.834
300
299.999
299.999
299.999
299.998
299.997
299.996
299.994
299.993
299.99
299.987
299.982
299.975
299.964
299.948
299.923
299.886
299.83
299.75
299.642
299.502
299.343
299.214
299.125
299.092
299.116
299.181
299.267
299.359
299.447
299.525
299.593
299.649
299.694
299.724
299.742
299.746
299.74
299.724
299.699
299.664
299.619
299.565
299.5
299.425
299.339
299.242
299.135
299.017
298.891
299.997
299.996
299.995
299.994
299.992
299.99
299.988
299.985
299.981
299.977
299.971
299.964
299.954
299.94
299.922
299.896
299.86
299.811
299.745
299.659
299.55
299.429
299.35
299.316
299.319
299.355
299.41
299.475
299.539
299.599
299.651
299.694
299.728
299.752
299.767
299.772
299.77
299.759
299.741
299.714
299.68
299.638
299.586
299.525
299.454
299.372
299.281
299.179
299.067
298.946
299.986
299.984
299.983
299.981
299.979
299.977
299.973
299.97
299.965
299.959
299.952
299.943
299.932
299.917
299.898
299.874
299.842
299.801
299.748
299.682
299.599
299.507
299.46
299.463
299.488
299.527
299.574
299.621
299.666
299.704
299.736
299.761
299.779
299.79
299.795
299.793
299.786
299.772
299.752
299.726
299.693
299.652
299.603
299.546
299.479
299.403
299.317
299.222
299.117
299.003
299.948
299.949
299.949
299.949
299.949
299.948
299.946
299.944
299.94
299.936
299.929
299.921
299.911
299.898
299.881
299.86
299.834
299.801
299.76
299.709
299.647
299.575
299.549
299.576
299.611
299.649
299.686
299.72
299.749
299.773
299.791
299.804
299.812
299.814
299.812
299.805
299.794
299.779
299.758
299.732
299.7
299.661
299.616
299.563
299.501
299.431
299.352
299.264
299.167
299.062
299.811
299.824
299.836
299.847
299.857
299.865
299.872
299.878
299.882
299.884
299.885
299.883
299.879
299.872
299.861
299.847
299.829
299.805
299.774
299.737
299.69
299.632
299.62
299.659
299.696
299.729
299.757
299.779
299.796
299.809
299.817
299.821
299.821
299.817
299.811
299.801
299.787
299.77
299.749
299.724
299.694
299.658
299.615
299.566
299.51
299.446
299.374
299.294
299.207
299.112
303.148
303.144
303.141
303.138
303.135
303.132
303.129
303.126
303.123
303.12
303.117
303.114
303.111
303.108
303.105
303.102
303.099
303.096
303.093
303.09
303.087
303.085
303.083
303.08
303.078
303.076
303.073
303.071
303.069
303.067
303.065
303.063
303.061
303.058
303.056
303.054
303.052
303.051
303.049
303.047
303.045
303.043
303.041
303.039
303.038
303.036
303.035
303.033
303.032
303.031
303.15
303.15
303.15
303.15
303.15
303.15
303.149
303.149
303.149
303.149
303.148
303.148
303.148
303.148
303.147
303.147
303.146
303.146
303.146
303.145
303.145
303.144
303.143
303.143
303.142
303.141
303.14
303.139
303.139
303.138
303.137
303.136
303.135
303.134
303.133
303.133
303.132
303.131
303.13
303.129
303.129
303.128
303.127
303.127
303.126
303.125
303.125
303.124
303.123
303.123
303.15
303.15
303.15
303.15
303.15
303.15
303.15
303.15
303.15
303.15
303.15
303.15
303.15
303.15
303.15
303.15
303.15
303.15
303.15
303.15
303.15
303.15
303.149
303.149
303.149
303.149
303.149
303.149
303.149
303.148
303.148
303.148
303.148
303.148
303.147
303.147
303.147
303.147
303.146
303.146
303.146
303.146
303.145
303.145
303.145
303.145
303.144
303.144
303.144
303.144
303.15
303.15
303.15
303.15
303.15
303.15
303.15
303.15
303.15
303.15
303.15
303.15
303.15
303.15
303.15
303.15
303.15
303.15
303.15
303.15
303.15
303.15
303.15
303.15
303.15
303.15
303.15
303.15
303.15
303.15
303.15
303.15
303.15
303.15
303.15
303.15
303.15
303.15
303.149
303.149
303.149
303.149
303.149
303.149
303.149
303.149
303.149
303.149
303.149
303.149
303.15
303.15
303.15
303.15
303.15
303.15
303.15
303.15
303.15
303.15
303.15
303.15
303.15
303.15
303.15
303.15
303.15
303.15
303.15
303.15
303.15
303.15
303.15
303.15
303.15
303.15
303.15
303.15
303.15
303.15
303.15
303.15
303.15
303.15
303.15
303.15
303.15
303.15
303.15
303.15
303.15
303.15
303.15
303.15
303.15
303.15
303.15
303.15
303.15
303.15
303.15
303.15
303.15
303.15
303.15
303.15
303.15
303.15
303.15
303.15
303.15
303.15
303.15
303.15
303.15
303.15
303.15
303.15
303.15
303.15
303.15
303.15
303.15
303.15
303.15
303.15
303.15
303.15
303.15
303.15
303.15
303.15
303.15
303.15
303.15
303.15
303.15
303.15
303.15
303.15
303.15
303.15
303.15
303.15
303.15
303.15
303.15
303.15
303.15
303.15
303.15
303.15
303.15
303.15
303.15
303.15
303.15
303.15
303.15
303.15
303.15
303.15
303.15
303.15
303.15
303.15
303.15
303.15
303.15
303.15
303.15
303.15
303.15
303.15
303.15
303.15
303.15
303.15
303.15
303.15
303.15
303.15
303.15
303.15
303.15
303.15
303.15
303.15
303.15
303.15
303.15
303.15
303.15
303.15
303.15
303.15
303.15
303.15
303.15
303.15
303.15
303.15
303.15
303.15
303.15
303.15
303.15
303.15
303.15
303.15
303.15
303.15
303.15
303.15
303.15
303.15
303.15
303.15
303.15
303.15
303.15
303.15
303.15
303.15
303.15
303.15
303.15
303.15
303.15
303.15
303.15
303.15
303.15
303.15
303.15
303.15
303.15
303.15
303.15
303.15
303.15
303.15
303.15
303.15
303.15
303.15
303.15
303.15
303.15
303.15
303.15
303.15
303.15
303.15
303.15
303.15
303.15
303.15
303.15
303.15
303.15
303.15
303.15
303.15
303.15
303.15
303.15
303.15
303.15
303.15
303.15
303.15
303.15
303.15
303.15
303.15
303.15
303.15
303.15
303.15
303.15
303.15
303.15
303.15
303.15
303.15
303.15
303.15
303.15
303.15
303.15
303.15
303.15
303.15
303.15
303.15
303.15
303.15
303.15
303.15
303.15
303.15
303.15
303.15
303.15
303.15
303.15
303.15
303.15
303.15
303.15
303.15
303.15
303.15
303.15
303.15
303.15
303.15
303.15
303.15
303.15
303.15
303.15
303.15
303.15
303.15
303.15
303.15
303.15
303.15
303.15
303.15
303.15
303.15
303.15
303.15
303.15
303.15
303.15
303.15
303.15
303.15
303.15
303.15
303.15
303.15
303.15
303.15
303.15
303.15
303.15
303.15
303.15
303.15
303.15
303.15
303.15
303.15
303.15
303.15
303.15
303.15
303.15
303.15
303.15
303.15
303.15
303.15
303.15
303.15
303.15
303.15
303.15
303.15
303.15
303.15
303.15
303.15
303.15
303.15
303.15
303.15
303.15
303.15
303.15
303.15
303.15
303.15
303.15
303.15
303.15
303.15
303.15
303.15
303.15
303.15
303.15
303.15
303.15
303.15
303.15
303.15
303.15
303.15
303.15
303.15
303.15
303.15
303.15
303.15
303.15
303.15
303.15
303.15
303.15
303.15
303.15
303.15
303.15
303.15
303.15
303.15
303.15
303.15
303.15
303.15
303.15
303.15
303.15
303.15
303.15
303.15
303.15
303.15
303.15
303.15
303.15
303.15
303.15
303.15
303.15
303.15
303.15
303.15
303.15
303.15
303.15
303.15
303.15
303.15
303.15
303.15
303.15
303.15
303.15
303.15
303.15
303.15
303.15
303.15
303.15
303.15
303.15
303.15
303.15
303.15
303.15
303.15
303.15
303.15
303.15
303.15
303.15
303.15
303.15
303.15
303.15
303.15
303.15
303.15
303.15
303.15
303.15
303.15
303.15
303.15
303.15
303.15
303.15
303.15
303.15
303.15
303.15
303.15
303.15
303.15
303.15
303.15
303.15
303.15
303.15
303.15
303.15
303.15
303.15
303.15
303.15
303.15
303.15
303.15
303.15
303.15
303.15
303.15
303.15
303.15
303.15
303.15
303.15
303.15
303.15
303.15
303.15
303.15
303.15
303.15
303.15
303.15
303.15
303.15
303.15
303.15
303.15
303.15
303.15
303.15
303.15
303.15
303.15
303.15
303.15
303.15
303.15
303.15
303.15
303.15
303.15
303.15
303.15
303.15
303.15
303.15
303.15
303.15
303.15
303.15
303.15
303.15
303.15
303.15
303.15
303.15
303.15
303.15
303.15
303.15
303.15
303.15
303.15
303.15
303.15
303.15
303.15
303.15
303.15
303.15
303.15
303.15
303.15
303.15
303.15
303.15
303.15
303.15
303.15
303.15
303.15
303.15
303.15
303.15
303.15
303.15
303.15
303.15
303.15
303.15
303.15
303.15
303.15
303.15
303.15
303.15
303.15
303.15
303.15
303.15
303.15
303.15
303.15
303.15
303.15
303.15
303.15
303.15
303.15
303.15
303.15
303.15
303.15
303.15
303.15
303.15
303.15
303.15
303.15
303.15
303.15
303.15
303.15
303.15
303.15
303.15
303.15
303.15
303.15
303.15
303.15
303.15
303.15
303.15
303.15
303.15
303.15
303.15
303.15
303.15
303.15
303.15
303.15
303.15
303.15
303.15
303.15
303.15
303.15
303.15
303.15
303.15
303.15
303.15
303.15
303.15
303.15
303.15
303.15
303.15
303.15
303.15
303.15
303.15
303.15
303.15
303.15
303.15
303.15
303.15
303.15
303.15
303.15
303.15
303.15
303.15
303.15
303.15
303.15
303.15
303.15
303.149
303.149
303.149
303.149
303.149
303.149
303.149
303.149
303.149
303.149
303.148
303.148
303.148
303.15
303.15
303.15
303.15
303.15
303.15
303.15
303.15
303.15
303.15
303.15
303.15
303.15
303.15
303.15
303.15
303.15
303.15
303.15
303.15
303.15
303.15
303.149
303.149
303.149
303.149
303.149
303.149
303.149
303.148
303.148
303.148
303.148
303.147
303.147
303.147
303.147
303.146
303.146
303.146
303.145
303.145
303.145
303.144
303.144
303.143
303.143
303.142
303.142
303.141
303.15
303.15
303.15
303.15
303.15
303.15
303.149
303.149
303.149
303.149
303.149
303.148
303.148
303.148
303.147
303.147
303.147
303.146
303.146
303.145
303.145
303.144
303.144
303.143
303.142
303.141
303.14
303.139
303.138
303.138
303.137
303.136
303.135
303.134
303.133
303.132
303.131
303.13
303.129
303.129
303.128
303.127
303.126
303.124
303.123
303.122
303.121
303.12
303.118
303.117
303.148
303.144
303.141
303.138
303.135
303.132
303.129
303.126
303.123
303.12
303.117
303.114
303.111
303.108
303.105
303.102
303.099
303.096
303.093
303.09
303.088
303.085
303.082
303.08
303.078
303.076
303.073
303.071
303.069
303.067
303.065
303.062
303.06
303.058
303.056
303.054
303.052
303.05
303.048
303.046
303.044
303.042
303.041
303.039
303.037
303.035
303.033
303.031
303.029
303.028
293.658
293.459
293.296
293.187
293.125
293.095
293.084
293.084
293.086
293.087
293.086
293.084
293.084
293.088
293.095
293.105
293.117
293.126
293.132
293.1
293.722
293.5
293.32
293.2
293.131
293.098
293.086
293.085
293.087
293.089
293.088
293.085
293.085
293.088
293.095
293.106
293.117
293.127
293.133
293.099
293.79
293.544
293.345
293.213
293.137
293.101
293.088
293.087
293.089
293.09
293.089
293.086
293.085
293.088
293.095
293.106
293.118
293.128
293.133
293.098
293.862
293.591
293.372
293.227
293.144
293.104
293.09
293.088
293.09
293.092
293.091
293.087
293.086
293.088
293.095
293.106
293.118
293.128
293.133
293.097
293.939
293.641
293.401
293.242
293.151
293.107
293.092
293.09
293.092
293.093
293.092
293.088
293.086
293.089
293.095
293.106
293.118
293.129
293.134
293.096
294.021
293.693
293.431
293.257
293.158
293.111
293.094
293.092
293.094
293.095
293.094
293.089
293.087
293.089
293.096
293.106
293.119
293.129
293.134
293.095
294.108
293.748
293.462
293.273
293.165
293.114
293.096
293.093
293.095
293.097
293.095
293.091
293.088
293.089
293.096
293.107
293.119
293.129
293.134
293.095
294.199
293.806
293.494
293.289
293.172
293.117
293.098
293.095
293.097
293.099
293.097
293.092
293.088
293.089
293.096
293.107
293.119
293.13
293.134
293.094
294.295
293.866
293.528
293.305
293.179
293.12
293.099
293.097
293.099
293.101
293.099
293.093
293.089
293.09
293.096
293.107
293.119
293.13
293.134
293.093
294.395
293.929
293.562
293.321
293.185
293.122
293.101
293.098
293.101
293.102
293.101
293.095
293.09
293.09
293.096
293.107
293.12
293.13
293.134
293.091
294.5
293.993
293.596
293.337
293.191
293.125
293.102
293.1
293.103
293.104
293.103
293.096
293.091
293.09
293.096
293.107
293.12
293.13
293.135
293.09
294.609
294.06
293.631
293.352
293.197
293.127
293.104
293.101
293.104
293.106
293.105
293.098
293.092
293.091
293.096
293.107
293.12
293.131
293.135
293.089
294.721
294.128
293.666
293.368
293.203
293.129
293.105
293.103
293.106
293.108
293.107
293.099
293.093
293.091
293.096
293.107
293.12
293.131
293.135
293.088
294.837
294.197
293.701
293.382
293.208
293.131
293.106
293.104
293.108
293.11
293.108
293.101
293.094
293.092
293.097
293.107
293.12
293.131
293.135
293.087
294.956
294.267
293.736
293.396
293.212
293.132
293.107
293.106
293.11
293.112
293.11
293.103
293.095
293.092
293.097
293.107
293.12
293.131
293.135
293.086
295.079
294.338
293.77
293.409
293.216
293.133
293.108
293.107
293.111
293.114
293.112
293.105
293.096
293.093
293.097
293.107
293.12
293.131
293.135
293.085
295.204
294.409
293.802
293.421
293.219
293.133
293.109
293.108
293.113
293.116
293.114
293.106
293.098
293.094
293.097
293.107
293.12
293.131
293.135
293.084
295.331
294.48
293.834
293.432
293.221
293.133
293.109
293.11
293.115
293.118
293.116
293.108
293.099
293.094
293.097
293.107
293.121
293.132
293.135
293.083
295.461
294.55
293.864
293.441
293.222
293.133
293.11
293.111
293.116
293.12
293.118
293.11
293.1
293.095
293.098
293.107
293.121
293.132
293.135
293.082
295.592
294.62
293.892
293.448
293.222
293.133
293.11
293.112
293.118
293.121
293.12
293.112
293.101
293.096
293.098
293.108
293.121
293.132
293.135
293.081
295.724
294.688
293.919
293.454
293.221
293.131
293.11
293.113
293.12
293.123
293.122
293.113
293.103
293.097
293.098
293.108
293.121
293.132
293.135
293.08
295.857
294.754
293.942
293.458
293.219
293.13
293.111
293.115
293.122
293.125
293.123
293.115
293.104
293.097
293.099
293.108
293.121
293.132
293.135
293.079
295.99
294.819
293.964
293.461
293.217
293.128
293.111
293.116
293.123
293.127
293.125
293.117
293.105
293.098
293.099
293.108
293.121
293.132
293.135
293.078
296.124
294.882
293.983
293.461
293.213
293.126
293.111
293.117
293.125
293.128
293.127
293.118
293.107
293.099
293.099
293.108
293.121
293.132
293.135
293.077
296.257
294.943
294
293.46
293.209
293.124
293.111
293.119
293.127
293.13
293.128
293.12
293.108
293.1
293.1
293.108
293.121
293.132
293.135
293.076
296.39
295.001
294.014
293.457
293.204
293.122
293.112
293.12
293.128
293.131
293.13
293.121
293.109
293.101
293.1
293.108
293.121
293.132
293.135
293.075
296.522
295.057
294.025
293.453
293.199
293.12
293.112
293.122
293.13
293.133
293.131
293.123
293.11
293.101
293.101
293.108
293.121
293.132
293.135
293.074
296.653
295.11
294.035
293.448
293.194
293.118
293.112
293.123
293.131
293.134
293.132
293.124
293.111
293.102
293.101
293.109
293.121
293.133
293.135
293.073
296.783
295.161
294.043
293.442
293.188
293.116
293.113
293.124
293.132
293.135
293.133
293.125
293.112
293.103
293.102
293.109
293.121
293.133
293.135
293.072
296.912
295.211
294.049
293.436
293.183
293.114
293.114
293.126
293.133
293.135
293.134
293.126
293.113
293.104
293.102
293.109
293.121
293.133
293.135
293.071
297.039
295.258
294.054
293.429
293.177
293.113
293.114
293.127
293.134
293.136
293.135
293.127
293.114
293.104
293.103
293.109
293.122
293.133
293.135
293.071
297.165
295.304
294.058
293.422
293.172
293.112
293.115
293.128
293.135
293.136
293.135
293.128
293.115
293.105
293.103
293.11
293.122
293.133
293.135
293.07
297.289
295.349
294.062
293.416
293.168
293.111
293.116
293.129
293.135
293.136
293.135
293.128
293.116
293.106
293.103
293.11
293.122
293.133
293.135
293.069
297.412
295.393
294.067
293.41
293.164
293.11
293.117
293.13
293.136
293.136
293.135
293.129
293.117
293.107
293.104
293.11
293.122
293.133
293.135
293.069
297.534
295.438
294.071
293.404
293.161
293.11
293.117
293.131
293.136
293.135
293.135
293.129
293.117
293.107
293.104
293.111
293.122
293.133
293.135
293.068
297.655
295.482
294.077
293.4
293.159
293.11
293.118
293.131
293.136
293.135
293.135
293.13
293.118
293.108
293.105
293.111
293.122
293.133
293.135
293.067
297.774
295.527
294.085
293.397
293.157
293.11
293.119
293.132
293.136
293.135
293.135
293.13
293.118
293.108
293.105
293.111
293.123
293.134
293.135
293.067
297.893
295.574
294.094
293.396
293.156
293.11
293.12
293.132
293.136
293.135
293.135
293.13
293.119
293.109
293.106
293.112
293.123
293.134
293.135
293.066
298.011
295.623
294.105
293.396
293.155
293.111
293.12
293.132
293.136
293.134
293.135
293.131
293.119
293.109
293.106
293.112
293.123
293.134
293.135
293.066
298.128
295.674
294.119
293.397
293.155
293.111
293.121
293.133
293.136
293.134
293.134
293.131
293.12
293.11
293.107
293.112
293.123
293.134
293.135
293.065
298.246
295.727
294.135
293.4
293.156
293.112
293.121
293.133
293.136
293.134
293.134
293.131
293.12
293.11
293.107
293.113
293.124
293.134
293.135
293.064
298.363
295.784
294.154
293.404
293.157
293.113
293.122
293.133
293.136
293.133
293.134
293.131
293.12
293.111
293.108
293.113
293.124
293.134
293.135
293.064
298.481
295.846
294.177
293.41
293.158
293.113
293.122
293.133
293.135
293.133
293.133
293.131
293.121
293.111
293.108
293.114
293.124
293.135
293.136
293.063
298.599
295.911
294.202
293.418
293.16
293.114
293.123
293.133
293.135
293.133
293.133
293.131
293.121
293.112
293.109
293.114
293.125
293.135
293.136
293.063
298.718
295.981
294.231
293.427
293.163
293.115
293.123
293.133
293.135
293.133
293.133
293.131
293.121
293.112
293.109
293.114
293.125
293.135
293.136
293.062
298.838
296.055
294.264
293.438
293.166
293.116
293.124
293.133
293.135
293.132
293.132
293.131
293.121
293.112
293.11
293.115
293.125
293.135
293.136
293.062
298.959
296.133
294.301
293.451
293.17
293.117
293.124
293.133
293.134
293.132
293.132
293.131
293.121
293.113
293.11
293.115
293.126
293.135
293.136
293.061
299.081
296.217
294.341
293.466
293.174
293.118
293.124
293.133
293.134
293.132
293.132
293.131
293.122
293.113
293.111
293.116
293.126
293.136
293.136
293.061
299.204
296.304
294.385
293.483
293.179
293.12
293.125
293.133
293.134
293.131
293.131
293.131
293.122
293.114
293.111
293.116
293.126
293.136
293.136
293.06
299.327
296.397
294.433
293.501
293.184
293.121
293.125
293.133
293.134
293.131
293.131
293.131
293.122
293.114
293.112
293.117
293.127
293.136
293.136
293.06
299.451
296.493
294.485
293.522
293.191
293.122
293.125
293.133
293.134
293.131
293.131
293.13
293.122
293.114
293.112
293.117
293.127
293.136
293.136
293.059
299.574
296.594
294.541
293.544
293.197
293.124
293.126
293.133
293.133
293.13
293.13
293.13
293.122
293.115
293.113
293.118
293.127
293.136
293.136
293.059
299.698
296.699
294.601
293.569
293.205
293.126
293.126
293.133
293.133
293.13
293.13
293.13
293.122
293.115
293.113
293.118
293.128
293.137
293.136
293.058
299.821
296.807
294.664
293.595
293.213
293.127
293.126
293.133
293.133
293.13
293.129
293.129
293.122
293.116
293.114
293.119
293.128
293.137
293.136
293.058
299.943
296.918
294.731
293.623
293.221
293.129
293.126
293.133
293.133
293.13
293.129
293.129
293.122
293.116
293.115
293.12
293.129
293.137
293.136
293.057
300.063
297.032
294.8
293.654
293.23
293.131
293.127
293.133
293.133
293.129
293.128
293.128
293.122
293.116
293.115
293.12
293.129
293.137
293.136
293.056
300.182
297.148
294.873
293.685
293.24
293.133
293.127
293.133
293.133
293.129
293.128
293.127
293.122
293.117
293.116
293.121
293.129
293.137
293.135
293.056
300.299
297.266
294.948
293.719
293.251
293.135
293.127
293.133
293.133
293.129
293.127
293.127
293.122
293.117
293.117
293.121
293.13
293.138
293.135
293.055
300.413
297.386
295.026
293.754
293.262
293.138
293.127
293.133
293.133
293.129
293.127
293.126
293.122
293.118
293.117
293.122
293.13
293.138
293.135
293.054
300.525
297.506
295.106
293.791
293.274
293.14
293.127
293.133
293.133
293.129
293.126
293.126
293.122
293.118
293.118
293.123
293.131
293.138
293.135
293.054
300.633
297.626
295.188
293.83
293.287
293.143
293.128
293.133
293.133
293.129
293.126
293.126
293.122
293.119
293.119
293.124
293.131
293.138
293.134
293.053
300.738
297.746
295.272
293.87
293.3
293.146
293.128
293.133
293.133
293.129
293.126
293.125
293.123
293.12
293.12
293.124
293.132
293.138
293.134
293.052
300.839
297.866
295.357
293.911
293.314
293.149
293.128
293.133
293.133
293.129
293.126
293.125
293.123
293.12
293.121
293.125
293.132
293.139
293.133
293.051
300.936
297.984
295.444
293.955
293.329
293.152
293.128
293.132
293.133
293.129
293.126
293.125
293.123
293.121
293.121
293.126
293.133
293.139
293.133
293.05
301.029
298.101
295.531
293.999
293.345
293.155
293.128
293.132
293.133
293.129
293.126
293.125
293.123
293.122
293.122
293.127
293.133
293.139
293.132
293.049
301.118
298.217
295.62
294.045
293.361
293.159
293.129
293.132
293.133
293.129
293.126
293.125
293.124
293.122
293.123
293.128
293.134
293.139
293.131
293.048
301.203
298.332
295.71
294.093
293.378
293.163
293.129
293.132
293.133
293.13
293.126
293.125
293.124
293.123
293.124
293.128
293.134
293.139
293.13
293.047
301.285
298.445
295.801
294.142
293.397
293.167
293.129
293.132
293.133
293.13
293.127
293.126
293.125
293.124
293.125
293.129
293.135
293.139
293.129
293.045
301.362
298.557
295.893
294.193
293.417
293.172
293.129
293.132
293.134
293.131
293.127
293.126
293.125
293.125
293.126
293.13
293.135
293.139
293.128
293.044
301.437
298.668
295.987
294.247
293.438
293.177
293.13
293.132
293.134
293.131
293.128
293.127
293.126
293.126
293.127
293.131
293.136
293.139
293.127
293.043
301.508
298.778
296.084
294.303
293.46
293.182
293.13
293.131
293.134
293.132
293.128
293.127
293.127
293.126
293.128
293.132
293.136
293.138
293.126
293.041
301.577
298.888
296.183
294.363
293.485
293.189
293.131
293.131
293.134
293.132
293.129
293.128
293.127
293.127
293.129
293.132
293.137
293.138
293.124
293.039
301.644
299
296.286
294.426
293.511
293.196
293.131
293.131
293.134
293.133
293.13
293.129
293.128
293.128
293.13
293.133
293.137
293.138
293.122
293.038
301.71
299.113
296.393
294.494
293.541
293.204
293.132
293.13
293.134
293.134
293.131
293.13
293.129
293.13
293.131
293.134
293.137
293.137
293.121
293.036
301.774
299.228
296.507
294.568
293.574
293.213
293.132
293.13
293.134
293.134
293.132
293.131
293.13
293.131
293.132
293.135
293.137
293.136
293.119
293.034
301.838
299.347
296.627
294.648
293.611
293.224
293.133
293.129
293.134
293.135
293.133
293.132
293.131
293.132
293.133
293.135
293.137
293.135
293.116
293.032
301.902
299.471
296.756
294.737
293.653
293.236
293.135
293.128
293.134
293.135
293.134
293.133
293.132
293.133
293.134
293.136
293.137
293.134
293.114
293.03
301.967
299.602
296.896
294.836
293.701
293.252
293.136
293.127
293.133
293.136
293.135
293.134
293.133
293.134
293.135
293.136
293.137
293.133
293.111
293.028
302.032
299.74
297.048
294.947
293.757
293.27
293.139
293.126
293.133
293.136
293.136
293.135
293.134
293.135
293.136
293.137
293.137
293.131
293.108
293.025
302.1
299.886
297.216
295.073
293.823
293.293
293.142
293.124
293.131
293.136
293.136
293.136
293.135
293.135
293.136
293.137
293.136
293.129
293.104
293.023
302.169
300.043
297.4
295.216
293.901
293.321
293.147
293.123
293.13
293.135
293.137
293.136
293.136
293.136
293.136
293.136
293.135
293.126
293.101
293.02
302.24
300.211
297.605
295.381
293.994
293.357
293.154
293.121
293.128
293.134
293.137
293.137
293.137
293.136
293.136
293.136
293.133
293.124
293.097
293.017
302.314
300.391
297.833
295.57
294.105
293.401
293.164
293.12
293.125
293.133
293.136
293.137
293.137
293.136
293.136
293.135
293.131
293.12
293.092
293.015
302.39
300.585
298.086
295.789
294.239
293.458
293.178
293.119
293.122
293.13
293.135
293.136
293.136
293.136
293.135
293.133
293.128
293.116
293.087
293.011
302.467
300.791
298.367
296.044
294.402
293.532
293.198
293.119
293.117
293.127
293.133
293.135
293.135
293.135
293.133
293.131
293.125
293.111
293.082
293.008
302.545
301.01
298.68
296.339
294.601
293.628
293.228
293.12
293.113
293.123
293.13
293.133
293.133
293.132
293.131
293.128
293.121
293.106
293.076
293.005
302.623
301.241
299.025
296.681
294.845
293.754
293.27
293.125
293.107
293.117
293.125
293.129
293.13
293.129
293.127
293.123
293.115
293.1
293.069
293.001
302.699
301.48
299.403
297.076
295.144
293.919
293.333
293.136
293.102
293.11
293.119
293.124
293.125
293.125
293.123
293.118
293.109
293.093
293.062
292.997
302.773
301.726
299.813
297.532
295.512
294.137
293.425
293.158
293.098
293.101
293.111
293.117
293.119
293.119
293.116
293.111
293.102
293.085
293.055
292.993
302.842
301.972
300.251
298.051
295.961
294.427
293.56
293.197
293.098
293.092
293.101
293.109
293.111
293.111
293.109
293.103
293.093
293.077
293.047
292.988
302.903
302.211
300.71
298.637
296.506
294.81
293.759
293.266
293.107
293.082
293.09
293.098
293.101
293.102
293.099
293.094
293.084
293.067
293.038
292.983
302.956
302.437
301.178
299.283
297.161
295.314
294.051
293.386
293.133
293.076
293.077
293.086
293.09
293.091
293.089
293.083