/*--------------------------------*- C++ -*----------------------------------*\
  =========                 |
  \\      /  F ield         | OpenFOAM: The Open Source CFD Toolbox
   \\    /   O peration     | Website:  https://openfoam.org
    \\  /    A nd           | Version:  8
     \\/     M anipulation  |
\*---------------------------------------------------------------------------*/
FoamFile
{
    version     2.0;
    format      ascii;
    class       volVectorField;
    location    "200";
    object      U;
}
// * * * * * * * * * * * * * * * * * * * * * * * * * * * * * * * * * * * * * //

dimensions      [0 1 -1 0 0 0 0];

internalField   nonuniform List<vector> 
8400
(
(-12.2118 -0.190165 1.03887e-17)
(-11.8283 -0.222723 1.09869e-17)
(-11.4963 -0.250599 1.16057e-17)
(-11.1288 -0.281621 1.18237e-17)
(-10.7307 -0.314856 1.24169e-17)
(-10.2947 -0.351192 1.36932e-17)
(-9.8115 -0.38914 1.48487e-17)
(-9.27339 -0.425035 1.62341e-17)
(-8.6773 -0.452801 1.79556e-17)
(-8.02862 -0.464591 1.99778e-17)
(-7.34432 -0.452492 2.2935e-17)
(-6.6565 -0.411616 2.72238e-17)
(-6.01821 -0.343868 3.22726e-17)
(-5.50337 -0.258389 3.76925e-17)
(-5.15983 -0.175925 4.24086e-17)
(-4.93798 -0.13304 4.54715e-17)
(-4.73049 -0.136365 4.77264e-17)
(-4.45965 -0.172754 5.01194e-17)
(-4.11664 -0.210995 5.27391e-17)
(-3.75407 -0.212665 5.57023e-17)
(-3.43659 -0.175934 5.84922e-17)
(-3.19501 -0.130551 6.04045e-17)
(-3.03064 -0.0896975 6.14119e-17)
(-2.9345 -0.0565225 6.17232e-17)
(-2.89388 -0.0318412 6.15659e-17)
(-2.89419 -0.0148584 6.11032e-17)
(-2.92209 -0.00461319 6.08852e-17)
(-2.966 0.000152114 6.0458e-17)
(-3.01664 0.000719583 5.94602e-17)
(-3.06689 -0.00192894 5.84761e-17)
(-3.1113 -0.00691811 5.75408e-17)
(-3.1458 -0.0134887 5.65665e-17)
(-3.16788 -0.0210756 5.58609e-17)
(-3.17636 -0.0291715 5.48917e-17)
(-3.17105 -0.0373998 5.34442e-17)
(-3.15272 -0.0454739 5.20161e-17)
(-3.12291 -0.0530708 5.06329e-17)
(-3.08361 -0.0600265 4.91751e-17)
(-3.03703 -0.0662653 4.75404e-17)
(-2.98531 -0.0717774 4.58431e-17)
(-2.93045 -0.0766406 4.39239e-17)
(-2.87426 -0.0809923 4.21985e-17)
(-2.81822 -0.0849976 3.99634e-17)
(-2.76343 -0.0888422 3.71513e-17)
(-2.71066 -0.0927206 3.44705e-17)
(-2.6604 -0.0968474 3.17881e-17)
(-2.61295 -0.101497 2.897e-17)
(-2.56812 -0.107014 2.70079e-17)
(-2.52429 -0.113947 2.39309e-17)
(-2.47871 -0.123518 1.97694e-17)
(-8.18047 -0.407376 3.73155e-18)
(-7.91639 -0.457933 4.14166e-18)
(-7.73819 -0.48948 4.34602e-18)
(-7.56539 -0.52697 3.55684e-18)
(-7.39052 -0.571636 3.30339e-18)
(-7.21062 -0.630063 3.41055e-18)
(-7.01756 -0.702506 2.95175e-18)
(-6.80345 -0.784734 1.96687e-18)
(-6.55993 -0.866191 3.06491e-19)
(-6.28024 -0.930818 -1.9031e-18)
(-5.96266 -0.95779 -3.42402e-18)
(-5.61248 -0.924419 -3.85381e-18)
(-5.24701 -0.814139 -3.40187e-18)
(-4.92396 -0.625128 -1.09106e-18)
(-4.73148 -0.393665 2.44057e-18)
(-4.63244 -0.252272 5.56483e-18)
(-4.52557 -0.258541 8.9296e-18)
(-4.314 -0.39854 1.21194e-17)
(-3.98019 -0.551647 1.62506e-17)
(-3.60689 -0.562656 2.22272e-17)
(-3.29282 -0.437212 3.00172e-17)
(-3.06958 -0.297111 3.7271e-17)
(-2.93029 -0.176461 4.29017e-17)
(-2.85734 -0.0779569 4.66052e-17)
(-2.83563 -0.00454748 4.83939e-17)
(-2.84907 0.0460021 4.87544e-17)
(-2.88742 0.0776035 4.89486e-17)
(-2.93904 0.0940609 4.86201e-17)
(-2.99523 0.0986736 4.82016e-17)
(-3.04936 0.0942287 4.79927e-17)
(-3.09623 0.0832135 4.80132e-17)
(-3.13205 0.0676957 4.83323e-17)
(-3.15451 0.0494178 4.87186e-17)
(-3.1625 0.0300171 4.92486e-17)
(-3.15631 0.0111625 4.92041e-17)
(-3.13735 -0.00562802 4.99625e-17)
(-3.10735 -0.0195308 5.17037e-17)
(-3.06846 -0.030084 5.37175e-17)
(-3.02293 -0.0370887 5.61412e-17)
(-2.97293 -0.0406108 5.85202e-17)
(-2.92048 -0.0409385 6.09766e-17)
(-2.86737 -0.0384792 6.42262e-17)
(-2.81501 -0.033717 6.77057e-17)
(-2.76445 -0.0271822 7.21645e-17)
(-2.7164 -0.0194009 7.65085e-17)
(-2.67135 -0.010908 7.95476e-17)
(-2.62967 -0.00227515 8.22259e-17)
(-2.59143 0.00593309 8.37599e-17)
(-2.55586 0.012951 8.35118e-17)
(-2.52138 0.0170731 7.76675e-17)
(-0.143716 0.22639 2.71107e-18)
(-0.48544 0.0588443 5.74092e-18)
(-0.092181 -0.16301 5.90998e-18)
(-0.374907 -0.272513 5.50784e-18)
(-0.551525 -0.357323 5.81509e-18)
(-0.784298 -0.441723 7.88205e-18)
(-1.07814 -0.536471 9.78698e-18)
(-1.43673 -0.640841 9.33852e-18)
(-1.84108 -0.74829 6.88742e-18)
(-2.25384 -0.848634 3.7955e-18)
(-2.64664 -0.917631 -4.02015e-19)
(-2.99363 -0.916423 -5.9711e-18)
(-3.24343 -0.810614 -1.23633e-17)
(-3.36247 -0.602454 -1.81286e-17)
(-3.54988 -0.343396 -2.18986e-17)
(-3.73083 -0.198685 -2.21694e-17)
(-3.88099 -0.347121 -2.13708e-17)
(-3.80534 -0.732561 -2.05134e-17)
(-3.47839 -1.01318 -2.03307e-17)
(-3.14108 -0.979895 -2.0481e-17)
(-2.89071 -0.725741 -1.925e-17)
(-2.7066 -0.487128 -1.71018e-17)
(-2.61572 -0.299948 -1.53632e-17)
(-2.58239 -0.145172 -1.39234e-17)
(-2.59428 -0.0301986 -1.2849e-17)
(-2.63628 0.048905 -1.19854e-17)
(-2.69718 0.0954096 -1.22884e-17)
(-2.76565 0.116353 -1.32904e-17)
(-2.83404 0.117745 -1.46269e-17)
(-2.8966 0.104611 -1.58209e-17)
(-2.94895 0.0811497 -1.61137e-17)
(-2.98798 0.0508405 -1.59612e-17)
(-3.01171 0.0168067 -1.66214e-17)
(-3.01929 -0.0180738 -1.66026e-17)
(-3.01148 -0.05169 -1.59644e-17)
(-2.99007 -0.0824958 -1.50107e-17)
(-2.95721 -0.109182 -1.35254e-17)
(-2.91537 -0.13099 -1.18745e-17)
(-2.86705 -0.14766 -1.01422e-17)
(-2.81461 -0.159394 -8.39927e-18)
(-2.76018 -0.166707 -6.73214e-18)
(-2.70553 -0.170275 -4.87634e-18)
(-2.65205 -0.170845 -2.81102e-18)
(-2.6007 -0.169171 2.48224e-19)
(-2.55214 -0.165977 3.84495e-18)
(-2.50681 -0.161964 6.24669e-18)
(-2.465 -0.157768 9.61083e-18)
(-2.42677 -0.153909 1.28164e-17)
(-2.39171 -0.150949 1.42145e-17)
(-2.35908 -0.149949 1.50615e-17)
(11.564 -1.60862 6.06293e-18)
(11.1421 -1.28658 6.23436e-18)
(10.724 -1.11255 6.49064e-18)
(10.3011 -1.00261 6.94655e-18)
(9.86172 -0.925066 7.52339e-18)
(9.38414 -0.86446 8.56663e-18)
(8.84154 -0.808681 9.87998e-18)
(8.20565 -0.745106 1.09552e-17)
(7.46891 -0.658676 1.12192e-17)
(6.61322 -0.542528 1.21668e-17)
(5.62524 -0.396164 1.37725e-17)
(4.51135 -0.223889 1.36136e-17)
(3.30836 -0.025412 1.31895e-17)
(2.31271 0.216749 1.29926e-17)
(1.42425 0.6059 5.26016e-18)
(-1.71871 0.100785 -1.52164e-17)
(-2.51649 -0.736232 -1.41697e-17)
(-2.2788 -1.16808 -1.31937e-17)
(-1.8705 -1.1934 -1.47909e-17)
(-2.05252 -1.08873 -2.00616e-17)
(-2.25513 -0.851037 -2.26223e-17)
(-2.1514 -0.556564 -2.29279e-17)
(-2.16728 -0.324954 -2.35868e-17)
(-2.19259 -0.111449 -2.40125e-17)
(-2.2532 0.0432475 -2.44176e-17)
(-2.34113 0.143237 -2.48463e-17)
(-2.43648 0.199066 -2.40475e-17)
(-2.53053 0.221527 -2.3495e-17)
(-2.61759 0.219021 -2.47613e-17)
(-2.6936 0.197949 -2.58334e-17)
(-2.75536 0.163348 -2.6369e-17)
(-2.80037 0.119533 -2.61873e-17)
(-2.82699 0.0705267 -2.57786e-17)
(-2.83479 0.0201128 -2.53769e-17)
(-2.82543 -0.0279776 -2.486e-17)
(-2.80155 -0.0706095 -2.39565e-17)
(-2.76592 -0.106028 -2.26941e-17)
(-2.72151 -0.133299 -2.11866e-17)
(-2.67128 -0.152255 -1.91968e-17)
(-2.61791 -0.163346 -1.70207e-17)
(-2.56367 -0.167439 -1.44848e-17)
(-2.51037 -0.165654 -1.17291e-17)
(-2.45933 -0.159176 -9.70359e-18)
(-2.41144 -0.149178 -7.82948e-18)
(-2.36725 -0.136837 -5.24177e-18)
(-2.3271 -0.123294 -3.213e-18)
(-2.29115 -0.109576 -1.74297e-18)
(-2.25935 -0.0965659 -1.15007e-18)
(-2.2314 -0.0851089 -1.39199e-18)
(-2.20662 -0.0761758 -7.76233e-19)
(16.9749 0.928496 1.10599e-18)
(16.4077 0.946165 1.12964e-18)
(15.9152 0.895043 7.11007e-19)
(15.498 0.820368 6.80928e-19)
(15.1032 0.748487 1.11824e-18)
(14.706 0.693114 1.09055e-18)
(14.2947 0.667392 1.08188e-18)
(13.8547 0.684767 1.10708e-18)
(13.3557 0.753597 1.06842e-18)
(12.7723 0.8805 1.1417e-18)
(12.0775 1.06618 1.68375e-18)
(11.2465 1.30146 2.19691e-18)
(10.2674 1.56144 2.79723e-18)
(9.19436 1.80247 3.81442e-18)
(8.09877 1.93915 4.22109e-18)
(6.88811 1.80917 2.42799e-18)
(5.9186 1.47067 2.58277e-18)
(4.71052 1.01561 3.0625e-18)
(3.49805 0.59241 2.39396e-18)
(0.39626 -0.422921 -1.20982e-17)
(-1.51574 -0.916147 -1.99954e-17)
(-1.26673 -0.525297 -1.8011e-17)
(-1.58847 -0.31769 -1.84697e-17)
(-1.67509 -0.0538835 -1.76415e-17)
(-1.81491 0.132344 -1.7947e-17)
(-1.96459 0.240355 -1.87933e-17)
(-2.10379 0.292096 -1.97923e-17)
(-2.22874 0.303401 -2.15487e-17)
(-2.3378 0.285571 -2.38646e-17)
(-2.4296 0.246744 -2.66469e-17)
(-2.50242 0.193051 -2.9104e-17)
(-2.55438 0.129655 -3.05122e-17)
(-2.5841 0.0615157 -3.15266e-17)
(-2.59171 -0.00638493 -3.21318e-17)
(-2.57982 -0.0701293 -3.34744e-17)
(-2.55175 -0.126537 -3.47558e-17)
(-2.51111 -0.173299 -3.554e-17)
(-2.46171 -0.209342 -3.57863e-17)
(-2.40712 -0.234678 -3.55674e-17)
(-2.35044 -0.250127 -3.48432e-17)
(-2.29412 -0.257014 -3.35414e-17)
(-2.23996 -0.256871 -3.15275e-17)
(-2.18911 -0.251249 -2.92618e-17)
(-2.14229 -0.241632 -2.62912e-17)
(-2.09992 -0.229415 -2.26255e-17)
(-2.06219 -0.215854 -1.87406e-17)
(-2.02915 -0.202028 -1.53762e-17)
(-2.0007 -0.188859 -1.2976e-17)
(-1.97661 -0.177213 -1.11404e-17)
(-1.9563 -0.168037 -9.45226e-18)
(12.9005 0.348044 6.85197e-19)
(12.4707 0.216302 7.00373e-19)
(12.058 0.138703 1.77911e-19)
(11.7263 0.0930635 1.92201e-19)
(11.4303 0.0824262 7.59768e-19)
(11.1436 0.113845 7.54197e-19)
(10.8624 0.195545 7.92857e-19)
(10.5865 0.337058 8.57211e-19)
(10.3155 0.547738 8.41527e-19)
(10.0478 0.834127 7.29493e-19)
(9.77677 1.19573 8.40272e-19)
(9.48738 1.61876 1.04586e-18)
(9.15528 2.06803 1.42619e-18)
(8.76524 2.47824 2.02822e-18)
(8.2929 2.70643 2.16588e-18)
(7.63397 2.58926 2.02405e-18)
(6.76501 2.28317 2.39588e-18)
(5.72677 2.05926 2.57393e-18)
(4.70475 1.93103 4.22821e-18)
(3.44271 1.63008 2.71288e-18)
(2.66694 1.34092 1.77399e-18)
(0.721235 0.234992 -8.58988e-18)
(-0.799328 -0.170266 -1.27731e-17)
(-1.03637 0.130496 -1.18376e-17)
(-1.3032 0.32363 -1.23302e-17)
(-1.52806 0.419387 -1.29986e-17)
(-1.71759 0.45217 -1.40151e-17)
(-1.87706 0.442564 -1.54719e-17)
(-2.01051 0.404251 -1.76595e-17)
(-2.12023 0.345725 -1.97662e-17)
(-2.20648 0.272429 -2.16778e-17)
(-2.26777 0.188741 -2.35943e-17)
(-2.3022 0.0995122 -2.47823e-17)
(-2.31009 0.0104767 -2.56946e-17)
(-2.29489 -0.072276 -2.74202e-17)
(-2.26087 -0.143779 -3.03074e-17)
(-2.21301 -0.201266 -3.32854e-17)
(-2.15639 -0.243633 -3.62462e-17)
(-2.09566 -0.271288 -3.93837e-17)
(-2.03463 -0.285707 -4.23573e-17)
(-1.97611 -0.288949 -4.48442e-17)
(-1.92193 -0.283219 -4.68986e-17)
(-1.87309 -0.270671 -4.83279e-17)
(-1.82998 -0.253307 -4.93082e-17)
(-1.79266 -0.232889 -4.81353e-17)
(-1.76096 -0.210929 -4.60472e-17)
(-1.73459 -0.188722 -4.41057e-17)
(-1.71327 -0.167372 -4.24109e-17)
(-1.69672 -0.147822 -4.06092e-17)
(-1.68439 -0.130966 -3.81193e-17)
(11.5584 1.25612 1.23719e-18)
(11.0437 1.13132 1.38394e-18)
(10.5732 1.04802 8.73258e-19)
(10.1892 0.998278 7.55447e-19)
(9.84663 0.976475 1.254e-18)
(9.51894 0.985266 1.20723e-18)
(9.19993 1.02854 1.24961e-18)
(8.88833 1.11108 1.30108e-18)
(8.58639 1.24047 8.72903e-19)
(8.30205 1.42769 7.22796e-19)
(8.04663 1.68447 1.0835e-18)
(7.82765 2.01569 1.12547e-18)
(7.63823 2.40552 1.34766e-18)
(7.45458 2.80239 1.71772e-18)
(7.22746 3.09651 1.56065e-18)
(6.86202 3.17375 1.66849e-18)
(6.29845 3.10232 2.21146e-18)
(5.56273 3.01144 2.23516e-18)
(4.75467 2.89145 2.77825e-18)
(3.82166 2.62855 3.02594e-18)
(3.0307 2.28746 5.1334e-18)
(2.10089 1.75715 3.30036e-18)
(1.01527 1.06135 1.88401e-18)
(-0.363996 0.479122 1.37672e-18)
(-0.754275 0.596291 1.00532e-18)
(-1.06623 0.642999 3.08003e-18)
(-1.30788 0.631583 5.71292e-18)
(-1.50055 0.584561 7.91229e-18)
(-1.65699 0.51511 9.77021e-18)
(-1.78524 0.429746 1.10028e-17)
(-1.88753 0.331857 1.19092e-17)
(-1.96125 0.224152 1.2075e-17)
(-2.00226 0.110791 1.14789e-17)
(-2.01059 -0.00163943 9.75328e-18)
(-1.99024 -0.105758 6.38903e-18)
(-1.94691 -0.194791 2.12115e-18)
(-1.88738 -0.264725 -2.45082e-18)
(-1.81848 -0.31429 -7.14909e-18)
(-1.74624 -0.34459 -1.27939e-17)
(-1.67548 -0.358216 -1.85375e-17)
(-1.60967 -0.35841 -2.45664e-17)
(-1.55101 -0.34846 -2.99396e-17)
(-1.50062 -0.331384 -3.50493e-17)
(-1.45878 -0.309772 -3.98783e-17)
(-1.42513 -0.285697 -4.37605e-17)
(-1.3989 -0.260761 -4.74504e-17)
(-1.37921 -0.236221 -5.1826e-17)
(-1.36517 -0.213078 -5.67571e-17)
(-1.35612 -0.192134 -6.19794e-17)
(-1.35135 -0.174105 -6.70924e-17)
(9.60501 1.53227 3.30991e-18)
(9.15337 1.36118 3.29532e-18)
(8.74634 1.23666 2.75001e-18)
(8.42246 1.15523 2.39139e-18)
(8.13565 1.10993 2.64455e-18)
(7.86 1.10176 2.59577e-18)
(7.58938 1.13395 2.56046e-18)
(7.32263 1.21074 2.50167e-18)
(7.06174 1.33852 2.02681e-18)
(6.81341 1.5255 1.56338e-18)
(6.58799 1.77954 1.49558e-18)
(6.39607 2.10432 1.47835e-18)
(6.24168 2.49174 1.58334e-18)
(6.11566 2.91041 1.85272e-18)
(5.98357 3.28834 1.43672e-18)
(5.77274 3.53631 1.41354e-18)
(5.41859 3.6474 2.0454e-18)
(4.92047 3.67236 2.09932e-18)
(4.33357 3.61655 2.37825e-18)
(3.64216 3.43693 2.60424e-18)
(2.96747 3.14235 3.70848e-18)
(2.26756 2.6682 5.35425e-18)
(1.54264 2.04196 8.20272e-18)
(0.474245 1.27807 1.29208e-17)
(-0.279277 0.965623 1.96479e-17)
(-0.632276 0.92038 2.4596e-17)
(-0.90797 0.846065 3.04614e-17)
(-1.12146 0.753299 3.55688e-17)
(-1.29473 0.64962 3.93373e-17)
(-1.44082 0.537975 4.13354e-17)
(-1.56238 0.417492 4.21202e-17)
(-1.65349 0.285484 4.15044e-17)
(-1.70456 0.142648 3.97315e-17)
(-1.71369 -0.00277279 3.61557e-17)
(-1.68575 -0.136648 3.21861e-17)
(-1.62963 -0.247676 2.74226e-17)
(-1.55513 -0.33118 2.35029e-17)
(-1.47111 -0.386589 1.93126e-17)
(-1.38467 -0.416413 1.43952e-17)
(-1.30097 -0.424813 1.02194e-17)
(-1.22358 -0.416441 4.96367e-18)
(-1.15489 -0.395797 5.38101e-19)
(-1.09647 -0.366919 -3.66742e-18)
(-1.04925 -0.333291 -7.34064e-18)
(-1.01351 -0.29777 -7.81699e-18)
(-0.988922 -0.262517 -6.15589e-18)
(-0.97447 -0.229001 -4.13097e-18)
(-0.968625 -0.19811 -2.78651e-18)
(-0.969727 -0.170364 -1.9023e-18)
(-0.976139 -0.146124 -6.72294e-19)
(7.66466 1.97716 3.69773e-18)
(7.22379 1.75759 3.7501e-18)
(6.86674 1.59931 3.28951e-18)
(6.6009 1.49551 3.18676e-18)
(6.36952 1.43244 3.61502e-18)
(6.14811 1.40791 3.5778e-18)
(5.93232 1.42392 3.56926e-18)
(5.72198 1.4837 3.51933e-18)
(5.51917 1.5921 2.74035e-18)
(5.32879 1.75519 2.22707e-18)
(5.15741 1.97886 2.3652e-18)
(5.01184 2.26763 2.08411e-18)
(4.89659 2.62076 2.03193e-18)
(4.80959 3.02328 2.10957e-18)
(4.7314 3.4291 1.56892e-18)
(4.61346 3.76568 1.37097e-18)
(4.40333 3.99385 1.80713e-18)
(4.08942 4.12106 1.91184e-18)
(3.69668 4.14367 2.17508e-18)
(3.21139 4.03426 2.42643e-18)
(2.69219 3.79357 3.11292e-18)
(2.15913 3.38246 4.36005e-18)
(1.62587 2.79634 7.80911e-18)
(0.911308 2.0635 1.43916e-17)
(0.149102 1.44167 2.5206e-17)
(-0.265801 1.22087 3.66662e-17)
(-0.54119 1.08359 4.48052e-17)
(-0.755576 0.945773 4.90164e-17)
(-0.931081 0.809729 5.20435e-17)
(-1.0852 0.671604 5.31781e-17)
(-1.22463 0.521766 5.11729e-17)
(-1.33903 0.351026 4.89738e-17)
(-1.40376 0.161732 4.48977e-17)
(-1.40962 -0.0269446 3.98205e-17)
(-1.36577 -0.191234 3.51087e-17)
(-1.29091 -0.322484 3.10949e-17)
(-1.20019 -0.417699 2.77656e-17)
(-1.10396 -0.477677 2.73085e-17)
(-1.00889 -0.506619 2.27237e-17)
(-0.918719 -0.510307 2.00121e-17)
(-0.835744 -0.494626 1.62869e-17)
(-0.760987 -0.4649 1.17329e-17)
(-0.694952 -0.425586 4.50959e-18)
(-0.638127 -0.380475 -4.06436e-18)
(-0.591193 -0.332846 -6.59341e-18)
(-0.555091 -0.285583 -7.72407e-18)
(-0.530849 -0.241217 -5.4211e-18)
(-0.519152 -0.201831 -2.61404e-18)
(-0.519809 -0.168766 6.58556e-18)
(-0.531201 -0.142221 2.35452e-17)
(5.59055 2.34831 3.68464e-18)
(5.17992 2.05814 3.73646e-18)
(4.89766 1.85783 3.34256e-18)
(4.70883 1.72403 3.30445e-18)
(4.54561 1.63691 3.68507e-18)
(4.38919 1.59421 3.69934e-18)
(4.23865 1.59755 3.79297e-18)
(4.09476 1.64877 3.89888e-18)
(3.9595 1.75037 3.26345e-18)
(3.8361 1.905 2.78231e-18)
(3.72811 2.11527 2.85874e-18)
(3.63922 2.38421 2.54653e-18)
(3.57259 2.71394 2.39895e-18)
(3.52877 3.09899 2.37741e-18)
(3.4984 3.51092 1.65887e-18)
(3.45209 3.89276 1.38219e-18)
(3.35216 4.19512 1.74553e-18)
(3.18415 4.39984 1.78883e-18)
(2.95619 4.48889 2.03407e-18)
(2.65464 4.43771 2.30302e-18)
(2.30504 4.24692 2.81019e-18)
(1.93177 3.8926 3.82545e-18)
(1.55699 3.35611 6.77819e-18)
(1.07564 2.66011 1.3155e-17)
(0.509306 1.96971 2.24691e-17)
(0.063512 1.52201 3.27235e-17)
(-0.202829 1.29708 4.22638e-17)
(-0.396979 1.1094 4.65147e-17)
(-0.558115 0.920517 4.70293e-17)
(-0.717568 0.720645 4.38087e-17)
(-0.888409 0.510008 4.25389e-17)
(-1.04147 0.300104 4.09915e-17)
(-1.10907 0.10286 3.84356e-17)
(-1.07839 -0.0757972 3.39118e-17)
(-0.991451 -0.247645 2.89352e-17)
(-0.886933 -0.391879 2.48308e-17)
(-0.780551 -0.496047 2.22108e-17)
(-0.678899 -0.559476 2.25973e-17)
(-0.585385 -0.587346 2.09179e-17)
(-0.500208 -0.586782 2.00682e-17)
(-0.424413 -0.565023 2.03743e-17)
(-0.357489 -0.528659 1.84847e-17)
(-0.298467 -0.48265 1.33334e-17)
(-0.246499 -0.430867 1.52382e-18)
(-0.200892 -0.376299 -2.82394e-19)
(-0.161138 -0.321199 -5.39149e-18)
(-0.127027 -0.267275 -9.21681e-18)
(-0.0989687 -0.215995 -2.59845e-17)
(-0.0785069 -0.168881 -4.75114e-17)
(-0.0681863 -0.127544 -5.9548e-17)
(3.41694 2.67618 3.68392e-18)
(3.03202 2.28669 3.73393e-18)
(2.85884 2.04819 3.23236e-18)
(2.76954 1.88626 3.24879e-18)
(2.68692 1.77667 3.77033e-18)
(2.60415 1.71818 3.65709e-18)
(2.52504 1.71041 3.73815e-18)
(2.45175 1.75295 3.94207e-18)
(2.38665 1.84611 3.43636e-18)
(2.33211 1.99026 2.86384e-18)
(2.28998 2.18647 2.87184e-18)
(2.26221 2.43754 2.65871e-18)
(2.25111 2.74733 2.52363e-18)
(2.25873 3.1158 2.42648e-18)
(2.28175 3.52502 1.68734e-18)
(2.30361 3.92878 1.3376e-18)
(2.29905 4.275 1.5821e-18)
(2.25525 4.53227 1.58455e-18)
(2.17227 4.67239 1.82757e-18)
(2.03663 4.66918 2.13932e-18)
(1.85583 4.51923 2.62845e-18)
(1.64492 4.20862 3.57763e-18)
(1.42277 3.72158 6.2241e-18)
(1.12726 3.07444 1.18242e-17)
(0.748178 2.38557 2.06697e-17)
(0.393835 1.84038 3.02916e-17)
(0.151123 1.50367 3.82428e-17)
(-0.0211984 1.24583 3.94623e-17)
(-0.14445 1.02511 3.91983e-17)
(-0.277287 0.796571 3.73126e-17)
(-0.454089 0.580222 2.91619e-17)
(-0.696502 0.410035 2.41516e-17)
(-0.80492 0.252986 2.31542e-17)
(-0.673015 7.26732e-05 2.44752e-17)
(-0.507132 -0.237913 1.96961e-17)
(-0.373346 -0.420067 1.61972e-17)
(-0.264594 -0.543553 1.38642e-17)
(-0.172555 -0.615609 1.49726e-17)
(-0.0951289 -0.646291 1.43988e-17)
(-0.0259157 -0.645315 1.58165e-17)
(0.0331835 -0.621075 1.79199e-17)
(0.0847441 -0.581594 2.01691e-17)
(0.130241 -0.532233 2.22898e-17)
(0.170645 -0.477193 1.49599e-17)
(0.206744 -0.41965 1.10934e-17)
(0.239144 -0.361965 1.13244e-17)
(0.268255 -0.305911 1.33825e-17)
(0.294307 -0.252895 5.18972e-18)
(0.317331 -0.204061 -9.68452e-18)
(0.337474 -0.160351 -2.3353e-17)
(1.05133 3.0698 3.66739e-18)
(0.798454 2.40814 3.84316e-18)
(0.810246 2.13059 3.32303e-18)
(0.833567 1.94793 3.30712e-18)
(0.830762 1.82527 3.75248e-18)
(0.821083 1.75976 3.544e-18)
(0.812995 1.7473 3.66699e-18)
(0.809548 1.78514 3.98687e-18)
(0.81304 1.87164 3.48938e-18)
(0.824923 2.00568 2.91719e-18)
(0.846294 2.18816 2.93113e-18)
(0.878805 2.42286 2.66822e-18)
(0.925345 2.71537 2.60061e-18)
(0.990305 3.06853 2.55242e-18)
(1.07441 3.46934 1.60771e-18)
(1.16833 3.87798 1.07106e-18)
(1.25587 4.24462 1.33868e-18)
(1.32779 4.53295 1.33899e-18)
(1.3793 4.70867 1.57314e-18)
(1.39633 4.74217 1.89424e-18)
(1.37711 4.62517 2.38912e-18)
(1.32788 4.34912 3.29667e-18)
(1.25972 3.90561 5.72851e-18)
(1.13119 3.31105 1.09492e-17)
(0.926267 2.65797 1.90124e-17)
(0.696714 2.08416 2.82397e-17)
(0.51121 1.66675 3.65082e-17)
(0.376624 1.34934 3.91153e-17)
(0.281859 1.08486 4.04651e-17)
(0.197221 0.831162 3.94466e-17)
(0.10324 0.591268 3.49665e-17)
(-0.102088 0.386355 3.40948e-17)
(-0.266831 0.221765 3.2378e-17)
(-0.0896014 -0.00693847 2.33852e-17)
(0.089727 -0.249281 1.62772e-17)
(0.234375 -0.445168 1.16808e-17)
(0.334279 -0.575653 8.39427e-18)
(0.406705 -0.649927 7.56341e-18)
(0.461151 -0.68074 6.56998e-18)
(0.503063 -0.679201 6.4744e-18)
(0.536101 -0.654342 7.53524e-18)
(0.56299 -0.613508 9.12782e-18)
(0.585716 -0.562447 9.0136e-18)
(0.605676 -0.505502 5.10845e-18)
(0.623833 -0.44587 2.27501e-18)
(0.640795 -0.385888 4.92078e-18)
(0.656844 -0.327276 8.54008e-18)
(0.671984 -0.271338 7.10729e-18)
(0.685969 -0.219106 1.90791e-18)
(0.698387 -0.171423 -5.18363e-18)
(-1.37887 2.79847 3.60266e-18)
(-1.31913 2.33643 3.67829e-18)
(-1.14565 2.0924 3.43266e-18)
(-1.05902 1.91053 3.59016e-18)
(-0.993716 1.79215 3.44748e-18)
(-0.934823 1.7305 3.44081e-18)
(-0.876598 1.71958 3.74951e-18)
(-0.815936 1.7555 3.97584e-18)
(-0.750913 1.8356 3.44527e-18)
(-0.680164 1.95905 2.8537e-18)
(-0.601949 2.12817 2.66238e-18)
(-0.513824 2.34752 2.53397e-18)
(-0.411404 2.62254 2.54241e-18)
(-0.287868 2.95578 2.45989e-18)
(-0.137735 3.33741 1.32216e-18)
(0.0431967 3.74822 8.48783e-19)
(0.229836 4.11513 1.16899e-18)
(0.419268 4.41365 1.14138e-18)
(0.601538 4.60807 1.39106e-18)
(0.761594 4.66639 1.69758e-18)
(0.894414 4.57568 2.17896e-18)
(1.00092 4.3287 3.11007e-18)
(1.08467 3.92407 5.46027e-18)
(1.11405 3.38219 1.02255e-17)
(1.07242 2.78 1.72821e-17)
(0.983845 2.22196 2.54271e-17)
(0.892497 1.77475 3.26419e-17)
(0.819397 1.41892 3.63191e-17)
(0.76909 1.12322 3.8353e-17)
(0.73329 0.858556 3.80696e-17)
(0.69698 0.612997 3.5949e-17)
(0.64418 0.379496 3.53036e-17)
(0.650518 0.151928 3.26723e-17)
(0.755136 -0.0905247 2.68607e-17)
(0.850963 -0.306638 2.04309e-17)
(0.925793 -0.478786 1.47601e-17)
(0.973532 -0.595858 1.05105e-17)
(1.00102 -0.663058 7.30651e-18)
(1.01481 -0.690019 5.17739e-18)
(1.01985 -0.686516 3.47085e-18)
(1.01968 -0.660999 3.50398e-18)
(1.01682 -0.620354 2.50771e-18)
(1.01308 -0.569969 -4.19085e-20)
(1.00971 -0.513934 -3.7729e-18)
(1.0075 -0.455266 -5.0979e-18)
(1.00691 -0.39618 -4.21523e-18)
(1.00805 -0.338277 -2.29571e-18)
(1.01075 -0.28271 1.20856e-19)
(1.01461 -0.230332 3.55323e-19)
(1.01898 -0.181776 -7.19113e-19)
(-3.59922 2.47037 2.67253e-18)
(-3.27346 2.18184 2.67914e-18)
(-3.05151 1.96141 2.71518e-18)
(-2.89789 1.80031 2.50801e-18)
(-2.76469 1.69497 2.33157e-18)
(-2.64348 1.63914 2.74458e-18)
(-2.52736 1.62864 3.03239e-18)
(-2.41223 1.6607 3.11791e-18)
(-2.29501 1.73418 2.78652e-18)
(-2.17292 1.84992 2.24432e-18)
(-2.04299 2.01069 1.93859e-18)
(-1.90165 2.22007 1.97244e-18)
(-1.743 2.48116 1.97921e-18)
(-1.55824 2.79356 1.76839e-18)
(-1.33686 3.14865 9.12894e-19)
(-1.07211 3.52561 6.78429e-19)
(-0.781867 3.87182 1.36896e-18)
(-0.472609 4.16391 9.20985e-19)
(-0.154745 4.37044 1.26147e-18)
(0.155161 4.45101 1.57284e-18)
(0.429386 4.3818 2.02655e-18)
(0.680988 4.15947 2.87674e-18)
(0.909174 3.79076 4.96144e-18)
(1.08679 3.30158 8.90693e-18)
(1.1975 2.75783 1.49164e-17)
(1.25089 2.23886 2.18949e-17)
(1.27368 1.79664 2.75815e-17)
(1.28775 1.4297 3.1102e-17)
(1.30541 1.11931 3.33866e-17)
(1.32924 0.844381 3.39011e-17)
(1.35726 0.589288 3.28974e-17)
(1.39537 0.343096 3.13941e-17)
(1.47308 0.101843 2.86018e-17)
(1.53542 -0.130384 2.46993e-17)
(1.57529 -0.327445 2.01658e-17)
(1.59086 -0.479475 1.59713e-17)
(1.5849 -0.582661 1.25542e-17)
(1.56427 -0.641976 9.9875e-18)
(1.53503 -0.665484 8.09145e-18)
(1.50166 -0.661522 6.66553e-18)
(1.46724 -0.637501 5.34058e-18)
(1.4339 -0.599543 4.01021e-18)
(1.40309 -0.552496 1.61609e-18)
(1.37576 -0.500067 -1.5801e-18)
(1.35251 -0.445016 -5.02743e-18)
(1.33359 -0.389344 -6.9974e-18)
(1.31895 -0.334472 -6.0341e-18)
(1.30829 -0.281381 -1.99614e-18)
(1.30106 -0.230753 1.88384e-18)
(1.29647 -0.183049 5.33784e-18)
(-5.53964 2.09996 1.24809e-18)
(-5.11684 1.9173 1.19746e-18)
(-4.86571 1.74861 1.12462e-18)
(-4.65181 1.62124 7.26491e-19)
(-4.46367 1.53317 5.89369e-19)
(-4.29128 1.48436 9.52111e-19)
(-4.12694 1.47421 1.01042e-18)
(-3.9651 1.50261 1.00798e-18)
(-3.80108 1.57018 7.93687e-19)
(-3.63057 1.67851 6.27261e-19)
(-3.44944 1.82982 6.37611e-19)
(-3.25283 2.02632 7.47295e-19)
(-3.03364 2.26898 9.74238e-19)
(-2.78171 2.55518 8.7274e-19)
(-2.48466 2.8759 4.11447e-19)
(-2.1356 3.2111 2.0757e-19)
(-1.74386 3.52417 -4.59717e-20)
(-1.3171 3.79366 1.07665e-19)
(-0.869963 3.99461 1.00821e-18)
(-0.431849 4.09416 1.30498e-18)
(-0.00513021 4.05423 1.70643e-18)
(0.3821 3.85411 2.51851e-18)
(0.742893 3.51886 4.37284e-18)
(1.05595 3.08255 7.67005e-18)
(1.30448 2.60156 1.24139e-17)
(1.49001 2.13524 1.76612e-17)
(1.6281 1.72156 2.25582e-17)
(1.73645 1.36517 2.56359e-17)
(1.82848 1.05549 2.73086e-17)
(1.9109 0.778247 2.7452e-17)
(1.98652 0.522416 2.67983e-17)
(2.05867 0.282136 2.59032e-17)
(2.12766 0.0570153 2.38886e-17)
(2.16625 -0.146419 2.10635e-17)
(2.17338 -0.31601 1.83093e-17)
(2.15227 -0.445999 1.55635e-17)
(2.10964 -0.535013 1.32226e-17)
(2.05352 -0.587028 1.16952e-17)
(1.99059 -0.608345 1.01386e-17)
(1.92569 -0.605686 8.34483e-18)
(1.8621 -0.585227 7.20779e-18)
(1.80199 -0.552209 5.51711e-18)
(1.74677 -0.510855 3.02617e-18)
(1.69735 -0.464443 -1.7109e-19)
(1.65424 -0.415427 -4.79869e-18)
(1.61764 -0.365573 -8.42929e-18)
(1.58745 -0.31611 -8.58776e-18)
(1.56329 -0.267865 -1.31762e-18)
(1.54457 -0.221361 6.62268e-18)
(1.53042 -0.176901 1.31046e-17)
(-7.28435 1.71976 -3.56663e-21)
(-6.83634 1.60702 -7.85617e-20)
(-6.55707 1.49342 -2.34729e-19)
(-6.30151 1.40105 -1.00316e-18)
(-6.07219 1.33436 -9.82315e-19)
(-5.85864 1.29709 -5.28091e-19)
(-5.65331 1.29119 -5.63681e-19)
(-5.44974 1.31813 -6.56094e-19)
(-5.24207 1.37935 -8.07554e-19)
(-5.02454 1.4765 -8.60008e-19)
(-4.79146 1.61123 -7.3495e-19)
(-4.5364 1.78502 -4.3975e-19)
(-4.25139 1.99792 4.02924e-20)
(-3.92646 2.24667 3.33336e-19)
(-3.55068 2.52226 -1.18813e-19)
(-3.11754 2.80708 -1.60549e-18)
(-2.62984 3.07589 -1.30839e-18)
(-2.09385 3.31013 -1.80565e-19)
(-1.5261 3.49145 6.62293e-19)
(-0.961799 3.59763 9.20452e-19)
(-0.422356 3.59808 1.27351e-18)
(0.118022 3.42456 2.07826e-18)
(0.595061 3.12203 3.77117e-18)
(1.02818 2.73935 6.07189e-18)
(1.39678 2.32456 9.07051e-18)
(1.69704 1.92022 1.37232e-17)
(1.93718 1.55226 1.71089e-17)
(2.13 1.22625 1.91888e-17)
(2.28712 0.937224 2.03131e-17)
(2.41579 0.677514 2.00932e-17)
(2.51943 0.441613 1.94517e-17)
(2.59997 0.227302 1.86474e-17)
(2.65424 0.0337029 1.7378e-17)
(2.67109 -0.136286 1.59438e-17)
(2.65354 -0.277001 1.43973e-17)
(2.60709 -0.38517 1.28817e-17)
(2.53961 -0.460362 1.17192e-17)
(2.45913 -0.505485 1.10944e-17)
(2.37237 -0.525195 1.03574e-17)
(2.28428 -0.524662 9.30664e-18)
(2.19833 -0.508829 8.74522e-18)
(2.11687 -0.482021 7.2037e-18)
(2.04148 -0.447803 5.13863e-18)
(1.97319 -0.408967 2.60724e-18)
(1.91262 -0.367612 -1.78582e-18)
(1.86003 -0.325239 -6.50705e-18)
(1.81539 -0.282868 3.2152e-18)
(1.77838 -0.24114 1.18725e-17)
(1.74843 -0.200397 2.04146e-17)
(1.7247 -0.160755 2.80597e-17)
(-8.87556 1.34011 -1.13203e-18)
(-8.41959 1.27164 -1.27123e-18)
(-8.11678 1.19796 -1.44854e-18)
(-7.83054 1.13447 -2.24021e-18)
(-7.56723 1.08792 -2.10012e-18)
(-7.31773 1.0628 -1.72644e-18)
(-7.07492 1.06193 -1.74392e-18)
(-6.83182 1.08725 -1.746e-18)
(-6.58158 1.14041 -1.87234e-18)
(-6.31733 1.22291 -2.14844e-18)
(-6.03199 1.33599 -2.19088e-18)
(-5.7179 1.48043 -1.9499e-18)
(-5.36656 1.6557 -1.6077e-18)
(-4.96864 1.85863 -1.54796e-18)
(-4.51505 2.08159 -1.67899e-18)
(-3.9997 2.31114 -2.34614e-18)
(-3.42194 2.52982 -2.15398e-18)
(-2.78634 2.72248 -1.16118e-18)
(-2.10906 2.87536 -1.29247e-19)
(-1.42665 2.97568 5.77153e-19)
(-0.778958 3.00618 1.20107e-18)
(-0.124721 2.88542 1.68505e-18)
(0.477068 2.61391 2.87239e-18)
(1.01206 2.28702 3.98276e-18)
(1.48187 1.94219 5.96719e-18)
(1.87621 1.60746 9.32558e-18)
(2.19851 1.2982 1.15798e-17)
(2.45804 1.01871 1.28846e-17)
(2.66464 0.767692 1.37196e-17)
(2.82537 0.542339 1.37625e-17)
(2.94423 0.340586 1.31733e-17)
(3.02444 0.161494 1.27725e-17)
(3.06529 0.00486571 1.17711e-17)
(3.06491 -0.128082 1.02854e-17)
(3.02922 -0.236383 9.79504e-18)
(2.96535 -0.319422 9.20579e-18)
(2.8815 -0.377698 8.76418e-18)
(2.78527 -0.413323 9.08427e-18)
(2.68292 -0.429474 9.21786e-18)
(2.57917 -0.429808 8.88143e-18)
(2.47745 -0.417973 8.97239e-18)
(2.38024 -0.397272 8.15624e-18)
(2.28931 -0.370498 6.98791e-18)
(2.2059 -0.339863 4.93306e-18)
(2.13083 -0.307036 -1.46159e-18)
(2.06455 -0.273201 -7.17303e-18)
(2.00717 -0.239135 -1.02009e-17)
(1.95854 -0.205268 8.0289e-19)
(1.9182 -0.171742 9.04671e-18)
(1.88539 -0.138463 1.51682e-17)
(-10.3226 0.987477 -2.01235e-18)
(-9.85083 0.949273 -2.07549e-18)
(-9.5245 0.905089 -2.19195e-18)
(-9.20967 0.865493 -2.62964e-18)
(-8.91381 0.836461 -2.65584e-18)
(-8.62931 0.821871 -2.30802e-18)
(-8.34944 0.824331 -2.22601e-18)
(-8.06708 0.845695 -2.20244e-18)
(-7.77478 0.887424 -2.42725e-18)
(-7.46476 0.950701 -3.12989e-18)
(-7.12901 1.03642 -3.21184e-18)
(-6.75909 1.14487 -2.68508e-18)
(-6.34617 1.27515 -2.35225e-18)
(-5.88132 1.42444 -2.16377e-18)
(-5.3565 1.58703 -2.00746e-18)
(-4.76595 1.75381 -1.94239e-18)
(-4.10752 1.91342 -1.90628e-18)
(-3.38439 2.05508 -1.39257e-18)
(-2.6105 2.16968 -4.38348e-19)
(-1.82035 2.25155 3.21952e-19)
(-1.06832 2.29372 7.0239e-19)
(-0.339958 2.23982 1.04995e-18)
(0.411452 2.00714 1.83879e-18)
(1.02044 1.74353 2.49301e-18)
(1.57078 1.47789 3.52445e-18)
(2.03736 1.22635 5.5566e-18)
(2.41962 0.993377 7.03793e-18)
(2.72577 0.780121 7.56845e-18)
(2.9655 0.58724 7.82691e-18)
(3.14624 0.415192 7.7575e-18)
(3.27287 0.264205 7.29253e-18)
(3.35022 0.134153 6.9347e-18)
(3.38063 0.0224704 6.01734e-18)
(3.36783 -0.0726166 5.20772e-18)
(3.31966 -0.151221 5.18418e-18)
(3.24444 -0.213056 5.07641e-18)
(3.15043 -0.258207 5.35207e-18)
(3.0447 -0.287597 5.86295e-18)
(2.93287 -0.30294 6.46698e-18)
(2.81921 -0.306492 6.56859e-18)
(2.70699 -0.30071 6.67502e-18)
(2.5987 -0.287954 6.78203e-18)
(2.49629 -0.270291 5.95061e-18)
(2.40121 -0.249396 5.42986e-18)
(2.31452 -0.226538 4.36221e-18)
(2.23689 -0.202609 -8.72412e-18)
(2.16866 -0.178167 1.98036e-19)
(2.10988 -0.15346 -1.1391e-18)
(2.06035 -0.128433 4.7185e-20)
(2.01948 -0.102741 2.407e-18)
(-11.5672 0.58282 -1.78261e-18)
(-11.0781 0.561114 -1.75762e-18)
(-10.7279 0.535036 -1.77296e-18)
(-10.3852 0.510626 -2.3384e-18)
(-10.0582 0.491866 -2.466e-18)
(-9.7409 0.481425 -1.93534e-18)
(-9.42683 0.481196 -1.95253e-18)
(-9.10881 0.4926 -2.08202e-18)
(-8.77898 0.51675 -2.22068e-18)
(-8.42902 0.554461 -2.65244e-18)
(-8.05023 0.606257 -2.67987e-18)
(-7.63364 0.672218 -2.19391e-18)
(-7.17013 0.751597 -1.96588e-18)
(-6.65079 0.842428 -1.77828e-18)
(-6.06772 0.941201 -1.7317e-18)
(-5.41491 1.0429 -2.17218e-18)
(-4.68937 1.14169 -2.3741e-18)
(-3.89287 1.23238 -1.43366e-18)