/*--------------------------------*- C++ -*----------------------------------*\
  =========                 |
  \\      /  F ield         | OpenFOAM: The Open Source CFD Toolbox
   \\    /   O peration     | Website:  https://openfoam.org
    \\  /    A nd           | Version:  8
     \\/     M anipulation  |
\*---------------------------------------------------------------------------*/
FoamFile
{
    version     2.0;
    format      ascii;
    class       volScalarField;
    location    "500";
    object      epsilon;
}
// * * * * * * * * * * * * * * * * * * * * * * * * * * * * * * * * * * * * * //

dimensions      [0 2 -3 0 0 0 0];

internalField   nonuniform List<scalar> 
8400
(
0.0195137
0.0191758
0.0186854
0.0181566
0.0176563
0.0172344
0.0168922
0.0165944
0.0163056
0.0159991
0.0156527
0.0152528
0.0148008
0.0143034
0.0137591
0.0131795
0.0126215
0.0120874
0.0114672
0.0107572
0.0100053
0.00925073
0.00851095
0.00780161
0.00713675
0.00652702
0.00599583
0.00558133
0.00531727
0.00518222
0.00505256
0.00484806
0.00460854
0.00434958
0.00407983
0.00384257
0.00364126
0.0034546
0.00327063
0.00310032
0.00296332
0.00287055
0.00281454
0.00278011
0.0027609
0.00275508
0.00275992
0.00277369
0.00279462
0.00282179
0.0112075
0.0109467
0.01111
0.0112636
0.0114021
0.0115232
0.011612
0.011673
0.0117138
0.0117238
0.0116606
0.0115761
0.0114596
0.0112856
0.0109292
0.00964689
0.00781406
0.00743369
0.00724164
0.00697254
0.00659404
0.00612016
0.005586
0.00501995
0.00444984
0.00390539
0.00339574
0.00277933
0.00211897
0.00162416
0.00132154
0.00114073
0.00100459
0.000905093
0.000850709
0.000810409
0.000776878
0.00075462
0.000742356
0.000733352
0.000719463
0.000697304
0.0006729
0.000651334
0.000631527
0.00061337
0.000597527
0.000583951
0.0005727
0.000563463
0.0130884
0.0129766
0.0128474
0.0127055
0.0125617
0.012435
0.0123361
0.012266
0.0122182
0.0121822
0.0121476
0.0121103
0.012064
0.0120019
0.0119328
0.0118314
0.0116153
0.0112833
0.010908
0.0105427
0.0101893
0.00984154
0.00950106
0.00918306
0.00892942
0.00889205
0.00728789
0.00458253
0.00291869
0.00215224
0.00169601
0.00142537
0.00128281
0.00122539
0.00122592
0.00115772
0.001069
0.0010378
0.00106137
0.0010911
0.00107451
0.00101168
0.000944443
0.000891801
0.000841308
0.000791003
0.000746708
0.000706944
0.000672931
0.000644374
0.013134
0.0130937
0.0130538
0.0130169
0.0129823
0.0129499
0.012919
0.0128889
0.012859
0.0128285
0.0127966
0.012763
0.0127269
0.0126876
0.0126399
0.0125781
0.0124982
0.0123926
0.0122588
0.0121017
0.0119278
0.0117439
0.0115577
0.0113779
0.0112118
0.0110687
0.0109833
0.0105326
0.00983597
0.00908222
0.00826519
0.00742355
0.0066507
0.00536213
0.00359241
0.00260114
0.00224967
0.00219514
0.00232183
0.00238091
0.00211832
0.00187143
0.00170954
0.00157782
0.00145204
0.00132748
0.00122023
0.00111923
0.00103382
0.000964086
0.0131505
0.0131294
0.0131073
0.0130847
0.0130611
0.0130366
0.0130111
0.0129845
0.0129571
0.0129292
0.0129013
0.0128739
0.0128474
0.0128214
0.0127933
0.0127624
0.0127273
0.0126866
0.0126384
0.0125816
0.0125158
0.0124418
0.012361
0.0122756
0.0121872
0.0120959
0.0120036
0.0118737
0.0116892
0.0114521
0.0111551
0.0107953
0.0103815
0.00999753
0.00935935
0.0086797
0.00813701
0.00781646
0.00773788
0.00618958
0.00362237
0.00317818
0.00316797
0.00274131
0.00246401
0.00224295
0.00202935
0.00181459
0.00162583
0.00146221
0.0131414
0.0131103
0.0130786
0.0130462
0.0130134
0.0129796
0.0129453
0.0129104
0.0128746
0.0128382
0.0128018
0.0127657
0.0127301
0.0126956
0.0126638
0.0126349
0.0126083
0.0125827
0.012557
0.0125296
0.0124996
0.0124662
0.0124291
0.0123882
0.0123433
0.0122944
0.0122416
0.0121799
0.0121037
0.0120079
0.0118866
0.0117333
0.0115422
0.0113201
0.0110327
0.0106936
0.0103328
0.00997321
0.00963425
0.00916762
0.00850061
0.00829856
0.0074671
0.00414418
0.00381765
0.00367173
0.00323579
0.00290396
0.00256516
0.0022375
0.0131386
0.0131038
0.0130688
0.0130331
0.0129966
0.0129586
0.0129195
0.0128794
0.012838
0.0127961
0.0127542
0.0127123
0.0126708
0.01263
0.0125906
0.0125532
0.0125184
0.0124862
0.0124562
0.012428
0.012401
0.0123743
0.0123474
0.0123195
0.0122903
0.0122592
0.0122258
0.0121892
0.0121476
0.0120984
0.0120384
0.0119632
0.0118679
0.0117496
0.011599
0.0114117
0.0111887
0.0109322
0.0106462
0.010308
0.00990228
0.00952375
0.00906325
0.00827924
0.00803912
0.00603513
0.00462059
0.00449987
0.00394863
0.00347187
0.0131319
0.0130892
0.0130456
0.0130013
0.0129557
0.0129093
0.0128615
0.0128116
0.0127605
0.012709
0.0126569
0.0126054
0.0125539
0.0125048
0.0124582
0.0124148
0.012375
0.0123387
0.0123056
0.0122757
0.0122487
0.012224
0.0122007
0.0121782
0.0121557
0.012133
0.0121096
0.0120852
0.0120592
0.0120308
0.0119979
0.0119579
0.0119073
0.0118428
0.011759
0.0116501
0.0115116
0.0113399
0.0111328
0.0108838
0.0105857
0.0102515
0.00986655
0.00938468
0.00895583
0.00826569
0.00802645
0.00699913
0.00549272
0.00524655
0.0131217
0.0130676
0.0130122
0.0129553
0.0128963
0.0128364
0.0127744
0.0127093
0.0126429
0.0125754
0.0125071
0.0124369
0.0123691
0.0123045
0.0122437
0.0121885
0.0121406
0.0121005
0.0120679
0.0120414
0.0120193
0.0120007
0.0119847
0.0119703
0.0119569
0.0119439
0.011931
0.0119177
0.0119041
0.0118902
0.0118743
0.0118552
0.0118306
0.0117974
0.0117517
0.0116882
0.0116022
0.0114884
0.0113425
0.0111594
0.0109339
0.0106656
0.0103504
0.0099756
0.00957664
0.00911307
0.00872279
0.00826649
0.0080128
0.00750611
0.0131027
0.0130241
0.0129449
0.0128602
0.0127735
0.0126829
0.0125879
0.01249
0.0123884
0.0122809
0.0121673
0.0120573
0.0119547
0.0118621
0.0117819
0.0117134
0.0116603
0.0116249
0.0116069
0.0116038
0.0116112
0.0116237
0.0116384
0.0116529
0.0116661
0.0116773
0.0116861
0.0116929
0.0116982
0.0117018
0.0117032
0.0117029
0.0116991
0.0116886
0.0116685
0.0116353
0.0115837
0.0115087
0.0114058
0.0112703
0.0110976
0.0108846
0.010628
0.0103231
0.00998003
0.00959808
0.00921909
0.00883982
0.00851715
0.00823219
0.013047
0.0128913
0.0127379
0.0125686
0.0123662
0.012106
0.0117728
0.0114135
0.0110409
0.0106768
0.0103989
0.0102724
0.0102425
0.0102559
0.010302
0.0103478
0.0104158
0.0105224
0.0106602
0.0108075
0.0109478
0.0110719
0.0111752
0.0112569
0.0113208
0.0113708
0.0114099
0.011442
0.0114696
0.0114931
0.0115131
0.0115304
0.0115443
0.0115533
0.0115535
0.0115412
0.0115127
0.0114641
0.0113909
0.0112884
0.0111531
0.0109817
0.010771
0.010518
0.0102262
0.00990106
0.00955969
0.00921341
0.00888565
0.00858556
0.0119468
0.0113317
0.0106222
0.00998008
0.00949123
0.00917754
0.00902516
0.00899332
0.00903084
0.00909457
0.00916613
0.00924268
0.0093171
0.00939283
0.00949049
0.00961737
0.00978423
0.00998546
0.0102059
0.010419
0.01061
0.0107614
0.0108774
0.0109747
0.0110551
0.0111216
0.0111755
0.0112213
0.0112626
0.0112991
0.0113334
0.0113652
0.0113926
0.0114151
0.0114296
0.011432
0.0114192
0.0113878
0.0113331
0.0112526
0.0111431
0.0110009
0.0108237
0.0106098
0.0103609
0.0100801
0.00977677
0.00946297
0.00915293
0.00885621
0.0105644
0.0100503
0.00958991
0.00929065
0.00915961
0.00914909
0.00920329
0.00927618
0.00934582
0.00940935
0.00947076
0.00953102
0.00959064
0.00965086
0.00971442
0.00978383
0.00986268
0.00996638
0.0100988
0.0102463
0.010392
0.0105247
0.0106422
0.0107459
0.0108353
0.0109119
0.0109774
0.0110356
0.0110888
0.0111362
0.0111814
0.0112221
0.0112578
0.0112884
0.0113111
0.0113213
0.0113168
0.0112948
0.0112512
0.0111842
0.0110903
0.0109674
0.0108147
0.0106302
0.0104137
0.0101676
0.00989914
0.00961685
0.00933057
0.00904852
0.00984054
0.00956882
0.00938295
0.0093048
0.00930915
0.00935373
0.00940862
0.00946044
0.00950756
0.00955393
0.00960125
0.00965068
0.00970362
0.00976073
0.0098222
0.00988755
0.0099563
0.0100279
0.0101033
0.0101857
0.0102759
0.0103706
0.0104656
0.0105575
0.010644
0.0107237
0.0107973
0.0108658
0.0109291
0.0109867
0.0110391
0.0110865
0.0111293
0.0111663
0.0111939
0.0112087
0.0112093
0.0111915
0.0111522
0.0110908
0.0110062
0.0108969
0.0107605
0.0105959
0.0104035
0.0101853
0.00994623
0.00969244
0.0094312
0.00916835
0.00954945
0.00943759
0.0093771
0.00936253
0.00937526
0.00939842
0.00942363
0.00944968
0.00947719
0.00950679
0.00954003
0.00957841
0.00962313
0.00967436
0.00973188
0.00979544
0.00986453
0.00993798
0.0100143
0.0100912
0.010166
0.010242
0.0103195
0.0103978
0.0104759
0.0105525
0.0106268
0.0106977
0.010765
0.010829
0.0108883
0.0109412
0.0109875
0.0110263
0.0110563
0.0110745
0.0110778
0.0110633
0.0110302
0.0109774
0.0108972
0.0107943
0.010668
0.0105179
0.0103436
0.0101471
0.00993217
0.00970344
0.00946572
0.00922308
0.0094119
0.00936614
0.00933756
0.00932273
0.009315
0.00931128
0.00931106
0.0093152
0.00932447
0.00933878
0.0093587
0.00938529
0.00941926
0.00946084
0.00951014
0.00956718
0.00963168
0.00970266
0.00977846
0.00985739
0.00993752
0.0100162
0.0100953
0.0101747
0.0102539
0.0103324
0.0104096
0.0104846
0.0105562
0.0106237
0.0106864
0.0107438
0.0107949
0.0108374
0.0108695
0.0108899
0.0108972
0.0108894
0.0108644
0.0108203
0.0107524
0.0106623
0.0105435
0.0103997
0.0102392
0.0100598
0.0098644
0.00965675
0.0094402
0.00921796
0.009279
0.00924385
0.00921122
0.00918108
0.0091533
0.00912901
0.00910955
0.00909596
0.00908907
0.00908952
0.00909631
0.00911062
0.00913319
0.0091643
0.009204
0.00925219
0.00930861
0.00937276
0.00944345
0.00951916
0.00959843
0.00967875
0.00975954
0.00984147
0.00992414
0.0100068
0.0100885
0.0101685
0.0102465
0.0103213
0.0103913
0.0104556
0.0105128
0.0105619
0.0106016
0.0106297
0.010645
0.0106464
0.0106313
0.0105987
0.0105458
0.0104719
0.010374
0.0102513
0.0100908
0.00992449
0.0097447
0.00955473
0.00935773
0.00915485
0.00902437
0.00897683
0.00892788
0.00887863
0.00883117
0.00878767
0.00874986
0.00871903
0.00869618
0.00868216
0.00867628
0.00867881
0.00868984
0.00870961
0.00873846
0.00877669
0.00882427
0.00888095
0.00894622
0.00901906
0.00909779
0.00918047
0.00926393
0.00934939
0.00943678
0.00952542
0.00961437
0.00970266
0.00978953
0.00987363
0.0099538
0.0100292
0.0100981
0.0101591
0.0102114
0.0102529
0.0102819
0.0102977
0.0102981
0.0102821
0.0102487
0.0101969
0.0101244
0.0100297
0.00990379
0.00973296
0.00956542
0.00939074
0.00921238
0.0090275
0.00847522
0.00841161
0.0083466
0.00828281
0.00822322
0.00817057
0.00812746
0.00809644
0.00807985
0.00807971
0.00809765
0.00812144
0.00813975
0.00814981
0.0081533
0.00815316
0.00815352
0.00815875
0.00817294
0.00820012
0.00824418
0.00830852
0.00839506
0.00849204
0.00859316
0.00869741
0.00880381
0.00891104
0.00901788
0.00912342
0.00922634
0.00932532
0.00941902
0.00950558
0.00958337
0.00965126
0.00970737
0.00975072
0.0097805
0.00979511
0.00979378
0.00977574
0.00973942
0.00968398
0.00960353
0.00947491
0.00930231
0.00913993
0.00897991
0.00881326
0.0235211
0.023226
0.0229603
0.0226985
0.0224238
0.0221218
0.0217813
0.021395
0.020959
0.0204722
0.0199365
0.0193712
0.0187974
0.0182261
0.0176627
0.0171113
0.0165743
0.0160538
0.0155512
0.0150676
0.0146036
0.0141591
0.013734
0.0133395
0.0129816
0.012659
0.0123703
0.0121138
0.0118865
0.0116853
0.0115072
0.0113485
0.0112057
0.0110756
0.0109544
0.010839
0.0107262
0.0106126
0.0104955
0.0103719
0.0102392
0.0100955
0.00993858
0.00976781
0.00958183
0.00937113
0.0091439
0.00910972
0.0091113
0.00913669
9.32935e-06
9.22182e-06
9.1239e-06
9.02536e-06
8.92195e-06
8.81153e-06
8.69528e-06
8.57483e-06
8.45223e-06
8.32986e-06
8.20969e-06
8.09341e-06
7.98233e-06
7.87733e-06
7.77879e-06
7.6866e-06
7.6002e-06
7.51868e-06
7.44089e-06
7.36555e-06
7.29139e-06
7.21707e-06
7.13363e-06
7.02246e-06
6.91681e-06
6.8152e-06
6.71624e-06
6.61757e-06
6.51886e-06
6.4208e-06
6.32474e-06
6.23183e-06
6.14281e-06
6.05805e-06
5.97735e-06
5.90046e-06
5.82726e-06
5.75764e-06
5.6914e-06
5.6281e-06
5.5671e-06
5.50764e-06
5.4482e-06
5.38736e-06
5.32484e-06
5.26086e-06
5.19602e-06
5.13097e-06
5.06588e-06
4.99993e-06
8.9896e-06
8.41854e-06
7.9e-06
7.41772e-06
6.96672e-06
6.54518e-06
6.15097e-06
5.78353e-06
5.44274e-06
5.12851e-06
4.8407e-06
4.5788e-06
4.34177e-06
4.12807e-06
3.93572e-06
3.76244e-06
3.6058e-06
3.46331e-06
3.33265e-06
3.21115e-06
3.09799e-06
7.29768e-07
7.24071e-07
7.23907e-07
7.24072e-07
7.23749e-07
7.22681e-07
7.21338e-07
7.20131e-07
7.19244e-07
7.18573e-07
7.17886e-07
7.16974e-07
7.15726e-07
7.14252e-07
7.12774e-07
7.11501e-07
7.10546e-07
7.0989e-07
7.09393e-07
7.0884e-07
7.07987e-07
7.06689e-07
7.04859e-07
7.02382e-07
6.99232e-07
6.95485e-07
6.91305e-07
6.86904e-07
6.82468e-07
8.98617e-06
8.40699e-06
7.87797e-06
7.38598e-06
6.92492e-06
6.49209e-06
6.08635e-06
5.70735e-06
5.35505e-06
5.02931e-06
4.72969e-06
4.45532e-06
4.20494e-06
3.97691e-06
3.76931e-06
3.58008e-06
3.40705e-06
3.24808e-06
3.10149e-06
7.29463e-07
7.24271e-07
7.19128e-07
7.1411e-07
7.09349e-07
7.04683e-07
7.00009e-07
6.95257e-07
6.90426e-07
6.85553e-07
6.8069e-07
6.75878e-07
6.71144e-07
6.66511e-07
6.62005e-07
6.57667e-07
6.53542e-07
6.49663e-07
6.46031e-07
6.42612e-07
6.39344e-07
6.36123e-07
6.32826e-07
6.29328e-07
6.25527e-07
6.21368e-07
6.16843e-07
6.11998e-07
6.06932e-07
6.01829e-07
5.96954e-07
8.98604e-06
8.41061e-06
7.88563e-06
7.39719e-06
6.93899e-06
6.50816e-06
6.10368e-06
5.72531e-06
5.37314e-06
5.04716e-06
4.74704e-06
4.47196e-06
4.22069e-06
3.9916e-06
3.78279e-06
3.59215e-06
3.41753e-06
3.25678e-06
3.1082e-06
7.30138e-07
7.24703e-07
7.1932e-07
7.14089e-07
7.08966e-07
7.03877e-07
6.98751e-07
6.93546e-07
6.88242e-07
6.82847e-07
6.77385e-07
6.71894e-07
6.66418e-07
6.61005e-07
6.55699e-07
6.50543e-07
6.45571e-07
6.40797e-07
6.36212e-07
6.3178e-07
6.27435e-07
6.23094e-07
6.18657e-07
6.1403e-07
6.09145e-07
6.03979e-07
5.98562e-07
5.92962e-07
5.87269e-07
5.81607e-07
5.76219e-07
8.98609e-06
8.41085e-06
7.88581e-06
7.39685e-06
6.93782e-06
6.506e-06
6.10044e-06
5.72113e-06
5.36828e-06
5.04195e-06
4.74182e-06
4.46709e-06
4.21646e-06
3.9882e-06
3.78032e-06
3.59062e-06
3.41687e-06
3.25682e-06
3.1087e-06
7.30204e-07
7.24621e-07
7.19066e-07
7.13721e-07
7.08518e-07
7.03357e-07
6.9817e-07
6.9292e-07
6.87597e-07
6.82206e-07
6.76768e-07
6.71314e-07
6.65876e-07
6.60493e-07
6.55199e-07
6.50029e-07
6.45007e-07
6.40144e-07
6.35431e-07
6.30834e-07
6.26299e-07
6.21747e-07
6.17092e-07
6.12247e-07
6.07148e-07
6.01775e-07
5.96162e-07
5.90397e-07
5.84595e-07
5.78832e-07
5.73301e-07
8.98618e-06
8.41152e-06
7.88734e-06
7.39919e-06
6.94077e-06
6.50936e-06
6.10406e-06
5.72488e-06
5.37215e-06
5.04603e-06
4.74625e-06
4.47201e-06
4.22198e-06
3.99441e-06
3.78723e-06
3.59818e-06
3.4249e-06
3.26509e-06
3.11684e-06
7.28697e-07
7.18981e-07
7.12275e-07
7.07294e-07
7.02977e-07
6.98774e-07
6.94444e-07
6.8991e-07
6.85174e-07
6.80273e-07
6.75256e-07
6.70171e-07
6.65061e-07
6.59964e-07
6.54912e-07
6.49935e-07
6.45054e-07
6.4028e-07
6.35609e-07
6.31018e-07
6.26462e-07
6.21877e-07
6.17189e-07
6.12327e-07
6.07234e-07
6.01887e-07
5.9631e-07
5.90589e-07
5.84844e-07
5.79153e-07
5.73653e-07
8.98628e-06
8.41191e-06
7.88805e-06
7.40004e-06
6.94147e-06
6.5096e-06
6.10363e-06
5.72374e-06
5.3704e-06
5.04389e-06
4.74401e-06
4.46996e-06
4.22041e-06
3.99351e-06
3.78709e-06
3.59876e-06
3.42606e-06
3.26662e-06
3.1185e-06
7.28948e-07
7.19092e-07
7.12161e-07
7.06986e-07
7.02515e-07
6.98201e-07
6.93805e-07
6.89248e-07
6.84535e-07
6.79698e-07
6.74781e-07
6.69819e-07
6.6484e-07
6.59864e-07
6.5491e-07
6.49995e-07
6.45136e-07
6.40346e-07
6.35628e-07
6.30968e-07
6.26336e-07
6.21682e-07
6.16945e-07
6.12067e-07
6.07003e-07
6.01732e-07
5.96268e-07
5.90675e-07
5.85052e-07
5.79497e-07
5.74104e-07
8.98638e-06
8.41229e-06
7.88874e-06
7.40092e-06
6.94234e-06
6.51026e-06
6.10398e-06
5.72378e-06
5.37024e-06
5.04374e-06
4.74413e-06
4.47064e-06
4.22185e-06
3.99583e-06
3.79029e-06
3.60272e-06
3.43059e-06
3.27145e-06
3.12331e-06
7.29676e-07
7.19787e-07
7.12787e-07
7.07475e-07
7.0281e-07
6.98307e-07
6.93764e-07
6.89125e-07
6.84396e-07
6.79607e-07
6.74786e-07
6.69948e-07
6.65099e-07
6.60239e-07
6.55367e-07
6.5049e-07
6.45619e-07
6.40771e-07
6.35959e-07
6.31183e-07
6.2643e-07
6.21668e-07
6.16853e-07
6.11936e-07
6.06883e-07
6.01679e-07
5.96333e-07
5.90882e-07
5.85398e-07
5.79975e-07
5.74687e-07
8.98647e-06
8.41259e-06
7.88925e-06
7.40151e-06
6.94279e-06
6.51042e-06
6.10369e-06
5.72303e-06
5.36915e-06
5.04254e-06
4.7431e-06
4.47003e-06
4.22187e-06
3.99659e-06
3.79178e-06
3.60484e-06
3.43314e-06
3.27416e-06
3.1259e-06
7.30069e-07
7.23241e-07
7.1711e-07
7.11276e-07
7.05603e-07
7.00072e-07
6.94692e-07
6.89472e-07
6.84415e-07
6.79506e-07
6.74717e-07
6.70006e-07
6.65326e-07
6.60633e-07
6.55897e-07
6.51103e-07
6.46256e-07
6.41375e-07
6.36481e-07
6.31594e-07
6.26722e-07
6.21854e-07
6.16968e-07
6.12029e-07
6.07007e-07
6.0189e-07
5.96678e-07
5.91387e-07
5.86071e-07
5.8079e-07
5.7561e-07
8.98654e-06
8.41277e-06
7.88954e-06
7.40183e-06
6.943e-06
6.51034e-06
6.10324e-06
5.72224e-06
5.36819e-06
5.04165e-06
4.74254e-06
4.47004e-06
4.22261e-06
3.99813e-06
3.79408e-06
3.60776e-06
3.43646e-06
3.27762e-06
3.12921e-06
7.3054e-07
7.23621e-07
7.17374e-07
7.11442e-07
7.05692e-07
7.00098e-07
6.9468e-07
6.89465e-07
6.84462e-07
6.79654e-07
6.75001e-07
6.7044e-07
6.65903e-07
6.61325e-07
6.5666e-07
6.51886e-07
6.47005e-07
6.42041e-07
6.37028e-07
6.32003e-07
6.26995e-07
6.22019e-07
6.1707e-07
6.12129e-07
6.07171e-07
6.02174e-07
5.97124e-07
5.92023e-07
5.86899e-07
5.81785e-07
5.76729e-07
8.98658e-06
8.41285e-06
7.88964e-06
7.40187e-06
6.94288e-06
6.50991e-06
6.10248e-06
5.72122e-06
5.36708e-06
5.04068e-06
4.74196e-06
4.47005e-06
4.22332e-06
3.99956e-06
3.79619e-06
3.61039e-06
3.4394e-06
3.2806e-06
3.13197e-06
7.30894e-07
7.208e-07
7.13593e-07
7.08018e-07
7.03082e-07
6.98364e-07
6.93725e-07
6.89147e-07
6.84648e-07
6.80237e-07
6.75891e-07
6.71563e-07
6.67187e-07
6.62704e-07
6.58064e-07
6.53249e-07
6.48266e-07
6.43148e-07
6.37949e-07
6.32727e-07
6.27535e-07
6.2241e-07
6.17366e-07
6.12397e-07
6.07481e-07
6.02585e-07
5.97679e-07
5.92753e-07
5.878e-07
5.82836e-07
5.7788e-07
8.98659e-06
8.41281e-06
7.88952e-06
7.40162e-06
6.94241e-06
6.50916e-06
6.10147e-06
5.72006e-06
5.36596e-06
5.0398e-06
4.74151e-06
4.47017e-06
4.22409e-06
4.00099e-06
3.79817e-06
3.61278e-06
3.44196e-06
3.28307e-06
3.1341e-06
7.31165e-07
7.24282e-07
7.18255e-07
7.12571e-07
7.07018e-07
7.01564e-07
6.96251e-07
6.91136e-07
6.86249e-07
6.81578e-07
6.7707e-07
6.7264e-07
6.68194e-07
6.63641e-07
6.58915e-07
6.53982e-07
6.48846e-07
6.43548e-07
6.38152e-07
6.32737e-07
6.27379e-07
6.22132e-07
6.17029e-07
6.12071e-07
6.07236e-07
6.02478e-07
5.97756e-07
5.93036e-07
5.88286e-07
5.83502e-07
5.78675e-07
8.98658e-06
8.41268e-06
7.88921e-06
7.40114e-06
6.94169e-06
6.50826e-06
6.10046e-06
5.71909e-06
5.36522e-06
5.03948e-06
4.74176e-06
4.47107e-06
4.22568e-06
4.00323e-06
3.80094e-06
3.61587e-06
3.44513e-06
3.28605e-06
3.13667e-06
7.31375e-07
7.24491e-07
7.18496e-07
7.12788e-07
7.07199e-07
7.01726e-07
6.96428e-07
6.91362e-07
6.86552e-07
6.81972e-07
6.77552e-07
6.73194e-07
6.68788e-07
6.64233e-07
6.59453e-07
6.54414e-07
6.49126e-07
6.43641e-07
6.38047e-07
6.32445e-07
6.2693e-07
6.21577e-07
6.16429e-07
6.11496e-07
6.0675e-07
6.0214e-07
5.97611e-07
5.93097e-07
5.88557e-07
5.83951e-07
5.79253e-07
8.98654e-06
8.41243e-06
7.88865e-06
7.40027e-06
6.94055e-06
6.50688e-06
6.09895e-06
5.71761e-06
5.3639e-06
5.03846e-06
4.74113e-06
4.4709e-06
4.22597e-06
4.00391e-06
3.80187e-06
3.61687e-06
3.44597e-06
3.28653e-06
3.13598e-06
7.21297e-07
7.19406e-07
7.15843e-07
7.11378e-07
7.06473e-07
7.01431e-07
6.96452e-07
6.9165e-07
6.87066e-07
6.82674e-07
6.78398e-07
6.74131e-07
6.69756e-07
6.65168e-07
6.60291e-07
6.55097e-07
6.49609e-07
6.439e-07
6.38079e-07
6.32267e-07
6.2658e-07
6.2111e-07
6.15909e-07
6.10988e-07
6.06317e-07
6.01839e-07
5.97481e-07
5.93158e-07
5.88808e-07
5.84366e-07
5.79786e-07
8.98649e-06
8.41205e-06
7.88789e-06
7.39923e-06
6.93941e-06
6.50586e-06
6.09826e-06
5.71744e-06
5.36439e-06
5.03968e-06
4.74309e-06
4.47356e-06
4.22922e-06
4.00758e-06
3.80576e-06
3.62072e-06
3.44954e-06
3.28963e-06
3.13844e-06
7.21527e-07
7.1949e-07
7.15835e-07
7.11312e-07
7.06386e-07
7.01363e-07
6.96438e-07
6.91719e-07
6.87231e-07
6.82936e-07
6.78745e-07
6.74538e-07
6.70187e-07
6.65578e-07
6.60635e-07
6.55333e-07
6.49709e-07
6.43852e-07
6.37887e-07
6.31952e-07
6.26174e-07
6.20657e-07
6.15461e-07
6.10598e-07
6.06034e-07
6.01706e-07
5.97519e-07
5.93389e-07
5.8922e-07
5.8494e-07
5.80483e-07
8.98641e-06
8.41133e-06
7.88621e-06
7.39655e-06
6.93585e-06
6.50158e-06
6.09352e-06
5.71247e-06
5.35942e-06
5.03488e-06
4.73858e-06
4.46939e-06
4.22538e-06
4.00397e-06
3.80223e-06
3.61711e-06
3.44569e-06
3.28542e-06
3.13384e-06
7.20753e-07
7.18669e-07
7.14982e-07
7.10452e-07
7.05552e-07
7.00587e-07
6.95748e-07
6.91132e-07
6.86759e-07
6.82578e-07
6.7849e-07
6.74365e-07
6.70067e-07
6.65478e-07
6.60522e-07
6.55185e-07
6.49515e-07
6.4361e-07
6.37608e-07
6.31657e-07
6.25895e-07
6.20433e-07
6.15332e-07
6.10603e-07
6.06214e-07
6.02095e-07
5.98145e-07
5.94266e-07
5.90352e-07
5.86321e-07
5.82101e-07
8.98629e-06
8.41068e-06
7.88526e-06
7.39582e-06
6.93572e-06
6.50233e-06
6.09529e-06
5.71529e-06
5.3632e-06
5.03946e-06
4.74379e-06
4.475e-06
4.23113e-06
4.00961e-06
3.8075e-06
3.62178e-06
3.44961e-06
3.28852e-06
3.1361e-06
7.20976e-07
7.18794e-07
7.15034e-07
7.10463e-07
7.05555e-07
7.00617e-07
6.95833e-07
6.91292e-07
6.87003e-07
6.82909e-07
6.78904e-07
6.7485e-07
6.70608e-07
6.66066e-07
6.61156e-07
6.55874e-07
6.50277e-07
6.44474e-07
6.38605e-07
6.32828e-07
6.27288e-07
6.22097e-07
6.17319e-07
6.1297e-07
6.09015e-07
6.05377e-07
6.01963e-07
5.98662e-07
5.95375e-07
5.92018e-07
5.88527e-07
8.98612e-06
8.40597e-06
7.87568e-06
7.38208e-06
6.91881e-06
6.48338e-06
6.07536e-06
5.69526e-06
5.34378e-06
5.02118e-06
4.72696e-06
4.45979e-06
4.21757e-06
3.99762e-06
3.797e-06
3.61272e-06
3.44198e-06
3.28233e-06
3.13142e-06
7.20613e-07
7.18514e-07
7.1494e-07
7.10536e-07
7.05813e-07
7.01307e-07
6.97078e-07
6.93162e-07
6.89514e-07
6.86055e-07
6.82668e-07
6.79224e-07
6.75612e-07
6.71752e-07
6.67602e-07
6.63165e-07
6.58497e-07
6.53698e-07
6.48905e-07
6.44267e-07
6.39927e-07
6.35996e-07
6.32542e-07
6.29582e-07
6.27081e-07
6.24961e-07
6.23126e-07
6.21461e-07
6.19864e-07
6.18257e-07
6.16624e-07
8.98768e-06
8.41188e-06
7.88856e-06
7.40307e-06
6.95023e-06
6.5277e-06
6.13358e-06
5.76758e-06
5.42998e-06
5.12119e-06
4.84076e-06
4.58736e-06
4.35903e-06
4.15339e-06
3.96758e-06
3.79848e-06
3.64304e-06
3.49852e-06
3.36269e-06
3.2328e-06
3.11049e-06
3.0887e-06
7.26699e-07
7.20799e-07
7.21144e-07
7.22552e-07
7.24118e-07
7.25438e-07
7.26306e-07
7.26598e-07
7.26339e-07
7.25618e-07
7.24513e-07
7.23073e-07
7.2134e-07
7.19363e-07
7.17226e-07
7.15051e-07
7.12986e-07
7.11178e-07
7.09751e-07
7.0878e-07
7.08283e-07
7.08215e-07
7.08495e-07
7.08992e-07
7.09573e-07
7.10124e-07
7.10569e-07
7.10963e-07
9.33769e-06
9.22708e-06
9.11796e-06
9.00599e-06
8.88917e-06
8.76751e-06
8.64395e-06
8.52163e-06
8.40339e-06
8.29107e-06
8.18587e-06
8.08818e-06
7.99731e-06
7.91158e-06
7.82901e-06
7.7476e-06
7.66565e-06
7.58193e-06
7.49583e-06
7.40746e-06
7.31754e-06
7.2201e-06
7.11931e-06
7.01727e-06
6.89452e-06
6.7834e-06
6.68176e-06
6.58686e-06
6.49622e-06
6.40774e-06
6.31942e-06
6.22991e-06
6.13876e-06
6.0464e-06
5.95391e-06
5.86273e-06
5.77446e-06
5.69052e-06
5.61201e-06
5.53947e-06
5.47289e-06
5.41175e-06
5.35503e-06
5.30141e-06
5.24954e-06
5.19782e-06
5.14495e-06
5.08982e-06
5.0317e-06
4.97047e-06
5.70824e-07
7.1094e-07
3.81286e-06
4.26517e-06
3.74899e-06
7.22209e-07
6.29741e-07
5.24821e-07
4.39719e-07
3.84217e-07
3.50379e-07
3.59184e-07
4.03644e-07
4.55261e-07
5.15478e-07
5.99147e-07
3.12109e-06
5.94388e-06
1.80277e-05
0.000235172
5.63437e-07
7.11527e-07
3.8314e-06
4.29823e-06
3.78114e-06
7.22795e-07
6.30454e-07
5.24393e-07
4.38422e-07
3.82708e-07
3.51371e-07
3.53659e-07
3.96325e-07
4.45461e-07
5.08061e-07
6.02594e-07
3.3449e-06
6.80277e-06
2.06444e-05
0.000251335
5.59029e-07
7.12285e-07
3.84962e-06
4.33208e-06
3.8155e-06
7.2324e-07
6.31453e-07
5.2421e-07
4.37259e-07
3.81077e-07
3.50576e-07
3.49121e-07
3.87249e-07
4.36933e-07
5.01975e-07
6.00896e-07
3.39593e-06
7.03685e-06
2.14464e-05
0.000257187
5.5634e-07
7.131e-07
3.86754e-06
4.36688e-06
3.85206e-06
7.23291e-07
6.32708e-07
5.24202e-07
4.36192e-07
3.79441e-07
3.49374e-07
3.45214e-07
3.76703e-07
4.2706e-07
4.94935e-07
5.98232e-07
3.43559e-06
7.23924e-06
2.21363e-05
0.000261765
5.5455e-07
7.13892e-07
3.88525e-06
4.40267e-06
3.89061e-06
7.22498e-07
6.34166e-07
5.24373e-07
4.35228e-07
3.77797e-07
3.46971e-07
3.4116e-07
3.67206e-07
4.16916e-07
4.87257e-07
5.94684e-07
3.463e-06
7.40674e-06
2.27105e-05
0.00026526
5.53179e-07
7.14632e-07
3.90275e-06
4.43916e-06
3.93199e-06
7.23905e-07
6.35731e-07
5.24721e-07
4.34451e-07
3.76423e-07
3.44791e-07
3.36987e-07
3.58884e-07
4.0697e-07
4.79178e-07
5.90347e-07
3.47782e-06
7.5379e-06
2.31706e-05
0.000267836
5.5202e-07
7.15275e-07
3.92002e-06
4.47613e-06
3.97497e-06
7.25838e-07
6.37506e-07
5.25225e-07
4.33883e-07
3.75477e-07
3.43489e-07
3.33168e-07
3.51693e-07
3.97563e-07
4.70942e-07
5.85394e-07
3.48062e-06
7.63332e-06
2.35214e-05
0.000269634
5.50973e-07
7.15757e-07
3.93677e-06
4.51333e-06
4.01923e-06
3.07824e-06
6.39457e-07
5.25852e-07
4.335e-07
3.74959e-07
3.42917e-07
3.30367e-07
3.45788e-07
3.88959e-07
4.62813e-07
5.80031e-07
3.4725e-06
7.69482e-06
2.37703e-05
0.000270792
5.49983e-07
7.16052e-07
3.95295e-06
4.55041e-06
4.06434e-06
3.10088e-06
6.41515e-07
5.26512e-07
4.33214e-07
3.74768e-07
3.42738e-07
3.288e-07
3.4124e-07
3.8137e-07
4.55042e-07
5.74439e-07
3.45482e-06
7.72506e-06
2.39272e-05
0.000271458
5.49001e-07
7.16123e-07
3.96862e-06
4.58738e-06
4.10881e-06
3.13084e-06
6.43664e-07
5.27073e-07
4.32892e-07
3.74752e-07
3.42728e-07
3.28063e-07
3.37783e-07
3.74801e-07
4.47762e-07
5.68764e-07
3.42896e-06
7.72731e-06
2.40041e-05
0.000271779
5.48013e-07
7.1599e-07
3.98405e-06
4.62426e-06
4.15331e-06
3.16232e-06
6.45616e-07
5.27354e-07
4.32386e-07
3.74771e-07
3.42673e-07
3.27174e-07
3.34871e-07
3.69034e-07
4.41005e-07
5.6312e-07
3.39642e-06
7.70562e-06
2.4015e-05
0.000271904
5.47021e-07
7.15706e-07
3.99974e-06
4.66102e-06
4.19717e-06
3.19401e-06
6.47207e-07
5.27207e-07
4.31561e-07
3.74678e-07
3.42406e-07
3.25298e-07
3.31949e-07
3.63839e-07
4.34799e-07
5.57639e-07
3.35895e-06
7.66482e-06
2.3976e-05
0.000271981
5.46053e-07
7.15337e-07
4.01612e-06
4.69774e-06
4.23977e-06
3.22453e-06
6.48288e-07
5.26503e-07
4.30327e-07
3.744e-07
3.41988e-07
3.22176e-07
3.28672e-07
3.5918e-07
4.29273e-07
5.52553e-07
3.31901e-06
7.61107e-06
2.39061e-05
0.000272153
5.45146e-07
7.14964e-07
4.0335e-06
4.73429e-06
4.28063e-06
3.25279e-06
6.48768e-07
5.25197e-07
4.28688e-07
3.73975e-07
3.41498e-07
3.17937e-07
3.24671e-07
3.55028e-07
4.24511e-07
5.48069e-07
3.27893e-06
7.55081e-06
2.38302e-05
0.000272524
5.44332e-07
7.14647e-07
4.05208e-06
4.77037e-06
4.31941e-06
3.2784e-06
6.48636e-07
5.23327e-07
4.26759e-07
3.73541e-07
3.41003e-07
3.15343e-07
3.21644e-07
3.51608e-07
4.20688e-07
5.44434e-07
3.24123e-06
7.49141e-06
2.38099e-05
0.000273057
5.4364e-07
7.14413e-07
4.07189e-06
4.80565e-06
4.35581e-06
3.30132e-06
6.47934e-07
5.20996e-07
4.24731e-07
3.73271e-07
3.40358e-07
3.11595e-07
3.19008e-07
3.48939e-07
4.17889e-07
5.41861e-07
3.20862e-06
7.44752e-06
2.3979e-05
0.000273471
5.43082e-07
7.14267e-07
4.0927e-06
4.83975e-06
4.38954e-06
3.32188e-06
6.46733e-07
5.18345e-07
4.22838e-07
3.73417e-07
3.40658e-07
3.09583e-07
3.17088e-07
3.47101e-07
4.16212e-07
5.40569e-07
3.18729e-06
7.44723e-06
2.43127e-05
0.000273753
5.42656e-07
7.14189e-07
4.11421e-06
4.87217e-06
4.42039e-06
3.34055e-06
6.45136e-07
5.15557e-07
4.21286e-07
3.73868e-07
3.4164e-07
3.0958e-07
3.16134e-07
3.46163e-07
4.15891e-07
5.41095e-07
3.18971e-06
7.48113e-06
2.48017e-05
0.000273915
5.42349e-07
7.1405e-07
4.13608e-06
4.9035e-06
4.44872e-06
3.35749e-06
6.43351e-07
5.13055e-07
4.20271e-07
3.74655e-07
3.43069e-07
3.1119e-07
3.16267e-07
3.46279e-07
4.17478e-07
5.4437e-07
3.21113e-06
7.54903e-06
2.54374e-05
0.000273978
5.42096e-07
7.13824e-07
4.1578e-06
4.9341e-06
4.47611e-06
3.37354e-06
6.41595e-07
5.10838e-07
4.19717e-07
3.75806e-07
3.44376e-07
3.13666e-07
3.17691e-07
3.48301e-07
4.21436e-07
5.49866e-07
3.25065e-06
7.65192e-06
2.62089e-05
0.000273963
5.41847e-07
7.13481e-07
4.17903e-06
4.96422e-06
4.5035e-06
3.38989e-06
6.40107e-07
5.09093e-07
4.1969e-07
3.7741e-07
3.46212e-07
3.17007e-07
3.2061e-07
3.52582e-07
4.27867e-07
5.5749e-07
3.30731e-06
7.78985e-06
2.71032e-05
0.000273885
5.41573e-07
7.12993e-07
4.19959e-06
4.99418e-06
4.53171e-06
3.40755e-06
6.39084e-07
5.07996e-07
4.20302e-07
3.79649e-07
3.49323e-07
3.21371e-07
3.25457e-07
3.59394e-07
4.36706e-07
5.67056e-07
3.37957e-06
7.9613e-06
2.8104e-05
0.000273746
5.41259e-07
7.12344e-07
4.21937e-06
5.02427e-06
4.56155e-06
3.42753e-06
6.38686e-07
5.07676e-07
4.21627e-07
3.82638e-07
3.53932e-07
3.27227e-07
3.32687e-07
3.68807e-07
4.47714e-07
5.78276e-07
3.46516e-06
8.16246e-06
2.91884e-05
0.000273534
5.40898e-07
7.11515e-07
4.23816e-06
5.05469e-06
4.59371e-06
3.45068e-06
6.39034e-07
5.08211e-07
4.23689e-07
3.8639e-07
3.60071e-07
3.35106e-07
3.42498e-07
3.80607e-07
4.60482e-07
5.90748e-07
3.56081e-06
8.38657e-06
3.03254e-05
0.000273223
5.40488e-07
7.10474e-07
4.25559e-06
5.08545e-06
4.62869e-06
3.47772e-06
6.4021e-07
5.09642e-07
4.26479e-07
3.90837e-07
3.67589e-07
3.45184e-07
3.54674e-07
3.94299e-07
4.74462e-07
6.03969e-07
3.66225e-06
8.62381e-06
3.14755e-05
0.000272781
5.4002e-07
7.0916e-07
4.27115e-06
5.11642e-06
4.66684e-06
3.50928e-06
6.42274e-07
5.11988e-07
4.29976e-07
3.9586e-07
3.7613e-07
3.57099e-07
3.68608e-07
4.09195e-07
4.89022e-07
6.17368e-07
3.76437e-06
8.86178e-06
3.25937e-05
0.000272182
5.39476e-07
7.07494e-07
4.28431e-06
5.14745e-06
4.70858e-06
3.54601e-06
6.45278e-07
5.15259e-07
4.34154e-07
4.01322e-07
3.8523e-07
3.70113e-07
3.83493e-07
4.24539e-07
5.03525e-07
6.30361e-07
3.86167e-06
9.08664e-06
3.36335e-05
0.000271406
5.38828e-07
7.05398e-07
4.29461e-06
5.17855e-06
4.75443e-06
3.58865e-06
6.49269e-07
5.19455e-07
4.38981e-07
4.07086e-07
3.94434e-07
3.83435e-07
3.98525e-07
4.3963e-07
5.17393e-07
6.42408e-07
3.9488e-06
9.28469e-06
3.45528e-05
0.000270451
5.38051e-07
7.02814e-07
4.30177e-06
5.20993e-06
4.80507e-06
3.63798e-06
6.54284e-07
5.24567e-07
4.44417e-07
4.13027e-07
4.03355e-07
3.96434e-07
4.13031e-07
4.53893e-07
5.30165e-07
6.53074e-07
4.02127e-06
9.44417e-06
3.53188e-05
0.000269326
5.37131e-07
6.99708e-07
4.30571e-06
5.2419e-06
4.86113e-06
3.69468e-06
6.60339e-07
5.30572e-07
4.50415e-07
4.19048e-07
4.11675e-07
4.08649e-07
4.26502e-07
4.66917e-07