/*--------------------------------*- C++ -*----------------------------------*\
  =========                 |
  \\      /  F ield         | OpenFOAM: The Open Source CFD Toolbox
   \\    /   O peration     | Website:  https://openfoam.org
    \\  /    A nd           | Version:  8
     \\/     M anipulation  |
\*---------------------------------------------------------------------------*/
FoamFile
{
    version     2.0;
    format      ascii;
    class       volScalarField;
    location    "500";
    object      nut;
}
// * * * * * * * * * * * * * * * * * * * * * * * * * * * * * * * * * * * * * //

dimensions      [0 2 -1 0 0 0 0];

internalField   nonuniform List<scalar> 
8400
(
7.12651e-05
7.01604e-05
6.93594e-05
6.87504e-05
6.82782e-05
6.77811e-05
6.7128e-05
6.6318e-05
6.53693e-05
6.42863e-05
6.31214e-05
6.19418e-05
6.06975e-05
5.93256e-05
5.81688e-05
5.73784e-05
5.63597e-05
5.46311e-05
5.26537e-05
5.087e-05
4.92621e-05
4.78e-05
4.65057e-05
4.53975e-05
4.44825e-05
4.37558e-05
4.36867e-05
4.4278e-05
4.47637e-05
4.41732e-05
4.26031e-05
4.12562e-05
3.99864e-05
3.88071e-05
3.80826e-05
3.74385e-05
3.66261e-05
3.57105e-05
3.49675e-05
3.4584e-05
3.45452e-05
3.46565e-05
3.475e-05
3.48512e-05
3.50052e-05
3.51761e-05
3.53514e-05
3.55306e-05
3.57112e-05
3.58943e-05
6.06534e-05
5.98485e-05
5.98419e-05
6.03797e-05
6.06932e-05
6.07136e-05
6.06441e-05
6.05298e-05
6.0327e-05
5.98248e-05
5.92086e-05
5.86362e-05
5.75299e-05
4.93719e-05
3.98219e-05
4.01497e-05
4.43671e-05
4.44547e-05
4.3047e-05
4.09322e-05
3.85323e-05
3.59703e-05
3.33236e-05
3.074e-05
2.84168e-05
2.66115e-05
2.41646e-05
2.14404e-05
2.06007e-05
2.11586e-05
2.20104e-05
2.20713e-05
2.23809e-05
2.32991e-05
2.36545e-05
2.39521e-05
2.44887e-05
2.51427e-05
2.56314e-05
2.568e-05
2.52584e-05
2.47375e-05
2.43437e-05
2.39344e-05
2.35002e-05
2.31222e-05
2.27904e-05
2.24998e-05
2.22522e-05
2.2038e-05
6.14075e-05
6.13495e-05
6.13356e-05
6.13632e-05
6.13903e-05
6.13757e-05
6.13063e-05
6.11788e-05
6.10069e-05
6.08146e-05
6.06032e-05
6.03672e-05
6.01042e-05
5.98785e-05
5.9394e-05
5.83755e-05
5.70602e-05
5.56745e-05
5.40249e-05
5.20615e-05
4.988e-05
4.74815e-05
4.47905e-05
4.15844e-05
3.45022e-05
2.55571e-05
2.0995e-05
2.0537e-05
2.18944e-05
2.30617e-05
2.47764e-05
2.69966e-05
2.931e-05
3.10708e-05
2.94726e-05
2.95835e-05
3.18785e-05
3.45781e-05
3.57738e-05
3.48479e-05
3.30435e-05
3.17639e-05
3.11313e-05
3.02233e-05
2.90927e-05
2.82184e-05
2.74142e-05
2.66912e-05
2.60787e-05
2.55492e-05
6.14485e-05
6.13891e-05
6.13359e-05
6.12832e-05
6.12332e-05
6.11857e-05
6.1141e-05
6.10961e-05
6.10486e-05
6.09998e-05
6.09482e-05
6.08917e-05
6.08295e-05
6.07407e-05
6.06012e-05
6.04018e-05
6.00904e-05
5.96361e-05
5.90199e-05
5.82417e-05
5.73262e-05
5.63018e-05
5.51918e-05
5.40042e-05
5.3412e-05
5.28915e-05
5.05928e-05
4.84137e-05
4.64809e-05
4.38527e-05
4.05992e-05
3.59561e-05
2.72463e-05
2.55589e-05
2.90775e-05
3.54012e-05
4.12408e-05
4.58568e-05
4.57604e-05
4.04392e-05
3.94395e-05
3.93443e-05
3.86187e-05
3.72401e-05
3.55187e-05
3.43524e-05
3.31104e-05
3.19436e-05
3.09497e-05
3.00503e-05
6.14696e-05
6.14355e-05
6.14023e-05
6.13676e-05
6.13317e-05
6.12942e-05
6.12554e-05
6.12153e-05
6.11737e-05
6.11326e-05
6.10921e-05
6.1053e-05
6.10111e-05
6.09541e-05
6.08906e-05
6.08148e-05
6.07173e-05
6.05847e-05
6.04036e-05
6.01652e-05
5.98674e-05
5.95151e-05
5.91175e-05
5.86852e-05
5.8285e-05
5.79082e-05
5.74159e-05
5.68001e-05
5.60425e-05
5.50358e-05
5.37458e-05
5.23172e-05
5.11598e-05
4.90652e-05
4.79775e-05
4.79665e-05
4.89114e-05
5.0628e-05
4.28466e-05
3.09902e-05
4.46148e-05
5.06808e-05
4.47367e-05
4.30826e-05
4.21091e-05
4.05188e-05
3.90923e-05
3.7606e-05
3.62434e-05
3.48831e-05
6.1455e-05
6.1405e-05
6.13558e-05
6.13047e-05
6.12523e-05
6.12011e-05
6.11471e-05
6.1091e-05
6.10352e-05
6.09795e-05
6.09232e-05
6.08666e-05
6.08151e-05
6.0774e-05
6.07374e-05
6.07018e-05
6.06632e-05
6.06162e-05
6.05546e-05
6.04729e-05
6.03671e-05
6.02368e-05
6.00831e-05
5.99088e-05
5.97239e-05
5.95312e-05
5.93184e-05
5.90686e-05
5.87607e-05
5.83629e-05
5.78457e-05
5.72091e-05
5.65142e-05
5.57279e-05
5.50315e-05
5.44945e-05
5.41257e-05
5.39484e-05
5.33371e-05
5.20855e-05
5.49179e-05
5.44072e-05
3.79823e-05
4.73788e-05
5.1066e-05
4.50603e-05
4.51679e-05
4.36139e-05
4.21014e-05
4.05009e-05
6.14499e-05
6.13967e-05
6.13395e-05
6.12826e-05
6.12269e-05
6.11692e-05
6.11092e-05
6.10477e-05
6.09871e-05
6.09265e-05
6.08671e-05
6.08041e-05
6.07423e-05
6.0683e-05
6.06273e-05
6.05757e-05
6.0528e-05
6.04844e-05
6.04431e-05
6.04004e-05
6.03513e-05
6.02929e-05
6.02245e-05
6.01447e-05
6.0055e-05
5.99565e-05
5.9847e-05
5.97211e-05
5.95706e-05
5.93839e-05
5.91474e-05
5.88514e-05
5.84981e-05
5.80921e-05
5.76649e-05
5.72407e-05
5.68293e-05
5.64428e-05
5.60092e-05
5.55658e-05
5.56622e-05
5.55295e-05
5.34628e-05
5.62627e-05
5.49352e-05
4.09513e-05
5.2206e-05
4.90616e-05
4.7895e-05
4.6578e-05
6.14374e-05
6.13705e-05
6.12989e-05
6.12266e-05
6.11564e-05
6.1083e-05
6.10085e-05
6.09364e-05
6.0864e-05
6.07893e-05
6.07102e-05
6.06356e-05
6.057e-05
6.05069e-05
6.04496e-05
6.03971e-05
6.03486e-05
6.03055e-05
6.02666e-05
6.02298e-05
6.01933e-05
6.01561e-05
6.01166e-05
6.00711e-05
6.00196e-05
5.99625e-05
5.98997e-05
5.98296e-05
5.97469e-05
5.96449e-05
5.95194e-05
5.93636e-05
5.91741e-05
5.89465e-05
5.86861e-05
5.83989e-05
5.80878e-05
5.77588e-05
5.7406e-05
5.70418e-05
5.67633e-05
5.64786e-05
5.58937e-05
5.59559e-05
5.56175e-05
5.64794e-05
5.52602e-05
4.91117e-05
5.31821e-05
5.17462e-05
6.14219e-05
6.13288e-05
6.12382e-05
6.1146e-05
6.10483e-05
6.09452e-05
6.08474e-05
6.07548e-05
6.06608e-05
6.05673e-05
6.04819e-05
6.04107e-05
6.03411e-05
6.02759e-05
6.02179e-05
6.0166e-05
6.01167e-05
6.00705e-05
6.00282e-05
5.99921e-05
5.99601e-05
5.9929e-05
5.98987e-05
5.98683e-05
5.98363e-05
5.98015e-05
5.97624e-05
5.97183e-05
5.96678e-05
5.96058e-05
5.9533e-05
5.94437e-05
5.93324e-05
5.91961e-05
5.90337e-05
5.88449e-05
5.86271e-05
5.83804e-05
5.8105e-05
5.78027e-05
5.74952e-05
5.7174e-05
5.67768e-05
5.64718e-05
5.61207e-05
5.59859e-05
5.55539e-05
5.56214e-05
5.46651e-05
5.32509e-05
6.13873e-05
6.12457e-05
6.11055e-05
6.09702e-05
6.08125e-05
6.06558e-05
6.05039e-05
6.03507e-05
6.02075e-05
6.00944e-05
6.00228e-05
5.99648e-05
5.99184e-05
5.98829e-05
5.98562e-05
5.98445e-05
5.98337e-05
5.98128e-05
5.97781e-05
5.97343e-05
5.96912e-05
5.96553e-05
5.96237e-05
5.95954e-05
5.95685e-05
5.95435e-05
5.95205e-05
5.94948e-05
5.94629e-05
5.94252e-05
5.9383e-05
5.93285e-05
5.9259e-05
5.91751e-05
5.90746e-05
5.89506e-05
5.88034e-05
5.8628e-05
5.84212e-05
5.81809e-05
5.79095e-05
5.76062e-05
5.72616e-05
5.69111e-05
5.65386e-05
5.61989e-05
5.58072e-05
5.55154e-05
5.5104e-05
5.47851e-05
6.12504e-05
6.09542e-05
6.06531e-05
6.03098e-05
5.99435e-05
5.95302e-05
5.90248e-05
5.83842e-05
5.80857e-05
5.85248e-05
5.93246e-05
5.98374e-05
6.00823e-05
6.01652e-05
6.00968e-05
6.00493e-05
5.99556e-05
5.97903e-05
5.95994e-05
5.94395e-05
5.93257e-05
5.92515e-05
5.92091e-05
5.91922e-05
5.91866e-05
5.91846e-05
5.91862e-05
5.91837e-05
5.91732e-05
5.91586e-05
5.91407e-05
5.91136e-05
5.90773e-05
5.90286e-05
5.89671e-05
5.8889e-05
5.87939e-05
5.86729e-05
5.85204e-05
5.83332e-05
5.81065e-05
5.78417e-05
5.75373e-05
5.72e-05
5.68324e-05
5.64517e-05
5.60574e-05
5.5693e-05
5.53231e-05
5.49791e-05
5.9163e-05
5.8255e-05
5.7389e-05
5.66157e-05
5.60561e-05
5.56899e-05
5.54851e-05
5.54417e-05
5.55433e-05
5.57425e-05
5.60146e-05
5.63766e-05
5.69098e-05
5.76211e-05
5.83101e-05
5.88541e-05
5.91641e-05
5.92228e-05
5.91251e-05
5.88494e-05
5.86797e-05
5.86271e-05
5.86498e-05
5.86812e-05
5.87205e-05
5.87614e-05
5.88015e-05
5.88327e-05
5.88479e-05
5.886e-05
5.8861e-05
5.88496e-05
5.88351e-05
5.88149e-05
5.87867e-05
5.87467e-05
5.86895e-05
5.86063e-05
5.84948e-05
5.83492e-05
5.81647e-05
5.79389e-05
5.76688e-05
5.73561e-05
5.70066e-05
5.66344e-05
5.62516e-05
5.58738e-05
5.55016e-05
5.51456e-05
5.57618e-05
5.49949e-05
5.45253e-05
5.43758e-05
5.44336e-05
5.45758e-05
5.47161e-05
5.48411e-05
5.49525e-05
5.50633e-05
5.51787e-05
5.53061e-05
5.54591e-05
5.56575e-05
5.5926e-05
5.63256e-05
5.6843e-05
5.73226e-05
5.76429e-05
5.7838e-05
5.79964e-05
5.81263e-05
5.82373e-05
5.8329e-05
5.84036e-05
5.84721e-05
5.85293e-05
5.85604e-05
5.85582e-05
5.85628e-05
5.85669e-05
5.85749e-05
5.85845e-05
5.85877e-05
5.85795e-05
5.85637e-05
5.85326e-05
5.84795e-05
5.84018e-05
5.8287e-05
5.81339e-05
5.79366e-05
5.76921e-05
5.74043e-05
5.70811e-05
5.67326e-05
5.63661e-05
5.59958e-05
5.56308e-05
5.52789e-05
5.43355e-05
5.41847e-05
5.42689e-05
5.44889e-05
5.47066e-05
5.48731e-05
5.49916e-05
5.50869e-05
5.51806e-05
5.52893e-05
5.5413e-05
5.55515e-05
5.57e-05
5.58553e-05
5.60152e-05
5.61798e-05
5.63504e-05
5.65619e-05
5.68197e-05
5.70946e-05
5.73517e-05
5.75717e-05
5.77559e-05
5.79074e-05
5.80292e-05
5.81292e-05
5.81998e-05
5.82445e-05
5.8272e-05
5.82992e-05
5.83236e-05
5.83465e-05
5.83669e-05
5.8382e-05
5.83896e-05
5.83881e-05
5.83657e-05
5.83269e-05
5.82675e-05
5.81726e-05
5.80384e-05
5.78564e-05
5.76323e-05
5.73693e-05
5.70715e-05
5.67454e-05
5.63994e-05
5.60461e-05
5.56966e-05
5.53599e-05
5.42115e-05
5.42776e-05
5.44178e-05
5.45645e-05
5.46782e-05
5.47659e-05
5.48475e-05
5.4933e-05
5.50281e-05
5.51465e-05
5.52875e-05
5.54478e-05
5.56222e-05
5.58071e-05
5.59992e-05
5.61925e-05
5.63789e-05
5.65523e-05
5.67067e-05
5.68523e-05
5.702e-05
5.71915e-05
5.73566e-05
5.7509e-05
5.7645e-05
5.77635e-05
5.78626e-05
5.79468e-05
5.80164e-05
5.8071e-05
5.81136e-05
5.81524e-05
5.81881e-05
5.82182e-05
5.82324e-05
5.82331e-05
5.82184e-05
5.81906e-05
5.81372e-05
5.80067e-05
5.78813e-05
5.77142e-05
5.75079e-05
5.72612e-05
5.69812e-05
5.66754e-05
5.63511e-05
5.6019e-05
5.56918e-05
5.53777e-05
5.42041e-05
5.42241e-05
5.42621e-05
5.42971e-05
5.43336e-05
5.43796e-05
5.4443e-05
5.45256e-05
5.46252e-05
5.47448e-05
5.48884e-05
5.50541e-05
5.52391e-05
5.54414e-05
5.56573e-05
5.58805e-05
5.61029e-05
5.63173e-05
5.6518e-05
5.66933e-05
5.68442e-05
5.69973e-05
5.71455e-05
5.72861e-05
5.74183e-05
5.75395e-05
5.76465e-05
5.77414e-05
5.78257e-05
5.78989e-05
5.79601e-05
5.8009e-05
5.80446e-05
5.80722e-05
5.80886e-05
5.80887e-05
5.80661e-05
5.80247e-05
5.79562e-05
5.78373e-05
5.77099e-05
5.7529e-05
5.72959e-05
5.70778e-05
5.68123e-05
5.65232e-05
5.62216e-05
5.59164e-05
5.56159e-05
5.53236e-05
5.39214e-05
5.38707e-05
5.38316e-05
5.38055e-05
5.37994e-05
5.38165e-05
5.38588e-05
5.39266e-05
5.40185e-05
5.41255e-05
5.42616e-05
5.44241e-05
5.46098e-05
5.48157e-05
5.50385e-05
5.52738e-05
5.55156e-05
5.57572e-05
5.59925e-05
5.62159e-05
5.64108e-05
5.65924e-05
5.67687e-05
5.6935e-05
5.70901e-05
5.72331e-05
5.73636e-05
5.74813e-05
5.7583e-05
5.76685e-05
5.77399e-05
5.7798e-05
5.78397e-05
5.78647e-05
5.78724e-05
5.78626e-05
5.78316e-05
5.77799e-05
5.77038e-05
5.75934e-05
5.74646e-05
5.72975e-05
5.70841e-05
5.67898e-05
5.65521e-05
5.62815e-05
5.60034e-05
5.57285e-05
5.54579e-05
5.5191e-05
5.32371e-05
5.31334e-05
5.30432e-05
5.29752e-05
5.29344e-05
5.29243e-05
5.29472e-05
5.30041e-05
5.3095e-05
5.32067e-05
5.33443e-05
5.35037e-05
5.36836e-05
5.38837e-05
5.41036e-05
5.43418e-05
5.45959e-05
5.48609e-05
5.51287e-05
5.53905e-05
5.56382e-05
5.58552e-05
5.60716e-05
5.62795e-05
5.64746e-05
5.66547e-05
5.68192e-05
5.69689e-05
5.71017e-05
5.72163e-05
5.73125e-05
5.73885e-05
5.7444e-05
5.74803e-05
5.74944e-05
5.74863e-05
5.74575e-05
5.74063e-05
5.73308e-05
5.72294e-05
5.71037e-05
5.69469e-05
5.67564e-05
5.65108e-05
5.61735e-05
5.59323e-05
5.56788e-05
5.54295e-05
5.51876e-05
5.49512e-05
5.2063e-05
5.1964e-05
5.18986e-05
5.18787e-05
5.19134e-05
5.20114e-05
5.21789e-05
5.24177e-05
5.27254e-05
5.30935e-05
5.33165e-05
5.34039e-05
5.34223e-05
5.3412e-05
5.33977e-05
5.34002e-05
5.34357e-05
5.35187e-05
5.36633e-05
5.38802e-05
5.41744e-05
5.4541e-05
5.48611e-05
5.51439e-05
5.54112e-05
5.56615e-05
5.58921e-05
5.61023e-05
5.6291e-05
5.64562e-05
5.65982e-05
5.67149e-05
5.6803e-05
5.68653e-05
5.69039e-05
5.69149e-05
5.69011e-05
5.68628e-05
5.67961e-05
5.67044e-05
5.65874e-05
5.64441e-05
5.62762e-05
5.60733e-05
5.58181e-05
5.53611e-05
5.51909e-05
5.49667e-05
5.47455e-05
5.45395e-05
7.70867e-05
7.69415e-05
7.67699e-05
7.65296e-05
7.61945e-05
7.57465e-05
7.51757e-05
7.44795e-05
7.36633e-05
7.27408e-05
7.18614e-05
7.10481e-05
7.0276e-05
6.95338e-05
6.88193e-05
6.81298e-05
6.74642e-05
6.68213e-05
6.61983e-05
6.5591e-05
6.4995e-05
6.44056e-05
6.38957e-05
6.34617e-05
6.30791e-05
6.27392e-05
6.2433e-05
6.21504e-05
6.1882e-05
6.16188e-05
6.13534e-05
6.10812e-05
6.07954e-05
6.04892e-05
6.01622e-05
5.98104e-05
5.9431e-05
5.90258e-05
5.85919e-05
5.81318e-05
5.76479e-05
5.71415e-05
5.66161e-05
5.60702e-05
5.54948e-05
5.46813e-05
5.53101e-05
5.544e-05
5.56882e-05
5.6001e-05
5.48218e-06
5.4597e-06
5.43641e-06
5.41507e-06
5.39581e-06
5.3776e-06
5.35931e-06
5.34019e-06
5.31969e-06
5.29741e-06
5.27333e-06
5.24757e-06
5.22038e-06
5.19209e-06
5.1631e-06
5.1339e-06
5.105e-06
5.07689e-06
5.05005e-06
5.02488e-06
5.00155e-06
4.95756e-06
4.92741e-06
4.91471e-06
4.89827e-06
4.8803e-06
4.86206e-06
4.84468e-06
4.8278e-06
4.81061e-06
4.79219e-06
4.77204e-06
4.75008e-06
4.72656e-06
4.70199e-06
4.67685e-06
4.65148e-06
4.62618e-06
4.60125e-06
4.57707e-06
4.55402e-06
4.53247e-06
4.51307e-06
4.49617e-06
4.48121e-06
4.46647e-06
4.45139e-06
4.43527e-06
4.41736e-06
4.39692e-06
5.41451e-06
5.29464e-06
5.17929e-06
5.07242e-06
4.97517e-06
4.88564e-06
4.80162e-06
4.72093e-06
4.64187e-06
4.56331e-06
4.4845e-06
4.40525e-06
4.32584e-06
4.24694e-06
4.16944e-06
4.09433e-06
4.02258e-06
3.95505e-06
3.8925e-06
3.83505e-06
3.7848e-06
1.62043e-05
1.63361e-05
1.63208e-05
1.62941e-05
1.62703e-05
1.62484e-05
1.62188e-05
1.61786e-05
1.61307e-05
1.6081e-05
1.60339e-05
1.59909e-05
1.59506e-05
1.59092e-05
1.58638e-05
1.58137e-05
1.57608e-05
1.57082e-05
1.56585e-05
1.56131e-05
1.55719e-05
1.55321e-05
1.549e-05
1.54432e-05
1.53932e-05
1.53349e-05
1.52644e-05
1.51788e-05
1.5077e-05
5.41377e-06
5.29233e-06
5.17484e-06
5.06528e-06
4.96393e-06
4.86906e-06
4.77865e-06
4.69092e-06
4.60442e-06
4.51825e-06
4.432e-06
4.34571e-06
4.25975e-06
4.17474e-06
4.09144e-06
4.01063e-06
3.933e-06
3.85915e-06
3.7897e-06
1.59273e-05
1.58371e-05
1.57466e-05
1.5652e-05
1.55539e-05
1.54564e-05
1.53607e-05
1.52663e-05
1.51722e-05
1.50772e-05
1.49808e-05
1.48832e-05
1.47849e-05
1.46864e-05
1.45881e-05
1.44903e-05
1.43933e-05
1.42977e-05
1.42046e-05
1.41148e-05
1.40294e-05
1.39492e-05
1.38735e-05
1.38014e-05
1.37307e-05
1.3659e-05
1.35838e-05
1.35028e-05
1.34143e-05
1.33168e-05
1.32099e-05
5.41368e-06
5.29291e-06
5.17633e-06
5.06762e-06
4.96697e-06
4.87261e-06
4.78252e-06
4.69491e-06
4.6084e-06
4.52211e-06
4.43564e-06
4.34906e-06
4.26278e-06
4.17744e-06
4.09383e-06
4.01272e-06
3.93481e-06
3.86065e-06
3.7908e-06
1.59361e-05
1.58442e-05
1.57443e-05
1.56386e-05
1.55303e-05
1.54218e-05
1.53139e-05
1.52065e-05
1.50991e-05
1.49909e-05
1.48813e-05
1.47701e-05
1.46573e-05
1.45432e-05
1.44282e-05
1.43131e-05
1.41986e-05
1.40857e-05
1.39753e-05
1.38682e-05
1.37649e-05
1.36655e-05
1.35696e-05
1.34761e-05
1.33836e-05
1.32899e-05
1.31932e-05
1.30919e-05
1.29852e-05
1.28728e-05
1.27543e-05
5.41363e-06
5.29277e-06
5.17603e-06
5.06718e-06
4.96642e-06
4.87202e-06
4.78194e-06
4.69432e-06
4.60773e-06
4.52128e-06
4.43457e-06
4.34769e-06
4.26109e-06
4.17549e-06
4.0917e-06
4.01054e-06
3.93271e-06
3.85881e-06
3.78937e-06
1.59338e-05
1.58431e-05
1.57412e-05
1.56318e-05
1.55203e-05
1.54093e-05
1.52995e-05
1.51905e-05
1.50816e-05
1.49721e-05
1.48614e-05
1.47493e-05
1.46359e-05
1.45214e-05
1.44063e-05
1.42911e-05
1.41764e-05
1.40631e-05
1.39518e-05
1.38431e-05
1.37375e-05
1.36351e-05
1.35354e-05
1.34376e-05
1.33402e-05
1.32416e-05
1.314e-05
1.30337e-05
1.29221e-05
1.28059e-05
1.2685e-05
5.4136e-06
5.29273e-06
5.17606e-06
5.06739e-06
4.96697e-06
4.87296e-06
4.78326e-06
4.69596e-06
4.60959e-06
4.52321e-06
4.43644e-06
4.3494e-06
4.2626e-06
4.17679e-06
4.09284e-06
4.01162e-06
3.93388e-06
3.86022e-06
3.79114e-06
1.5982e-05
1.59063e-05
1.57606e-05
1.56005e-05
1.54524e-05
1.53217e-05
1.52054e-05
1.50985e-05
1.49964e-05
1.48958e-05
1.47946e-05
1.46919e-05
1.45874e-05
1.44812e-05
1.43737e-05
1.42655e-05
1.41571e-05
1.40492e-05
1.39424e-05
1.38372e-05
1.3734e-05
1.3633e-05
1.35338e-05
1.34358e-05
1.33379e-05
1.32386e-05
1.31364e-05
1.30299e-05
1.29181e-05
1.2802e-05
1.26824e-05
5.41356e-06
5.29261e-06
5.17591e-06
5.06726e-06
4.96692e-06
4.87306e-06
4.7835e-06
4.69629e-06
4.60989e-06
4.52334e-06
4.43628e-06
4.34887e-06
4.26165e-06
4.17545e-06
4.09121e-06
4.00985e-06
3.93219e-06
3.85877e-06
3.7901e-06
1.59831e-05
1.59091e-05
1.57636e-05
1.56013e-05
1.54498e-05
1.53155e-05
1.51959e-05
1.50862e-05
1.4982e-05
1.48801e-05
1.47784e-05
1.46761e-05
1.45728e-05
1.44685e-05
1.43636e-05
1.42582e-05
1.41525e-05
1.4047e-05
1.3942e-05
1.38378e-05
1.37349e-05
1.36334e-05
1.35332e-05
1.34339e-05
1.33345e-05
1.32341e-05
1.31312e-05
1.30247e-05
1.29139e-05
1.27993e-05
1.26816e-05
5.41353e-06
5.29251e-06
5.17576e-06
5.06717e-06
4.96697e-06
4.87331e-06
4.78396e-06
4.69691e-06
4.61058e-06
4.52397e-06
4.43673e-06
4.34903e-06
4.2615e-06
4.17503e-06
4.09065e-06
4.00931e-06
3.93184e-06
3.85878e-06
3.7906e-06
1.59953e-05
1.59229e-05
1.578e-05
1.56197e-05
1.54688e-05
1.53328e-05
1.52099e-05
1.50961e-05
1.49876e-05
1.4882e-05
1.47778e-05
1.46741e-05
1.45708e-05
1.44677e-05
1.43646e-05
1.42614e-05
1.4158e-05
1.40544e-05
1.39505e-05
1.38467e-05
1.37433e-05
1.36404e-05
1.35384e-05
1.34369e-05
1.33353e-05
1.3233e-05
1.31288e-05
1.30222e-05
1.29124e-05
1.27995e-05
1.2684e-05
5.4135e-06
5.29243e-06
5.17564e-06
5.06706e-06
4.96696e-06
4.87343e-06
4.78423e-06
4.69727e-06
4.61092e-06
4.52417e-06
4.43665e-06
4.3486e-06
4.26071e-06
4.17394e-06
4.08938e-06
4.00804e-06
3.93073e-06
3.85802e-06
3.79032e-06
1.60013e-05
1.59002e-05
1.57775e-05
1.56492e-05
1.55208e-05
1.53938e-05
1.52687e-05
1.51459e-05
1.50257e-05
1.49084e-05
1.47944e-05
1.46837e-05
1.45763e-05
1.44716e-05
1.43689e-05
1.42673e-05
1.41661e-05
1.40644e-05
1.39621e-05
1.38589e-05
1.37551e-05
1.36511e-05
1.35471e-05
1.34434e-05
1.33398e-05
1.32357e-05
1.31306e-05
1.30241e-05
1.29155e-05
1.28049e-05
1.26922e-05
5.41348e-06
5.29237e-06
5.17556e-06
5.06698e-06
4.96695e-06
4.87354e-06
4.78447e-06
4.69759e-06
4.61121e-06
4.5243e-06
4.43653e-06
4.34818e-06
4.26e-06
4.17302e-06
4.08837e-06
4.0071e-06
3.93003e-06
3.85771e-06
3.79052e-06
1.60097e-05
1.59098e-05
1.57865e-05
1.56569e-05
1.55271e-05
1.53989e-05
1.52726e-05
1.51486e-05
1.50273e-05
1.49093e-05
1.47952e-05
1.46853e-05
1.45795e-05
1.44771e-05
1.43771e-05
1.42783e-05
1.41794e-05
1.40796e-05
1.39781e-05
1.38748e-05
1.37699e-05
1.36639e-05
1.35574e-05
1.34509e-05
1.33448e-05
1.3239e-05
1.31331e-05
1.30271e-05
1.29201e-05
1.28119e-05
1.27027e-05
5.41348e-06
5.29237e-06
5.17555e-06
5.067e-06
4.96701e-06
4.87369e-06
4.78469e-06
4.69782e-06
4.61135e-06
4.52425e-06
4.43621e-06
4.34757e-06
4.25913e-06
4.17198e-06
4.08729e-06
4.00613e-06
3.92933e-06
3.85741e-06
3.79071e-06
1.60165e-05
1.59484e-05
1.58074e-05
1.5648e-05
1.5496e-05
1.53569e-05
1.52292e-05
1.51098e-05
1.49962e-05
1.48872e-05
1.47821e-05
1.46807e-05
1.45825e-05
1.44868e-05
1.43924e-05
1.4298e-05
1.42023e-05
1.41042e-05
1.4003e-05
1.38987e-05
1.37916e-05
1.36825e-05
1.35724e-05
1.34623e-05
1.33529e-05
1.32447e-05
1.31377e-05
1.30315e-05
1.29258e-05
1.28199e-05
1.27137e-05
5.41348e-06
5.29242e-06
5.1756e-06
5.06706e-06
4.9671e-06
4.87383e-06
4.78484e-06
4.69791e-06
4.6113e-06
4.52398e-06
4.43568e-06
4.34677e-06
4.25812e-06
4.17086e-06
4.08617e-06
4.00516e-06
3.92866e-06
3.85716e-06
3.79094e-06
1.60232e-05
1.59229e-05
1.57987e-05
1.56697e-05
1.5542e-05
1.54166e-05
1.52931e-05
1.51714e-05
1.50521e-05
1.49361e-05
1.48243e-05
1.47171e-05
1.46144e-05
1.45154e-05
1.44186e-05
1.43224e-05
1.4225e-05
1.4125e-05
1.40214e-05
1.39141e-05
1.38034e-05
1.36903e-05
1.3576e-05
1.34621e-05
1.33495e-05
1.32393e-05
1.31315e-05
1.30259e-05
1.29219e-05
1.2819e-05
1.27162e-05
5.41348e-06
5.29248e-06
5.1757e-06
5.06716e-06
4.96723e-06
4.87395e-06
4.78492e-06
4.6979e-06
4.61113e-06
4.52361e-06
4.4351e-06
4.34602e-06
4.25726e-06
4.16998e-06
4.08541e-06
4.00465e-06
3.92853e-06
3.85748e-06
3.79173e-06
1.60316e-05
1.59263e-05
1.58004e-05
1.56727e-05
1.55467e-05
1.54224e-05
1.52993e-05
1.51776e-05
1.50583e-05
1.49426e-05
1.48315e-05
1.47255e-05
1.46242e-05
1.45267e-05
1.44313e-05
1.4336e-05
1.42388e-05
1.4138e-05
1.40328e-05
1.39227e-05
1.38086e-05
1.36916e-05
1.35734e-05
1.34559e-05
1.33405e-05
1.32285e-05
1.31202e-05
1.30154e-05
1.29134e-05
1.28137e-05
1.27145e-05
5.41351e-06
5.29258e-06
5.17585e-06
5.06731e-06
4.96732e-06
4.87396e-06
4.7848e-06
4.69757e-06
4.61056e-06
4.5228e-06
4.43406e-06
4.34478e-06
4.25591e-06
4.16862e-06
4.08417e-06
4.00365e-06
3.92786e-06
3.85721e-06
3.79254e-06
1.61345e-05
1.5886e-05
1.57203e-05
1.55923e-05
1.54788e-05
1.53692e-05
1.52595e-05
1.51492e-05
1.50394e-05
1.49318e-05
1.48276e-05
1.47276e-05
1.46315e-05
1.45381e-05
1.44458e-05
1.43524e-05
1.42558e-05
1.41543e-05
1.40471e-05
1.3934e-05
1.3816e-05
1.36948e-05
1.35725e-05
1.34513e-05
1.33332e-05
1.32193e-05
1.31104e-05
1.30063e-05
1.29064e-05
1.28092e-05
1.27137e-05
5.41354e-06
5.29271e-06
5.17605e-06
5.06751e-06
4.96749e-06
4.87405e-06
4.78476e-06
4.69739e-06
4.61023e-06
4.52234e-06
4.43353e-06
4.34426e-06
4.25547e-06
4.16837e-06
4.0842e-06
4.00405e-06
3.92868e-06
3.85847e-06
3.79423e-06
1.61462e-05
1.58937e-05
1.57241e-05
1.55931e-05
1.54774e-05
1.53662e-05
1.52555e-05
1.5145e-05
1.50356e-05
1.49291e-05
1.48265e-05
1.47285e-05
1.46344e-05
1.45431e-05
1.44524e-05
1.436e-05
1.42636e-05
1.41614e-05
1.40526e-05
1.39374e-05
1.38169e-05
1.3693e-05
1.35682e-05
1.3445e-05
1.33255e-05
1.32112e-05
1.31029e-05
1.30004e-05
1.29031e-05
1.28094e-05
1.27178e-05
5.41358e-06
5.29283e-06
5.17617e-06
5.06748e-06
4.9672e-06
4.87341e-06
4.78371e-06
4.69591e-06
4.60834e-06
4.5201e-06
4.431e-06
4.34156e-06
4.25271e-06
4.16569e-06
4.08173e-06
4.00189e-06
3.92688e-06
3.857e-06
3.79305e-06
1.61332e-05
1.58809e-05
1.5711e-05
1.55793e-05
1.54628e-05
1.53509e-05
1.524e-05
1.51297e-05
1.50211e-05
1.49159e-05
1.48151e-05
1.47192e-05
1.46273e-05
1.45381e-05
1.44493e-05
1.43582e-05
1.42627e-05
1.41609e-05
1.4052e-05
1.39364e-05
1.38154e-05
1.36911e-05
1.35663e-05
1.34436e-05
1.33254e-05
1.32133e-05
1.31082e-05
1.301e-05
1.29177e-05
1.28305e-05
1.2746e-05
5.41363e-06
5.29305e-06
5.17661e-06
5.06812e-06
4.96792e-06
4.8741e-06
4.78429e-06
4.69633e-06
4.60864e-06
4.52031e-06
4.43121e-06
4.34183e-06
4.25315e-06
4.16637e-06
4.08271e-06
4.00318e-06
3.92844e-06
3.85876e-06
3.7949e-06
1.61444e-05
1.58898e-05
1.57176e-05
1.55839e-05
1.54657e-05
1.53525e-05
1.5241e-05
1.51309e-05
1.50234e-05
1.49199e-05
1.48214e-05
1.47281e-05
1.4639e-05
1.45527e-05
1.44666e-05
1.43783e-05
1.42855e-05
1.41866e-05
1.40808e-05
1.39688e-05
1.38519e-05
1.37325e-05
1.36134e-05
1.34975e-05
1.33874e-05
1.32847e-05
1.31905e-05
1.31049e-05
1.30271e-05
1.29561e-05
1.28905e-05
5.41369e-06
5.29248e-06
5.17523e-06
5.06588e-06
4.96483e-06
4.87025e-06
4.77978e-06
4.6913e-06
4.60321e-06
4.51466e-06
4.42552e-06
4.33632e-06
4.24803e-06
4.16185e-06
4.07894e-06
4.00024e-06
3.92637e-06
3.85756e-06
3.79455e-06
1.6137e-05
1.58911e-05
1.57236e-05
1.56036e-05
1.54941e-05
1.53857e-05
1.52822e-05
1.5184e-05
1.50917e-05
1.50055e-05
1.49254e-05
1.48508e-05
1.47802e-05
1.47117e-05
1.46432e-05
1.45728e-05
1.44986e-05
1.44194e-05
1.43347e-05
1.4245e-05
1.41518e-05
1.40574e-05
1.39649e-05
1.3877e-05
1.37964e-05
1.37251e-05
1.36644e-05
1.36143e-05
1.35749e-05
1.35447e-05
1.35233e-05
5.41411e-06
5.29418e-06
5.17895e-06
5.07142e-06
4.9735e-06
4.88296e-06
4.79755e-06
4.71507e-06
4.6338e-06
4.55253e-06
4.47094e-06
4.38945e-06
4.3089e-06
4.23025e-06
4.15464e-06
4.08313e-06
4.01652e-06
3.95528e-06
3.89945e-06
3.85024e-06
3.80314e-06
3.71958e-06
1.60112e-05
1.61858e-05
1.619e-05
1.61706e-05
1.61527e-05
1.61421e-05
1.61379e-05
1.61373e-05
1.61361e-05
1.61309e-05
1.61197e-05
1.61019e-05
1.60774e-05
1.60463e-05
1.60085e-05
1.59643e-05
1.59144e-05
1.58605e-05
1.58047e-05
1.57501e-05
1.56997e-05
1.56565e-05
1.56225e-05
1.55993e-05
1.55868e-05
1.55854e-05
1.55949e-05
1.56156e-05
5.48349e-06
5.46036e-06
5.43835e-06
5.41897e-06
5.40009e-06
5.38087e-06
5.3602e-06
5.33744e-06
5.31242e-06
5.28547e-06
5.25708e-06
5.22783e-06
5.19852e-06
5.16999e-06
5.14288e-06
5.11755e-06
5.09414e-06
5.07257e-06
5.05258e-06
5.0337e-06
5.0152e-06
4.97586e-06
4.94611e-06
4.92158e-06
4.90903e-06
4.88878e-06
4.86446e-06
4.83869e-06
4.813e-06
4.78816e-06
4.76465e-06
4.74254e-06
4.72149e-06
4.70099e-06
4.68046e-06
4.65939e-06
4.63741e-06
4.61431e-06
4.5901e-06
4.5649e-06
4.539e-06
4.51272e-06
4.48639e-06
4.46034e-06
4.43473e-06
4.40972e-06
4.38542e-06
4.36143e-06
4.3377e-06
4.31405e-06
1.20818e-05
1.55053e-05
4.00775e-06
4.19651e-06
4.04904e-06
1.59076e-05
1.39455e-05
1.16235e-05
9.68119e-06
8.30278e-06
7.44371e-06
7.71358e-06
8.82789e-06
1.00983e-05
1.14366e-05
1.29118e-05
3.50222e-06
3.88096e-06
5.60271e-06
1.47178e-05
1.20727e-05
1.552e-05
4.0132e-06
4.20831e-06
4.06512e-06
1.59215e-05
1.39789e-05
1.16393e-05
9.68359e-06
8.30533e-06
7.21619e-06
7.80025e-06
8.90989e-06
1.01116e-05
1.13953e-05
1.30052e-05
3.5085e-06
4.09202e-06
6.0127e-06
1.53866e-05
1.20634e-05
1.55336e-05
4.0189e-06
4.22053e-06
4.08222e-06
1.59419e-05
1.40188e-05
1.16648e-05
9.70165e-06
8.35066e-06
7.28633e-06
7.74172e-06
8.8349e-06
1.00205e-05
1.13003e-05
1.29892e-05
3.52974e-06
4.17466e-06
6.17204e-06
1.56713e-05
1.20498e-05
1.55435e-05
4.02427e-06
4.23219e-06
4.09926e-06
1.59717e-05
1.40578e-05
1.16894e-05
9.71515e-06
8.37739e-06
7.36062e-06
7.66989e-06
8.69916e-06
9.88116e-06
1.11817e-05
1.29598e-05
3.55494e-06
4.25868e-06
6.32914e-06
1.59422e-05
1.20336e-05
1.555e-05
4.02949e-06
4.2434e-06
4.1166e-06
1.60309e-05
1.40973e-05
1.17146e-05
9.73111e-06
8.41188e-06
7.43177e-06
7.60864e-06
8.51586e-06
9.69496e-06
1.10385e-05
1.29132e-05
3.58155e-06
4.34101e-06
6.47932e-06
1.61904e-05
1.20165e-05
1.55527e-05
4.03459e-06
4.25422e-06
4.13133e-06
1.60675e-05
1.41415e-05
1.17356e-05
9.74331e-06
8.44699e-06
7.48535e-06
7.55261e-06
8.31653e-06
9.47859e-06
1.08739e-05
1.28482e-05
3.60782e-06
4.41954e-06
6.6196e-06
1.64116e-05
1.19991e-05
1.55519e-05
4.03969e-06
4.2647e-06
4.14507e-06
1.6089e-05
1.41815e-05
1.17493e-05
9.7487e-06
8.47543e-06
7.52349e-06
7.49563e-06
8.11876e-06
9.246e-06
1.06929e-05
1.27656e-05
3.63254e-06
4.49303e-06
6.74845e-06
1.66045e-05
1.19815e-05
1.5548e-05
4.04504e-06
4.2748e-06
4.15733e-06
3.80523e-06
1.42142e-05
1.1751e-05
9.74266e-06
8.49475e-06
7.5675e-06
7.43545e-06
7.9334e-06
9.01127e-06
1.0502e-05
1.26692e-05
3.65511e-06
4.56097e-06
6.86542e-06
1.677e-05
1.19642e-05
1.55419e-05
4.05101e-06
4.2849e-06
4.1679e-06
3.82055e-06
1.42376e-05
1.17364e-05
9.72065e-06
8.49821e-06
7.61913e-06
7.37674e-06
7.77011e-06
8.78937e-06
1.03106e-05
1.25646e-05
3.67548e-06
4.62336e-06
6.97071e-06
1.691e-05
1.19478e-05
1.55356e-05
4.05781e-06
4.29491e-06
4.17764e-06
3.82857e-06
1.42439e-05
1.17017e-05
9.67907e-06
8.48164e-06
7.67335e-06
7.32812e-06
7.63513e-06
8.59127e-06
1.01279e-05
1.24581e-05
3.69386e-06
4.68036e-06
7.06473e-06
1.70271e-05
1.19327e-05
1.55303e-05
4.06562e-06
4.30474e-06
4.18557e-06
3.8327e-06
1.42316e-05
1.16448e-05
9.61609e-06
8.44172e-06
7.72051e-06
7.29709e-06
7.52883e-06
8.42125e-06
9.95991e-06
1.2354e-05
3.71039e-06
4.73198e-06
7.14777e-06
1.71232e-05
1.19201e-05
1.55272e-05
4.07433e-06
4.31441e-06
4.19173e-06
3.83311e-06
1.41996e-05
1.15654e-05
9.53197e-06
8.37702e-06
7.75269e-06
7.28291e-06
7.44603e-06
8.27657e-06
9.80772e-06
1.22545e-05
3.72483e-06
4.77796e-06
7.21992e-06
1.72006e-05
1.19101e-05
1.5527e-05
4.08373e-06
4.32367e-06
4.19619e-06
3.83031e-06
1.41482e-05
1.14647e-05
9.42864e-06
8.28592e-06
7.75152e-06
7.2708e-06
7.37852e-06
8.15085e-06
9.66984e-06
1.21596e-05
3.73644e-06
4.81764e-06
7.2809e-06
1.72615e-05
1.19028e-05
1.55293e-05
4.09362e-06
4.33232e-06
4.19901e-06
3.82512e-06
1.40787e-05
1.13462e-05
9.31122e-06
8.17212e-06
7.69775e-06
7.23856e-06
7.32065e-06
8.03985e-06
9.54568e-06
1.20701e-05
3.74475e-06
4.85059e-06
7.32988e-06
1.73095e-05
1.18982e-05
1.55336e-05
4.10373e-06
4.34024e-06
4.20026e-06
3.81814e-06
1.39938e-05
1.12158e-05
9.18918e-06
8.04641e-06
7.58732e-06
7.14903e-06
7.24684e-06
7.9383e-06
9.43351e-06
1.19864e-05
3.74925e-06
4.87623e-06
7.35955e-06
1.73534e-05
1.1896e-05
1.55392e-05
4.11376e-06
4.34736e-06
4.20006e-06
3.80998e-06
1.3897e-05
1.10815e-05
9.07468e-06
7.92294e-06
7.40026e-06
7.07105e-06
7.17436e-06
7.84711e-06
9.33417e-06
1.19104e-05
3.74958e-06
4.89168e-06
7.37133e-06
1.73991e-05
1.18955e-05
1.55454e-05
4.12349e-06
4.35354e-06
4.1986e-06
3.80118e-06
1.37933e-05
1.09535e-05
8.98045e-06
7.81497e-06
7.17746e-06
6.97305e-06
7.10208e-06
7.7665e-06
9.24862e-06
1.18446e-05
3.74324e-06
4.89599e-06
7.39891e-06
1.74366e-05
1.18964e-05
1.55513e-05
4.13281e-06
4.35885e-06
4.1962e-06
3.79238e-06
1.36888e-05
1.08429e-05
8.91919e-06
7.75545e-06
7.03712e-06
6.87234e-06
7.031e-06
7.69803e-06
9.17747e-06
1.17904e-05
3.72817e-06
4.91186e-06
7.43692e-06
1.74668e-05
1.18986e-05
1.55573e-05
4.14157e-06
4.36291e-06
4.19331e-06
3.78507e-06
1.3598e-05
1.07635e-05
8.88588e-06
7.7188e-06
6.94646e-06
6.79015e-06
6.96879e-06
7.63911e-06
9.12081e-06
1.17589e-05
3.72408e-06
4.93226e-06
7.48859e-06
1.74902e-05
1.19017e-05
1.5559e-05
4.14981e-06
4.36704e-06
4.19147e-06
3.77951e-06
1.35241e-05
1.07065e-05
8.8734e-06
7.70422e-06
6.88919e-06
6.74085e-06
6.92556e-06
7.59394e-06
9.09445e-06
1.17808e-05
3.72706e-06
4.95907e-06
7.55577e-06
1.7507e-05
1.19036e-05
1.55574e-05
4.15746e-06
4.37135e-06
4.19096e-06
3.77613e-06
1.34705e-05
1.06743e-05
8.88364e-06
7.71365e-06
6.85491e-06
6.72213e-06
6.90565e-06
7.57931e-06
9.11291e-06
1.18527e-05
3.7386e-06
4.99403e-06
7.63886e-06
1.75177e-05
1.19041e-05
1.55514e-05
4.16437e-06
4.3759e-06
4.19211e-06
3.77536e-06
1.34402e-05
1.06681e-05
8.91802e-06
7.75197e-06
6.84599e-06
6.73235e-06
6.91323e-06
7.60485e-06
9.18438e-06
1.19779e-05
3.75974e-06
5.03858e-06
7.73725e-06
1.7523e-05
1.19029e-05
1.55396e-05
4.17028e-06
4.38068e-06
4.19513e-06
3.77756e-06
1.3435e-05
1.06885e-05
8.97702e-06
7.82296e-06
6.86975e-06
6.77113e-06
6.95571e-06
7.68068e-06
9.31384e-06
1.21573e-05
3.79108e-06
5.09383e-06
7.84982e-06
1.7524e-05
1.18996e-05
1.55203e-05
4.17499e-06
4.38572e-06
4.20016e-06
3.78299e-06