/*--------------------------------*- C++ -*----------------------------------*\
  =========                 |
  \\      /  F ield         | OpenFOAM: The Open Source CFD Toolbox
   \\    /   O peration     | Website:  https://openfoam.org
    \\  /    A nd           | Version:  8
     \\/     M anipulation  |
\*---------------------------------------------------------------------------*/
FoamFile
{
    version     2.0;
    format      ascii;
    class       volScalarField;
    location    "500";
    object      p_rgh;
}
// * * * * * * * * * * * * * * * * * * * * * * * * * * * * * * * * * * * * * //

dimensions      [1 -1 -2 0 0 0 0];

internalField   nonuniform List<scalar> 
8400
(
10907.4
18245.6
20745.9
25634.8
35898
52233.2
73506.8
97620.3
122434
146212
167606
185638
199750
209740
215736
218090
217221
214421
210452
205565
200575
196202
193118
192033
193611
198169
205062
212634
219365
224812
229882
235443
241829
249003
256747
264876
273454
282695
292682
303123
313418
323017
331695
339436
346263
352243
357476
362080
366222
370018
19393.9
25113.5
22761.6
24945.5
34121.1
50025.7
71142.8
95306.1
120332
144477
166453
185183
199881
210304
216501
219024
218546
216039
211818
205937
199340
192952
187796
185065
186034
191634
200950
210832
218830
224281
229176
234840
241465
248848
256615
264492
272699
281684
291712
302446
313036
322761
331484
339273
346123
352102
357323
361892
365959
369663
7488.19
13496
17522.7
23951.8
35250.8
51845.5
72780.5
96361.8
120641
144016
165354
183560
197843
208061
214477
217574
217599
214722
209408
202392
194888
188080
183306
182035
185651
194680
205943
215929
221941
224364
226927
231414
237827
245727
253880
261928
270011
279044
289682
301464
312891
322872
331684
339597
346460
352406
357608
362145
366165
369803
-32234.8
-13218
5601.08
20592.3
35675.9
52903.7
72322.6
92985.8
113546
132894
150330
165318
177543
187026
193999
198579
200691
200236
197536
193308
188521
184313
181942
182634
187410
196284
206094
214487
219706
222597
226170
231933
239862
248018
255185
260748
265806
273290
284587
298685
311897
322341
331551
340013
346951
352827
357992
362448
366394
369953
-25366
-1513.02
25178.2
43788.7
58093.8
71255.6
84118.6
96520.8
108040
118366
127400
135180
141938
148175
154150
159660
164318
167804
170068
171297
171992
172844
174684
178384
184567
193096
202387
210978
217694
223123
228791
235526
243319
250120
255300
259492
265095
275098
289909
305236
316503
323766
331926
340767
347384
353204
358522
362923
366848
370321
-4117.5
12969.3
32670.9
47280.6
58000.4
67224.4
75734.9
83534.8
90562.6
96849.4
102506
107655
112351
116628
120624
124561
128647
132954
137428
142023
146778
151857
157554
164258
172276
181551
191480
201306
210426
218869
227075
235353
243598
251078
257742
264169
272103
283105
296849
309491
318761
327592
337400
344604
348617
353608
358848
363118
367238
370692
-2664.91
15685.6
32615.5
45329.9
55061.9
63299.2
70445.7
76518
81662.9
86131.5
90171.4
93981.8
97671.5
101307
104978
108805
112953
117508
122501
127925
133785
140140
147117
154894
163581
173129
183255
193556
203685
213513
223113
232614
242059
251352
260572
270085
280590
292488
305122
316433
325442
333580
341180
346329
351609
356865
360320
363550
367593
370933
4647.55
24559.8
40279.1
51110.1
59029.9
65459.7
70600.7
74480.6
77364
79629
81596.5
83497.9
85462.2
87617.6
90138
93162
96866.1
101370
106678
112737
119472
126836
134843
143532
152916
162929
173419
184181
195020
205841
216672
227617
238783
250216
261956
274062
286577
299338
311739
322779
331965
339743
346215
350993
355403
358855
362157
365993
368901
371448
7784.24
29355.1
44161.7
53686.2
60155.8
64880.9
68343.4
70659.6
72112.3
73060.5
73795.9
74497.4
75357.6
76593.7
78391
80959.1
84480.4
89097.9
94813.3
101491
108948
117043
125724
134994
144850
155251
166103
177283
188690
200289
212122
224277
236847
249866
263285
276966
290672
304040
316561
327684
337097
344864
351076
355808
359643
362570
365325
367895
370386
373247
10587.5
33219.6
47612.3
56720.2
62673.2
66340.1
68408.3
69481.4
69955.8
70096.7
70022.3
69904.5
70009.3
70573.2
71798.8
73909
77110.7
81580.2
87378.3
94368.7
102262
110815
119932
129605
139834
150571
161744
173287
185155
197351
209914
222910
236396
250363
264702
279191
293508
307255
320000
331354
341062
349061
355406
360248
363930
366692
368993
370973
372924
374920
13680.7
35750.8
49658.5
58609.6
64298.6
67498.7
68915.3
69383.9
69544.8
69598.9
69488.5
69310.8
69320.1
69705.2
70618.8
72306.1
75027.2
79024.4
84398.9
91035.6
98683.7
107133
116272
126060
136468
147417
158841
170700
182962
195639
208753
222345
236436
250979
265845
280792
295488
309553
322598
334285
344368
352730
359382
364461
368216
370930
372953
374534
375937
377295
13312.2
34540.3
48879.9
58285.6
64034.7
67179.9
68548.1
68923.3
69018.8
69108.7
69096.5
69007.1
69097.2
69561.4
70522.1
72206.6
74796.5
78556.6
83727.1
90202.7
97695.9
106034
115127
124909
135323
146301
157800
169790
182257
195208
208656
222621
237086
251981
267159
282387
297353
311701
325059
337097
347558
356294
363279
368611
372494
375195
377020
378252
379163
379960
10959.2
29238.4
43240.3
53163.1
59803.2
64035.5
66559
67941.4
68682.6
69116.6
69348.8
69441.2
69559.4
69916.1
70724.1
72246.1
74770.9
78574.3
83751.4
90172.1
97624.6
105958
115075
124900
135357
146394
157982
170087
182710
195860
209546
223772
238502
253658
269079
284536
299735
314325
327938
340252
351001
360018
367250
372765
376735
379399
381040
381952
382424
382713
9563.37
25243.7
38532.4
48683.1
55972.5
60935.7
64150.4
66177.6
67498.7
68419.9
69091.7
69630.6
70167.6
70860
71896.7
73507.5
75958.3
79507.9
84368.2
90548.3
97872.8
106163
115297
125193
135769
146965
158745
171074
183949
197365
211318
225794
240760
256130
271757
287419
302833
317630
331425
343898
354796
363956
371312
376909
380892
383475
384923
385529
385598
385418
9566.1
23648.2
35827.4
45499.1
52810.6
58106.8
61824.7
64411.7
66273.7
67705
68881.8
69937.8
71009.9
72241.3
73794.6
75855.9
78623.9
82290.7
86998.6
92845.5
99828.5
107840
116784
126575
137137
148411
160346
172901
186051
199768
214025
228793
244031
259643
275481
291317
306862
321738
335573
348044
358926
368071
375401
380966
384893
387361
388610
388921
388608
387986
9125.14
21893.9
33149.8
42360.1
49631.5
55186.5
59331.5
62403.5
64736.2
66610
68221.6
69721.7
71254.5
72966.2
75010.5
77551
80753.6
84766.2
89693.9
95595.9
102504
110413
119269
129011
139581
150930
163012
175782
189200
203223
217807
232900
248434
264300
280336
296311
311918
326787
340553
352892
363570
372456
379529
384885
388657
390975
392033
392074
391399
390348
8542.04
20172.6
30753.2
39659.8
46931.9
52705.5
57199.7
60676.3
63410.1
65661.1
67637.5
69498.8
71391.3
73463.1
75863.3
78744.6
82257
86526.2
91646
97670.4
104629
112545
121422
131228
141916
153446
165775
178854
192625
207031
222009
237488
253376
269544
285804
301911
317552
332365
346000
358146
368573
377145
383840
388765
392160
394232
395101
394910
393903
392437
8404.65
19107.6
29114.8
37738.9
44975.7
50901.3
55675.8
59505.5
62615.3
65230
67550
69744.4
71963.6
74350.7
77051.7
80210
83961.6
88422.9
93678.5
99780.3
106761
114660
123520
133359
144157
155880
168483
181900
196051
210853
226223
242071
258296
274755
291248
307512
323223
338014
351530
363464
373598
381814
388109
392588
395477
397118
397735
397337
396035
394173
8508.04
18455.1
27994.7
36362.1
43525.8
49525.4
54482.1
58563.6
61958.9
64863.2
67465.1
69932.8
72414.6
75053.1
77989.3
81361.5
85298.2
89904.8
95261
101418
108411
116286
125106
134935
145790
157650
170465
184150
198603
213713
229377
245500
261980
278676
295387
311838
327687
342548
356048
367869
377794
385725
391685
395806
398308
399530
399822
399210
397620
395362
8763.63
18244.8
27486.5
35668.1
42746.6
48746.9
53772.4
57971.7
61516.5
64586.6
67357.4
69989.5
72631.2
75424.9
78508.9
82017.6
86075.6
90785.5
96222
102435
109467
117369
126217
136089
147027
159029
172045
185973
200688
216067
231997
248377
265109
282051
298998
315664
331684
346651
360168
371903
381640
389294
394913
398647
400735
401517
401437
400603
398771
396183
398087
398087
398087
398087
398087
398087
398087
398087
398087
398087
398087
398087
398087
398087
398087
398087
398087
398087
398087
398087
398088
398088
398088
398088
398088
398088
398088
398088
398089
398089
398089
398089
398090
398090
398090
398091
398091
398091
398092
398092
398092
398093
398093
398093
398093
398094
398094
398094
398094
398095
398087
398087
398087
398087
398087
398087
398087
398087
398087
398087
398087
398087
398087
398087
398087
398087
398087
398087
398087
398087
398087
398088
398088
398088
398088
398088
398088
398088
398088
398089
398089
398089
398090
398090
398090
398091
398091
398091
398092
398092
398092
398093
398093
398093
398093
398094
398094
398094
398094
398095
398087
398087
398087
398087
398087
398087
398087
398087
398087
398087
398087
398087
398087
398087
398087
398087
398087
398087
398087
398087
398087
398088
398088
398088
398088
398088
398088
398088
398088
398089
398089
398089
398090
398090
398090
398091
398091
398091
398092
398092
398092
398093
398093
398093
398093
398094
398094
398094
398094
398095
398087
398087
398087
398087
398087
398087
398087
398087
398087
398087
398087
398087
398087
398087
398087
398087
398087
398087
398087
398087
398087
398088
398088
398088
398088
398088
398088
398088
398088
398089
398089
398089
398090
398090
398090
398091
398091
398091
398092
398092
398092
398092
398093
398093
398093
398094
398094
398094
398094
398095
398087
398087
398087
398087
398087
398087
398087
398087
398087
398087
398087
398087
398087
398087
398087
398087
398087
398087
398087
398087
398087
398088
398088
398088
398088
398088
398088
398088
398088
398089
398089
398089
398090
398090
398090
398091
398091
398091
398092
398092
398092
398092
398093
398093
398093
398094
398094
398094
398094
398095
398087
398087
398087
398087
398087
398087
398087
398087
398087
398087
398087
398087
398087
398087
398087
398087
398087
398087
398087
398087
398087
398088
398088
398088
398088
398088
398088
398088
398088
398089
398089
398089
398090
398090
398090
398091
398091
398091
398092
398092
398092
398092
398093
398093
398093
398094
398094
398094
398094
398095
398087
398087
398087
398087
398087
398087
398087
398087
398087
398087
398087
398087
398087
398087
398087
398087
398087
398087
398087
398087
398087
398088
398088
398088
398088
398088
398088
398088
398088
398089
398089
398089
398090
398090
398090
398091
398091
398091
398092
398092
398092
398092
398093
398093
398093
398094
398094
398094
398094
398095
398087
398087
398087
398087
398087
398087
398087
398087
398087
398087
398087
398087
398087
398087
398087
398087
398087
398087
398087
398087
398087
398088
398088
398088
398088
398088
398088
398088
398088
398089
398089
398089
398090
398090
398090
398091
398091
398091
398092
398092
398092
398092
398093
398093
398093
398094
398094
398094
398094
398095
398087
398087
398087
398087
398087
398087
398087
398087
398087
398087
398087
398087
398087
398087
398087
398087
398087
398087
398087
398087
398087
398088
398088
398088
398088
398088
398088
398088
398089
398089
398089
398089
398090
398090
398090
398091
398091
398091
398092
398092
398092
398092
398093
398093
398093
398094
398094
398094
398094
398095
398087
398087
398087
398087
398087
398087
398087
398087
398087
398087
398087
398087
398087
398087
398087
398087
398087
398087
398087
398087
398087
398088
398088
398088
398088
398088
398088
398088
398089
398089
398089
398089
398090
398090
398090
398091
398091
398091
398092
398092
398092
398092
398093
398093
398093
398094
398094
398094
398094
398095
398087
398087
398087
398087
398087
398087
398087
398087
398087
398087
398087
398087
398087
398087
398087
398087
398087
398087
398087
398087
398087
398088
398088
398088
398088
398088
398088
398088
398089
398089
398089
398089
398090
398090
398090
398091
398091
398091
398091
398092
398092
398092
398093
398093
398093
398094
398094
398094
398095
398095
398087
398087
398087
398087
398087
398087
398087
398087
398087
398087
398087
398087
398087
398087
398087
398087
398087
398087
398087
398087
398087
398088
398088
398088
398088
398088
398088
398088
398089
398089
398089
398089
398090
398090
398090
398091
398091
398091
398091
398092
398092
398092
398093
398093
398093
398094
398094
398094
398095
398095
398087
398087
398087
398087
398087
398087
398087
398087
398087
398087
398087
398087
398087
398087
398087
398087
398087
398087
398087
398087
398088
398088
398088
398088
398088
398088
398088
398088
398089
398089
398089
398089
398090
398090
398090
398091
398091
398091
398091
398092
398092
398092
398093
398093
398093
398094
398094
398094
398095
398095
398087
398087
398087
398087
398087
398087
398087
398087
398087
398087
398087
398087
398087
398087
398087
398087
398087
398087
398087
398087
398088
398088
398088
398088
398088
398088
398088
398088
398089
398089
398089
398090
398090
398090
398090
398091
398091
398091
398091
398092
398092
398092
398093
398093
398093
398094
398094
398094
398095
398095
398087
398087
398087
398087
398087
398087
398087
398087
398087
398087
398087
398087
398087
398087
398087
398087
398087
398087
398087
398087
398088
398088
398088
398088
398088
398088
398088
398088
398089
398089
398089
398090
398090
398090
398090
398091
398091
398091
398091
398092
398092
398092
398093
398093
398093
398094
398094
398094
398095
398095
398087
398087
398087
398087
398087
398087
398087
398087
398087
398087
398087
398087
398087
398087
398087
398087
398087
398087
398087
398087
398088
398088
398088
398088
398088
398088
398088
398089
398089
398089
398089
398090
398090
398090
398090
398091
398091
398091
398091
398092
398092
398092
398093
398093
398093
398094
398094
398094
398095
398095
398087
398087
398087
398087
398087
398087
398087
398087
398087
398087
398087
398087
398087
398087
398087
398087
398087
398087
398087
398087
398088
398088
398088
398088
398088
398088
398088
398089
398089
398089
398089
398090
398090
398090
398090
398091
398091
398091
398091
398092
398092
398092
398093
398093
398093
398094
398094
398094
398095
398095
398087
398087
398087
398087
398087
398087
398087
398087
398087
398087
398087
398087
398087
398087
398087
398087
398087
398087
398087
398087
398088
398088
398088
398088
398088
398088
398088
398089
398089
398089
398089
398090
398090
398090
398090
398091
398091
398091
398091
398092
398092
398092
398093
398093
398093
398094
398094
398094
398095
398095
398087
398087
398087
398087
398087
398087
398087
398087
398087
398087
398087
398087
398087
398087
398087
398087
398087
398087
398087
398087
398088
398088
398088
398088
398088
398088
398088
398089
398089
398089
398089
398090
398090
398090
398090
398091
398091
398091
398091
398092
398092
398092
398093
398093
398093
398094
398094
398095
398095
398095
398087
398087
398087
398087
398087
398087
398087
398087
398087
398087
398087
398087
398087
398087
398087
398087
398087
398087
398087
398088
398088
398088
398088
398088
398088
398088
398089
398089
398089
398089
398090
398090
398090
398090
398091
398091
398091
398091
398092
398092
398092
398092
398093
398093
398093
398094
398094
398095
398095
398095
398178
398184
398185
398189
398191
398194
398195
398196
398197
398198
398198
398198
398198
398199
398200
398201
398202
398204
398205
398209
398176
398181
398182
398187
398188
398191
398192
398194
398195
398196
398196
398196
398196
398197
398197
398199
398199
398202
398202
398206
398173
398179
398180
398184
398186
398189
398190
398192
398192
398193
398193
398193
398193
398193
398194
398196
398196
398199
398199
398203
398170
398176
398177
398181
398183
398186
398187
398189
398189
398190
398190
398190
398190
398190
398190
398192
398192
398195
398195
398199
398167
398173
398174
398179
398180
398183
398184
398186
398186
398187
398187
398187
398187
398187
398187
398188
398189
398191
398192
398195
398164
398170
398171
398176
398177
398180
398181
398183
398183
398184
398184
398184
398183
398183
398183
398184
398185
398187
398188
398192
398161
398167
398169
398173
398174
398177
398178
398180
398180
398181
398181
398181
398180
398180
398180
398181
398181
398183
398184
398188
398158
398164
398166
398170
398171
398174
398175
398176
398177
398177
398177
398177
398177
398177
398177
398177
398178
398180
398180
398184
398155
398161
398163
398167
398168
398171
398172
398173
398173
398174
398174
398174
398173
398173
398173
398174
398175
398177
398177
398181
398152
398158
398160
398164
398165
398168
398169
398170
398170
398170
398170
398170
398170
398170
398170
398171
398172
398174
398174
398178
398149
398155
398157
398161
398162
398165
398165
398166
398166
398166
398166
398166
398167
398167
398167
398168
398169
398171
398172
398175
398145
398152
398153
398158
398159
398161
398162
398163
398163
398163
398163
398163
398163
398164
398165
398166
398166
398169
398169
398173
398142
398149
398150
398155
398156
398158
398159
398160
398159
398160
398159
398159
398160
398161
398162
398163
398164
398166
398167
398171
398139
398146
398147
398152
398153
398155
398156
398156
398156
398156
398156
398156
398157
398158
398159
398161
398161
398164
398165
398169
398136
398143
398144
398149
398150
398152
398153
398153
398153
398153
398153
398153
398154
398155
398157
398158
398159
398162
398163
398167
398133
398140
398142
398146
398147
398149
398150
398150
398151
398151
398150
398151
398152
398153
398154
398156
398157
398160
398160
398164
398130
398137
398139
398143
398144
398146
398147
398148
398148
398148
398148
398149
398149
398151
398152
398154
398155
398157
398158
398162
398128
398135
398136
398140
398142
398144
398145
398145
398146
398146
398146
398146
398147
398148
398150
398151
398152
398155
398156
398160
398125
398132
398134
398138
398139
398142
398142
398143
398143
398144
398144
398144
398145
398146
398147
398149
398150
398153
398154
398158
398123
398130
398132
398136
398137
398139
398140
398141
398141
398142
398142
398142
398143
398144
398145
398147
398148
398151
398152
398155
398121
398128
398130
398134
398135
398137
398138
398139
398139
398140
398140
398140
398141
398142
398143
398145
398146
398149
398149
398153
398119
398126
398128
398132
398134
398136
398137
398137
398138
398138
398138
398139
398139
398140
398141
398143
398144
398147
398147
398151
398117
398124
398126
398130
398132
398134
398135
398136
398136
398137
398137
398137
398138
398139
398140
398141
398142
398145
398145
398149
398115
398122
398124
398129
398131
398133
398134
398135
398135
398135
398136
398136
398137
398137
398138
398140
398140
398143
398144
398148
398114
398121
398123
398127
398129
398132
398133
398134
398134
398134
398135
398135
398135
398136
398137
398138
398139
398142
398142
398146
398113
398119
398122
398126
398128
398131
398132
398133
398133
398133
398134
398134
398134
398135
398136
398137
398138
398140
398141
398144
398112
398118
398121
398125
398127
398130
398131
398132
398132
398133
398133
398133
398133
398134
398134
398136
398137
398139
398140
398143
398111
398117
398120
398124
398126
398129
398130
398131
398131
398132
398132
398132
398132
398133
398134
398135
398136
398138
398138
398142
398110
398116
398119
398123
398126
398128
398129
398130
398131
398131
398131
398131
398132
398132
398133
398134
398135
398137
398137
398140
398109
398115
398118
398123
398125
398127
398128
398129
398130
398130
398131
398131
398131
398131
398132
398133
398134
398136
398136
398139
398108
398115
398117
398122
398124
398126
398127
398128
398129
398130
398130
398130
398130
398131
398131
398132
398133
398135
398135
398138
398108
398114
398117
398121
398124
398126
398127
398128
398128
398129
398129
398129
398130
398130
398131
398132
398132
398134
398135
398137
398107
398114
398116
398121
398123
398125
398126
398127
398128
398128
398129
398129
398129
398129
398130
398131
398132
398134
398134
398137
398107
398113
398116
398120
398122
398124
398125
398126
398127
398128
398128
398128
398128
398129
398130
398131
398131
398133
398133
398136
398107
398113
398116
398120
398122
398124
398125
398126
398126
398127
398127
398128
398128
398129
398129
398130
398131
398133
398133
398135
398107
398113
398116
398120
398122
398123
398124
398125
398126
398127
398127
398127
398128
398128
398129
398130
398130
398132
398132
398135
398107
398113
398115
398119
398121
398123
398124
398125
398125
398126
398127
398127
398127
398128
398128
398130
398130
398132
398132
398134
398107
398113
398115
398119
398121
398123
398124
398124
398125
398126
398126
398127
398127
398128
398128
398129
398130
398132
398132
398134
398108
398113
398116
398119
398121
398123
398124
398124
398125
398126
398126
398126
398127
398127
398128
398129
398130
398132
398131
398133
398108
398113
398116
398119
398121
398123
398124
398124
398125
398126
398126
398126
398127
398127
398128
398129
398130
398131
398131
398133
398109
398114
398116
398120
398122
398123
398124
398124
398125
398126
398126
398127
398127
398128
398128
398129
398130
398132
398131
398133
398110
398115
398117
398120
398122
398123
398124
398125
398125
398126
398126
398127
398127
398128
398128
398130
398130
398132
398131
398133
398111
398116
398118
398121
398123
398124
398124
398125
398126
398126
398127
398127
398128
398128
398129
398130
398130
398132
398132
398134
398113
398117
398119
398122
398124
398125
398125
398126
398126
398127
398127
398128
398128
398129
398129
398130
398131
398133
398132
398134
398114
398118
398120
398123
398125
398125
398126
398126
398127
398127
398128
398128
398129
398129
398130
398131
398132
398133
398133
398135
398116
398120
398122
398124
398126
398127
398127
398127
398128
398128
398129
398129
398130
398130
398131
398132
398133
398134
398134
398136
398118
398121
398123
398126
398127
398128
398128
398128
398129
398129
398130
398130
398131
398131
398132
398133
398134
398135
398135
398136
398120
398123
398125
398127
398129
398129
398130
398130
398130
398130
398131
398131
398132
398133
398133
398134
398135
398137
398136
398138
398123
398125
398127
398129
398130
398131
398131
398131
398131
398132
398132
398133
398133
398134
398135
398136
398136
398138
398138
398139
398125
398127
398129
398131
398132
398133
398133
398133
398133
398133
398134
398134
398135
398135
398136
398137
398138
398139
398139
398140
398128
398130
398131
398133
398134
398135
398135
398135
398135
398135
398135
398136
398136
398137
398138
398139
398140
398141
398141
398142
398130
398132
398133
398135
398136
398137
398137
398137
398137
398137
398137
398138
398138
398139
398140
398141
398142
398143
398143
398144
398132
398134
398135
398136
398138
398139
398139
398139
398139
398139
398139
398140
398140
398141
398142
398143
398144
398145
398145
398146
398135
398136
398137
398138
398139
398140
398141
398141
398141
398141
398141
398142
398143
398143
398144
398145
398146
398148
398147
398148
398137
398138
398138
398140
398141
398142
398143
398143
398143
398143
398143
398144
398145
398146
398147
398148
398149
398150
398150
398150
398139
398139
398140
398141
398143
398144
398145
398145
398145
398145
398146
398146
398147
398148
398149
398150
398151
398152
398152
398153
398140
398141
398142
398143
398144
398145
398146
398147
398147
398148
398148
398149
398149
398150
398151
398153
398154
398155
398155
398155
398142
398142
398143
398144
398145
398146
398148
398149
398149
398150
398150
398151
398152
398153
398154
398155
398156
398157
398157
398157
398143
398144
398144
398145
398146
398147
398148
398150
398151
398151
398152
398153
398154
398155
398156
398157
398158
398159
398159
398159
398144
398145
398145
398145
398146
398147
398149
398150
398152
398153
398154
398155
398155
398157
398158
398159
398160
398160
398160
398160
398145
398145
398145
398146
398146
398147
398149
398151
398152
398154
398155
398156
398157
398158
398159
398160
398161
398161
398161
398161
398145
398146
398146
398146
398146
398147
398148
398150
398152
398154
398155
398157
398158
398159
398160
398161
398162
398162
398162
398162
398146
398146
398146
398146
398146
398147
398148
398149
398151
398153
398155
398157
398158
398160
398161
398162
398162
398163
398162
398162
398145
398146
398146
398146
398146
398147
398147
398148
398150
398152
398153
398155
398157
398159
398161
398162
398162
398162
398162
398162
398145
398145
398146
398146
398146
398146
398147
398148
398149
398150
398151
398153
398155
398158
398160
398161
398162
398162
398162
398162
398145
398145
398145
398146
398146
398146
398147
398147
398148
398149
398149
398151
398152
398154
398157
398159
398161
398161
398161
398161
398145
398145
398145
398145
398146
398146
398146
398147
398147
398148
398148
398149
398150
398151
398152
398154
398156
398158
398158
398158
398144
398144
398145
398145
398145
398146
398146
398146
398147
398147
398148
398148
398148
398149
398150
398150
398151
398153
398155
398155
398144
398144
398144
398144
398145
398145
398145
398146
398146
398147
398147
398147
398148
398148
398148
398149
398149
398150
398150
398151
398144
398144
398144
398144
398144
398145
398145
398145
398146
398146
398146
398147
398147
398147
398148
398148
398148
398148
398148
398149
398143
398143
398143
398143
398144
398144
398144
398145
398145
398145
398146
398146
398146
398147
398147
398147
398147
398147
398148
398148
398143
398143
398143
398143
398143
398143
398144
398144
398144
398144
398145
398145
398146
398146
398146
398146
398147
398147
398147
398147
398142
398142
398142
398142
398143
398143
398143
398143
398143
398144
398144
398144
398145
398145
398145
398146
398146
398146
398146
398146
398142
398142
398142
398142
398142
398142
398142
398143
398143
398143
398143
398144
398144
398144
398144
398145
398145
398145
398145
398145
398141
398141
398141
398141
398141
398142
398142
398142
398142
398142
398143
398143
398143
398143
398144
398144
398144
398144
398144
398144
398141
398141
398141
398141
398141
398141
398141
398141
398141
398142
398142
398142
398142
398143
398143
398143
398143
398143
398143
398143
398140
398140
398140
398140
398140
398140
398140
398141
398141
398141
398141
398141
398142
398142
398142
398142
398142
398142
398142
398143
398139
398139
398139
398139
398140
398140
398140
398140
398140
398140
398140
398141
398141
398141
398141
398141
398141
398141
398142
398142
398139
398139
398139
398139
398139
398139
398139
398139
398139
398140
398140
398140
398140
398140
398140
398140
398140
398141
398141
398141
398138
398138
398138
398138
398138
398138
398138
398139
398139
398139
398139
398139
398139
398139
398139
398140
398140
398140
398140
398140
398137
398137
398137
398137
398138
398138
398138
398138
398138
398138
398138
398138
398138
398139
398139
398139
398139
398139
398139
398139
398137
398137
398137
398137
398137
398137
398137
398137
398137
398137
398138
398138
398138
398138
398138
398138
398138
398138
398138
398138
398136
398136
398136
398136
398136
398136
398136
398137
398137
398137
398137
398137
398137
398137
398137
398137
398137
398137
398138
398138
398136
398135
398135
398135
398136
398136
398136
398136
398136
398136
398136
398136
398136
398136
398136
398137
398137
398137
398137
398137
398135
398135
398135
398135
398135
398135
398135
398135
398135
398135
398135
398136
398136
398136
398136
398136
398136
398136
398136
398136
398134
398134
398134
398134
398134
398134
398135
398135
398135
398135
398135
398135
398135
398135
398135
398135
398135
398135
398135
398135
398134
398134
398134
398134
398134
398134
398134
398134
398134
398134
398134
398134
398134
398134
398134
398134
398134
398134
398135
398135
398133
398133
398133
398133
398133
398133
398133
398133
398133
398133
398134
398134
398134
398134
398134
398134
398134
398134
398134
398134
398133
398133
398133
398133
398133
398133
398133
398133
398133
398133
398133
398133
398133
398133
398133
398133
398133
398133
398133
398133
398132
398132
398132
398132
398132
398132
398132
398132
398132
398132
398132
398132
398132
398132
398132
398132
398132
398132
398132
398133
398131
398131
398131
398131
398131
398131
398131
398131
398131
398131
398132
398132
398132
398132
398132
398132
398132
398132
398132
398132
398131
398131
398131
398131
398131
398131
398131
398131
398131
398131
398131
398131
398131
398131
398131
398131
398131
398131
398131
398131
398130
398130
398130
398130
398130
398130
398130
398130
398130
398130
398130
398130
398130
398130
398130
398130
398130
398130
398130
398131
398130
398129
398129
398129
398129
398129
398129
398129
398129
398130
398130
398130
398130
398130
398130
398130
398130
398130
398130
398130
398129
398129
398129
398129
398129
398129
398129
398129
398129
398129
398129
398129
398129
398129
398129
398129
398129
398129
398129
398129
398128
398128
398128
398128
398128
398128
398128
398128
398128
398128
398128
398128
398128
398128
398128
398128
398128
398129
398129
398129
398128
398127
398127
398127
398127
398127
398127
398127
398127
398128
398128
398128
398128
398128
398128
398128
398128
398128
398128
398128
398127
398127
398127
398127
398127
398127
398127
398127
398127
398127
398127
398127
398127
398127
398127
398127
398127
398127
398127
398128
398126
398126
398126
398126
398126
398126
398126
398126
398126
398126
398126
398126
398126
398126
398127
398127
398127
398127
398127
398127
398126
398125
398125
398125
398125
398125
398125
398126
398126
398126
398126
398126
398126
398126
398126
398126
398126
398126
398126
398126
398125
398125
398125
398125
398125
398125
398125
398125
398125
398125
398125
398125
398125
398125
398125
398125
398125
398125
398125
398126
398124
398124
398124
398124
398124
398124
398124
398124
398124
398124
398124
398124
398125
398125
398125
398125
398125
398125
398125
398125
398124
398123
398123
398123
398123
398124
398124
398124
398124
398124
398124
398124
398124
398124
398124
398124
398124
398124
398124
398124
398123
398123
398123
398123
398123
398123
398123
398123
398123
398123
398123
398123
398123
398123
398123
398123
398123
398123
398124
398124
398122
398122
398122
398122
398122
398122
398122
398122
398122
398122
398123
398123
398123
398123
398123
398123
398123
398123
398123
398123
398122
398122
398122
398122
398122
398122
398122
398122
398122
398122
398122
398122
398122
398122
398122
398122
398122
398122
398122
398123
398121
398121
398121
398121
398121
398121
398121
398121
398121
398121
398121
398121
398121
398121
398121
398122
398122
398122
398122
398122
398121
398120
398120
398120
398120
398120
398121