/*--------------------------------*- C++ -*----------------------------------*\
  =========                 |
  \\      /  F ield         | OpenFOAM: The Open Source CFD Toolbox
   \\    /   O peration     | Website:  https://openfoam.org
    \\  /    A nd           | Version:  8
     \\/     M anipulation  |
\*---------------------------------------------------------------------------*/
FoamFile
{
    version     2.0;
    format      ascii;
    class       surfaceScalarField;
    location    "500";
    object      phi;
}
// * * * * * * * * * * * * * * * * * * * * * * * * * * * * * * * * * * * * * //

dimensions      [1 0 -1 0 0 0 0];

internalField   nonuniform List<scalar> 
16360
(
-2.35067
-0.0331146
-2.31961
-0.0310448
-2.28256
-0.0370748
-2.23281
-0.0497275
-2.16978
-0.0629235
-2.09639
-0.073402
-2.01426
-0.0821143
-1.92554
-0.0887298
-1.83333
-0.0922715
-1.73783
-0.0955571
-1.63838
-0.0994881
-1.5406
-0.0978526
-1.45128
-0.0893604
-1.3734
-0.0779458
-1.30853
-0.0649523
-1.26335
-0.0452803
-1.24729
-0.0161844
-1.25295
0.00562837
-1.27072
0.0178291
-1.29889
0.0282307
-1.3357
0.0368439
-1.37611
0.0404209
-1.41264
0.0365027
-1.43671
0.0240669
-1.4397
0.00304261
-1.4148
-0.0248472
-1.36778
-0.0470181
-1.32392
-0.0438766
-1.30089
-0.023021
-1.30128
0.000440942
-1.31162
0.010371
-1.3196
0.00801049
-1.31831
-0.00128267
-1.307
-0.0113293
-1.29061
-0.0164284
-1.274
-0.0166258
-1.25751
-0.016506
-1.23515
-0.0223652
-1.20025
-0.034904
-1.15115
-0.049107
-1.09353
-0.0576274
-1.03483
-0.0586828
-0.977466
-0.0573694
-0.921531
-0.0558901
-0.868291
-0.0532244
-0.818191
-0.0500928
-0.771095
-0.0470906
-0.72696
-0.0441432
-0.685567
-0.041429
-0.0393904
-0.646181
-0.315548
-0.15438
-0.310703
-0.0361645
-0.320964
-0.0266951
-0.318055
-0.0525622
-0.29184
-0.089224
-0.239684
-0.12547
-0.16718
-0.154508
-0.0842331
-0.171725
-0.00236183
-0.17423
0.0600979
-0.158077
0.0867608
-0.12598
0.0784722
-0.0895848
0.0413409
-0.0521752
-0.029742
-0.00669786
-0.127722
0.0332723
-0.237714
0.0651186
-0.354631
0.100664
-0.484566
0.135305
-0.632097
0.165362
-0.786715
0.182931
-0.935756
0.185926
-1.0707
0.175321
-1.1848
0.150545
-1.27079
0.110021
-1.31989
0.0521225
-1.3147
-0.0300642
-1.26619
-0.0956202
-1.24025
-0.0697957
-1.24462
-0.0186156
-1.26986
0.0257208
-1.29413
0.0346273
-1.30694
0.0207502
-1.30313
-0.00515949
-1.28405
-0.0303492
-1.26194
-0.038468
-1.2452
-0.0333601
-1.23355
-0.0282588
-1.21567
-0.0402952
-1.18067
-0.0698699
-1.12643
-0.103331
-1.06428
-0.119832
-1.00581
-0.11714
-0.949764
-0.113436
-0.894238
-0.111313
-0.842062
-0.105333
-0.793395
-0.0988005
-0.747725
-0.092813
-0.705165
-0.0866729
-0.665546
-0.0810168
-0.0760412
-0.628883
0.962512
-0.191143
0.993904
-0.0675319
1.02901
-0.0617185
1.06083
-0.0844367
1.09037
-0.118733
1.11943
-0.154535
1.14769
-0.182883
1.17293
-0.197078
1.19216
-0.19349
1.2051
-0.171112
1.21159
-0.132472
1.20524
-0.0832696
1.18143
-0.0284367
1.14636
0.0282596
1.0969
0.0824641
1.02762
0.134333
0.943323
0.185153
0.848008
0.230703
0.746434
0.266996
0.637572
0.291826
0.518729
0.304742
0.387953
0.306047
0.242112
0.296384
0.0748421
0.277312
-0.125352
0.252391
-0.38751
0.232169
-0.675789
0.192617
-0.910633
0.164772
-1.06715
0.137887
-1.16177
0.120406
-1.22498
0.0978749
-1.2614
0.0571508
-1.26281
-0.00378448
-1.22763
-0.0654679
-1.19806
-0.0679337
-1.18971
-0.0416442
-1.19336
-0.0245838
-1.18436
-0.0493225
-1.14711
-0.107164
-1.08061
-0.169838
-1.01148
-0.188972
-0.959206
-0.169311
-0.90807
-0.16459
-0.852934
-0.166473
-0.803555
-0.154667
-0.757669
-0.144693
-0.713948
-0.136559
-0.673274
-0.127405
-0.635168
-0.119087
-0.111109
-0.600088
2.12101
-0.0927942
2.15345
-0.099923
2.2039
-0.112137
2.26001
-0.14056
2.31357
-0.17227
2.35809
-0.199031
2.39
-0.214816
2.4085
-0.215597
2.41462
-0.199586
2.41055
-0.167048
2.39816
-0.12009
2.37709
-0.0621952
2.34653
0.00212979
2.3077
0.0671049
2.26028
0.129864
2.20295
0.191638
2.1381
0.249995
2.06696
0.301866
1.98967
0.344331
1.90577
0.375748
1.81463
0.395883
1.71524
0.405435
1.60578
0.40587
1.48321
0.399849
1.34389
0.391598
1.18977
0.386211
1.0115
0.37099
0.822531
0.353826
0.621967
0.338465
0.415202
0.32714
0.197629
0.315428
-0.0437705
0.298558
-0.325714
0.278086
-0.617234
0.225893
-0.848172
0.16306
-0.988493
0.0987346
-1.05377
0.0407215
-1.06586
-0.037298
-1.02794
-0.145124
-0.955223
-0.242593
-0.900632
-0.243593
-0.877272
-0.192676
-0.841173
-0.200728
-0.787172
-0.220509
-0.747576
-0.194242
-0.708601
-0.183759
-0.669316
-0.17596
-0.633052
-0.163628
-0.598109
-0.15399
-0.14331
-0.565913
4.08477
-0.0213807
4.02293
-0.038059
3.96301
-0.0521969
3.89585
-0.0733855
3.82031
-0.0967035
3.73781
-0.116541
3.65172
-0.128745
3.56647
-0.130342
3.48666
-0.119764
3.41649
-0.0969008
3.35917
-0.0627826
3.31587
-0.0189123
3.28353
0.0344599
3.25309
0.0975498
3.21699
0.165977
3.1747
0.233939
3.12704
0.297661
3.07469
0.354226
3.01763
0.401374
2.95541
0.437917
2.88744
0.463808
2.81288
0.47997
2.73053
0.488238
2.63902
0.491378
2.53788
0.492743
2.42942
0.494639
2.30606
0.494354
2.16776
0.492164
2.01731
0.488939
1.85839
0.486053
1.69145
0.482382
1.51433
0.475735
1.32825
0.464278
1.12486
0.429185
0.911484
0.376328
0.691831
0.318369
0.467042
0.265518
0.210031
0.219629
-0.120156
0.184912
-0.456784
0.0940969
-0.670052
-0.0303245
-0.726381
-0.13636
-0.708442
-0.218621
-0.668825
-0.260139
-0.659118
-0.204017
-0.634748
-0.208144
-0.604862
-0.205858
-0.5783
-0.190164
-0.548997
-0.183315
-0.170421
-0.52187
2.74305
0.0290975
2.6926
0.0124085
2.6515
-0.0111238
2.61115
-0.0329978
2.56955
-0.0550694
2.52647
-0.0734677
2.48251
-0.084773
2.43895
-0.0867473
2.39753
-0.0783019
2.36008
-0.0594253
2.32827
-0.0309397
2.30365
0.0057353
2.28931
0.0488374
2.29055
0.0963409
2.30921
0.147337
2.34195
0.201212
2.38315
0.256465
2.42678
0.310589
2.46742
0.360725
2.50082
0.404512
2.52408
0.440569
2.53539
0.468681
2.53384
0.489799
2.51946
0.505788
2.49325
0.518971
2.45676
0.531132
2.40873
0.542377
2.34804
0.552868
2.2743
0.56268
2.18859
0.571752
2.09179
0.579173
1.98445
0.583099
1.86847
0.580308
1.7335
0.564196
1.57581
0.534049
1.3992
0.494954
1.21146
0.45322
1.0191
0.411951
0.832855
0.371127
0.629256
0.297623
0.387784
0.211111
0.0919745
0.159433
-0.234939
0.108312
-0.462689
-0.0325172
-0.524072
-0.142724
-0.509811
-0.222407
-0.503523
-0.212142
-0.497603
-0.19612
-0.479013
-0.201908
-0.187271
-0.462158
2.46579
0.0877333
2.41811
0.0600588
2.37484
0.0321658
2.3338
0.00806809
2.29197
-0.0132888
2.24936
-0.0308602
2.20648
-0.0418729
2.16428
-0.0445227
2.12409
-0.0380976
2.08737
-0.0227265
2.05547
0.00091249
2.02927
0.0318726
2.00906
0.0690145
1.9952
0.110168
1.98864
0.153852
1.99044
0.199384
2.00105
0.245858
2.01962
0.292029
2.044
0.336359
2.07117
0.377341
2.09792
0.413826
2.12133
0.445296
2.13916
0.471976
2.15018
0.494781
2.15413
0.515025
2.15127
0.533974
2.14126
0.552379
2.12342
0.570713
2.09709
0.589038
2.06193
0.606962
2.01758
0.623561
1.96342
0.637252
1.89814
0.645581
1.81707
0.645299
1.71616
0.634992
1.59538
0.615709
1.45906
0.589469
1.31373
0.557308
1.16708
0.517804
1.00327
0.461444
0.818994
0.395361
0.641179
0.33719
0.479437
0.269944
0.267129
0.179756
-0.00119732
0.125606
-0.237508
0.0139729
-0.353444
-0.0962727
-0.369429
-0.180179
-0.372167
-0.199164
-0.184054
-0.375405
1.96623
0.137238
1.91665
0.109612
1.87208
0.0767876
1.83369
0.0464679
1.7999
0.020465
1.76797
0.00109033
1.73704
-0.0109134
1.70709
-0.0145817
1.6786
-0.00960648
1.65241
0.00349159
1.62957
0.0238241
1.61055
0.050965
1.59691
0.0827106
1.58984
0.117271
1.5894
0.154317
1.5954
0.193392
1.60731
0.23395
1.6242
0.275161
1.64476
0.315836
1.66748
0.354683
1.69077
0.390585
1.71313
0.422937
1.73328
0.451777
1.75038
0.477656
1.76405
0.501392
1.77418
0.523909
1.78058
0.546026
1.78295
0.568358
1.78083
0.591147
1.77366
0.614156
1.76056
0.636702
1.74024
0.657593
1.71075
0.675079
1.66895
0.687088
1.6119
0.692023
1.53855
0.689041
1.45035
0.677664
1.35035
0.6573
1.24135
0.626762
1.11917
0.583633
0.984141
0.53043
0.848978
0.472325
0.713585
0.405308
0.564769
0.328574
0.432227
0.258179
0.281676
0.164479
0.0861208
0.0992317
-0.105849
0.0118411
-0.216612
-0.0883356
-0.156462
-0.244258
1.4908
0.192301
1.44234
0.158127
1.39935
0.119762
1.36288
0.0828942
1.33373
0.0496627
1.3102
0.0246669
1.28872
0.0106247
1.26782
0.00637585
1.24764
0.0106155
1.2287
0.0224218
1.21087
0.0416192
1.19587
0.0659116
1.1861
0.0924268
1.18236
0.120973
1.1852
0.15147
1.19438
0.18421
1.20898
0.219363
1.22767
0.256504
1.24901
0.294514
1.27164
0.332037
1.2945
0.367725
1.31686
0.400604
1.33816
0.430507
1.35797
0.457864
1.37603
0.483317
1.39225
0.507656
1.4066
0.531657
1.41904
0.55592
1.42939
0.580794
1.43726
0.606311
1.44183
0.632125
1.44189
0.657508
1.43569
0.681276
1.42093
0.70186
1.39539
0.717565
1.35774
0.726684
1.30785
0.727551
1.24654
0.718624
1.17464
0.698639
1.09155
0.666754
0.998336
0.623652
0.899792
0.570848
0.79683
0.50829
0.688379
0.437059
0.584645
0.361884
0.471453
0.277633
0.369378
0.201328
0.262489
0.118767
0.119551
0.0545845
-0.0173008
-0.0196787
0.946367
0.257397
0.898344
0.206226
0.857356
0.160752
0.825452
0.114783
0.801246
0.0739423
0.783859
0.042029
0.772094
0.022279
0.762355
0.0160391
0.751329
0.0216418
0.737956
0.0358258
0.725776
0.0538152
0.718496
0.0731905
0.716964
0.0939453
0.722319
0.115614
0.735129
0.138671
0.754935
0.164402
0.780025
0.194238
0.807989
0.228493
0.836879
0.265621
0.865259
0.303699
0.892575
0.340452
0.919156
0.374032
0.945116
0.404554
0.970095
0.432894
0.993835
0.4596
1.01621
0.485295
1.03723
0.510601
1.05702
0.53607
1.07567
0.562119
1.09304
0.588942
1.10866
0.616495
1.12169
0.644456
1.13087
0.672098
1.13461
0.69816
1.13125
0.720945
1.11953
0.738428
1.09866
0.748419
1.0684
0.748885
1.02873
0.738282
0.97966
0.715793
0.921953
0.681343
0.857435
0.635399
0.787078
0.578671
0.711708
0.512392
0.634538
0.439031
0.55274
0.359467
0.474129
0.279974
0.392861
0.200015
0.31902
0.128375
0.0631171
0.23856
0.304919
0.304349
0.259923
0.251114
0.230364
0.190248
0.208763
0.136476
0.187191
0.0955199
0.16409
0.0650404
0.142686
0.0435874
0.127242
0.0314458
0.120851
0.0280061
0.12688
0.0297818
0.14721
0.0334679
0.180716
0.0396803
0.22411
0.0504946
0.273517
0.0661013
0.325728
0.0864206
0.375986
0.114183
0.417716
0.152564
0.449676
0.196576
0.475953
0.239352
0.49916
0.280489
0.52152
0.318089
0.546308
0.349231
0.573704
0.377132
0.601834
0.404727
0.629771
0.431641
0.656912
0.458172
0.683057
0.484487
0.708341
0.51081
0.732928
0.537573
0.756891
0.565015
0.780052
0.593335
0.801966
0.622534
0.821774
0.652243
0.838444
0.681417
0.850873
0.708467
0.85806
0.731271
0.85908
0.747408
0.853293
0.754646
0.840271
0.751283
0.819812
0.736239
0.792137
0.709035
0.757808
0.669737
0.717354
0.619079
0.671431
0.558291
0.621191
0.489298
0.56654
0.414146
0.510037
0.336487
0.451133
0.258907
0.393646
0.185845
0.119653
0.337102
-0.472978
0.297352
-0.493666
0.271786
-0.521857
0.218498
-0.548043
0.162715
-0.564316
0.111679
-0.566732
0.067333
-0.55448
0.0313159
-0.528072
0.00509692
-0.488066
-0.0119702
-0.435363
-0.0229764
-0.372609
-0.0294001
-0.3031
-0.0298872
-0.230074
-0.0224969
-0.158958
-0.0049543
-0.0989273
0.0264288
-0.0596682
0.0749195
-0.0330598
0.125925
-0.00184239
0.165329
0.0377108
0.199773
0.0826872
0.235534
0.130109
0.270652
0.175836
0.303465
0.217541
0.335403
0.255134
0.367149
0.289393
0.397405
0.321196
0.426355
0.35127
0.454379
0.380244
0.481783
0.408696
0.509092
0.436987
0.536672
0.465291
0.564956
0.493454
0.594358
0.520754
0.624964
0.54668
0.655496
0.570588
0.684526
0.591801
0.710008
0.609584
0.729561
0.623246
0.74097
0.632037
0.742539
0.635392
0.73291
0.633038
0.711363
0.624893
0.677846
0.610979
0.632978
0.591443
0.577848
0.566615
0.51414
0.536713
0.444052
0.502692
0.370511
0.465058
0.296525
0.425404
0.225486
0.160269
0.384802
-0.987964
0.274317
-0.966621
0.250479
-0.953569
0.205498
-0.944916
0.154037
-0.937274
0.103978
-0.929721
0.0597272
-0.921783
0.0233664
-0.911916
-0.00477077
-0.897883
-0.026016
-0.878781
-0.0420922
-0.854604
-0.0535992
-0.824458
-0.0600594
-0.786541
-0.0604278
-0.738267
-0.053227
-0.675516
-0.0363266
-0.592626
-0.00801947
-0.499301
0.0325248
-0.41675
0.0827273
-0.35
0.133001
-0.291967
0.177524
-0.239335
0.218046
-0.191372
0.255532
-0.146707
0.290723
-0.103825
0.324224
-0.0622762
0.355836
-0.0218566
0.385908
0.0175668
0.414929
0.0561175
0.443179
0.0940145
0.471195
0.130807
0.499909
0.166052
0.529726
0.200174
0.560205
0.233583
0.591472
0.266528
0.622446
0.299109
0.651901
0.331157
0.677966
0.362262
0.698499
0.39186
0.711411
0.418727
0.715647
0.441988
0.709607
0.461111
0.692203
0.47559
0.663363
0.484906
0.623665
0.488762
0.573991
0.487053
0.515848
0.479773
0.451324
0.467227
0.383039
0.449818
0.31392
0.428333
0.246974
0.184897
0.40372
-1.29557
0.236762
-1.25884
0.213728
-1.22983
0.176497
-1.20946
0.133608
-1.19676
0.0912266
-1.19011
0.053054
-1.18738
0.020611
-1.18623
-0.00594808
-1.18494
-0.0273287
-1.1825
-0.0445384
-1.1781
-0.0579969
-1.17082
-0.0673473
-1.15939
-0.0718627
-1.14208
-0.0705402
-1.11631
-0.0620982
-1.07896
-0.0453702
-1.02669
-0.0197442
-0.958498
0.0145501
-0.882186
0.0567052
-0.806034
0.101382
-0.732041
0.144054
-0.661227
0.184731
-0.59401
0.223529
-0.530286
0.260529
-0.470005
0.295601
-0.412976
0.328925
-0.358869
0.360888
-0.3075
0.391838
-0.25853
0.422195
-0.211181
0.452461
-0.164453
0.482916
-0.117752
0.513457
-0.0704849
0.544174
-0.0224128
0.57435
0.0264879
0.603026
0.0754907
0.628958
0.122967
0.651001
0.168016
0.666342
0.210627
0.673008
0.250543
0.66969
0.287944
0.654773
0.322022
0.629272
0.351529
0.594163
0.375924
0.549599
0.394822
0.49694
0.407937
0.438184
0.415196
0.375767
0.416659
0.312463
0.412611
0.251037
0.193908
0.403618
-1.5145
0.19356
-1.47685
0.176084
-1.44831
0.147915
-1.4297
0.114943
-1.4199
0.0814136
-1.41681
0.0499692
-1.41816
0.0219596
-1.42204
-0.0020674
-1.42725
-0.0221142
-1.4331
-0.0386881
-1.43888
-0.0521963
-1.44381
-0.062405
-1.44688
-0.0687983
-1.44675
-0.0706719
-1.44165
-0.0671986
-1.42943
-0.05761
-1.40774
-0.0414303
-1.37449
-0.0186774
-1.3278
0.0100411
-1.27044
0.0440286
-1.20685
0.0804604
-1.13908
0.11696
-1.06881
0.153278
-0.997377
0.189141
-0.925973
0.22424
-0.855451
0.258427
-0.786285
0.291745
-0.718774
0.324336
-0.653014
0.356413
-0.58874
0.388131
-0.525357
0.419495
-0.462344
0.450429
-0.399007
0.480844
-0.334878
0.510216
-0.269646
0.537796
-0.203222
0.56251
-0.135567
0.583324
-0.0676305
0.598356
-0.000768988
0.606087
0.0633175
0.605593
0.121877
0.596196
0.173591
0.577556
0.220152
0.547583
0.262243
0.50748
0.2992
0.459959
0.330448
0.406918
0.355614
0.350597
0.374366
0.293727
0.386513
0.238915
0.188237
0.392205
-1.70518
0.155404
-1.6721
0.143011
-1.64715
0.122944
-1.63082
0.0986224
-1.62223
0.072835
-1.61983
0.0476014
-1.62206
0.0242154
-1.62756
0.00344272
-1.63532
-0.0143566
-1.64471
-0.0293141
-1.65518
-0.0417318
-1.66607
-0.0515148
-1.67655
-0.0583296
-1.68552
-0.0617044
-1.69163
-0.0610972
-1.69325
-0.0560087
-1.6886
-0.0461081
-1.67594
-0.0313479
-1.6539
-0.0120101
-1.62127
0.0113914
-1.57904
0.0382001
-1.52909
0.0669977
-1.47249
0.0966643
-1.41026
0.126921
-1.34356
0.157529
-1.27343
0.188284
-1.20075
0.219059
-1.12621
0.24979
-1.05025
0.280445
-0.973087
0.31095
-0.894756
0.341163
-0.815217
0.370888
-0.734211
0.399848
-0.651548
0.427559
-0.56718
0.453395
-0.481286
0.476556
-0.39408
0.496095
-0.306366
0.51061
-0.219194
0.518899
-0.133596
0.519998
-0.0510387
0.513618
0.0266436
0.49986
0.0960581
0.478149
0.155046
0.448476
0.207311
0.407681
0.25434
0.359887
0.295495
0.309449
0.329898
0.259333
0.356762
0.212074
0.169215
0.375818
-1.8895
0.120965
-1.85896
0.112464
-1.83463
0.098608
-1.81731
0.0813177
-1.80681
0.0623306
-1.80234
0.0431282
-1.80293
0.0247874
-1.80754
0.00802602
-1.8152
-0.00672029
-1.82526
-0.0192586
-1.83728
-0.0297026
-1.85063
-0.038156
-1.86455
-0.0444192
-1.87811
-0.0481764
-1.89018
-0.0490763
-1.89945
-0.0467936
-1.90449
-0.041109
-1.90386
-0.0319797
-1.8963
-0.0195513
-1.88078
-0.0041127
-1.85663
0.0140357
-1.82407
0.0343996
-1.78367
0.0562245
-1.73581
0.0790556
-1.68099
0.102706
-1.61974
0.127034
-1.55262
0.151929
-1.48013
0.177302
-1.40275
0.203058
-1.32085
0.229053
-1.23476
0.255085
-1.14477
0.280886
-1.05106
0.30611
-0.953786
0.33029
-0.853257
0.352852
-0.749835
0.373112
-0.644001
0.39027
-0.536751
0.40335
-0.429336
0.411484
-0.323356
0.414018
-0.220434
0.410676
-0.121757
0.401155
-0.0291471
0.385508
0.0545989
0.364719
0.124843
0.337447
0.185288
0.29947
0.240504
0.254255
0.28894
0.210896
0.328866
0.172128
0.138448
0.359649
-2.06985
0.0848899
-2.0374
0.0800329
-2.01009
0.0713095
-1.98887
0.0600893
-1.97401
0.0474518
-1.96526
0.0343622
-1.96206
0.0215795
-1.96368
0.00964976
-1.96931
-0.00105676
-1.97821
-0.0103098
-1.98979
-0.018097
-2.00348
-0.0244804
-2.01857
-0.0293702
-2.0342
-0.0325919
-2.04937
-0.0339336
-2.06294
-0.0332168
-2.07369
-0.0303332
-2.08039
-0.0252587
-2.08188
-0.0180578
-2.07713
-0.00886794
-2.06525
0.00214108
-2.0457
0.0148438
-2.01839
0.0289072
-1.98327
0.0439333
-1.94036
0.0597648
-1.88968
0.0763278
-1.83131
0.0935624
-1.76537
0.111398
-1.69205
0.129752
-1.61152
0.148523
-1.524
0.16757
-1.42979
0.18667
-1.3292
0.205517
-1.22262
0.223722
-1.11061
0.240828
-0.993802
0.2563
-0.873046
0.269526
-0.749561
0.279848
-0.624783
0.286686
-0.500403
0.289607
-0.378146
0.288392
-0.259918
0.282913
-0.147719
0.273309
-0.0430167
0.260032
0.0501954
0.244267
0.128032
0.221688
0.19576
0.18657
0.256657
0.150019
0.307502
0.121246
0.0982109
0.347741
-2.23745
0.0447334
-2.20011
0.0427063
-2.16729
0.0384887
-2.14012
0.0329124
-2.11921
0.0265282
-2.10465
0.0198175
-2.0962
0.0131661
-2.09337
0.00685872
-2.0955
0.00109678
-2.10184
-0.00397182
-2.1117
-0.00826068
-2.12445
-0.0117693
-2.13932
-0.0144979
-2.15551
-0.0163848
-2.17207
-0.0173482
-2.18797
-0.0173079
-2.20211
-0.0162076
-2.21335
-0.0140324
-2.22059
-0.010811
-2.22283
-0.00661243
-2.21917
-0.00151688
-2.20879
0.00443193
-2.19112
0.0111922
-2.1658
0.0186057
-2.13254
0.0265217
-2.09106
0.0348744
-2.04113
0.0436376
-1.98254
0.0528065
-1.91515
0.0623584
-1.83882
0.0722286
-1.75355
0.0823278
-1.65945
0.0925575
-1.5567
0.102765
-1.44566
0.112716
-1.32696
0.122135
-1.20139
0.130731
-1.07003
0.138162
-0.934269
0.144074
-0.795769
0.148165
-0.656403
0.150208
-0.518123
0.150086
-0.382985
0.147768
-0.253062
0.143397
-0.130409
0.137413
-0.0168211
0.130725
0.0816612
0.123235
0.165962
0.102304
0.238031
0.077971
0.297035
0.0622113
0.0511527
0.344097
-2.36893
-2.32621
-2.28772
-2.2548
-2.22826
-2.20843
-2.19526
-2.18841
-2.18732
-2.19129
-2.19955
-2.21132
-2.22582
-2.2422
-2.25955
-2.27685
-2.29306
-2.3071
-2.31792
-2.32456
-2.32609
-2.32165
-2.31044
-2.29182
-2.26532
-2.23046
-2.18681
-2.13398
-2.07163
-1.99942
-1.91706
-1.82449
-1.72173
-1.609
-1.48686
-1.35614
-1.21799
-1.07393
-0.925783
-0.775585
-0.625497
-0.477718
-0.334299
-0.196847
-0.0660845
0.0571509
0.159448
0.237409
0.299595
0.350729
0.0081211
-0.000163012
0.00815755
-4.98447e-05
0.00817471
-3.19947e-05
0.00816918
-8.18913e-06
0.00814806
7.51702e-06
0.00811844
1.59252e-05
0.00808407
2.05924e-05
0.00804676
2.34357e-05
0.00800756
2.5224e-05
0.00796714
2.63427e-05
0.00792595
2.70346e-05
0.00788429
2.74434e-05
0.0078424
2.76473e-05
0.00780043
2.76932e-05
0.00775854
2.76183e-05
0.00771677
2.74722e-05
0.0076751
2.73373e-05
0.00763336
2.73679e-05
0.00759098
2.79243e-05
0.00754784
2.85599e-05
0.00750362
2.95312e-05
0.00745936
2.94614e-05
0.00741575
2.88122e-05
0.00737312
2.76604e-05
0.00733161
2.63559e-05
0.00729131
2.50007e-05
0.00725215
2.37464e-05
0.00721401
2.26569e-05
0.00717672
2.1748e-05
0.00714015
2.09842e-05
0.00710422
2.02893e-05
0.00706889
1.96359e-05
0.00703411
1.90132e-05
0.00699984
1.84088e-05
0.00696609
1.77777e-05
0.00693292
1.70538e-05
0.00690046
1.61966e-05
0.00686887
1.51721e-05
0.00683833
1.39698e-05
0.00680909
1.25602e-05
0.00678141
1.0901e-05
0.00675565
8.90451e-06
0.00673231
6.43369e-06
0.00671199
3.35448e-06
0.00669551
-5.08709e-07
0.00668395
-5.46269e-06
0.00667903
-1.2103e-05
0.00668366
-2.16097e-05
0.00670298
-3.62294e-05
-6.01783e-05
0.00674634
0.00787097
-8.93033e-05
0.00783616
-4.07607e-05
0.00778885
-1.03593e-05
0.00775525
5.49379e-07
0.00772883
9.02016e-06
0.00770523
1.44592e-05
0.00768315
1.7436e-05
0.00766212
1.9069e-05
0.00764182
1.99749e-05
0.00762208
2.04262e-05
0.0076028
2.05739e-05
0.00758393
2.05318e-05
0.0075654
2.03785e-05
0.00754712
2.01675e-05
0.00752899
1.99393e-05
0.00751089
1.97272e-05
0.00749273
1.95654e-05
0.00747454
1.95015e-05
0.00745643
1.97732e-05
0.0074373
2.13005e-05
0.00741869
2.17602e-05
0.00740141
2.04559e-05
0.00738536
1.85183e-05
0.00736989
1.65086e-05
0.00735462
1.4767e-05
0.00733929
1.3306e-05
0.00732368
1.22247e-05
0.00730766
1.14637e-05
0.00729117
1.0955e-05
0.00727422
1.05847e-05
0.00725685
1.02141e-05
0.00723916
9.78047e-06
0.00722126
9.21278e-06
0.00720334
8.45692e-06
0.00718552
7.50481e-06
0.0071679
6.32909e-06
0.00715062
4.90044e-06
0.00713382
3.1694e-06
0.00711775
1.05017e-06
0.00710272
-1.55692e-06
0.00708913
-4.76983e-06
0.00707744
-8.74369e-06
0.00706812
-1.36681e-05
0.00706178
-1.97701e-05
0.00705915
-2.7348e-05
0.00706106
-3.68296e-05
0.00706839
-4.8863e-05
0.00708188
-6.44989e-05
0.0071017
-8.54821e-05
-0.000114431
0.00712647
0.00787951
-2.16171e-05
0.00783754
-2.12981e-05
0.00781441
-9.8963e-06
0.00779618
-3.19584e-06
0.00778146
1.7304e-06
0.00776768
6.12653e-06
0.00775335
9.53879e-06
0.00773811
1.19571e-05
0.00772201
1.36269e-05
0.00770518
1.47392e-05
0.00768776
1.54242e-05
0.0076699
1.57978e-05
0.00765173
1.5961e-05
0.00763335
1.59851e-05
0.00761482
1.59143e-05
0.00759619
1.57829e-05
0.00757749
1.56289e-05
0.00755876
1.55084e-05
0.00753995
1.58248e-05
0.00752236
1.63928e-05
0.00750585
1.61431e-05
0.00748909
1.51211e-05
0.00747184
1.34639e-05
0.00745393
1.18613e-05
0.00743557
1.04071e-05
0.00741688
9.1523e-06
0.00739803
8.14815e-06
0.00737914
7.36254e-06
0.00736026
6.7872e-06
0.00734145
6.30824e-06
0.00732278
5.73298e-06
0.00730434
4.98811e-06
0.0072862
4.01331e-06
0.00726843
2.74519e-06
0.00725109
1.18542e-06
0.00723428
-7.02198e-07
0.00721813
-2.98513e-06
0.00720286
-5.74599e-06
0.00718868
-9.09874e-06
0.00717585
-1.31525e-05
0.00716464
-1.80426e-05
0.0071553
-2.3945e-05
0.00714814
-3.10767e-05
0.0071435
-3.97083e-05
0.00714178
-5.01937e-05
0.00714344
-6.30212e-05
0.00714897
-7.88582e-05
0.00715869
-9.8613e-05
0.00717242
-0.000123564
-0.00015542
0.00718908
0.00794061
-1.46985e-05
0.00791715
-1.9826e-05
0.0078988
-1.36909e-05
0.00788076
-6.59006e-06
0.00786166
-6.26646e-07
0.00784176
4.45902e-06
0.00782111
8.49399e-06
0.00779988
1.13911e-05
0.00777829
1.33218e-05
0.00775653
1.45117e-05
0.00773476
1.51529e-05
0.00771308
1.5403e-05
0.00769159
1.53829e-05
0.00767033
1.51728e-05
0.00764933
1.48235e-05
0.00762863
1.43715e-05
0.00760823
1.38459e-05
0.0075882
1.32965e-05
0.00756883
1.30492e-05
0.00755046
1.3075e-05
0.00753303
1.21268e-05
0.00751541
1.10573e-05
0.00749697
9.94621e-06
0.00747789
8.78935e-06
0.0074584
7.57039e-06
0.00743872
6.38432e-06
0.00741901
5.31445e-06
0.00739939
4.36105e-06
0.00737999
3.50789e-06
0.00736092
2.65521e-06
0.0073422
1.65188e-06
0.00732388
4.23433e-07
0.00730597
-1.08574e-06
0.00728849
-2.93404e-06
0.0072715
-5.15395e-06
0.00725509
-7.80744e-06
0.00723939
-1.09775e-05
0.00722455
-1.47588e-05
0.00721074
-1.92702e-05
0.00719816
-2.46413e-05
0.00718701
-3.10303e-05
0.00717753
-3.86338e-05
0.00716996
-4.76858e-05
0.00716452
-5.84657e-05
0.00716146
-7.13245e-05
0.00716097
-8.67272e-05
0.0071632
-0.000105276
0.00716812
-0.0001277
0.00717536
-0.000154858
-0.000187883
0.00718391
0.00794139
-8.50493e-06
0.00791233
-1.2618e-05
0.00788619
-9.56423e-06
0.00786282
-4.57593e-06
0.00784075
6.34523e-08
0.0078197
4.01756e-06
0.00779938
7.20547e-06
0.00777951
9.54111e-06
0.00775991
1.10816e-05
0.00774053
1.19757e-05
0.00772133
1.23814e-05
0.0077023
1.24341e-05
0.00768342
1.22367e-05
0.0076647
1.1859e-05
0.00764612
1.1344e-05
0.00762769
1.07147e-05
0.00760941
9.96826e-06
0.00759143
9.05137e-06
0.00757431
8.05417e-06
0.007558
7.7403e-06
0.00754176
6.91307e-06
0.00752497
6.15729e-06
0.00750748
5.51359e-06
0.00748946
4.70085e-06
0.00747104
3.71651e-06
0.00745236
2.67604e-06
0.00743354
1.64781e-06
0.0074147
6.35154e-07
0.00739598
-3.87654e-07
0.00737745
-1.4991e-06
0.00735916
-2.80994e-06
0.00734114
-4.40707e-06
0.00732343
-6.34579e-06
0.00730604
-8.66887e-06
0.00728902
-1.1426e-05
0.00727246
-1.47079e-05
0.00725647
-1.86264e-05
0.0072412
-2.32831e-05
0.00722681
-2.87908e-05
0.00721345
-3.52856e-05
0.0072013
-4.29353e-05
0.00719052
-5.1946e-05
0.00718128
-6.25574e-05
0.00717375
-7.50483e-05
0.00716805
-8.97495e-05
0.00716426
-0.000107066
0.00716233
-0.000127498
0.00716208
-0.000151598
0.00716313
-0.000179935
-0.000213309
0.00716461
0.00794575
-6.68557e-06
0.00792195
-1.07205e-05
0.00789989
-9.56519e-06
0.00788008
-6.12884e-06
0.00786093
-2.17329e-06
0.00784193
1.52156e-06
0.00782289
4.65251e-06
0.00780366
7.06103e-06
0.00778422
8.72288e-06
0.00776459
9.72584e-06
0.00774483
1.02013e-05
0.00772501
1.02762e-05
0.00770519
1.00527e-05
0.0076854
9.60815e-06
0.0076657
8.99396e-06
0.00764607
8.24179e-06
0.00762649
7.37742e-06
0.00760686
6.43328e-06
0.00758711
5.66244e-06
0.00756762
5.5515e-06
0.00754849
4.569e-06
0.0075293
3.64635e-06
0.00751012
2.76844e-06
0.00749101
1.70272e-06
0.00747194
5.34726e-07
0.00745288
-6.46288e-07
0.00743387
-1.81692e-06
0.00741496
-2.99873e-06
0.00739622
-4.24068e-06
0.00737767
-5.61785e-06
0.00735935
-7.22333e-06
0.00734124
-9.14045e-06
0.00732335
-1.14313e-05
0.00730572
-1.4152e-05
0.0072884
-1.73798e-05
0.00727146
-2.12249e-05
0.00725503
-2.58051e-05
0.0072392
-3.12218e-05
0.00722412
-3.75885e-05
0.00720991
-4.50416e-05
0.0071967
-5.37484e-05
0.0071846
-6.39106e-05
0.00717371
-7.57603e-05
0.00716412
-8.95632e-05
0.00715587
-0.000105624
0.00714894
-0.000124284
0.00714324
-0.000145939
0.00713852
-0.000170997
0.0071344
-0.00019984
-0.00023304
0.00713005
0.00794652
-5.62945e-06
0.00792321
-9.31223e-06
0.00790035
-8.7724e-06
0.00787892
-6.03606e-06
0.00785793
-2.53541e-06
0.00783715
8.47848e-07
0.00781655
3.70279e-06
0.0077961
5.85932e-06
0.00777579
7.291e-06
0.00775562
8.07247e-06
0.00773559
8.32626e-06
0.00771574
8.17553e-06
0.00769607
7.72405e-06
0.00767659
7.055e-06
0.00765728
6.2265e-06
0.00763812
5.27719e-06
0.00761905
4.24448e-06
0.00760003
3.16551e-06
0.0075813
2.21699e-06
0.00756302
2.13144e-06
0.00754487
1.23019e-06
0.00752657
2.43851e-07
0.00750827
-8.43657e-07
0.00749002
-2.13132e-06
0.00747175
-3.41053e-06
0.00745342
-4.64731e-06
0.00743505
-5.86603e-06
0.00741667
-7.10594e-06
0.00739831
-8.43318e-06
0.00737999
-9.93361e-06
0.00736175
-1.16992e-05
0.0073436
-1.38115e-05
0.00732555
-1.6339e-05
0.00730765
-1.93517e-05
0.00728996
-2.29547e-05
0.00727256
-2.72651e-05
0.00725554
-3.23839e-05
0.00723898
-3.84106e-05
0.00722298
-4.54557e-05
0.00720764
-5.36511e-05
0.00719305
-6.31592e-05
0.00717928
-7.41745e-05
0.00716637
-8.6918e-05
0.00715432
-0.000101636
0.00714314
-0.000118602
0.00713278
-0.0001381
0.00712313
-0.000160436
0.00711397
-0.000185938
0.00710492
-0.000214887
-0.000247687
0.00709544
0.00794687
-4.94349e-06
0.00792415
-8.52775e-06
0.00790185
-8.54249e-06
0.00788096
-6.51277e-06
0.00786066
-3.60525e-06
0.00784073
-6.6871e-07
0.00782104
1.84852e-06
0.00780152
3.75512e-06
0.00778207
5.00928e-06
0.00776267
5.66204e-06
0.0077433
5.81331e-06
0.00772395
5.57082e-06
0.00770464
5.03017e-06
0.00768538
4.27082e-06
0.00766615
3.35169e-06
0.00764694
2.31959e-06
0.00762769
1.23114e-06
0.00760836
1.59837e-07
0.00758897
-6.11807e-07
0.00756977
-3.95124e-07
0.0075507
-1.19624e-06
0.0075316
-2.35944e-06
0.00751258
-3.72326e-06
0.00749359
-5.19777e-06
0.00747458
-6.58282e-06
0.00745554
-7.89699e-06
0.00743649
-9.19042e-06
0.00741744
-1.05154e-05
0.00739843
-1.19495e-05
0.00737946
-1.35859e-05
0.00736057
-1.55168e-05
0.00734175
-1.78232e-05
0.00732303
-2.05783e-05
0.00730444
-2.38727e-05
0.00728604
-2.78194e-05
0.00726786
-3.25321e-05
0.00724998
-3.81011e-05
0.00723245
-4.46174e-05
0.00721533
-5.21848e-05
0.00719866
-6.09293e-05
0.00718251
-7.1007e-05
0.00716689
-8.26031e-05
0.00715181
-9.59285e-05
0.00713725
-0.000111213
0.00712318
-0.000128699
0.00710953
-0.000148635
0.00709619
-0.00017126
0.00708293
-0.000196845
0.00706944
-0.000225616
-0.000257804
0.00705549
0.00794684
-4.23511e-06
0.00792411
-7.76752e-06
0.00790173
-8.26279e-06
0.00788064
-6.79983e-06
0.00786006
-4.39562e-06
0.00783982
-1.85197e-06
0.00781979
3.64718e-07
0.00779992
2.03884e-06
0.00778013
3.10939e-06
0.00776041
3.60953e-06
0.00774074
3.62219e-06
0.00772113
3.24491e-06
0.00770158
2.56931e-06
0.00768212
1.67396e-06
0.00766272
6.22637e-07
0.00764336
-5.32027e-07
0.00762404
-1.73852e-06
0.00760477
-2.95464e-06
0.00758586
-3.95038e-06
0.00756761
-3.89316e-06
0.00754968
-4.77284e-06
0.00753158
-5.94744e-06
0.00751321
-7.22826e-06
0.00749454
-8.52685e-06
0.00747563
-9.81441e-06
0.00745656
-1.10758e-05
0.00743737
-1.23403e-05
0.0074181
-1.36726e-05
0.00739878
-1.51565e-05
0.00737947
-1.68818e-05
0.00736016
-1.89333e-05
0.00734088
-2.13874e-05
0.00732165
-2.43205e-05
0.00730249
-2.78402e-05
0.00728345
-3.20609e-05
0.00726454
-3.70744e-05
0.00724581
-4.29617e-05
0.00722726
-4.98063e-05
0.00720893
-5.7704e-05
0.00719084
-6.67758e-05
0.007173
-7.71736e-05
0.0071554
-8.90762e-05
0.00713802
-0.000102685
0.00712083
-0.000118215
0.00710378
-0.00013588
0.00708683
-0.00015591
0.00706985
-0.000178517
0.00705263
-0.000203913
0.007035
-0.000232267
-0.000263752
0.00701681
0.00794669
-3.3838e-06
0.00792379
-6.8467e-06
0.00790129
-7.89735e-06
0.00788016
-7.05096e-06
0.00785965
-5.23684e-06
0.00783957
-3.18876e-06
0.00781981
-1.36206e-06
0.00780027
1.38238e-08
0.00778086
8.59445e-07
0.00776152
1.19052e-06
0.00774223
1.07037e-06
0.00772297
5.8237e-07
0.00770372
-1.89384e-07
0.00768449
-1.17084e-06
0.00766526
-2.29853e-06
0.00764601
-3.51676e-06
0.00762672
-4.77951e-06
0.00760743
-6.05783e-06
0.00758834
-7.12144e-06
0.00756978
-7.08262e-06
0.00755145
-7.93936e-06
0.00753283
-8.97706e-06
0.00751389
-1.01124e-05
0.00749473
-1.1326e-05
0.00747541
-1.25871e-05
0.00745598
-1.38398e-05
0.00743644
-1.51024e-05
0.00741681
-1.64517e-05
0.00739713
-1.79788e-05
0.00737741
-1.97715e-05
0.00735765
-2.19093e-05
0.00733788
-2.44658e-05
0.00731809
-2.75298e-05
0.00729832
-3.12081e-05
0.00727857