/*--------------------------------*- C++ -*----------------------------------*\
  =========                 |
  \\      /  F ield         | OpenFOAM: The Open Source CFD Toolbox
   \\    /   O peration     | Website:  https://openfoam.org
    \\  /    A nd           | Version:  8
     \\/     M anipulation  |
\*---------------------------------------------------------------------------*/
FoamFile
{
    version     2.0;
    format      ascii;
    class       volScalarField;
    location    "500";
    object      T;
}
// * * * * * * * * * * * * * * * * * * * * * * * * * * * * * * * * * * * * * //

dimensions      [0 0 0 1 0 0 0];

internalField   nonuniform List<scalar> 
8400
(
298.535
298.496
298.484
298.488
298.505
298.529
298.551
298.57
298.587
298.604
298.624
298.651
298.687
298.73
298.781
298.837
298.897
298.965
299.041
299.119
299.194
299.258
299.306
299.334
299.338
299.316
299.263
299.17
299.029
298.843
298.633
298.423
298.219
298.031
297.869
297.733
297.624
297.545
297.494
297.466
297.454
297.451
297.453
297.458
297.465
297.473
297.483
297.494
297.506
297.52
299.5
299.396
299.447
299.53
299.608
299.671
299.723
299.769
299.809
299.841
299.853
299.853
299.843
299.832
299.809
299.754
299.668
299.672
299.71
299.747
299.783
299.813
299.834
299.841
299.832
299.805
299.755
299.678
299.554
299.379
299.175
298.954
298.726
298.502
298.296
298.107
297.94
297.808
297.722
297.677
297.659
297.656
297.659
297.669
297.683
297.698
297.716
297.734
297.754
297.775
300.002
299.994
299.979
299.96
299.941
299.927
299.921
299.922
299.926
299.931
299.936
299.94
299.943
299.943
299.942
299.937
299.927
299.91
299.895
299.886
299.881
299.879
299.878
299.878
299.876
299.872
299.856
299.805
299.723
299.615
299.474
299.304
299.119
298.932
298.762
298.582
298.385
298.218
298.116
298.069
298.049
298.028
298.011
298.013
298.025
298.042
298.063
298.086
298.112
298.14
300.011
300.01
300.008
300.007
300.007
300.008
300.01
300.011
300.013
300.014
300.015
300.016
300.016
300.016
300.015
300.014
300.011
300.007
300.003
299.998
299.993
299.989
299.985
299.981
299.977
299.973
299.969
299.964
299.956
299.942
299.918
299.88
299.828
299.754
299.577
299.347
299.124
298.934
298.813
298.755
298.676
298.567
298.483
298.448
298.434
298.43
298.44
298.457
298.481
298.51
300.008
300.011
300.014
300.017
300.02
300.022
300.025
300.027
300.028
300.029
300.029
300.029
300.03
300.03
300.032
300.034
300.036
300.038
300.04
300.042
300.043
300.044
300.044
300.045
300.045
300.044
300.044
300.044
300.043
300.041
300.036
300.028
300.015
300.001
299.977
299.941
299.9
299.866
299.852
299.721
299.342
299.103
299.02
298.947
298.875
298.83
298.811
298.802
298.808
298.828
300
299.999
299.998
299.997
299.995
299.994
299.992
299.991
299.989
299.988
299.987
299.986
299.985
299.985
299.986
299.988
299.991
299.994
299.998
300.002
300.007
300.011
300.015
300.019
300.022
300.026
300.029
300.033
300.036
300.04
300.042
300.042
300.041
300.037
300.03
300.019
300.005
299.987
299.969
299.944
299.897
299.874
299.809
299.436
299.273
299.231
299.168
299.119
299.093
299.085
300.001
300
300
300
300
300
300
300
300
300
300
300
299.999
299.999
299.998
299.998
299.998
299.998
299.999
300
300.001
300.003
300.005
300.008
300.01
300.013
300.016
300.019
300.023
300.027
300.031
300.034
300.036
300.036
300.035
300.032
300.027
300.019
300.009
299.996
299.978
299.958
299.931
299.876
299.857
299.693
299.47
299.425
299.358
299.309
299.999
299.999
299.998
299.998
299.998
299.998
299.998
299.998
299.998
299.998
299.998
299.999
299.999
299.999
299.999
299.999
299.999
299.999
300
300
300.001
300.002
300.003
300.005
300.006
300.008
300.01
300.012
300.015
300.018
300.021
300.024
300.027
300.029
300.03
300.03
300.029
300.026
300.021
300.015
300.006
299.995
299.979
299.955
299.931
299.89
299.873
299.795
299.595
299.544
299.998
299.998
299.998
299.998
299.998
299.998
299.998
299.998
299.998
299.998
299.999
299.999
299.999
300
300
300
300
300
300
300.001
300.001
300.002
300.003
300.003
300.004
300.005
300.007
300.008
300.01
300.012
300.015
300.017
300.02
300.022
300.024
300.025
300.026
300.025
300.023
300.021
300.017
300.011
300.002
299.99
299.974
299.952
299.93
299.901
299.882
299.844
299.998
299.997
299.997
299.997
299.997
299.997
299.997
299.998
299.998
299.998
299.999
299.999
299.999
300
300
300
300
300
300.001
300.001
300.001
300.002
300.002
300.003
300.003
300.004
300.005
300.006
300.008
300.009
300.011
300.013
300.015
300.017
300.019
300.021
300.022
300.023
300.022
300.022
300.02
300.018
300.013
300.007
299.997
299.984
299.967
299.946
299.923
299.897
299.998
299.997
299.996
299.996
299.996
299.996
299.996
299.996
299.997
299.997
299.997
299.998
299.999
299.999
300
300
300
300.001
300.001
300.001
300.002
300.002
300.002
300.003
300.003
300.004
300.005
300.005
300.006
300.008
300.009
300.01
300.012
300.014
300.016
300.018
300.019
300.02
300.021
300.021
300.021
300.02
300.019
300.015
300.01
300.002
299.99
299.973
299.951
299.924
300.001
300
300
299.999
299.999
299.998
299.998
299.997
299.997
299.997
299.997
299.998
299.998
299.999
300
300.001
300.002
300.003
300.003
300.003
300.003
300.004
300.004
300.004
300.004
300.005
300.005
300.006
300.006
300.007
300.008
300.009
300.011
300.012
300.014
300.016
300.017
300.019
300.02
300.021
300.021
300.022
300.021
300.02
300.017
300.012
300.003
299.99
299.97
299.942
300.004
300.003
300.003
300.002
300.001
300.001
300.001
300.001
300.001
300.001
300.001
300.001
300.001
300.001
300.001
300.001
300.002
300.002
300.003
300.004
300.004
300.004
300.005
300.005
300.005
300.006
300.006
300.006
300.007
300.008
300.009
300.01
300.011
300.012
300.014
300.015
300.017
300.018
300.019
300.02
300.021
300.022
300.022
300.022
300.02
300.017
300.01
299.998
299.98
299.952
300.007
300.006
300.005
300.004
300.004
300.004
300.004
300.004
300.005
300.005
300.005
300.005
300.006
300.006
300.006
300.006
300.006
300.005
300.005
300.005
300.006
300.006
300.006
300.007
300.007
300.007
300.008
300.008
300.009
300.009
300.01
300.011
300.012
300.013
300.014
300.015
300.017
300.018
300.019
300.02
300.022
300.023
300.023
300.023
300.022
300.019
300.013
300.002
299.984
299.955
300.009
300.007
300.007
300.007
300.007
300.007
300.007
300.008
300.009
300.009
300.01
300.01
300.011
300.011
300.012
300.012
300.012
300.012
300.012
300.011
300.011
300.011
300.011
300.011
300.01
300.011
300.011
300.011
300.011
300.012
300.012
300.013
300.013
300.014
300.015
300.016
300.017
300.018
300.02
300.021
300.022
300.023
300.023
300.023
300.022
300.019
300.013
300.001
299.982
299.953
300.009
300.007
300.007
300.007
300.007
300.008
300.008
300.009
300.01
300.01
300.011
300.011
300.012
300.012
300.012
300.013
300.013
300.013
300.012
300.012
300.012
300.011
300.01
300.01
300.009
300.009
300.009
300.009
300.009
300.009
300.01
300.011
300.011
300.012
300.013
300.014
300.016
300.017
300.018
300.019
300.021
300.022
300.022
300.022
300.021
300.017
300.01
299.997
299.976
299.945
300.004
300.002
300.002
300.001
300.001
300.001
300.001
300.001
300.002
300.002
300.002
300.002
300.002
300.001
300.001
300
299.999
299.998
299.997
299.996
299.995
299.994
299.992
299.991
299.99
299.989
299.989
299.989
299.99
299.99
299.992
299.993
299.995
299.997
299.999
300.001
300.004
300.006
300.008
300.011
300.013
300.015
300.016
300.017
300.016
300.011
300.003
299.988
299.964
299.932
299.99
299.987
299.987
299.985
299.984
299.984
299.983
299.982
299.981
299.98
299.98
299.979
299.977
299.976
299.975
299.973
299.971
299.969
299.966
299.964
299.961
299.959
299.956
299.954
299.953
299.951
299.95
299.95
299.95
299.951
299.953
299.955
299.957
299.961
299.964
299.968
299.972
299.976
299.981
299.985
299.99
299.994
299.998
300.001
300.003
300
299.99
299.973
299.948
299.915
299.969
299.965
299.963
299.961
299.959
299.957
299.956
299.954
299.953
299.951
299.95
299.948
299.946
299.945
299.943
299.94
299.938
299.935
299.932
299.929
299.926
299.923
299.921
299.918
299.915
299.913
299.911
299.909
299.908
299.908
299.907
299.908
299.909
299.911
299.914
299.917
299.921
299.926
299.931
299.937
299.943
299.951
299.958
299.967
299.975
299.979
299.971
299.953
299.927
299.894
299.945
299.94
299.938
299.935
299.933
299.931
299.929
299.927
299.925
299.924
299.923
299.921
299.92
299.919
299.918
299.916
299.915
299.913
299.911
299.909
299.907
299.905
299.902
299.9
299.897
299.894
299.891
299.888
299.884
299.881
299.878
299.875
299.872
299.869
299.867
299.866
299.865
299.866
299.867
299.871
299.877
299.885
299.896
299.91
299.927
299.945
299.943
299.924
299.899
299.87
303.149
303.147
303.146
303.144
303.142
303.141
303.139
303.138
303.136
303.135
303.133
303.132
303.13
303.129
303.127
303.126
303.124
303.123
303.122
303.12
303.119
303.117
303.116
303.115
303.114
303.113
303.111
303.11
303.109
303.108
303.107
303.106
303.105
303.104
303.103
303.102
303.101
303.1
303.099
303.098
303.097
303.096
303.095
303.094
303.094
303.093
303.092
303.091
303.091
303.09
303.15
303.15
303.15
303.15
303.15
303.15
303.15
303.15
303.149
303.149
303.149
303.149
303.149
303.149
303.149
303.148
303.148
303.148
303.148
303.147
303.147
303.147
303.147
303.146
303.146
303.146
303.145
303.145
303.144
303.144
303.143
303.143
303.143
303.142
303.142
303.141
303.141
303.14
303.14
303.139
303.139
303.139
303.138
303.138
303.138
303.137
303.137
303.137
303.137
303.136
303.15
303.15
303.15
303.15
303.15
303.15
303.15
303.15
303.15
303.15
303.15
303.15
303.15
303.15
303.15
303.15
303.15
303.15
303.15
303.15
303.15
303.15
303.15
303.15
303.15
303.15
303.149
303.149
303.149
303.149
303.149
303.149
303.149
303.149
303.149
303.148
303.148
303.148
303.148
303.148
303.148
303.148
303.148
303.147
303.147
303.147
303.147
303.147
303.147
303.147
303.15
303.15
303.15
303.15
303.15
303.15
303.15
303.15
303.15
303.15
303.15
303.15
303.15
303.15
303.15
303.15
303.15
303.15
303.15
303.15
303.15
303.15
303.15
303.15
303.15
303.15
303.15
303.15
303.15
303.15
303.15
303.15
303.15
303.15
303.15
303.15
303.15
303.15
303.15
303.15
303.15
303.15
303.15
303.15
303.15
303.15
303.15
303.149
303.149
303.149
303.15
303.15
303.15
303.15
303.15
303.15
303.15
303.15
303.15
303.15
303.15
303.15
303.15
303.15
303.15
303.15
303.15
303.15
303.15
303.15
303.15
303.15
303.15
303.15
303.15
303.15
303.15
303.15
303.15
303.15
303.15
303.15
303.15
303.15
303.15
303.15
303.15
303.15
303.15
303.15
303.15
303.15
303.15
303.15
303.15
303.15
303.15
303.15
303.15
303.15
303.15
303.15
303.15
303.15
303.15
303.15
303.15
303.15
303.15
303.15
303.15
303.15
303.15
303.15
303.15
303.15
303.15
303.15
303.15
303.15
303.15
303.15
303.15
303.15
303.15
303.15
303.15
303.15
303.15
303.15
303.15
303.15
303.15
303.15
303.15
303.15
303.15
303.15
303.15
303.15
303.15
303.15
303.15
303.15
303.15
303.15
303.15
303.15
303.15
303.15
303.15
303.15
303.15
303.15
303.15
303.15
303.15
303.15
303.15
303.15
303.15
303.15
303.15
303.15
303.15
303.15
303.15
303.15
303.15
303.15
303.15
303.15
303.15
303.15
303.15
303.15
303.15
303.15
303.15
303.15
303.15
303.15
303.15
303.15
303.15
303.15
303.15
303.15
303.15
303.15
303.15
303.15
303.15
303.15
303.15
303.15
303.15
303.15
303.15
303.15
303.15
303.15
303.15
303.15
303.15
303.15
303.15
303.15
303.15
303.15
303.15
303.15
303.15
303.15
303.15
303.15
303.15
303.15
303.15
303.15
303.15
303.15
303.15
303.15
303.15
303.15
303.15
303.15
303.15
303.15
303.15
303.15
303.15
303.15
303.15
303.15
303.15
303.15
303.15
303.15
303.15
303.15
303.15
303.15
303.15
303.15
303.15
303.15
303.15
303.15
303.15
303.15
303.15
303.15
303.15
303.15
303.15
303.15
303.15
303.15
303.15
303.15
303.15
303.15
303.15
303.15
303.15
303.15
303.15
303.15
303.15
303.15
303.15
303.15
303.15
303.15
303.15
303.15
303.15
303.15
303.15
303.15
303.15
303.15
303.15
303.15
303.15
303.15
303.15
303.15
303.15
303.15
303.15
303.15
303.15
303.15
303.15
303.15
303.15
303.15
303.15
303.15
303.15
303.15
303.15
303.15
303.15
303.15
303.15
303.15
303.15
303.15
303.15
303.15
303.15
303.15
303.15
303.15
303.15
303.15
303.15
303.15
303.15
303.15
303.15
303.15
303.15
303.15
303.15
303.15
303.15
303.15
303.15
303.15
303.15
303.15
303.15
303.15
303.15
303.15
303.15
303.15
303.15
303.15
303.15
303.15
303.15
303.15
303.15
303.15
303.15
303.15
303.15
303.15
303.15
303.15
303.15
303.15
303.15
303.15
303.15
303.15
303.15
303.15
303.15
303.15
303.15
303.15
303.15
303.15
303.15
303.15
303.15
303.15
303.15
303.15
303.15
303.15
303.15
303.15
303.15
303.15
303.15
303.15
303.15
303.15
303.15
303.15
303.15
303.15
303.15
303.15
303.15
303.15
303.15
303.15
303.15
303.15
303.15
303.15
303.15
303.15
303.15
303.15
303.15
303.15
303.15
303.15
303.15
303.15
303.15
303.15
303.15
303.15
303.15
303.15
303.15
303.15
303.15
303.15
303.15
303.15
303.15
303.15
303.15
303.15
303.15
303.15
303.15
303.15
303.15
303.15
303.15
303.15
303.15
303.15
303.15
303.15
303.15
303.15
303.15
303.15
303.15
303.15
303.15
303.15
303.15
303.15
303.15
303.15
303.15
303.15
303.15
303.15
303.15
303.15
303.15
303.15
303.15
303.15
303.15
303.15
303.15
303.15
303.15
303.15
303.15
303.15
303.15
303.15
303.15
303.15
303.15
303.15
303.15
303.15
303.15
303.15
303.15
303.15
303.15
303.15
303.15
303.15
303.15
303.15
303.15
303.15
303.15
303.15
303.15
303.15
303.15
303.15
303.15
303.15
303.15
303.15
303.15
303.15
303.15
303.15
303.15
303.15
303.15
303.15
303.15
303.15
303.15
303.15
303.15
303.15
303.15
303.15
303.15
303.15
303.15
303.15
303.15
303.15
303.15
303.15
303.15
303.15
303.15
303.15
303.15
303.15
303.15
303.15
303.15
303.15
303.15
303.15
303.15
303.15
303.15
303.15
303.15
303.15
303.15
303.15
303.15
303.15
303.15
303.15
303.15
303.15
303.15
303.15
303.15
303.15
303.15
303.15
303.15
303.15
303.15
303.15
303.15
303.15
303.15
303.15
303.15
303.15
303.15
303.15
303.15
303.15
303.15
303.15
303.15
303.15
303.15
303.15
303.15
303.15
303.15
303.15
303.15
303.15
303.15
303.15
303.15
303.15
303.15
303.15
303.15
303.15
303.15
303.15
303.15
303.15
303.15
303.15
303.15
303.15
303.15
303.15
303.15
303.15
303.15
303.15
303.15
303.15
303.15
303.15
303.15
303.15
303.15
303.15
303.15
303.15
303.15
303.15
303.15
303.15
303.15
303.15
303.15
303.15
303.15
303.15
303.15
303.15
303.15
303.15
303.15
303.15
303.15
303.15
303.15
303.15
303.15
303.15
303.15
303.15
303.15
303.15
303.15
303.15
303.15
303.15
303.15
303.15
303.15
303.15
303.15
303.15
303.15
303.15
303.15
303.15
303.15
303.15
303.15
303.15
303.15
303.15
303.15
303.15
303.15
303.15
303.15
303.15
303.15
303.15
303.15
303.15
303.15
303.15
303.15
303.15
303.15
303.15
303.15
303.15
303.15
303.15
303.15
303.15
303.15
303.15
303.15
303.15
303.15
303.15
303.15
303.15
303.15
303.15
303.15
303.15
303.15
303.149
303.149
303.149
303.149
303.149
303.149
303.149
303.15
303.15
303.15
303.15
303.15
303.15
303.15
303.15
303.15
303.15
303.15
303.15
303.15
303.15
303.15
303.15
303.15
303.15
303.15
303.15
303.15
303.15
303.15
303.15
303.15
303.149
303.149
303.149
303.149
303.149
303.149
303.149
303.149
303.149
303.149
303.148
303.148
303.148
303.148
303.148
303.148
303.147
303.147
303.147
303.147
303.147
303.146
303.146
303.146
303.145
303.15
303.15
303.15
303.15
303.15
303.15
303.15
303.15
303.15
303.149
303.149
303.149
303.149
303.149
303.149
303.148
303.148
303.148
303.148
303.148
303.147
303.147
303.147
303.146
303.146
303.145
303.145
303.145
303.144
303.144
303.143
303.143
303.142
303.142
303.141
303.141
303.14
303.14
303.139
303.139
303.139
303.138
303.137
303.137
303.136
303.136
303.135
303.135
303.134
303.133
303.149
303.147
303.146
303.144
303.142
303.141
303.139
303.138
303.136
303.135
303.133
303.132
303.13
303.129
303.127
303.126
303.124
303.123
303.121
303.12
303.119
303.117
303.116
303.115
303.114
303.113
303.111
303.11
303.109
303.108
303.107
303.106
303.105
303.104
303.103
303.102
303.101
303.1
303.099
303.098
303.097
303.096
303.095
303.094
303.093
303.092
303.091
303.09
303.089
303.088
301.073
298.596
296.343
294.967
294.261
293.9
293.68
293.519
293.399
293.33
293.311
293.321
293.351
293.376
293.426
293.606
294.102
294.975
295.972
296.668
301.056
298.568
296.314
294.951
294.256
293.898
293.678
293.513
293.392
293.324
293.306
293.311
293.339
293.364
293.407
293.559
293.991
294.791
295.76
296.483
301.042
298.543
296.29
294.938
294.252
293.897
293.675
293.508
293.384
293.316
293.299
293.304
293.329
293.355
293.396
293.531
293.925
294.679
295.63
296.368
301.032
298.522
296.27
294.928
294.251
293.897
293.673
293.502
293.376
293.309
293.292
293.298
293.32
293.347
293.385
293.506
293.866
294.576
295.507
296.258
301.024
298.506
296.256
294.923
294.252
293.899
293.671
293.497
293.368
293.301
293.285
293.292
293.311
293.338
293.374
293.484
293.813
294.483
295.392
296.154
301.02
298.496
296.249
294.923
294.256
293.902
293.671
293.492
293.361
293.294
293.279
293.285
293.304
293.33
293.365
293.464
293.766
294.399
295.286
296.057
301.021
298.492
296.249
294.928
294.264
293.907
293.672
293.489
293.354
293.288
293.273
293.279
293.297
293.322
293.356
293.447
293.725
294.324
295.191
295.968
301.025
298.495
296.257
294.939
294.276
293.915
293.675
293.487
293.349
293.282
293.269
293.274
293.29
293.315
293.347
293.431
293.689
294.258
295.104
295.887
301.033
298.506
296.274
294.956
294.291
293.926
293.68
293.488
293.346
293.278
293.267
293.27
293.285
293.309
293.34
293.418
293.659
294.201
295.028
295.814
301.047
298.526
296.3
294.981
294.311
293.939
293.688
293.491
293.346
293.276
293.266
293.267
293.28
293.303
293.333
293.407
293.634
294.153
294.962
295.749
301.065
298.555
296.336
295.011
294.335
293.956
293.698
293.497
293.347
293.276
293.266
293.265
293.276
293.298
293.327
293.397
293.614
294.114
294.906
295.693
301.089
298.593
296.38
295.048
294.362
293.976
293.712
293.505
293.351
293.276
293.267
293.265
293.274
293.294
293.322
293.39
293.599
294.082
294.859
295.645
301.118
298.641
296.434
295.091
294.394
293.999
293.728
293.516
293.356
293.278
293.268
293.266
293.272
293.292
293.318
293.384
293.588
294.058
294.822
295.606
301.152
298.698
296.495
295.138
294.429
294.025
293.747
293.529
293.363
293.279
293.269
293.266
293.272
293.29
293.315
293.381
293.581
294.042
294.794
295.574
301.191
298.762
296.563
295.191
294.467
294.053
293.768
293.543
293.371
293.281
293.269
293.267
293.272
293.289
293.313
293.379
293.579
294.032
294.775
295.548
301.234
298.832
296.637
295.248
294.508
294.083
293.79
293.558
293.379
293.282
293.269
293.269
293.272
293.289
293.312
293.38
293.581
294.03
294.762
295.528
301.28
298.906
296.716
295.308
294.551
294.114
293.813
293.573
293.387
293.284
293.268
293.27
293.273
293.289
293.312
293.383
293.588
294.034
294.755
295.513
301.329
298.985
296.799
295.371
294.596
294.147
293.836
293.588
293.394
293.286
293.268
293.272
293.275
293.289
293.313
293.389
293.6
294.043
294.752
295.502
301.378
299.066
296.884
295.436
294.642
294.18
293.859
293.602
293.401
293.288
293.268
293.273
293.277
293.29
293.316
293.398
293.614
294.054
294.753
295.496
301.429
299.149
296.971
295.502
294.688
294.213
293.882
293.616
293.407
293.29
293.268
293.275
293.279
293.292
293.32
293.409
293.63
294.067
294.756
295.493
301.48
299.234
297.059
295.57
294.736
294.246
293.904
293.628
293.413
293.292
293.269
293.277
293.281
293.294
293.325
293.421
293.646
294.08
294.761
295.493
301.531
299.319
297.148
295.639
294.784
294.279
293.926
293.641
293.418
293.294
293.269
293.278
293.283
293.296
293.331
293.433
293.662
294.094
294.768
295.497
301.583
299.404
297.238
295.708
294.833
294.313
293.947
293.653
293.423
293.295
293.269
293.278
293.285
293.299
293.337
293.444
293.676
294.106
294.775
295.504
301.634
299.489
297.327
295.779
294.883
294.346
293.969
293.665
293.428
293.297
293.269
293.279
293.286
293.301
293.343
293.454
293.689
294.118
294.784
295.513
301.684
299.573
297.416
295.85
294.933
294.381
293.991
293.677
293.434
293.298
293.269
293.279
293.286
293.303
293.347
293.462
293.699
294.128
294.793
295.526
301.734
299.656
297.505
295.921
294.984
294.416
294.014
293.69
293.44
293.3
293.269
293.278
293.286
293.304
293.351
293.467
293.707
294.136
294.803
295.54
301.784
299.739
297.594
295.994
295.037
294.452
294.037
293.704
293.447
293.302
293.268
293.277
293.286
293.304
293.352
293.471
293.713
294.143
294.813
295.557
301.832
299.821
297.684
296.069
295.09
294.489
294.062
293.719
293.455
293.305
293.268
293.275
293.285
293.303
293.353
293.474
293.717
294.148
294.823
295.576
301.88
299.902
297.774
296.145
295.146
294.528
294.088
293.735
293.464
293.308
293.267
293.274
293.283
293.302
293.353
293.474
293.72
294.153
294.834
295.598
301.927
299.984
297.865
296.223
295.204
294.568
294.116
293.753
293.474
293.312
293.267
293.272
293.281
293.3
293.352
293.474
293.721
294.157
294.845
295.621
301.973
300.065
297.957
296.303
295.263
294.611
294.145
293.773
293.485
293.316
293.267
293.27
293.279
293.299
293.35
293.474
293.723
294.161
294.858
295.646
302.019
300.147
298.051
296.386
295.326
294.656
294.177
293.795
293.499
293.322
293.267
293.268
293.277
293.297
293.349
293.474
293.725
294.166
294.872
295.672
302.064
300.23
298.147
296.471
295.391
294.703
294.211
293.819
293.514
293.329
293.268
293.267
293.276
293.296
293.348
293.474
293.727
294.173
294.888
295.701
302.109
300.313
298.245
296.56
295.459
294.753
294.248
293.845
293.531
293.338
293.27
293.266
293.275
293.295
293.348
293.476
293.732
294.182
294.906
295.73
302.153
300.397
298.346
296.652
295.53
294.806
294.288
293.874
293.551
293.348
293.273
293.266
293.275
293.296
293.35
293.48
293.739
294.193
294.926
295.761
302.197
300.482
298.45
296.748
295.605
294.863
294.331
293.906
293.573
293.36
293.278
293.267
293.275
293.297
293.354
293.486
293.749
294.207
294.948
295.793
302.24
300.569
298.557
296.848
295.685
294.924
294.377
293.942
293.599
293.375
293.284
293.269
293.277
293.301
293.359
293.495
293.761
294.225
294.973
295.826
302.284
300.657
298.668
296.954
295.769
294.989
294.429
293.982
293.628
293.393
293.292
293.272
293.281
293.306
293.368
293.507
293.778
294.246
295
295.859
302.327
300.748
298.783
297.064
295.858
295.058
294.485
294.027
293.662
293.415
293.303
293.277
293.286
293.313
293.379
293.522
293.797
294.271
295.029
295.894
302.37
300.84
298.904
297.181
295.954
295.134
294.547
294.079
293.702
293.442
293.317
293.285
293.293
293.323
293.392
293.541
293.821
294.3
295.061
295.928
302.413
300.936
299.03
297.305
296.057
295.216
294.615
294.136
293.749
293.475
293.335
293.295
293.303
293.335
293.409
293.563
293.847
294.332
295.095
295.964
302.456
301.034
299.162
297.437
296.167
295.305
294.69
294.202
293.804
293.515
293.358
293.308
293.316
293.35
293.429
293.588
293.878
294.368
295.132
295.999
302.5
301.136
299.302
297.578
296.287
295.403
294.774
294.275
293.867
293.564
293.389
293.325
293.332
293.368
293.452
293.617
293.912
294.407
295.17
296.035
302.544
301.242
299.449
297.73
296.418
295.51
294.866
294.357
293.938
293.622
293.427
293.348
293.352
293.391
293.479
293.649
293.95
294.45
295.211
296.07
302.589
301.352
299.606
297.894
296.56
295.628
294.968
294.449
294.021
293.69
293.475
293.377
293.377
293.418
293.511
293.687
293.993
294.498
295.255
296.106
302.634
301.466
299.774
298.073
296.717
295.758
295.08
294.552
294.115
293.771
293.535
293.417
293.409
293.451
293.548
293.73
294.041
294.55
295.301
296.142
302.679
301.586
299.953
298.268
296.891
295.903
295.204
294.666
294.221
293.863
293.607
293.467
293.449
293.492
293.593
293.78
294.096
294.608
295.35
296.179
302.725
301.71
300.146
298.482
297.085
296.065
295.342
294.793
294.339
293.969
293.695
293.53
293.501
293.543
293.646
293.838
294.16
294.672
295.402
296.215
302.77
301.839
300.353
298.719
297.302
296.248
295.497
294.933
294.472
294.092
293.8
293.614
293.566
293.605
293.711
293.906
294.232
294.742
295.458
296.251
302.815
301.973
300.574
298.98
297.547
296.455
295.67
295.089
294.621
294.231
293.924
293.716
293.648
293.683
293.789
293.986
294.315
294.821
295.518
296.288
302.859
302.112
300.81
299.265
297.824
296.691
295.867
295.263
294.786
294.389
294.067
293.84
293.75
293.778
293.882
294.081
294.41
294.908
295.583
296.324
302.902
302.254
301.06
299.579
298.137
296.962
296.093
295.458
294.968
294.566
294.232
293.986
293.875
293.894
293.994
294.192
294.518
295.004
295.651
296.361
302.942
302.396
301.322
299.921
298.491
297.276
296.353
295.679
295.171
294.762
294.421
294.157
294.023
294.031
294.127
294.321
294.64
295.11
295.725
296.398
302.978
302.533
301.59
300.29
298.889
297.639
296.656
295.932
295.396
294.978
294.632
294.355
294.195
294.194
294.282
294.469
294.777
295.224
295.802
296.435
303.01
302.663
301.86
300.683
299.334
298.059
297.013
296.225
295.649
295.216
294.867
294.583
294.399
294.382
294.459
294.635
294.927
295.347
295.884
296.472
303.036
302.781
302.123
301.089
299.824
298.543
297.434
296.57
295.937
295.476
295.122
294.838
294.638
294.594
294.658
294.819
295.089
295.477
295.97
296.509
303.057
302.884
302.372
301.497
300.347
299.095
297.934
296.983
296.272
295.764
295.394
295.109
294.903
294.828
294.876
295.018
295.263
295.614
296.059
296.546
303.072
302.969
302.594
301.892
300.891
299.709
298.523
297.485
296.674
296.092
295.687
295.394
295.183
295.082
295.111
295.23
295.445
295.756
296.15
296.582
303.082
303.034
302.779
302.252
301.431
300.371
299.205
298.097
297.172
296.483
296.01
295.691
295.47
295.348
295.355
295.45
295.632
295.9
296.242
296.618
303.087
303.079
302.924
302.561
301.935
301.048
299.967
298.834
297.801
296.974
296.389
296.008
295.765
295.622
295.605
295.673
295.82
296.044
296.334
296.654
303.089
303.108
303.025
302.801
302.369
301.691
300.773
299.691
298.592
297.619
296.873
296.374
296.073
295.903
295.852
295.894
296.006
296.187
296.425
296.688
303.088
303.123
303.088
302.967
302.706
302.246
301.551
300.622
299.549
298.473
297.542
296.854
296.42
296.187
296.092
296.107
296.185
296.324
296.512
296.722
303.086
303.13
303.123
303.068
302.933
302.667
302.215
301.531
300.617
299.555
298.488
297.571
296.906
296.509
296.33
296.309
296.355
296.453
296.595
296.755
303.083
303.132
303.138
303.119
303.062
302.936
302.694
302.282
301.647
300.776
299.74
298.671
297.73
297.034
296.629
296.5
296.513
296.574
296.671
296.786
303.079
303.132
303.143
303.14
303.121
303.075
302.975
302.781
302.444
301.903
301.13
300.16
299.103
298.102
297.291
296.777
296.669
296.691
296.748
296.825
303.076
303.131
303.145
303.147
303.143
303.13
303.099
303.033
302.902
302.665
302.268
301.671
300.868
299.914
298.902
297.925
297.123
296.919
296.941
296.984
303.072
303.129
303.144
303.148
303.148
303.146
303.138
303.122
303.086
303.013
302.876
302.639
302.266
301.737
301.056
300.245
299.31
298.331
298.249
297.496
303.069
303.127
303.144
303.149
303.149
303.149
303.148
303.144
303.136
303.118
303.083
303.014
302.893
302.699
302.409
302.006
301.441
300.649
299.501
298.541
303.066
303.126
303.143
303.148
303.15
303.15
303.149
303.148
303.146
303.141
303.132
303.114
303.08
303.023
302.93
302.791
302.598
302.314
301.9
301.864
303.063
303.124
303.142
303.148
303.15
303.15
303.15
303.149
303.148
303.146
303.143
303.136
303.125
303.106
303.077
303.034
302.977
302.911
302.85
302.8
303.06
303.122
303.141
303.148
303.15
303.15
303.15
303.15
303.149
303.148
303.146
303.143
303.137
303.128
303.113
303.093
303.064
303.029
302.988
302.938
303.057
303.121
303.141
303.148
303.149
303.15
303.15
303.15
303.15
303.149
303.148
303.146
303.142
303.136
303.126
303.112
303.091
303.064
303.03
302.989
303.055
303.119
303.14
303.147
303.149
303.15
303.15
303.15
303.15
303.15
303.149
303.147
303.145
303.14
303.133
303.121
303.104
303.079
303.047
303.01
303.053
303.118
303.139
303.147
303.149
303.15
303.15
303.15
303.15
303.15
303.149
303.148
303.147
303.143
303.138
303.128
303.112
303.089
303.057
303.019
303.051
303.116
303.138
303.147
303.149
303.15
303.15
303.15
303.15
303.15
303.15
303.149
303.148
303.145
303.141
303.132
303.118
303.096
303.064
303.024
303.049
303.115
303.138
303.147
303.149
303.15
303.15
303.15
303.15
303.15
303.15
303.149
303.149
303.147
303.143
303.136
303.123
303.102
303.07
303.026
303.047
303.114
303.137
303.146
303.149
303.15
303.15
303.15
303.15
303.15
303.15
303.15
303.149
303.148
303.144
303.138
303.126
303.106
303.074
303.028
303.046
303.113
303.137
303.146
303.149
303.15
303.15
303.15
303.15
303.15
303.15
303.15
303.149
303.148
303.145
303.14
303.129
303.109
303.077
303.029
303.045
303.113
303.136
303.146
303.149
303.15
303.15
303.15
303.15
303.15
303.15
303.15
303.149
303.148
303.146
303.141
303.131
303.111
303.079
303.03
303.044
303.112
303.136
303.146
303.149
303.15
303.15
303.15
303.15
303.15
303.15
303.15
303.15
303.149
303.147
303.142
303.132
303.113
303.08
303.031
303.043
303.111
303.135
303.146
303.149
303.15
303.15
303.15
303.15
303.15
303.15
303.15
303.15
303.149
303.147
303.143
303.134
303.115
303.082
303.031
303.043
303.111
303.135
303.145
303.149
303.15
303.15
303.15
303.15
303.15
303.15
303.15
303.15
303.149
303.148
303.144
303.135
303.116
303.083
303.032
303.042
303.111
303.135
303.145
303.149
303.15
303.15
303.15
303.15
303.15
303.15
303.15
303.15
303.149
303.148
303.144
303.136
303.117
303.084
303.032
303.042
303.111
303.135
303.145
303.149
303.15
303.15
303.15
303.15
303.15
303.15
303.15
303.15
303.149
303.148
303.145
303.136
303.118
303.085
303.033
303.042
303.111
303.135
303.145
303.149
303.15
303.15
303.15
303.15
303.15
303.15
303.15
303.15
303.149
303.148
303.145
303.137
303.119
303.086
303.034
303.042
303.111
303.135
303.145
303.149
303.15
303.15
303.15
303.15
303.15
303.15
303.15
303.15
303.149
303.148
303.145
303.138
303.12
303.087
303.034
303.042
303.111
303.135
303.145
303.149
303.15
303.15
303.15
303.15
303.15
303.15
303.15
303.15
303.15
303.148
303.146
303.138
303.121
303.088
303.035
303.042
303.111
303.135
303.145
303.149
303.15
303.15
303.15
303.15
303.15
303.15
303.15
303.15
303.15
303.149
303.146
303.138
303.122
303.089
303.035
303.042
303.111
303.135
303.145
303.149
303.15
303.15
303.15
303.15
303.15
303.15
303.15
303.15
303.15
303.149
303.146
303.139
303.122
303.089
303.036
303.043
303.111
303.135
303.145
303.149
303.15
303.15
303.15
303.15
303.15
303.15
303.15
303.15
303.15
303.149
303.146
303.139
303.123
303.09
303.037
303.043
303.111
303.135
303.145
303.149
303.15
303.15
303.15
303.15
303.15
303.15
303.15
303.15
303.15
303.149
303.146
303.14
303.123
303.091
303.037
303.043
303.111
303.135
303.146
303.149
303.15