/*--------------------------------*- C++ -*----------------------------------*\
  =========                 |
  \\      /  F ield         | OpenFOAM: The Open Source CFD Toolbox
   \\    /   O peration     | Website:  https://openfoam.org
    \\  /    A nd           | Version:  8
     \\/     M anipulation  |
\*---------------------------------------------------------------------------*/
FoamFile
{
    version     2.0;
    format      ascii;
    class       volVectorField;
    location    "500";
    object      U;
}
// * * * * * * * * * * * * * * * * * * * * * * * * * * * * * * * * * * * * * //

dimensions      [0 1 -1 0 0 0 0];

internalField   nonuniform List<vector> 
8400
(
(-23.7135 -0.211003 -1.14091e-17)
(-23.3 -0.113516 -1.14797e-17)
(-22.9647 -0.0649988 -1.02216e-17)
(-22.5557 -0.121735 -8.23352e-18)
(-22.0019 -0.227623 -5.64603e-18)
(-21.3567 -0.330015 -2.89209e-18)
(-20.6299 -0.402537 -2.00905e-19)
(-19.8099 -0.441462 2.75483e-18)
(-18.9212 -0.453328 6.20221e-18)
(-17.9996 -0.449492 1.00099e-17)
(-17.0634 -0.444287 1.51879e-17)
(-16.1195 -0.443452 2.16674e-17)
(-15.2148 -0.443065 2.79994e-17)
(-14.4118 -0.44195 3.38935e-17)
(-13.7248 -0.438986 3.80234e-17)
(-13.1172 -0.439886 3.65254e-17)
(-12.6959 -0.456985 2.2582e-17)
(-12.5837 -0.453721 9.04666e-18)
(-12.6624 -0.392636 8.05816e-18)
(-12.848 -0.284716 1.57507e-17)
(-13.1421 -0.165728 2.7986e-17)
(-13.5171 -0.0698555 4.24865e-17)
(-13.9114 -0.0223158 5.83444e-17)
(-14.2523 -0.0389412 7.47556e-17)
(-14.4575 -0.121883 9.1041e-17)
(-14.4478 -0.254387 1.06852e-16)
(-14.1995 -0.379978 1.20729e-16)
(-13.7995 -0.412603 1.29827e-16)
(-13.4143 -0.33001 1.32064e-16)
(-13.1861 -0.194499 1.28232e-16)
(-13.1364 -0.103312 1.25366e-16)
(-13.1749 -0.0758876 1.30495e-16)
(-13.2088 -0.0929118 1.41906e-16)
(-13.1743 -0.128635 1.57543e-16)
(-13.0522 -0.158288 1.7601e-16)
(-12.8662 -0.173728 1.93896e-16)
(-12.6428 -0.182714 2.09775e-16)
(-12.3813 -0.202445 2.2479e-16)
(-12.0541 -0.243259 2.39754e-16)
(-11.6338 -0.296013 2.53847e-16)
(-11.1243 -0.337917 2.65343e-16)
(-10.5625 -0.354382 2.72917e-16)
(-9.99013 -0.353535 2.75608e-16)
(-9.42979 -0.347552 2.74126e-16)
(-8.89183 -0.338685 2.69101e-16)
(-8.38291 -0.328849 2.60202e-16)
(-7.90519 -0.320947 2.48726e-16)
(-7.45668 -0.316235 2.34478e-16)
(-7.02936 -0.316829 2.17222e-16)
(-6.61011 -0.325843 1.98402e-16)
(-2.91858 0.550407 2.42025e-17)
(-2.42053 1.21406 2.96161e-17)
(-2.23158 0.539306 3.08362e-17)
(-2.51157 -0.100089 2.86822e-17)
(-2.63826 -0.612096 2.64859e-17)
(-2.49046 -0.987442 2.49835e-17)
(-2.0626 -1.23882 2.42725e-17)
(-1.47729 -1.37665 2.50893e-17)
(-0.837935 -1.39314 2.69821e-17)
(-0.229024 -1.27908 3.09099e-17)
(-0.0231938 -1.07304 4.49865e-17)
(-0.306803 -0.823773 7.04118e-17)
(-0.846623 -0.549144 1.07107e-16)
(-1.77277 -0.23366 1.6263e-16)
(-4.14935 0.0618893 2.66378e-16)
(-5.52426 0.454752 4.86302e-16)
(-4.47303 0.784784 5.10892e-16)
(-4.52915 0.955324 3.70287e-16)
(-5.6646 1.03527 2.85728e-16)
(-7.12822 0.99755 2.41304e-16)
(-8.62983 0.857 2.20779e-16)
(-10.0327 0.624356 2.1376e-16)
(-11.2779 0.308328 2.18939e-16)
(-12.2991 -0.0657025 2.32152e-16)
(-13.0149 -0.451519 2.49501e-16)
(-13.3261 -0.774233 2.68755e-16)
(-13.1816 -0.901451 2.89227e-16)
(-12.9269 -0.809846 3.13819e-16)
(-12.7656 -0.489904 3.63244e-16)
(-12.7321 -0.0497219 4.32586e-16)
(-12.8413 0.259243 4.77964e-16)
(-12.9835 0.356823 4.99538e-16)
(-13.063 0.286865 5.10004e-16)
(-13.0162 0.117372 5.11568e-16)
(-12.8424 -0.0581252 5.03542e-16)
(-12.6176 -0.175493 5.00098e-16)
(-12.3911 -0.251331 5.04139e-16)
(-12.1484 -0.357506 5.06686e-16)
(-11.8333 -0.523332 5.0379e-16)
(-11.3999 -0.711167 5.00126e-16)
(-10.8601 -0.842964 5.0459e-16)
(-10.2773 -0.876205 5.23602e-16)
(-9.70514 -0.856098 5.49969e-16)
(-9.15297 -0.825018 5.74998e-16)
(-8.62383 -0.779155 5.98281e-16)
(-8.1267 -0.72428 6.18287e-16)
(-7.66275 -0.669909 6.33791e-16)
(-7.22992 -0.616512 6.42943e-16)
(-6.82224 -0.568298 6.4696e-16)
(-6.42721 -0.530493 6.46323e-16)
(9.93722 -3.11051 1.27228e-17)
(10.2226 -1.10605 1.11477e-17)
(10.5054 -0.247014 1.00132e-17)
(10.7519 -0.11879 9.21669e-18)
(10.9512 -0.384936 8.14725e-18)
(11.1409 -0.812938 7.5816e-18)
(11.3491 -1.23443 8.2595e-18)
(11.573 -1.54184 1.07542e-17)
(11.7885 -1.67795 1.42449e-17)
(11.9532 -1.62327 1.9753e-17)
(12.0212 -1.38698 2.76871e-17)
(11.9566 -0.998102 3.80334e-17)
(11.7381 -0.498305 5.43305e-17)
(11.3364 0.0689499 7.58354e-17)
(10.9414 0.652172 1.02671e-16)
(10.4064 1.21164 1.42572e-16)
(9.74989 1.7205 1.96935e-16)
(8.91519 2.14991 2.46171e-16)
(7.95257 2.48778 2.83297e-16)
(6.9414 2.71697 3.09158e-16)
(5.85083 2.83189 3.2323e-16)
(4.66516 2.82757 3.2853e-16)
(3.36342 2.69016 3.30443e-16)
(1.8941 2.40323 3.31525e-16)
(0.148529 1.94777 3.28623e-16)
(-1.93832 1.28894 3.27993e-16)
(-7.48796 -0.0894315 1.94272e-16)
(-9.8775 -0.402503 5.14086e-17)
(-11.0797 -0.374109 1.38409e-17)
(-11.3725 -0.281942 7.08153e-17)
(-11.8375 -0.335517 1.37832e-16)
(-12.2889 -0.505028 1.71486e-16)
(-12.5482 -0.729355 1.65209e-16)
(-12.5311 -0.886987 1.28644e-16)
(-12.2753 -0.897648 7.91643e-17)
(-12.0635 -0.748386 5.82342e-17)
(-11.9218 -0.555045 7.23583e-17)
(-11.7547 -0.57111 8.09935e-17)
(-11.4496 -0.847044 7.37257e-17)
(-10.975 -1.23036 6.5054e-17)
(-10.3961 -1.47431 7.88487e-17)
(-9.79704 -1.4849 1.30435e-16)
(-9.2562 -1.4356 2.00424e-16)
(-8.7362 -1.40899 2.67011e-16)
(-8.22614 -1.34606 3.32009e-16)
(-7.75388 -1.26672 3.96919e-16)
(-7.31279 -1.19298 4.53015e-16)
(-6.89886 -1.11478 5.02732e-16)
(-6.50936 -1.04006 5.40427e-16)
(-6.1321 -0.972345 5.67544e-16)
(21.9026 -1.49728 2.55988e-19)
(21.8373 -1.07808 1.12798e-19)
(22.0258 -1.18788 -5.16992e-19)
(22.4704 -1.57821 -2.01427e-18)
(22.98 -2.04533 -4.39824e-18)
(23.4405 -2.46208 -5.59151e-18)
(23.7971 -2.74728 -4.16592e-18)
(24.0323 -2.85383 -1.76075e-18)
(24.1514 -2.76415 2.88326e-18)
(24.1653 -2.48258 1.09501e-17)
(24.0838 -2.02666 1.99185e-17)
(23.9125 -1.42457 2.73898e-17)
(23.6484 -0.712525 3.14906e-17)
(23.288 0.0702334 3.34135e-17)
(22.8835 0.881169 3.64391e-17)
(22.3677 1.67815 4.41162e-17)
(21.7676 2.41147 6.14009e-17)
(21.0945 3.03898 8.49729e-17)
(20.3518 3.52942 1.18204e-16)
(19.5488 3.86736 1.54488e-16)
(18.6832 4.05456 1.82282e-16)
(17.7467 4.10112 2.04918e-16)
(16.7241 4.02429 2.23627e-16)
(15.5885 3.8525 2.33948e-16)
(14.2951 3.63114 2.32942e-16)
(12.7942 3.41791 2.25583e-16)
(10.719 3.15803 2.08332e-16)
(8.74987 2.99499 1.67582e-16)
(6.82586 2.86184 1.03576e-16)
(5.13144 2.70184 4.59194e-17)
(3.37892 2.41978 1.25515e-17)
(1.37871 1.96248 -1.76456e-17)
(-0.974205 1.26611 -7.66372e-17)
(-5.77628 -0.359255 -3.39518e-16)
(-8.79385 -1.18095 -5.53267e-16)
(-9.98509 -1.393 -5.84863e-16)
(-10.1957 -1.43893 -5.56622e-16)
(-10.2134 -1.6767 -5.14021e-16)
(-9.89447 -2.03138 -4.6244e-16)
(-9.55092 -2.34971 -4.2437e-16)
(-9.37088 -2.43654 -3.97867e-16)
(-8.85486 -2.13107 -3.15829e-16)
(-8.45495 -1.93411 -2.11974e-16)
(-8.08316 -1.89306 -1.17147e-16)
(-7.63116 -1.75982 -2.34082e-17)
(-7.23204 -1.6406 7.56709e-17)
(-6.84879 -1.56178 1.6795e-16)
(-6.47574 -1.46606 2.56079e-16)
(-6.12262 -1.37595 3.38021e-16)
(-5.77587 -1.28258 4.20544e-16)
(41.6343 0.0291708 3.32719e-18)
(40.8996 -0.254667 3.32663e-18)
(40.1515 -0.59193 2.69721e-18)
(39.4511 -0.975138 2.7571e-18)
(38.7085 -1.35027 3.43721e-18)
(37.8922 -1.66475 3.38709e-18)
(37.0246 -1.87456 3.33229e-18)
(36.15 -1.94671 3.28029e-18)
(35.3171 -1.86486 2.82348e-18)
(34.5694 -1.6292 2.70505e-18)
(33.9401 -1.25208 1.35754e-18)
(33.4514 -0.754728 7.67838e-20)
(33.1139 -0.163147 1.81979e-18)
(32.8746 0.496646 4.92295e-18)
(32.5545 1.19157 7.54086e-18)
(32.1592 1.89594 1.04926e-17)
(31.6999 2.578 1.54849e-17)
(31.1853 3.20306 2.02059e-17)
(30.6207 3.73913 2.56117e-17)
(30.0084 4.16402 3.40166e-17)
(29.3463 4.46779 4.70058e-17)
(28.6292 4.65285 5.75728e-17)
(27.8462 4.73497 6.63058e-17)
(26.9804 4.7428 7.47067e-17)
(26.0098 4.7169 7.71366e-17)
(24.9141 4.70021 6.70213e-17)
(23.6706 4.69885 4.63526e-17)
(22.2805 4.7101 3.37142e-17)
(20.8349 4.70959 2.8185e-17)
(19.375 4.65397 2.81917e-17)
(17.8448 4.51529 3.04811e-17)
(16.1858 4.28827 2.91556e-17)
(14.3653 3.97306 1.45688e-17)
(12.0933 3.46456 -1.37372e-17)
(9.88982 2.96723 -6.62566e-17)
(7.92245 2.5041 -1.03343e-16)
(6.24017 2.06728 -1.31703e-16)
(4.60686 1.55202 -1.39078e-16)
(2.59163 0.752226 -1.54231e-16)
(-3.25422 -1.45185 -3.19996e-16)
(-7.37218 -2.80961 -5.33564e-16)
(-6.93196 -2.58782 -4.96501e-16)
(-6.53481 -2.45305 -4.19959e-16)
(-6.91151 -2.51851 -3.47121e-16)
(-6.60593 -2.18643 -2.3384e-16)
(-6.40311 -1.9946 -1.26624e-16)
(-6.17692 -1.90103 -3.17785e-17)
(-5.89223 -1.77047 4.63193e-17)
(-5.61468 -1.68713 1.27778e-16)
(-5.3178 -1.58501 2.01338e-16)
(28.0007 -0.444938 2.5959e-18)
(27.4112 -0.799305 2.59822e-18)
(26.8382 -1.06648 2.45648e-18)
(26.3659 -1.28024 2.3535e-18)
(25.9394 -1.44875 2.46635e-18)
(25.5066 -1.55067 2.56655e-18)
(25.0638 -1.56278 2.66649e-18)
(24.6262 -1.46786 2.75907e-18)
(24.2117 -1.25986 2.27743e-18)
(23.8361 -0.943726 2.29655e-18)
(23.5121 -0.531336 2.87905e-18)
(23.2502 -0.0373805 2.85088e-18)
(23.0585 0.525507 2.78119e-18)
(22.9884 1.13718 2.6636e-18)
(23.1162 1.77345 2.50605e-18)
(23.41 2.4133 2.64208e-18)
(23.8085 3.03344 3.37253e-18)
(24.2457 3.60756 4.55077e-18)
(24.6653 4.11187 6.21377e-18)
(25.0245 4.5291 8.59241e-18)
(25.2938 4.85171 1.19804e-17)
(25.4541 5.08242 1.57448e-17)
(25.4931 5.23442 1.97339e-17)
(25.4029 5.33077 2.3642e-17)
(25.1808 5.40158 2.64796e-17)
(24.8309 5.47541 2.73563e-17)
(24.3593 5.56288 2.32125e-17)
(23.7744 5.66262 1.70388e-17)
(23.0922 5.75237 1.12249e-17)
(22.3198 5.80609 5.63291e-18)
(21.4441 5.80789 3.30915e-18)
(20.4447 5.75099 8.81889e-18)
(19.3032 5.63182 1.38703e-17)
(17.9981 5.4228 9.3537e-18)
(16.5056 5.11126 -4.62281e-18)
(14.9278 4.71691 -2.28515e-17)
(13.299 4.23891 -4.32525e-17)
(11.5684 3.68282 -6.0324e-17)
(9.68972 3.06651 -7.78091e-17)
(7.17305 2.20855 -1.12529e-16)
(5.03733 1.47816 -1.65878e-16)
(3.52522 0.862454 -1.81452e-16)
(0.408989 -0.522847 -2.71792e-16)
(-5.21527 -2.64905 -3.58622e-16)
(-4.84073 -2.39451 -2.56512e-16)
(-4.86859 -2.32387 -1.81133e-16)
(-5.08476 -2.23682 -9.99346e-17)
(-4.96637 -2.01215 -1.47291e-17)
(-4.88455 -1.93123 5.64171e-17)
(-4.68932 -1.80049 1.22224e-16)
(25.2298 0.794686 3.67767e-18)
(24.5843 0.531767 3.71509e-18)
(24.0377 0.288525 3.14464e-18)
(23.5985 0.079678 3.06075e-18)
(23.1776 -0.10771 3.68319e-18)
(22.7452 -0.262798 3.76117e-18)
(22.307 -0.36428 3.88157e-18)
(21.8788 -0.392959 4.01063e-18)
(21.4749 -0.337784 3.44631e-18)
(21.1068 -0.196675 3.46684e-18)
(20.7854 0.0263616 4.18425e-18)
(20.521 0.324149 4.19924e-18)
(20.3085 0.685678 4.22486e-18)
(20.1498 1.09152 4.21269e-18)
(20.0611 1.53285 3.88149e-18)
(20.0505 1.99948 3.56102e-18)
(20.1213 2.48035 3.51655e-18)
(20.2695 2.96044 3.56657e-18)
(20.4802 3.42194 3.76631e-18)
(20.73 3.84728 4.20218e-18)
(20.9904 4.22297 4.95146e-18)
(21.2323 4.54237 5.89866e-18)
(21.4293 4.80704 7.08026e-18)
(21.5614 5.02741 8.39628e-18)
(21.6173 5.22113 9.992e-18)
(21.595 5.4077 1.16737e-17)
(21.4989 5.60002 1.16996e-17)
(21.3341 5.80164 9.88636e-18)
(21.1031 6.00329 7.38634e-18)
(20.8027 6.18956 3.87896e-18)
(20.422 6.34595 8.53154e-19)
(19.9436 6.45907 1.51291e-19)
(19.3467 6.51342 1.78517e-18)
(18.6079 6.48573 3.42715e-18)
(17.7063 6.35802 1.93697e-18)
(16.647 6.11541 -3.51345e-18)
(15.4365 5.75368 -1.19071e-17)
(14.0722 5.28908 -2.05901e-17)
(12.5628 4.75195 -2.96091e-17)
(10.8711 4.11875 -4.33173e-17)
(9.13702 3.4333 -6.33738e-17)
(7.52448 2.77314 -8.42218e-17)
(5.70219 1.99023 -1.19687e-16)
(3.80095 1.16844 -1.60013e-16)
(2.51202 0.442952 -1.82275e-16)
(-1.72194 -1.61815 -2.33313e-16)
(-3.48185 -2.28395 -1.51995e-16)
(-3.31998 -2.12522 -8.29326e-17)
(-3.73552 -2.14225 2.15281e-18)
(-3.7153 -1.95114 1.10295e-16)
(20.1752 1.01761 6.05707e-18)
(19.5023 0.652523 6.07124e-18)
(18.9519 0.284878 5.70512e-18)
(18.5155 -0.0413855 5.63404e-18)
(18.1762 -0.316307 6.00984e-18)
(17.846 -0.519485 6.08272e-18)
(17.5207 -0.638755 6.18877e-18)
(17.2141 -0.668815 6.28845e-18)
(16.9323 -0.610332 5.87557e-18)
(16.6794 -0.468626 5.79144e-18)
(16.4622 -0.250535 6.19446e-18)
(16.2906 0.0383237 6.20415e-18)
(16.1445 0.392962 6.24573e-18)
(16.073 0.802791 6.26586e-18)
(16.0652 1.25432 5.72066e-18)
(16.1167 1.73429 5.43885e-18)
(16.2177 2.22722 5.60919e-18)
(16.3593 2.71587 5.33415e-18)
(16.5332 3.18319 5.15955e-18)
(16.731 3.61565 5.01607e-18)
(16.9423 4.00504 4.96269e-18)
(17.154 4.34909 5.02054e-18)
(17.3516 4.65091 5.09396e-18)
(17.522 4.91881 5.29695e-18)
(17.6566 5.16502 5.24408e-18)
(17.7524 5.40325 5.97558e-18)
(17.811 5.64457 6.40895e-18)
(17.8357 5.89422 5.8464e-18)
(17.8275 6.14954 5.02107e-18)
(17.7824 6.40152 3.30757e-18)
(17.6898 6.63786 1.01367e-18)
(17.533 6.84409 -6.19797e-19)
(17.2905 7.00311 -1.67528e-18)
(16.9382 7.09474 -1.74665e-18)
(16.4536 7.09946 3.07371e-19)
(15.8224 6.99913 1.85187e-18)
(15.0389 6.78384 2.72838e-20)
(14.1038 6.45846 -3.28498e-18)
(13.0285 6.03816 -6.92924e-18)
(11.8242 5.52539 -1.29728e-17)
(10.5357 4.93048 -2.00341e-17)
(9.22345 4.27706 -2.96087e-17)
(7.86191 3.55268 -4.79285e-17)
(6.45894 2.7541 -6.8506e-17)
(5.18482 1.99128 -8.44527e-17)
(3.52333 1.05038 -1.04623e-16)
(2.56576 0.429141 -1.0301e-16)
(-0.0366101 -1.08932 -1.32944e-16)
(-2.13104 -2.01645 -8.10519e-17)
(-2.09783 -1.91406 4.20298e-18)
(15.4303 1.65618 6.58555e-18)
(14.6645 1.29004 6.60855e-18)
(14.1439 0.923653 6.11822e-18)
(13.7626 0.595263 6.11618e-18)
(13.4363 0.321651 6.64169e-18)
(13.1853 0.125855 6.67007e-18)
(12.9602 0.0218478 6.73891e-18)
(12.7458 0.00498115 6.78962e-18)
(12.5505 0.0644203 6.24359e-18)
(12.3786 0.190696 6.17418e-18)
(12.2408 0.381185 6.73727e-18)
(12.1034 0.630748 6.75245e-18)
(12.0318 0.920944 6.83722e-18)
(12.0192 1.24869 6.92211e-18)
(12.0659 1.60982 6.28058e-18)
(12.1619 1.99881 6.11484e-18)
(12.2937 2.40772 6.51454e-18)
(12.4484 2.82484 6.36077e-18)
(12.6184 3.23368 6.22572e-18)
(12.8012 3.61834 6.103e-18)
(12.9948 3.96978 5.92529e-18)
(13.1948 4.28704 5.71706e-18)
(13.3927 4.57456 5.52992e-18)
(13.5797 4.83947 5.57573e-18)
(13.7491 5.09028 5.22035e-18)
(13.8989 5.33639 5.39172e-18)
(14.0309 5.58644 4.51195e-18)
(14.1484 5.84569 3.97821e-18)
(14.2531 6.11417 3.65733e-18)
(14.3422 6.38677 2.75035e-18)
(14.4076 6.65487 1.31673e-18)
(14.4359 6.90715 2.9257e-20)
(14.4088 7.1295 -1.6199e-18)
(14.3057 7.30502 -3.10989e-18)
(14.1064 7.41521 -3.64617e-18)
(13.7947 7.44101 -2.78352e-18)
(13.3605 7.36683 -1.07749e-18)
(12.8004 7.1857 1.5472e-18)
(12.1191 6.89902 2.13698e-18)
(11.327 6.50883 -3.19468e-19)
(10.4446 6.01675 -3.8482e-18)
(9.49938 5.42989 -1.16283e-17)
(8.50361 4.75501 -2.29179e-17)
(7.46611 3.99841 -3.571e-17)
(6.43789 3.20563 -4.87883e-17)
(5.3331 2.34662 -6.24978e-17)
(4.36017 1.56325 -6.61707e-17)
(3.22609 0.749737 -7.23969e-17)
(2.37189 0.131196 -8.1719e-17)
(0.623493 -1.01218 -1.47889e-16)
(10.0161 2.13465 6.79004e-18)
(9.11659 1.70328 6.80503e-18)
(8.62662 1.279 6.38144e-18)
(8.30939 0.871736 6.35562e-18)
(8.04609 0.50098 6.73637e-18)
(7.8155 0.210628 6.75282e-18)
(7.66694 0.033528 6.86211e-18)
(7.56812 -0.0346344 6.98747e-18)
(7.47648 -0.0222334 6.52697e-18)
(7.37852 0.0448847 6.37221e-18)
(7.27943 0.157993 6.87801e-18)
(7.26101 0.314568 6.92834e-18)
(7.3227 0.513598 7.04495e-18)
(7.4535 0.758623 7.19752e-18)
(7.64353 1.0525 6.68209e-18)
(7.87126 1.39617 6.49335e-18)
(8.11288 1.78556 6.85964e-18)
(8.34756 2.20757 6.75866e-18)
(8.56593 2.64203 6.68887e-18)
(8.77564 3.06802 6.71532e-18)
(8.99134 3.46964 6.7317e-18)
(9.21947 3.8396 6.59522e-18)
(9.45442 4.1786 6.40144e-18)
(9.68554 4.49074 6.19421e-18)
(9.90534 4.78181 6.09949e-18)
(10.1121 5.06055 6.28574e-18)
(10.3074 5.33565 5.67488e-18)
(10.4946 5.61308 4.88561e-18)
(10.6757 5.89552 4.541e-18)
(10.8497 6.18184 3.77251e-18)
(11.0121 6.46853 2.54183e-18)
(11.1538 6.74947 1.64444e-18)
(11.2619 7.01536 -1.02885e-19)
(11.3218 7.25338 -2.20576e-18)
(11.3184 7.44677 -3.48117e-18)
(11.2385 7.57585 -4.0478e-18)
(11.0718 7.62083 -3.4806e-18)
(10.8115 7.56612 -1.6342e-18)
(10.4561 7.40267 -1.70399e-20)
(10.0091 7.12631 1.16946e-19)
(9.47912 6.7347 -1.26423e-18)
(8.87938 6.22982 -5.46752e-18)
(8.22127 5.62031 -1.38277e-17)
(7.51197 4.91639 -2.35417e-17)
(6.77171 4.14429 -3.59457e-17)
(5.98845 3.31693 -4.89392e-17)
(5.214 2.4938 -5.76182e-17)
(4.41119 1.68321 -6.4072e-17)
(3.66782 0.958132 -7.16791e-17)
(2.94788 0.335332 -9.36509e-17)
(3.49172 3.1863 6.89151e-18)
(2.4318 2.47909 6.92943e-18)
(2.08154 1.87067 6.54972e-18)
(1.91676 1.29889 6.35104e-18)
(1.70722 0.813553 6.74218e-18)
(1.4026 0.450705 6.63119e-18)
(1.05814 0.255303 6.76407e-18)
(0.773025 0.27258 7.12686e-18)
(0.555989 0.458697 6.95276e-18)
(0.559044 0.699037 6.1879e-18)
(0.93387 0.907925 6.44027e-18)
(1.65621 1.06274 6.86141e-18)
(2.53419 1.16136 7.1127e-18)
(3.34152 1.22999 7.92476e-18)
(4.00601 1.31603 6.87142e-18)
(4.52835 1.44992 6.1729e-18)
(4.87716 1.64952 6.16813e-18)
(5.07856 1.91883 5.68345e-18)
(5.1933 2.24385 5.44857e-18)
(5.28691 2.60623 5.38351e-18)
(5.41052 2.98687 5.68632e-18)
(5.58665 3.3651 6.16263e-18)
(5.80504 3.72719 6.34303e-18)
(6.04203 4.06873 6.3342e-18)
(6.28238 4.39113 6.35324e-18)
(6.52126 4.69904 6.73892e-18)
(6.75685 4.99841 6.79662e-18)
(6.98996 5.29432 6.11761e-18)
(7.22166 5.59018 5.96454e-18)
(7.45155 5.88753 5.53265e-18)
(7.67726 6.1866 4.90784e-18)
(7.89284 6.48541 4.32855e-18)
(8.09053 6.77936 2.56517e-18)
(8.26151 7.05948 3.78885e-19)
(8.39639 7.31132 -1.29994e-18)
(8.48617 7.51518 -2.41293e-18)
(8.52213 7.6486 -2.58536e-18)
(8.49637 7.69052 -1.20001e-18)
(8.403 7.625 6.93212e-19)
(8.23947 7.4423 1.59398e-18)
(8.00718 7.13726 1.2758e-18)
(7.71041 6.70978 -1.67563e-18)
(7.35433 6.16718 -7.8844e-18)
(6.94241 5.52074 -1.67479e-17)
(6.48271 4.79089 -2.86409e-17)
(5.97528 3.99999 -4.25622e-17)
(5.43744 3.1858 -5.54069e-17)
(4.8701 2.37842 -6.62485e-17)
(4.30086 1.62233 -7.53369e-17)
(3.74245 0.950685 -8.86377e-17)
(-4.85148 2.92079 6.48099e-18)
(-5.09972 2.53608 6.09474e-18)
(-5.30781 1.95842 5.39995e-18)
(-5.56311 1.4314 4.77351e-18)
(-5.75918 1.02311 4.53705e-18)
(-5.84858 0.71108 4.37963e-18)
(-5.79015 0.480559 4.31756e-18)
(-5.58385 0.324285 4.30222e-18)
(-5.25292 0.223684 4.31991e-18)
(-4.78087 0.160611 3.91796e-18)
(-4.15302 0.130545 4.0377e-18)
(-3.40497 0.140072 4.76216e-18)
(-2.55174 0.198612 4.87672e-18)
(-1.60342 0.318643 4.87732e-18)
(-0.5742 0.527702 4.61134e-18)
(0.422084 0.850411 4.33751e-18)
(0.944267 1.22361 4.2011e-18)
(1.21651 1.61403 5.06154e-18)
(1.39421 2.00924 5.10745e-18)
(1.60381 2.41527 5.26451e-18)
(1.86729 2.82149 5.62997e-18)
(2.14547 3.17719 6.21206e-18)
(2.41727 3.49358 6.57121e-18)
(2.68904 3.80548 6.70734e-18)
(2.94595 4.10375 6.37218e-18)
(3.2005 4.39497 6.66092e-18)
(3.45632 4.68464 6.27839e-18)
(3.71114 4.9742 5.61968e-18)
(3.96935 5.26662 6.03241e-18)
(4.22986 5.56305 6.10302e-18)
(4.49219 5.86418 5.79678e-18)
(4.7532 6.16933 5.73465e-18)
(5.00938 6.47613 4.74702e-18)
(5.25733 6.77806 2.78919e-18)
(5.49275 7.06311 8.76698e-19)
(5.71023 7.31236 -5.4141e-19)
(5.90252 7.50221 -1.01564e-18)
(6.06137 7.60892 -3.23084e-19)
(6.17857 7.61299 1.5023e-18)
(6.24753 7.50074 3.01419e-18)
(6.26442 7.26492 3.87975e-18)
(6.22752 6.90423 2.84764e-18)
(6.13625 6.42449 -1.28851e-18)
(5.98965 5.83678 -8.31491e-18)
(5.78884 5.159 -1.91117e-17)
(5.53389 4.4145 -3.08805e-17)
(5.23168 3.63473 -4.2652e-17)
(4.88747 2.853 -5.46601e-17)
(4.51456 2.10633 -6.52002e-17)
(4.12606 1.42738 -7.37095e-17)
(-10.2072 2.95064 5.46256e-18)
(-9.89645 2.76443 5.05995e-18)
(-9.73083 2.29394 4.69145e-18)
(-9.62344 1.74814 4.1135e-18)
(-9.53818 1.20249 3.90243e-18)
(-9.46384 0.701352 4.21446e-18)
(-9.38869 0.281541 4.25148e-18)
(-9.3029 -0.0322473 4.22559e-18)
(-9.18495 -0.239142 4.21392e-18)
(-9.00366 -0.368796 3.67558e-18)
(-8.76389 -0.448229 3.81031e-18)
(-8.45835 -0.47672 4.72619e-18)
(-8.07226 -0.442785 4.971e-18)
(-7.57908 -0.336291 5.18355e-18)
(-6.94464 -0.143694 5.40149e-18)
(-6.13055 0.150756 5.22418e-18)
(-5.08163 0.550944 5.30214e-18)
(-4.07681 1.01856 5.91347e-18)
(-3.36398 1.49386 6.09776e-18)
(-2.8017 1.95418 6.37402e-18)
(-2.29524 2.38172 6.64749e-18)
(-1.82608 2.77066 7.06327e-18)
(-1.39592 3.12566 7.32933e-18)
(-0.995964 3.46038 7.28008e-18)
(-0.622826 3.77588 7.04296e-18)
(-0.258937 4.07871 7.1518e-18)
(0.0996383 4.37443 6.91036e-18)
(0.448777 4.66517 6.99254e-18)
(0.794922 4.95423 7.10548e-18)
(1.13366 5.2474 7.08172e-18)
(1.45005 5.54205 7.0758e-18)
(1.7488 5.83546 7.28833e-18)
(2.05295 6.13896 6.47618e-18)
(2.36007 6.44319 4.7209e-18)
(2.67477 6.73761 3.03076e-18)
(2.99541 7.00423 1.79251e-18)
(3.31558 7.2191 1.61547e-18)
(3.62664 7.35905 2.50388e-18)
(3.91862 7.40421 4.33555e-18)
(4.18182 7.33918 6.30922e-18)
(4.40941 7.15534 7.60898e-18)
(4.59551 6.84996 7.96222e-18)
(4.7348 6.4271 5.28721e-18)
(4.82223 5.8968 7.85212e-19)
(4.85444 5.27526 -6.91037e-18)
(4.82959 4.58499 -1.58096e-17)
(4.74963 3.85446 -2.56807e-17)
(4.61801 3.11572 -3.53404e-17)
(4.44161 2.40223 -4.22985e-17)
(4.22847 1.74448 -4.73522e-17)
(-13.32 2.68443 5.23662e-18)
(-12.8781 2.46872 5.05713e-18)
(-12.5685 2.03539 4.85322e-18)
(-12.3241 1.52598 3.97589e-18)
(-12.1592 1.02939 3.48154e-18)
(-12.0625 0.599212 3.58716e-18)
(-12.013 0.251741 3.19409e-18)
(-11.9878 -0.0196923 2.85818e-18)
(-11.9636 -0.229383 2.72765e-18)
(-11.935 -0.391273 2.22856e-18)
(-11.8866 -0.512828 2.20323e-18)
(-11.8071 -0.592051 2.8048e-18)
(-11.686 -0.619813 3.13823e-18)
(-11.5087 -0.584611 3.56013e-18)
(-11.2553 -0.47388 4.10123e-18)
(-10.8999 -0.275746 4.17379e-18)
(-10.4133 0.0154365 4.66634e-18)
(-9.76493 0.395611 5.95836e-18)
(-8.9627 0.843528 6.67647e-18)
(-8.20848 1.30152 7.14651e-18)
(-7.48163 1.74821 7.55701e-18)
(-6.78133 2.17073 7.81805e-18)
(-6.11193 2.56704 7.91682e-18)
(-5.48015 2.93895 8.05719e-18)
(-4.88648 3.28811 7.72623e-18)
(-4.32457 3.61847 7.29842e-18)
(-3.79099 3.93423 7.16891e-18)
(-3.28582 4.23843 7.05915e-18)
(-2.80703 4.53514 6.20003e-18)
(-2.35409 4.82928 5.57539e-18)
(-1.9221 5.12305 5.11207e-18)
(-1.50083 5.41796 5.22319e-18)
(-1.07185 5.71975 5.73383e-18)
(-0.632567 6.02096 6.22756e-18)
(-0.175957 6.31196 6.3824e-18)
(0.297892 6.57679 5.67772e-18)
(0.786954 6.8019 4.66036e-18)
(1.25464 6.95504 4.97005e-18)
(1.70823 7.02064 6.74811e-18)
(2.14164 6.98504 8.60562e-18)
(2.55188 6.83989 9.95376e-18)
(2.93119 6.58058 1.07221e-17)
(3.27106 6.20939 9.05686e-18)
(3.56363 5.7345 6.16446e-18)
(3.8028 5.17037 1.61806e-18)
(3.98474 4.5383 -4.46674e-18)
(4.10854 3.86481 -1.13661e-17)
(4.17509 3.18041 -1.74657e-17)
(4.18657 2.51627 -2.23197e-17)
(4.14513 1.90075 -2.55367e-17)
(-15.5414 2.12279 5.16393e-18)
(-15.0626 1.91201 4.7909e-18)
(-14.7493 1.5875 4.17621e-18)
(-14.5135 1.21387 2.95299e-18)
(-14.3697 0.84155 2.13644e-18)
(-14.3029 0.500198 1.81445e-18)
(-14.2912 0.201239 1.17425e-18)
(-14.3121 -0.0522211 6.98322e-19)
(-14.3467 -0.261556 3.69799e-19)
(-14.3938 -0.432286 -2.73109e-19)
(-14.4424 -0.569381 -3.87481e-19)
(-14.4813 -0.671469 1.10096e-20)
(-14.5017 -0.733087 8.71619e-20)
(-14.4929 -0.74599 1.81466e-19)
(-14.4414 -0.700323 3.04319e-19)
(-14.3293 -0.586446 1.02404e-19)
(-14.1358 -0.397773 4.48999e-19)
(-13.8397 -0.133887 1.47927e-18)
(-13.4241 0.19837 2.2713e-18)
(-12.8661 0.5865 3.02707e-18)
(-12.2672 0.993681 3.76484e-18)
(-11.6235 1.40304 4.40206e-18)
(-10.9472 1.80519 4.89309e-18)
(-10.253 2.19577 5.22811e-18)
(-9.55443 2.5719 5.18813e-18)
(-8.86051 2.93258 4.9352e-18)
(-8.17753 3.27839 5.116e-18)
(-7.51013 3.61081 4.24623e-18)
(-6.86101 3.93251 2.34751e-18)
(-6.23342 4.24594 6.97871e-19)
(-5.62483 4.55397 -3.09523e-19)
(-5.02474 4.85944 2.21226e-19)
(-4.42256 5.16327 2.21457e-18)
(-3.81156 5.46029 4.88718e-18)
(-3.18418 5.74273 7.2308e-18)
(-2.54003 5.99922 7.77718e-18)
(-1.87601 6.2167 6.31146e-18)
(-1.20855 6.37224 4.74891e-18)
(-0.540691 6.45046 5.65491e-18)
(0.112393 6.43836 7.6872e-18)
(0.760747 6.32132 9.21819e-18)
(1.32377 6.10494 9.8231e-18)
(1.83735 5.78822 9.19793e-18)
(2.30674 5.373 8.25378e-18)
(2.72607 4.86976 7.10132e-18)
(3.09055 4.2993 5.53466e-18)
(3.39763 3.68731 3.27489e-18)
(3.64575 3.06409 1.85019e-18)
(3.83286 2.46028 2.36581e-18)
(3.9548 1.90267 3.10974e-18)
(-17.4516 1.71086 6.10468e-18)
(-16.9919 1.56211 5.85009e-18)
(-16.7117 1.33763 5.47868e-18)
(-16.5043 1.0696 4.65543e-18)
(-16.3789 0.78658 4.2581e-18)
(-16.3232 0.510602 4.21608e-18)
(-16.3212 0.256242 3.79363e-18)
(-16.3569 0.0319666 3.35198e-18)
(-16.4155 -0.15914 2.84562e-18)
(-16.4927 -0.318396 1.98766e-18)
(-16.5843 -0.448978 1.56844e-18)
(-16.6805 -0.551299 1.56534e-18)
(-16.7733 -0.622649 1.35469e-18)
(-16.8534 -0.658134 1.21485e-18)
(-16.9101 -0.65141 9.95996e-19)
(-16.9298 -0.596049 4.44127e-19)
(-16.8968 -0.48709 5.29786e-19)
(-16.7947 -0.32251 1.03378e-18)
(-16.6085 -0.104448 1.19038e-18)
(-16.3266 0.161753 1.35997e-18)
(-15.938 0.468286 1.56566e-18)
(-15.4834 0.797606 1.76973e-18)
(-14.9614 1.13901 1.94507e-18)
(-14.3784 1.48558 2.10429e-18)
(-13.7454 1.83271 2.13241e-18)
(-13.0731 2.17707 1.97819e-18)
(-12.3715 2.51659 1.97502e-18)
(-11.6487 2.85047 9.28343e-19)
(-10.9114 3.17885 -1.34945e-18)
(-10.1641 3.50195 -3.67029e-18)
(-9.40828 3.81996 -5.65443e-18)
(-8.64173 4.13239 -5.70431e-18)
(-7.86079 4.43693 -3.56025e-18)
(-7.06169 4.72834 3.73914e-20)
(-6.24071 4.99943 3.4951e-18)
(-5.39815 5.24094 5.38449e-18)
(-4.53898 5.44292 4.62167e-18)
(-3.67092 5.59086 2.85693e-18)
(-2.79952 5.67278 3.20018e-18)
(-1.93908 5.67934 5.68498e-18)
(-1.08748 5.60036 7.52884e-18)
(-0.292162 5.43475 8.55631e-18)
(0.466978 5.16888 9.25887e-18)
(1.13079 4.81157 1.04669e-17)
(1.70098 4.38323 1.30248e-17)
(2.21907 3.88519 1.71204e-17)
(2.68561 3.34121 1.92565e-17)
(3.09685 2.78481 2.15705e-17)
(3.44607 2.24969 2.65251e-17)
(3.72142 1.76246 3.35558e-17)
(-19.2875 1.38136 1.28485e-19)
(-18.851 1.28008 -6.08829e-19)
(-18.5817 1.11754 -1.40075e-18)
(-18.3707 0.917248 -2.58451e-18)
(-18.2303 0.699689 -3.2365e-18)
(-18.1545 0.482176 -3.46981e-18)
(-18.1339 0.277254 -3.91613e-18)
(-18.1577 0.0928117 -4.22415e-18)
(-18.2141 -0.0671677 -4.43542e-18)
(-18.2936 -0.202234 -4.85736e-18)
(-18.3972 -0.313612 -4.8261e-18)
(-18.5163 -0.402294 -4.39426e-18)
(-18.6426 -0.467234 -4.19164e-18)
(-18.768 -0.505698 -4.00737e-18)
(-18.8827 -0.513979 -3.79888e-18)
(-18.9757 -0.488145 -4.01886e-18)
(-19.0339 -0.425067 -3.82101e-18)
(-19.0441 -0.323298 -3.18294e-18)
(-18.9936 -0.183538 -2.8327e-18)
(-18.8713 -0.00846116 -2.53977e-18)
(-18.6676 0.19835 -2.24432e-18)
(-18.3821 0.431718 -2.07634e-18)
(-18.0244 0.683868 -1.96299e-18)
(-17.5928 0.949314 -1.90818e-18)
(-17.0897 1.22467 -1.93474e-18)
(-16.52 1.50765 -2.05447e-18)
(-15.8891 1.7964 -2.16798e-18)
(-15.2027 2.08951 -3.0914e-18)
(-14.4662 2.38565 -5.25236e-18)
(-13.6847 2.68303 -7.23209e-18)
(-12.8617 2.97935 -9.20406e-18)
(-11.9992 3.27147 -1.02826e-17)
(-11.0981 3.55521 -9.1186e-18)
(-10.1587 3.82512 -5.92168e-18)
(-9.18171 4.07461 -1.84521e-18)
(-8.16982 4.29582 1.11598e-18)
(-7.1285 4.47995 1.66889e-18)
(-6.066 4.61665 1.03797e-18)
(-4.99264 4.6964 2.40634e-18)
(-3.9228 4.71129 5.84809e-18)
(-2.87504 4.65843 7.87437e-18)
(-1.87236 4.53593 9.92446e-18)
(-0.913979 4.34052 1.17872e-17)
(-0.0301571 4.07194 1.38176e-17)
(0.79592 3.70495 1.88075e-17)
(1.4397 3.2989 2.62719e-17)
(2.03246 2.83667 3.16136e-17)
(2.5829 2.35648 3.87348e-17)
(3.07829 1.89993 4.79188e-17)
(3.49615 1.49522 6.33477e-17)
(-21.1097 1.0498 -3.2476e-18)
(-20.6492 0.986452 -3.65163e-18)
(-20.3544 0.876568 -4.03146e-18)
(-20.1069 0.73711 -5.0303e-18)
(-19.9234 0.581883 -5.36285e-18)
(-19.8029 0.422903 -4.93404e-18)
(-19.7409 0.269454 -4.97448e-18)
(-19.7303 0.128074 -4.95972e-18)
(-19.7623 0.00285804 -4.97259e-18)
(-19.8281 -0.104245 -5.1846e-18)
(-19.9232 -0.193026 -4.9712e-18)
(-20.0424 -0.263945 -4.39105e-18)
(-20.1786 -0.316546 -4.03711e-18)
(-20.3234 -0.349456 -3.74971e-18)
(-20.4676 -0.360671 -3.505e-18)
(-20.6012 -0.348004 -3.29033e-18)
(-20.713 -0.309739 -3.07941e-18)
(-20.7915 -0.245174 -2.89975e-18)
(-20.8253 -0.154838 -2.69652e-18)
(-20.8042 -0.0404111 -2.52905e-18)
(-20.7192 0.0956787 -2.52371e-18)
(-20.561 0.251079 -2.48643e-18)
(-20.3314 0.422225 -2.47022e-18)
(-20.0276 0.606073 -2.51586e-18)
(-19.6467 0.800766 -2.63604e-18)
(-19.188 1.00559 -2.895e-18)
(-18.6521 1.22007 -2.96634e-18)
(-18.0404 1.44345 -3.7059e-18)
(-17.3552 1.67439 -5.4314e-18)
(-16.5989 1.91078 -6.84402e-18)
(-15.7737 2.14959 -8.43871e-18)
(-14.8814 2.38697 -9.72435e-18)
(-13.9238 2.61835 -9.2582e-18)
(-12.9028 2.83857 -7.07253e-18)
(-11.8215 3.04205 -4.04153e-18)
(-10.685 3.22281 -6.31137e-19)
(-9.50134 3.3743 1.23012e-18)
(-8.28124 3.48941 1.97842e-18)
(-7.03847 3.56122 3.79527e-18)
(-5.78951 3.58343 7.23949e-18)
(-4.55338 3.55168 9.34516e-18)
(-3.35069 3.4635 1.16678e-17)
(-2.20025 3.3207 1.35379e-17)
(-1.12579 3.12938 1.47473e-17)
(-0.117629 2.8832 1.89914e-17)
(0.813213 2.55051 2.95175e-17)
(1.50156 2.18464 3.7122e-17)
(2.15795 1.79489 4.74846e-17)
(2.77642 1.43439 6.20419e-17)
(3.32146 1.13162 9.04402e-17)
(-22.8251 0.653643 -4.60559e-18)
(-22.3053 0.61978 -4.4251e-18)
(-21.9584 0.555126 -4.19263e-18)
(-21.6523 0.470495 -4.41599e-18)
(-21.4075 0.373996 -4.01331e-18)
(-21.2265 0.272897 -2.91657e-18)
(-21.1083 0.173198 -2.2932e-18)
(-21.0485 0.0794472 -1.61618e-18)
(-21.0407 -0.00520317 -9.00745e-19)
(-21.0773 -0.0787678 -7.36518e-19)
(-21.1506 -0.140477 7.82354e-20)
(-21.2566 -0.190277 1.5219e-18)
(-21.3876 -0.228147 2.32921e-18)
(-21.5355 -0.253636 3.02417e-18)
(-21.6914 -0.265839 3.56342e-18)
(-21.8456 -0.263796 3.34568e-18)
(-21.9878 -0.246738 3.6173e-18)
(-22.1075 -0.214344 4.42121e-18)
(-22.1945 -0.166888 4.58287e-18)
(-22.2389 -0.105179 4.62008e-18)
(-22.2317 -0.0303329 4.59961e-18)
(-22.164 0.0566315 4.53956e-18)
(-22.028 0.154755 4.44592e-18)
(-21.8207 0.261916 4.31502e-18)
(-21.5364 0.376869 4.14155e-18)
(-21.1707 0.499357 3.85556e-18)
(-20.7212 0.629567 3.42929e-18)
(-20.1866 0.767447 2.69034e-18)
(-19.5662 0.912208 1.80883e-18)
(-18.8598 1.0623 7.80043e-19)
(-18.0669 1.21546 -3.58619e-19)
(-17.1872 1.36884 -1.4069e-18)
(-16.2205 1.51929 -1.57669e-18)
(-15.1675 1.66342 -9.88919e-19)
(-14.0313 1.79764 5.16799e-19)
(-12.8176 1.9184 2.88625e-18)
(-11.5361 2.02182 4.78325e-18)
(-10.2001 2.10358 6.12069e-18)
(-8.82629 2.15932 8.4261e-18)