/*--------------------------------*- C++ -*----------------------------------*\
  =========                 |
  \\      /  F ield         | OpenFOAM: The Open Source CFD Toolbox
   \\    /   O peration     | Website:  https://openfoam.org
    \\  /    A nd           | Version:  8
     \\/     M anipulation  |
\*---------------------------------------------------------------------------*/
FoamFile
{
    version     2.0;
    format      ascii;
    class       volScalarField;
    location    "200";
    object      alphat;
}
// * * * * * * * * * * * * * * * * * * * * * * * * * * * * * * * * * * * * * //

dimensions      [1 -1 -1 0 0 0 0];

internalField   nonuniform List<scalar> 
8400
(
0.310418
0.308948
0.307499
0.30606
0.304626
0.303192
0.301752
0.300302
0.298839
0.297363
0.295874
0.294371
0.292856
0.291329
0.289793
0.28825
0.2867
0.285147
0.283592
0.282038
0.280486
0.278938
0.277396
0.275864
0.274342
0.272834
0.271341
0.269865
0.268409
0.266974
0.265563
0.264177
0.262818
0.261489
0.260191
0.258927
0.257697
0.256506
0.255353
0.254241
0.253173
0.252152
0.25118
0.250262
0.249404
0.248614
0.247905
0.247293
0.246799
0.246458
0.0891701
0.0891349
0.0891045
0.0890811
0.0890666
0.0890627
0.0890708
0.0890922
0.089128
0.089179
0.0892461
0.0893298
0.0894306
0.0895491
0.0896855
0.0898404
0.0900138
0.0902062
0.0904176
0.0906481
0.0908976
0.091166
0.0914532
0.0917592
0.092084
0.0924274
0.0927891
0.0931688
0.0935658
0.0939796
0.0944097
0.0948557
0.0953172
0.0957936
0.0962843
0.0967887
0.0973062
0.097836
0.0983776
0.0989301
0.0994929
0.100065
0.100646
0.101234
0.101829
0.102429
0.103032
0.103638
0.104241
0.104839
0.0977509
0.0978284
0.0979056
0.0979847
0.0980681
0.098158
0.0982566
0.0983654
0.0984858
0.0986189
0.0987653
0.0989256
0.0991002
0.0992895
0.0994934
0.0997121
0.0999455
0.100194
0.100456
0.100733
0.101024
0.101328
0.101645
0.101976
0.102318
0.102673
0.103039
0.103416
0.103803
0.104199
0.104604
0.105018
0.105439
0.105867
0.106302
0.106742
0.107187
0.107636
0.108089
0.108545
0.109003
0.109462
0.109921
0.110379
0.110835
0.111288
0.111734
0.112174
0.112602
0.113014
0.107799
0.108012
0.108221
0.108425
0.108627
0.108827
0.109025
0.109223
0.109422
0.109623
0.109827
0.110033
0.110244
0.110458
0.110678
0.110903
0.111134
0.11137
0.111613
0.111861
0.112116
0.112377
0.112644
0.112918
0.113197
0.113483
0.113774
0.114071
0.114374
0.114682
0.114996
0.115314
0.115637
0.115964
0.116296
0.116632
0.116972
0.117315
0.117662
0.118012
0.118365
0.11872
0.119078
0.119438
0.1198
0.120164
0.120528
0.120894
0.121261
0.121628
0.107663
0.108063
0.108456
0.10884
0.109211
0.10957
0.109915
0.110248
0.110568
0.110876
0.111174
0.111462
0.111742
0.112014
0.112281
0.112542
0.112799
0.113052
0.113303
0.113552
0.113799
0.114046
0.114292
0.114539
0.114787
0.115036
0.115287
0.11554
0.115795
0.116054
0.116317
0.116583
0.116852
0.117127
0.117405
0.117689
0.117977
0.118271
0.11857
0.118875
0.119186
0.119503
0.119826
0.120157
0.120495
0.120842
0.121199
0.121567
0.121947
0.122344
0.0985487
0.0991378
0.0997241
0.100298
0.100852
0.101384
0.101891
0.102373
0.102831
0.103264
0.103676
0.104067
0.104439
0.104794
0.105132
0.105457
0.105769
0.10607
0.106362
0.106645
0.106921
0.107192
0.107458
0.107721
0.107982
0.108241
0.108501
0.108761
0.109023
0.109289
0.109557
0.109831
0.110109
0.110393
0.110683
0.110981
0.111287
0.111601
0.111924
0.112256
0.112598
0.112949
0.113311
0.113685
0.114072
0.114473
0.11489
0.115326
0.115783
0.116266
0.0835694
0.0842672
0.0849672
0.0856556
0.0863232
0.0869646
0.0875769
0.0881591
0.0887119
0.0892361
0.0897331
0.0902047
0.0906528
0.0910791
0.0914856
0.0918741
0.0922467
0.0926052
0.0929514
0.0932871
0.093614
0.093934
0.0942485
0.0945592
0.0948675
0.095175
0.0954831
0.0957934
0.0961071
0.0964256
0.0967496
0.0970804
0.097419
0.0977664
0.0981236
0.0984914
0.0988703
0.099261
0.0996639
0.100079
0.100508
0.10095
0.101406
0.101876
0.102363
0.102867
0.10339
0.103936
0.104508
0.105109
0.0679244
0.0685047
0.0691038
0.0697045
0.0702967
0.070874
0.071433
0.0719722
0.0724913
0.0729902
0.0734698
0.0739308
0.0743743
0.0748015
0.0752139
0.0756129
0.076
0.0763767
0.0767447
0.0771055
0.0774608
0.0778123
0.0781614
0.0785097
0.0788587
0.07921
0.079565
0.0799253
0.0802921
0.0806666
0.08105
0.0814435
0.0818481
0.082265
0.082695
0.0831388
0.0835971
0.0840704
0.084559
0.0850633
0.0855833
0.0861192
0.0866716
0.0872408
0.0878277
0.0884335
0.0890597
0.089709
0.0903844
0.0910898
0.0577773
0.0579498
0.058154
0.0583822
0.058628
0.0588865
0.0591537
0.0594267
0.0597036
0.0599829
0.060263
0.0605432
0.0608229
0.0611018
0.0613799
0.0616572
0.0619342
0.0622112
0.0624888
0.0627677
0.0630486
0.0633325
0.0636202
0.0639126
0.0642107
0.0645155
0.064828
0.0651492
0.0654802
0.065822
0.0661755
0.0665417
0.0669215
0.0673159
0.0677259
0.0681521
0.0685953
0.0690559
0.0695345
0.0700314
0.070547
0.0710813
0.0716349
0.0722083
0.0728025
0.0734178
0.0740556
0.0747175
0.0754065
0.0761256
0.0559882
0.0557233
0.0554876
0.0552883
0.0551241
0.0549915
0.0548872
0.054808
0.0547514
0.0547148
0.0546964
0.0546946
0.0547075
0.0547338
0.0547724
0.0548221
0.0548822
0.0549519
0.0550305
0.0551175
0.0552126
0.0553156
0.0554265
0.0555453
0.0556718
0.0558063
0.055949
0.0561002
0.0562604
0.0564301
0.0566098
0.0568
0.0570014
0.0572149
0.0574413
0.0576812
0.0579356
0.0582053
0.0584908
0.0587929
0.0591128
0.0594511
0.0598089
0.0601868
0.0605864
0.061008
0.0614526
0.0619213
0.062416
0.0629387
0.0585183
0.0581265
0.0577574
0.0574145
0.0570979
0.0568048
0.056532
0.0562774
0.0560401
0.05582
0.0556159
0.0554279
0.0552552
0.0550978
0.0549554
0.0548274
0.0547131
0.0546115
0.0545218
0.054443
0.0543746
0.0543162
0.0542672
0.0542268
0.0541937
0.0541674
0.0541474
0.0541337
0.0541261
0.054124
0.0541268
0.0541339
0.0541452
0.0541613
0.0541823
0.0542082
0.0542386
0.0542735
0.0543133
0.0543585
0.0544099
0.0544696
0.0545376
0.0546153
0.0547038
0.0548045
0.0549176
0.0550448
0.0551867
0.0553441
0.060514
0.0602466
0.060007
0.0597764
0.0595545
0.0593435
0.0591372
0.0589368
0.0587385
0.0585416
0.0583482
0.0581579
0.0579708
0.0577877
0.05761
0.0574391
0.0572759
0.0571202
0.0569692
0.0568217
0.0566796
0.0565459
0.0564211
0.0563035
0.0561905
0.0560814
0.0559777
0.0558818
0.0557953
0.0557168
0.0556424
0.0555701
0.0555012
0.055438
0.0553814
0.055329
0.0552765
0.0552197
0.0551591
0.0550981
0.0550358
0.0549755
0.0549125
0.0548489
0.0547801
0.0547128
0.0546418
0.054574
0.0545105
0.054457
0.0611069
0.0609644
0.0608301
0.0607015
0.0605761
0.0604545
0.0603355
0.060218
0.0601013
0.0599854
0.0598709
0.059757
0.0596434
0.0595302
0.0594178
0.059307
0.0591981
0.0590909
0.0589839
0.0588761
0.058768
0.0586611
0.0585565
0.0584539
0.0583522
0.0582503
0.0581486
0.0580491
0.0579533
0.057861
0.0577703
0.0576796
0.0575897
0.057503
0.0574208
0.0573427
0.0572659
0.0571877
0.0571089
0.0570301
0.0569541
0.056881
0.0568098
0.0567402
0.0566681
0.0565942
0.0565141
0.0564261
0.0563284
0.0562087
0.0611675
0.0610934
0.0610198
0.0609467
0.0608743
0.060802
0.0607297
0.0606576
0.0605853
0.060513
0.0604408
0.0603689
0.0602969
0.0602249
0.0601532
0.0600817
0.0600104
0.0599393
0.0598681
0.0597968
0.0597256
0.0596546
0.0595842
0.0595141
0.0594441
0.0593742
0.0593046
0.0592357
0.0591675
0.0590997
0.059032
0.0589642
0.058897
0.0588309
0.0587659
0.0587016
0.0586375
0.0585729
0.0585086
0.0584441
0.0583801
0.0583164
0.0582526
0.0581882
0.0581226
0.0580551
0.0579856
0.0579122
0.0578359
0.0577529
0.0611906
0.061142
0.0610931
0.0610438
0.0609945
0.0609451
0.0608956
0.0608459
0.0607962
0.0607463
0.0606964
0.0606465
0.0605966
0.0605467
0.0604967
0.0604466
0.0603966
0.0603466
0.0602966
0.0602465
0.0601964
0.0601465
0.0600967
0.060047
0.0599974
0.0599479
0.0598985
0.0598492
0.0597999
0.0597506
0.0597012
0.0596518
0.0596027
0.0595539
0.0595055
0.0594571
0.0594086
0.0593601
0.0593113
0.0592627
0.0592138
0.0591648
0.0591153
0.0590651
0.0590141
0.0589618
0.058908
0.0588517
0.0587932
0.058731
0.0612006
0.0611637
0.0611269
0.0610902
0.0610537
0.0610173
0.060981
0.0609445
0.0609081
0.0608716
0.0608352
0.0607989
0.0607626
0.0607263
0.0606898
0.0606533
0.0606168
0.0605803
0.0605437
0.0605071
0.0604704
0.0604337
0.0603971
0.0603605
0.0603239
0.0602874
0.0602507
0.0602139
0.0601771
0.0601401
0.0601029
0.0600658
0.0600287
0.0599917
0.0599547
0.0599177
0.0598806
0.0598434
0.0598061
0.0597687
0.0597309
0.0596929
0.0596542
0.0596149
0.0595748
0.059534
0.0594922
0.0594493
0.0594071
0.0593646
0.0612112
0.0611853
0.0611592
0.0611328
0.0611063
0.0610796
0.0610527
0.0610256
0.0609982
0.0609708
0.0609433
0.0609157
0.0608879
0.06086
0.0608319
0.0608038
0.0607755
0.0607472
0.0607188
0.0606902
0.0606615
0.0606328
0.0606041
0.0605753
0.0605465
0.0605175
0.0604884
0.0604592
0.0604299
0.0604004
0.0603709
0.0603413
0.0603117
0.0602821
0.0602523
0.0602224
0.0601924
0.0601623
0.0601322
0.060102
0.0600716
0.0600408
0.0600097
0.0599781
0.0599459
0.0599138
0.0598814
0.0598487
0.0598146
0.0597794
0.0612112
0.0611859
0.0611609
0.0611364
0.0611124
0.0610887
0.0610653
0.0610422
0.0610192
0.0609965
0.060974
0.0609517
0.0609294
0.0609072
0.0608851
0.0608631
0.0608412
0.0608193
0.0607975
0.0607757
0.0607539
0.0607322
0.0607106
0.060689
0.0606675
0.0606459
0.0606243
0.0606028
0.0605814
0.06056
0.0605387
0.0605176
0.0604964
0.0604753
0.0604543
0.0604331
0.0604119
0.0603905
0.0603686
0.0603459
0.0603221
0.0602971
0.0602706
0.0602449
0.0602192
0.060193
0.0601665
0.0601393
0.0601115
0.060083
0.0612209
0.0612131
0.0612081
0.0612064
0.0612077
0.0612115
0.0612171
0.061224
0.0612321
0.0612409
0.0612504
0.0612602
0.0612703
0.0612806
0.061291
0.0613015
0.0613121
0.0613226
0.0613331
0.0613436
0.0613541
0.0613646
0.0613752
0.061386
0.0613968
0.0614078
0.061419
0.0614306
0.0614426
0.0614549
0.0614676
0.0614807
0.061494
0.0615071
0.0615196
0.0615308
0.0615392
0.0615428
0.061537
0.0615113
0.0615061
0.0615
0.0614934
0.0614851
0.061476
0.0614659
0.0614547
0.0614421
0.0614278
0.0614111
0.0620151
0.0628261
0.0636448
0.0644704
0.0653036
0.0661448
0.0669941
0.0678516
0.0687176
0.0695921
0.0704751
0.0713666
0.0722669
0.0731758
0.0740936
0.0750203
0.0759558
0.0769003
0.0778538
0.0788164
0.0797881
0.080769
0.0817592
0.0827586
0.0837674
0.0847855
0.0858132
0.0868504
0.0878973
0.0889538
0.0900199
0.0910956
0.092181
0.0932763
0.0943814
0.0954967
0.096622
0.0977574
0.098903
0.100059
0.101156
0.102213
0.10322
0.104167
0.105046
0.10585
0.106573
0.107209
0.107754
0.108217
0.27115
0.267804
0.264601
0.261531
0.258578
0.255722
0.252948
0.250249
0.24762
0.245059
0.242565
0.240137
0.237772
0.235471
0.23323
0.231048
0.228919
0.226841
0.224811
0.222828
0.220889
0.218996
0.217149
0.215348
0.213592
0.21188
0.210211
0.208581
0.206989
0.205433
0.203911
0.202423
0.200968
0.199547
0.198157
0.1968
0.195474
0.194178
0.192913
0.191673
0.190453
0.189253
0.188069
0.186902
0.185747
0.1846
0.183456
0.182303
0.181121
0.179873
0.269204
0.26303
0.257141
0.25151
0.246126
0.240979
0.236059
0.231351
0.226842
0.222521
0.21838
0.214409
0.210599
0.206941
0.203424
0.200036
0.196768
0.193612
0.19056
0.18761
0.184758
0.182002
0.17934
0.176768
0.174282
0.171875
0.169543
0.167279
0.165079
0.16294
0.160859
0.158835
0.156866
0.154949
0.153082
0.151262
0.149485
0.147748
0.146049
0.144389
0.142772
0.141196
0.13966
0.138163
0.136702
0.135276
0.133882
0.132514
0.131167
0.129838
0.269196
0.263002
0.257073
0.251404
0.24598
0.240784
0.235803
0.231022
0.22643
0.222018
0.217777
0.213698
0.209774
0.205995
0.202351
0.198834
0.195434
0.192145
0.18896
0.185875
0.182889
0.179998
0.1772
0.174491
0.171867
0.169323
0.166854
0.164455
0.162124
0.159856
0.15765
0.155503
0.153415
0.151383
0.149405
0.14748
0.145604
0.143777
0.141997
0.140262
0.13857
0.136921
0.135314
0.133748
0.132222
0.130736
0.129289
0.12788
0.126504
0.125151
0.269196
0.263047
0.257172
0.251554
0.246176
0.241019
0.236069
0.231312
0.226739
0.22234
0.218108
0.214034
0.210111
0.20633
0.202682
0.199158
0.19575
0.192451
0.189255
0.186161
0.183164
0.180262
0.177452
0.174731
0.172094
0.169536
0.167052
0.164638
0.162291
0.160008
0.157787
0.155627
0.153525
0.151481
0.149491
0.147554
0.145667
0.143828
0.142036
0.140289
0.138586
0.136925
0.135306
0.133728
0.132189
0.13069
0.129228
0.127806
0.126422
0.125065
0.269196
0.263049
0.257171
0.251547
0.246158
0.240991
0.23603
0.231265
0.226686
0.222283
0.218048
0.213973
0.21005
0.20627
0.202623
0.1991
0.195694
0.192398
0.189207
0.186118
0.183127
0.180231
0.177428
0.174713
0.17208
0.169525
0.167044
0.164633
0.162288
0.160008
0.15779
0.155634
0.153537
0.151497
0.149511
0.147578
0.145694
0.143859
0.14207
0.140325
0.138624
0.136965
0.135348
0.133771
0.132234
0.130734
0.129271
0.127843
0.126454
0.125097
0.269196
0.263054
0.257183
0.251568
0.24619
0.241033
0.236084
0.231331
0.226762
0.22237
0.218144
0.214078
0.210161
0.206386
0.202742
0.199222
0.195817
0.192523
0.189334
0.186247
0.183258
0.180364
0.177562
0.174846
0.172212
0.169655
0.16717
0.164754
0.162406
0.160122
0.157902
0.155744
0.153645
0.151603
0.149616
0.147681
0.145795
0.143956
0.142164
0.140416
0.138712
0.13705
0.135428
0.133846
0.132304
0.1308
0.129332
0.127898
0.126499
0.125134
0.269197
0.263057
0.257189
0.251574
0.246195
0.241037
0.236085
0.231328
0.226756
0.22236
0.218131
0.214061
0.210141
0.206362
0.202715
0.199191
0.195784
0.192489
0.189299
0.186213
0.183226
0.180334
0.177532
0.174817
0.172182
0.169624
0.167137
0.164721
0.162372
0.160089
0.15787
0.155713
0.153617
0.151577
0.149591
0.147656
0.145771
0.143933
0.142142
0.140395
0.138692
0.13703
0.135409
0.133827
0.132283
0.130777
0.129307
0.127872
0.12647
0.125101
0.269197
0.263061
0.257195
0.251582
0.246204
0.241047
0.236096
0.231342
0.226772
0.222379
0.218153
0.214086
0.210168
0.206391
0.202745
0.199222
0.195817
0.192524
0.189338
0.186255
0.183271
0.180382
0.177582
0.174867
0.172232
0.169672
0.167184
0.164766
0.162416
0.160133
0.157914
0.155758
0.153661
0.151621
0.149634
0.147697
0.14581
0.14397
0.142176
0.140427
0.138722
0.137058
0.135434
0.133849
0.132301
0.13079
0.129314
0.127873
0.126466
0.125089
0.269199
0.263065
0.257202
0.251589
0.24621
0.241052
0.2361
0.231345
0.226774
0.22238
0.218153
0.214084
0.210163
0.206383
0.202734
0.19921
0.195804
0.19251
0.189325
0.186243
0.18326
0.180371
0.17757
0.174854
0.172217
0.169655
0.167165
0.164747
0.162397
0.160114
0.157897
0.155742
0.153645
0.151604
0.149616
0.147678
0.14579
0.143949
0.142154
0.140405
0.138699
0.137035
0.135411
0.133824
0.132274
0.13076
0.12928
0.127836
0.126424
0.125043
0.2692
0.26307
0.257208
0.251595
0.246216
0.241057
0.236104
0.231348
0.226778
0.222383
0.218156
0.214086
0.210165
0.206384
0.202736
0.199211
0.195806
0.192514
0.189331
0.186251
0.183269
0.180381
0.177581
0.174864
0.172226
0.169664
0.167174
0.164756
0.162407
0.160126
0.15791
0.155755
0.153658
0.151616
0.149626
0.147686
0.145795
0.143952
0.142157
0.140407
0.1387
0.137035
0.135408
0.133819
0.132265
0.130747
0.129262
0.127812
0.126395
0.125008
0.269202
0.263075
0.257213
0.2516
0.24622
0.24106
0.236106
0.231349
0.226778
0.222383
0.218155
0.214084
0.210162
0.20638
0.20273
0.199206
0.195801
0.19251
0.189328
0.186249
0.183268
0.18038
0.177579
0.174861
0.172222
0.169659
0.16717
0.164752
0.162405
0.160126
0.15791
0.155755
0.153657
0.151613
0.149621
0.147679
0.145787
0.143943
0.142147
0.140396
0.138689
0.137022
0.135394
0.133801
0.132244
0.130721
0.129233
0.127777
0.126355
0.124963
0.269203
0.263078
0.257217
0.251603
0.246222
0.24106
0.236106
0.231348
0.226776
0.22238
0.218151
0.214079
0.210155
0.206371
0.20272
0.199195
0.195789
0.192498
0.189316
0.186237
0.183255
0.180366
0.177563
0.174844
0.172204
0.169641
0.167153
0.164737
0.162392
0.160113
0.157898
0.155743
0.153644
0.151598
0.149604
0.147661
0.145768
0.143923
0.142127
0.140376
0.138668
0.137
0.13537
0.133775
0.132215
0.130689
0.129196
0.127736
0.126309
0.124912
0.269204
0.263079
0.257218
0.251603
0.246221
0.241059
0.236105
0.231347
0.226776
0.222381
0.218152
0.21408
0.210156
0.206373
0.202722
0.199199
0.195795
0.192505
0.189324
0.186245
0.183263
0.180373
0.17757
0.174851
0.172211
0.16965
0.167163
0.16475
0.162406
0.160128
0.157912
0.155756
0.153655
0.151607
0.149611
0.147667
0.145772
0.143927
0.14213
0.140377
0.138667
0.136997
0.135363
0.133764
0.1322
0.130669
0.129171
0.127706
0.126273
0.12487
0.269204
0.263078
0.257215
0.251598
0.246215
0.241051
0.236095
0.231335
0.226762
0.222363
0.218131
0.214055
0.210128
0.206342
0.202688
0.199162
0.195756
0.192464
0.18928
0.186199
0.183214
0.180322
0.177517
0.174796
0.172157
0.169597
0.167112
0.1647
0.162357
0.160079
0.157863
0.155706
0.153604
0.151556
0.149561
0.147617
0.145723
0.143879
0.142082
0.14033
0.138619
0.136947
0.135312
0.133711
0.132145
0.130612
0.129112
0.127645
0.126209
0.124803
0.269204
0.263075
0.257209
0.251592
0.246209
0.241047
0.236095
0.231339
0.22677
0.222375
0.218146
0.214074
0.21015
0.206366
0.202715
0.19919
0.195785
0.192494
0.18931
0.186227
0.183241
0.180348
0.177542
0.174821
0.172182
0.169622
0.167138
0.164725
0.162382
0.160102
0.157884
0.155724
0.15362
0.15157
0.149573
0.147628
0.145734
0.143888
0.142088
0.140332
0.138617
0.13694
0.1353
0.133694
0.132124
0.130586
0.129082
0.12761
0.126168
0.124755
0.269203
0.263068
0.257194
0.251568
0.246175
0.241003
0.23604
0.231274
0.226695
0.222291
0.218054
0.213974
0.210043
0.206253
0.202598
0.199069
0.195661
0.192366
0.189179
0.186094
0.183106
0.180212
0.177406
0.174687
0.17205
0.169492
0.16701
0.1646
0.162258
0.15998
0.157762
0.155604
0.153501
0.151454
0.14946
0.147519
0.145627
0.143783
0.141984
0.140228
0.138512
0.136835
0.135194
0.133589
0.132019
0.130482
0.128979
0.127506
0.126063
0.124648
0.269202
0.263063
0.257191
0.251571
0.246189
0.241028
0.236076
0.231321
0.226749
0.222351
0.218118
0.21404
0.210109
0.206319
0.202661
0.199129
0.195717
0.192417
0.189224
0.186132
0.183138
0.180238
0.177427
0.174703
0.172062
0.169501
0.167014
0.164599
0.162251
0.159968
0.157745
0.155582
0.153477
0.151427
0.149431
0.147487
0.145592
0.143745
0.141942
0.140181
0.138461
0.136779
0.135136
0.13353
0.131959
0.130423
0.128921
0.127451
0.126011
0.124601
0.269201
0.263015
0.257088
0.251418
0.24599
0.240791
0.235809
0.23103
0.226442
0.222032
0.217791
0.213709
0.209778
0.205989
0.202335
0.198809
0.195402
0.19211
0.188926
0.185845
0.182862
0.179974
0.177177
0.174468
0.171842
0.169295
0.166824
0.164424
0.162091
0.159823
0.157618
0.155472
0.153385
0.151355
0.149379
0.147455
0.145581
0.143755
0.141973
0.140236
0.13854
0.136887
0.135275
0.133703
0.132172
0.130682
0.129231
0.127822
0.126455
0.125137
0.269208
0.263042
0.257155
0.251523
0.246136
0.240986
0.236065
0.23136
0.226855
0.222539
0.218399
0.214426
0.21061
0.206941
0.203412
0.200014
0.19674
0.193582
0.190534
0.187591
0.184748
0.182001
0.179346
0.176779
0.174297
0.171894
0.169566
0.167309
0.165121
0.162997
0.160935
0.158935
0.156994
0.155111
0.153284
0.151511
0.149789
0.148118
0.146494
0.144919
0.143392
0.141913
0.140484
0.139106
0.137782
0.136514
0.135307
0.13417
0.133119
0.132188
0.271149
0.26781
0.264612
0.261543
0.258588
0.255731
0.252955
0.250254
0.247626
0.245067
0.242574
0.240146
0.23778
0.235475
0.233227
0.231035
0.228897
0.226811
0.224776
0.22279
0.220852
0.218962
0.217118
0.215319
0.213562
0.211847
0.21017
0.20853
0.206927
0.20536
0.203828
0.20233
0.200865
0.199432
0.198028
0.196653
0.195305
0.193982
0.192684
0.19141
0.19016
0.188932
0.187726
0.186541
0.185373
0.184222
0.183084
0.181957
0.180838
0.179722
0.128147
0.0670506
0.0495555
0.0469982
0.0459748
0.0456318
0.0449562
0.0445269
0.0439462
0.0434529
0.0429447
0.042392
0.0419549
0.0413431
0.0409845
0.0403045
0.0402812
0.0415957
0.05544
0.107367
0.128284
0.0671955
0.0497213
0.0471727
0.0461524
0.0458075
0.045133
0.0447026
0.0441215
0.043625
0.0431149
0.0425608
0.0421238
0.0415126
0.041154
0.040473
0.0404463
0.0417588
0.0555988
0.107491
0.128429
0.0673265
0.0498866
0.0473494
0.0463325
0.0459858
0.045312
0.0448787
0.0442956
0.0437963
0.0432864
0.0427328
0.0422968
0.0416852
0.0413241
0.0406398
0.0406101
0.0419223
0.0557476
0.107618
0.128566
0.0674568
0.0500534
0.0475277
0.0465148
0.0461665
0.0454926
0.0450557
0.0444711
0.0439707
0.0434618
0.0429081
0.0424711
0.0418573
0.0414934
0.0408077
0.0407776
0.0420882
0.0558988
0.107745
0.128703
0.0675879
0.0502224
0.0477082
0.0466989
0.046348
0.0456735
0.0452338
0.0446499
0.0441492
0.0436405
0.0430849
0.0426458
0.0420301
0.0416649
0.04098
0.0409498
0.0422578
0.0560522
0.107868
0.128839
0.0677222
0.0503928
0.0478896
0.0468832
0.0465296
0.0458557
0.0454152
0.0448325
0.0443303
0.0438199
0.0432618
0.0428214
0.0422052
0.0418399
0.0411557
0.0411242
0.0424274
0.0562001
0.107988
0.128979
0.0678579
0.0505631
0.048071
0.0470676
0.0467125
0.0460408
0.0455994
0.0450163
0.0445108
0.0439988
0.0434395
0.0429991
0.0423829
0.042017
0.0413325
0.0412983
0.0425951
0.0563405
0.10811
0.129121
0.0679919
0.050733
0.0482531
0.0472538
0.0468979
0.0462277
0.0457834
0.0451986
0.0446904
0.0441787
0.0436197
0.0431791
0.0425621
0.0421948
0.0415096
0.0414728
0.0427624
0.056478
0.108235
0.129264
0.0681249
0.050904
0.0484373
0.0474422
0.0470846
0.046414
0.045966
0.0453806
0.0448724
0.0443622
0.0438025
0.0433604
0.0427419
0.0423737
0.0416884
0.041649
0.042931
0.056616
0.108363
0.129407
0.06826
0.0510774
0.0486238
0.0476322
0.0472713
0.0465999
0.0461498
0.0455663
0.0450588
0.0445487
0.0439865
0.0435424
0.0429236
0.0425551
0.0418695
0.0418268
0.0431003
0.0567548
0.108494
0.129552
0.0683972
0.0512529
0.0488117
0.0478229
0.0474588
0.0467881
0.0463379
0.0457568
0.0452481
0.0447358
0.0441707
0.043726
0.0431079
0.0427387
0.0420514
0.042005
0.0432702
0.0568961
0.108628
0.1297
0.0685346
0.0514298
0.049001
0.0480152
0.0476491
0.0469806
0.0465302
0.0459494
0.0454371
0.0449224
0.0443562
0.0439122
0.0432942
0.0429226
0.0422331
0.0421841
0.0434425
0.0570438
0.108763
0.129848
0.0686717
0.0516084
0.0491921
0.0482101
0.0478426
0.0471761
0.0467235
0.046141
0.0456252
0.0451101
0.0445443
0.0441004
0.0434809
0.0431064
0.0424161
0.0423663
0.0436193
0.057198
0.108894
0.129996
0.0688104
0.051789
0.0493851
0.0484072
0.0480379
0.047372
0.0469161
0.0463322
0.0458147
0.0453006
0.0447347
0.0442895
0.0436681
0.0432922
0.0426028
0.0425521
0.0437992
0.0573508
0.10902
0.130144
0.0689512
0.0519714
0.0495797
0.0486056
0.0482339
0.047568
0.047109
0.0465252
0.0460071
0.0454935
0.0449263
0.0444798
0.0438577
0.0434819
0.042793
0.0427392
0.0439779
0.0574934
0.109145
0.130293
0.0690941
0.0521552
0.0497758
0.0488054
0.0484311
0.0477654
0.0473043
0.046721
0.0462018
0.0456877
0.0451193
0.0446725
0.044051
0.0436746
0.0429841
0.0429251
0.0441535
0.057627
0.109277
0.130442
0.06924
0.0523413
0.0499742
0.0490075
0.0486306
0.0479654
0.0475019
0.0469187
0.0463977
0.0458835
0.0453148
0.0448684
0.0442467
0.0438677
0.0431744
0.0431106
0.0443292
0.0577628
0.109419
0.130593
0.0693904
0.0525304
0.0501753
0.0492121
0.0488323
0.0481672
0.0477012
0.0471179
0.0465958
0.046082
0.0455131
0.0450659
0.0444425
0.0440605
0.0433653
0.0432991
0.0445097
0.0579109
0.109567
0.130748
0.0695442
0.052722
0.0503784
0.0494183
0.0490354
0.0483705
0.0479023
0.0473198
0.046797
0.0462833
0.045713
0.0452637
0.0446385
0.0442547
0.0435597
0.0434924
0.044696
0.0580699
0.109714
0.130907
0.0696975
0.0529146
0.0505826
0.0496257
0.0492399
0.048576
0.0481066
0.0475252
0.047001
0.0464861
0.0459132
0.0454622
0.0448363
0.0444522
0.0437579
0.0436888
0.0448846
0.0582308
0.109857
0.131068
0.0698484
0.0531082
0.050788
0.0498346
0.0494466
0.0487846
0.048314
0.047733
0.0472061
0.0466892
0.0461144
0.0456628
0.045037
0.0446522
0.0439575
0.0438854
0.0450724
0.0583876
0.110002
0.131228
0.069999
0.0533034
0.050995
0.0500457
0.049656
0.0489958
0.0485233
0.0479414
0.0474114
0.0468934
0.0463178
0.045866
0.0452396
0.0448527
0.0441568
0.0440818
0.0452603
0.0585432
0.11015
0.131388
0.0701521
0.053501
0.051204
0.0502589
0.0498674
0.0492086
0.0487332
0.0481502
0.047618
0.0471001
0.0465239
0.0460711
0.0454428
0.0450536
0.0443571
0.0442805
0.0454514
0.0587031
0.1103
0.131548
0.0703075
0.0537004
0.0514147
0.050474
0.0500806
0.0494225
0.048944
0.0483607
0.0478273
0.0473097
0.0467321
0.0462772
0.0456473
0.0452569
0.0445612
0.0444833
0.0456469
0.0588675
0.11045
0.131711
0.0704635
0.0539016
0.0516275
0.0506916
0.050296
0.0496383
0.0491572
0.0485743
0.0480397
0.0475215
0.0469418
0.0464852
0.045855
0.0454647
0.0447698
0.0446892
0.0458445
0.0590318
0.1106
0.131874
0.0706206
0.0541056
0.0518432
0.0509121
0.050514
0.0498567
0.0493731
0.0487905
0.0482541
0.0477348
0.0471535
0.0466965
0.0460669
0.0456763
0.0449808
0.044896
0.046042
0.0591931
0.110751
0.132036
0.070781
0.0543131
0.052062
0.0511351
0.0507337
0.0500767
0.0495907
0.0490081
0.0484698
0.0479498
0.0473682
0.0469114
0.0462821
0.0458896
0.0451921
0.0451029
0.0462399
0.0593544
0.110908
0.1322
0.0709443
0.0545231
0.0522823
0.0513588
0.0509538
0.0502972
0.0498089
0.0492267
0.048687
0.0481675
0.0475859
0.0471288
0.0464985
0.0461033
0.045404
0.0453115
0.0464404
0.0595203
0.111068
0.132366
0.0711074
0.0547333
0.0525027
0.0515821
0.0511738
0.0505183
0.0500283
0.0494471
0.0489068
0.0483878
0.0478059
0.0473475
0.0467156
0.0463181
0.0456182
0.0455235
0.0466446
0.0596911
0.111229
0.132534
0.0712688
0.0549433
0.0527232
0.051806
0.0513951
0.0507412
0.0502501
0.0496702
0.0491292
0.0486102
0.0480271
0.047567
0.0469342
0.0465354
0.0458356
0.0457384
0.0468513
0.059863
0.11139
0.132701
0.0714322
0.0551551
0.052946
0.0520325
0.0516194
0.0509675
0.0504751
0.0498962
0.0493537
0.048834
0.0482495
0.0477883
0.0471551
0.0467555
0.0460555
0.0459551
0.0470589
0.0600337
0.111554
0.132868
0.0716031
0.0553709
0.0531727
0.052263
0.0518475
0.0511972
0.050703
0.0501242
0.0495797
0.0490592
0.0484737
0.048012
0.0473788
0.0469779
0.0462771
0.0461733
0.0472681
0.0602067
0.111724
0.133041
0.0717808
0.0555908
0.053403
0.0524969
0.0520788
0.0514298
0.0509331
0.0503541
0.0498075
0.0492866
0.0487008
0.0482388
0.0476051
0.0472024
0.046501
0.0463945
0.0474813
0.0603876
0.111899
0.133223
0.0719582
0.0558123
0.0536352
0.0527332
0.0523127
0.0516647
0.0511654
0.0505861
0.0500381
0.0495175
0.0489315
0.0484686
0.0478342
0.0474299
0.0467285
0.04662
0.0476999
0.0605774
0.112075
0.133408
0.0721297
0.0560344
0.0538688
0.0529717
0.0525491
0.0519021
0.0514002
0.0508214
0.0502725
0.0497523
0.0491656
0.0487015
0.0480662
0.0476608
0.0469599
0.0468493
0.0479221
0.0607709
0.112249
0.13359
0.0722978
0.0562584
0.0541048
0.0532131
0.052788
0.0521421
0.0516383
0.0510605
0.0505109
0.0499905
0.0494024
0.048937
0.0483011
0.0478947
0.047194
0.0470802
0.0481452
0.0609616
0.112422
0.133766
0.0724709
0.0564865
0.0543443
0.0534573
0.0530295
0.052385
0.0518797
0.0513031
0.0507522
0.0502308
0.049641
0.0491743
0.0485381
0.0481305
0.0474291
0.0473114
0.0483679
0.0611487
0.1126
0.13394
0.0726542
0.056719
0.0545868
0.0537039
0.0532733
0.0526306
0.0521241
0.0515481
0.0509949
0.0504722
0.0498809
0.0494134
0.048777
0.0483677
0.0476653
0.0475441
0.0485923
0.061338
0.112785
0.13412
0.0728443
0.056954
0.0548314
0.0539524
0.0535197
0.0528791
0.0523707
0.0517944
0.0512386
0.0507148
0.0501229
0.0496551
0.0490184
0.0486072
0.0479041
0.0477801
0.0488213
0.0615361
0.112975
0.134307
0.0730355
0.0571904
0.0550781
0.0542039
0.0537692
0.0531301
0.0526188
0.0520418
0.0514839
0.0509602
0.0503684
0.0499002
0.049263
0.0488499
0.0481468
0.0480208
0.0490561
0.061744
0.113166
0.134497
0.073226
0.057429
0.0553281
0.0544589
0.0540216
0.053383
0.0528684
0.0522912
0.0517324
0.0512097
0.050618
0.0501488
0.0495108
0.049096
0.0483933
0.0482652
0.0492948
0.0619561
0.113354
0.134689
0.0734187
0.0576713
0.0555819
0.054717
0.054276
0.0536373
0.05312
0.0525438
0.0519851
0.0514631
0.0508707
0.0503999
0.0497611
0.0493448
0.0486425
0.0485116
0.0495347
0.0621656
0.113541
0.134883
0.0736145
0.0579167
0.0558381
0.0549765
0.0545313
0.0538934
0.0533746
0.0528003
0.0522412
0.0517191
0.051125
0.0506525
0.0500131
0.0495955
0.0488931
0.0487588
0.0497743
0.0623699
0.11373
0.135082
0.0738093
0.0581629
0.0560949
0.0552365
0.0547882
0.0541523
0.0536328
0.0530599
0.0524995
0.0519761
0.0513803
0.0509065
0.050267
0.049848
0.0491452
0.0490069
0.0500143
0.0625716
0.113924
0.135284
0.0739992
0.0584086
0.0563521
0.0554981
0.055048
0.0544148
0.0538942
0.0533216
0.0527587
0.0522341
0.0516371
0.0511627
0.0505233
0.0501027
0.049399
0.0492571
0.0502566
0.0627755
0.114124
0.135483
0.0741865
0.0586556
0.0566116
0.0557634
0.055312
0.0546809
0.0541579
0.0535847
0.0530194
0.052494
0.0518967
0.0514217
0.0507821
0.0503594
0.0496553
0.0495104
0.0505027
0.0629853
0.114328
0.135679
0.0743788
0.0589071
0.0568758
0.0560334
0.0555798
0.0549496
0.0544235
0.0538497
0.0532825
0.0527569
0.052159
0.051683
0.0510427
0.0506183
0.0499143
0.0497672
0.0507529
0.0632016
0.114534
0.135875
0.0745809
0.0591642
0.0571447
0.0563071
0.0558503
0.0552204
0.0546913
0.0541174
0.0535486
0.0530225
0.0524234
0.051946
0.0513052
0.0508796
0.0501766
0.0500277
0.051007
0.0634228
0.114741
0.136077
0.07479
0.0594251
0.0574165
0.056583
0.0561227
0.0554935
0.0549619
0.0543879
0.0538173
0.0532901
0.0526896
0.052211
0.0515704
0.0511444
0.0504426
0.0502916
0.0512644
0.063647
0.11495
0.136286
0.0749988
0.0596875
0.05769
0.0568607
0.0563974
0.0557694
0.0552353
0.054661
0.054088
0.0535599
0.0529586
0.0524796
0.0518399
0.0514135
0.0507125
0.0505584
0.0515245
0.0638725
0.11516
0.136497
0.0752041
0.0599508
0.0579652
0.0571409
0.0566749
0.056048
0.055511
0.0549363
0.0543615
0.0538332
0.053232
0.0527532
0.0521143
0.0516867
0.0509854
0.0508276
0.0517868
0.0640986
0.115372
0.136708
0.075409
0.0602168
0.0582435
0.0574242
0.0569551
0.0563287
0.0557889
0.0552144
0.0546388
0.0541113
0.0535106
0.0530315
0.0523926
0.0519627
0.0512605
0.0510986
0.0520509
0.0643248
0.115586
0.136918
0.0756185
0.0604866
0.0585252
0.05771
0.0572373
0.0566115
0.0560697
0.0554964
0.0549208
0.054394
0.0537932
0.0533129
0.052673
0.0522403
0.0515372
0.0513715
0.0523169
0.0645513
0.115803
0.13713
0.0758328
0.0607596
0.0588091
0.0579976
0.0575213
0.0568971
0.0563543
0.0557828
0.0552069
0.05468
0.054078
0.0535959
0.0529548
0.0525195
0.0518159
0.0516467
0.0525853
0.064779
0.116023
0.137347
0.0760478
0.061034
0.0590943
0.0582869
0.0578083
0.0571867
0.0566432
0.0560731
0.0554959
0.0549682
0.0543646
0.0538808
0.053239
0.0528015
0.0520975
0.0519251
0.0528567
0.0650095
0.116247
0.137567
0.0762609
0.0613095
0.0593815
0.0585795
0.0580995
0.0574809