/*--------------------------------*- C++ -*----------------------------------*\
  =========                 |
  \\      /  F ield         | OpenFOAM: The Open Source CFD Toolbox
   \\    /   O peration     | Website:  https://openfoam.org
    \\  /    A nd           | Version:  8
     \\/     M anipulation  |
\*---------------------------------------------------------------------------*/
FoamFile
{
    version     2.0;
    format      ascii;
    class       volScalarField;
    location    "200";
    object      k;
}
// * * * * * * * * * * * * * * * * * * * * * * * * * * * * * * * * * * * * * //

dimensions      [0 2 -2 0 0 0 0];

internalField   nonuniform List<scalar> 
8400
(
0.0760958
0.0753063
0.0745315
0.0737674
0.0730112
0.07226
0.0715115
0.0707639
0.0700164
0.0692683
0.0685197
0.0677707
0.0670218
0.0662736
0.0655269
0.0647822
0.0640405
0.0633025
0.062569
0.0618406
0.0611181
0.0604021
0.0596933
0.0589923
0.0582999
0.0576165
0.0569429
0.0562796
0.0556271
0.0549861
0.0543571
0.0537406
0.0531372
0.0525475
0.0519719
0.0514112
0.0508658
0.0503364
0.0498236
0.0493282
0.0488511
0.0483931
0.0479556
0.0475402
0.047149
0.0467851
0.0464529
0.0461588
0.0459111
0.0457216
0.00612541
0.00611964
0.00611402
0.00610884
0.00610433
0.00610071
0.00609818
0.0060969
0.00609703
0.00609868
0.00610196
0.00610696
0.00611378
0.00612248
0.00613314
0.00614583
0.00616059
0.0061775
0.0061966
0.00621795
0.00624158
0.00626754
0.00629586
0.00632658
0.00635974
0.00639536
0.00643347
0.00647408
0.00651721
0.00656285
0.006611
0.00666168
0.00671486
0.00677055
0.0068287
0.00688931
0.00695233
0.00701773
0.00708545
0.00715546
0.00722766
0.00730199
0.00737833
0.00745656
0.00753652
0.00761802
0.00770077
0.0077844
0.00786841
0.00795209
0.00736708
0.00738364
0.00739958
0.00741516
0.00743074
0.00744668
0.00746328
0.00748079
0.00749942
0.00751932
0.00754063
0.00756344
0.00758783
0.00761385
0.00764157
0.007671
0.0077022
0.00773518
0.00776998
0.0078066
0.00784505
0.00788533
0.00792745
0.00797142
0.00801722
0.00806485
0.0081143
0.00816553
0.00821851
0.00827323
0.00832963
0.00838769
0.00844735
0.00850855
0.00857123
0.00863531
0.00870073
0.00876741
0.00883525
0.00890414
0.00897396
0.00904456
0.00911578
0.00918742
0.00925923
0.00933089
0.009402
0.00947206
0.00954039
0.00960604
0.0090662
0.00910738
0.00914743
0.00918643
0.00922451
0.00926182
0.00929854
0.00933481
0.00937081
0.00940668
0.00944255
0.00947856
0.00951481
0.00955141
0.00958846
0.00962603
0.00966422
0.00970309
0.0097427
0.0097831
0.00982435
0.00986648
0.00990953
0.00995354
0.00999855
0.0100446
0.0100916
0.0101397
0.0101888
0.010239
0.0102902
0.0103426
0.0103959
0.0104503
0.0105058
0.0105622
0.0106196
0.0106781
0.0107374
0.0107977
0.0108589
0.0109209
0.0109838
0.0110474
0.0111117
0.0111766
0.0112422
0.0113081
0.0113744
0.0114408
0.009141
0.00921337
0.0092846
0.00935418
0.00942173
0.00948702
0.00954994
0.00961051
0.0096688
0.00972495
0.00977911
0.00983146
0.00988218
0.00993145
0.00997943
0.0100263
0.0100722
0.0101174
0.0101618
0.0102058
0.0102494
0.0102927
0.0103358
0.0103789
0.0104221
0.0104654
0.0105089
0.0105528
0.0105971
0.010642
0.0106874
0.0107335
0.0107803
0.0108279
0.0108765
0.0109259
0.0109764
0.0110281
0.0110809
0.0111349
0.0111903
0.0112471
0.0113055
0.0113655
0.0114274
0.0114913
0.0115575
0.0116263
0.011698
0.0117732
0.00772759
0.00782319
0.0079188
0.00801284
0.00810424
0.00819234
0.00827677
0.00835738
0.00843419
0.00850729
0.00857686
0.00864311
0.00870626
0.00876654
0.00882419
0.00887945
0.00893256
0.00898374
0.00903321
0.00908118
0.00912787
0.00917346
0.00921816
0.00926215
0.0093056
0.00934869
0.00939161
0.00943451
0.00947758
0.00952097
0.00956484
0.00960933
0.0096546
0.0097008
0.00974809
0.00979663
0.00984656
0.00989803
0.00995118
0.0100062
0.0100632
0.0101224
0.010184
0.0102482
0.0103153
0.0103857
0.0104599
0.0105383
0.0106216
0.0107106
0.00559722
0.00569268
0.00578919
0.00588481
0.00597826
0.00606866
0.00615554
0.00623868
0.00631803
0.00639364
0.00646565
0.00653421
0.00659953
0.00666182
0.00672131
0.00677823
0.00683281
0.00688528
0.00693588
0.00698485
0.0070324
0.00707877
0.00712417
0.00716883
0.00721295
0.00725675
0.00730044
0.00734424
0.00738834
0.00743295
0.00747826
0.00752446
0.00757175
0.00762032
0.00767037
0.00772209
0.00777565
0.00783124
0.00788903
0.00794921
0.00801197
0.0080775
0.00814602
0.00821781
0.00829319
0.00837252
0.00845631
0.00854513
0.0086397
0.00874089
0.00371173
0.00377646
0.00384374
0.0039117
0.00397915
0.00404533
0.0041098
0.00417233
0.0042328
0.00429117
0.00434745
0.00440171
0.00445401
0.00450447
0.0045532
0.00460034
0.00464604
0.00469045
0.00473373
0.00477605
0.00481758
0.0048585
0.004899
0.00493923
0.00497939
0.00501966
0.00506022
0.00510126
0.00514297
0.00518552
0.00522909
0.00527388
0.00532008
0.00536786
0.00541741
0.00546891
0.00552255
0.0055785
0.00563693
0.00569801
0.00576193
0.00582885
0.005899
0.00597259
0.0060499
0.00613126
0.00621705
0.00630777
0.00640405
0.00650663
0.00267831
0.0026953
0.00271527
0.00273749
0.00276134
0.00278635
0.00281215
0.00283847
0.00286512
0.00289193
0.00291879
0.0029456
0.00297231
0.00299886
0.00302526
0.0030515
0.00307761
0.00310361
0.00312957
0.00315552
0.00318156
0.00320775
0.00323418
0.00326094
0.00328813
0.00331585
0.00334421
0.00337333
0.00340333
0.00343433
0.00346646
0.00349985
0.00353464
0.00357097
0.003609
0.00364886
0.00369072
0.00373473
0.00378104
0.0038298
0.00388119
0.00393535
0.00399248
0.00405278
0.00411647
0.00418379
0.00425506
0.00433063
0.00441097
0.00449666
0.00250205
0.00247864
0.00245804
0.00244081
0.00242676
0.00241556
0.00240684
0.00240032
0.00239574
0.00239288
0.00239156
0.00239161
0.00239288
0.00239524
0.00239858
0.0024028
0.00240782
0.00241356
0.00241998
0.00242702
0.00243466
0.00244288
0.00245167
0.00246102
0.00247094
0.00248144
0.00249254
0.00250428
0.00251669
0.00252981
0.0025437
0.00255841
0.00257401
0.00259058
0.0026082
0.00262697
0.00264698
0.00266834
0.00269116
0.00271556
0.00274166
0.00276962
0.00279958
0.00283168
0.00286612
0.00290307
0.00294273
0.00298531
0.0030311
0.00308041
0.00273199
0.00269461
0.00265974
0.00262768
0.00259832
0.00257131
0.00254635
0.00252326
0.00250191
0.00248225
0.00246422
0.00244775
0.00243279
0.00241928
0.00240714
0.00239632
0.00238673
0.00237828
0.00237089
0.0023645
0.00235902
0.0023544
0.00235057
0.00234747
0.00234502
0.00234317
0.00234187
0.00234108
0.00234076
0.00234087
0.00234136
0.00234221
0.00234338
0.00234488
0.0023467
0.00234885
0.0023513
0.00235408
0.00235721
0.00236072
0.00236466
0.00236909
0.0023741
0.00237977
0.00238621
0.00239353
0.00240186
0.00241131
0.00242199
0.002434
0.00292755
0.0029008
0.00287706
0.00285431
0.00283259
0.00281179
0.00279164
0.00277197
0.00275263
0.00273365
0.00271505
0.00269687
0.00267916
0.00266197
0.00264536
0.00262938
0.00261407
0.00259945
0.00258546
0.0025721
0.00255942
0.0025475
0.00253635
0.00252592
0.00251614
0.00250697
0.00249846
0.00249063
0.00248351
0.00247702
0.00247104
0.00246549
0.00246035
0.00245564
0.00245134
0.00244733
0.00244348
0.00243966
0.00243581
0.00243195
0.00242798
0.00242391
0.00241951
0.00241485
0.00240982
0.00240461
0.00239922
0.00239393
0.00238893
0.00238459
0.00298707
0.00297273
0.00295931
0.00294651
0.00293414
0.0029221
0.00291031
0.00289871
0.00288724
0.00287589
0.00286466
0.00285351
0.00284244
0.00283144
0.00282053
0.00280972
0.00279904
0.00278847
0.002778
0.0027676
0.0027573
0.00274712
0.00273712
0.0027273
0.00271762
0.00270807
0.00269866
0.00268944
0.00268046
0.00267173
0.00266321
0.00265489
0.00264678
0.00263895
0.00263143
0.00262422
0.00261725
0.00261048
0.00260391
0.00259757
0.00259144
0.00258552
0.00257972
0.00257395
0.00256804
0.00256194
0.00255543
0.00254835
0.00254039
0.00253104
0.00299315
0.00298576
0.00297845
0.0029712
0.00296399
0.00295681
0.00294965
0.0029425
0.00293537
0.00292824
0.00292113
0.00291403
0.00290695
0.00289988
0.00289283
0.0028858
0.00287879
0.00287181
0.00286485
0.00285791
0.00285099
0.0028441
0.00283726
0.00283045
0.00282368
0.00281695
0.00281026
0.00280362
0.00279704
0.00279051
0.00278404
0.00277762
0.00277127
0.00276501
0.00275883
0.00275272
0.00274669
0.0027407
0.00273477
0.00272889
0.00272307
0.00271728
0.00271149
0.00270566
0.00269976
0.00269373
0.00268752
0.00268105
0.00267423
0.00266694
0.00299549
0.00299065
0.0029858
0.00298092
0.00297603
0.00297113
0.00296622
0.0029613
0.00295638
0.00295145
0.00294652
0.00294159
0.00293667
0.00293174
0.00292682
0.0029219
0.00291699
0.00291209
0.00290719
0.00290229
0.00289741
0.00289253
0.00288766
0.0028828
0.00287796
0.00287313
0.00286831
0.0028635
0.00285871
0.00285394
0.00284917
0.00284443
0.00283971
0.00283502
0.00283036
0.00282571
0.00282108
0.00281646
0.00281185
0.00280724
0.00280263
0.00279801
0.00279336
0.00278866
0.00278389
0.00277902
0.00277401
0.00276882
0.00276338
0.00275766
0.00299648
0.00299282
0.00298918
0.00298555
0.00298194
0.00297833
0.00297473
0.00297113
0.00296753
0.00296394
0.00296035
0.00295676
0.00295317
0.00294959
0.002946
0.00294241
0.00293883
0.00293524
0.00293165
0.00292806
0.00292447
0.00292087
0.00291728
0.00291368
0.00291009
0.0029065
0.0029029
0.0028993
0.00289571
0.00289211
0.00288851
0.00288491
0.00288132
0.00287773
0.00287415
0.00287056
0.00286698
0.00286338
0.00285978
0.00285617
0.00285254
0.00284889
0.00284519
0.00284146
0.00283766
0.0028338
0.00282984
0.00282578
0.00282169
0.00281758
0.00299756
0.002995
0.00299242
0.00298982
0.00298719
0.00298454
0.00298188
0.0029792
0.00297651
0.0029738
0.00297108
0.00296835
0.00296561
0.00296286
0.0029601
0.00295733
0.00295455
0.00295176
0.00294896
0.00294616
0.00294334
0.00294052
0.00293769
0.00293485
0.00293201
0.00292915
0.0029263
0.00292343
0.00292055
0.00291768
0.00291479
0.00291191
0.00290902
0.00290613
0.00290323
0.00290032
0.00289741
0.0028945
0.00289157
0.00288864
0.00288568
0.00288271
0.0028797
0.00287665
0.00287356
0.00287043
0.00286729
0.00286413
0.00286088
0.0028575
0.00299753
0.00299503
0.00299256
0.00299013
0.00298775
0.0029854
0.00298308
0.00298079
0.00297852
0.00297627
0.00297404
0.00297183
0.00296963
0.00296744
0.00296526
0.00296308
0.00296091
0.00295875
0.0029566
0.00295444
0.00295229
0.00295015
0.00294801
0.00294588
0.00294375
0.00294163
0.00293951
0.0029374
0.0029353
0.00293321
0.00293114
0.00292907
0.00292703
0.00292499
0.00292296
0.00292094
0.00291892
0.00291689
0.00291483
0.00291271
0.00291052
0.00290823
0.00290581
0.00290334
0.00290086
0.00289836
0.00289582
0.00289323
0.00289057
0.00288781
0.00299855
0.00299779
0.00299728
0.0029971
0.00299721
0.00299755
0.00299806
0.00299871
0.00299945
0.00300026
0.00300112
0.00300202
0.00300294
0.00300388
0.00300483
0.00300578
0.00300673
0.00300769
0.00300864
0.00300959
0.00301054
0.0030115
0.00301246
0.00301345
0.00301445
0.00301548
0.00301655
0.00301767
0.00301885
0.00302009
0.0030214
0.00302279
0.00302425
0.00302576
0.00302731
0.00302883
0.00303022
0.00303133
0.00303186
0.0030312
0.00303053
0.00302988
0.00302924
0.00302857
0.00302784
0.00302702
0.00302609
0.00302502
0.00302378
0.00302228
0.00307683
0.00315785
0.00324071
0.00332536
0.00341189
0.00350039
0.0035909
0.00368347
0.00377815
0.00387497
0.00397398
0.00407522
0.00417875
0.0042846
0.00439281
0.00450345
0.00461654
0.00473214
0.0048503
0.00497106
0.00509448
0.00522061
0.00534948
0.00548117
0.00561571
0.00575316
0.00589358
0.00603702
0.00618354
0.00633318
0.00648602
0.00664209
0.00680146
0.00696419
0.00713034
0.00729996
0.00747312
0.00764989
0.00783034
0.00801454
0.00819782
0.00837787
0.00855263
0.00871995
0.00887768
0.00902392
0.00915685
0.00927476
0.00937626
0.00946261
0.0589323
0.0574891
0.0561234
0.0548286
0.0535962
0.052418
0.0512858
0.0501965
0.0491476
0.048137
0.0471629
0.0462235
0.0453175
0.0444435
0.0436
0.0427856
0.041999
0.0412388
0.0405038
0.0397928
0.0391048
0.038439
0.0377947
0.0371711
0.0365675
0.0359832
0.0354173
0.0348691
0.0343379
0.033823
0.0333236
0.0328392
0.0323694
0.0319135
0.0314711
0.0310419
0.0306253
0.030221
0.0298288
0.0294466
0.0290732
0.028708
0.0283504
0.0279994
0.0276541
0.0273132
0.0269749
0.026636
0.0262909
0.025929
0.0580908
0.0554602
0.0530055
0.0507084
0.0485593
0.0465479
0.044666
0.0429025
0.0412476
0.0396926
0.0382295
0.0368514
0.0355518
0.0343248
0.0331649
0.0320669
0.0310262
0.0300387
0.0291006
0.0282087
0.0273599
0.0265518
0.0257818
0.0250476
0.0243471
0.023678
0.0230384
0.0224263
0.0218401
0.0212781
0.0207389
0.0202212
0.0197238
0.0192455
0.018785
0.0183412
0.0179131
0.0174996
0.0170997
0.0167138
0.0163421
0.0159837
0.015638
0.0153043
0.0149819
0.0146703
0.0143688
0.0140765
0.0137928
0.0135164
0.0580872
0.0554481
0.0529771
0.0506657
0.0485014
0.046473
0.0445696
0.042781
0.0410983
0.0395131
0.0380182
0.036607
0.0352733
0.0340116
0.0328167
0.0316837
0.0306083
0.0295866
0.0286149
0.02769
0.0268092
0.0259698
0.0251694
0.0244057
0.0236766
0.02298
0.0223138
0.0216764
0.0210659
0.0204809
0.01992
0.019382
0.0188655
0.0183695
0.0178931
0.0174352
0.0169949
0.0165714
0.0161639
0.0157715
0.0153937
0.0150298
0.0146792
0.0143413
0.0140156
0.0137017
0.013399
0.0131071
0.0128255
0.0125542
0.0580873
0.0554671
0.0530177
0.0507262
0.0485791
0.0465642
0.0446708
0.0428892
0.0412108
0.039628
0.0381337
0.0367218
0.0353864
0.034122
0.0329238
0.031787
0.0307075
0.0296813
0.0287049
0.0277754
0.0268899
0.0260458
0.0252407
0.0244724
0.0237386
0.0230373
0.0223666
0.0217246
0.0211097
0.0205204
0.0199554
0.0194134
0.0188933
0.0183938
0.017914
0.0174529
0.0170095
0.016583
0.0161725
0.0157774
0.0153968
0.0150303
0.0146771
0.0143367
0.0140086
0.0136923
0.0133875
0.0130935
0.0128098
0.0125362
0.0580873
0.0554676
0.0530173
0.0507231
0.0485724
0.0465538
0.0446569
0.0428725
0.0411919
0.0396076
0.0381126
0.0367005
0.0353653
0.0341016
0.0329043
0.0317686
0.0306903
0.0296655
0.0286907
0.0277628
0.026879
0.0260366
0.0252332
0.0244664
0.0237341
0.0230341
0.0223645
0.0217235
0.0211096
0.0205213
0.0199571
0.019416
0.0188967
0.0183981
0.017919
0.0174586
0.0170159
0.0165899
0.01618
0.0157852
0.0154051
0.0150388
0.0146857
0.0143454
0.0140172
0.0137008
0.0133956
0.0131012
0.012817
0.0125427
0.0580873
0.0554692
0.0530219
0.0507314
0.0485848
0.0465705
0.0446777
0.0428971
0.04122
0.0396387
0.0381462
0.0367361
0.0354025
0.0341399
0.0329432
0.0318079
0.0307296
0.0297047
0.0287297
0.0278015
0.0269173
0.0260744
0.0252704
0.0245029
0.0237698
0.0230688
0.0223981
0.021756
0.021141
0.0205515
0.0199863
0.0194442
0.0189239
0.0184243
0.0179443
0.0174829
0.0170391
0.0166122
0.0162013
0.0158055
0.0154243
0.015057
0.0147029
0.0143614
0.0140321
0.0137143
0.0134077
0.0131118
0.0128261
0.0125501
0.0580874
0.0554698
0.0530232
0.050733
0.0485864
0.0465715
0.0446779
0.0428962
0.041218
0.0396355
0.0381418
0.0367306
0.0353959
0.0341324
0.0329349
0.0317989
0.0307202
0.0296949
0.0287198
0.0277916
0.0269076
0.026065
0.0252612
0.024494
0.023761
0.0230602
0.0223897
0.0217478
0.0211329
0.0205437
0.0199788
0.019437
0.0189171
0.0184178
0.0179381
0.017477
0.0170336
0.0166069
0.0161961
0.0158006
0.0154195
0.0150523
0.0146982
0.0143567
0.0140273
0.0137094
0.0134025
0.0131062
0.01282
0.0125434
0.0580875
0.0554704
0.0530244
0.0507349
0.0485889
0.0465748
0.044682
0.0429012
0.0412239
0.0396424
0.0381496
0.0367393
0.0354054
0.0341425
0.0329455
0.03181
0.0307317
0.0297069
0.0287322
0.0278044
0.0269207
0.0260784
0.0252748
0.0245075
0.0237744
0.0230734
0.0224025
0.0217603
0.0211451
0.0205556
0.0199904
0.0194482
0.0189279
0.0184282
0.0179481
0.0174865
0.0170424
0.0166151
0.0162038
0.0158076
0.0154259
0.015058
0.0147032
0.0143609
0.0140306
0.0137117
0.0134038
0.0131064
0.012819
0.0125412
0.0580876
0.055471
0.0530253
0.0507361
0.0485902
0.0465761
0.0446832
0.0429022
0.0412247
0.0396428
0.0381497
0.0367388
0.0354044
0.034141
0.0329435
0.0318074
0.0307287
0.0297036
0.0287287
0.0278008
0.026917
0.0260746
0.0252709
0.0245035
0.0237702
0.023069
0.0223981
0.0217557
0.0211405
0.020551
0.0199859
0.0194438
0.0189235
0.0184238
0.0179436
0.0174819
0.0170377
0.0166103
0.0161988
0.0158025
0.0154207
0.0150526
0.0146976
0.014355
0.0140243
0.013705
0.0133966
0.0130986
0.0128106
0.012532
0.0580878
0.0554715
0.0530261
0.050737
0.0485912
0.0465771
0.0446843
0.0429034
0.0412259
0.0396441
0.0381511
0.0367404
0.035406
0.0341426
0.0329451
0.0318092
0.0307306
0.0297057
0.028731
0.0278034
0.0269198
0.0260775
0.0252738
0.0245064
0.0237731
0.0230718
0.0224008
0.0217585
0.0211433
0.0205538
0.0199886
0.0194465
0.018926
0.0184261
0.0179456
0.0174835
0.017039
0.0166112
0.0161993
0.0158026
0.0154204
0.0150519
0.0146964
0.0143533
0.0140219
0.0137019
0.0133927
0.0130938
0.0128049
0.0125253
0.058088
0.055472
0.0530267
0.0507376
0.0485917
0.0465775
0.0446846
0.0429036
0.0412261
0.0396443
0.0381512
0.0367403
0.0354058
0.0341422
0.0329447
0.0318086
0.03073
0.0297052
0.0287305
0.0278029
0.0269193
0.026077
0.0252733
0.0245058
0.0237724
0.023071
0.0224
0.0217577
0.0211425
0.0205531
0.0199879
0.0194457
0.0189252
0.018425
0.0179443
0.0174819
0.017037
0.0166089
0.0161968
0.0157998
0.0154173
0.0150484
0.0146925
0.0143489
0.014017
0.0136963
0.0133864
0.0130867
0.0127969
0.0125164
0.0580881
0.0554723
0.053027
0.0507377
0.0485916
0.0465772
0.0446841
0.042903
0.0412252
0.0396432
0.0381499
0.0367387
0.0354039
0.03414
0.0329422
0.0318059
0.0307271
0.0297021
0.0287273
0.0277996
0.0269159
0.0260733
0.0252694
0.0245018
0.0237682
0.0230668
0.0223959
0.0217536
0.0211386
0.0205492
0.0199841
0.0194419
0.0189212
0.0184209
0.01794
0.0174775
0.0170325
0.0166042
0.016192
0.0157949
0.0154121
0.015043
0.0146868
0.0143428
0.0140104
0.0136893
0.0133787
0.0130784
0.0127879
0.0125066
0.0580882
0.0554724
0.0530269
0.0507373
0.048591
0.0465764
0.0446833
0.0429023
0.0412247
0.039643
0.0381499
0.0367391
0.0354046
0.0341411
0.0329436
0.0318076
0.0307292
0.0297045
0.0287299
0.0278023
0.0269187
0.0260762
0.0252722
0.0245046
0.023771
0.0230696
0.0223987
0.0217565
0.0211415
0.0205521
0.0199868
0.0194444
0.0189234
0.0184228
0.0179415
0.0174786
0.0170333
0.0166047
0.0161921
0.0157945
0.0154113
0.0150416
0.0146848
0.0143401
0.014007
0.013685
0.0133736
0.0130723
0.0127807
0.0124983
0.0580882
0.0554721
0.0530261
0.0507358
0.0485887
0.0465733
0.0446793
0.0428974
0.0412189
0.0396363
0.0381423
0.0367305
0.0353952
0.0341308
0.0329326
0.0317961
0.0307171
0.0296919
0.0287169
0.027789
0.026905
0.0260622
0.025258
0.0244903
0.0237567
0.0230555
0.0223848
0.0217429
0.0211281
0.0205389
0.0199739
0.0194315
0.0189107
0.0184103
0.0179293
0.0174666
0.0170216
0.0165932
0.0161807
0.0157833
0.0154001
0.0150304
0.0146735
0.0143286
0.0139953
0.0136731
0.0133614
0.0130598
0.0127677
0.0124848
0.0580882
0.0554716
0.0530248
0.0507341
0.048587
0.0465721
0.044679
0.0428982
0.041221
0.0396396
0.0381468
0.0367362
0.0354018
0.0341383
0.0329408
0.0318048
0.0307262
0.0297011
0.0287262
0.027798
0.0269138
0.0260707
0.0252662
0.0244981
0.0237642
0.0230627
0.0223916
0.0217493
0.0211341
0.0205444
0.0199788
0.0194359
0.0189145
0.0184136
0.017932
0.0174689
0.0170233
0.0165944
0.0161813
0.0157832
0.0153993
0.0150287
0.0146709
0.0143252
0.013991
0.0136678
0.0133551
0.0130524
0.0127592
0.0124751
0.0580881
0.0554697
0.0530199
0.0507254
0.0485742
0.0465551
0.0446579
0.0428733
0.0411928
0.0396085
0.0381134
0.0367008
0.035365
0.0341004
0.0329021
0.0317657
0.0306868
0.0296617
0.0286869
0.0277589
0.026875
0.0260324
0.0252285
0.0244611
0.0237281
0.0230275
0.0223573
0.0217159
0.0211016
0.0205127
0.0199479
0.0194058
0.0188853
0.0183853
0.0179046
0.0174424
0.0169977
0.0165695
0.0161571
0.0157595
0.015376
0.0150058
0.0146483
0.0143029
0.013969
0.0136461
0.0133336
0.013031
0.0127378
0.0124536
0.058088
0.0554688
0.0530198
0.050728
0.0485804
0.0465651
0.0446714
0.0428898
0.0412116
0.0396289
0.0381346
0.0367224
0.0353863
0.0341212
0.032922
0.0317843
0.030704
0.0296772
0.0287006
0.0277709
0.0268852
0.0260408
0.0252353
0.0244663
0.0237318
0.0230298
0.0223582
0.0217155
0.0210998
0.0205097
0.0199437
0.0194007
0.0188793
0.0183784
0.0178971
0.0174343
0.0169889
0.0165601
0.0161471
0.0157489
0.0153648
0.0149941
0.0146362
0.0142906
0.0139566
0.0136337
0.0133214
0.0130193
0.0127269
0.0124438
0.0580878
0.0554495
0.0529787
0.050667
0.0485023
0.0464735
0.0445699
0.0427815
0.041099
0.0395141
0.0380193
0.0366079
0.0352738
0.0340113
0.0328154
0.0316815
0.0306053
0.0295829
0.0286108
0.0276857
0.0268047
0.0259652
0.0251646
0.0244006
0.023671
0.0229739
0.0223072
0.0216692
0.0210583
0.0204729
0.0199117
0.0193734
0.0188568
0.0183608
0.0178843
0.0174264
0.016986
0.0165622
0.0161543
0.0157614
0.0153829
0.0150181
0.0146667
0.0143281
0.0140019
0.0136877
0.0133855
0.0130949
0.0128165
0.0125508
0.0580913
0.0554616
0.0530071
0.0507099
0.0485603
0.0465486
0.0446666
0.0429033
0.0412488
0.0396943
0.0382316
0.0368535
0.0355536
0.034326
0.0331652
0.0320665
0.0310253
0.0300376
0.0290998
0.0282085
0.0273606
0.0265535
0.0257847
0.0250517
0.0243524
0.0236847
0.0230467
0.0224367
0.021853
0.0212942
0.0207591
0.0202463
0.0197548
0.0192836
0.0188317
0.0183982
0.0179821
0.0175828
0.0171995
0.0168318
0.0164791
0.0161413
0.015818
0.0155093
0.0152153
0.0149363
0.0146731
0.0144273
0.014202
0.014004
0.0589321
0.0574897
0.0561246
0.05483
0.0535977
0.0524193
0.0512869
0.0501975
0.0491485
0.048138
0.0471638
0.0462244
0.0453182
0.0444435
0.0435991
0.0427835
0.0419955
0.0412338
0.0404975
0.0397854
0.0390966
0.0384303
0.0377853
0.037161
0.0365563
0.0359705
0.0354028
0.0348523
0.0343184
0.0338005
0.0332979
0.03281
0.0323362
0.0318759
0.0314285
0.0309932
0.0305696
0.0301571
0.0297551
0.0293633
0.0289811
0.0286081
0.0282439
0.0278879
0.0275395
0.027198
0.0268628
0.0265329
0.0262075
0.0258852
0.013092
0.00358867
0.00196003
0.00176297
0.00168714
0.00166218
0.00161335
0.00158255
0.00154131
0.00150677
0.00147176
0.00143427
0.00140498
0.00136438
0.00134076
0.00129653
0.00129493
0.0013808
0.0024525
0.00920953
0.0131205
0.00360414
0.0019734
0.00177636
0.00170044
0.00167522
0.00162623
0.0015952
0.00155381
0.00151901
0.0014838
0.00144604
0.00141657
0.00137574
0.00135197
0.0013075
0.0013058
0.00139206
0.00246761
0.00923235
0.0131494
0.00361897
0.00198681
0.0017899
0.00171391
0.00168844
0.00163931
0.00160802
0.00156644
0.00153136
0.00149596
0.00145796
0.00142833
0.00138729
0.00136333
0.00131861
0.00131679
0.00140343
0.00248221
0.00925341
0.0131788
0.00363357
0.00200033
0.0018036
0.00172756
0.00170184
0.00165254
0.00162096
0.00157918
0.00154384
0.00150827
0.00147005
0.00144026
0.00139898
0.00137482
0.00132985
0.00132792
0.00141481
0.00249583
0.00927468
0.0132083
0.00364816
0.002014
0.00181746
0.00174138
0.00171539
0.00166591
0.00163403
0.00159208
0.0015565
0.00152077
0.00148231
0.00145233
0.0014108
0.00138646
0.00134126
0.0013392
0.0014262
0.00250904
0.00929616
0.0132378
0.00366291
0.00202782
0.00183149
0.00175535
0.00172908
0.00167943
0.0016473
0.00160519
0.00156935
0.00153343
0.00149471
0.00146454
0.00142277
0.00139824
0.00135282
0.00135062
0.00143762
0.00252199
0.00931796
0.0132676
0.00367783
0.0020418
0.00184567
0.00176948
0.00174296
0.00169317
0.00166077
0.00161848
0.00158235
0.00154623
0.00150726
0.0014769
0.0014349
0.00141018
0.00136453
0.00136218
0.00144911
0.00253486
0.00934021
0.0132977
0.00369284
0.00205593
0.00186002
0.0017838
0.00175703
0.0017071
0.0016744
0.00163191
0.00159548
0.00155919
0.00151997
0.00148942
0.00144717
0.00142226
0.00137638
0.00137388
0.00146073
0.00254783
0.00936279
0.0133281
0.00370793
0.00207022
0.00187455
0.00179832
0.00177129
0.00172118
0.00168816
0.00164547
0.00160879
0.00157233
0.00153285
0.00150209
0.00145959
0.00143451
0.00138841
0.00138576
0.00147249
0.00256091
0.00938552
0.0133586
0.00372316
0.00208471
0.00188927
0.00181301
0.00178568
0.00173538
0.00170206
0.00165922
0.00162231
0.00158565
0.00154588
0.0015149
0.00147219
0.00144695
0.00140062
0.00139777
0.00148434
0.00257397
0.00940838
0.0133892
0.00373858
0.00209938
0.00190416
0.00182785
0.00180021
0.00174974
0.00171616
0.00167318
0.00163599
0.00159912
0.00155906
0.0015279
0.00148498
0.00145955
0.00141295
0.0014099
0.00149628
0.002587
0.00943153
0.0134201
0.00375419
0.00211423
0.00191922
0.00184285
0.00181491
0.0017643
0.00173046
0.00168732
0.00164982
0.00161272
0.00157242
0.00154109
0.00149795
0.00147229
0.0014254
0.00142214
0.00150834
0.00260017
0.00945507
0.0134513
0.00377003
0.00212927
0.00193446
0.00185804
0.00182981
0.00177906
0.00174493
0.0017016
0.0016638
0.00162652
0.00158599
0.00155448
0.00151106
0.00148515
0.00143799
0.00143458
0.00152061
0.00261364
0.00947888
0.0134829
0.00378607
0.00214449
0.00194989
0.00187342
0.0018449
0.001794
0.00175957
0.00171604
0.00167797
0.00164053
0.00159975
0.00156802
0.00152432
0.0014982
0.00145081
0.00144724
0.00153312
0.00262737
0.00950281
0.0135149
0.00380225
0.00215988
0.00196551
0.001889
0.00186018
0.00180912
0.00177438
0.00173069
0.00169236
0.00165474
0.00161368
0.00158173
0.00153778
0.00151148
0.00146386
0.00146012
0.00154581
0.00264119
0.00952691
0.0135472
0.0038185
0.00217546
0.00198132
0.00190478
0.00187566
0.00182445
0.00178941
0.00174555
0.00170693
0.00166911
0.00162778
0.00159564
0.00155147
0.00152499
0.00147712
0.00147314
0.00155862
0.00265503
0.00955136
0.0135797
0.00383487
0.00219123
0.00199734
0.00192078
0.00189136
0.00183999
0.00180464
0.00176058
0.00172166
0.00168364
0.00164207
0.00160976
0.00156538
0.00153868
0.00149051
0.00148629
0.00157156
0.002669
0.00957629
0.0136124
0.00385147
0.00220724
0.00201358
0.001937
0.00190726
0.00185572
0.00182003
0.00177578
0.00173657
0.00169838
0.00165658
0.0016241
0.00157947
0.00155253
0.00150406
0.00149962
0.0015847
0.00268326
0.00960157
0.0136452
0.00386836
0.00222349
0.00203004
0.00195343
0.00192335
0.00187164
0.00183561
0.00179119
0.00175171
0.00171336
0.00167132
0.00163862
0.00159373
0.00156655
0.00151781
0.00151317
0.00159806
0.00269778
0.00962708
0.0136784
0.0038855
0.00223995
0.00204671
0.00197006
0.00193964
0.00188776
0.00185142
0.00180685
0.0017671
0.00172855
0.00168625
0.00165334
0.00160818
0.00158078
0.00153178
0.00152691
0.0016116
0.00271244
0.00965288
0.013712
0.00390286
0.00225664
0.00206359
0.00198691
0.00195615
0.00190412
0.00186748
0.00182274
0.0017827
0.00174395
0.00170138
0.00166827
0.00162286
0.00159522
0.00154593
0.00154083
0.00162529
0.0027272
0.00967917
0.0137459
0.00392046
0.00227356
0.0020807
0.00200399
0.0019729
0.00192072
0.00188376
0.00183883
0.00179849
0.00175955
0.00171672
0.00168341
0.00163772
0.00160983
0.00156024
0.00155492
0.00163916
0.00274219
0.00970602
0.0137802
0.00393829
0.00229071
0.00209804
0.00202129
0.00198987
0.00193754
0.00190024
0.00185512
0.00181448
0.00177536
0.00173227
0.00169873
0.00165276
0.00162461
0.00157475
0.00156924
0.00165328
0.00275756
0.00973328
0.013815
0.00395626
0.00230806
0.00211558
0.00203881
0.00200705
0.00195456
0.00191692
0.00187162
0.0018307
0.00179139
0.00174801
0.00171422
0.00166796
0.00163958
0.00158949
0.00158379
0.00166764
0.00277325
0.00976072
0.01385
0.00397429
0.00232562
0.00213333
0.00205657
0.00202447
0.00197182
0.00193384
0.00188838
0.00184715
0.00180762
0.00176393
0.00172989
0.00168336
0.00165479
0.00160447
0.00159857
0.00168221
0.00278908
0.0097883
0.0138852
0.00399246
0.00234343
0.00215134
0.00207459
0.00204216
0.00198936
0.00195105
0.00190539
0.00186384
0.00182406
0.00178004
0.00174577
0.00169901
0.00167023
0.00161965
0.00161352
0.00169692
0.00280496
0.00981621
0.0139205
0.00401094
0.00236154
0.00216963
0.0020929
0.00206012
0.00200717
0.00196851
0.00192265
0.00188074
0.00184071
0.00179639
0.0017619
0.00171489
0.00168588
0.00163502
0.00162864
0.00171182
0.00282099
0.00984459
0.0139559
0.00402979
0.00237995
0.00218819
0.00211147
0.00207833
0.00202522
0.0019862
0.00194012
0.00189787
0.0018576
0.001813
0.00177828
0.001731
0.00170174
0.00165059
0.00164398
0.00172695
0.00283733
0.00987341
0.0139918
0.00404892
0.0023986
0.00220698
0.00213025
0.00209675
0.00204349
0.00200411
0.00195783
0.00191525
0.00187476
0.00182987
0.00179492
0.00174736
0.00171784
0.00166642
0.00165959
0.00174237
0.00285403
0.00990251
0.0140281
0.00406819
0.00241746
0.00222598
0.00214925
0.00211538
0.00206197
0.00202225
0.00197578
0.00193288
0.00189218
0.001847
0.0018118
0.00176397
0.00173421
0.00168252
0.00167545
0.00175804
0.00287096
0.00993185
0.0140647
0.00408761
0.00243653
0.0022452
0.00216847
0.00213425
0.00208069
0.00204063
0.00199399
0.00195077
0.00190985
0.00186439
0.00182895
0.00178085
0.00175084
0.00169886
0.00169152
0.0017739
0.002888
0.00996155
0.0141015
0.00410733
0.00245586
0.0022647
0.00218796
0.00215337
0.00209967
0.00205926
0.00201244
0.0019689
0.00192776
0.00188202
0.00184635
0.00179798
0.0017677
0.00171541
0.0017078
0.00178996
0.00290523
0.0099918
0.0141388
0.00412742
0.00247548
0.00228447
0.00220773
0.00217276
0.00211892
0.00207815
0.00203113
0.00198727
0.00194592
0.0018999
0.00186399
0.00181533
0.00178477
0.00173218
0.00172431
0.00180627
0.00292278
0.0100226
0.0141768
0.00414776
0.00249536
0.00230452
0.00222779
0.00219243
0.00213844
0.00209729
0.00205007
0.00200589
0.00196434
0.00191803
0.00188188
0.00183292
0.00180208
0.0017492
0.0017411
0.00182289
0.00294075
0.0100538
0.0142154
0.00416823
0.00251551
0.00232486
0.00224814
0.0022124
0.00215824
0.00211671
0.0020693
0.0020248
0.00198303
0.00193643
0.00190001
0.00185077
0.00181967
0.00176652
0.00175818
0.0018398
0.00295908
0.0100854
0.0142543
0.00418885
0.00253595
0.0023455
0.0022688
0.00223266
0.00217832
0.00213642
0.00208883
0.00204401
0.00200201
0.0019551
0.00191842
0.0018689
0.00183755
0.00178413
0.00177553
0.00185696
0.00297761
0.0101172
0.0142935
0.00420974
0.0025567
0.00236644
0.00228976
0.0022532
0.00219871
0.00215643
0.00210866
0.00206351
0.00202128
0.00197405
0.00193712
0.00188732
0.0018557
0.00180199
0.0017931
0.00187434
0.00299629
0.0101495
0.0143329
0.00423095
0.00257776
0.00238766
0.00231098
0.00227402
0.00221939
0.00217676
0.00212881
0.0020833
0.00204082
0.00199328
0.00195609
0.00190602
0.00187411
0.00182009
0.00181092
0.00189196
0.00301522
0.0101824
0.0143727
0.00425237
0.00259906
0.00240914
0.00233248
0.00229513
0.00224039
0.0021974
0.00214924
0.00210337
0.00206064
0.0020128
0.00197536
0.00192499
0.00189279
0.00183845
0.00182901
0.00190988
0.00303452
0.0102158
0.0144129
0.00427393
0.00262063
0.00243089
0.00235429
0.00231658
0.00226171
0.00221834
0.00216996
0.00212373
0.00208076
0.00203263
0.00199492
0.00194425
0.00191173
0.0018571
0.0018474
0.00192811
0.00305425
0.0102497
0.0144532