/*--------------------------------*- C++ -*----------------------------------*\
  =========                 |
  \\      /  F ield         | OpenFOAM: The Open Source CFD Toolbox
   \\    /   O peration     | Website:  https://openfoam.org
    \\  /    A nd           | Version:  8
     \\/     M anipulation  |
\*---------------------------------------------------------------------------*/
FoamFile
{
    version     2.0;
    format      ascii;
    class       volScalarField;
    location    "200";
    object      nut;
}
// * * * * * * * * * * * * * * * * * * * * * * * * * * * * * * * * * * * * * //

dimensions      [0 2 -1 0 0 0 0];

internalField   nonuniform List<scalar> 
8400
(
0.000311117
0.000309644
0.000308191
0.000306749
0.000305312
0.000303875
0.000302431
0.000300978
0.000299512
0.000298033
0.00029654
0.000295034
0.000293515
0.000291985
0.000290446
0.000288898
0.000287345
0.000285788
0.00028423
0.000282672
0.000281117
0.000279565
0.00027802
0.000276484
0.000274959
0.000273447
0.000271951
0.000270472
0.000269013
0.000267574
0.00026616
0.00026477
0.000263408
0.000262076
0.000260775
0.000259508
0.000258276
0.000257081
0.000255926
0.000254812
0.000253741
0.000252717
0.000251743
0.000250823
0.000249963
0.000249172
0.000248461
0.000247847
0.000247353
0.00024701
8.93711e-05
8.93358e-05
8.93053e-05
8.92819e-05
8.92674e-05
8.92635e-05
8.92716e-05
8.92931e-05
8.93289e-05
8.93801e-05
8.94473e-05
8.95312e-05
8.96322e-05
8.97509e-05
8.98877e-05
9.00429e-05
9.02167e-05
9.04095e-05
9.06214e-05
9.08524e-05
9.11025e-05
9.13715e-05
9.16593e-05
9.19659e-05
9.22914e-05
9.26356e-05
9.29981e-05
9.33786e-05
9.37765e-05
9.41912e-05
9.46223e-05
9.50693e-05
9.55318e-05
9.60092e-05
9.6501e-05
9.70065e-05
9.75252e-05
9.80561e-05
9.85989e-05
9.91526e-05
9.97167e-05
0.00010029
0.000100872
0.000101462
0.000102058
0.000102659
0.000103264
0.000103871
0.000104475
0.000105075
9.79713e-05
9.80488e-05
9.81262e-05
9.82055e-05
9.82891e-05
9.83792e-05
9.8478e-05
9.8587e-05
9.87077e-05
9.88411e-05
9.89878e-05
9.91485e-05
9.93235e-05
9.95132e-05
9.97176e-05
9.99367e-05
0.000100171
0.000100419
0.000100683
0.00010096
0.000101252
0.000101556
0.000101874
0.000102205
0.000102549
0.000102904
0.000103271
0.000103649
0.000104036
0.000104434
0.00010484
0.000105254
0.000105676
0.000106105
0.000106541
0.000106982
0.000107428
0.000107878
0.000108332
0.000108789
0.000109248
0.000109708
0.000110168
0.000110627
0.000111084
0.000111538
0.000111986
0.000112426
0.000112855
0.000113268
0.000108043
0.000108256
0.000108465
0.00010867
0.000108872
0.000109072
0.000109271
0.00010947
0.000109669
0.00010987
0.000110074
0.000110281
0.000110492
0.000110707
0.000110928
0.000111153
0.000111384
0.000111621
0.000111864
0.000112113
0.000112369
0.00011263
0.000112898
0.000113172
0.000113452
0.000113738
0.000114031
0.000114328
0.000114632
0.00011494
0.000115254
0.000115573
0.000115897
0.000116225
0.000116558
0.000116895
0.000117235
0.000117579
0.000117927
0.000118278
0.000118631
0.000118987
0.000119346
0.000119707
0.000120069
0.000120434
0.0001208
0.000121166
0.000121534
0.000121902
0.000107908
0.000108308
0.000108702
0.000109086
0.000109459
0.000109818
0.000110164
0.000110497
0.000110818
0.000111127
0.000111425
0.000111714
0.000111994
0.000112268
0.000112535
0.000112796
0.000113054
0.000113308
0.000113559
0.000113808
0.000114056
0.000114303
0.00011455
0.000114797
0.000115046
0.000115295
0.000115547
0.0001158
0.000116057
0.000116316
0.000116579
0.000116846
0.000117116
0.000117391
0.00011767
0.000117954
0.000118243
0.000118538
0.000118838
0.000119143
0.000119455
0.000119772
0.000120096
0.000120427
0.000120766
0.000121114
0.000121472
0.000121841
0.000122222
0.00012262
9.87783e-05
9.93681e-05
9.99552e-05
0.00010053
0.000101085
0.000101618
0.000102126
0.000102609
0.000103067
0.000103501
0.000103913
0.000104305
0.000104678
0.000105033
0.000105372
0.000105698
0.000106011
0.000106312
0.000106604
0.000106888
0.000107165
0.000107436
0.000107703
0.000107966
0.000108228
0.000108488
0.000108747
0.000109008
0.000109271
0.000109537
0.000109806
0.00011008
0.000110359
0.000110644
0.000110935
0.000111234
0.00011154
0.000111855
0.000112178
0.000112511
0.000112853
0.000113206
0.000113569
0.000113943
0.000114331
0.000114733
0.000115151
0.000115587
0.000116046
0.00011653
8.37797e-05
8.44777e-05
8.51781e-05
8.58669e-05
8.6535e-05
8.71768e-05
8.77896e-05
8.83724e-05
8.89257e-05
8.94504e-05
8.9948e-05
9.04202e-05
9.08688e-05
9.12956e-05
9.17027e-05
9.20918e-05
9.24649e-05
9.2824e-05
9.31707e-05
9.35069e-05
9.38344e-05
9.41549e-05
9.447e-05
9.47812e-05
9.50902e-05
9.53982e-05
9.57069e-05
9.60178e-05
9.63322e-05
9.66513e-05
9.6976e-05
9.73074e-05
9.76467e-05
9.79949e-05
9.83528e-05
9.87214e-05
9.91011e-05
9.94926e-05
9.98963e-05
0.000100313
0.000100742
0.000101185
0.000101642
0.000102113
0.000102601
0.000103106
0.00010363
0.000104177
0.00010475
0.000105352
6.81239e-05
6.87037e-05
6.93023e-05
6.99027e-05
7.04946e-05
7.10716e-05
7.16305e-05
7.21697e-05
7.26887e-05
7.31877e-05
7.36673e-05
7.41285e-05
7.45722e-05
7.49996e-05
7.54122e-05
7.58115e-05
7.61989e-05
7.6576e-05
7.69444e-05
7.73056e-05
7.76613e-05
7.80132e-05
7.83628e-05
7.87117e-05
7.90612e-05
7.94131e-05
7.97687e-05
8.01296e-05
8.0497e-05
8.08723e-05
8.12564e-05
8.16506e-05
8.2056e-05
8.24737e-05
8.29045e-05
8.33492e-05
8.38083e-05
8.42825e-05
8.47721e-05
8.52773e-05
8.57981e-05
8.6335e-05
8.68884e-05
8.74586e-05
8.80464e-05
8.86531e-05
8.92802e-05
8.99305e-05
9.06068e-05
9.13131e-05
5.79831e-05
5.8154e-05
5.83567e-05
5.85837e-05
5.88283e-05
5.90857e-05
5.9352e-05
5.96243e-05
5.99005e-05
6.01792e-05
6.04589e-05
6.07386e-05
6.1018e-05
6.12968e-05
6.15747e-05
6.1852e-05
6.21289e-05
6.24059e-05
6.26836e-05
6.29626e-05
6.32438e-05
6.35279e-05
6.38159e-05
6.41086e-05
6.44071e-05
6.47123e-05
6.50253e-05
6.5347e-05
6.56786e-05
6.60209e-05
6.6375e-05
6.67419e-05
6.71224e-05
6.75176e-05
6.79283e-05
6.83553e-05
6.87992e-05
6.92607e-05
6.97401e-05
7.02379e-05
7.07543e-05
7.12894e-05
7.18438e-05
7.24181e-05
7.3013e-05
7.36291e-05
7.42677e-05
7.49303e-05
7.56199e-05
7.63396e-05
5.62173e-05
5.59501e-05
5.57122e-05
5.55109e-05
5.53449e-05
5.52107e-05
5.51048e-05
5.50243e-05
5.49665e-05
5.49288e-05
5.49095e-05
5.49068e-05
5.49189e-05
5.49445e-05
5.49825e-05
5.50318e-05
5.50914e-05
5.51607e-05
5.5239e-05
5.53258e-05
5.54207e-05
5.55236e-05
5.56345e-05
5.57532e-05
5.58797e-05
5.60143e-05
5.6157e-05
5.63084e-05
5.64688e-05
5.66387e-05
5.68187e-05
5.70091e-05
5.72109e-05
5.74247e-05
5.76514e-05
5.78917e-05
5.81465e-05
5.84166e-05
5.87026e-05
5.90052e-05
5.93255e-05
5.96644e-05
6.00226e-05
6.0401e-05
6.08011e-05
6.12232e-05
6.16683e-05
6.21374e-05
6.26326e-05
6.31557e-05
5.87695e-05
5.83757e-05
5.80049e-05
5.76603e-05
5.73421e-05
5.70475e-05
5.67733e-05
5.65174e-05
5.62789e-05
5.60576e-05
5.58524e-05
5.56634e-05
5.54898e-05
5.53315e-05
5.51883e-05
5.50595e-05
5.49445e-05
5.48424e-05
5.47521e-05
5.46728e-05
5.46039e-05
5.45451e-05
5.44958e-05
5.4455e-05
5.44217e-05
5.43951e-05
5.43749e-05
5.4361e-05
5.43531e-05
5.43509e-05
5.43535e-05
5.43604e-05
5.43717e-05
5.43876e-05
5.44085e-05
5.44343e-05
5.44647e-05
5.44994e-05
5.45391e-05
5.45842e-05
5.46356e-05
5.46952e-05
5.47631e-05
5.48408e-05
5.49292e-05
5.50299e-05
5.5143e-05
5.52702e-05
5.54121e-05
5.55695e-05
6.07747e-05
6.05062e-05
6.02656e-05
6.0034e-05
5.98112e-05
5.95992e-05
5.93921e-05
5.91908e-05
5.89916e-05
5.87939e-05
5.85997e-05
5.84085e-05
5.82207e-05
5.80368e-05
5.78583e-05
5.76866e-05
5.75228e-05
5.73664e-05
5.72148e-05
5.70665e-05
5.69239e-05
5.67896e-05
5.66643e-05
5.65462e-05
5.64327e-05
5.63231e-05
5.62189e-05
5.61226e-05
5.60358e-05
5.59569e-05
5.58822e-05
5.58096e-05
5.57403e-05
5.56769e-05
5.56201e-05
5.55674e-05
5.55147e-05
5.54576e-05
5.53968e-05
5.53355e-05
5.5273e-05
5.52123e-05
5.51491e-05
5.50852e-05
5.50161e-05
5.49485e-05
5.48771e-05
5.4809e-05
5.47452e-05
5.46915e-05
6.13702e-05
6.12271e-05
6.10922e-05
6.0963e-05
6.08372e-05
6.0715e-05
6.05956e-05
6.04775e-05
6.03603e-05
6.02439e-05
6.01289e-05
6.00145e-05
5.99005e-05
5.97868e-05
5.96739e-05
5.95626e-05
5.94533e-05
5.93456e-05
5.92382e-05
5.91299e-05
5.90214e-05
5.8914e-05
5.88089e-05
5.87059e-05
5.86037e-05
5.85014e-05
5.83993e-05
5.82994e-05
5.82032e-05
5.81105e-05
5.80194e-05
5.79283e-05
5.7838e-05
5.77509e-05
5.76684e-05
5.759e-05
5.75129e-05
5.74343e-05
5.73552e-05
5.7276e-05
5.71997e-05
5.71263e-05
5.70548e-05
5.69849e-05
5.69125e-05
5.68383e-05
5.67578e-05
5.66695e-05
5.65714e-05
5.64512e-05
6.1431e-05
6.13567e-05
6.12828e-05
6.12094e-05
6.11366e-05
6.1064e-05
6.09914e-05
6.0919e-05
6.08464e-05
6.07738e-05
6.07014e-05
6.06291e-05
6.05568e-05
6.04845e-05
6.04125e-05
6.03407e-05
6.02691e-05
6.01977e-05
6.01262e-05
6.00546e-05
5.99831e-05
5.99118e-05
5.98411e-05
5.97707e-05
5.97004e-05
5.96302e-05
5.95603e-05
5.94911e-05
5.94227e-05
5.93546e-05
5.92865e-05
5.92185e-05
5.9151e-05
5.90846e-05
5.90193e-05
5.89547e-05
5.88904e-05
5.88255e-05
5.87609e-05
5.86962e-05
5.86319e-05
5.8568e-05
5.85039e-05
5.84392e-05
5.83733e-05
5.83056e-05
5.82358e-05
5.8162e-05
5.80855e-05
5.80021e-05
6.14544e-05
6.14055e-05
6.13564e-05
6.13069e-05
6.12574e-05
6.12078e-05
6.11581e-05
6.11082e-05
6.10582e-05
6.10082e-05
6.0958e-05
6.0908e-05
6.08578e-05
6.08077e-05
6.07575e-05
6.07073e-05
6.0657e-05
6.06068e-05
6.05566e-05
6.05063e-05
6.0456e-05
6.04059e-05
6.03558e-05
6.0306e-05
6.02562e-05
6.02065e-05
6.01569e-05
6.01074e-05
6.00579e-05
6.00084e-05
5.99588e-05
5.99092e-05
5.98598e-05
5.98108e-05
5.97622e-05
5.97137e-05
5.9665e-05
5.96162e-05
5.95672e-05
5.95185e-05
5.94694e-05
5.94202e-05
5.93704e-05
5.932e-05
5.92688e-05
5.92163e-05
5.91623e-05
5.91058e-05
5.9047e-05
5.89846e-05
6.14644e-05
6.14273e-05
6.13903e-05
6.13535e-05
6.13169e-05
6.12803e-05
6.12438e-05
6.12073e-05
6.11706e-05
6.11341e-05
6.10975e-05
6.10611e-05
6.10247e-05
6.09882e-05
6.09516e-05
6.09149e-05
6.08783e-05
6.08416e-05
6.08049e-05
6.07681e-05
6.07313e-05
6.06945e-05
6.06577e-05
6.0621e-05
6.05842e-05
6.05475e-05
6.05107e-05
6.04738e-05
6.04368e-05
6.03997e-05
6.03624e-05
6.03251e-05
6.02879e-05
6.02507e-05
6.02136e-05
6.01765e-05
6.01392e-05
6.01019e-05
6.00644e-05
6.00268e-05
5.99889e-05
5.99508e-05
5.9912e-05
5.98725e-05
5.98322e-05
5.97913e-05
5.97493e-05
5.97062e-05
5.96638e-05
5.96212e-05
6.14752e-05
6.14493e-05
6.14231e-05
6.13966e-05
6.137e-05
6.13432e-05
6.13162e-05
6.1289e-05
6.12616e-05
6.12341e-05
6.12065e-05
6.11787e-05
6.11509e-05
6.11229e-05
6.10947e-05
6.10665e-05
6.10381e-05
6.10097e-05
6.09811e-05
6.09525e-05
6.09237e-05
6.08949e-05
6.0866e-05
6.08372e-05
6.08082e-05
6.07791e-05
6.07499e-05
6.07206e-05
6.06911e-05
6.06616e-05
6.0632e-05
6.06023e-05
6.05726e-05
6.05428e-05
6.05129e-05
6.04828e-05
6.04528e-05
6.04226e-05
6.03924e-05
6.0362e-05
6.03315e-05
6.03006e-05
6.02694e-05
6.02377e-05
6.02054e-05
6.01731e-05
6.01406e-05
6.01078e-05
6.00735e-05
6.00381e-05
6.1475e-05
6.14495e-05
6.14244e-05
6.13999e-05
6.13757e-05
6.13519e-05
6.13284e-05
6.13052e-05
6.12822e-05
6.12594e-05
6.12368e-05
6.12144e-05
6.1192e-05
6.11698e-05
6.11476e-05
6.11255e-05
6.11035e-05
6.10816e-05
6.10597e-05
6.10378e-05
6.10159e-05
6.09942e-05
6.09725e-05
6.09508e-05
6.09292e-05
6.09076e-05
6.0886e-05
6.08644e-05
6.08429e-05
6.08214e-05
6.08001e-05
6.07789e-05
6.07577e-05
6.07365e-05
6.07154e-05
6.06942e-05
6.06729e-05
6.06514e-05
6.06294e-05
6.06066e-05
6.05828e-05
6.05577e-05
6.05311e-05
6.05054e-05
6.04796e-05
6.04532e-05
6.04266e-05
6.03993e-05
6.03714e-05
6.03427e-05
6.14852e-05
6.14775e-05
6.14726e-05
6.1471e-05
6.14725e-05
6.14764e-05
6.14821e-05
6.14892e-05
6.14974e-05
6.15064e-05
6.15159e-05
6.15259e-05
6.15362e-05
6.15466e-05
6.15571e-05
6.15677e-05
6.15784e-05
6.1589e-05
6.15996e-05
6.16102e-05
6.16208e-05
6.16314e-05
6.16421e-05
6.1653e-05
6.16639e-05
6.1675e-05
6.16863e-05
6.1698e-05
6.171e-05
6.17225e-05
6.17353e-05
6.17485e-05
6.17619e-05
6.17751e-05
6.17877e-05
6.1799e-05
6.18075e-05
6.18111e-05
6.18054e-05
6.17797e-05
6.17744e-05
6.17683e-05
6.17618e-05
6.17535e-05
6.17444e-05
6.17343e-05
6.17231e-05
6.17106e-05
6.16963e-05
6.16796e-05
6.22823e-05
6.30968e-05
6.39189e-05
6.4748e-05
6.55847e-05
6.64294e-05
6.72823e-05
6.81435e-05
6.90132e-05
6.98914e-05
7.07781e-05
7.16735e-05
7.25776e-05
7.34904e-05
7.44121e-05
7.53427e-05
7.62823e-05
7.72308e-05
7.81884e-05
7.91551e-05
8.01309e-05
8.11161e-05
8.21105e-05
8.31142e-05
8.41273e-05
8.51498e-05
8.61818e-05
8.72235e-05
8.82749e-05
8.93358e-05
9.04065e-05
9.14869e-05
9.2577e-05
9.36769e-05
9.47868e-05
9.59069e-05
9.70369e-05
9.81773e-05
9.93278e-05
0.000100489
0.000101591
0.000102652
0.000103664
0.000104615
0.000105497
0.000106305
0.000107031
0.00010767
0.000108217
0.000108682
0.000272578
0.000269214
0.000265994
0.000262908
0.000259939
0.000257069
0.00025428
0.000251566
0.000248923
0.000246349
0.000243842
0.0002414
0.000239023
0.00023671
0.000234458
0.000232263
0.000230123
0.000228034
0.000225994
0.000224
0.000222051
0.000220148
0.000218291
0.00021648
0.000214715
0.000212994
0.000211316
0.000209678
0.000208077
0.000206513
0.000204983
0.000203487
0.000202025
0.000200595
0.000199199
0.000197834
0.000196501
0.000195199
0.000193927
0.00019268
0.000191454
0.000190247
0.000189057
0.000187884
0.000186722
0.00018557
0.00018442
0.00018326
0.000182072
0.000180818
0.000270621
0.000264415
0.000258495
0.000252834
0.000247423
0.000242248
0.000237302
0.000232569
0.000228037
0.000223693
0.00021953
0.000215538
0.000211708
0.000208031
0.000204495
0.000201089
0.000197804
0.000194631
0.000191564
0.000188598
0.000185731
0.000182961
0.000180285
0.000177699
0.0001752
0.00017278
0.000170436
0.00016816
0.000165948
0.000163798
0.000161706
0.000159672
0.000157692
0.000155765
0.000153888
0.000152058
0.000150272
0.000148526
0.000146818
0.000145149
0.000143524
0.00014194
0.000140396
0.00013889
0.000137422
0.000135988
0.000134587
0.000133212
0.000131858
0.000130522
0.000270614
0.000264387
0.000258427
0.000252729
0.000247275
0.000242052
0.000237045
0.000232239
0.000227623
0.000223188
0.000218924
0.000214824
0.000210879
0.00020708
0.000203417
0.000199881
0.000196464
0.000193157
0.000189955
0.000186854
0.000183852
0.000180946
0.000178133
0.00017541
0.000172772
0.000170214
0.000167733
0.000165322
0.000162978
0.000160698
0.00015848
0.000156322
0.000154223
0.00015218
0.000150192
0.000148256
0.000146371
0.000144535
0.000142745
0.000141
0.0001393
0.000137642
0.000136027
0.000134452
0.000132918
0.000131424
0.00012997
0.000128554
0.00012717
0.000125811
0.000270614
0.000264433
0.000258526
0.000252879
0.000247472
0.000242288
0.000237312
0.00023253
0.000227933
0.000223511
0.000219257
0.000215162
0.000211218
0.000207417
0.00020375
0.000200207
0.000196781
0.000193464
0.000190252
0.000187141
0.000184128
0.000181211
0.000178387
0.000175651
0.000173
0.000170428
0.000167931
0.000165505
0.000163145
0.00016085
0.000158618
0.000156446
0.000154334
0.000152279
0.000150279
0.000148331
0.000146434
0.000144586
0.000142784
0.000141028
0.000139315
0.000137646
0.000136019
0.000134432
0.000132886
0.000131378
0.000129909
0.000128479
0.000127088
0.000125724
0.000270614
0.000264434
0.000258526
0.000252871
0.000247455
0.00024226
0.000237274
0.000232483
0.00022788
0.000223453
0.000219196
0.0002151
0.000211156
0.000207356
0.00020369
0.000200149
0.000196725
0.000193411
0.000190204
0.000187098
0.000184091
0.000181181
0.000178363
0.000175633
0.000172986
0.000170418
0.000167924
0.0001655
0.000163143
0.00016085
0.000158621
0.000156453
0.000154345
0.000152295
0.000150299
0.000148355
0.000146462
0.000144617
0.000142818
0.000141064
0.000139354
0.000137686
0.000136061
0.000134476
0.00013293
0.000131423
0.000129952
0.000128517
0.00012712
0.000125755
0.000270614
0.000264439
0.000258538
0.000252893
0.000247486
0.000242303
0.000237328
0.000232549
0.000227957
0.000223541
0.000219293
0.000215205
0.000211268
0.000207473
0.00020381
0.000200271
0.000196849
0.000193537
0.000190331
0.000187228
0.000184223
0.000181314
0.000178497
0.000175767
0.000173119
0.000170548
0.00016805
0.000165622
0.000163261
0.000160965
0.000158734
0.000156564
0.000154454
0.000152402
0.000150404
0.000148458
0.000146562
0.000144714
0.000142913
0.000141156
0.000139442
0.000137771
0.000136141
0.000134551
0.000133001
0.000131489
0.000130013
0.000128572
0.000127166
0.000125793
0.000270614
0.000264442
0.000258543
0.000252899
0.000247492
0.000242306
0.000237328
0.000232546
0.00022795
0.000223531
0.00021928
0.000215189
0.000211248
0.000207449
0.000203782
0.00020024
0.000196815
0.000193502
0.000190296
0.000187194
0.000184191
0.000181284
0.000178467
0.000175738
0.000173089
0.000170517
0.000168018
0.000165588
0.000163227
0.000160932
0.000158701
0.000156534
0.000154426
0.000152375
0.000150379
0.000148434
0.000146539
0.000144692
0.00014289
0.000141134
0.000139422
0.000137752
0.000136122
0.000134532
0.00013298
0.000131466
0.000129988
0.000128545
0.000127136
0.000125759
0.000270615
0.000264446
0.00025855
0.000252907
0.000247501
0.000242316
0.00023734
0.00023256
0.000227967
0.00022355
0.000219302
0.000215214
0.000211275
0.000207478
0.000203812
0.000200272
0.000196849
0.000193538
0.000190335
0.000187236
0.000184237
0.000181332
0.000178518
0.000175788
0.000173139
0.000170565
0.000168064
0.000165634
0.000163272
0.000160976
0.000158746
0.000156578
0.000154471
0.000152419
0.000150422
0.000148475
0.000146578
0.000144728
0.000142925
0.000141167
0.000139452
0.00013778
0.000136148
0.000134554
0.000132998
0.000131478
0.000129995
0.000128547
0.000127132
0.000125748
0.000270616
0.000264451
0.000258556
0.000252914
0.000247507
0.000242321
0.000237344
0.000232563
0.000227969
0.000223551
0.000219302
0.000215211
0.00021127
0.00020747
0.000203802
0.000200259
0.000196835
0.000193524
0.000190322
0.000187224
0.000184225
0.000181321
0.000178506
0.000175775
0.000173124
0.000170548
0.000168046
0.000165614
0.000163252
0.000160958
0.000158729
0.000156562
0.000154454
0.000152403
0.000150404
0.000148456
0.000146558
0.000144707
0.000142903
0.000141145
0.00013943
0.000137757
0.000136124
0.000134529
0.000132971
0.000131448
0.000129961
0.000128509
0.00012709
0.000125702
0.000270618
0.000264456
0.000258563
0.00025292
0.000247513
0.000242326
0.000237348
0.000232567
0.000227972
0.000223554
0.000219305
0.000215214
0.000211272
0.000207471
0.000203803
0.000200261
0.000196837
0.000193528
0.000190328
0.000187232
0.000184235
0.000181331
0.000178517
0.000175785
0.000173133
0.000170557
0.000168055
0.000165624
0.000163263
0.000160969
0.000158741
0.000156575
0.000154467
0.000152414
0.000150414
0.000148464
0.000146563
0.000144711
0.000142906
0.000141146
0.000139431
0.000137757
0.000136122
0.000134524
0.000132962
0.000131435
0.000129943
0.000128485
0.00012706
0.000125667
0.000270619
0.00026446
0.000258568
0.000252925
0.000247517
0.000242329
0.00023735
0.000232568
0.000227973
0.000223555
0.000219304
0.000215212
0.000211269
0.000207467
0.000203798
0.000200255
0.000196832
0.000193524
0.000190325
0.00018723
0.000184233
0.00018133
0.000178514
0.000175782
0.000173129
0.000170552
0.00016805
0.00016562
0.000163261
0.000160969
0.000158742
0.000156575
0.000154467
0.000152412
0.000150409
0.000148457
0.000146555
0.000144701
0.000142895
0.000141135
0.000139419
0.000137744
0.000136107
0.000134506
0.000132941
0.00013141
0.000129913
0.00012845
0.00012702
0.000125621
0.000270621
0.000264463
0.000258572
0.000252928
0.000247519
0.00024233
0.00023735
0.000232567
0.000227971
0.000223552
0.0002193
0.000215206
0.000211262
0.000207458
0.000203787
0.000200244
0.000196821
0.000193512
0.000190313
0.000187218
0.00018422
0.000181316
0.000178499
0.000175765
0.000173111
0.000170535
0.000168033
0.000165605
0.000163247
0.000160957
0.00015873
0.000156563
0.000154453
0.000152397
0.000150392
0.000148439
0.000146535
0.000144681
0.000142875
0.000141115
0.000139399
0.000137722
0.000136083
0.00013448
0.000132911
0.000131377
0.000129876
0.000128409
0.000126974
0.00012557
0.000270622
0.000264465
0.000258572
0.000252928
0.000247518
0.000242329
0.000237348
0.000232566
0.00022797
0.000223552
0.000219301
0.000215207
0.000211263
0.00020746
0.00020379
0.000200248
0.000196826
0.000193519
0.000190321
0.000187226
0.000184228
0.000181323
0.000178506
0.000175772
0.000173118
0.000170543
0.000168044
0.000165617
0.000163261
0.000160971
0.000158744
0.000156576
0.000154464
0.000152405
0.000150399
0.000148444
0.00014654
0.000144685
0.000142878
0.000141117
0.000139398
0.000137718
0.000136076
0.000134469
0.000132896
0.000131357
0.000129851
0.000128379
0.000126938
0.000125528
0.000270622
0.000264464
0.000258569
0.000252923
0.000247511
0.00024232
0.000237338
0.000232554
0.000227956
0.000223535
0.00021928
0.000215183
0.000211235
0.000207428
0.000203756
0.000200211
0.000196787
0.000193478
0.000190277
0.00018718
0.000184179
0.000181271
0.000178452
0.000175717
0.000173064
0.00017049
0.000167992
0.000165567
0.000163212
0.000160922
0.000158695
0.000156526
0.000154413
0.000152355
0.000150348
0.000148394
0.000146491
0.000144637
0.000142831
0.000141069
0.000139349
0.000137668
0.000136024
0.000134415
0.000132841
0.0001313
0.000129792
0.000128317
0.000126874
0.00012546
0.000270622
0.000264461
0.000258564
0.000252917
0.000247506
0.000242317
0.000237338
0.000232558
0.000227964
0.000223546
0.000219295
0.000215202
0.000211257
0.000207453
0.000203782
0.000200239
0.000196817
0.000193508
0.000190307
0.000187208
0.000184207
0.000181297
0.000178477
0.000175742
0.000173089
0.000170515
0.000168018
0.000165593
0.000163237
0.000160946
0.000158716
0.000156544
0.000154429
0.000152368
0.000150361
0.000148406
0.000146501
0.000144645
0.000142836
0.000141071
0.000139347
0.000137661
0.000136012
0.000134399
0.000132819
0.000131274
0.000129762
0.000128282
0.000126832
0.000125412
0.000270621
0.000264454
0.000258549
0.000252892
0.000247471
0.000242272
0.000237283
0.000232492
0.000227888
0.000223462
0.000219202
0.000215101
0.000211149
0.00020734
0.000203665
0.000200118
0.000196691
0.00019338
0.000190176
0.000187074
0.000184071
0.000181161
0.00017834
0.000175607
0.000172956
0.000170385
0.00016789
0.000165467
0.000163112
0.000160822
0.000158593
0.000156423
0.00015431
0.000152252
0.000150248
0.000148296
0.000146394
0.00014454
0.000142732
0.000140966
0.000139242
0.000137555
0.000135906
0.000134293
0.000132714
0.00013117
0.000129658
0.000128178
0.000126727
0.000125305
0.00027062
0.000264449
0.000258545
0.000252896
0.000247485
0.000242298
0.00023732
0.000232539
0.000227943
0.000223522
0.000219267
0.000215167
0.000211216
0.000207406
0.000203729
0.000200178
0.000196747
0.00019343
0.00019022
0.000187113
0.000184103
0.000181187
0.000178362
0.000175623
0.000172968
0.000170393
0.000167894
0.000165466
0.000163106
0.00016081
0.000158576
0.000156402
0.000154285
0.000152224
0.000150218
0.000148263
0.000146359
0.000144502
0.000142689
0.000140919
0.00013919
0.0001375
0.000135848
0.000134233
0.000132654
0.00013111
0.0001296
0.000128122
0.000126675
0.000125257
0.000270618
0.0002644
0.000258442
0.000252742
0.000247285
0.000242059
0.000237051
0.000232247
0.000227634
0.000223201
0.000218938
0.000214834
0.000210882
0.000207074
0.000203401
0.000199856
0.000196432
0.000193122
0.000189921
0.000186824
0.000183825
0.000180922
0.00017811
0.000175386
0.000172747
0.000170187
0.000167702
0.00016529
0.000162945
0.000160665
0.000158448
0.000156291
0.000154193
0.000152152
0.000150166
0.000148232
0.000146348
0.000144512
0.000142721
0.000140974
0.00013927
0.000137608
0.000135987
0.000134407
0.000132869
0.00013137
0.000129912
0.000128495
0.000127121
0.000125796
0.000270626
0.000264427
0.00025851
0.000252847
0.000247433
0.000242255
0.000237309
0.000232578
0.00022805
0.000223711
0.00021955
0.000215555
0.000211719
0.000208031
0.000204484
0.000201068
0.000197776
0.000194602
0.000191538
0.000188579
0.000185721
0.00018296
0.000180291
0.00017771
0.000175215
0.000172799
0.000170459
0.00016819
0.00016599
0.000163855
0.000161783
0.000159772
0.000157821
0.000155928
0.000154091
0.000152308
0.000150578
0.000148897
0.000147266
0.000145682
0.000144147
0.00014266
0.000141223
0.000139838
0.000138507
0.000137233
0.00013602
0.000134877
0.00013382
0.000132884
0.000272577
0.00026922
0.000266005
0.00026292
0.00025995
0.000257078
0.000254287
0.000251572
0.000248929
0.000246357
0.000243851
0.00024141
0.000239032
0.000236714
0.000234454
0.000232251
0.000230101
0.000228004
0.000225958
0.000223961
0.000222014
0.000220114
0.00021826
0.000216451
0.000214685
0.00021296
0.000211275
0.000209627
0.000208015
0.00020644
0.000204899
0.000203393
0.000201921
0.00020048
0.000199069
0.000197686
0.000196331
0.000195001
0.000193696
0.000192416
0.000191159
0.000189925
0.000188712
0.000187521
0.000186347
0.00018519
0.000184046
0.000182913
0.000181788
0.000180666
0.000128542
6.72589e-05
4.97101e-05
4.7145e-05
4.61183e-05
4.57741e-05
4.50964e-05
4.46657e-05
4.40832e-05
4.35883e-05
4.30786e-05
4.25242e-05
4.20857e-05
4.14721e-05
4.11124e-05
4.04303e-05
4.0407e-05
4.17255e-05
5.56122e-05
0.000107697
0.000128686
6.74077e-05
4.9879e-05
4.73225e-05
4.62989e-05
4.59528e-05
4.52761e-05
4.48443e-05
4.42613e-05
4.37632e-05
4.32516e-05
4.26957e-05
4.22574e-05
4.16442e-05
4.12846e-05
4.06014e-05
4.05747e-05
4.18913e-05
5.57743e-05
0.000107827
0.000128839
6.75427e-05
5.00475e-05
4.75022e-05
4.64821e-05
4.61341e-05
4.54581e-05
4.50234e-05
4.44383e-05
4.39374e-05
4.34259e-05
4.28706e-05
4.24332e-05
4.18196e-05
4.14574e-05
4.07709e-05
4.07412e-05
4.20575e-05
5.59265e-05
0.00010796
0.000128983
6.76771e-05
5.02176e-05
4.76837e-05
4.66674e-05
4.63179e-05
4.56417e-05
4.52033e-05
4.46168e-05
4.41148e-05
4.36042e-05
4.30487e-05
4.26104e-05
4.19945e-05
4.16295e-05
4.09416e-05
4.09114e-05
4.22262e-05
5.60812e-05
0.000108093
0.000129128
6.78123e-05
5.03899e-05
4.78674e-05
4.68547e-05
4.65026e-05
4.58257e-05
4.53845e-05
4.47987e-05
4.42963e-05
4.37859e-05
4.32285e-05
4.2788e-05
4.21702e-05
4.18039e-05
4.11167e-05
4.10865e-05
4.23987e-05
5.62382e-05
0.000108222
0.000129272
6.79509e-05
5.05638e-05
4.80522e-05
4.70423e-05
4.66874e-05
4.60112e-05
4.55691e-05
4.49844e-05
4.44805e-05
4.39685e-05
4.34085e-05
4.29665e-05
4.23483e-05
4.19818e-05
4.12954e-05
4.12638e-05
4.25713e-05
5.63898e-05
0.000108349
0.000129419
6.8091e-05
5.07376e-05
4.8237e-05
4.72301e-05
4.68736e-05
4.61995e-05
4.57565e-05
4.51714e-05
4.46642e-05
4.41504e-05
4.35892e-05
4.31473e-05
4.25291e-05
4.21619e-05
4.14752e-05
4.14409e-05
4.2742e-05
5.65339e-05
0.000108478
0.000129569
6.82294e-05
5.0911e-05
4.84226e-05
4.74196e-05
4.70624e-05
4.63897e-05
4.59439e-05
4.5357e-05
4.48471e-05
4.43336e-05
4.37726e-05
4.33305e-05
4.27113e-05
4.23428e-05
4.16553e-05
4.16184e-05
4.29124e-05
5.66752e-05
0.00010861
0.00012972
6.8367e-05
5.10856e-05
4.86102e-05
4.76116e-05
4.72525e-05
4.65795e-05
4.61299e-05
4.55424e-05
4.50323e-05
4.45203e-05
4.39587e-05
4.3515e-05
4.28943e-05
4.25248e-05
4.18372e-05
4.17977e-05
4.30841e-05
5.68171e-05
0.000108745
0.000129872
6.85066e-05
5.12628e-05
4.88003e-05
4.7805e-05
4.74428e-05
4.67688e-05
4.6317e-05
4.57314e-05
4.52221e-05
4.47102e-05
4.41459e-05
4.37002e-05
4.30792e-05
4.27095e-05
4.20214e-05
4.19786e-05
4.32566e-05
5.69597e-05
0.000108882
0.000130025
6.86484e-05
5.1442e-05
4.89919e-05
4.79993e-05
4.76338e-05
4.69605e-05
4.65086e-05
4.59253e-05
4.54147e-05
4.49006e-05
4.43334e-05
4.38871e-05
4.32668e-05
4.28963e-05
4.22065e-05
4.216e-05
4.34297e-05
5.71049e-05
0.000109023
0.000130181
6.87904e-05
5.16227e-05
4.91848e-05
4.81953e-05
4.78276e-05
4.71565e-05
4.67044e-05
4.61214e-05
4.56072e-05
4.50906e-05
4.45223e-05
4.40766e-05
4.34564e-05
4.30834e-05
4.23915e-05
4.23423e-05
4.36053e-05
5.72566e-05
0.000109165
0.000130338
6.89323e-05
5.1805e-05
4.93796e-05
4.83938e-05
4.80248e-05
4.73556e-05
4.69013e-05
4.63166e-05
4.57988e-05
4.52817e-05
4.47138e-05
4.42682e-05
4.36464e-05
4.32706e-05
4.25777e-05
4.25277e-05
4.37854e-05
5.74149e-05
0.000109304
0.000130494
6.90757e-05
5.19895e-05
4.95764e-05
4.85946e-05
4.82238e-05
4.75552e-05
4.70974e-05
4.65113e-05
4.59918e-05
4.54757e-05
4.49077e-05
4.44608e-05
4.3837e-05
4.34597e-05
4.27677e-05
4.27168e-05
4.39686e-05
5.75717e-05
0.000109437
0.000130651
6.92212e-05
5.21757e-05
4.97747e-05
4.87967e-05
4.84234e-05
4.77548e-05
4.7294e-05
4.67079e-05
4.61877e-05
4.56721e-05
4.51028e-05
4.46544e-05
4.403e-05
4.36527e-05
4.29612e-05
4.29072e-05
4.41507e-05
5.77184e-05
0.000109569
0.000130808
6.93688e-05
5.23634e-05
4.99746e-05
4.90002e-05
4.86243e-05
4.79559e-05
4.74929e-05
4.69072e-05
4.63859e-05
4.58699e-05
4.52992e-05
4.48506e-05
4.42267e-05
4.38488e-05
4.31557e-05
4.30965e-05
4.43297e-05
5.7856e-05
0.000109708
0.000130966
6.95194e-05
5.25534e-05
5.01767e-05
4.9206e-05
4.88275e-05
4.81595e-05
4.76941e-05
4.71085e-05
4.65855e-05
4.60692e-05
4.54982e-05
4.50499e-05
4.44258e-05
4.40453e-05
4.33493e-05
4.32853e-05
4.45087e-05
5.79958e-05
0.000109857
0.000131125
6.96746e-05
5.27464e-05
5.03816e-05
4.94144e-05
4.90329e-05
4.8365e-05
4.7897e-05
4.73113e-05
4.6787e-05
4.62712e-05
4.57e-05
4.5251e-05
4.4625e-05
4.42415e-05
4.35435e-05
4.34771e-05
4.46926e-05
5.81479e-05
0.000110012
0.000131289
6.98331e-05
5.29418e-05
5.05885e-05
4.96244e-05
4.92397e-05
4.8572e-05
4.81018e-05
4.75168e-05
4.69918e-05
4.64761e-05
4.59033e-05
4.54522e-05
4.48244e-05
4.44391e-05
4.37413e-05
4.36737e-05
4.48822e-05
5.8311e-05
0.000110166
0.000131456
6.99911e-05
5.31383e-05
5.07965e-05
4.98355e-05
4.94479e-05
4.87811e-05
4.83096e-05
4.77258e-05
4.71994e-05
4.66823e-05
4.6107e-05
4.56541e-05
4.50256e-05
4.464e-05
4.39428e-05
4.38735e-05
4.50742e-05
5.84759e-05
0.000110317
0.000131625
7.01466e-05
5.33356e-05
5.10056e-05
5.00481e-05
4.96583e-05
4.89933e-05
4.85207e-05
4.79372e-05
4.7408e-05
4.68889e-05
4.63116e-05
4.58581e-05
4.52297e-05
4.48433e-05
4.41457e-05
4.40734e-05
4.52653e-05
5.86367e-05
0.000110468
0.000131793
7.03017e-05
5.35347e-05
5.12163e-05
5.02628e-05
4.98713e-05
4.92082e-05
4.87336e-05
4.81492e-05
4.76168e-05
4.70966e-05
4.65185e-05
4.60648e-05
4.54357e-05
4.50472e-05
4.43483e-05
4.42731e-05
4.54566e-05
5.87963e-05
0.000110623
0.00013196
7.04592e-05
5.3736e-05
5.1429e-05
5.04796e-05
5.00864e-05
4.94245e-05
4.8947e-05
4.83615e-05
4.78269e-05
4.73067e-05
4.67281e-05
4.62732e-05
4.56423e-05
4.52514e-05
4.45519e-05
4.4475e-05
4.5651e-05
5.896e-05
0.00011078
0.000132129
7.06191e-05
5.39391e-05
5.16433e-05
5.06984e-05
5.03031e-05