/*--------------------------------*- C++ -*----------------------------------*\
  =========                 |
  \\      /  F ield         | OpenFOAM: The Open Source CFD Toolbox
   \\    /   O peration     | Website:  https://openfoam.org
    \\  /    A nd           | Version:  8
     \\/     M anipulation  |
\*---------------------------------------------------------------------------*/
FoamFile
{
    version     2.0;
    format      ascii;
    class       volScalarField;
    location    "200";
    object      p_rgh;
}
// * * * * * * * * * * * * * * * * * * * * * * * * * * * * * * * * * * * * * //

dimensions      [1 -1 -2 0 0 0 0];

internalField   nonuniform List<scalar> 
8400
(
11807.8
27072.9
42540.1
57520.3
71983.7
85874.3
99162.3
111836
123901
135370
146267
156619
166459
175822
184745
193263
201410
209217
216713
223926
230883
237611
244134
250479
256667
262721
268660
274506
280276
285991
291668
297325
302980
308652
314361
320130
325984
331951
338064
344359
350881
357689
364857
372496
380736
389702
399555
410879
425208
443461
11283.5
26512.4
42035.1
57090.8
71619.7
85557.8
98874.5
111561
123623
135078
145952
156274
166081
175408
184293
192771
200876
208639
216089
223255
230163
236839
243310
249599
255729
261721
267595
273370
279065
284700
290290
295851
301402
306958
312538
318165
323858
329644
335546
341596
347827
354282
361017
368104
375624
383642
392226
401652
412627
425663
12253.6
27980.9
43817.7
59083.3
73758.7
87793.4
101166
113876
125937
137375
148221
158509
168280
177572
186425
194874
202955
210700
218137
225297
232205
238889
245375
251685
257843
263870
269787
275614
281369
287072
292740
298388
304034
309697
315397
321156
326997
332944
339024
345266
351706
358385
365356
372681
380427
388650
397406
406826
417151
428329
11393.5
27171
43222.9
58710
73551.9
87687.8
101102
113805
125822
137187
147942
158128
167788
176964
185697
194025
201983
209603
216916
223950
230732
237288
243643
249819
255840
261725
267495
273169
278765
284300
289788
295245
300689
306134
311601
317107
322673
328317
334060
339926
345942
352141
358561
365250
372257
379631
387423
395711
404611
414155
12519.7
29184.1
45821.3
61711.8
76825.6
91128.5
104628
117356
129356
140677
151372
161489
171079
180186
188854
197122
205026
212601
219877
226882
233643
240187
246537
252716
258746
264649
270443
276149
281782
287358
292894
298404
303904
309411
314942
320514
326143
331846
337638
343537
349562
355733
362075
368612
375368
382366
389619
397143
404989
413185
11779.1
28877.8
45987.9
62251.7
77597.1
92005
105511
118176
130065
141246
151782
161732
171150
180085
188581
196679
204417
211829
218945
225794
232403
238796
244997
251028
256912
262667
268315
273871
279353
284776
290155
295505
300841
306181
311539
316931
322371
327874
333452
339121
344893
350786
356813
362992
369334
375849
382532
389364
396337
403517
12663.8
31022.3
48946.7
65727
81365
95905.8
109437
122059
133865
144942
155364
165197
174500
183324
191716
199718
207366
214697
221739
228523
235073
241415
247570
253561
259410
265134
270753
276283
281741
287139
292494
297819
303130
308439
313762
319111
324498
329933
335426
340984
346618
352334
358139
364038
370035
376128
382308
388543
394808
401148
12291.4
31677.6
50317.4
67509.1
83309.1
97845.4
111273
123736
135357
146237
156462
166101
175215
183858
192076
199911
207401
214579
221477
228122
234541
240756
246790
252664
258400
264014
269526
274952
280306
285604
290859
296086
301300
306514
311740
316992
322279
327609
332990
338427
343927
349490
355116
360803
366542
372323
378127
383911
389622
395298
13108.5
34099
53575.5
71132.5
87014.7
101485
114780
127085
138543
149265
159338
168835
177816
186335
194436
202162
209550
216634
223443
230005
236347
242491
248458
254270
259946
265504
270960
276332
281632
286876
292077
297249
302405
307559
312722
317905
323116
328363
333652
338987
344370
349801
355276
360786
366319
371858
377381
382844
388176
393378
13537.3
35946.6
55980
73617.4
89348.3
103592
116649
128731
139987
150526
160433
169779
178622
187013
194996
202613
209899
216887
223607
230087
236351
242422
248321
254069
259683
265182
270582
275897
281144
286334
291483
296604
301710
306813
311924
317053
322210
327401
332633
337907
343225
348583
353975
359388
364806
370206
375561
380824
385913
390795
15265.7
39161
59195.4
76567.4
91978.6
105945
118780
130684
141794
152209
162007
171253
180004
188309
196212
203752
210965
217885
224540
230959
237165
243182
249030
254729
260297
265752
271110
276386
281593
286746
291858
296944
302015
307084
312161
317256
322379
327537
332736
337978
343263
348587
353942
359315
364689
370036
375327
380516
385525
390289
15571.1
40385.7
60229.2
77387.4
92639.6
106486
119233
131071
142130
152505
162273
171496
180228
188519
196411
203943
211151
218066
224719
231137
237343
243360
249208
254907
260475
265930
271287
276560
281763
286911
292018
297095
302157
307214
312278
317359
322466
327608
332792
338018
343289
348599
353944
359310
364680
370029
375323
380516
385541
390311
13065.2
38315.3
59201.7
76696.7
92083.8
106012
118794
130628
141661
151998
161721
170898
179585
187831
195681
203173
210344
217225
223847
230236
236415
242408
248234
253913
259463
264903
270246
275508
280702
285843
290945
296020
301081
306140
311208
316295
321411
326565
331762
337005
342293
347624
352990
358380
363774
369145
374457
379662
384698
389476
8211.24
34170.9
57748
76677.4
92747.5
107175
120364
132510
143776
154294
164162
173458
182242
190570
198487
206036
213252
220171
226823
233235
239432
245438
251272
256957
262510
267948
273288
278544
283732
288864
293956
299020
304069
309113
314163
319231
324327
329457
334626
339838
345092
350387
355714
361064
366416
371743
377008
382158
387123
391783
-8140.53
18667.3
44884.9
65402.2
82181.8
97078.1
110693
123195
134739
145482
155547
165022
173976
182467
190544
198249
205619
212690
219490
226049
232389
238534
244505
250321
256001
261562
267021
272392
277690
282929
288122
293282
298421
303548
308676
313813
318968
324147
329353
334588
339850
345136
350437
355737
361015
366238
371363
376340
381135
385693
6239.06
25392.5
53300.6
76540.9
94606.3
110118
124146
136892
148510
159202
169133
178420
187151
195394
203209
210644
217742
224540
231072
237368
243452
249349
255079
260663
266119
271466
276719
281893
287002
292059
297077
302068
307040
312005
316970
321943
326929
331931
336950
341986
347041
352110
357187
362260
367305
372272
377060
381520
385544
389294
-44825.7
-15408.2
17881.8
43343
62824.1
79649.8
95037.5
109116
121982
133838
144863
155183
164888
174051
182732
190986
198856
206383
213603
220548
227244
233717
239991
246087
252025
257826
263505
269079
274563
279969
285312
290600
295844
301052
306227
311372
316484
321558
326588
331566
336483
341329
346086
350748
355370
359995
364645
369325
373904
378022
7943.14
20041.5
50946.4
77011
95963.1
111715
125930
138818
150484
161145
171000
180187
188804
196929
204626
211947
218939
225640
232084
238300
244313
250145
255817
261350
266760
272065
277278
282413
287483
292500
297473
302411
307321
312206
317068
321902
326701
331458
336163
340816
345425
349974
354364
358394
362031
365542
369092
372502
375419
377381
-95167.2
-44148.6
-1626.92
26878.6
48912.9
67992.7
85199.9
100806
114997
127995
140000
151158
161580
171358
180567
189274
197536
205402
212917
220117
227037
233705
240149
246394
252463
258375
264149
269800
275342
280788
286148
291426
296624
301737
306752
311646
316384
320917
325180
329143
332908
336677
340635
344938
349512
354079
358300
361813
364117
363837
10889.2
17778.7
34025
52270.7
69153.7
84875.1
99753.5
113722
126712
138771
150000
160491
170326
179577
188309
196582
204448
211951
219133
226027
232665
239075
245282
251308
257175
262900
268501
273990
279382
284686
289910
295055
300119
305091
309954
314675
319207
323478
327376
330724
333356
335470
337602
340146
343095
346117
348795
350784
351746
351310
1.6349e+06
1.63439e+06
1.63413e+06
1.63404e+06
1.63398e+06
1.63395e+06
1.63392e+06
1.6339e+06
1.63389e+06
1.63388e+06
1.63387e+06
1.63386e+06
1.63386e+06
1.63385e+06
1.63385e+06
1.63384e+06
1.63384e+06
1.63384e+06
1.63384e+06
1.63384e+06
1.63384e+06
1.63383e+06
1.63383e+06
1.63383e+06
1.63383e+06
1.63383e+06
1.63382e+06
1.63382e+06
1.63382e+06
1.63382e+06
1.63381e+06
1.63381e+06
1.6338e+06
1.6338e+06
1.63379e+06
1.63379e+06
1.63378e+06
1.63377e+06
1.63376e+06
1.63374e+06
1.63373e+06
1.63371e+06
1.63368e+06
1.63365e+06
1.63362e+06
1.63357e+06
1.63352e+06
1.63346e+06
1.63338e+06
1.63327e+06
1.6333e+06
1.63359e+06
1.63368e+06
1.63371e+06
1.63374e+06
1.63376e+06
1.63377e+06
1.63378e+06
1.63379e+06
1.6338e+06
1.6338e+06
1.6338e+06
1.6338e+06
1.6338e+06
1.6338e+06
1.63381e+06
1.63381e+06
1.63381e+06
1.63381e+06
1.63381e+06
1.63381e+06
1.63381e+06
1.63381e+06
1.63381e+06
1.63381e+06
1.63381e+06
1.63381e+06
1.63381e+06
1.63381e+06
1.6338e+06
1.6338e+06
1.6338e+06
1.6338e+06
1.63379e+06
1.63379e+06
1.63378e+06
1.63377e+06
1.63376e+06
1.63375e+06
1.63374e+06
1.63372e+06
1.6337e+06
1.63368e+06
1.63365e+06
1.63362e+06
1.63358e+06
1.63353e+06
1.63347e+06
1.6334e+06
1.63331e+06
1.63376e+06
1.63389e+06
1.63397e+06
1.63397e+06
1.63396e+06
1.63395e+06
1.63394e+06
1.63393e+06
1.63391e+06
1.6339e+06
1.63389e+06
1.63389e+06
1.63388e+06
1.63387e+06
1.63387e+06
1.63386e+06
1.63386e+06
1.63385e+06
1.63385e+06
1.63385e+06
1.63385e+06
1.63384e+06
1.63384e+06
1.63384e+06
1.63384e+06
1.63383e+06
1.63383e+06
1.63383e+06
1.63383e+06
1.63382e+06
1.63382e+06
1.63382e+06
1.63381e+06
1.63381e+06
1.6338e+06
1.6338e+06
1.63379e+06
1.63378e+06
1.63377e+06
1.63376e+06
1.63374e+06
1.63372e+06
1.6337e+06
1.63367e+06
1.63364e+06
1.6336e+06
1.63356e+06
1.63351e+06
1.63345e+06
1.63338e+06
1.63378e+06
1.63381e+06
1.63382e+06
1.63381e+06
1.6338e+06
1.6338e+06
1.6338e+06
1.6338e+06
1.6338e+06
1.6338e+06
1.6338e+06
1.6338e+06
1.6338e+06
1.6338e+06
1.6338e+06
1.6338e+06
1.6338e+06
1.6338e+06
1.6338e+06
1.63381e+06
1.63381e+06
1.63381e+06
1.63381e+06
1.63381e+06
1.63381e+06
1.63381e+06
1.63381e+06
1.6338e+06
1.6338e+06
1.6338e+06
1.6338e+06
1.6338e+06
1.6338e+06
1.63379e+06
1.63379e+06
1.63378e+06
1.63378e+06
1.63377e+06
1.63376e+06
1.63375e+06
1.63374e+06
1.63372e+06
1.6337e+06
1.63368e+06
1.63365e+06
1.63362e+06
1.63358e+06
1.63354e+06
1.63349e+06
1.63343e+06
1.63381e+06
1.63383e+06
1.63385e+06
1.63386e+06
1.63387e+06
1.63387e+06
1.63388e+06
1.63388e+06
1.63388e+06
1.63388e+06
1.63387e+06
1.63387e+06
1.63387e+06
1.63386e+06
1.63386e+06
1.63386e+06
1.63385e+06
1.63385e+06
1.63385e+06
1.63385e+06
1.63385e+06
1.63385e+06
1.63384e+06
1.63384e+06
1.63384e+06
1.63384e+06
1.63384e+06
1.63383e+06
1.63383e+06
1.63383e+06
1.63383e+06
1.63382e+06
1.63382e+06
1.63382e+06
1.63381e+06
1.63381e+06
1.6338e+06
1.63379e+06
1.63379e+06
1.63378e+06
1.63376e+06
1.63375e+06
1.63373e+06
1.63371e+06
1.63369e+06
1.63366e+06
1.63363e+06
1.63359e+06
1.63355e+06
1.63351e+06
1.63382e+06
1.63383e+06
1.63384e+06
1.63384e+06
1.63384e+06
1.63384e+06
1.63383e+06
1.63383e+06
1.63383e+06
1.63383e+06
1.63382e+06
1.63382e+06
1.63382e+06
1.63382e+06
1.63381e+06
1.63381e+06
1.63381e+06
1.63381e+06
1.63381e+06
1.63381e+06
1.63381e+06
1.63381e+06
1.63381e+06
1.63381e+06
1.63381e+06
1.63381e+06
1.63381e+06
1.63381e+06
1.63381e+06
1.63381e+06
1.63381e+06
1.63381e+06
1.6338e+06
1.6338e+06
1.6338e+06
1.6338e+06
1.63379e+06
1.63379e+06
1.63378e+06
1.63377e+06
1.63376e+06
1.63375e+06
1.63374e+06
1.63372e+06
1.6337e+06
1.63368e+06
1.63366e+06
1.63363e+06
1.6336e+06
1.63357e+06
1.63383e+06
1.63383e+06
1.63384e+06
1.63384e+06
1.63384e+06
1.63385e+06
1.63385e+06
1.63385e+06
1.63385e+06
1.63385e+06
1.63385e+06
1.63385e+06
1.63385e+06
1.63385e+06
1.63385e+06
1.63384e+06
1.63384e+06
1.63384e+06
1.63384e+06
1.63384e+06
1.63384e+06
1.63384e+06
1.63384e+06
1.63384e+06
1.63384e+06
1.63384e+06
1.63384e+06
1.63383e+06
1.63383e+06
1.63383e+06
1.63383e+06
1.63383e+06
1.63383e+06
1.63382e+06
1.63382e+06
1.63382e+06
1.63382e+06
1.63381e+06
1.63381e+06
1.6338e+06
1.63379e+06
1.63378e+06
1.63377e+06
1.63376e+06
1.63375e+06
1.63373e+06
1.63371e+06
1.63369e+06
1.63367e+06
1.63364e+06
1.63383e+06
1.63384e+06
1.63384e+06
1.63384e+06
1.63384e+06
1.63384e+06
1.63384e+06
1.63384e+06
1.63384e+06
1.63384e+06
1.63383e+06
1.63383e+06
1.63383e+06
1.63383e+06
1.63383e+06
1.63383e+06
1.63382e+06
1.63382e+06
1.63382e+06
1.63382e+06
1.63382e+06
1.63382e+06
1.63382e+06
1.63382e+06
1.63382e+06
1.63382e+06
1.63382e+06
1.63382e+06
1.63382e+06
1.63382e+06
1.63382e+06
1.63382e+06
1.63382e+06
1.63382e+06
1.63381e+06
1.63381e+06
1.63381e+06
1.63381e+06
1.63381e+06
1.6338e+06
1.6338e+06
1.63379e+06
1.63379e+06
1.63378e+06
1.63377e+06
1.63376e+06
1.63375e+06
1.63373e+06
1.63372e+06
1.63371e+06
1.63384e+06
1.63384e+06
1.63384e+06
1.63384e+06
1.63384e+06
1.63384e+06
1.63384e+06
1.63384e+06
1.63384e+06
1.63384e+06
1.63384e+06
1.63384e+06
1.63384e+06
1.63384e+06
1.63384e+06
1.63384e+06
1.63384e+06
1.63384e+06
1.63384e+06
1.63384e+06
1.63383e+06
1.63383e+06
1.63383e+06
1.63383e+06
1.63383e+06
1.63383e+06
1.63383e+06
1.63383e+06
1.63383e+06
1.63383e+06
1.63383e+06
1.63383e+06
1.63383e+06
1.63383e+06
1.63383e+06
1.63383e+06
1.63383e+06
1.63383e+06
1.63383e+06
1.63383e+06
1.63382e+06
1.63382e+06
1.63382e+06
1.63381e+06
1.63381e+06
1.6338e+06
1.6338e+06
1.63379e+06
1.63378e+06
1.63378e+06
1.63384e+06
1.63384e+06
1.63384e+06
1.63384e+06
1.63384e+06
1.63384e+06
1.63384e+06
1.63384e+06
1.63384e+06
1.63384e+06
1.63384e+06
1.63384e+06
1.63384e+06
1.63383e+06
1.63383e+06
1.63383e+06
1.63383e+06
1.63383e+06
1.63383e+06
1.63383e+06
1.63383e+06
1.63383e+06
1.63383e+06
1.63383e+06
1.63383e+06
1.63383e+06
1.63383e+06
1.63383e+06
1.63383e+06
1.63383e+06
1.63383e+06
1.63383e+06
1.63383e+06
1.63383e+06
1.63383e+06
1.63383e+06
1.63384e+06
1.63384e+06
1.63384e+06
1.63384e+06
1.63384e+06
1.63384e+06
1.63384e+06
1.63384e+06
1.63384e+06
1.63384e+06
1.63384e+06
1.63384e+06
1.63384e+06
1.63384e+06
1.63383e+06
1.63384e+06
1.63384e+06
1.63384e+06
1.63384e+06
1.63384e+06
1.63384e+06
1.63384e+06
1.63384e+06
1.63384e+06
1.63384e+06
1.63384e+06
1.63384e+06
1.63383e+06
1.63383e+06
1.63383e+06
1.63383e+06
1.63383e+06
1.63383e+06
1.63383e+06
1.63383e+06
1.63383e+06
1.63383e+06
1.63383e+06
1.63383e+06
1.63383e+06
1.63383e+06
1.63383e+06
1.63383e+06
1.63383e+06
1.63384e+06
1.63384e+06
1.63384e+06
1.63384e+06
1.63384e+06
1.63384e+06
1.63385e+06
1.63385e+06
1.63385e+06
1.63385e+06
1.63386e+06
1.63386e+06
1.63387e+06
1.63387e+06
1.63387e+06
1.63388e+06
1.63389e+06
1.63389e+06
1.6339e+06
1.63391e+06
1.63383e+06
1.63383e+06
1.63384e+06
1.63384e+06
1.63384e+06
1.63384e+06
1.63384e+06
1.63384e+06
1.63384e+06
1.63384e+06
1.63384e+06
1.63384e+06
1.63384e+06
1.63384e+06
1.63384e+06
1.63384e+06
1.63384e+06
1.63384e+06
1.63384e+06
1.63384e+06
1.63384e+06
1.63384e+06
1.63384e+06
1.63384e+06
1.63384e+06
1.63384e+06
1.63384e+06
1.63384e+06
1.63384e+06
1.63384e+06
1.63384e+06
1.63385e+06
1.63385e+06
1.63385e+06
1.63385e+06
1.63386e+06
1.63386e+06
1.63386e+06
1.63387e+06
1.63387e+06
1.63388e+06
1.63389e+06
1.63389e+06
1.6339e+06
1.63391e+06
1.63392e+06
1.63393e+06
1.63394e+06
1.63396e+06
1.63397e+06
1.63383e+06
1.63383e+06
1.63384e+06
1.63384e+06
1.63384e+06
1.63384e+06
1.63384e+06
1.63384e+06
1.63384e+06
1.63384e+06
1.63383e+06
1.63383e+06
1.63383e+06
1.63383e+06
1.63383e+06
1.63383e+06
1.63383e+06
1.63383e+06
1.63383e+06
1.63383e+06
1.63383e+06
1.63383e+06
1.63383e+06
1.63383e+06
1.63383e+06
1.63383e+06
1.63383e+06
1.63383e+06
1.63383e+06
1.63383e+06
1.63384e+06
1.63384e+06
1.63384e+06
1.63385e+06
1.63385e+06
1.63386e+06
1.63386e+06
1.63387e+06
1.63387e+06
1.63388e+06
1.63389e+06
1.6339e+06
1.63391e+06
1.63392e+06
1.63394e+06
1.63395e+06
1.63397e+06
1.63399e+06
1.63401e+06
1.63403e+06
1.63383e+06
1.63383e+06
1.63384e+06
1.63384e+06
1.63384e+06
1.63385e+06
1.63385e+06
1.63385e+06
1.63385e+06
1.63385e+06
1.63385e+06
1.63385e+06
1.63385e+06
1.63385e+06
1.63385e+06
1.63385e+06
1.63385e+06
1.63385e+06
1.63385e+06
1.63385e+06
1.63385e+06
1.63385e+06
1.63385e+06
1.63385e+06
1.63385e+06
1.63385e+06
1.63385e+06
1.63385e+06
1.63385e+06
1.63385e+06
1.63386e+06
1.63386e+06
1.63386e+06
1.63387e+06
1.63387e+06
1.63388e+06
1.63388e+06
1.63389e+06
1.6339e+06
1.63391e+06
1.63392e+06
1.63393e+06
1.63394e+06
1.63396e+06
1.63398e+06
1.634e+06
1.63402e+06
1.63404e+06
1.63407e+06
1.6341e+06
1.63382e+06
1.63383e+06
1.63383e+06
1.63384e+06
1.63384e+06
1.63383e+06
1.63383e+06
1.63383e+06
1.63383e+06
1.63382e+06
1.63382e+06
1.63382e+06
1.63382e+06
1.63382e+06
1.63382e+06
1.63382e+06
1.63382e+06
1.63382e+06
1.63382e+06
1.63382e+06
1.63382e+06
1.63382e+06
1.63382e+06
1.63382e+06
1.63382e+06
1.63383e+06
1.63383e+06
1.63383e+06
1.63383e+06
1.63384e+06
1.63384e+06
1.63384e+06
1.63385e+06
1.63385e+06
1.63386e+06
1.63387e+06
1.63387e+06
1.63388e+06
1.63389e+06
1.63391e+06
1.63392e+06
1.63393e+06
1.63395e+06
1.63397e+06
1.63399e+06
1.63402e+06
1.63405e+06
1.63408e+06
1.63411e+06
1.63415e+06
1.63381e+06
1.63382e+06
1.63384e+06
1.63386e+06
1.63387e+06
1.63387e+06
1.63387e+06
1.63388e+06
1.63388e+06
1.63387e+06
1.63387e+06
1.63387e+06
1.63387e+06
1.63387e+06
1.63386e+06
1.63386e+06
1.63386e+06
1.63386e+06
1.63386e+06
1.63386e+06
1.63386e+06
1.63386e+06
1.63386e+06
1.63386e+06
1.63386e+06
1.63386e+06
1.63386e+06
1.63386e+06
1.63386e+06
1.63386e+06
1.63386e+06
1.63387e+06
1.63387e+06
1.63388e+06
1.63388e+06
1.63389e+06
1.6339e+06
1.63391e+06
1.63392e+06
1.63393e+06
1.63395e+06
1.63396e+06
1.63398e+06
1.63401e+06
1.63403e+06
1.63406e+06
1.63409e+06
1.63413e+06
1.63417e+06
1.63421e+06
1.63378e+06
1.6338e+06
1.63381e+06
1.63381e+06
1.6338e+06
1.6338e+06
1.6338e+06
1.6338e+06
1.6338e+06
1.6338e+06
1.6338e+06
1.6338e+06
1.6338e+06
1.6338e+06
1.63381e+06
1.63381e+06
1.63381e+06
1.63381e+06
1.63381e+06
1.63382e+06
1.63382e+06
1.63382e+06
1.63382e+06
1.63382e+06
1.63382e+06
1.63383e+06
1.63383e+06
1.63383e+06
1.63383e+06
1.63384e+06
1.63384e+06
1.63385e+06
1.63385e+06
1.63386e+06
1.63387e+06
1.63388e+06
1.63389e+06
1.6339e+06
1.63391e+06
1.63393e+06
1.63394e+06
1.63396e+06
1.63399e+06
1.63401e+06
1.63404e+06
1.63407e+06
1.63411e+06
1.63415e+06
1.6342e+06
1.63426e+06
1.63375e+06
1.63389e+06
1.63396e+06
1.63397e+06
1.63396e+06
1.63395e+06
1.63394e+06
1.63392e+06
1.63391e+06
1.6339e+06
1.63389e+06
1.63389e+06
1.63388e+06
1.63388e+06
1.63387e+06
1.63387e+06
1.63387e+06
1.63386e+06
1.63386e+06
1.63386e+06
1.63386e+06
1.63386e+06
1.63386e+06
1.63386e+06
1.63386e+06
1.63386e+06
1.63386e+06
1.63386e+06
1.63386e+06
1.63386e+06
1.63387e+06
1.63387e+06
1.63388e+06
1.63388e+06
1.63389e+06
1.6339e+06
1.63391e+06
1.63392e+06
1.63393e+06
1.63395e+06
1.63397e+06
1.63399e+06
1.63401e+06
1.63404e+06
1.63407e+06
1.63411e+06
1.63415e+06
1.6342e+06
1.63425e+06
1.63432e+06
1.6333e+06
1.63358e+06
1.63368e+06
1.63371e+06
1.63374e+06
1.63376e+06
1.63377e+06
1.63378e+06
1.63379e+06
1.63379e+06
1.6338e+06
1.6338e+06
1.63381e+06
1.63381e+06
1.63381e+06
1.63381e+06
1.63382e+06
1.63382e+06
1.63382e+06
1.63382e+06
1.63382e+06
1.63383e+06
1.63383e+06
1.63383e+06
1.63383e+06
1.63383e+06
1.63383e+06
1.63384e+06
1.63384e+06
1.63385e+06
1.63385e+06
1.63386e+06
1.63386e+06
1.63387e+06
1.63388e+06
1.63389e+06
1.6339e+06
1.63391e+06
1.63393e+06
1.63394e+06
1.63396e+06
1.63398e+06
1.63401e+06
1.63404e+06
1.63407e+06
1.63411e+06
1.63416e+06
1.63421e+06
1.63427e+06
1.63435e+06
1.6349e+06
1.63438e+06
1.63413e+06
1.63403e+06
1.63398e+06
1.63394e+06
1.63392e+06
1.6339e+06
1.63389e+06
1.63388e+06
1.63387e+06
1.63386e+06
1.63386e+06
1.63386e+06
1.63385e+06
1.63385e+06
1.63385e+06
1.63385e+06
1.63385e+06
1.63385e+06
1.63385e+06
1.63385e+06
1.63385e+06
1.63385e+06
1.63385e+06
1.63385e+06
1.63385e+06
1.63385e+06
1.63386e+06
1.63386e+06
1.63386e+06
1.63387e+06
1.63387e+06
1.63388e+06
1.63389e+06
1.6339e+06
1.63391e+06
1.63392e+06
1.63394e+06
1.63395e+06
1.63397e+06
1.63399e+06
1.63402e+06
1.63405e+06
1.63408e+06
1.63413e+06
1.63417e+06
1.63423e+06
1.6343e+06
1.63439e+06
1.63202e+06
1.6323e+06
1.6324e+06
1.63264e+06
1.63277e+06
1.63298e+06
1.63312e+06
1.63331e+06
1.63344e+06
1.63361e+06
1.63374e+06
1.63391e+06
1.63403e+06
1.63418e+06
1.63429e+06
1.63445e+06
1.63454e+06
1.6347e+06
1.63477e+06
1.63492e+06
1.63203e+06
1.6323e+06
1.63241e+06
1.63265e+06
1.63278e+06
1.63299e+06
1.63312e+06
1.63331e+06
1.63344e+06
1.63362e+06
1.63375e+06
1.63391e+06
1.63403e+06
1.63419e+06
1.6343e+06
1.63445e+06
1.63455e+06
1.63471e+06
1.63477e+06
1.63493e+06
1.63203e+06
1.63231e+06
1.63241e+06
1.63265e+06
1.63278e+06
1.63299e+06
1.63312e+06
1.63331e+06
1.63345e+06
1.63362e+06
1.63375e+06
1.63391e+06
1.63404e+06
1.63419e+06
1.6343e+06
1.63446e+06
1.63455e+06
1.63471e+06
1.63478e+06
1.63494e+06
1.63204e+06
1.63231e+06
1.63241e+06
1.63266e+06
1.63278e+06
1.63299e+06
1.63313e+06
1.63332e+06
1.63345e+06
1.63362e+06
1.63375e+06
1.63392e+06
1.63404e+06
1.6342e+06
1.63431e+06
1.63447e+06
1.63456e+06
1.63472e+06
1.63479e+06
1.63495e+06
1.63204e+06
1.63232e+06
1.63242e+06
1.63266e+06
1.63279e+06
1.633e+06
1.63313e+06
1.63332e+06
1.63345e+06
1.63363e+06
1.63376e+06
1.63392e+06
1.63404e+06
1.6342e+06
1.63431e+06
1.63447e+06
1.63456e+06
1.63472e+06
1.63479e+06
1.63495e+06
1.63204e+06
1.63232e+06
1.63242e+06
1.63266e+06
1.63279e+06
1.633e+06
1.63314e+06
1.63333e+06
1.63346e+06
1.63363e+06
1.63376e+06
1.63393e+06
1.63405e+06
1.63421e+06
1.63432e+06
1.63448e+06
1.63457e+06
1.63473e+06
1.6348e+06
1.63496e+06
1.63205e+06
1.63232e+06
1.63243e+06
1.63267e+06
1.63279e+06
1.63301e+06
1.63314e+06
1.63333e+06
1.63346e+06
1.63364e+06
1.63377e+06
1.63393e+06
1.63405e+06
1.63421e+06
1.63432e+06
1.63448e+06
1.63458e+06
1.63474e+06
1.63481e+06
1.63497e+06
1.63205e+06
1.63233e+06
1.63243e+06
1.63267e+06
1.6328e+06
1.63301e+06
1.63314e+06
1.63334e+06
1.63347e+06
1.63364e+06
1.63377e+06
1.63394e+06
1.63406e+06
1.63422e+06
1.63433e+06
1.63449e+06
1.63458e+06
1.63474e+06
1.63481e+06
1.63497e+06
1.63206e+06
1.63233e+06
1.63244e+06
1.63268e+06
1.6328e+06
1.63302e+06
1.63315e+06
1.63334e+06
1.63347e+06
1.63365e+06
1.63378e+06
1.63394e+06
1.63406e+06
1.63422e+06
1.63433e+06
1.63449e+06
1.63459e+06
1.63475e+06
1.63482e+06
1.63498e+06
1.63206e+06
1.63234e+06
1.63244e+06
1.63268e+06
1.63281e+06
1.63302e+06
1.63315e+06
1.63335e+06
1.63348e+06
1.63365e+06
1.63378e+06
1.63395e+06
1.63407e+06
1.63423e+06
1.63434e+06
1.6345e+06
1.63459e+06
1.63475e+06
1.63482e+06
1.63498e+06
1.63207e+06
1.63234e+06
1.63245e+06
1.63269e+06
1.63281e+06
1.63303e+06
1.63316e+06
1.63335e+06
1.63348e+06
1.63366e+06
1.63379e+06
1.63395e+06
1.63407e+06
1.63424e+06
1.63435e+06
1.6345e+06
1.6346e+06
1.63476e+06
1.63483e+06
1.63499e+06
1.63207e+06
1.63235e+06
1.63245e+06
1.6327e+06
1.63282e+06
1.63303e+06
1.63317e+06
1.63336e+06
1.63349e+06
1.63367e+06
1.63379e+06
1.63396e+06
1.63408e+06
1.63424e+06
1.63435e+06
1.63451e+06
1.6346e+06
1.63477e+06
1.63484e+06
1.635e+06
1.63208e+06
1.63236e+06
1.63246e+06
1.6327e+06
1.63283e+06
1.63304e+06
1.63317e+06
1.63336e+06
1.6335e+06
1.63367e+06
1.6338e+06
1.63397e+06
1.63409e+06
1.63425e+06
1.63436e+06
1.63452e+06
1.63461e+06
1.63477e+06
1.63484e+06
1.635e+06
1.63208e+06
1.63236e+06
1.63246e+06
1.63271e+06
1.63283e+06
1.63305e+06
1.63318e+06
1.63337e+06
1.6335e+06
1.63368e+06
1.63381e+06
1.63397e+06
1.63409e+06
1.63425e+06
1.63436e+06
1.63452e+06
1.63462e+06
1.63478e+06
1.63485e+06
1.63501e+06
1.63209e+06
1.63237e+06
1.63247e+06
1.63271e+06
1.63284e+06
1.63305e+06
1.63319e+06
1.63338e+06
1.63351e+06
1.63369e+06
1.63381e+06
1.63398e+06
1.6341e+06
1.63426e+06
1.63437e+06
1.63453e+06
1.63462e+06
1.63479e+06
1.63486e+06
1.63502e+06
1.6321e+06
1.63238e+06
1.63248e+06
1.63272e+06
1.63285e+06
1.63306e+06
1.63319e+06
1.63338e+06
1.63352e+06
1.63369e+06
1.63382e+06
1.63399e+06
1.63411e+06
1.63427e+06
1.63438e+06
1.63454e+06
1.63463e+06
1.63479e+06
1.63486e+06
1.63502e+06
1.6321e+06
1.63238e+06
1.63248e+06
1.63273e+06
1.63285e+06
1.63307e+06
1.6332e+06
1.63339e+06
1.63352e+06
1.6337e+06
1.63383e+06
1.63399e+06
1.63411e+06
1.63428e+06
1.63438e+06
1.63454e+06
1.63464e+06
1.6348e+06
1.63487e+06
1.63503e+06
1.63211e+06
1.63239e+06
1.63249e+06
1.63273e+06
1.63286e+06
1.63307e+06
1.6332e+06
1.6334e+06
1.63353e+06
1.63371e+06
1.63383e+06
1.634e+06
1.63412e+06
1.63428e+06
1.63439e+06
1.63455e+06
1.63464e+06
1.63481e+06
1.63487e+06
1.63504e+06
1.63211e+06
1.6324e+06
1.6325e+06
1.63274e+06
1.63286e+06
1.63308e+06
1.63321e+06
1.6334e+06
1.63354e+06
1.63371e+06
1.63384e+06
1.63401e+06
1.63413e+06
1.63429e+06
1.6344e+06
1.63456e+06
1.63465e+06
1.63481e+06
1.63488e+06
1.63504e+06
1.63212e+06
1.6324e+06
1.6325e+06
1.63275e+06
1.63287e+06
1.63309e+06
1.63322e+06
1.63341e+06
1.63354e+06
1.63372e+06
1.63385e+06
1.63402e+06
1.63414e+06
1.6343e+06
1.63441e+06
1.63456e+06
1.63466e+06
1.63482e+06
1.63489e+06
1.63505e+06
1.63213e+06
1.63241e+06
1.63251e+06
1.63275e+06
1.63288e+06
1.63309e+06
1.63322e+06
1.63342e+06
1.63355e+06
1.63373e+06
1.63386e+06
1.63402e+06
1.63414e+06
1.6343e+06
1.63441e+06
1.63457e+06
1.63466e+06
1.63483e+06
1.63489e+06
1.63506e+06
1.63213e+06
1.63242e+06
1.63252e+06
1.63276e+06
1.63288e+06
1.6331e+06
1.63323e+06
1.63342e+06
1.63356e+06
1.63373e+06
1.63386e+06
1.63403e+06
1.63415e+06
1.63431e+06
1.63442e+06
1.63458e+06
1.63467e+06
1.63483e+06
1.6349e+06
1.63506e+06
1.63214e+06
1.63242e+06
1.63252e+06
1.63277e+06
1.63289e+06
1.63311e+06
1.63324e+06
1.63343e+06
1.63356e+06
1.63374e+06
1.63387e+06
1.63404e+06
1.63416e+06
1.63432e+06
1.63443e+06
1.63458e+06
1.63468e+06
1.63484e+06
1.63491e+06
1.63507e+06
1.63215e+06
1.63243e+06
1.63253e+06
1.63277e+06
1.6329e+06
1.63311e+06
1.63324e+06
1.63344e+06
1.63357e+06
1.63375e+06
1.63387e+06
1.63404e+06
1.63416e+06
1.63432e+06
1.63443e+06
1.63459e+06
1.63468e+06
1.63485e+06
1.63491e+06
1.63508e+06
1.63215e+06
1.63244e+06
1.63253e+06
1.63278e+06
1.6329e+06
1.63312e+06
1.63325e+06
1.63344e+06
1.63358e+06
1.63375e+06
1.63388e+06
1.63405e+06
1.63417e+06
1.63433e+06
1.63444e+06
1.6346e+06
1.63469e+06
1.63485e+06
1.63492e+06
1.63508e+06
1.63216e+06
1.63244e+06
1.63254e+06
1.63279e+06
1.63291e+06
1.63313e+06
1.63326e+06
1.63345e+06
1.63358e+06
1.63376e+06
1.63389e+06
1.63406e+06
1.63417e+06
1.63434e+06
1.63444e+06
1.6346e+06
1.63469e+06
1.63486e+06
1.63492e+06
1.63509e+06
1.63217e+06
1.63245e+06
1.63255e+06
1.6328e+06
1.63292e+06
1.63313e+06
1.63326e+06
1.63346e+06
1.63359e+06
1.63377e+06
1.63389e+06
1.63406e+06
1.63418e+06
1.63434e+06
1.63445e+06
1.63461e+06
1.6347e+06
1.63486e+06
1.63493e+06
1.63509e+06
1.63217e+06
1.63246e+06
1.63256e+06
1.6328e+06
1.63293e+06
1.63314e+06
1.63327e+06
1.63347e+06
1.6336e+06
1.63377e+06
1.6339e+06
1.63407e+06
1.63419e+06
1.63435e+06
1.63445e+06
1.63461e+06
1.63471e+06
1.63487e+06
1.63494e+06
1.6351e+06
1.63218e+06
1.63246e+06
1.63256e+06
1.63281e+06
1.63293e+06
1.63315e+06
1.63328e+06
1.63347e+06
1.6336e+06
1.63378e+06
1.63391e+06
1.63407e+06
1.63419e+06
1.63435e+06
1.63446e+06
1.63462e+06
1.63471e+06
1.63487e+06
1.63494e+06
1.63511e+06
1.63219e+06
1.63247e+06
1.63257e+06
1.63282e+06
1.63294e+06
1.63316e+06
1.63328e+06
1.63348e+06
1.63361e+06
1.63379e+06
1.63391e+06
1.63408e+06
1.6342e+06
1.63436e+06
1.63447e+06
1.63463e+06
1.63472e+06
1.63488e+06
1.63495e+06
1.63511e+06
1.63219e+06
1.63248e+06
1.63258e+06
1.63282e+06
1.63295e+06
1.63316e+06
1.63329e+06
1.63349e+06
1.63361e+06
1.63379e+06
1.63392e+06
1.63409e+06
1.6342e+06
1.63436e+06
1.63447e+06
1.63463e+06
1.63472e+06
1.63488e+06
1.63495e+06
1.63512e+06
1.6322e+06
1.63249e+06
1.63258e+06
1.63283e+06
1.63295e+06
1.63317e+06
1.6333e+06
1.63349e+06
1.63362e+06
1.6338e+06
1.63392e+06
1.63409e+06
1.63421e+06
1.63437e+06
1.63448e+06
1.63464e+06
1.63473e+06
1.63489e+06
1.63496e+06
1.63512e+06
1.63221e+06
1.63249e+06
1.63259e+06
1.63284e+06
1.63296e+06
1.63317e+06
1.6333e+06
1.6335e+06
1.63362e+06
1.6338e+06
1.63393e+06
1.6341e+06
1.63421e+06
1.63437e+06
1.63448e+06
1.63464e+06
1.63473e+06
1.63489e+06
1.63496e+06
1.63513e+06
1.63221e+06
1.6325e+06
1.6326e+06
1.63284e+06
1.63296e+06
1.63318e+06
1.63331e+06
1.6335e+06
1.63363e+06
1.63381e+06
1.63393e+06
1.6341e+06
1.63422e+06
1.63438e+06
1.63448e+06
1.63464e+06
1.63474e+06
1.6349e+06
1.63496e+06
1.63513e+06
1.63222e+06
1.63251e+06
1.6326e+06
1.63285e+06
1.63297e+06
1.63319e+06
1.63331e+06
1.63351e+06
1.63363e+06
1.63381e+06
1.63394e+06
1.6341e+06
1.63422e+06
1.63438e+06
1.63449e+06
1.63465e+06
1.63474e+06
1.6349e+06
1.63497e+06
1.63513e+06
1.63223e+06
1.63251e+06
1.63261e+06
1.63286e+06
1.63298e+06
1.63319e+06
1.63332e+06
1.63351e+06
1.63364e+06
1.63382e+06
1.63394e+06
1.63411e+06
1.63422e+06
1.63439e+06
1.63449e+06
1.63465e+06
1.63474e+06
1.63491e+06
1.63497e+06
1.63514e+06
1.63223e+06
1.63252e+06
1.63261e+06
1.63286e+06
1.63298e+06
1.6332e+06
1.63332e+06
1.63352e+06
1.63364e+06
1.63382e+06
1.63394e+06
1.63411e+06
1.63423e+06
1.63439e+06
1.6345e+06
1.63466e+06
1.63475e+06
1.63491e+06
1.63498e+06
1.63514e+06
1.63224e+06
1.63252e+06
1.63262e+06
1.63287e+06
1.63298e+06
1.6332e+06
1.63333e+06
1.63352e+06
1.63365e+06
1.63383e+06
1.63395e+06
1.63412e+06
1.63423e+06
1.63439e+06
1.6345e+06
1.63466e+06
1.63475e+06
1.63491e+06
1.63498e+06
1.63515e+06
1.63224e+06
1.63253e+06
1.63262e+06
1.63287e+06
1.63299e+06
1.63321e+06
1.63333e+06
1.63353e+06
1.63365e+06
1.63383e+06
1.63395e+06
1.63412e+06
1.63424e+06
1.6344e+06
1.6345e+06
1.63466e+06
1.63475e+06
1.63492e+06
1.63498e+06
1.63515e+06
1.63225e+06
1.63253e+06
1.63263e+06
1.63288e+06
1.63299e+06
1.63321e+06
1.63334e+06
1.63353e+06
1.63366e+06
1.63383e+06
1.63396e+06
1.63412e+06
1.63424e+06
1.6344e+06
1.63451e+06
1.63467e+06
1.63476e+06
1.63492e+06
1.63499e+06
1.63515e+06
1.63225e+06
1.63254e+06
1.63263e+06
1.63288e+06
1.633e+06
1.63322e+06
1.63334e+06
1.63353e+06
1.63366e+06
1.63384e+06
1.63396e+06
1.63413e+06
1.63424e+06
1.63441e+06
1.63451e+06
1.63467e+06
1.63476e+06
1.63492e+06
1.63499e+06
1.63516e+06
1.63226e+06
1.63254e+06
1.63264e+06
1.63289e+06
1.633e+06
1.63322e+06
1.63334e+06
1.63354e+06
1.63366e+06
1.63384e+06
1.63396e+06
1.63413e+06
1.63425e+06
1.63441e+06
1.63451e+06
1.63467e+06
1.63476e+06
1.63493e+06
1.63499e+06
1.63516e+06
1.63226e+06
1.63255e+06
1.63264e+06
1.63289e+06
1.63301e+06
1.63322e+06
1.63335e+06
1.63354e+06
1.63367e+06
1.63385e+06
1.63397e+06
1.63414e+06
1.63425e+06
1.63441e+06
1.63452e+06
1.63468e+06
1.63477e+06
1.63493e+06
1.635e+06
1.63517e+06
1.63227e+06
1.63256e+06
1.63265e+06
1.6329e+06
1.63301e+06