/*--------------------------------*- C++ -*----------------------------------*\
  =========                 |
  \\      /  F ield         | OpenFOAM: The Open Source CFD Toolbox
   \\    /   O peration     | Website:  https://openfoam.org
    \\  /    A nd           | Version:  8
     \\/     M anipulation  |
\*---------------------------------------------------------------------------*/
FoamFile
{
    version     2.0;
    format      ascii;
    class       volScalarField;
    location    "200";
    object      T;
}
// * * * * * * * * * * * * * * * * * * * * * * * * * * * * * * * * * * * * * //

dimensions      [0 0 0 1 0 0 0];

internalField   nonuniform List<scalar> 
8400
(
293.218
293.216
293.217
293.217
293.217
293.217
293.217
293.217
293.217
293.217
293.217
293.216
293.216
293.216
293.216
293.215
293.215
293.214
293.214
293.213
293.212
293.212
293.211
293.21
293.209
293.208
293.207
293.206
293.205
293.204
293.203
293.202
293.201
293.2
293.199
293.198
293.197
293.196
293.195
293.194
293.193
293.192
293.191
293.19
293.19
293.189
293.188
293.188
293.187
293.186
293.23
293.228
293.228
293.228
293.228
293.228
293.228
293.228
293.228
293.228
293.228
293.228
293.228
293.228
293.228
293.227
293.227
293.227
293.226
293.226
293.225
293.225
293.224
293.223
293.223
293.222
293.221
293.221
293.22
293.219
293.218
293.217
293.217
293.216
293.215
293.214
293.213
293.212
293.212
293.211
293.21
293.209
293.209
293.208
293.207
293.207
293.206
293.206
293.205
293.204
293.226
293.224
293.225
293.224
293.224
293.224
293.224
293.224
293.224
293.224
293.224
293.224
293.224
293.224
293.224
293.223
293.223
293.223
293.223
293.222
293.222
293.222
293.221
293.221
293.22
293.22
293.219
293.219
293.218
293.218
293.217
293.217
293.216
293.216
293.215
293.215
293.214
293.214
293.213
293.213
293.212
293.212
293.212
293.211
293.211
293.211
293.21
293.21
293.21
293.21
293.236
293.234
293.233
293.232
293.231
293.231
293.23
293.229
293.229
293.229
293.228
293.228
293.227
293.227
293.227
293.226
293.226
293.225
293.225
293.224
293.224
293.224
293.223
293.223
293.222
293.222
293.221
293.221
293.22
293.22
293.219
293.218
293.218
293.217
293.217
293.216
293.216
293.215
293.215
293.215
293.214
293.214
293.213
293.213
293.213
293.212
293.212
293.212
293.211
293.211
293.283
293.276
293.272
293.267
293.264
293.26
293.257
293.255
293.253
293.251
293.249
293.247
293.246
293.244
293.243
293.242
293.241
293.24
293.239
293.238
293.238
293.237
293.236
293.235
293.235
293.234
293.233
293.233
293.232
293.232
293.231
293.231
293.23
293.23
293.229
293.229
293.228
293.228
293.228
293.227
293.227
293.227
293.226
293.226
293.226
293.225
293.225
293.225
293.225
293.224
293.477
293.456
293.438
293.421
293.406
293.392
293.38
293.369
293.36
293.352
293.345
293.338
293.333
293.328
293.323
293.319
293.316
293.313
293.31
293.307
293.305
293.303
293.301
293.299
293.298
293.296
293.295
293.294
293.293
293.292
293.291
293.29
293.289
293.288
293.287
293.286
293.285
293.285
293.284
293.283
293.282
293.281
293.28
293.279
293.278
293.277
293.276
293.274
293.272
293.27
294.093
294.035
293.982
293.931
293.885
293.844
293.806
293.772
293.742
293.716
293.692
293.67
293.652
293.635
293.62
293.606
293.594
293.584
293.574
293.565
293.558
293.551
293.544
293.539
293.533
293.529
293.524
293.52
293.517
293.513
293.51
293.507
293.503
293.5
293.497
293.494
293.491
293.487
293.484
293.48
293.476
293.472
293.467
293.462
293.456
293.45
293.444
293.436
293.428
293.419
295.484
295.376
295.272
295.172
295.079
294.993
294.914
294.842
294.776
294.716
294.662
294.612
294.568
294.527
294.49
294.457
294.426
294.399
294.374
294.351
294.33
294.311
294.294
294.278
294.263
294.249
294.237
294.225
294.213
294.202
294.191
294.181
294.17
294.16
294.149
294.138
294.126
294.114
294.102
294.088
294.074
294.058
294.042
294.024
294.005
293.984
293.961
293.936
293.909
293.879
297.54
297.417
297.294
297.175
297.061
296.954
296.854
296.76
296.672
296.591
296.515
296.444
296.379
296.318
296.262
296.21
296.162
296.118
296.076
296.038
296.003
295.97
295.939
295.91
295.883
295.857
295.832
295.809
295.786
295.763
295.741
295.719
295.697
295.674
295.651
295.627
295.602
295.575
295.547
295.518
295.486
295.452
295.416
295.377
295.335
295.29
295.241
295.188
295.13
295.067
299.285
299.215
299.143
299.072
299.003
298.936
298.872
298.81
298.75
298.693
298.639
298.587
298.538
298.491
298.446
298.404
298.364
298.327
298.291
298.257
298.225
298.195
298.165
298.138
298.111
298.085
298.059
298.035
298.01
297.986
297.961
297.937
297.911
297.886
297.859
297.83
297.801
297.77
297.736
297.701
297.663
297.623
297.579
297.532
297.482
297.428
297.37
297.306
297.238
297.164
299.946
299.933
299.921
299.908
299.895
299.882
299.869
299.856
299.843
299.83
299.817
299.804
299.792
299.779
299.767
299.755
299.744
299.733
299.722
299.712
299.701
299.691
299.681
299.672
299.662
299.653
299.643
299.634
299.624
299.615
299.605
299.594
299.584
299.572
299.561
299.548
299.535
299.52
299.505
299.488
299.47
299.451
299.43
299.407
299.382
299.355
299.327
299.296
299.262
299.226
300.002
300.002
300.002
300.002
300.003
300.003
300.003
300.003
300.004
300.004
300.004
300.004
300.004
300.004
300.004
300.004
300.004
300.004
300.004
300.004
300.004
300.004
300.004
300.004
300.004
300.004
300.004
300.004
300.004
300.004
300.004
300.004
300.004
300.004
300.004
300.004
300.003
300.003
300.003
300.002
300.002
300.001
300
299.999
299.998
299.997
299.995
299.993
299.992
299.99
300.001
300.002
300.002
300.002
300.003
300.003
300.004
300.004
300.004
300.005
300.005
300.005
300.005
300.006
300.006
300.006
300.007
300.007
300.007
300.007
300.007
300.008
300.008
300.008
300.008
300.009
300.009
300.009
300.009
300.01
300.01
300.01
300.01
300.011
300.011
300.011
300.012
300.012
300.012
300.013
300.013
300.014
300.014
300.015
300.015
300.016
300.016
300.017
300.017
300.018
300.002
300.003
300.003
300.003
300.004
300.004
300.005
300.005
300.005
300.006
300.006
300.006
300.007
300.007
300.007
300.008
300.008
300.008
300.008
300.009
300.009
300.009
300.009
300.01
300.01
300.01
300.011
300.011
300.011
300.011
300.012
300.012
300.012
300.013
300.013
300.013
300.014
300.014
300.015
300.015
300.016
300.016
300.017
300.017
300.018
300.018
300.019
300.02
300.02
300.021
300.005
300.006
300.006
300.006
300.007
300.007
300.008
300.008
300.008
300.009
300.009
300.009
300.01
300.01
300.011
300.011
300.011
300.012
300.012
300.013
300.013
300.013
300.014
300.014
300.015
300.015
300.015
300.016
300.016
300.017
300.017
300.018
300.018
300.019
300.019
300.02
300.02
300.021
300.021
300.022
300.023
300.023
300.024
300.025
300.025
300.026
300.027
300.028
300.028
300.029
300.003
300.004
300.004
300.004
300.005
300.006
300.007
300.007
300.008
300.009
300.01
300.011
300.012
300.012
300.013
300.014
300.015
300.016
300.017
300.018
300.019
300.019
300.02
300.021
300.022
300.023
300.024
300.025
300.025
300.026
300.027
300.028
300.029
300.03
300.031
300.031
300.032
300.033
300.034
300.035
300.036
300.037
300.038
300.039
300.04
300.041
300.041
300.042
300.043
300.043
300.014
300.017
300.019
300.021
300.023
300.025
300.027
300.028
300.03
300.031
300.032
300.034
300.035
300.036
300.037
300.038
300.039
300.04
300.041
300.042
300.043
300.044
300.045
300.046
300.046
300.047
300.048
300.049
300.05
300.051
300.051
300.052
300.053
300.054
300.055
300.055
300.056
300.057
300.058
300.059
300.059
300.06
300.061
300.062
300.063
300.064
300.064
300.065
300.066
300.066
300.003
300.003
300.001
300
300
300
300.001
300.001
300.002
300.003
300.004
300.005
300.006
300.007
300.008
300.009
300.011
300.012
300.013
300.014
300.016
300.017
300.018
300.02
300.021
300.022
300.024
300.025
300.026
300.028
300.029
300.03
300.032
300.033
300.034
300.036
300.037
300.039
300.04
300.042
300.043
300.044
300.046
300.047
300.048
300.048
300.049
300.049
300.049
300.049
300.029
300.036
300.043
300.051
300.058
300.064
300.07
300.076
300.081
300.086
300.091
300.095
300.1
300.103
300.107
300.111
300.114
300.117
300.121
300.124
300.127
300.129
300.132
300.135
300.138
300.14
300.143
300.145
300.148
300.151
300.153
300.156
300.158
300.161
300.163
300.166
300.168
300.171
300.174
300.176
300.178
300.181
300.184
300.187
300.19
300.193
300.197
300.201
300.206
300.211
299.999
299.996
299.993
299.99
299.987
299.984
299.981
299.979
299.977
299.975
299.973
299.971
299.969
299.968
299.967
299.966
299.965
299.964
299.963
299.962
299.961
299.961
299.96
299.96
299.959
299.959
299.958
299.958
299.957
299.957
299.957
299.956
299.956
299.956
299.956
299.955
299.955
299.955
299.955
299.955
299.955
299.955
299.956
299.956
299.957
299.959
299.96
299.962
299.964
299.968
303.149
303.148
303.146
303.145
303.144
303.142
303.141
303.14
303.139
303.138
303.136
303.135
303.134
303.133
303.132
303.131
303.13
303.128
303.127
303.126
303.125
303.124
303.123
303.122
303.121
303.12
303.119
303.118
303.117
303.116
303.115
303.114
303.113
303.113
303.112
303.111
303.11
303.109
303.108
303.107
303.106
303.105
303.105
303.104
303.103
303.102
303.102
303.101
303.101
303.1
303.15
303.15
303.15
303.15
303.15
303.15
303.15
303.15
303.15
303.15
303.149
303.149
303.149
303.149
303.149
303.149
303.149
303.149
303.148
303.148
303.148
303.148
303.148
303.148
303.148
303.147
303.147
303.147
303.147
303.147
303.147
303.146
303.146
303.146
303.146
303.146
303.146
303.146
303.145
303.145
303.145
303.145
303.145
303.145
303.145
303.144
303.144
303.144
303.144
303.144
303.15
303.15
303.15
303.15
303.15
303.15
303.15
303.15
303.15
303.15
303.15
303.15
303.15
303.15
303.15
303.15
303.15
303.15
303.15
303.15
303.15
303.15
303.15
303.15
303.15
303.15
303.15
303.15
303.15
303.15
303.15
303.15
303.15
303.15
303.15
303.15
303.15
303.15
303.15
303.15
303.15
303.15
303.15
303.15
303.15
303.15
303.15
303.15
303.15
303.15
303.15
303.15
303.15
303.15
303.15
303.15
303.15
303.15
303.15
303.15
303.15
303.15
303.15
303.15
303.15
303.15
303.15
303.15
303.15
303.15
303.15
303.15
303.15
303.15
303.15
303.15
303.15
303.15
303.15
303.15
303.15
303.15
303.15
303.15
303.15
303.15
303.15
303.15
303.15
303.15
303.15
303.15
303.15
303.15
303.15
303.15
303.15
303.15
303.15
303.15
303.15
303.15
303.15
303.15
303.15
303.15
303.15
303.15
303.15
303.15
303.15
303.15
303.15
303.15
303.15
303.15
303.15
303.15
303.15
303.15
303.15
303.15
303.15
303.15
303.15
303.15
303.15
303.15
303.15
303.15
303.15
303.15
303.15
303.15
303.15
303.15
303.15
303.15
303.15
303.15
303.15
303.15
303.15
303.15
303.15
303.15
303.15
303.15
303.15
303.15
303.15
303.15
303.15
303.15
303.15
303.15
303.15
303.15
303.15
303.15
303.15
303.15
303.15
303.15
303.15
303.15
303.15
303.15
303.15
303.15
303.15
303.15
303.15
303.15
303.15
303.15
303.15
303.15
303.15
303.15
303.15
303.15
303.15
303.15
303.15
303.15
303.15
303.15
303.15
303.15
303.15
303.15
303.15
303.15
303.15
303.15
303.15
303.15
303.15
303.15
303.15
303.15
303.15
303.15
303.15
303.15
303.15
303.15
303.15
303.15
303.15
303.15
303.15
303.15
303.15
303.15
303.15
303.15
303.15
303.15
303.15
303.15
303.15
303.15
303.15
303.15
303.15
303.15
303.15
303.15
303.15
303.15
303.15
303.15
303.15
303.15
303.15
303.15
303.15
303.15
303.15
303.15
303.15
303.15
303.15
303.15
303.15
303.15
303.15
303.15
303.15
303.15
303.15
303.15
303.15
303.15
303.15
303.15
303.15
303.15
303.15
303.15
303.15
303.15
303.15
303.15
303.15
303.15
303.15
303.15
303.15
303.15
303.15
303.15
303.15
303.15
303.15
303.15
303.15
303.15
303.15
303.15
303.15
303.15
303.15
303.15
303.15
303.15
303.15
303.15
303.15
303.15
303.15
303.15
303.15
303.15
303.15
303.15
303.15
303.15
303.15
303.15
303.15
303.15
303.15
303.15
303.15
303.15
303.15
303.15
303.15
303.15
303.15
303.15
303.15
303.15
303.15
303.15
303.15
303.15
303.15
303.15
303.15
303.15
303.15
303.15
303.15
303.15
303.15
303.15
303.15
303.15
303.15
303.15
303.15
303.15
303.15
303.15
303.15
303.15
303.15
303.15
303.15
303.15
303.15
303.15
303.15
303.15
303.15
303.15
303.15
303.15
303.15
303.15
303.15
303.15
303.15
303.15
303.15
303.15
303.15
303.15
303.15
303.15
303.15
303.15
303.15
303.15
303.15
303.15
303.15
303.15
303.15
303.15
303.15
303.15
303.15
303.15
303.15
303.15
303.15
303.15
303.15
303.15
303.15
303.15
303.15
303.15
303.15
303.15
303.15
303.15
303.15
303.15
303.15
303.15
303.15
303.15
303.15
303.15
303.15
303.15
303.15
303.15
303.15
303.15
303.15
303.15
303.15
303.15
303.15
303.15
303.15
303.15
303.15
303.15
303.15
303.15
303.15
303.15
303.15
303.15
303.15
303.15
303.15
303.15
303.15
303.15
303.15
303.15
303.15
303.15
303.15
303.15
303.15
303.15
303.15
303.15
303.15
303.15
303.15
303.15
303.15
303.15
303.15
303.15
303.15
303.15
303.15
303.15
303.15
303.15
303.15
303.15
303.15
303.15
303.15
303.15
303.15
303.15
303.15
303.15
303.15
303.15
303.15
303.15
303.15
303.15
303.15
303.15
303.15
303.15
303.15
303.15
303.15
303.15
303.15
303.15
303.15
303.15
303.15
303.15
303.15
303.15
303.15
303.15
303.15
303.15
303.15
303.15
303.15
303.15
303.15
303.15
303.15
303.15
303.15
303.15
303.15
303.15
303.15
303.15
303.15
303.15
303.15
303.15
303.15
303.15
303.15
303.15
303.15
303.15
303.15
303.15
303.15
303.15
303.15
303.15
303.15
303.15
303.15
303.15
303.15
303.15
303.15
303.15
303.15
303.15
303.15
303.15
303.15
303.15
303.15
303.15
303.15
303.15
303.15
303.15
303.15
303.15
303.15
303.15
303.15
303.15
303.15
303.15
303.15
303.15
303.15
303.15
303.15
303.15
303.15
303.15
303.15
303.15
303.15
303.15
303.15
303.15
303.15
303.15
303.15
303.15
303.15
303.15
303.15
303.15
303.15
303.15
303.15
303.15
303.15
303.15
303.15
303.15
303.15
303.15
303.15
303.15
303.15
303.15
303.15
303.15
303.15
303.15
303.15
303.15
303.15
303.15
303.15
303.15
303.15
303.15
303.15
303.15
303.15
303.15
303.15
303.15
303.15
303.15
303.15
303.15
303.15
303.15
303.15
303.15
303.15
303.15
303.15
303.15
303.15
303.15
303.15
303.15
303.15
303.15
303.15
303.15
303.15
303.15
303.15
303.15
303.15
303.15
303.15
303.15
303.15
303.15
303.15
303.15
303.15
303.15
303.15
303.15
303.15
303.15
303.15
303.15
303.15
303.15
303.15
303.15
303.15
303.15
303.15
303.15
303.15
303.15
303.15
303.15
303.15
303.15
303.15
303.15
303.15
303.15
303.15
303.15
303.15
303.15
303.15
303.15
303.15
303.15
303.15
303.15
303.15
303.15
303.15
303.15
303.15
303.15
303.15
303.15
303.15
303.15
303.15
303.15
303.15
303.15
303.15
303.15
303.15
303.15
303.15
303.15
303.15
303.15
303.15
303.15
303.15
303.15
303.15
303.15
303.15
303.15
303.15
303.15
303.15
303.15
303.15
303.15
303.15
303.15
303.15
303.15
303.15
303.15
303.15
303.15
303.15
303.15
303.15
303.15
303.15
303.15
303.15
303.15
303.15
303.15
303.15
303.15
303.15
303.15
303.15
303.15
303.15
303.15
303.15
303.15
303.15
303.15
303.15
303.15
303.15
303.15
303.15
303.15
303.15
303.15
303.15
303.15
303.15
303.15
303.15
303.15
303.15
303.15
303.15
303.15
303.15
303.15
303.15
303.15
303.15
303.15
303.15
303.15
303.15
303.15
303.15
303.15
303.15
303.15
303.15
303.15
303.15
303.15
303.15
303.15
303.15
303.15
303.15
303.15
303.15
303.15
303.15
303.15
303.15
303.15
303.15
303.15
303.15
303.15
303.15
303.15
303.15
303.15
303.15
303.149
303.149
303.149
303.149
303.149
303.149
303.149
303.149
303.149
303.15
303.15
303.15
303.15
303.15
303.15
303.15
303.15
303.15
303.15
303.149
303.149
303.149
303.149
303.149
303.149
303.149
303.149
303.148
303.148
303.148
303.148
303.148
303.148
303.148
303.147
303.147
303.147
303.147
303.147
303.147
303.146
303.146
303.146
303.146
303.146
303.145
303.145
303.145
303.145
303.145
303.144
303.144
303.144
303.143
303.143
303.143
303.142
303.142
303.141
303.149
303.148
303.146
303.145
303.144
303.142
303.141
303.14
303.139
303.138
303.136
303.135
303.134
303.133
303.132
303.131
303.13
303.128
303.127
303.126
303.125
303.124
303.123
303.122
303.121
303.12
303.119
303.118
303.117
303.116
303.115
303.114
303.113
303.112
303.112
303.111
303.11
303.109
303.108
303.107
303.106
303.105
303.104
303.104
303.103
303.102
303.101
303.1
303.099
303.098
295.971
296.04
296.09
296.096
296.093
296.085
296.082
296.078
296.078
296.077
296.079
296.08
296.081
296.084
296.088
296.092
296.095
296.085
296.034
295.928
296.142
296.21
296.26
296.267
296.263
296.256
296.252
296.248
296.248
296.247
296.249
296.25
296.251
296.254
296.258
296.262
296.266
296.255
296.204
296.099
296.317
296.385
296.435
296.442
296.438
296.431
296.427
296.423
296.422
296.422
296.424
296.425
296.426
296.429
296.433
296.437
296.441
296.43
296.379
296.274
296.497
296.564
296.615
296.621
296.617
296.61
296.606
296.602
296.601
296.601
296.603
296.604
296.605
296.607
296.612
296.616
296.62
296.609
296.558
296.454
296.68
296.747
296.798
296.805
296.801
296.793
296.789
296.784
296.784
296.784
296.786
296.786
296.788
296.79
296.795
296.799
296.803
296.792
296.741
296.637
296.868
296.934
296.985
296.991
296.987
296.979
296.975
296.971
296.971
296.97
296.972
296.973
296.974
296.977
296.981
296.986
296.989
296.979
296.928
296.824
297.058
297.124
297.175
297.182
297.177
297.169
297.165
297.161
297.16
297.16
297.162
297.162
297.164
297.166
297.171
297.176
297.179
297.169
297.117
297.015
297.251
297.317
297.368
297.374
297.37
297.362
297.358
297.353
297.353
297.352
297.354
297.355
297.356
297.359
297.363
297.368
297.372
297.362
297.31
297.208
297.447
297.512
297.564
297.57
297.565
297.557
297.553
297.548
297.548
297.547
297.549
297.55
297.551
297.554
297.558
297.563
297.567
297.557
297.505
297.403
297.645
297.709
297.761
297.767
297.763
297.754
297.75
297.745
297.744
297.744
297.746
297.747
297.748
297.751
297.755
297.76
297.764
297.754
297.703
297.601
297.844
297.908
297.96
297.966
297.961
297.952
297.948
297.943
297.943
297.942
297.944
297.945
297.946
297.949
297.953
297.958
297.962
297.952
297.901
297.8
298.044
298.108
298.159
298.165
298.161
298.152
298.147
298.143
298.142
298.142
298.143
298.144
298.145
298.148
298.153
298.158
298.162
298.152
298.101
298
298.244
298.308
298.36
298.365
298.361
298.352
298.347
298.343
298.342
298.341
298.343
298.344
298.345
298.348
298.352
298.358
298.362
298.352
298.301
298.201
298.445
298.509
298.56
298.565
298.561
298.552
298.547
298.542
298.542
298.541
298.543
298.544
298.545
298.547
298.552
298.557
298.561
298.552
298.501
298.402
298.644
298.708
298.759
298.764
298.76
298.751
298.747
298.742
298.741
298.741
298.742
298.743
298.744
298.747
298.751
298.757
298.761
298.751
298.701
298.602
298.843
298.907
298.958
298.963
298.958
298.949
298.945
298.94
298.94
298.939
298.941
298.941
298.942
298.945
298.95
298.955
298.959
298.949
298.9
298.801
299.04
299.105
299.155
299.16
299.155
299.146
299.142
299.137
299.136
299.136
299.137
299.138
299.139
299.142
299.146
299.152
299.156
299.146
299.097
298.999
299.236
299.3
299.35
299.354
299.35
299.341
299.337
299.332
299.331
299.331
299.332
299.333
299.334
299.337
299.341
299.346
299.35
299.341
299.292
299.194
299.428
299.493
299.542
299.547
299.542
299.534
299.529
299.524
299.524
299.523
299.525
299.525
299.526
299.529
299.533
299.539
299.542
299.533
299.485
299.388
299.618
299.683
299.731
299.736
299.732
299.723
299.719
299.714
299.713
299.712
299.714
299.714
299.716
299.718
299.723
299.728
299.732
299.723
299.675
299.578
299.804
299.87
299.917
299.922
299.917
299.909
299.905
299.9
299.899
299.899
299.9
299.9
299.902
299.904
299.909
299.914
299.917
299.909
299.861
299.764
299.987
300.052
300.1
300.104
300.099
300.091
300.087
300.082
300.082
300.081
300.082
300.083
300.084
300.086
300.091
300.096
300.099
300.091
300.044
299.947
300.165
300.231
300.277
300.281
300.277
300.269
300.265
300.261
300.26
300.259
300.26
300.261
300.262
300.264
300.269
300.273
300.277
300.268
300.222
300.126
300.338
300.405
300.451
300.455
300.45
300.443
300.439
300.434
300.433
300.432
300.434
300.434
300.435
300.438
300.442
300.447
300.45
300.442
300.396
300.3
300.507
300.574
300.619
300.623
300.619
300.611
300.607
300.603
300.602
300.601
300.602
300.603
300.604
300.606
300.61
300.615
300.618
300.61
300.565
300.469
300.67
300.738
300.782
300.786
300.782
300.774
300.77
300.766
300.765
300.765
300.766
300.766
300.767
300.769
300.773
300.778
300.781
300.773
300.729
300.633
300.827
300.896
300.939
300.943
300.939
300.932
300.928
300.924
300.923
300.922
300.923
300.924
300.925
300.927
300.931
300.935
300.938
300.93
300.887
300.791
300.979
301.048
301.091
301.094
301.091
301.084
301.08
301.076
301.075
301.075
301.076
301.076
301.077
301.079
301.083
301.087
301.09
301.082
301.039
300.944
301.125
301.195
301.236
301.24
301.236
301.23
301.226
301.222
301.222
301.221
301.222
301.222
301.223
301.225
301.229
301.233
301.236
301.228
301.185
301.09
301.265
301.335
301.376
301.379
301.376
301.369
301.366
301.362
301.362
301.361
301.362
301.362
301.363
301.365
301.368
301.372
301.375
301.367
301.325
301.231
301.398
301.469
301.509
301.513
301.509
301.503
301.5
301.496
301.496
301.495
301.496
301.496
301.497
301.499
301.502
301.506
301.508
301.501
301.459
301.365
301.525
301.597
301.636
301.639
301.636
301.63
301.627
301.624
301.623
301.622
301.623
301.623
301.624
301.626
301.629
301.633
301.635
301.628
301.587
301.492
301.645
301.718
301.757
301.76
301.757
301.751
301.748
301.745
301.744
301.744
301.744
301.745
301.745
301.747
301.75
301.754
301.756
301.748
301.708
301.614
301.76
301.833
301.871
301.874
301.871
301.866
301.863
301.86
301.859
301.858
301.859
301.859
301.86
301.862
301.865
301.868
301.87
301.863
301.823
301.728
301.867
301.942
301.978
301.981
301.979
301.974
301.971
301.968
301.967
301.967
301.967
301.968
301.968
301.97
301.973
301.976
301.978
301.97
301.931
301.837
301.969
302.044
302.08
302.083
302.08
302.075
302.073
302.07
302.07
302.069
302.069
302.07
302.07
302.072
302.074
302.077
302.079
302.072
302.033
301.939
302.064
302.14
302.175
302.178
302.175
302.171
302.169
302.166
302.165
302.165
302.165
302.165
302.166
302.168
302.17
302.173
302.174
302.167
302.129
302.035
302.153
302.229
302.264
302.267
302.265
302.26
302.258
302.256
302.255
302.255
302.255
302.255
302.256
302.257
302.259
302.262
302.263
302.256
302.219
302.124
302.236
302.313
302.347
302.35
302.348
302.344
302.342
302.339
302.339
302.338
302.339
302.339
302.339
302.341
302.343
302.345
302.346
302.339
302.302
302.208
302.313
302.391
302.424
302.427
302.425
302.421
302.419
302.417
302.417
302.416
302.417
302.417
302.417
302.418
302.42
302.423
302.424
302.417
302.38
302.286
302.385
302.463
302.495
302.498
302.497
302.493
302.491
302.489
302.489
302.488
302.489
302.489
302.489
302.49
302.492
302.494
302.495
302.488
302.452
302.358
302.451
302.53
302.561
302.564
302.563
302.56
302.558
302.556
302.556
302.555
302.555
302.556
302.556
302.557
302.559
302.561
302.561
302.555
302.519
302.425
302.512
302.591
302.622
302.625
302.624
302.621
302.619
302.618
302.617
302.617
302.617
302.617
302.617
302.618
302.62
302.622
302.622
302.616
302.58
302.486
302.568
302.648
302.678
302.681
302.68
302.677
302.676
302.674
302.674
302.673
302.673
302.674
302.674
302.675
302.676
302.678
302.678
302.672
302.637
302.542
302.619
302.699
302.729
302.732
302.731
302.729
302.727
302.726
302.725
302.725
302.725
302.725
302.726
302.727
302.728
302.729
302.73
302.723
302.688
302.594
302.666
302.747
302.776
302.779
302.778
302.776
302.774
302.773
302.773
302.772
302.772
302.773
302.773
302.774
302.775
302.776
302.776
302.77
302.736
302.641
302.709
302.79
302.818
302.821
302.82
302.818
302.817
302.816
302.816
302.815
302.815
302.815
302.816
302.817
302.818
302.819
302.819
302.812
302.778
302.684
302.747
302.828
302.857
302.86
302.859
302.857
302.856
302.855
302.855
302.854
302.854
302.854
302.855
302.855
302.856
302.857
302.857
302.851
302.817
302.723
302.782
302.864
302.891
302.894
302.894
302.892
302.891
302.89
302.89
302.89
302.89
302.89
302.89
302.891
302.891
302.892
302.892
302.886
302.853
302.759
302.814
302.895
302.922
302.926
302.925
302.924
302.923
302.922
302.922
302.921
302.921
302.921
302.922
302.922
302.923
302.924
302.924
302.917
302.884
302.79
302.842
302.924
302.95
302.954
302.953
302.952
302.951
302.95
302.95
302.95
302.95
302.95
302.95
302.951
302.951
302.952
302.952
302.945
302.913
302.819
302.867
302.949
302.976
302.979
302.978
302.977
302.976
302.976
302.976
302.975
302.975
302.975
302.976
302.976
302.977
302.977
302.977
302.971
302.938
302.845
302.89
302.972
302.998
303.001
303.001
303
302.999
302.998
302.998
302.998
302.998
302.998
302.998
302.999
302.999
303
302.999
302.993
302.961
302.867
302.91
302.992
303.018
303.021
303.021
303.02
303.019
303.019
303.018
303.018
303.018
303.018
303.018
303.019
303.019
303.02
303.019
303.013
302.981
302.888
302.928
303.01
303.035
303.038
303.038
303.037
303.037
303.036
303.036
303.036
303.036
303.036
303.036
303.037
303.037
303.037
303.037
303.031
302.999
302.906
302.944
303.026
303.051
303.054
303.054
303.053
303.053
303.052
303.052
303.052
303.052
303.052
303.052
303.052
303.053
303.053
303.052
303.046
303.015
302.922
302.958
303.04
303.064
303.068
303.068
303.067
303.066
303.066
303.066
303.066
303.066
303.066
303.066
303.066
303.067
303.067
303.066
303.06
303.029
302.936
302.97
303.052
303.076
303.079
303.079
303.079
303.079
303.078
303.078
303.078
303.078
303.078
303.078
303.078
303.079
303.079
303.078
303.072
303.041
302.948
302.981
303.063
303.087
303.09
303.09
303.089
303.089
303.089
303.089
303.089
303.089
303.089
303.089
303.089
303.089
303.089
303.089
303.082
303.052
302.959
302.99
303.072
303.096
303.099
303.099
303.099
303.098
303.098
303.098
303.098
303.098
303.098
303.098
303.098
303.098
303.098
303.098
303.092
303.061
302.969
302.998
303.08
303.104
303.107
303.107
303.106
303.106
303.106
303.106
303.106
303.106
303.106
303.106
303.106
303.106
303.106
303.105
303.099
303.069
302.977
303.005
303.087
303.11
303.113
303.114
303.113
303.113
303.113
303.113
303.113
303.113
303.113
303.113
303.113
303.113
303.113
303.112
303.106
303.076
302.985
303.012
303.093
303.116
303.119
303.119
303.119
303.119
303.119
303.119
303.119
303.119
303.119
303.119
303.119
303.119
303.119
303.118
303.112
303.083
302.991
303.017
303.098
303.121
303.124
303.124
303.124
303.124
303.124
303.124
303.124
303.124
303.124
303.124
303.124
303.124
303.124
303.123
303.117
303.088
302.997
303.022
303.103
303.125
303.128
303.129
303.128
303.128
303.128
303.128
303.128
303.128
303.128
303.128
303.128
303.128
303.128
303.127
303.121
303.092
303.001
303.026
303.107
303.129
303.132
303.132
303.132
303.132
303.132
303.132
303.132
303.132
303.132
303.132
303.132
303.132
303.132
303.131
303.125
303.096
303.006
303.029
303.11
303.132
303.135
303.135
303.135
303.135
303.135
303.135
303.135
303.135
303.135
303.135
303.135
303.135
303.135
303.134
303.128
303.1
303.009
303.032
303.113
303.135
303.138
303.138
303.138
303.138
303.138
303.138
303.138
303.138
303.138
303.138
303.138
303.138
303.138
303.137
303.131
303.102
303.012
303.035
303.115
303.137
303.14
303.14
303.14
303.14
303.14
303.14
303.14
303.14
303.14
303.14
303.14
303.14
303.14
303.139
303.133
303.105
303.015
303.037
303.117
303.139
303.142
303.142
303.142
303.142
303.142
303.142
303.142
303.142
303.142
303.142
303.142
303.142
303.142
303.141
303.135
303.107
303.018
303.039
303.119
303.14
303.143
303.143
303.143
303.143
303.143
303.143
303.143
303.143
303.143
303.143
303.143
303.143
303.143
303.142
303.137
303.109
303.02
303.041
303.12
303.142
303.144
303.145
303.145
303.145
303.144
303.144
303.144
303.144
303.144
303.144
303.144
303.144
303.144
303.143
303.138
303.11
303.022
303.043
303.122
303.143
303.145
303.146
303.146
303.146
303.146
303.146
303.146
303.146
303.146
303.146
303.146
303.146
303.145
303.144
303.139
303.111
303.023
303.044
303.123
303.143
303.146
303.146
303.146
303.146
303.146
303.146
303.146
303.146
303.146
303.146
303.146
303.146
303.146
303.145
303.14
303.113
303.025
303.045
303.124
303.144
303.147
303.147
303.147
303.147
303.147
303.147
303.147
303.147
303.147
303.147
303.147
303.147
303.147
303.146
303.141
303.114
303.026
303.046
303.125
303.145
303.147
303.148
303.148
303.148
303.148
303.148
303.148
303.148
303.148
303.148
303.148
303.148
303.148
303.147
303.141
303.114
303.027
303.047
303.125
303.145
303.148
303.148
303.148
303.148
303.148
303.148
303.148
303.148
303.148
303.148
303.148
303.148
303.148
303.147
303.142
303.115
303.028
303.048
303.126
303.146
303.148
303.149
303.149
303.149
303.149
303.149
303.149
303.149
303.149
303.149
303.149
303.149
303.148
303.147
303.142
303.116
303.03
303.049
303.126
303.146
303.149
303.149
303.149
303.149
303.149
303.149
303.149
303.149
303.149
303.149
303.149
303.149
303.149
303.148
303.143
303.116
303.03
303.05
303.127
303.146
303.149
303.149
303.149
303.149
303.149
303.149
303.149
303.149
303.149
303.149
303.149
303.149
303.149
303.148
303.143
303.117
303.031
303.051
303.127
303.147
303.149
303.149
303.149
303.149
303.149
303.149
303.149
303.149
303.149
303.149
303.149
303.149
303.149
303.148
303.143
303.117
303.032
303.051
303.128
303.147
303.149
303.149
303.149
303.149
303.149
303.149
303.149
303.149
303.149
303.149
303.149
303.149
303.149
303.148
303.143
303.118
303.033
303.052
303.128
303.147
303.149
303.15
303.15
303.15
303.15
303.15
303.15
303.15
303.15
303.15
303.15
303.15
303.149
303.149
303.144
303.118
303.034
303.053
303.128
303.147
303.149
303.15
303.15
303.15
303.15
303.15
303.15
303.15
303.15
303.15
303.15
303.15
303.15
303.149
303.144
303.119
303.035
303.053
303.129
303.147
303.149
303.15
303.15
303.15
303.15
303.15
303.15
303.15
303.15
303.15
303.15
303.15
303.15
303.149
303.144
303.119
303.035
303.054
303.129
303.147
303.15
303.15
303.15
303.15
303.15
303.15
303.15
303.15
303.15
303.15
303.15
303.15
303.15
303.149
303.144
303.119
303.036
303.054
303.129
303.147
303.15
303.15
303.15
303.15
303.15
303.15
303.15
303.15
303.15
303.15
303.15
303.15
303.15
303.149
303.144
303.12
303.037
303.055
303.129
303.147
303.15
303.15
303.15
303.15
303.15
303.15
303.15
303.15
303.15
303.15
303.15
303.15
303.15
303.149
303.144
303.12
303.038
303.056
303.13
303.147
303.15
303.15
303.15
303.15
303.15
303.15
303.15
303.15
303.15
303.15
303.15
303.15
303.15
303.149
303.144
303.12
303.038
303.056
303.13
303.148
303.15
303.15
303.15
303.15
303.15
303.15
303.15
303.15
303.15
303.15
303.15
303.15
303.15
303.149
303.144
303.12
303.039
303.057
303.13
303.148
303.15
303.15
303.15
303.15
303.15
303.15
303.15
303.15
303.15
303.15
303.15
303.15