/*--------------------------------*- C++ -*----------------------------------*\
  =========                 |
  \\      /  F ield         | OpenFOAM: The Open Source CFD Toolbox
   \\    /   O peration     | Website:  https://openfoam.org
    \\  /    A nd           | Version:  8
     \\/     M anipulation  |
\*---------------------------------------------------------------------------*/
FoamFile
{
    version     2.0;
    format      ascii;
    class       volVectorField;
    location    "200";
    object      U;
}
// * * * * * * * * * * * * * * * * * * * * * * * * * * * * * * * * * * * * * //

dimensions      [0 1 -1 0 0 0 0];

internalField   nonuniform List<vector> 
8400
(
(-47.0969 -0.503138 1.42666e-16)
(-46.7603 -0.513165 1.37811e-16)
(-46.5084 -0.523897 1.32879e-16)
(-46.2574 -0.534218 1.27693e-16)
(-46.0152 -0.543912 1.23226e-16)
(-45.7829 -0.553061 1.19402e-16)
(-45.5616 -0.56183 1.15312e-16)
(-45.352 -0.570394 1.11285e-16)
(-45.1543 -0.578909 1.07313e-16)
(-44.9687 -0.587509 1.00393e-16)
(-44.7947 -0.596299 9.6009e-17)
(-44.632 -0.60536 9.49678e-17)
(-44.48 -0.614745 9.16476e-17)
(-44.338 -0.624493 8.83484e-17)
(-44.2055 -0.63463 8.51119e-17)
(-44.0815 -0.645177 8.18424e-17)
(-43.9655 -0.656157 7.96332e-17)
(-43.8567 -0.667596 7.81788e-17)
(-43.7545 -0.679514 7.63364e-17)
(-43.6582 -0.691936 7.46579e-17)
(-43.5672 -0.70489 7.32735e-17)
(-43.481 -0.718407 7.21732e-17)
(-43.399 -0.73252 7.11468e-17)
(-43.3205 -0.747265 7.00251e-17)
(-43.2451 -0.76268 6.89252e-17)
(-43.1721 -0.778812 6.78408e-17)
(-43.1011 -0.795722 6.69094e-17)
(-43.0316 -0.813475 6.52558e-17)
(-42.9632 -0.832141 6.31189e-17)
(-42.8954 -0.851801 6.16502e-17)
(-42.8276 -0.872546 6.03358e-17)
(-42.7596 -0.894481 5.9111e-17)
(-42.6907 -0.917726 5.80832e-17)
(-42.6206 -0.942423 5.62583e-17)
(-42.5487 -0.968732 5.38563e-17)
(-42.4746 -0.996839 5.18095e-17)
(-42.3975 -1.02696 4.96823e-17)
(-42.3169 -1.05937 4.7451e-17)
(-42.2321 -1.09439 4.50755e-17)
(-42.1422 -1.13242 4.26848e-17)
(-42.0462 -1.17398 3.98851e-17)
(-41.9428 -1.21973 3.91234e-17)
(-41.8305 -1.27054 3.56023e-17)
(-41.7069 -1.32758 2.87218e-17)
(-41.5691 -1.39252 2.35647e-17)
(-41.4137 -1.46773 1.78966e-17)
(-41.237 -1.55653 1.37749e-17)
(-41.0294 -1.66353 6.81473e-18)
(-40.7641 -1.7975 -6.67001e-18)
(-40.4089 -1.97796 -2.15464e-17)
(-47.6106 -0.0412727 1.02896e-15)
(-47.3009 -0.026011 1.04262e-15)
(-47.0644 -0.00553701 1.05585e-15)
(-46.8277 0.0190822 1.06835e-15)
(-46.5997 0.0468404 1.08142e-15)
(-46.3816 0.0768618 1.09531e-15)
(-46.1745 0.108341 1.10812e-15)
(-45.979 0.140575 1.12062e-15)
(-45.7952 0.172987 1.13247e-15)
(-45.623 0.205125 1.1428e-15)
(-45.462 0.236659 1.1534e-15)
(-45.3117 0.267364 1.16462e-15)
(-45.1717 0.297106 1.17498e-15)
(-45.041 0.32582 1.18519e-15)
(-44.9192 0.353485 1.19521e-15)
(-44.8054 0.380112 1.2042e-15)
(-44.699 0.40573 1.21399e-15)
(-44.5994 0.430381 1.2247e-15)
(-44.5059 0.454121 1.23467e-15)
(-44.418 0.477012 1.24461e-15)
(-44.335 0.499123 1.25458e-15)
(-44.2564 0.520525 1.26461e-15)
(-44.1818 0.541296 1.27582e-15)
(-44.1105 0.561514 1.28672e-15)
(-44.042 0.581259 1.30245e-15)
(-43.976 0.600604 1.31669e-15)
(-43.9119 0.61962 1.33236e-15)
(-43.8494 0.638376 1.34751e-15)
(-43.788 0.656948 1.36106e-15)
(-43.7273 0.675413 1.3759e-15)
(-43.667 0.69385 1.39106e-15)
(-43.6067 0.712332 1.40437e-15)
(-43.5461 0.730928 1.41579e-15)
(-43.4847 0.749705 1.42587e-15)
(-43.4221 0.768735 1.43505e-15)
(-43.3581 0.788084 1.44403e-15)
(-43.292 0.807815 1.45302e-15)
(-43.2236 0.827974 1.46209e-15)
(-43.1522 0.848573 1.47235e-15)
(-43.0773 0.869577 1.48182e-15)
(-42.9984 0.890886 1.49045e-15)
(-42.9146 0.9123 1.50136e-15)
(-42.8249 0.933478 1.51209e-15)
(-42.728 0.953827 1.5221e-15)
(-42.6225 0.972297 1.53427e-15)
(-42.5067 0.987139 1.54636e-15)
(-42.3796 0.995915 1.55774e-15)
(-42.2374 0.99514 1.57113e-15)
(-42.0691 0.976183 1.58492e-15)
(-41.8607 0.915362 1.59949e-15)
(-46.4541 -0.938846 5.7247e-16)
(-46.1112 -0.944706 5.78688e-16)
(-45.8594 -0.94499 5.84943e-16)
(-45.61 -0.939893 5.902e-16)
(-45.3706 -0.930426 5.96397e-16)
(-45.1421 -0.917813 6.03899e-16)
(-44.9254 -0.903247 6.10569e-16)
(-44.7207 -0.887766 6.17027e-16)
(-44.5281 -0.872205 6.23194e-16)
(-44.3474 -0.857195 6.2807e-16)
(-44.178 -0.843184 6.33114e-16)
(-44.0193 -0.830467 6.38835e-16)
(-43.8708 -0.819219 6.43753e-16)
(-43.7316 -0.809536 6.48244e-16)
(-43.6011 -0.801461 6.52294e-16)
(-43.4786 -0.795005 6.5588e-16)
(-43.3632 -0.790151 6.59397e-16)
(-43.2544 -0.786872 6.62953e-16)
(-43.1515 -0.785126 6.66242e-16)
(-43.054 -0.784876 6.69192e-16)
(-42.9613 -0.786077 6.71863e-16)
(-42.8728 -0.788689 6.74395e-16)
(-42.7879 -0.792673 6.77008e-16)
(-42.7062 -0.797997 6.79966e-16)
(-42.6271 -0.804645 6.83504e-16)
(-42.5502 -0.812608 6.8763e-16)
(-42.475 -0.82189 6.93187e-16)
(-42.401 -0.832497 6.98203e-16)
(-42.3279 -0.844438 7.02148e-16)
(-42.2553 -0.857728 7.07486e-16)
(-42.1826 -0.872394 7.13727e-16)
(-42.1096 -0.888483 7.20499e-16)
(-42.0358 -0.906055 7.27408e-16)
(-41.9609 -0.925182 7.33994e-16)
(-41.8844 -0.945947 7.40225e-16)
(-41.8057 -0.96845 7.46484e-16)
(-41.7245 -0.992818 7.52907e-16)
(-41.6403 -1.01922 7.59548e-16)
(-41.5523 -1.04787 7.66411e-16)
(-41.4602 -1.07908 7.73743e-16)
(-41.363 -1.11324 7.81316e-16)
(-41.26 -1.15086 7.90269e-16)
(-41.1501 -1.1926 7.98816e-16)
(-41.032 -1.23936 8.06565e-16)
(-40.9042 -1.2924 8.1589e-16)
(-40.7653 -1.35346 8.2635e-16)
(-40.6139 -1.42458 8.37759e-16)
(-40.4478 -1.50818 8.50161e-16)
(-40.2623 -1.60927 8.6382e-16)
(-40.0549 -1.7405 8.78047e-16)
(-45.2559 -0.641351 1.93218e-16)
(-44.9388 -0.622082 1.95293e-16)
(-44.6953 -0.591784 1.97337e-16)
(-44.4523 -0.552249 1.9815e-16)
(-44.2196 -0.505651 1.99744e-16)
(-43.9987 -0.454243 2.02487e-16)
(-43.7903 -0.400074 2.04375e-16)
(-43.5946 -0.344832 2.06125e-16)
(-43.4111 -0.289823 2.07765e-16)
(-43.2395 -0.235995 2.08229e-16)
(-43.0791 -0.183994 2.09206e-16)
(-42.929 -0.134237 2.11169e-16)
(-42.7886 -0.0869657 2.12351e-16)
(-42.6571 -0.0423021 2.13314e-16)
(-42.5336 -0.00029114 2.14092e-16)
(-42.4176 0.0390821 2.14723e-16)
(-42.3084 0.0758667 2.15173e-16)
(-42.2052 0.110142 2.15598e-16)
(-42.1075 0.142006 2.16035e-16)
(-42.0147 0.171565 2.16268e-16)
(-41.9264 0.198928 2.16369e-16)
(-41.8419 0.224208 2.16388e-16)
(-41.7609 0.247513 2.1644e-16)
(-41.6829 0.268942 2.16531e-16)
(-41.6073 0.288585 2.16628e-16)
(-41.5338 0.306515 2.16737e-16)
(-41.4621 0.322802 2.18032e-16)
(-41.3916 0.33751 2.18647e-16)
(-41.3221 0.350701 2.1806e-16)
(-41.2532 0.362422 2.1832e-16)
(-41.1847 0.372702 2.18893e-16)
(-41.1161 0.38155 2.19732e-16)
(-41.0473 0.388959 2.21922e-16)
(-40.9778 0.394903 2.23438e-16)
(-40.9074 0.399339 2.23711e-16)
(-40.8358 0.402189 2.24737e-16)
(-40.7626 0.403321 2.25877e-16)
(-40.6874 0.402534 2.27063e-16)
(-40.61 0.399531 2.28291e-16)
(-40.5299 0.393899 2.29388e-16)
(-40.4469 0.385075 2.30445e-16)
(-40.3603 0.372309 2.3286e-16)
(-40.2696 0.354608 2.34525e-16)
(-40.1741 0.330645 2.34914e-16)
(-40.0729 0.298649 2.37486e-16)
(-39.9653 0.256369 2.38892e-16)
(-39.8507 0.201154 2.40418e-16)
(-39.728 0.12988 2.4226e-16)
(-39.5955 0.0380553 2.42553e-16)
(-39.4525 -0.0810693 2.45089e-16)
(-43.3477 -1.36067 1.07623e-16)
(-43.0029 -1.36187 1.10901e-16)
(-42.7518 -1.34828 1.14187e-16)
(-42.5055 -1.32297 1.17448e-16)
(-42.2721 -1.28917 1.20658e-16)
(-42.052 -1.25002 1.23986e-16)
(-41.8455 -1.20812 1.27376e-16)
(-41.6521 -1.1655 1.30602e-16)
(-41.4711 -1.12361 1.33678e-16)
(-41.3016 -1.08343 1.36628e-16)
(-41.1428 -1.04556 1.39467e-16)
(-40.9937 -1.01036 1.42341e-16)
(-40.8536 -0.977996 1.45215e-16)
(-40.7216 -0.948529 1.47886e-16)
(-40.5969 -0.92194 1.50369e-16)
(-40.4789 -0.898161 1.51463e-16)
(-40.3669 -0.877095 1.53497e-16)
(-40.2603 -0.858629 1.56797e-16)
(-40.1585 -0.842644 1.59038e-16)
(-40.061 -0.82901 1.6111e-16)
(-39.9674 -0.817603 1.63063e-16)
(-39.8771 -0.808303 1.64935e-16)
(-39.7898 -0.801 1.66835e-16)
(-39.7049 -0.795601 1.68768e-16)
(-39.6222 -0.792026 1.70711e-16)
(-39.5411 -0.790206 1.72675e-16)
(-39.4614 -0.790079 1.759e-16)
(-39.3827 -0.791588 1.78377e-16)
(-39.3047 -0.794684 1.79544e-16)
(-39.227 -0.799331 1.81498e-16)
(-39.1495 -0.805513 1.83638e-16)
(-39.0717 -0.813222 1.86005e-16)
(-38.9935 -0.82246 1.89275e-16)
(-38.9145 -0.833236 1.91926e-16)
(-38.8345 -0.845573 1.93691e-16)
(-38.7532 -0.859519 1.96078e-16)
(-38.6702 -0.87517 1.98612e-16)
(-38.5854 -0.892683 2.01268e-16)
(-38.4985 -0.91229 2.03974e-16)
(-38.4093 -0.934322 2.06879e-16)
(-38.3174 -0.959242 2.0969e-16)
(-38.2228 -0.987694 2.12965e-16)
(-38.125 -1.02057 2.1578e-16)
(-38.0239 -1.0591 2.17784e-16)
(-37.919 -1.10498 2.20299e-16)
(-37.8104 -1.16045 2.23198e-16)
(-37.698 -1.22836 2.2689e-16)
(-37.5822 -1.31239 2.29945e-16)
(-37.4627 -1.41771 2.30891e-16)
(-37.3394 -1.55143 2.33304e-16)
(-40.7297 -1.24872 1.671e-17)
(-40.4123 -1.22756 1.90545e-17)
(-40.1721 -1.18467 2.15332e-17)
(-39.9367 -1.12565 2.30371e-17)
(-39.7158 -1.05575 2.52263e-17)
(-39.51 -0.979714 2.86251e-17)
(-39.3186 -0.901225 3.13887e-17)
(-39.1405 -0.822921 3.40269e-17)
(-38.9746 -0.746568 3.65361e-17)
(-38.8195 -0.673284 3.83309e-17)
(-38.6742 -0.603737 4.05075e-17)
(-38.5375 -0.538284 4.3416e-17)
(-38.4087 -0.477084 4.59203e-17)
(-38.2868 -0.420177 4.82615e-17)
(-38.1713 -0.36751 5.04497e-17)
(-38.0614 -0.318988 5.18772e-17)
(-37.9566 -0.274476 5.37031e-17)
(-37.8563 -0.233826 5.62651e-17)
(-37.7601 -0.196882 5.84001e-17)
(-37.6675 -0.16348 6.03781e-17)
(-37.5782 -0.133452 6.22595e-17)
(-37.4917 -0.10664 6.40893e-17)
(-37.4077 -0.0828949 6.59214e-17)
(-37.3259 -0.0620832 6.7768e-17)
(-37.2459 -0.044088 6.96383e-17)
(-37.1674 -0.0288027 7.15832e-17)
(-37.0902 -0.0161291 7.42763e-17)
(-37.014 -0.00598138 7.65022e-17)
(-36.9385 0.0017087 7.79186e-17)
(-36.8635 0.00699114 7.97592e-17)
(-36.7889 0.00989798 8.1753e-17)
(-36.7145 0.0104479 8.39181e-17)
(-36.64 0.0086522 8.69201e-17)
(-36.5652 0.00450809 8.94969e-17)
(-36.49 -0.00201666 9.12918e-17)
(-36.4141 -0.010994 9.35903e-17)
(-36.3374 -0.0225451 9.61143e-17)
(-36.2598 -0.0368544 9.88372e-17)
(-36.1812 -0.0541807 1.02503e-16)
(-36.1016 -0.0748715 1.05629e-16)
(-36.0208 -0.0993844 1.08262e-16)
(-35.9388 -0.12832 1.1262e-16)
(-35.8558 -0.162467 1.1641e-16)
(-35.7717 -0.202844 1.19434e-16)
(-35.6868 -0.250744 1.24032e-16)
(-35.6015 -0.307767 1.2825e-16)
(-35.5166 -0.375781 1.32846e-16)
(-35.4335 -0.456977 1.37996e-16)
(-35.3536 -0.554166 1.42673e-16)
(-35.2777 -0.671211 1.48123e-16)
(-37.2155 -1.78794 -4.16033e-17)
(-36.8914 -1.78252 -4.19608e-17)
(-36.6609 -1.747 -4.22816e-17)
(-36.4417 -1.69189 -4.3089e-17)
(-36.2412 -1.62531 -4.33828e-17)
(-36.0576 -1.55354 -4.28945e-17)
(-35.8888 -1.48085 -4.26454e-17)
(-35.7328 -1.40986 -4.24644e-17)
(-35.5876 -1.34212 -4.23502e-17)
(-35.4516 -1.27842 -4.28764e-17)
(-35.3234 -1.21913 -4.30022e-17)
(-35.2021 -1.16434 -4.2326e-17)
(-35.0867 -1.11401 -4.19393e-17)
(-34.9766 -1.06799 -4.16633e-17)
(-34.8711 -1.0261 -4.14888e-17)
(-34.7697 -0.988118 -4.19858e-17)
(-34.672 -0.953842 -4.20697e-17)
(-34.5776 -0.923055 -4.13492e-17)
(-34.4861 -0.89555 -4.09332e-17)
(-34.3971 -0.871126 -4.06213e-17)
(-34.3105 -0.849592 -4.03582e-17)
(-34.2259 -0.830766 -4.01075e-17)
(-34.1431 -0.814486 -3.98449e-17)
(-34.0619 -0.800609 -3.95614e-17)
(-33.982 -0.789009 -3.92531e-17)
(-33.9033 -0.779575 -3.88713e-17)
(-33.8255 -0.772208 -3.71607e-17)
(-33.7485 -0.766827 -3.62323e-17)
(-33.6722 -0.763371 -3.66788e-17)
(-33.5964 -0.761796 -3.63343e-17)
(-33.521 -0.762072 -3.58505e-17)
(-33.4458 -0.76417 -3.52297e-17)
(-33.3709 -0.768072 -3.38229e-17)
(-33.296 -0.773775 -3.28556e-17)
(-33.221 -0.781311 -3.27538e-17)
(-33.1458 -0.790751 -3.22647e-17)
(-33.0705 -0.802219 -3.16045e-17)
(-32.9949 -0.815895 -3.07768e-17)
(-32.9192 -0.832039 -2.98321e-17)
(-32.8434 -0.85101 -2.87556e-17)
(-32.7676 -0.873299 -2.72787e-17)
(-32.6921 -0.899564 -2.50912e-17)
(-32.6172 -0.930685 -2.35545e-17)
(-32.5432 -0.967822 -2.24376e-17)
(-32.4707 -1.01246 -2.0903e-17)
(-32.4004 -1.06646 -1.93562e-17)
(-32.3334 -1.13205 -1.66625e-17)
(-32.2714 -1.21179 -1.42231e-17)
(-32.2165 -1.30865 -1.29844e-17)
(-32.1699 -1.4265 -1.12087e-17)
(-32.5418 -1.81193 -4.59733e-17)
(-32.2574 -1.78397 -4.80542e-17)
(-32.0578 -1.71519 -5.01762e-17)
(-31.8749 -1.62342 -5.27977e-17)
(-31.7144 -1.52082 -5.5032e-17)
(-31.5721 -1.41552 -5.64625e-17)
(-31.4443 -1.31219 -5.79753e-17)
(-31.3274 -1.21329 -5.95357e-17)
(-31.219 -1.11996 -6.1143e-17)
(-31.117 -1.03266 -6.27994e-17)
(-31.0203 -0.951473 -6.43397e-17)
(-30.9279 -0.876304 -6.55103e-17)
(-30.8389 -0.806975 -6.64712e-17)
(-30.753 -0.743262 -6.74938e-17)
(-30.6697 -0.68493 -6.8567e-17)
(-30.5887 -0.631732 -7.02453e-17)
(-30.5096 -0.583431 -7.14874e-17)
(-30.4322 -0.539797 -7.18679e-17)
(-30.3565 -0.500602 -7.2435e-17)
(-30.2821 -0.465627 -7.307e-17)
(-30.2091 -0.434656 -7.37109e-17)
(-30.1373 -0.407483 -7.43271e-17)
(-30.0665 -0.383916 -7.49065e-17)
(-29.9967 -0.36378 -7.5442e-17)
(-29.9279 -0.346913 -7.59243e-17)
(-29.8598 -0.333167 -7.63002e-17)
(-29.7925 -0.322413 -7.59497e-17)
(-29.726 -0.314536 -7.59574e-17)
(-29.66 -0.309443 -7.67692e-17)
(-29.5948 -0.307051 -7.72876e-17)
(-29.5301 -0.30728 -7.76436e-17)
(-29.466 -0.310049 -7.78391e-17)
(-29.4025 -0.315288 -7.72462e-17)
(-29.3394 -0.322946 -7.699e-17)
(-29.2768 -0.332993 -7.75918e-17)
(-29.2147 -0.345432 -7.79382e-17)
(-29.1531 -0.360299 -7.81303e-17)
(-29.0921 -0.37767 -7.82066e-17)
(-29.0319 -0.397666 -7.81648e-17)
(-28.9727 -0.420466 -7.70214e-17)
(-28.9148 -0.446337 -7.66759e-17)
(-28.8586 -0.475664 -7.66013e-17)
(-28.8047 -0.508982 -7.53862e-17)
(-28.7537 -0.547015 -7.5712e-17)
(-28.7067 -0.590727 -7.63639e-17)
(-28.6648 -0.641358 -7.58156e-17)
(-28.6296 -0.700448 -7.45748e-17)
(-28.6034 -0.76974 -7.33116e-17)
(-28.5893 -0.851238 -7.36281e-17)
(-28.5893 -0.947759 -7.42648e-17)
(-26.6189 -2.18548 -2.27094e-17)
(-26.3513 -2.15521 -2.5001e-17)
(-26.1917 -2.07159 -2.74425e-17)
(-26.0615 -1.96611 -3.00027e-17)
(-25.959 -1.85536 -3.27127e-17)
(-25.8753 -1.74793 -3.50744e-17)
(-25.8037 -1.64728 -3.71082e-17)
(-25.7397 -1.55439 -3.92773e-17)
(-25.6804 -1.46919 -4.1561e-17)
(-25.6239 -1.39126 -4.44652e-17)
(-25.569 -1.32004 -4.70403e-17)
(-25.5152 -1.25501 -4.87577e-17)
(-25.4619 -1.19569 -5.05814e-17)
(-25.4089 -1.14163 -5.25327e-17)
(-25.356 -1.09245 -5.45987e-17)
(-25.3031 -1.0478 -5.7315e-17)
(-25.2502 -1.00735 -5.96701e-17)
(-25.1973 -0.970806 -6.11301e-17)
(-25.1443 -0.937905 -6.27095e-17)
(-25.0914 -0.908393 -6.44006e-17)
(-25.0385 -0.882036 -6.61234e-17)
(-24.9858 -0.858622 -6.78365e-17)
(-24.9332 -0.837956 -6.95273e-17)
(-24.8809 -0.819871 -7.12035e-17)
(-24.8289 -0.804221 -7.28536e-17)
(-24.7773 -0.790884 -7.4403e-17)
(-24.7262 -0.779761 -7.52143e-17)
(-24.6755 -0.770778 -7.62845e-17)
(-24.6254 -0.763877 -7.8212e-17)
(-24.5761 -0.759016 -7.99719e-17)
(-24.5274 -0.756158 -8.15384e-17)
(-24.4795 -0.755275 -8.29131e-17)
(-24.4325 -0.756349 -8.34843e-17)
(-24.3863 -0.759384 -8.43493e-17)
(-24.3411 -0.764414 -8.60909e-17)
(-24.2969 -0.771501 -8.7602e-17)
(-24.2538 -0.780737 -8.89084e-17)
(-24.2121 -0.792242 -9.00606e-17)
(-24.1719 -0.806178 -9.03161e-17)
(-24.1337 -0.822753 -9.08769e-17)
(-24.0977 -0.842236 -9.19629e-17)
(-24.0646 -0.865 -9.15579e-17)
(-24.0349 -0.891553 -9.13099e-17)
(-24.0098 -0.922561 -9.18329e-17)
(-23.9902 -0.958884 -9.1008e-17)
(-23.9778 -1.00163 -9.03288e-17)
(-23.9742 -1.05221 -8.90841e-17)
(-23.9821 -1.11227 -8.69526e-17)
(-24.0054 -1.1836 -8.52692e-17)
(-24.0472 -1.26871 -8.20792e-17)
(-19.3643 -2.29983 -5.61812e-19)
(-19.1272 -2.21738 -1.55545e-18)
(-19.0198 -2.06985 -2.7196e-18)
(-18.9569 -1.91457 -4.35104e-18)
(-18.9256 -1.76757 -5.86079e-18)
(-18.9113 -1.63415 -6.55378e-18)
(-18.9051 -1.51414 -7.08241e-18)
(-18.9021 -1.40594 -7.86959e-18)
(-18.8995 -1.3079 -8.88038e-18)
(-18.8957 -1.21863 -1.04011e-17)
(-18.8902 -1.1371 -1.188e-17)
(-18.8826 -1.06253 -1.26211e-17)
(-18.8728 -0.994317 -1.32078e-17)
(-18.8607 -0.931993 -1.40513e-17)
(-18.8465 -0.875168 -1.51162e-17)
(-18.8302 -0.823505 -1.70133e-17)
(-18.8121 -0.776707 -1.87103e-17)
(-18.7922 -0.734506 -1.94232e-17)
(-18.7709 -0.696648 -2.02245e-17)
(-18.7482 -0.662895 -2.13051e-17)
(-18.7244 -0.63302 -2.25587e-17)
(-18.6998 -0.60681 -2.39316e-17)
(-18.6745 -0.584063 -2.53987e-17)
(-18.6487 -0.564597 -2.6955e-17)
(-18.6226 -0.54825 -2.86028e-17)
(-18.5966 -0.534874 -3.02743e-17)
(-18.5706 -0.524336 -3.16001e-17)
(-18.5449 -0.516516 -3.30786e-17)
(-18.5196 -0.51131 -3.54343e-17)
(-18.495 -0.508624 -3.81301e-17)
(-18.4711 -0.508365 -4.07599e-17)
(-18.4481 -0.510439 -4.33522e-17)
(-18.4262 -0.514751 -4.55786e-17)
(-18.4053 -0.521215 -4.80348e-17)
(-18.3857 -0.529766 -5.14375e-17)
(-18.3676 -0.540358 -5.52541e-17)
(-18.351 -0.552958 -5.9118e-17)
(-18.3363 -0.567525 -6.30989e-17)
(-18.3238 -0.584018 -6.73026e-17)
(-18.314 -0.602429 -7.14435e-17)
(-18.3073 -0.622791 -7.61757e-17)
(-18.3044 -0.645195 -8.09944e-17)
(-18.3063 -0.66983 -8.63041e-17)
(-18.314 -0.696999 -9.31454e-17)
(-18.329 -0.727157 -1.00382e-16)
(-18.3532 -0.760937 -1.07519e-16)
(-18.3887 -0.799269 -1.14499e-16)
(-18.4386 -0.843353 -1.23008e-16)
(-18.5077 -0.894453 -1.33746e-16)
(-18.6007 -0.954099 -1.45035e-16)
(-11.0809 -2.52672 6.53816e-18)
(-10.8649 -2.35717 6.47836e-18)
(-10.7945 -2.15406 6.02256e-18)
(-10.8036 -1.97137 4.52645e-18)
(-10.8398 -1.81737 2.97519e-18)
(-10.8876 -1.68832 3.10097e-18)
(-10.9375 -1.57815 3.87602e-18)
(-10.9855 -1.48233 4.21045e-18)
(-11.0298 -1.39781 4.11295e-18)
(-11.0699 -1.32249 3.07821e-18)
(-11.1056 -1.25495 2.09265e-18)
(-11.1371 -1.19413 2.63146e-18)
(-11.1645 -1.13927 3.67804e-18)
(-11.188 -1.08975 4.29759e-18)
(-11.208 -1.04505 4.52325e-18)
(-11.2247 -1.0047 3.88276e-18)
(-11.2382 -0.968338 3.31515e-18)
(-11.2491 -0.935597 4.16576e-18)
(-11.2575 -0.906168 5.47061e-18)
(-11.2638 -0.879765 6.39113e-18)
(-11.2681 -0.856127 7.10964e-18)
(-11.271 -0.835021 7.73658e-18)
(-11.2725 -0.816251 8.33952e-18)
(-11.2732 -0.799651 8.96154e-18)
(-11.2732 -0.785086 9.63993e-18)
(-11.2728 -0.772436 1.05351e-17)
(-11.2722 -0.7616 1.22747e-17)
(-11.2717 -0.752508 1.40434e-17)
(-11.2715 -0.745119 1.44961e-17)
(-11.2719 -0.739413 1.45586e-17)
(-11.273 -0.735378 1.50561e-17)
(-11.2749 -0.733002 1.59586e-17)
(-11.278 -0.732269 1.77624e-17)
(-11.2823 -0.733178 1.97123e-17)
(-11.288 -0.735747 2.04363e-17)
(-11.2953 -0.740016 2.07243e-17)
(-11.3046 -0.746021 2.14108e-17)
(-11.3161 -0.753774 2.23664e-17)
(-11.3301 -0.763245 2.4266e-17)
(-11.3472 -0.774385 2.56956e-17)
(-11.3679 -0.787185 2.63746e-17)
(-11.3931 -0.801655 2.84245e-17)
(-11.4236 -0.817839 3.0638e-17)
(-11.4607 -0.835784 3.15111e-17)
(-11.5061 -0.85561 3.26344e-17)
(-11.5618 -0.877498 3.35144e-17)
(-11.6302 -0.901841 3.43132e-17)
(-11.7144 -0.929344 3.53891e-17)
(-11.82 -0.960747 3.47599e-17)
(-11.9538 -0.996268 3.26828e-17)
(-1.96778 -2.83753 6.63986e-18)
(-2.12214 -2.35339 7.71637e-18)
(-2.05 -2.09236 8.60949e-18)
(-2.10879 -1.87079 8.53055e-18)
(-2.1864 -1.6949 5.34542e-18)
(-2.27125 -1.55624 3.39703e-18)
(-2.3558 -1.44028 4.88746e-18)
(-2.43676 -1.33813 6.19874e-18)
(-2.51259 -1.24586 6.9154e-18)
(-2.58275 -1.16151 6.08805e-18)
(-2.64716 -1.0839 2.72959e-18)
(-2.70599 -1.01231 1.2654e-18)
(-2.75949 -0.946227 2.85317e-18)
(-2.80795 -0.885299 3.94591e-18)
(-2.8517 -0.82921 4.2223e-18)
(-2.89108 -0.777682 2.66319e-18)
(-2.92644 -0.730478 -8.91688e-19)
(-2.95816 -0.687391 -2.4104e-18)
(-2.9866 -0.648231 -1.33456e-18)
(-3.01208 -0.612799 -9.85938e-19)
(-3.03493 -0.58089 -1.11594e-18)
(-3.05551 -0.552332 -1.5416e-18)
(-3.07423 -0.526996 -2.23083e-18)
(-3.0915 -0.504782 -3.12973e-18)
(-3.10769 -0.485571 -4.22149e-18)
(-3.12309 -0.469223 -4.89331e-18)
(-3.13796 -0.455605 -4.24729e-18)
(-3.15261 -0.444638 -1.55831e-18)
(-3.16741 -0.43631 -9.6452e-19)
(-3.18275 -0.430627 -3.12396e-18)
(-3.19898 -0.42755 -4.55416e-18)
(-3.21635 -0.426973 -5.0764e-18)
(-3.23506 -0.42875 -4.00783e-18)
(-3.25542 -0.432759 -6.45275e-19)
(-3.27777 -0.438937 8.22753e-19)
(-3.30251 -0.447226 -2.80087e-19)
(-3.33002 -0.457482 -6.80325e-19)
(-3.36066 -0.469466 -4.02552e-19)
(-3.39485 -0.482856 1.46287e-19)
(-3.4332 -0.497274 3.35261e-18)
(-3.4763 -0.512389 6.00596e-18)
(-3.52514 -0.527825 7.33481e-18)
(-3.58079 -0.543146 1.18879e-17)
(-3.64436 -0.557799 1.54005e-17)
(-3.71738 -0.571119 1.72186e-17)
(-3.80169 -0.58248 2.26418e-17)
(-3.89943 -0.591507 2.93329e-17)
(-4.01363 -0.598647 3.62465e-17)
(-4.15019 -0.605078 4.14083e-17)
(-4.32109 -0.609866 4.43168e-17)
(7.21916 -3.52212 5.67223e-18)
(6.98208 -2.74673 5.8784e-18)
(6.81432 -2.31479 5.93346e-18)
(6.71785 -2.0453 7.10213e-18)
(6.62999 -1.85426 7.67159e-18)
(6.53388 -1.71566 6.43468e-18)
(6.43388 -1.61469 5.77581e-18)
(6.3344 -1.53903 5.66696e-18)
(6.23766 -1.48017 5.6115e-18)
(6.14503 -1.43297 6.82895e-18)
(6.05744 -1.39433 7.33259e-18)
(5.97541 -1.36226 5.88342e-18)
(5.89913 -1.3354 5.09302e-18)
(5.82854 -1.31277 4.91355e-18)
(5.76343 -1.29362 5.1068e-18)
(5.70349 -1.27738 6.21155e-18)
(5.64839 -1.26356 6.36814e-18)
(5.59776 -1.25176 4.85695e-18)
(5.55126 -1.24164 4.02926e-18)
(5.50857 -1.23289 3.55138e-18)
(5.46938 -1.22524 3.22731e-18)
(5.43338 -1.21848 3.00426e-18)
(5.40022 -1.21244 2.80133e-18)
(5.36954 -1.20697 2.56056e-18)
(5.34098 -1.20197 1.99764e-18)
(5.31426 -1.1973 1.17862e-18)
(5.28909 -1.19284 -6.64926e-19)
(5.26519 -1.18852 -1.4551e-18)
(5.24219 -1.18428 -4.26758e-19)
(5.2197 -1.18012 -1.09284e-19)
(5.19731 -1.17604 -4.51605e-19)
(5.17463 -1.172 -8.46463e-19)
(5.1513 -1.16796 -3.0338e-18)
(5.12691 -1.16389 -4.57094e-18)
(5.10097 -1.15979 -3.53583e-18)
(5.07293 -1.15571 -3.13014e-18)
(5.04218 -1.15166 -2.98048e-18)
(5.00809 -1.14763 -2.88278e-18)
(4.96996 -1.14351 -3.14813e-18)
(4.92692 -1.13923 -3.4797e-18)
(4.87788 -1.13473 -3.40085e-18)
(4.82175 -1.13002 -4.8399e-18)
(4.75713 -1.12503 -4.97084e-18)
(4.68266 -1.11971 -2.82808e-18)
(4.59686 -1.11391 -1.81332e-18)
(4.49806 -1.10735 -1.45896e-18)
(4.38419 -1.09947 -2.90171e-18)
(4.2518 -1.08948 -3.05666e-18)
(4.09735 -1.07731 1.27283e-18)
(3.89245 -1.06108 5.79764e-18)
(16.6281 -2.24982 5.33256e-18)
(16.3394 -1.7885 5.42357e-18)
(16.0621 -1.47314 5.25303e-18)
(15.8751 -1.24047 5.85776e-18)
(15.7227 -1.04429 6.41777e-18)
(15.5764 -0.873615 5.95461e-18)
(15.4353 -0.725815 5.70043e-18)
(15.3017 -0.596716 5.66382e-18)
(15.1759 -0.482002 5.48741e-18)
(15.0577 -0.378692 6.06416e-18)
(14.947 -0.284939 6.50443e-18)
(14.8436 -0.199501 5.92564e-18)
(14.7473 -0.121479 5.61041e-18)
(14.6578 -0.0501908 5.53473e-18)
(14.5747 0.014904 5.23297e-18)
(14.4976 0.074242 5.79585e-18)
(14.426 0.128189 6.25572e-18)
(14.3594 0.177063 5.61745e-18)
(14.2975 0.221149 5.22027e-18)
(14.2399 0.260701 4.93482e-18)
(14.1862 0.295945 4.70917e-18)
(14.136 0.327085 4.50762e-18)
(14.089 0.354306 4.31307e-18)
(14.0448 0.377779 4.10385e-18)
(14.0031 0.39767 3.7712e-18)
(13.9636 0.41414 3.68304e-18)
(13.926 0.427339 2.72407e-18)
(13.8901 0.437401 1.89484e-18)
(13.8555 0.444439 2.21444e-18)
(13.8219 0.448565 2.29487e-18)
(13.789 0.449904 2.15448e-18)
(13.7564 0.448614 2.24673e-18)
(13.7239 0.444879 1.30053e-18)
(13.6908 0.438902 3.08715e-19)
(13.6569 0.430914 4.60638e-19)
(13.6216 0.421227 3.55374e-19)
(13.5841 0.410255 6.38558e-20)
(13.5439 0.398541 -3.05793e-19)
(13.4999 0.386781 -1.22373e-18)
(13.4511 0.375764 -1.79173e-18)
(13.3961 0.366425 -1.2574e-18)
(13.3334 0.359818 -1.96013e-18)
(13.2612 0.357207 -2.65317e-18)
(13.1774 0.360075 -2.06292e-18)
(13.0799 0.370199 -2.30416e-18)
(12.9662 0.389745 -1.96482e-18)
(12.8336 0.421443 -2.06784e-18)
(12.6794 0.468603 -2.33381e-18)
(12.5023 0.534195 -1.46996e-18)
(12.293 0.620368 -1.27534e-18)
(26.884 -3.27084 4.87153e-18)
(26.3803 -2.89882 4.9253e-18)
(25.9188 -2.63839 4.57492e-18)
(25.5943 -2.47649 4.92425e-18)
(25.3454 -2.36536 5.55782e-18)
(25.1288 -2.28549 5.28519e-18)
(24.9345 -2.23028 5.13514e-18)
(24.7607 -2.1935 5.126e-18)
(24.6046 -2.16916 4.73376e-18)
(24.4631 -2.15293 5.09993e-18)
(24.3337 -2.14204 5.75123e-18)
(24.2151 -2.13467 5.45068e-18)
(24.1058 -2.12952 5.28249e-18)
(24.0049 -2.12573 5.2458e-18)
(23.9114 -2.12265 5.17984e-18)
(23.8245 -2.11987 5.37391e-18)
(23.7436 -2.11708 5.49705e-18)
(23.6679 -2.11408 5.17804e-18)
(23.5971 -2.1107 4.97251e-18)
(23.5304 -2.10687 4.80881e-18)
(23.4676 -2.10252 4.66123e-18)
(23.4082 -2.09761 4.51607e-18)
(23.3518 -2.09211 4.37027e-18)
(23.2981 -2.086 4.21642e-18)
(23.2467 -2.07929 3.99723e-18)
(23.1974 -2.07195 3.85692e-18)
(23.1498 -2.06399 3.46154e-18)
(23.1037 -2.05542 3.137e-18)
(23.0588 -2.04622 3.25701e-18)
(23.0148 -2.0364 3.25359e-18)
(22.9714 -2.02593 3.15906e-18)
(22.9282 -2.01477 3.56042e-18)
(22.885 -2.00288 3.13889e-18)
(22.8414 -1.99018 2.38391e-18)
(22.7968 -1.97661 2.58676e-18)
(22.7507 -1.96202 2.59211e-18)
(22.7025 -1.94625 2.47842e-18)
(22.6515 -1.92908 2.22997e-18)
(22.5965 -1.91028 1.98889e-18)
(22.5365 -1.88962 1.70821e-18)
(22.47 -1.86692 1.83702e-18)
(22.3954 -1.84201 1.04665e-18)
(22.3106 -1.8148 -7.27585e-20)
(22.2136 -1.78522 -1.09332e-19)
(22.1018 -1.75332 -1.65652e-19)
(21.9726 -1.71888 1.85286e-19)
(21.8225 -1.68098 -3.25438e-19)
(21.6463 -1.63738 -9.23943e-19)
(21.4388 -1.5854 -1.3309e-19)
(21.188 -1.52694 8.7244e-20)
(35.1788 -0.0833787 4.0348e-18)
(35.1408 0.214844 4.09336e-18)
(34.9553 0.428579 3.82127e-18)
(34.8352 0.587675 4.10064e-18)
(34.7672 0.721198 4.58002e-18)
(34.709 0.838081 4.3918e-18)
(34.6511 0.938887 4.29805e-18)
(34.5953 1.02504 4.29298e-18)
(34.5415 1.09909 3.99561e-18)
(34.4886 1.1632 4.27955e-18)
(34.4358 1.21886 4.72877e-18)
(34.3827 1.26715 4.52329e-18)
(34.3292 1.30894 4.43303e-18)
(34.2755 1.34493 4.44243e-18)
(34.2214 1.37571 4.16417e-18)
(34.167 1.40179 4.43692e-18)
(34.1122 1.42358 4.84818e-18)
(34.0571 1.44144 4.59402e-18)
(34.0015 1.45568 4.42257e-18)
(33.9456 1.46657 4.29729e-18)
(33.8892 1.47434 4.17015e-18)
(33.8324 1.4792 4.03513e-18)
(33.7751 1.48135 3.8771e-18)
(33.7173 1.48095 3.708e-18)
(33.6588 1.47817 3.48645e-18)
(33.5998 1.47313 3.64153e-18)
(33.54 1.46598 3.35984e-18)
(33.4794 1.45685 2.85588e-18)
(33.4179 1.44585 2.9336e-18)
(33.3554 1.43315 2.86442e-18)
(33.2918 1.4189 2.70084e-18)
(33.2268 1.4033 2.93072e-18)
(33.1604 1.3866 2.70203e-18)
(33.0922 1.3691 2.27418e-18)
(33.0219 1.35125 2.43599e-18)
(32.9491 1.33361 2.47203e-18)
(32.8735 1.31695 2.4128e-18)
(32.7942 1.30225 2.37981e-18)
(32.7106 1.29071 2.10935e-18)
(32.6213 1.28382 1.93275e-18)
(32.5251 1.28329 2.40801e-18)
(32.4203 1.2911 2.12379e-18)
(32.305 1.30955 1.57778e-18)
(32.1769 1.34113 1.69863e-18)
(32.0342 1.38753 1.45051e-18)
(31.8755 1.44979 1.62024e-18)
(31.7004 1.52827 1.45994e-18)
(31.509 1.62226 6.5006e-19)
(31.319 1.72438 5.23679e-19)
(31.1234 1.83535 7.16519e-19)
(52.1714 -4.39379 3.84719e-18)
(51.4777 -4.19634 3.86319e-18)
(50.8245 -4.05075 3.42551e-18)
(50.3109 -3.94251 3.58961e-18)
(49.8871 -3.85194 4.16984e-18)
(49.5074 -3.77189 4.01184e-18)
(49.1577 -3.70079 3.91525e-18)
(48.8354 -3.63724 3.89001e-18)
(48.5371 -3.57953 3.38411e-18)
(48.2587 -3.52624 3.53986e-18)
(47.9968 -3.47635 4.10802e-18)
(47.7491 -3.42917 3.92632e-18)
(47.5137 -3.38419 3.82255e-18)
(47.2892 -3.34099 3.81571e-18)
(47.0744 -3.2993 3.36953e-18)
(46.8682 -3.2589 3.57086e-18)
(46.6697 -3.21963 4.1608e-18)
(46.478 -3.18137 3.96625e-18)
(46.2926 -3.14403 3.82999e-18)
(46.1128 -3.10753 3.71979e-18)
(45.938 -3.07181 3.61543e-18)
(45.7677 -3.0368 3.51402e-18)
(45.6016 -3.00245 3.409e-18)
(45.4391 -2.96871 3.28897e-18)
(45.28 -2.93552 3.11624e-18)
(45.1239 -2.90284 3.33094e-18)
(44.9705 -2.8706 2.93621e-18)
(44.8194 -2.83874 2.30988e-18)
(44.6705 -2.80719 2.40472e-18)
(44.5235 -2.77589 2.40614e-18)
(44.378 -2.74473 2.32704e-18)
(44.234 -2.71364 2.58591e-18)
(44.0911 -2.68249 2.16253e-18)
(43.9491 -2.65112 1.49016e-18)
(43.8078 -2.61932 1.61394e-18)
(43.6669 -2.58683 1.68082e-18)
(43.5261 -2.55333 1.70362e-18)
(43.385 -2.51843 2.25094e-18)
(43.2431 -2.48172 2.19699e-18)
(43.0994 -2.44283 1.53727e-18)
(42.9528 -2.40155 1.98604e-18)
(42.8022 -2.35762 1.69523e-18)
(42.6456 -2.31012 9.92189e-19)
(42.48 -2.25667 1.27372e-18)
(42.3019 -2.19442 1.45506e-18)
(42.1113 -2.12155 1.52863e-18)
(41.9193 -2.03318 1.38412e-18)
(41.7269 -1.93055 1.19039e-18)
(41.5219 -1.80687 1.58627e-18)
(41.2898 -1.6506 2.01914e-18)
(51.4018 3.32647 4.14642e-18)
(51.5837 3.42802 4.17169e-18)
(51.64 3.43536 3.76254e-18)
(51.7549 3.42827 4.01233e-18)
(51.913 3.41176 4.55424e-18)
(52.0665 3.38749 4.36071e-18)
(52.2011 3.35874 4.22318e-18)
(52.3183 3.32716 4.15682e-18)
(52.4196 3.2934 3.65935e-18)
(52.5056 3.25795 3.77216e-18)
(52.577 3.22126 4.29506e-18)
(52.635 3.18367 4.13154e-18)
(52.6811 3.14548 4.02402e-18)
(52.7166 3.10691 3.96923e-18)
(52.7426 3.06814 3.4659e-18)
(52.7602 3.02929 3.60922e-18)
(52.7703 2.99048 4.13833e-18)
(52.7738 2.95175 3.95333e-18)
(52.7714 2.91316 3.82431e-18)
(52.7638 2.87474 3.72741e-18)
(52.7516 2.83648 3.64426e-18)
(52.7353 2.7984 3.57411e-18)
(52.7155 2.76047 3.51126e-18)
(52.6925 2.72269 3.44869e-18)
(52.6667 2.68503 3.35451e-18)
(52.6386 2.64749 3.6931e-18)
(52.6084 2.61005 3.39554e-18)
(52.5764 2.57273 2.78295e-18)
(52.5428 2.53555 2.85525e-18)
(52.5078 2.49855 2.88951e-18)
(52.4716 2.46183 2.87601e-18)
(52.4341 2.42556 3.30574e-18)
(52.3952 2.38999 3.10692e-18)
(52.3549 2.35551 2.52605e-18)
(52.3127 2.32272 2.61957e-18)
(52.268 2.29246 2.65154e-18)
(52.2198 2.26594 2.62976e-18)
(52.1664 2.24486 2.59506e-18)
(52.1053 2.23159 2.44431e-18)
(52.0327 2.22896 2.31939e-18)
(51.9446 2.23915 2.84213e-18)
(51.8375 2.26292 2.69471e-18)
(51.7094 2.29937 2.08775e-18)
(51.5667 2.34438 2.14942e-18)
(51.4288 2.39154 1.9759e-18)
(51.2907 2.43986 2.34053e-18)
(51.1411 2.48696 2.24397e-18)
(50.9814 2.53847 1.22137e-18)
(50.8151 2.60356 9.12242e-19)
(50.6308 2.70126 2.02298e-18)
(89.4763 -6.544 4.6119e-18)
(88.618 -6.47357 4.62466e-18)
(87.903 -6.32735 4.23091e-18)
(87.3065 -6.13834 4.42187e-18)
(86.7693 -5.93962 4.93918e-18)
(86.2699 -5.74373 4.7558e-18)
(85.8029 -5.55496 4.63571e-18)
(85.366 -5.37568 4.58388e-18)
(84.9563 -5.20709 4.54473e-18)
(84.5706 -5.04936 4.58113e-18)
(84.2059 -4.90206 4.56632e-18)
(83.8599 -4.76454 4.46182e-18)
(83.5305 -4.63606 4.40989e-18)
(83.2158 -4.51588 4.40669e-18)
(82.9143 -4.40329 3.80267e-18)
(82.6246 -4.29764 3.9251e-18)
(82.3455 -4.19831 4.62292e-18)
(82.0757 -4.10478 4.54172e-18)