/*--------------------------------*- C++ -*----------------------------------*\
  =========                 |
  \\      /  F ield         | OpenFOAM: The Open Source CFD Toolbox
   \\    /   O peration     | Website:  https://openfoam.org
    \\  /    A nd           | Version:  8
     \\/     M anipulation  |
\*---------------------------------------------------------------------------*/
FoamFile
{
    version     2.0;
    format      ascii;
    class       volScalarField;
    location    "100";
    object      nut;
}
// * * * * * * * * * * * * * * * * * * * * * * * * * * * * * * * * * * * * * //

dimensions      [0 2 -1 0 0 0 0];

internalField   nonuniform List<scalar> 
8400
(
0.000173364
0.000172751
0.000172133
0.000171506
0.000170866
0.000170212
0.00016954
0.000168851
0.000168143
0.000167415
0.000166668
0.000165903
0.00016512
0.00016432
0.000163507
0.000162677
0.000161836
0.00016098
0.00016011
0.000159228
0.000158334
0.000157426
0.000156506
0.000155572
0.000154625
0.000153665
0.000152691
0.000151704
0.000150704
0.000149692
0.000148667
0.00014763
0.00014658
0.00014552
0.000144449
0.000143368
0.000142279
0.000141184
0.000140084
0.000138981
0.000137876
0.000136773
0.000135674
0.000134583
0.000133504
0.000132442
0.000131404
0.000130401
0.000129443
0.000128548
6.22121e-05
6.22387e-05
6.22642e-05
6.2288e-05
6.23107e-05
6.23326e-05
6.2354e-05
6.2375e-05
6.23956e-05
6.24161e-05
6.24363e-05
6.24565e-05
6.24773e-05
6.24983e-05
6.25212e-05
6.25447e-05
6.25697e-05
6.25964e-05
6.2625e-05
6.26551e-05
6.2687e-05
6.27211e-05
6.27567e-05
6.27934e-05
6.28315e-05
6.28708e-05
6.29112e-05
6.29524e-05
6.29942e-05
6.30362e-05
6.30777e-05
6.31184e-05
6.31581e-05
6.3196e-05
6.32318e-05
6.32652e-05
6.32963e-05
6.33246e-05
6.33498e-05
6.33715e-05
6.33895e-05
6.3404e-05
6.34146e-05
6.34211e-05
6.34234e-05
6.34213e-05
6.34151e-05
6.34042e-05
6.33881e-05
6.33665e-05
6.17492e-05
6.17016e-05
6.16507e-05
6.15979e-05
6.15446e-05
6.14924e-05
6.1442e-05
6.13941e-05
6.13489e-05
6.13062e-05
6.1266e-05
6.12281e-05
6.11929e-05
6.11605e-05
6.11297e-05
6.1102e-05
6.1077e-05
6.10549e-05
6.10351e-05
6.10189e-05
6.10064e-05
6.09972e-05
6.09923e-05
6.09923e-05
6.09973e-05
6.10073e-05
6.10229e-05
6.1045e-05
6.10737e-05
6.11089e-05
6.11511e-05
6.12005e-05
6.1257e-05
6.13204e-05
6.13908e-05
6.14685e-05
6.15534e-05
6.16453e-05
6.17437e-05
6.18478e-05
6.19572e-05
6.20716e-05
6.21896e-05
6.23096e-05
6.24301e-05
6.25493e-05
6.26645e-05
6.27719e-05
6.28682e-05
6.29466e-05
6.97697e-05
6.96768e-05
6.95764e-05
6.94717e-05
6.9366e-05
6.92616e-05
6.916e-05
6.90625e-05
6.89694e-05
6.88809e-05
6.87967e-05
6.87171e-05
6.86407e-05
6.85691e-05
6.85014e-05
6.84385e-05
6.83788e-05
6.83237e-05
6.82738e-05
6.82294e-05
6.81905e-05
6.81585e-05
6.81337e-05
6.81166e-05
6.81078e-05
6.81087e-05
6.81202e-05
6.81426e-05
6.81764e-05
6.82224e-05
6.82814e-05
6.83535e-05
6.84385e-05
6.85367e-05
6.86482e-05
6.87734e-05
6.89121e-05
6.90636e-05
6.92269e-05
6.94017e-05
6.95871e-05
6.97817e-05
6.99834e-05
7.01903e-05
7.03998e-05
7.06081e-05
7.08113e-05
7.10054e-05
7.11839e-05
7.13384e-05
7.92386e-05
7.91875e-05
7.91258e-05
7.90567e-05
7.89835e-05
7.89087e-05
7.88344e-05
7.87615e-05
7.86911e-05
7.8623e-05
7.85568e-05
7.84937e-05
7.84332e-05
7.83762e-05
7.83206e-05
7.82667e-05
7.82173e-05
7.81711e-05
7.81284e-05
7.80901e-05
7.80574e-05
7.80309e-05
7.80119e-05
7.80013e-05
7.8e-05
7.80097e-05
7.80313e-05
7.80657e-05
7.81139e-05
7.81769e-05
7.82555e-05
7.835e-05
7.84605e-05
7.85875e-05
7.87313e-05
7.8892e-05
7.90692e-05
7.92621e-05
7.94701e-05
7.96928e-05
7.99287e-05
8.01764e-05
8.04334e-05
8.0697e-05
8.0965e-05
8.12332e-05
8.14978e-05
8.17531e-05
8.19937e-05
8.22125e-05
8.68094e-05
8.69142e-05
8.7003e-05
8.70784e-05
8.71427e-05
8.71986e-05
8.72479e-05
8.72917e-05
8.73316e-05
8.73678e-05
8.74006e-05
8.74315e-05
8.74584e-05
8.7483e-05
8.75071e-05
8.75281e-05
8.75467e-05
8.75646e-05
8.75831e-05
8.76027e-05
8.76241e-05
8.76484e-05
8.76768e-05
8.77107e-05
8.77513e-05
8.77998e-05
8.78575e-05
8.79253e-05
8.80047e-05
8.80968e-05
8.82025e-05
8.8322e-05
8.84558e-05
8.86044e-05
8.87684e-05
8.89475e-05
8.91414e-05
8.93499e-05
8.95727e-05
8.98087e-05
9.00569e-05
9.03156e-05
9.05826e-05
9.0856e-05
9.11331e-05
9.14113e-05
9.16884e-05
9.19602e-05
9.22224e-05
9.24706e-05
9.00827e-05
9.04548e-05
9.08072e-05
9.11374e-05
9.14454e-05
9.1732e-05
9.19992e-05
9.22485e-05
9.24816e-05
9.27005e-05
9.2906e-05
9.30998e-05
9.32839e-05
9.34579e-05
9.36211e-05
9.37755e-05
9.39217e-05
9.40611e-05
9.41937e-05
9.43205e-05
9.44429e-05
9.45621e-05
9.46783e-05
9.47927e-05
9.49072e-05
9.50227e-05
9.51399e-05
9.52599e-05
9.53842e-05
9.5514e-05
9.56498e-05
9.57918e-05
9.59408e-05
9.60972e-05
9.62614e-05
9.64335e-05
9.66134e-05
9.6801e-05
9.69957e-05
9.71975e-05
9.74058e-05
9.76181e-05
9.78338e-05
9.80524e-05
9.82723e-05
9.84935e-05
9.87134e-05
9.89318e-05
9.91473e-05
9.93595e-05
8.75712e-05
8.82983e-05
8.90074e-05
8.96852e-05
9.03259e-05
9.0928e-05
9.14916e-05
9.20201e-05
9.25166e-05
9.29839e-05
9.3426e-05
9.38443e-05
9.42397e-05
9.46149e-05
9.49713e-05
9.53101e-05
9.56318e-05
9.59362e-05
9.62251e-05
9.64999e-05
9.67607e-05
9.70072e-05
9.72407e-05
9.74632e-05
9.76748e-05
9.78755e-05
9.80661e-05
9.82485e-05
9.84235e-05
9.85912e-05
9.87522e-05
9.89071e-05
9.90562e-05
9.91997e-05
9.93382e-05
9.94718e-05
9.96007e-05
9.97248e-05
9.9844e-05
9.99581e-05
0.000100067
0.000100171
0.000100269
0.000100362
0.000100452
0.000100538
0.000100622
0.000100704
0.000100788
0.000100877
7.9085e-05
8.01244e-05
8.11659e-05
8.21804e-05
8.31527e-05
8.40772e-05
8.49538e-05
8.57839e-05
8.6571e-05
8.73204e-05
8.80356e-05
8.87188e-05
8.93726e-05
8.99989e-05
9.05986e-05
9.11712e-05
9.17176e-05
9.22381e-05
9.27324e-05
9.32005e-05
9.36414e-05
9.40545e-05
9.44407e-05
9.47997e-05
9.51314e-05
9.54359e-05
9.57145e-05
9.5968e-05
9.61961e-05
9.63995e-05
9.65793e-05
9.67356e-05
9.68686e-05
9.69792e-05
9.70683e-05
9.71359e-05
9.71821e-05
9.72075e-05
9.72131e-05
9.71997e-05
9.71667e-05
9.71153e-05
9.70478e-05
9.6965e-05
9.68699e-05
9.67624e-05
9.6648e-05
9.65303e-05
9.64123e-05
9.63006e-05
6.73054e-05
6.82537e-05
6.92569e-05
7.02761e-05
7.12894e-05
7.22834e-05
7.3254e-05
7.42002e-05
7.51258e-05
7.60315e-05
7.69216e-05
7.77952e-05
7.86528e-05
7.94946e-05
8.0321e-05
8.11297e-05
8.19189e-05
8.26867e-05
8.34289e-05
8.41426e-05
8.48246e-05
8.54716e-05
8.60806e-05
8.66486e-05
8.71736e-05
8.76547e-05
8.80906e-05
8.84796e-05
8.88212e-05
8.91163e-05
8.93646e-05
8.95667e-05
8.97239e-05
8.98372e-05
8.99075e-05
8.99359e-05
8.99238e-05
8.98731e-05
8.9786e-05
8.96636e-05
8.9508e-05
8.9323e-05
8.911e-05
8.88726e-05
8.86126e-05
8.83353e-05
8.80405e-05
8.7734e-05
8.74215e-05
8.71066e-05
5.90906e-05
5.92694e-05
5.95484e-05
5.99093e-05
6.03331e-05
6.08046e-05
6.13157e-05
6.18563e-05
6.24255e-05
6.30217e-05
6.36465e-05
6.42982e-05
6.49747e-05
6.56748e-05
6.63988e-05
6.71445e-05
6.79089e-05
6.86884e-05
6.94791e-05
7.0276e-05
7.10727e-05
7.18624e-05
7.26387e-05
7.33953e-05
7.41262e-05
7.48251e-05
7.54851e-05
7.61006e-05
7.66671e-05
7.71807e-05
7.76379e-05
7.80367e-05
7.83756e-05
7.8653e-05
7.88684e-05
7.90229e-05
7.91179e-05
7.91576e-05
7.91456e-05
7.9081e-05
7.89699e-05
7.88178e-05
7.86267e-05
7.84005e-05
7.81429e-05
7.78581e-05
7.75505e-05
7.72183e-05
7.68688e-05
7.65067e-05
5.87491e-05
5.8267e-05
5.78514e-05
5.75139e-05
5.72495e-05
5.70579e-05
5.69167e-05
5.68159e-05
5.67577e-05
5.67349e-05
5.67434e-05
5.67797e-05
5.68425e-05
5.69285e-05
5.70386e-05
5.71754e-05
5.73407e-05
5.75367e-05
5.77634e-05
5.80208e-05
5.83084e-05
5.86246e-05
5.89683e-05
5.93385e-05
5.97327e-05
6.01457e-05
6.05721e-05
6.10068e-05
6.14442e-05
6.18796e-05
6.23083e-05
6.27248e-05
6.31218e-05
6.34932e-05
6.3835e-05
6.41446e-05
6.44212e-05
6.46665e-05
6.4878e-05
6.50538e-05
6.52022e-05
6.53194e-05
6.54095e-05
6.5476e-05
6.55179e-05
6.55375e-05
6.55405e-05
6.55292e-05
6.55098e-05
6.54648e-05
6.07252e-05
6.0344e-05
5.99857e-05
5.96476e-05
5.92821e-05
5.89785e-05
5.87152e-05
5.84699e-05
5.82299e-05
5.80288e-05
5.78683e-05
5.77188e-05
5.75761e-05
5.74346e-05
5.72968e-05
5.7155e-05
5.70089e-05
5.68673e-05
5.673e-05
5.65912e-05
5.64467e-05
5.62958e-05
5.61391e-05
5.59811e-05
5.58253e-05
5.56672e-05
5.55016e-05
5.53285e-05
5.5149e-05
5.49699e-05
5.48e-05
5.46362e-05
5.44739e-05
5.4312e-05
5.41397e-05
5.39623e-05
5.3799e-05
5.36499e-05
5.35023e-05
5.33578e-05
5.321e-05
5.30918e-05
5.29758e-05
5.28656e-05
5.27705e-05
5.2664e-05
5.25715e-05
5.25212e-05
5.24827e-05
5.24677e-05
6.13366e-05
6.1142e-05
6.09513e-05
6.07687e-05
6.05896e-05
6.04157e-05
6.02394e-05
6.00626e-05
5.98885e-05
5.97224e-05
5.9562e-05
5.94117e-05
5.92695e-05
5.91304e-05
5.89979e-05
5.8869e-05
5.87392e-05
5.86148e-05
5.84989e-05
5.83848e-05
5.8268e-05
5.81501e-05
5.80323e-05
5.79144e-05
5.77969e-05
5.76786e-05
5.75573e-05
5.74308e-05
5.72997e-05
5.71667e-05
5.70338e-05
5.69042e-05
5.67771e-05
5.66465e-05
5.65128e-05
5.63755e-05
5.62393e-05
5.61095e-05
5.59703e-05
5.58308e-05
5.56923e-05
5.55579e-05
5.54368e-05
5.53178e-05
5.51828e-05
5.50553e-05
5.49161e-05
5.47875e-05
5.4652e-05
5.44895e-05
6.14061e-05
6.13e-05
6.1197e-05
6.10931e-05
6.09889e-05
6.08821e-05
6.07766e-05
6.06713e-05
6.05662e-05
6.04639e-05
6.03622e-05
6.02606e-05
6.01606e-05
6.00622e-05
5.99645e-05
5.98668e-05
5.97699e-05
5.96744e-05
5.95797e-05
5.94855e-05
5.93912e-05
5.92968e-05
5.92024e-05
5.91077e-05
5.90126e-05
5.89173e-05
5.88212e-05
5.87236e-05
5.86248e-05
5.85253e-05
5.84263e-05
5.83279e-05
5.82287e-05
5.81288e-05
5.80275e-05
5.79251e-05
5.78251e-05
5.77239e-05
5.76207e-05
5.75165e-05
5.74146e-05
5.73134e-05
5.72093e-05
5.71052e-05
5.7e-05
5.68972e-05
5.67896e-05
5.66808e-05
5.65709e-05
5.64532e-05
6.14355e-05
6.1365e-05
6.12953e-05
6.12256e-05
6.11553e-05
6.10859e-05
6.10163e-05
6.0946e-05
6.08761e-05
6.08062e-05
6.07358e-05
6.06656e-05
6.05958e-05
6.05259e-05
6.0456e-05
6.03856e-05
6.03151e-05
6.02449e-05
6.01743e-05
6.01033e-05
6.00323e-05
5.99611e-05
5.98891e-05
5.98165e-05
5.97439e-05
5.9671e-05
5.95976e-05
5.95234e-05
5.94484e-05
5.93733e-05
5.92983e-05
5.92231e-05
5.91471e-05
5.9071e-05
5.89945e-05
5.89174e-05
5.88406e-05
5.87626e-05
5.86854e-05
5.86066e-05
5.85272e-05
5.84499e-05
5.8371e-05
5.82925e-05
5.82127e-05
5.8133e-05
5.80526e-05
5.79701e-05
5.78853e-05
5.77969e-05
6.14567e-05
6.14097e-05
6.13624e-05
6.13149e-05
6.12662e-05
6.12167e-05
6.11663e-05
6.11155e-05
6.1064e-05
6.10121e-05
6.096e-05
6.09077e-05
6.08549e-05
6.08017e-05
6.07483e-05
6.06945e-05
6.06403e-05
6.0586e-05
6.05315e-05
6.04769e-05
6.04221e-05
6.03671e-05
6.03117e-05
6.02562e-05
6.02007e-05
6.01451e-05
6.00889e-05
6.00324e-05
5.99757e-05
5.99191e-05
5.98627e-05
5.9806e-05
5.97491e-05
5.9692e-05
5.96348e-05
5.95778e-05
5.95203e-05
5.94625e-05
5.94048e-05
5.93478e-05
5.92895e-05
5.92315e-05
5.91732e-05
5.91144e-05
5.90561e-05
5.89975e-05
5.89375e-05
5.88759e-05
5.88118e-05
5.87428e-05
6.14602e-05
6.14184e-05
6.1377e-05
6.13365e-05
6.12964e-05
6.12563e-05
6.12168e-05
6.11775e-05
6.11384e-05
6.10995e-05
6.10607e-05
6.10224e-05
6.09847e-05
6.0947e-05
6.09096e-05
6.08727e-05
6.08359e-05
6.07992e-05
6.0763e-05
6.07271e-05
6.06914e-05
6.06558e-05
6.06205e-05
6.05855e-05
6.05508e-05
6.05161e-05
6.04813e-05
6.04465e-05
6.04119e-05
6.03776e-05
6.03431e-05
6.03086e-05
6.02741e-05
6.02397e-05
6.02051e-05
6.01706e-05
6.01358e-05
6.01014e-05
6.00662e-05
6.00308e-05
5.9996e-05
5.99601e-05
5.99246e-05
5.9888e-05
5.98504e-05
5.98118e-05
5.97711e-05
5.97277e-05
5.96797e-05
5.96299e-05
6.14769e-05
6.14625e-05
6.14485e-05
6.14366e-05
6.14264e-05
6.14171e-05
6.14086e-05
6.14009e-05
6.1394e-05
6.1388e-05
6.1383e-05
6.13792e-05
6.1377e-05
6.13762e-05
6.13769e-05
6.13793e-05
6.13832e-05
6.13885e-05
6.13953e-05
6.14035e-05
6.14128e-05
6.1423e-05
6.1434e-05
6.14457e-05
6.14579e-05
6.14701e-05
6.14822e-05
6.14941e-05
6.15058e-05
6.15171e-05
6.15279e-05
6.15379e-05
6.15474e-05
6.15564e-05
6.15643e-05
6.15712e-05
6.15771e-05
6.1582e-05
6.15861e-05
6.15883e-05
6.15893e-05
6.1588e-05
6.15829e-05
6.15716e-05
6.15498e-05
6.15227e-05
6.14953e-05
6.14676e-05
6.14393e-05
6.1407e-05
6.22869e-05
6.31058e-05
6.3933e-05
6.47677e-05
6.56106e-05
6.64621e-05
6.73223e-05
6.81911e-05
6.90683e-05
6.99543e-05
7.08493e-05
7.17532e-05
7.2666e-05
7.35879e-05
7.45187e-05
7.54585e-05
7.64076e-05
7.7366e-05
7.83338e-05
7.9311e-05
8.02976e-05
8.12938e-05
8.22998e-05
8.33154e-05
8.43407e-05
8.53757e-05
8.64208e-05
8.74758e-05
8.85409e-05
8.9616e-05
9.07012e-05
9.1797e-05
9.29029e-05
9.40189e-05
9.51455e-05
9.62826e-05
9.74304e-05
9.85886e-05
9.97573e-05
0.000100938
0.000102128
0.00010333
0.000104542
0.000105765
0.000107
0.000108238
0.00010947
0.000110683
0.000111853
0.000112935
0.000272578
0.000269221
0.000266005
0.000262919
0.000259948
0.000257075
0.000254283
0.000251567
0.000248925
0.000246352
0.000243846
0.000241405
0.000239027
0.00023671
0.000234451
0.000232248
0.0002301
0.000228005
0.000225961
0.000223968
0.000222024
0.000220127
0.000218276
0.000216471
0.000214709
0.000212989
0.000211309
0.000209669
0.000208065
0.000206498
0.000204967
0.00020347
0.000202008
0.00020058
0.000199186
0.000197825
0.000196496
0.000195197
0.000193927
0.000192681
0.000191454
0.000190246
0.000189055
0.000187878
0.000186715
0.000185559
0.000184406
0.000183244
0.000182053
0.000180793
0.000270625
0.000264428
0.000258512
0.00025285
0.000247434
0.000242255
0.000237306
0.000232574
0.000228044
0.000223704
0.000219543
0.000215549
0.000211712
0.000208022
0.000204472
0.000201054
0.000197759
0.000194582
0.000191517
0.000188559
0.000185703
0.000182943
0.000180276
0.000177696
0.000175198
0.000172778
0.000170431
0.000168153
0.00016594
0.00016379
0.000161701
0.00015967
0.000157695
0.000155775
0.000153904
0.00015208
0.000150299
0.000148556
0.000146848
0.000145181
0.000143555
0.000141969
0.000140423
0.000138915
0.000137442
0.000136004
0.000134599
0.000133229
0.000131894
0.000130582
0.000270617
0.0002644
0.000258444
0.000252743
0.000247286
0.000242059
0.000237049
0.000232244
0.00022763
0.000223197
0.000218934
0.000214832
0.000210881
0.000207072
0.000203398
0.000199851
0.000196426
0.000193116
0.000189916
0.000186821
0.000183827
0.00018093
0.000178124
0.000175405
0.000172769
0.000170211
0.000167728
0.000165316
0.000162972
0.000160693
0.000158477
0.000156322
0.000154227
0.000152188
0.000150205
0.000148274
0.000146393
0.00014456
0.000142772
0.000141027
0.000139326
0.000137666
0.000136049
0.000134473
0.000132936
0.000131437
0.000129972
0.000128541
0.000127152
0.000125821
0.000270618
0.000264446
0.000258543
0.000252895
0.000247484
0.000242296
0.000237318
0.000232536
0.000227941
0.000223521
0.000219267
0.000215169
0.000211219
0.000207409
0.000203731
0.000200178
0.000196745
0.000193426
0.000190216
0.000187111
0.000184105
0.000181195
0.000178377
0.000175645
0.000172996
0.000170424
0.000167927
0.000165501
0.000163142
0.000160849
0.00015862
0.000156451
0.000154343
0.000152292
0.000150295
0.000148351
0.000146457
0.00014461
0.000142808
0.000141051
0.000139338
0.000137666
0.000136037
0.00013445
0.000132903
0.000131397
0.000129927
0.000128488
0.000127078
0.000125716
0.000270618
0.000264449
0.000258543
0.000252887
0.000247467
0.000242268
0.000237279
0.00023249
0.000227887
0.000223463
0.000219206
0.000215107
0.000211157
0.000207348
0.000203672
0.000200122
0.000196692
0.000193376
0.000190171
0.00018707
0.000184069
0.000181165
0.000178351
0.000175624
0.00017298
0.000170413
0.00016792
0.000165498
0.000163144
0.000160855
0.000158629
0.000156465
0.00015436
0.000152312
0.000150318
0.000148377
0.000146484
0.000144639
0.00014284
0.000141084
0.000139373
0.000137704
0.000136076
0.000134489
0.000132941
0.000131432
0.000129963
0.00012853
0.000127122
0.000125751
0.000270618
0.000264453
0.000258555
0.000252907
0.000247497
0.00024231
0.000237333
0.000232555
0.000227964
0.00022355
0.000219303
0.000215212
0.000211269
0.000207466
0.000203794
0.000200247
0.00019682
0.000193506
0.000190302
0.000187202
0.000184202
0.000181298
0.000178484
0.000175756
0.000173111
0.000170542
0.000168048
0.000165624
0.000163267
0.000160976
0.000158748
0.000156581
0.000154473
0.000152422
0.000150425
0.00014848
0.000146584
0.000144735
0.000142931
0.000141173
0.000139458
0.000137786
0.000136156
0.000134566
0.000133013
0.000131497
0.000130018
0.000128578
0.000127168
0.000125789
0.000270619
0.000264454
0.000258557
0.00025291
0.000247499
0.000242311
0.000237332
0.000232551
0.000227958
0.000223541
0.00021929
0.000215197
0.000211251
0.000207445
0.000203771
0.000200222
0.000196792
0.000193477
0.000190272
0.000187171
0.000184171
0.000181266
0.000178453
0.000175725
0.00017308
0.000170512
0.000168018
0.000165594
0.000163238
0.000160947
0.00015872
0.000156553
0.000154446
0.000152396
0.000150399
0.000148454
0.000146558
0.000144709
0.000142906
0.000141148
0.000139434
0.000137763
0.000136134
0.000134544
0.000132993
0.000131477
0.000129994
0.000128549
0.000127136
0.000125755
0.000270619
0.000264455
0.000258558
0.000252913
0.000247504
0.000242317
0.000237341
0.000232564
0.000227973
0.00022356
0.000219313
0.000215223
0.000211281
0.000207477
0.000203806
0.000200259
0.000196832
0.000193519
0.000190315
0.000187216
0.000184218
0.000181314
0.000178502
0.000175775
0.00017313
0.000170561
0.000168067
0.000165642
0.000163286
0.000160994
0.000158766
0.000156599
0.00015449
0.000152438
0.00015044
0.000148492
0.000146594
0.000144743
0.000142938
0.000141178
0.000139462
0.000137789
0.000136157
0.000134564
0.000133009
0.000131489
0.000130003
0.00012855
0.000127131
0.000125743
0.000270619
0.000264455
0.000258558
0.000252913
0.000247504
0.000242319
0.000237343
0.000232566
0.000227975
0.000223562
0.000219314
0.000215223
0.000211279
0.000207475
0.000203802
0.000200254
0.000196825
0.000193511
0.000190306
0.000187206
0.000184207
0.000181303
0.000178489
0.000175762
0.000173115
0.000170546
0.000168051
0.000165625
0.000163268
0.000160976
0.000158747
0.00015658
0.000154471
0.000152418
0.000150419
0.00014847
0.000146571
0.000144719
0.000142914
0.000141154
0.000139438
0.000137764
0.000136131
0.000134537
0.000132979
0.000131457
0.000129969
0.000128512
0.000127089
0.000125696
0.000270619
0.000264454
0.000258557
0.000252913
0.000247505
0.00024232
0.000237345
0.000232568
0.000227979
0.000223566
0.000219319
0.000215228
0.000211285
0.000207481
0.000203809
0.000200261
0.000196833
0.00019352
0.000190316
0.000187217
0.000184218
0.000181314
0.000178501
0.000175773
0.000173127
0.000170557
0.000168061
0.000165636
0.000163278
0.000160985
0.000158756
0.000156588
0.000154478
0.000152425
0.000150424
0.000148474
0.000146574
0.000144721
0.000142914
0.000141153
0.000139435
0.00013776
0.000136126
0.000134529
0.000132968
0.000131442
0.00012995
0.000128489
0.00012706
0.000125662
0.000270619
0.000264453
0.000258556
0.000252911
0.000247504
0.00024232
0.000237345
0.000232569
0.00022798
0.000223567
0.000219319
0.000215229
0.000211285
0.000207481
0.000203809
0.000200261
0.000196833
0.00019352
0.000190316
0.000187217
0.000184218
0.000181314
0.0001785
0.000175772
0.000173125
0.000170555
0.000168058
0.000165632
0.000163273
0.000160981
0.000158751
0.000156582
0.000154472
0.000152417
0.000150416
0.000148465
0.000146563
0.000144709
0.000142901
0.000141139
0.00013942
0.000137744
0.000136107
0.000134508
0.000132945
0.000131415
0.000129919
0.000128454
0.00012702
0.000125617
0.000270618
0.000264451
0.000258554
0.00025291
0.000247503
0.000242319
0.000237345
0.000232568
0.000227978
0.000223564
0.000219316
0.000215224
0.00021128
0.000207475
0.000203801
0.000200253
0.000196825
0.000193511
0.000190306
0.000187207
0.000184207
0.000181303
0.000178488
0.000175759
0.000173111
0.00017054
0.000168042
0.000165615
0.000163256
0.000160963
0.000158733
0.000156564
0.000154453
0.000152397
0.000150395
0.000148444
0.000146541
0.000144687
0.000142879
0.000141115
0.000139396
0.000137718
0.00013608
0.000134479
0.000132913
0.00013138
0.000129881
0.000128412
0.000126975
0.000125568
0.000270618
0.00026445
0.000258552
0.000252908
0.000247501
0.000242317
0.000237343
0.000232567
0.000227977
0.000223564
0.000219316
0.000215225
0.000211282
0.000207478
0.000203805
0.000200258
0.000196831
0.000193519
0.000190316
0.000187217
0.000184218
0.000181314
0.0001785
0.00017577
0.000173122
0.00017055
0.000168052
0.000165625
0.000163266
0.000160972
0.000158741
0.000156571
0.000154459
0.000152403
0.000150399
0.000148447
0.000146543
0.000144688
0.000142878
0.000141113
0.000139391
0.00013771
0.000136069
0.000134464
0.000132895
0.000131358
0.000129854
0.000128381
0.000126939
0.000125527
0.000270617
0.000264448
0.00025855
0.000252904
0.000247496
0.000242311
0.000237334
0.000232555
0.000227962
0.000223545
0.000219294
0.0002152
0.000211253
0.000207445
0.00020377
0.000200221
0.000196792
0.000193477
0.000190273
0.000187173
0.000184173
0.000181267
0.000178451
0.00017572
0.000173071
0.000170498
0.000168
0.000165572
0.000163213
0.000160919
0.000158688
0.000156518
0.000154406
0.00015235
0.000150347
0.000148395
0.000146492
0.000144636
0.000142827
0.000141061
0.000139339
0.000137658
0.000136015
0.000134409
0.000132837
0.000131299
0.000129793
0.000128318
0.000126874
0.000125458
0.000270617
0.000264446
0.000258547
0.000252901
0.000247494
0.000242309
0.000237335
0.000232558
0.000227969
0.000223555
0.000219307
0.000215215
0.000211271
0.000207466
0.000203793
0.000200246
0.000196819
0.000193506
0.000190303
0.000187204
0.000184204
0.000181298
0.000178482
0.00017575
0.000173099
0.000170525
0.000168025
0.000165596
0.000163235
0.000160939
0.000158706
0.000156534
0.00015442
0.000152362
0.000150358
0.000148404
0.000146499
0.000144641
0.000142829
0.00014106
0.000139334
0.000137648
0.000136001
0.00013439
0.000132814
0.000131272
0.000129761
0.00012828
0.00012683
0.000125408
0.000270617
0.000264442
0.000258535
0.000252881
0.000247463
0.000242267
0.00023728
0.000232492
0.000227891
0.000223467
0.00021921
0.00021511
0.000211159
0.000207349
0.000203671
0.000200121
0.000196691
0.000193377
0.000190172
0.000187073
0.000184072
0.000181166
0.00017835
0.000175619
0.000172969
0.000170396
0.000167897
0.000165469
0.000163109
0.000160814
0.000158583
0.000156413
0.000154301
0.000152245
0.000150243
0.000148291
0.000146389
0.000144533
0.000142722
0.000140954
0.000139228
0.000137542
0.000135895
0.000134284
0.000132707
0.000131164
0.000129653
0.000128173
0.000126722
0.000125299
0.000270616
0.00026444
0.000258536
0.000252889
0.00024748
0.000242294
0.000237317
0.000232537
0.000227943
0.000223523
0.000219269
0.000215171
0.00021122
0.000207409
0.00020373
0.000200177
0.000196744
0.000193426
0.000190218
0.000187114
0.000184108
0.000181197
0.000178375
0.000175639
0.000172983
0.000170405
0.000167901
0.000165468
0.000163102
0.000160803
0.000158566
0.000156392
0.000154276
0.000152217
0.000150212
0.000148257
0.000146351
0.000144492
0.000142677
0.000140906
0.000139177
0.000137487
0.000135837
0.000134224
0.000132646
0.000131102
0.000129591
0.000128113
0.000126665
0.000125249
0.000270616
0.000264395
0.000258437
0.000252738
0.000247282
0.000242057
0.000237048
0.000232244
0.000227631
0.000223199
0.000218936
0.000214834
0.000210882
0.000207072
0.000203397
0.000199851
0.000196426
0.000193118
0.00018992
0.000186827
0.000183834
0.000180935
0.000178126
0.000175404
0.000172762
0.000170199
0.00016771
0.000165292
0.000162942
0.000160658
0.000158439
0.000156282
0.000154185
0.000152144
0.000150159
0.000148224
0.000146339
0.000144502
0.00014271
0.000140962
0.000139259
0.000137597
0.000135978
0.000134398
0.000132859
0.00013136
0.000129901
0.000128483
0.000127109
0.000125786
0.000270624
0.000264424
0.000258507
0.000252845
0.00024743
0.000242252
0.000237305
0.000232573
0.000228045
0.000223706
0.000219545
0.000215552
0.000211715
0.000208026
0.000204477
0.00020106
0.000197768
0.000194595
0.000191535
0.000188581
0.000185729
0.000182973
0.000180307
0.000177728
0.000175231
0.000172812
0.000170467
0.000168193
0.000165988
0.000163849
0.000161775
0.000159763
0.000157813
0.00015592
0.000154084
0.000152301
0.000150569
0.000148887
0.000147255
0.000145671
0.000144136
0.00014265
0.000141214
0.000139828
0.000138496
0.000137219
0.000136004
0.000134859
0.000133801
0.000132866
0.000272576
0.000269219
0.000266004
0.000262919
0.000259947
0.000257074
0.000254281
0.000251565
0.000248922
0.000246349
0.000243843
0.000241402
0.000239022
0.000236704
0.000234444
0.00023224
0.000230092
0.000227998
0.000225955
0.000223962
0.000222016
0.000220118
0.000218264
0.000216453
0.000214684
0.000212955
0.000211266
0.000209615
0.000208001
0.000206424
0.000204884
0.000203377
0.000201904
0.000200462
0.00019905
0.000197666
0.000196309
0.000194978
0.000193673
0.000192392
0.000191134
0.000189899
0.000188685
0.000187491
0.000186315
0.000185155
0.00018401
0.000182877
0.000181753
0.000180632
0.000126788
7.08616e-05
5.13187e-05
4.53438e-05
4.38859e-05
4.36526e-05
4.34709e-05
4.32872e-05
4.29996e-05
4.26646e-05
4.22934e-05
4.18669e-05
4.14613e-05
4.09584e-05
4.05566e-05
3.99764e-05
3.97531e-05
4.04313e-05
5.25302e-05
0.000105108
0.000126977
7.03433e-05
5.10322e-05
4.57152e-05
4.45129e-05
4.4312e-05
4.40415e-05
4.37718e-05
4.33975e-05
4.3e-05
4.25831e-05
4.21181e-05
4.16891e-05
4.11638e-05
4.0762e-05
4.01642e-05
3.9956e-05
4.0658e-05
5.29141e-05
0.000105609
0.0001272
6.99082e-05
5.08693e-05
4.6125e-05
4.50783e-05
4.48602e-05
4.44988e-05
4.41603e-05
4.37251e-05
4.32866e-05
4.2837e-05
4.23459e-05
4.19066e-05
4.13656e-05
4.09652e-05
4.03517e-05
4.01576e-05
4.08846e-05
5.32754e-05
0.000106064
0.000127434
6.95444e-05
5.07914e-05
4.6525e-05
4.5556e-05
4.53039e-05
4.48668e-05
4.44806e-05
4.40039e-05
4.35383e-05
4.307e-05
4.2562e-05
4.21185e-05
4.15641e-05
4.11657e-05
4.05398e-05
4.03602e-05
4.11088e-05
5.36132e-05
0.000106472
0.000127672
6.9255e-05
5.07679e-05
4.68906e-05
4.59562e-05
4.56686e-05
4.51731e-05
4.4756e-05
4.4252e-05
4.37703e-05
4.32911e-05
4.27734e-05
4.23265e-05
4.17611e-05
4.13674e-05
4.07314e-05
4.05646e-05
4.13319e-05
5.39326e-05
0.000106844
0.000127912
6.9027e-05
5.07878e-05
4.72213e-05
4.6295e-05
4.59773e-05
4.54396e-05
4.50036e-05
4.44812e-05
4.39924e-05
4.35061e-05
4.2981e-05
4.25318e-05
4.19589e-05
4.15711e-05
4.09251e-05
4.077e-05
4.15543e-05
5.42358e-05
0.000107186
0.000128145
6.88604e-05
5.08419e-05
4.75215e-05
4.65909e-05
4.62507e-05
4.56806e-05
4.52355e-05
4.47028e-05
4.42091e-05
4.37181e-05
4.31854e-05
4.27378e-05
4.21598e-05
4.17757e-05
4.1121e-05
4.09755e-05
4.1775e-05
5.45258e-05
0.000107504
0.000128374
6.87472e-05
5.09235e-05
4.77963e-05
4.68576e-05
4.65013e-05
4.59095e-05
4.54602e-05
4.49206e-05
4.44215e-05
4.3927e-05
4.33894e-05
4.29449e-05
4.23621e-05
4.1981e-05
4.1318e-05
4.11808e-05
4.19947e-05
5.48061e-05
0.0001078
0.000128598
6.86786e-05
5.10257e-05
4.80536e-05
4.7106e-05
4.67392e-05
4.61333e-05
4.56809e-05
4.5134e-05
4.46317e-05
4.41346e-05
4.35946e-05
4.31521e-05
4.25641e-05
4.21857e-05
4.15153e-05
4.13859e-05
4.22149e-05
5.50781e-05
0.000108074
0.000128813
6.86486e-05
5.11474e-05
4.82982e-05
4.73444e-05
4.69709e-05
4.63531e-05
4.58984e-05
4.53459e-05
4.48414e-05
4.43421e-05
4.38006e-05
4.33595e-05
4.27668e-05
4.239e-05
4.17134e-05
4.15918e-05
4.24353e-05
5.53417e-05
0.000108328
0.000129017
6.86597e-05
5.12862e-05
4.8535e-05
4.7576e-05
4.71984e-05
4.65708e-05
4.61156e-05
4.5559e-05
4.50509e-05
4.45515e-05
4.4008e-05
4.35673e-05
4.29695e-05
4.25949e-05
4.19136e-05
4.17982e-05
4.26545e-05
5.55979e-05
0.000108562
0.000129219
6.87071e-05
5.14374e-05
4.87669e-05
4.78028e-05
4.74223e-05
4.67894e-05
4.63334e-05
4.57724e-05
4.52617e-05
4.47629e-05
4.4216e-05
4.37754e-05
4.31737e-05
4.28006e-05
4.21147e-05
4.20046e-05
4.28727e-05
5.58483e-05
0.000108779
0.000129422
6.87802e-05
5.15974e-05
4.89928e-05
4.80275e-05
4.76463e-05
4.70095e-05
4.65509e-05
4.59859e-05
4.54751e-05
4.4975e-05
4.44247e-05
4.39848e-05
4.33793e-05
4.30062e-05
4.23164e-05
4.22108e-05
4.30902e-05
5.6094e-05
0.000108981
0.000129627
6.88688e-05
5.17638e-05
4.92163e-05
4.82519e-05
4.78707e-05
4.72295e-05
4.67685e-05
4.62011e-05
4.56896e-05
4.51879e-05
4.46353e-05
4.41948e-05
4.35844e-05
4.32115e-05
4.25194e-05
4.24171e-05
4.33069e-05
5.63365e-05
0.00010917
0.00012983
6.8969e-05
5.19377e-05
4.94395e-05
4.84765e-05
4.80949e-05
4.74499e-05
4.69864e-05
4.64183e-05
4.59051e-05
4.54022e-05
4.48468e-05
4.44039e-05
4.37893e-05
4.34177e-05
4.27234e-05
4.26233e-05
4.35236e-05
5.65776e-05
0.000109347
0.000130029
6.90847e-05
5.2119e-05
4.96627e-05
4.87018e-05
4.83194e-05
4.76706e-05
4.72066e-05
4.66375e-05
4.61224e-05
4.56176e-05
4.50577e-05
4.46126e-05
4.39962e-05
4.36257e-05
4.29286e-05
4.28299e-05
4.37412e-05
5.68181e-05
0.000109513
0.000130228
6.92104e-05
5.23067e-05
4.98859e-05
4.89279e-05
4.85442e-05
4.78933e-05
4.74293e-05
4.68586e-05
4.63407e-05
4.58329e-05
4.52688e-05
4.48234e-05
4.42061e-05
4.38354e-05
4.31352e-05
4.30373e-05
4.39591e-05
5.70577e-05
0.000109669
0.000130424
6.93414e-05
5.25007e-05
5.01097e-05
4.91549e-05
4.87692e-05
4.81188e-05
4.76536e-05
4.70807e-05
4.65594e-05
4.60488e-05
4.54824e-05
4.50376e-05
4.44183e-05
4.40459e-05
4.33426e-05
4.32447e-05
4.41765e-05
5.7298e-05
0.000109818
0.000130614
6.94848e-05
5.26998e-05
5.03341e-05
4.93825e-05
4.89966e-05
4.83459e-05
4.78781e-05
4.73034e-05
4.67789e-05
4.62666e-05
4.56991e-05
4.5254e-05
4.46314e-05
4.42564e-05
4.35499e-05
4.34515e-05
4.43948e-05
5.75421e-05
0.00010996
0.000130801
6.96403e-05
5.29027e-05
5.05594e-05
4.96114e-05
4.92249e-05
4.85729e-05
4.81026e-05
4.75266e-05
4.69993e-05
4.64866e-05
4.59176e-05
4.54705e-05
4.4844e-05
4.44663e-05
4.37571e-05
4.36593e-05
4.46159e-05
5.77911e-05
0.000110095
0.000130989
6.9802e-05
5.31093e-05
5.07854e-05
4.98408e-05
4.94521e-05
4.87998e-05
4.83276e-05
4.775e-05
4.72204e-05
4.67075e-05
4.61361e-05
4.56862e-05
4.50561e-05
4.46762e-05
4.39659e-05
4.38695e-05
4.48397e-05
5.8044e-05
0.000110219
0.000131181
6.99669e-05
5.33176e-05
5.10111e-05
5.00699e-05
4.96793e-05
4.90274e-05
4.85524e-05
4.7973e-05
4.7442e-05
4.69284e-05
4.63537e-05
4.59013e-05
4.5269e-05
4.48878e-05
4.41774e-05
4.40819e-05
4.50646e-05
5.82878e-05
0.000110339
0.000131373
7.01326e-05
5.35269e-05
5.12369e-05
5.02998e-05
4.99077e-05
4.92553e-05
4.87763e-05
4.81961e-05
4.7664e-05
4.71487e-05
4.65711e-05
4.61174e-05
4.54843e-05
4.51022e-05
4.43915e-05
4.42956e-05
4.52903e-05
5.85001e-05
0.000110474
0.000131563
7.02993e-05
5.37386e-05
5.14647e-05
5.05315e-05
5.01368e-05