/*--------------------------------*- C++ -*----------------------------------*\
  =========                 |
  \\      /  F ield         | OpenFOAM: The Open Source CFD Toolbox
   \\    /   O peration     | Website:  https://openfoam.org
    \\  /    A nd           | Version:  8
     \\/     M anipulation  |
\*---------------------------------------------------------------------------*/
FoamFile
{
    version     2.0;
    format      ascii;
    class       volScalarField;
    location    "900";
    object      epsilon;
}
// * * * * * * * * * * * * * * * * * * * * * * * * * * * * * * * * * * * * * //

dimensions      [0 2 -3 0 0 0 0];

internalField   nonuniform List<scalar> 
1200
(
5.35744e-06
5.2696e-06
5.17738e-06
5.08255e-06
4.98724e-06
4.89859e-06
4.80413e-06
4.71333e-06
4.62829e-06
4.52059e-06
4.53842e-06
4.69874e-06
4.86738e-06
4.90114e-06
4.68826e-06
3.7761e-06
3.76284e-06
4.34512e-06
4.79162e-06
5.56287e-06
6.67408e-06
8.21623e-06
1.00325e-05
1.1747e-05
3.22356e-05
3.47758e-05
3.74183e-05
3.95665e-05
4.15165e-05
4.35949e-05
4.60721e-05
4.89926e-05
5.2449e-05
5.6366e-05
6.01354e-05
6.36551e-05
6.69076e-05
6.9857e-05
7.20224e-05
7.24689e-05
7.08738e-05
6.94329e-05
7.26919e-05
8.33237e-05
9.45491e-05
0.000100504
9.95343e-05
8.46903e-05
8.66319e-05
9.54155e-05
0.000131122
0.000137549
0.00011284
9.06645e-05
0.00013854
0.000164301
0.000179647
0.000184045
0.000196489
0.00198322
5.37698e-06
4.65687e-06
4.04141e-06
3.51459e-06
3.06677e-06
2.69646e-06
2.39503e-06
2.15843e-06
2.02403e-06
1.85494e-06
2.20899e-06
2.87128e-06
2.7272e-06
2.64147e-06
2.00859e-06
2.16186e-06
3.63338e-06
5.39415e-06
4.72621e-06
3.46302e-06
3.98233e-06
5.00729e-06
6.09675e-06
7.14573e-06
7.94207e-06
8.26215e-06
8.29716e-06
8.34482e-06
8.41511e-06
8.50109e-06
8.6058e-06
8.74078e-06
8.85457e-06
8.98988e-06
9.22724e-06
9.5189e-06
9.88587e-06
1.06115e-05
4.92798e-05
5.01149e-05
1.11784e-05
1.06857e-05
1.07694e-05
5.27537e-05
6.7308e-05
8.87826e-05
9.95393e-05
8.45598e-05
7.47971e-05
9.64895e-05
7.17088e-05
6.39439e-05
5.8021e-05
6.64162e-05
8.45243e-05
8.35033e-05
0.000110492
0.000205157
0.000222791
0.00067908
5.36995e-06
4.62444e-06
3.98073e-06
3.4256e-06
2.95137e-06
2.54585e-06
2.20467e-06
1.91276e-06
1.68582e-06
1.51219e-06
1.69022e-06
2.09802e-06
1.83455e-06
1.45788e-06
1.2852e-06
2.72681e-06
5.38304e-06
7.59628e-06
7.64941e-06
6.11392e-06
6.32173e-06
7.4082e-06
9.01081e-06
1.0364e-05
1.07633e-05
1.06048e-05
1.02525e-05
1.03832e-05
1.05117e-05
1.06496e-05
1.08165e-05
1.1016e-05
1.12144e-05
1.13574e-05
1.14231e-05
1.14227e-05
1.12635e-05
1.0791e-05
1.1198e-05
1.14727e-05
5.05757e-05
5.57421e-05
5.98076e-05
5.76882e-05
7.07779e-05
8.86986e-05
0.000126983
0.000229464
0.000208957
8.10086e-05
9.5264e-05
0.000153109
0.000306322
0.000278492
0.000197667
0.000398221
0.000822877
0.000883113
0.00193758
0.00554885
5.37089e-06
4.62744e-06
3.9866e-06
3.43144e-06
2.95287e-06
2.54755e-06
2.201e-06
1.89799e-06
1.64007e-06
1.43105e-06
1.47072e-06
1.7354e-06
1.70498e-06
1.46052e-06
1.18283e-06
4.27205e-06
8.20332e-06
8.94069e-06
9.82962e-06
1.05551e-05
1.09275e-05
1.11666e-05
1.13141e-05
1.14548e-05
1.15148e-05
1.14945e-05
1.14367e-05
1.12777e-05
1.10523e-05
1.09082e-05
1.11258e-05
1.14193e-05
4.93735e-05
5.65172e-05
6.52086e-05
7.53879e-05
8.69041e-05
9.90736e-05
0.000112189
0.000131514
0.000159772
0.000192074
0.000221258
0.000254195
0.000313759
0.000397766
0.000505326
0.000610282
0.000687852
0.000727928
0.000818835
0.00102898
0.00126693
0.00134292
0.00114323
0.000951653
0.000859457
0.000908517
0.00386663
0.011495
5.37075e-06
4.62795e-06
3.98833e-06
3.43257e-06
2.95223e-06
2.54216e-06
2.19846e-06
1.89963e-06
1.64041e-06
1.42156e-06
1.3317e-06
1.4283e-06
1.47627e-06
1.4062e-06
1.27091e-06
1.75576e-06
3.40719e-06
4.92733e-06
7.63376e-06
9.16091e-06
9.94276e-06
1.0415e-05
1.07115e-05
1.08488e-05
1.08913e-05
1.09126e-05
1.08314e-05
1.05978e-05
1.0414e-05
1.06271e-05
1.09961e-05
1.13503e-05
4.96272e-05
5.29626e-05
6.20734e-05
7.31706e-05
8.67457e-05
0.000104716
0.000125296
0.000149258
0.000178663
0.000214452
0.000262964
0.00032185
0.000391469
0.00048216
0.00059788
0.000759487
0.000973045
0.0012011
0.00143752
0.00175423
0.00216909
0.0026696
0.00331679
0.00411365
0.00517202
0.00633665
0.00908571
0.0163591
5.36936e-06
4.62906e-06
3.99192e-06
3.4357e-06
2.95356e-06
2.54219e-06
2.19685e-06
1.90196e-06
1.64567e-06
1.42668e-06
1.27437e-06
1.23476e-06
1.23097e-06
1.20245e-06
1.14725e-06
1.25331e-06
2.06543e-06
2.90489e-06
4.14377e-06
5.72492e-06
7.25703e-06
8.52122e-06
9.31818e-06
9.32347e-06
9.59939e-06
1.01585e-05
1.02588e-05
1.01393e-05
9.94277e-06
9.87995e-06
9.92847e-06
9.91329e-06
9.89721e-06
9.90967e-06
9.79276e-06
1.00722e-05
1.15166e-05
6.17392e-05
7.50066e-05
8.46737e-05
8.90728e-05
9.50214e-05
0.000128238
0.000171134
0.000209092
0.000246284
0.000306112
0.000427968
0.000632561
0.00087025
0.00110874
0.00134677
0.00162353
0.00206978
0.00284116
0.00381658
0.00506636
0.00694014
0.0101867
0.0169232
5.36776e-06
4.63065e-06
3.99681e-06
3.44095e-06
2.9569e-06
2.54403e-06
2.19654e-06
1.90427e-06
1.65069e-06
1.43225e-06
1.26202e-06
1.15093e-06
1.08052e-06
1.02667e-06
9.78149e-07
1.01168e-06
1.3236e-06
1.66008e-06
2.44167e-06
3.45666e-06
4.61613e-06
5.86678e-06
6.69728e-06
6.93495e-06
7.10191e-06
7.65155e-06
8.23098e-06
8.5171e-06
8.68441e-06
8.79368e-06
8.77215e-06
8.55228e-06
8.37535e-06
8.05859e-06
7.27547e-06
7.54789e-06
8.06849e-06
9.2169e-06
1.05842e-05
1.15653e-05
9.4637e-06
9.5988e-06
1.10277e-05
5.51695e-05
6.64881e-05
5.4531e-05
1.0953e-05
5.2394e-05
0.000143088
0.000293016
0.000436922
0.000462104
0.000428745
0.000644265
0.0012095
0.00201618
0.002935
0.00450255
0.00789396
0.0151295
5.36708e-06
4.62971e-06
3.99559e-06
3.43837e-06
2.95514e-06
2.54604e-06
2.20241e-06
1.91108e-06
1.65943e-06
1.44342e-06
1.26537e-06
1.12736e-06
1.02066e-06
9.38738e-07
8.77234e-07
8.64066e-07
9.60939e-07
1.07998e-06
1.41131e-06
1.97991e-06
2.67627e-06
3.46244e-06
4.02218e-06
4.24546e-06
4.71629e-06
5.6692e-06
6.69106e-06
7.4598e-06
7.93162e-06
8.17993e-06
8.27368e-06
8.25224e-06
8.15902e-06
8.03939e-06
7.9258e-06
7.85688e-06
7.85819e-06
8.0265e-06
8.29378e-06
8.34836e-06
8.2609e-06
8.08254e-06
8.04521e-06
8.18747e-06
8.897e-06
9.47418e-06
9.09714e-06
9.02627e-06
4.95451e-05
7.26276e-05
0.000103598
0.000127972
0.000106234
7.48928e-05
8.43716e-05
0.000317899
0.000778447
0.00130502
0.0027076
0.00511489
5.37521e-06
4.66265e-06
4.05939e-06
3.52973e-06
3.06142e-06
2.66318e-06
2.33025e-06
2.04703e-06
1.79794e-06
1.57788e-06
1.38691e-06
1.23088e-06
1.10843e-06
1.01203e-06
9.31831e-07
8.6852e-07
8.53445e-07
8.6943e-07
9.63504e-07
1.16418e-06
1.46574e-06
1.83681e-06
2.1361e-06
2.23719e-06
2.35757e-06
2.87296e-06
3.74151e-06
4.66751e-06
5.41905e-06
5.91025e-06
6.16195e-06
6.2405e-06
6.20348e-06
6.13295e-06
6.12368e-06
6.19543e-06
6.33564e-06
6.50412e-06
6.65774e-06
6.73695e-06
6.77748e-06
6.79346e-06
6.87936e-06
7.00444e-06
7.12097e-06
7.23095e-06
7.54491e-06
7.58341e-06
7.71427e-06
8.00987e-06
8.70753e-06
9.61391e-06
1.00228e-05
1.04929e-05
1.04912e-05
1.1543e-05
7.64099e-05
0.000173688
0.000468361
0.000860319
5.3526e-06
5.27355e-06
5.1997e-06
5.10787e-06
4.99919e-06
4.89513e-06
4.80062e-06
4.69015e-06
4.5261e-06
4.30515e-06
4.04342e-06
3.83571e-06
3.73132e-06
3.70737e-06
3.68795e-06
3.4887e-06
3.30285e-06
3.21202e-06
3.13118e-06
3.11542e-06
3.1866e-06
3.35439e-06
3.60573e-06
3.94825e-06
4.3501e-06
4.80579e-06
5.40021e-06
6.15937e-06
7.03984e-06
8.01298e-06
9.08193e-06
1.0269e-05
1.16417e-05
3.31756e-05
3.71196e-05
4.13018e-05
4.52642e-05
4.93057e-05
5.38547e-05
5.93698e-05
6.55412e-05
7.1903e-05
7.76063e-05
8.36785e-05
9.05789e-05
0.000100933
0.000111132
0.000120445
0.000128374
0.000136646
0.000144042
0.000151901
0.000167985
0.000184562
0.000197986
0.000210954
0.00022892
0.000251761
0.000286841
0.000344726
5.35421e-06
5.26621e-06
5.17225e-06
5.07789e-06
4.98269e-06
4.89236e-06
4.80174e-06
4.71284e-06
4.62831e-06
4.52231e-06
4.5416e-06
4.70544e-06
4.87623e-06
4.91733e-06
4.72143e-06
3.78499e-06
3.75802e-06
4.34864e-06
4.79379e-06
5.54111e-06
6.63654e-06
8.16959e-06
9.98759e-06
1.17208e-05
3.21883e-05
3.47211e-05
3.73748e-05
3.95559e-05
4.15178e-05
4.3611e-05
4.61192e-05
4.90649e-05
5.25168e-05
5.64064e-05
6.01835e-05
6.37215e-05
6.69673e-05
6.97107e-05
7.13633e-05
7.16515e-05
7.29976e-05
7.39071e-05
7.79582e-05
8.81952e-05
0.000100001
0.0001075
0.000106078
9.60086e-05
8.91065e-05
9.19013e-05
0.000124302
0.000131686
0.000127568
0.000107338
0.000113991
0.000144907
0.000171348
0.000182268
0.000184683
0.00269125
5.37827e-06
4.65662e-06
4.03982e-06
3.51519e-06
3.07025e-06
2.69224e-06
2.38768e-06
2.15418e-06
2.02012e-06
1.85712e-06
2.20004e-06
2.86132e-06
2.72484e-06
2.64637e-06
2.02102e-06
2.15762e-06
3.6382e-06
5.42196e-06
4.86537e-06
3.50629e-06
3.96438e-06
4.97558e-06
6.05911e-06
7.11047e-06
7.91877e-06
8.2508e-06
8.28561e-06
8.32625e-06
8.39492e-06
8.47962e-06
8.57076e-06
8.69374e-06
8.80507e-06
8.95118e-06
9.20193e-06
9.5153e-06
9.95946e-06
1.09019e-05
5.15544e-05
1.16465e-05
1.12702e-05
1.05816e-05
1.03994e-05
1.13553e-05
5.79522e-05
7.4664e-05
9.63196e-05
9.15058e-05
7.61654e-05
9.47091e-05
7.00818e-05
6.62516e-05
5.79466e-05
6.50291e-05
6.91912e-05
7.99037e-05
0.000103523
0.000200947
0.000214702
0.000586395
5.37074e-06
4.62448e-06
3.97991e-06
3.42626e-06
2.95378e-06
2.54589e-06
2.20261e-06
1.91203e-06
1.68477e-06
1.51229e-06
1.68321e-06
2.09012e-06
1.8346e-06
1.46093e-06
1.30468e-06
2.71746e-06
5.38561e-06
7.60647e-06
7.71947e-06
6.19543e-06
6.33275e-06
7.36384e-06
8.9251e-06
1.0307e-05
1.07119e-05
1.05627e-05
1.02205e-05
1.03489e-05
1.04797e-05
1.06217e-05
1.07936e-05
1.09951e-05
1.11875e-05
1.13112e-05
1.13554e-05
1.13198e-05
1.11526e-05
1.07796e-05
1.12888e-05
1.14549e-05
1.16072e-05
5.28524e-05
5.44208e-05
5.40424e-05
6.23525e-05
7.84465e-05
0.000123071
0.000244608
0.000228029
7.89496e-05
9.41723e-05
0.00015986
0.000321463
0.000292793
0.000214215
0.000437947
0.000862942
0.000934558
0.0020833
0.00614983
5.36968e-06
4.62811e-06
3.98715e-06
3.43199e-06
2.95417e-06
2.54501e-06
2.19854e-06
1.89796e-06
1.64006e-06
1.43103e-06
1.46532e-06
1.72793e-06
1.70115e-06
1.45985e-06
1.1821e-06
4.2279e-06
8.19095e-06
8.92202e-06
9.80926e-06
1.05386e-05
1.09118e-05
1.11435e-05
1.12814e-05
1.14206e-05
1.14791e-05
1.14506e-05
1.13822e-05
1.12081e-05
1.09819e-05
1.08809e-05
1.11347e-05
1.14409e-05
4.95757e-05
5.6537e-05
6.52551e-05
7.54936e-05
8.73626e-05
0.000100804
0.000115293
0.000135093
0.000162443
0.000192982
0.000221915
0.000254403
0.000317208
0.000405432
0.000514043
0.000619493
0.000702243
0.000748908
0.000843283
0.0010615
0.00131052
0.00140627
0.00121656
0.00102355
0.000918078
0.000931681
0.00398392
0.0120067
5.36826e-06
4.62954e-06
3.98868e-06
3.4316e-06
2.95383e-06
2.54153e-06
2.19574e-06
1.8989e-06
1.64034e-06
1.42149e-06
1.32904e-06
1.42302e-06
1.47147e-06
1.40298e-06
1.26758e-06
1.8481e-06
3.45424e-06
4.99253e-06
7.71888e-06
9.14497e-06
9.9274e-06
1.04009e-05
1.06934e-05
1.08256e-05
1.08571e-05
1.08622e-05
1.07625e-05
1.05239e-05
1.03747e-05
1.06157e-05
1.09755e-05
1.13162e-05
1.16691e-05
5.26914e-05
6.17914e-05
7.29781e-05
8.64875e-05
0.000104244
0.000125269
0.000149353
0.000178359
0.000213965
0.000263382
0.000321199
0.000391452
0.000482609
0.000596999
0.000757714
0.000974446
0.00120864
0.0014505
0.00177108
0.00218721
0.00268863
0.00334637
0.00416945
0.00525507
0.00643295
0.00916325
0.0164615
5.36751e-06
4.63133e-06
3.99212e-06
3.43378e-06
2.95458e-06
2.54455e-06
2.19654e-06
1.90192e-06
1.64567e-06
1.42607e-06
1.27324e-06
1.23219e-06
1.22774e-06
1.20002e-06
1.14533e-06
1.26823e-06
2.08399e-06
2.94012e-06
4.18596e-06
5.74298e-06
7.26501e-06
8.53077e-06
9.3182e-06
9.33052e-06
9.57063e-06
1.01114e-05
1.02028e-05
1.00764e-05
9.87744e-06
9.82493e-06
9.87541e-06
9.86691e-06
9.85966e-06
9.86689e-06
9.78734e-06
1.02395e-05
1.16451e-05
5.65474e-05
6.9168e-05
7.8743e-05
8.45525e-05
9.50885e-05
0.000128377
0.000170937
0.000206066
0.000238587
0.00029643
0.000419347
0.000626427
0.000866311
0.0011064
0.00134413
0.00161926
0.00206485
0.00284516
0.00383228
0.00509393
0.00698117
0.0102176
0.0169059
5.36774e-06
4.63289e-06
3.99695e-06
3.4387e-06
2.95703e-06
2.54698e-06
2.19971e-06
1.9065e-06
1.65159e-06
1.43187e-06
1.25992e-06
1.14956e-06
1.07888e-06
1.02563e-06
9.7815e-07
1.01217e-06
1.33031e-06
1.68652e-06
2.47851e-06
3.4744e-06
4.62154e-06
5.86684e-06
6.68355e-06
6.9271e-06
7.11957e-06
7.70121e-06
8.2912e-06
8.56222e-06
8.7102e-06
8.80184e-06
8.77944e-06
8.57324e-06
8.40271e-06
8.14017e-06
7.34326e-06
7.72823e-06
8.24726e-06
9.12914e-06
1.04524e-05
1.15756e-05
9.41677e-06
9.55509e-06
1.0993e-05
5.39054e-05
6.81268e-05
5.7203e-05
1.14134e-05
5.41818e-05
0.000134677
0.000284419
0.00042817
0.000451062
0.000417278
0.000637031
0.00120652
0.00202017
0.00294731
0.00451321
0.00789266
0.0151024
5.36854e-06
4.6313e-06
3.99394e-06
3.43455e-06
2.95484e-06
2.5508e-06
2.20837e-06
1.91418e-06
1.66033e-06
1.44466e-06
1.26608e-06
1.12714e-06
1.01995e-06
9.37383e-07
8.76775e-07
8.62385e-07
9.58473e-07
1.08868e-06
1.43731e-06
2.00163e-06
2.68546e-06
3.46027e-06
4.00509e-06
4.23512e-06
4.7451e-06
5.73204e-06
6.7652e-06
7.53002e-06
7.98704e-06
8.21892e-06
8.30337e-06
8.27383e-06
8.17571e-06
8.05412e-06
7.94407e-06
7.88103e-06
7.89066e-06
8.0603e-06
8.313e-06
8.3906e-06
8.30605e-06
8.12037e-06
8.08016e-06
8.21357e-06
8.69291e-06
9.65977e-06
9.32823e-06
9.36087e-06
4.95873e-05
6.17711e-05
9.1452e-05
0.000118758
9.86125e-05
6.90855e-05
8.11786e-05
0.000318459
0.000788606
0.00132087
0.002723
0.00510007
5.37684e-06
4.66445e-06
4.05798e-06
3.52413e-06
3.05898e-06
2.66795e-06
2.3371e-06
2.05174e-06
1.80012e-06
1.57885e-06
1.38674e-06
1.23059e-06
1.10939e-06
1.01338e-06
9.32466e-07
8.68652e-07
8.53849e-07
8.72246e-07
9.73225e-07
1.1761e-06
1.47571e-06
1.84053e-06
2.12871e-06
2.22371e-06
2.35816e-06
2.9088e-06
3.8018e-06
4.73006e-06
5.46558e-06
5.93541e-06
6.17042e-06
6.23649e-06
6.19323e-06
6.12658e-06
6.12808e-06
6.20807e-06
6.34979e-06
6.51966e-06
6.672e-06
6.75176e-06
6.7726e-06
6.80402e-06
6.89271e-06
7.02002e-06
7.11969e-06
7.25732e-06
7.57849e-06
7.58041e-06
7.71759e-06
8.01659e-06
8.84395e-06
9.74056e-06
1.0032e-05
1.0512e-05
1.04849e-05
1.14493e-05
7.76837e-05
0.000177866
0.000474618
0.000859313
5.35792e-06
5.27578e-06
5.18751e-06
5.09348e-06
5.00181e-06
4.91331e-06
4.81904e-06
4.70017e-06
4.53391e-06
4.31481e-06
4.04799e-06
3.83997e-06
3.74308e-06
3.72331e-06
3.70419e-06
3.49874e-06
3.31203e-06
3.20839e-06
3.11379e-06
3.09852e-06
3.1787e-06
3.35586e-06
3.60881e-06
3.94157e-06
4.3339e-06
4.7917e-06
5.40175e-06
6.17186e-06
7.05312e-06
8.02205e-06
9.08599e-06
1.02721e-05
1.16539e-05
3.32571e-05
3.72008e-05
4.13747e-05
4.53905e-05
4.94335e-05
5.39305e-05
5.92593e-05
6.54232e-05
7.18221e-05
7.78285e-05
8.4046e-05
9.14273e-05
0.000101769
0.000111187
0.000120136
0.000127629
0.000135618
0.000142701
0.000151771
0.000169014
0.000185264
0.000198106
0.000211353
0.00022933
0.000252129
0.000287374
0.000344777
)
;

boundaryField
{
    wall
    {
        type            epsilonWallFunction;
        value           nonuniform List<scalar> 
1200
(
5.35744e-06
5.37698e-06
5.36995e-06
5.37089e-06
5.37075e-06
5.36936e-06
5.36776e-06
5.36708e-06
5.37521e-06
5.3526e-06
5.2696e-06
4.65687e-06
4.62444e-06
4.62744e-06
4.62795e-06
4.62906e-06
4.63065e-06
4.62971e-06
4.66265e-06
5.27355e-06
5.17738e-06
4.04141e-06
3.98073e-06
3.9866e-06
3.98833e-06
3.99192e-06
3.99681e-06
3.99559e-06
4.05939e-06
5.1997e-06
5.08255e-06
3.51459e-06
3.4256e-06
3.43144e-06
3.43257e-06
3.4357e-06
3.44095e-06
3.43837e-06
3.52973e-06
5.10787e-06
4.98724e-06
3.06677e-06
2.95137e-06
2.95287e-06
2.95223e-06
2.95356e-06
2.9569e-06
2.95514e-06
3.06142e-06
4.99919e-06
4.89859e-06
2.69646e-06
2.54585e-06
2.54755e-06
2.54216e-06
2.54219e-06
2.54403e-06
2.54604e-06
2.66318e-06
4.89513e-06
4.80413e-06
2.39503e-06
2.20467e-06
2.201e-06
2.19846e-06
2.19685e-06
2.19654e-06
2.20241e-06
2.33025e-06
4.80062e-06
4.71333e-06
2.15843e-06
1.91276e-06
1.89799e-06
1.89963e-06
1.90196e-06
1.90427e-06
1.91108e-06
2.04703e-06
4.69015e-06
4.62829e-06
2.02403e-06
1.68582e-06
1.64007e-06
1.64041e-06
1.64567e-06
1.65069e-06
1.65943e-06
1.79794e-06
4.5261e-06
4.52059e-06
1.85494e-06
1.51219e-06
1.43105e-06
1.42156e-06
1.42668e-06
1.43225e-06
1.44342e-06
1.57788e-06
4.30515e-06
4.53842e-06
2.20899e-06
1.69022e-06
1.47072e-06
1.3317e-06
1.27437e-06
1.26202e-06
1.26537e-06
1.38691e-06
4.04342e-06
4.69874e-06
2.87128e-06
2.09802e-06
1.7354e-06
1.4283e-06
1.23476e-06
1.15093e-06
1.12736e-06
1.23088e-06
3.83571e-06
4.86738e-06
2.7272e-06
1.83455e-06
1.70498e-06
1.47627e-06
1.23097e-06
1.08052e-06
1.02066e-06
1.10843e-06
3.73132e-06
4.90114e-06
2.64147e-06
1.45788e-06
1.46052e-06
1.4062e-06
1.20245e-06
1.02667e-06
9.38738e-07
1.01203e-06
3.70737e-06
4.68826e-06
2.00859e-06
1.2852e-06
1.18283e-06
1.27091e-06
1.14725e-06
9.78149e-07
8.77234e-07
9.31831e-07
3.68795e-06
3.7761e-06
2.16186e-06
2.72681e-06
4.27205e-06
1.75576e-06
1.25331e-06
1.01168e-06
8.64066e-07
8.6852e-07
3.4887e-06
3.76284e-06
3.63338e-06
5.38304e-06
8.20332e-06
3.40719e-06
2.06543e-06
1.3236e-06
9.60939e-07
8.53445e-07
3.30285e-06
4.34512e-06
5.39415e-06
7.59628e-06
8.94069e-06
4.92733e-06
2.90489e-06
1.66008e-06
1.07998e-06
8.6943e-07
3.21202e-06
4.79162e-06
4.72621e-06
7.64941e-06
9.82962e-06
7.63376e-06
4.14377e-06
2.44167e-06
1.41131e-06
9.63504e-07
3.13118e-06
5.56287e-06
3.46302e-06
6.11392e-06
1.05551e-05
9.16091e-06
5.72492e-06
3.45666e-06
1.97991e-06
1.16418e-06
3.11542e-06
6.67408e-06
3.98233e-06
6.32173e-06
1.09275e-05
9.94276e-06
7.25703e-06
4.61613e-06
2.67627e-06
1.46574e-06
3.1866e-06
8.21623e-06
5.00729e-06
7.4082e-06
1.11666e-05
1.0415e-05
8.52122e-06
5.86678e-06
3.46244e-06
1.83681e-06
3.35439e-06
1.00325e-05
6.09675e-06
9.01081e-06
1.13141e-05
1.07115e-05
9.31818e-06
6.69728e-06
4.02218e-06
2.1361e-06
3.60573e-06
1.1747e-05
7.14573e-06
1.0364e-05
1.14548e-05
1.08488e-05
9.32347e-06
6.93495e-06
4.24546e-06
2.23719e-06
3.94825e-06
3.22356e-05
7.94207e-06
1.07633e-05
1.15148e-05
1.08913e-05
9.59939e-06
7.10191e-06
4.71629e-06
2.35757e-06
4.3501e-06
3.47758e-05
8.26215e-06
1.06048e-05
1.14945e-05
1.09126e-05
1.01585e-05
7.65155e-06
5.6692e-06
2.87296e-06
4.80579e-06
3.74183e-05
8.29716e-06
1.02525e-05
1.14367e-05
1.08314e-05
1.02588e-05
8.23098e-06
6.69106e-06
3.74151e-06
5.40021e-06
3.95665e-05
8.34482e-06
1.03832e-05
1.12777e-05
1.05978e-05
1.01393e-05
8.5171e-06
7.4598e-06
4.66751e-06
6.15937e-06
4.15165e-05
8.41511e-06
1.05117e-05
1.10523e-05
1.0414e-05
9.94277e-06
8.68441e-06
7.93162e-06
5.41905e-06
7.03984e-06
4.35949e-05
8.50109e-06
1.06496e-05
1.09082e-05
1.06271e-05
9.87995e-06
8.79368e-06
8.17993e-06
5.91025e-06
8.01298e-06
4.60721e-05
8.6058e-06
1.08165e-05
1.11258e-05
1.09961e-05
9.92847e-06
8.77215e-06
8.27368e-06
6.16195e-06
9.08193e-06
4.89926e-05
8.74078e-06
1.1016e-05
1.14193e-05
1.13503e-05
9.91329e-06
8.55228e-06
8.25224e-06
6.2405e-06
1.0269e-05
5.2449e-05
8.85457e-06
1.12144e-05
4.93735e-05
4.96272e-05
9.89721e-06
8.37535e-06
8.15902e-06
6.20348e-06
1.16417e-05
5.6366e-05
8.98988e-06
1.13574e-05
5.65172e-05
5.29626e-05
9.90967e-06
8.05859e-06
8.03939e-06
6.13295e-06
3.31756e-05
6.01354e-05
9.22724e-06
1.14231e-05
6.52086e-05
6.20734e-05
9.79276e-06
7.27547e-06
7.9258e-06
6.12368e-06
3.71196e-05
6.36551e-05
9.5189e-06
1.14227e-05
7.53879e-05
7.31706e-05
1.00722e-05
7.54789e-06
7.85688e-06
6.19543e-06
4.13018e-05
6.69076e-05
9.88587e-06
1.12635e-05
8.69041e-05
8.67457e-05
1.15166e-05
8.06849e-06
7.85819e-06
6.33564e-06
4.52642e-05
6.9857e-05
1.06115e-05
1.0791e-05
9.90736e-05
0.000104716
6.17392e-05
9.2169e-06
8.0265e-06
6.50412e-06
4.93057e-05
7.20224e-05
4.92798e-05
1.1198e-05
0.000112189
0.000125296
7.50066e-05
1.05842e-05
8.29378e-06
6.65774e-06
5.38547e-05
7.24689e-05
5.01149e-05
1.14727e-05
0.000131514
0.000149258
8.46737e-05
1.15653e-05
8.34836e-06
6.73695e-06
5.93698e-05
7.08738e-05
1.11784e-05
5.05757e-05
0.000159772
0.000178663
8.90728e-05
9.4637e-06
8.2609e-06
6.77748e-06
6.55412e-05
6.94329e-05
1.06857e-05
5.57421e-05
0.000192074
0.000214452
9.50214e-05
9.5988e-06
8.08254e-06
6.79346e-06
7.1903e-05
7.26919e-05
1.07694e-05
5.98076e-05
0.000221258
0.000262964
0.000128238
1.10277e-05
8.04521e-06
6.87936e-06
7.76063e-05
8.33237e-05
5.27537e-05
5.76882e-05
0.000254195
0.00032185
0.000171134
5.51695e-05
8.18747e-06
7.00444e-06
8.36785e-05
9.45491e-05
6.7308e-05
7.07779e-05
0.000313759
0.000391469
0.000209092
6.64881e-05
8.897e-06
7.12097e-06
9.05789e-05
0.000100504
8.87826e-05
8.86986e-05
0.000397766
0.00048216
0.000246284
5.4531e-05
9.47418e-06
7.23095e-06
0.000100933
9.95343e-05
9.95393e-05
0.000126983
0.000505326
0.00059788
0.000306112
1.0953e-05
9.09714e-06
7.54491e-06
0.000111132
8.46903e-05
8.45598e-05
0.000229464
0.000610282
0.000759487
0.000427968
5.2394e-05
9.02627e-06
7.58341e-06
0.000120445
8.66319e-05
7.47971e-05
0.000208957
0.000687852
0.000973045
0.000632561
0.000143088
4.95451e-05
7.71427e-06
0.000128374
9.54155e-05
9.64895e-05
8.10086e-05
0.000727928
0.0012011
0.00087025
0.000293016
7.26276e-05
8.00987e-06
0.000136646
0.000131122
7.17088e-05
9.5264e-05
0.000818835
0.00143752
0.00110874
0.000436922
0.000103598
8.70753e-06
0.000144042
0.000137549
6.39439e-05
0.000153109
0.00102898
0.00175423
0.00134677
0.000462104
0.000127972
9.61391e-06
0.000151901
0.00011284
5.8021e-05
0.000306322
0.00126693
0.00216909
0.00162353
0.000428745
0.000106234
1.00228e-05
0.000167985
9.06645e-05
6.64162e-05
0.000278492
0.00134292
0.0026696
0.00206978
0.000644265
7.48928e-05
1.04929e-05
0.000184562
0.00013854
8.45243e-05
0.000197667
0.00114323
0.00331679
0.00284116
0.0012095
8.43716e-05
1.04912e-05
0.000197986
0.000164301
8.35033e-05
0.000398221
0.000951653
0.00411365
0.00381658
0.00201618
0.000317899
1.1543e-05
0.000210954
0.000179647
0.000110492
0.000822877
0.000859457
0.00517202
0.00506636
0.002935
0.000778447
7.64099e-05
0.00022892
0.000184045
0.000205157
0.000883113
0.000908517
0.00633665
0.00694014
0.00450255
0.00130502
0.000173688
0.000251761
0.000196489
0.000222791
0.00193758
0.00386663
0.00908571
0.0101867
0.00789396
0.0027076
0.000468361
0.000286841
0.00198322
0.00067908
0.00554885
0.011495
0.0163591
0.0169232
0.0151295
0.00511489
0.000860319
0.000344726
5.35421e-06
5.37827e-06
5.37074e-06
5.36968e-06
5.36826e-06
5.36751e-06
5.36774e-06
5.36854e-06
5.37684e-06
5.35792e-06
5.26621e-06
4.65662e-06
4.62448e-06
4.62811e-06
4.62954e-06
4.63133e-06
4.63289e-06
4.6313e-06
4.66445e-06
5.27578e-06
5.17225e-06
4.03982e-06
3.97991e-06
3.98715e-06
3.98868e-06
3.99212e-06
3.99695e-06
3.99394e-06
4.05798e-06
5.18751e-06
5.07789e-06
3.51519e-06
3.42626e-06
3.43199e-06
3.4316e-06
3.43378e-06
3.4387e-06
3.43455e-06
3.52413e-06
5.09348e-06
4.98269e-06
3.07025e-06
2.95378e-06
2.95417e-06
2.95383e-06
2.95458e-06
2.95703e-06
2.95484e-06
3.05898e-06
5.00181e-06
4.89236e-06
2.69224e-06
2.54589e-06
2.54501e-06
2.54153e-06
2.54455e-06
2.54698e-06
2.5508e-06
2.66795e-06
4.91331e-06
4.80174e-06
2.38768e-06
2.20261e-06
2.19854e-06
2.19574e-06
2.19654e-06
2.19971e-06
2.20837e-06
2.3371e-06
4.81904e-06
4.71284e-06
2.15418e-06
1.91203e-06
1.89796e-06
1.8989e-06
1.90192e-06
1.9065e-06
1.91418e-06
2.05174e-06
4.70017e-06
4.62831e-06
2.02012e-06
1.68477e-06
1.64006e-06
1.64034e-06
1.64567e-06
1.65159e-06
1.66033e-06
1.80012e-06
4.53391e-06
4.52231e-06
1.85712e-06
1.51229e-06
1.43103e-06
1.42149e-06
1.42607e-06
1.43187e-06
1.44466e-06
1.57885e-06
4.31481e-06
4.5416e-06
2.20004e-06
1.68321e-06
1.46532e-06
1.32904e-06
1.27324e-06
1.25992e-06
1.26608e-06
1.38674e-06
4.04799e-06
4.70544e-06
2.86132e-06
2.09012e-06
1.72793e-06
1.42302e-06
1.23219e-06
1.14956e-06
1.12714e-06
1.23059e-06
3.83997e-06
4.87623e-06
2.72484e-06
1.8346e-06
1.70115e-06
1.47147e-06
1.22774e-06
1.07888e-06
1.01995e-06
1.10939e-06
3.74308e-06
4.91733e-06
2.64637e-06
1.46093e-06
1.45985e-06
1.40298e-06
1.20002e-06
1.02563e-06
9.37383e-07
1.01338e-06
3.72331e-06
4.72143e-06
2.02102e-06
1.30468e-06
1.1821e-06
1.26758e-06
1.14533e-06
9.7815e-07
8.76775e-07
9.32466e-07
3.70419e-06
3.78499e-06
2.15762e-06
2.71746e-06
4.2279e-06
1.8481e-06
1.26823e-06
1.01217e-06
8.62385e-07
8.68652e-07
3.49874e-06
3.75802e-06
3.6382e-06
5.38561e-06
8.19095e-06
3.45424e-06
2.08399e-06
1.33031e-06
9.58473e-07
8.53849e-07
3.31203e-06
4.34864e-06
5.42196e-06
7.60647e-06
8.92202e-06
4.99253e-06
2.94012e-06
1.68652e-06
1.08868e-06
8.72246e-07
3.20839e-06
4.79379e-06
4.86537e-06
7.71947e-06
9.80926e-06
7.71888e-06
4.18596e-06
2.47851e-06
1.43731e-06
9.73225e-07
3.11379e-06
5.54111e-06
3.50629e-06
6.19543e-06
1.05386e-05
9.14497e-06
5.74298e-06
3.4744e-06
2.00163e-06
1.1761e-06
3.09852e-06
6.63654e-06
3.96438e-06
6.33275e-06
1.09118e-05
9.9274e-06
7.26501e-06
4.62154e-06
2.68546e-06
1.47571e-06
3.1787e-06
8.16959e-06
4.97558e-06
7.36384e-06
1.11435e-05
1.04009e-05
8.53077e-06
5.86684e-06
3.46027e-06
1.84053e-06
3.35586e-06
9.98759e-06
6.05911e-06
8.9251e-06
1.12814e-05
1.06934e-05
9.3182e-06
6.68355e-06
4.00509e-06
2.12871e-06
3.60881e-06
1.17208e-05
7.11047e-06
1.0307e-05
1.14206e-05
1.08256e-05
9.33052e-06
6.9271e-06
4.23512e-06
2.22371e-06
3.94157e-06
3.21883e-05
7.91877e-06
1.07119e-05
1.14791e-05
1.08571e-05
9.57063e-06
7.11957e-06
4.7451e-06
2.35816e-06
4.3339e-06
3.47211e-05
8.2508e-06
1.05627e-05
1.14506e-05
1.08622e-05
1.01114e-05
7.70121e-06
5.73204e-06
2.9088e-06
4.7917e-06
3.73748e-05
8.28561e-06
1.02205e-05
1.13822e-05
1.07625e-05
1.02028e-05
8.2912e-06
6.7652e-06
3.8018e-06
5.40175e-06
3.95559e-05
8.32625e-06
1.03489e-05
1.12081e-05
1.05239e-05
1.00764e-05
8.56222e-06
7.53002e-06
4.73006e-06
6.17186e-06
4.15178e-05
8.39492e-06
1.04797e-05
1.09819e-05
1.03747e-05
9.87744e-06
8.7102e-06
7.98704e-06
5.46558e-06
7.05312e-06
4.3611e-05
8.47962e-06
1.06217e-05
1.08809e-05
1.06157e-05
9.82493e-06
8.80184e-06
8.21892e-06
5.93541e-06
8.02205e-06
4.61192e-05
8.57076e-06
1.07936e-05
1.11347e-05
1.09755e-05
9.87541e-06
8.77944e-06
8.30337e-06
6.17042e-06
9.08599e-06
4.90649e-05
8.69374e-06
1.09951e-05
1.14409e-05
1.13162e-05
9.86691e-06
8.57324e-06
8.27383e-06
6.23649e-06
1.02721e-05
5.25168e-05
8.80507e-06
1.11875e-05
4.95757e-05
1.16691e-05
9.85966e-06
8.40271e-06
8.17571e-06
6.19323e-06
1.16539e-05
5.64064e-05
8.95118e-06
1.13112e-05
5.6537e-05
5.26914e-05
9.86689e-06
8.14017e-06
8.05412e-06
6.12658e-06
3.32571e-05
6.01835e-05
9.20193e-06
1.13554e-05
6.52551e-05
6.17914e-05
9.78734e-06
7.34326e-06
7.94407e-06
6.12808e-06
3.72008e-05
6.37215e-05
9.5153e-06
1.13198e-05
7.54936e-05
7.29781e-05
1.02395e-05
7.72823e-06
7.88103e-06
6.20807e-06
4.13747e-05
6.69673e-05
9.95946e-06
1.11526e-05
8.73626e-05
8.64875e-05
1.16451e-05
8.24726e-06
7.89066e-06
6.34979e-06
4.53905e-05
6.97107e-05
1.09019e-05
1.07796e-05
0.000100804
0.000104244
5.65474e-05
9.12914e-06
8.0603e-06
6.51966e-06
4.94335e-05
7.13633e-05
5.15544e-05
1.12888e-05
0.000115293
0.000125269
6.9168e-05
1.04524e-05
8.313e-06
6.672e-06
5.39305e-05
7.16515e-05
1.16465e-05
1.14549e-05
0.000135093
0.000149353
7.8743e-05
1.15756e-05
8.3906e-06
6.75176e-06
5.92593e-05
7.29976e-05
1.12702e-05
1.16072e-05
0.000162443
0.000178359
8.45525e-05
9.41677e-06
8.30605e-06
6.7726e-06
6.54232e-05
7.39071e-05
1.05816e-05
5.28524e-05
0.000192982
0.000213965
9.50885e-05
9.55509e-06
8.12037e-06
6.80402e-06
7.18221e-05
7.79582e-05
1.03994e-05
5.44208e-05
0.000221915
0.000263382
0.000128377
1.0993e-05
8.08016e-06
6.89271e-06
7.78285e-05
8.81952e-05
1.13553e-05
5.40424e-05
0.000254403
0.000321199
0.000170937
5.39054e-05
8.21357e-06
7.02002e-06
8.4046e-05
0.000100001
5.79522e-05
6.23525e-05
0.000317208
0.000391452
0.000206066
6.81268e-05
8.69291e-06
7.11969e-06
9.14273e-05
0.0001075
7.4664e-05
7.84465e-05
0.000405432
0.000482609
0.000238587
5.7203e-05
9.65977e-06
7.25732e-06
0.000101769
0.000106078
9.63196e-05
0.000123071
0.000514043
0.000596999
0.00029643
1.14134e-05
9.32823e-06
7.57849e-06
0.000111187
9.60086e-05
9.15058e-05
0.000244608
0.000619493
0.000757714
0.000419347
5.41818e-05
9.36087e-06
7.58041e-06
0.000120136
8.91065e-05
7.61654e-05
0.000228029
0.000702243
0.000974446
0.000626427
0.000134677
4.95873e-05
7.71759e-06
0.000127629
9.19013e-05
9.47091e-05
7.89496e-05
0.000748908
0.00120864
0.000866311
0.000284419
6.17711e-05
8.01659e-06
0.000135618
0.000124302
7.00818e-05
9.41723e-05
0.000843283
0.0014505
0.0011064
0.00042817
9.1452e-05
8.84395e-06
0.000142701
0.000131686
6.62516e-05
0.00015986
0.0010615
0.00177108
0.00134413
0.000451062
0.000118758
9.74056e-06
0.000151771
0.000127568
5.79466e-05
0.000321463
0.00131052
0.00218721
0.00161926
0.000417278
9.86125e-05
1.0032e-05
0.000169014
0.000107338
6.50291e-05
0.000292793
0.00140627
0.00268863
0.00206485
0.000637031
6.90855e-05
1.0512e-05
0.000185264
0.000113991
6.91912e-05
0.000214215
0.00121656
0.00334637
0.00284516
0.00120652
8.11786e-05
1.04849e-05
0.000198106
0.000144907
7.99037e-05
0.000437947
0.00102355
0.00416945
0.00383228
0.00202017
0.000318459
1.14493e-05
0.000211353
0.000171348
0.000103523
0.000862942
0.000918078
0.00525507
0.00509393
0.00294731
0.000788606
7.76837e-05
0.00022933
0.000182268
0.000200947
0.000934558
0.000931681
0.00643295
0.00698117
0.00451321
0.00132087
0.000177866
0.000252129
0.000184683
0.000214702
0.0020833
0.00398392
0.00916325
0.0102176
0.00789266
0.002723
0.000474618
0.000287374
0.00269125
0.000586395
0.00614983
0.0120067
0.0164615
0.0169059
0.0151024
0.00510007
0.000859313
0.000344777
)
;
    }
    inlet
    {
        type            turbulentMixingLengthDissipationRateInlet;
        mixingLength    0.071;
        phi             phi;
        k               k;
        value           uniform 2.72107e-07;
    }
    outlet
    {
        type            inletOutlet;
        inletValue      uniform 0.0001;
        value           nonuniform List<scalar> 
20
(
0.0001
0.00067908
0.00554885
0.0001
0.0001
0.0001
0.0001
0.00511489
0.000860319
0.000344726
0.0001
0.000586395
0.00614983
0.0001
0.0001
0.0001
0.0001
0.00510007
0.000859313
0.000344777
)
;
    }
    heatWall
    {
        type            epsilonWallFunction;
        value           nonuniform List<scalar> 
240
(
5.3526e-06
5.35792e-06
5.27355e-06
5.27578e-06
5.1997e-06
5.18751e-06
5.10787e-06
5.09348e-06
4.99919e-06
5.00181e-06