/*--------------------------------*- C++ -*----------------------------------*\
  =========                 |
  \\      /  F ield         | OpenFOAM: The Open Source CFD Toolbox
   \\    /   O peration     | Website:  https://openfoam.org
    \\  /    A nd           | Version:  8
     \\/     M anipulation  |
\*---------------------------------------------------------------------------*/
FoamFile
{
    version     2.0;
    format      ascii;
    class       volScalarField;
    location    "900";
    object      k;
}
// * * * * * * * * * * * * * * * * * * * * * * * * * * * * * * * * * * * * * //

dimensions      [0 2 -2 0 0 0 0];

internalField   nonuniform List<scalar> 
1200
(
2.37094e-05
2.33873e-05
2.30552e-05
2.27025e-05
2.2337e-05
2.2006e-05
2.16689e-05
2.13361e-05
2.10189e-05
2.06166e-05
2.06869e-05
2.12972e-05
2.19307e-05
2.20691e-05
2.13049e-05
1.77781e-05
1.77117e-05
1.99715e-05
2.16535e-05
2.44458e-05
2.8359e-05
3.35729e-05
3.94416e-05
4.4772e-05
4.69363e-05
4.93695e-05
5.18469e-05
5.38245e-05
5.55796e-05
5.74181e-05
5.95801e-05
6.2082e-05
6.49666e-05
6.81666e-05
7.11829e-05
7.39523e-05
7.64676e-05
7.86547e-05
8.01485e-05
8.05495e-05
7.99598e-05
7.93293e-05
8.09289e-05
8.79921e-05
9.53895e-05
9.92702e-05
9.68753e-05
8.60101e-05
8.90669e-05
9.47982e-05
0.000118132
0.000121349
0.000108592
8.93475e-05
0.000119314
0.0001364
0.000146938
0.000150327
0.000151031
0.000813662
2.09181e-05
1.81255e-05
1.57538e-05
1.3704e-05
1.19513e-05
1.04914e-05
9.31904e-06
8.40573e-06
7.8801e-06
7.23112e-06
8.60295e-06
1.11962e-05
1.06474e-05
1.03233e-05
7.87121e-06
8.4534e-06
1.41865e-05
2.10574e-05
1.86812e-05
1.35913e-05
1.55238e-05
1.95023e-05
2.37409e-05
2.78322e-05
3.09529e-05
3.22191e-05
3.23535e-05
3.25257e-05
3.27967e-05
3.31268e-05
3.35122e-05
3.40223e-05
3.4461e-05
3.49903e-05
3.59301e-05
3.70787e-05
3.85754e-05
4.16861e-05
4.50304e-05
4.43581e-05
4.33957e-05
4.16949e-05
3.79147e-05
4.58851e-05
5.64299e-05
6.93616e-05
7.2304e-05
6.37949e-05
5.99504e-05
7.11547e-05
5.84038e-05
5.49396e-05
4.96646e-05
5.34621e-05
6.27423e-05
6.32816e-05
7.82714e-05
0.000116843
0.000123583
0.000280792
2.08868e-05
1.79977e-05
1.55145e-05
1.3351e-05
1.14918e-05
9.90794e-06
8.58043e-06
7.45046e-06
6.56642e-06
5.89189e-06
6.58006e-06
8.17794e-06
7.16545e-06
5.69976e-06
4.98723e-06
1.06717e-05
2.10278e-05
2.96509e-05
2.99595e-05
2.39857e-05
2.46816e-05
2.88252e-05
3.5003e-05
4.03258e-05
4.18868e-05
4.12841e-05
3.99268e-05
4.04319e-05
4.09371e-05
4.14815e-05
4.21399e-05
4.2922e-05
4.36872e-05
4.42177e-05
4.44413e-05
4.44098e-05
4.37375e-05
4.19934e-05
4.35617e-05
4.45997e-05
4.58191e-05
5.06448e-05
5.27438e-05
5.11582e-05
5.82441e-05
6.85461e-05
8.58222e-05
0.000125144
0.000117356
6.30624e-05
7.03929e-05
9.57874e-05
0.000152378
0.000142615
0.000111159
0.000179248
0.000294911
0.000305607
0.000513961
0.00104005
2.08863e-05
1.80114e-05
1.55416e-05
1.33785e-05
1.15034e-05
9.91495e-06
8.56687e-06
7.39338e-06
6.38938e-06
5.57504e-06
5.72511e-06
6.76063e-06
6.65157e-06
5.7033e-06
4.61902e-06
1.67626e-05
3.19722e-05
3.48414e-05
3.82979e-05
4.11324e-05
4.2585e-05
4.35049e-05
4.40638e-05
4.46103e-05
4.48412e-05
4.47481e-05
4.4505e-05
4.38583e-05
4.2971e-05
4.24723e-05
4.33599e-05
4.4465e-05
4.55455e-05
4.98898e-05
5.48832e-05
6.04234e-05
6.6386e-05
7.23415e-05
7.84388e-05
8.72047e-05
9.95752e-05
0.000112705
0.000123881
0.000136065
0.000156322
0.000182722
0.00021422
0.000243153
0.000263112
0.000272927
0.000294607
0.000342895
0.00039394
0.0004079
0.00036429
0.000321881
0.000300756
0.000319389
0.000830248
0.00175705
2.08901e-05
1.80202e-05
1.55529e-05
1.33867e-05
1.15062e-05
9.90627e-06
8.55514e-06
7.39648e-06
6.39056e-06
5.53785e-06
5.18557e-06
5.56215e-06
5.75369e-06
5.48458e-06
4.9571e-06
7.23888e-06
1.32818e-05
1.91304e-05
2.96705e-05
3.56972e-05
3.87468e-05
4.05894e-05
4.17377e-05
4.22644e-05
4.24117e-05
4.24675e-05
4.21184e-05
4.11944e-05
4.05427e-05
4.14564e-05
4.28558e-05
4.41054e-05
4.50523e-05
4.7835e-05
5.31471e-05
5.92223e-05
6.64218e-05
7.53888e-05
8.48944e-05
9.53805e-05
0.000107561
0.000121315
0.000138999
0.000159233
0.000181367
0.000208371
0.00024068
0.000282405
0.000332901
0.000382568
0.00043089
0.000492022
0.000567011
0.000651398
0.000752317
0.000867484
0.00101028
0.00115676
0.00147296
0.00218525
2.08986e-05
1.80325e-05
1.55681e-05
1.34024e-05
1.15181e-05
9.90951e-06
8.54908e-06
7.40132e-06
6.40933e-06
5.55672e-06
4.96354e-06
4.80884e-06
4.79525e-06
4.68695e-06
4.4735e-06
4.92362e-06
8.05959e-06
1.12996e-05
1.61246e-05
2.232e-05
2.83025e-05
3.32267e-05
3.63347e-05
3.63664e-05
3.73818e-05
3.95334e-05
3.99088e-05
3.94308e-05
3.86577e-05
3.84347e-05
3.86375e-05
3.8584e-05
3.85312e-05
3.85569e-05
3.8135e-05
3.97692e-05
4.67876e-05
5.35067e-05
6.07031e-05
6.56419e-05
6.74663e-05
7.03832e-05
8.60925e-05
0.000104481
0.000119716
0.00013389
0.000154658
0.000192944
0.000249908
0.000308915
0.000362905
0.0004131
0.000468018
0.000550411
0.000679365
0.000826615
0.000998145
0.00123109
0.00159162
0.00223585
2.09089e-05
1.80463e-05
1.55872e-05
1.34259e-05
1.15375e-05
9.9204e-06
8.55246e-06
7.40928e-06
6.4311e-06
5.58394e-06
4.91417e-06
4.48282e-06
4.2092e-06
4.00098e-06
3.81397e-06
3.95206e-06
5.20667e-06
6.46519e-06
9.48315e-06
1.34732e-05
1.80151e-05
2.28982e-05
2.61514e-05
2.70681e-05
2.76744e-05
2.97533e-05
3.19803e-05
3.31104e-05
3.37764e-05
3.42244e-05
3.41408e-05
3.32594e-05
3.24641e-05
3.12075e-05
2.82817e-05
2.95787e-05
3.17001e-05
3.59901e-05
4.20188e-05
4.62901e-05
3.68158e-05
3.73533e-05
4.29461e-05
4.85404e-05
5.61988e-05
4.95745e-05
4.37027e-05
4.84693e-05
9.27699e-05
0.000149724
0.000195229
0.000202772
0.000192843
0.000252709
0.000384478
0.000540327
0.000693812
0.000923442
0.00134344
0.00207461
2.09166e-05
1.80487e-05
1.55829e-05
1.34152e-05
1.15266e-05
9.92104e-06
8.57115e-06
7.43564e-06
6.46357e-06
5.62457e-06
4.92925e-06
4.39683e-06
3.98703e-06
3.66471e-06
3.42119e-06
3.36929e-06
3.7657e-06
4.21896e-06
5.47902e-06
7.69893e-06
1.04348e-05
1.35174e-05
1.57243e-05
1.65834e-05
1.83544e-05
2.20102e-05
2.59713e-05
2.89741e-05
3.08346e-05
3.1829e-05
3.22132e-05
3.21386e-05
3.17897e-05
3.13241e-05
3.0877e-05
3.06031e-05
3.06025e-05
3.12331e-05
3.23359e-05
3.24999e-05
3.21308e-05
3.14562e-05
3.12178e-05
3.17791e-05
3.45462e-05
3.71775e-05
3.57383e-05
3.55918e-05
4.54669e-05
5.99572e-05
7.57147e-05
8.64438e-05
7.61797e-05
6.00472e-05
6.48109e-05
0.000157252
0.000285452
0.000403273
0.00065731
0.00100611
2.09495e-05
1.81801e-05
1.58314e-05
1.37765e-05
1.19542e-05
1.03786e-05
9.06251e-06
7.95789e-06
6.9992e-06
6.14642e-06
5.40321e-06
4.79785e-06
4.32057e-06
3.94148e-06
3.62843e-06
3.38377e-06
3.32548e-06
3.38402e-06
3.74434e-06
4.53004e-06
5.7079e-06
7.16149e-06
8.34307e-06
8.7458e-06
9.18875e-06
1.11368e-05
1.448e-05
1.80889e-05
2.10512e-05
2.30063e-05
2.40194e-05
2.43484e-05
2.42159e-05
2.39367e-05
2.38842e-05
2.41524e-05
2.4692e-05
2.53433e-05
2.59486e-05
2.62579e-05
2.63984e-05
2.64689e-05
2.68013e-05
2.72837e-05
2.77399e-05
2.81794e-05
2.9364e-05
2.9546e-05
3.01095e-05
3.12779e-05
3.3767e-05
3.74861e-05
3.8839e-05
4.07702e-05
4.08945e-05
4.50508e-05
6.06027e-05
0.000104695
0.000203532
0.000306231
2.37017e-05
2.3433e-05
2.3161e-05
2.28177e-05
2.24028e-05
2.19958e-05
2.16055e-05
2.11851e-05
2.05948e-05
1.97636e-05
1.87701e-05
1.79792e-05
1.75683e-05
1.74553e-05
1.73733e-05
1.65897e-05
1.58635e-05
1.55147e-05
1.52022e-05
1.5122e-05
1.54037e-05
1.60807e-05
1.71001e-05
1.84683e-05
2.00419e-05
2.17611e-05
2.392e-05
2.66095e-05
2.96568e-05
3.29394e-05
3.64436e-05
4.02188e-05
4.4448e-05
4.78275e-05
5.15458e-05
5.53448e-05
5.88326e-05
6.23018e-05
6.60483e-05
7.04966e-05
7.53863e-05
8.01771e-05
8.43513e-05
8.86502e-05
9.34281e-05
0.000100358
0.000107197
0.000113193
0.000118272
0.000123268
0.00012747
0.000131711
0.00014081
0.000150039
0.000157411
0.000164198
0.000173378
0.000184729
0.000201452
0.000227796
2.36714e-05
2.33659e-05
2.30432e-05
2.26849e-05
2.23046e-05
2.19727e-05
2.16561e-05
2.13372e-05
2.10218e-05
2.06229e-05
2.06953e-05
2.13171e-05
2.19592e-05
2.21252e-05
2.14272e-05
1.78183e-05
1.76974e-05
1.99873e-05
2.16706e-05
2.43724e-05
2.82323e-05
3.34196e-05
3.9306e-05
4.46951e-05
4.68932e-05
4.93219e-05
5.18109e-05
5.38186e-05
5.55831e-05
5.74328e-05
5.96187e-05
6.21401e-05
6.50219e-05
6.82046e-05
7.12289e-05
7.402e-05
7.65382e-05
7.85999e-05
7.98135e-05
7.99555e-05
8.04869e-05
8.10515e-05
8.376e-05
9.07434e-05
9.85217e-05
0.000103233
0.000101652
9.19355e-05
8.97547e-05
9.22308e-05
0.000114551
0.000118322
0.000116299
0.000100008
0.000104763
0.000125987
0.000142332
0.000148798
0.000149762
0.00100318
2.09151e-05
1.81316e-05
1.5755e-05
1.37057e-05
1.19602e-05
1.04879e-05
9.29242e-06
8.38754e-06
7.86566e-06
7.23969e-06
8.56826e-06
1.11576e-05
1.06387e-05
1.03437e-05
7.91522e-06
8.43667e-06
1.42076e-05
2.11258e-05
1.92012e-05
1.37678e-05
1.54564e-05
1.93797e-05
2.35919e-05
2.76918e-05
3.0859e-05
3.21735e-05
3.2309e-05
3.24547e-05
3.27206e-05
3.30471e-05
3.33841e-05
3.38472e-05
3.42738e-05
3.48317e-05
3.58086e-05
3.70206e-05
3.8784e-05
4.26045e-05
4.5094e-05
4.60825e-05
4.37996e-05
4.11793e-05
3.87469e-05
4.45418e-05
5.17213e-05
6.48666e-05
7.2963e-05
6.72059e-05
6.01543e-05
6.92464e-05
5.72358e-05
5.70122e-05
5.01573e-05
5.33147e-05
5.43967e-05
6.19338e-05
7.43591e-05
0.000116459
0.00012214
0.000258484
2.08894e-05
1.80101e-05
1.5518e-05
1.3354e-05
1.15011e-05
9.91815e-06
8.57592e-06
7.44722e-06
6.56302e-06
5.89233e-06
6.55286e-06
8.14719e-06
7.16582e-06
5.71248e-06
5.06498e-06
1.06329e-05
2.10395e-05
2.96782e-05
3.02106e-05
2.43079e-05
2.47315e-05
2.8656e-05
3.46706e-05
4.0099e-05
4.16863e-05
4.112e-05
3.98023e-05
4.02993e-05
4.08126e-05
4.13735e-05
4.20519e-05
4.28404e-05
4.35801e-05
4.40392e-05
4.41872e-05
4.40816e-05
4.35052e-05
4.19206e-05
4.36106e-05
4.464e-05
4.56817e-05
4.8196e-05
4.97758e-05
4.87261e-05
5.43479e-05
6.45661e-05
8.47024e-05
0.000130772
0.000123942
6.19544e-05
6.99157e-05
9.85382e-05
0.000157165
0.000147519
0.000117842
0.000190581
0.000303298
0.000317701
0.000540356
0.00110401
2.08968e-05
1.80297e-05
1.55502e-05
1.33829e-05
1.15112e-05
9.91476e-06
8.55857e-06
7.39215e-06
6.38998e-06
5.5751e-06
5.70415e-06
6.73155e-06
6.63661e-06
5.70064e-06
4.61553e-06
1.65884e-05
3.19266e-05
3.47781e-05
3.82169e-05
4.10664e-05
4.25229e-05
4.34136e-05
4.39357e-05
4.4476e-05
4.47005e-05
4.45749e-05
4.42893e-05
4.35851e-05
4.27007e-05
4.23693e-05
4.33634e-05
4.45074e-05
4.56264e-05
4.9896e-05
5.49068e-05
6.05063e-05
6.6656e-05
7.32128e-05
7.98275e-05
8.8626e-05
0.000100478
0.000113027
0.000124097
0.00013615
0.000157392
0.000184886
0.000216487
0.000245486
0.000266515
0.000277975
0.00030041
0.000349689
0.000402468
0.000420389
0.000379758
0.000337309
0.000313967
0.000325433
0.000844097
0.00176936
2.09076e-05
1.80413e-05
1.55574e-05
1.33844e-05
1.15123e-05
9.90631e-06
8.54747e-06
7.39248e-06
6.39045e-06
5.538e-06
5.17537e-06
5.54171e-06
5.73511e-06
5.47208e-06
4.94409e-06
7.32026e-06
1.34435e-05
1.93856e-05
3.00003e-05
3.56382e-05
3.86861e-05
4.05339e-05
4.16659e-05
4.21724e-05
4.22768e-05
4.22681e-05
4.18495e-05
4.09137e-05
4.04084e-05
4.14361e-05
4.28519e-05
4.41985e-05
4.56501e-05
4.76875e-05
5.30241e-05
5.91659e-05
6.62826e-05
7.51732e-05
8.48826e-05
9.54102e-05
0.000107442
0.000121237
0.000139152
0.000159013
0.000181347
0.000208465
0.000240397
0.000281924
0.000333096
0.000383976
0.000433289
0.000494908
0.000569875
0.000654244
0.000756588
0.000874933
0.0010205
0.00116777
0.00147985
0.00219018
2.09167e-05
1.80536e-05
1.55724e-05
1.33964e-05
1.1518e-05
9.91135e-06
8.54906e-06
7.39982e-06
6.4092e-06
5.55572e-06
4.95931e-06
4.79912e-06
4.78311e-06
4.67795e-06
4.46685e-06
4.99976e-06
8.11603e-06
1.14279e-05
1.62851e-05
2.23935e-05
2.83363e-05
3.3262e-05
3.63291e-05
3.6388e-05
3.72685e-05
3.93491e-05
3.96898e-05
3.91852e-05
3.84021e-05
3.82232e-05
3.84355e-05
3.83991e-05
3.83834e-05
3.83741e-05
3.8149e-05
4.06758e-05
4.71502e-05
5.08556e-05
5.80442e-05
6.31818e-05
6.57898e-05
7.05149e-05
8.61639e-05
0.000104402
0.000118635
0.000131367
0.000151771
0.000190656
0.000248564
0.000308211
0.000362593
0.0004128
0.000467438
0.00054972
0.000680094
0.000828905
0.00100171
0.00123564
0.00159384
0.00223254
2.09213e-05
1.80643e-05
1.55927e-05
1.34195e-05
1.15318e-05
9.92154e-06
8.55978e-06
7.41381e-06
6.43171e-06
5.58176e-06
4.90822e-06
4.47862e-06
4.20437e-06
3.99777e-06
3.81671e-06
3.97032e-06
5.20149e-06
6.54798e-06
9.62308e-06
1.35426e-05
1.80375e-05
2.2901e-05
2.60996e-05
2.70363e-05
2.77407e-05
2.99472e-05
3.22184e-05
3.32877e-05
3.3878e-05
3.42668e-05
3.41716e-05
3.33265e-05
3.25749e-05
3.15214e-05
2.85554e-05
3.0338e-05
3.24469e-05
3.56183e-05
4.16894e-05
4.6636e-05
3.66213e-05
3.71756e-05
4.28031e-05
4.77771e-05
5.70573e-05
5.12223e-05
4.55633e-05
4.94553e-05
8.98732e-05
0.000147362
0.000193251
0.000200255
0.000190126
0.000251246
0.000384116
0.000541196
0.000695852
0.000924829
0.00134302
0.00207113
2.09228e-05
1.80608e-05
1.55828e-05
1.34029e-05
1.15175e-05
9.92754e-06
8.58834e-06
7.44813e-06
6.46585e-06
5.62498e-06
4.93071e-06
4.39493e-06
3.98174e-06
3.65877e-06
3.42262e-06
3.37741e-06
3.7593e-06
4.23766e-06
5.57068e-06
7.78162e-06
1.04722e-05
1.3514e-05
1.5662e-05
1.65442e-05
1.8466e-05
2.22577e-05
2.62649e-05
2.92511e-05
3.10553e-05
3.1985e-05
3.23305e-05
3.2228e-05
3.18569e-05
3.1386e-05
3.09489e-05
3.06965e-05
3.07255e-05
3.1363e-05
3.2382e-05
3.26273e-05
3.22947e-05
3.16024e-05
3.13806e-05
3.18911e-05
3.39471e-05
3.78564e-05
3.66089e-05
3.67108e-05
4.43512e-05
5.50004e-05
7.0612e-05
8.30396e-05
7.33748e-05
5.76907e-05
6.37494e-05
0.00015774
0.000288186
0.000406724
0.000660154
0.00100447
2.09553e-05
1.81921e-05
1.58344e-05
1.37624e-05
1.19375e-05
1.03818e-05
9.08121e-06
7.97851e-06
7.0089e-06
6.14954e-06
5.40336e-06
4.79562e-06
4.32158e-06
3.94591e-06
3.63141e-06
3.3845e-06
3.32668e-06
3.39389e-06
3.77941e-06
4.57225e-06
5.74542e-06
7.17939e-06
8.3201e-06
8.69856e-06
9.19659e-06
1.12851e-05
1.47284e-05
1.83454e-05
2.12423e-05
2.31117e-05
2.40577e-05
2.43369e-05
2.41783e-05
2.39114e-05
2.38993e-05
2.41981e-05
2.47468e-05
2.54062e-05
2.6002e-05
2.63111e-05
2.64026e-05
2.65148e-05
2.68597e-05
2.73502e-05
2.77522e-05
2.82649e-05
2.95644e-05
2.96127e-05
3.00455e-05
3.12274e-05
3.43061e-05
3.79605e-05
3.90368e-05
4.08871e-05
4.09119e-05
4.48003e-05
6.14319e-05
0.000106511
0.000205565
0.000306216
2.37184e-05
2.34232e-05
2.31041e-05
2.27533e-05
2.2397e-05
2.20536e-05
2.16863e-05
2.12458e-05
2.06315e-05
1.98115e-05
1.88026e-05
1.79947e-05
1.76032e-05
1.75163e-05
1.74379e-05
1.66255e-05
1.58889e-05
1.54974e-05
1.51302e-05
1.50547e-05
1.53626e-05
1.60688e-05
1.709e-05
1.84229e-05
1.99533e-05
2.16715e-05
2.38891e-05
2.66285e-05
2.96896e-05
3.29626e-05
3.64521e-05
4.02241e-05
4.4479e-05
4.79024e-05
5.16246e-05
5.54251e-05
5.89445e-05
6.23964e-05
6.61329e-05
7.0474e-05
7.53088e-05
8.01049e-05
8.44307e-05
8.88335e-05
9.38954e-05
0.00010092
0.000107231
0.000112978
0.000117753
0.000122645
0.000126935
0.000131818
0.000141386
0.000150473
0.000157499
0.000164377
0.000173544
0.000184893
0.000201741
0.000227867
)
;

boundaryField
{
    wall
    {
        type            kqRWallFunction;
        value           nonuniform List<scalar> 
1200
(
2.37094e-05
2.09181e-05
2.08868e-05
2.08863e-05
2.08901e-05
2.08986e-05
2.09089e-05
2.09166e-05
2.09495e-05
2.37017e-05
2.33873e-05
1.81255e-05
1.79977e-05
1.80114e-05
1.80202e-05
1.80325e-05
1.80463e-05
1.80487e-05
1.81801e-05
2.3433e-05
2.30552e-05
1.57538e-05
1.55145e-05
1.55416e-05
1.55529e-05
1.55681e-05
1.55872e-05
1.55829e-05
1.58314e-05
2.3161e-05
2.27025e-05
1.3704e-05
1.3351e-05
1.33785e-05
1.33867e-05
1.34024e-05
1.34259e-05
1.34152e-05
1.37765e-05
2.28177e-05
2.2337e-05
1.19513e-05
1.14918e-05
1.15034e-05
1.15062e-05
1.15181e-05
1.15375e-05
1.15266e-05
1.19542e-05
2.24028e-05
2.2006e-05
1.04914e-05
9.90794e-06
9.91495e-06
9.90627e-06
9.90951e-06
9.9204e-06
9.92104e-06
1.03786e-05
2.19958e-05
2.16689e-05
9.31904e-06
8.58043e-06
8.56687e-06
8.55514e-06
8.54908e-06
8.55246e-06
8.57115e-06
9.06251e-06
2.16055e-05
2.13361e-05
8.40573e-06
7.45046e-06
7.39338e-06
7.39648e-06
7.40132e-06
7.40928e-06
7.43564e-06
7.95789e-06
2.11851e-05
2.10189e-05
7.8801e-06
6.56642e-06
6.38938e-06
6.39056e-06
6.40933e-06
6.4311e-06
6.46357e-06
6.9992e-06
2.05948e-05
2.06166e-05
7.23112e-06
5.89189e-06
5.57504e-06
5.53785e-06
5.55672e-06
5.58394e-06
5.62457e-06
6.14642e-06
1.97636e-05
2.06869e-05
8.60295e-06
6.58006e-06
5.72511e-06
5.18557e-06
4.96354e-06
4.91417e-06
4.92925e-06
5.40321e-06
1.87701e-05
2.12972e-05
1.11962e-05
8.17794e-06
6.76063e-06
5.56215e-06
4.80884e-06
4.48282e-06
4.39683e-06
4.79785e-06
1.79792e-05
2.19307e-05
1.06474e-05
7.16545e-06
6.65157e-06
5.75369e-06
4.79525e-06
4.2092e-06
3.98703e-06
4.32057e-06
1.75683e-05
2.20691e-05
1.03233e-05
5.69976e-06
5.7033e-06
5.48458e-06
4.68695e-06
4.00098e-06
3.66471e-06
3.94148e-06
1.74553e-05
2.13049e-05
7.87121e-06
4.98723e-06
4.61902e-06
4.9571e-06
4.4735e-06
3.81397e-06
3.42119e-06
3.62843e-06
1.73733e-05
1.77781e-05
8.4534e-06
1.06717e-05
1.67626e-05
7.23888e-06
4.92362e-06
3.95206e-06
3.36929e-06
3.38377e-06
1.65897e-05
1.77117e-05
1.41865e-05
2.10278e-05
3.19722e-05
1.32818e-05
8.05959e-06
5.20667e-06
3.7657e-06
3.32548e-06
1.58635e-05
1.99715e-05
2.10574e-05
2.96509e-05
3.48414e-05
1.91304e-05
1.12996e-05
6.46519e-06
4.21896e-06
3.38402e-06
1.55147e-05
2.16535e-05
1.86812e-05
2.99595e-05
3.82979e-05
2.96705e-05
1.61246e-05
9.48315e-06
5.47902e-06
3.74434e-06
1.52022e-05
2.44458e-05
1.35913e-05
2.39857e-05
4.11324e-05
3.56972e-05
2.232e-05
1.34732e-05
7.69893e-06
4.53004e-06
1.5122e-05
2.8359e-05
1.55238e-05
2.46816e-05
4.2585e-05
3.87468e-05
2.83025e-05
1.80151e-05
1.04348e-05
5.7079e-06
1.54037e-05
3.35729e-05
1.95023e-05
2.88252e-05
4.35049e-05
4.05894e-05
3.32267e-05
2.28982e-05
1.35174e-05
7.16149e-06
1.60807e-05
3.94416e-05
2.37409e-05
3.5003e-05
4.40638e-05
4.17377e-05
3.63347e-05
2.61514e-05
1.57243e-05
8.34307e-06
1.71001e-05
4.4772e-05
2.78322e-05
4.03258e-05
4.46103e-05
4.22644e-05
3.63664e-05
2.70681e-05
1.65834e-05
8.7458e-06
1.84683e-05
4.69363e-05
3.09529e-05
4.18868e-05
4.48412e-05
4.24117e-05
3.73818e-05
2.76744e-05
1.83544e-05
9.18875e-06
2.00419e-05
4.93695e-05
3.22191e-05
4.12841e-05
4.47481e-05
4.24675e-05
3.95334e-05
2.97533e-05
2.20102e-05
1.11368e-05
2.17611e-05
5.18469e-05
3.23535e-05
3.99268e-05
4.4505e-05
4.21184e-05
3.99088e-05
3.19803e-05
2.59713e-05
1.448e-05
2.392e-05
5.38245e-05
3.25257e-05
4.04319e-05
4.38583e-05
4.11944e-05
3.94308e-05
3.31104e-05
2.89741e-05
1.80889e-05
2.66095e-05
5.55796e-05
3.27967e-05
4.09371e-05
4.2971e-05
4.05427e-05
3.86577e-05
3.37764e-05
3.08346e-05
2.10512e-05
2.96568e-05
5.74181e-05
3.31268e-05
4.14815e-05
4.24723e-05
4.14564e-05
3.84347e-05
3.42244e-05
3.1829e-05
2.30063e-05
3.29394e-05
5.95801e-05
3.35122e-05
4.21399e-05
4.33599e-05
4.28558e-05
3.86375e-05
3.41408e-05
3.22132e-05
2.40194e-05
3.64436e-05
6.2082e-05
3.40223e-05
4.2922e-05
4.4465e-05
4.41054e-05
3.8584e-05
3.32594e-05
3.21386e-05
2.43484e-05
4.02188e-05
6.49666e-05
3.4461e-05
4.36872e-05
4.55455e-05
4.50523e-05
3.85312e-05
3.24641e-05
3.17897e-05
2.42159e-05
4.4448e-05
6.81666e-05
3.49903e-05
4.42177e-05
4.98898e-05
4.7835e-05
3.85569e-05
3.12075e-05
3.13241e-05
2.39367e-05
4.78275e-05
7.11829e-05
3.59301e-05
4.44413e-05
5.48832e-05
5.31471e-05
3.8135e-05
2.82817e-05
3.0877e-05
2.38842e-05
5.15458e-05
7.39523e-05
3.70787e-05
4.44098e-05
6.04234e-05
5.92223e-05
3.97692e-05
2.95787e-05
3.06031e-05
2.41524e-05
5.53448e-05
7.64676e-05
3.85754e-05
4.37375e-05
6.6386e-05
6.64218e-05
4.67876e-05
3.17001e-05
3.06025e-05
2.4692e-05
5.88326e-05
7.86547e-05
4.16861e-05
4.19934e-05
7.23415e-05
7.53888e-05
5.35067e-05
3.59901e-05
3.12331e-05
2.53433e-05
6.23018e-05
8.01485e-05
4.50304e-05
4.35617e-05
7.84388e-05
8.48944e-05
6.07031e-05
4.20188e-05
3.23359e-05
2.59486e-05
6.60483e-05
8.05495e-05
4.43581e-05
4.45997e-05
8.72047e-05
9.53805e-05
6.56419e-05
4.62901e-05
3.24999e-05
2.62579e-05
7.04966e-05
7.99598e-05
4.33957e-05
4.58191e-05
9.95752e-05
0.000107561
6.74663e-05
3.68158e-05
3.21308e-05
2.63984e-05
7.53863e-05
7.93293e-05
4.16949e-05
5.06448e-05
0.000112705
0.000121315
7.03832e-05
3.73533e-05
3.14562e-05
2.64689e-05
8.01771e-05
8.09289e-05
3.79147e-05
5.27438e-05
0.000123881
0.000138999
8.60925e-05
4.29461e-05
3.12178e-05
2.68013e-05
8.43513e-05
8.79921e-05
4.58851e-05
5.11582e-05
0.000136065
0.000159233
0.000104481
4.85404e-05
3.17791e-05
2.72837e-05
8.86502e-05
9.53895e-05
5.64299e-05
5.82441e-05
0.000156322
0.000181367
0.000119716
5.61988e-05
3.45462e-05
2.77399e-05
9.34281e-05
9.92702e-05
6.93616e-05
6.85461e-05
0.000182722
0.000208371
0.00013389
4.95745e-05
3.71775e-05
2.81794e-05
0.000100358
9.68753e-05
7.2304e-05
8.58222e-05
0.00021422
0.00024068
0.000154658
4.37027e-05
3.57383e-05
2.9364e-05
0.000107197
8.60101e-05
6.37949e-05
0.000125144
0.000243153
0.000282405
0.000192944
4.84693e-05
3.55918e-05
2.9546e-05
0.000113193
8.90669e-05
5.99504e-05
0.000117356
0.000263112
0.000332901
0.000249908
9.27699e-05
4.54669e-05
3.01095e-05
0.000118272
9.47982e-05
7.11547e-05
6.30624e-05
0.000272927
0.000382568
0.000308915
0.000149724
5.99572e-05
3.12779e-05
0.000123268
0.000118132
5.84038e-05
7.03929e-05
0.000294607
0.00043089
0.000362905
0.000195229
7.57147e-05
3.3767e-05
0.00012747
0.000121349
5.49396e-05
9.57874e-05
0.000342895
0.000492022
0.0004131
0.000202772
8.64438e-05
3.74861e-05
0.000131711
0.000108592
4.96646e-05
0.000152378
0.00039394
0.000567011
0.000468018
0.000192843
7.61797e-05
3.8839e-05
0.00014081
8.93475e-05
5.34621e-05
0.000142615
0.0004079
0.000651398
0.000550411
0.000252709
6.00472e-05
4.07702e-05
0.000150039
0.000119314
6.27423e-05
0.000111159
0.00036429
0.000752317
0.000679365
0.000384478
6.48109e-05
4.08945e-05
0.000157411
0.0001364
6.32816e-05
0.000179248
0.000321881
0.000867484
0.000826615
0.000540327
0.000157252
4.50508e-05
0.000164198
0.000146938
7.82714e-05
0.000294911
0.000300756
0.00101028
0.000998145
0.000693812
0.000285452
6.06027e-05
0.000173378
0.000150327
0.000116843
0.000305607
0.000319389
0.00115676
0.00123109
0.000923442
0.000403273
0.000104695
0.000184729
0.000151031
0.000123583
0.000513961
0.000830248
0.00147296
0.00159162
0.00134344
0.00065731
0.000203532
0.000201452
0.000813662
0.000280792
0.00104005
0.00175705
0.00218525
0.00223585
0.00207461
0.00100611
0.000306231
0.000227796
2.36714e-05
2.09151e-05
2.08894e-05
2.08968e-05
2.09076e-05
2.09167e-05
2.09213e-05
2.09228e-05
2.09553e-05
2.37184e-05
2.33659e-05
1.81316e-05
1.80101e-05
1.80297e-05
1.80413e-05
1.80536e-05
1.80643e-05
1.80608e-05
1.81921e-05
2.34232e-05
2.30432e-05
1.5755e-05
1.5518e-05
1.55502e-05
1.55574e-05
1.55724e-05
1.55927e-05
1.55828e-05
1.58344e-05
2.31041e-05
2.26849e-05
1.37057e-05
1.3354e-05
1.33829e-05
1.33844e-05
1.33964e-05
1.34195e-05
1.34029e-05
1.37624e-05
2.27533e-05
2.23046e-05
1.19602e-05
1.15011e-05
1.15112e-05
1.15123e-05
1.1518e-05
1.15318e-05
1.15175e-05
1.19375e-05
2.2397e-05
2.19727e-05
1.04879e-05
9.91815e-06
9.91476e-06
9.90631e-06
9.91135e-06
9.92154e-06
9.92754e-06
1.03818e-05
2.20536e-05
2.16561e-05
9.29242e-06
8.57592e-06
8.55857e-06
8.54747e-06
8.54906e-06
8.55978e-06
8.58834e-06
9.08121e-06
2.16863e-05
2.13372e-05
8.38754e-06
7.44722e-06
7.39215e-06
7.39248e-06
7.39982e-06
7.41381e-06
7.44813e-06
7.97851e-06
2.12458e-05
2.10218e-05
7.86566e-06
6.56302e-06
6.38998e-06
6.39045e-06
6.4092e-06
6.43171e-06
6.46585e-06
7.0089e-06
2.06315e-05
2.06229e-05
7.23969e-06
5.89233e-06
5.5751e-06
5.538e-06
5.55572e-06
5.58176e-06
5.62498e-06
6.14954e-06
1.98115e-05
2.06953e-05
8.56826e-06
6.55286e-06
5.70415e-06
5.17537e-06
4.95931e-06
4.90822e-06
4.93071e-06
5.40336e-06
1.88026e-05
2.13171e-05
1.11576e-05
8.14719e-06
6.73155e-06
5.54171e-06
4.79912e-06
4.47862e-06
4.39493e-06
4.79562e-06
1.79947e-05
2.19592e-05
1.06387e-05
7.16582e-06
6.63661e-06
5.73511e-06
4.78311e-06
4.20437e-06
3.98174e-06
4.32158e-06
1.76032e-05
2.21252e-05
1.03437e-05
5.71248e-06
5.70064e-06
5.47208e-06
4.67795e-06
3.99777e-06
3.65877e-06
3.94591e-06
1.75163e-05
2.14272e-05
7.91522e-06
5.06498e-06
4.61553e-06
4.94409e-06
4.46685e-06
3.81671e-06
3.42262e-06
3.63141e-06
1.74379e-05
1.78183e-05
8.43667e-06
1.06329e-05
1.65884e-05
7.32026e-06
4.99976e-06
3.97032e-06
3.37741e-06
3.3845e-06
1.66255e-05
1.76974e-05
1.42076e-05
2.10395e-05
3.19266e-05
1.34435e-05
8.11603e-06
5.20149e-06
3.7593e-06
3.32668e-06
1.58889e-05
1.99873e-05
2.11258e-05
2.96782e-05
3.47781e-05
1.93856e-05
1.14279e-05
6.54798e-06
4.23766e-06
3.39389e-06
1.54974e-05
2.16706e-05
1.92012e-05
3.02106e-05
3.82169e-05
3.00003e-05
1.62851e-05
9.62308e-06
5.57068e-06
3.77941e-06
1.51302e-05
2.43724e-05
1.37678e-05
2.43079e-05
4.10664e-05
3.56382e-05
2.23935e-05
1.35426e-05
7.78162e-06
4.57225e-06
1.50547e-05
2.82323e-05
1.54564e-05
2.47315e-05
4.25229e-05
3.86861e-05
2.83363e-05
1.80375e-05
1.04722e-05
5.74542e-06
1.53626e-05
3.34196e-05
1.93797e-05
2.8656e-05
4.34136e-05
4.05339e-05
3.3262e-05
2.2901e-05
1.3514e-05
7.17939e-06
1.60688e-05
3.9306e-05
2.35919e-05
3.46706e-05
4.39357e-05
4.16659e-05
3.63291e-05
2.60996e-05
1.5662e-05
8.3201e-06
1.709e-05
4.46951e-05
2.76918e-05
4.0099e-05
4.4476e-05
4.21724e-05
3.6388e-05
2.70363e-05
1.65442e-05
8.69856e-06
1.84229e-05
4.68932e-05
3.0859e-05
4.16863e-05
4.47005e-05
4.22768e-05
3.72685e-05
2.77407e-05
1.8466e-05
9.19659e-06
1.99533e-05
4.93219e-05
3.21735e-05
4.112e-05
4.45749e-05
4.22681e-05
3.93491e-05
2.99472e-05
2.22577e-05
1.12851e-05
2.16715e-05
5.18109e-05
3.2309e-05
3.98023e-05
4.42893e-05
4.18495e-05
3.96898e-05
3.22184e-05
2.62649e-05
1.47284e-05
2.38891e-05
5.38186e-05
3.24547e-05
4.02993e-05
4.35851e-05
4.09137e-05
3.91852e-05
3.32877e-05
2.92511e-05
1.83454e-05
2.66285e-05
5.55831e-05
3.27206e-05
4.08126e-05
4.27007e-05
4.04084e-05
3.84021e-05
3.3878e-05
3.10553e-05
2.12423e-05
2.96896e-05
5.74328e-05
3.30471e-05
4.13735e-05
4.23693e-05
4.14361e-05
3.82232e-05
3.42668e-05
3.1985e-05
2.31117e-05
3.29626e-05
5.96187e-05
3.33841e-05
4.20519e-05
4.33634e-05
4.28519e-05
3.84355e-05
3.41716e-05
3.23305e-05
2.40577e-05
3.64521e-05
6.21401e-05
3.38472e-05
4.28404e-05
4.45074e-05
4.41985e-05
3.83991e-05
3.33265e-05
3.2228e-05
2.43369e-05
4.02241e-05
6.50219e-05
3.42738e-05
4.35801e-05
4.56264e-05
4.56501e-05
3.83834e-05
3.25749e-05
3.18569e-05
2.41783e-05
4.4479e-05
6.82046e-05
3.48317e-05
4.40392e-05
4.9896e-05
4.76875e-05
3.83741e-05
3.15214e-05
3.1386e-05
2.39114e-05
4.79024e-05
7.12289e-05
3.58086e-05
4.41872e-05
5.49068e-05
5.30241e-05
3.8149e-05
2.85554e-05
3.09489e-05
2.38993e-05
5.16246e-05
7.402e-05
3.70206e-05
4.40816e-05
6.05063e-05
5.91659e-05
4.06758e-05
3.0338e-05
3.06965e-05
2.41981e-05
5.54251e-05
7.65382e-05
3.8784e-05
4.35052e-05
6.6656e-05
6.62826e-05
4.71502e-05
3.24469e-05
3.07255e-05
2.47468e-05
5.89445e-05
7.85999e-05
4.26045e-05
4.19206e-05
7.32128e-05
7.51732e-05
5.08556e-05
3.56183e-05
3.1363e-05
2.54062e-05
6.23964e-05
7.98135e-05
4.5094e-05
4.36106e-05
7.98275e-05
8.48826e-05
5.80442e-05
4.16894e-05
3.2382e-05
2.6002e-05
6.61329e-05
7.99555e-05
4.60825e-05
4.464e-05
8.8626e-05
9.54102e-05
6.31818e-05
4.6636e-05
3.26273e-05
2.63111e-05
7.0474e-05
8.04869e-05
4.37996e-05
4.56817e-05
0.000100478
0.000107442
6.57898e-05
3.66213e-05
3.22947e-05
2.64026e-05
7.53088e-05
8.10515e-05
4.11793e-05
4.8196e-05
0.000113027
0.000121237
7.05149e-05
3.71756e-05
3.16024e-05
2.65148e-05
8.01049e-05
8.376e-05
3.87469e-05
4.97758e-05
0.000124097
0.000139152
8.61639e-05
4.28031e-05
3.13806e-05
2.68597e-05
8.44307e-05
9.07434e-05
4.45418e-05
4.87261e-05
0.00013615
0.000159013
0.000104402
4.77771e-05
3.18911e-05
2.73502e-05
8.88335e-05
9.85217e-05
5.17213e-05
5.43479e-05
0.000157392
0.000181347
0.000118635
5.70573e-05
3.39471e-05
2.77522e-05
9.38954e-05
0.000103233
6.48666e-05
6.45661e-05
0.000184886
0.000208465
0.000131367
5.12223e-05
3.78564e-05
2.82649e-05
0.00010092
0.000101652
7.2963e-05
8.47024e-05
0.000216487
0.000240397
0.000151771
4.55633e-05
3.66089e-05
2.95644e-05
0.000107231
9.19355e-05
6.72059e-05
0.000130772
0.000245486
0.000281924
0.000190656
4.94553e-05
3.67108e-05
2.96127e-05
0.000112978
8.97547e-05
6.01543e-05
0.000123942
0.000266515
0.000333096
0.000248564
8.98732e-05
4.43512e-05
3.00455e-05
0.000117753
9.22308e-05
6.92464e-05
6.19544e-05
0.000277975
0.000383976
0.000308211
0.000147362
5.50004e-05
3.12274e-05
0.000122645
0.000114551
5.72358e-05
6.99157e-05
0.00030041
0.000433289
0.000362593
0.000193251
7.0612e-05
3.43061e-05
0.000126935
0.000118322
5.70122e-05
9.85382e-05
0.000349689
0.000494908
0.0004128
0.000200255
8.30396e-05
3.79605e-05
0.000131818
0.000116299
5.01573e-05
0.000157165
0.000402468
0.000569875
0.000467438
0.000190126
7.33748e-05
3.90368e-05
0.000141386
0.000100008
5.33147e-05
0.000147519
0.000420389
0.000654244
0.00054972
0.000251246
5.76907e-05
4.08871e-05
0.000150473
0.000104763
5.43967e-05
0.000117842
0.000379758
0.000756588
0.000680094
0.000384116
6.37494e-05
4.09119e-05
0.000157499
0.000125987
6.19338e-05
0.000190581
0.000337309
0.000874933
0.000828905
0.000541196
0.00015774
4.48003e-05
0.000164377
0.000142332
7.43591e-05
0.000303298
0.000313967
0.0010205
0.00100171
0.000695852
0.000288186
6.14319e-05
0.000173544
0.000148798
0.000116459
0.000317701
0.000325433
0.00116777
0.00123564
0.000924829
0.000406724
0.000106511
0.000184893
0.000149762
0.00012214
0.000540356
0.000844097
0.00147985
0.00159384
0.00134302
0.000660154
0.000205565
0.000201741
0.00100318
0.000258484
0.00110401
0.00176936
0.00219018
0.00223254
0.00207113
0.00100447
0.000306216
0.000227867
)
;
    }
    inlet
    {
        type            turbulentIntensityKineticEnergyInlet;
        intensity       0.05;
        value           uniform 2.4e-05;
    }
    outlet
    {
        type            inletOutlet;
        inletValue      uniform 0.003;
        value           nonuniform List<scalar> 
20
(
0.003
0.000280792
0.00104005
0.003
0.003
0.003
0.003
0.00100611
0.000306231
0.000227796
0.003
0.000258484
0.00110401
0.003
0.003
0.003
0.003
0.00100447
0.000306216
0.000227867
)
;
    }
    heatWall
    {
        type            kqRWallFunction;
        value           nonuniform List<scalar> 
240
(
2.37017e-05
2.37184e-05
2.3433e-05
2.34232e-05
2.3161e-05
2.31041e-05