/*--------------------------------*- C++ -*----------------------------------*\
  =========                 |
  \\      /  F ield         | OpenFOAM: The Open Source CFD Toolbox
   \\    /   O peration     | Website:  https://openfoam.org
    \\  /    A nd           | Version:  8
     \\/     M anipulation  |
\*---------------------------------------------------------------------------*/
FoamFile
{
    version     2.0;
    format      ascii;
    class       volScalarField;
    location    "900";
    object      T;
}
// * * * * * * * * * * * * * * * * * * * * * * * * * * * * * * * * * * * * * //

dimensions      [0 0 0 1 0 0 0];

internalField   nonuniform List<scalar> 
1200
(
303.143
303.135
303.127
303.119
303.111
303.104
303.096
303.088
303.081
303.053
302.635
301.832
301.296
300.906
300.071
298.099
296.908
296.828
296.717
296.671
296.467
296.3
296.248
296.292
296.376
296.42
296.455
296.54
296.651
296.762
296.856
296.927
296.968
296.988
297.02
297.067
297.131
297.197
297.246
297.27
297.445
297.686
297.789
297.705
297.511
297.367
297.432
297.788
297.823
297.746
297.654
297.643
297.807
297.946
297.637
297.63
297.64
297.665
297.702
298.431
303.15
303.15
303.149
303.149
303.148
303.147
303.146
303.144
303.139
302.454
298.429
295.165
294.845
295.467
295.021
293.844
294.639
296.636
295.624
294.248
294.344
295.138
296.084
296.944
297.601
297.983
298.216
298.44
298.644
298.815
298.945
299.032
299.072
299.095
299.123
299.157
299.179
299.126
298.972
298.655
299.228
299.231
298.882
298.714
298.513
298.369
298.45
299.205
299.113
298.636
298.629
298.551
298.556
298.458
298.332
298.497
298.377
297.865
298.038
298.676
303.15
303.15
303.15
303.15
303.15
303.15
303.15
303.149
303.148
302.789
299.544
295.949
294.51
294.248
293.836
293.594
295.951
298.491
298.124
296.961
297.164
298.403
299.455
299.752
299.81
299.824
299.829
299.842
299.845
299.843
299.836
299.825
299.812
299.797
299.78
299.757
299.687
299.477
299.339
299.467
299.409
299.256
299.125
299.014
298.942
299.011
299.37
299.542
299.377
298.979
299.23
299.395
299.574
299.475
299.304
299.385
299.632
299.542
299.582
299.798
303.15
303.15
303.15
303.15
303.15
303.15
303.15
303.15
303.149
302.951
300.412
297.058
295.232
294.54
294.318
294.617
299.289
299.342
299.67
299.838
299.873
299.893
299.902
299.916
299.923
299.927
299.928
299.927
299.926
299.918
299.911
299.908
299.909
299.91
299.91
299.907
299.9
299.881
299.855
299.858
299.865
299.869
299.848
299.82
299.839
299.877
299.918
299.918
299.894
299.85
299.845
299.876
299.88
299.863
299.828
299.815
299.843
299.811
299.93
299.977
303.15
303.15
303.15
303.15
303.15
303.15
303.15
303.15
303.15
303.082
301.75
299.135
297.069
296.009
295.428
295.202
294.739
295.97
298.933
299.819
299.865
299.894
299.911
299.923
299.932
299.938
299.943
299.945
299.946
299.945
299.947
299.949
299.95
299.951
299.952
299.952
299.951
299.95
299.947
299.948
299.952
299.955
299.956
299.955
299.96
299.968
299.974
299.981
299.986
299.984
299.98
299.981
299.981
299.978
299.977
299.982
299.993
299.991
299.994
299.999
303.15
303.15
303.15
303.15
303.15
303.15
303.15
303.15
303.15
303.132
302.606
301.167
299.598
298.463
297.61
296.578
295.514
295.183
295.331
296.246
297.745
299.103
299.776
299.811
299.894
299.922
299.934
299.94
299.944
299.946
299.948
299.949
299.948
299.944
299.936
299.929
299.928
299.929
299.929
299.927
299.923
299.918
299.92
299.922
299.921
299.92
299.923
299.942
299.975
299.991
299.993
299.991
299.989
299.988
299.994
299.996
299.999
300
300
300
303.15
303.15
303.15
303.15
303.15
303.15
303.15
303.15
303.15
303.146
302.99
302.44
301.676
300.928
300.194
298.927
297.686
296.889
295.989
295.656
296.192
297.189
297.988
298.435
298.798
299.221
299.551
299.738
299.849
299.904
299.923
299.929
299.931
299.928
299.921
299.917
299.916
299.919
299.919
299.918
299.894
299.906
299.912
299.895
299.862
299.826
299.787
299.757
299.847
299.92
299.953
299.945
299.919
299.922
299.969
299.989
299.994
299.998
300
300
303.15
303.15
303.15
303.15
303.15
303.15
303.15
303.15
303.15
303.149
303.114
302.96
302.704
302.364
301.963
301.027
299.953
299.201
298.175
297.144
296.711
296.816
297.101
297.369
297.763
298.309
298.818
299.184
299.402
299.49
299.484
299.432
299.371
299.324
299.324
299.367
299.441
299.517
299.575
299.593
299.594
299.59
299.608
299.627
299.669
299.676
299.601
299.594
299.649
299.669
299.711
299.752
299.704
299.616
299.628
299.735
299.833
299.896
299.943
299.961
303.15
303.15
303.149
303.149
303.148
303.148
303.147
303.147
303.147
303.147
303.141
303.109
303.047
302.957
302.818
302.414
301.8
301.235
300.508
299.639
298.862
298.374
298.189
298.215
298.297
298.373
298.478
298.597
298.685
298.713
298.68
298.61
298.527
298.461
298.438
298.459
298.512
298.577
298.625
298.638
298.633
298.651
298.715
298.79
298.842
298.842
298.849
298.856
298.875
298.893
298.943
298.997
298.999
298.975
298.92
298.897
298.956
299.102
299.291
299.401
303.143
303.134
303.127
303.119
303.111
303.104
303.096
303.09
303.085
303.083
303.082
303.08
303.071
303.057
303.031
302.948
302.771
302.555
302.252
301.873
301.465
301.082
300.781
300.606
300.508
300.419
300.314
300.172
300.005
299.852
299.732
299.642
299.58
299.543
299.509
299.465
299.4
299.328
299.262
299.212
299.174
299.144
299.114
299.092
299.075
299.065
299.055
299.044
299.03
299.016
299.003
298.991
298.978
298.959
298.929
298.886
298.842
298.808
298.819
298.823
303.143
303.135
303.127
303.119
303.111
303.104
303.096
303.088
303.081
303.055
302.662
301.882
301.336
300.939
300.116
298.106
296.906
296.83
296.711
296.674
296.488
296.316
296.253
296.292
296.378
296.426
296.461
296.542
296.651
296.761
296.852
296.921
296.962
296.983
297.011
297.053
297.106
297.161
297.202
297.245
297.427
297.651
297.753
297.658
297.453
297.338
297.417
297.697
297.773
297.748
297.659
297.651
297.733
297.862
297.797
297.738
297.679
297.673
297.7
298.509
303.15
303.15
303.149
303.149
303.148
303.147
303.146
303.144
303.139
302.478
298.477
295.19
294.855
295.49
295.057
293.837
294.615
296.68
295.779
294.298
294.345
295.125
296.066
296.931
297.597
297.985
298.216
298.435
298.64
298.812
298.939
299.025
299.068
299.09
299.113
299.14
299.144
299.04
298.835
298.646
299.234
299.241
298.93
298.814
298.661
298.568
298.517
299.281
299.073
298.552
298.616
298.52
298.613
298.614
298.389
298.488
298.435
297.826
298.118
298.739
303.15
303.15
303.15
303.15
303.15
303.15
303.15
303.149
303.148
302.806
299.603
295.992
294.527
294.256
293.828
293.578
295.91
298.516
298.193
297.02
297.178
298.381
299.429
299.75
299.81
299.825
299.829
299.841
299.844
299.842
299.835
299.824
299.81
299.792
299.772
299.74
299.638
299.391
299.259
299.502
299.466
299.27
299.11
299.043
299.015
299.088
299.442
299.559
299.392
298.976
299.218
299.441
299.605
299.497
299.335
299.435
299.642
299.542
299.634
299.849
303.15
303.15
303.15
303.15
303.15
303.15
303.15
303.15
303.149
302.962
300.471
297.11
295.26
294.551
294.323
294.554
299.285
299.331
299.669
299.839
299.874
299.893
299.901
299.916
299.924
299.927
299.928
299.927
299.925
299.916
299.909
299.908
299.911
299.911
299.911
299.909
299.903
299.891
299.87
299.871
299.874
299.871
299.85
299.822
299.85
299.893
299.926
299.923
299.901
299.862
299.856
299.886
299.886
299.87
299.84
299.835
299.849
299.806
299.939
299.988
303.15
303.15
303.15
303.15
303.15
303.15
303.15
303.15
303.15
303.086
301.788
299.187
297.107
296.027
295.433
295.188
294.712
295.997
298.945
299.821
299.866
299.895
299.912
299.923
299.933
299.939
299.943
299.945
299.945
299.945
299.947
299.949
299.951
299.951
299.952
299.952
299.952
299.952
299.951
299.951
299.954
299.956
299.956
299.955
299.961
299.97
299.975
299.981
299.987
299.986
299.982
299.983
299.982
299.979
299.977
299.983
299.993
299.992
299.995
300
303.15
303.15
303.15
303.15
303.15
303.15
303.15
303.15
303.15
303.134
302.623
301.2
299.632
298.482
297.619
296.58
295.48
295.169
295.332
296.238
297.737
299.096
299.782
299.815
299.894
299.922
299.934
299.94
299.944
299.946
299.948
299.949
299.948
299.943
299.935
299.929
299.927
299.927
299.928
299.926
299.921
299.918
299.92
299.921
299.921
299.918
299.921
299.94
299.974
299.991
299.993
299.991
299.989
299.988
299.994
299.996
299.999
300
300
300
303.15
303.15
303.15
303.15
303.15
303.15
303.15
303.15
303.15
303.147
302.997
302.453
301.692
300.934
300.191
298.937
297.668
296.839
295.95
295.638
296.184
297.181
297.975
298.432
298.809
299.242
299.57
299.75
299.855
299.905
299.924
299.929
299.931
299.928
299.921
299.917
299.916
299.918
299.919
299.917
299.889
299.903
299.912
299.893
299.864
299.828
299.79
299.76
299.843
299.918
299.952
299.944
299.918
299.921
299.969
299.989
299.994
299.998
300
300
303.15
303.15
303.15
303.15
303.15
303.15
303.15
303.15
303.15
303.149
303.115
302.963
302.71
302.37
301.951
301.061
299.992
299.173
298.108
297.099
296.697
296.814
297.098
297.371
297.779
298.334
298.841
299.199
299.407
299.485
299.472
299.417
299.356
299.314
299.322
299.37
299.443
299.517
299.573
299.594
299.595
299.59
299.605
299.625
299.659
299.687
299.617
299.611
299.65
299.656
299.704
299.745
299.699
299.611
299.626
299.735
299.834
299.896
299.942
299.96
303.15
303.15
303.149
303.149
303.148
303.148
303.147
303.147
303.147
303.147
303.141
303.109
303.047
302.958
302.82
302.428
301.808
301.223
300.461
299.588
298.827
298.364
298.197
298.23
298.308
298.379
298.482
298.599
298.682
298.703
298.666
298.594
298.512
298.45
298.433
298.457
298.51
298.574
298.621
298.635
298.631
298.651
298.714
298.79
298.834
298.84
298.85
298.856
298.875
298.895
298.952
299.003
298.998
298.971
298.913
298.891
298.957
299.106
299.293
299.4
303.143
303.134
303.127
303.119
303.111
303.104
303.096
303.09
303.085
303.083
303.082
303.079
303.071
303.057
303.032
302.951
302.771
302.546
302.228
301.846
301.443
301.071
300.776
300.604
300.509
300.423
300.316
300.165
299.992
299.84
299.723
299.636
299.578
299.542
299.507
299.46
299.394
299.32
299.253
299.202
299.166
299.138
299.111
299.09
299.074
299.065
299.053
299.041
299.027
299.013
299
298.989
298.975
298.955
298.925
298.881
298.836
298.803
298.815
298.819
)
;

boundaryField
{
    wall
    {
        type            zeroGradient;
    }
    inlet
    {
        type            fixedValue;
        value           uniform 303.15;
    }
    outlet
    {
        type            inletOutlet;
        inletValue      uniform 300;
        value           nonuniform List<scalar> 
20
(
300
298.672
299.8
300
300
300
300
299.961
299.401
298.822
300
298.761
299.864
300
300
300
300
299.96
299.399
298.818
)
;
    }
    heatWall
    {
        type            fixedGradient;
        gradient        uniform -500;
    }
}


// ************************************************************************* //
