/*--------------------------------*- C++ -*----------------------------------*\
  =========                 |
  \\      /  F ield         | OpenFOAM: The Open Source CFD Toolbox
   \\    /   O peration     | Website:  https://openfoam.org
    \\  /    A nd           | Version:  8
     \\/     M anipulation  |
\*---------------------------------------------------------------------------*/
FoamFile
{
    version     2.0;
    format      ascii;
    class       volVectorField;
    location    "900";
    object      U;
}
// * * * * * * * * * * * * * * * * * * * * * * * * * * * * * * * * * * * * * //

dimensions      [0 1 -1 0 0 0 0];

internalField   nonuniform List<vector> 
1200
(
(0.0800235 -0.00539872 -0.000450731)
(0.0804054 -0.00390381 -0.00139512)
(0.0801363 -0.00304683 -0.00251216)
(0.0796072 -0.00246092 -0.00241532)
(0.0789286 -0.00206385 5.77275e-05)
(0.0785252 -0.00161583 0.00442635)
(0.0780254 -0.00108692 0.00945498)
(0.0769 -0.00051075 0.0180606)
(0.0754657 -0.00017233 0.0251467)
(0.0707716 -0.000596763 0.0335647)
(0.0710678 -0.00116118 0.0608977)
(0.0844238 0.000718209 0.0771453)
(0.0930609 0.0053216 0.0746655)
(0.0898156 0.00621868 0.0631317)
(0.0693497 0.0078545 0.0996235)
(0.0691496 -0.00185377 0.0865903)
(0.127992 -0.00803618 0.0719615)
(0.184647 -0.00885313 0.0711226)
(0.234129 -0.0125717 0.079732)
(0.248553 -0.0153594 0.111058)
(0.263631 -0.00355598 0.154069)
(0.294937 0.00704244 0.208198)
(0.322672 0.0136949 0.249825)
(0.352617 0.0115143 0.282293)
(0.392752 6.26836e-05 0.29142)
(0.432184 -0.00563162 0.27648)
(0.45723 -0.000882677 0.25279)
(0.477747 0.00398275 0.21829)
(0.502934 0.00456953 0.183764)
(0.529034 0.0031567 0.160649)
(0.551698 0.000854206 0.149016)
(0.567135 -0.000469357 0.144309)
(0.576156 -0.000659298 0.13894)
(0.577745 -0.000981053 0.12829)
(0.570995 -0.000633 0.112412)
(0.561187 0.00273805 0.0923092)
(0.547817 0.011328 0.0666299)
(0.515149 0.0244093 0.0406147)
(0.460654 0.0237809 0.0161218)
(0.414305 0.017578 -0.00686868)
(0.398623 0.00742248 -0.0274285)
(0.436018 -0.00446043 -0.0285739)
(0.493572 -0.00407545 -0.0395611)
(0.493253 0.00757274 -0.0759252)
(0.386882 0.0193719 -0.0938018)
(0.199178 0.0272888 -0.0777239)
(-0.0678113 0.0817769 -0.0382926)
(-0.0468284 0.0376778 0.0313249)
(0.118554 0.0150527 0.0669809)
(0.136834 0.0702915 0.059854)
(0.0371661 0.00319657 0.127277)
(-0.0513247 -0.0240627 0.0916511)
(-0.0669295 -0.0757446 -0.170414)
(0.177551 -0.124558 -0.0546867)
(0.449917 -0.0511472 0.0795023)
(0.630062 -0.0556931 0.176555)
(0.822567 0.0123268 0.129856)
(0.748523 0.0768655 0.079275)
(0.311812 0.198082 -0.119281)
(-0.216095 0.264109 0.562068)
(0.0801969 0.00210871 -0.000314139)
(0.0801779 0.00255876 -0.00113937)
(0.0799951 0.00244453 -0.0023303)
(0.0797022 0.00226495 -0.00263834)
(0.0793167 0.00207677 -0.000592693)
(0.0791945 0.00191554 0.00409604)
(0.0788335 0.00190832 0.0113972)
(0.0774129 0.0021419 0.0276657)
(0.0746626 0.00314751 0.0537121)
(0.0667241 0.00426481 0.151629)
(0.0636283 0.00282012 0.422839)
(0.0384939 0.00101759 0.556523)
(0.0198899 0.000119833 0.408427)
(0.0134987 0.00654416 0.238149)
(0.0129439 0.0026403 0.108622)
(0.0402634 -0.0207675 -0.160482)
(0.083865 -0.0294828 -0.149559)
(0.0907487 -0.0374993 0.0335068)
(0.129114 -0.0101748 0.138342)
(0.170648 0.0163543 0.38139)
(0.182992 0.00427166 0.543394)
(0.194398 -0.00700519 0.584239)
(0.201649 -0.0171445 0.532076)
(0.205408 -0.0258677 0.467063)
(0.21693 -0.025718 0.410284)
(0.241268 -0.0159502 0.350358)
(0.259307 -0.015444 0.268713)
(0.259601 -0.0241666 0.1879)
(0.261409 -0.0273389 0.142813)
(0.265133 -0.0258686 0.138447)
(0.268861 -0.0177973 0.160922)
(0.264486 -0.00971877 0.190502)
(0.258505 -0.00456831 0.212038)
(0.245467 0.00267252 0.221779)
(0.22395 0.00697191 0.215257)
(0.207937 0.00640253 0.196011)
(0.199913 0.00703034 0.154636)
(0.184566 0.0224926 0.0974323)
(0.133813 0.0385855 0.0467839)
(0.0566139 -0.000953455 -0.043345)
(0.0321665 -0.0351475 -0.0875544)
(-0.0306059 -0.0460159 -0.0343869)
(0.139291 -0.0167955 -0.00277485)
(-0.142674 -0.00709901 -0.0422519)
(-0.130717 0.0721366 -0.0465994)
(-0.313366 0.143424 -0.000497447)
(-0.323134 0.137372 -0.00309495)
(-0.0490532 0.0415935 -0.0507461)
(-0.136736 0.0545048 0.137839)
(0.0967707 0.086645 0.0809689)
(0.167266 0.0426039 0.214281)
(-0.270894 0.085481 0.0854979)
(-0.158818 0.0285468 -0.0919972)
(-0.263496 -0.0614397 0.0235328)
(0.208965 -0.0337217 0.0541483)
(0.253697 0.000602714 0.0741646)
(-0.218968 -0.0146307 -0.112654)
(0.445045 0.0957415 0.0494878)
(0.0431971 0.212414 -0.169317)
(0.480427 0.104166 -0.298479)
(0.0798523 -0.000371593 -0.000409257)
(0.0797604 -0.000748211 -0.00205152)
(0.0797139 -0.000965861 -0.00435044)
(0.0796916 -0.00102244 -0.00548345)
(0.0795784 -0.00102666 -0.00380433)
(0.0793426 -0.000890365 0.000735054)
(0.0792305 -0.000228217 0.00699595)
(0.078906 0.00134958 0.0186094)
(0.0785305 0.00433904 0.0361842)
(0.0762105 0.00955691 0.0905163)
(0.0764818 0.0153576 0.271134)
(0.0656854 0.0152763 0.423033)
(0.0457281 0.00804794 0.382936)
(0.0148397 0.00339482 0.21658)
(0.0138091 -0.00937821 -0.0538535)
(0.0248681 -0.0325356 -0.333757)
(0.0226958 -0.0255978 -0.162192)
(-0.027218 -0.0402985 0.15845)
(-0.0581517 -0.0570466 0.194661)
(0.0379521 -0.0271894 0.288426)
(0.0787801 -0.00883291 0.336755)
(0.0813292 -0.00407291 0.30194)
(0.0487492 0.00276957 0.216517)
(-0.0173228 0.00197357 0.214402)
(-0.0745062 -0.0155032 0.231432)
(-0.0905991 -0.028733 0.247439)
(-0.0765189 -0.0141105 0.268277)
(-0.135016 -0.00117301 0.276853)
(-0.176241 -0.00404601 0.282213)
(-0.216509 -0.00585979 0.29017)
(-0.262925 -0.0027819 0.296301)
(-0.318689 -0.001182 0.307208)
(-0.359766 0.00196789 0.306924)
(-0.371289 0.0056988 0.283871)
(-0.35753 0.00667189 0.233399)
(-0.330165 0.00549572 0.171274)
(-0.298108 0.00741287 0.0971375)
(-0.255121 0.0357993 0.044454)
(-0.272652 0.0523694 -0.0106576)
(-0.345737 0.0439549 -0.0629929)
(-0.451861 0.0248593 -0.04925)
(-0.511377 -0.00774658 -0.0477472)
(-0.561673 -0.00255234 -0.032435)
(-0.588995 0.0295958 0.00986879)
(-0.508194 0.073702 -0.0119687)
(-0.486002 0.117995 -0.0306771)
(-0.358054 0.0840874 -0.151709)
(-0.260713 0.0478547 -0.30491)
(-0.0951128 0.00721173 -0.172581)
(-0.0332113 0.0530117 0.192528)
(-0.072116 0.0814367 0.330995)
(-0.241247 0.128983 -0.313694)
(-0.0777519 0.104559 -0.715803)
(0.0704477 0.0764814 -0.395224)
(0.0636665 0.0776276 -0.140515)
(0.0911205 0.167457 -0.375214)
(0.0401158 0.0724411 -0.448521)
(-0.03633 0.0167465 -0.263482)
(0.00533219 0.10014 -0.713719)
(0.215661 0.141615 -0.679225)
(0.0800468 0.000101916 -0.000370329)
(0.0801123 0.00042303 -0.00154512)
(0.0800618 0.000735555 -0.00291828)
(0.0798753 0.000955788 -0.00326749)
(0.0796079 0.00108826 -0.0015824)
(0.0795291 0.00129277 0.00198301)
(0.0795828 0.00191029 0.00624512)
(0.0792931 0.00314719 0.0144272)
(0.0789522 0.00557217 0.0278857)
(0.0776635 0.0095307 0.0684279)
(0.0822047 0.0145743 0.209288)
(0.0855816 0.0156919 0.341062)
(0.0773437 0.0138947 0.352022)
(0.0591857 0.00931441 0.28788)
(0.0339691 0.0175733 0.0968482)
(-0.0219022 -0.017095 -0.337836)
(-0.111179 -0.0145863 0.0539838)
(-0.177518 -0.0329902 0.224712)
(-0.241374 -0.0464094 0.289544)
(-0.311237 -0.0303054 0.31126)
(-0.357881 -0.00837711 0.317652)
(-0.396642 0.00322008 0.326903)
(-0.432015 0.0145754 0.339132)
(-0.471337 0.0181723 0.359927)
(-0.498896 0.00320813 0.370412)
(-0.508879 -0.00813883 0.366855)
(-0.510066 0.00244461 0.345984)
(-0.479255 0.00890847 0.30057)
(-0.437348 0.00349816 0.210167)
(-0.408948 0.0049954 0.0868207)
(-0.463592 0.00941224 0.0313392)
(-0.519083 0.0110211 -0.00122523)
(-0.552834 0.0118619 -0.047814)
(-0.577071 0.00785339 -0.0922301)
(-0.595307 0.000673781 -0.138908)
(-0.608864 -0.0080495 -0.178862)
(-0.618237 -0.0131832 -0.209595)
(-0.629459 0.0214656 -0.233754)
(-0.63671 0.0684881 -0.258682)
(-0.650874 0.0898344 -0.286714)
(-0.674132 0.0576233 -0.325453)
(-0.687928 -0.0131994 -0.374221)
(-0.70233 -0.0329964 -0.432485)
(-0.726033 0.009832 -0.483715)
(-0.779965 0.048145 -0.549574)
(-0.817533 0.0826237 -0.635221)
(-0.822474 0.0796217 -0.71995)
(-0.817802 0.0555645 -0.803821)
(-0.789811 0.0430193 -0.827688)
(-0.740923 0.0641711 -0.783639)
(-0.729562 0.110267 -0.812631)
(-0.721919 0.135152 -0.973397)
(-0.682903 0.114196 -1.02694)
(-0.590262 0.0684903 -0.852784)
(-0.420613 0.0626857 -0.592782)
(-0.207816 0.100929 -0.464566)
(-0.0111765 0.0155339 -0.238913)
(-0.0998752 0.0346519 0.219613)
(-0.0784146 0.10942 -0.743459)
(-0.156859 0.0930429 -0.418238)
(0.0800269 7.24442e-05 -0.000347979)
(0.0800463 7.00181e-05 -0.0015892)
(0.0799425 -3.7499e-05 -0.00322478)
(0.0797867 -0.000187144 -0.00399209)
(0.0796445 -0.000287173 -0.00287645)
(0.0795416 -0.000195365 0.000127727)
(0.0796159 0.00029173 0.0033557)
(0.0800223 0.00184231 0.00796785)
(0.0810459 0.00508141 0.0141019)
(0.0826436 0.0104666 0.0328176)
(0.0886451 0.0181353 0.110043)
(0.0968186 0.0196489 0.212088)
(0.099165 0.0156823 0.263468)
(0.0960278 0.0140511 0.252962)
(0.082837 0.011723 0.186355)
(0.0896911 0.0394102 0.0020925)
(0.0691985 0.0267944 -0.218124)
(0.0577106 0.00753756 -0.198037)
(-0.0119792 -0.0104402 -0.0618574)
(-0.100743 0.00323458 0.069084)
(-0.171669 0.0114741 0.180097)
(-0.225122 0.0170098 0.254039)
(-0.277875 0.0292019 0.301486)
(-0.316561 0.0290822 0.324014)
(-0.335001 0.00179324 0.312422)
(-0.343819 -0.0162253 0.289232)
(-0.345487 -0.00397755 0.252416)
(-0.326913 0.0115549 0.176947)
(-0.306929 0.0200104 0.0769264)
(-0.338129 0.0214274 0.0141464)
(-0.400446 0.011768 -0.0167438)
(-0.457153 0.00695643 -0.0514304)
(-0.49875 0.00851583 -0.0918025)
(-0.530731 0.00734719 -0.13646)
(-0.5554 0.000180097 -0.183922)
(-0.57615 -0.0123242 -0.224943)
(-0.592132 -0.0163769 -0.260939)
(-0.628457 0.0195139 -0.299175)
(-0.674652 0.0704513 -0.33152)
(-0.715189 0.0913405 -0.380587)
(-0.754047 0.0581586 -0.44936)
(-0.778285 -0.013726 -0.528208)
(-0.800218 -0.0350071 -0.612163)
(-0.826458 0.010007 -0.68776)
(-0.851608 0.0637515 -0.769958)
(-0.875311 0.0956383 -0.884104)
(-0.890231 0.082077 -1.00622)
(-0.921294 0.0466174 -1.14938)
(-0.97298 0.0467763 -1.28863)
(-1.01125 0.0725478 -1.39455)
(-1.03164 0.12531 -1.47091)
(-1.04061 0.155019 -1.59635)
(-1.03725 0.113104 -1.7108)
(-1.0115 0.0538288 -1.7465)
(-0.97856 0.0235257 -1.71582)
(-0.912594 0.0226347 -1.65096)
(-0.858339 0.00412116 -1.48974)
(-0.755909 0.0310211 -1.18607)
(-0.640557 0.0815312 -1.07437)
(-0.684907 0.0996888 -0.922841)
(0.0800312 0.000114159 -0.000302675)
(0.0800559 0.000190071 -0.00144404)
(0.0799457 0.000353443 -0.00293341)
(0.079777 0.000558951 -0.00374309)
(0.079686 0.000790398 -0.00322958)
(0.0796987 0.0011146 -0.00113904)
(0.0798579 0.0017 0.000901306)
(0.0802326 0.00286568 0.00306121)
(0.0816554 0.00519835 0.00526148)
(0.0842938 0.00885777 0.0129987)
(0.0916012 0.0142434 0.0496927)
(0.102779 0.0160275 0.108384)
(0.110685 0.0144634 0.155542)
(0.114071 0.0133462 0.177416)
(0.109666 0.0138494 0.176183)
(0.108009 0.0307519 0.0964152)
(0.114759 0.0241384 -0.141865)
(0.125753 0.00477092 -0.261757)
(0.0944582 0.012399 -0.354766)
(0.0685468 0.0216724 -0.401972)
(0.0430408 0.0301996 -0.303495)
(0.0185315 0.0349994 -0.147049)
(-0.0327851 0.0390603 0.120535)
(-0.0511997 0.0337757 0.152566)
(-0.0264048 0.0132096 0.191913)
(-0.083568 0.00724308 0.214927)
(-0.129971 0.018932 0.202355)
(-0.14545 0.026485 0.176818)
(-0.135325 0.0356018 0.124463)
(-0.133331 0.0403643 0.0910395)
(-0.15367 0.0349835 0.100041)
(-0.165998 0.0254292 0.119691)
(-0.17623 0.0232535 0.130672)
(-0.181132 0.014044 0.141795)
(-0.158829 0.0042271 0.133446)
(-0.195206 0.0165703 0.0806188)
(-0.288596 0.0178367 0.0263197)
(-0.438162 0.041912 -0.0798945)
(-0.497212 0.0800293 -0.120143)
(-0.532161 0.0929955 -0.13539)
(-0.533425 0.0402341 -0.127148)
(-0.470985 -0.033713 -0.139457)
(-0.483347 -0.0422189 -0.266723)
(-0.518716 0.00311739 -0.362448)
(-0.52872 0.046983 -0.403977)
(-0.530567 0.0829981 -0.473731)
(-0.542164 0.0775661 -0.596963)
(-0.591451 0.0507415 -0.794286)
(-0.685941 0.0620004 -1.03708)
(-0.76754 0.100445 -1.19071)
(-0.825327 0.142554 -1.30305)
(-0.848963 0.162536 -1.39891)
(-0.847466 0.118658 -1.52198)
(-0.837711 0.0610105 -1.66376)
(-0.848496 0.0387732 -1.71788)
(-0.831855 0.0499338 -1.64515)
(-0.826474 0.0189675 -1.42843)
(-0.810901 0.00727543 -1.21923)
(-0.74134 0.0668813 -0.965665)
(-0.785963 0.111593 -0.643253)
(0.0800525 6.901e-05 -0.000247173)
(0.0801198 -0.00016794 -0.00118076)
(0.0800488 -0.000413478 -0.00223761)
(0.0798548 -0.000593993 -0.00273541)
(0.0797446 -0.000646435 -0.00249512)
(0.0798307 -0.000497799 -0.00116334)
(0.0801917 -2.38453e-06 -8.62797e-06)
(0.0807332 0.00105743 0.000581534)
(0.0823591 0.00318163 0.000315497)
(0.0855749 0.00663819 0.00128928)
(0.0931556 0.011985 0.0116861)
(0.104813 0.0141867 0.0334283)
(0.115242 0.0129833 0.0567039)
(0.122629 0.0138065 0.0732435)
(0.125901 0.0139173 0.0823038)
(0.130068 0.0244052 0.0717503)
(0.151511 0.0335141 -0.0185604)
(0.168314 0.0239814 -0.0955534)
(0.162787 0.0158777 -0.231573)
(0.161415 0.0238469 -0.363077)
(0.160266 0.0356637 -0.412388)
(0.157982 0.0468712 -0.39516)
(0.163769 0.0444842 -0.330884)
(0.186937 0.0230675 -0.307188)
(0.195764 0.0100064 -0.254559)
(0.166944 0.0173866 -0.183025)
(0.134605 0.0240231 -0.098617)
(0.111513 0.0289662 -0.0435003)
(0.0981834 0.0375394 -0.0208943)
(0.0989852 0.0421357 -0.0322137)
(0.104789 0.0337042 -0.0402765)
(0.099703 0.0234364 -0.022767)
(0.0528318 0.0209571 -0.0182004)
(0.0618055 0.00987807 -0.035783)
(-0.0146794 0.00361623 0.030856)
(0.0279294 0.015704 0.0594023)
(0.0576313 0.0250797 0.0820024)
(0.0482917 0.0224422 0.0820822)
(-0.00746849 0.0120914 0.0421009)
(-0.0839103 -0.00129356 0.0323957)
(0.101749 -0.0158276 0.210516)
(0.0622326 -0.0191344 0.348097)
(0.0189798 -0.0105517 0.304016)
(-0.136639 -0.00379454 0.0911696)
(-0.0268919 0.0280663 0.158236)
(0.0655939 0.0447361 0.352541)
(0.0584959 0.03928 0.392097)
(0.0277626 0.0499959 0.291785)
(-0.089619 0.0541768 -0.484296)
(-0.198722 0.0851549 -0.82547)
(-0.274076 0.12663 -0.958073)
(-0.268456 0.125548 -1.12223)
(-0.250668 0.0728271 -1.32768)
(-0.309013 0.0196698 -1.70332)
(-0.386177 0.0123949 -2.00095)
(-0.409612 0.020755 -1.98459)
(-0.438261 0.00411373 -1.71823)
(-0.452711 -0.000883896 -1.53672)
(-0.479809 0.0772981 -1.03572)
(-0.463405 0.166098 -0.931389)
(0.0798691 0.000483847 -0.000200385)
(0.0797941 0.000902116 -0.00132635)
(0.0797009 0.00116036 -0.00286134)
(0.0796152 0.00126851 -0.00401695)
(0.0797381 0.00137309 -0.00477453)
(0.0800992 0.00155952 -0.00453924)
(0.0806835 0.00191809 -0.00425814)
(0.0816198 0.00260459 -0.0046441)
(0.0835351 0.00389158 -0.00584641)
(0.0870836 0.00592245 -0.0073947)
(0.0939404 0.00877508 -0.00876257)
(0.103707 0.00969735 -0.00675762)
(0.112967 0.00920913 -0.00355849)
(0.122412 0.00919971 0.00149733)
(0.129967 0.0121385 0.00655193)
(0.144858 0.019618 0.0225335)
(0.171805 0.02797 -0.00127892)
(0.196352 0.0228651 -0.0296738)
(0.210433 0.0234101 -0.0979569)
(0.224081 0.0259604 -0.201175)
(0.240269 0.0317318 -0.284239)
(0.258346 0.0376189 -0.340499)
(0.283149 0.0392263 -0.360679)
(0.30349 0.0267292 -0.378925)
(0.301278 0.0145097 -0.381024)
(0.28771 0.0168457 -0.355422)
(0.276679 0.0236823 -0.311342)
(0.266167 0.0304295 -0.258902)
(0.266218 0.036082 -0.226028)
(0.284529 0.0379746 -0.221523)
(0.310927 0.0348766 -0.237413)
(0.339139 0.0313529 -0.261582)
(0.366994 0.0245214 -0.286976)
(0.389083 0.0162895 -0.303338)
(0.391279 0.012164 -0.303919)
(0.374542 0.0125866 -0.274492)
(0.353975 0.0242433 -0.229773)
(0.356736 0.0282537 -0.189044)
(0.371023 0.0253302 -0.160353)
(0.388049 0.00525279 -0.142507)
(0.337423 -0.0260025 -0.118031)
(0.262939 -0.0116914 -0.0937976)
(0.228295 0.0197429 -0.060371)
(0.227909 0.0238848 -0.071167)
(0.215459 0.0290316 -0.0294256)
(0.244195 0.0488292 0.0850873)
(0.307971 0.0413478 0.101457)
(0.320063 0.0439774 0.100564)
(0.35329 0.0427645 -0.0412936)
(0.224771 0.0539416 -0.221327)
(0.21534 0.06086 -0.348031)
(0.253055 0.0702257 -0.439905)
(0.279337 0.0509856 -0.399204)
(0.244319 0.0448478 -0.495345)
(0.188579 0.0401932 -0.863701)
(0.190957 0.041926 -1.45245)
(0.136316 0.0241827 -1.5414)
(0.153692 0.0267421 -1.75998)
(0.0173483 0.0687514 -1.23092)
(0.182967 0.0719262 -1.27547)
(0.0802078 -0.00202919 -0.000163085)
(0.0801959 -0.00247198 -0.000705938)
(0.079989 -0.0023712 -0.00134171)
(0.0796781 -0.00218564 -0.00174935)
(0.0795805 -0.00193435 -0.00223607)
(0.0798462 -0.00161717 -0.00227318)
(0.0805084 -0.00117942 -0.00258691)
(0.0816797 -0.000465644 -0.0042015)
(0.0839876 0.000725434 -0.00734578)
(0.0880252 0.00243126 -0.0123972)
(0.0950299 0.00469698 -0.0199578)
(0.104944 0.00592312 -0.0271768)
(0.115391 0.00617433 -0.0355291)
(0.126116 0.00636237 -0.0429194)
(0.135444 0.00825911 -0.0490357)
(0.152589 0.0158748 -0.0408455)
(0.181199 0.0193767 -0.0382639)
(0.208703 0.0189651 -0.0337327)
(0.234817 0.0198915 -0.0492861)
(0.263901 0.0216829 -0.0876643)
(0.294076 0.0234311 -0.133545)
(0.325758 0.0256843 -0.186571)
(0.360663 0.0246422 -0.225867)
(0.387906 0.0168157 -0.252044)
(0.397446 0.011111 -0.282489)
(0.40301 0.0123498 -0.319935)
(0.41591 0.0160678 -0.345969)
(0.432683 0.0197305 -0.354309)
(0.456669 0.0238179 -0.358835)
(0.489895 0.0259546 -0.371477)
(0.526091 0.0244305 -0.390878)
(0.560041 0.02227 -0.415765)
(0.589057 0.0183141 -0.438809)
(0.605483 0.0122904 -0.453953)
(0.610255 0.00710903 -0.463701)
(0.6111 0.00563859 -0.461817)
(0.618238 0.0140188 -0.450564)
(0.639808 0.0201 -0.436949)
(0.667609 0.0198015 -0.425945)
(0.689014 0.0104447 -0.418892)
(0.689615 0.00448211 -0.415507)
(0.678705 0.00923574 -0.413784)
(0.682808 0.0182315 -0.398833)
(0.701461 0.0231892 -0.371399)
(0.72839 0.0254651 -0.339764)
(0.768831 0.00167535 -0.336708)
(0.762781 -0.0179371 -0.33326)
(0.745982 -0.0152561 -0.3372)
(0.750679 0.00519621 -0.328979)
(0.757212 -0.0189514 -0.326749)
(0.731443 -0.0382614 -0.307926)
(0.731116 -0.0168056 -0.302751)
(0.747172 -0.0326025 -0.310236)
(0.728004 -0.0258135 -0.394951)
(0.711799 -0.0045222 -0.559831)
(0.732331 0.0178154 -0.846964)
(0.738873 0.00961147 -1.01403)
(0.752953 0.0156865 -1.30874)
(0.734754 0.0508254 -1.23131)
(0.855037 0.0697068 -1.2873)
(0.0800339 0.00543003 -3.65518e-05)
(0.0804171 0.00395251 -0.000620694)
(0.0801062 0.00311244 -0.00114148)
(0.0795256 0.00254685 -0.00125441)
(0.0790879 0.0021711 -0.00141015)
(0.0789666 0.00192088 -0.00107415)
(0.0792377 0.00176812 -0.000907671)
(0.0800543 0.00173312 -0.00186274)
(0.082122 0.00185957 -0.00377218)
(0.0861468 0.00211967 -0.00736843)
(0.0931827 0.00246082 -0.0137636)
(0.1031 0.00249461 -0.0203013)
(0.113776 0.0023263 -0.0277406)
(0.12511 0.00228207 -0.0336302)
(0.135654 0.00258161 -0.0395938)
(0.153801 0.00511092 -0.0399536)
(0.183055 0.00659798 -0.0406079)
(0.212544 0.00631182 -0.0321208)
(0.244808 0.00742771 -0.0282818)
(0.284175 0.00863763 -0.0329108)
(0.328556 0.00975653 -0.0397309)
(0.373604 0.0100946 -0.055125)
(0.416038 0.00944079 -0.0687462)
(0.44731 0.00650856 -0.0812101)
(0.463126 0.00455936 -0.0977353)
(0.475819 0.00495875 -0.122056)
(0.495593 0.0054274 -0.148125)
(0.520916 0.00572539 -0.172664)
(0.552388 0.00624491 -0.195576)
(0.590255 0.00677507 -0.215229)
(0.62807 0.00618778 -0.225765)
(0.661549 0.00572879 -0.230953)
(0.690109 0.0055936 -0.229998)
(0.709887 0.00553428 -0.22925)
(0.72076 0.00474042 -0.229276)
(0.726933 0.00507013 -0.230396)
(0.740134 0.00771581 -0.237048)
(0.768791 0.00729841 -0.245981)
(0.802424 0.00411274 -0.253112)
(0.824444 -0.00341268 -0.253881)
(0.822323 -0.00891685 -0.250258)
(0.815514 -0.00432724 -0.248823)
(0.833004 0.0050776 -0.249728)
(0.867092 0.0069627 -0.248391)
(0.909539 0.0121965 -0.242224)
(0.946141 0.00963228 -0.237599)
(0.947275 0.00212055 -0.235492)
(0.933793 -0.00256004 -0.23541)
(0.937782 -0.00502517 -0.230307)
(0.941778 -0.012525 -0.23153)
(0.923209 -0.0107893 -0.225393)
(0.92758 -0.00404329 -0.219827)
(0.941211 -0.00491352 -0.217255)
(0.928409 -0.00238804 -0.27064)
(0.909025 -0.000118386 -0.363209)
(0.927881 0.00510546 -0.51569)
(0.947391 0.00995183 -0.573457)
(0.98691 0.021715 -0.742891)
(1.03902 0.0308402 -0.729221)
(1.20579 0.0143991 -0.912769)
(0.0800364 -0.00535393 -0.000519235)
(0.080416 -0.0037824 -0.001459)
(0.0802157 -0.00284087 -0.00255782)
(0.0798075 -0.0022251 -0.00244887)
(0.079096 -0.00192062 1.67399e-05)
(0.0784207 -0.00175747 0.00440193)
(0.07788 -0.00148356 0.00943846)
(0.0767937 -0.001048 0.0180081)
(0.075353 -0.00073666 0.0250843)
(0.0706814 -0.00132458 0.0333208)
(0.0705391 -0.00229171 0.0593184)
(0.0835181 -0.00054059 0.0746525)
(0.0922209 0.00413134 0.0728829)
(0.0895624 0.00524474 0.0623612)
(0.0701763 0.00709803 0.0993978)
(0.0712771 -0.00201055 0.0861448)
(0.128058 -0.0089998 0.0705648)
(0.184277 -0.00993889 0.0709565)
(0.236355 -0.012585 0.0798113)
(0.253845 -0.015861 0.108683)
(0.26817 -0.00501388 0.148879)
(0.298408 0.00566876 0.20205)
(0.325781 0.0126539 0.244585)
(0.354885 0.0108852 0.278726)
(0.394116 0.000538997 0.289684)
(0.433353 -0.00545536 0.275672)
(0.458557 -0.00152351 0.252407)
(0.479011 0.00308562 0.218414)
(0.504279 0.00399597 0.184099)
(0.53086 0.00332035 0.161066)
(0.553598 0.00155603 0.149352)
(0.568059 -7.70269e-05 0.144523)
(0.575558 -0.000666179 0.139033)
(0.575934 -0.00113781 0.128252)
(0.568587 -0.000980253 0.112156)
(0.557974 0.00240895 0.0917577)
(0.542535 0.0116693 0.0656509)
(0.505249 0.0249388 0.0389636)
(0.445332 0.0248164 0.0133796)
(0.390697 0.0195229 -0.0103266)
(0.392524 0.0102507 -0.028806)
(0.445297 0.00148229 -0.0295197)
(0.498359 0.00344467 -0.0401297)
(0.498883 0.0114173 -0.0734247)
(0.41278 0.0214321 -0.0911667)
(0.251513 0.0299782 -0.0803759)
(0.0573877 0.065513 -0.0544481)
(0.10507 0.0345217 -0.0149761)
(0.262909 0.0157616 0.0600113)
(0.256242 0.0606551 0.0626314)
(-0.0710808 -0.00910825 0.13799)
(-0.229298 -0.028753 0.0741854)
(-0.0293083 -0.0531973 -0.156263)
(0.246672 -0.089643 -0.0774459)
(0.459487 -0.0835132 0.0658721)
(0.599508 -0.0840331 0.166405)
(0.783073 -0.000844199 0.116358)
(0.72153 0.0724548 0.0670838)
(0.324315 0.209695 -0.132471)
(-0.240443 0.244308 0.58298)
(0.080194 0.00211358 -0.000220771)
(0.0801592 0.00252194 -0.00103158)
(0.0800409 0.00236029 -0.00224076)
(0.0799233 0.00216036 -0.00257149)
(0.0796423 0.00200217 -0.000542401)
(0.0792939 0.00193048 0.00412684)
(0.0789087 0.00191778 0.0114013)
(0.0775583 0.00215687 0.0275747)
(0.0748762 0.00319663 0.0535018)
(0.0669438 0.00437734 0.150014)
(0.0636548 0.0029545 0.421263)
(0.0387726 0.00115449 0.557003)
(0.0201159 0.000232532 0.410135)
(0.0137715 0.00659202 0.239387)
(0.0130963 0.0020252 0.110596)
(0.0394583 -0.0208879 -0.159919)
(0.0830071 -0.0306147 -0.148578)
(0.0914865 -0.038343 0.0368033)
(0.127447 -0.0130592 0.140105)
(0.171631 0.0154729 0.377897)
(0.184742 0.00531099 0.541589)
(0.196545 -0.00592353 0.58476)
(0.204025 -0.0161059 0.533706)
(0.207676 -0.0251015 0.468221)
(0.218395 -0.0256652 0.410774)
(0.242032 -0.0162222 0.351514)
(0.260608 -0.0148597 0.270451)
(0.262044 -0.0228643 0.189708)
(0.264387 -0.0263323 0.144543)
(0.268065 -0.0254406 0.140133)
(0.272506 -0.0175381 0.162059)
(0.268247 -0.00894358 0.19146)
(0.261124 -0.00403364 0.213292)
(0.246515 0.00295045 0.223719)
(0.225029 0.00722076 0.217544)
(0.209379 0.00791919 0.198149)
(0.202385 0.0125797 0.156052)
(0.185553 0.0327276 0.0967575)
(0.131129 0.0452346 0.0453349)
(0.0600658 0.01216 -0.0386781)
(0.0373097 -0.0293802 -0.077759)
(-0.0510101 -0.0384085 -0.0291379)
(0.124696 -0.0190408 0.00225487)
(-0.171598 -0.028979 -0.0396324)
(-0.0203445 0.046354 -0.0676623)
(-0.215797 0.13331 -0.0207739)
(-0.295775 0.132905 -0.00674066)
(-0.00839883 0.00147289 -0.084694)
(-0.034532 0.0223067 0.150508)
(0.160593 0.0621582 0.0882199)
(0.0796067 0.027987 0.216515)
(-0.387009 0.089098 0.0744422)
(0.00404123 0.0545622 -0.130577)
(-0.00654693 -0.070151 -0.0711114)
(0.291117 -0.0797331 -0.0246557)
(0.175356 -0.0166981 0.0322778)
(-0.435123 -0.0295895 -0.128141)
(0.446966 0.107148 0.0540015)
(0.137079 0.220627 -0.156888)
(0.649207 0.154715 -0.304077)
(0.0798418 -0.000378859 -0.000450563)
(0.0797187 -0.000778018 -0.00210927)
(0.0797712 -0.00100642 -0.00440149)
(0.0799579 -0.00106185 -0.00552456)
(0.079981 -0.00105418 -0.00384347)
(0.0797164 -0.000955407 0.00068024)
(0.079372 -0.000505777 0.00693566)
(0.0789457 0.000915347 0.0185116)
(0.0786025 0.00397202 0.036003)
(0.0763088 0.00927437 0.0896503)
(0.0764708 0.01519 0.26944)
(0.0658098 0.0152895 0.422571)
(0.0458832 0.00818283 0.38457)
(0.0148591 0.00376437 0.219055)
(0.0148063 -0.010411 -0.0590265)
(0.0247671 -0.0334061 -0.334884)
(0.0215642 -0.0290764 -0.162457)
(-0.0271998 -0.0396723 0.163154)
(-0.0603628 -0.0585901 0.199228)
(0.0335094 -0.0301317 0.288285)
(0.0785574 -0.0100788 0.336638)
(0.0853165 -0.00430536 0.303279)
(0.0560246 0.00322422 0.218909)
(-0.0104697 0.00311595 0.215295)
(-0.0675061 -0.0139418 0.230586)
(-0.0871897 -0.0273951 0.246036)
(-0.0739937 -0.0135736 0.268283)
(-0.131324 -0.000697011 0.277487)
(-0.171671 -0.00436057 0.282482)
(-0.212242 -0.006398 0.291578)
(-0.260863 -0.00160878 0.299512)
(-0.318409 0.00119553 0.310316)
(-0.359021 0.00424499 0.307449)
(-0.367637 0.00811118 0.281762)
(-0.351915 0.00913525 0.229622)
(-0.320979 0.00766258 0.167818)
(-0.277953 0.00839549 0.0978252)
(-0.212406 0.03685 0.0539698)
(-0.209512 0.057851 0.000134212)
(-0.281646 0.0497316 -0.06045)
(-0.425208 0.0322479 -0.0435989)
(-0.521542 0.000149116 -0.03546)
(-0.561913 -0.00109555 -0.0190336)
(-0.537752 0.0180207 0.0104795)
(-0.466109 0.0522006 -0.00746458)
(-0.444811 0.104594 -0.0248295)
(-0.302054 0.0773691 -0.15008)
(-0.259102 0.0277515 -0.316529)
(-0.143607 0.011186 -0.202422)
(-0.00498483 0.0278944 0.199307)
(-0.105407 0.0696855 0.322973)
(-0.196339 0.124999 -0.311916)
(-0.0608622 0.0880508 -0.729058)
(0.067981 0.067973 -0.409311)
(0.00947381 0.0753601 -0.156253)
(0.0636018 0.155285 -0.381781)
(0.0258897 0.0909081 -0.45432)
(-0.00654295 0.0340073 -0.270329)
(0.0421147 0.0931091 -0.712798)
(0.224797 0.136611 -0.673297)
(0.0800431 0.000105074 -0.000363014)
(0.0800896 0.000438616 -0.00152787)
(0.0801173 0.000758612 -0.00289515)
(0.0801143 0.000955033 -0.00324266)
(0.0799576 0.00102771 -0.00156407)
(0.0797 0.00116102 0.00199667)
(0.0795564 0.00159885 0.00625022)
(0.0792804 0.00265946 0.0143731)
(0.0790745 0.00514469 0.0277436)
(0.0778404 0.00926975 0.0677466)
(0.0821425 0.0144516 0.207617)
(0.0855124 0.0156881 0.340351)
(0.0773491 0.0139793 0.352754)
(0.0590703 0.00971304 0.289595)
(0.0343799 0.0178585 0.0998235)
(-0.0219016 -0.0186314 -0.343448)
(-0.112326 -0.0137915 0.0570247)
(-0.175857 -0.0315374 0.22608)
(-0.239174 -0.047005 0.289968)
(-0.3099 -0.0314781 0.313202)
(-0.356849 -0.0097237 0.320141)
(-0.394812 0.00268856 0.328699)
(-0.42849 0.014822 0.340065)
(-0.466447 0.0192444 0.359785)
(-0.494174 0.00492716 0.369752)
(-0.50194 -0.00702777 0.364468)
(-0.500795 0.0024994 0.340485)
(-0.467308 0.00892485 0.290722)
(-0.425109 0.00459094 0.197127)
(-0.402925 0.00864777 0.0815271)
(-0.452951 0.0152903 0.0392344)
(-0.505873 0.0161243 0.00836828)
(-0.543751 0.0132457 -0.043055)
(-0.568825 0.00917137 -0.087541)
(-0.587521 0.00202999 -0.133558)
(-0.601228 -0.00699387 -0.172861)
(-0.611214 -0.0156754 -0.20441)
(-0.626837 0.0067524 -0.232091)
(-0.638667 0.0476595 -0.259129)
(-0.654679 0.0715723 -0.28784)
(-0.678421 0.0454944 -0.32469)
(-0.693078 -0.0149878 -0.369149)
(-0.705654 -0.0264098 -0.426266)
(-0.718749 0.0171834 -0.478535)
(-0.769395 0.0511807 -0.548295)
(-0.812361 0.0767008 -0.636093)
(-0.820571 0.0673086 -0.72072)
(-0.82081 0.0307791 -0.805238)
(-0.806547 0.0191671 -0.831357)
(-0.757343 0.0539231 -0.791315)
(-0.732358 0.0999047 -0.823705)
(-0.722976 0.123678 -0.98222)
(-0.692133 0.0952897 -1.03541)
(-0.613027 0.04596 -0.868177)
(-0.455196 0.0485508 -0.610896)
(-0.237205 0.0921339 -0.471803)
(-0.0321339 0.0134842 -0.24556)
(-0.113623 0.0329983 0.217629)
(-0.0463603 0.109848 -0.730792)
(-0.152726 0.0932707 -0.389569)
(0.0800203 7.42782e-05 -0.000348816)
(0.0800133 6.33413e-05 -0.00159435)
(0.0799856 -6.23332e-05 -0.00323372)
(0.0800265 -0.000243808 -0.00400203)
(0.0800256 -0.0003906 -0.00289231)
(0.0798724 -0.000355389 9.74548e-05)
(0.0796915 3.42419e-06 0.00331296)
(0.0798696 0.00124341 0.0078896)
(0.080925 0.00437655 0.0139685)
(0.0826095 0.00983216 0.0324297)
(0.0885171 0.0177621 0.108921)
(0.0966581 0.0195931 0.211105)
(0.0989698 0.0158528 0.263418)
(0.0955721 0.0144001 0.253752)
(0.0828466 0.0131372 0.187612)
(0.0881519 0.0418981 -0.0107055)
(0.0666268 0.0284312 -0.223885)
(0.0534571 0.00774919 -0.197941)
(-0.0221566 -0.010149 -0.0602356)
(-0.097464 0.00260961 0.0709593)
(-0.169239 0.011099 0.182013)
(-0.223847 0.0164812 0.256402)
(-0.276312 0.0293069 0.303804)
(-0.314045 0.0301159 0.325346)
(-0.330476 0.00341468 0.312402)
(-0.337104 -0.0152774 0.286525)
(-0.336711 -0.00379541 0.246593)
(-0.316837 0.0114632 0.168653)
(-0.297696 0.0190369 0.0709551)
(-0.328627 0.0172325 0.0153255)
(-0.390582 0.00806382 -0.0120303)
(-0.447206 0.00499997 -0.0468466)
(-0.488268 0.00815351 -0.0873902)
(-0.520828 0.00859634 -0.131762)
(-0.546766 0.00223301 -0.179671)
(-0.569849 -0.00974281 -0.221923)
(-0.5875 -0.0179608 -0.257303)
(-0.621139 0.00474566 -0.295913)
(-0.667343 0.047874 -0.330995)
(-0.710581 0.0685391 -0.380121)
(-0.74976 0.042337 -0.446077)
(-0.774884 -0.0187001 -0.521506)
(-0.802134 -0.032683 -0.606657)
(-0.825039 0.0154477 -0.680171)
(-0.848561 0.064956 -0.764038)
(-0.873129 0.0874263 -0.880156)
(-0.886578 0.0651811 -1.00092)
(-0.917292 0.0200645 -1.14181)
(-0.974138 0.021954 -1.28275)
(-1.01321 0.056789 -1.39194)
(-1.02966 0.109314 -1.47168)
(-1.04011 0.137438 -1.59791)
(-1.03891 0.0942306 -1.71242)
(-1.01552 0.0352073 -1.74762)
(-0.985461 0.0144911 -1.71714)
(-0.922544 0.0170903 -1.65325)
(-0.870405 -0.000425471 -1.49893)
(-0.759153 0.0353673 -1.20298)
(-0.626944 0.0898765 -1.07507)
(-0.684838 0.0997025 -0.922342)
(0.0800242 0.000118395 -0.000303374)
(0.0800235 0.000201599 -0.00144909)
(0.0799805 0.000380118 -0.00294167)
(0.079997 0.000569975 -0.00375055)
(0.0800573 0.000732406 -0.00324066)
(0.0800354 0.000965336 -0.00116262)
(0.0800713 0.00146397 0.000860368)
(0.0802271 0.0024139 0.0029752)
(0.0814694 0.00458122 0.0051223)