/*--------------------------------*- C++ -*----------------------------------*\
  =========                 |
  \\      /  F ield         | OpenFOAM: The Open Source CFD Toolbox
   \\    /   O peration     | Website:  https://openfoam.org
    \\  /    A nd           | Version:  8
     \\/     M anipulation  |
\*---------------------------------------------------------------------------*/
FoamFile
{
    version     2.0;
    format      ascii;
    class       volScalarField;
    location    "600";
    object      alphat;
}
// * * * * * * * * * * * * * * * * * * * * * * * * * * * * * * * * * * * * * //

dimensions      [1 -1 -1 0 0 0 0];

internalField   nonuniform List<scalar> 
1200
(
0.00939607
0.00929791
0.00919527
0.00908648
0.00897278
0.00884421
0.00870157
0.00857714
0.00831197
0.00831869
0.00877199
0.00927533
0.00975936
0.0102849
0.0109731
0.0119264
0.0130476
0.0137141
0.01432
0.0148288
0.0153754
0.0155237
0.0060357
0.00606424
0.00615157
0.00628187
0.00641267
0.00654304
0.006678
0.00683753
0.00701379
0.00721518
0.00743274
0.00771605
0.00813641
0.00858027
0.0089348
0.00925053
0.00958871
0.00995154
0.0103158
0.0107037
0.0109312
0.0109846
0.0109799
0.0110213
0.0110341
0.0113248
0.0117209
0.0121461
0.0125159
0.0127525
0.0129842
0.0135063
0.0139636
0.0145091
0.0150364
0.0178908
0.017611
0.0192651
0.00730182
0.00632752
0.00549656
0.00479479
0.00421129
0.00371204
0.0033358
0.00299324
0.00263391
0.00382358
0.0059674
0.00571139
0.00470892
0.00414443
0.00400765
0.00409298
0.0044092
0.0046775
0.00543446
0.00637914
0.00760659
0.00890249
0.0101126
0.0111877
0.0128528
0.0148708
0.00378852
0.00411366
0.00446332
0.00460166
0.00384095
0.0039207
0.00439954
0.00498006
0.00543562
0.00571346
0.00576034
0.00584995
0.00609485
0.0063181
0.006295
0.00641869
0.00626279
0.0060484
0.00533999
0.00487634
0.00469527
0.00754444
0.00646034
0.00538799
0.00582554
0.00762486
0.00916663
0.0105867
0.0096219
0.0103806
0.0138489
0.0170175
0.0188278
0.0191167
0.00729273
0.00628512
0.00541396
0.00466584
0.0040283
0.00347146
0.00300257
0.00260368
0.00266568
0.00382224
0.00474689
0.00329436
0.00182916
0.00262232
0.00383568
0.00454117
0.00442906
0.00333967
0.004505
0.00593775
0.0103519
0.0135358
0.0153161
0.00383278
0.00424004
0.00461974
0.00499857
0.00537408
0.00573867
0.00609593
0.00644786
0.00674969
0.00706398
0.00737359
0.00762845
0.0078167
0.00799421
0.00817363
0.00836446
0.00856151
0.00876082
0.00896228
0.00915759
0.00937577
0.00963136
0.00996104
0.0103967
0.0108661
0.0113433
0.0119288
0.0126255
0.0135234
0.0144586
0.0154612
0.0165989
0.0179709
0.0197884
0.021872
0.0240212
0.0275079
0.00729543
0.00629072
0.0054209
0.00467209
0.00403223
0.00346998
0.00298578
0.00256842
0.00254552
0.00350097
0.00402158
0.00327957
0.00245972
0.00316959
0.00464743
0.00572724
0.00599712
0.00614916
0.00728944
0.0115406
0.0139491
0.0155573
0.00389177
0.00428258
0.00466727
0.00503933
0.00540181
0.00575816
0.00613812
0.00651791
0.00687619
0.00721482
0.00753277
0.00782685
0.00810131
0.008371
0.0086362
0.00890036
0.00916122
0.00942757
0.00970169
0.00996491
0.0102196
0.0104675
0.010701
0.0109095
0.0110645
0.0111913
0.0113723
0.0117575
0.0126127
0.0136574
0.0146362
0.0158161
0.0171909
0.0187324
0.0205228
0.0226084
0.0250567
0.02792
0.00729708
0.0062909
0.00542169
0.00467189
0.00403014
0.00347454
0.00299054
0.00257689
0.00236388
0.00287394
0.0032924
0.00306249
0.00261926
0.00234389
0.00349113
0.00576179
0.00613488
0.00627677
0.00689292
0.00811021
0.0111334
0.0139547
0.0152958
0.0164587
0.00403324
0.00433547
0.00463459
0.00499172
0.00537899
0.00577423
0.00613742
0.00645172
0.00672003
0.00695652
0.00717878
0.00739836
0.00762489
0.00782453
0.00796167
0.00802106
0.00795938
0.00767972
0.0071607
0.00659845
0.00663795
0.0071769
0.00766113
0.00830111
0.00914775
0.0100638
0.0108363
0.0117533
0.0130151
0.0145665
0.0163095
0.0182323
0.0202843
0.0224921
0.0249675
0.0278299
0.00729696
0.00629023
0.00542461
0.0046748
0.00403055
0.00347714
0.00299251
0.00258742
0.00228763
0.00239822
0.00261614
0.00255509
0.0023587
0.00215749
0.00234271
0.00307576
0.00305086
0.00332759
0.00487707
0.00640008
0.00797277
0.0104855
0.0124042
0.0136996
0.0154079
0.00347813
0.0174869
0.00351555
0.00400969
0.00479085
0.00516528
0.00541008
0.00557639
0.00568868
0.00578207
0.00593535
0.00614395
0.00636156
0.00657558
0.00672893
0.00676854
0.00663065
0.00627598
0.00563883
0.00501612
0.00519914
0.00574314
0.00630272
0.00709861
0.00797602
0.00881603
0.00974322
0.0110218
0.012536
0.0143869
0.0164789
0.0186024
0.0208354
0.0237651
0.0274849
0.00729677
0.0062906
0.00542891
0.00467927
0.0040337
0.00348028
0.00299844
0.00259743
0.00227365
0.00214164
0.00213533
0.00206048
0.00192493
0.00184146
0.0018297
0.0020068
0.00201563
0.00204171
0.00228958
0.00274629
0.00394163
0.00623173
0.00838486
0.0100492
0.0115017
0.0125961
0.0133845
0.0143359
0.0160274
0.00395983
0.00420262
0.00444045
0.00467589
0.00473896
0.00469677
0.00467551
0.00475919
0.00489673
0.00450339
0.00434101
0.00511876
0.00532139
0.00528666
0.00519976
0.00513873
0.00506325
0.00487841
0.00447494
0.00339591
0.00381246
0.00394364
0.00472073
0.00583214
0.00797337
0.0111988
0.0129948
0.0142279
0.014863
0.0178565
0.0239163
0.00729822
0.00628898
0.00542533
0.00467535
0.00402899
0.0034762
0.00300313
0.00260914
0.00228061
0.00204923
0.00190511
0.00177561
0.00164045
0.00155421
0.00151028
0.00150301
0.00145564
0.00140991
0.00141416
0.00151724
0.00195088
0.00310259
0.00468191
0.00619356
0.0074943
0.00859825
0.00950503
0.010425
0.0115612
0.0128038
0.014067
0.0150275
0.0156423
0.0160197
0.0161599
0.0161294
0.00374506
0.00379282
0.00384211
0.00395832
0.00417515
0.00422244
0.00412869
0.0039808
0.0038473
0.00373304
0.0156308
0.0154506
0.0152499
0.0151036
0.0149623
0.014847
0.0150862
0.00431202
0.00590513
0.00818294
0.00999377
0.0106154
0.0111211
0.0141851
0.00731105
0.00633349
0.0055032
0.00478762
0.00415819
0.00361745
0.00315538
0.00276598
0.00243003
0.002156
0.00194968
0.00178911
0.00165772
0.00154659
0.00145955
0.00139441
0.00133522
0.00128824
0.00125451
0.0012427
0.00131802
0.00166175
0.00233407
0.00316903
0.00399808
0.0047627
0.00547325
0.00619438
0.00699307
0.00784008
0.00860744
0.00917514
0.00958866
0.00997506
0.0104557
0.0111322
0.0119545
0.0128114
0.0135772
0.0142774
0.0146751
0.0147312
0.014686
0.0147182
0.0149756
0.0153477
0.0156012
0.0155249
0.0153279
0.0152165
0.0151399
0.0151537
0.0151038
0.0155865
0.00392539
0.00469128
0.00582051
0.0067512
0.007404
0.00825243
0.00939913
0.00929685
0.00919594
0.00910099
0.00899544
0.00885318
0.00866422
0.00843074
0.00811817
0.00777718
0.0075839
0.00760392
0.0077611
0.00773492
0.00763275
0.0076592
0.00789035
0.00818108
0.00840902
0.00852149
0.00849636
0.00851249
0.00860332
0.00874854
0.00902589
0.00943972
0.00993633
0.0104868
0.0111352
0.0119037
0.0127746
0.0137117
0.0147225
0.00606848
0.006333
0.00658418
0.00681074
0.00700334
0.00719872
0.00738433
0.00761453
0.0079113
0.00825757
0.00862931
0.00899355
0.0093257
0.00964037
0.00995099
0.0102452
0.010511
0.0108017
0.0111136
0.0113947
0.0115364
0.01176
0.0120964
0.0124976
0.0129572
0.0134201
0.0139832
0.00939081
0.00929762
0.00919437
0.00908927
0.00898902
0.00885459
0.00871112
0.0085838
0.00830683
0.00830869
0.00876308
0.009272
0.00974804
0.0102841
0.0109526
0.0118982
0.0130288
0.0137241
0.0143138
0.0148246
0.0153782
0.00600692
0.00602712
0.00606423
0.00615237
0.00628322
0.00641554
0.00655827
0.00670599
0.00687764
0.00705129
0.0072282
0.0074626
0.00773505
0.00810701
0.00854181
0.00891872
0.00926757
0.00963547
0.0100334
0.0104132
0.0106843
0.0107854
0.0107997
0.0108266
0.0109237
0.0110077
0.0113122
0.0117234
0.012212
0.0125482
0.0127613
0.013009
0.0135351
0.0139939
0.0145633
0.0151379
0.0188444
0.018803
0.0191473
0.00730565
0.00633168
0.00549792
0.00479527
0.00421487
0.00371836
0.00332679
0.00299429
0.00263137
0.00379331
0.00593742
0.0056928
0.00470166
0.00411889
0.00398503
0.00407371
0.00440091
0.00465357
0.00541253
0.00635704
0.00759662
0.00890555
0.0101239
0.011201
0.0128765
0.0149131
0.00380287
0.00425649
0.00493643
0.0054108
0.00422376
0.00390174
0.0043096
0.00487658
0.00533989
0.00558307
0.00560509
0.00572609
0.00600666
0.00636062
0.0064699
0.00668968
0.00655813
0.00588752
0.0052518
0.00484982
0.00475332
0.00819661
0.00591354
0.00531535
0.00582666
0.00763405
0.00913396
0.0102985
0.00932609
0.010251
0.0138444
0.01703
0.0188569
0.0197908
0.00729722
0.00628681
0.00541388
0.00466411
0.00402463
0.00347427
0.00300209
0.00260478
0.00264519
0.00378668
0.0047296
0.00330735
0.00180866
0.00262596
0.00385126
0.00455946
0.00445317
0.00317275
0.00450444
0.00591248
0.0103401
0.0135263
0.0152965
0.00383281
0.00423825
0.00461871
0.0050024
0.00539032
0.00576772
0.00611577
0.00646604
0.00672686
0.00700799
0.00730155
0.00754923
0.00774527
0.00793423
0.00811403
0.00831118
0.00852121
0.00872598
0.00891904
0.00910571
0.00931815
0.00958663
0.00991244
0.0103486
0.0108289
0.0113104
0.0119078
0.0125681
0.0134406
0.0143739
0.0154344
0.0165867
0.0179632
0.0197537
0.0218047
0.0240187
0.0274193
0.00729728
0.00628951
0.00542223
0.00467207
0.00402798
0.0034721
0.00298543
0.00256879
0.00252826
0.00346998
0.00400701
0.00328076
0.00246583
0.00319691
0.00467107
0.00574084
0.00601207
0.00615621
0.00723074
0.0117204
0.0140589
0.0156523
0.00390684
0.00429427
0.00467659
0.00504481
0.00539681
0.00572394
0.00609115
0.00650776
0.00687598
0.00719457
0.0074995
0.00778775
0.00806131
0.00833176
0.00860478
0.00887485
0.00912873
0.00937978
0.00964358
0.00990371
0.0101616
0.0104163
0.0106322
0.0108164
0.0109619
0.0110618
0.0112757
0.0117719
0.0126304
0.013529
0.0144948
0.0156953
0.0170999
0.0186561
0.0204721
0.022584
0.0250331
0.0278804
0.00729668
0.00628949
0.00542422
0.00467268
0.00402663
0.0034732
0.00298725
0.00257611
0.00235561
0.00285184
0.00327736
0.00305608
0.00262045
0.00236216
0.00351956
0.00578413
0.00615079
0.0062888
0.00690068
0.00808273
0.0110419
0.0138993
0.0154656
0.0171362
0.00403825
0.00432863
0.00461125
0.00492095
0.00530017
0.00571718
0.00611162
0.00644732
0.00672717
0.00696786
0.00718438
0.00739225
0.00759857
0.00776631
0.00789606
0.00790819
0.00779675
0.00746724
0.00691481
0.00639153
0.00653729
0.00715408
0.00762476
0.00831339
0.00914758
0.00998968
0.0107305
0.0116086
0.0128964
0.0144533
0.0162104
0.0181383
0.0202091
0.0224407
0.0249323
0.0278
0.00729743
0.00629158
0.005427
0.00467546
0.00402857
0.00347303
0.00298941
0.00258464
0.0022838
0.0023857
0.00260398
0.00254648
0.00235256
0.00215425
0.0023603
0.00308061
0.00304163
0.00333673
0.00490811
0.00641146
0.00794618
0.0104365
0.012364
0.0136622
0.0153521
0.00365831
0.016243
0.015405
0.00325548
0.00451439
0.00511299
0.0054132
0.00562199
0.00576114
0.00586116
0.00599325
0.00618306
0.00634984
0.00651589
0.00665178
0.00666839
0.00651574
0.00612897
0.00548062
0.00495974
0.00524844
0.00568979
0.00635745
0.00722621
0.00809507
0.00880548
0.00967196
0.0109426
0.0124334
0.0142602
0.0163549
0.0184712
0.0206551
0.0235192
0.0273244
0.00729949
0.00629299
0.00542894
0.00467978
0.00403309
0.0034767
0.00300011
0.00259985
0.00227118
0.00213659
0.00212865
0.00205295
0.00191442
0.00182974
0.00182476
0.00200527
0.00201295
0.00203573
0.00227496
0.00271066
0.00391758
0.00621475
0.00835791
0.0100208
0.0114668
0.0126051
0.013362
0.0143781
0.0157353
0.00394879
0.00422103
0.0044695
0.00479849
0.00487363
0.00482777
0.00479683
0.00503165
0.00489541
0.00432939
0.00410073
0.00490484
0.00519485
0.00521372
0.00514391
0.00508885
0.0050062
0.00478976
0.0043744
0.00372068
0.00415131
0.00367699
0.00532202
0.00552222
0.00789228
0.0111789
0.0129792
0.0141901
0.0147724
0.0176461
0.0241816
0.00730131
0.00628909
0.005423
0.00467579
0.00402899
0.00347499
0.00300526
0.00261056
0.00228123
0.00205042
0.00190309
0.00177117
0.00163783
0.00155088
0.0015105
0.00150607
0.00145206
0.00139933
0.00139681
0.00149475
0.0019368
0.00310295
0.00468185
0.00618817
0.00748703
0.00860446
0.00950937
0.0103967
0.0115083
0.0127397
0.0139867
0.0148881
0.0155111
0.0159651
0.0160476
0.0160482
0.00377426
0.00382346
0.00389337
0.00402761
0.00419671
0.00421353
0.00410811
0.00397264
0.00384965
0.00373899
0.0156449
0.015469
0.0152971
0.0152898
0.0151072
0.0149994
0.0153512
0.0042764
0.00576423
0.00813882
0.00999361
0.0105984
0.0110764
0.0141646
0.00731203
0.00633043
0.00549789
0.00478375
0.00415473
0.00361478
0.00315669
0.00276822
0.00243114
0.0021553
0.00194951
0.0017904
0.00165995
0.00154922
0.001462
0.00139659
0.00133784
0.0012929
0.00125983
0.00124438
0.00131612
0.00166667
0.0023443
0.00317934
0.00401244
0.00478988
0.00549723
0.00618058
0.00695117
0.00778695
0.00855313
0.00911158
0.0095505
0.00999321
0.0105413
0.0112845
0.0121655
0.0130128
0.0137586
0.0143422
0.0146117
0.0146494
0.0146632
0.0147714
0.0151048
0.0154472
0.0155932
0.0154599
0.0153124
0.0152286
0.0151661
0.0151186
0.0151378
0.0156581
0.00391051
0.0046638
0.00582779
0.00676875
0.00740691
0.00825041
0.00939674
0.00929977
0.00920214
0.00909917
0.00899138
0.00886043
0.00868583
0.00845261
0.00813281
0.00777945
0.0075817
0.00760567
0.00777098
0.00773123
0.00763226
0.00768106
0.00791732
0.00818007
0.0083979
0.0085491
0.00854956
0.00853802
0.00859509
0.00874819
0.00899258
0.00934633
0.00982017
0.0104021
0.0110917
0.0118812
0.0127435
0.0136567
0.0146377
0.00604341
0.00629832
0.00653426
0.00673992
0.0069322
0.00712843
0.00733932
0.00760045
0.00791414
0.00826459
0.00863373
0.00898035
0.00930323
0.0096148
0.00992444
0.0102078
0.0104779
0.0107663
0.0110682
0.011319
0.0115015
0.0117779
0.0121305
0.0125209
0.0129713
0.013433
0.0139909
)
;

boundaryField
{
    wall
    {
        type            compressible::alphatJayatillekeWallFunction;
        Prt             0.85;
        value           uniform 0;
    }
    inlet
    {
        type            calculated;
        value           uniform 0.189515;
    }
    outlet
    {
        type            calculated;
        value           nonuniform List<scalar> 
20
(
0.019265
8.06525
8.06525
8.06525
8.06525
8.06525
8.06525
0.0141851
0.00825243
0.0139832
0.0191472
8.06525
8.06525
8.06525
8.06525
8.06525
8.06525
0.0141646
0.00825041
0.0139909
)
;
    }
    heatWall
    {
        type            compressible::alphatJayatillekeWallFunction;
        Prt             0.85;
        value           nonuniform List<scalar> 
240
(
0.000413963
0.000413888
0.000410683
0.000410598
0.000407302
0.000407179
0.000403751
0.000403611
0.000399842
0.000399851
0.000395027
0.000395336
0.000388708
0.000389294
0.000380436
0.000381039
0.000369088
0.000369467
0.000356547
0.000356538
0.000349467
0.000349241
0.000350267
0.000350172
0.000356054
0.000356232
0.000354903
0.0003549
0.000351347
0.000351752
0.000352683
0.000354474
0.000360681
0.000363739
0.000369367
0.000373202
0.000376638
0.000380478
0.000382255
0.000386228
0.00038344
0.000386922
0.000383315
0.000385279
0.000385137
0.000385565
0.000390685
0.000389233
0.000400643
0.00039671
0.000414358
0.000409119
0.000430854
0.000426275
0.000449707
0.000446935
0.000471656
0.000470378
0.00049674
0.000496175
0.000524135
0.00052336
0.000552945
0.000551612
0.000583375
0.000581534
0.000610527
0.000608933
0.000638635
0.000635738
0.000664914
0.0006607
0.000688788
0.000683583
0.000711634
0.000706757
0.000734699
0.000730912
0.000759006
0.00075781
0.000788597
0.000789467
0.000823778
0.000825427
0.000862878
0.000864203
0.000903777
0.000903919
0.000942584
0.000941221
0.000979048
0.00097679
0.00101441
0.00101187
0.0010493
0.00104657
0.00108148
0.00107839
0.001112
0.00110916
0.00114423
0.00114107
0.00117727
0.00117334
0.00120573
0.00120067
0.00122802
0.00122602
0.00126024
0.0012627
0.00129913
0.00130203
0.00134207
0.00134367
0.00139217
0.00139318
0.00144369
0.00144461
0.00150586
0.00150676
0.000413812
0.00041361
0.000410401
0.000410324
0.000406813
0.000406713
0.000403015
0.00040302
0.000399012
0.000399267
0.000394548
0.000394725
0.000389586
0.000389823
0.000385356
0.000385426
0.000375848
0.00037577
0.000376172
0.000375954
0.000392187
0.000392017
0.000409724
0.000409616
0.000426479
0.000426109
0.000444378
0.000444235
0.000467315
0.000466614
0.000498415
0.000497485
0.000533762
0.000533184
0.000554288
0.000554218
0.000572866
0.000572557
0.000588327
0.000588218
0.000604883
0.000604914
0.000608668
0.000608027
0.000608763
0.000608594
0.000611635
0.000611661
0.0006216
0.000621678
0.000636444
0.000636626
0.000651348
0.000651676
0.000665776
0.000666872
0.000681124
0.000682332
0.000700053
0.000700511
0.000720668
0.000720082
0.000742294
0.000742119
0.000767525
0.000768147
0.000805665
0.000802846
0.000855944
0.000849886
0.000901345
0.000896982
0.000935688
0.000935022
0.000967229
0.000969669
0.001001
0.00100587
0.00103663
0.00104365
0.00107341
0.00107827
0.00110825
0.00110496
0.00113076
0.00111953
0.00114186
0.00112836
0.00115054
0.00114
0.00116349
0.00115726
0.00117736
0.00117649
0.00121041
0.00121526
0.00125746
0.00126588
0.00130838
0.00131576
0.00134388
0.00134583
0.0013676
0.0013671
0.00139798
0.0013993
0.00145894
0.00146259
0.00150926
0.00151445
0.00157168
0.00157813
0.0016384
0.0016458
0.00179826
0.00183744
0.00189807
0.00191834
0.0021481
0.00210985
)
;
    }
}


// ************************************************************************* //
