/*--------------------------------*- C++ -*----------------------------------*\
  =========                 |
  \\      /  F ield         | OpenFOAM: The Open Source CFD Toolbox
   \\    /   O peration     | Website:  https://openfoam.org
    \\  /    A nd           | Version:  8
     \\/     M anipulation  |
\*---------------------------------------------------------------------------*/
FoamFile
{
    version     2.0;
    format      ascii;
    class       volScalarField;
    location    "600";
    object      p;
}
// * * * * * * * * * * * * * * * * * * * * * * * * * * * * * * * * * * * * * //

dimensions      [1 -1 -2 0 0 0 0];

internalField   nonuniform List<scalar> 
1200
(
-8398.08
-8398.19
-8398.23
-8398.23
-8398.21
-8398.16
-8398.13
-8398.22
-8399.36
-8403.51
-8409.8
-8409.58
-8406.71
-8404.36
-8406.97
-8407.87
-8413.7
-8414.33
-8418.09
-8417.77
-8417.08
-8417.78
-8417.91
-8419.55
-8421.25
-8414.43
-8410.67
-8487.17
-8607.76
-8683.29
-8654.9
-8584.64
-8518.09
-8438.51
-8331.22
-8220.82
-8132.7
-8029.84
-7935.62
-7905.69
-7845.97
-7672.27
-7419.06
-7151.85
-6876.27
-6627.72
-6454.4
-6417.63
-6322.53
-6066.16
-5724.74
-5378.69
-4955.07
-4472.36
-3986.49
-3346.46
-2490.35
-2000.52
-1581.03
-743.649
-8593.44
-8593.45
-8593.45
-8593.44
-8593.41
-8593.35
-8593.29
-8593.24
-8593.84
-8596.31
-8601.01
-8603.73
-8602.67
-8601.33
-8602.46
-8602.77
-8607.79
-8610.14
-8609.21
-8609.33
-8610.27
-8612.46
-8612.74
-8615.34
-8616.95
-8608.4
-8605.72
-8691.85
-8813.19
-8886.48
-8849.8
-8765.98
-8703.48
-8632.18
-8523.38
-8409.57
-8326.07
-8224.42
-8128.34
-8100.82
-8046.47
-7877.43
-7627.29
-7361.63
-7078.91
-6817.41
-6635.25
-6612.7
-6538.01
-6256.72
-5909.72
-5584.66
-5168.67
-4685.22
-4192.04
-3554.41
-2755.19
-2158.45
-1616.3
-1079.37
-8788.57
-8788.57
-8788.57
-8788.57
-8788.56
-8788.51
-8788.44
-8788.39
-8788.69
-8790.58
-8793.03
-8796.76
-8798.63
-8797.93
-8798.5
-8799.6
-8806.5
-8806.86
-8808.32
-8803.97
-8807.15
-8810.4
-8810.42
-8812.22
-8813.29
-8807.48
-8803.17
-8864.17
-8981.9
-9063.87
-9028.58
-8959.32
-8900.47
-8834.25
-8742.17
-8645.87
-8559.07
-8453.51
-8349.67
-8287.41
-8211.18
-8040.71
-7803.36
-7542.6
-7260.53
-7015.54
-6846.66
-6803.15
-6682.57
-6427.74
-6107.37
-5805.25
-5422.94
-4942.44
-4409.64
-3775.67
-2959.17
-2135.69
-1692.93
-1612.56
-8983.75
-8983.76
-8983.77
-8983.76
-8983.75
-8983.71
-8983.65
-8983.57
-8983.54
-8984.48
-8986.41
-8991.24
-8994.25
-8991.04
-8993.18
-8995.31
-9000.59
-9002.43
-9002.1
-8999.22
-9001.43
-9005.28
-9006.69
-9009.58
-9011.37
-9012.35
-9010.6
-9022.29
-9071.56
-9131.53
-9145.82
-9126.67
-9101.66
-9063.14
-8998.34
-8923.09
-8837.94
-8727.96
-8607.37
-8477.47
-8353.83
-8189.3
-7975.29
-7725.9
-7459.28
-7244.66
-7091.63
-6952.24
-6772.46
-6543.16
-6305.16
-6043.1
-5699.69
-5201.56
-4634.76
-3989.15
-3261.58
-2483.32
-1903.54
-1713.69
-9178.91
-9178.92
-9178.92
-9178.92
-9178.92
-9178.89
-9178.86
-9178.84
-9178.95
-9179.82
-9181.7
-9184.96
-9187.82
-9184.92
-9186.66
-9190.47
-9196.63
-9198.46
-9200.38
-9197.52
-9198.13
-9200.64
-9201.8
-9205.08
-9206.7
-9212.12
-9209.79
-9188.66
-9185.01
-9228.68
-9280.91
-9299.58
-9305.8
-9293.53
-9246.15
-9175.85
-9087.57
-8976.88
-8855.93
-8677.3
-8520.43
-8352.16
-8145.81
-7904.46
-7645.14
-7442.02
-7292.86
-7136.38
-6953.6
-6752.39
-6532.56
-6271.91
-5938.31
-5420.84
-4826.54
-4145.15
-3399.12
-2554.24
-1840.48
-1508.47
-9374.08
-9374.09
-9374.09
-9374.09
-9374.09
-9374.09
-9374.09
-9374.13
-9374.3
-9374.83
-9376.64
-9378.84
-9380.75
-9380.91
-9382.4
-9386.43
-9392.53
-9395.12
-9395.1
-9393.45
-9394.74
-9397.94
-9399.77
-9403.32
-9404.27
-9411.02
-9407.72
-9374.82
-9361.49
-9387.95
-9449.33
-9483.74
-9507.91
-9512.23
-9472.92
-9410.3
-9328.23
-9209.26
-9097.83
-8874.39
-8689.9
-8521.7
-8327.37
-8097.59
-7844.32
-7636.99
-7482.74
-7307.39
-7110.84
-6925.64
-6733.04
-6514.99
-6201.3
-5659.13
-5043.44
-4345.9
-3611.77
-2750.83
-2023.17
-1702.77
-9569.25
-9569.25
-9569.27
-9569.27
-9569.28
-9569.3
-9569.33
-9569.44
-9569.71
-9570.36
-9571.87
-9573.19
-9574.39
-9575.37
-9578.15
-9582.8
-9588.86
-9592.13
-9592.81
-9590.73
-9588.49
-9591.83
-9597.77
-9602.99
-9603.6
-9607.42
-9605.53
-9579.32
-9565.61
-9587.45
-9638.36
-9672.36
-9701.33
-9711.18
-9675.92
-9621.06
-9537.48
-9411.02
-9291.12
-9048
-8856.19
-8699.94
-8516.58
-8293.42
-8051.54
-7838.85
-7669.95
-7479.76
-7294.83
-7109.07
-6926.27
-6717.03
-6448.51
-5874.61
-5257.81
-4552.11
-3821.97
-2906.97
-2163.29
-1595.52
-9764.42
-9764.4
-9764.41
-9764.42
-9764.44
-9764.48
-9764.54
-9764.7
-9765.02
-9765.65
-9766.99
-9768.23
-9769.38
-9770.79
-9773.93
-9778.19
-9783.86
-9787.27
-9787.9
-9786.67
-9785.15
-9787.75
-9796.23
-9805.51
-9809.06
-9809.1
-9803.29
-9783.83
-9776.05
-9793.35
-9832.46
-9862.6
-9886.83
-9889.86
-9855.05
-9801.15
-9720.28
-9598.76
-9480.48
-9263.1
-9071.11
-8898.46
-8706.08
-8487.09
-8257.08
-8047.36
-7866.32
-7679.21
-7489.43
-7300.24
-7117.89
-6906.4
-6603.87
-6094.86
-5496.37
-4796.64
-4058.97
-3194.79
-2421.13
-1745.24
-9959.62
-9959.62
-9959.62
-9959.62
-9959.65
-9959.68
-9959.77
-9959.96
-9960.31
-9960.93
-9962.13
-9963.29
-9964.54
-9966.15
-9969.39
-9973.43
-9978.45
-9981.83
-9982.99
-9982.32
-9980.89
-9983.62
-9994.35
-10007.8
-10015.1
-10013.1
-10003.6
-9990.04
-9988.69
-10004.9
-10035.1
-10060.7
-10078.2
-10076.9
-10044.7
-9987.1
-9899.58
-9782.43
-9648.71
-9446.58
-9258.59
-9084.54
-8894.72
-8681.33
-8456.91
-8247.95
-8062.14
-7875.34
-7685.8
-7496.65
-7310.76
-7093.03
-6776.55
-6280.32
-5692.24
-5012.41
-4274.93
-3416.53
-2648.68
-1972.25
-10154.6
-10154.7
-10154.7
-10154.8
-10154.8
-10154.8
-10154.9
-10155.1
-10155.5
-10156.1
-10157.3
-10158.5
-10159.9
-10161.6
-10164.7
-10168.5
-10173.2
-10176.4
-10177.4
-10176.9
-10176.1
-10179.1
-10189.9
-10205.1
-10215.2
-10213.9
-10203.9
-10193.1
-10194.4
-10211.3
-10237.8
-10260.6
-10273.7
-10268.5
-10234.8
-10174.4
-10085
-9971.48
-9830.74
-9639.88
-9456.4
-9279.93
-9087.74
-8874.4
-8652.85
-8445.09
-8256.68
-8070.05
-7881.16
-7692.8
-7503.56
-7280.49
-6962.95
-6486.28
-5909.88
-5229.03
-4487.91
-3644.72
-2888.52
-2152.96
-8398.08
-8398.18
-8398.21
-8398.22
-8398.23
-8398.2
-8398.17
-8398.34
-8399.45
-8403.49
-8409.46
-8409.33
-8406.54
-8404.35
-8407.15
-8407.97
-8413.69
-8414.31
-8417.95
-8417.4
-8416.84
-8417.87
-8418.13
-8419.69
-8421.32
-8414.48
-8409.88
-8485.51
-8606.67
-8682.2
-8654.18
-8584.52
-8517.74
-8437.54
-8329.86
-8218.86
-8130.42
-8026.9
-7931.98
-7901.92
-7843.05
-7669.48
-7415.38
-7148.64
-6873.75
-6626.26
-6453.33
-6416.55
-6318.56
-6062.88
-5723.1
-5380.36
-4952.28
-4470.87
-3985.38
-3338.74
-2484.03
-2022.79
-1608.3
-724.319
-8593.44
-8593.44
-8593.44
-8593.43
-8593.42
-8593.39
-8593.35
-8593.46
-8594.3
-8597.31
-8602
-8604.41
-8602.94
-8602.15
-8603.22
-8603.45
-8608.39
-8611.07
-8611.18
-8611.39
-8612.38
-8614.29
-8613.96
-8615.48
-8616.83
-8608.3
-8604.11
-8689.47
-8811.55
-8886.1
-8850.65
-8767.28
-8704.06
-8631.68
-8522.48
-8408.39
-8324.95
-8223.1
-8125.49
-8096.82
-8043.91
-7874.9
-7625.34
-7359.97
-7077.58
-6815.15
-6633.9
-6612.24
-6533.27
-6250.69
-5903.72
-5587.26
-5168.48
-4683.18
-4189.74
-3540.44
-2745.51
-2171.33
-1631.35
-1067.4
-8788.57
-8788.55
-8788.55
-8788.55
-8788.57
-8788.56
-8788.51
-8788.58
-8789.04
-8791.11
-8793.5
-8797.25
-8798.64
-8798.47
-8798.62
-8799.69
-8806.76
-8807.23
-8809.05
-8804.98
-8807.86
-8810.82
-8810.61
-8812.03
-8812.85
-8806.92
-8802.12
-8861.96
-8978.45
-9060.98
-9028.14
-8959.56
-8900.45
-8834.14
-8741.67
-8644.51
-8557.95
-8452.42
-8348.18
-8285.22
-8209.99
-8039.46
-7799.83
-7539.69
-7259.73
-7017.09
-6848.72
-6802.65
-6674.58
-6422.83
-6111.23
-5810.53
-5422.13
-4940.51
-4406.19
-3763.03
-2950.41
-2137.94
-1701.08
-1586.8
-8983.75
-8983.75
-8983.75
-8983.75
-8983.77
-8983.75
-8983.7
-8983.7
-8983.85
-8985.09
-8986.74
-8991.32
-8994.1
-8990.92
-8992.71
-8994.75
-8999.96
-9002.63
-9001.63
-8999.1
-9001.17
-9005.01
-9006.32
-9009.01
-9010.69
-9011.66
-9009.73
-9021.32
-9070
-9129.82
-9144.72
-9125.84
-9100.68
-9061.89
-8997.06
-8921.82
-8836.79
-8727.14
-8607.33
-8477.51
-8353.96
-8189.23
-7974.68
-7725.88
-7460.24
-7246.78
-7094.7
-6958.67
-6778.46
-6549.7
-6311.38
-6051.95
-5705.6
-5203.7
-4630.89
-3980.29
-3247.45
-2473.24
-1901.58
-1693.56
-9178.91
-9178.91
-9178.9
-9178.9
-9178.92
-9178.93
-9178.89
-9178.9
-9179.04
-9179.97
-9181.74
-9184.94
-9187.67
-9184.5
-9186.08
-9189.9
-9196.37
-9198.34
-9200.11
-9195.61
-9196.89
-9199.43
-9200.89
-9204.09
-9205.81
-9211.21
-9208.86
-9187.95
-9183.71
-9226.61
-9279.21
-9298.02
-9304.06
-9292.08
-9245.1
-9174.59
-9086.13
-8975.57
-8855.86
-8677.05
-8520.71
-8353.18
-8147.28
-7905.99
-7647.14
-7444.3
-7295.8
-7137.94
-6953.11
-6753.59
-6535.04
-6275.04
-5935.17
-5416.01
-4814.34
-4123.75
-3374.41
-2522.11
-1825.51
-1481.58
-9374.08
-9374.07
-9374.07
-9374.08
-9374.09
-9374.11
-9374.1
-9374.15
-9374.33
-9374.92
-9376.64
-9378.84
-9380.78
-9380.68
-9382.22
-9386.38
-9392.35
-9394.71
-9394.14
-9392.12
-9393.41
-9396.87
-9398.23
-9401.83
-9403.02
-9410.02
-9406.68
-9374.21
-9359.84
-9385.77
-9447.07
-9481.42
-9505.57
-9510.52
-9471.3
-9408.09
-9325.4
-9205.67
-9095.84
-8873.53
-8689.65
-8521.89
-8328.23
-8098.84
-7845.87
-7638.93
-7484.36
-7306.81
-7109.66
-6926.34
-6733.9
-6516.92
-6199.65
-5656.95
-5035.23
-4334.86
-3606.17
-2738.04
-2013.12
-1697.81
-9569.25
-9569.24
-9569.25
-9569.26
-9569.28
-9569.31
-9569.33
-9569.43
-9569.68
-9570.32
-9571.79
-9573.11
-9574.26
-9575.18
-9578.01
-9582.67
-9588.86
-9592.28
-9593
-9590.75
-9587.66
-9590.52
-9596.43
-9601.46
-9602.11
-9606.1
-9604.79
-9577.52
-9563.26
-9584.52
-9636.08
-9670.02
-9699.44
-9710.42
-9675.31
-9619.56
-9535.7
-9409.18
-9290.17
-9048.17
-8856.09
-8699.45
-8516.91
-8294.52
-8052.86
-7839.81
-7669.97
-7479.67
-7293.27
-7108.93
-6927.4
-6717.21
-6446.86
-5862.6
-5240.77
-4530.2
-3803.74
-2863.23
-2132.45
-1598.09
-9764.42
-9764.39
-9764.39
-9764.41
-9764.43
-9764.47
-9764.53
-9764.68
-9764.97
-9765.58
-9766.91
-9768.15
-9769.32
-9770.67
-9773.82
-9778.16
-9783.86
-9787.24
-9787.74
-9786.55
-9785.06
-9787.55
-9795.78
-9804.71
-9808.06
-9807.96
-9802.16
-9782.79
-9774.57
-9791.55
-9830.74
-9860.62
-9884.89
-9888.66
-9854.27
-9800.17
-9719.14
-9596.87
-9478.62
-9261.83
-9070.27
-8898.35
-8706.38
-8487.96
-8258.15
-8048.23
-7866.95
-7679.04
-7487.82
-7300.12
-7119.09
-6906.5
-6599.84
-6089.1
-5484.8
-4777.59
-4044.28
-3174.67
-2419.85
-1727.32
-9959.63
-9959.61
-9959.61
-9959.62
-9959.64
-9959.68
-9959.75
-9959.91
-9960.24
-9960.83
-9962
-9963.15
-9964.4
-9966.03
-9969.28
-9973.39
-9978.46
-9981.93
-9983.11
-9982.42
-9980.85
-9983.47
-9994.2
-10007.5
-10014.5
-10012.4
-10003.1
-9989.77
-9988.24
-10004.2
-10034.3
-10059.6
-10076.9
-10075.9
-10043.9
-9986.02
-9898.36
-9780.99
-9647.11
-9445.24
-9257.4
-9084.02
-8894.86
-8681.98
-8457.58
-8248.43
-8062.44
-7875.19
-7684.32
-7496.41
-7311.92
-7092.99
-6771.07
-6270.2
-5679.95
-4996.6
-4261.95
-3393.74
-2643.3
-1956.85
-10154.6
-10154.7
-10154.7
-10154.8
-10154.8
-10154.8
-10154.9
-10155.1
-10155.5
-10156.1
-10157.2
-10158.5
-10159.9
-10161.5
-10164.7
-10168.6
-10173.4
-10176.6
-10177.6
-10177
-10176.2
-10179.2
-10190.2
-10205.3
-10215.3
-10213.8
-10203.9
-10193.5
-10194.8
-10211.6
-10238.2
-10260.9
-10273.9
-10268.7
-10234.6
-10173.9
-10084.5
-9970.9
-9830.06
-9639.57
-9456.11
-9279.91
-9087.85
-8874.41
-8652.57
-8444.41
-8256.03
-8069.47
-7879.6
-7692.22
-7504.67
-7280.51
-6958.33
-6478.12
-5898.87
-5213.45
-4476.49
-3627.92
-2889.82
-2128.83
)
;

boundaryField
{
    wall
    {
        type            calculated;
        value           nonuniform List<scalar> 
1200
(
-8398.08
-8593.44
-8788.57
-8983.75
-9178.92
-9374.08
-9569.25
-9764.42
-9959.62
-10154.6
-8398.19
-8593.45
-8788.57
-8983.76
-9178.93
-9374.09
-9569.26
-9764.41
-9959.62
-10154.7
-8398.23
-8593.46
-8788.58
-8983.77
-9178.93
-9374.1
-9569.27
-9764.41
-9959.62
-10154.7
-8398.23
-8593.44
-8788.58
-8983.77
-9178.93
-9374.1
-9569.27
-9764.42
-9959.62
-10154.8
-8398.2
-8593.4
-8788.55
-8983.74
-9178.91
-9374.09
-9569.29
-9764.45
-9959.65
-10154.8
-8398.15
-8593.33
-8788.48
-8983.68
-9178.87
-9374.08
-9569.29
-9764.48
-9959.69
-10154.9
-8398.11
-8593.25
-8788.41
-8983.62
-9178.84
-9374.08
-9569.33
-9764.55
-9959.77
-10154.9
-8398.16
-8593.13
-8788.3
-8983.5
-9178.81
-9374.12
-9569.44
-9764.72
-9959.98
-10155.2
-8399.31
-8593.61
-8788.52
-8983.38
-9178.9
-9374.29
-9569.73
-9765.05
-9960.35
-10155.5
-8403.5
-8595.81
-8790.32
-8984.18
-9179.75
-9374.8
-9570.39
-9765.69
-9960.98
-10156.2
-8409.94
-8600.53
-8792.8
-8986.28
-9181.69
-9376.64
-9571.91
-9767.03
-9962.19
-10157.3
-8409.7
-8603.38
-8796.5
-8991.19
-9184.97
-9378.84
-9573.25
-9768.27
-9963.35
-10158.5
-8406.8
-8602.53
-8798.63
-8994.31
-9187.9
-9380.73
-9574.47
-9769.41
-9964.61
-10160
-8404.39
-8600.88
-8797.67
-8991.13
-9185.11
-9381.01
-9575.48
-9770.85
-9966.21
-10161.6
-8406.88
-8602.09
-8798.45
-8993.42
-9186.95
-9382.49
-9578.22
-9773.98
-9969.45
-10164.7
-8407.84
-8602.44
-8799.55
-8995.59
-9190.75
-9386.43
-9582.86
-9778.2
-9973.45
-10168.5
-8413.69
-8607.49
-8806.36
-9000.92
-9196.75
-9392.58
-9588.85
-9783.86
-9978.44
-10173.1
-8414.34
-8609.6
-8806.67
-9002.39
-9198.51
-9395.31
-9592.04
-9787.28
-9981.78
-10176.3
-8418.13
-8608.29
-8807.95
-9002.37
-9200.55
-9395.56
-9592.69
-9787.98
-9982.94
-10177.3
-8417.92
-8608.32
-8803.54
-8999.28
-9198.46
-9394.09
-9590.67
-9786.73
-9982.28
-10176.8
-8417.18
-8609.22
-8806.79
-9001.57
-9198.75
-9395.44
-9588.87
-9785.18
-9980.91
-10176.1
-8417.73
-8611.55
-8810.17
-9005.42
-9201.25
-9398.53
-9592.48
-9787.82
-9983.7
-10179.1
-8417.8
-8612.15
-8810.31
-9006.87
-9202.27
-9400.51
-9598.46
-9796.43
-9994.44
-10189.8
-8419.47
-8615.27
-8812.31
-9009.85
-9205.58
-9404.05
-9603.78
-9805.89
-10008
-10205
-8421.19
-8616.98
-8813.5
-9011.7
-9207.16
-9404.92
-9604.37
-9809.54
-10015.3
-10215.2
-8414.41
-8608.42
-8807.75
-9012.67
-9212.59
-9411.61
-9608.15
-9809.67
-10013.4
-10213.8
-8411.18
-8606.47
-8803.7
-9011.03
-9210.27
-9408.32
-9606.09
-9803.9
-10003.9
-10203.8
-8488.13
-8692.78
-8865.24
-9022.85
-9189.15
-9375.24
-9579.97
-9784.35
-9990.17
-10192.8
-8608.33
-8813.8
-8983.38
-9072.33
-9185.86
-9362.45
-9566.52
-9776.77
-9988.92
-10194.1
-8683.71
-8886.65
-9064.9
-9132.43
-9229.84
-9389.07
-9588.74
-9794.19
-10005.3
-10211.1
-8655.22
-8849.54
-9028.86
-9146.48
-9281.74
-9450.37
-9639.46
-9833.26
-10035.5
-10237.5
-8584.69
-8765.56
-8959.3
-9127.16
-9300.29
-9484.77
-9673.51
-9863.55
-10061.2
-10260.4
-8518.27
-8703.29
-8900.69
-9102.2
-9306.58
-9508.83
-9702.29
-9887.78
-10078.8
-10273.6
-8438.99
-8632.56
-8834.51
-9063.75
-9294.18
-9512.83
-9711.55
-9890.41
-10077.3
-10268.4
-8331.9
-8524.25
-8742.5
-8998.79
-9246.63
-9473.57
-9676.14
-9855.33
-10045
-10234.9
-8221.81
-8410.67
-8646.59
-8923.36
-9176.51
-9411.31
-9621.61
-9801.63
-9987.58
-10174.6
-8133.87
-8326.87
-8559.77
-8838.2
-9088.35
-9329.55
-9538.27
-9721.01
-9900.11
-10085.2
-8031.37
-8225.27
-8454.13
-8728.22
-8977.53
-9210.86
-9412.04
-9599.85
-9783.11
-9971.7
-7937.47
-8129.9
-8350.41
-8607.41
-8856.07
-9098.53
-9291.89
-9481.86
-9649.46
-9830.96
-7907.51
-8102.62
-8288.56
-8477.58
-8677.53
-8874.73
-9048.39
-9263.84
-9447.15
-9639.97
-7847.35
-8047.46
-8211.86
-8353.91
-8520.33
-8689.94
-8856.61
-9071.53
-9259.1
-9456.51
-7673.51
-7878.51
-8041.64
-8189.36
-8351.68
-8521.56
-8700.02
-8898.52
-9084.76
-9279.92
-7420.84
-7628.19
-7805.74
-7975.48
-8144.99
-8326.85
-8516.19
-8705.92
-8894.66
-9087.67
-7153.34
-7362.67
-7544.51
-7725.78
-7903.46
-8096.77
-8292.76
-8486.61
-8681.04
-8874.4
-6877.43
-7080.09
-7261.42
-7458.59
-7644.18
-7843.45
-8050.76
-8256.48
-8456.58
-8653.02
-6628.37
-6818.72
-7015.35
-7243.29
-7440.95
-7636.19
-7838.35
-8046.87
-8247.7
-8445.48
-6454.91
-6635.5
-6846.54
-7089.7
-7291.39
-7482.05
-7669.95
-7865.98
-8061.93
-8257.05
-6418.25
-6612.91
-6803.5
-6949.4
-7135.7
-7307.45
-7480.25
-7679.26
-7875.33
-8070.36
-6324.6
-6541.61
-6685.37
-6770.17
-6954.11
-7111.34
-7295.67
-7490.23
-7686.42
-7881.95
-6067.87
-6259.55
-6429.28
-6540.26
-6752.02
-6925.22
-7108.86
-7300.23
-7496.64
-7693.1
-5725.56
-5912.19
-6105.41
-6302.16
-6531.4
-6732.45
-6925.55
-7117.35
-7310.08
-7503.01
-5377.85
-5582.89
-5802.76
-6038.67
-6269.99
-6514.37
-6717
-6906.55
-7092.98
-7280.49
-4956.56
-5169.02
-5422.66
-5696.73
-5939.67
-6202.22
-6452
-6606.15
-6779.19
-6965.29
-4473.11
-4686.3
-4942.71
-5200.39
-5423.08
-5660.26
-5880.41
-6097.97
-6285.22
-6490.42
-3987.11
-4193.69
-4411.01
-4636.77
-4832.67
-5047.57
-5266.25
-5502.29
-5698.15
-5915.5
-3350.32
-3562.34
-3782.38
-3993.77
-4155.75
-4351.3
-4562.94
-4806.19
-5020.05
-5236.82
-2492.32
-2759.18
-2965.26
-3269.21
-3411
-3614.47
-3831.09
-4066.37
-4281.18
-4493.62
-1989.09
-2149.68
-2139
-2489.32
-2569.12
-2757.34
-2928.27
-3204.84
-3427.46
-3653.02
-1564.97
-1607.52
-1690.79
-1907.18
-1845.27
-2028.31
-2177.28
-2422.35
-2651.12
-2887.96
-753.192
-1081.94
-1628.99
-1728.09
-1520.13
-1706.05
-1592.64
-1754.66
-1980.18
-2164.75
-8398.07
-8593.44
-8788.57
-8983.75
-9178.91
-9374.08
-9569.25
-9764.42
-9959.63
-10154.6
-8398.17
-8593.44
-8788.55
-8983.74
-9178.9
-9374.07
-9569.24
-9764.39
-9959.61
-10154.7
-8398.21
-8593.43
-8788.53
-8983.74
-9178.89
-9374.06
-9569.25
-9764.39
-9959.61
-10154.7
-8398.22
-8593.42
-8788.54
-8983.75
-9178.9
-9374.07
-9569.26
-9764.4
-9959.62
-10154.8
-8398.24
-8593.43
-8788.58
-8983.77
-9178.93
-9374.09
-9569.28
-9764.42
-9959.63
-10154.8
-8398.22
-8593.41
-8788.58
-8983.77
-9178.95
-9374.12
-9569.31
-9764.47
-9959.67
-10154.8
-8398.19
-8593.39
-8788.55
-8983.73
-9178.91
-9374.11
-9569.34
-9764.53
-9959.74
-10154.9
-8398.4
-8593.57
-8788.67
-8983.77
-9178.93
-9374.16
-9569.42
-9764.66
-9959.89
-10155.1
-8399.5
-8594.53
-8789.21
-8984.01
-9179.08
-9374.34
-9569.67
-9764.95
-9960.2
-10155.4
-8403.5
-8597.81
-8791.37
-8985.4
-9180.04
-9374.96
-9570.29
-9765.54
-9960.78
-10156
-8409.33
-8602.48
-8793.73
-8986.87
-9181.75
-9376.64
-9571.75
-9766.87
-9961.94
-10157.2
-8409.21
-8604.76
-8797.5
-8991.37
-9184.92
-9378.83
-9573.05
-9768.11
-9963.08
-10158.4
-8406.46
-8603.08
-8798.64
-8994.04
-9187.6
-9380.8
-9574.17
-9769.29
-9964.33
-10159.8
-8404.32
-8602.6
-8798.72
-8990.84
-9184.32
-9380.59
-9575.07
-9770.61
-9965.97
-10161.5
-8407.23
-8603.59
-8798.66
-8992.47
-9185.81
-9382.14
-9577.93
-9773.77
-9969.22
-10164.7
-8408
-8603.78
-8799.74
-8994.46
-9189.63
-9386.38
-9582.61
-9778.15
-9973.38
-10168.7
-8413.7
-8608.68
-8806.9
-8999.63
-9196.25
-9392.29
-9588.86
-9783.86
-9978.47
-10173.5
-8414.3
-8611.61
-8807.41
-9002.68
-9198.3
-9394.52
-9592.36
-9787.23
-9981.98
-10176.7
-8417.91
-8612.1
-8809.42
-9001.36
-9199.95
-9393.68
-9593.11
-9787.66
-9983.16
-10177.6
-8417.25
-8612.4
-8805.42
-8999.04
-9194.67
-9391.47
-9590.8
-9786.47
-9982.46
-10177
-8416.73
-8613.43
-8808.21
-9001.02
-9196.27
-9392.71
-9587.27
-9785.02
-9980.82
-10176.3
-8417.92
-8615.2
-8811.05
-9004.86
-9198.82
-9396.29
-9589.87
-9787.47
-9983.39
-10179.3
-8418.25
-8614.55
-8810.71
-9006.13
-9200.41
-9397.49
-9595.75
-9795.57
-9994.12
-10190.3
-8419.78
-8615.55
-8811.94
-9008.72
-9203.58
-9401.1
-9600.69
-9804.33
-10007.3
-10205.4
-8421.38
-8616.8
-8812.63
-9010.34
-9205.34
-9402.38
-9601.35
-9807.58
-10014.3
-10215.3
-8414.51
-8608.28
-8806.64
-9011.32
-9210.74
-9409.44
-9605.38
-9807.38
-10012.1
-10213.8
-8409.37
-8603.35
-8801.57
-9009.28
-9208.38
-9406.08
-9604.22
-9801.55
-10002.8
-10204
-8484.54
-8688.53
-8860.89
-9020.73
-9187.45
-9373.78
-9576.87
-9782.27
-9989.63
-10193.7
-8606.08
-8810.95
-8976.94
-9069.2
-9182.82
-9358.87
-9562.36
-9773.86
-9987.99
-10195
-8681.77
-8885.97
-9059.93
-9128.88
-9225.41
-9384.64
-9583.25
-9790.73
-10003.8
-10211.8
-8653.85
-8850.93
-9027.85
-9144.02
-9278.34
-9446.02
-9635.01
-9829.97
-10034
-10238.4
-8584.48
-8767.7
-8959.57
-9125.31
-9297.26
-9480.37
-9668.93
-9859.72
-10059.1
-10261
-8517.56
-8704.25
-8900.24
-9100.11
-9303.25
-9504.63
-9698.56
-9884
-10076.3
-10274
-8437.06
-8631.31
-8833.89
-9061.25
-9291.4
-9509.91
-9710.1
-9888.14
-10075.4
-10268.8
-8329.18
-8521.61
-8741.36
-8996.57
-9244.61
-9470.65
-9675.09
-9854.01
-10043.5
-10234.6
-8217.87
-8407.28
-8643.82
-8921.52
-9173.94
-9407.1
-9619
-9799.67
-9985.48
-10173.7
-8129.26
-8324.14
-8557.27
-8836.49
-9085.37
-9324.1
-9534.93
-9718.38
-9897.76
-10084.3
-8025.37
-8222.24
-8451.81
-8726.86
-8974.95
-9204.09
-9408.25
-9595.79
-9780.26
-9970.7
-7930.13
-8123.93
-8347.46
-8607.28
-8855.77
-9095.16
-9289.59
-9477.19
-9646.32
-9829.84
-7900.1
-8095.01
-8284.1
-8477.38
-8676.92
-8873.2
-9047.8
-9261.01
-9444.66
-9639.47
-7841.67
-8042.93
-8209.38
-8353.85
-8520.97
-8689.62
-8855.67
-9069.84
-9256.93
-9455.96
-7668.29
-7873.83
-8038.61
-8189.14
-8353.9
-8522.06
-8699.38
-8898.35
-9083.83
-9279.88
-7413.69
-7624.46
-7797.5
-7974.47
-8148.36
-8328.77
-8517.29
-8706.59
-8894.92
-9087.88
-7147.26
-7358.94
-7537.82
-7726
-7907.15
-8099.67
-8295.17
-8488.43
-8682.23
-8874.38
-6872.64
-7076.41
-7258.83
-7460.99
-7648.13
-7846.76
-8053.64
-8258.71
-8457.85
-8652.38
-6625.59
-6813.8
-7017.22
-7248.3
-7445.39
-7639.77
-7840.32
-8048.68
-8248.62
-8444.02
-6452.76
-6633.58
-6848.81
-7096.95
-7297.27
-7485.05
-7669.97
-7867.25
-8062.6
-8255.67
-6415.89
-6611.97
-6802.3
-6962.06
-7138.62
-7306.73
-7479.19
-7678.95
-7875.16
-8069.17
-6316.47
-6529.7
-6671.74
-6781.44
-6952.61
-7109.16
-7292.43
-7486.99
-7683.63
-7878.8
-6061.14
-6247.86
-6421.26
-6552.96
-6753.96
-6926.74
-7109.16
-7300.08
-7496.34
-7691.92
-5722.24
-5901.2
-6113.18
-6314.52
-6536.2
-6734.47
-6928.12
-7119.6
-7312.52
-7505.22
-5381.15
-5589.02
-5813.04
-6056.39
-6276.94
-6517.53
-6717.25
-6906.33
-7092.96
-7280.49
-4950.75
-5168.13
-5422.47
-5708.56
-5933.77
-6198.72
-6443.37
-6597.53
-6768.35
-6955.98
-4470.04
-4682.12
-4940.41
-5204.86
-5413.72
-5655.81
-5856.76
-6085.92
-6265.21
-6473.94
-3984.68
-4188.1
-4405.1
-4628.87
-4808.15
-5031.06
-5232.24
-5478.77
-5673.95
-5893.21
-3334.82
-3532.49
-3756.94
-3975.66
-4113.02
-4329.33
-4519.24
-4767.86
-4988.8
-5205.62
-2482.02
-2741.45
-2945.77
-3239.87
-3362.32
-3603.24
-3794.46
-4036.66
-4255.51
-4470.72
-2034.28
-2180.06
-2137.52
-2467.35
-2506.96
-2731.25
-2841.76
-3164.41
-3382.63
-3619.53
-1624.72
-1640.5
-1704.5
-1897.92
-1820.49
-2007.75
-2118.42
-2418.47
-2640.63
-2890.24
-714.849
-1064.92
-1570.34
-1678.98
-1469.76
-1694.4
-1600.95
-1717.79
-1948.62
-2116.93
)
;
    }
    inlet
    {
        type            calculated;
        value           nonuniform List<scalar> 
20
(
-8398.08
-8593.44
-8788.57
-8983.75
-9178.91
-9374.08
-9569.25
-9764.42
-9959.62
-10154.6
-8398.08
-8593.44
-8788.57
-8983.75
-9178.91
-9374.08
-9569.25
-9764.42
-9959.63
-10154.6
)
;
    }
    outlet
    {
        type            calculated;
        value           nonuniform List<scalar> 
20
(
-97.7027
-293.037
-488.396
-683.754
-879.112
-1074.47
-1269.83
-1465.22
-1660.81
-1856.75
-97.7036
-293.037
-488.396
-683.754
-879.112
-1074.47
-1269.83
-1465.22
-1660.81
-1856.75
)
;
    }
    heatWall
    {
        type            calculated;
        value           nonuniform List<scalar> 
240
(
-10252.2
-10252.2
-10252.3
-10252.3
-10252.3
-10252.3
-10252.4
-10252.4
-10252.4
-10252.4
-10252.4
-10252.4
-10252.5
-10252.5
-10252.7
-10252.7
-10253.1
-10253.1
-10253.7
-10253.7
-10254.9
-10254.8
-10256.1
-10256
-10257.5
-10257.5
-10259.2
-10259.1
-10262.3
-10262.3
-10266.1
-10266.2
-10270.8
-10271
-10274
-10274.2
-10275
-10275.2
-10274.5
-10274.6
-10273.7
-10273.8
-10276.7
-10276.8
-10287.5
-10287.8
-10302.8
-10303
-10312.9
-10312.9
-10311.5
-10311.5
-10301.6
-10301.6
-10290.8
-10291.2
-10292.1
-10292.5
-10309
-10309.3
-10335.5
-10335.9
-10358.3
-10358.6
-10371.5
-10371.6
-10366.2
-10366.4
-10332.5
-10332.3
-10272.1
-10271.6
-10182.8
-10182.2
-10069.2
-10068.6
-9928.46
-9927.79
-9737.61
-9737.3
-9554.12
-9553.83
-9377.65
-9377.64
-9185.47
-9185.58
-8972.12
-8972.14
-8750.57
-8750.3
-8542.82
-8542.14
-8354.41
-8353.76
-8167.78
-8167.2
-7978.89
-7977.32
-7790.53
-7789.95
-7601.29
-7602.4
-7378.22
-7378.24
-7060.68
-7056.07
-6584.01
-6575.85
-6007.62
-5996.6
-5326.77
-5311.18
-4585.64
-4574.22
-3742.45
-3725.65
-2986.24
-2987.55
-2250.69
-2226.55
-8300.49
-8300.49
-8300.6
-8300.59
-8300.64
-8300.63
-8300.64
-8300.64
-8300.63
-8300.64
-8300.58
-8300.61
-8300.54
-8300.59
-8300.63
-8300.75
-8301.76
-8301.86
-8305.88
-8305.87
-8312.15
-8311.81
-8311.92
-8311.67
-8309.05
-8308.87
-8306.67
-8306.67
-8309.27
-8309.45
-8310.17
-8310.26
-8315.99
-8315.98
-8316.59
-8316.58
-8320.33
-8320.19
-8319.98
-8319.62
-8319.28
-8319.04
-8319.96
-8320.05
-8320.08
-8320.3
-8321.71
-8321.86
-8323.41
-8323.48
-8316.59
-8316.65
-8312.84
-8312.05
-8389.34
-8387.68
-8509.94
-8508.85
-8585.48
-8584.39
-8557.09
-8556.37
-8486.84
-8486.72
-8420.29
-8419.95
-8340.72
-8339.76
-8233.45
-8232.09
-8123.06
-8121.1
-8034.95
-8032.67
-7932.08
-7929.15
-7837.86
-7834.23
-7807.94
-7804.17
-7748.22
-7745.29
-7574.51
-7571.72
-7321.3
-7317.61
-7054.1
-7050.88
-6778.52
-6776
-6529.97
-6528.52
-6356.66
-6355.6
-6319.9
-6318.82
-6224.8
-6220.83
-5968.43
-5965.15
-5627.01
-5625.37
-5280.97
-5282.63
-4857.35
-4854.56
-4374.64
-4373.16
-3888.77
-3887.66
-3248.75
-3241.03
-2392.63
-2386.31
-1902.81
-1925.08
-1483.32
-1510.59
-645.946
-626.615
)
;
    }
}


// ************************************************************************* //
