/*--------------------------------*- C++ -*----------------------------------*\
  =========                 |
  \\      /  F ield         | OpenFOAM: The Open Source CFD Toolbox
   \\    /   O peration     | Website:  https://openfoam.org
    \\  /    A nd           | Version:  8
     \\/     M anipulation  |
\*---------------------------------------------------------------------------*/
FoamFile
{
    version     2.0;
    format      ascii;
    class       surfaceScalarField;
    location    "600";
    object      phi;
}
// * * * * * * * * * * * * * * * * * * * * * * * * * * * * * * * * * * * * * //

dimensions      [1 0 -1 0 0 0 0];

internalField   nonuniform List<scalar> 
2860
(
0.00800777
-7.34228e-06
-0.000324511
0.00798392
5.47416e-05
-0.00137275
0.00794999
5.22081e-05
-0.00297122
0.00788863
6.41464e-05
-0.00356664
0.00778542
8.96204e-05
-0.00136164
0.00765603
0.000122956
0.00334539
0.00740981
0.000219164
0.00884612
0.00708454
0.000329898
0.025037
0.00759344
-0.000343778
0.0463959
0.00900942
-0.00115578
0.0957236
0.0100915
-0.000982786
0.107786
0.009939
0.000283376
0.0889359
0.00938403
0.0011004
0.0860937
0.0101865
-0.000434579
0.0992089
0.0113641
-0.000891224
0.128289
0.0119821
-0.000626944
0.137364
0.0117156
0.000513835
0.14405
0.0122232
-0.000576246
0.150717
0.0132493
-0.000990701
0.173399
0.0148783
-0.00161507
0.198827
0.0174902
-0.00264837
0.242178
0.0208811
-0.00358985
0.286759
0.0248498
-0.00436388
0.308936
0.029113
-0.00451981
0.309986
0.0334817
-0.00440977
0.304456
0.0379733
-0.0045399
0.294747
0.0428497
-0.00512967
0.255493
0.0467477
-0.00464603
0.20243
0.0505092
-0.00403214
0.165967
0.0552376
-0.00305733
0.145121
0.0607821
-0.00377675
0.135723
0.0640621
-0.00256911
0.136881
0.0646415
-0.000191596
0.133979
0.0666739
-0.00073619
0.12752
0.0729168
-0.00450411
0.120964
0.0817762
-0.00768682
0.10778
0.0892426
-0.00735125
0.0908925
0.0954289
-0.00715013
0.0680615
0.103338
-0.00953742
0.041875
0.110696
-0.00885588
0.0141518
0.114615
-0.00406619
-0.0102244
0.114329
0.00248949
-0.0353882
0.108197
0.00939187
-0.0725433
0.0979962
0.0133514
-0.105994
0.0893554
0.00985343
-0.129062
0.0851244
0.00388426
-0.138557
0.0870977
-0.00317059
-0.143072
0.0878105
-0.00219032
-0.146519
0.0879773
-0.00139763
-0.189803
0.0876485
-0.00103085
-0.220767
0.0859701
0.000803126
-0.233093
0.0822099
0.00285313
-0.208732
0.080231
-2.02674e-05
-0.218683
0.0823748
-0.00399712
-0.191734
0.0846382
-0.00444805
-0.178029
0.0868154
-0.00338965
-0.256611
0.0862021
0.00273724
-0.27312
0.0907992
-0.00987675
0.0190181
0.105264
-0.00508019
0.383752
0.012283
0.358512
0.00798324
-6.30914e-05
-0.000112698
0.0079758
3.74253e-06
-0.00101729
0.00795676
2.43355e-05
-0.0027134
0.00792153
5.37316e-05
-0.00390599
0.00784825
0.000102561
-0.00204372
0.0077299
0.000214891
0.00331954
0.00743022
0.000497693
0.0118214
0.00694611
0.000887018
0.0411011
0.00686657
0.000350736
0.134085
0.0043845
0.00197233
0.353697
-0.00034255
0.00345445
0.486621
-0.00248135
0.00218492
0.437312
-0.00161651
0.000338129
0.325874
0.000733953
-0.00253084
0.279848
0.00293885
-0.00265859
0.173482
0.00382535
-0.00172318
0.164145
0.00413739
-0.000326345
0.220143
0.00559514
-0.00162735
0.295261
0.0071603
-0.00241315
0.461328
0.00773547
-0.00260904
0.568423
0.00833354
-0.00390941
0.565387
0.00925775
-0.00485417
0.519031
0.0103412
-0.0056177
0.434318
0.0116107
-0.00569782
0.33032
0.0130813
-0.00562115
0.264738
0.0144696
-0.00577897
0.226532
0.0172757
-0.00852825
0.133656
0.0219783
-0.0139673
0.0689791
0.0277424
-0.0148338
0.0451447
0.0255821
-0.00919379
0.0342295
0.0250678
-0.000773375
0.0775677
0.0209495
0.00480254
0.144321
0.0154729
0.00718093
0.190807
0.0103971
0.00544892
0.191959
0.00685398
0.000669624
0.187722
0.00606932
-0.00477822
0.186502
0.00670248
-0.00829348
0.197119
0.00750471
-0.00975964
0.194877
0.00743977
-0.0128333
0.159912
0.00669499
-0.0152166
0.114233
0.0055779
-0.0138022
0.0999601
0.00934786
-0.0112881
0.0667867
0.019076
-0.00629919
0.0285714
0.0256346
-0.00176312
-0.0402147
0.0289761
0.00113606
-0.102883
0.0257841
0.00306804
-0.147293
0.0170883
0.00212951
-0.107096
0.0037456
-0.00737021
0.00897016
0.0102468
-0.0110524
-0.23525
0.00686257
-0.00136861
-0.351275
-0.00290006
0.00709532
-0.377714
-0.0083017
0.00726344
0.368695
-0.0121001
0.00311209
0.354435
-0.00994816
-0.00472504
0.428934
-0.00862527
-0.00484135
0.232106
-0.0194689
0.00401482
-0.384055
-0.0288188
0.00823906
0.6911
-0.0396806
-0.0018785
1.31042
-0.0209257
-0.0169657
1.32587
0.00535449
0.66158
0.00793785
-6.4554e-06
-9.93572e-05
0.00793531
3.04559e-05
-0.00183575
0.00793211
4.95752e-05
-0.00481297
0.00792154
7.28857e-05
-0.00688995
0.00787391
0.000138484
-0.00491777
0.00779664
0.000322283
0.00151636
0.00760832
0.000723639
0.0107
0.00736354
0.00145055
0.0393192
0.0071039
0.00191941
0.150649
0.00536671
0.00441931
0.309739
0.00249963
0.00569746
0.369695
-8.61556e-05
0.00289992
0.256481
3.75442e-05
4.11504e-05
0.0614659
0.00187673
-0.00479298
-0.107452
0.00222852
-0.00342765
-0.231599
0.00189419
-0.00165047
-0.244323
0.00199405
-0.000201052
-0.174696
0.00332298
-0.000199503
0.0119853
0.00323336
-0.00219418
0.0901966
0.000850919
-3.83953e-05
0.346529
-0.00344823
-0.000260544
0.278002
-0.00843944
-0.000142465
0.164283
-0.0152893
0.000914544
0.122087
-0.0227582
0.00124896
0.112185
-0.0299436
0.000949216
0.126879
-0.0365417
4.30628e-05
0.148531
-0.0423346
-0.00384145
0.170999
-0.0485852
-0.00851426
0.19946
-0.0556076
-0.00751608
0.239951
-0.0630071
-0.00181049
0.293582
-0.0692804
0.00548577
0.346591
-0.0749898
0.0109898
0.376286
-0.0805941
0.0133718
0.395813
-0.0852016
0.0113031
0.41579
-0.088219
0.00534516
0.425817
-0.0903911
-0.00148348
0.427182
-0.0922539
-0.00538546
0.430214
-0.0939401
-0.00701121
0.427829
-0.0962976
-0.00981654
0.420297
-0.100155
-0.0113214
0.414179
-0.10515
-0.00828171
0.416541
-0.10968
-0.00540181
0.408743
-0.112294
-0.00303276
0.398644
-0.113173
-0.00103523
0.420731
-0.113094
1.19616e-05
0.447267
-0.112984
0.000905066
0.468833
-0.111875
-0.00223109
0.48638
-0.110784
-0.00933913
0.500261
-0.10927
-0.0107162
0.514264
-0.108013
-0.00254857
0.580851
-0.109196
0.00841805
0.650251
-0.111865
0.00994998
0.690689
-0.11334
0.00633622
0.661457
-0.115193
0.00023007
0.652408
-0.118449
0.00438548
0.657391
-0.123228
0.0180625
0.611642
-0.127656
0.0323584
0.633874
-0.126223
0.0350176
0.460509
-0.118461
0.0231288
0.0177841
0.00800983
-0.289724
0.00796742
-9.16819e-06
-0.000142635
0.00797122
1.02632e-05
-0.00158539
0.00796779
3.86734e-05
-0.00369503
0.00795468
7.72419e-05
-0.00486442
0.00791684
0.000163707
-0.00279037
0.00787092
0.000374362
0.00278889
0.00773586
0.000883233
0.00961626
0.00752901
0.00186069
0.0301231
0.0075306
0.00321114
0.131644
0.00711409
0.00541972
0.279664
0.00595347
0.00595123
0.2944
0.00417947
0.00296815
0.1995
0.00248711
-0.000222351
0.0779218
0.00169648
-0.00230909
-0.247796
-4.52067e-05
-0.00182227
-0.38666
-0.00209906
-0.000110447
-0.423224
-0.00341063
0.000704063
-0.402836
-0.00354974
0.000856044
-0.326211
-0.00520938
0.000108272
-0.206122
-0.0100554
0.00346685
0.0464062
-0.0167232
0.00552686
0.0625546
-0.0234525
0.00538915
0.0888593
-0.030361
0.00655555
0.114042
-0.0377513
0.00725696
0.138858
-0.0451337
0.00688243
0.168077
-0.0522358
0.00577698
0.198037
-0.0587907
0.00155606
0.225136
-0.0650868
-0.00306358
0.253424
-0.0720075
-0.00176259
0.286021
-0.079843
0.00446824
0.322533
-0.0876402
0.0118106
0.361772
-0.0948335
0.0170141
0.392553
-0.101339
0.0190025
0.417242
-0.107042
0.0164177
0.44068
-0.112132
0.00997104
0.462563
-0.117154
0.00291889
0.482118
-0.122082
-0.00135626
0.501233
-0.126509
-0.00337292
0.521122
-0.130893
-0.00608635
0.539812
-0.135462
-0.00725626
0.555182
-0.140108
-0.00426373
0.571073
-0.144098
-0.00207771
0.584146
-0.146787
-0.00083386
0.595359
-0.147748
7.26528e-05
0.605876
-0.146514
-0.00018071
0.609328
-0.142625
-6.16668e-05
0.598068
-0.13655
-0.00202463
0.560542
-0.129755
-0.00633298
0.499189
-0.123126
-0.00305556
0.386229
-0.120142
0.00769364
0.219105
-0.123892
0.0119492
0.0730018
-0.127747
0.00641569
-0.0380738
-0.128818
0.0011644
-0.171337
-0.131822
-0.00372183
-0.254675
-0.136651
0.00155264
-0.294503
-0.141556
0.0158118
-0.307963
-0.146399
0.0304142
-0.391222
-0.149901
0.0304846
-0.555416
-0.156092
0.0192413
-0.787389
0.0130879
-0.981329
0.00796048
-4.15539e-06
-0.00021022
0.00795856
6.21825e-06
-0.00185712
0.00795678
3.29047e-05
-0.00452354
0.00796051
7.72223e-05
-0.00639107
0.00794652
0.000176818
-0.00529645
0.007944
0.000403772
-0.000387079
0.00797136
0.000899594
0.00462883
0.00808759
0.00188147
0.0161259
0.00854737
0.00351756
0.0682232
0.00901435
0.00553187
0.177977
0.00915633
0.00539408
0.212609
0.00820022
0.00285015
0.171003
0.00629629
0.000110631
0.104487
0.00531141
0.00296134
-0.0586958
0.00181989
0.00274235
-0.313669
-0.00217708
0.00359619
-0.414428
-0.00361573
0.00196481
-0.404066
-0.00396952
0.00120903
-0.393931
-0.00398161
7.92065e-05
-0.412217
-0.00327391
0.00306968
-0.364725
-0.00473536
0.00759724
-0.143129
-0.00920606
0.00987729
-0.0490359
-0.0132742
0.0110076
0.0192052
-0.0174513
0.0113633
0.0493092
-0.0220551
0.0109636
0.0780551
-0.0273066
0.0108514
0.0998319
-0.0326446
0.00756068
0.119275
-0.0376148
0.00118962
0.145404
-0.0431889
0.0027168
0.173128
-0.0497683
0.00914863
0.213693
-0.056126
0.0158904
0.259825
-0.0614198
0.0198228
0.28849
-0.0663584
0.021287
0.308744
-0.0716953
0.0192065
0.329806
-0.077182
0.0135851
0.349124
-0.0825943
0.00731744
0.364117
-0.0875615
0.00348515
0.382361
-0.0911984
0.000797405
0.399737
-0.0940227
-0.00214121
0.409187
-0.0952536
-0.00381567
0.401868
-0.0946948
-0.00115273
0.3855
-0.0910478
0.000135311
0.345412
-0.0838698
0.000117036
0.273282
-0.0764217
-0.000342309
0.170983
-0.0753452
-0.00117569
0.0691886
-0.0746724
-0.00271542
0.00874939
-0.074527
-0.00538747
-0.0325833
-0.0768351
-0.00872624
-0.0800307
-0.0811586
-0.00665589
-0.106295
-0.082645
-2.82004e-05
-0.114108
-0.0815028
0.00213637
-0.195124
-0.084401
0.00214864
-0.318467
-0.0937633
0.00190175
-0.454243
-0.104878
-0.00181161
-0.536417
-0.117082
0.00337647
-0.617514
-0.128185
0.0149852
-0.645203
-0.138082
0.0272205
-0.664411
-0.145065
0.0239634
-0.715798
-0.150426
0.0139278
-0.73154
0.0139762
-0.828949
0.0079578
2.33338e-06
-0.000173726
0.00795864
1.28696e-06
-0.00170555
0.00795995
2.12366e-05
-0.00415457
0.00797508
6.92067e-05
-0.00588136
0.00798779
0.000170292
-0.00605269
0.00801454
0.000389061
-0.00313302
0.00812531
0.000840511
-0.000483621
0.0084009
0.00171398
0.00436706
0.00914667
0.00318319
0.0273003
0.0102862
0.00487314
0.0972303
0.0111252
0.00451424
0.136258
0.0109227
0.00271886
0.134859
0.00959294
0.000713083
0.118069
0.00917298
0.0031173
0.0496177
0.00923444
0.00404239
-0.0721275
0.00841889
0.00464349
-0.169029
0.00745925
0.00289904
-0.214444
0.00585553
0.00290178
-0.288653
0.00269078
0.00316068
-0.417814
0.00106063
0.00432448
-0.515857
0.00257926
0.00626305
-0.389767
0.0035966
0.0092443
-0.253408
0.00359888
0.0117569
-0.172849
0.00343954
0.0127288
-0.130248
0.00258498
0.0124162
-0.0762688
0.00218713
0.0110327
-0.0360535
-0.00150906
0.0109397
-0.0311116
-0.00210327
0.0135288
0.0101936
-0.00435907
0.0157664
0.012847
-0.00970382
0.0173506
0.0732672
-0.0137234
0.0180364
0.129794
-0.0149757
0.0187023
0.160061
-0.0156393
0.0195074
0.177477
-0.0172973
0.0179327
0.191286
-0.0206214
0.0139456
0.18605
-0.0251691
0.0114464
0.190406
-0.0295138
0.00998039
0.21208
-0.0319547
0.00640419
0.248749
-0.0345577
0.00253963
0.304189
-0.0359108
-0.000111739
0.331521
-0.0375526
0.00144693
0.342232
-0.0384985
0.00206942
0.333016
-0.0375515
0.00100422
0.304513
-0.0343235
-0.00138717
0.236825
-0.0327946
-0.00358914
0.138509
-0.0357761
-0.00421229
0.0454272
-0.0408173
-0.00692219
-0.0595076
-0.0420621
-0.00877944
-0.154293
-0.0438033
-0.00655352
-0.200608
-0.0445233
-0.00193466
-0.208294
-0.0454104
0.000463996
-0.272534
-0.0505193
0.00249067
-0.350051
-0.0593439
0.00698652
-0.451249
-0.0680013
0.00228896
-0.488886
-0.0797123
0.00908156
-0.531825
-0.0910245
0.0192312
-0.520295
-0.0998887
0.0279407
-0.476483
-0.105239
0.0197385
-0.459573
-0.111175
0.00793543
-0.349191
0.0172498
-0.261074
0.00795862
3.21216e-06
-4.73768e-05
0.00796824
-2.06196e-05
-0.00122828
0.00797414
-6.60023e-06
-0.00285559
0.00799839
4.20994e-05
-0.00369967
0.00802969
0.0001356
-0.00429866
0.00809721
0.000320576
-0.00311532
0.00826434
0.000692882
-0.00230595
0.00864403
0.00137195
-0.00222876
0.00955546
0.00249064
0.00329582
0.0108915
0.00378314
0.0329704
0.0120315
0.00345493
0.0590151
0.012313
0.00224304
0.0643873
0.0118017
0.00116851
0.0566392
0.0120075
0.002885
0.0429808
0.0130893
0.00400344
0.00386578
0.0137373
0.00355923
-0.0459912
0.0137181
0.00239153
-0.070553
0.0131815
0.00262588
-0.0874276
0.0119324
0.00344491
-0.115633
0.0106125
0.00449483
-0.171992
0.0109175
0.00579186
-0.280029
0.0125772
0.00770023
-0.336141
0.0145323
0.0098791
-0.319185
0.0165315
0.0109676
-0.299204
0.0183369
0.0107288
-0.266953
0.0196329
0.00960973
-0.238017
0.0202716
0.00992756
-0.208089
0.0223056
0.0133197
-0.165684
0.0247177
0.0163212
-0.152459
0.0269559
0.0178113
-0.13024
0.0290033
0.017173
-0.0735943
0.0329478
0.0158316
-0.0332226
0.0384268
0.0124508
0.000575727
0.0420538
0.00849817
0.033251
0.0432338
0.00597599
0.048512
0.0429109
0.0048398
0.0448423
0.0414414
0.00536116
0.0285068
0.0444545
0.00852542
-0.0205968
0.0348955
0.0113659
-0.0403373
0.0317995
0.0183048
0.0585888
0.0282275
0.0161727
0.155004
0.0259831
0.00966975
0.207527
0.0248209
0.00374569
0.240599
0.0235448
0.000285201
0.259286
0.0214246
-0.00120007
0.260557
0.0189858
-0.00256928
0.2328
0.0157159
-0.00491339
0.177681
0.00316074
-0.00235742
0.0978758
-0.00546841
-0.000198425
-0.0238282
-0.000880554
0.000261974
-0.0471709
-0.00115048
-0.000829713
0.0307912
0.0033901
-0.00398021
0.0203532
0.00594319
-0.00677051
-0.312444
-0.0040432
0.00742457
-0.625794
-0.0157176
0.0138161
-0.891725
-0.0225692
0.0195774
-0.903193
-0.0237513
0.0222417
-0.838208
-0.0289836
0.0196886
-1.09485
-0.0314177
0.0138071
-0.423062
0.0222488
0.599988
0.00792673
5.88912e-05
6.74014e-05
0.00793429
3.82101e-06
-0.0011365
0.00794534
5.9014e-06
-0.00287234
0.0079829
3.32258e-05
-0.00376732
0.00804229
9.52634e-05
-0.00540039
0.00815553
0.000228829
-0.00600531
0.0083868
0.000495426
-0.00676128
0.00882644
0.000956088
-0.00895291
0.00964965
0.00170945
-0.0108749
0.0110588
0.00250581
-0.00380481
0.0122536
0.00226164
0.00562714
0.0129361
0.00136904
0.00939478
0.0129911
0.000705321
0.0094089
0.013589
0.00186325
0.00898952
0.0147559
0.00284742
0.00187661
0.0159703
0.00295916
-0.0118206
0.0163416
0.002064
-0.0218319
0.0162062
0.00184915
-0.0306196
0.0160993
0.00234214
-0.0471551
0.0164988
0.00308826
-0.0713265
0.0177869
0.00439185
-0.122061
0.0199112
0.00593315
-0.192804
0.0226158
0.0073362
-0.247428
0.0256262
0.00794815
-0.283959
0.028674
0.00741013
-0.299749
0.0314198
0.0063069
-0.305927
0.0339797
0.00679207
-0.305215
0.0373885
0.00994619
-0.288932
0.0414756
0.0126929
-0.279307
0.0460887
0.0140218
-0.269965
0.0508891
0.0132967
-0.249486
0.0560832
0.0118135
-0.238224
0.0602641
0.00924201
-0.228913
0.0624526
0.00618936
-0.20769
0.0631718
0.00391132
-0.182456
0.0624339
0.00261262
-0.164133
0.0608329
0.00356443
-0.150484
0.0610145
0.00605774
-0.154242
0.0594546
0.00784383
-0.150842
0.0639667
0.0135387
-0.116333
0.0704669
0.0129478
-0.085811
0.0759834
0.00831738
-0.0671663
0.0796109
0.00381356
-0.0587989
0.0811782
0.000749964
-0.0488029
0.0819411
-0.000980578
-0.0383243
0.0817826
-0.00211626
-0.0304473
0.0789959
-0.00292047
-0.0240441
0.0765697
-0.00118265
-0.0236313
0.0738165
0.00129549
-0.0401772
0.0707998
0.00271754
-0.0385187
0.0662662
0.00141065
-0.020644
0.0595527
-0.0015115
-0.0213227
0.0522499
-0.00203989
-0.0930166
0.0509758
0.00643747
-0.225525
0.0500633
0.0119836
-0.460815
0.0502258
0.0156741
-0.734559
0.0525047
0.016105
-0.857579
0.0524083
0.0155315
-1.04036
0.0463655
0.0162425
-0.884323
0.0172703
-0.550251
0.00796674
2.48969e-06
8.29138e-05
0.00796783
-5.29175e-05
-0.000547332
0.00796936
-4.4617e-05
-0.00113836
0.00800127
-3.05075e-05
-0.00108085
0.00805914
1.25393e-05
-0.00237858
0.00818939
9.09108e-05
-0.00363014
0.00845467
0.000240203
-0.0056712
0.00893222
0.000486255
-0.0108502
0.00979574
0.000860636
-0.0178621
0.0110643
0.00123559
-0.0234055
0.0122056
0.00113244
-0.0276774
0.0128855
0.000744869
-0.0335498
0.0132178
0.000474775
-0.0410348
0.0140903
0.00103222
-0.0425272
0.0155111
0.0015831
-0.0428299
0.0171304
0.00175125
-0.0411643
0.0182092
0.00137996
-0.039062
0.0188781
0.00125441
-0.0335299
0.019382
0.00139378
-0.0295016
0.020055
0.00178165
-0.029665
0.0218576
0.00269059
-0.0472707
0.0249677
0.00338292
-0.0861838
0.0288122
0.00384957
-0.129168
0.0329378
0.00413978
-0.171314
0.0370986
0.00371207
-0.204949
0.0411076
0.00271624
-0.230848
0.0450779
0.00285984
-0.248875
0.0496591
0.00499204
-0.254978
0.0549211
0.00689749
-0.261458
0.0607667
0.00775286
-0.268762
0.066584
0.00717763
-0.271152
0.0719527
0.00619825
-0.275784
0.0761045
0.00471798
-0.280566
0.0787546
0.00280767
-0.27879
0.0805085
0.000812596
-0.271649
0.0820289
-0.000607414
-0.264102
0.0842077
-0.000208219
-0.25623
0.0876303
0.00135594
-0.254221
0.0915144
0.00313473
-0.253501
0.0983694
0.00721293
-0.247767
0.104792
0.00766834
-0.244008
0.10844
0.0053976
-0.238878
0.109355
0.00274435
-0.231087
0.108552
0.000619509
-0.220521
0.10715
-0.000627403
-0.209099
0.105469
-0.00130504
-0.199871
0.103385
-0.00156365
-0.191763
0.101912
-0.000722937
-0.185051
0.101393
0.000573699
-0.1862
0.10146
0.00137084
-0.174575
0.100508
0.000792552
-0.152013
0.0974971
-0.000323236
-0.14285
0.0937416
8.25596e-05
-0.184065
0.0948719
0.00404977
-0.266534
0.0987868
0.00651428
-0.370996
0.104133
0.00827524
-0.513231
0.109611
0.00889974
-0.628318
0.113993
0.00899442
-0.798617
0.118261
0.0094324
-0.802683
0.00879409
-0.824824
0.00799679
0.000138632
0.00798079
-0.000561692
0.00796875
-0.00095427
0.0079714
-0.000534274
0.00799967
-0.00158995
0.00810586
-0.00237716
0.00836168
-0.00342379
0.00884306
-0.00719393
0.0096994
-0.0127942
0.010931
-0.0202822
0.0120605
-0.0266289
0.0128029
-0.0314501
0.0132422
-0.0375605
0.0142613
-0.0405504
0.0158217
-0.0405128
0.0175611
-0.0351944
0.0188248
-0.0266734
0.019793
-0.0169688
0.0208435
-0.0104911
0.022312
-0.00746503
0.0248266
-0.00746339
0.0283535
-0.0124626
0.0323754
-0.0190823
0.037027
-0.0321928
0.0425748
-0.0482927
0.0486595
-0.0643992
0.0549079
-0.0780322
0.0617735
-0.0851136
0.0691525
-0.092212
0.0766614
-0.100335
0.083773
-0.106126
0.0902607
-0.112006
0.0955076
-0.117326
0.0989966
-0.119479
0.100889
-0.123754
0.101827
-0.132397
0.103312
-0.14205
0.106047
-0.151684
0.110205
-0.161304
0.117465
-0.166756
0.124591
-0.170314
0.129321
-0.170247
0.13145
-0.168368
0.131598
-0.167227
0.130622
-0.169143
0.129074
-0.17484
0.127385
-0.180544
0.126602
-0.18527
0.127108
-0.197046
0.128343
-0.200792
0.128947
-0.191373
0.128316
-0.189858
0.127811
-0.221866
0.131072
-0.278874
0.136731
-0.355886
0.144152
-0.459067
0.152083
-0.530454
0.159844
-0.629089
0.168294
-0.623344
-0.742079
0.00800497
-3.81765e-06
0.00798394
5.3927e-05
0.00795543
5.58317e-05
0.00789959
7.31991e-05
0.00779651
0.000110069
0.00767262
0.000137366
0.00749686
0.000191279
0.00725618
0.000265293
0.0078067
-0.000467041
0.00913669
-0.00138623
0.0100515
-0.00134916
0.00984832
0.000100344
0.00935674
0.000992622
0.0103005
-4.47304e-05
0.0114508
-0.000835426
0.012245
-0.000653596
0.0118278
0.000511804
0.0123009
-0.000415807
0.0132453
-0.00127058
0.0148906
-0.00188275
0.0174933
-0.00276172
0.0208323
-0.00355416
0.0248017
-0.00439361
0.0290918
-0.00461889
0.0334623
-0.00454196
0.0382406
-0.00479682
0.0445166
-0.005703
0.0493886
-0.00444713
0.0523858
-0.00287132
0.0555346
-0.00277419
0.061226
-0.00435056
0.0660761
-0.00429707
0.0675159
-0.000917147
0.0684489
0.000378334
0.0728371
-0.00267876
0.0806482
-0.00644799
0.0876146
-0.00653577
0.0941372
-0.00659511
0.102931
-0.00987677
0.110452
-0.0102358
0.113189
-0.00469659
0.11
0.00262204
0.101975
0.0100704
0.0927773
0.0105806
0.0861875
0.00665018
0.0835635
0.00164012
0.0862918
-0.00395336
0.0894529
-0.00372043
0.0915585
-0.00262469
0.0910728
-0.000267829
0.0888182
0.00140695
0.085338
0.00266176
0.0841207
-2.81554e-05
0.0867617
-0.00415555
0.0902409
-0.00487003
0.0936286
-0.00449988
0.0878748
0.000854634
0.0887603
-0.0132916
0.0977809
-0.0113393
0.0151347
0.00797966
-6.19577e-05
0.00797156
3.67883e-06
0.00795832
3.05931e-05
0.00793629
6.9301e-05
0.00787424
0.000133214
0.00776848
0.000233868
0.00752195
0.00044276
0.00704837
0.000796699
0.00694787
0.000219082
0.00446381
0.00173038
-0.000273706
0.00314218
-0.00246669
0.0019523
-0.00157832
0.000158007
0.000821691
-0.00245928
0.00307753
-0.00261757
0.00407267
-0.00166512
0.00423467
-0.000136923
0.00558037
-0.00182039
0.00716632
-0.00240867
0.00777568
-0.00284488
0.00837021
-0.00398797
0.00924343
-0.00477949
0.0102995
-0.00555591
0.0115373
-0.00572828
0.0128948
-0.00580538
0.0141563
-0.00613254
0.0168691
-0.00969243
0.020635
-0.0188392
0.0249583
-0.0213024
0.025022
-0.0137192
0.0288148
-0.00272727
0.0251716
0.00525644
0.0183303
0.00872989
0.0122913
0.00878652
0.00908112
0.00641621
0.0079653
0.00213319
0.00647961
-0.00291578
0.00578539
-0.00579385
0.00456005
-0.0104657
0.000849215
-0.016727
-0.00272189
-0.0176103
-0.000173452
-0.0147227
0.00924065
-0.00881718
0.0202977
-0.00263458
0.0287675
0.00057217
0.0264055
0.00235434
0.0114341
0.000749564
-0.000291369
-0.00944774
0.0139813
-0.010291
0.00986552
-0.000957369
-0.00265373
0.00769891
-0.0116698
0.0080521
-0.0159073
0.00508703
-0.0158211
-0.00259072
-0.0114635
-0.0041677
-0.0181133
0.00365289
-0.0306032
0.00712531
-0.0407721
-0.00953246
-0.0221702
-0.0254003
0.0024994
0.00793055
-8.06012e-06
0.00792924
2.93678e-05
0.00793464
5.39569e-05
0.00793784
8.62907e-05
0.00790478
0.000153557
0.00782573
0.000302058
0.00767127
0.00061995
0.00742345
0.00128789
0.00716411
0.00177025
0.00543796
0.00420101
0.0025902
0.00544656
-6.03333e-05
0.00265253
1.69515e-06
-0.00017855
0.00177556
-0.00436444
0.00209926
-0.00320135
0.00162831
-0.00147948
0.00139693
0.00023082
0.00290301
-0.000177143
0.00313958
-0.00260314
0.00101471
-9.57927e-05
-0.0032162
-0.000445595
-0.00829893
-0.00020822
-0.0150948
0.00074712
-0.0224469
0.00106616
-0.0296061
0.000675535
-0.036149
-0.000407135
-0.0412888
-0.00546382
-0.0471037
-0.0141183
-0.0542582
-0.0155127
-0.0617131
-0.00875587
-0.0671836
0.00306243
-0.0725029
0.0115279
-0.0782364
0.0159877
-0.0832621
0.0159489
-0.086843
0.0118919
-0.089316
0.00581076
-0.0914353
0.000776697
-0.0933964
-0.00250033
-0.0958732
-0.00737832
-0.100141
-0.0122625
-0.105877
-0.0111823
-0.110748
-0.00745741
-0.113311
-0.00310363
-0.114209
-0.00013996
-0.113887
0.00112038
-0.113397
0.00208132
-0.1116
-0.00095259
-0.110851
-0.0107193
-0.109948
-0.0133543
-0.108819
-0.00481028
-0.109771
0.00873565
-0.112811
0.0114526
-0.11473
0.00676115
-0.116897
0.000444827
-0.120755
0.00418464
-0.125727
0.0178735
-0.128739
0.0318941
-0.126539
0.0351362
-0.116137
0.0227816
0.0115376
0.00796181
-1.08721e-05
0.00796826
1.21295e-05
0.00797275
4.54898e-05
0.00797273
8.9588e-05
0.0079428
0.000162221
0.00788318
0.000330164
0.00777247
0.000750446
0.00756842
0.00166224
0.00756637
0.00303113
0.00715301
0.00522368
0.00605463
0.0058284
0.00431241
0.0026045
0.00246389
-0.000715303
0.00161899
-0.00169293
-0.000130766
-0.00156385
-0.00221842
0.000107135
-0.00346635
0.00115422
-0.00356112
0.00116358
-0.00531063
0.000153246
-0.0101945
0.00376778
-0.0169852
0.00580122
-0.0239144
0.00551486
-0.0307678
0.00640153
-0.0380678
0.00693735
-0.0453616
0.00647903
-0.0523237
0.00510809
-0.0583673
-0.000534049
-0.0642102
-0.0085503
-0.0710794
-0.00978005
-0.0788747
-0.00215497
-0.0864318
0.00978724
-0.0934678
0.017811
-0.100063
0.0219886
-0.106102
0.0214306
-0.111597
0.0163243
-0.116929
0.00926323
-0.121934
0.00385569
-0.126163
0.000448939
-0.13038
-0.00373388
-0.134954
-0.00774435
-0.140039
-0.00621995
-0.144437
-0.00359957
-0.147204
-0.00112723
-0.148026
0.000465742
-0.146259
-0.000300078
-0.141573
-0.000867205
-0.134927
-0.00313193
-0.1284
-0.00737834
-0.122971
-0.00341566
-0.121557
0.00792086
-0.124841
0.0121425
-0.126693
0.00567238
-0.126284
1.04364e-05
-0.129145
-0.00417468
-0.13354
0.0013521
-0.138292
0.0164186
-0.143542
0.032515
-0.148136
0.0344681
-0.155228
0.0258341
0.0192299
0.00795463
-2.4635e-06
0.00795488
1.45679e-05
0.00796187
4.81822e-05
0.00797618
9.69271e-05
0.00797585
0.000170849
0.00794898
0.000343474
0.00797887
0.00077732
0.00808896
0.00167658
0.00855436
0.003352
0.00902887
0.0053755
0.00921118
0.00533102
0.00831161
0.00249684
0.00631095
-0.000322737
0.00518117
0.00303655
0.00172422
0.0029187
-0.00229416
0.00376527
-0.00368499
0.00232871
-0.00403999
0.00145818
-0.00404394
0.000260069
-0.0033053
0.0032378
-0.00465884
0.00781151
-0.00914533
0.0101058
-0.0132264
0.0116361
-0.0173335
0.0115779
-0.0218294
0.0110067
-0.0268992
0.0102821
-0.0320962
0.00551021
-0.0364713
-0.00312207
-0.0414095
-0.00369579
-0.0482823
0.00408143
-0.0553242
0.0145902
-0.0610347
0.0207749
-0.066333
0.0242682
-0.0718662
0.0240802
-0.0772475
0.0196372
-0.0824439
0.0135377
-0.0872641
0.00876319
-0.0905
0.00408865
-0.092911
6.91068e-05
-0.0933797
-0.00487021
-0.0925471
-0.00364866
-0.0888655
-0.00199561
-0.0824726
-0.000906802
-0.0773453
-0.000536319
-0.0756906
-0.00148297
-0.07235
-0.00422665
-0.0714701
-0.00694397
-0.0739757
-0.00801459
-0.0780507
-0.00384333
-0.0792558
0.00279647
-0.0779587
0.00281118
-0.0809986
-0.00036598
-0.0900354
-0.000414202
-0.101266
-0.00267305
-0.113424
0.00325739
-0.124639
0.0155123
-0.134654
0.0283727
-0.142107
0.0257296
-0.148798
0.0154934
0.0142966
0.0079523
6.56679e-06
0.00795556
1.33468e-05
0.007966
4.29537e-05
0.00798739
9.48179e-05
0.0080108
0.000167889
0.0080251
0.000339048
0.00812126
0.000754793
0.00838422
0.00154215
0.00913112
0.00301353
0.0102765
0.00476487
0.0111426
0.00449745
0.0109942
0.00240953
0.00966436
0.000241675
0.00928807
0.00243387
0.00919732
0.00417437
0.00833124
0.00447999
0.00740509
0.00293816
0.00580493
0.00304783
0.00261751
0.00328829
0.000949261
0.0044507
0.00251234
0.00664173
0.00367581
0.00974358
0.00374769
0.0119501
0.00369824
0.0127237
0.00317871
0.0124653
0.00530521
0.011436
0.00433855
0.0102416
0.00508789
0.0152067
0.00328993
0.0161433
-0.00577332
0.0168261
-0.0124298
0.0182365
-0.0146437
0.0192608
-0.0160533
0.0208781
-0.0184083
0.021137
-0.0215999
0.0183017
-0.0254311
0.0159594
-0.0294777
0.0140011
-0.0314248
0.00764336
-0.0344036
0.00324017
-0.0349299
-0.0025757
-0.0367239
-0.00140086
-0.0380607
-2.5814e-05
-0.0373199
-0.000454491
-0.0346311
-0.00256967
-0.0346467
-0.0036495
-0.0350719
-0.0042589
-0.0376885
-0.0079525
-0.0400175
-0.00950173
-0.0420903
-0.00422023
-0.0426811
0.000190231
-0.0432257
-0.000218952
-0.0478165
0.00135868
-0.0556517
0.00412235
-0.0641759
0.00146154
-0.075545
0.00877674
-0.0866686
0.0193193
-0.0947204
0.0282399
-0.0986024
0.020852
-0.104541
0.0104466
0.017406
0.00795359
6.25898e-06
0.00796648
-8.96951e-06
0.00798107
1.67798e-05
0.00800763
6.87086e-05
0.00804891
0.000137039
0.00811003
0.000284003
0.00826737
0.000634388
0.00860978
0.0012785
0.00950786
0.00236651
0.0108605
0.00369872
0.0120058
0.00348888
0.012358
0.00225639
0.0119045
0.00124576
0.012137
0.00285849
0.013178
0.00426292
0.0136467
0.00363882
0.0136374
0.00238272
0.0131042
0.00244017
0.0118827
0.00313306
0.010546
0.00418194
0.01083
0.00594555
0.0125264
0.00815532
0.0144867
0.0101454
0.0164314
0.0111122
0.0181135
0.0110181
0.0194661
0.010446
0.0204272
0.0106526
0.0220381
0.0127984
0.0233355
0.0147718
0.0244682
0.016231
0.0262648
0.0166576
0.029676
0.0158186
0.0353379
0.0129338
0.0401881
0.00952022
0.0420071
0.00780887
0.0389074
0.00737633
0.0350213
0.007772
0.0381061
0.0110636
0.0322014
0.0136369
0.0337123
0.0197466
0.0317311
0.0154822
0.0273971
0.00817735
0.0246701
0.00214102
0.0227289
-0.00103641
0.0205088
-0.00202018
0.0178924
-0.0025912
0.0128797
-0.00409383
0.00646439
-0.000876681
0.00294352
0.000717897
-0.00188213
0.00178103
-0.0113107
-0.00133646
-0.00289444
-0.00565595
0.0101703
-0.00298685
-0.0014185
0.00753634
-0.0129544
0.0132795
-0.0193161
0.0190135
-0.0200318
0.0221721
-0.0248278
0.0193971
-0.0314885
0.0140447
0.0225706
0.00792062
5.92928e-05
0.00793161
9.85495e-06
0.00795185
2.16052e-05
0.00798868
5.13339e-05
0.00805735
9.56737e-05
0.0081684
0.000204899
0.00839229
0.000458095
0.00883499
0.000896208
0.00966359
0.00164762
0.0110224
0.00244371
0.012206
0.0022609
0.0129917
0.00138072
0.0131881
0.000707106
0.0138499
0.00192209
0.0148139
0.00298901
0.0157794
0.00301745
0.0161378
0.00208169
0.0159247
0.00169507
0.0158668
0.00202071
0.0163932
0.00276088
0.0176921
0.00435499
0.0198045
0.00611552
0.0225223
0.00742559
0.0255305
0.00796637
0.0285182
0.00765535
0.0312767
0.00716229
0.0339135
0.00770757
0.0369757
0.00973852
0.0404242
0.0115688
0.0443342
0.0126926
0.0487289
0.0127066
0.0535721
0.011743
0.0574891
0.00964971
0.0594816
0.00694178
0.0599331
0.00501477
0.0593774
0.00497531
0.0585629
0.00687867
0.0594952
0.00917024
0.0609709
0.0117306
0.0669784
0.0148858
0.0733515
0.0124556
0.0780156
0.00738859
0.0803746
0.0029963
0.0805845
9.38684e-05
0.0802222
-0.00149743
0.0793568
-0.00229184
0.076439
-0.00227839
0.0740098
-7.01645e-05
0.0710032
0.00260341
0.0673974
0.00377665
0.0630934
0.00259555
0.0587384
0.000105644
0.0561291
0.000896856
0.0552647
0.00811301
0.0537768
0.0127292
0.0535218
0.0157453
0.0558347
0.0163453
0.0554046
0.0157149
0.0505454
0.0166677
0.0180937
0.00796281
1.66002e-06
0.00796762
-4.91604e-05
0.0079744
-3.67551e-05
0.00800043
-2.11006e-05
0.00806962
1.17696e-05
0.00820018
7.92607e-05
0.00845542
0.000223983
0.00893591
0.000456948
0.00981426
0.000826319
0.0110774
0.00118996
0.0122142
0.00109067
0.0128276
0.000667095
0.0131061
0.000318514
0.0139723
0.00100659
0.0154766
0.00162021
0.0170615
0.00172336
0.0180998
0.00133881
0.0186759
0.00120766
0.0190559
0.00136341
0.0196686
0.00170451
0.0215237
0.00262319
0.0247701
0.00343676
0.0287488
0.00391961
0.0329425
0.00402192
0.0370568
0.00366288
0.0409772
0.00322887
0.0448341
0.00363513
0.0490577
0.00512395
0.053853
0.00633745
0.0592651
0.00685328
0.0648222
0.00666543
0.0699809
0.00614481
0.0740232
0.00507702