/*--------------------------------*- C++ -*----------------------------------*\
  =========                 |
  \\      /  F ield         | OpenFOAM: The Open Source CFD Toolbox
   \\    /   O peration     | Website:  https://openfoam.org
    \\  /    A nd           | Version:  8
     \\/     M anipulation  |
\*---------------------------------------------------------------------------*/
FoamFile
{
    version     2.0;
    format      ascii;
    class       volVectorField;
    location    "600";
    object      U;
}
// * * * * * * * * * * * * * * * * * * * * * * * * * * * * * * * * * * * * * //

dimensions      [0 1 -1 0 0 0 0];

internalField   nonuniform List<vector> 
1200
(
(0.0800258 -0.00542025 -0.000285613)
(0.0804209 -0.00391451 -0.00135124)
(0.0801951 -0.00302948 -0.00296738)
(0.0796491 -0.00239508 -0.00358005)
(0.0788421 -0.0019489 -0.00137517)
(0.0778024 -0.00142842 0.00336335)
(0.076177 -0.000732093 0.00887017)
(0.0729379 0.000253114 0.0251754)
(0.0688941 -6.88555e-05 0.046798)
(0.0815623 -0.00686638 0.0964304)
(0.0973308 -0.0110246 0.108347)
(0.106602 -0.00418336 0.0894517)
(0.0945796 0.00759782 0.0870178)
(0.0951448 0.00557582 0.100043)
(0.108984 0.00720627 0.129104)
(0.120898 0.00768279 0.13792)
(0.1192 0.0121416 0.144858)
(0.117165 0.0103198 0.151227)
(0.12813 0.00719839 0.174021)
(0.140038 0.00675375 0.199472)
(0.161164 0.00461398 0.242867)
(0.192148 -0.00102517 0.287379)
(0.229538 -0.0044234 0.309387)
(0.272176 -0.00452957 0.310558)
(0.315892 -0.00385886 0.305219)
(0.362977 -0.00416762 0.295494)
(0.411006 -0.0022542 0.256002)
(0.448648 -0.00309287 0.202324)
(0.47666 -0.00984402 0.166175)
(0.535362 -0.0140593 0.147136)
(0.610962 -0.016711 0.137867)
(0.666737 -0.0115503 0.137986)
(0.675433 -0.00864797 0.134795)
(0.679572 -0.0133085 0.129243)
(0.727367 -0.0196855 0.123123)
(0.816149 -0.0165699 0.109348)
(0.908903 -0.0067693 0.0913493)
(0.988821 -0.0021498 0.0674059)
(1.06053 -0.00635207 0.0404044)
(1.14205 -0.00333334 0.0125473)
(1.23073 0.00931881 -0.0105736)
(1.26524 0.0266204 -0.0334719)
(1.21201 0.041824 -0.0694748)
(1.10426 0.0512113 -0.103205)
(0.994162 0.0485544 -0.128382)
(0.91145 0.0270853 -0.139561)
(0.879266 -0.000465902 -0.144908)
(0.889945 -0.0120921 -0.14853)
(0.920181 -0.014836 -0.191682)
(0.937585 -0.0135613 -0.222948)
(0.923506 -0.0227664 -0.234922)
(0.90101 -0.0269651 -0.210522)
(0.887533 -0.0308653 -0.22155)
(0.903383 -0.0208508 -0.194432)
(0.943353 -0.0158428 -0.180963)
(0.977366 -0.0413726 -0.258915)
(1.02547 -0.0612673 -0.272938)
(0.976358 -0.0758198 0.0133277)
(1.03674 0.0101682 0.394279)
(1.16065 0.022116 0.375842)
(0.0802126 0.00208978 -0.000162803)
(0.080227 0.00255321 -0.00108155)
(0.0801104 0.00242936 -0.00277347)
(0.0798196 0.002249 -0.00395929)
(0.0793237 0.00216491 -0.00207998)
(0.0785762 0.00226513 0.00331838)
(0.0768795 0.00265512 0.0118709)
(0.0726193 0.00287346 0.0413906)
(0.0667001 -0.00172062 0.135362)
(0.070747 -0.000695204 0.355629)
(0.0168881 0.00583868 0.487614)
(-0.0237722 0.00742518 0.438165)
(-0.0257597 0.000739362 0.326777)
(-0.00636335 -0.0100912 0.280746)
(0.0212499 -0.014387 0.174327)
(0.0391391 -0.0121257 0.164327)
(0.0375538 -0.00607404 0.220113)
(0.0455087 -0.0150363 0.296307)
(0.0671331 -0.0132352 0.462534)
(0.0770847 -0.0185065 0.569291)
(0.0789803 -0.0252533 0.566055)
(0.089277 -0.0274986 0.520031)
(0.0983174 -0.0304261 0.435378)
(0.111911 -0.0319807 0.331424)
(0.125622 -0.0317262 0.265848)
(0.146858 -0.031351 0.227452)
(0.166015 -0.0389428 0.133455)
(0.178269 -0.0521416 0.0639967)
(0.210654 -0.0541642 0.03968)
(0.33418 -0.0360052 0.0262478)
(0.318336 -0.0153373 0.0807687)
(0.270405 0.00337668 0.148378)
(0.203181 0.0170119 0.193577)
(0.153035 0.0132718 0.194005)
(0.112455 -0.00681138 0.190532)
(0.090207 -0.0313121 0.18983)
(0.0912476 -0.0440987 0.197814)
(0.109847 -0.0501311 0.194028)
(0.119363 -0.0668822 0.15731)
(0.107911 -0.0702374 0.107295)
(0.127715 -0.0551564 0.0889748)
(0.168817 -0.0307402 0.0565662)
(0.328096 0.00194585 0.0224639)
(0.418871 0.0282699 -0.0482642)
(0.390859 0.0267176 -0.107599)
(0.353095 0.0181168 -0.151668)
(0.296301 0.00466044 -0.111898)
(0.140698 -0.0125624 -0.0106137)
(0.157251 -0.0254298 -0.238265)
(0.149989 0.00608411 -0.356627)
(0.0758286 0.0351731 -0.383134)
(-0.0778149 0.0404385 0.369099)
(-0.0311162 0.0189273 0.355387)
(-0.143424 -0.0198104 0.432185)
(0.0300076 -0.0268905 0.234173)
(-0.0526642 0.00108858 -0.388552)
(-0.20311 0.0418231 0.690027)
(-0.34191 0.0342083 1.3129)
(-0.432978 -0.0113627 1.33828)
(0.0267414 0.0643365 0.674739)
(0.0798601 -0.000385836 -7.96415e-05)
(0.0797743 -0.000758271 -0.00181745)
(0.0797407 -0.000958304 -0.00481572)
(0.0796835 -0.000928643 -0.00691074)
(0.0794604 -0.000650821 -0.00492849)
(0.0789417 -2.42771e-05 0.00155677)
(0.0779638 0.001611 0.0107977)
(0.0751027 0.00431793 0.0398407)
(0.072764 0.00462488 0.152606)
(0.0695542 0.0166383 0.311418)
(0.0380956 0.0226978 0.37001)
(0.0117675 0.0110105 0.255213)
(-0.0146478 0.00125919 0.0614409)
(0.0166968 -0.0123041 -0.108094)
(0.0217483 -0.00774117 -0.232524)
(0.0250279 -0.00306298 -0.245133)
(0.0118703 -9.84399e-05 -0.174871)
(0.0280881 -0.0038348 0.014866)
(0.0344005 -0.0101269 0.0905769)
(0.0342109 -0.00248434 0.347551)
(-0.0156805 -0.00685983 0.278237)
(-0.0505925 -0.0127289 0.164651)
(-0.112617 -0.0162906 0.122261)
(-0.186085 -0.0150661 0.112121)
(-0.260222 -0.0139327 0.126773)
(-0.32645 -0.016592 0.14836)
(-0.388661 -0.0341213 0.170612)
(-0.457996 -0.0408537 0.199435)
(-0.526951 -0.0191587 0.24109)
(-0.59107 0.00684412 0.294658)
(-0.653793 0.0250003 0.348083)
(-0.712412 0.0386817 0.378403)
(-0.771201 0.0454329 0.39817)
(-0.826361 0.0380923 0.418892)
(-0.861428 0.016202 0.429323)
(-0.885485 -0.0124452 0.430158)
(-0.90548 -0.0298059 0.433169)
(-0.920174 -0.036998 0.430768)
(-0.937776 -0.0499365 0.422772)
(-0.971357 -0.0521689 0.41601)
(-1.01607 -0.034518 0.418873)
(-1.0652 -0.0220649 0.411938)
(-1.10394 -0.0110926 0.401203)
(-1.1192 0.00195284 0.422573)
(-1.12239 0.00838194 0.448318)
(-1.12464 0.0100161 0.468953)
(-1.12798 -0.00678311 0.485437)
(-1.11463 -0.0285216 0.501582)
(-1.09746 -0.0324925 0.51808)
(-1.07471 -0.0103502 0.583203)
(-1.072 0.0196162 0.653152)
(-1.10332 0.0110684 0.693731)
(-1.11768 -0.00962764 0.665989)
(-1.12174 -0.0343732 0.658258)
(-1.15094 -0.023888 0.666216)
(-1.18204 0.015785 0.623682)
(-1.23486 0.023614 0.656803)
(-1.26126 -0.00871749 0.502188)
(-1.17079 -0.0720416 0.067534)
(-1.24593 -0.104289 -0.313171)
(0.0800433 6.94281e-05 -0.000147693)
(0.0801141 0.000390632 -0.00160316)
(0.0801296 0.000744473 -0.00372823)
(0.0800314 0.00105984 -0.00489771)
(0.0797938 0.00145004 -0.00279697)
(0.0794437 0.00230749 0.00281604)
(0.0789397 0.00415728 0.00969289)
(0.0766943 0.00754567 0.030484)
(0.0746366 0.0111392 0.133524)
(0.0764026 0.0193817 0.28114)
(0.0664333 0.0236091 0.294272)
(0.0524926 0.0123324 0.198267)
(0.0297001 -0.00166499 0.0761209)
(0.0223812 -0.0219853 -0.246677)
(0.0112198 -0.0196921 -0.387688)
(-0.0114086 -0.0109735 -0.424684)
(-0.0306362 -0.000867684 -0.404139)
(-0.037502 0.00409959 -0.326008)
(-0.0325975 -0.00411276 -0.206012)
(-0.0629742 0.00454971 0.0452879)
(-0.13056 0.00703782 0.0619415)
(-0.198361 0.0123705 0.0880202)
(-0.265237 0.0225427 0.11325)
(-0.337449 0.0226845 0.138041)
(-0.412182 0.0194314 0.167315)
(-0.485472 0.011439 0.197483)
(-0.553612 -0.00921281 0.224917)
(-0.618287 -0.023767 0.253679)
(-0.685239 -0.00538298 0.286056)
(-0.756516 0.0234554 0.322362)
(-0.832656 0.0479364 0.361873)
(-0.90752 0.0636983 0.393079)
(-0.977464 0.0689802 0.418163)
(-1.03843 0.0570113 0.441963)
(-1.09061 0.0287123 0.464009)
(-1.14116 -0.00337078 0.483452)
(-1.19207 -0.02241 0.502399)
(-1.23901 -0.0303454 0.522523)
(-1.28079 -0.042183 0.54148)
(-1.32587 -0.0433716 0.557101)
(-1.37382 -0.0262492 0.572935)
(-1.41767 -0.014756 0.585995)
(-1.45305 -0.00838088 0.597403)
(-1.47203 -0.00427097 0.608604)
(-1.47347 -0.0057676 0.612944)
(-1.45362 -0.00768468 0.603489)
(-1.40067 -0.0211279 0.569173)
(-1.33128 -0.0370197 0.511247)
(-1.25756 -0.0311464 0.402462)
(-1.18331 0.00996576 0.233582)
(-1.16868 0.0506751 0.0731963)
(-1.20327 0.0424083 -0.0458102)
(-1.20505 0.0197301 -0.178409)
(-1.22404 -0.000365716 -0.262798)
(-1.27231 0.028692 -0.303364)
(-1.31502 0.103874 -0.316312)
(-1.37269 0.191329 -0.399411)
(-1.43164 0.231239 -0.56553)
(-1.49364 0.234933 -0.800176)
(-1.64807 0.237706 -0.995204)
(0.0800088 4.12378e-05 -0.00021118)
(0.0800173 4.44799e-05 -0.00186629)
(0.0799855 -2.81271e-05 -0.004551)
(0.0799723 -5.52231e-05 -0.00642179)
(0.0799733 0.000202662 -0.00531018)
(0.0798695 0.0010034 -0.00035104)
(0.0801194 0.00311811 0.00469448)
(0.0803557 0.00738918 0.0163447)
(0.0823105 0.0145885 0.0693249)
(0.0892562 0.0241055 0.179233)
(0.091693 0.0240306 0.212849)
(0.0917361 0.0118441 0.170404)
(0.0715415 0.00210323 0.103187)
(0.0582982 0.00562091 -0.054661)
(0.0463949 0.00581959 -0.313355)
(-0.010048 0.00915184 -0.415675)
(-0.0340115 0.00309078 -0.405175)
(-0.0376464 0.000866725 -0.394854)
(-0.0411946 0.00137648 -0.413246)
(-0.0355467 0.0189638 -0.365473)
(-0.0245095 0.0355588 -0.143049)
(-0.0568164 0.0330569 -0.0491471)
(-0.10127 0.0335581 0.0197701)
(-0.142572 0.0370193 0.0495051)
(-0.187129 0.0378194 0.0779036)
(-0.241468 0.0340627 0.100088)
(-0.292795 0.0158587 0.120486)
(-0.340545 0.00307205 0.145469)
(-0.393938 0.0221492 0.172944)
(-0.460067 0.0489911 0.2128)
(-0.523075 0.0709733 0.258642)
(-0.579539 0.0861773 0.287183)
(-0.628989 0.0905998 0.307352)
(-0.678584 0.0788469 0.32862)
(-0.734235 0.0543174 0.34872)
(-0.789397 0.0284723 0.364659)
(-0.843725 0.010626 0.383883)
(-0.888765 3.37552e-05 0.401976)
(-0.91806 -0.0158427 0.412106)
(-0.93692 -0.020867 0.405847)
(-0.943631 -0.00765123 0.39087)
(-0.922622 0.00227915 0.352824)
(-0.863079 0.00876575 0.282626)
(-0.763855 0.015716 0.178667)
(-0.67364 0.0172147 0.069548)
(-0.682483 0.0109677 0.00693241)
(-0.681442 -0.0014024 -0.0360221)
(-0.694231 -0.0096545 -0.0849543)
(-0.734327 0.00389547 -0.114323)
(-0.779713 0.027312 -0.123519)
(-0.77896 0.0142557 -0.204543)
(-0.780659 -0.0124322 -0.327273)
(-0.8467 -0.0304086 -0.465011)
(-0.945422 -0.049492 -0.548054)
(-1.07034 -0.0331794 -0.63059)
(-1.18591 0.0233464 -0.660055)
(-1.29076 0.076276 -0.68068)
(-1.3752 0.0629018 -0.732961)
(-1.44547 -0.00453226 -0.746384)
(-1.55815 -0.0527256 -0.84207)
(0.0799959 7.69122e-05 -0.000174962)
(0.0799958 0.000154576 -0.00171461)
(0.0799916 0.00037679 -0.00417775)
(0.0800465 0.000759091 -0.00590679)
(0.0802056 0.0013341 -0.0060735)
(0.0804486 0.00228317 -0.00312218)
(0.0810482 0.00408305 -0.000447276)
(0.0826148 0.00767052 0.00449529)
(0.0863672 0.0138254 0.0278527)
(0.0975229 0.0208631 0.098149)
(0.108938 0.019648 0.13674)
(0.114244 0.0111767 0.134997)
(0.104468 0.000716274 0.117718)
(0.0883205 0.0134097 0.0494924)
(0.0956525 0.0149856 -0.0709771)
(0.0879013 0.0185674 -0.169308)
(0.0793436 0.00975596 -0.215103)
(0.0708032 0.00615674 -0.289321)
(0.0481573 -0.000756628 -0.418893)
(0.00822526 0.00510099 -0.517448)
(0.015954 0.0237225 -0.390629)
(0.0398058 0.0413601 -0.253815)
(0.0398797 0.0487363 -0.172802)
(0.0445486 0.0506377 -0.129578)
(0.0529183 0.0487455 -0.0759154)
(0.0359077 0.0482435 -0.0358619)
(0.0716806 0.041888 -0.0308983)
(0.0398186 0.0272615 0.0226397)
(0.0362965 0.0373473 0.0241937)
(-0.0545568 0.0597084 0.0764612)
(-0.103801 0.0782803 0.128334)
(-0.126028 0.0853845 0.158196)
(-0.131318 0.0854205 0.175542)
(-0.138998 0.0760189 0.188953)
(-0.15721 0.0551727 0.183732)
(-0.206606 0.0271436 0.190721)
(-0.25269 0.00735751 0.21507)
(-0.293395 -0.000743332 0.252863)
(-0.315214 -0.0167496 0.307493)
(-0.328476 -0.0174004 0.335256)
(-0.34872 -7.60536e-05 0.344616)
(-0.362929 0.00350354 0.335416)
(-0.364949 -0.00434696 0.307628)
(-0.336751 -0.0176869 0.23994)
(-0.279304 -0.0304725 0.138075)
(-0.26639 -0.0247124 0.0414103)
(-0.331565 -0.0195837 -0.0661209)
(-0.360398 -0.0241208 -0.156439)
(-0.391426 -0.0131331 -0.203245)
(-0.40768 0.00274795 -0.211987)
(-0.411996 -0.00057557 -0.276465)
(-0.439124 -0.00073914 -0.356151)
(-0.510262 0.0131032 -0.4569)
(-0.577935 0.00644978 -0.495553)
(-0.679805 0.0370327 -0.540134)
(-0.799855 0.0798515 -0.529735)
(-0.89713 0.126441 -0.48687)
(-0.944201 0.120802 -0.471147)
(-1.00381 0.109129 -0.362472)
(-1.20611 0.10156 -0.278268)
(0.0800029 3.51277e-05 -5.18199e-05)
(0.0800345 -0.000197548 -0.00124371)
(0.0801061 -0.000406678 -0.00287944)
(0.0802259 -0.000420835 -0.00372597)
(0.0804947 -0.000141542 -0.00432918)
(0.0810022 0.00063878 -0.00312735)
(0.0821033 0.00232453 -0.00232059)
(0.0844937 0.00558316 -0.00219966)
(0.0898842 0.0112665 0.00354019)
(0.10221 0.0180183 0.0333844)
(0.11645 0.0166665 0.0593697)
(0.125405 0.0111184 0.0644941)
(0.121634 0.00705159 0.0568486)
(0.115233 0.0144142 0.0431543)
(0.124358 0.0166586 0.00498803)
(0.132546 0.0164424 -0.0466043)
(0.13876 0.0103064 -0.0713832)
(0.137415 0.013895 -0.0886229)
(0.131235 0.0228094 -0.117078)
(0.114735 0.0273482 -0.173785)
(0.104202 0.0264165 -0.281068)
(0.118572 0.0324321 -0.337013)
(0.137683 0.0424628 -0.320088)
(0.159805 0.0463167 -0.299945)
(0.182633 0.0438094 -0.267767)
(0.196724 0.0399378 -0.238914)
(0.210737 0.0438447 -0.209013)
(0.228772 0.0570478 -0.16487)
(0.262563 0.0660018 -0.150542)
(0.282038 0.0763063 -0.128413)
(0.324587 0.0827894 -0.0727748)
(0.38564 0.0819795 -0.0321527)
(0.458207 0.076798 -0.000423123)
(0.507193 0.0633556 0.0278794)
(0.505513 0.0520068 0.0417096)
(0.508644 0.0489641 0.037557)
(0.549252 0.046322 0.0221118)
(0.540511 0.0418286 -0.0149568)
(0.542372 0.0395266 -0.0393153)
(0.413949 0.0335436 0.0750704)
(0.336804 0.0248922 0.167076)
(0.301493 0.0176437 0.213656)
(0.282178 0.0110347 0.243077)
(0.272975 0.00143852 0.260761)
(0.251031 -0.0114845 0.261934)
(0.221369 -0.0191693 0.233003)
(0.19604 -0.0166161 0.177242)
(0.189111 -0.0117428 0.0926498)
(0.144934 0.00693475 -0.0259236)
(0.136478 0.0101462 -0.0413505)
(0.158186 0.00315362 0.0289317)
(0.163311 -0.00253428 0.0187773)
(0.164728 0.00499325 -0.323163)
(0.0891621 -0.00112915 -0.633483)
(-0.0888815 0.0208211 -0.902558)
(-0.145536 0.0616527 -0.913674)
(-0.221952 0.0872764 -0.848797)
(-0.152566 0.0509721 -1.10504)
(-0.312645 -0.0181688 -0.422241)
(-0.244224 0.10678 0.612183)
(0.0798098 0.000455337 8.99897e-05)
(0.0796876 0.00087909 -0.00110674)
(0.0797523 0.00117731 -0.0028528)
(0.079974 0.00141638 -0.00376428)
(0.080442 0.00176244 -0.00541932)
(0.0812888 0.00234769 -0.0060208)
(0.0828868 0.00345169 -0.00678031)
(0.0859569 0.00551649 -0.00896938)
(0.0920064 0.00901481 -0.0108775)
(0.103695 0.0128011 -0.00368659)
(0.118108 0.0114293 0.0056517)
(0.129014 0.00666029 0.00921584)
(0.130899 0.00256748 0.00890713)
(0.129143 0.00899172 0.00840503)
(0.138444 0.0124556 0.00184995)
(0.150863 0.01384 -0.0113503)
(0.162559 0.0117874 -0.0219324)
(0.167304 0.0105361 -0.0317901)
(0.166783 0.00867639 -0.0486715)
(0.167999 0.00914582 -0.0726894)
(0.173955 0.0171661 -0.12269)
(0.189524 0.026515 -0.193163)
(0.213776 0.0323095 -0.248092)
(0.244434 0.0331198 -0.284896)
(0.277788 0.0284688 -0.301002)
(0.307965 0.023981 -0.307509)
(0.335418 0.0300791 -0.306811)
(0.36749 0.0456135 -0.289932)
(0.407937 0.0568697 -0.279883)
(0.452608 0.0646868 -0.270159)
(0.504821 0.0629798 -0.249503)
(0.561374 0.0558968 -0.237918)
(0.614256 0.0456004 -0.228802)
(0.654277 0.0320654 -0.208636)
(0.674634 0.0185993 -0.184614)
(0.673433 0.0144822 -0.167742)
(0.667449 0.0270591 -0.154356)
(0.656975 0.0365486 -0.156858)
(0.657074 0.0598679 -0.156054)
(0.692457 0.0893455 -0.117212)
(0.761665 0.0793769 -0.0829615)
(0.832231 0.0475958 -0.0631196)
(0.886756 0.0155726 -0.055189)
(0.914965 -0.00722539 -0.0470193)
(0.917589 -0.0193748 -0.037702)
(0.905117 -0.0224863 -0.0305137)
(0.885104 -0.0221144 -0.0251577)
(0.86249 -0.0140044 -0.0252617)
(0.838416 -0.00326718 -0.0417634)
(0.809077 0.000380108 -0.0394806)
(0.78964 -0.00473112 -0.0229792)
(0.752437 -0.0142822 -0.0252007)
(0.677751 -0.00710191 -0.0955756)
(0.612759 0.0406362 -0.228524)
(0.567974 0.0677195 -0.465481)
(0.551653 0.0743402 -0.741501)
(0.54863 0.0720149 -0.865157)
(0.600645 0.0758956 -1.04913)
(0.528646 0.0829644 -0.891583)
(0.486596 0.0588392 -0.559166)
(0.0801401 -0.00205866 3.77569e-05)
(0.0800773 -0.00248232 -0.000603745)
(0.0800623 -0.00233981 -0.00118878)
(0.0801787 -0.00205292 -0.0011226)
(0.0805914 -0.00160375 -0.00242493)
(0.0814976 -0.00093146 -0.00366982)
(0.0833455 0.000154998 -0.00570962)
(0.0867874 0.00189608 -0.0108996)
(0.0930874 0.00450519 -0.0179363)
(0.104508 0.00703387 -0.0234989)
(0.117871 0.00653564 -0.0278064)
(0.127971 0.00410504 -0.0337062)
(0.130783 0.00233188 -0.0411917)
(0.134093 0.00603769 -0.0427219)
(0.146433 0.00974031 -0.0428847)
(0.163195 0.0112608 -0.0409632)
(0.178462 0.00983917 -0.0389006)
(0.189672 0.0108958 -0.0336635)
(0.198635 0.0141374 -0.0301497)
(0.206437 0.0164643 -0.0304876)
(0.214963 0.0174247 -0.0474009)
(0.235627 0.0190941 -0.0859801)
(0.269894 0.0212861 -0.129316)
(0.311873 0.0201292 -0.171671)
(0.357211 0.0148505 -0.205312)
(0.400912 0.0104758 -0.231326)
(0.44229 0.0144735 -0.249757)
(0.485994 0.026227 -0.256258)
(0.536506 0.0354746 -0.262922)
(0.594373 0.0401384 -0.270158)
(0.657518 0.0388693 -0.272464)
(0.718513 0.0343872 -0.277059)
(0.769301 0.0279783 -0.281976)
(0.806139 0.0187085 -0.28057)
(0.828364 0.00805612 -0.274043)
(0.842906 0.00328995 -0.266903)
(0.86283 0.00901933 -0.258935)
(0.892042 0.0138975 -0.256556)
(0.931216 0.0271778 -0.255385)
(0.994468 0.0425861 -0.248267)
(1.06801 0.0389286 -0.243793)
(1.12013 0.0262825 -0.239002)
(1.14137 0.0145334 -0.23208)
(1.13818 0.00558035 -0.22231)
(1.12126 -0.000480228 -0.211003)
(1.09885 -0.00245399 -0.201591)
(1.0766 3.7431e-05 -0.193328)
(1.05899 0.00662047 -0.186923)
(1.0511 0.0145848 -0.188342)
(1.05312 0.0177546 -0.176731)
(1.05469 0.0152676 -0.154395)
(1.04503 0.0115892 -0.145478)
(1.0214 0.0116089 -0.186666)
(1.00893 0.0208859 -0.269055)
(1.03333 0.0286124 -0.374282)
(1.07948 0.0425441 -0.517585)
(1.12563 0.0464132 -0.63277)
(1.18844 0.0377911 -0.804304)
(1.18571 0.0326907 -0.808729)
(1.25782 0.0566433 -0.83277)
(0.0799777 0.00540637 0.000179779)
(0.0803234 0.00394738 -0.000529097)
(0.0802113 0.00313336 -0.000928506)
(0.0800535 0.00260813 -0.000504485)
(0.0801428 0.00227364 -0.00158762)
(0.0807574 0.0020713 -0.00239118)
(0.0824141 0.00203245 -0.00345202)
(0.085875 0.00220329 -0.00724388)
(0.0922591 0.00257841 -0.0128593)
(0.103378 0.00290775 -0.020363)
(0.116359 0.00228203 -0.0267574)
(0.126601 0.0012301 -0.0316249)
(0.130347 0.000342467 -0.0377877)
(0.135133 0.00153324 -0.0407655)
(0.149057 0.00299683 -0.0407369)
(0.167039 0.00393874 -0.0353883)
(0.183629 0.00406584 -0.0269495)
(0.198092 0.00441186 -0.0173947)
(0.212909 0.00407172 -0.0109621)
(0.22933 0.00326201 -0.00788345)
(0.249553 0.00439914 -0.00769714)
(0.274618 0.00690682 -0.0123696)
(0.306189 0.00847191 -0.0189378)
(0.349844 0.00676329 -0.0318016)
(0.409888 0.00109039 -0.0466609)
(0.477233 -0.00453569 -0.0613914)
(0.543067 -0.00395967 -0.075083)
(0.609719 0.00285221 -0.0836653)
(0.682755 0.00903549 -0.0921895)
(0.760606 0.0119006 -0.101043)
(0.839258 0.0107326 -0.106723)
(0.912718 0.00845352 -0.112265)
(0.975261 0.00647488 -0.117388)
(1.02312 0.00342455 -0.119411)
(1.05054 -0.00222188 -0.123265)
(1.06013 -0.00778191 -0.131431)
(1.07014 -0.00771921 -0.140956)
(1.09043 -0.00447689 -0.150943)
(1.12761 0.00455533 -0.161024)
(1.19321 0.0164132 -0.167424)
(1.27083 0.0191005 -0.171559)
(1.33113 0.0142006 -0.171622)
(1.3633 0.00637013 -0.169671)
(1.37018 -0.00138762 -0.168366)
(1.35789 -0.00703851 -0.170129)
(1.33615 -0.0103126 -0.175705)
(1.31416 -0.0118487 -0.181323)
(1.3003 -0.0114708 -0.186012)
(1.29977 -0.00899801 -0.197849)
(1.31139 -0.00742132 -0.201683)
(1.32442 -0.00781849 -0.192285)
(1.33029 -0.00834486 -0.190899)
(1.33218 -0.00634477 -0.223288)
(1.35336 0.00194576 -0.280728)
(1.40234 0.0096282 -0.358067)
(1.47041 0.0135433 -0.461687)
(1.54435 0.0155807 -0.533483)
(1.63297 0.020201 -0.632811)
(1.67182 0.0239687 -0.626748)
(1.79157 0.0156197 -0.746689)
(0.0800286 -0.00538838 -0.00035478)
(0.0804157 -0.00379961 -0.00141568)
(0.0802211 -0.00279781 -0.00301331)
(0.0797336 -0.0020916 -0.00361246)
(0.0789517 -0.00167377 -0.00140429)
(0.0778872 -0.001456 0.00334731)
(0.076629 -0.00109004 0.00887747)
(0.0741558 -0.000366392 0.0251446)
(0.0707914 -0.000945225 0.0465404)
(0.0821177 -0.00791286 0.0962012)
(0.0975998 -0.0123821 0.108652)
(0.106461 -0.00557917 0.0894134)
(0.0942398 0.00582944 0.0859612)
(0.0960028 0.00619834 0.0988051)
(0.109945 0.00656962 0.1285)
(0.12327 0.00675692 0.137795)
(0.121681 0.0114139 0.144506)
(0.117938 0.010154 0.151251)
(0.128885 0.00526593 0.174286)
(0.14135 0.00463495 0.199675)
(0.16252 0.00297391 0.243057)
(0.193067 -0.00176705 0.287799)
(0.230291 -0.00526447 0.310211)
(0.27354 -0.00555864 0.311144)
(0.317922 -0.00490586 0.305435)
(0.367026 -0.00527347 0.295576)
(0.422994 -0.00269321 0.255739)
(0.470447 -0.000414996 0.202736)
(0.498147 -0.0077932 0.166369)
(0.550988 -0.0136416 0.145082)
(0.627872 -0.0204302 0.134757)
(0.69662 -0.0181257 0.136716)
(0.721977 -0.0127584 0.133874)
(0.727241 -0.0133517 0.126609)
(0.758102 -0.019301 0.119641)
(0.830475 -0.0188808 0.106814)
(0.914818 -0.0113788 0.0908203)
(0.995075 -0.00692695 0.068477)
(1.06742 -0.0115022 0.0431327)
(1.1446 -0.00912474 0.0167879)
(1.22452 0.00762739 -0.00846737)
(1.22228 0.0277662 -0.0352556)
(1.12984 0.0415324 -0.0750619)
(1.01966 0.0459238 -0.107994)
(0.930864 0.0383619 -0.129715)
(0.871722 0.0142493 -0.138118)
(0.857683 -0.0097251 -0.14233)
(0.887337 -0.0161357 -0.14642)
(0.938113 -0.0143042 -0.189921)
(0.954557 -0.00974803 -0.220797)
(0.933626 -0.0200792 -0.233129)
(0.9071 -0.025352 -0.208707)
(0.889034 -0.0305909 -0.218254)
(0.907402 -0.0213124 -0.190903)
(0.951622 -0.0171992 -0.177221)
(0.99437 -0.0441366 -0.256478)
(1.03743 -0.0630031 -0.26976)
(0.963353 -0.0862333 0.0307143)
(1.0258 -0.00251175 0.386306)
(1.10073 0.0401904 0.34482)
(0.0801999 0.00210425 -6.59617e-05)
(0.0801894 0.00252332 -0.000970188)
(0.0800933 0.00235538 -0.00268736)
(0.0798962 0.0021745 -0.00390444)
(0.07953 0.00216657 -0.00203981)
(0.0788677 0.00235068 0.00334009)
(0.0775996 0.00266604 0.0118792)
(0.0736953 0.00286141 0.0412554)
(0.0674451 -0.00185685 0.134152)
(0.0710581 -0.00113078 0.354347)
(0.0178785 0.00538605 0.488158)
(-0.0233806 0.00719658 0.438743)
(-0.0255294 0.000608892 0.326613)
(-0.00572307 -0.00947312 0.28048)
(0.022603 -0.0142861 0.173412)
(0.0419862 -0.0117986 0.164565)
(0.0397522 -0.00424042 0.221129)
(0.0454036 -0.0145534 0.295922)
(0.0672478 -0.0134182 0.461958)
(0.0778286 -0.018955 0.570065)
(0.0800046 -0.0253113 0.567365)
(0.0901284 -0.0272068 0.520734)
(0.0990311 -0.0303258 0.435669)
(0.113135 -0.032066 0.331219)
(0.127158 -0.0319255 0.265498)
(0.150414 -0.0315536 0.227366)
(0.17522 -0.0420196 0.135279)
(0.158905 -0.0614447 0.0790584)
(0.176881 -0.0646258 0.0586051)
(0.308869 -0.0476291 0.0450533)
(0.383779 -0.020356 0.0730101)
(0.343435 0.00319969 0.13933)
(0.25786 0.0216939 0.188902)
(0.19475 0.0268453 0.190628)
(0.158966 0.0155939 0.183322)
(0.148465 -0.00808789 0.180589)
(0.125469 -0.0273013 0.196146)
(0.129559 -0.0379328 0.195866)
(0.130566 -0.0622944 0.162594)
(0.0941039 -0.0767223 0.124508)
(0.0826679 -0.0643579 0.116205)
(0.132892 -0.0377462 0.0812695)
(0.269574 -0.0034278 0.0377494)
(0.29253 0.0136016 -0.0377437)
(0.334555 0.0117236 -0.105064)
(0.340459 0.0085265 -0.146019)
(0.269206 -0.00239529 -0.0976144)
(0.0471434 -0.0227962 0.0268759)
(0.174774 -0.0230664 -0.242317)
(0.158673 0.00925526 -0.347992)
(0.0854083 0.0370665 -0.373177)
(-0.0832034 0.038291 0.373612)
(-0.0366308 0.0197504 0.355241)
(-0.148365 -0.0183823 0.42909)
(-0.00408482 -0.0298592 0.228271)
(-0.042052 0.00228853 -0.386876)
(-0.207131 0.0332142 0.700075)
(-0.342825 0.0224029 1.322)
(-0.432797 -0.0131245 1.32649)
(0.018351 0.0555558 0.66213)
(0.0798298 -0.000387025 -0.00012047)
(0.0797037 -0.000781266 -0.00187593)
(0.0797168 -0.000960152 -0.00486622)
(0.0797812 -0.000882113 -0.00694517)
(0.0796913 -0.000549755 -0.00494911)
(0.0792572 2.3431e-05 0.00151839)
(0.0784953 0.00131159 0.0107329)
(0.0757892 0.0038508 0.039269)
(0.0731851 0.0041186 0.149993)
(0.0700391 0.0157412 0.309965)
(0.0390845 0.0218488 0.371187)
(0.0122812 0.0103969 0.259046)
(-0.0151442 -0.000391043 0.0618962)
(0.0155161 -0.0112616 -0.107558)
(0.0206751 -0.00678022 -0.231864)
(0.0224608 -0.00239601 -0.24459)
(0.00961751 0.000708247 -0.175229)
(0.0176172 -0.00643274 0.00892831)
(0.0347407 -0.0130748 0.0904265)
(0.0355872 -0.00350267 0.346763)
(-0.012272 -0.0074628 0.279591)
(-0.0465181 -0.012751 0.165439)
(-0.108245 -0.0166516 0.123089)
(-0.179343 -0.0162916 0.113242)
(-0.251841 -0.0155953 0.128108)
(-0.316331 -0.0203208 0.149982)
(-0.376286 -0.0448508 0.172662)
(-0.446538 -0.0620296 0.201322)
(-0.515298 -0.0355795 0.242078)
(-0.576562 -0.000877402 0.2971)
(-0.625631 0.0280801 0.347805)
(-0.677442 0.0464651 0.376999)
(-0.737529 0.0575674 0.396099)
(-0.795279 0.0573158 0.41553)
(-0.834197 0.0429025 0.425743)
(-0.864106 0.0150182 0.427809)
(-0.884645 -0.00947215 0.430541)
(-0.901802 -0.0243385 0.428362)
(-0.921634 -0.0466712 0.421479)
(-0.958926 -0.059577 0.415761)
(-1.00945 -0.0456652 0.417578)
(-1.06251 -0.0290991 0.408154)
(-1.10123 -0.0104593 0.397485)
(-1.117 0.00747275 0.421245)
(-1.12065 0.0140562 0.44866)
(-1.12308 0.0135199 0.470998)
(-1.12454 -0.00543268 0.488828)
(-1.10886 -0.0324022 0.502998)
(-1.09295 -0.0385182 0.518223)
(-1.07463 -0.0151866 0.585707)
(-1.06987 0.0210435 0.652924)
(-1.10174 0.0127066 0.6934)
(-1.11556 -0.00737463 0.664365)
(-1.12036 -0.0330076 0.654059)
(-1.15185 -0.0256923 0.655455)
(-1.18722 0.0131274 0.604569)
(-1.23021 0.0206791 0.614266)
(-1.22726 -0.0218516 0.414522)
(-1.12215 -0.0928865 -0.0420047)
(-1.19728 -0.116504 -0.280962)
(0.0800222 6.31652e-05 -0.000138916)
(0.0800693 0.000401264 -0.00158595)
(0.0801326 0.000786336 -0.00371336)
(0.0801448 0.00112491 -0.0048897)
(0.0800361 0.00146994 -0.00279319)
(0.0796537 0.00213926 0.00281659)
(0.0792072 0.00368336 0.00965295)
(0.0771868 0.00685911 0.0301061)
(0.0749056 0.0106111 0.130959)
(0.0766194 0.0187516 0.279952)
(0.0672042 0.0229081 0.295916)
(0.0533385 0.0112421 0.20177)
(0.0302155 -0.00241241 0.0804645)
(0.0218629 -0.0214164 -0.250227)
(0.010424 -0.0188117 -0.38745)
(-0.0126941 -0.00978829 -0.42367)
(-0.0317241 0.00174573 -0.403413)
(-0.0377677 0.00551366 -0.328209)
(-0.0329304 -0.00322044 -0.207691)
(-0.0602267 0.00607883 0.047717)
(-0.129239 0.00778709 0.0634465)
(-0.199782 0.0120214 0.0904705)
(-0.267431 0.0203929 0.115798)
(-0.337899 0.0205163 0.140936)
(-0.411438 0.0171515 0.170336)
(-0.483952 0.0070049 0.200367)
(-0.549004 -0.0210938 0.227264)
(-0.607604 -0.0455505 0.254893)
(-0.675292 -0.0267524 0.288427)
(-0.744199 0.0105303 0.3252)
(-0.814113 0.0487067 0.364271)
(-0.886058 0.0716968 0.395071)
(-0.956087 0.0835671 0.419692)
(-1.01899 0.0789605 0.44315)
(-1.07487 0.0566023 0.465542)
(-1.12999 0.0246253 0.485909)
(-1.18278 -0.000574646 0.505202)
(-1.22833 -0.0158178 0.524606)
(-1.26757 -0.0366997 0.542745)
(-1.31091 -0.0475731 0.557716)
(-1.3618 -0.0340714 0.573758)
(-1.41025 -0.0190238 0.587251)
(-1.44833 -0.00645769 0.598691)
(-1.46655 0.0014666 0.608648)
(-1.46682 -0.000642671 0.611463)
(-1.44239 -0.00512632 0.598596)
(-1.38212 -0.0199592 0.557996)
(-1.30882 -0.0392034 0.490957)
(-1.23831 -0.0339961 0.371916)
(-1.17456 0.00623736 0.205565)
(-1.17408 0.0510697 0.0728798)
(-1.20822 0.0486411 -0.0307133)
(-1.20814 0.0230979 -0.165746)
(-1.22695 0.00383686 -0.248269)
(-1.27384 0.0331052 -0.288428)
(-1.31259 0.108951 -0.302964)
(-1.37059 0.195606 -0.388103)
(-1.43275 0.238635 -0.552385)
(-1.49507 0.250233 -0.786298)
(-1.6255 0.255588 -0.981629)
(0.0799879 4.03213e-05 -0.000210916)
(0.0799656 4.91456e-05 -0.00187158)
(0.0799841 -1.56246e-05 -0.00456439)
(0.0800809 -2.95542e-05 -0.00644095)
(0.0801941 0.000159311 -0.00533109)
(0.0801061 0.000779179 -0.000389278)
(0.0802085 0.00257967 0.00461545)
(0.0804616 0.00655704 0.0160846)
(0.0823351 0.0138655 0.0677651)
(0.0892332 0.023478 0.178028)
(0.0920887 0.0237895 0.21359)
(0.0922079 0.0102756 0.172501)
(0.0722346 0.000811993 0.106382)
(0.0573207 0.0091855 -0.0625305)
(0.0456526 0.00666458 -0.315491)
(-0.0111525 0.0101697 -0.415018)
(-0.0350664 0.00562348 -0.404771)
(-0.0383961 0.0028889 -0.394792)
(-0.0422755 0.00224662 -0.413318)
(-0.0370795 0.0196038 -0.365988)
(-0.0265448 0.0366625 -0.144337)
(-0.0593781 0.0341404 -0.0493195)
(-0.0951322 0.0361633 0.0183102)
(-0.133467 0.0374993 0.0491283)
(-0.178816 0.0381416 0.0784791)
(-0.234254 0.0324563 0.100175)
(-0.280503 0.0062388 0.118993)
(-0.32398 -0.0158823 0.145285)
(-0.370387 0.00411189 0.173102)
(-0.436872 0.0381063 0.215518)
(-0.503627 0.0727228 0.263268)
(-0.56386 0.0947407 0.292503)
(-0.617752 0.105417 0.313092)
(-0.670166 0.100177 0.334088)
(-0.72529 0.0794605 0.352677)
(-0.778834 0.0525218 0.366591)
(-0.83051 0.0297117 0.383891)
(-0.874392 0.0133519 0.400978)
(-0.897989 -0.00993064 0.409519)
(-0.907059 -0.0250638 0.401106)
(-0.909167 -0.0151558 0.383576)
(-0.88446 -0.00253153 0.341303)
(-0.8216 0.00983851 0.267323)
(-0.731145 0.0212428 0.166906)
(-0.664595 0.0179616 0.0687916)
(-0.663874 0.0026403 0.00875303)
(-0.660981 -0.0100258 -0.0298277)
(-0.682939 -0.0150421 -0.0771421)
(-0.725126 0.0053582 -0.101977)
(-0.765316 0.0332896 -0.10802)
(-0.760187 0.018714 -0.187798)
(-0.75917 -0.0147844 -0.310828)
(-0.828583 -0.0315745 -0.446767)
(-0.929344 -0.0470949 -0.528979)
(-1.0542 -0.0305242 -0.609849)
(-1.17079 0.0264814 -0.635805)
(-1.2777 0.0818464 -0.653098)
(-1.36524 0.0699483 -0.702788)
(-1.43755 0.00138334 -0.718031)
(-1.53948 -0.0520054 -0.820275)
(0.0799753 8.74367e-05 -0.000175384)
(0.0799482 0.000191922 -0.00172028)
(0.0799989 0.000461516 -0.0041902)
(0.0801461 0.000864997 -0.00592555)
(0.0803876 0.00132764 -0.00609696)
(0.0806344 0.00209672 -0.00315484)
(0.0811359 0.00366976 -0.000532615)
(0.0825352 0.00683095 0.00426492)
(0.0862604 0.0131829 0.0270276)
(0.097322 0.0204822 0.0971277)
(0.108913 0.0196214 0.136751)
(0.114498 0.00991217 0.135582)
(0.105136 -0.00015706 0.119221)
(0.0895991 0.0108005 0.0506417)
(0.0958349 0.0158674 -0.0735291)